{
	 "smiles": "CCCCC1=CC=C(NS(=O)(=O)C2=CC=C(N)C=C2)C=C1", 
	 "Tm": 433.15, 
	 "num_atms": 41, 
	 "gaussian": { 
		 "optdone": 1, 
		 "sigma_profile": "yes", 
		 "theory": "DFT", 
		 "functional": "B3LYP", 
		 "basiset": "6-31G**", 
		 "properties": { 
			 "R2extent": 10516.5056, 
			 "electric_dipole_moment_norm": 5.43226692735, 
			 "electric_quadrupole_moment_norm": 44.7373427745, 
			 "total_energy": -1279.84847882, 
			 "HOMO_LUMO_gap": 0.19087, 
			 "cosmo_polarized_energy": -20.91, 
			 "cosmo_cavitation_energy": 45.44, 
			 "cosmo_dispersion_energy": -31.81, 
			 "cosmo_repulsion_energy": 2.45, 
			 "cosmo_total_nonelectrostatic_energy": 16.08, 
			 "SMD_solvation_energy": 6.34 
		},
		"coords": [
			{
				"x": 1.151687404,
				"y": -5.6601772504,
				"z": -1.3097544514,
				"element": "C" 
			},
			{
				"x": 0.7177727544,
				"y": -4.3675825942,
				"z": -2.0084239241,
				"element": "C" 
			},
			{
				"x": 1.8579642173,
				"y": -3.6964571518,
				"z": -2.7834526844,
				"element": "C" 
			},
			{
				"x": 1.4552744902,
				"y": -2.3917353309,
				"z": -3.5061097789,
				"element": "C" 
			},
			{
				"x": 1.0709355766,
				"y": -1.2595336521,
				"z": -2.5760921215,
				"element": "C" 
			},
			{
				"x": -0.2672213424,
				"y": -0.9043631465,
				"z": -2.3621403146,
				"element": "C" 
			},
			{
				"x": -0.6229318695,
				"y": 0.1314556055,
				"z": -1.5003886732,
				"element": "C" 
			},
			{
				"x": 0.3679649459,
				"y": 0.8301621781,
				"z": -0.8020701036,
				"element": "C" 
			},
			{
				"x": 0.0393976281,
				"y": 1.921470852,
				"z": 0.0477023256,
				"element": "N" 
			},
			{
				"x": -1.0678309758,
				"y": 1.7757681813,
				"z": 1.3477595203,
				"element": "S" 
			},
			{
				"x": -0.6071306047,
				"y": 2.8159642973,
				"z": 2.2752941359,
				"element": "O" 
			},
			{
				"x": -1.1986926213,
				"y": 0.3776546993,
				"z": 1.7653251679,
				"element": "O" 
			},
			{
				"x": -2.6238084345,
				"y": 2.2738724725,
				"z": 0.6417486613,
				"element": "C" 
			},
			{
				"x": -3.6760334569,
				"y": 1.3573688611,
				"z": 0.5744269859,
				"element": "C" 
			},
			{
				"x": -4.9062796684,
				"y": 1.7548051009,
				"z": 0.0649028532,
				"element": "C" 
			},
			{
				"x": -5.1047195148,
				"y": 3.075572406,
				"z": -0.3815327909,
				"element": "C" 
			},
			{
				"x": -6.313061951,
				"y": 3.46044575,
				"z": -0.9351428232,
				"element": "N" 
			},
			{
				"x": -4.0320908115,
				"y": 3.9887945905,
				"z": -0.298402215,
				"element": "C" 
			},
			{
				"x": -2.8052027709,
				"y": 3.5931788127,
				"z": 0.2116220439,
				"element": "C" 
			},
			{
				"x": 1.7110049383,
				"y": 0.4845848897,
				"z": -0.999520841,
				"element": "C" 
			},
			{
				"x": 2.0515377848,
				"y": -0.5355513536,
				"z": -1.8838930061,
				"element": "C" 
			},
			{
				"x": 1.5283750806,
				"y": -6.3958930741,
				"z": -2.0299862698,
				"element": "H" 
			},
			{
				"x": 1.9515746957,
				"y": -5.4685707839,
				"z": -0.5854063809,
				"element": "H" 
			},
			{
				"x": 0.3188024518,
				"y": -6.1209500457,
				"z": -0.7686337826,
				"element": "H" 
			},
			{
				"x": -0.1082148087,
				"y": -4.5845589517,
				"z": -2.7004198856,
				"element": "H" 
			},
			{
				"x": 0.3179887395,
				"y": -3.6659748442,
				"z": -1.2664386651,
				"element": "H" 
			},
			{
				"x": 2.6885334735,
				"y": -3.4841174498,
				"z": -2.0963769948,
				"element": "H" 
			},
			{
				"x": 2.2504827139,
				"y": -4.4002238952,
				"z": -3.5302391236,
				"element": "H" 
			},
			{
				"x": 2.2939933449,
				"y": -2.0709298992,
				"z": -4.1368823108,
				"element": "H" 
			},
			{
				"x": 0.6210092848,
				"y": -2.6030645843,
				"z": -4.1868264983,
				"element": "H" 
			},
			{
				"x": -1.0507452253,
				"y": -1.4381938059,
				"z": -2.8941214091,
				"element": "H" 
			},
			{
				"x": -1.6657140173,
				"y": 0.4029699416,
				"z": -1.3794655588,
				"element": "H" 
			},
			{
				"x": 0.8444512806,
				"y": 2.4190672572,
				"z": 0.4177167935,
				"element": "H" 
			},
			{
				"x": -3.522787006,
				"y": 0.3442487217,
				"z": 0.9296113267,
				"element": "H" 
			},
			{
				"x": -5.7247978453,
				"y": 1.0419697506,
				"z": 0.0113358696,
				"element": "H" 
			},
			{
				"x": -7.1181029222,
				"y": 2.8951393631,
				"z": -0.7090085562,
				"element": "H" 
			},
			{
				"x": -6.5097095437,
				"y": 4.4501935615,
				"z": -0.9569922556,
				"element": "H" 
			},
			{
				"x": -4.1728964186,
				"y": 5.0116069848,
				"z": -0.6375446998,
				"element": "H" 
			},
			{
				"x": -1.9895660313,
				"y": 4.3047924469,
				"z": 0.2826197932,
				"element": "H" 
			},
			{
				"x": 2.4896687303,
				"y": 1.0200102232,
				"z": -0.4615195927,
				"element": "H" 
			},
			{
				"x": 3.1014183048,
				"y": -0.7779191337,
				"z": -2.0310797652,
				"element": "H" 
			}
		],
		 "valence_orbital": [ 
			{
				"type": "occ",
				"energy": -0.28905,
				"method": "rhf"
			},
			{
				"type": "occ",
				"energy": -0.26749,
				"method": "rhf"
			},
			{
				"type": "occ",
				"energy": -0.24822,
				"method": "rhf"
			},
			{
				"type": "occ",
				"energy": -0.22542,
				"method": "rhf"
			},
			{
				"type": "occ",
				"energy": -0.21327,
				"method": "rhf"
			},
			{
				"type": "unocc",
				"energy": -0.0224,
				"method": "rhf"
			},
			{
				"type": "unocc",
				"energy": -0.01622,
				"method": "rhf"
			},
			{
				"type": "unocc",
				"energy": -0.00142,
				"method": "rhf"
			},
			{
				"type": "unocc",
				"energy": 0.00248,
				"method": "rhf"
			},
			{
				"type": "unocc",
				"energy": 0.06046,
				"method": "rhf"
			}
		],
		"cosmo_sigma_profile": { 
			"-0.025": 0.0,
			"-0.024": 0.0,
			"-0.023": 0.0,
			"-0.022": 0.0,
			"-0.021": 0.0,
			"-0.02": 0.0,
			"-0.019": 0.0,
			"-0.018": 0.0,
			"-0.017": 0.0,
			"-0.016": 0.0,
			"-0.015": 0.184133888602,
			"-0.014": 1.44764584644,
			"-0.013": 3.42317412948,
			"-0.012": 4.89163564758,
			"-0.011": 3.76585400574,
			"-0.01": 4.47557669192,
			"-0.009": 4.6640384529,
			"-0.008": 4.58573072712,
			"-0.007": 7.41518742381,
			"-0.006": 10.7126332849,
			"-0.005": 14.8740606278,
			"-0.004": 15.249446423,
			"-0.003": 22.8554295392,
			"-0.002": 33.056163294,
			"-0.001": 34.0485231643,
			"0.0": 35.0153912338,
			"0.001": 32.792987412,
			"0.002": 24.017651246,
			"0.003": 20.0565875024,
			"0.004": 21.2112465456,
			"0.005": 13.6080903897,
			"0.006": 8.71515806672,
			"0.007": 5.21640977014,
			"0.008": 4.80598212838,
			"0.009": 5.32793457789,
			"0.01": 6.81443798233,
			"0.011": 11.0808236014,
			"0.012": 4.17578478019,
			"0.013": 0.0165727886189,
			"0.014": 0.0,
			"0.015": 0.0,
			"0.016": 0.0,
			"0.017": 0.0,
			"0.018": 0.0,
			"0.019": 0.0,
			"0.02": 0.0,
			"0.021": 0.0,
			"0.022": 0.0,
			"0.023": 0.0,
			"0.024": 0.0,
			"0.025": 0.0
		}
	}
}
