{
	 "smiles": "OC(=O)CC1=CSC(NC(=O)C2=CC=C(Br)O2)=N1", 
	 "Tm": 488.15, 
	 "num_atms": 25, 
	 "gaussian": { 
		 "optdone": 1, 
		 "sigma_profile": "yes", 
		 "theory": "DFT", 
		 "functional": "B3LYP", 
		 "basiset": "6-31G**", 
		 "properties": { 
			 "R2extent": 11117.3741, 
			 "electric_dipole_moment_norm": 10.0796291127, 
			 "electric_quadrupole_moment_norm": 24.4602768147, 
			 "total_energy": -3765.25049349, 
			 "HOMO_LUMO_gap": 0.16104, 
			 "cosmo_polarized_energy": -26.94, 
			 "cosmo_cavitation_energy": 35.89, 
			 "cosmo_dispersion_energy": -26.86, 
			 "cosmo_repulsion_energy": 2.04, 
			 "cosmo_total_nonelectrostatic_energy": 11.07, 
			 "SMD_solvation_energy": 6.69 
		},
		"coords": [
			{
				"x": 0.9489923682,
				"y": -2.8075340581,
				"z": 2.653581939,
				"element": "O" 
			},
			{
				"x": 1.8352196169,
				"y": -3.7077658512,
				"z": 2.2093910796,
				"element": "C" 
			},
			{
				"x": 2.0818772866,
				"y": -4.720041717,
				"z": 2.8218818158,
				"element": "O" 
			},
			{
				"x": 2.5929800583,
				"y": -3.3599816212,
				"z": 0.9106069099,
				"element": "C" 
			},
			{
				"x": 1.7814033934,
				"y": -2.6813595839,
				"z": -0.1549151908,
				"element": "C" 
			},
			{
				"x": 1.6991374824,
				"y": -3.0186044034,
				"z": -1.4721279494,
				"element": "C" 
			},
			{
				"x": 0.6287534377,
				"y": -1.9237346974,
				"z": -2.3107049759,
				"element": "S" 
			},
			{
				"x": 0.3736896892,
				"y": -1.0815001896,
				"z": -0.7803002063,
				"element": "C" 
			},
			{
				"x": -0.4713332132,
				"y": 0.012302596,
				"z": -0.7292548824,
				"element": "N" 
			},
			{
				"x": -0.986170782,
				"y": 0.5929324147,
				"z": 0.4433136926,
				"element": "C" 
			},
			{
				"x": -0.8028717301,
				"y": 0.1535434283,
				"z": 1.5596175534,
				"element": "O" 
			},
			{
				"x": -1.7750495388,
				"y": 1.8090241426,
				"z": 0.166685083,
				"element": "C" 
			},
			{
				"x": -1.9032296712,
				"y": 2.6589540233,
				"z": -0.9043328335,
				"element": "C" 
			},
			{
				"x": -2.8076075098,
				"y": 3.6864760873,
				"z": -0.5104226414,
				"element": "C" 
			},
			{
				"x": -3.1574885213,
				"y": 3.3810937332,
				"z": 0.7756450593,
				"element": "C" 
			},
			{
				"x": -4.2990471562,
				"y": 4.2341701417,
				"z": 1.9750993738,
				"element": "Br" 
			},
			{
				"x": -2.5470749516,
				"y": 2.2588027224,
				"z": 1.205112228,
				"element": "O" 
			},
			{
				"x": 1.0334877005,
				"y": -1.57877847,
				"z": 0.2218070109,
				"element": "N" 
			},
			{
				"x": 0.8271042083,
				"y": -2.0741197919,
				"z": 2.0074989672,
				"element": "H" 
			},
			{
				"x": 3.0389421328,
				"y": -4.2841113191,
				"z": 0.5423483783,
				"element": "H" 
			},
			{
				"x": 3.4162129121,
				"y": -2.6946529726,
				"z": 1.2081644524,
				"element": "H" 
			},
			{
				"x": 2.1900088409,
				"y": -3.8226799342,
				"z": -2.0000908459,
				"element": "H" 
			},
			{
				"x": -0.8576015482,
				"y": 0.3279411901,
				"z": -1.606990103,
				"element": "H" 
			},
			{
				"x": -1.3917333817,
				"y": 2.5903236603,
				"z": -1.8546535965,
				"element": "H" 
			},
			{
				"x": -3.1468011232,
				"y": 4.5337004698,
				"z": -1.0858603182,
				"element": "H" 
			}
		],
		 "valence_orbital": [ 
			{
				"type": "occ",
				"energy": -0.28816,
				"method": "rhf"
			},
			{
				"type": "occ",
				"energy": -0.27947,
				"method": "rhf"
			},
			{
				"type": "occ",
				"energy": -0.26038,
				"method": "rhf"
			},
			{
				"type": "occ",
				"energy": -0.25304,
				"method": "rhf"
			},
			{
				"type": "occ",
				"energy": -0.23564,
				"method": "rhf"
			},
			{
				"type": "unocc",
				"energy": -0.0746,
				"method": "rhf"
			},
			{
				"type": "unocc",
				"energy": -0.02903,
				"method": "rhf"
			},
			{
				"type": "unocc",
				"energy": -0.02325,
				"method": "rhf"
			},
			{
				"type": "unocc",
				"energy": -0.01091,
				"method": "rhf"
			},
			{
				"type": "unocc",
				"energy": 0.01018,
				"method": "rhf"
			}
		],
		"cosmo_sigma_profile": { 
			"-0.025": 0.0,
			"-0.024": 0.0,
			"-0.023": 0.0,
			"-0.022": 0.0,
			"-0.021": 0.0,
			"-0.02": 0.0,
			"-0.019": 0.0150127504465,
			"-0.018": 0.751917978085,
			"-0.017": 0.735418353302,
			"-0.016": 1.66921323294,
			"-0.015": 1.30650545369,
			"-0.014": 1.81289689991,
			"-0.013": 1.21810687558,
			"-0.012": 1.0718158359,
			"-0.011": 1.75151327737,
			"-0.01": 3.24777333006,
			"-0.009": 6.65039797544,
			"-0.008": 8.09369449877,
			"-0.007": 12.018214888,
			"-0.006": 11.4347189353,
			"-0.005": 11.4397299681,
			"-0.004": 12.5827704429,
			"-0.003": 17.2513214125,
			"-0.002": 18.9033723582,
			"-0.001": 24.3867086422,
			"0.0": 27.6996754476,
			"0.001": 24.6719600999,
			"0.002": 29.4292625518,
			"0.003": 16.1321665542,
			"0.004": 5.11147176609,
			"0.005": 5.18255905571,
			"0.006": 5.5630256518,
			"0.007": 5.04737597365,
			"0.008": 5.56859161932,
			"0.009": 5.20270699199,
			"0.01": 7.89929716501,
			"0.011": 7.97030986144,
			"0.012": 8.62493579134,
			"0.013": 4.14374554897,
			"0.014": 0.545741221376,
			"0.015": 0.0,
			"0.016": 0.0,
			"0.017": 0.0,
			"0.018": 0.0,
			"0.019": 0.0,
			"0.02": 0.0,
			"0.021": 0.0,
			"0.022": 0.0,
			"0.023": 0.0,
			"0.024": 0.0,
			"0.025": 0.0
		}
	}
}
