{
	 "smiles": "CS(=O)C1=C(C=CC=C1)C(O)=O", 
	 "Tm": 405.15, 
	 "num_atms": 20, 
	 "gaussian": { 
		 "optdone": 1, 
		 "sigma_profile": "yes", 
		 "theory": "DFT", 
		 "functional": "B3LYP", 
		 "basiset": "6-31G**", 
		 "properties": { 
			 "R2extent": 2224.9745, 
			 "electric_dipole_moment_norm": 5.28280828727, 
			 "electric_quadrupole_moment_norm": 12.4289842264, 
			 "total_energy": -933.487321693, 
			 "HOMO_LUMO_gap": 0.15878, 
			 "cosmo_polarized_energy": -18.8, 
			 "cosmo_cavitation_energy": 25.23, 
			 "cosmo_dispersion_energy": -19.11, 
			 "cosmo_repulsion_energy": 1.46, 
			 "cosmo_total_nonelectrostatic_energy": 7.58, 
			 "SMD_solvation_energy": 5.33 
		},
		"coords": [
			{
				"x": 1.5157540582,
				"y": 1.0175927101,
				"z": 1.7802541834,
				"element": "C" 
			},
			{
				"x": 0.5239698946,
				"y": 1.6605082681,
				"z": 0.3734664325,
				"element": "S" 
			},
			{
				"x": -0.5100578691,
				"y": 2.5849689016,
				"z": 0.9819719119,
				"element": "O" 
			},
			{
				"x": -0.3906076601,
				"y": 0.0914369966,
				"z": 0.0207308622,
				"element": "C" 
			},
			{
				"x": 0.0840915299,
				"y": -0.9397664895,
				"z": -0.810724513,
				"element": "C" 
			},
			{
				"x": -0.7442984656,
				"y": -2.04953235,
				"z": -1.0472038208,
				"element": "C" 
			},
			{
				"x": -2.0198641302,
				"y": -2.1216650803,
				"z": -0.491182432,
				"element": "C" 
			},
			{
				"x": -2.4923254744,
				"y": -1.0704546989,
				"z": 0.2964940299,
				"element": "C" 
			},
			{
				"x": -1.6814677361,
				"y": 0.0385560589,
				"z": 0.5407718025,
				"element": "C" 
			},
			{
				"x": 1.4545893131,
				"y": -0.8588672477,
				"z": -1.4033673071,
				"element": "C" 
			},
			{
				"x": 1.6675180935,
				"y": -1.5465097456,
				"z": -2.5520701149,
				"element": "O" 
			},
			{
				"x": 2.3581931786,
				"y": -0.2189823097,
				"z": -0.910307183,
				"element": "O" 
			},
			{
				"x": 0.8317671663,
				"y": 0.6410768644,
				"z": 2.5434926301,
				"element": "H" 
			},
			{
				"x": 2.0711538046,
				"y": 1.873729491,
				"z": 2.1692579359,
				"element": "H" 
			},
			{
				"x": 2.1963866208,
				"y": 0.2491834427,
				"z": 1.4176743946,
				"element": "H" 
			},
			{
				"x": -0.376887002,
				"y": -2.8856285728,
				"z": -1.6373836911,
				"element": "H" 
			},
			{
				"x": -2.6411069098,
				"y": -2.9925437024,
				"z": -0.6756679941,
				"element": "H" 
			},
			{
				"x": -3.4917798142,
				"y": -1.1136475677,
				"z": 0.7193669015,
				"element": "H" 
			},
			{
				"x": -2.0268761729,
				"y": 0.8888265646,
				"z": 1.1232673079,
				"element": "H" 
			},
			{
				"x": 0.8272475747,
				"y": -1.8576815334,
				"z": -2.9170413364,
				"element": "H" 
			}
		],
		 "valence_orbital": [ 
			{
				"type": "occ",
				"energy": -0.29514,
				"method": "rhf"
			},
			{
				"type": "occ",
				"energy": -0.28397,
				"method": "rhf"
			},
			{
				"type": "occ",
				"energy": -0.28118,
				"method": "rhf"
			},
			{
				"type": "occ",
				"energy": -0.26476,
				"method": "rhf"
			},
			{
				"type": "occ",
				"energy": -0.22532,
				"method": "rhf"
			},
			{
				"type": "unocc",
				"energy": -0.06654,
				"method": "rhf"
			},
			{
				"type": "unocc",
				"energy": -0.03873,
				"method": "rhf"
			},
			{
				"type": "unocc",
				"energy": 0.02893,
				"method": "rhf"
			},
			{
				"type": "unocc",
				"energy": 0.03724,
				"method": "rhf"
			},
			{
				"type": "unocc",
				"energy": 0.05376,
				"method": "rhf"
			}
		],
		"cosmo_sigma_profile": { 
			"-0.025": 0.0,
			"-0.024": 0.0,
			"-0.023": 0.0,
			"-0.022": 0.0,
			"-0.021": 0.0,
			"-0.02": 0.0,
			"-0.019": 0.392048753763,
			"-0.018": 1.03599173324,
			"-0.017": 1.37653426489,
			"-0.016": 0.640540152053,
			"-0.015": 0.734954694222,
			"-0.014": 1.09425497128,
			"-0.013": 0.899001353745,
			"-0.012": 1.86911938343,
			"-0.011": 1.18683227623,
			"-0.01": 0.940217441651,
			"-0.009": 1.5959500516,
			"-0.008": 3.05663563072,
			"-0.007": 9.91735692763,
			"-0.006": 11.5633886537,
			"-0.005": 13.5867470807,
			"-0.004": 13.1211509854,
			"-0.003": 13.2800362691,
			"-0.002": 16.6639789581,
			"-0.001": 14.0324436015,
			"0.0": 9.49181359259,
			"0.001": 14.4926682209,
			"0.002": 15.7599261366,
			"0.003": 8.2599735247,
			"0.004": 3.82398360743,
			"0.005": 3.16108827425,
			"0.006": 3.96323105507,
			"0.007": 4.64200083203,
			"0.008": 4.21852875681,
			"0.009": 4.44228818362,
			"0.01": 5.55781998296,
			"0.011": 3.79198885051,
			"0.012": 3.18941655955,
			"0.013": 2.75591422827,
			"0.014": 3.87971635536,
			"0.015": 3.6920534892,
			"0.016": 0.761959075168,
			"0.017": 0.0,
			"0.018": 0.0,
			"0.019": 0.0,
			"0.02": 0.0,
			"0.021": 0.0,
			"0.022": 0.0,
			"0.023": 0.0,
			"0.024": 0.0,
			"0.025": 0.0
		}
	}
}
