{
	 "smiles": "COC1=NN(C=C1C=CC=O)C1=CC=CC=C1", 
	 "Tm": 405.15, 
	 "num_atms": 29, 
	 "gaussian": { 
		 "optdone": 1, 
		 "sigma_profile": "yes", 
		 "theory": "DFT", 
		 "functional": "B3LYP", 
		 "basiset": "6-31G**", 
		 "properties": { 
			 "R2extent": 5794.8945, 
			 "electric_dipole_moment_norm": 5.31494023108, 
			 "electric_quadrupole_moment_norm": 26.8951314403, 
			 "total_energy": -762.51125668, 
			 "HOMO_LUMO_gap": 0.14325, 
			 "cosmo_polarized_energy": -13.99, 
			 "cosmo_cavitation_energy": 34.68, 
			 "cosmo_dispersion_energy": -24.74, 
			 "cosmo_repulsion_energy": 1.91, 
			 "cosmo_total_nonelectrostatic_energy": 11.85, 
			 "SMD_solvation_energy": 7.72 
		},
		"coords": [
			{
				"x": 1.2223389343,
				"y": -2.8323273336,
				"z": -1.5311689346,
				"element": "C" 
			},
			{
				"x": 1.7996040934,
				"y": -1.584218288,
				"z": -1.1322829219,
				"element": "O" 
			},
			{
				"x": 0.9417966016,
				"y": -0.6321068399,
				"z": -0.7447808556,
				"element": "C" 
			},
			{
				"x": -0.3684799606,
				"y": -0.7955937861,
				"z": -0.7181328664,
				"element": "N" 
			},
			{
				"x": -0.8530204782,
				"y": 0.4088515534,
				"z": -0.2662084375,
				"element": "N" 
			},
			{
				"x": 0.1461823856,
				"y": 1.2936796725,
				"z": -0.0209590376,
				"element": "C" 
			},
			{
				"x": 1.3541727404,
				"y": 0.6716997548,
				"z": -0.3155563547,
				"element": "C" 
			},
			{
				"x": 2.7076157654,
				"y": 1.1519057889,
				"z": -0.2344874052,
				"element": "C" 
			},
			{
				"x": 3.124168777,
				"y": 2.37618439,
				"z": 0.1665549292,
				"element": "C" 
			},
			{
				"x": 4.5519598347,
				"y": 2.7173881674,
				"z": 0.1941938399,
				"element": "C" 
			},
			{
				"x": 5.4598799883,
				"y": 1.9653327481,
				"z": -0.1267358683,
				"element": "O" 
			},
			{
				"x": -2.2527855145,
				"y": 0.585229186,
				"z": -0.1152294245,
				"element": "C" 
			},
			{
				"x": -2.7765254108,
				"y": 1.8004126048,
				"z": 0.3455235885,
				"element": "C" 
			},
			{
				"x": -4.1551020228,
				"y": 1.9489264741,
				"z": 0.4852186249,
				"element": "C" 
			},
			{
				"x": -5.0195494714,
				"y": 0.8991770389,
				"z": 0.1707984779,
				"element": "C" 
			},
			{
				"x": -4.4893251257,
				"y": -0.3080963369,
				"z": -0.2874884772,
				"element": "C" 
			},
			{
				"x": -3.1136687741,
				"y": -0.4728778476,
				"z": -0.4327639548,
				"element": "C" 
			},
			{
				"x": 2.0614814923,
				"y": -3.4707139551,
				"z": -1.8076474328,
				"element": "H" 
			},
			{
				"x": 0.6588987504,
				"y": -3.2801376086,
				"z": -0.7066428935,
				"element": "H" 
			},
			{
				"x": 0.5517009109,
				"y": -2.6941898445,
				"z": -2.3849882657,
				"element": "H" 
			},
			{
				"x": -0.0461832619,
				"y": 2.2913114834,
				"z": 0.3397249586,
				"element": "H" 
			},
			{
				"x": 3.4816509436,
				"y": 0.446223317,
				"z": -0.5306506416,
				"element": "H" 
			},
			{
				"x": 2.4243423305,
				"y": 3.1478200374,
				"z": 0.4810198821,
				"element": "H" 
			},
			{
				"x": 4.7763600779,
				"y": 3.7503843604,
				"z": 0.5407601648,
				"element": "H" 
			},
			{
				"x": -2.1259822378,
				"y": 2.6304926128,
				"z": 0.596504722,
				"element": "H" 
			},
			{
				"x": -4.5515335739,
				"y": 2.8944643729,
				"z": 0.8430335661,
				"element": "H" 
			},
			{
				"x": -6.0923937375,
				"y": 1.0214322988,
				"z": 0.2818812367,
				"element": "H" 
			},
			{
				"x": -5.1498306974,
				"y": -1.1336151089,
				"z": -0.535961097,
				"element": "H" 
			},
			{
				"x": -2.6912733594,
				"y": -1.4040389124,
				"z": -0.7871291219,
				"element": "H" 
			}
		],
		 "valence_orbital": [ 
			{
				"type": "occ",
				"energy": -0.27429,
				"method": "rhf"
			},
			{
				"type": "occ",
				"energy": -0.26522,
				"method": "rhf"
			},
			{
				"type": "occ",
				"energy": -0.24604,
				"method": "rhf"
			},
			{
				"type": "occ",
				"energy": -0.23915,
				"method": "rhf"
			},
			{
				"type": "occ",
				"energy": -0.21294,
				"method": "rhf"
			},
			{
				"type": "unocc",
				"energy": -0.06969,
				"method": "rhf"
			},
			{
				"type": "unocc",
				"energy": -0.02248,
				"method": "rhf"
			},
			{
				"type": "unocc",
				"energy": -0.01501,
				"method": "rhf"
			},
			{
				"type": "unocc",
				"energy": 0.03235,
				"method": "rhf"
			},
			{
				"type": "unocc",
				"energy": 0.06213,
				"method": "rhf"
			}
		],
		"cosmo_sigma_profile": { 
			"-0.025": 0.0,
			"-0.024": 0.0,
			"-0.023": 0.0,
			"-0.022": 0.0,
			"-0.021": 0.0,
			"-0.02": 0.0,
			"-0.019": 0.0,
			"-0.018": 0.0,
			"-0.017": 0.0,
			"-0.016": 0.0,
			"-0.015": 0.0,
			"-0.014": 0.0,
			"-0.013": 0.0,
			"-0.012": 0.535120168323,
			"-0.011": 1.69079735301,
			"-0.01": 1.95143715282,
			"-0.009": 2.94989607857,
			"-0.008": 2.56141139122,
			"-0.007": 4.15990796324,
			"-0.006": 16.6793562238,
			"-0.005": 21.5034935576,
			"-0.004": 23.5622317936,
			"-0.003": 22.4604592182,
			"-0.002": 15.8461035182,
			"-0.001": 16.4799814265,
			"0.0": 22.1716997435,
			"0.001": 23.223711491,
			"0.002": 20.6683541372,
			"0.003": 21.8671947508,
			"0.004": 18.143200922,
			"0.005": 12.3781939523,
			"0.006": 4.98808850508,
			"0.007": 5.07876487078,
			"0.008": 4.5032148678,
			"0.009": 2.07432677231,
			"0.01": 2.04124888118,
			"0.011": 2.68826538955,
			"0.012": 4.33515515707,
			"0.013": 3.03061421063,
			"0.014": 0.846511805973,
			"0.015": 0.0,
			"0.016": 0.0,
			"0.017": 0.0,
			"0.018": 0.0,
			"0.019": 0.0,
			"0.02": 0.0,
			"0.021": 0.0,
			"0.022": 0.0,
			"0.023": 0.0,
			"0.024": 0.0,
			"0.025": 0.0
		}
	}
}
