{
	 "smiles": "CC1=NN2CC(N)CCC2=N1", 
	 "Tm": 334.15, 
	 "num_atms": 23, 
	 "gaussian": { 
		 "optdone": 1, 
		 "sigma_profile": "yes", 
		 "theory": "DFT", 
		 "functional": "B3LYP", 
		 "basiset": "6-31G**", 
		 "properties": { 
			 "R2extent": 2040.5395, 
			 "electric_dipole_moment_norm": 3.71133826133, 
			 "electric_quadrupole_moment_norm": 9.58549674352, 
			 "total_energy": -492.987918047, 
			 "HOMO_LUMO_gap": 0.25395, 
			 "cosmo_polarized_energy": -13.81, 
			 "cosmo_cavitation_energy": 25.1, 
			 "cosmo_dispersion_energy": -18.97, 
			 "cosmo_repulsion_energy": 1.54, 
			 "cosmo_total_nonelectrostatic_energy": 7.68, 
			 "SMD_solvation_energy": -0.43 
		},
		"coords": [
			{
				"x": 2.0089422304,
				"y": 2.0759125547,
				"z": 2.9147835766,
				"element": "C" 
			},
			{
				"x": 1.3396245616,
				"y": 1.3942350393,
				"z": 1.7620888511,
				"element": "C" 
			},
			{
				"x": 0.3955575126,
				"y": 1.9822228041,
				"z": 1.031774121,
				"element": "N" 
			},
			{
				"x": 0.0832913844,
				"y": 1.0148200183,
				"z": 0.1280771207,
				"element": "N" 
			},
			{
				"x": -0.8853209408,
				"y": 1.2337407401,
				"z": -0.936009619,
				"element": "C" 
			},
			{
				"x": -1.2811538277,
				"y": -0.1056912197,
				"z": -1.5782912275,
				"element": "C" 
			},
			{
				"x": -2.0813795132,
				"y": 0.1931805349,
				"z": -2.7660443007,
				"element": "N" 
			},
			{
				"x": -0.0318314765,
				"y": -0.9795341142,
				"z": -1.8190378116,
				"element": "C" 
			},
			{
				"x": 0.6933977229,
				"y": -1.3128911072,
				"z": -0.5021637312,
				"element": "C" 
			},
			{
				"x": 0.8420528271,
				"y": -0.0851601694,
				"z": 0.3414994821,
				"element": "C" 
			},
			{
				"x": 1.6482855116,
				"y": 0.1194478959,
				"z": 1.374818652,
				"element": "N" 
			},
			{
				"x": 1.280367963,
				"y": 2.3734400406,
				"z": 3.6755487992,
				"element": "H" 
			},
			{
				"x": 2.531849407,
				"y": 2.9812834434,
				"z": 2.5902121016,
				"element": "H" 
			},
			{
				"x": 2.7324652519,
				"y": 1.3959485886,
				"z": 3.367365186,
				"element": "H" 
			},
			{
				"x": -0.4451999374,
				"y": 1.8969116963,
				"z": -1.6931101434,
				"element": "H" 
			},
			{
				"x": -1.7597685467,
				"y": 1.7398069558,
				"z": -0.5221658265,
				"element": "H" 
			},
			{
				"x": -1.9375939904,
				"y": -0.6356601606,
				"z": -0.8744546065,
				"element": "H" 
			},
			{
				"x": -1.485125668,
				"y": 0.5726736593,
				"z": -3.4996922042,
				"element": "H" 
			},
			{
				"x": -2.485614726,
				"y": -0.6622291255,
				"z": -3.1384101149,
				"element": "H" 
			},
			{
				"x": -0.3240718923,
				"y": -1.9033983403,
				"z": -2.3309620736,
				"element": "H" 
			},
			{
				"x": 0.6491246168,
				"y": -0.442330996,
				"z": -2.4943790769,
				"element": "H" 
			},
			{
				"x": 1.6806797497,
				"y": -1.7476466491,
				"z": -0.6845296336,
				"element": "H" 
			},
			{
				"x": 0.1238217802,
				"y": -2.0667820891,
				"z": 0.0582824793,
				"element": "H" 
			}
		],
		 "valence_orbital": [ 
			{
				"type": "occ",
				"energy": -0.30666,
				"method": "rhf"
			},
			{
				"type": "occ",
				"energy": -0.2679,
				"method": "rhf"
			},
			{
				"type": "occ",
				"energy": -0.25809,
				"method": "rhf"
			},
			{
				"type": "occ",
				"energy": -0.25175,
				"method": "rhf"
			},
			{
				"type": "occ",
				"energy": -0.23572,
				"method": "rhf"
			},
			{
				"type": "unocc",
				"energy": 0.01823,
				"method": "rhf"
			},
			{
				"type": "unocc",
				"energy": 0.0583,
				"method": "rhf"
			},
			{
				"type": "unocc",
				"energy": 0.07217,
				"method": "rhf"
			},
			{
				"type": "unocc",
				"energy": 0.09092,
				"method": "rhf"
			},
			{
				"type": "unocc",
				"energy": 0.10209,
				"method": "rhf"
			}
		],
		"cosmo_sigma_profile": { 
			"-0.025": 0.0,
			"-0.024": 0.0,
			"-0.023": 0.0,
			"-0.022": 0.0,
			"-0.021": 0.0,
			"-0.02": 0.0,
			"-0.019": 0.0,
			"-0.018": 0.0,
			"-0.017": 0.0,
			"-0.016": 0.0,
			"-0.015": 0.0,
			"-0.014": 0.0,
			"-0.013": 0.0,
			"-0.012": 0.0,
			"-0.011": 0.0812224319796,
			"-0.01": 2.02597114971,
			"-0.009": 3.2227605458,
			"-0.008": 3.58244311386,
			"-0.007": 3.95057367229,
			"-0.006": 7.43166334166,
			"-0.005": 18.1980323343,
			"-0.004": 24.6796988884,
			"-0.003": 21.8146068245,
			"-0.002": 18.1154310036,
			"-0.001": 15.8795108525,
			"0.0": 13.2966624569,
			"0.001": 7.72094555851,
			"0.002": 6.88297550605,
			"0.003": 5.50705916161,
			"0.004": 4.87479109485,
			"0.005": 4.57160949562,
			"0.006": 3.37690712944,
			"0.007": 3.84967623085,
			"0.008": 3.08187119924,
			"0.009": 3.22366947543,
			"0.01": 3.42161235607,
			"0.011": 2.60653077543,
			"0.012": 2.16277594749,
			"0.013": 2.70559171033,
			"0.014": 2.76165440727,
			"0.015": 2.40884823142,
			"0.016": 2.0135081694,
			"0.017": 1.47413703978,
			"0.018": 0.742980119412,
			"0.019": 0.318143186431,
			"0.02": 0.0,
			"0.021": 0.0,
			"0.022": 0.0,
			"0.023": 0.0,
			"0.024": 0.0,
			"0.025": 0.0
		}
	}
}
