{
	 "smiles": "CC(OC1=CC=C(C=C1)C(C)(C)C)C(O)=O", 
	 "Tm": 367.15, 
	 "num_atms": 34, 
	 "gaussian": { 
		 "optdone": 1, 
		 "sigma_profile": "yes", 
		 "theory": "DFT", 
		 "functional": "B3LYP", 
		 "basiset": "6-31G**", 
		 "properties": { 
			 "R2extent": 5345.6548, 
			 "electric_dipole_moment_norm": 2.28125775396, 
			 "electric_quadrupole_moment_norm": 15.6584575182, 
			 "total_energy": -731.918461521, 
			 "HOMO_LUMO_gap": 0.22071, 
			 "cosmo_polarized_energy": -11.31, 
			 "cosmo_cavitation_energy": 35.74, 
			 "cosmo_dispersion_energy": -24.96, 
			 "cosmo_repulsion_energy": 1.95, 
			 "cosmo_total_nonelectrostatic_energy": 12.73, 
			 "SMD_solvation_energy": 7.48 
		},
		"coords": [
			{
				"x": 1.2680970107,
				"y": -2.4605969551,
				"z": 0.3749786785,
				"element": "C" 
			},
			{
				"x": 1.4888483094,
				"y": -2.4035320219,
				"z": -1.1421252717,
				"element": "C" 
			},
			{
				"x": 1.6645898356,
				"y": -1.0968171024,
				"z": -1.6726504654,
				"element": "O" 
			},
			{
				"x": 0.9797165442,
				"y": -0.0153266671,
				"z": -1.1412925767,
				"element": "C" 
			},
			{
				"x": -0.4116465213,
				"y": 0.1123682701,
				"z": -1.2018264283,
				"element": "C" 
			},
			{
				"x": -1.0156848466,
				"y": 1.2630537404,
				"z": -0.6990923217,
				"element": "C" 
			},
			{
				"x": -0.2742489791,
				"y": 2.3193508515,
				"z": -0.1415174813,
				"element": "C" 
			},
			{
				"x": 1.1188760899,
				"y": 2.1695565471,
				"z": -0.1104614691,
				"element": "C" 
			},
			{
				"x": 1.7409380898,
				"y": 1.0180951115,
				"z": -0.5973729621,
				"element": "C" 
			},
			{
				"x": -0.9962107164,
				"y": 3.5703124506,
				"z": 0.3920137206,
				"element": "C" 
			},
			{
				"x": -1.9743740647,
				"y": 3.160756292,
				"z": 1.5188335863,
				"element": "C" 
			},
			{
				"x": -1.7902973599,
				"y": 4.2375395835,
				"z": -0.7563075191,
				"element": "C" 
			},
			{
				"x": -0.0155321341,
				"y": 4.6114278935,
				"z": 0.9643714762,
				"element": "C" 
			},
			{
				"x": 0.3997527432,
				"y": -3.1803387443,
				"z": -1.889734655,
				"element": "C" 
			},
			{
				"x": 0.5328204753,
				"y": -4.5091626056,
				"z": -1.6532394307,
				"element": "O" 
			},
			{
				"x": -0.4687223458,
				"y": -2.7276853011,
				"z": -2.598560654,
				"element": "O" 
			},
			{
				"x": 1.2691216059,
				"y": -3.5016429219,
				"z": 0.7059281169,
				"element": "H" 
			},
			{
				"x": 0.3190697905,
				"y": -2.0007853923,
				"z": 0.6603895512,
				"element": "H" 
			},
			{
				"x": 2.0753281759,
				"y": -1.9265693433,
				"z": 0.8826305376,
				"element": "H" 
			},
			{
				"x": 2.4278331471,
				"y": -2.9205838641,
				"z": -1.3721937255,
				"element": "H" 
			},
			{
				"x": -0.9995235759,
				"y": -0.672977929,
				"z": -1.6615821382,
				"element": "H" 
			},
			{
				"x": -2.0978861039,
				"y": 1.3378868317,
				"z": -0.7585155768,
				"element": "H" 
			},
			{
				"x": 1.7445475124,
				"y": 2.9528644884,
				"z": 0.3020350929,
				"element": "H" 
			},
			{
				"x": 2.8211635867,
				"y": 0.9140729444,
				"z": -0.5681227489,
				"element": "H" 
			},
			{
				"x": -2.7268440433,
				"y": 2.4494219978,
				"z": 1.1655908719,
				"element": "H" 
			},
			{
				"x": -2.5027524607,
				"y": 4.0398474081,
				"z": 1.9053569052,
				"element": "H" 
			},
			{
				"x": -1.4383931158,
				"y": 2.6933514522,
				"z": 2.3515941968,
				"element": "H" 
			},
			{
				"x": -2.5379925279,
				"y": 3.5609959797,
				"z": -1.1807284432,
				"element": "H" 
			},
			{
				"x": -2.315362798,
				"y": 5.1278557997,
				"z": -0.3915021608,
				"element": "H" 
			},
			{
				"x": -1.1215127225,
				"y": 4.5452087447,
				"z": -1.5668064093,
				"element": "H" 
			},
			{
				"x": -0.5720472304,
				"y": 5.4794906078,
				"z": 1.3326495639,
				"element": "H" 
			},
			{
				"x": 0.5615859655,
				"y": 4.209489116,
				"z": 1.8037843368,
				"element": "H" 
			},
			{
				"x": 0.6880304622,
				"y": 4.9691734622,
				"z": 0.2054036976,
				"element": "H" 
			},
			{
				"x": -0.1854877979,
				"y": -4.9461007246,
				"z": -2.1411278947,
				"element": "H" 
			}
		],
		 "valence_orbital": [ 
			{
				"type": "occ",
				"energy": -0.31249,
				"method": "rhf"
			},
			{
				"type": "occ",
				"energy": -0.29236,
				"method": "rhf"
			},
			{
				"type": "occ",
				"energy": -0.27189,
				"method": "rhf"
			},
			{
				"type": "occ",
				"energy": -0.24338,
				"method": "rhf"
			},
			{
				"type": "occ",
				"energy": -0.22097,
				"method": "rhf"
			},
			{
				"type": "unocc",
				"energy": -0.00026,
				"method": "rhf"
			},
			{
				"type": "unocc",
				"energy": 0.00328,
				"method": "rhf"
			},
			{
				"type": "unocc",
				"energy": 0.01045,
				"method": "rhf"
			},
			{
				"type": "unocc",
				"energy": 0.06969,
				"method": "rhf"
			},
			{
				"type": "unocc",
				"energy": 0.08384,
				"method": "rhf"
			}
		],
		"cosmo_sigma_profile": { 
			"-0.025": 0.0,
			"-0.024": 0.0,
			"-0.023": 0.0,
			"-0.022": 0.0,
			"-0.021": 0.0,
			"-0.02": 0.0,
			"-0.019": 0.0765915091785,
			"-0.018": 0.823868726744,
			"-0.017": 1.11365639157,
			"-0.016": 0.774020358274,
			"-0.015": 0.736504416279,
			"-0.014": 0.491714469723,
			"-0.013": 0.802072822352,
			"-0.012": 0.843514491112,
			"-0.011": 0.997019658528,
			"-0.01": 0.597496647284,
			"-0.009": 0.417208208911,
			"-0.008": 0.80407312572,
			"-0.007": 3.40520430865,
			"-0.006": 4.51610779217,
			"-0.005": 10.342330816,
			"-0.004": 16.970987071,
			"-0.003": 29.1289271,
			"-0.002": 35.8123927088,
			"-0.001": 30.1035959526,
			"0.0": 27.5933853377,
			"0.001": 29.1562700735,
			"0.002": 18.4770684119,
			"0.003": 8.60245537766,
			"0.004": 12.9169210248,
			"0.005": 11.5736324655,
			"0.006": 9.41304622311,
			"0.007": 3.99572825006,
			"0.008": 4.12436651325,
			"0.009": 4.21703222996,
			"0.01": 4.13258039227,
			"0.011": 5.97714077154,
			"0.012": 0.625219114712,
			"0.013": 0.0,
			"0.014": 0.0,
			"0.015": 0.0,
			"0.016": 0.0,
			"0.017": 0.0,
			"0.018": 0.0,
			"0.019": 0.0,
			"0.02": 0.0,
			"0.021": 0.0,
			"0.022": 0.0,
			"0.023": 0.0,
			"0.024": 0.0,
			"0.025": 0.0
		}
	}
}
