{
	 "smiles": "CC1=C(CCCO1)C(=O)NC1=CC=CC=C1", 
	 "Tm": 383.15, 
	 "num_atms": 31, 
	 "gaussian": { 
		 "optdone": 1, 
		 "sigma_profile": "yes", 
		 "theory": "DFT", 
		 "functional": "B3LYP", 
		 "basiset": "6-31G**", 
		 "properties": { 
			 "R2extent": 5067.3829, 
			 "electric_dipole_moment_norm": 3.29985237397, 
			 "electric_quadrupole_moment_norm": 9.41341535045, 
			 "total_energy": -709.631734858, 
			 "HOMO_LUMO_gap": 0.19104, 
			 "cosmo_polarized_energy": -12.85, 
			 "cosmo_cavitation_energy": 33.35, 
			 "cosmo_dispersion_energy": -24.42, 
			 "cosmo_repulsion_energy": 1.91, 
			 "cosmo_total_nonelectrostatic_energy": 10.83, 
			 "SMD_solvation_energy": 6.2 
		},
		"coords": [
			{
				"x": -0.3194759507,
				"y": 1.0507078548,
				"z": 2.4310611715,
				"element": "C" 
			},
			{
				"x": -0.8191906944,
				"y": -0.1954589219,
				"z": 1.7513003247,
				"element": "C" 
			},
			{
				"x": -0.2653740381,
				"y": -0.8648663092,
				"z": 0.7100461985,
				"element": "C" 
			},
			{
				"x": -0.7559821102,
				"y": -2.2452841715,
				"z": 0.3117574635,
				"element": "C" 
			},
			{
				"x": -1.7116260626,
				"y": -2.8182671606,
				"z": 1.3602193317,
				"element": "C" 
			},
			{
				"x": -2.6614597872,
				"y": -1.720011618,
				"z": 1.8161032304,
				"element": "C" 
			},
			{
				"x": -1.9388027028,
				"y": -0.6285216954,
				"z": 2.4034246642,
				"element": "O" 
			},
			{
				"x": 0.949646714,
				"y": -0.4150461737,
				"z": -0.0353876117,
				"element": "C" 
			},
			{
				"x": 1.8154216598,
				"y": -1.2133125151,
				"z": -0.3865196721,
				"element": "O" 
			},
			{
				"x": 0.9898332941,
				"y": 0.9306348752,
				"z": -0.3550244607,
				"element": "N" 
			},
			{
				"x": 1.9895403502,
				"y": 1.6567336452,
				"z": -1.0340855948,
				"element": "C" 
			},
			{
				"x": 3.1967068496,
				"y": 1.0892987446,
				"z": -1.4735194256,
				"element": "C" 
			},
			{
				"x": 4.1301629282,
				"y": 1.8924732434,
				"z": -2.1293388312,
				"element": "C" 
			},
			{
				"x": 3.8892223927,
				"y": 3.2475639095,
				"z": -2.3597424805,
				"element": "C" 
			},
			{
				"x": 2.6869701029,
				"y": 3.807306382,
				"z": -1.9226848053,
				"element": "C" 
			},
			{
				"x": 1.7453375744,
				"y": 3.0212593718,
				"z": -1.2649839312,
				"element": "C" 
			},
			{
				"x": -0.3488365486,
				"y": 0.8857868427,
				"z": 3.5127701238,
				"element": "H" 
			},
			{
				"x": -0.9774867934,
				"y": 1.9047098064,
				"z": 2.227331227,
				"element": "H" 
			},
			{
				"x": 0.6985490423,
				"y": 1.3060975158,
				"z": 2.140798699,
				"element": "H" 
			},
			{
				"x": -1.2499089795,
				"y": -2.2027733771,
				"z": -0.6694979725,
				"element": "H" 
			},
			{
				"x": 0.1222073255,
				"y": -2.8847768725,
				"z": 0.1814423475,
				"element": "H" 
			},
			{
				"x": -2.2815357677,
				"y": -3.6632572432,
				"z": 0.9594322906,
				"element": "H" 
			},
			{
				"x": -1.1519893842,
				"y": -3.1817104406,
				"z": 2.2298780424,
				"element": "H" 
			},
			{
				"x": -3.3540853654,
				"y": -2.0545986917,
				"z": 2.5920677596,
				"element": "H" 
			},
			{
				"x": -3.2458406698,
				"y": -1.3383770452,
				"z": 0.9665836837,
				"element": "H" 
			},
			{
				"x": 0.1537455679,
				"y": 1.4522142579,
				"z": -0.1376398436,
				"element": "H" 
			},
			{
				"x": 3.3792334904,
				"y": 0.0382394033,
				"z": -1.3026870055,
				"element": "H" 
			},
			{
				"x": 5.0606653058,
				"y": 1.4435513517,
				"z": -2.4658121758,
				"element": "H" 
			},
			{
				"x": 4.6253057072,
				"y": 3.8588084644,
				"z": -2.8729063643,
				"element": "H" 
			},
			{
				"x": 2.4784287342,
				"y": 4.8599208104,
				"z": -2.0919101395,
				"element": "H" 
			},
			{
				"x": 0.8115178153,
				"y": 3.4649557566,
				"z": -0.9254762439,
				"element": "H" 
			}
		],
		 "valence_orbital": [ 
			{
				"type": "occ",
				"energy": -0.30021,
				"method": "rhf"
			},
			{
				"type": "occ",
				"energy": -0.24997,
				"method": "rhf"
			},
			{
				"type": "occ",
				"energy": -0.24609,
				"method": "rhf"
			},
			{
				"type": "occ",
				"energy": -0.22545,
				"method": "rhf"
			},
			{
				"type": "occ",
				"energy": -0.21173,
				"method": "rhf"
			},
			{
				"type": "unocc",
				"energy": -0.02069,
				"method": "rhf"
			},
			{
				"type": "unocc",
				"energy": 0.0036,
				"method": "rhf"
			},
			{
				"type": "unocc",
				"energy": 0.02216,
				"method": "rhf"
			},
			{
				"type": "unocc",
				"energy": 0.07154,
				"method": "rhf"
			},
			{
				"type": "unocc",
				"energy": 0.07465,
				"method": "rhf"
			}
		],
		"cosmo_sigma_profile": { 
			"-0.025": 0.0,
			"-0.024": 0.0,
			"-0.023": 0.0,
			"-0.022": 0.0,
			"-0.021": 0.0,
			"-0.02": 0.0,
			"-0.019": 0.0,
			"-0.018": 0.0,
			"-0.017": 0.0,
			"-0.016": 0.0,
			"-0.015": 0.0,
			"-0.014": 0.444430712367,
			"-0.013": 1.0876245219,
			"-0.012": 1.10017436822,
			"-0.011": 1.46926251876,
			"-0.01": 1.30037352753,
			"-0.009": 1.1933525192,
			"-0.008": 1.72254294556,
			"-0.007": 2.26862992042,
			"-0.006": 6.1191634898,
			"-0.005": 16.4484999766,
			"-0.004": 24.9844975108,
			"-0.003": 33.1342058074,
			"-0.002": 25.5522209175,
			"-0.001": 25.8362420202,
			"0.0": 20.2367081799,
			"0.001": 12.3500542322,
			"0.002": 14.4268456896,
			"0.003": 12.7243906206,
			"0.004": 14.0620470233,
			"0.005": 13.7538767469,
			"0.006": 11.2045788801,
			"0.007": 4.16126484502,
			"0.008": 3.54272287817,
			"0.009": 2.71362693629,
			"0.01": 2.76703090248,
			"0.011": 2.57316300091,
			"0.012": 2.18566492403,
			"0.013": 3.12512441501,
			"0.014": 1.44634374623,
			"0.015": 0.0,
			"0.016": 0.0,
			"0.017": 0.0,
			"0.018": 0.0,
			"0.019": 0.0,
			"0.02": 0.0,
			"0.021": 0.0,
			"0.022": 0.0,
			"0.023": 0.0,
			"0.024": 0.0,
			"0.025": 0.0
		}
	}
}
