{
	 "smiles": "ClCC1=COC(=N1)C1=CC(Cl)=CC=C1", 
	 "Tm": 350.15, 
	 "num_atms": 21, 
	 "gaussian": { 
		 "optdone": 1, 
		 "sigma_profile": "yes", 
		 "theory": "DFT", 
		 "functional": "B3LYP", 
		 "basiset": "6-31G**", 
		 "properties": { 
			 "R2extent": 5467.5274, 
			 "electric_dipole_moment_norm": 1.89070502723, 
			 "electric_quadrupole_moment_norm": 18.2769520377, 
			 "total_energy": -1435.63854846, 
			 "HOMO_LUMO_gap": 0.1793, 
			 "cosmo_polarized_energy": -9.64, 
			 "cosmo_cavitation_energy": 30.0, 
			 "cosmo_dispersion_energy": -22.23, 
			 "cosmo_repulsion_energy": 1.77, 
			 "cosmo_total_nonelectrostatic_energy": 9.54, 
			 "SMD_solvation_energy": 3.73 
		},
		"coords": [
			{
				"x": 1.9066460182,
				"y": 4.9819272451,
				"z": -0.1520191387,
				"element": "Cl" 
			},
			{
				"x": 1.7725852442,
				"y": 3.7452046934,
				"z": 1.1940762595,
				"element": "C" 
			},
			{
				"x": 0.996454302,
				"y": 2.5468543929,
				"z": 0.7912720326,
				"element": "C" 
			},
			{
				"x": -0.3075666791,
				"y": 2.2467047913,
				"z": 1.0434678354,
				"element": "C" 
			},
			{
				"x": -0.5781921783,
				"y": 1.0333910176,
				"z": 0.4805178443,
				"element": "O" 
			},
			{
				"x": 0.598784,
				"y": 0.6477607807,
				"z": -0.1002285629,
				"element": "C" 
			},
			{
				"x": 1.5597880311,
				"y": 1.5117740122,
				"z": 0.0592380487,
				"element": "N" 
			},
			{
				"x": 0.6439306702,
				"y": -0.6348331203,
				"z": -0.7968336719,
				"element": "C" 
			},
			{
				"x": -0.489260984,
				"y": -1.4599890365,
				"z": -0.8556067999,
				"element": "C" 
			},
			{
				"x": -0.4056262688,
				"y": -2.6749857327,
				"z": -1.5289035236,
				"element": "C" 
			},
			{
				"x": -1.824131383,
				"y": -3.710219634,
				"z": -1.6027124654,
				"element": "Cl" 
			},
			{
				"x": 0.775630218,
				"y": -3.0888885075,
				"z": -2.1446136396,
				"element": "C" 
			},
			{
				"x": 1.8965781086,
				"y": -2.257606436,
				"z": -2.0791874692,
				"element": "C" 
			},
			{
				"x": 1.8396505997,
				"y": -1.0378328991,
				"z": -1.4123247151,
				"element": "C" 
			},
			{
				"x": 1.3074654762,
				"y": 4.2638462481,
				"z": 2.0319392767,
				"element": "H" 
			},
			{
				"x": 2.79741788,
				"y": 3.4749628724,
				"z": 1.4465173238,
				"element": "H" 
			},
			{
				"x": -1.1164875021,
				"y": 2.7384016661,
				"z": 1.5593383664,
				"element": "H" 
			},
			{
				"x": -1.4164064828,
				"y": -1.1573042596,
				"z": -0.3844797718,
				"element": "H" 
			},
			{
				"x": 0.8137426034,
				"y": -4.040302862,
				"z": -2.6630539998,
				"element": "H" 
			},
			{
				"x": 2.8205279821,
				"y": -2.5699404482,
				"z": -2.5560846723,
				"element": "H" 
			},
			{
				"x": 2.7042703443,
				"y": -0.3860247837,
				"z": -1.3583185574,
				"element": "H" 
			}
		],
		 "valence_orbital": [ 
			{
				"type": "occ",
				"energy": -0.30087,
				"method": "rhf"
			},
			{
				"type": "occ",
				"energy": -0.2957,
				"method": "rhf"
			},
			{
				"type": "occ",
				"energy": -0.29134,
				"method": "rhf"
			},
			{
				"type": "occ",
				"energy": -0.2595,
				"method": "rhf"
			},
			{
				"type": "occ",
				"energy": -0.23744,
				"method": "rhf"
			},
			{
				"type": "unocc",
				"energy": -0.05814,
				"method": "rhf"
			},
			{
				"type": "unocc",
				"energy": -0.02307,
				"method": "rhf"
			},
			{
				"type": "unocc",
				"energy": -0.01583,
				"method": "rhf"
			},
			{
				"type": "unocc",
				"energy": 0.02392,
				"method": "rhf"
			},
			{
				"type": "unocc",
				"energy": 0.03936,
				"method": "rhf"
			}
		],
		"cosmo_sigma_profile": { 
			"-0.025": 0.0,
			"-0.024": 0.0,
			"-0.023": 0.0,
			"-0.022": 0.0,
			"-0.021": 0.0,
			"-0.02": 0.0,
			"-0.019": 0.0,
			"-0.018": 0.0,
			"-0.017": 0.0,
			"-0.016": 0.0,
			"-0.015": 0.0,
			"-0.014": 0.0,
			"-0.013": 0.0,
			"-0.012": 0.0,
			"-0.011": 0.749687087424,
			"-0.01": 2.46102230477,
			"-0.009": 3.76309234398,
			"-0.008": 7.11435752333,
			"-0.007": 9.92983795205,
			"-0.006": 11.1899876576,
			"-0.005": 13.016380643,
			"-0.004": 9.26057510958,
			"-0.003": 10.5901411634,
			"-0.002": 14.6339932261,
			"-0.001": 18.5288859267,
			"0.0": 20.9082051157,
			"0.001": 24.9527473275,
			"0.002": 25.0356070102,
			"0.003": 20.8240456743,
			"0.004": 17.6993575781,
			"0.005": 11.7082693953,
			"0.006": 12.3955085261,
			"0.007": 5.94857045943,
			"0.008": 1.08684992101,
			"0.009": 1.23734891055,
			"0.01": 1.11097758569,
			"0.011": 0.72837954738,
			"0.012": 0.830146496958,
			"0.013": 0.601946641651,
			"0.014": 0.0,
			"0.015": 0.0,
			"0.016": 0.0,
			"0.017": 0.0,
			"0.018": 0.0,
			"0.019": 0.0,
			"0.02": 0.0,
			"0.021": 0.0,
			"0.022": 0.0,
			"0.023": 0.0,
			"0.024": 0.0,
			"0.025": 0.0
		}
	}
}
