{
	 "smiles": "CN1C2=C(C3=C1C=CC=C3)C(=O)C(CN1C=CN=C1C)CC2", 
	 "Tm": 504.15, 
	 "num_atms": 41, 
	 "gaussian": { 
		 "optdone": 1, 
		 "sigma_profile": "yes", 
		 "theory": "DFT", 
		 "functional": "B3LYP", 
		 "basiset": "6-31G**", 
		 "properties": { 
			 "R2extent": 8392.8512, 
			 "electric_dipole_moment_norm": 5.93311688828, 
			 "electric_quadrupole_moment_norm": 17.0972723731, 
			 "total_energy": -936.869649961, 
			 "HOMO_LUMO_gap": 0.17305, 
			 "cosmo_polarized_energy": -22.18, 
			 "cosmo_cavitation_energy": 42.65, 
			 "cosmo_dispersion_energy": -29.63, 
			 "cosmo_repulsion_energy": 2.2, 
			 "cosmo_total_nonelectrostatic_energy": 15.22, 
			 "SMD_solvation_energy": 5.44 
		},
		"coords": [
			{
				"x": 2.4367094999,
				"y": -2.6774739184,
				"z": -0.9979585653,
				"element": "C" 
			},
			{
				"x": 1.5437582913,
				"y": -2.3982231825,
				"z": 0.1114294689,
				"element": "N" 
			},
			{
				"x": 1.0011749652,
				"y": -1.187157884,
				"z": 0.4618758404,
				"element": "C" 
			},
			{
				"x": 0.1896581156,
				"y": -1.3468990415,
				"z": 1.5784819258,
				"element": "C" 
			},
			{
				"x": 0.2376305571,
				"y": -2.7414841556,
				"z": 1.9475035588,
				"element": "C" 
			},
			{
				"x": 1.0942691942,
				"y": -3.3699458193,
				"z": 1.0111398916,
				"element": "C" 
			},
			{
				"x": 1.3804025125,
				"y": -4.7361914659,
				"z": 1.0592792712,
				"element": "C" 
			},
			{
				"x": 0.7815654872,
				"y": -5.4753993382,
				"z": 2.0774315297,
				"element": "C" 
			},
			{
				"x": -0.0745674997,
				"y": -4.8678633798,
				"z": 3.0152480997,
				"element": "C" 
			},
			{
				"x": -0.3545201294,
				"y": -3.505431357,
				"z": 2.9621586065,
				"element": "C" 
			},
			{
				"x": -0.5725026887,
				"y": -0.2607270604,
				"z": 2.1624772128,
				"element": "C" 
			},
			{
				"x": -1.3366615601,
				"y": -0.3963450421,
				"z": 3.1157566873,
				"element": "O" 
			},
			{
				"x": -0.4377955552,
				"y": 1.1127002849,
				"z": 1.474210953,
				"element": "C" 
			},
			{
				"x": -1.7137521905,
				"y": 1.3426917775,
				"z": 0.6264434977,
				"element": "C" 
			},
			{
				"x": -1.8197310243,
				"y": 2.695491308,
				"z": 0.0924234278,
				"element": "N" 
			},
			{
				"x": -1.9718251612,
				"y": 3.8445424332,
				"z": 0.8513964553,
				"element": "C" 
			},
			{
				"x": -2.0263468177,
				"y": 4.8776370728,
				"z": -0.0466916392,
				"element": "C" 
			},
			{
				"x": -1.9167712227,
				"y": 4.4058929447,
				"z": -1.3346285227,
				"element": "N" 
			},
			{
				"x": -1.7951513873,
				"y": 3.0954853233,
				"z": -1.2259084329,
				"element": "C" 
			},
			{
				"x": -1.6744509548,
				"y": 2.1621670147,
				"z": -2.3889551963,
				"element": "C" 
			},
			{
				"x": 0.8817832007,
				"y": 1.2804013305,
				"z": 0.6976999603,
				"element": "C" 
			},
			{
				"x": 1.2108351494,
				"y": 0.1101340147,
				"z": -0.2522337255,
				"element": "C" 
			},
			{
				"x": 2.6226230582,
				"y": -1.7637116621,
				"z": -1.5617423214,
				"element": "H" 
			},
			{
				"x": 1.9913985428,
				"y": -3.4167827789,
				"z": -1.672151635,
				"element": "H" 
			},
			{
				"x": 3.3943663715,
				"y": -3.0667942579,
				"z": -0.635955386,
				"element": "H" 
			},
			{
				"x": 2.0394099064,
				"y": -5.2097364705,
				"z": 0.3380818004,
				"element": "H" 
			},
			{
				"x": 0.9796914032,
				"y": -6.5409300304,
				"z": 2.1467101495,
				"element": "H" 
			},
			{
				"x": -0.5239103076,
				"y": -5.4770132205,
				"z": 3.7940656261,
				"element": "H" 
			},
			{
				"x": -1.0134402538,
				"y": -3.0273472841,
				"z": 3.6779398589,
				"element": "H" 
			},
			{
				"x": -0.4604519014,
				"y": 1.8483995131,
				"z": 2.2856229685,
				"element": "H" 
			},
			{
				"x": -1.7509507788,
				"y": 0.6450844265,
				"z": -0.2142503289,
				"element": "H" 
			},
			{
				"x": -2.5818803725,
				"y": 1.1362580356,
				"z": 1.260102439,
				"element": "H" 
			},
			{
				"x": -2.0369318628,
				"y": 3.8095988662,
				"z": 1.9283993222,
				"element": "H" 
			},
			{
				"x": -2.1436620662,
				"y": 5.9326376845,
				"z": 0.1601072265,
				"element": "H" 
			},
			{
				"x": -1.7503866361,
				"y": 2.7585616455,
				"z": -3.2992004683,
				"element": "H" 
			},
			{
				"x": -2.4705188449,
				"y": 1.4083779857,
				"z": -2.4053995205,
				"element": "H" 
			},
			{
				"x": -0.7144543786,
				"y": 1.6319228679,
				"z": -2.4108345117,
				"element": "H" 
			},
			{
				"x": 0.8656449892,
				"y": 2.2201891493,
				"z": 0.1361412042,
				"element": "H" 
			},
			{
				"x": 1.6957308037,
				"y": 1.3641244818,
				"z": 1.4266894785,
				"element": "H" 
			},
			{
				"x": 0.577496519,
				"y": 0.1479129141,
				"z": -1.1507863289,
				"element": "H" 
			},
			{
				"x": 2.2430150275,
				"y": 0.2118462748,
				"z": -0.6070198779,
				"element": "H" 
			}
		],
		 "valence_orbital": [ 
			{
				"type": "occ",
				"energy": -0.25431,
				"method": "rhf"
			},
			{
				"type": "occ",
				"energy": -0.23539,
				"method": "rhf"
			},
			{
				"type": "occ",
				"energy": -0.23051,
				"method": "rhf"
			},
			{
				"type": "occ",
				"energy": -0.21481,
				"method": "rhf"
			},
			{
				"type": "occ",
				"energy": -0.2126,
				"method": "rhf"
			},
			{
				"type": "unocc",
				"energy": -0.03955,
				"method": "rhf"
			},
			{
				"type": "unocc",
				"energy": -0.00912,
				"method": "rhf"
			},
			{
				"type": "unocc",
				"energy": 0.01708,
				"method": "rhf"
			},
			{
				"type": "unocc",
				"energy": 0.03041,
				"method": "rhf"
			},
			{
				"type": "unocc",
				"energy": 0.05716,
				"method": "rhf"
			}
		],
		"cosmo_sigma_profile": { 
			"-0.025": 0.0,
			"-0.024": 0.0,
			"-0.023": 0.0,
			"-0.022": 0.0,
			"-0.021": 0.0,
			"-0.02": 0.0,
			"-0.019": 0.0,
			"-0.018": 0.0,
			"-0.017": 0.0,
			"-0.016": 0.0,
			"-0.015": 0.0,
			"-0.014": 0.0,
			"-0.013": 0.0,
			"-0.012": 0.0,
			"-0.011": 0.0,
			"-0.01": 0.0,
			"-0.009": 0.0416700147787,
			"-0.008": 3.21858838915,
			"-0.007": 8.55227690304,
			"-0.006": 24.6120250241,
			"-0.005": 33.7596950404,
			"-0.004": 36.0612654953,
			"-0.003": 39.2880499475,
			"-0.002": 25.7068571996,
			"-0.001": 21.287756788,
			"0.0": 17.832097414,
			"0.001": 13.4080136318,
			"0.002": 14.7162761423,
			"0.003": 13.6480830177,
			"0.004": 16.4952313804,
			"0.005": 17.1011711645,
			"0.006": 16.0709277692,
			"0.007": 6.72473708327,
			"0.008": 4.49256521783,
			"0.009": 3.11204409158,
			"0.01": 2.95150241313,
			"0.011": 3.30967523007,
			"0.012": 3.34768716082,
			"0.013": 4.6717798775,
			"0.014": 2.70251026589,
			"0.015": 2.06009180664,
			"0.016": 1.00141145358,
			"0.017": 0.732164617086,
			"0.018": 0.966841520537,
			"0.019": 0.518374235358,
			"0.02": 0.0,
			"0.021": 0.0,
			"0.022": 0.0,
			"0.023": 0.0,
			"0.024": 0.0,
			"0.025": 0.0
		}
	}
}
