{
	 "smiles": "O=C(OC1=CC=CC=C1)C1=CC=CC=C1", 
	 "Tm": 342.15, 
	 "num_atms": 25, 
	 "gaussian": { 
		 "optdone": 1, 
		 "sigma_profile": "yes", 
		 "theory": "DFT", 
		 "functional": "B3LYP", 
		 "basiset": "6-31G**", 
		 "properties": { 
			 "R2extent": 4645.3669, 
			 "electric_dipole_moment_norm": 1.94170150899, 
			 "electric_quadrupole_moment_norm": 12.6758141088, 
			 "total_energy": -651.868547108, 
			 "HOMO_LUMO_gap": 0.18764, 
			 "cosmo_polarized_energy": -8.04, 
			 "cosmo_cavitation_energy": 29.98, 
			 "cosmo_dispersion_energy": -21.89, 
			 "cosmo_repulsion_energy": 1.69, 
			 "cosmo_total_nonelectrostatic_energy": 9.78, 
			 "SMD_solvation_energy": 6.07 
		},
		"coords": [
			{
				"x": 0.1710954285,
				"y": -2.2889845375,
				"z": -1.87963061,
				"element": "O" 
			},
			{
				"x": 0.2843083377,
				"y": -1.6659557719,
				"z": -0.8472475433,
				"element": "C" 
			},
			{
				"x": -0.233247811,
				"y": -0.4137957961,
				"z": -0.6470714356,
				"element": "O" 
			},
			{
				"x": -0.9454204961,
				"y": 0.2438564764,
				"z": -1.6513178271,
				"element": "C" 
			},
			{
				"x": -0.496065159,
				"y": 0.323847954,
				"z": -2.9698044235,
				"element": "C" 
			},
			{
				"x": -1.2367699145,
				"y": 1.072573897,
				"z": -3.8856781555,
				"element": "C" 
			},
			{
				"x": -2.4016670433,
				"y": 1.7345169262,
				"z": -3.4923700244,
				"element": "C" 
			},
			{
				"x": -2.8322796259,
				"y": 1.6479254377,
				"z": -2.1671264534,
				"element": "C" 
			},
			{
				"x": -2.1048916155,
				"y": 0.9002935274,
				"z": -1.2411620902,
				"element": "C" 
			},
			{
				"x": 0.9961197016,
				"y": -2.1576971807,
				"z": 0.3647529746,
				"element": "C" 
			},
			{
				"x": 1.1169874221,
				"y": -1.3940104793,
				"z": 1.5347238806,
				"element": "C" 
			},
			{
				"x": 1.7986993112,
				"y": -1.9127728156,
				"z": 2.6342603326,
				"element": "C" 
			},
			{
				"x": 2.359863023,
				"y": -3.1907384942,
				"z": 2.5730390311,
				"element": "C" 
			},
			{
				"x": 2.2401985289,
				"y": -3.9538909741,
				"z": 1.4082326232,
				"element": "C" 
			},
			{
				"x": 1.5613174887,
				"y": -3.4397657865,
				"z": 0.3067886508,
				"element": "C" 
			},
			{
				"x": 0.4029428903,
				"y": -0.195924199,
				"z": -3.2736202069,
				"element": "H" 
			},
			{
				"x": -0.8959221814,
				"y": 1.1370822629,
				"z": -4.9148715196,
				"element": "H" 
			},
			{
				"x": -2.9690908119,
				"y": 2.3145419196,
				"z": -4.213851509,
				"element": "H" 
			},
			{
				"x": -3.7354459127,
				"y": 2.161010893,
				"z": -1.8501570876,
				"element": "H" 
			},
			{
				"x": -2.419003147,
				"y": 0.8193423826,
				"z": -0.2057233854,
				"element": "H" 
			},
			{
				"x": 0.6789677774,
				"y": -0.4036705271,
				"z": 1.5751462676,
				"element": "H" 
			},
			{
				"x": 1.8923790193,
				"y": -1.3202613025,
				"z": 3.5395330455,
				"element": "H" 
			},
			{
				"x": 2.8899978147,
				"y": -3.5916490588,
				"z": 3.4323402131,
				"element": "H" 
			},
			{
				"x": 2.6762821484,
				"y": -4.9472706863,
				"z": 1.3604644499,
				"element": "H" 
			},
			{
				"x": 1.4557448265,
				"y": -4.0121040672,
				"z": -0.6085491976,
				"element": "H" 
			}
		],
		 "valence_orbital": [ 
			{
				"type": "occ",
				"energy": -0.27911,
				"method": "rhf"
			},
			{
				"type": "occ",
				"energy": -0.26347,
				"method": "rhf"
			},
			{
				"type": "occ",
				"energy": -0.2608,
				"method": "rhf"
			},
			{
				"type": "occ",
				"energy": -0.2523,
				"method": "rhf"
			},
			{
				"type": "occ",
				"energy": -0.23916,
				"method": "rhf"
			},
			{
				"type": "unocc",
				"energy": -0.05152,
				"method": "rhf"
			},
			{
				"type": "unocc",
				"energy": -0.01023,
				"method": "rhf"
			},
			{
				"type": "unocc",
				"energy": -0.00339,
				"method": "rhf"
			},
			{
				"type": "unocc",
				"energy": 0.00271,
				"method": "rhf"
			},
			{
				"type": "unocc",
				"energy": 0.05615,
				"method": "rhf"
			}
		],
		"cosmo_sigma_profile": { 
			"-0.025": 0.0,
			"-0.024": 0.0,
			"-0.023": 0.0,
			"-0.022": 0.0,
			"-0.021": 0.0,
			"-0.02": 0.0,
			"-0.019": 0.0,
			"-0.018": 0.0,
			"-0.017": 0.0,
			"-0.016": 0.0,
			"-0.015": 0.0,
			"-0.014": 0.0,
			"-0.013": 0.0,
			"-0.012": 0.0,
			"-0.011": 0.0,
			"-0.01": 0.0,
			"-0.009": 0.0,
			"-0.008": 0.0,
			"-0.007": 2.63232905916,
			"-0.006": 17.1324435105,
			"-0.005": 21.9377737309,
			"-0.004": 21.9289630658,
			"-0.003": 16.7739962807,
			"-0.002": 16.1983658015,
			"-0.001": 14.5230692245,
			"0.0": 17.4673338612,
			"0.001": 19.3553700953,
			"0.002": 21.655919072,
			"0.003": 22.8836435798,
			"0.004": 22.3670780788,
			"0.005": 11.1807863508,
			"0.006": 2.42811143765,
			"0.007": 1.11219380056,
			"0.008": 2.26095886989,
			"0.009": 2.03719719467,
			"0.01": 2.45159034938,
			"0.011": 3.92474459373,
			"0.012": 1.21074467617,
			"0.013": 0.0,
			"0.014": 0.0,
			"0.015": 0.0,
			"0.016": 0.0,
			"0.017": 0.0,
			"0.018": 0.0,
			"0.019": 0.0,
			"0.02": 0.0,
			"0.021": 0.0,
			"0.022": 0.0,
			"0.023": 0.0,
			"0.024": 0.0,
			"0.025": 0.0
		}
	}
}
