{
	 "smiles": "CC(C)=NNC(=O)C1=NOC(C)=C1", 
	 "Tm": 518.15, 
	 "num_atms": 24, 
	 "gaussian": { 
		 "optdone": 1, 
		 "sigma_profile": "yes", 
		 "theory": "DFT", 
		 "functional": "B3LYP", 
		 "basiset": "6-31G**", 
		 "properties": { 
			 "R2extent": 3494.2227, 
			 "electric_dipole_moment_norm": 6.75231891205, 
			 "electric_quadrupole_moment_norm": 22.5610492068, 
			 "total_energy": -626.112423489, 
			 "HOMO_LUMO_gap": 0.1975, 
			 "cosmo_polarized_energy": -18.06, 
			 "cosmo_cavitation_energy": 29.05, 
			 "cosmo_dispersion_energy": -20.81, 
			 "cosmo_repulsion_energy": 1.69, 
			 "cosmo_total_nonelectrostatic_energy": 9.93, 
			 "SMD_solvation_energy": 5.97 
		},
		"coords": [
			{
				"x": -0.8049538765,
				"y": 3.0367016264,
				"z": 0.7688417434,
				"element": "C" 
			},
			{
				"x": -1.2048211483,
				"y": 2.1920367933,
				"z": -0.4089118172,
				"element": "C" 
			},
			{
				"x": -2.3964481093,
				"y": 2.6287233222,
				"z": -1.2319113249,
				"element": "C" 
			},
			{
				"x": -0.503657659,
				"y": 1.1387797518,
				"z": -0.6440574643,
				"element": "N" 
			},
			{
				"x": -0.8508252992,
				"y": 0.360766506,
				"z": -1.7098217187,
				"element": "N" 
			},
			{
				"x": -0.2566239595,
				"y": -0.8438979822,
				"z": -2.0475985924,
				"element": "C" 
			},
			{
				"x": -0.7311559096,
				"y": -1.4959509439,
				"z": -2.9644012463,
				"element": "O" 
			},
			{
				"x": 0.9527872492,
				"y": -1.2922092583,
				"z": -1.2864908501,
				"element": "C" 
			},
			{
				"x": 1.2881009896,
				"y": -2.5632154195,
				"z": -1.4232435199,
				"element": "N" 
			},
			{
				"x": 2.440385324,
				"y": -2.7218602652,
				"z": -0.6724767631,
				"element": "O" 
			},
			{
				"x": 2.7886233686,
				"y": -1.5416760305,
				"z": -0.1042183155,
				"element": "C" 
			},
			{
				"x": 4.0193103138,
				"y": -1.5361547675,
				"z": 0.7343326862,
				"element": "C" 
			},
			{
				"x": 1.8770585062,
				"y": -0.5924990404,
				"z": -0.4529650121,
				"element": "C" 
			},
			{
				"x": 0.0585931505,
				"y": 2.6033005346,
				"z": 1.2761050207,
				"element": "H" 
			},
			{
				"x": -1.6312867746,
				"y": 3.120409829,
				"z": 1.4860167442,
				"element": "H" 
			},
			{
				"x": -0.5568918598,
				"y": 4.0575470576,
				"z": 0.4513568383,
				"element": "H" 
			},
			{
				"x": -3.1894368443,
				"y": 1.869327821,
				"z": -1.2265331271,
				"element": "H" 
			},
			{
				"x": -2.8235383464,
				"y": 3.5539133528,
				"z": -0.8408813605,
				"element": "H" 
			},
			{
				"x": -2.1183797286,
				"y": 2.8062332986,
				"z": -2.278903958,
				"element": "H" 
			},
			{
				"x": -1.6684145266,
				"y": 0.5666080974,
				"z": -2.2779831584,
				"element": "H" 
			},
			{
				"x": 4.8941233334,
				"y": -1.8372225603,
				"z": 0.1484422638,
				"element": "H" 
			},
			{
				"x": 4.1959180769,
				"y": -0.5356879405,
				"z": 1.1340347106,
				"element": "H" 
			},
			{
				"x": 3.9259300944,
				"y": -2.2350535681,
				"z": 1.5722524823,
				"element": "H" 
			},
			{
				"x": 1.8432036352,
				"y": 0.442879786,
				"z": -0.1642842609,
				"element": "H" 
			}
		],
		 "valence_orbital": [ 
			{
				"type": "occ",
				"energy": -0.29545,
				"method": "rhf"
			},
			{
				"type": "occ",
				"energy": -0.28768,
				"method": "rhf"
			},
			{
				"type": "occ",
				"energy": -0.26188,
				"method": "rhf"
			},
			{
				"type": "occ",
				"energy": -0.25241,
				"method": "rhf"
			},
			{
				"type": "occ",
				"energy": -0.23823,
				"method": "rhf"
			},
			{
				"type": "unocc",
				"energy": -0.04073,
				"method": "rhf"
			},
			{
				"type": "unocc",
				"energy": -0.00657,
				"method": "rhf"
			},
			{
				"type": "unocc",
				"energy": 0.02892,
				"method": "rhf"
			},
			{
				"type": "unocc",
				"energy": 0.06992,
				"method": "rhf"
			},
			{
				"type": "unocc",
				"energy": 0.09344,
				"method": "rhf"
			}
		],
		"cosmo_sigma_profile": { 
			"-0.025": 0.0,
			"-0.024": 0.0,
			"-0.023": 0.0,
			"-0.022": 0.0,
			"-0.021": 0.0,
			"-0.02": 0.0,
			"-0.019": 0.0,
			"-0.018": 0.0,
			"-0.017": 0.0,
			"-0.016": 0.0,
			"-0.015": 0.0,
			"-0.014": 0.0333443830155,
			"-0.013": 0.625022227337,
			"-0.012": 1.23061848581,
			"-0.011": 1.55663122317,
			"-0.01": 1.34339628454,
			"-0.009": 1.206629776,
			"-0.008": 1.83823822836,
			"-0.007": 4.39451729207,
			"-0.006": 12.7005932685,
			"-0.005": 16.6969453768,
			"-0.004": 22.54985633,
			"-0.003": 22.880891675,
			"-0.002": 26.3463780022,
			"-0.001": 22.2955955761,
			"0.0": 17.041551792,
			"0.001": 11.0950201736,
			"0.002": 9.28085206258,
			"0.003": 6.55767232121,
			"0.004": 5.54694782606,
			"0.005": 4.81513031254,
			"0.006": 4.93271846337,
			"0.007": 6.00994000453,
			"0.008": 4.96585457006,
			"0.009": 2.45481561576,
			"0.01": 3.16574955947,
			"0.011": 3.12675856413,
			"0.012": 5.5657315938,
			"0.013": 5.40403410775,
			"0.014": 3.22554041888,
			"0.015": 1.5840858981,
			"0.016": 0.0596191082807,
			"0.017": 0.0,
			"0.018": 0.0,
			"0.019": 0.0,
			"0.02": 0.0,
			"0.021": 0.0,
			"0.022": 0.0,
			"0.023": 0.0,
			"0.024": 0.0,
			"0.025": 0.0
		}
	}
}
