{
	 "smiles": "O=C1NC=NC=C1", 
	 "Tm": 439.15, 
	 "num_atms": 11, 
	 "gaussian": { 
		 "optdone": 1, 
		 "sigma_profile": "yes", 
		 "theory": "DFT", 
		 "functional": "B3LYP", 
		 "basiset": "6-31G**", 
		 "properties": { 
			 "R2extent": 1113.7634, 
			 "electric_dipole_moment_norm": 2.21825888029, 
			 "electric_quadrupole_moment_norm": 14.3956812315, 
			 "total_energy": -339.562662041, 
			 "HOMO_LUMO_gap": 0.19508, 
			 "cosmo_polarized_energy": -13.49, 
			 "cosmo_cavitation_energy": 15.44, 
			 "cosmo_dispersion_energy": -11.82, 
			 "cosmo_repulsion_energy": 1.0, 
			 "cosmo_total_nonelectrostatic_energy": 4.62, 
			 "SMD_solvation_energy": 2.58 
		},
		"coords": [
			{
				"x": 2.1524763355,
				"y": 1.6983734291,
				"z": 2.4490067744,
				"element": "O" 
			},
			{
				"x": 1.7940044997,
				"y": 0.9017324223,
				"z": 1.5951936724,
				"element": "C" 
			},
			{
				"x": 1.2833545128,
				"y": 1.3623085092,
				"z": 0.3518363331,
				"element": "N" 
			},
			{
				"x": 0.8640451126,
				"y": 0.5431413967,
				"z": -0.6485371414,
				"element": "C" 
			},
			{
				"x": 0.8806861443,
				"y": -0.7546618108,
				"z": -0.5859001302,
				"element": "N" 
			},
			{
				"x": 1.3638064145,
				"y": -1.2837395378,
				"z": 0.5921314411,
				"element": "C" 
			},
			{
				"x": 1.8065566683,
				"y": -0.5482694964,
				"z": 1.6507068744,
				"element": "C" 
			},
			{
				"x": 1.2459367227,
				"y": 2.3697346198,
				"z": 0.2439062854,
				"element": "H" 
			},
			{
				"x": 0.4962678579,
				"y": 1.0356250092,
				"z": -1.5468494469,
				"element": "H" 
			},
			{
				"x": 1.3736694474,
				"y": -2.3702027958,
				"z": 0.6347898946,
				"element": "H" 
			},
			{
				"x": 2.1777962844,
				"y": -1.0117417455,
				"z": 2.5570154431,
				"element": "H" 
			}
		],
		 "valence_orbital": [ 
			{
				"type": "occ",
				"energy": -0.37453,
				"method": "rhf"
			},
			{
				"type": "occ",
				"energy": -0.32685,
				"method": "rhf"
			},
			{
				"type": "occ",
				"energy": -0.28766,
				"method": "rhf"
			},
			{
				"type": "occ",
				"energy": -0.26379,
				"method": "rhf"
			},
			{
				"type": "occ",
				"energy": -0.24689,
				"method": "rhf"
			},
			{
				"type": "unocc",
				"energy": -0.05181,
				"method": "rhf"
			},
			{
				"type": "unocc",
				"energy": -0.0051,
				"method": "rhf"
			},
			{
				"type": "unocc",
				"energy": 0.0657,
				"method": "rhf"
			},
			{
				"type": "unocc",
				"energy": 0.11815,
				"method": "rhf"
			},
			{
				"type": "unocc",
				"energy": 0.1248,
				"method": "rhf"
			}
		],
		"cosmo_sigma_profile": { 
			"-0.025": 0.0,
			"-0.024": 0.0,
			"-0.023": 0.0,
			"-0.022": 0.0,
			"-0.021": 0.0,
			"-0.02": 0.0,
			"-0.019": 0.0,
			"-0.018": 0.0271554608123,
			"-0.017": 1.13321635015,
			"-0.016": 1.67726230891,
			"-0.015": 1.32605479758,
			"-0.014": 1.10133390247,
			"-0.013": 1.18386767141,
			"-0.012": 1.02155423835,
			"-0.011": 2.15204445834,
			"-0.01": 3.11642212896,
			"-0.009": 1.76715757411,
			"-0.008": 3.59016024746,
			"-0.007": 5.39556773343,
			"-0.006": 6.10175993018,
			"-0.005": 5.89365324071,
			"-0.004": 5.25742722036,
			"-0.003": 7.62657098106,
			"-0.002": 9.2429394984,
			"-0.001": 7.08423421967,
			"0.0": 6.70299054709,
			"0.001": 9.06422691277,
			"0.002": 5.83172070348,
			"0.003": 3.48969805564,
			"0.004": 2.28916101434,
			"0.005": 2.04315931127,
			"0.006": 2.49141526061,
			"0.007": 2.86554238819,
			"0.008": 2.24094945151,
			"0.009": 1.37008931381,
			"0.01": 2.19830072096,
			"0.011": 3.48445127029,
			"0.012": 2.65605801097,
			"0.013": 6.6716833096,
			"0.014": 4.55915117137,
			"0.015": 1.18238730476,
			"0.016": 0.314859602993,
			"0.017": 0.0,
			"0.018": 0.0,
			"0.019": 0.0,
			"0.02": 0.0,
			"0.021": 0.0,
			"0.022": 0.0,
			"0.023": 0.0,
			"0.024": 0.0,
			"0.025": 0.0
		}
	}
}
