{
	 "smiles": "ClC(=O)C1=C(Cl)C=C(Cl)C=C1", 
	 "Tm": 290.35, 
	 "num_atms": 14, 
	 "gaussian": { 
		 "optdone": 1, 
		 "sigma_profile": "yes", 
		 "theory": "DFT", 
		 "functional": "B3LYP", 
		 "basiset": "6-31G**", 
		 "properties": { 
			 "R2extent": 5180.9985, 
			 "electric_dipole_moment_norm": 2.57762907533, 
			 "electric_quadrupole_moment_norm": 13.5976284193, 
			 "total_energy": -1724.34753501, 
			 "HOMO_LUMO_gap": 0.19111, 
			 "cosmo_polarized_energy": -5.9, 
			 "cosmo_cavitation_energy": 24.58, 
			 "cosmo_dispersion_energy": -18.31, 
			 "cosmo_repulsion_energy": 1.48, 
			 "cosmo_total_nonelectrostatic_energy": 7.74, 
			 "SMD_solvation_energy": 4.25 
		},
		"coords": [
			{
				"x": -2.1005723685,
				"y": -1.0202279592,
				"z": 4.5917746024,
				"element": "Cl" 
			},
			{
				"x": -2.3688603231,
				"y": -2.0237673166,
				"z": 3.1123348253,
				"element": "C" 
			},
			{
				"x": -3.3277377564,
				"y": -2.7322794932,
				"z": 3.0436277122,
				"element": "O" 
			},
			{
				"x": -1.4179726798,
				"y": -1.7838255828,
				"z": 1.9877339095,
				"element": "C" 
			},
			{
				"x": -0.0149118674,
				"y": -1.7274453222,
				"z": 2.0592785037,
				"element": "C" 
			},
			{
				"x": 0.8624324454,
				"y": -2.0398679076,
				"z": 3.5375662408,
				"element": "Cl" 
			},
			{
				"x": 0.7460876147,
				"y": -1.4884440761,
				"z": 0.9143765997,
				"element": "C" 
			},
			{
				"x": 0.105180487,
				"y": -1.3026941603,
				"z": -0.3087921088,
				"element": "C" 
			},
			{
				"x": 1.0681762295,
				"y": -0.9855265362,
				"z": -1.7326348002,
				"element": "Cl" 
			},
			{
				"x": -1.2835594112,
				"y": -1.3807786147,
				"z": -0.4169345749,
				"element": "C" 
			},
			{
				"x": -2.0260463203,
				"y": -1.6360259861,
				"z": 0.7284660438,
				"element": "C" 
			},
			{
				"x": 1.8265246243,
				"y": -1.4601741231,
				"z": 0.9807434684,
				"element": "H" 
			},
			{
				"x": -1.7686641255,
				"y": -1.2497915122,
				"z": -1.3769582146,
				"element": "H" 
			},
			{
				"x": -3.1061765487,
				"y": -1.7123514096,
				"z": 0.6679177927,
				"element": "H" 
			}
		],
		 "valence_orbital": [ 
			{
				"type": "occ",
				"energy": -0.3286,
				"method": "rhf"
			},
			{
				"type": "occ",
				"energy": -0.31556,
				"method": "rhf"
			},
			{
				"type": "occ",
				"energy": -0.30729,
				"method": "rhf"
			},
			{
				"type": "occ",
				"energy": -0.28352,
				"method": "rhf"
			},
			{
				"type": "occ",
				"energy": -0.27445,
				"method": "rhf"
			},
			{
				"type": "unocc",
				"energy": -0.08334,
				"method": "rhf"
			},
			{
				"type": "unocc",
				"energy": -0.04681,
				"method": "rhf"
			},
			{
				"type": "unocc",
				"energy": -0.02449,
				"method": "rhf"
			},
			{
				"type": "unocc",
				"energy": -0.00627,
				"method": "rhf"
			},
			{
				"type": "unocc",
				"energy": 0.0215,
				"method": "rhf"
			}
		],
		"cosmo_sigma_profile": { 
			"-0.025": 0.0,
			"-0.024": 0.0,
			"-0.023": 0.0,
			"-0.022": 0.0,
			"-0.021": 0.0,
			"-0.02": 0.0,
			"-0.019": 0.0,
			"-0.018": 0.0,
			"-0.017": 0.0,
			"-0.016": 0.0,
			"-0.015": 0.0,
			"-0.014": 0.0,
			"-0.013": 0.0,
			"-0.012": 0.0,
			"-0.011": 0.0,
			"-0.01": 0.14954940926,
			"-0.009": 3.17699561431,
			"-0.008": 5.50354168617,
			"-0.007": 6.44408872519,
			"-0.006": 5.56169880415,
			"-0.005": 6.23455322604,
			"-0.004": 7.42841275254,
			"-0.003": 10.9472923751,
			"-0.002": 14.3071528874,
			"-0.001": 27.538435084,
			"0.0": 24.8743387901,
			"0.001": 17.6345733444,
			"0.002": 17.3356266335,
			"0.003": 26.4310545036,
			"0.004": 16.6932094083,
			"0.005": 3.89575139223,
			"0.006": 1.96858967568,
			"0.007": 3.30674037872,
			"0.008": 4.52098174429,
			"0.009": 1.2621607746,
			"0.01": 0.00945518755528,
			"0.011": 0.0,
			"0.012": 0.0,
			"0.013": 0.0,
			"0.014": 0.0,
			"0.015": 0.0,
			"0.016": 0.0,
			"0.017": 0.0,
			"0.018": 0.0,
			"0.019": 0.0,
			"0.02": 0.0,
			"0.021": 0.0,
			"0.022": 0.0,
			"0.023": 0.0,
			"0.024": 0.0,
			"0.025": 0.0
		}
	}
}
