{
	 "smiles": "COC1=C(C=CC=C1)C1=NN=C(S)N1C", 
	 "Tm": 451.15, 
	 "num_atms": 26, 
	 "gaussian": { 
		 "optdone": 1, 
		 "sigma_profile": "yes", 
		 "theory": "DFT", 
		 "functional": "B3LYP", 
		 "basiset": "6-31G**", 
		 "properties": { 
			 "R2extent": 4339.1062, 
			 "electric_dipole_moment_norm": 5.86178322185, 
			 "electric_quadrupole_moment_norm": 17.8000402735, 
			 "total_energy": -1025.32175687, 
			 "HOMO_LUMO_gap": 0.18877, 
			 "cosmo_polarized_energy": -17.71, 
			 "cosmo_cavitation_energy": 31.43, 
			 "cosmo_dispersion_energy": -22.94, 
			 "cosmo_repulsion_energy": 1.74, 
			 "cosmo_total_nonelectrostatic_energy": 10.24, 
			 "SMD_solvation_energy": 3.67 
		},
		"coords": [
			{
				"x": -2.4404904126,
				"y": 1.4739186265,
				"z": -0.0604991858,
				"element": "C" 
			},
			{
				"x": -1.4944883545,
				"y": 0.4158854265,
				"z": -0.1225537869,
				"element": "O" 
			},
			{
				"x": -0.6407135406,
				"y": 0.3645771232,
				"z": -1.1887872276,
				"element": "C" 
			},
			{
				"x": 0.1983631439,
				"y": -0.7711111456,
				"z": -1.2603530049,
				"element": "C" 
			},
			{
				"x": 1.0518336337,
				"y": -0.9081409142,
				"z": -2.3624399516,
				"element": "C" 
			},
			{
				"x": 1.1067314461,
				"y": 0.0624973744,
				"z": -3.3617856399,
				"element": "C" 
			},
			{
				"x": 0.2949540932,
				"y": 1.1905133557,
				"z": -3.2629128079,
				"element": "C" 
			},
			{
				"x": -0.5790638807,
				"y": 1.3455281062,
				"z": -2.1843442923,
				"element": "C" 
			},
			{
				"x": 0.1471022606,
				"y": -1.8599098466,
				"z": -0.2713381199,
				"element": "C" 
			},
			{
				"x": 0.0581621943,
				"y": -3.1367813024,
				"z": -0.5833902734,
				"element": "N" 
			},
			{
				"x": 0.0838009288,
				"y": -3.8673251493,
				"z": 0.5854430848,
				"element": "N" 
			},
			{
				"x": 0.1983204122,
				"y": -3.0038881274,
				"z": 1.5680825164,
				"element": "C" 
			},
			{
				"x": 0.2828894485,
				"y": -3.3952566779,
				"z": 3.291186594,
				"element": "S" 
			},
			{
				"x": 0.2500856371,
				"y": -1.7174760572,
				"z": 1.1015471687,
				"element": "N" 
			},
			{
				"x": 0.4797934584,
				"y": -0.5117986588,
				"z": 1.8829680288,
				"element": "C" 
			},
			{
				"x": -3.0882765298,
				"y": 1.4843606138,
				"z": -0.9452997067,
				"element": "H" 
			},
			{
				"x": -3.0462990305,
				"y": 1.2826164527,
				"z": 0.8263551779,
				"element": "H" 
			},
			{
				"x": -1.9514820341,
				"y": 2.4513484016,
				"z": 0.0398770767,
				"element": "H" 
			},
			{
				"x": 1.6678392235,
				"y": -1.7992086315,
				"z": -2.4200886081,
				"element": "H" 
			},
			{
				"x": 1.7778502908,
				"y": -0.0617648973,
				"z": -4.2054579375,
				"element": "H" 
			},
			{
				"x": 0.3300762133,
				"y": 1.9593096729,
				"z": -4.0294677797,
				"element": "H" 
			},
			{
				"x": -1.2150662016,
				"y": 2.2209635914,
				"z": -2.1343539477,
				"element": "H" 
			},
			{
				"x": 0.3512410036,
				"y": -4.718510563,
				"z": 3.0533999408,
				"element": "H" 
			},
			{
				"x": -0.4540498113,
				"y": -0.1274953227,
				"z": 2.2996652835,
				"element": "H" 
			},
			{
				"x": 0.9167335695,
				"y": 0.2502384876,
				"z": 1.2374826941,
				"element": "H" 
			},
			{
				"x": 1.1811528384,
				"y": -0.7344899385,
				"z": 2.6911647041,
				"element": "H" 
			}
		],
		 "valence_orbital": [ 
			{
				"type": "occ",
				"energy": -0.2816,
				"method": "rhf"
			},
			{
				"type": "occ",
				"energy": -0.26236,
				"method": "rhf"
			},
			{
				"type": "occ",
				"energy": -0.24613,
				"method": "rhf"
			},
			{
				"type": "occ",
				"energy": -0.23622,
				"method": "rhf"
			},
			{
				"type": "occ",
				"energy": -0.21396,
				"method": "rhf"
			},
			{
				"type": "unocc",
				"energy": -0.02519,
				"method": "rhf"
			},
			{
				"type": "unocc",
				"energy": 0.00164,
				"method": "rhf"
			},
			{
				"type": "unocc",
				"energy": 0.0104,
				"method": "rhf"
			},
			{
				"type": "unocc",
				"energy": 0.03417,
				"method": "rhf"
			},
			{
				"type": "unocc",
				"energy": 0.05656,
				"method": "rhf"
			}
		],
		"cosmo_sigma_profile": { 
			"-0.025": 0.0,
			"-0.024": 0.0,
			"-0.023": 0.0,
			"-0.022": 0.0,
			"-0.021": 0.0,
			"-0.02": 0.0,
			"-0.019": 0.0,
			"-0.018": 0.0,
			"-0.017": 0.0,
			"-0.016": 0.0,
			"-0.015": 0.0,
			"-0.014": 0.0,
			"-0.013": 0.0784504419933,
			"-0.012": 1.18467654302,
			"-0.011": 1.3369801441,
			"-0.01": 1.41257241415,
			"-0.009": 1.26828088173,
			"-0.008": 0.983585115115,
			"-0.007": 4.63794553667,
			"-0.006": 20.0013846141,
			"-0.005": 25.4832771851,
			"-0.004": 28.3205759165,
			"-0.003": 22.2209805514,
			"-0.002": 14.8388534561,
			"-0.001": 13.926985779,
			"0.0": 13.6331040057,
			"0.001": 14.2833071942,
			"0.002": 13.8485871791,
			"0.003": 14.8133989194,
			"0.004": 14.8543159481,
			"0.005": 12.9862101262,
			"0.006": 6.23859356556,
			"0.007": 3.68179132375,
			"0.008": 2.58644614426,
			"0.009": 2.00894112585,
			"0.01": 1.92324760699,
			"0.011": 2.46265668843,
			"0.012": 2.09639410158,
			"0.013": 3.20385934101,
			"0.014": 3.70383769623,
			"0.015": 2.46307493078,
			"0.016": 2.1519913043,
			"0.017": 0.894351036183,
			"0.018": 0.0100426735063,
			"0.019": 0.0,
			"0.02": 0.0,
			"0.021": 0.0,
			"0.022": 0.0,
			"0.023": 0.0,
			"0.024": 0.0,
			"0.025": 0.0
		}
	}
}
