{
	 "smiles": "NCC(O)CC1=CC=CC=C1", 
	 "Tm": 341.15, 
	 "num_atms": 24, 
	 "gaussian": { 
		 "optdone": 1, 
		 "sigma_profile": "yes", 
		 "theory": "DFT", 
		 "functional": "B3LYP", 
		 "basiset": "6-31G**", 
		 "properties": { 
			 "R2extent": 2600.2158, 
			 "electric_dipole_moment_norm": 3.37227440461, 
			 "electric_quadrupole_moment_norm": 11.5184279157, 
			 "total_energy": -480.7660732, 
			 "HOMO_LUMO_gap": 0.23957, 
			 "cosmo_polarized_energy": -9.99, 
			 "cosmo_cavitation_energy": 26.4, 
			 "cosmo_dispersion_energy": -19.51, 
			 "cosmo_repulsion_energy": 1.6, 
			 "cosmo_total_nonelectrostatic_energy": 8.49, 
			 "SMD_solvation_energy": 3.63 
		},
		"coords": [
			{
				"x": -0.5143160258,
				"y": -3.2115406667,
				"z": -2.6791816848,
				"element": "N" 
			},
			{
				"x": 0.3699008391,
				"y": -2.2729207457,
				"z": -1.9722303047,
				"element": "C" 
			},
			{
				"x": -0.4660966173,
				"y": -1.5118834743,
				"z": -0.9301093544,
				"element": "C" 
			},
			{
				"x": -1.6235798289,
				"y": -0.994812601,
				"z": -1.5613735762,
				"element": "O" 
			},
			{
				"x": 0.3203865076,
				"y": -0.3578106136,
				"z": -0.2942337532,
				"element": "C" 
			},
			{
				"x": -0.3551591953,
				"y": 0.2778430214,
				"z": 0.904021758,
				"element": "C" 
			},
			{
				"x": -1.5391764493,
				"y": 1.0172254284,
				"z": 0.7579048435,
				"element": "C" 
			},
			{
				"x": -2.1570953512,
				"y": 1.5957978931,
				"z": 1.8661530772,
				"element": "C" 
			},
			{
				"x": -1.6041540214,
				"y": 1.4488279457,
				"z": 3.1409168369,
				"element": "C" 
			},
			{
				"x": -0.4279075291,
				"y": 0.7159383398,
				"z": 3.2987424851,
				"element": "C" 
			},
			{
				"x": 0.1884208935,
				"y": 0.1366884234,
				"z": 2.1872421989,
				"element": "C" 
			},
			{
				"x": -0.6653348521,
				"y": -4.0491252679,
				"z": -2.12225173,
				"element": "H" 
			},
			{
				"x": -0.1059436536,
				"y": -3.5096184028,
				"z": -3.5593789421,
				"element": "H" 
			},
			{
				"x": 0.7482732007,
				"y": -1.5526074539,
				"z": -2.7067513548,
				"element": "H" 
			},
			{
				"x": 1.2394995635,
				"y": -2.7472017744,
				"z": -1.4901436013,
				"element": "H" 
			},
			{
				"x": -0.7509203815,
				"y": -2.2228473571,
				"z": -0.1311916673,
				"element": "H" 
			},
			{
				"x": -1.8696751016,
				"y": -1.6846794301,
				"z": -2.2046191595,
				"element": "H" 
			},
			{
				"x": 0.4852613409,
				"y": 0.3919332553,
				"z": -1.0786651153,
				"element": "H" 
			},
			{
				"x": 1.3063225882,
				"y": -0.7343482538,
				"z": 0.0052646653,
				"element": "H" 
			},
			{
				"x": -1.9775218708,
				"y": 1.1190570896,
				"z": -0.2291526301,
				"element": "H" 
			},
			{
				"x": -3.0737918861,
				"y": 2.1644290409,
				"z": 1.7343544558,
				"element": "H" 
			},
			{
				"x": -2.085799192,
				"y": 1.9032384491,
				"z": 4.0023006201,
				"element": "H" 
			},
			{
				"x": 0.0129923637,
				"y": 0.5958889693,
				"z": 4.2847203419,
				"element": "H" 
			},
			{
				"x": 1.1079146587,
				"y": -0.4298718147,
				"z": 2.317961591,
				"element": "H" 
			}
		],
		 "valence_orbital": [ 
			{
				"type": "occ",
				"energy": -0.30674,
				"method": "rhf"
			},
			{
				"type": "occ",
				"energy": -0.26486,
				"method": "rhf"
			},
			{
				"type": "occ",
				"energy": -0.24795,
				"method": "rhf"
			},
			{
				"type": "occ",
				"energy": -0.23598,
				"method": "rhf"
			},
			{
				"type": "occ",
				"energy": -0.22861,
				"method": "rhf"
			},
			{
				"type": "unocc",
				"energy": 0.01096,
				"method": "rhf"
			},
			{
				"type": "unocc",
				"energy": 0.01295,
				"method": "rhf"
			},
			{
				"type": "unocc",
				"energy": 0.06928,
				"method": "rhf"
			},
			{
				"type": "unocc",
				"energy": 0.10323,
				"method": "rhf"
			},
			{
				"type": "unocc",
				"energy": 0.11277,
				"method": "rhf"
			}
		],
		"cosmo_sigma_profile": { 
			"-0.025": 0.0,
			"-0.024": 0.0,
			"-0.023": 0.0,
			"-0.022": 0.0,
			"-0.021": 0.0,
			"-0.02": 0.0,
			"-0.019": 0.0,
			"-0.018": 0.0,
			"-0.017": 0.0,
			"-0.016": 0.0,
			"-0.015": 0.0,
			"-0.014": 0.0,
			"-0.013": 0.0,
			"-0.012": 0.0,
			"-0.011": 0.694556534445,
			"-0.01": 2.69305765635,
			"-0.009": 2.74425926144,
			"-0.008": 2.98118138988,
			"-0.007": 3.91675079987,
			"-0.006": 3.87343647301,
			"-0.005": 10.974392845,
			"-0.004": 18.1278223808,
			"-0.003": 27.4936357838,
			"-0.002": 21.3451573406,
			"-0.001": 16.5495500793,
			"0.0": 13.629562866,
			"0.001": 9.91397539368,
			"0.002": 9.90611354397,
			"0.003": 9.60100989796,
			"0.004": 10.3124998243,
			"0.005": 9.80748726414,
			"0.006": 11.5284072664,
			"0.007": 7.79498339199,
			"0.008": 2.05816741396,
			"0.009": 2.11454566396,
			"0.01": 2.59532749542,
			"0.011": 2.18697989367,
			"0.012": 1.95595445987,
			"0.013": 1.17836389467,
			"0.014": 0.468820144347,
			"0.015": 0.0,
			"0.016": 0.0,
			"0.017": 0.0,
			"0.018": 0.0,
			"0.019": 0.0,
			"0.02": 0.0,
			"0.021": 0.0,
			"0.022": 0.0,
			"0.023": 0.0,
			"0.024": 0.0,
			"0.025": 0.0
		}
	}
}
