{
	 "smiles": "OC(=O)C1=NN(CC2=CC=C(F)C=C2)C(=O)CC1", 
	 "Tm": 464.15, 
	 "num_atms": 29, 
	 "gaussian": { 
		 "optdone": 1, 
		 "sigma_profile": "yes", 
		 "theory": "DFT", 
		 "functional": "B3LYP", 
		 "basiset": "6-31G**", 
		 "properties": { 
			 "R2extent": 5516.5775, 
			 "electric_dipole_moment_norm": 2.44353834633, 
			 "electric_quadrupole_moment_norm": 20.8081081598, 
			 "total_energy": -898.913267646, 
			 "HOMO_LUMO_gap": 0.16976, 
			 "cosmo_polarized_energy": -16.15, 
			 "cosmo_cavitation_energy": 34.33, 
			 "cosmo_dispersion_energy": -23.95, 
			 "cosmo_repulsion_energy": 1.84, 
			 "cosmo_total_nonelectrostatic_energy": 12.21, 
			 "SMD_solvation_energy": 7.21 
		},
		"coords": [
			{
				"x": -0.4677707885,
				"y": -3.0086033746,
				"z": 2.99136033,
				"element": "O" 
			},
			{
				"x": -1.5127455921,
				"y": -2.1712003776,
				"z": 2.8715257475,
				"element": "C" 
			},
			{
				"x": -2.6015293581,
				"y": -2.4091691881,
				"z": 3.3444196645,
				"element": "O" 
			},
			{
				"x": -1.2382831706,
				"y": -0.9118147976,
				"z": 2.1014505312,
				"element": "C" 
			},
			{
				"x": -0.0386002688,
				"y": -0.7776070033,
				"z": 1.6493588366,
				"element": "N" 
			},
			{
				"x": 0.291925557,
				"y": 0.3328096904,
				"z": 0.9247007862,
				"element": "N" 
			},
			{
				"x": 1.6012671634,
				"y": 0.2796494048,
				"z": 0.2474068984,
				"element": "C" 
			},
			{
				"x": 1.5421978578,
				"y": -0.3641044104,
				"z": -1.122094626,
				"element": "C" 
			},
			{
				"x": 1.9225918504,
				"y": -1.6989871168,
				"z": -1.3024863164,
				"element": "C" 
			},
			{
				"x": 1.8582087757,
				"y": -2.3015430867,
				"z": -2.5594835375,
				"element": "C" 
			},
			{
				"x": 1.4047437781,
				"y": -1.546557793,
				"z": -3.6344372753,
				"element": "C" 
			},
			{
				"x": 1.3401348093,
				"y": -2.1183718843,
				"z": -4.8540916836,
				"element": "F" 
			},
			{
				"x": 1.0185159248,
				"y": -0.217386262,
				"z": -3.4916776159,
				"element": "C" 
			},
			{
				"x": 1.0908051742,
				"y": 0.3691364122,
				"z": -2.2296774285,
				"element": "C" 
			},
			{
				"x": -0.488341848,
				"y": 1.4886813497,
				"z": 0.8588079299,
				"element": "C" 
			},
			{
				"x": -0.1448727987,
				"y": 2.4417404966,
				"z": 0.1780398132,
				"element": "O" 
			},
			{
				"x": -1.7231317472,
				"y": 1.4799646309,
				"z": 1.743066743,
				"element": "C" 
			},
			{
				"x": -2.335079654,
				"y": 0.080871825,
				"z": 1.8622773655,
				"element": "C" 
			},
			{
				"x": 0.285104829,
				"y": -2.5959715204,
				"z": 2.5275448114,
				"element": "H" 
			},
			{
				"x": 2.2681513105,
				"y": -0.2775183643,
				"z": 0.9092199316,
				"element": "H" 
			},
			{
				"x": 1.9506968302,
				"y": 1.310487683,
				"z": 0.1748722582,
				"element": "H" 
			},
			{
				"x": 2.2777267285,
				"y": -2.2773731694,
				"z": -0.4536682911,
				"element": "H" 
			},
			{
				"x": 2.1531249625,
				"y": -3.3336389686,
				"z": -2.7144179548,
				"element": "H" 
			},
			{
				"x": 0.6747641231,
				"y": 0.3362326046,
				"z": -4.3587570255,
				"element": "H" 
			},
			{
				"x": 0.790300823,
				"y": 1.4038251984,
				"z": -2.0943096685,
				"element": "H" 
			},
			{
				"x": -1.4098808257,
				"y": 1.8420495476,
				"z": 2.7318012544,
				"element": "H" 
			},
			{
				"x": -2.4248350499,
				"y": 2.2115934466,
				"z": 1.3393216346,
				"element": "H" 
			},
			{
				"x": -3.0776044007,
				"y": 0.0150260267,
				"z": 2.6599295561,
				"element": "H" 
			},
			{
				"x": -2.852984995,
				"y": -0.1939209993,
				"z": 0.9317973307,
				"element": "H" 
			}
		],
		 "valence_orbital": [ 
			{
				"type": "occ",
				"energy": -0.28782,
				"method": "rhf"
			},
			{
				"type": "occ",
				"energy": -0.27372,
				"method": "rhf"
			},
			{
				"type": "occ",
				"energy": -0.26863,
				"method": "rhf"
			},
			{
				"type": "occ",
				"energy": -0.2606,
				"method": "rhf"
			},
			{
				"type": "occ",
				"energy": -0.24878,
				"method": "rhf"
			},
			{
				"type": "unocc",
				"energy": -0.07902,
				"method": "rhf"
			},
			{
				"type": "unocc",
				"energy": -0.02,
				"method": "rhf"
			},
			{
				"type": "unocc",
				"energy": -0.01443,
				"method": "rhf"
			},
			{
				"type": "unocc",
				"energy": 0.00197,
				"method": "rhf"
			},
			{
				"type": "unocc",
				"energy": 0.0586,
				"method": "rhf"
			}
		],
		"cosmo_sigma_profile": { 
			"-0.025": 0.0,
			"-0.024": 0.0,
			"-0.023": 0.0,
			"-0.022": 0.0,
			"-0.021": 0.0,
			"-0.02": 0.0,
			"-0.019": 0.0,
			"-0.018": 0.0,
			"-0.017": 0.0,
			"-0.016": 0.0,
			"-0.015": 0.00318245383101,
			"-0.014": 0.442300389405,
			"-0.013": 0.440501418218,
			"-0.012": 0.768119646016,
			"-0.011": 0.759157332761,
			"-0.01": 0.346796463396,
			"-0.009": 0.500669970829,
			"-0.008": 2.62053807197,
			"-0.007": 15.0156878555,
			"-0.006": 22.1904125712,
			"-0.005": 23.7607312262,
			"-0.004": 22.3279912989,
			"-0.003": 21.1984767826,
			"-0.002": 16.2442828278,
			"-0.001": 10.7162500409,
			"0.0": 14.8872133597,
			"0.001": 18.6443148539,
			"0.002": 17.2974274134,
			"0.003": 16.0465112594,
			"0.004": 21.6785035013,
			"0.005": 8.32536999978,
			"0.006": 3.77364608835,
			"0.007": 2.93884898214,
			"0.008": 5.01172082351,
			"0.009": 5.78312019765,
			"0.01": 6.64851681737,
			"0.011": 7.54854002767,
			"0.012": 6.10001316779,
			"0.013": 2.00825177767,
			"0.014": 0.0,
			"0.015": 0.0,
			"0.016": 0.0,
			"0.017": 0.0,
			"0.018": 0.0,
			"0.019": 0.0,
			"0.02": 0.0,
			"0.021": 0.0,
			"0.022": 0.0,
			"0.023": 0.0,
			"0.024": 0.0,
			"0.025": 0.0
		}
	}
}
