{
	 "smiles": "FC1=C(F)C(F)=C(C#N)C(C#N)=C1F", 
	 "Tm": 356.15, 
	 "num_atms": 14, 
	 "gaussian": { 
		 "optdone": 1, 
		 "sigma_profile": "yes", 
		 "theory": "DFT", 
		 "functional": "B3LYP", 
		 "basiset": "6-31G**", 
		 "properties": { 
			 "R2extent": 4151.4808, 
			 "electric_dipole_moment_norm": 4.62940371538, 
			 "electric_quadrupole_moment_norm": 18.0736993568, 
			 "total_energy": -813.611881244, 
			 "HOMO_LUMO_gap": 0.18885, 
			 "cosmo_polarized_energy": -11.25, 
			 "cosmo_cavitation_energy": 24.22, 
			 "cosmo_dispersion_energy": -15.81, 
			 "cosmo_repulsion_energy": 1.16, 
			 "cosmo_total_nonelectrostatic_energy": 9.57, 
			 "SMD_solvation_energy": 8.75 
		},
		"coords": [
			{
				"x": -0.16634076,
				"y": -1.6401181331,
				"z": -2.6696300948,
				"element": "F" 
			},
			{
				"x": 0.5773079317,
				"y": -1.619173114,
				"z": -1.5686938634,
				"element": "C" 
			},
			{
				"x": 1.8669646134,
				"y": -1.0956199832,
				"z": -1.6100175599,
				"element": "C" 
			},
			{
				"x": 2.3530604518,
				"y": -0.617234627,
				"z": -2.750357968,
				"element": "F" 
			},
			{
				"x": 2.6458862574,
				"y": -1.0749344456,
				"z": -0.4522896292,
				"element": "C" 
			},
			{
				"x": 3.8747421408,
				"y": -0.5692511122,
				"z": -0.5190368676,
				"element": "F" 
			},
			{
				"x": 2.1515791275,
				"y": -1.5734469861,
				"z": 0.7557341435,
				"element": "C" 
			},
			{
				"x": 2.980478812,
				"y": -1.5339342267,
				"z": 1.9176002559,
				"element": "C" 
			},
			{
				"x": 3.6638289012,
				"y": -1.4967480163,
				"z": 2.8568798371,
				"element": "N" 
			},
			{
				"x": 0.8364704536,
				"y": -2.1072509231,
				"z": 0.797887991,
				"element": "C" 
			},
			{
				"x": 0.2797008791,
				"y": -2.6301221766,
				"z": 2.0041987294,
				"element": "C" 
			},
			{
				"x": -0.18351369,
				"y": -3.0582452485,
				"z": 2.9802819726,
				"element": "N" 
			},
			{
				"x": 0.0691869626,
				"y": -2.1208579168,
				"z": -0.3696961368,
				"element": "C" 
			},
			{
				"x": -1.1659520811,
				"y": -2.6153630908,
				"z": -0.3574608098,
				"element": "F" 
			}
		],
		 "valence_orbital": [ 
			{
				"type": "occ",
				"energy": -0.36871,
				"method": "rhf"
			},
			{
				"type": "occ",
				"energy": -0.36496,
				"method": "rhf"
			},
			{
				"type": "occ",
				"energy": -0.36433,
				"method": "rhf"
			},
			{
				"type": "occ",
				"energy": -0.30194,
				"method": "rhf"
			},
			{
				"type": "occ",
				"energy": -0.29807,
				"method": "rhf"
			},
			{
				"type": "unocc",
				"energy": -0.10922,
				"method": "rhf"
			},
			{
				"type": "unocc",
				"energy": -0.07302,
				"method": "rhf"
			},
			{
				"type": "unocc",
				"energy": -0.01881,
				"method": "rhf"
			},
			{
				"type": "unocc",
				"energy": -0.0014,
				"method": "rhf"
			},
			{
				"type": "unocc",
				"energy": 0.00166,
				"method": "rhf"
			}
		],
		"cosmo_sigma_profile": { 
			"-0.025": 0.0,
			"-0.024": 0.0,
			"-0.023": 0.0,
			"-0.022": 0.0,
			"-0.021": 0.0,
			"-0.02": 0.0,
			"-0.019": 0.0,
			"-0.018": 0.0,
			"-0.017": 0.0,
			"-0.016": 0.0,
			"-0.015": 0.0,
			"-0.014": 0.0,
			"-0.013": 0.0,
			"-0.012": 0.0,
			"-0.011": 0.0,
			"-0.01": 0.304618830553,
			"-0.009": 1.4380131735,
			"-0.008": 3.27813082075,
			"-0.007": 15.783099165,
			"-0.006": 18.2312042631,
			"-0.005": 9.71961936618,
			"-0.004": 8.76043709409,
			"-0.003": 7.15132738668,
			"-0.002": 8.28888823537,
			"-0.001": 9.38400488245,
			"0.0": 15.4226118495,
			"0.001": 44.6953306358,
			"0.002": 10.2459827553,
			"0.003": 6.00974501975,
			"0.004": 4.36259225898,
			"0.005": 4.63258676277,
			"0.006": 6.85737346505,
			"0.007": 5.51737336873,
			"0.008": 6.2996284296,
			"0.009": 4.80071255865,
			"0.01": 5.13938051515,
			"0.011": 3.34718740209,
			"0.012": 0.371038481915,
			"0.013": 0.0,
			"0.014": 0.0,
			"0.015": 0.0,
			"0.016": 0.0,
			"0.017": 0.0,
			"0.018": 0.0,
			"0.019": 0.0,
			"0.02": 0.0,
			"0.021": 0.0,
			"0.022": 0.0,
			"0.023": 0.0,
			"0.024": 0.0,
			"0.025": 0.0
		}
	}
}
