{
	 "smiles": "CCC(C)CC(O)=O", 
	 "Tm": 232.15, 
	 "num_atms": 20, 
	 "gaussian": { 
		 "optdone": 1, 
		 "sigma_profile": "yes", 
		 "theory": "DFT", 
		 "functional": "B3LYP", 
		 "basiset": "6-31G**", 
		 "properties": { 
			 "R2extent": 1774.8473, 
			 "electric_dipole_moment_norm": 1.82641678157, 
			 "electric_quadrupole_moment_norm": 5.92626277683, 
			 "total_energy": -386.349508727, 
			 "HOMO_LUMO_gap": 0.27913, 
			 "cosmo_polarized_energy": -7.93, 
			 "cosmo_cavitation_energy": 22.46, 
			 "cosmo_dispersion_energy": -16.0, 
			 "cosmo_repulsion_energy": 1.36, 
			 "cosmo_total_nonelectrostatic_energy": 7.82, 
			 "SMD_solvation_energy": 5.06 
		},
		"coords": [
			{
				"x": 1.3658695368,
				"y": 0.6183606621,
				"z": -3.1065275738,
				"element": "C" 
			},
			{
				"x": 0.5262234236,
				"y": -0.6536858086,
				"z": -2.9434002999,
				"element": "C" 
			},
			{
				"x": -0.7361497486,
				"y": -0.5021537435,
				"z": -2.0712601677,
				"element": "C" 
			},
			{
				"x": -1.6029612787,
				"y": -1.7677614728,
				"z": -2.1493979081,
				"element": "C" 
			},
			{
				"x": -0.3704703794,
				"y": -0.1695339678,
				"z": -0.6041004526,
				"element": "C" 
			},
			{
				"x": -1.5757828473,
				"y": 0.0776946757,
				"z": 0.2734708304,
				"element": "C" 
			},
			{
				"x": -2.2775840543,
				"y": 1.1691171701,
				"z": -0.1316075233,
				"element": "O" 
			},
			{
				"x": -1.9158270557,
				"y": -0.5883889805,
				"z": 1.22661102,
				"element": "O" 
			},
			{
				"x": 2.1949544169,
				"y": 0.4498531557,
				"z": -3.8012922145,
				"element": "H" 
			},
			{
				"x": 0.7625367981,
				"y": 1.442500175,
				"z": -3.5041315537,
				"element": "H" 
			},
			{
				"x": 1.8019056364,
				"y": 0.9533034721,
				"z": -2.1596876821,
				"element": "H" 
			},
			{
				"x": 0.2086326789,
				"y": -0.9962053051,
				"z": -3.936765022,
				"element": "H" 
			},
			{
				"x": 1.1504157072,
				"y": -1.46002202,
				"z": -2.5328516753,
				"element": "H" 
			},
			{
				"x": -1.319921741,
				"y": 0.3417617018,
				"z": -2.4628627322,
				"element": "H" 
			},
			{
				"x": -1.8886687628,
				"y": -1.9800259039,
				"z": -3.1849288126,
				"element": "H" 
			},
			{
				"x": -2.5226308928,
				"y": -1.6706013803,
				"z": -1.5637108747,
				"element": "H" 
			},
			{
				"x": -1.0593957615,
				"y": -2.6397308718,
				"z": -1.7666870025,
				"element": "H" 
			},
			{
				"x": 0.1932054403,
				"y": -0.9920224014,
				"z": -0.1543855426,
				"element": "H" 
			},
			{
				"x": 0.2513054621,
				"y": 0.7317057254,
				"z": -0.5726176541,
				"element": "H" 
			},
			{
				"x": -3.0306565781,
				"y": 1.2421351177,
				"z": 0.4785328413,
				"element": "H" 
			}
		],
		 "valence_orbital": [ 
			{
				"type": "occ",
				"energy": -0.33124,
				"method": "rhf"
			},
			{
				"type": "occ",
				"energy": -0.32776,
				"method": "rhf"
			},
			{
				"type": "occ",
				"energy": -0.32676,
				"method": "rhf"
			},
			{
				"type": "occ",
				"energy": -0.31247,
				"method": "rhf"
			},
			{
				"type": "occ",
				"energy": -0.26776,
				"method": "rhf"
			},
			{
				"type": "unocc",
				"energy": 0.01137,
				"method": "rhf"
			},
			{
				"type": "unocc",
				"energy": 0.07346,
				"method": "rhf"
			},
			{
				"type": "unocc",
				"energy": 0.09361,
				"method": "rhf"
			},
			{
				"type": "unocc",
				"energy": 0.11588,
				"method": "rhf"
			},
			{
				"type": "unocc",
				"energy": 0.12285,
				"method": "rhf"
			}
		],
		"cosmo_sigma_profile": { 
			"-0.025": 0.0,
			"-0.024": 0.0,
			"-0.023": 0.0,
			"-0.022": 0.0,
			"-0.021": 0.0,
			"-0.02": 0.0,
			"-0.019": 0.0,
			"-0.018": 0.459144086672,
			"-0.017": 0.945901195772,
			"-0.016": 0.963127541116,
			"-0.015": 0.569516574128,
			"-0.014": 0.744127914071,
			"-0.013": 0.46590622424,
			"-0.012": 0.332935117006,
			"-0.011": 1.03274317201,
			"-0.01": 1.34652821377,
			"-0.009": 0.531307600613,
			"-0.008": 0.427704620198,
			"-0.007": 0.686301672127,
			"-0.006": 0.971750480089,
			"-0.005": 4.00940939247,
			"-0.004": 7.00031545095,
			"-0.003": 18.5727414469,
			"-0.002": 26.9186881243,
			"-0.001": 24.836723743,
			"0.0": 22.1616333741,
			"0.001": 21.2192055023,
			"0.002": 7.65007575173,
			"0.003": 3.46463806843,
			"0.004": 2.96369355861,
			"0.005": 2.50008286672,
			"0.006": 2.71155814496,
			"0.007": 2.23780279434,
			"0.008": 2.56165838003,
			"0.009": 2.56930134175,
			"0.01": 2.78816135692,
			"0.011": 2.91356788818,
			"0.012": 5.17243021469,
			"0.013": 1.81597107603,
			"0.014": 0.119152946763,
			"0.015": 0.0,
			"0.016": 0.0,
			"0.017": 0.0,
			"0.018": 0.0,
			"0.019": 0.0,
			"0.02": 0.0,
			"0.021": 0.0,
			"0.022": 0.0,
			"0.023": 0.0,
			"0.024": 0.0,
			"0.025": 0.0
		}
	}
}
