{
	 "smiles": "CC1(CC(C1)C(=O)C1=CC2=C(O1)C=CC=C2)C1=CC=CC=C1", 
	 "Tm": 429.15, 
	 "num_atms": 40, 
	 "gaussian": { 
		 "optdone": 1, 
		 "sigma_profile": "yes", 
		 "theory": "DFT", 
		 "functional": "B3LYP", 
		 "basiset": "6-31G**", 
		 "properties": { 
			 "R2extent": 7930.7302, 
			 "electric_dipole_moment_norm": 2.78016972503, 
			 "electric_quadrupole_moment_norm": 14.6435187861, 
			 "total_energy": -923.397792783, 
			 "HOMO_LUMO_gap": 0.1644, 
			 "cosmo_polarized_energy": -10.04, 
			 "cosmo_cavitation_energy": 42.97, 
			 "cosmo_dispersion_energy": -28.72, 
			 "cosmo_repulsion_energy": 2.17, 
			 "cosmo_total_nonelectrostatic_energy": 16.41, 
			 "SMD_solvation_energy": 7.6 
		},
		"coords": [
			{
				"x": 3.410360918,
				"y": -0.3524712377,
				"z": 2.6508960022,
				"element": "C" 
			},
			{
				"x": 2.1990529834,
				"y": 0.1346446302,
				"z": 1.8358269451,
				"element": "C" 
			},
			{
				"x": 0.976452426,
				"y": 0.4619917444,
				"z": 2.7549166344,
				"element": "C" 
			},
			{
				"x": 1.3748416516,
				"y": 1.9708279822,
				"z": 2.7225316958,
				"element": "C" 
			},
			{
				"x": 2.2995860582,
				"y": 1.6599314852,
				"z": 1.5041405678,
				"element": "C" 
			},
			{
				"x": 0.3018909483,
				"y": 3.0346830052,
				"z": 2.6067136249,
				"element": "C" 
			},
			{
				"x": 0.2292766027,
				"y": 3.9551586025,
				"z": 3.4129195493,
				"element": "O" 
			},
			{
				"x": -0.6909065949,
				"y": 2.9891578554,
				"z": 1.5114407082,
				"element": "C" 
			},
			{
				"x": -1.7187886874,
				"y": 3.8501212162,
				"z": 1.2481667011,
				"element": "C" 
			},
			{
				"x": -2.3791994126,
				"y": 3.3562512201,
				"z": 0.0746067015,
				"element": "C" 
			},
			{
				"x": -1.6717669905,
				"y": 2.1923440172,
				"z": -0.2921691975,
				"element": "C" 
			},
			{
				"x": -0.6454841672,
				"y": 1.9666677549,
				"z": 0.5788616363,
				"element": "O" 
			},
			{
				"x": -1.9957132938,
				"y": 1.404040298,
				"z": -1.3916266851,
				"element": "C" 
			},
			{
				"x": -3.0879449168,
				"y": 1.8228231108,
				"z": -2.1474163556,
				"element": "C" 
			},
			{
				"x": -3.8183049576,
				"y": 2.98186155,
				"z": -1.8096164371,
				"element": "C" 
			},
			{
				"x": -3.4782307862,
				"y": 3.755619273,
				"z": -0.7069965476,
				"element": "C" 
			},
			{
				"x": 1.9472455991,
				"y": -0.8044810789,
				"z": 0.6699098883,
				"element": "C" 
			},
			{
				"x": 2.5761584332,
				"y": -0.60149962,
				"z": -0.5664426848,
				"element": "C" 
			},
			{
				"x": 2.375931179,
				"y": -1.4846673604,
				"z": -1.6286363992,
				"element": "C" 
			},
			{
				"x": 1.5413190212,
				"y": -2.5928477364,
				"z": -1.4723391298,
				"element": "C" 
			},
			{
				"x": 0.9127563971,
				"y": -2.8101726464,
				"z": -0.2448354951,
				"element": "C" 
			},
			{
				"x": 1.1161245901,
				"y": -1.9241559575,
				"z": 0.8143775183,
				"element": "C" 
			},
			{
				"x": 4.3095859078,
				"y": -0.3873991525,
				"z": 2.0265791819,
				"element": "H" 
			},
			{
				"x": 3.6115208871,
				"y": 0.311412484,
				"z": 3.4994516735,
				"element": "H" 
			},
			{
				"x": 3.2347305885,
				"y": -1.3601554988,
				"z": 3.0424741219,
				"element": "H" 
			},
			{
				"x": 0.9613292383,
				"y": -0.003297026,
				"z": 3.7451469987,
				"element": "H" 
			},
			{
				"x": 0.0255275695,
				"y": 0.2722353205,
				"z": 2.2552245213,
				"element": "H" 
			},
			{
				"x": 1.958090588,
				"y": 2.2465996622,
				"z": 3.6037426625,
				"element": "H" 
			},
			{
				"x": 3.2961089873,
				"y": 2.1105802867,
				"z": 1.5379699021,
				"element": "H" 
			},
			{
				"x": 1.8279290276,
				"y": 1.9041087625,
				"z": 0.5513134332,
				"element": "H" 
			},
			{
				"x": -1.9547841806,
				"y": 4.7243020481,
				"z": 1.8365911357,
				"element": "H" 
			},
			{
				"x": -1.423227944,
				"y": 0.5161797529,
				"z": -1.6366227526,
				"element": "H" 
			},
			{
				"x": -3.3844416747,
				"y": 1.2439816487,
				"z": -3.0168981265,
				"element": "H" 
			},
			{
				"x": -4.6631039259,
				"y": 3.2713022471,
				"z": -2.4272688645,
				"element": "H" 
			},
			{
				"x": -4.0453411933,
				"y": 4.6461164339,
				"z": -0.4537882828,
				"element": "H" 
			},
			{
				"x": 3.2265404527,
				"y": 0.2589083535,
				"z": -0.7023440955,
				"element": "H" 
			},
			{
				"x": 2.8706632755,
				"y": -1.305118578,
				"z": -2.579343229,
				"element": "H" 
			},
			{
				"x": 1.3820594181,
				"y": -3.2797105636,
				"z": -2.2986771084,
				"element": "H" 
			},
			{
				"x": 0.2609244054,
				"y": -3.6692996424,
				"z": -0.111216093,
				"element": "H" 
			},
			{
				"x": 0.6186315718,
				"y": -2.1036746465,
				"z": 1.7641356801,
				"element": "H" 
			}
		],
		 "valence_orbital": [ 
			{
				"type": "occ",
				"energy": -0.24987,
				"method": "rhf"
			},
			{
				"type": "occ",
				"energy": -0.24804,
				"method": "rhf"
			},
			{
				"type": "occ",
				"energy": -0.24682,
				"method": "rhf"
			},
			{
				"type": "occ",
				"energy": -0.23567,
				"method": "rhf"
			},
			{
				"type": "occ",
				"energy": -0.23,
				"method": "rhf"
			},
			{
				"type": "unocc",
				"energy": -0.0656,
				"method": "rhf"
			},
			{
				"type": "unocc",
				"energy": -0.00096,
				"method": "rhf"
			},
			{
				"type": "unocc",
				"energy": -0.00015,
				"method": "rhf"
			},
			{
				"type": "unocc",
				"energy": 0.00118,
				"method": "rhf"
			},
			{
				"type": "unocc",
				"energy": 0.01177,
				"method": "rhf"
			}
		],
		"cosmo_sigma_profile": { 
			"-0.025": 0.0,
			"-0.024": 0.0,
			"-0.023": 0.0,
			"-0.022": 0.0,
			"-0.021": 0.0,
			"-0.02": 0.0,
			"-0.019": 0.0,
			"-0.018": 0.0,
			"-0.017": 0.0,
			"-0.016": 0.0,
			"-0.015": 0.0,
			"-0.014": 0.0,
			"-0.013": 0.0,
			"-0.012": 0.0,
			"-0.011": 0.0,
			"-0.01": 0.0,
			"-0.009": 0.0812405761274,
			"-0.008": 1.3158474206,
			"-0.007": 2.81678915937,
			"-0.006": 10.2707682374,
			"-0.005": 19.612087915,
			"-0.004": 27.3301286823,
			"-0.003": 39.1026851094,
			"-0.002": 41.5124559584,
			"-0.001": 33.2628716164,
			"0.0": 28.7064806781,
			"0.001": 27.1425442199,
			"0.002": 25.423870835,
			"0.003": 21.9564732697,
			"0.004": 21.1395440877,
			"0.005": 18.0897086812,
			"0.006": 6.75941330097,
			"0.007": 3.4523516593,
			"0.008": 0.975603554124,
			"0.009": 2.03400514374,
			"0.01": 2.15686792824,
			"0.011": 2.84776595543,
			"0.012": 4.45465694489,
			"0.013": 1.49568848862,
			"0.014": 0.113804749041,
			"0.015": 0.0,
			"0.016": 0.0,
			"0.017": 0.0,
			"0.018": 0.0,
			"0.019": 0.0,
			"0.02": 0.0,
			"0.021": 0.0,
			"0.022": 0.0,
			"0.023": 0.0,
			"0.024": 0.0,
			"0.025": 0.0
		}
	}
}
