{
	 "smiles": "OC(=O)CCCN1C(=O)CSC1=S", 
	 "Tm": 398.15, 
	 "num_atms": 22, 
	 "gaussian": { 
		 "optdone": 1, 
		 "sigma_profile": "yes", 
		 "theory": "DFT", 
		 "functional": "B3LYP", 
		 "basiset": "6-31G**", 
		 "properties": { 
			 "R2extent": 4042.5363, 
			 "electric_dipole_moment_norm": 1.76027741848, 
			 "electric_quadrupole_moment_norm": 19.079999244, 
			 "total_energy": -1349.00358198, 
			 "HOMO_LUMO_gap": 0.16343, 
			 "cosmo_polarized_energy": -16.99, 
			 "cosmo_cavitation_energy": 29.8, 
			 "cosmo_dispersion_energy": -21.75, 
			 "cosmo_repulsion_energy": 1.66, 
			 "cosmo_total_nonelectrostatic_energy": 9.71, 
			 "SMD_solvation_energy": 5.29 
		},
		"coords": [
			{
				"x": -0.7525082105,
				"y": -1.9782116293,
				"z": 3.0693125075,
				"element": "O" 
			},
			{
				"x": -1.5779842686,
				"y": -0.929831129,
				"z": 3.3275461575,
				"element": "C" 
			},
			{
				"x": -2.6837318018,
				"y": -1.0751938718,
				"z": 3.797068023,
				"element": "O" 
			},
			{
				"x": -0.9594553349,
				"y": 0.3928135804,
				"z": 2.9257830625,
				"element": "C" 
			},
			{
				"x": -1.1790483742,
				"y": 0.7210577319,
				"z": 1.4325434159,
				"element": "C" 
			},
			{
				"x": -0.3632441551,
				"y": -0.1784766365,
				"z": 0.4947702864,
				"element": "C" 
			},
			{
				"x": -0.5694297816,
				"y": 0.1755172769,
				"z": -0.9177473618,
				"element": "N" 
			},
			{
				"x": -1.5687256549,
				"y": -0.4800090083,
				"z": -1.6468936528,
				"element": "C" 
			},
			{
				"x": -2.2878678177,
				"y": -1.3391601885,
				"z": -1.184586218,
				"element": "O" 
			},
			{
				"x": -1.6291773051,
				"y": 0.0203157915,
				"z": -3.0829783906,
				"element": "C" 
			},
			{
				"x": -0.350892719,
				"y": 1.3140591862,
				"z": -3.2501565087,
				"element": "S" 
			},
			{
				"x": 0.1735771069,
				"y": 1.1431632921,
				"z": -1.5660114349,
				"element": "C" 
			},
			{
				"x": 1.3934747912,
				"y": 2.0432677926,
				"z": -0.9212182042,
				"element": "S" 
			},
			{
				"x": -1.2457836155,
				"y": -2.7785072424,
				"z": 3.3187585057,
				"element": "H" 
			},
			{
				"x": 0.1115159456,
				"y": 0.3818707584,
				"z": 3.1532068209,
				"element": "H" 
			},
			{
				"x": -1.4375442807,
				"y": 1.1631932507,
				"z": 3.5344443213,
				"element": "H" 
			},
			{
				"x": -0.8868420482,
				"y": 1.7621387714,
				"z": 1.2648054731,
				"element": "H" 
			},
			{
				"x": -2.2441834606,
				"y": 0.6322798873,
				"z": 1.1924087617,
				"element": "H" 
			},
			{
				"x": 0.7049186395,
				"y": -0.0823531978,
				"z": 0.7000037202,
				"element": "H" 
			},
			{
				"x": -0.6572044992,
				"y": -1.2235644474,
				"z": 0.5961399394,
				"element": "H" 
			},
			{
				"x": -1.4410450394,
				"y": -0.8137400268,
				"z": -3.763647374,
				"element": "H" 
			},
			{
				"x": -2.6264181162,
				"y": 0.4178700583,
				"z": -3.28685185,
				"element": "H" 
			}
		],
		 "valence_orbital": [ 
			{
				"type": "occ",
				"energy": -0.29737,
				"method": "rhf"
			},
			{
				"type": "occ",
				"energy": -0.28121,
				"method": "rhf"
			},
			{
				"type": "occ",
				"energy": -0.27855,
				"method": "rhf"
			},
			{
				"type": "occ",
				"energy": -0.25229,
				"method": "rhf"
			},
			{
				"type": "occ",
				"energy": -0.23737,
				"method": "rhf"
			},
			{
				"type": "unocc",
				"energy": -0.07394,
				"method": "rhf"
			},
			{
				"type": "unocc",
				"energy": -0.00738,
				"method": "rhf"
			},
			{
				"type": "unocc",
				"energy": -0.00552,
				"method": "rhf"
			},
			{
				"type": "unocc",
				"energy": 0.0028,
				"method": "rhf"
			},
			{
				"type": "unocc",
				"energy": 0.04448,
				"method": "rhf"
			}
		],
		"cosmo_sigma_profile": { 
			"-0.025": 0.0,
			"-0.024": 0.0,
			"-0.023": 0.0,
			"-0.022": 0.0,
			"-0.021": 0.0,
			"-0.02": 0.0,
			"-0.019": 0.0,
			"-0.018": 0.675673408631,
			"-0.017": 0.700362764071,
			"-0.016": 0.908984101117,
			"-0.015": 1.20928713348,
			"-0.014": 0.807534996122,
			"-0.013": 0.446677558704,
			"-0.012": 0.474562955122,
			"-0.011": 0.806019283123,
			"-0.01": 4.56122093879,
			"-0.009": 6.62646581541,
			"-0.008": 6.45385306493,
			"-0.007": 8.00253490546,
			"-0.006": 10.5981781854,
			"-0.005": 14.5640005688,
			"-0.004": 19.1782515158,
			"-0.003": 20.0807560206,
			"-0.002": 15.0312970003,
			"-0.001": 10.0894744604,
			"0.0": 8.45763383281,
			"0.001": 12.539451103,
			"0.002": 13.1029127832,
			"0.003": 13.141121379,
			"0.004": 11.7715088794,
			"0.005": 10.4080671987,
			"0.006": 11.222516488,
			"0.007": 7.89834014874,
			"0.008": 6.30812461813,
			"0.009": 5.70949309961,
			"0.01": 6.34910959665,
			"0.011": 7.19684998862,
			"0.012": 4.74267565881,
			"0.013": 0.896858181196,
			"0.014": 0.0,
			"0.015": 0.0,
			"0.016": 0.0,
			"0.017": 0.0,
			"0.018": 0.0,
			"0.019": 0.0,
			"0.02": 0.0,
			"0.021": 0.0,
			"0.022": 0.0,
			"0.023": 0.0,
			"0.024": 0.0,
			"0.025": 0.0
		}
	}
}
