{
	 "smiles": "CC1=CC(C=O)=CC(C)=C1OC(F)F", 
	 "Tm": 330.15, 
	 "num_atms": 24, 
	 "gaussian": { 
		 "optdone": 1, 
		 "sigma_profile": "yes", 
		 "theory": "DFT", 
		 "functional": "B3LYP", 
		 "basiset": "6-31G**", 
		 "properties": { 
			 "R2extent": 3338.1514, 
			 "electric_dipole_moment_norm": 1.29802899043, 
			 "electric_quadrupole_moment_norm": 19.7156454979, 
			 "total_energy": -737.216616624, 
			 "HOMO_LUMO_gap": 0.19094, 
			 "cosmo_polarized_energy": -9.62, 
			 "cosmo_cavitation_energy": 28.85, 
			 "cosmo_dispersion_energy": -20.14, 
			 "cosmo_repulsion_energy": 1.53, 
			 "cosmo_total_nonelectrostatic_energy": 10.24, 
			 "SMD_solvation_energy": 7.18 
		},
		"coords": [
			{
				"x": -1.5333856875,
				"y": 1.7065434058,
				"z": 0.5262582313,
				"element": "C" 
			},
			{
				"x": -0.2471249451,
				"y": 1.0523854795,
				"z": 0.0873204564,
				"element": "C" 
			},
			{
				"x": 0.3938732177,
				"y": 1.4116478528,
				"z": -1.1004680526,
				"element": "C" 
			},
			{
				"x": 1.6007685097,
				"y": 0.81556997,
				"z": -1.48224483,
				"element": "C" 
			},
			{
				"x": 2.2548267242,
				"y": 1.2196420254,
				"z": -2.7473501908,
				"element": "C" 
			},
			{
				"x": 3.3042754527,
				"y": 0.7630382064,
				"z": -3.1595535286,
				"element": "O" 
			},
			{
				"x": 2.1957129041,
				"y": -0.1477914584,
				"z": -0.6594394547,
				"element": "C" 
			},
			{
				"x": 1.5946324613,
				"y": -0.5383955347,
				"z": 0.5368708923,
				"element": "C" 
			},
			{
				"x": 2.2470370069,
				"y": -1.5517740433,
				"z": 1.4471794405,
				"element": "C" 
			},
			{
				"x": 0.3675663329,
				"y": 0.0636031825,
				"z": 0.8713955887,
				"element": "C" 
			},
			{
				"x": -0.2309709592,
				"y": -0.2641610043,
				"z": 2.0921866758,
				"element": "O" 
			},
			{
				"x": -0.963202022,
				"y": -1.4265931013,
				"z": 2.1325250881,
				"element": "C" 
			},
			{
				"x": -2.2495575819,
				"y": -1.1955438288,
				"z": 1.736160182,
				"element": "F" 
			},
			{
				"x": -1.0039396648,
				"y": -1.8255444375,
				"z": 3.4169466154,
				"element": "F" 
			},
			{
				"x": -1.8560700802,
				"y": 2.4507794716,
				"z": -0.2056706728,
				"element": "H" 
			},
			{
				"x": -1.4087069058,
				"y": 2.2052272424,
				"z": 1.4931343138,
				"element": "H" 
			},
			{
				"x": -2.3307384812,
				"y": 0.9703179277,
				"z": 0.6529212109,
				"element": "H" 
			},
			{
				"x": -0.0531249376,
				"y": 2.1715820502,
				"z": -1.7379488336,
				"element": "H" 
			},
			{
				"x": 1.706004501,
				"y": 1.9982592127,
				"z": -3.3230305963,
				"element": "H" 
			},
			{
				"x": 3.1444901559,
				"y": -0.5765238285,
				"z": -0.9683116485,
				"element": "H" 
			},
			{
				"x": 3.3252541701,
				"y": -1.5825261238,
				"z": 1.2730792604,
				"element": "H" 
			},
			{
				"x": 1.8642762707,
				"y": -2.5652252319,
				"z": 1.2722802209,
				"element": "H" 
			},
			{
				"x": 2.0685949681,
				"y": -1.3135243565,
				"z": 2.4988694564,
				"element": "H" 
			},
			{
				"x": -0.5532914102,
				"y": -2.2207930779,
				"z": 1.499290175,
				"element": "H" 
			}
		],
		 "valence_orbital": [ 
			{
				"type": "occ",
				"energy": -0.34766,
				"method": "rhf"
			},
			{
				"type": "occ",
				"energy": -0.32576,
				"method": "rhf"
			},
			{
				"type": "occ",
				"energy": -0.26282,
				"method": "rhf"
			},
			{
				"type": "occ",
				"energy": -0.25845,
				"method": "rhf"
			},
			{
				"type": "occ",
				"energy": -0.25813,
				"method": "rhf"
			},
			{
				"type": "unocc",
				"energy": -0.06719,
				"method": "rhf"
			},
			{
				"type": "unocc",
				"energy": -0.01934,
				"method": "rhf"
			},
			{
				"type": "unocc",
				"energy": 0.0301,
				"method": "rhf"
			},
			{
				"type": "unocc",
				"energy": 0.08056,
				"method": "rhf"
			},
			{
				"type": "unocc",
				"energy": 0.09882,
				"method": "rhf"
			}
		],
		"cosmo_sigma_profile": { 
			"-0.025": 0.0,
			"-0.024": 0.0,
			"-0.023": 0.0,
			"-0.022": 0.0,
			"-0.021": 0.0,
			"-0.02": 0.0,
			"-0.019": 0.0,
			"-0.018": 0.0,
			"-0.017": 0.0,
			"-0.016": 0.0,
			"-0.015": 0.0,
			"-0.014": 0.0,
			"-0.013": 0.0,
			"-0.012": 0.0,
			"-0.011": 0.0167197906473,
			"-0.01": 2.31665448373,
			"-0.009": 3.20283312763,
			"-0.008": 2.69618946217,
			"-0.007": 6.19795931845,
			"-0.006": 10.2942919037,
			"-0.005": 12.2211867481,
			"-0.004": 14.7840292106,
			"-0.003": 15.3198828621,
			"-0.002": 19.3181151023,
			"-0.001": 22.2956047598,
			"0.0": 22.4359727094,
			"0.001": 15.8446545694,
			"0.002": 17.9869831886,
			"0.003": 22.0309391702,
			"0.004": 17.4097986233,
			"0.005": 4.49442809139,
			"0.006": 2.33736088352,
			"0.007": 2.5140697553,
			"0.008": 2.89672465458,
			"0.009": 2.16327208566,
			"0.01": 2.64019020691,
			"0.011": 4.48676812884,
			"0.012": 2.83291600272,
			"0.013": 0.793503275891,
			"0.014": 0.0,
			"0.015": 0.0,
			"0.016": 0.0,
			"0.017": 0.0,
			"0.018": 0.0,
			"0.019": 0.0,
			"0.02": 0.0,
			"0.021": 0.0,
			"0.022": 0.0,
			"0.023": 0.0,
			"0.024": 0.0,
			"0.025": 0.0
		}
	}
}
