{
	 "smiles": "BrC1=CC=C(Br)C=C1", 
	 "Tm": 360.65, 
	 "num_atms": 12, 
	 "gaussian": { 
		 "optdone": 1, 
		 "sigma_profile": "yes", 
		 "theory": "DFT", 
		 "functional": "B3LYP", 
		 "basiset": "6-31G**", 
		 "properties": { 
			 "R2extent": 3822.2449, 
			 "electric_dipole_moment_norm": 0.0, 
			 "electric_quadrupole_moment_norm": 7.38794887029, 
			 "total_energy": -5373.85589249, 
			 "HOMO_LUMO_gap": 0.21463, 
			 "cosmo_polarized_energy": -3.77, 
			 "cosmo_cavitation_energy": 20.89, 
			 "cosmo_dispersion_energy": -16.48, 
			 "cosmo_repulsion_energy": 1.36, 
			 "cosmo_total_nonelectrostatic_energy": 5.77, 
			 "SMD_solvation_energy": 1.33 
		},
		"coords": [
			{
				"x": -2.8581905297,
				"y": -0.0212846719,
				"z": 0.5069695063,
				"element": "Br" 
			},
			{
				"x": -1.1845324875,
				"y": 0.617396743,
				"z": -0.1538053928,
				"element": "C" 
			},
			{
				"x": -0.1413077147,
				"y": 0.8581775844,
				"z": 0.7389873983,
				"element": "C" 
			},
			{
				"x": 1.0818491626,
				"y": 1.324959672,
				"z": 0.2561040411,
				"element": "C" 
			},
			{
				"x": 1.241316877,
				"y": 1.5431490028,
				"z": -1.1114939272,
				"element": "C" 
			},
			{
				"x": 2.9149715104,
				"y": 2.1818372459,
				"z": -1.7722711725,
				"element": "Br" 
			},
			{
				"x": 0.1980903613,
				"y": 1.302373693,
				"z": -2.0042872183,
				"element": "C" 
			},
			{
				"x": -1.0250642715,
				"y": 0.8355877734,
				"z": -1.5214046076,
				"element": "C" 
			},
			{
				"x": -0.2780250807,
				"y": 0.6845251441,
				"z": 1.8001879961,
				"element": "H" 
			},
			{
				"x": 1.9008496201,
				"y": 1.5160401503,
				"z": 0.9399997693,
				"element": "H" 
			},
			{
				"x": 0.3348090642,
				"y": 1.4760273606,
				"z": -3.0654874038,
				"element": "H" 
			},
			{
				"x": -1.8440665116,
				"y": 0.6445103025,
				"z": -2.2052989889,
				"element": "H" 
			}
		],
		 "valence_orbital": [ 
			{
				"type": "occ",
				"energy": -0.29735,
				"method": "rhf"
			},
			{
				"type": "occ",
				"energy": -0.2959,
				"method": "rhf"
			},
			{
				"type": "occ",
				"energy": -0.29214,
				"method": "rhf"
			},
			{
				"type": "occ",
				"energy": -0.27758,
				"method": "rhf"
			},
			{
				"type": "occ",
				"energy": -0.2425,
				"method": "rhf"
			},
			{
				"type": "unocc",
				"energy": -0.02787,
				"method": "rhf"
			},
			{
				"type": "unocc",
				"energy": -0.02758,
				"method": "rhf"
			},
			{
				"type": "unocc",
				"energy": -0.00774,
				"method": "rhf"
			},
			{
				"type": "unocc",
				"energy": 0.00844,
				"method": "rhf"
			},
			{
				"type": "unocc",
				"energy": 0.12485,
				"method": "rhf"
			}
		],
		"cosmo_sigma_profile": { 
			"-0.025": 0.0,
			"-0.024": 0.0,
			"-0.023": 0.0,
			"-0.022": 0.0,
			"-0.021": 0.0,
			"-0.02": 0.0,
			"-0.019": 0.0,
			"-0.018": 0.0,
			"-0.017": 0.0,
			"-0.016": 0.0,
			"-0.015": 0.0,
			"-0.014": 0.0,
			"-0.013": 0.0,
			"-0.012": 0.0,
			"-0.011": 0.0,
			"-0.01": 0.0,
			"-0.009": 0.0,
			"-0.008": 3.83111210019,
			"-0.007": 7.61299924187,
			"-0.006": 7.51365071826,
			"-0.005": 7.68597223379,
			"-0.004": 7.93992231141,
			"-0.003": 9.46006648603,
			"-0.002": 10.2454313069,
			"-0.001": 10.6900862957,
			"0.0": 13.2409657783,
			"0.001": 20.4774156994,
			"0.002": 29.0651492473,
			"0.003": 18.3276474453,
			"0.004": 21.7315738288,
			"0.005": 7.12999809183,
			"0.006": 0.0,
			"0.007": 0.0,
			"0.008": 0.0,
			"0.009": 0.0,
			"0.01": 0.0,
			"0.011": 0.0,
			"0.012": 0.0,
			"0.013": 0.0,
			"0.014": 0.0,
			"0.015": 0.0,
			"0.016": 0.0,
			"0.017": 0.0,
			"0.018": 0.0,
			"0.019": 0.0,
			"0.02": 0.0,
			"0.021": 0.0,
			"0.022": 0.0,
			"0.023": 0.0,
			"0.024": 0.0,
			"0.025": 0.0
		}
	}
}
