{
	 "smiles": "CCC1=C(C=C(C=C1)C(O)=O)S(Cl)(=O)=O", 
	 "Tm": 455.15, 
	 "num_atms": 24, 
	 "gaussian": { 
		 "optdone": 1, 
		 "sigma_profile": "yes", 
		 "theory": "DFT", 
		 "functional": "B3LYP", 
		 "basiset": "6-31G**", 
		 "properties": { 
			 "R2extent": 4676.9441, 
			 "electric_dipole_moment_norm": 7.3218652603, 
			 "electric_quadrupole_moment_norm": 17.0033209839, 
			 "total_energy": -1507.59939652, 
			 "HOMO_LUMO_gap": 0.18559, 
			 "cosmo_polarized_energy": -19.48, 
			 "cosmo_cavitation_energy": 31.24, 
			 "cosmo_dispersion_energy": -22.91, 
			 "cosmo_repulsion_energy": 1.75, 
			 "cosmo_total_nonelectrostatic_energy": 10.07, 
			 "SMD_solvation_energy": 5.29 
		},
		"coords": [
			{
				"x": -2.269268368,
				"y": 0.3481939754,
				"z": 1.18466232,
				"element": "C" 
			},
			{
				"x": -0.8155615417,
				"y": 0.8380665025,
				"z": 1.3326604501,
				"element": "C" 
			},
			{
				"x": 0.193191385,
				"y": -0.1777978899,
				"z": 0.8328424961,
				"element": "C" 
			},
			{
				"x": 0.9560911376,
				"y": -0.0789060521,
				"z": -0.3490814337,
				"element": "C" 
			},
			{
				"x": 1.8361726985,
				"y": -1.0766752823,
				"z": -0.7668606056,
				"element": "C" 
			},
			{
				"x": 1.978917946,
				"y": -2.2391803269,
				"z": -0.0059631455,
				"element": "C" 
			},
			{
				"x": 1.2543528792,
				"y": -2.3562227158,
				"z": 1.1865691565,
				"element": "C" 
			},
			{
				"x": 0.3876011682,
				"y": -1.3452179028,
				"z": 1.5879075464,
				"element": "C" 
			},
			{
				"x": 2.9515837777,
				"y": -3.273115892,
				"z": -0.4973266787,
				"element": "C" 
			},
			{
				"x": 2.8038223989,
				"y": -4.5319222977,
				"z": -0.009371033,
				"element": "O" 
			},
			{
				"x": 3.8324981835,
				"y": -3.0225737232,
				"z": -1.2829551782,
				"element": "O" 
			},
			{
				"x": 0.930046826,
				"y": 1.382080452,
				"z": -1.410087509,
				"element": "S" 
			},
			{
				"x": -1.0088695924,
				"y": 1.2308513225,
				"z": -2.2951436031,
				"element": "Cl" 
			},
			{
				"x": 1.8824264091,
				"y": 1.1963547001,
				"z": -2.4954192088,
				"element": "O" 
			},
			{
				"x": 0.9218968363,
				"y": 2.5994946751,
				"z": -0.6071068202,
				"element": "O" 
			},
			{
				"x": -2.5237226438,
				"y": 0.1834555177,
				"z": 0.1345608625,
				"element": "H" 
			},
			{
				"x": -2.9567844605,
				"y": 1.098123,
				"z": 1.5866249657,
				"element": "H" 
			},
			{
				"x": -2.436888136,
				"y": -0.5879620336,
				"z": 1.726618741,
				"element": "H" 
			},
			{
				"x": -0.6043898608,
				"y": 1.0199056553,
				"z": 2.3933123895,
				"element": "H" 
			},
			{
				"x": -0.6933396303,
				"y": 1.7945547683,
				"z": 0.8270321822,
				"element": "H" 
			},
			{
				"x": 2.4184566943,
				"y": -0.9618884922,
				"z": -1.6733893813,
				"element": "H" 
			},
			{
				"x": 1.3848731826,
				"y": -3.2188969007,
				"z": 1.8352339432,
				"element": "H" 
			},
			{
				"x": -0.1566180007,
				"y": -1.4510905117,
				"z": 2.521998392,
				"element": "H" 
			},
			{
				"x": 1.9626107112,
				"y": -4.622430548,
				"z": 0.4588811516,
				"element": "H" 
			}
		],
		 "valence_orbital": [ 
			{
				"type": "occ",
				"energy": -0.33358,
				"method": "rhf"
			},
			{
				"type": "occ",
				"energy": -0.32085,
				"method": "rhf"
			},
			{
				"type": "occ",
				"energy": -0.30487,
				"method": "rhf"
			},
			{
				"type": "occ",
				"energy": -0.29662,
				"method": "rhf"
			},
			{
				"type": "occ",
				"energy": -0.28454,
				"method": "rhf"
			},
			{
				"type": "unocc",
				"energy": -0.09895,
				"method": "rhf"
			},
			{
				"type": "unocc",
				"energy": -0.07554,
				"method": "rhf"
			},
			{
				"type": "unocc",
				"energy": -0.05712,
				"method": "rhf"
			},
			{
				"type": "unocc",
				"energy": 0.00903,
				"method": "rhf"
			},
			{
				"type": "unocc",
				"energy": 0.0416,
				"method": "rhf"
			}
		],
		"cosmo_sigma_profile": { 
			"-0.025": 0.0,
			"-0.024": 0.0,
			"-0.023": 0.0,
			"-0.022": 0.0,
			"-0.021": 0.0,
			"-0.02": 0.112333563367,
			"-0.019": 1.12032755341,
			"-0.018": 0.947410303538,
			"-0.017": 1.1222468154,
			"-0.016": 0.901081751479,
			"-0.015": 0.938049042548,
			"-0.014": 1.2297699966,
			"-0.013": 1.34967812325,
			"-0.012": 0.950422081016,
			"-0.011": 1.11754097733,
			"-0.01": 1.58981451809,
			"-0.009": 2.16625834624,
			"-0.008": 4.29330002627,
			"-0.007": 6.32226213608,
			"-0.006": 8.06323292332,
			"-0.005": 9.25112010115,
			"-0.004": 13.5984939666,
			"-0.003": 17.531856783,
			"-0.002": 24.8261022928,
			"-0.001": 27.2810776842,
			"0.0": 26.6440373054,
			"0.001": 16.2283234666,
			"0.002": 10.438014843,
			"0.003": 13.6997244008,
			"0.004": 7.45295541152,
			"0.005": 6.09033384558,
			"0.006": 6.47222637971,
			"0.007": 9.24217447792,
			"0.008": 10.2843899726,
			"0.009": 7.20789124979,
			"0.01": 5.08394459616,
			"0.011": 5.25487651427,
			"0.012": 2.7212882712,
			"0.013": 0.381490778786,
			"0.014": 0.0,
			"0.015": 0.0,
			"0.016": 0.0,
			"0.017": 0.0,
			"0.018": 0.0,
			"0.019": 0.0,
			"0.02": 0.0,
			"0.021": 0.0,
			"0.022": 0.0,
			"0.023": 0.0,
			"0.024": 0.0,
			"0.025": 0.0
		}
	}
}
