{
	 "smiles": "OC1=CC=C(OC2=NC=C(C=C2)C(F)(F)F)C=C1", 
	 "Tm": 364.15, 
	 "num_atms": 26, 
	 "gaussian": { 
		 "optdone": 1, 
		 "sigma_profile": "yes", 
		 "theory": "DFT", 
		 "functional": "B3LYP", 
		 "basiset": "6-31G**", 
		 "properties": { 
			 "R2extent": 6789.6179, 
			 "electric_dipole_moment_norm": 2.19338234013, 
			 "electric_quadrupole_moment_norm": 16.6109425058, 
			 "total_energy": -966.810585272, 
			 "HOMO_LUMO_gap": 0.18099, 
			 "cosmo_polarized_energy": -12.17, 
			 "cosmo_cavitation_energy": 33.21, 
			 "cosmo_dispersion_energy": -23.6, 
			 "cosmo_repulsion_energy": 1.76, 
			 "cosmo_total_nonelectrostatic_energy": 11.38, 
			 "SMD_solvation_energy": 6.49 
		},
		"coords": [
			{
				"x": -0.6661503084,
				"y": -2.5462740168,
				"z": 5.0459775345,
				"element": "O" 
			},
			{
				"x": -0.8179159936,
				"y": -1.8930716255,
				"z": 3.8551025008,
				"element": "C" 
			},
			{
				"x": -1.2738867142,
				"y": -2.6405504806,
				"z": 2.7639753713,
				"element": "C" 
			},
			{
				"x": -1.4441492384,
				"y": -2.026817526,
				"z": 1.5256582761,
				"element": "C" 
			},
			{
				"x": -1.1638278883,
				"y": -0.6704120041,
				"z": 1.3793986345,
				"element": "C" 
			},
			{
				"x": -1.4462767575,
				"y": -0.0719796439,
				"z": 0.1466963356,
				"element": "O" 
			},
			{
				"x": -0.4420404711,
				"y": 0.4027018684,
				"z": -0.6344328006,
				"element": "C" 
			},
			{
				"x": 0.8205149961,
				"y": 0.2587625363,
				"z": -0.25599973,
				"element": "N" 
			},
			{
				"x": 1.7704239831,
				"y": 0.7356841476,
				"z": -1.0720267228,
				"element": "C" 
			},
			{
				"x": 1.4962936034,
				"y": 1.3684091381,
				"z": -2.2804113181,
				"element": "C" 
			},
			{
				"x": 0.1524953063,
				"y": 1.5148297321,
				"z": -2.6615515092,
				"element": "C" 
			},
			{
				"x": -0.8395690101,
				"y": 1.0289353553,
				"z": -1.8315538346,
				"element": "C" 
			},
			{
				"x": 2.5938056239,
				"y": 1.8517272343,
				"z": -3.1794275837,
				"element": "C" 
			},
			{
				"x": 2.3172896617,
				"y": 3.0776268794,
				"z": -3.6832184192,
				"element": "F" 
			},
			{
				"x": 3.7783425887,
				"y": 1.9318296755,
				"z": -2.5364487594,
				"element": "F" 
			},
			{
				"x": 2.7718908533,
				"y": 1.0316310514,
				"z": -4.2421685787,
				"element": "F" 
			},
			{
				"x": -0.7172971823,
				"y": 0.0843132216,
				"z": 2.4601914822,
				"element": "C" 
			},
			{
				"x": -0.541200079,
				"y": -0.529693341,
				"z": 3.6991550282,
				"element": "C" 
			},
			{
				"x": -0.3446054137,
				"y": -1.9240645466,
				"z": 5.7109440831,
				"element": "H" 
			},
			{
				"x": -1.4877857489,
				"y": -3.6949458353,
				"z": 2.901615794,
				"element": "H" 
			},
			{
				"x": -1.7992075076,
				"y": -2.5912548476,
				"z": 0.6698325107,
				"element": "H" 
			},
			{
				"x": 2.7968131293,
				"y": 0.6089997171,
				"z": -0.7389304451,
				"element": "H" 
			},
			{
				"x": -0.1006341183,
				"y": 2.0111054534,
				"z": -3.5930593266,
				"element": "H" 
			},
			{
				"x": -1.8928171556,
				"y": 1.1164410713,
				"z": -2.0707305255,
				"element": "H" 
			},
			{
				"x": -0.5064649178,
				"y": 1.1404166649,
				"z": 2.3343249448,
				"element": "H" 
			},
			{
				"x": -0.189441241,
				"y": 0.0552501206,
				"z": 4.5461870577,
				"element": "H" 
			}
		],
		 "valence_orbital": [ 
			{
				"type": "occ",
				"energy": -0.30269,
				"method": "rhf"
			},
			{
				"type": "occ",
				"energy": -0.27996,
				"method": "rhf"
			},
			{
				"type": "occ",
				"energy": -0.25898,
				"method": "rhf"
			},
			{
				"type": "occ",
				"energy": -0.25422,
				"method": "rhf"
			},
			{
				"type": "occ",
				"energy": -0.21924,
				"method": "rhf"
			},
			{
				"type": "unocc",
				"energy": -0.03825,
				"method": "rhf"
			},
			{
				"type": "unocc",
				"energy": -0.02589,
				"method": "rhf"
			},
			{
				"type": "unocc",
				"energy": -0.00827,
				"method": "rhf"
			},
			{
				"type": "unocc",
				"energy": 0.01169,
				"method": "rhf"
			},
			{
				"type": "unocc",
				"energy": 0.0661,
				"method": "rhf"
			}
		],
		"cosmo_sigma_profile": { 
			"-0.025": 0.0,
			"-0.024": 0.0,
			"-0.023": 0.0,
			"-0.022": 0.0,
			"-0.021": 0.0,
			"-0.02": 0.0,
			"-0.019": 0.0,
			"-0.018": 0.494768858098,
			"-0.017": 1.22200214644,
			"-0.016": 1.01207957538,
			"-0.015": 0.950138693613,
			"-0.014": 1.02437886847,
			"-0.013": 1.1206627674,
			"-0.012": 1.3131510081,
			"-0.011": 0.864417807544,
			"-0.01": 0.716104919311,
			"-0.009": 1.90053651815,
			"-0.008": 4.52115516363,
			"-0.007": 9.69215569288,
			"-0.006": 12.5554905236,
			"-0.005": 12.8678966033,
			"-0.004": 12.461426077,
			"-0.003": 11.1241053655,
			"-0.002": 14.4353403757,
			"-0.001": 18.2187271828,
			"0.0": 23.6826817592,
			"0.001": 21.621414689,
			"0.002": 28.0699043486,
			"0.003": 38.2005982362,
			"0.004": 15.6516560353,
			"0.005": 9.1680483983,
			"0.006": 4.66855497754,
			"0.007": 4.44285963089,
			"0.008": 3.91585242319,
			"0.009": 3.05164302559,
			"0.01": 2.53900620622,
			"0.011": 2.60547108461,
			"0.012": 1.81959385526,
			"0.013": 0.996889366903,
			"0.014": 0.147102345327,
			"0.015": 0.0,
			"0.016": 0.0,
			"0.017": 0.0,
			"0.018": 0.0,
			"0.019": 0.0,
			"0.02": 0.0,
			"0.021": 0.0,
			"0.022": 0.0,
			"0.023": 0.0,
			"0.024": 0.0,
			"0.025": 0.0
		}
	}
}
