{
	 "smiles": "CN(C)C(=O)COC1=CC=C(C=C1)C#N", 
	 "Tm": 384.15, 
	 "num_atms": 27, 
	 "gaussian": { 
		 "optdone": 1, 
		 "sigma_profile": "yes", 
		 "theory": "DFT", 
		 "functional": "B3LYP", 
		 "basiset": "6-31G**", 
		 "properties": { 
			 "R2extent": 5277.6, 
			 "electric_dipole_moment_norm": 8.93218692482, 
			 "electric_quadrupole_moment_norm": 29.6728097301, 
			 "total_energy": -686.330911144, 
			 "HOMO_LUMO_gap": 0.19825, 
			 "cosmo_polarized_energy": -19.82, 
			 "cosmo_cavitation_energy": 32.05, 
			 "cosmo_dispersion_energy": -22.47, 
			 "cosmo_repulsion_energy": 1.77, 
			 "cosmo_total_nonelectrostatic_energy": 11.35, 
			 "SMD_solvation_energy": 7.69 
		},
		"coords": [
			{
				"x": -0.2399610076,
				"y": 0.9549784396,
				"z": 3.0096806107,
				"element": "C" 
			},
			{
				"x": 0.0807193651,
				"y": 1.3316318062,
				"z": 1.6381598948,
				"element": "N" 
			},
			{
				"x": 0.8605876587,
				"y": 2.5496783297,
				"z": 1.4850554996,
				"element": "C" 
			},
			{
				"x": -0.4806506039,
				"y": 0.6175609608,
				"z": 0.6095997944,
				"element": "C" 
			},
			{
				"x": -1.1940615156,
				"y": -0.3600970346,
				"z": 0.7834151937,
				"element": "O" 
			},
			{
				"x": -0.1582964166,
				"y": 1.097213843,
				"z": -0.8228154385,
				"element": "C" 
			},
			{
				"x": -0.8568260556,
				"y": 0.3480143715,
				"z": -1.7927550315,
				"element": "O" 
			},
			{
				"x": -0.4225652073,
				"y": -0.8953921672,
				"z": -2.1386838265,
				"element": "C" 
			},
			{
				"x": -1.1469147623,
				"y": -1.5108670972,
				"z": -3.1719421834,
				"element": "C" 
			},
			{
				"x": -0.7753703322,
				"y": -2.7615614211,
				"z": -3.6370317715,
				"element": "C" 
			},
			{
				"x": 0.3343001691,
				"y": -3.4249075366,
				"z": -3.0786843767,
				"element": "C" 
			},
			{
				"x": 1.0495509639,
				"y": -2.8064844171,
				"z": -2.041784109,
				"element": "C" 
			},
			{
				"x": 0.6767699907,
				"y": -1.5517539202,
				"z": -1.5696414863,
				"element": "C" 
			},
			{
				"x": 0.7267754723,
				"y": -4.7146274505,
				"z": -3.5598690125,
				"element": "C" 
			},
			{
				"x": 1.0482050787,
				"y": -5.7620013359,
				"z": -3.9532730344,
				"element": "N" 
			},
			{
				"x": 0.6805426463,
				"y": 0.7996760449,
				"z": 3.5844987753,
				"element": "H" 
			},
			{
				"x": -0.8190267829,
				"y": 0.0334695597,
				"z": 2.9867496178,
				"element": "H" 
			},
			{
				"x": -0.8275520974,
				"y": 1.7408219835,
				"z": 3.5015396034,
				"element": "H" 
			},
			{
				"x": 0.2866811625,
				"y": 3.4349911798,
				"z": 1.7924113462,
				"element": "H" 
			},
			{
				"x": 1.1876418618,
				"y": 2.694337081,
				"z": 0.4562694134,
				"element": "H" 
			},
			{
				"x": 1.7575755937,
				"y": 2.4964312958,
				"z": 2.1129993791,
				"element": "H" 
			},
			{
				"x": -0.4993627236,
				"y": 2.1274455484,
				"z": -0.9609662306,
				"element": "H" 
			},
			{
				"x": 0.923706356,
				"y": 1.0753817834,
				"z": -1.0119522945,
				"element": "H" 
			},
			{
				"x": -1.9964001985,
				"y": -0.9840339099,
				"z": -3.5925166581,
				"element": "H" 
			},
			{
				"x": -1.3363503218,
				"y": -3.2343254713,
				"z": -4.4361961471,
				"element": "H" 
			},
			{
				"x": 1.8981269039,
				"y": -3.3175646648,
				"z": -1.5993206104,
				"element": "H" 
			},
			{
				"x": 1.2303548026,
				"y": -1.1127158011,
				"z": -0.7493469173,
				"element": "H" 
			}
		],
		 "valence_orbital": [ 
			{
				"type": "occ",
				"energy": -0.31596,
				"method": "rhf"
			},
			{
				"type": "occ",
				"energy": -0.2694,
				"method": "rhf"
			},
			{
				"type": "occ",
				"energy": -0.26654,
				"method": "rhf"
			},
			{
				"type": "occ",
				"energy": -0.25625,
				"method": "rhf"
			},
			{
				"type": "occ",
				"energy": -0.23048,
				"method": "rhf"
			},
			{
				"type": "unocc",
				"energy": -0.03223,
				"method": "rhf"
			},
			{
				"type": "unocc",
				"energy": -0.01647,
				"method": "rhf"
			},
			{
				"type": "unocc",
				"energy": 0.01068,
				"method": "rhf"
			},
			{
				"type": "unocc",
				"energy": 0.0478,
				"method": "rhf"
			},
			{
				"type": "unocc",
				"energy": 0.06175,
				"method": "rhf"
			}
		],
		"cosmo_sigma_profile": { 
			"-0.025": 0.0,
			"-0.024": 0.0,
			"-0.023": 0.0,
			"-0.022": 0.0,
			"-0.021": 0.0,
			"-0.02": 0.0,
			"-0.019": 0.0,
			"-0.018": 0.0,
			"-0.017": 0.0,
			"-0.016": 0.0,
			"-0.015": 0.0,
			"-0.014": 0.0,
			"-0.013": 0.0,
			"-0.012": 0.0,
			"-0.011": 0.0,
			"-0.01": 0.408418919595,
			"-0.009": 3.62284061185,
			"-0.008": 10.4373723196,
			"-0.007": 13.7587224676,
			"-0.006": 12.4997451891,
			"-0.005": 20.6171130419,
			"-0.004": 22.2825637059,
			"-0.003": 21.9075854091,
			"-0.002": 20.2249848108,
			"-0.001": 15.1560960937,
			"0.0": 14.7504630167,
			"0.001": 12.9244250954,
			"0.002": 16.0893882392,
			"0.003": 12.6368797824,
			"0.004": 5.55867930538,
			"0.005": 4.97756355987,
			"0.006": 5.2836973517,
			"0.007": 4.95178635024,
			"0.008": 6.98792848957,
			"0.009": 6.09299617025,
			"0.01": 5.02238009278,
			"0.011": 5.31498819328,
			"0.012": 5.29448041871,
			"0.013": 6.40203407653,
			"0.014": 2.79175009097,
			"0.015": 0.0,
			"0.016": 0.0,
			"0.017": 0.0,
			"0.018": 0.0,
			"0.019": 0.0,
			"0.02": 0.0,
			"0.021": 0.0,
			"0.022": 0.0,
			"0.023": 0.0,
			"0.024": 0.0,
			"0.025": 0.0
		}
	}
}
