{
	 "smiles": "OC(=O)CNS(=O)(=O)C1=C2N=S=NC2=CC=C1", 
	 "Tm": 544.15, 
	 "num_atms": 24, 
	 "gaussian": { 
		 "optdone": 1, 
		 "sigma_profile": "yes", 
		 "theory": "DFT", 
		 "functional": "B3LYP", 
		 "basiset": "6-31G**", 
		 "properties": { 
			 "R2extent": 4914.4585, 
			 "electric_dipole_moment_norm": 3.76350605154, 
			 "electric_quadrupole_moment_norm": 21.9434086258, 
			 "total_energy": -1570.50083667, 
			 "HOMO_LUMO_gap": 0.14423, 
			 "cosmo_polarized_energy": -22.34, 
			 "cosmo_cavitation_energy": 31.88, 
			 "cosmo_dispersion_energy": -23.71, 
			 "cosmo_repulsion_energy": 1.73, 
			 "cosmo_total_nonelectrostatic_energy": 9.9, 
			 "SMD_solvation_energy": 3.3 
		},
		"coords": [
			{
				"x": 0.7106977849,
				"y": 1.29968151,
				"z": 3.0060686028,
				"element": "O" 
			},
			{
				"x": -0.213487243,
				"y": 2.2436151903,
				"z": 2.7699062269,
				"element": "C" 
			},
			{
				"x": -1.0527656649,
				"y": 2.5561453437,
				"z": 3.5781024409,
				"element": "O" 
			},
			{
				"x": -0.1566180111,
				"y": 2.9065843513,
				"z": 1.3835151272,
				"element": "C" 
			},
			{
				"x": 1.0482089128,
				"y": 2.5369163755,
				"z": 0.6413171301,
				"element": "N" 
			},
			{
				"x": 0.9658114435,
				"y": 2.0374507242,
				"z": -0.9678826822,
				"element": "S" 
			},
			{
				"x": -0.2205498083,
				"y": 2.6001771035,
				"z": -1.6188234046,
				"element": "O" 
			},
			{
				"x": 2.3095708322,
				"y": 2.2713798879,
				"z": -1.4948907092,
				"element": "O" 
			},
			{
				"x": 0.6714272362,
				"y": 0.2697374299,
				"z": -0.8403630051,
				"element": "C" 
			},
			{
				"x": 1.4340879759,
				"y": -0.5910222674,
				"z": 0.0107672435,
				"element": "C" 
			},
			{
				"x": 2.3379593934,
				"y": -0.2421138355,
				"z": 0.933905025,
				"element": "N" 
			},
			{
				"x": 2.8719544236,
				"y": -1.6415446823,
				"z": 1.615040223,
				"element": "S" 
			},
			{
				"x": 1.9792152433,
				"y": -2.7265955547,
				"z": 0.7782477227,
				"element": "N" 
			},
			{
				"x": 1.2199107908,
				"y": -2.0248815517,
				"z": -0.0727653255,
				"element": "C" 
			},
			{
				"x": 0.2662131384,
				"y": -2.5686313916,
				"z": -0.9802081658,
				"element": "C" 
			},
			{
				"x": -0.4532647953,
				"y": -1.7024350904,
				"z": -1.761160295,
				"element": "C" 
			},
			{
				"x": -0.2492374391,
				"y": -0.2898774505,
				"z": -1.6935961552,
				"element": "C" 
			},
			{
				"x": 1.293897213,
				"y": 1.2069860532,
				"z": 2.2242543074,
				"element": "H" 
			},
			{
				"x": -1.0408017409,
				"y": 2.5923138296,
				"z": 0.8211655391,
				"element": "H" 
			},
			{
				"x": -0.2459718804,
				"y": 3.9882444339,
				"z": 1.5183741736,
				"element": "H" 
			},
			{
				"x": 1.8511348586,
				"y": 3.1521313477,
				"z": 0.7367531778,
				"element": "H" 
			},
			{
				"x": 0.1270415736,
				"y": -3.6428807164,
				"z": -1.0257186366,
				"element": "H" 
			},
			{
				"x": -1.1945252577,
				"y": -2.0836974609,
				"z": -2.4557701785,
				"element": "H" 
			},
			{
				"x": -0.8300089795,
				"y": 0.3667164207,
				"z": -2.3325383825,
				"element": "H" 
			}
		],
		 "valence_orbital": [ 
			{
				"type": "occ",
				"energy": -0.31236,
				"method": "rhf"
			},
			{
				"type": "occ",
				"energy": -0.30841,
				"method": "rhf"
			},
			{
				"type": "occ",
				"energy": -0.29639,
				"method": "rhf"
			},
			{
				"type": "occ",
				"energy": -0.27803,
				"method": "rhf"
			},
			{
				"type": "occ",
				"energy": -0.26549,
				"method": "rhf"
			},
			{
				"type": "unocc",
				"energy": -0.12126,
				"method": "rhf"
			},
			{
				"type": "unocc",
				"energy": -0.04113,
				"method": "rhf"
			},
			{
				"type": "unocc",
				"energy": -0.02517,
				"method": "rhf"
			},
			{
				"type": "unocc",
				"energy": -0.01622,
				"method": "rhf"
			},
			{
				"type": "unocc",
				"energy": 0.00704,
				"method": "rhf"
			}
		],
		"cosmo_sigma_profile": { 
			"-0.025": 0.0,
			"-0.024": 0.0,
			"-0.023": 0.0,
			"-0.022": 0.0,
			"-0.021": 0.0,
			"-0.02": 0.0,
			"-0.019": 0.0,
			"-0.018": 0.0,
			"-0.017": 0.112150280612,
			"-0.016": 1.17440780173,
			"-0.015": 1.50675116006,
			"-0.014": 1.44392315274,
			"-0.013": 1.45697846668,
			"-0.012": 1.17457936395,
			"-0.011": 1.38073029696,
			"-0.01": 2.10169178974,
			"-0.009": 7.62283221467,
			"-0.008": 11.8620413042,
			"-0.007": 10.7047140809,
			"-0.006": 12.8608791164,
			"-0.005": 14.9964856576,
			"-0.004": 17.7418666505,
			"-0.003": 21.1060783605,
			"-0.002": 19.8138795052,
			"-0.001": 16.8546441597,
			"0.0": 12.990813704,
			"0.001": 11.4479073789,
			"0.002": 6.66325440884,
			"0.003": 5.81815877345,
			"0.004": 6.01260761551,
			"0.005": 6.29958281699,
			"0.006": 6.28265476821,
			"0.007": 7.99527452492,
			"0.008": 7.6641673296,
			"0.009": 9.94952463818,
			"0.01": 15.6914604921,
			"0.011": 10.2011240765,
			"0.012": 6.39603917258,
			"0.013": 1.99423823027,
			"0.014": 0.0823621007564,
			"0.015": 0.0,
			"0.016": 0.0,
			"0.017": 0.0,
			"0.018": 0.0,
			"0.019": 0.0,
			"0.02": 0.0,
			"0.021": 0.0,
			"0.022": 0.0,
			"0.023": 0.0,
			"0.024": 0.0,
			"0.025": 0.0
		}
	}
}
