{
	 "smiles": "NC1=C(Cl)C=CC=N1", 
	 "Tm": 334.15, 
	 "num_atms": 13, 
	 "gaussian": { 
		 "optdone": 1, 
		 "sigma_profile": "yes", 
		 "theory": "DFT", 
		 "functional": "B3LYP", 
		 "basiset": "6-31G**", 
		 "properties": { 
			 "R2extent": 2082.2937, 
			 "electric_dipole_moment_norm": 2.3705565528, 
			 "electric_quadrupole_moment_norm": 11.6323033592, 
			 "total_energy": -763.2265712, 
			 "HOMO_LUMO_gap": 0.22409, 
			 "cosmo_polarized_energy": -10.62, 
			 "cosmo_cavitation_energy": 18.85, 
			 "cosmo_dispersion_energy": -14.35, 
			 "cosmo_repulsion_energy": 1.19, 
			 "cosmo_total_nonelectrostatic_energy": 5.69, 
			 "SMD_solvation_energy": 1.52 
		},
		"coords": [
			{
				"x": -1.1882359684,
				"y": 2.7234242164,
				"z": 3.0836784759,
				"element": "N" 
			},
			{
				"x": -0.3998907878,
				"y": 1.9058990796,
				"z": 2.2171776466,
				"element": "C" 
			},
			{
				"x": -0.9584486847,
				"y": 0.9848820666,
				"z": 1.3062111025,
				"element": "C" 
			},
			{
				"x": -2.7035440348,
				"y": 0.7985570235,
				"z": 1.1954825819,
				"element": "Cl" 
			},
			{
				"x": -0.1392023688,
				"y": 0.2147722001,
				"z": 0.4866038404,
				"element": "C" 
			},
			{
				"x": 1.2394559468,
				"y": 0.3827007879,
				"z": 0.5952005377,
				"element": "C" 
			},
			{
				"x": 1.7171716539,
				"y": 1.3117818611,
				"z": 1.5179719118,
				"element": "C" 
			},
			{
				"x": 0.9251840871,
				"y": 2.0492681071,
				"z": 2.3032127731,
				"element": "N" 
			},
			{
				"x": -1.8289033367,
				"y": 3.2930454465,
				"z": 2.53433844,
				"element": "H" 
			},
			{
				"x": -1.77789578,
				"y": 2.1371329333,
				"z": 3.6712674445,
				"element": "H" 
			},
			{
				"x": -0.5738088734,
				"y": -0.4920154495,
				"z": -0.2121733676,
				"element": "H" 
			},
			{
				"x": 1.9219784166,
				"y": -0.1935191818,
				"z": -0.0211871825,
				"element": "H" 
			},
			{
				"x": 2.7871397301,
				"y": 1.4734709093,
				"z": 1.6341157955,
				"element": "H" 
			}
		],
		 "valence_orbital": [ 
			{
				"type": "occ",
				"energy": -0.33076,
				"method": "rhf"
			},
			{
				"type": "occ",
				"energy": -0.29213,
				"method": "rhf"
			},
			{
				"type": "occ",
				"energy": -0.26545,
				"method": "rhf"
			},
			{
				"type": "occ",
				"energy": -0.25847,
				"method": "rhf"
			},
			{
				"type": "occ",
				"energy": -0.25845,
				"method": "rhf"
			},
			{
				"type": "unocc",
				"energy": -0.03436,
				"method": "rhf"
			},
			{
				"type": "unocc",
				"energy": -0.02388,
				"method": "rhf"
			},
			{
				"type": "unocc",
				"energy": 0.02162,
				"method": "rhf"
			},
			{
				"type": "unocc",
				"energy": 0.09032,
				"method": "rhf"
			},
			{
				"type": "unocc",
				"energy": 0.10743,
				"method": "rhf"
			}
		],
		"cosmo_sigma_profile": { 
			"-0.025": 0.0,
			"-0.024": 0.0,
			"-0.023": 0.0,
			"-0.022": 0.0,
			"-0.021": 0.0,
			"-0.02": 0.0,
			"-0.019": 0.0,
			"-0.018": 0.0,
			"-0.017": 0.0,
			"-0.016": 0.0,
			"-0.015": 0.0,
			"-0.014": 0.0,
			"-0.013": 0.0,
			"-0.012": 0.550534252449,
			"-0.011": 2.00448673909,
			"-0.01": 2.46638461943,
			"-0.009": 3.16608578259,
			"-0.008": 5.52974597761,
			"-0.007": 8.31900227639,
			"-0.006": 8.56106200333,
			"-0.005": 8.3102649711,
			"-0.004": 7.83811516311,
			"-0.003": 5.95365618593,
			"-0.002": 8.18965085977,
			"-0.001": 9.44510674195,
			"0.0": 14.1774012737,
			"0.001": 15.986361305,
			"0.002": 14.0146188716,
			"0.003": 8.77309407248,
			"0.004": 8.28865617465,
			"0.005": 2.87193628715,
			"0.006": 1.23269880254,
			"0.007": 1.20052587382,
			"0.008": 1.66710609463,
			"0.009": 1.23674998125,
			"0.01": 1.60760398731,
			"0.011": 1.25288260464,
			"0.012": 0.912944968375,
			"0.013": 1.48676416004,
			"0.014": 1.71305717846,
			"0.015": 0.862984915049,
			"0.016": 1.28322544188,
			"0.017": 1.62866122249,
			"0.018": 1.33341128712,
			"0.019": 1.09077333276,
			"0.02": 0.107175005309,
			"0.021": 0.0,
			"0.022": 0.0,
			"0.023": 0.0,
			"0.024": 0.0,
			"0.025": 0.0
		}
	}
}
