{
	 "smiles": "NS(=O)(=O)CC1=NOC=C1", 
	 "Tm": 380.15, 
	 "num_atms": 16, 
	 "gaussian": { 
		 "optdone": 1, 
		 "sigma_profile": "yes", 
		 "theory": "DFT", 
		 "functional": "B3LYP", 
		 "basiset": "6-31G**", 
		 "properties": { 
			 "R2extent": 2647.6829, 
			 "electric_dipole_moment_norm": 5.48456187038, 
			 "electric_quadrupole_moment_norm": 16.5128338982, 
			 "total_energy": -889.275934338, 
			 "HOMO_LUMO_gap": 0.24906, 
			 "cosmo_polarized_energy": -19.57, 
			 "cosmo_cavitation_energy": 22.15, 
			 "cosmo_dispersion_energy": -16.79, 
			 "cosmo_repulsion_energy": 1.32, 
			 "cosmo_total_nonelectrostatic_energy": 6.68, 
			 "SMD_solvation_energy": 3.92 
		},
		"coords": [
			{
				"x": 1.692207832,
				"y": 2.8389834679,
				"z": -0.7386444008,
				"element": "N" 
			},
			{
				"x": 2.651013158,
				"y": 1.5345926711,
				"z": -1.2610996711,
				"element": "S" 
			},
			{
				"x": 4.0128604681,
				"y": 1.7657651785,
				"z": -0.7733493011,
				"element": "O" 
			},
			{
				"x": 2.3527781423,
				"y": 1.3029741504,
				"z": -2.6741305395,
				"element": "O" 
			},
			{
				"x": 1.9862065505,
				"y": 0.1480365466,
				"z": -0.2801003158,
				"element": "C" 
			},
			{
				"x": 0.5662863243,
				"y": -0.2002909341,
				"z": -0.5784434512,
				"element": "C" 
			},
			{
				"x": 0.3070164273,
				"y": -1.3439073157,
				"z": -1.1780325606,
				"element": "N" 
			},
			{
				"x": -1.0760085072,
				"y": -1.3964872326,
				"z": -1.300556239,
				"element": "O" 
			},
			{
				"x": -1.6072172693,
				"y": -0.2786402422,
				"z": -0.7702031926,
				"element": "C" 
			},
			{
				"x": -0.6266096257,
				"y": 0.5286068137,
				"z": -0.288547698,
				"element": "C" 
			},
			{
				"x": 2.295625168,
				"y": 3.5335029821,
				"z": -0.3042711968,
				"element": "H" 
			},
			{
				"x": 1.2086036524,
				"y": 3.232101727,
				"z": -1.5425451682,
				"element": "H" 
			},
			{
				"x": 2.1370921973,
				"y": 0.4332292502,
				"z": 0.7638004848,
				"element": "H" 
			},
			{
				"x": 2.6393618116,
				"y": -0.6941487543,
				"z": -0.52091243,
				"element": "H" 
			},
			{
				"x": -2.6842974821,
				"y": -0.2038102916,
				"z": -0.8076723735,
				"element": "H" 
			},
			{
				"x": -0.7142188477,
				"y": 1.4908919829,
				"z": 0.1893080535,
				"element": "H" 
			}
		],
		 "valence_orbital": [ 
			{
				"type": "occ",
				"energy": -0.31888,
				"method": "rhf"
			},
			{
				"type": "occ",
				"energy": -0.31363,
				"method": "rhf"
			},
			{
				"type": "occ",
				"energy": -0.30939,
				"method": "rhf"
			},
			{
				"type": "occ",
				"energy": -0.29243,
				"method": "rhf"
			},
			{
				"type": "occ",
				"energy": -0.27803,
				"method": "rhf"
			},
			{
				"type": "unocc",
				"energy": -0.02897,
				"method": "rhf"
			},
			{
				"type": "unocc",
				"energy": 0.0208,
				"method": "rhf"
			},
			{
				"type": "unocc",
				"energy": 0.05105,
				"method": "rhf"
			},
			{
				"type": "unocc",
				"energy": 0.07231,
				"method": "rhf"
			},
			{
				"type": "unocc",
				"energy": 0.07985,
				"method": "rhf"
			}
		],
		"cosmo_sigma_profile": { 
			"-0.025": 0.0,
			"-0.024": 0.0,
			"-0.023": 0.0,
			"-0.022": 0.0,
			"-0.021": 0.0,
			"-0.02": 0.0,
			"-0.019": 0.0,
			"-0.018": 0.0,
			"-0.017": 0.0,
			"-0.016": 0.0,
			"-0.015": 1.5426773922,
			"-0.014": 2.17217047428,
			"-0.013": 2.67215834305,
			"-0.012": 3.08985256273,
			"-0.011": 4.01061687146,
			"-0.01": 5.15641404819,
			"-0.009": 7.29024621886,
			"-0.008": 6.72014439949,
			"-0.007": 7.87590926144,
			"-0.006": 8.66259165734,
			"-0.005": 8.24534669612,
			"-0.004": 7.01773877627,
			"-0.003": 5.82117754058,
			"-0.002": 7.1373152059,
			"-0.001": 7.56280669425,
			"0.0": 9.36350311082,
			"0.001": 8.9726984269,
			"0.002": 6.84063109859,
			"0.003": 4.21613038351,
			"0.004": 4.88413312756,
			"0.005": 5.71592153479,
			"0.006": 6.07333193957,
			"0.007": 8.56738951593,
			"0.008": 5.10298322187,
			"0.009": 5.64479745558,
			"0.01": 10.5641653277,
			"0.011": 11.9272892642,
			"0.012": 2.63238891838,
			"0.013": 0.976470936536,
			"0.014": 0.211930003909,
			"0.015": 0.0,
			"0.016": 0.0,
			"0.017": 0.0,
			"0.018": 0.0,
			"0.019": 0.0,
			"0.02": 0.0,
			"0.021": 0.0,
			"0.022": 0.0,
			"0.023": 0.0,
			"0.024": 0.0,
			"0.025": 0.0
		}
	}
}
