{
	 "smiles": "O=C1NC2=C(C=C(C=C2)C2=CC=CC=C2)C1=O", 
	 "Tm": 488.15, 
	 "num_atms": 26, 
	 "gaussian": { 
		 "optdone": 1, 
		 "sigma_profile": "yes", 
		 "theory": "DFT", 
		 "functional": "B3LYP", 
		 "basiset": "6-31G**", 
		 "properties": { 
			 "R2extent": 6907.6359, 
			 "electric_dipole_moment_norm": 5.99140644256, 
			 "electric_quadrupole_moment_norm": 36.8972636603, 
			 "total_energy": -744.121394357, 
			 "HOMO_LUMO_gap": 0.12809, 
			 "cosmo_polarized_energy": -16.76, 
			 "cosmo_cavitation_energy": 31.5, 
			 "cosmo_dispersion_energy": -22.97, 
			 "cosmo_repulsion_energy": 1.75, 
			 "cosmo_total_nonelectrostatic_energy": 10.28, 
			 "SMD_solvation_energy": 6.43 
		},
		"coords": [
			{
				"x": -4.9078831748,
				"y": 2.3526304406,
				"z": 4.4918194559,
				"element": "O" 
			},
			{
				"x": -4.3030625106,
				"y": 1.9712559714,
				"z": 3.5162719279,
				"element": "C" 
			},
			{
				"x": -4.8405356724,
				"y": 1.4735382267,
				"z": 2.3377282362,
				"element": "N" 
			},
			{
				"x": -3.8477259341,
				"y": 1.1213971702,
				"z": 1.4126630863,
				"element": "C" 
			},
			{
				"x": -2.5688305312,
				"y": 1.3792961846,
				"z": 1.9438351685,
				"element": "C" 
			},
			{
				"x": -1.4190009376,
				"y": 1.1080376364,
				"z": 1.2122923873,
				"element": "C" 
			},
			{
				"x": -1.5289627109,
				"y": 0.5704777481,
				"z": -0.0822444386,
				"element": "C" 
			},
			{
				"x": -2.8211937021,
				"y": 0.3259215363,
				"z": -0.5896332426,
				"element": "C" 
			},
			{
				"x": -3.9874077393,
				"y": 0.5898583693,
				"z": 0.1372323722,
				"element": "C" 
			},
			{
				"x": -0.3216364473,
				"y": 0.2700667166,
				"z": -0.8931634655,
				"element": "C" 
			},
			{
				"x": 0.7976946051,
				"y": 1.1191290263,
				"z": -0.8578568981,
				"element": "C" 
			},
			{
				"x": 1.9333306639,
				"y": 0.8376193191,
				"z": -1.6157888666,
				"element": "C" 
			},
			{
				"x": 1.9733240222,
				"y": -0.296849573,
				"z": -2.4285814349,
				"element": "C" 
			},
			{
				"x": 0.8683973342,
				"y": -1.1489729017,
				"z": -2.4743926667,
				"element": "C" 
			},
			{
				"x": -0.2658177113,
				"y": -0.8697675769,
				"z": -1.7133233753,
				"element": "C" 
			},
			{
				"x": -2.7472394197,
				"y": 1.9268888434,
				"z": 3.2990129673,
				"element": "C" 
			},
			{
				"x": -1.9302688155,
				"y": 2.2858476216,
				"z": 4.1181985401,
				"element": "O" 
			},
			{
				"x": -5.8344202084,
				"y": 1.3788603742,
				"z": 2.1880841781,
				"element": "H" 
			},
			{
				"x": -0.44741493,
				"y": 1.2947829161,
				"z": 1.6591592064,
				"element": "H" 
			},
			{
				"x": -2.9189020125,
				"y": -0.0652517261,
				"z": -1.5978318551,
				"element": "H" 
			},
			{
				"x": -4.9641292017,
				"y": 0.3930991155,
				"z": -0.2938091191,
				"element": "H" 
			},
			{
				"x": 0.7678416096,
				"y": 2.0192316077,
				"z": -0.2506884374,
				"element": "H" 
			},
			{
				"x": 2.7846103482,
				"y": 1.5112678708,
				"z": -1.5780784553,
				"element": "H" 
			},
			{
				"x": 2.8576502176,
				"y": -0.5153928113,
				"z": -3.0198436575,
				"element": "H" 
			},
			{
				"x": 0.8927351199,
				"y": -2.0398139172,
				"z": -3.0955656938,
				"element": "H" 
			},
			{
				"x": -1.1068522611,
				"y": -1.5569581887,
				"z": -1.7333959195,
				"element": "H" 
			}
		],
		 "valence_orbital": [ 
			{
				"type": "occ",
				"energy": -0.27926,
				"method": "rhf"
			},
			{
				"type": "occ",
				"energy": -0.26948,
				"method": "rhf"
			},
			{
				"type": "occ",
				"energy": -0.25913,
				"method": "rhf"
			},
			{
				"type": "occ",
				"energy": -0.24679,
				"method": "rhf"
			},
			{
				"type": "occ",
				"energy": -0.22562,
				"method": "rhf"
			},
			{
				"type": "unocc",
				"energy": -0.09753,
				"method": "rhf"
			},
			{
				"type": "unocc",
				"energy": -0.03752,
				"method": "rhf"
			},
			{
				"type": "unocc",
				"energy": -0.01309,
				"method": "rhf"
			},
			{
				"type": "unocc",
				"energy": -0.0098,
				"method": "rhf"
			},
			{
				"type": "unocc",
				"energy": 0.02741,
				"method": "rhf"
			}
		],
		"cosmo_sigma_profile": { 
			"-0.025": 0.0,
			"-0.024": 0.0,
			"-0.023": 0.0,
			"-0.022": 0.0,
			"-0.021": 0.0,
			"-0.02": 0.0,
			"-0.019": 0.0,
			"-0.018": 0.0,
			"-0.017": 0.49928297024,
			"-0.016": 1.47188324416,
			"-0.015": 1.37680053138,
			"-0.014": 1.05394880089,
			"-0.013": 1.39189816949,
			"-0.012": 1.03689441275,
			"-0.011": 0.866796736527,
			"-0.01": 1.38729673752,
			"-0.009": 1.80292604747,
			"-0.008": 2.73814340797,
			"-0.007": 6.69666594906,
			"-0.006": 15.4575191966,
			"-0.005": 20.0009697567,
			"-0.004": 17.513142182,
			"-0.003": 17.95015737,
			"-0.002": 14.0138076108,
			"-0.001": 17.3344115494,
			"0.0": 16.9721300123,
			"0.001": 17.1754373279,
			"0.002": 21.3221872388,
			"0.003": 13.9250015319,
			"0.004": 11.1273463415,
			"0.005": 12.2918746725,
			"0.006": 6.27288124959,
			"0.007": 2.81404931579,
			"0.008": 3.6829752019,
			"0.009": 4.94963752268,
			"0.01": 7.74004998093,
			"0.011": 9.18449607556,
			"0.012": 3.74944571916,
			"0.013": 0.240693762538,
			"0.014": 0.0,
			"0.015": 0.0,
			"0.016": 0.0,
			"0.017": 0.0,
			"0.018": 0.0,
			"0.019": 0.0,
			"0.02": 0.0,
			"0.021": 0.0,
			"0.022": 0.0,
			"0.023": 0.0,
			"0.024": 0.0,
			"0.025": 0.0
		}
	}
}
