{
	 "smiles": "COC1=CC=C(C=C1)C1=C(SC(SC)=C1C#N)C(O)=O", 
	 "Tm": 485.15, 
	 "num_atms": 31, 
	 "gaussian": { 
		 "optdone": 1, 
		 "sigma_profile": "yes", 
		 "theory": "DFT", 
		 "functional": "B3LYP", 
		 "basiset": "6-31G**", 
		 "properties": { 
			 "R2extent": 8533.8693, 
			 "electric_dipole_moment_norm": 3.41908488926, 
			 "electric_quadrupole_moment_norm": 16.4661203217, 
			 "total_energy": -1616.89057142, 
			 "HOMO_LUMO_gap": 0.14434, 
			 "cosmo_polarized_energy": -16.81, 
			 "cosmo_cavitation_energy": 39.94, 
			 "cosmo_dispersion_energy": -28.24, 
			 "cosmo_repulsion_energy": 2.11, 
			 "cosmo_total_nonelectrostatic_energy": 13.81, 
			 "SMD_solvation_energy": 9.38 
		},
		"coords": [
			{
				"x": -0.8621441791,
				"y": 4.9248727051,
				"z": -0.7156456063,
				"element": "C" 
			},
			{
				"x": 0.2603817094,
				"y": 4.1127654038,
				"z": -1.0288549021,
				"element": "O" 
			},
			{
				"x": 0.3311948887,
				"y": 2.868409673,
				"z": -0.4826709202,
				"element": "C" 
			},
			{
				"x": 1.4505902758,
				"y": 2.1042863226,
				"z": -0.8509388801,
				"element": "C" 
			},
			{
				"x": 1.6180902128,
				"y": 0.8243127349,
				"z": -0.3483869637,
				"element": "C" 
			},
			{
				"x": 0.6749853952,
				"y": 0.2631138283,
				"z": 0.53244315,
				"element": "C" 
			},
			{
				"x": -0.4420038887,
				"y": 1.0317354124,
				"z": 0.8824905438,
				"element": "C" 
			},
			{
				"x": -0.6179165356,
				"y": 2.3259539071,
				"z": 0.3917396184,
				"element": "C" 
			},
			{
				"x": 0.8197602381,
				"y": -1.1227487954,
				"z": 1.0341650611,
				"element": "C" 
			},
			{
				"x": 1.9193095819,
				"y": -1.6771015969,
				"z": 1.6727901533,
				"element": "C" 
			},
			{
				"x": 1.6874746179,
				"y": -3.3659674018,
				"z": 2.0582348694,
				"element": "S" 
			},
			{
				"x": 0.1133312128,
				"y": -3.3703212761,
				"z": 1.350439569,
				"element": "C" 
			},
			{
				"x": -0.7802516693,
				"y": -4.8886606558,
				"z": 1.2612225029,
				"element": "S" 
			},
			{
				"x": -2.3897158493,
				"y": -4.4472573425,
				"z": 2.0264197801,
				"element": "C" 
			},
			{
				"x": -0.2136801689,
				"y": -2.11332435,
				"z": 0.8500464841,
				"element": "C" 
			},
			{
				"x": -1.4365461745,
				"y": -1.8641902905,
				"z": 0.1604873684,
				"element": "C" 
			},
			{
				"x": -2.4493946939,
				"y": -1.6933408529,
				"z": -0.3876570205,
				"element": "N" 
			},
			{
				"x": 3.1899372208,
				"y": -1.1165447054,
				"z": 2.1590257136,
				"element": "C" 
			},
			{
				"x": 3.3155658902,
				"y": 0.2177906822,
				"z": 2.0003795304,
				"element": "O" 
			},
			{
				"x": 4.051742933,
				"y": -1.7974523557,
				"z": 2.6869911364,
				"element": "O" 
			},
			{
				"x": -1.8008690935,
				"y": 4.457221447,
				"z": -1.0379696896,
				"element": "H" 
			},
			{
				"x": -0.9176626597,
				"y": 5.1404198784,
				"z": 0.3589578731,
				"element": "H" 
			},
			{
				"x": -0.7191543023,
				"y": 5.8582533219,
				"z": -1.2617838699,
				"element": "H" 
			},
			{
				"x": 2.1693859881,
				"y": 2.5373632845,
				"z": -1.5385036887,
				"element": "H" 
			},
			{
				"x": 2.4835751111,
				"y": 0.2426924581,
				"z": -0.6467311044,
				"element": "H" 
			},
			{
				"x": -1.1862476552,
				"y": 0.623869343,
				"z": 1.5593553603,
				"element": "H" 
			},
			{
				"x": -1.4915817314,
				"y": 2.8913708384,
				"z": 0.6919437895,
				"element": "H" 
			},
			{
				"x": -2.9559345877,
				"y": -5.3809935615,
				"z": 2.0523761296,
				"element": "H" 
			},
			{
				"x": -2.9272465677,
				"y": -3.7143159811,
				"z": 1.4252055624,
				"element": "H" 
			},
			{
				"x": -2.2409514348,
				"y": -4.0856205275,
				"z": 3.0449884161,
				"element": "H" 
			},
			{
				"x": 4.1799759158,
				"y": 0.445508452,
				"z": 2.3823400334,
				"element": "H" 
			}
		],
		 "valence_orbital": [ 
			{
				"type": "occ",
				"energy": -0.28397,
				"method": "rhf"
			},
			{
				"type": "occ",
				"energy": -0.2724,
				"method": "rhf"
			},
			{
				"type": "occ",
				"energy": -0.25896,
				"method": "rhf"
			},
			{
				"type": "occ",
				"energy": -0.24082,
				"method": "rhf"
			},
			{
				"type": "occ",
				"energy": -0.22249,
				"method": "rhf"
			},
			{
				"type": "unocc",
				"energy": -0.07815,
				"method": "rhf"
			},
			{
				"type": "unocc",
				"energy": -0.04065,
				"method": "rhf"
			},
			{
				"type": "unocc",
				"energy": -0.01321,
				"method": "rhf"
			},
			{
				"type": "unocc",
				"energy": -4e-05,
				"method": "rhf"
			},
			{
				"type": "unocc",
				"energy": 0.00745,
				"method": "rhf"
			}
		],
		"cosmo_sigma_profile": { 
			"-0.025": 0.0,
			"-0.024": 0.0,
			"-0.023": 0.0,
			"-0.022": 0.0,
			"-0.021": 0.0,
			"-0.02": 0.0,
			"-0.019": 0.332469704749,
			"-0.018": 1.20616811653,
			"-0.017": 0.551188438553,
			"-0.016": 0.900224553419,
			"-0.015": 0.927018121705,
			"-0.014": 0.768817146821,
			"-0.013": 0.197116026193,
			"-0.012": 0.627622234837,
			"-0.011": 1.00998611752,
			"-0.01": 0.463038120587,
			"-0.009": 0.676767670272,
			"-0.008": 2.46712687933,
			"-0.007": 7.46860063364,
			"-0.006": 17.972673924,
			"-0.005": 22.806306143,
			"-0.004": 24.4807278438,
			"-0.003": 28.933121801,
			"-0.002": 29.9837411227,
			"-0.001": 25.7187341848,
			"0.0": 20.0856430982,
			"0.001": 20.9965576802,
			"0.002": 17.8519680325,
			"0.003": 18.4833915521,
			"0.004": 17.0413442903,
			"0.005": 14.1082712146,
			"0.006": 9.53282032976,
			"0.007": 7.36537285481,
			"0.008": 6.7397036652,
			"0.009": 6.70144901354,
			"0.01": 6.85382713157,
			"0.011": 7.04703876172,
			"0.012": 3.5949931221,
			"0.013": 0.544730555992,
			"0.014": 0.0,
			"0.015": 0.0,
			"0.016": 0.0,
			"0.017": 0.0,
			"0.018": 0.0,
			"0.019": 0.0,
			"0.02": 0.0,
			"0.021": 0.0,
			"0.022": 0.0,
			"0.023": 0.0,
			"0.024": 0.0,
			"0.025": 0.0
		}
	}
}
