{
	 "smiles": "ClCC(=O)C1=CC2=C(CC3=C2C=CC=C3)C=C1", 
	 "Tm": 407.15, 
	 "num_atms": 28, 
	 "gaussian": { 
		 "optdone": 1, 
		 "sigma_profile": "yes", 
		 "theory": "DFT", 
		 "functional": "B3LYP", 
		 "basiset": "6-31G**", 
		 "properties": { 
			 "R2extent": 5703.9016, 
			 "electric_dipole_moment_norm": 3.73470459474, 
			 "electric_quadrupole_moment_norm": 16.0744789175, 
			 "total_energy": -1113.65845557, 
			 "HOMO_LUMO_gap": 0.15533, 
			 "cosmo_polarized_energy": -10.44, 
			 "cosmo_cavitation_energy": 33.68, 
			 "cosmo_dispersion_energy": -24.38, 
			 "cosmo_repulsion_energy": 1.87, 
			 "cosmo_total_nonelectrostatic_energy": 11.17, 
			 "SMD_solvation_energy": 5.18 
		},
		"coords": [
			{
				"x": 0.6521392276,
				"y": -3.0436629443,
				"z": 3.2613589607,
				"element": "Cl" 
			},
			{
				"x": 0.5286905911,
				"y": -3.7785879945,
				"z": 1.6048404482,
				"element": "C" 
			},
			{
				"x": -0.8580396548,
				"y": -3.5693235343,
				"z": 0.9853910992,
				"element": "C" 
			},
			{
				"x": -1.5749203792,
				"y": -4.547690625,
				"z": 0.8447840296,
				"element": "O" 
			},
			{
				"x": -1.2765436059,
				"y": -2.2110769525,
				"z": 0.5363209528,
				"element": "C" 
			},
			{
				"x": -0.438847597,
				"y": -1.0872328943,
				"z": 0.6305886589,
				"element": "C" 
			},
			{
				"x": -0.8966795033,
				"y": 0.1422998075,
				"z": 0.1601016266,
				"element": "C" 
			},
			{
				"x": -2.1852446112,
				"y": 0.2576257966,
				"z": -0.4040097242,
				"element": "C" 
			},
			{
				"x": -2.4353068852,
				"y": 1.6872469909,
				"z": -0.8339983374,
				"element": "C" 
			},
			{
				"x": -1.1442523389,
				"y": 2.3843203956,
				"z": -0.4538946059,
				"element": "C" 
			},
			{
				"x": -0.2510232157,
				"y": 1.4623960206,
				"z": 0.1306696366,
				"element": "C" 
			},
			{
				"x": 1.0100577013,
				"y": 1.8751642114,
				"z": 0.5667410515,
				"element": "C" 
			},
			{
				"x": 1.36952831,
				"y": 3.2153572675,
				"z": 0.4118974535,
				"element": "C" 
			},
			{
				"x": 0.4833707607,
				"y": 4.1296364772,
				"z": -0.169332537,
				"element": "C" 
			},
			{
				"x": -0.7808091126,
				"y": 3.7179257084,
				"z": -0.6057422802,
				"element": "C" 
			},
			{
				"x": -3.0186162093,
				"y": -0.8541263575,
				"z": -0.4965952985,
				"element": "C" 
			},
			{
				"x": -2.5605319645,
				"y": -2.0832743628,
				"z": -0.0270294056,
				"element": "C" 
			},
			{
				"x": 1.3237848027,
				"y": -3.338129764,
				"z": 1.0003665857,
				"element": "H" 
			},
			{
				"x": 0.685662244,
				"y": -4.8495540842,
				"z": 1.7169432518,
				"element": "H" 
			},
			{
				"x": 0.5461612964,
				"y": -1.1646825573,
				"z": 1.0781402071,
				"element": "H" 
			},
			{
				"x": -2.6439083713,
				"y": 1.7576843201,
				"z": -1.9099949832,
				"element": "H" 
			},
			{
				"x": -3.3055282557,
				"y": 2.119016389,
				"z": -0.3216727535,
				"element": "H" 
			},
			{
				"x": 1.7019419972,
				"y": 1.1712218686,
				"z": 1.0209387287,
				"element": "H" 
			},
			{
				"x": 2.3463788883,
				"y": 3.5523250323,
				"z": 0.7464930783,
				"element": "H" 
			},
			{
				"x": 0.7796108392,
				"y": 5.1685233781,
				"z": -0.2817848586,
				"element": "H" 
			},
			{
				"x": -1.4644441764,
				"y": 4.4335768484,
				"z": -1.0552191821,
				"element": "H" 
			},
			{
				"x": -4.0122941883,
				"y": -0.7709231883,
				"z": -0.9286373832,
				"element": "H" 
			},
			{
				"x": -3.1798365892,
				"y": -2.9715552532,
				"z": -0.0865644198,
				"element": "H" 
			}
		],
		 "valence_orbital": [ 
			{
				"type": "occ",
				"energy": -0.29005,
				"method": "rhf"
			},
			{
				"type": "occ",
				"energy": -0.26281,
				"method": "rhf"
			},
			{
				"type": "occ",
				"energy": -0.25843,
				"method": "rhf"
			},
			{
				"type": "occ",
				"energy": -0.25144,
				"method": "rhf"
			},
			{
				"type": "occ",
				"energy": -0.22515,
				"method": "rhf"
			},
			{
				"type": "unocc",
				"energy": -0.06982,
				"method": "rhf"
			},
			{
				"type": "unocc",
				"energy": -0.03906,
				"method": "rhf"
			},
			{
				"type": "unocc",
				"energy": -0.01186,
				"method": "rhf"
			},
			{
				"type": "unocc",
				"energy": 0.00446,
				"method": "rhf"
			},
			{
				"type": "unocc",
				"energy": 0.02882,
				"method": "rhf"
			}
		],
		"cosmo_sigma_profile": { 
			"-0.025": 0.0,
			"-0.024": 0.0,
			"-0.023": 0.0,
			"-0.022": 0.0,
			"-0.021": 0.0,
			"-0.02": 0.0,
			"-0.019": 0.0,
			"-0.018": 0.0,
			"-0.017": 0.0,
			"-0.016": 0.0,
			"-0.015": 0.0,
			"-0.014": 0.0,
			"-0.013": 0.0,
			"-0.012": 0.0,
			"-0.011": 0.0,
			"-0.01": 0.0158425691641,
			"-0.009": 2.9980786699,
			"-0.008": 4.80366067771,
			"-0.007": 6.23781073974,
			"-0.006": 16.3495087571,
			"-0.005": 20.877994651,
			"-0.004": 22.1108778026,
			"-0.003": 21.5503404464,
			"-0.002": 14.7830358227,
			"-0.001": 15.2820249437,
			"0.0": 16.2127300669,
			"0.001": 19.8247045933,
			"0.002": 21.4534573601,
			"0.003": 26.8356774618,
			"0.004": 22.1669987834,
			"0.005": 17.6071596655,
			"0.006": 10.0502189176,
			"0.007": 1.55880868725,
			"0.008": 1.59568718998,
			"0.009": 2.02036767529,
			"0.01": 2.5859127401,
			"0.011": 4.05088839995,
			"0.012": 1.26098350385,
			"0.013": 0.0,
			"0.014": 0.0,
			"0.015": 0.0,
			"0.016": 0.0,
			"0.017": 0.0,
			"0.018": 0.0,
			"0.019": 0.0,
			"0.02": 0.0,
			"0.021": 0.0,
			"0.022": 0.0,
			"0.023": 0.0,
			"0.024": 0.0,
			"0.025": 0.0
		}
	}
}
