{
	 "smiles": "OC1=CC2=C(C=C1)C=C(Br)C=C2", 
	 "Tm": 400.65, 
	 "num_atms": 19, 
	 "gaussian": { 
		 "optdone": 1, 
		 "sigma_profile": "yes", 
		 "theory": "DFT", 
		 "functional": "B3LYP", 
		 "basiset": "6-31G**", 
		 "properties": { 
			 "R2extent": 4934.175, 
			 "electric_dipole_moment_norm": 2.55841662948, 
			 "electric_quadrupole_moment_norm": 11.027032565, 
			 "total_energy": -3031.91882632, 
			 "HOMO_LUMO_gap": 0.16648, 
			 "cosmo_polarized_energy": -9.38, 
			 "cosmo_cavitation_energy": 25.48, 
			 "cosmo_dispersion_energy": -19.52, 
			 "cosmo_repulsion_energy": 1.53, 
			 "cosmo_total_nonelectrostatic_energy": 7.49, 
			 "SMD_solvation_energy": 3.26 
		},
		"coords": [
			{
				"x": -1.9319564231,
				"y": -1.5465698867,
				"z": -2.5744904029,
				"element": "O" 
			},
			{
				"x": -1.0186451592,
				"y": -0.8756944765,
				"z": -1.8147282152,
				"element": "C" 
			},
			{
				"x": -0.9890965361,
				"y": 0.4984253933,
				"z": -1.693541643,
				"element": "C" 
			},
			{
				"x": -0.0086237263,
				"y": 1.1291300359,
				"z": -0.8842697209,
				"element": "C" 
			},
			{
				"x": 0.9528380727,
				"y": 0.3233168152,
				"z": -0.1924386056,
				"element": "C" 
			},
			{
				"x": 0.8894383833,
				"y": -1.0900474809,
				"z": -0.3428391273,
				"element": "C" 
			},
			{
				"x": -0.0676772888,
				"y": -1.6788145002,
				"z": -1.1309156965,
				"element": "C" 
			},
			{
				"x": 1.9352713973,
				"y": 0.9495525207,
				"z": 0.6180486445,
				"element": "C" 
			},
			{
				"x": 1.9575695481,
				"y": 2.3190676291,
				"z": 0.7332258871,
				"element": "C" 
			},
			{
				"x": 3.2819452329,
				"y": 3.1636682567,
				"z": 1.8257456,
				"element": "Br" 
			},
			{
				"x": 1.0172539561,
				"y": 3.1306527327,
				"z": 0.0582649917,
				"element": "C" 
			},
			{
				"x": 0.0571280954,
				"y": 2.5404233292,
				"z": -0.7322316259,
				"element": "C" 
			},
			{
				"x": -2.5268513988,
				"y": -0.910144303,
				"z": -2.9925803425,
				"element": "H" 
			},
			{
				"x": -1.7182344959,
				"y": 1.1132676115,
				"z": -2.2179684936,
				"element": "H" 
			},
			{
				"x": 1.6162669249,
				"y": -1.7060059832,
				"z": 0.1796707827,
				"element": "H" 
			},
			{
				"x": -0.1227468348,
				"y": -2.7556767432,
				"z": -1.2507733562,
				"element": "H" 
			},
			{
				"x": 2.6635913661,
				"y": 0.3397816578,
				"z": 1.1421995305,
				"element": "H" 
			},
			{
				"x": 1.0607294932,
				"y": 4.208089195,
				"z": 0.1690437655,
				"element": "H" 
			},
			{
				"x": -0.6675006072,
				"y": 3.1610781964,
				"z": -1.2527219723,
				"element": "H" 
			}
		],
		 "valence_orbital": [ 
			{
				"type": "occ",
				"energy": -0.30071,
				"method": "rhf"
			},
			{
				"type": "occ",
				"energy": -0.28387,
				"method": "rhf"
			},
			{
				"type": "occ",
				"energy": -0.27237,
				"method": "rhf"
			},
			{
				"type": "occ",
				"energy": -0.23947,
				"method": "rhf"
			},
			{
				"type": "occ",
				"energy": -0.2117,
				"method": "rhf"
			},
			{
				"type": "unocc",
				"energy": -0.04522,
				"method": "rhf"
			},
			{
				"type": "unocc",
				"energy": -0.01182,
				"method": "rhf"
			},
			{
				"type": "unocc",
				"energy": 0.01041,
				"method": "rhf"
			},
			{
				"type": "unocc",
				"energy": 0.02404,
				"method": "rhf"
			},
			{
				"type": "unocc",
				"energy": 0.06393,
				"method": "rhf"
			}
		],
		"cosmo_sigma_profile": { 
			"-0.025": 0.0,
			"-0.024": 0.0,
			"-0.023": 0.0,
			"-0.022": 0.0,
			"-0.021": 0.0,
			"-0.02": 0.0,
			"-0.019": 0.0,
			"-0.018": 0.528420812625,
			"-0.017": 1.13294095157,
			"-0.016": 1.37052746691,
			"-0.015": 0.876857016527,
			"-0.014": 1.21371340013,
			"-0.013": 0.689273996399,
			"-0.012": 0.500777022395,
			"-0.011": 0.9389113755,
			"-0.01": 1.33188952843,
			"-0.009": 1.56649835984,
			"-0.008": 0.811935668584,
			"-0.007": 7.45014119591,
			"-0.006": 12.8484753426,
			"-0.005": 9.129925959,
			"-0.004": 11.4527102349,
			"-0.003": 9.41296326577,
			"-0.002": 9.100418606,
			"-0.001": 9.4844951129,
			"0.0": 10.8091204439,
			"0.001": 13.1355851783,
			"0.002": 18.8323997157,
			"0.003": 34.4702977663,
			"0.004": 28.7691751168,
			"0.005": 12.2666903975,
			"0.006": 1.85334024917,
			"0.007": 1.80072327711,
			"0.008": 1.1005391432,
			"0.009": 1.04197037256,
			"0.01": 1.89857784575,
			"0.011": 1.83954456663,
			"0.012": 0.116989478067,
			"0.013": 0.0,
			"0.014": 0.0,
			"0.015": 0.0,
			"0.016": 0.0,
			"0.017": 0.0,
			"0.018": 0.0,
			"0.019": 0.0,
			"0.02": 0.0,
			"0.021": 0.0,
			"0.022": 0.0,
			"0.023": 0.0,
			"0.024": 0.0,
			"0.025": 0.0
		}
	}
}
