{
	 "smiles": "CCOC(=O)C1=C(NC(=S)NCC2=CC=CC=C2)SC2=C1CCN(CC1=CC=CC=C1)C2", 
	 "Tm": 409.15, 
	 "num_atms": 59, 
	 "gaussian": { 
		 "optdone": 1, 
		 "sigma_profile": "yes", 
		 "theory": "DFT", 
		 "functional": "B3LYP", 
		 "basiset": "6-31G**", 
		 "properties": { 
			 "R2extent": 22894.9259, 
			 "electric_dipole_moment_norm": 3.858889554, 
			 "electric_quadrupole_moment_norm": 29.7186236155, 
			 "total_energy": -2080.03140372, 
			 "HOMO_LUMO_gap": 0.14989, 
			 "cosmo_polarized_energy": -19.72, 
			 "cosmo_cavitation_energy": 63.98, 
			 "cosmo_dispersion_energy": -44.21, 
			 "cosmo_repulsion_energy": 3.27, 
			 "cosmo_total_nonelectrostatic_energy": 23.04, 
			 "SMD_solvation_energy": 6.64 
		},
		"coords": [
			{
				"x": -4.2316592687,
				"y": 1.7941427222,
				"z": -4.263526071,
				"element": "C" 
			},
			{
				"x": -4.3181008949,
				"y": 2.5776745548,
				"z": -2.9633523095,
				"element": "C" 
			},
			{
				"x": -3.4920637363,
				"y": 1.9791143768,
				"z": -1.9306372593,
				"element": "O" 
			},
			{
				"x": -2.1738914269,
				"y": 2.3322022313,
				"z": -1.9114366811,
				"element": "C" 
			},
			{
				"x": -1.7044935324,
				"y": 3.1399109554,
				"z": -2.6922035382,
				"element": "O" 
			},
			{
				"x": -1.4112033909,
				"y": 1.6526456112,
				"z": -0.8493157385,
				"element": "C" 
			},
			{
				"x": -1.860041228,
				"y": 0.5857498639,
				"z": -0.0738603703,
				"element": "C" 
			},
			{
				"x": -3.127266493,
				"y": 0.0309381418,
				"z": -0.1063359353,
				"element": "N" 
			},
			{
				"x": -3.6308818498,
				"y": -1.1788762928,
				"z": 0.3332594925,
				"element": "C" 
			},
			{
				"x": -5.3016053819,
				"y": -1.3980752857,
				"z": 0.3172564948,
				"element": "S" 
			},
			{
				"x": -2.7264868401,
				"y": -2.0984719201,
				"z": 0.7432630544,
				"element": "N" 
			},
			{
				"x": -3.05379315,
				"y": -3.4254030225,
				"z": 1.2694630508,
				"element": "C" 
			},
			{
				"x": -2.6972929626,
				"y": -4.5436668316,
				"z": 0.3095245865,
				"element": "C" 
			},
			{
				"x": -1.69730709,
				"y": -5.4669494035,
				"z": 0.6329285759,
				"element": "C" 
			},
			{
				"x": -1.3682906767,
				"y": -6.4997101227,
				"z": -0.2486965203,
				"element": "C" 
			},
			{
				"x": -2.0369228792,
				"y": -6.6145191218,
				"z": -1.4671427487,
				"element": "C" 
			},
			{
				"x": -3.0371446791,
				"y": -5.6955398095,
				"z": -1.798766165,
				"element": "C" 
			},
			{
				"x": -3.3670921961,
				"y": -4.6675736249,
				"z": -0.9173220463,
				"element": "C" 
			},
			{
				"x": -0.6342484399,
				"y": 0.0949414723,
				"z": 1.0854881829,
				"element": "S" 
			},
			{
				"x": 0.4863347714,
				"y": 1.2952768814,
				"z": 0.4807417108,
				"element": "C" 
			},
			{
				"x": -0.057690735,
				"y": 2.0471048821,
				"z": -0.5135000751,
				"element": "C" 
			},
			{
				"x": 0.7556139926,
				"y": 3.1480082277,
				"z": -1.1455894637,
				"element": "C" 
			},
			{
				"x": 1.9729107643,
				"y": 3.4850940802,
				"z": -0.2734797134,
				"element": "C" 
			},
			{
				"x": 2.6753249036,
				"y": 2.26338459,
				"z": 0.1254822232,
				"element": "N" 
			},
			{
				"x": 4.0574253931,
				"y": 2.4606145005,
				"z": 0.5838752354,
				"element": "C" 
			},
			{
				"x": 4.2532935854,
				"y": 3.240980086,
				"z": 1.8783635752,
				"element": "C" 
			},
			{
				"x": 4.3360609732,
				"y": 2.5785709219,
				"z": 3.1114707885,
				"element": "C" 
			},
			{
				"x": 4.4829284226,
				"y": 3.2908887447,
				"z": 4.303114661,
				"element": "C" 
			},
			{
				"x": 4.5534285443,
				"y": 4.6846551581,
				"z": 4.2796186625,
				"element": "C" 
			},
			{
				"x": 4.4827340319,
				"y": 5.3584385815,
				"z": 3.0585880763,
				"element": "C" 
			},
			{
				"x": 4.3358545137,
				"y": 4.6410129722,
				"z": 1.870769004,
				"element": "C" 
			},
			{
				"x": 1.8771311105,
				"y": 1.4419469082,
				"z": 1.0323961115,
				"element": "C" 
			},
			{
				"x": -4.9178828608,
				"y": 2.2257697734,
				"z": -4.9997465832,
				"element": "H" 
			},
			{
				"x": -4.5099580953,
				"y": 0.7478101762,
				"z": -4.1079600294,
				"element": "H" 
			},
			{
				"x": -3.2192860878,
				"y": 1.8373558312,
				"z": -4.6723294698,
				"element": "H" 
			},
			{
				"x": -4.0019131443,
				"y": 3.613634833,
				"z": -3.1001269415,
				"element": "H" 
			},
			{
				"x": -5.3264714793,
				"y": 2.5544201767,
				"z": -2.5447259215,
				"element": "H" 
			},
			{
				"x": -3.8115042007,
				"y": 0.6045089399,
				"z": -0.5893808451,
				"element": "H" 
			},
			{
				"x": -1.7567134666,
				"y": -1.9567350329,
				"z": 0.487312145,
				"element": "H" 
			},
			{
				"x": -2.5162741759,
				"y": -3.5591213921,
				"z": 2.2151241509,
				"element": "H" 
			},
			{
				"x": -4.1248531111,
				"y": -3.415001904,
				"z": 1.4836446829,
				"element": "H" 
			},
			{
				"x": -1.1741707484,
				"y": -5.3803801243,
				"z": 1.5826757549,
				"element": "H" 
			},
			{
				"x": -0.590649566,
				"y": -7.2102721317,
				"z": 0.0168608882,
				"element": "H" 
			},
			{
				"x": -1.7831539583,
				"y": -7.4159125773,
				"z": -2.1551618959,
				"element": "H" 
			},
			{
				"x": -3.564467643,
				"y": -5.7843668463,
				"z": -2.7444266742,
				"element": "H" 
			},
			{
				"x": -4.1502174489,
				"y": -3.9576330339,
				"z": -1.1691831654,
				"element": "H" 
			},
			{
				"x": 1.0816141344,
				"y": 2.8337007318,
				"z": -2.1438594457,
				"element": "H" 
			},
			{
				"x": 0.141096141,
				"y": 4.0395989222,
				"z": -1.2960266052,
				"element": "H" 
			},
			{
				"x": 1.6508011831,
				"y": 4.0861999435,
				"z": 0.5964179662,
				"element": "H" 
			},
			{
				"x": 2.668247729,
				"y": 4.1046172643,
				"z": -0.8495029553,
				"element": "H" 
			},
			{
				"x": 4.5929253976,
				"y": 2.9643036313,
				"z": -0.2292957818,
				"element": "H" 
			},
			{
				"x": 4.5059534437,
				"y": 1.4651886394,
				"z": 0.6933060518,
				"element": "H" 
			},
			{
				"x": 4.299062566,
				"y": 1.4917138785,
				"z": 3.1367122749,
				"element": "H" 
			},
			{
				"x": 4.5486709261,
				"y": 2.7577485464,
				"z": 5.247506396,
				"element": "H" 
			},
			{
				"x": 4.6711160551,
				"y": 5.2414991784,
				"z": 5.2047691402,
				"element": "H" 
			},
			{
				"x": 4.5490527045,
				"y": 6.4425196891,
				"z": 3.0305269097,
				"element": "H" 
			},
			{
				"x": 4.2967329584,
				"y": 5.1737918555,
				"z": 0.92379673,
				"element": "H" 
			},
			{
				"x": 1.8273229721,
				"y": 1.862348908,
				"z": 2.0556834484,
				"element": "H" 
			},
			{
				"x": 2.3593556202,
				"y": 0.4582810946,
				"z": 1.1226509244,
				"element": "H" 
			}
		],
		 "valence_orbital": [ 
			{
				"type": "occ",
				"energy": -0.25028,
				"method": "rhf"
			},
			{
				"type": "occ",
				"energy": -0.22856,
				"method": "rhf"
			},
			{
				"type": "occ",
				"energy": -0.21656,
				"method": "rhf"
			},
			{
				"type": "occ",
				"energy": -0.2113,
				"method": "rhf"
			},
			{
				"type": "occ",
				"energy": -0.20421,
				"method": "rhf"
			},
			{
				"type": "unocc",
				"energy": -0.05432,
				"method": "rhf"
			},
			{
				"type": "unocc",
				"energy": -0.01118,
				"method": "rhf"
			},
			{
				"type": "unocc",
				"energy": -0.00856,
				"method": "rhf"
			},
			{
				"type": "unocc",
				"energy": -0.00666,
				"method": "rhf"
			},
			{
				"type": "unocc",
				"energy": -0.00381,
				"method": "rhf"
			}
		],
		"cosmo_sigma_profile": { 
			"-0.025": 0.0,
			"-0.024": 0.0,
			"-0.023": 0.0,
			"-0.022": 0.0,
			"-0.021": 0.0,
			"-0.02": 0.0,
			"-0.019": 0.0,
			"-0.018": 0.0,
			"-0.017": 0.0,
			"-0.016": 0.0,
			"-0.015": 0.0,
			"-0.014": 0.0,
			"-0.013": 0.00131790706253,
			"-0.012": 0.915496524881,
			"-0.011": 1.42976788504,
			"-0.01": 1.46612718696,
			"-0.009": 1.37091538959,
			"-0.008": 1.05580539218,
			"-0.007": 2.68126928138,
			"-0.006": 16.713478161,
			"-0.005": 39.624643416,
			"-0.004": 49.1083402866,
			"-0.003": 53.6365928943,
			"-0.002": 50.8695247747,
			"-0.001": 48.1543548337,
			"0.0": 46.6169162237,
			"0.001": 35.8565116946,
			"0.002": 30.0281907282,
			"0.003": 25.7928305303,
			"0.004": 22.2973149533,
			"0.005": 22.55895486,
			"0.006": 20.3140352661,
			"0.007": 8.60416872597,
			"0.008": 6.59258247171,
			"0.009": 7.87207480709,
			"0.01": 8.16547809135,
			"0.011": 5.72031084398,
			"0.012": 3.77866472185,
			"0.013": 0.235474587518,
			"0.014": 0.4065828658,
			"0.015": 0.2239863382,
			"0.016": 0.0,
			"0.017": 0.0,
			"0.018": 0.0,
			"0.019": 0.0,
			"0.02": 0.0,
			"0.021": 0.0,
			"0.022": 0.0,
			"0.023": 0.0,
			"0.024": 0.0,
			"0.025": 0.0
		}
	}
}
