{
	 "smiles": "CCC(COC(=O)C1=CC(OC)=C(OC)C(OC)=C1)(N(C)C)C1=CC=CC=C1", 
	 "Tm": 352.15, 
	 "num_atms": 57, 
	 "gaussian": { 
		 "optdone": 1, 
		 "sigma_profile": "yes", 
		 "theory": "DFT", 
		 "functional": "B3LYP", 
		 "basiset": "6-31G**", 
		 "properties": { 
			 "R2extent": 15802.3142, 
			 "electric_dipole_moment_norm": 2.78792044363, 
			 "electric_quadrupole_moment_norm": 19.949277407, 
			 "total_energy": -1286.6331097, 
			 "HOMO_LUMO_gap": 0.16023, 
			 "cosmo_polarized_energy": -13.7, 
			 "cosmo_cavitation_energy": 57.34, 
			 "cosmo_dispersion_energy": -37.47, 
			 "cosmo_repulsion_energy": 2.86, 
			 "cosmo_total_nonelectrostatic_energy": 22.73, 
			 "SMD_solvation_energy": 12.72 
		},
		"coords": [
			{
				"x": 0.807677633,
				"y": -0.6808014639,
				"z": -2.7401383003,
				"element": "C" 
			},
			{
				"x": -0.3629188731,
				"y": -1.6705613747,
				"z": -2.7407427142,
				"element": "C" 
			},
			{
				"x": -0.8823580193,
				"y": -2.1547961468,
				"z": -1.3501798365,
				"element": "C" 
			},
			{
				"x": -1.6086222809,
				"y": -0.9898434056,
				"z": -0.6420748996,
				"element": "C" 
			},
			{
				"x": -0.6915976884,
				"y": 0.0589294877,
				"z": -0.2715607266,
				"element": "O" 
			},
			{
				"x": -1.2601160528,
				"y": 1.1678302838,
				"z": 0.2607376023,
				"element": "C" 
			},
			{
				"x": -2.4608423144,
				"y": 1.2937645935,
				"z": 0.4069497493,
				"element": "O" 
			},
			{
				"x": -0.2508677153,
				"y": 2.196133364,
				"z": 0.6395091027,
				"element": "C" 
			},
			{
				"x": 1.1260279546,
				"y": 1.975129321,
				"z": 0.5051236852,
				"element": "C" 
			},
			{
				"x": 2.0251597376,
				"y": 2.9736414586,
				"z": 0.8734107685,
				"element": "C" 
			},
			{
				"x": 3.3713426855,
				"y": 2.7671959819,
				"z": 0.6763263591,
				"element": "O" 
			},
			{
				"x": 4.1477118634,
				"y": 2.6321609319,
				"z": 1.8724794445,
				"element": "C" 
			},
			{
				"x": 1.5565982218,
				"y": 4.2024484546,
				"z": 1.375333887,
				"element": "C" 
			},
			{
				"x": 2.4370191645,
				"y": 5.195149864,
				"z": 1.7346712431,
				"element": "O" 
			},
			{
				"x": 2.9782916829,
				"y": 5.9286257888,
				"z": 0.6251468288,
				"element": "C" 
			},
			{
				"x": 0.1719585091,
				"y": 4.4110753367,
				"z": 1.5228199029,
				"element": "C" 
			},
			{
				"x": -0.3222443573,
				"y": 5.6187949176,
				"z": 1.946323131,
				"element": "O" 
			},
			{
				"x": -0.0445280606,
				"y": 5.9647265865,
				"z": 3.3072481362,
				"element": "C" 
			},
			{
				"x": -0.7227828508,
				"y": 3.4061726837,
				"z": 1.1611698101,
				"element": "C" 
			},
			{
				"x": 0.2840559548,
				"y": -2.638599413,
				"z": -0.5641298774,
				"element": "N" 
			},
			{
				"x": 0.8806051018,
				"y": -3.8759297293,
				"z": -1.0541898681,
				"element": "C" 
			},
			{
				"x": 0.2230590663,
				"y": -2.6497094637,
				"z": 0.8916018179,
				"element": "C" 
			},
			{
				"x": -1.9812540171,
				"y": -3.2484950961,
				"z": -1.5278555086,
				"element": "C" 
			},
			{
				"x": -2.6234086896,
				"y": -3.7897065544,
				"z": -0.397603793,
				"element": "C" 
			},
			{
				"x": -3.5890403943,
				"y": -4.789389881,
				"z": -0.5116505188,
				"element": "C" 
			},
			{
				"x": -3.9509175838,
				"y": -5.2789354326,
				"z": -1.7668268896,
				"element": "C" 
			},
			{
				"x": -3.3332783884,
				"y": -4.7535398239,
				"z": -2.8997970591,
				"element": "C" 
			},
			{
				"x": -2.3638945658,
				"y": -3.7547199265,
				"z": -2.7802498181,
				"element": "C" 
			},
			{
				"x": 1.1717579995,
				"y": -0.5431818199,
				"z": -3.764152479,
				"element": "H" 
			},
			{
				"x": 1.6309898629,
				"y": -1.0569747075,
				"z": -2.1283139364,
				"element": "H" 
			},
			{
				"x": 0.5230911433,
				"y": 0.2970792275,
				"z": -2.3497256539,
				"element": "H" 
			},
			{
				"x": -1.2118022254,
				"y": -1.237813618,
				"z": -3.2836075322,
				"element": "H" 
			},
			{
				"x": -0.0591115484,
				"y": -2.5458234898,
				"z": -3.3227870445,
				"element": "H" 
			},
			{
				"x": -2.1324175413,
				"y": -1.3170024664,
				"z": 0.2579213479,
				"element": "H" 
			},
			{
				"x": -2.366726471,
				"y": -0.5832309629,
				"z": -1.3166416322,
				"element": "H" 
			},
			{
				"x": 1.5069704602,
				"y": 1.0412788868,
				"z": 0.1105017656,
				"element": "H" 
			},
			{
				"x": 4.0903612306,
				"y": 3.5342884736,
				"z": 2.489003725,
				"element": "H" 
			},
			{
				"x": 5.1783396824,
				"y": 2.4713070529,
				"z": 1.5498714978,
				"element": "H" 
			},
			{
				"x": 3.813012596,
				"y": 1.7656582724,
				"z": 2.4566627067,
				"element": "H" 
			},
			{
				"x": 3.5300223185,
				"y": 5.2648116864,
				"z": -0.0478151713,
				"element": "H" 
			},
			{
				"x": 3.657594544,
				"y": 6.6694161277,
				"z": 1.0513361666,
				"element": "H" 
			},
			{
				"x": 2.1797673623,
				"y": 6.438962815,
				"z": 0.0750372115,
				"element": "H" 
			},
			{
				"x": -0.5214011054,
				"y": 6.9322817203,
				"z": 3.4763698541,
				"element": "H" 
			},
			{
				"x": 1.0310748425,
				"y": 6.0475747844,
				"z": 3.4868446655,
				"element": "H" 
			},
			{
				"x": -0.4780890095,
				"y": 5.2253501845,
				"z": 3.9928421756,
				"element": "H" 
			},
			{
				"x": -1.7886761861,
				"y": 3.5723416153,
				"z": 1.2645923403,
				"element": "H" 
			},
			{
				"x": 1.0465490088,
				"y": -3.8331276294,
				"z": -2.1325237786,
				"element": "H" 
			},
			{
				"x": 0.2763200777,
				"y": -4.7747279263,
				"z": -0.8398469106,
				"element": "H" 
			},
			{
				"x": 1.8581585605,
				"y": -4.0079766786,
				"z": -0.5775087154,
				"element": "H" 
			},
			{
				"x": 1.2436177843,
				"y": -2.7745200252,
				"z": 1.2728393678,
				"element": "H" 
			},
			{
				"x": -0.147760713,
				"y": -1.7003125143,
				"z": 1.2779418055,
				"element": "H" 
			},
			{
				"x": -0.3781109904,
				"y": -3.4712706069,
				"z": 1.3207802584,
				"element": "H" 
			},
			{
				"x": -2.3757529754,
				"y": -3.4294663026,
				"z": 0.5939052106,
				"element": "H" 
			},
			{
				"x": -4.0611346131,
				"y": -5.1816289032,
				"z": 0.3848589752,
				"element": "H" 
			},
			{
				"x": -4.7051314514,
				"y": -6.0550203674,
				"z": -1.8593409696,
				"element": "H" 
			},
			{
				"x": -3.6042972827,
				"y": -5.1172129267,
				"z": -3.8872001471,
				"element": "H" 
			},
			{
				"x": -1.9136510839,
				"y": -3.3724112445,
				"z": -3.6877967618,
				"element": "H" 
			}
		],
		 "valence_orbital": [ 
			{
				"type": "occ",
				"energy": -0.24917,
				"method": "rhf"
			},
			{
				"type": "occ",
				"energy": -0.24755,
				"method": "rhf"
			},
			{
				"type": "occ",
				"energy": -0.23772,
				"method": "rhf"
			},
			{
				"type": "occ",
				"energy": -0.23486,
				"method": "rhf"
			},
			{
				"type": "occ",
				"energy": -0.20169,
				"method": "rhf"
			},
			{
				"type": "unocc",
				"energy": -0.04146,
				"method": "rhf"
			},
			{
				"type": "unocc",
				"energy": -0.00474,
				"method": "rhf"
			},
			{
				"type": "unocc",
				"energy": -0.00142,
				"method": "rhf"
			},
			{
				"type": "unocc",
				"energy": 0.00048,
				"method": "rhf"
			},
			{
				"type": "unocc",
				"energy": 0.05898,
				"method": "rhf"
			}
		],
		"cosmo_sigma_profile": { 
			"-0.025": 0.0,
			"-0.024": 0.0,
			"-0.023": 0.0,
			"-0.022": 0.0,
			"-0.021": 0.0,
			"-0.02": 0.0,
			"-0.019": 0.0,
			"-0.018": 0.0,
			"-0.017": 0.0,
			"-0.016": 0.0,
			"-0.015": 0.0,
			"-0.014": 0.0,
			"-0.013": 0.0,
			"-0.012": 0.0,
			"-0.011": 0.0,
			"-0.01": 0.0,
			"-0.009": 0.0,
			"-0.008": 2.21067212986e-05,
			"-0.007": 0.75909834692,
			"-0.006": 10.2233665576,
			"-0.005": 26.3806849428,
			"-0.004": 41.8561675056,
			"-0.003": 57.5291196695,
			"-0.002": 48.1895736365,
			"-0.001": 47.1093132703,
			"0.0": 52.0350543603,
			"0.001": 38.1664563323,
			"0.002": 32.933808442,
			"0.003": 22.2749401899,
			"0.004": 15.4170191195,
			"0.005": 14.9095387158,
			"0.006": 13.382945959,
			"0.007": 5.45513704255,
			"0.008": 4.60009877134,
			"0.009": 4.67907467512,
			"0.01": 4.27467095139,
			"0.011": 6.744757037,
			"0.012": 4.66774967903,
			"0.013": 0.0826241005945,
			"0.014": 0.0,
			"0.015": 0.0,
			"0.016": 0.0,
			"0.017": 0.0,
			"0.018": 0.0,
			"0.019": 0.0,
			"0.02": 0.0,
			"0.021": 0.0,
			"0.022": 0.0,
			"0.023": 0.0,
			"0.024": 0.0,
			"0.025": 0.0
		}
	}
}
