{
	 "smiles": "CC(O)C(C)=O", 
	 "Tm": 288.15, 
	 "num_atms": 14, 
	 "gaussian": { 
		 "optdone": 1, 
		 "sigma_profile": "yes", 
		 "theory": "DFT", 
		 "functional": "B3LYP", 
		 "basiset": "6-31G**", 
		 "properties": { 
			 "R2extent": 837.8161, 
			 "electric_dipole_moment_norm": 3.04129686483, 
			 "electric_quadrupole_moment_norm": 4.63282300655, 
			 "total_energy": -307.691711694, 
			 "HOMO_LUMO_gap": 0.23438, 
			 "cosmo_polarized_energy": -8.48, 
			 "cosmo_cavitation_energy": 17.03, 
			 "cosmo_dispersion_energy": -12.59, 
			 "cosmo_repulsion_energy": 1.1, 
			 "cosmo_total_nonelectrostatic_energy": 5.54, 
			 "SMD_solvation_energy": 3.83 
		},
		"coords": [
			{
				"x": -0.0140884149,
				"y": -1.4560831557,
				"z": -1.2682028951,
				"element": "C" 
			},
			{
				"x": -1.0959835021,
				"y": -1.2504445251,
				"z": -0.1972319995,
				"element": "C" 
			},
			{
				"x": -1.5185736522,
				"y": -2.4889096942,
				"z": 0.3117842679,
				"element": "O" 
			},
			{
				"x": -0.6092955703,
				"y": -0.3580986548,
				"z": 0.9501830991,
				"element": "C" 
			},
			{
				"x": -0.1076204354,
				"y": 1.0328489039,
				"z": 0.6375959622,
				"element": "C" 
			},
			{
				"x": -0.6407983567,
				"y": -0.7967213187,
				"z": 2.0888494521,
				"element": "O" 
			},
			{
				"x": 0.2609686778,
				"y": -0.5170279837,
				"z": -1.7586021211,
				"element": "H" 
			},
			{
				"x": -0.395220079,
				"y": -2.142620911,
				"z": -2.028063914,
				"element": "H" 
			},
			{
				"x": 0.8805373633,
				"y": -1.9045713894,
				"z": -0.825098032,
				"element": "H" 
			},
			{
				"x": -1.9481647198,
				"y": -0.7200876861,
				"z": -0.6615120962,
				"element": "H" 
			},
			{
				"x": -1.3944637424,
				"y": -2.4210227098,
				"z": 1.27631588,
				"element": "H" 
			},
			{
				"x": -0.0878223077,
				"y": 1.6288531586,
				"z": 1.5511523472,
				"element": "H" 
			},
			{
				"x": 0.911139454,
				"y": 0.9729425232,
				"z": 0.2365627551,
				"element": "H" 
			},
			{
				"x": -0.7261147145,
				"y": 1.5223434429,
				"z": -0.1211327058,
				"element": "H" 
			}
		],
		 "valence_orbital": [ 
			{
				"type": "occ",
				"energy": -0.37881,
				"method": "rhf"
			},
			{
				"type": "occ",
				"energy": -0.36305,
				"method": "rhf"
			},
			{
				"type": "occ",
				"energy": -0.33766,
				"method": "rhf"
			},
			{
				"type": "occ",
				"energy": -0.26952,
				"method": "rhf"
			},
			{
				"type": "occ",
				"energy": -0.26347,
				"method": "rhf"
			},
			{
				"type": "unocc",
				"energy": -0.02909,
				"method": "rhf"
			},
			{
				"type": "unocc",
				"energy": 0.07929,
				"method": "rhf"
			},
			{
				"type": "unocc",
				"energy": 0.12367,
				"method": "rhf"
			},
			{
				"type": "unocc",
				"energy": 0.12667,
				"method": "rhf"
			},
			{
				"type": "unocc",
				"energy": 0.14375,
				"method": "rhf"
			}
		],
		"cosmo_sigma_profile": { 
			"-0.025": 0.0,
			"-0.024": 0.0,
			"-0.023": 0.0,
			"-0.022": 0.0,
			"-0.021": 0.0,
			"-0.02": 0.0,
			"-0.019": 0.0,
			"-0.018": 0.0,
			"-0.017": 0.0,
			"-0.016": 0.0,
			"-0.015": 0.0,
			"-0.014": 0.0,
			"-0.013": 0.0,
			"-0.012": 0.0,
			"-0.011": 0.0,
			"-0.01": 0.135536567653,
			"-0.009": 0.412245564059,
			"-0.008": 0.916149439339,
			"-0.007": 3.60111315465,
			"-0.006": 9.73199010958,
			"-0.005": 13.0724116996,
			"-0.004": 14.5117118391,
			"-0.003": 13.397982446,
			"-0.002": 14.7357848583,
			"-0.001": 11.8384177715,
			"0.0": 8.7386345653,
			"0.001": 5.63371395353,
			"0.002": 3.17921454054,
			"0.003": 1.9005690902,
			"0.004": 2.37961655781,
			"0.005": 2.68210757844,
			"0.006": 2.49224899865,
			"0.007": 2.638807577,
			"0.008": 3.15758969635,
			"0.009": 3.00515135357,
			"0.01": 3.49515994789,
			"0.011": 3.68494435648,
			"0.012": 2.93053112245,
			"0.013": 1.79282795016,
			"0.014": 2.25243573317,
			"0.015": 0.521571794702,
			"0.016": 0.0,
			"0.017": 0.0,
			"0.018": 0.0,
			"0.019": 0.0,
			"0.02": 0.0,
			"0.021": 0.0,
			"0.022": 0.0,
			"0.023": 0.0,
			"0.024": 0.0,
			"0.025": 0.0
		}
	}
}
