{
	 "smiles": "NC(=O)C1(CCCC1)N1CCNCC1", 
	 "Tm": 412.15, 
	 "num_atms": 33, 
	 "gaussian": { 
		 "optdone": 1, 
		 "sigma_profile": "yes", 
		 "theory": "DFT", 
		 "functional": "B3LYP", 
		 "basiset": "6-31G**", 
		 "properties": { 
			 "R2extent": 3151.5701, 
			 "electric_dipole_moment_norm": 3.40852250249, 
			 "electric_quadrupole_moment_norm": 16.3988591814, 
			 "total_energy": -631.983131619, 
			 "HOMO_LUMO_gap": 0.22879, 
			 "cosmo_polarized_energy": -15.15, 
			 "cosmo_cavitation_energy": 31.23, 
			 "cosmo_dispersion_energy": -22.51, 
			 "cosmo_repulsion_energy": 1.76, 
			 "cosmo_total_nonelectrostatic_energy": 10.48, 
			 "SMD_solvation_energy": 1.65 
		},
		"coords": [
			{
				"x": -0.8803052345,
				"y": 2.0657344086,
				"z": 3.354123072,
				"element": "N" 
			},
			{
				"x": -0.92648061,
				"y": 0.766903379,
				"z": 2.9290526861,
				"element": "C" 
			},
			{
				"x": -0.7194826934,
				"y": -0.1650576812,
				"z": 3.7000623524,
				"element": "O" 
			},
			{
				"x": -1.1799418118,
				"y": 0.5263467567,
				"z": 1.4246923442,
				"element": "C" 
			},
			{
				"x": -2.2323450635,
				"y": -0.5931698622,
				"z": 1.2399845525,
				"element": "C" 
			},
			{
				"x": -2.6604013044,
				"y": -0.4919651195,
				"z": -0.2359319095,
				"element": "C" 
			},
			{
				"x": -2.459489361,
				"y": 1.0041296951,
				"z": -0.6152473383,
				"element": "C" 
			},
			{
				"x": -1.8764044997,
				"y": 1.675688481,
				"z": 0.6503542633,
				"element": "C" 
			},
			{
				"x": 0.0921985969,
				"y": 0.1809724255,
				"z": 0.7402676468,
				"element": "N" 
			},
			{
				"x": 0.6276774921,
				"y": -1.1706471704,
				"z": 1.0117081688,
				"element": "C" 
			},
			{
				"x": 2.054535737,
				"y": -1.3061069707,
				"z": 0.4177634762,
				"element": "C" 
			},
			{
				"x": 2.2866491829,
				"y": -0.429832867,
				"z": -0.7296123442,
				"element": "N" 
			},
			{
				"x": 2.1609820283,
				"y": 0.974551661,
				"z": -0.3133030678,
				"element": "C" 
			},
			{
				"x": 1.1654435118,
				"y": 1.1735714131,
				"z": 0.8574375115,
				"element": "C" 
			},
			{
				"x": -0.6747014713,
				"y": 2.2353404114,
				"z": 4.3275825771,
				"element": "H" 
			},
			{
				"x": -1.062104932,
				"y": 2.8472417997,
				"z": 2.7475769665,
				"element": "H" 
			},
			{
				"x": -1.8775412338,
				"y": -1.5776423456,
				"z": 1.5434741064,
				"element": "H" 
			},
			{
				"x": -3.0774698483,
				"y": -0.3555511297,
				"z": 1.8962230941,
				"element": "H" 
			},
			{
				"x": -3.6933991832,
				"y": -0.8241438536,
				"z": -0.3774076736,
				"element": "H" 
			},
			{
				"x": -2.0310315184,
				"y": -1.1304384837,
				"z": -0.8630995687,
				"element": "H" 
			},
			{
				"x": -1.7585100278,
				"y": 1.0967079784,
				"z": -1.4483600528,
				"element": "H" 
			},
			{
				"x": -3.392501847,
				"y": 1.4860337607,
				"z": -0.9233390512,
				"element": "H" 
			},
			{
				"x": -1.2159577984,
				"y": 2.5128796568,
				"z": 0.4045364115,
				"element": "H" 
			},
			{
				"x": -2.6879261494,
				"y": 2.0729618533,
				"z": 1.2724284985,
				"element": "H" 
			},
			{
				"x": 0.642820542,
				"y": -1.4005017596,
				"z": 2.0878543706,
				"element": "H" 
			},
			{
				"x": -0.0278346967,
				"y": -1.9019831686,
				"z": 0.5264712091,
				"element": "H" 
			},
			{
				"x": 2.8081805976,
				"y": -1.064107078,
				"z": 1.1766537101,
				"element": "H" 
			},
			{
				"x": 2.2321874129,
				"y": -2.3469059638,
				"z": 0.1271571739,
				"element": "H" 
			},
			{
				"x": 1.5614878464,
				"y": -0.6188883933,
				"z": -1.4173376681,
				"element": "H" 
			},
			{
				"x": 1.8430870956,
				"y": 1.5593233064,
				"z": -1.1827492947,
				"element": "H" 
			},
			{
				"x": 3.1468966048,
				"y": 1.3549031375,
				"z": -0.0114021669,
				"element": "H" 
			},
			{
				"x": 1.6919117473,
				"y": 1.0982621829,
				"z": 1.8260719314,
				"element": "H" 
			},
			{
				"x": 0.7519708888,
				"y": 2.1839895398,
				"z": 0.8148140128,
				"element": "H" 
			}
		],
		 "valence_orbital": [ 
			{
				"type": "occ",
				"energy": -0.3102,
				"method": "rhf"
			},
			{
				"type": "occ",
				"energy": -0.26399,
				"method": "rhf"
			},
			{
				"type": "occ",
				"energy": -0.25504,
				"method": "rhf"
			},
			{
				"type": "occ",
				"energy": -0.21507,
				"method": "rhf"
			},
			{
				"type": "occ",
				"energy": -0.19921,
				"method": "rhf"
			},
			{
				"type": "unocc",
				"energy": 0.02958,
				"method": "rhf"
			},
			{
				"type": "unocc",
				"energy": 0.05821,
				"method": "rhf"
			},
			{
				"type": "unocc",
				"energy": 0.07939,
				"method": "rhf"
			},
			{
				"type": "unocc",
				"energy": 0.09431,
				"method": "rhf"
			},
			{
				"type": "unocc",
				"energy": 0.1103,
				"method": "rhf"
			}
		],
		"cosmo_sigma_profile": { 
			"-0.025": 0.0,
			"-0.024": 0.0,
			"-0.023": 0.0,
			"-0.022": 0.0,
			"-0.021": 0.0,
			"-0.02": 0.0,
			"-0.019": 0.0,
			"-0.018": 0.0,
			"-0.017": 0.0,
			"-0.016": 0.0,
			"-0.015": 0.0,
			"-0.014": 0.470285699567,
			"-0.013": 1.79644830995,
			"-0.012": 2.2716128288,
			"-0.011": 1.74402425953,
			"-0.01": 2.49892098972,
			"-0.009": 4.20533573872,
			"-0.008": 3.37847290412,
			"-0.007": 2.91729336575,
			"-0.006": 4.05680212996,
			"-0.005": 4.94993895056,
			"-0.004": 10.9181256468,
			"-0.003": 27.0220926336,
			"-0.002": 33.7378719649,
			"-0.001": 35.1943208663,
			"0.0": 25.7016203361,
			"0.001": 19.881680454,
			"0.002": 11.2630276554,
			"0.003": 5.90021436974,
			"0.004": 5.64760010842,
			"0.005": 3.97480516959,
			"0.006": 3.5526254751,
			"0.007": 2.85239278276,
			"0.008": 3.40632861566,
			"0.009": 2.92374758204,
			"0.01": 1.76298119446,
			"0.011": 2.51675844814,
			"0.012": 2.00091481324,
			"0.013": 2.90879126965,
			"0.014": 4.98370305221,
			"0.015": 3.37990245481,
			"0.016": 0.889462321044,
			"0.017": 0.564068231201,
			"0.018": 0.495390238849,
			"0.019": 0.37528982837,
			"0.02": 0.0,
			"0.021": 0.0,
			"0.022": 0.0,
			"0.023": 0.0,
			"0.024": 0.0,
			"0.025": 0.0
		}
	}
}
