{
	 "smiles": "BrCC1=C(N=C(S1)C1=CC=CC=C1)C1=CC=CC=C1", 
	 "Tm": 386.15, 
	 "num_atms": 31, 
	 "gaussian": { 
		 "optdone": 1, 
		 "sigma_profile": "yes", 
		 "theory": "DFT", 
		 "functional": "B3LYP", 
		 "basiset": "6-31G**", 
		 "properties": { 
			 "R2extent": 8578.7941, 
			 "electric_dipole_moment_norm": 2.34371581255, 
			 "electric_quadrupole_moment_norm": 17.1372598679, 
			 "total_energy": -3641.29132461, 
			 "HOMO_LUMO_gap": 0.14784, 
			 "cosmo_polarized_energy": -9.11, 
			 "cosmo_cavitation_energy": 38.77, 
			 "cosmo_dispersion_energy": -28.58, 
			 "cosmo_repulsion_energy": 2.14, 
			 "cosmo_total_nonelectrostatic_energy": 12.33, 
			 "SMD_solvation_energy": 3.77 
		},
		"coords": [
			{
				"x": 2.6184145989,
				"y": 2.9551894778,
				"z": 1.4199625789,
				"element": "Br" 
			},
			{
				"x": 1.8929030277,
				"y": 2.095292321,
				"z": -0.2664886256,
				"element": "C" 
			},
			{
				"x": 0.6919853137,
				"y": 1.2731090556,
				"z": -0.0398372542,
				"element": "C" 
			},
			{
				"x": 0.5741907515,
				"y": -0.1037111707,
				"z": 0.0765623571,
				"element": "C" 
			},
			{
				"x": -0.7188478978,
				"y": -0.5670431327,
				"z": 0.1535130992,
				"element": "N" 
			},
			{
				"x": -1.6043480483,
				"y": 0.3942346673,
				"z": 0.1357146421,
				"element": "C" 
			},
			{
				"x": -0.8943886235,
				"y": 2.00021058,
				"z": 0.0046001714,
				"element": "S" 
			},
			{
				"x": -3.0533521628,
				"y": 0.173811187,
				"z": 0.2285791508,
				"element": "C" 
			},
			{
				"x": -3.9747007494,
				"y": 1.2308755688,
				"z": 0.1504993003,
				"element": "C" 
			},
			{
				"x": -5.3425031347,
				"y": 0.9839973191,
				"z": 0.241459384,
				"element": "C" 
			},
			{
				"x": -5.8106476536,
				"y": -0.3208635233,
				"z": 0.4103695338,
				"element": "C" 
			},
			{
				"x": -4.9005345726,
				"y": -1.3786435257,
				"z": 0.4885667524,
				"element": "C" 
			},
			{
				"x": -3.5329064745,
				"y": -1.1373156349,
				"z": 0.3995295814,
				"element": "C" 
			},
			{
				"x": 1.6724359385,
				"y": -1.0934310739,
				"z": 0.0836858025,
				"element": "C" 
			},
			{
				"x": 1.459131611,
				"y": -2.3540403057,
				"z": -0.5016452305,
				"element": "C" 
			},
			{
				"x": 2.4734971653,
				"y": -3.30750509,
				"z": -0.5192040663,
				"element": "C" 
			},
			{
				"x": 3.7156565896,
				"y": -3.02473198,
				"z": 0.0555649911,
				"element": "C" 
			},
			{
				"x": 3.930568178,
				"y": -1.7846196219,
				"z": 0.657788923,
				"element": "C" 
			},
			{
				"x": 2.917569613,
				"y": -0.8250944235,
				"z": 0.6772588943,
				"element": "C" 
			},
			{
				"x": 2.7231358341,
				"y": 1.5014408335,
				"z": -0.6412342838,
				"element": "H" 
			},
			{
				"x": 1.7122798924,
				"y": 2.9488020482,
				"z": -0.9162355855,
				"element": "H" 
			},
			{
				"x": -3.6256899347,
				"y": 2.251147362,
				"z": 0.0161960623,
				"element": "H" 
			},
			{
				"x": -6.0430734732,
				"y": 1.811377605,
				"z": 0.1795087367,
				"element": "H" 
			},
			{
				"x": -6.8773954863,
				"y": -0.5118848602,
				"z": 0.4813067462,
				"element": "H" 
			},
			{
				"x": -5.2585282339,
				"y": -2.3954062242,
				"z": 0.6215976209,
				"element": "H" 
			},
			{
				"x": -2.8159595321,
				"y": -1.9481461774,
				"z": 0.4622494904,
				"element": "H" 
			},
			{
				"x": 0.4901321552,
				"y": -2.5707456285,
				"z": -0.9381413285,
				"element": "H" 
			},
			{
				"x": 2.2949883514,
				"y": -4.274353291,
				"z": -0.9812207712,
				"element": "H" 
			},
			{
				"x": 4.5057320767,
				"y": -3.7700317392,
				"z": 0.0427966425,
				"element": "H" 
			},
			{
				"x": 4.884901029,
				"y": -1.5642211988,
				"z": 1.1273577394,
				"element": "H" 
			},
			{
				"x": 3.0837538513,
				"y": 0.1170005762,
				"z": 1.1897389451,
				"element": "H" 
			}
		],
		 "valence_orbital": [ 
			{
				"type": "occ",
				"energy": -0.27178,
				"method": "rhf"
			},
			{
				"type": "occ",
				"energy": -0.26099,
				"method": "rhf"
			},
			{
				"type": "occ",
				"energy": -0.25325,
				"method": "rhf"
			},
			{
				"type": "occ",
				"energy": -0.25084,
				"method": "rhf"
			},
			{
				"type": "occ",
				"energy": -0.21845,
				"method": "rhf"
			},
			{
				"type": "unocc",
				"energy": -0.07061,
				"method": "rhf"
			},
			{
				"type": "unocc",
				"energy": -0.03276,
				"method": "rhf"
			},
			{
				"type": "unocc",
				"energy": -0.00983,
				"method": "rhf"
			},
			{
				"type": "unocc",
				"energy": -0.00652,
				"method": "rhf"
			},
			{
				"type": "unocc",
				"energy": -0.00208,
				"method": "rhf"
			}
		],
		"cosmo_sigma_profile": { 
			"-0.025": 0.0,
			"-0.024": 0.0,
			"-0.023": 0.0,
			"-0.022": 0.0,
			"-0.021": 0.0,
			"-0.02": 0.0,
			"-0.019": 0.0,
			"-0.018": 0.0,
			"-0.017": 0.0,
			"-0.016": 0.0,
			"-0.015": 0.0,
			"-0.014": 0.0,
			"-0.013": 0.0,
			"-0.012": 0.0,
			"-0.011": 0.0,
			"-0.01": 0.0,
			"-0.009": 1.62803071898,
			"-0.008": 3.08824727754,
			"-0.007": 5.49284843198,
			"-0.006": 17.1847003962,
			"-0.005": 24.0540490802,
			"-0.004": 23.713305377,
			"-0.003": 18.9001523532,
			"-0.002": 20.6211195575,
			"-0.001": 21.8640434265,
			"0.0": 26.0194371107,
			"0.001": 30.4214153903,
			"0.002": 25.0446619527,
			"0.003": 29.4762785181,
			"0.004": 29.9198181898,
			"0.005": 23.5696759953,
			"0.006": 11.6962846416,
			"0.007": 1.87489324486,
			"0.008": 1.35507106403,
			"0.009": 1.13349092276,
			"0.01": 0.458469156668,
			"0.011": 0.0,
			"0.012": 0.0,
			"0.013": 0.0,
			"0.014": 0.0,
			"0.015": 0.0,
			"0.016": 0.0,
			"0.017": 0.0,
			"0.018": 0.0,
			"0.019": 0.0,
			"0.02": 0.0,
			"0.021": 0.0,
			"0.022": 0.0,
			"0.023": 0.0,
			"0.024": 0.0,
			"0.025": 0.0
		}
	}
}
