{
	 "smiles": "CC(C)(C)CCS(Cl)(=O)=O", 
	 "Tm": 307.15, 
	 "num_atms": 23, 
	 "gaussian": { 
		 "optdone": 1, 
		 "sigma_profile": "yes", 
		 "theory": "DFT", 
		 "functional": "B3LYP", 
		 "basiset": "6-31G**", 
		 "properties": { 
			 "R2extent": 3137.3238, 
			 "electric_dipole_moment_norm": 4.42381279667, 
			 "electric_quadrupole_moment_norm": 11.9452757599, 
			 "total_energy": -1245.25134785, 
			 "HOMO_LUMO_gap": 0.23173, 
			 "cosmo_polarized_energy": -9.49, 
			 "cosmo_cavitation_energy": 27.16, 
			 "cosmo_dispersion_energy": -19.83, 
			 "cosmo_repulsion_energy": 1.54, 
			 "cosmo_total_nonelectrostatic_energy": 8.87, 
			 "SMD_solvation_energy": 3.37 
		},
		"coords": [
			{
				"x": 0.854317667,
				"y": 0.4635211567,
				"z": -1.1981062262,
				"element": "C" 
			},
			{
				"x": -0.1651830852,
				"y": 0.8299964938,
				"z": -0.1002716545,
				"element": "C" 
			},
			{
				"x": -1.3355524896,
				"y": -0.1706387677,
				"z": -0.116286618,
				"element": "C" 
			},
			{
				"x": -0.7071170858,
				"y": 2.2448365444,
				"z": -0.399189344,
				"element": "C" 
			},
			{
				"x": 0.5065659118,
				"y": 0.9016872093,
				"z": 1.3049755668,
				"element": "C" 
			},
			{
				"x": 0.6254855402,
				"y": -0.3439031194,
				"z": 2.1893978444,
				"element": "C" 
			},
			{
				"x": 1.8128069737,
				"y": -1.6721499085,
				"z": 1.7834055494,
				"element": "S" 
			},
			{
				"x": 3.628323668,
				"y": -0.5559772938,
				"z": 1.6082732376,
				"element": "Cl" 
			},
			{
				"x": 1.5452240058,
				"y": -2.2596541827,
				"z": 0.4745006917,
				"element": "O" 
			},
			{
				"x": 1.948075038,
				"y": -2.5128519992,
				"z": 2.9672190804,
				"element": "O" 
			},
			{
				"x": 1.6806549526,
				"y": 1.1831184758,
				"z": -1.2189698469,
				"element": "H" 
			},
			{
				"x": 0.3708527312,
				"y": 0.4873753509,
				"z": -2.1810707041,
				"element": "H" 
			},
			{
				"x": 1.2728742336,
				"y": -0.5338806466,
				"z": -1.0562897668,
				"element": "H" 
			},
			{
				"x": -0.9883077649,
				"y": -1.2019104945,
				"z": 0.0017163083,
				"element": "H" 
			},
			{
				"x": -2.0643977764,
				"y": 0.0451208487,
				"z": 0.6749857928,
				"element": "H" 
			},
			{
				"x": -1.8666295951,
				"y": -0.1148898106,
				"z": -1.0721787527,
				"element": "H" 
			},
			{
				"x": -1.4905823865,
				"y": 2.5334415413,
				"z": 0.311264546,
				"element": "H" 
			},
			{
				"x": 0.0899176674,
				"y": 2.9953089126,
				"z": -0.3441508513,
				"element": "H" 
			},
			{
				"x": -1.1348901679,
				"y": 2.2893576536,
				"z": -1.4060821802,
				"element": "H" 
			},
			{
				"x": -0.095796932,
				"y": 1.5769814467,
				"z": 1.9282061862,
				"element": "H" 
			},
			{
				"x": 1.4888792835,
				"y": 1.3791282901,
				"z": 1.2209755694,
				"element": "H" 
			},
			{
				"x": -0.3126189865,
				"y": -0.9039809048,
				"z": 2.2599153774,
				"element": "H" 
			},
			{
				"x": 0.9321985971,
				"y": -0.0668367962,
				"z": 3.2009601942,
				"element": "H" 
			}
		],
		 "valence_orbital": [ 
			{
				"type": "occ",
				"energy": -0.33535,
				"method": "rhf"
			},
			{
				"type": "occ",
				"energy": -0.33191,
				"method": "rhf"
			},
			{
				"type": "occ",
				"energy": -0.32428,
				"method": "rhf"
			},
			{
				"type": "occ",
				"energy": -0.32095,
				"method": "rhf"
			},
			{
				"type": "occ",
				"energy": -0.31476,
				"method": "rhf"
			},
			{
				"type": "unocc",
				"energy": -0.08303,
				"method": "rhf"
			},
			{
				"type": "unocc",
				"energy": 0.04152,
				"method": "rhf"
			},
			{
				"type": "unocc",
				"energy": 0.05131,
				"method": "rhf"
			},
			{
				"type": "unocc",
				"energy": 0.06569,
				"method": "rhf"
			},
			{
				"type": "unocc",
				"energy": 0.08182,
				"method": "rhf"
			}
		],
		"cosmo_sigma_profile": { 
			"-0.025": 0.0,
			"-0.024": 0.0,
			"-0.023": 0.0,
			"-0.022": 0.0,
			"-0.021": 0.0,
			"-0.02": 0.0,
			"-0.019": 0.0,
			"-0.018": 0.0,
			"-0.017": 0.0,
			"-0.016": 0.0,
			"-0.015": 0.0,
			"-0.014": 0.0,
			"-0.013": 0.0,
			"-0.012": 0.0461808575299,
			"-0.011": 0.713672821477,
			"-0.01": 2.06895155092,
			"-0.009": 4.07879861337,
			"-0.008": 4.50046073555,
			"-0.007": 4.2251069208,
			"-0.006": 6.93174742723,
			"-0.005": 5.51918934342,
			"-0.004": 8.24716185173,
			"-0.003": 18.0568824807,
			"-0.002": 23.5720020927,
			"-0.001": 19.7423940604,
			"0.0": 19.3494722811,
			"0.001": 26.7533086379,
			"0.002": 19.5333692064,
			"0.003": 12.0008866934,
			"0.004": 10.9457425748,
			"0.005": 3.80881571729,
			"0.006": 3.10871405673,
			"0.007": 3.8361606216,
			"0.008": 8.36601953773,
			"0.009": 7.70816770166,
			"0.01": 0.913364106614,
			"0.011": 0.0,
			"0.012": 0.0,
			"0.013": 0.0,
			"0.014": 0.0,
			"0.015": 0.0,
			"0.016": 0.0,
			"0.017": 0.0,
			"0.018": 0.0,
			"0.019": 0.0,
			"0.02": 0.0,
			"0.021": 0.0,
			"0.022": 0.0,
			"0.023": 0.0,
			"0.024": 0.0,
			"0.025": 0.0
		}
	}
}
