{
	 "smiles": "CCNC(=O)C1CC(C)CCC1C(C)C", 
	 "Tm": 361.15, 
	 "num_atms": 40, 
	 "gaussian": { 
		 "optdone": 1, 
		 "sigma_profile": "yes", 
		 "theory": "DFT", 
		 "functional": "B3LYP", 
		 "basiset": "6-31G**", 
		 "properties": { 
			 "R2extent": 4465.8474, 
			 "electric_dipole_moment_norm": 3.14687779394, 
			 "electric_quadrupole_moment_norm": 9.59236867254, 
			 "total_energy": -640.47257453, 
			 "HOMO_LUMO_gap": 0.26869, 
			 "cosmo_polarized_energy": -10.78, 
			 "cosmo_cavitation_energy": 37.68, 
			 "cosmo_dispersion_energy": -25.7, 
			 "cosmo_repulsion_energy": 2.0, 
			 "cosmo_total_nonelectrostatic_energy": 13.99, 
			 "SMD_solvation_energy": 5.96 
		},
		"coords": [
			{
				"x": 1.4001562214,
				"y": 2.2734898678,
				"z": -2.7376974211,
				"element": "C" 
			},
			{
				"x": 0.818040886,
				"y": 0.8880229479,
				"z": -3.0287203301,
				"element": "C" 
			},
			{
				"x": 0.3027450815,
				"y": 0.2254453881,
				"z": -1.8383523038,
				"element": "N" 
			},
			{
				"x": 0.8494516791,
				"y": -0.9185309431,
				"z": -1.3199453315,
				"element": "C" 
			},
			{
				"x": 1.7915409416,
				"y": -1.4977154334,
				"z": -1.8546752412,
				"element": "O" 
			},
			{
				"x": 0.1639516219,
				"y": -1.4314772959,
				"z": -0.0471003498,
				"element": "C" 
			},
			{
				"x": 0.5046969015,
				"y": -2.9114349748,
				"z": 0.2019899267,
				"element": "C" 
			},
			{
				"x": -0.3348973605,
				"y": -3.5335289627,
				"z": 1.3403962699,
				"element": "C" 
			},
			{
				"x": -1.7778934154,
				"y": -3.8386587644,
				"z": 0.9010952676,
				"element": "C" 
			},
			{
				"x": -0.2870420596,
				"y": -2.643073966,
				"z": 2.6026321423,
				"element": "C" 
			},
			{
				"x": -0.5908669158,
				"y": -1.1653601509,
				"z": 2.3032148594,
				"element": "C" 
			},
			{
				"x": 0.3680949659,
				"y": -0.5658961428,
				"z": 1.2437708233,
				"element": "C" 
			},
			{
				"x": 1.8368269692,
				"y": -0.4251228022,
				"z": 1.7520267166,
				"element": "C" 
			},
			{
				"x": 1.8974566525,
				"y": 0.2355710748,
				"z": 3.1428429122,
				"element": "C" 
			},
			{
				"x": 2.7355815661,
				"y": 0.3711598506,
				"z": 0.7879458708,
				"element": "C" 
			},
			{
				"x": 1.761106264,
				"y": 2.7374656784,
				"z": -3.6616906045,
				"element": "H" 
			},
			{
				"x": 2.2373286116,
				"y": 2.204181418,
				"z": -2.0372626586,
				"element": "H" 
			},
			{
				"x": 0.6473899183,
				"y": 2.9416950451,
				"z": -2.3033436592,
				"element": "H" 
			},
			{
				"x": 0.0179345106,
				"y": 0.9647641667,
				"z": -3.7767424114,
				"element": "H" 
			},
			{
				"x": 1.5837945207,
				"y": 0.2215963374,
				"z": -3.4310144141,
				"element": "H" 
			},
			{
				"x": -0.4698439472,
				"y": 0.6528188745,
				"z": -1.3488535419,
				"element": "H" 
			},
			{
				"x": -0.9134914598,
				"y": -1.3660835762,
				"z": -0.2599015659,
				"element": "H" 
			},
			{
				"x": 1.571999158,
				"y": -2.9977759668,
				"z": 0.4297910689,
				"element": "H" 
			},
			{
				"x": 0.3581904169,
				"y": -3.47656283,
				"z": -0.7244553901,
				"element": "H" 
			},
			{
				"x": 0.1258467558,
				"y": -4.4974619934,
				"z": 1.5958968425,
				"element": "H" 
			},
			{
				"x": -2.3323246477,
				"y": -4.3364545423,
				"z": 1.7043789937,
				"element": "H" 
			},
			{
				"x": -1.7877444403,
				"y": -4.5009170229,
				"z": 0.0285566092,
				"element": "H" 
			},
			{
				"x": -2.336941602,
				"y": -2.9359125487,
				"z": 0.6321581725,
				"element": "H" 
			},
			{
				"x": 0.7086225082,
				"y": -2.7206838165,
				"z": 3.057627581,
				"element": "H" 
			},
			{
				"x": -0.9937818771,
				"y": -3.0224644587,
				"z": 3.3514416625,
				"element": "H" 
			},
			{
				"x": -0.5615755213,
				"y": -0.5818456661,
				"z": 3.2277326667,
				"element": "H" 
			},
			{
				"x": -1.6184445511,
				"y": -1.0727581656,
				"z": 1.927791239,
				"element": "H" 
			},
			{
				"x": 0.019007804,
				"y": 0.4556797146,
				"z": 1.025726301,
				"element": "H" 
			},
			{
				"x": 2.2712206693,
				"y": -1.4283544914,
				"z": 1.8486378276,
				"element": "H" 
			},
			{
				"x": 1.4430401115,
				"y": -0.3766699502,
				"z": 3.9262571707,
				"element": "H" 
			},
			{
				"x": 2.9391562279,
				"y": 0.4105568556,
				"z": 3.4311377374,
				"element": "H" 
			},
			{
				"x": 1.3905631533,
				"y": 1.2090517649,
				"z": 3.1408652929,
				"element": "H" 
			},
			{
				"x": 3.7272895221,
				"y": 0.5118383117,
				"z": 1.2316212425,
				"element": "H" 
			},
			{
				"x": 2.8752344303,
				"y": -0.1350553648,
				"z": -0.1675591981,
				"element": "H" 
			},
			{
				"x": 2.3189797287,
				"y": 1.3681625337,
				"z": 0.5972792244,
				"element": "H" 
			}
		],
		 "valence_orbital": [ 
			{
				"type": "occ",
				"energy": -0.30163,
				"method": "rhf"
			},
			{
				"type": "occ",
				"energy": -0.29222,
				"method": "rhf"
			},
			{
				"type": "occ",
				"energy": -0.28849,
				"method": "rhf"
			},
			{
				"type": "occ",
				"energy": -0.24432,
				"method": "rhf"
			},
			{
				"type": "occ",
				"energy": -0.23759,
				"method": "rhf"
			},
			{
				"type": "unocc",
				"energy": 0.0311,
				"method": "rhf"
			},
			{
				"type": "unocc",
				"energy": 0.06288,
				"method": "rhf"
			},
			{
				"type": "unocc",
				"energy": 0.07839,
				"method": "rhf"
			},
			{
				"type": "unocc",
				"energy": 0.0969,
				"method": "rhf"
			},
			{
				"type": "unocc",
				"energy": 0.11021,
				"method": "rhf"
			}
		],
		"cosmo_sigma_profile": { 
			"-0.025": 0.0,
			"-0.024": 0.0,
			"-0.023": 0.0,
			"-0.022": 0.0,
			"-0.021": 0.0,
			"-0.02": 0.0,
			"-0.019": 0.0,
			"-0.018": 0.0,
			"-0.017": 0.0,
			"-0.016": 0.0,
			"-0.015": 0.0,
			"-0.014": 0.0428435446261,
			"-0.013": 0.785130760906,
			"-0.012": 1.39478733895,
			"-0.011": 0.776941798298,
			"-0.01": 1.3983570004,
			"-0.009": 1.43768251985,
			"-0.008": 1.85957730817,
			"-0.007": 1.93392174702,
			"-0.006": 1.75417122152,
			"-0.005": 2.84825848906,
			"-0.004": 9.38801601982,
			"-0.003": 18.1065223467,
			"-0.002": 45.3048638633,
			"-0.001": 54.4436548962,
			"0.0": 49.5585494516,
			"0.001": 42.4807597841,
			"0.002": 24.2863529721,
			"0.003": 5.80007985481,
			"0.004": 3.40628789876,
			"0.005": 1.74058910289,
			"0.006": 1.75264075548,
			"0.007": 2.16413675843,
			"0.008": 1.88052185777,
			"0.009": 1.07914619383,
			"0.01": 1.81658917931,
			"0.011": 1.50508459187,
			"0.012": 1.38696191144,
			"0.013": 2.04967680902,
			"0.014": 3.61997332033,
			"0.015": 2.71555298383,
			"0.016": 0.143764108674,
			"0.017": 0.0,
			"0.018": 0.0,
			"0.019": 0.0,
			"0.02": 0.0,
			"0.021": 0.0,
			"0.022": 0.0,
			"0.023": 0.0,
			"0.024": 0.0,
			"0.025": 0.0
		}
	}
}
