{
	 "smiles": "OC(=O)CF", 
	 "Tm": 308.35, 
	 "num_atms": 8, 
	 "gaussian": { 
		 "optdone": 1, 
		 "sigma_profile": "yes", 
		 "theory": "DFT", 
		 "functional": "B3LYP", 
		 "basiset": "6-31G**", 
		 "properties": { 
			 "R2extent": 481.5973, 
			 "electric_dipole_moment_norm": 2.97749487657, 
			 "electric_quadrupole_moment_norm": 6.80105646058, 
			 "total_energy": -328.302030078, 
			 "HOMO_LUMO_gap": 0.28154, 
			 "cosmo_polarized_energy": -10.41, 
			 "cosmo_cavitation_energy": 12.53, 
			 "cosmo_dispersion_energy": -9.43, 
			 "cosmo_repulsion_energy": 0.85, 
			 "cosmo_total_nonelectrostatic_energy": 3.95, 
			 "SMD_solvation_energy": 4.38 
		},
		"coords": [
			{
				"x": -0.1587264144,
				"y": -0.2047065248,
				"z": 0.811256263,
				"element": "O" 
			},
			{
				"x": 0.8499725037,
				"y": -0.5246357652,
				"z": -0.0157332681,
				"element": "C" 
			},
			{
				"x": 2.0130454757,
				"y": -0.4391439337,
				"z": 0.2850468427,
				"element": "O" 
			},
			{
				"x": 0.4117062494,
				"y": -1.0165577926,
				"z": -1.3932804733,
				"element": "C" 
			},
			{
				"x": -0.9829782386,
				"y": -1.0233053762,
				"z": -1.488755635,
				"element": "F" 
			},
			{
				"x": -0.9936823717,
				"y": -0.3605523238,
				"z": 0.336323564,
				"element": "H" 
			},
			{
				"x": 0.7870150586,
				"y": -2.0316151367,
				"z": -1.5526269314,
				"element": "H" 
			},
			{
				"x": 0.8206477373,
				"y": -0.3545831469,
				"z": -2.1621303618,
				"element": "H" 
			}
		],
		 "valence_orbital": [ 
			{
				"type": "occ",
				"energy": -0.41756,
				"method": "rhf"
			},
			{
				"type": "occ",
				"energy": -0.39315,
				"method": "rhf"
			},
			{
				"type": "occ",
				"energy": -0.37913,
				"method": "rhf"
			},
			{
				"type": "occ",
				"energy": -0.32435,
				"method": "rhf"
			},
			{
				"type": "occ",
				"energy": -0.28369,
				"method": "rhf"
			},
			{
				"type": "unocc",
				"energy": -0.00215,
				"method": "rhf"
			},
			{
				"type": "unocc",
				"energy": 0.06302,
				"method": "rhf"
			},
			{
				"type": "unocc",
				"energy": 0.1047,
				"method": "rhf"
			},
			{
				"type": "unocc",
				"energy": 0.10939,
				"method": "rhf"
			},
			{
				"type": "unocc",
				"energy": 0.15546,
				"method": "rhf"
			}
		],
		"cosmo_sigma_profile": { 
			"-0.025": 0.0,
			"-0.024": 0.0,
			"-0.023": 0.0,
			"-0.022": 0.0,
			"-0.021": 0.0,
			"-0.02": 0.0,
			"-0.019": 0.0,
			"-0.018": 0.0,
			"-0.017": 0.017312243349,
			"-0.016": 0.772273085156,
			"-0.015": 0.606589753784,
			"-0.014": 0.465229444876,
			"-0.013": 0.298263837286,
			"-0.012": 1.27825005391,
			"-0.011": 1.13470798515,
			"-0.01": 1.76047702694,
			"-0.009": 7.7212033531,
			"-0.008": 7.57051179333,
			"-0.007": 6.83477336105,
			"-0.006": 4.82122255028,
			"-0.005": 2.97288320725,
			"-0.004": 2.87307819267,
			"-0.003": 3.65294070681,
			"-0.002": 2.13835681047,
			"-0.001": 2.98827346151,
			"0.0": 3.10636579412,
			"0.001": 3.66672384791,
			"0.002": 2.86712870426,
			"0.003": 4.24129606918,
			"0.004": 5.92028997224,
			"0.005": 4.92183490184,
			"0.006": 2.73590826169,
			"0.007": 2.63272760722,
			"0.008": 3.08267313323,
			"0.009": 4.84999315433,
			"0.01": 3.99030592503,
			"0.011": 5.4464126289,
			"0.012": 3.83633347535,
			"0.013": 0.499280619784,
			"0.014": 0.0,
			"0.015": 0.0,
			"0.016": 0.0,
			"0.017": 0.0,
			"0.018": 0.0,
			"0.019": 0.0,
			"0.02": 0.0,
			"0.021": 0.0,
			"0.022": 0.0,
			"0.023": 0.0,
			"0.024": 0.0,
			"0.025": 0.0
		}
	}
}
