{
	 "smiles": "CC(C)C1CCC(C)CC1OC(=O)CC#N", 
	 "Tm": 357.15, 
	 "num_atms": 37, 
	 "gaussian": { 
		 "optdone": 1, 
		 "sigma_profile": "yes", 
		 "theory": "DFT", 
		 "functional": "B3LYP", 
		 "basiset": "6-31G**", 
		 "properties": { 
			 "R2extent": 4973.8555, 
			 "electric_dipole_moment_norm": 5.94351854292, 
			 "electric_quadrupole_moment_norm": 31.1136827136, 
			 "total_energy": -713.258480135, 
			 "HOMO_LUMO_gap": 0.28145, 
			 "cosmo_polarized_energy": -13.3, 
			 "cosmo_cavitation_energy": 37.93, 
			 "cosmo_dispersion_energy": -25.46, 
			 "cosmo_repulsion_energy": 2.0, 
			 "cosmo_total_nonelectrostatic_energy": 14.47, 
			 "SMD_solvation_energy": 8.12 
		},
		"coords": [
			{
				"x": 0.8927767472,
				"y": -1.4492281988,
				"z": 2.9971111243,
				"element": "C" 
			},
			{
				"x": -0.0630839955,
				"y": -0.670151283,
				"z": 2.0742816535,
				"element": "C" 
			},
			{
				"x": -1.3748970827,
				"y": -1.462870992,
				"z": 1.9411370848,
				"element": "C" 
			},
			{
				"x": 0.6545266979,
				"y": -0.2853133737,
				"z": 0.741308983,
				"element": "C" 
			},
			{
				"x": 1.6645899553,
				"y": 0.858052242,
				"z": 1.0179465277,
				"element": "C" 
			},
			{
				"x": 2.4210167129,
				"y": 1.3500274054,
				"z": -0.2201968871,
				"element": "C" 
			},
			{
				"x": 1.4528346795,
				"y": 1.8258130324,
				"z": -1.311208869,
				"element": "C" 
			},
			{
				"x": 2.1806917042,
				"y": 2.3162643159,
				"z": -2.5674429659,
				"element": "C" 
			},
			{
				"x": 0.4792439731,
				"y": 0.6849870599,
				"z": -1.6382055075,
				"element": "C" 
			},
			{
				"x": -0.268326749,
				"y": 0.1441491954,
				"z": -0.4126143314,
				"element": "C" 
			},
			{
				"x": -0.9996699945,
				"y": -1.0410422473,
				"z": -0.8727280227,
				"element": "O" 
			},
			{
				"x": -2.2358026978,
				"y": -0.8553754483,
				"z": -1.3612490881,
				"element": "C" 
			},
			{
				"x": -2.822046181,
				"y": 0.1983571147,
				"z": -1.4327025539,
				"element": "O" 
			},
			{
				"x": -2.8010905819,
				"y": -2.2112752876,
				"z": -1.7974473595,
				"element": "C" 
			},
			{
				"x": -4.1035311145,
				"y": -2.1120093093,
				"z": -2.4510849957,
				"element": "C" 
			},
			{
				"x": -5.1362986867,
				"y": -2.0712069068,
				"z": -2.9762491852,
				"element": "N" 
			},
			{
				"x": 1.827977979,
				"y": -0.9163190227,
				"z": 3.188966275,
				"element": "H" 
			},
			{
				"x": 1.1466996511,
				"y": -2.4210723043,
				"z": 2.556488541,
				"element": "H" 
			},
			{
				"x": 0.4213337128,
				"y": -1.6403291868,
				"z": 3.9666641695,
				"element": "H" 
			},
			{
				"x": -0.3164271726,
				"y": 0.2756927988,
				"z": 2.5764547506,
				"element": "H" 
			},
			{
				"x": -1.7575131458,
				"y": -1.7021044485,
				"z": 2.9394220882,
				"element": "H" 
			},
			{
				"x": -2.1546042492,
				"y": -0.8968336566,
				"z": 1.4249994058,
				"element": "H" 
			},
			{
				"x": -1.2229110671,
				"y": -2.4074119865,
				"z": 1.4085099828,
				"element": "H" 
			},
			{
				"x": 1.213003065,
				"y": -1.1635718384,
				"z": 0.3828500188,
				"element": "H" 
			},
			{
				"x": 2.3783877031,
				"y": 0.5340207957,
				"z": 1.7808147338,
				"element": "H" 
			},
			{
				"x": 1.1158985515,
				"y": 1.7050652248,
				"z": 1.4551187386,
				"element": "H" 
			},
			{
				"x": 3.0481231303,
				"y": 0.5410441689,
				"z": -0.6228109955,
				"element": "H" 
			},
			{
				"x": 3.1032323324,
				"y": 2.1613150873,
				"z": 0.0624903735,
				"element": "H" 
			},
			{
				"x": 0.8719107396,
				"y": 2.6670464236,
				"z": -0.9024130952,
				"element": "H" 
			},
			{
				"x": 1.4741310766,
				"y": 2.6692911475,
				"z": -3.3262066842,
				"element": "H" 
			},
			{
				"x": 2.7764526969,
				"y": 1.5116198519,
				"z": -3.0150302384,
				"element": "H" 
			},
			{
				"x": 2.8605432473,
				"y": 3.1421500803,
				"z": -2.3322246689,
				"element": "H" 
			},
			{
				"x": -0.2604050603,
				"y": 1.0089714135,
				"z": -2.3787636185,
				"element": "H" 
			},
			{
				"x": 1.0410932508,
				"y": -0.14722717,
				"z": -2.0849440844,
				"element": "H" 
			},
			{
				"x": -1.0064045443,
				"y": 0.8761925404,
				"z": -0.0693784052,
				"element": "H" 
			},
			{
				"x": -2.8803866387,
				"y": -2.8528143887,
				"z": -0.9118006753,
				"element": "H" 
			},
			{
				"x": -2.082968645,
				"y": -2.6976028494,
				"z": -2.4665622192,
				"element": "H" 
			}
		],
		 "valence_orbital": [ 
			{
				"type": "occ",
				"energy": -0.32733,
				"method": "rhf"
			},
			{
				"type": "occ",
				"energy": -0.3226,
				"method": "rhf"
			},
			{
				"type": "occ",
				"energy": -0.31048,
				"method": "rhf"
			},
			{
				"type": "occ",
				"energy": -0.29482,
				"method": "rhf"
			},
			{
				"type": "occ",
				"energy": -0.28775,
				"method": "rhf"
			},
			{
				"type": "unocc",
				"energy": -0.0063,
				"method": "rhf"
			},
			{
				"type": "unocc",
				"energy": 0.02825,
				"method": "rhf"
			},
			{
				"type": "unocc",
				"energy": 0.03624,
				"method": "rhf"
			},
			{
				"type": "unocc",
				"energy": 0.07136,
				"method": "rhf"
			},
			{
				"type": "unocc",
				"energy": 0.07597,
				"method": "rhf"
			}
		],
		"cosmo_sigma_profile": { 
			"-0.025": 0.0,
			"-0.024": 0.0,
			"-0.023": 0.0,
			"-0.022": 0.0,
			"-0.021": 0.0,
			"-0.02": 0.0,
			"-0.019": 0.0,
			"-0.018": 0.0,
			"-0.017": 0.0,
			"-0.016": 0.0,
			"-0.015": 0.0,
			"-0.014": 0.0,
			"-0.013": 0.0,
			"-0.012": 0.0,
			"-0.011": 0.813406619109,
			"-0.01": 4.79312039676,
			"-0.009": 4.69849624295,
			"-0.008": 4.62898366598,
			"-0.007": 4.53732430464,
			"-0.006": 4.26823524835,
			"-0.005": 3.8569731207,
			"-0.004": 9.15561359647,
			"-0.003": 25.565710407,
			"-0.002": 50.06326221,
			"-0.001": 43.2690928855,
			"0.0": 38.4295451514,
			"0.001": 31.5411311925,
			"0.002": 15.7866921136,
			"0.003": 5.7539971573,
			"0.004": 3.79769981458,
			"0.005": 4.83642930179,
			"0.006": 4.42801072244,
			"0.007": 6.4116856778,
			"0.008": 6.05656226346,
			"0.009": 4.84454542973,
			"0.01": 5.59047046352,
			"0.011": 7.39302656004,
			"0.012": 2.8109320242,
			"0.013": 1.11637023125,
			"0.014": 0.0,
			"0.015": 0.0,
			"0.016": 0.0,
			"0.017": 0.0,
			"0.018": 0.0,
			"0.019": 0.0,
			"0.02": 0.0,
			"0.021": 0.0,
			"0.022": 0.0,
			"0.023": 0.0,
			"0.024": 0.0,
			"0.025": 0.0
		}
	}
}
