{
	 "smiles": "COC1=CC(F)=C(C=C1)C1=CC(F)=C(C=C1)C(O)=O", 
	 "Tm": 486.15, 
	 "num_atms": 29, 
	 "gaussian": { 
		 "optdone": 1, 
		 "sigma_profile": "yes", 
		 "theory": "DFT", 
		 "functional": "B3LYP", 
		 "basiset": "6-31G**", 
		 "properties": { 
			 "R2extent": 8561.3215, 
			 "electric_dipole_moment_norm": 7.69420253308, 
			 "electric_quadrupole_moment_norm": 27.1890124074, 
			 "total_energy": -964.854432691, 
			 "HOMO_LUMO_gap": 0.16839, 
			 "cosmo_polarized_energy": -18.03, 
			 "cosmo_cavitation_energy": 35.01, 
			 "cosmo_dispersion_energy": -25.31, 
			 "cosmo_repulsion_energy": 1.88, 
			 "cosmo_total_nonelectrostatic_energy": 11.58, 
			 "SMD_solvation_energy": 8.55 
		},
		"coords": [
			{
				"x": -4.0835308666,
				"y": 1.4632218053,
				"z": -2.5220169539,
				"element": "C" 
			},
			{
				"x": -2.723054547,
				"y": 1.5902241192,
				"z": -2.9148935721,
				"element": "O" 
			},
			{
				"x": -1.7595374101,
				"y": 1.4029323146,
				"z": -1.9762685501,
				"element": "C" 
			},
			{
				"x": -0.4391006569,
				"y": 1.5338307435,
				"z": -2.4288558499,
				"element": "C" 
			},
			{
				"x": 0.6024617261,
				"y": 1.3624565053,
				"z": -1.5366169652,
				"element": "C" 
			},
			{
				"x": 1.8583068401,
				"y": 1.4849467644,
				"z": -2.0229135435,
				"element": "F" 
			},
			{
				"x": 0.4163667798,
				"y": 1.0542518541,
				"z": -0.177099226,
				"element": "C" 
			},
			{
				"x": -0.9194561247,
				"y": 0.9330428864,
				"z": 0.2373320605,
				"element": "C" 
			},
			{
				"x": -1.9985308163,
				"y": 1.1016239217,
				"z": -0.6285385387,
				"element": "C" 
			},
			{
				"x": 1.5392111896,
				"y": 0.8566292862,
				"z": 0.7691652776,
				"element": "C" 
			},
			{
				"x": 1.4303885995,
				"y": -0.0993797986,
				"z": 1.792427079,
				"element": "C" 
			},
			{
				"x": 2.4596477251,
				"y": -0.275564779,
				"z": 2.7059661451,
				"element": "C" 
			},
			{
				"x": 2.2940100825,
				"y": -1.1963997478,
				"z": 3.6658730862,
				"element": "F" 
			},
			{
				"x": 3.6335421114,
				"y": 0.4873014048,
				"z": 2.6629944885,
				"element": "C" 
			},
			{
				"x": 3.7358352885,
				"y": 1.4350039426,
				"z": 1.6307237139,
				"element": "C" 
			},
			{
				"x": 2.7212252368,
				"y": 1.6183100908,
				"z": 0.6991330995,
				"element": "C" 
			},
			{
				"x": 4.7496083446,
				"y": 0.2500743551,
				"z": 3.6330763032,
				"element": "C" 
			},
			{
				"x": 5.4799103465,
				"y": 1.3558133207,
				"z": 3.9594407046,
				"element": "O" 
			},
			{
				"x": 5.0354419838,
				"y": -0.8241517762,
				"z": 4.0988597284,
				"element": "O" 
			},
			{
				"x": -4.6724646497,
				"y": 1.6438924219,
				"z": -3.4219525258,
				"element": "H" 
			},
			{
				"x": -4.3530375314,
				"y": 2.2035326239,
				"z": -1.7586231677,
				"element": "H" 
			},
			{
				"x": -4.3006997294,
				"y": 0.4569969328,
				"z": -2.1429933831,
				"element": "H" 
			},
			{
				"x": -0.2363946913,
				"y": 1.7586805429,
				"z": -3.4690769702,
				"element": "H" 
			},
			{
				"x": -1.1218763959,
				"y": 0.7237996023,
				"z": 1.2829949666,
				"element": "H" 
			},
			{
				"x": -3.0066833333,
				"y": 1.0064936489,
				"z": -0.2453459764,
				"element": "H" 
			},
			{
				"x": 0.5569896357,
				"y": -0.735689457,
				"z": 1.8791306638,
				"element": "H" 
			},
			{
				"x": 4.6475557797,
				"y": 2.0189436928,
				"z": 1.5350651036,
				"element": "H" 
			},
			{
				"x": 2.842983418,
				"y": 2.3527365919,
				"z": -0.0863000679,
				"element": "H" 
			},
			{
				"x": 5.0313816647,
				"y": 2.1519461866,
				"z": 3.6416128696,
				"element": "H" 
			}
		],
		 "valence_orbital": [ 
			{
				"type": "occ",
				"energy": -0.28376,
				"method": "rhf"
			},
			{
				"type": "occ",
				"energy": -0.26883,
				"method": "rhf"
			},
			{
				"type": "occ",
				"energy": -0.26296,
				"method": "rhf"
			},
			{
				"type": "occ",
				"energy": -0.26037,
				"method": "rhf"
			},
			{
				"type": "occ",
				"energy": -0.22825,
				"method": "rhf"
			},
			{
				"type": "unocc",
				"energy": -0.05986,
				"method": "rhf"
			},
			{
				"type": "unocc",
				"energy": -0.01987,
				"method": "rhf"
			},
			{
				"type": "unocc",
				"energy": -0.0171,
				"method": "rhf"
			},
			{
				"type": "unocc",
				"energy": 0.00182,
				"method": "rhf"
			},
			{
				"type": "unocc",
				"energy": 0.04603,
				"method": "rhf"
			}
		],
		"cosmo_sigma_profile": { 
			"-0.025": 0.0,
			"-0.024": 0.0,
			"-0.023": 0.0,
			"-0.022": 0.0,
			"-0.021": 0.0,
			"-0.02": 0.0,
			"-0.019": 0.101013658012,
			"-0.018": 0.899737857301,
			"-0.017": 0.662929040341,
			"-0.016": 1.01713298749,
			"-0.015": 1.25570309179,
			"-0.014": 1.01557635865,
			"-0.013": 0.716370159792,
			"-0.012": 1.22020071886,
			"-0.011": 1.18005371599,
			"-0.01": 1.38986388969,
			"-0.009": 1.78751604247,
			"-0.008": 3.28579477638,
			"-0.007": 9.65933297395,
			"-0.006": 17.2434294973,
			"-0.005": 19.1591114061,
			"-0.004": 17.776207668,
			"-0.003": 17.0974386734,
			"-0.002": 14.0229387508,
			"-0.001": 12.5345194694,
			"0.0": 22.3169785303,
			"0.001": 23.1227476935,
			"0.002": 27.1357101755,
			"0.003": 24.6870650569,
			"0.004": 19.9783626219,
			"0.005": 5.98175536802,
			"0.006": 3.79300814645,
			"0.007": 3.94509194154,
			"0.008": 5.17278250154,
			"0.009": 5.02408793267,
			"0.01": 6.22330037494,
			"0.011": 6.37564336955,
			"0.012": 4.5109459701,
			"0.013": 0.970009389299,
			"0.014": 0.0,
			"0.015": 0.0,
			"0.016": 0.0,
			"0.017": 0.0,
			"0.018": 0.0,
			"0.019": 0.0,
			"0.02": 0.0,
			"0.021": 0.0,
			"0.022": 0.0,
			"0.023": 0.0,
			"0.024": 0.0,
			"0.025": 0.0
		}
	}
}
