{
	 "smiles": "CCC(=O)N(C)C1=C(C=CC=C1)C(O)=O", 
	 "Tm": 467.15, 
	 "num_atms": 28, 
	 "gaussian": { 
		 "optdone": 1, 
		 "sigma_profile": "yes", 
		 "theory": "DFT", 
		 "functional": "B3LYP", 
		 "basiset": "6-31G**", 
		 "properties": { 
			 "R2extent": 3979.308, 
			 "electric_dipole_moment_norm": 5.20672449338, 
			 "electric_quadrupole_moment_norm": 9.1517930205, 
			 "total_energy": -707.458085107, 
			 "HOMO_LUMO_gap": 0.16911, 
			 "cosmo_polarized_energy": -15.25, 
			 "cosmo_cavitation_energy": 31.27, 
			 "cosmo_dispersion_energy": -21.86, 
			 "cosmo_repulsion_energy": 1.73, 
			 "cosmo_total_nonelectrostatic_energy": 11.15, 
			 "SMD_solvation_energy": 7.54 
		},
		"coords": [
			{
				"x": 0.4993376841,
				"y": 0.6559400578,
				"z": -3.2427342798,
				"element": "C" 
			},
			{
				"x": -0.1031185368,
				"y": 0.8482799386,
				"z": -1.8519873449,
				"element": "C" 
			},
			{
				"x": -0.2941122022,
				"y": -0.4776189504,
				"z": -1.1205761379,
				"element": "C" 
			},
			{
				"x": -0.118415969,
				"y": -1.5546453433,
				"z": -1.6740139374,
				"element": "O" 
			},
			{
				"x": -0.6744667551,
				"y": -0.4042032716,
				"z": 0.2114132084,
				"element": "N" 
			},
			{
				"x": -1.033272021,
				"y": -1.6387032102,
				"z": 0.9094412813,
				"element": "C" 
			},
			{
				"x": -0.9321897341,
				"y": 0.8229383938,
				"z": 0.8966026568,
				"element": "C" 
			},
			{
				"x": -2.2062609725,
				"y": 1.4390686209,
				"z": 0.939675119,
				"element": "C" 
			},
			{
				"x": -2.3729656578,
				"y": 2.6122496973,
				"z": 1.6949376449,
				"element": "C" 
			},
			{
				"x": -1.3097984204,
				"y": 3.1776960647,
				"z": 2.3925198241,
				"element": "C" 
			},
			{
				"x": -0.0550332534,
				"y": 2.5692326964,
				"z": 2.3506310354,
				"element": "C" 
			},
			{
				"x": 0.1227218983,
				"y": 1.3995440816,
				"z": 1.6135174094,
				"element": "C" 
			},
			{
				"x": -3.36764375,
				"y": 0.8900812975,
				"z": 0.1812285271,
				"element": "C" 
			},
			{
				"x": -4.5331915829,
				"y": 1.5129163321,
				"z": 0.4984532843,
				"element": "O" 
			},
			{
				"x": -3.3343831567,
				"y": -0.0015790126,
				"z": -0.6431048526,
				"element": "O" 
			},
			{
				"x": -0.122906894,
				"y": -0.0094102341,
				"z": -3.8450406757,
				"element": "H" 
			},
			{
				"x": 0.5879080666,
				"y": 1.6178610252,
				"z": -3.7571660776,
				"element": "H" 
			},
			{
				"x": 1.4929366709,
				"y": 0.2035865563,
				"z": -3.1818055938,
				"element": "H" 
			},
			{
				"x": 0.5153412516,
				"y": 1.5212553704,
				"z": -1.2471388365,
				"element": "H" 
			},
			{
				"x": -1.0874830589,
				"y": 1.3282294099,
				"z": -1.9230998733,
				"element": "H" 
			},
			{
				"x": -2.1210688419,
				"y": -1.7388048501,
				"z": 0.9950919841,
				"element": "H" 
			},
			{
				"x": -0.6475662173,
				"y": -2.4696795595,
				"z": 0.3198968277,
				"element": "H" 
			},
			{
				"x": -0.5872584955,
				"y": -1.6495683745,
				"z": 1.9088361099,
				"element": "H" 
			},
			{
				"x": -3.3501921405,
				"y": 3.0787688146,
				"z": 1.722970627,
				"element": "H" 
			},
			{
				"x": -1.4612948305,
				"y": 4.0870257128,
				"z": 2.9658053005,
				"element": "H" 
			},
			{
				"x": 0.7819973401,
				"y": 2.9987954361,
				"z": 2.8932411103,
				"element": "H" 
			},
			{
				"x": 1.0892027421,
				"y": 0.9063483869,
				"z": 1.5802542491,
				"element": "H" 
			},
			{
				"x": -5.2084231632,
				"y": 1.0962949135,
				"z": -0.0620485898,
				"element": "H" 
			}
		],
		 "valence_orbital": [ 
			{
				"type": "occ",
				"energy": -0.28682,
				"method": "rhf"
			},
			{
				"type": "occ",
				"energy": -0.27623,
				"method": "rhf"
			},
			{
				"type": "occ",
				"energy": -0.2745,
				"method": "rhf"
			},
			{
				"type": "occ",
				"energy": -0.23774,
				"method": "rhf"
			},
			{
				"type": "occ",
				"energy": -0.23137,
				"method": "rhf"
			},
			{
				"type": "unocc",
				"energy": -0.06226,
				"method": "rhf"
			},
			{
				"type": "unocc",
				"energy": -0.02582,
				"method": "rhf"
			},
			{
				"type": "unocc",
				"energy": 0.03908,
				"method": "rhf"
			},
			{
				"type": "unocc",
				"energy": 0.04392,
				"method": "rhf"
			},
			{
				"type": "unocc",
				"energy": 0.07007,
				"method": "rhf"
			}
		],
		"cosmo_sigma_profile": { 
			"-0.025": 0.0,
			"-0.024": 0.0,
			"-0.023": 0.0,
			"-0.022": 0.0,
			"-0.021": 0.0,
			"-0.02": 0.0,
			"-0.019": 0.0656299877953,
			"-0.018": 0.709778425537,
			"-0.017": 1.28336713277,
			"-0.016": 0.583301569449,
			"-0.015": 0.382132248245,
			"-0.014": 0.67176582111,
			"-0.013": 0.347618193531,
			"-0.012": 1.09069464805,
			"-0.011": 1.17731066046,
			"-0.01": 0.402900233752,
			"-0.009": 0.569639403715,
			"-0.008": 0.507011762814,
			"-0.007": 5.30522058817,
			"-0.006": 9.61446361327,
			"-0.005": 11.5094118832,
			"-0.004": 18.1877634292,
			"-0.003": 24.7654978329,
			"-0.002": 29.6945845767,
			"-0.001": 26.4986875513,
			"0.0": 20.1597010658,
			"0.001": 19.3377706793,
			"0.002": 16.2210058964,
			"0.003": 12.1017242325,
			"0.004": 7.08408656123,
			"0.005": 4.03143073704,
			"0.006": 3.8284818566,
			"0.007": 3.51158239777,
			"0.008": 4.06474077016,
			"0.009": 4.0263060089,
			"0.01": 3.41871443583,
			"0.011": 4.61557500237,
			"0.012": 3.98140167361,
			"0.013": 3.35687463252,
			"0.014": 3.87442700811,
			"0.015": 0.398206011931,
			"0.016": 0.0,
			"0.017": 0.0,
			"0.018": 0.0,
			"0.019": 0.0,
			"0.02": 0.0,
			"0.021": 0.0,
			"0.022": 0.0,
			"0.023": 0.0,
			"0.024": 0.0,
			"0.025": 0.0
		}
	}
}
