{
	 "smiles": "COC1=C(C=CC=C1)C1=NN=C(S)O1", 
	 "Tm": 517.15, 
	 "num_atms": 22, 
	 "gaussian": { 
		 "optdone": 1, 
		 "sigma_profile": "yes", 
		 "theory": "DFT", 
		 "functional": "B3LYP", 
		 "basiset": "6-31G**", 
		 "properties": { 
			 "R2extent": 4864.4902, 
			 "electric_dipole_moment_norm": 4.42113253025, 
			 "electric_quadrupole_moment_norm": 23.411769664, 
			 "total_energy": -1005.86051614, 
			 "HOMO_LUMO_gap": 0.17284, 
			 "cosmo_polarized_energy": -16.02, 
			 "cosmo_cavitation_energy": 28.77, 
			 "cosmo_dispersion_energy": -21.83, 
			 "cosmo_repulsion_energy": 1.67, 
			 "cosmo_total_nonelectrostatic_energy": 8.61, 
			 "SMD_solvation_energy": 3.85 
		},
		"coords": [
			{
				"x": 1.7547273966,
				"y": -2.3792252609,
				"z": 1.0614182031,
				"element": "C" 
			},
			{
				"x": 1.0804509811,
				"y": -1.139098695,
				"z": 1.2172933686,
				"element": "O" 
			},
			{
				"x": 1.5027629827,
				"y": -0.0653219132,
				"z": 0.514736601,
				"element": "C" 
			},
			{
				"x": 0.7918130229,
				"y": 1.148545492,
				"z": 0.7099201133,
				"element": "C" 
			},
			{
				"x": 1.1982409331,
				"y": 2.2895652919,
				"z": -0.001024402,
				"element": "C" 
			},
			{
				"x": 2.2730035464,
				"y": 2.2525487528,
				"z": -0.883790869,
				"element": "C" 
			},
			{
				"x": 2.9635949667,
				"y": 1.0554609603,
				"z": -1.0677804175,
				"element": "C" 
			},
			{
				"x": 2.5841884733,
				"y": -0.0944272559,
				"z": -0.3761926175,
				"element": "C" 
			},
			{
				"x": -0.341729744,
				"y": 1.2404001142,
				"z": 1.6234497982,
				"element": "C" 
			},
			{
				"x": -0.9141386654,
				"y": 0.3572215933,
				"z": 2.3892141442,
				"element": "N" 
			},
			{
				"x": -1.9653176334,
				"y": 1.0015670968,
				"z": 3.0468311257,
				"element": "N" 
			},
			{
				"x": -1.9461806562,
				"y": 2.2259489699,
				"z": 2.6297391152,
				"element": "C" 
			},
			{
				"x": -3.0330316751,
				"y": 3.5158625911,
				"z": 3.123530741,
				"element": "S" 
			},
			{
				"x": -0.9598194609,
				"y": 2.4762294141,
				"z": 1.7311323614,
				"element": "O" 
			},
			{
				"x": 1.6967263092,
				"y": -2.7429972604,
				"z": 0.0279336573,
				"element": "H" 
			},
			{
				"x": 2.8075208555,
				"y": -2.3067158058,
				"z": 1.3616697652,
				"element": "H" 
			},
			{
				"x": 1.2381824432,
				"y": -3.0777311811,
				"z": 1.7201022435,
				"element": "H" 
			},
			{
				"x": 0.6548633222,
				"y": 3.2153996556,
				"z": 0.1492070647,
				"element": "H" 
			},
			{
				"x": 2.5664489758,
				"y": 3.1485575088,
				"z": -1.4206727336,
				"element": "H" 
			},
			{
				"x": 3.8050159701,
				"y": 1.0084329291,
				"z": -1.7530063502,
				"element": "H" 
			},
			{
				"x": 3.1323024327,
				"y": -1.0152637239,
				"z": -0.5318745441,
				"element": "H" 
			},
			{
				"x": -2.5046247767,
				"y": 4.4296407264,
				"z": 2.2872636314,
				"element": "H" 
			}
		],
		 "valence_orbital": [ 
			{
				"type": "occ",
				"energy": -0.30992,
				"method": "rhf"
			},
			{
				"type": "occ",
				"energy": -0.27692,
				"method": "rhf"
			},
			{
				"type": "occ",
				"energy": -0.26945,
				"method": "rhf"
			},
			{
				"type": "occ",
				"energy": -0.24338,
				"method": "rhf"
			},
			{
				"type": "occ",
				"energy": -0.2199,
				"method": "rhf"
			},
			{
				"type": "unocc",
				"energy": -0.04706,
				"method": "rhf"
			},
			{
				"type": "unocc",
				"energy": -0.00051,
				"method": "rhf"
			},
			{
				"type": "unocc",
				"energy": -0.00045,
				"method": "rhf"
			},
			{
				"type": "unocc",
				"energy": 0.01759,
				"method": "rhf"
			},
			{
				"type": "unocc",
				"energy": 0.05214,
				"method": "rhf"
			}
		],
		"cosmo_sigma_profile": { 
			"-0.025": 0.0,
			"-0.024": 0.0,
			"-0.023": 0.0,
			"-0.022": 0.0,
			"-0.021": 0.0,
			"-0.02": 0.0,
			"-0.019": 0.0,
			"-0.018": 0.0,
			"-0.017": 0.0,
			"-0.016": 0.0,
			"-0.015": 0.0,
			"-0.014": 0.153737827749,
			"-0.013": 1.68005586644,
			"-0.012": 1.68578632787,
			"-0.011": 1.58530702712,
			"-0.01": 1.5086342668,
			"-0.009": 1.17837157627,
			"-0.008": 1.39643859298,
			"-0.007": 5.52387385008,
			"-0.006": 15.6917684337,
			"-0.005": 19.4030518489,
			"-0.004": 19.6786799724,
			"-0.003": 18.1253769688,
			"-0.002": 13.7103292845,
			"-0.001": 16.0360424157,
			"0.0": 16.3856141331,
			"0.001": 18.8694702252,
			"0.002": 15.501061096,
			"0.003": 15.0183126739,
			"0.004": 14.4015923349,
			"0.005": 6.92867499968,
			"0.006": 3.23147441418,
			"0.007": 2.23257498504,
			"0.008": 3.23503443762,
			"0.009": 2.59345903831,
			"0.01": 2.20001679886,
			"0.011": 3.17280516694,
			"0.012": 3.54607349044,
			"0.013": 3.1963575507,
			"0.014": 2.25647932452,
			"0.015": 2.08743745316,
			"0.016": 1.43172093613,
			"0.017": 0.377441147188,
			"0.018": 0.0,
			"0.019": 0.0,
			"0.02": 0.0,
			"0.021": 0.0,
			"0.022": 0.0,
			"0.023": 0.0,
			"0.024": 0.0,
			"0.025": 0.0
		}
	}
}
