{
	 "smiles": "CC1=NN(C=C1C(O)=O)C1=CC=C(Br)C=C1", 
	 "Tm": 503.15, 
	 "num_atms": 25, 
	 "gaussian": { 
		 "optdone": 1, 
		 "sigma_profile": "yes", 
		 "theory": "DFT", 
		 "functional": "B3LYP", 
		 "basiset": "6-31G**", 
		 "properties": { 
			 "R2extent": 10262.4276, 
			 "electric_dipole_moment_norm": 3.22593183747, 
			 "electric_quadrupole_moment_norm": 20.4796209174, 
			 "total_energy": -3255.94594055, 
			 "HOMO_LUMO_gap": 0.18587, 
			 "cosmo_polarized_energy": -16.61, 
			 "cosmo_cavitation_energy": 32.45, 
			 "cosmo_dispersion_energy": -24.19, 
			 "cosmo_repulsion_energy": 1.86, 
			 "cosmo_total_nonelectrostatic_energy": 10.12, 
			 "SMD_solvation_energy": 4.95 
		},
		"coords": [
			{
				"x": 0.8729428784,
				"y": 2.2023454197,
				"z": 0.9112824212,
				"element": "C" 
			},
			{
				"x": 0.6814610124,
				"y": 1.084390386,
				"z": -0.0701355252,
				"element": "C" 
			},
			{
				"x": -0.3105422679,
				"y": 0.2221509586,
				"z": 0.1135451258,
				"element": "N" 
			},
			{
				"x": -0.2235132363,
				"y": -0.6647216366,
				"z": -0.9208529062,
				"element": "N" 
			},
			{
				"x": 0.8036399001,
				"y": -0.3676240507,
				"z": -1.7523307815,
				"element": "C" 
			},
			{
				"x": 1.4295143036,
				"y": 0.7581022851,
				"z": -1.2451019301,
				"element": "C" 
			},
			{
				"x": 2.6001925206,
				"y": 1.3715356929,
				"z": -1.9057078804,
				"element": "C" 
			},
			{
				"x": 3.1354550343,
				"y": 2.480285972,
				"z": -1.3260579472,
				"element": "O" 
			},
			{
				"x": 3.0873255643,
				"y": 0.9298609727,
				"z": -2.9221611271,
				"element": "O" 
			},
			{
				"x": -1.1609014592,
				"y": -1.7273646878,
				"z": -1.0213757556,
				"element": "C" 
			},
			{
				"x": -2.3723623712,
				"y": -1.6409493379,
				"z": -0.3276576649,
				"element": "C" 
			},
			{
				"x": -3.3018588212,
				"y": -2.6728751535,
				"z": -0.4254619016,
				"element": "C" 
			},
			{
				"x": -3.0197455598,
				"y": -3.7833630858,
				"z": -1.2204922981,
				"element": "C" 
			},
			{
				"x": -4.2973831209,
				"y": -5.1937351301,
				"z": -1.359862673,
				"element": "Br" 
			},
			{
				"x": -1.8124882965,
				"y": -3.878468924,
				"z": -1.9103515385,
				"element": "C" 
			},
			{
				"x": -0.877180483,
				"y": -2.8510977233,
				"z": -1.8042758353,
				"element": "C" 
			},
			{
				"x": 0.7750063556,
				"y": 3.1859658164,
				"z": 0.4344756306,
				"element": "H" 
			},
			{
				"x": 0.1106444764,
				"y": 2.1362185033,
				"z": 1.6897587087,
				"element": "H" 
			},
			{
				"x": 1.8528301531,
				"y": 2.1513814233,
				"z": 1.4026694689,
				"element": "H" 
			},
			{
				"x": 1.029228396,
				"y": -0.925664509,
				"z": -2.6469478486,
				"element": "H" 
			},
			{
				"x": 2.6522097904,
				"y": 2.7226136479,
				"z": -0.524953362,
				"element": "H" 
			},
			{
				"x": -2.5711959604,
				"y": -0.7687369711,
				"z": 0.2822669849,
				"element": "H" 
			},
			{
				"x": -4.2424280879,
				"y": -2.6101937222,
				"z": 0.1094386937,
				"element": "H" 
			},
			{
				"x": -1.595946568,
				"y": -4.7507700116,
				"z": -2.5158339329,
				"element": "H" 
			},
			{
				"x": 0.0730958471,
				"y": -2.9445861342,
				"z": -2.3181761256,
				"element": "H" 
			}
		],
		 "valence_orbital": [ 
			{
				"type": "occ",
				"energy": -0.28767,
				"method": "rhf"
			},
			{
				"type": "occ",
				"energy": -0.28123,
				"method": "rhf"
			},
			{
				"type": "occ",
				"energy": -0.27104,
				"method": "rhf"
			},
			{
				"type": "occ",
				"energy": -0.27014,
				"method": "rhf"
			},
			{
				"type": "occ",
				"energy": -0.23845,
				"method": "rhf"
			},
			{
				"type": "unocc",
				"energy": -0.05258,
				"method": "rhf"
			},
			{
				"type": "unocc",
				"energy": -0.0313,
				"method": "rhf"
			},
			{
				"type": "unocc",
				"energy": -0.01645,
				"method": "rhf"
			},
			{
				"type": "unocc",
				"energy": -0.00209,
				"method": "rhf"
			},
			{
				"type": "unocc",
				"energy": 0.01666,
				"method": "rhf"
			}
		],
		"cosmo_sigma_profile": { 
			"-0.025": 0.0,
			"-0.024": 0.0,
			"-0.023": 0.0,
			"-0.022": 0.0,
			"-0.021": 0.0,
			"-0.02": 0.0,
			"-0.019": 0.0,
			"-0.018": 0.0,
			"-0.017": 0.0,
			"-0.016": 0.0,
			"-0.015": 0.601188510237,
			"-0.014": 1.38831557615,
			"-0.013": 1.40965566857,
			"-0.012": 2.22620993764,
			"-0.011": 3.50059102167,
			"-0.01": 3.25492964139,
			"-0.009": 4.08356710489,
			"-0.008": 5.27752303797,
			"-0.007": 10.4707487216,
			"-0.006": 11.2567100734,
			"-0.005": 11.9134972254,
			"-0.004": 12.7437994556,
			"-0.003": 15.4196917671,
			"-0.002": 16.6550776535,
			"-0.001": 18.7100139201,
			"0.0": 19.2613833838,
			"0.001": 24.3469361434,
			"0.002": 27.0627291002,
			"0.003": 16.3848410387,
			"0.004": 15.0835258222,
			"0.005": 8.10877493157,
			"0.006": 3.30963404903,
			"0.007": 3.54665446618,
			"0.008": 3.85194650281,
			"0.009": 4.67818556547,
			"0.01": 4.82787230701,
			"0.011": 5.47394274336,
			"0.012": 6.34690274039,
			"0.013": 2.41271938009,
			"0.014": 0.457280755535,
			"0.015": 0.0,
			"0.016": 0.0,
			"0.017": 0.0,
			"0.018": 0.0,
			"0.019": 0.0,
			"0.02": 0.0,
			"0.021": 0.0,
			"0.022": 0.0,
			"0.023": 0.0,
			"0.024": 0.0,
			"0.025": 0.0
		}
	}
}
