{
	 "smiles": "[O-][N+](=O)C1=CC=CC=C1OCCCBr", 
	 "Tm": 310.65, 
	 "num_atms": 24, 
	 "gaussian": { 
		 "optdone": 1, 
		 "sigma_profile": "yes", 
		 "theory": "DFT", 
		 "functional": "B3LYP", 
		 "basiset": "6-31G**", 
		 "properties": { 
			 "R2extent": 6501.1245, 
			 "electric_dipole_moment_norm": 6.57383641795, 
			 "electric_quadrupole_moment_norm": 9.33146181314, 
			 "total_energy": -3200.70164202, 
			 "HOMO_LUMO_gap": 0.1681, 
			 "cosmo_polarized_energy": -14.21, 
			 "cosmo_cavitation_energy": 31.03, 
			 "cosmo_dispersion_energy": -22.52, 
			 "cosmo_repulsion_energy": 1.8, 
			 "cosmo_total_nonelectrostatic_energy": 10.31, 
			 "SMD_solvation_energy": 6.21 
		},
		"coords": [
			{
				"x": -2.0572845007,
				"y": 2.1236958898,
				"z": 0.2136175176,
				"element": "O" 
			},
			{
				"x": -1.8256303947,
				"y": 0.9268662088,
				"z": 0.022631666,
				"element": "N" 
			},
			{
				"x": -1.9244906975,
				"y": 0.0581559046,
				"z": 0.8864307052,
				"element": "O" 
			},
			{
				"x": -1.4220489953,
				"y": 0.535765864,
				"z": -1.3357903236,
				"element": "C" 
			},
			{
				"x": -1.6591481634,
				"y": 1.4645628083,
				"z": -2.3509164414,
				"element": "C" 
			},
			{
				"x": -1.3122245748,
				"y": 1.1813862944,
				"z": -3.6660325917,
				"element": "C" 
			},
			{
				"x": -0.7075903047,
				"y": -0.0420199749,
				"z": -3.9585270123,
				"element": "C" 
			},
			{
				"x": -0.4553757465,
				"y": -0.9725292933,
				"z": -2.9534206988,
				"element": "C" 
			},
			{
				"x": -0.8126941265,
				"y": -0.7122950359,
				"z": -1.6195184243,
				"element": "C" 
			},
			{
				"x": -0.585465939,
				"y": -1.5781725502,
				"z": -0.6119965133,
				"element": "O" 
			},
			{
				"x": 0.149419599,
				"y": -2.7816181692,
				"z": -0.8552087643,
				"element": "C" 
			},
			{
				"x": 0.2536535517,
				"y": -3.5215475938,
				"z": 0.4753098444,
				"element": "C" 
			},
			{
				"x": 0.9319680932,
				"y": -2.6774893043,
				"z": 1.5471277406,
				"element": "C" 
			},
			{
				"x": 1.1427676524,
				"y": -3.7022660039,
				"z": 3.2254279377,
				"element": "Br" 
			},
			{
				"x": -2.1169640124,
				"y": 2.4055241707,
				"z": -2.0732902332,
				"element": "H" 
			},
			{
				"x": -1.5085449402,
				"y": 1.9053712511,
				"z": -4.44925024,
				"element": "H" 
			},
			{
				"x": -0.4244207545,
				"y": -0.2805077515,
				"z": -4.9795441755,
				"element": "H" 
			},
			{
				"x": 0.020547717,
				"y": -1.9109821303,
				"z": -3.2075998444,
				"element": "H" 
			},
			{
				"x": 1.1434437512,
				"y": -2.5345476444,
				"z": -1.2540181496,
				"element": "H" 
			},
			{
				"x": -0.3733414027,
				"y": -3.4050374803,
				"z": -1.5920821872,
				"element": "H" 
			},
			{
				"x": 0.8172714983,
				"y": -4.4455813917,
				"z": 0.3076589389,
				"element": "H" 
			},
			{
				"x": -0.7483452164,
				"y": -3.8054925262,
				"z": 0.8106559978,
				"element": "H" 
			},
			{
				"x": 0.3430014443,
				"y": -1.7990256748,
				"z": 1.8028470857,
				"element": "H" 
			},
			{
				"x": 1.9411964621,
				"y": -2.3771158669,
				"z": 1.2619881656,
				"element": "H" 
			}
		],
		 "valence_orbital": [ 
			{
				"type": "occ",
				"energy": -0.2877,
				"method": "rhf"
			},
			{
				"type": "occ",
				"energy": -0.27629,
				"method": "rhf"
			},
			{
				"type": "occ",
				"energy": -0.27201,
				"method": "rhf"
			},
			{
				"type": "occ",
				"energy": -0.27045,
				"method": "rhf"
			},
			{
				"type": "occ",
				"energy": -0.2515,
				"method": "rhf"
			},
			{
				"type": "unocc",
				"energy": -0.0834,
				"method": "rhf"
			},
			{
				"type": "unocc",
				"energy": -0.01906,
				"method": "rhf"
			},
			{
				"type": "unocc",
				"energy": -0.0039,
				"method": "rhf"
			},
			{
				"type": "unocc",
				"energy": 0.0023,
				"method": "rhf"
			},
			{
				"type": "unocc",
				"energy": 0.06433,
				"method": "rhf"
			}
		],
		"cosmo_sigma_profile": { 
			"-0.025": 0.0,
			"-0.024": 0.0,
			"-0.023": 0.0,
			"-0.022": 0.0,
			"-0.021": 0.0,
			"-0.02": 0.0,
			"-0.019": 0.0,
			"-0.018": 0.0,
			"-0.017": 0.0,
			"-0.016": 0.0,
			"-0.015": 0.0,
			"-0.014": 0.0,
			"-0.013": 0.0,
			"-0.012": 0.0,
			"-0.011": 0.0,
			"-0.01": 0.0,
			"-0.009": 0.171162315809,
			"-0.008": 2.83739714058,
			"-0.007": 13.5445852804,
			"-0.006": 20.824291521,
			"-0.005": 22.7016094203,
			"-0.004": 17.1634662156,
			"-0.003": 14.7924054377,
			"-0.002": 15.3539805655,
			"-0.001": 15.1690577953,
			"0.0": 15.8823763737,
			"0.001": 17.1608273411,
			"0.002": 16.4384307696,
			"0.003": 15.3221018702,
			"0.004": 9.57171443,
			"0.005": 9.49195289205,
			"0.006": 15.14286629,
			"0.007": 7.50489015974,
			"0.008": 7.99806527633,
			"0.009": 5.83145360731,
			"0.01": 5.19875750534,
			"0.011": 1.79716796269,
			"0.012": 0.184341783766,
			"0.013": 0.0,
			"0.014": 0.0,
			"0.015": 0.0,
			"0.016": 0.0,
			"0.017": 0.0,
			"0.018": 0.0,
			"0.019": 0.0,
			"0.02": 0.0,
			"0.021": 0.0,
			"0.022": 0.0,
			"0.023": 0.0,
			"0.024": 0.0,
			"0.025": 0.0
		}
	}
}
