{
	 "smiles": "NC(=O)CSC1=C(N)C=CC=C1", 
	 "Tm": 387.15, 
	 "num_atms": 22, 
	 "gaussian": { 
		 "optdone": 1, 
		 "sigma_profile": "yes", 
		 "theory": "DFT", 
		 "functional": "B3LYP", 
		 "basiset": "6-31G**", 
		 "properties": { 
			 "R2extent": 2619.1039, 
			 "electric_dipole_moment_norm": 2.12367993116, 
			 "electric_quadrupole_moment_norm": 21.2339969379, 
			 "total_energy": -893.811047287, 
			 "HOMO_LUMO_gap": 0.18811, 
			 "cosmo_polarized_energy": -15.75, 
			 "cosmo_cavitation_energy": 27.19, 
			 "cosmo_dispersion_energy": -20.17, 
			 "cosmo_repulsion_energy": 1.6, 
			 "cosmo_total_nonelectrostatic_energy": 8.62, 
			 "SMD_solvation_energy": 5.18 
		},
		"coords": [
			{
				"x": 0.8616033417,
				"y": -3.0888604793,
				"z": -0.0336007482,
				"element": "N" 
			},
			{
				"x": -0.2403678221,
				"y": -2.8224806177,
				"z": -0.7853152821,
				"element": "C" 
			},
			{
				"x": -0.4694488213,
				"y": -3.349121422,
				"z": -1.8636311431,
				"element": "O" 
			},
			{
				"x": -1.2629073096,
				"y": -1.8476830116,
				"z": -0.1841111323,
				"element": "C" 
			},
			{
				"x": -0.7184239498,
				"y": -0.7295483826,
				"z": 1.1780600933,
				"element": "S" 
			},
			{
				"x": -0.0212755629,
				"y": 0.661167363,
				"z": 0.277408688,
				"element": "C" 
			},
			{
				"x": -0.7001913141,
				"y": 1.9053850244,
				"z": 0.2936367594,
				"element": "C" 
			},
			{
				"x": -1.8603628956,
				"y": 2.0961793166,
				"z": 1.0249359246,
				"element": "N" 
			},
			{
				"x": -0.1316638693,
				"y": 2.9795869426,
				"z": -0.4208135683,
				"element": "C" 
			},
			{
				"x": 1.0584922843,
				"y": 2.8279505203,
				"z": -1.1201076285,
				"element": "C" 
			},
			{
				"x": 1.7312660347,
				"y": 1.6020913556,
				"z": -1.1247274078,
				"element": "C" 
			},
			{
				"x": 1.1891220736,
				"y": 0.5333511187,
				"z": -0.4166043612,
				"element": "C" 
			},
			{
				"x": 1.5249632238,
				"y": -3.7632579665,
				"z": -0.3822094889,
				"element": "H" 
			},
			{
				"x": 1.0206828509,
				"y": -2.6219112342,
				"z": 0.8464759111,
				"element": "H" 
			},
			{
				"x": -1.6788651228,
				"y": -1.2575982522,
				"z": -1.0018137625,
				"element": "H" 
			},
			{
				"x": -2.0761753223,
				"y": -2.4503090344,
				"z": 0.2349233068,
				"element": "H" 
			},
			{
				"x": -2.4639920935,
				"y": 2.843775959,
				"z": 0.716625832,
				"element": "H" 
			},
			{
				"x": -2.3436273903,
				"y": 1.2539446706,
				"z": 1.3067868591,
				"element": "H" 
			},
			{
				"x": -0.6415874758,
				"y": 3.9398394786,
				"z": -0.4140551214,
				"element": "H" 
			},
			{
				"x": 1.4668699814,
				"y": 3.6757320553,
				"z": -1.663175882,
				"element": "H" 
			},
			{
				"x": 2.6641844715,
				"y": 1.4829649363,
				"z": -1.6659231145,
				"element": "H" 
			},
			{
				"x": 1.6980046875,
				"y": -0.4251983406,
				"z": -0.4073647335,
				"element": "H" 
			}
		],
		 "valence_orbital": [ 
			{
				"type": "occ",
				"energy": -0.27565,
				"method": "rhf"
			},
			{
				"type": "occ",
				"energy": -0.26868,
				"method": "rhf"
			},
			{
				"type": "occ",
				"energy": -0.24739,
				"method": "rhf"
			},
			{
				"type": "occ",
				"energy": -0.23335,
				"method": "rhf"
			},
			{
				"type": "occ",
				"energy": -0.20631,
				"method": "rhf"
			},
			{
				"type": "unocc",
				"energy": -0.0182,
				"method": "rhf"
			},
			{
				"type": "unocc",
				"energy": 0.0098,
				"method": "rhf"
			},
			{
				"type": "unocc",
				"energy": 0.02793,
				"method": "rhf"
			},
			{
				"type": "unocc",
				"energy": 0.04523,
				"method": "rhf"
			},
			{
				"type": "unocc",
				"energy": 0.06605,
				"method": "rhf"
			}
		],
		"cosmo_sigma_profile": { 
			"-0.025": 0.0,
			"-0.024": 0.0,
			"-0.023": 0.0,
			"-0.022": 0.0,
			"-0.021": 0.0,
			"-0.02": 0.0,
			"-0.019": 0.0,
			"-0.018": 0.0,
			"-0.017": 0.0,
			"-0.016": 0.0,
			"-0.015": 0.0795329364547,
			"-0.014": 0.94347925298,
			"-0.013": 1.72614873845,
			"-0.012": 3.14418462459,
			"-0.011": 3.03030064575,
			"-0.01": 3.3640533857,
			"-0.009": 4.90721423856,
			"-0.008": 6.45920258611,
			"-0.007": 7.27738176455,
			"-0.006": 8.12130419806,
			"-0.005": 14.0103179078,
			"-0.004": 14.9714344715,
			"-0.003": 15.2424798444,
			"-0.002": 12.3903196397,
			"-0.001": 11.8103522531,
			"0.0": 10.3245886608,
			"0.001": 12.2837932898,
			"0.002": 11.5768969413,
			"0.003": 11.9862983445,
			"0.004": 13.6787710636,
			"0.005": 13.1961747735,
			"0.006": 11.1353834347,
			"0.007": 3.44245973268,
			"0.008": 2.55086031934,
			"0.009": 1.96536416459,
			"0.01": 2.01368346792,
			"0.011": 1.10855972602,
			"0.012": 3.22335439038,
			"0.013": 4.79666656345,
			"0.014": 5.38417925644,
			"0.015": 1.07983268115,
			"0.016": 0.0,
			"0.017": 0.0,
			"0.018": 0.0,
			"0.019": 0.0,
			"0.02": 0.0,
			"0.021": 0.0,
			"0.022": 0.0,
			"0.023": 0.0,
			"0.024": 0.0,
			"0.025": 0.0
		}
	}
}
