{
	 "smiles": "CC1(C)SC2C(N3C(=O)C(NC3(C)C)C3=CC=CC=C3)C(=O)N2C1C(O)=O", 
	 "Tm": 463.15, 
	 "num_atms": 50, 
	 "gaussian": { 
		 "optdone": 1, 
		 "sigma_profile": "yes", 
		 "theory": "DFT", 
		 "functional": "B3LYP", 
		 "basiset": "6-31G**", 
		 "properties": { 
			 "R2extent": 11668.2196, 
			 "electric_dipole_moment_norm": 2.0611621649, 
			 "electric_quadrupole_moment_norm": 12.8613264522, 
			 "total_energy": -1601.23000058, 
			 "HOMO_LUMO_gap": 0.21038, 
			 "cosmo_polarized_energy": -21.86, 
			 "cosmo_cavitation_energy": 50.96, 
			 "cosmo_dispersion_energy": -34.42, 
			 "cosmo_repulsion_energy": 2.52, 
			 "cosmo_total_nonelectrostatic_energy": 19.06, 
			 "SMD_solvation_energy": 6.77 
		},
		"coords": [
			{
				"x": 0.6788148291,
				"y": -1.0724251652,
				"z": 4.3267989414,
				"element": "C" 
			},
			{
				"x": -0.0441971227,
				"y": 0.2242233249,
				"z": 3.9286864326,
				"element": "C" 
			},
			{
				"x": -0.4841053048,
				"y": 1.0032649629,
				"z": 5.173959111,
				"element": "C" 
			},
			{
				"x": 1.1066614577,
				"y": 1.3144589037,
				"z": 2.9038817532,
				"element": "S" 
			},
			{
				"x": 0.4168302179,
				"y": 0.750485509,
				"z": 1.288414875,
				"element": "C" 
			},
			{
				"x": 1.1068224515,
				"y": -0.4159432299,
				"z": 0.509139918,
				"element": "C" 
			},
			{
				"x": 1.3101783403,
				"y": -0.2308537711,
				"z": -0.9094676579,
				"element": "N" 
			},
			{
				"x": 2.0013458622,
				"y": 0.8700911058,
				"z": -1.3325043406,
				"element": "C" 
			},
			{
				"x": 2.4949473248,
				"y": 1.7185072058,
				"z": -0.5998031522,
				"element": "O" 
			},
			{
				"x": 2.0177822474,
				"y": 0.8301738638,
				"z": -2.8683083937,
				"element": "C" 
			},
			{
				"x": 1.5274820284,
				"y": -0.5159825728,
				"z": -3.2040206341,
				"element": "N" 
			},
			{
				"x": 0.8294511564,
				"y": -1.0902135312,
				"z": -2.03091839,
				"element": "C" 
			},
			{
				"x": -0.6918517528,
				"y": -0.9612635842,
				"z": -2.2045895844,
				"element": "C" 
			},
			{
				"x": 1.248094651,
				"y": -2.5513859056,
				"z": -1.8418822726,
				"element": "C" 
			},
			{
				"x": 1.2147768379,
				"y": 1.9747562317,
				"z": -3.4922944814,
				"element": "C" 
			},
			{
				"x": 1.4231157809,
				"y": 3.2939784705,
				"z": -3.0639056377,
				"element": "C" 
			},
			{
				"x": 0.723230154,
				"y": 4.3444078695,
				"z": -3.6576689765,
				"element": "C" 
			},
			{
				"x": -0.1872111123,
				"y": 4.0934729296,
				"z": -4.6870245914,
				"element": "C" 
			},
			{
				"x": -0.3922442722,
				"y": 2.7829239413,
				"z": -5.1192558249,
				"element": "C" 
			},
			{
				"x": 0.3057321371,
				"y": 1.7282799189,
				"z": -4.5260949912,
				"element": "C" 
			},
			{
				"x": -0.078053226,
				"y": -1.2757738133,
				"z": 1.0335678087,
				"element": "C" 
			},
			{
				"x": -0.3709662731,
				"y": -2.4494159114,
				"z": 1.0347104766,
				"element": "O" 
			},
			{
				"x": -0.6804742645,
				"y": -0.1668883992,
				"z": 1.6184441511,
				"element": "N" 
			},
			{
				"x": -1.2432541639,
				"y": -0.0095916016,
				"z": 2.9515492769,
				"element": "C" 
			},
			{
				"x": -2.2282166326,
				"y": -1.1131745718,
				"z": 3.3316694137,
				"element": "C" 
			},
			{
				"x": -3.0503181405,
				"y": -1.4062272132,
				"z": 2.3088202239,
				"element": "O" 
			},
			{
				"x": -2.3300908617,
				"y": -1.6068167764,
				"z": 4.4324947653,
				"element": "O" 
			},
			{
				"x": 0.9580153561,
				"y": -1.6748891189,
				"z": 3.4585940297,
				"element": "H" 
			},
			{
				"x": 1.5963709583,
				"y": -0.8285943391,
				"z": 4.8686024913,
				"element": "H" 
			},
			{
				"x": 0.0379155247,
				"y": -1.6793793214,
				"z": 4.9708869276,
				"element": "H" 
			},
			{
				"x": -1.1755347425,
				"y": 0.3898197832,
				"z": 5.7593553428,
				"element": "H" 
			},
			{
				"x": 0.3763204737,
				"y": 1.2419546339,
				"z": 5.8059010083,
				"element": "H" 
			},
			{
				"x": -0.9774963097,
				"y": 1.9420932408,
				"z": 4.9065750554,
				"element": "H" 
			},
			{
				"x": 0.1384131169,
				"y": 1.6131644653,
				"z": 0.6844362609,
				"element": "H" 
			},
			{
				"x": 2.0354765544,
				"y": -0.7197418193,
				"z": 1.0068739021,
				"element": "H" 
			},
			{
				"x": 3.0619307161,
				"y": 0.9357164291,
				"z": -3.1870149676,
				"element": "H" 
			},
			{
				"x": 2.3224768749,
				"y": -1.1073626388,
				"z": -3.4225466998,
				"element": "H" 
			},
			{
				"x": -1.0025184467,
				"y": -1.5355043521,
				"z": -3.0818745712,
				"element": "H" 
			},
			{
				"x": -1.2301212189,
				"y": -1.3482244406,
				"z": -1.3356521041,
				"element": "H" 
			},
			{
				"x": -0.9705517162,
				"y": 0.0832294159,
				"z": -2.3633757751,
				"element": "H" 
			},
			{
				"x": 0.734242016,
				"y": -3.0046417123,
				"z": -0.9919214904,
				"element": "H" 
			},
			{
				"x": 0.9942692384,
				"y": -3.1181304753,
				"z": -2.7433945476,
				"element": "H" 
			},
			{
				"x": 2.3289219598,
				"y": -2.6211979453,
				"z": -1.6771292178,
				"element": "H" 
			},
			{
				"x": 2.1225598138,
				"y": 3.4874983767,
				"z": -2.2569641878,
				"element": "H" 
			},
			{
				"x": 0.8900807332,
				"y": 5.3617318725,
				"z": -3.3144086822,
				"element": "H" 
			},
			{
				"x": -0.730050992,
				"y": 4.9134664011,
				"z": -5.1487892014,
				"element": "H" 
			},
			{
				"x": -1.0960615008,
				"y": 2.5776016044,
				"z": -5.9213996216,
				"element": "H" 
			},
			{
				"x": 0.1572786994,
				"y": 0.7062578082,
				"z": -4.8571432177,
				"element": "H" 
			},
			{
				"x": -1.8436847264,
				"y": 0.9111491791,
				"z": 2.9356750716,
				"element": "H" 
			},
			{
				"x": -3.6522347322,
				"y": -2.1001852378,
				"z": 2.6281159755,
				"element": "H" 
			}
		],
		 "valence_orbital": [ 
			{
				"type": "occ",
				"energy": -0.25102,
				"method": "rhf"
			},
			{
				"type": "occ",
				"energy": -0.24539,
				"method": "rhf"
			},
			{
				"type": "occ",
				"energy": -0.24241,
				"method": "rhf"
			},
			{
				"type": "occ",
				"energy": -0.23594,
				"method": "rhf"
			},
			{
				"type": "occ",
				"energy": -0.22988,
				"method": "rhf"
			},
			{
				"type": "unocc",
				"energy": -0.0195,
				"method": "rhf"
			},
			{
				"type": "unocc",
				"energy": -0.01161,
				"method": "rhf"
			},
			{
				"type": "unocc",
				"energy": -0.00187,
				"method": "rhf"
			},
			{
				"type": "unocc",
				"energy": 0.0035,
				"method": "rhf"
			},
			{
				"type": "unocc",
				"energy": 0.00932,
				"method": "rhf"
			}
		],
		"cosmo_sigma_profile": { 
			"-0.025": 0.0,
			"-0.024": 0.0,
			"-0.023": 0.0,
			"-0.022": 0.0,
			"-0.021": 0.0,
			"-0.02": 0.0122773786709,
			"-0.019": 0.727823496018,
			"-0.018": 1.0405828833,
			"-0.017": 0.726961501228,
			"-0.016": 0.982946301336,
			"-0.015": 0.653746311367,
			"-0.014": 0.992219894286,
			"-0.013": 0.588292183918,
			"-0.012": 1.11645153724,
			"-0.011": 2.2982080421,
			"-0.01": 2.06218057522,
			"-0.009": 5.73831069501,
			"-0.008": 7.15328033981,
			"-0.007": 10.1024737666,
			"-0.006": 12.3368078206,
			"-0.005": 19.4133657664,
			"-0.004": 28.7685879199,
			"-0.003": 36.2122179957,
			"-0.002": 31.9699662725,
			"-0.001": 37.8698415716,
			"0.0": 38.7389261588,
			"0.001": 23.2742742508,
			"0.002": 17.7471381598,
			"0.003": 19.132018507,
			"0.004": 19.5971047696,
			"0.005": 18.8126926867,
			"0.006": 16.1559244397,
			"0.007": 11.2443763997,
			"0.008": 9.46596481377,
			"0.009": 7.95567326719,
			"0.01": 7.4060511116,
			"0.011": 7.25383494188,
			"0.012": 2.58718593505,
			"0.013": 2.38920385683,
			"0.014": 0.292754607712,
			"0.015": 0.0,
			"0.016": 0.0,
			"0.017": 0.0,
			"0.018": 0.0,
			"0.019": 0.0,
			"0.02": 0.0,
			"0.021": 0.0,
			"0.022": 0.0,
			"0.023": 0.0,
			"0.024": 0.0,
			"0.025": 0.0
		}
	}
}
