{
	 "smiles": "CC(=O)NC1=CC(CN)=CC=C1", 
	 "Tm": 356.15, 
	 "num_atms": 24, 
	 "gaussian": { 
		 "optdone": 1, 
		 "sigma_profile": "yes", 
		 "theory": "DFT", 
		 "functional": "B3LYP", 
		 "basiset": "6-31G**", 
		 "properties": { 
			 "R2extent": 3403.3098, 
			 "electric_dipole_moment_norm": 2.86977614806, 
			 "electric_quadrupole_moment_norm": 19.5243621542, 
			 "total_energy": -534.930002102, 
			 "HOMO_LUMO_gap": 0.2082, 
			 "cosmo_polarized_energy": -14.77, 
			 "cosmo_cavitation_energy": 27.72, 
			 "cosmo_dispersion_energy": -19.72, 
			 "cosmo_repulsion_energy": 1.6, 
			 "cosmo_total_nonelectrostatic_energy": 9.6, 
			 "SMD_solvation_energy": 4.11 
		},
		"coords": [
			{
				"x": 2.17547778,
				"y": 0.8363681743,
				"z": 2.9550129555,
				"element": "C" 
			},
			{
				"x": 0.7823237714,
				"y": 1.4016972824,
				"z": 3.1557454879,
				"element": "C" 
			},
			{
				"x": 0.2705928102,
				"y": 1.4810810708,
				"z": 4.2632440178,
				"element": "O" 
			},
			{
				"x": 0.0787495452,
				"y": 1.8575805057,
				"z": 2.0512559733,
				"element": "N" 
			},
			{
				"x": 0.4091864495,
				"y": 1.9261761647,
				"z": 0.6791788439,
				"element": "C" 
			},
			{
				"x": 1.0619787622,
				"y": 0.8831330079,
				"z": 0.0075864004,
				"element": "C" 
			},
			{
				"x": 1.3613262385,
				"y": 0.977676146,
				"z": -1.3569452241,
				"element": "C" 
			},
			{
				"x": 2.0160965116,
				"y": -0.1891513071,
				"z": -2.0796065427,
				"element": "C" 
			},
			{
				"x": 1.0897458355,
				"y": -1.1582972821,
				"z": -2.6864355006,
				"element": "N" 
			},
			{
				"x": 0.9770118385,
				"y": 2.1271137911,
				"z": -2.0589816614,
				"element": "C" 
			},
			{
				"x": 0.2990235583,
				"y": 3.1564890243,
				"z": -1.4050765493,
				"element": "C" 
			},
			{
				"x": 0.0194339149,
				"y": 3.064389541,
				"z": -0.0440158254,
				"element": "C" 
			},
			{
				"x": 2.7190105232,
				"y": 1.3152499383,
				"z": 2.137819626,
				"element": "H" 
			},
			{
				"x": 2.1224580764,
				"y": -0.2375665853,
				"z": 2.7467766569,
				"element": "H" 
			},
			{
				"x": 2.7141705267,
				"y": 0.9672752645,
				"z": 3.894166714,
				"element": "H" 
			},
			{
				"x": -0.7754246681,
				"y": 2.3239021544,
				"z": 2.332563475,
				"element": "H" 
			},
			{
				"x": 1.323535539,
				"y": -0.0222511531,
				"z": 0.5454330554,
				"element": "H" 
			},
			{
				"x": 2.6644536073,
				"y": 0.1921376253,
				"z": -2.8766266079,
				"element": "H" 
			},
			{
				"x": 2.6621547715,
				"y": -0.7378187687,
				"z": -1.3849551491,
				"element": "H" 
			},
			{
				"x": 0.4719552074,
				"y": -1.5288871956,
				"z": -1.9666733323,
				"element": "H" 
			},
			{
				"x": 0.4821245588,
				"y": -0.6748133655,
				"z": -3.3451968085,
				"element": "H" 
			},
			{
				"x": 1.2072063681,
				"y": 2.2141169329,
				"z": -3.1180692146,
				"element": "H" 
			},
			{
				"x": 0.0006564111,
				"y": 4.0456875283,
				"z": -1.9530960725,
				"element": "H" 
			},
			{
				"x": -0.4852479374,
				"y": 3.8775115052,
				"z": 0.4704952822,
				"element": "H" 
			}
		],
		 "valence_orbital": [ 
			{
				"type": "occ",
				"energy": -0.29972,
				"method": "rhf"
			},
			{
				"type": "occ",
				"energy": -0.26508,
				"method": "rhf"
			},
			{
				"type": "occ",
				"energy": -0.25294,
				"method": "rhf"
			},
			{
				"type": "occ",
				"energy": -0.23787,
				"method": "rhf"
			},
			{
				"type": "occ",
				"energy": -0.2272,
				"method": "rhf"
			},
			{
				"type": "unocc",
				"energy": -0.019,
				"method": "rhf"
			},
			{
				"type": "unocc",
				"energy": -0.01481,
				"method": "rhf"
			},
			{
				"type": "unocc",
				"energy": 0.03163,
				"method": "rhf"
			},
			{
				"type": "unocc",
				"energy": 0.07702,
				"method": "rhf"
			},
			{
				"type": "unocc",
				"energy": 0.09081,
				"method": "rhf"
			}
		],
		"cosmo_sigma_profile": { 
			"-0.025": 0.0,
			"-0.024": 0.0,
			"-0.023": 0.0,
			"-0.022": 0.0,
			"-0.021": 0.0,
			"-0.02": 0.0,
			"-0.019": 0.0,
			"-0.018": 0.0,
			"-0.017": 0.0,
			"-0.016": 0.0,
			"-0.015": 0.0,
			"-0.014": 0.478894091967,
			"-0.013": 0.945004051503,
			"-0.012": 0.876326218014,
			"-0.011": 1.16685232446,
			"-0.01": 1.71515667886,
			"-0.009": 3.50565490338,
			"-0.008": 3.60822999097,
			"-0.007": 7.53453155851,
			"-0.006": 12.8722854059,
			"-0.005": 16.1866052152,
			"-0.004": 20.2805707428,
			"-0.003": 19.3334618276,
			"-0.002": 17.5229312878,
			"-0.001": 17.3244492315,
			"0.0": 12.3079051908,
			"0.001": 10.5825529118,
			"0.002": 9.0249132091,
			"0.003": 10.129997353,
			"0.004": 10.0171619651,
			"0.005": 10.3972761156,
			"0.006": 4.73137388662,
			"0.007": 2.08022154438,
			"0.008": 2.19942964151,
			"0.009": 0.84184902559,
			"0.01": 2.37931644246,
			"0.011": 2.37620817976,
			"0.012": 3.36213979016,
			"0.013": 5.20945864856,
			"0.014": 5.28197032047,
			"0.015": 1.13092852452,
			"0.016": 0.252025726434,
			"0.017": 1.09470885145,
			"0.018": 0.585584760654,
			"0.019": 0.736379391216,
			"0.02": 0.209437816313,
			"0.021": 0.0,
			"0.022": 0.0,
			"0.023": 0.0,
			"0.024": 0.0,
			"0.025": 0.0
		}
	}
}
