{
	 "smiles": "CCOC1=NC2=C(C=CC=C2)C(=O)N1CC1=CN=CC=C1", 
	 "Tm": 341.65, 
	 "num_atms": 36, 
	 "gaussian": { 
		 "optdone": 1, 
		 "sigma_profile": "yes", 
		 "theory": "DFT", 
		 "functional": "B3LYP", 
		 "basiset": "6-31G**", 
		 "properties": { 
			 "R2extent": 6551.4419, 
			 "electric_dipole_moment_norm": 2.08897102421, 
			 "electric_quadrupole_moment_norm": 9.84213039184, 
			 "total_energy": -933.479406811, 
			 "HOMO_LUMO_gap": 0.18014, 
			 "cosmo_polarized_energy": -12.08, 
			 "cosmo_cavitation_energy": 39.63, 
			 "cosmo_dispersion_energy": -27.56, 
			 "cosmo_repulsion_energy": 2.08, 
			 "cosmo_total_nonelectrostatic_energy": 14.16, 
			 "SMD_solvation_energy": 5.03 
		},
		"coords": [
			{
				"x": 0.2542452783,
				"y": 1.9701146688,
				"z": 3.714359006,
				"element": "C" 
			},
			{
				"x": -0.9839340826,
				"y": 2.3186347902,
				"z": 2.9046576927,
				"element": "C" 
			},
			{
				"x": -1.1425379215,
				"y": 1.4289480435,
				"z": 1.7690128176,
				"element": "O" 
			},
			{
				"x": -0.4606825648,
				"y": 1.7151278947,
				"z": 0.6504033844,
				"element": "C" 
			},
			{
				"x": 0.2826078146,
				"y": 2.7679664251,
				"z": 0.5516302513,
				"element": "N" 
			},
			{
				"x": 0.9294845648,
				"y": 2.9836868556,
				"z": -0.6521156378,
				"element": "C" 
			},
			{
				"x": 0.8089956747,
				"y": 2.0892003787,
				"z": -1.7390662856,
				"element": "C" 
			},
			{
				"x": 1.4844918168,
				"y": 2.3351972323,
				"z": -2.9463920134,
				"element": "C" 
			},
			{
				"x": 2.2738517125,
				"y": 3.4660131398,
				"z": -3.0793594269,
				"element": "C" 
			},
			{
				"x": 2.3978130617,
				"y": 4.3607387253,
				"z": -1.9999701578,
				"element": "C" 
			},
			{
				"x": 1.7392364174,
				"y": 4.1272514306,
				"z": -0.8028029282,
				"element": "C" 
			},
			{
				"x": -0.0193618348,
				"y": 0.8917738734,
				"z": -1.5944795871,
				"element": "C" 
			},
			{
				"x": -0.1738585342,
				"y": 0.0304284811,
				"z": -2.4558282038,
				"element": "O" 
			},
			{
				"x": -0.6657750475,
				"y": 0.7756398898,
				"z": -0.3428335707,
				"element": "N" 
			},
			{
				"x": -1.5429962788,
				"y": -0.3985960731,
				"z": -0.128976005,
				"element": "C" 
			},
			{
				"x": -0.8399214883,
				"y": -1.5594074975,
				"z": 0.5417434213,
				"element": "C" 
			},
			{
				"x": -1.1024527565,
				"y": -1.8864185562,
				"z": 1.8770374314,
				"element": "C" 
			},
			{
				"x": -0.525533859,
				"y": -2.9002329612,
				"z": 2.5329385385,
				"element": "N" 
			},
			{
				"x": 0.3601512016,
				"y": -3.640507182,
				"z": 1.8554409619,
				"element": "C" 
			},
			{
				"x": 0.6972618454,
				"y": -3.408603926,
				"z": 0.5202256427,
				"element": "C" 
			},
			{
				"x": 0.085799037,
				"y": -2.3513685021,
				"z": -0.1490370024,
				"element": "C" 
			},
			{
				"x": 1.1592008744,
				"y": 2.1502004583,
				"z": 3.1299106879,
				"element": "H" 
			},
			{
				"x": 0.2929870297,
				"y": 2.5970962812,
				"z": 4.6114309339,
				"element": "H" 
			},
			{
				"x": 0.2332846085,
				"y": 0.9223504602,
				"z": 4.027420756,
				"element": "H" 
			},
			{
				"x": -0.9500576734,
				"y": 3.3475632295,
				"z": 2.5417761586,
				"element": "H" 
			},
			{
				"x": -1.8979719644,
				"y": 2.1628521585,
				"z": 3.482332184,
				"element": "H" 
			},
			{
				"x": 1.3662608065,
				"y": 1.6213235342,
				"z": -3.7548009851,
				"element": "H" 
			},
			{
				"x": 2.7961728346,
				"y": 3.662346801,
				"z": -4.0104938168,
				"element": "H" 
			},
			{
				"x": 3.0184369184,
				"y": 5.246299327,
				"z": -2.1054887698,
				"element": "H" 
			},
			{
				"x": 1.8272993752,
				"y": 4.8083878223,
				"z": 0.0371697549,
				"element": "H" 
			},
			{
				"x": -2.3972835062,
				"y": -0.0732737097,
				"z": 0.4638916342,
				"element": "H" 
			},
			{
				"x": -1.8828635708,
				"y": -0.686138477,
				"z": -1.1245370107,
				"element": "H" 
			},
			{
				"x": -1.8192479803,
				"y": -1.2942965002,
				"z": 2.4442522352,
				"element": "H" 
			},
			{
				"x": 0.8207141154,
				"y": -4.459770531,
				"z": 2.4052562162,
				"element": "H" 
			},
			{
				"x": 1.4186292248,
				"y": -4.0461950841,
				"z": 0.0183756917,
				"element": "H" 
			},
			{
				"x": 0.3120548505,
				"y": -2.1319329011,
				"z": -1.1883839993,
				"element": "H" 
			}
		],
		 "valence_orbital": [ 
			{
				"type": "occ",
				"energy": -0.2704,
				"method": "rhf"
			},
			{
				"type": "occ",
				"energy": -0.25925,
				"method": "rhf"
			},
			{
				"type": "occ",
				"energy": -0.25655,
				"method": "rhf"
			},
			{
				"type": "occ",
				"energy": -0.25113,
				"method": "rhf"
			},
			{
				"type": "occ",
				"energy": -0.22296,
				"method": "rhf"
			},
			{
				"type": "unocc",
				"energy": -0.04282,
				"method": "rhf"
			},
			{
				"type": "unocc",
				"energy": -0.02484,
				"method": "rhf"
			},
			{
				"type": "unocc",
				"energy": -0.02152,
				"method": "rhf"
			},
			{
				"type": "unocc",
				"energy": -0.01181,
				"method": "rhf"
			},
			{
				"type": "unocc",
				"energy": 0.03255,
				"method": "rhf"
			}
		],
		"cosmo_sigma_profile": { 
			"-0.025": 0.0,
			"-0.024": 0.0,
			"-0.023": 0.0,
			"-0.022": 0.0,
			"-0.021": 0.0,
			"-0.02": 0.0,
			"-0.019": 0.0,
			"-0.018": 0.0,
			"-0.017": 0.0,
			"-0.016": 0.0,
			"-0.015": 0.0,
			"-0.014": 0.0,
			"-0.013": 0.0,
			"-0.012": 0.0,
			"-0.011": 0.0,
			"-0.01": 0.0,
			"-0.009": 0.0,
			"-0.008": 0.0,
			"-0.007": 3.2341939225,
			"-0.006": 17.9588137629,
			"-0.005": 24.8438238168,
			"-0.004": 31.0457217952,
			"-0.003": 31.230995196,
			"-0.002": 25.872960701,
			"-0.001": 25.8238527206,
			"0.0": 26.0706551718,
			"0.001": 25.1556870768,
			"0.002": 28.2399410867,
			"0.003": 23.3476289674,
			"0.004": 16.7646988064,
			"0.005": 6.51822138828,
			"0.006": 4.09054792054,
			"0.007": 4.20059461203,
			"0.008": 4.31509512945,
			"0.009": 3.65696320757,
			"0.01": 3.33627319192,
			"0.011": 2.05446438688,
			"0.012": 3.98546246845,
			"0.013": 2.23288441308,
			"0.014": 1.0085697784,
			"0.015": 0.861282029671,
			"0.016": 0.923805511196,
			"0.017": 0.357588449455,
			"0.018": 0.0,
			"0.019": 0.0,
			"0.02": 0.0,
			"0.021": 0.0,
			"0.022": 0.0,
			"0.023": 0.0,
			"0.024": 0.0,
			"0.025": 0.0
		}
	}
}
