{
	 "smiles": "NC1=NN=C(S1)C1=CC=NC=C1", 
	 "Tm": 518.15, 
	 "num_atms": 18, 
	 "gaussian": { 
		 "optdone": 1, 
		 "sigma_profile": "yes", 
		 "theory": "DFT", 
		 "functional": "B3LYP", 
		 "basiset": "6-31G**", 
		 "properties": { 
			 "R2extent": 2881.155, 
			 "electric_dipole_moment_norm": 4.74614889779, 
			 "electric_quadrupole_moment_norm": 17.1108009763, 
			 "total_energy": -887.521631673, 
			 "HOMO_LUMO_gap": 0.16689, 
			 "cosmo_polarized_energy": -16.26, 
			 "cosmo_cavitation_energy": 24.57, 
			 "cosmo_dispersion_energy": -19.07, 
			 "cosmo_repulsion_energy": 1.46, 
			 "cosmo_total_nonelectrostatic_energy": 6.96, 
			 "SMD_solvation_energy": 0.82 
		},
		"coords": [
			{
				"x": 1.5462908616,
				"y": -4.6182862387,
				"z": -0.7715368637,
				"element": "N" 
			},
			{
				"x": 1.1897124868,
				"y": -3.2981026884,
				"z": -0.7179884161,
				"element": "C" 
			},
			{
				"x": 1.4463539219,
				"y": -2.4486111591,
				"z": -1.6832393096,
				"element": "N" 
			},
			{
				"x": 0.9282030577,
				"y": -1.2154882674,
				"z": -1.4428370941,
				"element": "N" 
			},
			{
				"x": 0.2938646765,
				"y": -1.1005087089,
				"z": -0.3117698466,
				"element": "C" 
			},
			{
				"x": 0.2610255029,
				"y": -2.6205231249,
				"z": 0.6119612247,
				"element": "S" 
			},
			{
				"x": -0.323845685,
				"y": 0.1425426934,
				"z": 0.1577150775,
				"element": "C" 
			},
			{
				"x": -1.0041671346,
				"y": 0.2359478531,
				"z": 1.3794504834,
				"element": "C" 
			},
			{
				"x": -1.56204616,
				"y": 1.4589623739,
				"z": 1.7495432626,
				"element": "C" 
			},
			{
				"x": -1.4923432986,
				"y": 2.5688764628,
				"z": 1.0058350128,
				"element": "N" 
			},
			{
				"x": -0.8400204214,
				"y": 2.4704190628,
				"z": -0.1624048306,
				"element": "C" 
			},
			{
				"x": -0.2456063592,
				"y": 1.3028308578,
				"z": -0.6300881668,
				"element": "C" 
			},
			{
				"x": 2.1975855349,
				"y": -4.8275015908,
				"z": -1.5171409564,
				"element": "H" 
			},
			{
				"x": 1.7323358917,
				"y": -5.0933903586,
				"z": 0.0989972636,
				"element": "H" 
			},
			{
				"x": -1.1041504374,
				"y": -0.6218677785,
				"z": 2.0379695249,
				"element": "H" 
			},
			{
				"x": -2.0932044844,
				"y": 1.5468596958,
				"z": 2.6957237951,
				"element": "H" 
			},
			{
				"x": -0.7897712245,
				"y": 3.3792767015,
				"z": -0.7592502259,
				"element": "H" 
			},
			{
				"x": 0.2707832711,
				"y": 1.2757642141,
				"z": -1.5824399351,
				"element": "H" 
			}
		],
		 "valence_orbital": [ 
			{
				"type": "occ",
				"energy": -0.2891,
				"method": "rhf"
			},
			{
				"type": "occ",
				"energy": -0.26842,
				"method": "rhf"
			},
			{
				"type": "occ",
				"energy": -0.26611,
				"method": "rhf"
			},
			{
				"type": "occ",
				"energy": -0.25567,
				"method": "rhf"
			},
			{
				"type": "occ",
				"energy": -0.23226,
				"method": "rhf"
			},
			{
				"type": "unocc",
				"energy": -0.06537,
				"method": "rhf"
			},
			{
				"type": "unocc",
				"energy": -0.0144,
				"method": "rhf"
			},
			{
				"type": "unocc",
				"energy": -0.0115,
				"method": "rhf"
			},
			{
				"type": "unocc",
				"energy": 0.00695,
				"method": "rhf"
			},
			{
				"type": "unocc",
				"energy": 0.05011,
				"method": "rhf"
			}
		],
		"cosmo_sigma_profile": { 
			"-0.025": 0.0,
			"-0.024": 0.0,
			"-0.023": 0.0,
			"-0.022": 0.0,
			"-0.021": 0.0,
			"-0.02": 0.0,
			"-0.019": 0.0,
			"-0.018": 0.0,
			"-0.017": 0.0,
			"-0.016": 0.383012068714,
			"-0.015": 2.23162836073,
			"-0.014": 2.74944792605,
			"-0.013": 2.96666783295,
			"-0.012": 2.58523463516,
			"-0.011": 2.32559314956,
			"-0.01": 1.53101619159,
			"-0.009": 1.87115527856,
			"-0.008": 3.40566076561,
			"-0.007": 6.06048160392,
			"-0.006": 10.9575274315,
			"-0.005": 9.38750223175,
			"-0.004": 8.5682649535,
			"-0.003": 8.56383033176,
			"-0.002": 11.2402502943,
			"-0.001": 15.2982618227,
			"0.0": 16.7330456992,
			"0.001": 20.7044673473,
			"0.002": 20.1774272038,
			"0.003": 6.79137358187,
			"0.004": 5.79286457792,
			"0.005": 5.40420832305,
			"0.006": 3.64981094939,
			"0.007": 3.62233687656,
			"0.008": 3.40695570004,
			"0.009": 4.65908160664,
			"0.01": 4.14158920042,
			"0.011": 2.99983366192,
			"0.012": 4.72075707867,
			"0.013": 2.77208481842,
			"0.014": 2.28629836287,
			"0.015": 1.01017642976,
			"0.016": 1.06228954904,
			"0.017": 0.108063538705,
			"0.018": 0.0,
			"0.019": 0.0,
			"0.02": 0.0,
			"0.021": 0.0,
			"0.022": 0.0,
			"0.023": 0.0,
			"0.024": 0.0,
			"0.025": 0.0
		}
	}
}
