{
	 "smiles": "COC1=CC2=C(NC=C2C(=O)CC#N)C=C1", 
	 "Tm": 563.15, 
	 "num_atms": 26, 
	 "gaussian": { 
		 "optdone": 1, 
		 "sigma_profile": "yes", 
		 "theory": "DFT", 
		 "functional": "B3LYP", 
		 "basiset": "6-31G**", 
		 "properties": { 
			 "R2extent": 4554.818, 
			 "electric_dipole_moment_norm": 7.32166378496, 
			 "electric_quadrupole_moment_norm": 29.378428499, 
			 "total_energy": -723.224808009, 
			 "HOMO_LUMO_gap": 0.17187, 
			 "cosmo_polarized_energy": -23.38, 
			 "cosmo_cavitation_energy": 31.6, 
			 "cosmo_dispersion_energy": -22.2, 
			 "cosmo_repulsion_energy": 1.71, 
			 "cosmo_total_nonelectrostatic_energy": 11.11, 
			 "SMD_solvation_energy": 7.99 
		},
		"coords": [
			{
				"x": 0.7250180242,
				"y": -3.5675636507,
				"z": 1.8975339771,
				"element": "C" 
			},
			{
				"x": 1.5711425307,
				"y": -3.7060532891,
				"z": 0.7686309079,
				"element": "O" 
			},
			{
				"x": 1.7715104636,
				"y": -2.6162329784,
				"z": -0.0308900425,
				"element": "C" 
			},
			{
				"x": 1.1968962867,
				"y": -1.3651355522,
				"z": 0.1869414635,
				"element": "C" 
			},
			{
				"x": 1.4835482845,
				"y": -0.3177655619,
				"z": -0.7141162392,
				"element": "C" 
			},
			{
				"x": 2.3468659367,
				"y": -0.5817770812,
				"z": -1.8074204317,
				"element": "C" 
			},
			{
				"x": 2.4712223544,
				"y": 0.592991331,
				"z": -2.539845875,
				"element": "N" 
			},
			{
				"x": 1.731433882,
				"y": 1.573001966,
				"z": -1.960325782,
				"element": "C" 
			},
			{
				"x": 1.0964415919,
				"y": 1.0785071601,
				"z": -0.829783237,
				"element": "C" 
			},
			{
				"x": 0.2340786382,
				"y": 1.9462896531,
				"z": -0.0246135856,
				"element": "C" 
			},
			{
				"x": 0.038044372,
				"y": 3.1192052629,
				"z": -0.3040943516,
				"element": "O" 
			},
			{
				"x": -0.4328711528,
				"y": 1.3149255309,
				"z": 1.2155286251,
				"element": "C" 
			},
			{
				"x": -1.2755198101,
				"y": 2.2481838516,
				"z": 1.959643929,
				"element": "C" 
			},
			{
				"x": -1.9538826087,
				"y": 2.9552813436,
				"z": 2.5796838529,
				"element": "N" 
			},
			{
				"x": 2.9239264741,
				"y": -1.8360674591,
				"z": -2.0272981169,
				"element": "C" 
			},
			{
				"x": 2.6294795337,
				"y": -2.848590323,
				"z": -1.1316804406,
				"element": "C" 
			},
			{
				"x": -0.2975405809,
				"y": -3.2926521785,
				"z": 1.6067347508,
				"element": "H" 
			},
			{
				"x": 1.1099093038,
				"y": -2.8198479023,
				"z": 2.6036159233,
				"element": "H" 
			},
			{
				"x": 0.7081440025,
				"y": -4.5437299395,
				"z": 2.3843374447,
				"element": "H" 
			},
			{
				"x": 0.5437540786,
				"y": -1.2070669338,
				"z": 1.0335982641,
				"element": "H" 
			},
			{
				"x": 3.0261085246,
				"y": 0.7013776301,
				"z": -3.3744038817,
				"element": "H" 
			},
			{
				"x": 1.6805704464,
				"y": 2.5736715413,
				"z": -2.3629867706,
				"element": "H" 
			},
			{
				"x": 0.3451005204,
				"y": 0.9217981078,
				"z": 1.8819388677,
				"element": "H" 
			},
			{
				"x": -1.037800522,
				"y": 0.4553702388,
				"z": 0.9007410417,
				"element": "H" 
			},
			{
				"x": 3.5826836183,
				"y": -2.0158486595,
				"z": -2.8718470158,
				"element": "H" 
			},
			{
				"x": 3.0469358071,
				"y": -3.8423721081,
				"z": -1.2497232776,
				"element": "H" 
			}
		],
		 "valence_orbital": [ 
			{
				"type": "occ",
				"energy": -0.31479,
				"method": "rhf"
			},
			{
				"type": "occ",
				"energy": -0.29507,
				"method": "rhf"
			},
			{
				"type": "occ",
				"energy": -0.25787,
				"method": "rhf"
			},
			{
				"type": "occ",
				"energy": -0.2288,
				"method": "rhf"
			},
			{
				"type": "occ",
				"energy": -0.22108,
				"method": "rhf"
			},
			{
				"type": "unocc",
				"energy": -0.04921,
				"method": "rhf"
			},
			{
				"type": "unocc",
				"energy": -0.01981,
				"method": "rhf"
			},
			{
				"type": "unocc",
				"energy": 0.01637,
				"method": "rhf"
			},
			{
				"type": "unocc",
				"energy": 0.03721,
				"method": "rhf"
			},
			{
				"type": "unocc",
				"energy": 0.04207,
				"method": "rhf"
			}
		],
		"cosmo_sigma_profile": { 
			"-0.025": 0.0,
			"-0.024": 0.0,
			"-0.023": 0.0,
			"-0.022": 0.0,
			"-0.021": 0.0,
			"-0.02": 0.0,
			"-0.019": 0.0,
			"-0.018": 0.0,
			"-0.017": 0.855933517501,
			"-0.016": 1.91749174533,
			"-0.015": 1.497328704,
			"-0.014": 1.32017726717,
			"-0.013": 0.992516287928,
			"-0.012": 1.51327347059,
			"-0.011": 1.36383785952,
			"-0.01": 4.46897947415,
			"-0.009": 10.0892546451,
			"-0.008": 8.62367696326,
			"-0.007": 9.55205281901,
			"-0.006": 11.4104917535,
			"-0.005": 15.2089571232,
			"-0.004": 15.274061311,
			"-0.003": 16.2393759361,
			"-0.002": 12.9107677846,
			"-0.001": 8.64340925178,
			"0.0": 8.13520218655,
			"0.001": 11.4989932858,
			"0.002": 15.747967895,
			"0.003": 16.1472142425,
			"0.004": 16.376967483,
			"0.005": 14.6104370628,
			"0.006": 6.07384589035,
			"0.007": 5.44232449108,
			"0.008": 6.86731884877,
			"0.009": 7.68195999281,
			"0.01": 7.60456522428,
			"0.011": 5.88173229852,
			"0.012": 7.03125359541,
			"0.013": 2.6810748675,
			"0.014": 0.131136321727,
			"0.015": 0.0,
			"0.016": 0.0,
			"0.017": 0.0,
			"0.018": 0.0,
			"0.019": 0.0,
			"0.02": 0.0,
			"0.021": 0.0,
			"0.022": 0.0,
			"0.023": 0.0,
			"0.024": 0.0,
			"0.025": 0.0
		}
	}
}
