{
	 "smiles": "CN(CC1=CC(Br)=CC(Br)=C1N)C1CCCCC1", 
	 "Tm": 511.15, 
	 "num_atms": 38, 
	 "gaussian": { 
		 "optdone": 1, 
		 "sigma_profile": "yes", 
		 "theory": "DFT", 
		 "functional": "B3LYP", 
		 "basiset": "6-31G**", 
		 "properties": { 
			 "R2extent": 12197.5339, 
			 "electric_dipole_moment_norm": 4.13685795502, 
			 "electric_quadrupole_moment_norm": 9.01654288905, 
			 "total_energy": -5797.85927812, 
			 "HOMO_LUMO_gap": 0.18634, 
			 "cosmo_polarized_energy": -6.68, 
			 "cosmo_cavitation_energy": 41.36, 
			 "cosmo_dispersion_energy": -29.82, 
			 "cosmo_repulsion_energy": 2.33, 
			 "cosmo_total_nonelectrostatic_energy": 13.87, 
			 "SMD_solvation_energy": 3.5 
		},
		"coords": [
			{
				"x": -1.5445874791,
				"y": 0.3022451094,
				"z": 1.4272224823,
				"element": "C" 
			},
			{
				"x": -0.5302430713,
				"y": -0.2170932411,
				"z": 0.4981062843,
				"element": "N" 
			},
			{
				"x": 0.7362446282,
				"y": 0.5261330995,
				"z": 0.718059222,
				"element": "C" 
			},
			{
				"x": 1.6457825774,
				"y": 0.7178092204,
				"z": -0.4839211625,
				"element": "C" 
			},
			{
				"x": 3.0177689719,
				"y": 0.5203382915,
				"z": -0.3427979807,
				"element": "C" 
			},
			{
				"x": 3.8936051909,
				"y": 0.8075546323,
				"z": -1.3879442477,
				"element": "C" 
			},
			{
				"x": 5.7719699996,
				"y": 0.5274195024,
				"z": -1.1622678197,
				"element": "Br" 
			},
			{
				"x": 3.4115880873,
				"y": 1.2956275835,
				"z": -2.5966517232,
				"element": "C" 
			},
			{
				"x": 2.0407339599,
				"y": 1.4879332393,
				"z": -2.7389598757,
				"element": "C" 
			},
			{
				"x": 1.3912252398,
				"y": 2.1497525163,
				"z": -4.4190979923,
				"element": "Br" 
			},
			{
				"x": 1.1214325518,
				"y": 1.218722271,
				"z": -1.7061046692,
				"element": "C" 
			},
			{
				"x": -0.232491127,
				"y": 1.4572011976,
				"z": -1.8243842241,
				"element": "N" 
			},
			{
				"x": -0.3722923743,
				"y": -1.6907492252,
				"z": 0.6194302419,
				"element": "C" 
			},
			{
				"x": -1.6720011963,
				"y": -2.4603660944,
				"z": 0.3222581139,
				"element": "C" 
			},
			{
				"x": -1.5336140843,
				"y": -3.950089619,
				"z": 0.7201137453,
				"element": "C" 
			},
			{
				"x": -0.1026014319,
				"y": -4.4928639525,
				"z": 0.5035599627,
				"element": "C" 
			},
			{
				"x": 0.5805228102,
				"y": -3.739531492,
				"z": -0.6417438411,
				"element": "C" 
			},
			{
				"x": 0.7355984406,
				"y": -2.2325559754,
				"z": -0.3208637205,
				"element": "C" 
			},
			{
				"x": -1.3057588709,
				"y": 0.0922219175,
				"z": 2.4855189792,
				"element": "H" 
			},
			{
				"x": -1.6238203675,
				"y": 1.385465188,
				"z": 1.3036284255,
				"element": "H" 
			},
			{
				"x": -2.5258583264,
				"y": -0.120356302,
				"z": 1.2110223947,
				"element": "H" 
			},
			{
				"x": 0.4483306766,
				"y": 1.529821698,
				"z": 1.0530858996,
				"element": "H" 
			},
			{
				"x": 1.3168800399,
				"y": 0.082963665,
				"z": 1.5444054549,
				"element": "H" 
			},
			{
				"x": 3.4082794028,
				"y": 0.1431105514,
				"z": 0.5967775675,
				"element": "H" 
			},
			{
				"x": 4.0818043834,
				"y": 1.5166386827,
				"z": -3.4173258788,
				"element": "H" 
			},
			{
				"x": -0.5648011593,
				"y": 1.6068409516,
				"z": -2.767019551,
				"element": "H" 
			},
			{
				"x": -0.7937672974,
				"y": 0.8324683507,
				"z": -1.2472072012,
				"element": "H" 
			},
			{
				"x": -0.0829384852,
				"y": -1.9166095993,
				"z": 1.6658177221,
				"element": "H" 
			},
			{
				"x": -2.5314684482,
				"y": -2.0398438732,
				"z": 0.8482309168,
				"element": "H" 
			},
			{
				"x": -1.8889464091,
				"y": -2.3650587569,
				"z": -0.7493266469,
				"element": "H" 
			},
			{
				"x": -2.2495063528,
				"y": -4.5363796639,
				"z": 0.1325266343,
				"element": "H" 
			},
			{
				"x": -1.8214426953,
				"y": -4.0788442824,
				"z": 1.7702401338,
				"element": "H" 
			},
			{
				"x": 0.4903092656,
				"y": -4.3694053535,
				"z": 1.4190278439,
				"element": "H" 
			},
			{
				"x": -0.1302934753,
				"y": -5.5691634324,
				"z": 0.3011310885,
				"element": "H" 
			},
			{
				"x": -0.0173099524,
				"y": -3.8661845883,
				"z": -1.5533643434,
				"element": "H" 
			},
			{
				"x": 1.5633973617,
				"y": -4.1693286991,
				"z": -0.8623610771,
				"element": "H" 
			},
			{
				"x": 1.7177911802,
				"y": -2.0535328751,
				"z": 0.1262492807,
				"element": "H" 
			},
			{
				"x": 0.711577836,
				"y": -1.6621106426,
				"z": -1.2538704388,
				"element": "H" 
			}
		],
		 "valence_orbital": [ 
			{
				"type": "occ",
				"energy": -0.28127,
				"method": "rhf"
			},
			{
				"type": "occ",
				"energy": -0.27638,
				"method": "rhf"
			},
			{
				"type": "occ",
				"energy": -0.24438,
				"method": "rhf"
			},
			{
				"type": "occ",
				"energy": -0.2348,
				"method": "rhf"
			},
			{
				"type": "occ",
				"energy": -0.2011,
				"method": "rhf"
			},
			{
				"type": "unocc",
				"energy": -0.01476,
				"method": "rhf"
			},
			{
				"type": "unocc",
				"energy": -0.00684,
				"method": "rhf"
			},
			{
				"type": "unocc",
				"energy": 0.00188,
				"method": "rhf"
			},
			{
				"type": "unocc",
				"energy": 0.03274,
				"method": "rhf"
			},
			{
				"type": "unocc",
				"energy": 0.06957,
				"method": "rhf"
			}
		],
		"cosmo_sigma_profile": { 
			"-0.025": 0.0,
			"-0.024": 0.0,
			"-0.023": 0.0,
			"-0.022": 0.0,
			"-0.021": 0.0,
			"-0.02": 0.0,
			"-0.019": 0.0,
			"-0.018": 0.0,
			"-0.017": 0.0,
			"-0.016": 0.0,
			"-0.015": 0.0,
			"-0.014": 0.0,
			"-0.013": 0.0,
			"-0.012": 0.0,
			"-0.011": 0.228683551419,
			"-0.01": 0.722036130942,
			"-0.009": 0.700337443741,
			"-0.008": 1.5336408612,
			"-0.007": 3.28581742709,
			"-0.006": 5.22938860797,
			"-0.005": 9.50528354717,
			"-0.004": 15.3700144001,
			"-0.003": 20.6578177001,
			"-0.002": 42.8960752305,
			"-0.001": 54.3923649476,
			"0.0": 42.9164636428,
			"0.001": 35.4511813042,
			"0.002": 23.3219465231,
			"0.003": 29.4253182227,
			"0.004": 23.1326647217,
			"0.005": 15.0458377377,
			"0.006": 1.87474028451,
			"0.007": 0.64965037302,
			"0.008": 0.898572569223,
			"0.009": 0.42087718224,
			"0.01": 0.515057362127,
			"0.011": 0.699018228708,
			"0.012": 0.524636129417,
			"0.013": 0.44834054107,
			"0.014": 0.045688238565,
			"0.015": 0.0,
			"0.016": 0.0,
			"0.017": 0.0,
			"0.018": 0.0,
			"0.019": 0.0,
			"0.02": 0.0,
			"0.021": 0.0,
			"0.022": 0.0,
			"0.023": 0.0,
			"0.024": 0.0,
			"0.025": 0.0
		}
	}
}
