{
	 "smiles": "CC1=C(C=C(O1)C1=CC=C(C)C=C1)C(O)=O", 
	 "Tm": 504.15, 
	 "num_atms": 28, 
	 "gaussian": { 
		 "optdone": 1, 
		 "sigma_profile": "yes", 
		 "theory": "DFT", 
		 "functional": "B3LYP", 
		 "basiset": "6-31G**", 
		 "properties": { 
			 "R2extent": 5528.7916, 
			 "electric_dipole_moment_norm": 4.8426758729, 
			 "electric_quadrupole_moment_norm": 22.3601908308, 
			 "total_energy": -728.296700716, 
			 "HOMO_LUMO_gap": 0.17052, 
			 "cosmo_polarized_energy": -15.26, 
			 "cosmo_cavitation_energy": 32.69, 
			 "cosmo_dispersion_energy": -23.7, 
			 "cosmo_repulsion_energy": 1.84, 
			 "cosmo_total_nonelectrostatic_energy": 10.83, 
			 "SMD_solvation_energy": 7.07 
		},
		"coords": [
			{
				"x": 1.4861279985,
				"y": -2.4420223766,
				"z": 1.2249911693,
				"element": "C" 
			},
			{
				"x": 0.3055379092,
				"y": -1.5311224754,
				"z": 1.2147720857,
				"element": "C" 
			},
			{
				"x": -0.8396420509,
				"y": -1.4152859295,
				"z": 1.9709457631,
				"element": "C" 
			},
			{
				"x": -1.6150538592,
				"y": -0.3654767615,
				"z": 1.3762098597,
				"element": "C" 
			},
			{
				"x": -0.8961896159,
				"y": 0.1115546398,
				"z": 0.3183963753,
				"element": "C" 
			},
			{
				"x": 0.2779497199,
				"y": -0.6086937524,
				"z": 0.2175237687,
				"element": "O" 
			},
			{
				"x": -1.1154879497,
				"y": 1.1646020201,
				"z": -0.6652161121,
				"element": "C" 
			},
			{
				"x": -0.1682496893,
				"y": 1.4371086797,
				"z": -1.6653837463,
				"element": "C" 
			},
			{
				"x": -0.3926911786,
				"y": 2.4483599674,
				"z": -2.5965946925,
				"element": "C" 
			},
			{
				"x": -1.5607296783,
				"y": 3.2200833356,
				"z": -2.5693799576,
				"element": "C" 
			},
			{
				"x": -1.8144923715,
				"y": 4.2970021171,
				"z": -3.5965586526,
				"element": "C" 
			},
			{
				"x": -2.5019671572,
				"y": 2.9453219041,
				"z": -1.5652240183,
				"element": "C" 
			},
			{
				"x": -2.289079465,
				"y": 1.9392090676,
				"z": -0.6305606193,
				"element": "C" 
			},
			{
				"x": -1.3020541278,
				"y": -2.213725443,
				"z": 3.1281186163,
				"element": "C" 
			},
			{
				"x": -0.3408852949,
				"y": -2.855120486,
				"z": 3.8585523275,
				"element": "O" 
			},
			{
				"x": -2.4642954848,
				"y": -2.3164001938,
				"z": 3.4412200015,
				"element": "O" 
			},
			{
				"x": 1.7070113286,
				"y": -2.782538737,
				"z": 0.2086732285,
				"element": "H" 
			},
			{
				"x": 2.3879783863,
				"y": -1.9435488731,
				"z": 1.6029272684,
				"element": "H" 
			},
			{
				"x": 1.2896065704,
				"y": -3.3243745486,
				"z": 1.8381797677,
				"element": "H" 
			},
			{
				"x": -2.5810717308,
				"y": -0.0343617406,
				"z": 1.7250245205,
				"element": "H" 
			},
			{
				"x": 0.7458571344,
				"y": 0.8549838943,
				"z": -1.7078400415,
				"element": "H" 
			},
			{
				"x": 0.3569554798,
				"y": 2.642254391,
				"z": -3.3598078679,
				"element": "H" 
			},
			{
				"x": -2.4942838017,
				"y": 3.9439164846,
				"z": -4.3823226275,
				"element": "H" 
			},
			{
				"x": -2.2768782308,
				"y": 5.180700316,
				"z": -3.1449206919,
				"element": "H" 
			},
			{
				"x": -0.8872616174,
				"y": 4.6118194669,
				"z": -4.0837939739,
				"element": "H" 
			},
			{
				"x": -3.4162586228,
				"y": 3.5316263506,
				"z": -1.515078398,
				"element": "H" 
			},
			{
				"x": -3.0370674463,
				"y": 1.7538618737,
				"z": 0.1344455148,
				"element": "H" 
			},
			{
				"x": 0.5315148458,
				"y": -2.5084331911,
				"z": 3.6277011326,
				"element": "H" 
			}
		],
		 "valence_orbital": [ 
			{
				"type": "occ",
				"energy": -0.292,
				"method": "rhf"
			},
			{
				"type": "occ",
				"energy": -0.27703,
				"method": "rhf"
			},
			{
				"type": "occ",
				"energy": -0.26823,
				"method": "rhf"
			},
			{
				"type": "occ",
				"energy": -0.25553,
				"method": "rhf"
			},
			{
				"type": "occ",
				"energy": -0.21047,
				"method": "rhf"
			},
			{
				"type": "unocc",
				"energy": -0.03995,
				"method": "rhf"
			},
			{
				"type": "unocc",
				"energy": -0.02337,
				"method": "rhf"
			},
			{
				"type": "unocc",
				"energy": -0.00523,
				"method": "rhf"
			},
			{
				"type": "unocc",
				"energy": 0.05448,
				"method": "rhf"
			},
			{
				"type": "unocc",
				"energy": 0.05875,
				"method": "rhf"
			}
		],
		"cosmo_sigma_profile": { 
			"-0.025": 0.0,
			"-0.024": 0.0,
			"-0.023": 0.0,
			"-0.022": 0.0,
			"-0.021": 0.0,
			"-0.02": 0.0,
			"-0.019": 0.0,
			"-0.018": 0.160186735087,
			"-0.017": 0.850917767416,
			"-0.016": 0.881477212346,
			"-0.015": 1.18174708349,
			"-0.014": 0.782942669942,
			"-0.013": 0.671743386195,
			"-0.012": 1.11699982358,
			"-0.011": 0.958888370714,
			"-0.01": 0.833128875732,
			"-0.009": 0.924555903129,
			"-0.008": 3.19612068496,
			"-0.007": 5.5455079184,
			"-0.006": 10.5548126533,
			"-0.005": 16.3895864592,
			"-0.004": 22.0366773681,
			"-0.003": 22.3853313692,
			"-0.002": 20.6919387859,
			"-0.001": 18.8390196762,
			"0.0": 19.903170252,
			"0.001": 17.3405955214,
			"0.002": 18.3413346803,
			"0.003": 17.8194622673,
			"0.004": 14.8150316722,
			"0.005": 13.3671767909,
			"0.006": 5.25570576448,
			"0.007": 2.6832409476,
			"0.008": 2.85075960086,
			"0.009": 2.81224227456,
			"0.01": 4.4863565213,
			"0.011": 5.39557745902,
			"0.012": 5.67942449331,
			"0.013": 1.96440722497,
			"0.014": 0.144159524856,
			"0.015": 0.0,
			"0.016": 0.0,
			"0.017": 0.0,
			"0.018": 0.0,
			"0.019": 0.0,
			"0.02": 0.0,
			"0.021": 0.0,
			"0.022": 0.0,
			"0.023": 0.0,
			"0.024": 0.0,
			"0.025": 0.0
		}
	}
}
