{
	 "smiles": "BrCC(=O)C1=CC=C(C=C1)C1=CSC=C1", 
	 "Tm": 387.15, 
	 "num_atms": 24, 
	 "gaussian": { 
		 "optdone": 1, 
		 "sigma_profile": "yes", 
		 "theory": "DFT", 
		 "functional": "B3LYP", 
		 "basiset": "6-31G**", 
		 "properties": { 
			 "R2extent": 8507.9056, 
			 "electric_dipole_moment_norm": 3.26859232392, 
			 "electric_quadrupole_moment_norm": 12.8144522595, 
			 "total_energy": -3507.5060442, 
			 "HOMO_LUMO_gap": 0.1533, 
			 "cosmo_polarized_energy": -10.63, 
			 "cosmo_cavitation_energy": 32.48, 
			 "cosmo_dispersion_energy": -24.48, 
			 "cosmo_repulsion_energy": 1.85, 
			 "cosmo_total_nonelectrostatic_energy": 9.85, 
			 "SMD_solvation_energy": 4.9 
		},
		"coords": [
			{
				"x": 1.2820963201,
				"y": 2.3879742374,
				"z": 4.7206091262,
				"element": "Br" 
			},
			{
				"x": -0.5187817331,
				"y": 1.6867914386,
				"z": 4.2845225371,
				"element": "C" 
			},
			{
				"x": -0.8395244157,
				"y": 1.8678260252,
				"z": 2.8025640025,
				"element": "C" 
			},
			{
				"x": -1.656964613,
				"y": 2.7200343582,
				"z": 2.4888854592,
				"element": "O" 
			},
			{
				"x": -0.1976762878,
				"y": 0.9843619604,
				"z": 1.7903490281,
				"element": "C" 
			},
			{
				"x": -0.5716338808,
				"y": 1.145370451,
				"z": 0.445921678,
				"element": "C" 
			},
			{
				"x": -0.0299428933,
				"y": 0.3371745074,
				"z": -0.5432409024,
				"element": "C" 
			},
			{
				"x": 0.9066496835,
				"y": -0.6659456223,
				"z": -0.226589492,
				"element": "C" 
			},
			{
				"x": 1.2745744397,
				"y": -0.8247016182,
				"z": 1.121794273,
				"element": "C" 
			},
			{
				"x": 0.7378460093,
				"y": -0.011928943,
				"z": 2.1134489516,
				"element": "C" 
			},
			{
				"x": 1.485850247,
				"y": -1.5189810183,
				"z": -1.2813249415,
				"element": "C" 
			},
			{
				"x": 2.7425259745,
				"y": -2.0807058352,
				"z": -1.2253940556,
				"element": "C" 
			},
			{
				"x": 3.1097151831,
				"y": -3.0125000616,
				"z": -2.6332390538,
				"element": "S" 
			},
			{
				"x": 1.5570506067,
				"y": -2.6632654793,
				"z": -3.3240345642,
				"element": "C" 
			},
			{
				"x": 0.8129922742,
				"y": -1.8649034604,
				"z": -2.5055854862,
				"element": "C" 
			},
			{
				"x": -0.5215242155,
				"y": 0.6448103661,
				"z": 4.6034724352,
				"element": "H" 
			},
			{
				"x": -1.2213127362,
				"y": 2.2776433997,
				"z": 4.8664992516,
				"element": "H" 
			},
			{
				"x": -1.2906991687,
				"y": 1.9202103838,
				"z": 0.2023792898,
				"element": "H" 
			},
			{
				"x": -0.3155733163,
				"y": 0.496034988,
				"z": -1.5783622981,
				"element": "H" 
			},
			{
				"x": 1.9734360998,
				"y": -1.6087960078,
				"z": 1.3958499423,
				"element": "H" 
			},
			{
				"x": 1.0607457721,
				"y": -0.1533060206,
				"z": 3.1391834888,
				"element": "H" 
			},
			{
				"x": 3.4871034518,
				"y": -1.961690648,
				"z": -0.4510102893,
				"element": "H" 
			},
			{
				"x": 1.2833456202,
				"y": -3.0792080146,
				"z": -4.2835130813,
				"element": "H" 
			},
			{
				"x": -0.1974984217,
				"y": -1.5533993865,
				"z": -2.7425852991,
				"element": "H" 
			}
		],
		 "valence_orbital": [ 
			{
				"type": "occ",
				"energy": -0.28148,
				"method": "rhf"
			},
			{
				"type": "occ",
				"energy": -0.26587,
				"method": "rhf"
			},
			{
				"type": "occ",
				"energy": -0.25765,
				"method": "rhf"
			},
			{
				"type": "occ",
				"energy": -0.25357,
				"method": "rhf"
			},
			{
				"type": "occ",
				"energy": -0.23081,
				"method": "rhf"
			},
			{
				"type": "unocc",
				"energy": -0.07751,
				"method": "rhf"
			},
			{
				"type": "unocc",
				"energy": -0.02922,
				"method": "rhf"
			},
			{
				"type": "unocc",
				"energy": -0.01671,
				"method": "rhf"
			},
			{
				"type": "unocc",
				"energy": -0.0064,
				"method": "rhf"
			},
			{
				"type": "unocc",
				"energy": 0.02322,
				"method": "rhf"
			}
		],
		"cosmo_sigma_profile": { 
			"-0.025": 0.0,
			"-0.024": 0.0,
			"-0.023": 0.0,
			"-0.022": 0.0,
			"-0.021": 0.0,
			"-0.02": 0.0,
			"-0.019": 0.0,
			"-0.018": 0.0,
			"-0.017": 0.0,
			"-0.016": 0.0,
			"-0.015": 0.0,
			"-0.014": 0.0,
			"-0.013": 0.0,
			"-0.012": 0.0,
			"-0.011": 0.0,
			"-0.01": 0.299414898288,
			"-0.009": 3.76452009008,
			"-0.008": 9.34475889082,
			"-0.007": 12.8634685331,
			"-0.006": 15.2498169177,
			"-0.005": 15.1945983142,
			"-0.004": 15.02816703,
			"-0.003": 13.2725670431,
			"-0.002": 12.1924412647,
			"-0.001": 13.8631745964,
			"0.0": 16.1351439056,
			"0.001": 22.0638986684,
			"0.002": 25.2353392134,
			"0.003": 34.2470102839,
			"0.004": 27.6802002834,
			"0.005": 14.1816927454,
			"0.006": 2.5755890767,
			"0.007": 1.70295299867,
			"0.008": 1.28916514591,
			"0.009": 1.83826708356,
			"0.01": 2.6679609628,
			"0.011": 4.22813871134,
			"0.012": 1.58578047859,
			"0.013": 0.0589713800134,
			"0.014": 0.0,
			"0.015": 0.0,
			"0.016": 0.0,
			"0.017": 0.0,
			"0.018": 0.0,
			"0.019": 0.0,
			"0.02": 0.0,
			"0.021": 0.0,
			"0.022": 0.0,
			"0.023": 0.0,
			"0.024": 0.0,
			"0.025": 0.0
		}
	}
}
