{
	 "smiles": "OC(=O)C1=CC(=CN=C1)C(O)=O", 
	 "Tm": 597.15, 
	 "num_atms": 17, 
	 "gaussian": { 
		 "optdone": 1, 
		 "sigma_profile": "yes", 
		 "theory": "DFT", 
		 "functional": "B3LYP", 
		 "basiset": "6-31G**", 
		 "properties": { 
			 "R2extent": 2364.2888, 
			 "electric_dipole_moment_norm": 1.53840364339, 
			 "electric_quadrupole_moment_norm": 19.2598902214, 
			 "total_energy": -625.418541576, 
			 "HOMO_LUMO_gap": 0.19604, 
			 "cosmo_polarized_energy": -19.17, 
			 "cosmo_cavitation_energy": 23.06, 
			 "cosmo_dispersion_energy": -17.02, 
			 "cosmo_repulsion_energy": 1.35, 
			 "cosmo_total_nonelectrostatic_energy": 7.38, 
			 "SMD_solvation_energy": 5.1 
		},
		"coords": [
			{
				"x": 2.408186591,
				"y": 1.9186252484,
				"z": 1.8791318569,
				"element": "O" 
			},
			{
				"x": 2.6375789821,
				"y": 1.3036609093,
				"z": 0.697297147,
				"element": "C" 
			},
			{
				"x": 3.7260917629,
				"y": 1.2858891347,
				"z": 0.1615248047,
				"element": "O" 
			},
			{
				"x": 1.4157787315,
				"y": 0.6589880858,
				"z": 0.1406887223,
				"element": "C" 
			},
			{
				"x": 0.1750021476,
				"y": 0.7020780976,
				"z": 0.7740090514,
				"element": "C" 
			},
			{
				"x": -0.9085733373,
				"y": 0.0519052918,
				"z": 0.174566256,
				"element": "C" 
			},
			{
				"x": -0.6935064155,
				"y": -0.5775118606,
				"z": -1.0584321034,
				"element": "C" 
			},
			{
				"x": 0.489387434,
				"y": -0.6235499636,
				"z": -1.6816636335,
				"element": "N" 
			},
			{
				"x": 1.5199087917,
				"y": -0.0231123715,
				"z": -1.0821293969,
				"element": "C" 
			},
			{
				"x": -2.2412019627,
				"y": 0.1152894637,
				"z": 0.8615494186,
				"element": "C" 
			},
			{
				"x": -3.1726551696,
				"y": -0.7978984574,
				"z": 0.4864116903,
				"element": "O" 
			},
			{
				"x": -2.4977475493,
				"y": 0.9344632486,
				"z": 1.7104848598,
				"element": "O" 
			},
			{
				"x": 3.255378896,
				"y": 2.3063705417,
				"z": 2.1552022466,
				"element": "H" 
			},
			{
				"x": 0.03268767,
				"y": 1.2241536298,
				"z": 1.7131486473,
				"element": "H" 
			},
			{
				"x": -1.5164233005,
				"y": -1.0478985625,
				"z": -1.5976519554,
				"element": "H" 
			},
			{
				"x": 2.4833961442,
				"y": -0.0691251342,
				"z": -1.5828767995,
				"element": "H" 
			},
			{
				"x": -2.783589416,
				"y": -1.4792273016,
				"z": -0.0792608123,
				"element": "H" 
			}
		],
		 "valence_orbital": [ 
			{
				"type": "occ",
				"energy": -0.31722,
				"method": "rhf"
			},
			{
				"type": "occ",
				"energy": -0.30696,
				"method": "rhf"
			},
			{
				"type": "occ",
				"energy": -0.29742,
				"method": "rhf"
			},
			{
				"type": "occ",
				"energy": -0.29101,
				"method": "rhf"
			},
			{
				"type": "occ",
				"energy": -0.2787,
				"method": "rhf"
			},
			{
				"type": "unocc",
				"energy": -0.08266,
				"method": "rhf"
			},
			{
				"type": "unocc",
				"energy": -0.07084,
				"method": "rhf"
			},
			{
				"type": "unocc",
				"energy": -0.00285,
				"method": "rhf"
			},
			{
				"type": "unocc",
				"energy": 0.04789,
				"method": "rhf"
			},
			{
				"type": "unocc",
				"energy": 0.05726,
				"method": "rhf"
			}
		],
		"cosmo_sigma_profile": { 
			"-0.025": 0.0,
			"-0.024": 0.0,
			"-0.023": 0.0,
			"-0.022": 0.0,
			"-0.021": 0.0,
			"-0.02": 0.257152649666,
			"-0.019": 1.94398496602,
			"-0.018": 1.81009926613,
			"-0.017": 1.90355719385,
			"-0.016": 1.65517257553,
			"-0.015": 2.3369827374,
			"-0.014": 1.39656750404,
			"-0.013": 1.60388974837,
			"-0.012": 2.08446476501,
			"-0.011": 2.66200397998,
			"-0.01": 1.46280717139,
			"-0.009": 2.07896386085,
			"-0.008": 3.18946315309,
			"-0.007": 4.46034834677,
			"-0.006": 6.06425071655,
			"-0.005": 6.47386590728,
			"-0.004": 9.51584808061,
			"-0.003": 14.4945062319,
			"-0.002": 20.9268509678,
			"-0.001": 10.7506915216,
			"0.0": 6.92254610421,
			"0.001": 7.8752333879,
			"0.002": 7.02084294633,
			"0.003": 5.74962073949,
			"0.004": 5.13311030664,
			"0.005": 6.23450722433,
			"0.006": 7.02274507975,
			"0.007": 4.66317524494,
			"0.008": 5.26373668425,
			"0.009": 6.85926863807,
			"0.01": 8.89048358699,
			"0.011": 10.6422915382,
			"0.012": 3.94846333047,
			"0.013": 1.0568843042,
			"0.014": 0.815166918155,
			"0.015": 0.322043312243,
			"0.016": 0.0,
			"0.017": 0.0,
			"0.018": 0.0,
			"0.019": 0.0,
			"0.02": 0.0,
			"0.021": 0.0,
			"0.022": 0.0,
			"0.023": 0.0,
			"0.024": 0.0,
			"0.025": 0.0
		}
	}
}
