{
	 "smiles": "CC(Cl)C(=O)NCC(F)(F)F", 
	 "Tm": 316.15, 
	 "num_atms": 18, 
	 "gaussian": { 
		 "optdone": 1, 
		 "sigma_profile": "yes", 
		 "theory": "DFT", 
		 "functional": "B3LYP", 
		 "basiset": "6-31G**", 
		 "properties": { 
			 "R2extent": 2912.6007, 
			 "electric_dipole_moment_norm": 1.89617749697, 
			 "electric_quadrupole_moment_norm": 6.05644914038, 
			 "total_energy": -1084.47125179, 
			 "HOMO_LUMO_gap": 0.27323, 
			 "cosmo_polarized_energy": -9.34, 
			 "cosmo_cavitation_energy": 25.18, 
			 "cosmo_dispersion_energy": -17.56, 
			 "cosmo_repulsion_energy": 1.39, 
			 "cosmo_total_nonelectrostatic_energy": 9.02, 
			 "SMD_solvation_energy": 5.37 
		},
		"coords": [
			{
				"x": -0.046633955,
				"y": -2.9879726868,
				"z": 0.8081536858,
				"element": "C" 
			},
			{
				"x": 0.945147054,
				"y": -1.8332828457,
				"z": 0.9082533902,
				"element": "C" 
			},
			{
				"x": 2.3542107247,
				"y": -2.1131345656,
				"z": -0.2355717509,
				"element": "Cl" 
			},
			{
				"x": 0.2405604845,
				"y": -0.4804235283,
				"z": 0.7167159257,
				"element": "C" 
			},
			{
				"x": -0.6816573466,
				"y": -0.208090919,
				"z": 1.4738961915,
				"element": "O" 
			},
			{
				"x": 0.6607879116,
				"y": 0.3294296931,
				"z": -0.2924519424,
				"element": "N" 
			},
			{
				"x": 0.0933825971,
				"y": 1.6424202225,
				"z": -0.48455323,
				"element": "C" 
			},
			{
				"x": 1.0812184428,
				"y": 2.7407376479,
				"z": -0.1250775972,
				"element": "C" 
			},
			{
				"x": 1.4464739264,
				"y": 2.688749037,
				"z": 1.1673571345,
				"element": "F" 
			},
			{
				"x": 2.2070274464,
				"y": 2.6357118041,
				"z": -0.8709828963,
				"element": "F" 
			},
			{
				"x": 0.5413374791,
				"y": 3.952404894,
				"z": -0.3631908276,
				"element": "F" 
			},
			{
				"x": 0.4363001656,
				"y": -3.9326834331,
				"z": 1.0656618994,
				"element": "H" 
			},
			{
				"x": -0.8656606379,
				"y": -2.7967125998,
				"z": 1.5057187501,
				"element": "H" 
			},
			{
				"x": -0.4549170515,
				"y": -3.0650536295,
				"z": -0.2031297245,
				"element": "H" 
			},
			{
				"x": 1.4008093391,
				"y": -1.805013203,
				"z": 1.8999857785,
				"element": "H" 
			},
			{
				"x": 1.4649935226,
				"y": 0.0527593807,
				"z": -0.838303988,
				"element": "H" 
			},
			{
				"x": -0.781669784,
				"y": 1.7280847697,
				"z": 0.1621818963,
				"element": "H" 
			},
			{
				"x": -0.2107103192,
				"y": 1.7951699616,
				"z": -1.524962695,
				"element": "H" 
			}
		],
		 "valence_orbital": [ 
			{
				"type": "occ",
				"energy": -0.37421,
				"method": "rhf"
			},
			{
				"type": "occ",
				"energy": -0.32933,
				"method": "rhf"
			},
			{
				"type": "occ",
				"energy": -0.31486,
				"method": "rhf"
			},
			{
				"type": "occ",
				"energy": -0.27978,
				"method": "rhf"
			},
			{
				"type": "occ",
				"energy": -0.27122,
				"method": "rhf"
			},
			{
				"type": "unocc",
				"energy": 0.00201,
				"method": "rhf"
			},
			{
				"type": "unocc",
				"energy": 0.0062,
				"method": "rhf"
			},
			{
				"type": "unocc",
				"energy": 0.08681,
				"method": "rhf"
			},
			{
				"type": "unocc",
				"energy": 0.10492,
				"method": "rhf"
			},
			{
				"type": "unocc",
				"energy": 0.11457,
				"method": "rhf"
			}
		],
		"cosmo_sigma_profile": { 
			"-0.025": 0.0,
			"-0.024": 0.0,
			"-0.023": 0.0,
			"-0.022": 0.0,
			"-0.021": 0.0,
			"-0.02": 0.0,
			"-0.019": 0.0,
			"-0.018": 0.0,
			"-0.017": 0.0,
			"-0.016": 0.0,
			"-0.015": 0.0,
			"-0.014": 0.0,
			"-0.013": 0.066616509855,
			"-0.012": 0.622790202075,
			"-0.011": 0.766752841349,
			"-0.01": 0.734241311784,
			"-0.009": 3.80134168879,
			"-0.008": 7.91449087483,
			"-0.007": 5.82724004498,
			"-0.006": 6.74570478058,
			"-0.005": 12.9963419855,
			"-0.004": 12.1798682091,
			"-0.003": 12.4279613118,
			"-0.002": 11.3118470944,
			"-0.001": 14.3134651324,
			"0.0": 12.6948042235,
			"0.001": 12.3756379968,
			"0.002": 24.827802872,
			"0.003": 30.0773804285,
			"0.004": 6.10470974397,
			"0.005": 7.78175101707,
			"0.006": 4.09832292352,
			"0.007": 1.52237520589,
			"0.008": 1.00681867642,
			"0.009": 1.54929088801,
			"0.01": 1.2631624612,
			"0.011": 2.01639667153,
			"0.012": 3.73612113498,
			"0.013": 2.64737622267,
			"0.014": 0.0496142164434,
			"0.015": 0.0,
			"0.016": 0.0,
			"0.017": 0.0,
			"0.018": 0.0,
			"0.019": 0.0,
			"0.02": 0.0,
			"0.021": 0.0,
			"0.022": 0.0,
			"0.023": 0.0,
			"0.024": 0.0,
			"0.025": 0.0
		}
	}
}
