{
	 "smiles": "NCC1CCN(CC1)C(=O)C1=CC=CC=C1", 
	 "Tm": 344.15, 
	 "num_atms": 34, 
	 "gaussian": { 
		 "optdone": 1, 
		 "sigma_profile": "yes", 
		 "theory": "DFT", 
		 "functional": "B3LYP", 
		 "basiset": "6-31G**", 
		 "properties": { 
			 "R2extent": 4972.2454, 
			 "electric_dipole_moment_norm": 5.11960262716, 
			 "electric_quadrupole_moment_norm": 14.9046005679, 
			 "total_energy": -690.96881347, 
			 "HOMO_LUMO_gap": 0.20234, 
			 "cosmo_polarized_energy": -14.24, 
			 "cosmo_cavitation_energy": 34.64, 
			 "cosmo_dispersion_energy": -25.01, 
			 "cosmo_repulsion_energy": 1.96, 
			 "cosmo_total_nonelectrostatic_energy": 11.59, 
			 "SMD_solvation_energy": 4.4 
		},
		"coords": [
			{
				"x": -2.3929371823,
				"y": -1.3728861166,
				"z": -3.3450922478,
				"element": "N" 
			},
			{
				"x": -2.3594765425,
				"y": 0.0000782961,
				"z": -3.8698602851,
				"element": "C" 
			},
			{
				"x": -1.9743225717,
				"y": 1.0270437553,
				"z": -2.7890662427,
				"element": "C" 
			},
			{
				"x": -3.0505710653,
				"y": 1.1077821479,
				"z": -1.6849489956,
				"element": "C" 
			},
			{
				"x": -2.5222943424,
				"y": 1.7453011308,
				"z": -0.4011724177,
				"element": "C" 
			},
			{
				"x": -1.4152215729,
				"y": 0.9466879233,
				"z": 0.1548273464,
				"element": "N" 
			},
			{
				"x": -0.6862292274,
				"y": 0.0775743039,
				"z": -0.7806971532,
				"element": "C" 
			},
			{
				"x": -0.5813994229,
				"y": 0.7484874211,
				"z": -2.1577917139,
				"element": "C" 
			},
			{
				"x": -0.9727175798,
				"y": 1.3203595735,
				"z": 1.3994931531,
				"element": "C" 
			},
			{
				"x": -1.4440059433,
				"y": 2.3042753248,
				"z": 1.972359088,
				"element": "O" 
			},
			{
				"x": 0.0765303221,
				"y": 0.4867200348,
				"z": 2.0891078354,
				"element": "C" 
			},
			{
				"x": 1.0349612635,
				"y": 1.1608552407,
				"z": 2.8588446423,
				"element": "C" 
			},
			{
				"x": 1.9888755078,
				"y": 0.4484310204,
				"z": 3.5821681918,
				"element": "C" 
			},
			{
				"x": 1.9778454329,
				"y": -0.9491119672,
				"z": 3.5696637972,
				"element": "C" 
			},
			{
				"x": 1.0076998876,
				"y": -1.6287789888,
				"z": 2.8313560041,
				"element": "C" 
			},
			{
				"x": 0.0641422725,
				"y": -0.9151310008,
				"z": 2.0904026577,
				"element": "C" 
			},
			{
				"x": -1.4511995763,
				"y": -1.7530205461,
				"z": -3.2973877396,
				"element": "H" 
			},
			{
				"x": -2.9075995825,
				"y": -1.9769221209,
				"z": -3.97941715,
				"element": "H" 
			},
			{
				"x": -1.6803063071,
				"y": 0.1208595649,
				"z": -4.7317846557,
				"element": "H" 
			},
			{
				"x": -3.366680124,
				"y": 0.2407069744,
				"z": -4.2316716376,
				"element": "H" 
			},
			{
				"x": -1.9218989734,
				"y": 2.00053688,
				"z": -3.2945774704,
				"element": "H" 
			},
			{
				"x": -3.9098456162,
				"y": 1.687728352,
				"z": -2.0404666618,
				"element": "H" 
			},
			{
				"x": -3.4138682103,
				"y": 0.0967081748,
				"z": -1.4708192608,
				"element": "H" 
			},
			{
				"x": -2.1830834175,
				"y": 2.77486678,
				"z": -0.5860161866,
				"element": "H" 
			},
			{
				"x": -3.3037588258,
				"y": 1.816631783,
				"z": 0.3598661951,
				"element": "H" 
			},
			{
				"x": 0.3100386133,
				"y": -0.1107871735,
				"z": -0.3793489303,
				"element": "H" 
			},
			{
				"x": -1.1936982718,
				"y": -0.8901760604,
				"z": -0.8834799263,
				"element": "H" 
			},
			{
				"x": -0.030263708,
				"y": 1.6881610623,
				"z": -2.0384157103,
				"element": "H" 
			},
			{
				"x": 0.0302137018,
				"y": 0.1186963429,
				"z": -2.8168599766,
				"element": "H" 
			},
			{
				"x": 1.0076550231,
				"y": 2.2451800399,
				"z": 2.8870177979,
				"element": "H" 
			},
			{
				"x": 2.7350507874,
				"y": 0.9814106651,
				"z": 4.1646185731,
				"element": "H" 
			},
			{
				"x": 2.7158277507,
				"y": -1.5052034154,
				"z": 4.1409574252,
				"element": "H" 
			},
			{
				"x": 0.9808697346,
				"y": -2.7148242271,
				"z": 2.8358261307,
				"element": "H" 
			},
			{
				"x": -0.6980322337,
				"y": -1.4497411752,
				"z": 1.5317655243,
				"element": "H" 
			}
		],
		 "valence_orbital": [ 
			{
				"type": "occ",
				"energy": -0.25434,
				"method": "rhf"
			},
			{
				"type": "occ",
				"energy": -0.25002,
				"method": "rhf"
			},
			{
				"type": "occ",
				"energy": -0.24189,
				"method": "rhf"
			},
			{
				"type": "occ",
				"energy": -0.23157,
				"method": "rhf"
			},
			{
				"type": "occ",
				"energy": -0.22304,
				"method": "rhf"
			},
			{
				"type": "unocc",
				"energy": -0.0207,
				"method": "rhf"
			},
			{
				"type": "unocc",
				"energy": -0.00045,
				"method": "rhf"
			},
			{
				"type": "unocc",
				"energy": 0.05965,
				"method": "rhf"
			},
			{
				"type": "unocc",
				"energy": 0.06239,
				"method": "rhf"
			},
			{
				"type": "unocc",
				"energy": 0.09349,
				"method": "rhf"
			}
		],
		"cosmo_sigma_profile": { 
			"-0.025": 0.0,
			"-0.024": 0.0,
			"-0.023": 0.0,
			"-0.022": 0.0,
			"-0.021": 0.0,
			"-0.02": 0.0,
			"-0.019": 0.0,
			"-0.018": 0.0,
			"-0.017": 0.0,
			"-0.016": 0.0,
			"-0.015": 0.0,
			"-0.014": 0.0,
			"-0.013": 0.0,
			"-0.012": 0.0,
			"-0.011": 0.0,
			"-0.01": 0.517372636562,
			"-0.009": 2.41697288113,
			"-0.008": 3.21266404839,
			"-0.007": 3.61658671738,
			"-0.006": 10.10555781,
			"-0.005": 13.3152795351,
			"-0.004": 20.6919988811,
			"-0.003": 30.8897863468,
			"-0.002": 40.1736811919,
			"-0.001": 33.0336084731,
			"0.0": 23.4086449653,
			"0.001": 14.1232508077,
			"0.002": 11.5084746799,
			"0.003": 10.9380671417,
			"0.004": 11.6520977347,
			"0.005": 11.6281345424,
			"0.006": 3.73395065981,
			"0.007": 2.18681078306,
			"0.008": 2.33793847082,
			"0.009": 2.74694971729,
			"0.01": 2.23719068068,
			"0.011": 2.05899064786,
			"0.012": 2.31657202185,
			"0.013": 2.17148708897,
			"0.014": 5.57045838513,
			"0.015": 3.45610112701,
			"0.016": 0.395875968584,
			"0.017": 0.153564347617,
			"0.018": 0.0,
			"0.019": 0.0,
			"0.02": 0.0,
			"0.021": 0.0,
			"0.022": 0.0,
			"0.023": 0.0,
			"0.024": 0.0,
			"0.025": 0.0
		}
	}
}
