{
	 "smiles": "C1CNCCCNCCNCCCNC1", 
	 "Tm": 373.15, 
	 "num_atms": 41, 
	 "gaussian": { 
		 "optdone": 1, 
		 "sigma_profile": "yes", 
		 "theory": "DFT", 
		 "functional": "B3LYP", 
		 "basiset": "6-31G**", 
		 "properties": { 
			 "R2extent": 4281.4133, 
			 "electric_dipole_moment_norm": 3.00665631391, 
			 "electric_quadrupole_moment_norm": 10.9437244935, 
			 "total_energy": -653.812941033, 
			 "HOMO_LUMO_gap": 0.2721, 
			 "cosmo_polarized_energy": -9.17, 
			 "cosmo_cavitation_energy": 37.14, 
			 "cosmo_dispersion_energy": -26.14, 
			 "cosmo_repulsion_energy": 2.03, 
			 "cosmo_total_nonelectrostatic_energy": 13.03, 
			 "SMD_solvation_energy": -0.77 
		},
		"coords": [
			{
				"x": 0.7008910325,
				"y": -1.2625008412,
				"z": -2.2228938186,
				"element": "C" 
			},
			{
				"x": 0.8366793149,
				"y": -2.7853214237,
				"z": -2.0623217037,
				"element": "C" 
			},
			{
				"x": 0.3303786225,
				"y": -3.2946921929,
				"z": -0.7752013648,
				"element": "N" 
			},
			{
				"x": -1.1321403218,
				"y": -3.3884887656,
				"z": -0.6440499812,
				"element": "C" 
			},
			{
				"x": -1.8386385635,
				"y": -2.0872729469,
				"z": -0.2289936263,
				"element": "C" 
			},
			{
				"x": -1.4242258855,
				"y": -1.4954487649,
				"z": 1.1240099682,
				"element": "C" 
			},
			{
				"x": -0.0443912997,
				"y": -1.0168827787,
				"z": 1.1515942033,
				"element": "N" 
			},
			{
				"x": 0.2869200136,
				"y": -0.1574185763,
				"z": 2.2903355365,
				"element": "C" 
			},
			{
				"x": 0.2807103147,
				"y": 1.3179065707,
				"z": 1.868425931,
				"element": "C" 
			},
			{
				"x": 1.4705499767,
				"y": 1.6188772169,
				"z": 1.0681154438,
				"element": "N" 
			},
			{
				"x": 1.3023744712,
				"y": 2.6851831957,
				"z": 0.0713008831,
				"element": "C" 
			},
			{
				"x": 0.8793549595,
				"y": 2.1789270041,
				"z": -1.3234496609,
				"element": "C" 
			},
			{
				"x": 2.0581364729,
				"y": 1.5414592533,
				"z": -2.0889691409,
				"element": "C" 
			},
			{
				"x": 1.7231747868,
				"y": 0.8066981798,
				"z": -3.3139209787,
				"element": "N" 
			},
			{
				"x": 1.7129572834,
				"y": -0.6522313322,
				"z": -3.2107928007,
				"element": "C" 
			},
			{
				"x": 0.8249529638,
				"y": -0.8142457496,
				"z": -1.23329737,
				"element": "H" 
			},
			{
				"x": -0.3112543841,
				"y": -1.0005995284,
				"z": -2.5568879682,
				"element": "H" 
			},
			{
				"x": 0.3630601371,
				"y": -3.2974839171,
				"z": -2.9214442886,
				"element": "H" 
			},
			{
				"x": 1.9032675201,
				"y": -3.044084915,
				"z": -2.0956091541,
				"element": "H" 
			},
			{
				"x": 0.7100999439,
				"y": -4.2283464123,
				"z": -0.6471565017,
				"element": "H" 
			},
			{
				"x": -1.3349654615,
				"y": -4.1442641169,
				"z": 0.1261974049,
				"element": "H" 
			},
			{
				"x": -1.6016571045,
				"y": -3.7571592603,
				"z": -1.5758695431,
				"element": "H" 
			},
			{
				"x": -2.9134399134,
				"y": -2.3107369841,
				"z": -0.1843627974,
				"element": "H" 
			},
			{
				"x": -1.7141092932,
				"y": -1.3219189184,
				"z": -0.9996707159,
				"element": "H" 
			},
			{
				"x": -2.0788888235,
				"y": -0.6391736251,
				"z": 1.3308435035,
				"element": "H" 
			},
			{
				"x": -1.6305502691,
				"y": -2.2345432497,
				"z": 1.9244400313,
				"element": "H" 
			},
			{
				"x": 0.5842582934,
				"y": -1.8041353402,
				"z": 1.0324942115,
				"element": "H" 
			},
			{
				"x": -0.4048881744,
				"y": -0.3058382271,
				"z": 3.1347654975,
				"element": "H" 
			},
			{
				"x": 1.2898285821,
				"y": -0.4042156492,
				"z": 2.660478997,
				"element": "H" 
			},
			{
				"x": -0.6620016995,
				"y": 1.5082599496,
				"z": 1.323672169,
				"element": "H" 
			},
			{
				"x": 0.2701649325,
				"y": 1.9630602523,
				"z": 2.7589094262,
				"element": "H" 
			},
			{
				"x": 1.7328108179,
				"y": 0.7650824518,
				"z": 0.581569208,
				"element": "H" 
			},
			{
				"x": 0.5640082504,
				"y": 3.3987743145,
				"z": 0.4543151112,
				"element": "H" 
			},
			{
				"x": 2.2439812908,
				"y": 3.2464688028,
				"z": -0.0239878398,
				"element": "H" 
			},
			{
				"x": 0.0643869607,
				"y": 1.4541056358,
				"z": -1.2071048882,
				"element": "H" 
			},
			{
				"x": 0.4842997612,
				"y": 3.0118189445,
				"z": -1.9221773024,
				"element": "H" 
			},
			{
				"x": 2.7713757474,
				"y": 2.3441262225,
				"z": -2.3307370492,
				"element": "H" 
			},
			{
				"x": 2.6037466961,
				"y": 0.8545574156,
				"z": -1.4288652367,
				"element": "H" 
			},
			{
				"x": 0.8480115257,
				"y": 1.1437620747,
				"z": -3.7045520565,
				"element": "H" 
			},
			{
				"x": 2.7263191632,
				"y": -0.9681616128,
				"z": -2.9248546378,
				"element": "H" 
			},
			{
				"x": 1.5458513589,
				"y": -1.0554023561,
				"z": -4.2185971007,
				"element": "H" 
			}
		],
		 "valence_orbital": [ 
			{
				"type": "occ",
				"energy": -0.31391,
				"method": "rhf"
			},
			{
				"type": "occ",
				"energy": -0.22692,
				"method": "rhf"
			},
			{
				"type": "occ",
				"energy": -0.21071,
				"method": "rhf"
			},
			{
				"type": "occ",
				"energy": -0.204,
				"method": "rhf"
			},
			{
				"type": "occ",
				"energy": -0.19768,
				"method": "rhf"
			},
			{
				"type": "unocc",
				"energy": 0.07442,
				"method": "rhf"
			},
			{
				"type": "unocc",
				"energy": 0.0885,
				"method": "rhf"
			},
			{
				"type": "unocc",
				"energy": 0.09194,
				"method": "rhf"
			},
			{
				"type": "unocc",
				"energy": 0.10003,
				"method": "rhf"
			},
			{
				"type": "unocc",
				"energy": 0.10961,
				"method": "rhf"
			}
		],
		"cosmo_sigma_profile": { 
			"-0.025": 0.0,
			"-0.024": 0.0,
			"-0.023": 0.0,
			"-0.022": 0.0,
			"-0.021": 0.0,
			"-0.02": 0.0,
			"-0.019": 0.0,
			"-0.018": 0.0,
			"-0.017": 0.0,
			"-0.016": 0.0,
			"-0.015": 0.0,
			"-0.014": 0.0,
			"-0.013": 0.0,
			"-0.012": 0.0,
			"-0.011": 0.0,
			"-0.01": 0.621378558109,
			"-0.009": 1.75998113357,
			"-0.008": 2.46832535758,
			"-0.007": 2.22273675089,
			"-0.006": 3.64219597037,
			"-0.005": 6.06537136549,
			"-0.004": 9.43956790212,
			"-0.003": 21.5674356354,
			"-0.002": 45.2781365411,
			"-0.001": 62.8040336343,
			"0.0": 54.0182974588,
			"0.001": 25.4672890579,
			"0.002": 8.15214838242,
			"0.003": 5.67190127576,
			"0.004": 4.97411472735,
			"0.005": 3.26864699125,
			"0.006": 4.17474027,
			"0.007": 4.31110770499,
			"0.008": 3.39677289829,
			"0.009": 2.45755411425,
			"0.01": 1.95160021353,
			"0.011": 0.934505134248,
			"0.012": 1.18876890656,
			"0.013": 1.61425414205,
			"0.014": 1.19185481794,
			"0.015": 0.582761077344,
			"0.016": 1.29601957035,
			"0.017": 1.13186742883,
			"0.018": 0.845796692913,
			"0.019": 0.724793120893,
			"0.02": 0.102562331314,
			"0.021": 0.0,
			"0.022": 0.0,
			"0.023": 0.0,
			"0.024": 0.0,
			"0.025": 0.0
		}
	}
}
