{
	 "smiles": "COC1=NC2=C(C=CC=C2)C(O)=N1", 
	 "Tm": 502.15, 
	 "num_atms": 21, 
	 "gaussian": { 
		 "optdone": 1, 
		 "sigma_profile": "yes", 
		 "theory": "DFT", 
		 "functional": "B3LYP", 
		 "basiset": "6-31G**", 
		 "properties": { 
			 "R2extent": 3043.7437, 
			 "electric_dipole_moment_norm": 1.00342386358, 
			 "electric_quadrupole_moment_norm": 7.3235582984, 
			 "total_energy": -607.748441023, 
			 "HOMO_LUMO_gap": 0.17652, 
			 "cosmo_polarized_energy": -10.04, 
			 "cosmo_cavitation_energy": 25.4, 
			 "cosmo_dispersion_energy": -19.28, 
			 "cosmo_repulsion_energy": 1.52, 
			 "cosmo_total_nonelectrostatic_energy": 7.64, 
			 "SMD_solvation_energy": 3.1 
		},
		"coords": [
			{
				"x": -1.4268467328,
				"y": -1.1013985176,
				"z": -3.4167237736,
				"element": "C" 
			},
			{
				"x": -1.8536990128,
				"y": -0.3385389415,
				"z": -2.2844210902,
				"element": "O" 
			},
			{
				"x": -1.3428220623,
				"y": -0.6858593351,
				"z": -1.0928312134,
				"element": "C" 
			},
			{
				"x": -0.493972126,
				"y": -1.6834964685,
				"z": -1.0064769777,
				"element": "N" 
			},
			{
				"x": -0.0230248697,
				"y": -1.9686141321,
				"z": 0.2472074127,
				"element": "C" 
			},
			{
				"x": -0.431241818,
				"y": -1.2251046973,
				"z": 1.3898968961,
				"element": "C" 
			},
			{
				"x": 0.0681526351,
				"y": -1.5376802337,
				"z": 2.6733095364,
				"element": "C" 
			},
			{
				"x": 0.9636692721,
				"y": -2.5776303526,
				"z": 2.8215701031,
				"element": "C" 
			},
			{
				"x": 1.3752923601,
				"y": -3.3223530452,
				"z": 1.6920070336,
				"element": "C" 
			},
			{
				"x": 0.8966004647,
				"y": -3.0296779104,
				"z": 0.4304639059,
				"element": "C" 
			},
			{
				"x": -1.3604794944,
				"y": -0.1734305682,
				"z": 1.1134216577,
				"element": "C" 
			},
			{
				"x": -1.794192636,
				"y": 0.5749642839,
				"z": 2.1415432691,
				"element": "O" 
			},
			{
				"x": -1.8117519173,
				"y": 0.1004425776,
				"z": -0.0846816302,
				"element": "N" 
			},
			{
				"x": -1.9483562296,
				"y": -0.66607749,
				"z": -4.2700059519,
				"element": "H" 
			},
			{
				"x": -1.6931398524,
				"y": -2.1558554828,
				"z": -3.302451374,
				"element": "H" 
			},
			{
				"x": -0.344118849,
				"y": -1.0298753737,
				"z": -3.5525059899,
				"element": "H" 
			},
			{
				"x": -0.2611435859,
				"y": -0.9533108623,
				"z": 3.5258901224,
				"element": "H" 
			},
			{
				"x": 1.35410719,
				"y": -2.8268442784,
				"z": 3.8033216267,
				"element": "H" 
			},
			{
				"x": 2.0806356459,
				"y": -4.13857885,
				"z": 1.8218183628,
				"element": "H" 
			},
			{
				"x": 1.2051102646,
				"y": -3.5938622677,
				"z": -0.4432993126,
				"element": "H" 
			},
			{
				"x": -2.4078786462,
				"y": 1.2255819455,
				"z": 1.761747387,
				"element": "H" 
			}
		],
		 "valence_orbital": [ 
			{
				"type": "occ",
				"energy": -0.3053,
				"method": "rhf"
			},
			{
				"type": "occ",
				"energy": -0.29157,
				"method": "rhf"
			},
			{
				"type": "occ",
				"energy": -0.25883,
				"method": "rhf"
			},
			{
				"type": "occ",
				"energy": -0.25679,
				"method": "rhf"
			},
			{
				"type": "occ",
				"energy": -0.2248,
				"method": "rhf"
			},
			{
				"type": "unocc",
				"energy": -0.04828,
				"method": "rhf"
			},
			{
				"type": "unocc",
				"energy": -0.01518,
				"method": "rhf"
			},
			{
				"type": "unocc",
				"energy": 0.0293,
				"method": "rhf"
			},
			{
				"type": "unocc",
				"energy": 0.07787,
				"method": "rhf"
			},
			{
				"type": "unocc",
				"energy": 0.09089,
				"method": "rhf"
			}
		],
		"cosmo_sigma_profile": { 
			"-0.025": 0.0,
			"-0.024": 0.0,
			"-0.023": 0.0,
			"-0.022": 0.0,
			"-0.021": 0.0,
			"-0.02": 0.0,
			"-0.019": 0.0,
			"-0.018": 0.649026767584,
			"-0.017": 0.891798829896,
			"-0.016": 0.483631511347,
			"-0.015": 0.629510504831,
			"-0.014": 0.958498129881,
			"-0.013": 0.919668796983,
			"-0.012": 0.671412989921,
			"-0.011": 0.70496511654,
			"-0.01": 0.592167399444,
			"-0.009": 0.302030818955,
			"-0.008": 0.679100607859,
			"-0.007": 2.82994098667,
			"-0.006": 10.2957777661,
			"-0.005": 14.2886984578,
			"-0.004": 16.25832564,
			"-0.003": 16.8402820164,
			"-0.002": 15.2110917535,
			"-0.001": 14.4827126234,
			"0.0": 14.4075108167,
			"0.001": 14.8832195207,
			"0.002": 14.8467118859,
			"0.003": 16.9503760919,
			"0.004": 11.9748233539,
			"0.005": 5.86277469431,
			"0.006": 4.69712538771,
			"0.007": 3.88505463762,
			"0.008": 4.32213233898,
			"0.009": 3.94578677088,
			"0.01": 2.44214973831,
			"0.011": 3.03355550159,
			"0.012": 2.78957337244,
			"0.013": 1.28975212396,
			"0.014": 0.52012950988,
			"0.015": 0.0,
			"0.016": 0.0,
			"0.017": 0.0,
			"0.018": 0.0,
			"0.019": 0.0,
			"0.02": 0.0,
			"0.021": 0.0,
			"0.022": 0.0,
			"0.023": 0.0,
			"0.024": 0.0,
			"0.025": 0.0
		}
	}
}
