{
	 "smiles": "OC(=O)C1=CC=C(S1)C1=CC(Cl)=CC(Cl)=C1", 
	 "Tm": 465.15, 
	 "num_atms": 22, 
	 "gaussian": { 
		 "optdone": 1, 
		 "sigma_profile": "yes", 
		 "theory": "DFT", 
		 "functional": "B3LYP", 
		 "basiset": "6-31G**", 
		 "properties": { 
			 "R2extent": 7035.5784, 
			 "electric_dipole_moment_norm": 4.57043703928, 
			 "electric_quadrupole_moment_norm": 23.579680381, 
			 "total_energy": -1891.8058734, 
			 "HOMO_LUMO_gap": 0.16204, 
			 "cosmo_polarized_energy": -16.85, 
			 "cosmo_cavitation_energy": 32.91, 
			 "cosmo_dispersion_energy": -24.69, 
			 "cosmo_repulsion_energy": 1.87, 
			 "cosmo_total_nonelectrostatic_energy": 10.1, 
			 "SMD_solvation_energy": 5.8 
		},
		"coords": [
			{
				"x": 4.1950133873,
				"y": -2.7477154807,
				"z": 1.1923551702,
				"element": "O" 
			},
			{
				"x": 3.6124295928,
				"y": -2.05297968,
				"z": 0.1807345452,
				"element": "C" 
			},
			{
				"x": 4.1394658966,
				"y": -1.9987214798,
				"z": -0.9071115857,
				"element": "O" 
			},
			{
				"x": 2.3276852672,
				"y": -1.3868234477,
				"z": 0.484253215,
				"element": "C" 
			},
			{
				"x": 1.5126424312,
				"y": -1.4485210977,
				"z": 1.5947170855,
				"element": "C" 
			},
			{
				"x": 0.3448039328,
				"y": -0.657943746,
				"z": 1.4717253472,
				"element": "C" 
			},
			{
				"x": 0.2645440438,
				"y": 0.0064098725,
				"z": 0.2624795748,
				"element": "C" 
			},
			{
				"x": 1.6504615297,
				"y": -0.3461662423,
				"z": -0.7341390572,
				"element": "S" 
			},
			{
				"x": -0.803619408,
				"y": 0.9059098114,
				"z": -0.1954812155,
				"element": "C" 
			},
			{
				"x": -1.5470131117,
				"y": 1.6400015972,
				"z": 0.7451597452,
				"element": "C" 
			},
			{
				"x": -2.5687024183,
				"y": 2.478487077,
				"z": 0.3112150694,
				"element": "C" 
			},
			{
				"x": -3.4891737003,
				"y": 3.3886006644,
				"z": 1.4949690567,
				"element": "Cl" 
			},
			{
				"x": -2.8753060367,
				"y": 2.628323486,
				"z": -1.0410832164,
				"element": "C" 
			},
			{
				"x": -2.121975558,
				"y": 1.9004470282,
				"z": -1.9615155504,
				"element": "C" 
			},
			{
				"x": -2.4853188754,
				"y": 2.0611103099,
				"z": -3.6687852915,
				"element": "Cl" 
			},
			{
				"x": -1.1004853996,
				"y": 1.0435158639,
				"z": -1.5620305779,
				"element": "C" 
			},
			{
				"x": 3.7124449173,
				"y": -2.6237549068,
				"z": 2.0209851198,
				"element": "H" 
			},
			{
				"x": 1.7149055251,
				"y": -2.0592465602,
				"z": 2.4695400831,
				"element": "H" 
			},
			{
				"x": -0.4276809469,
				"y": -0.6065149005,
				"z": 2.2299434375,
				"element": "H" 
			},
			{
				"x": -1.3151916549,
				"y": 1.5765232965,
				"z": 1.8012721669,
				"element": "H" 
			},
			{
				"x": -3.6694949364,
				"y": 3.2887460641,
				"z": -1.3653466929,
				"element": "H" 
			},
			{
				"x": -0.5573344775,
				"y": 0.4733124707,
				"z": -2.3068564289,
				"element": "H" 
			}
		],
		 "valence_orbital": [ 
			{
				"type": "occ",
				"energy": -0.29351,
				"method": "rhf"
			},
			{
				"type": "occ",
				"energy": -0.28545,
				"method": "rhf"
			},
			{
				"type": "occ",
				"energy": -0.28036,
				"method": "rhf"
			},
			{
				"type": "occ",
				"energy": -0.26528,
				"method": "rhf"
			},
			{
				"type": "occ",
				"energy": -0.24663,
				"method": "rhf"
			},
			{
				"type": "unocc",
				"energy": -0.08459,
				"method": "rhf"
			},
			{
				"type": "unocc",
				"energy": -0.03937,
				"method": "rhf"
			},
			{
				"type": "unocc",
				"energy": -0.03254,
				"method": "rhf"
			},
			{
				"type": "unocc",
				"energy": -0.00439,
				"method": "rhf"
			},
			{
				"type": "unocc",
				"energy": 0.0121,
				"method": "rhf"
			}
		],
		"cosmo_sigma_profile": { 
			"-0.025": 0.0,
			"-0.024": 0.0,
			"-0.023": 0.0,
			"-0.022": 0.0,
			"-0.021": 0.0,
			"-0.02": 0.0322208409943,
			"-0.019": 0.557528655346,
			"-0.018": 1.11804545432,
			"-0.017": 1.22377311033,
			"-0.016": 1.14635247764,
			"-0.015": 1.42530537558,
			"-0.014": 0.567467670644,
			"-0.013": 0.835176280428,
			"-0.012": 2.15961517578,
			"-0.011": 0.954123772036,
			"-0.01": 1.42012396099,
			"-0.009": 3.14380146881,
			"-0.008": 7.99286160459,
			"-0.007": 8.65252585754,
			"-0.006": 8.33594585733,
			"-0.005": 7.98076516434,
			"-0.004": 8.54222172083,
			"-0.003": 12.7395884342,
			"-0.002": 15.6098615125,
			"-0.001": 18.4245578298,
			"0.0": 30.0806464702,
			"0.001": 42.0858293715,
			"0.002": 24.8471890629,
			"0.003": 20.4664687837,
			"0.004": 20.0803403959,
			"0.005": 4.20887039705,
			"0.006": 2.95159101153,
			"0.007": 2.45217754592,
			"0.008": 3.05645114376,
			"0.009": 3.28023475457,
			"0.01": 5.28055229867,
			"0.011": 5.31950294645,
			"0.012": 3.96141613924,
			"0.013": 1.25426929247,
			"0.014": 0.0,
			"0.015": 0.0,
			"0.016": 0.0,
			"0.017": 0.0,
			"0.018": 0.0,
			"0.019": 0.0,
			"0.02": 0.0,
			"0.021": 0.0,
			"0.022": 0.0,
			"0.023": 0.0,
			"0.024": 0.0,
			"0.025": 0.0
		}
	}
}
