{
	 "smiles": "FC1=CC(F)=C(C=C1)N1C(S)=NC2=C1C=CC=C2", 
	 "Tm": 465.15, 
	 "num_atms": 26, 
	 "gaussian": { 
		 "optdone": 1, 
		 "sigma_profile": "yes", 
		 "theory": "DFT", 
		 "functional": "B3LYP", 
		 "basiset": "6-31G**", 
		 "properties": { 
			 "R2extent": 4948.8683, 
			 "electric_dipole_moment_norm": 2.21714831484, 
			 "electric_quadrupole_moment_norm": 5.3769871908, 
			 "total_energy": -1207.56309039, 
			 "HOMO_LUMO_gap": 0.17888, 
			 "cosmo_polarized_energy": -10.0, 
			 "cosmo_cavitation_energy": 33.35, 
			 "cosmo_dispersion_energy": -23.84, 
			 "cosmo_repulsion_energy": 1.75, 
			 "cosmo_total_nonelectrostatic_energy": 11.26, 
			 "SMD_solvation_energy": 4.31 
		},
		"coords": [
			{
				"x": -4.0559772491,
				"y": -2.7049321745,
				"z": -2.027315248,
				"element": "F" 
			},
			{
				"x": -3.043081483,
				"y": -2.0611423282,
				"z": -1.4227031116,
				"element": "C" 
			},
			{
				"x": -1.742855016,
				"y": -2.335376991,
				"z": -1.8342296736,
				"element": "C" 
			},
			{
				"x": -0.7076674319,
				"y": -1.66744527,
				"z": -1.1942752147,
				"element": "C" 
			},
			{
				"x": 0.5558632755,
				"y": -1.9187122087,
				"z": -1.5660332777,
				"element": "F" 
			},
			{
				"x": -0.9436937993,
				"y": -0.7326515275,
				"z": -0.1770807252,
				"element": "C" 
			},
			{
				"x": -2.2685305386,
				"y": -0.4756487676,
				"z": 0.1949598409,
				"element": "C" 
			},
			{
				"x": -3.3275372984,
				"y": -1.1449099653,
				"z": -0.4151846702,
				"element": "C" 
			},
			{
				"x": 0.1439474859,
				"y": -0.0697136076,
				"z": 0.4475716062,
				"element": "N" 
			},
			{
				"x": 0.5419034211,
				"y": -0.1630013058,
				"z": 1.777264101,
				"element": "C" 
			},
			{
				"x": -0.3297678652,
				"y": -1.2112927535,
				"z": 2.9070532304,
				"element": "S" 
			},
			{
				"x": 1.587783158,
				"y": 0.5593462781,
				"z": 2.0734370844,
				"element": "N" 
			},
			{
				"x": 1.938008017,
				"y": 1.1836691746,
				"z": 0.8801956827,
				"element": "C" 
			},
			{
				"x": 1.0552599506,
				"y": 0.8047480381,
				"z": -0.1547684941,
				"element": "C" 
			},
			{
				"x": 1.1680880655,
				"y": 1.2875870115,
				"z": -1.4566713567,
				"element": "C" 
			},
			{
				"x": 2.2131547698,
				"y": 2.1771925592,
				"z": -1.7038514253,
				"element": "C" 
			},
			{
				"x": 3.1046941107,
				"y": 2.5656195754,
				"z": -0.6859423185,
				"element": "C" 
			},
			{
				"x": 2.9801939401,
				"y": 2.0780234906,
				"z": 0.6125823518,
				"element": "C" 
			},
			{
				"x": -1.5387816746,
				"y": -3.0533106732,
				"z": -2.619043919,
				"element": "H" 
			},
			{
				"x": -2.4595125009,
				"y": 0.257217236,
				"z": 0.9713263527,
				"element": "H" 
			},
			{
				"x": -4.356513307,
				"y": -0.9581524207,
				"z": -0.1315283203,
				"element": "H" 
			},
			{
				"x": 0.5247927189,
				"y": -0.9354921386,
				"z": 3.9095381522,
				"element": "H" 
			},
			{
				"x": 0.4812195864,
				"y": 0.9886660766,
				"z": -2.2415052212,
				"element": "H" 
			},
			{
				"x": 2.341325577,
				"y": 2.5777159778,
				"z": -2.7049761079,
				"element": "H" 
			},
			{
				"x": 3.9054437685,
				"y": 3.2602495427,
				"z": -0.9216289116,
				"element": "H" 
			},
			{
				"x": 3.6617403191,
				"y": 2.3746471717,
				"z": 1.4030095933,
				"element": "H" 
			}
		],
		 "valence_orbital": [ 
			{
				"type": "occ",
				"energy": -0.28339,
				"method": "rhf"
			},
			{
				"type": "occ",
				"energy": -0.27755,
				"method": "rhf"
			},
			{
				"type": "occ",
				"energy": -0.26233,
				"method": "rhf"
			},
			{
				"type": "occ",
				"energy": -0.22659,
				"method": "rhf"
			},
			{
				"type": "occ",
				"energy": -0.21496,
				"method": "rhf"
			},
			{
				"type": "unocc",
				"energy": -0.03608,
				"method": "rhf"
			},
			{
				"type": "unocc",
				"energy": -0.02808,
				"method": "rhf"
			},
			{
				"type": "unocc",
				"energy": -0.01339,
				"method": "rhf"
			},
			{
				"type": "unocc",
				"energy": 0.01319,
				"method": "rhf"
			},
			{
				"type": "unocc",
				"energy": 0.02067,
				"method": "rhf"
			}
		],
		"cosmo_sigma_profile": { 
			"-0.025": 0.0,
			"-0.024": 0.0,
			"-0.023": 0.0,
			"-0.022": 0.0,
			"-0.021": 0.0,
			"-0.02": 0.0,
			"-0.019": 0.0,
			"-0.018": 0.0,
			"-0.017": 0.0,
			"-0.016": 0.0,
			"-0.015": 0.0,
			"-0.014": 0.0,
			"-0.013": 0.00637630045061,
			"-0.012": 1.0776401025,
			"-0.011": 1.41595093085,
			"-0.01": 1.44861357657,
			"-0.009": 3.23543040403,
			"-0.008": 5.8111033808,
			"-0.007": 6.89791487849,
			"-0.006": 12.3621922631,
			"-0.005": 14.579578546,
			"-0.004": 14.0734392604,
			"-0.003": 16.2755478318,
			"-0.002": 16.2338743515,
			"-0.001": 24.8863338107,
			"0.0": 26.2727078399,
			"0.001": 21.9093713585,
			"0.002": 21.1985322441,
			"0.003": 27.0510924974,
			"0.004": 24.3444004322,
			"0.005": 14.2222939738,
			"0.006": 7.52266934199,
			"0.007": 1.75449641633,
			"0.008": 1.91001136882,
			"0.009": 1.01621005965,
			"0.01": 0.974133007033,
			"0.011": 1.34453699961,
			"0.012": 0.889651871956,
			"0.013": 0.729999069454,
			"0.014": 0.936511220178,
			"0.015": 0.922827107545,
			"0.016": 0.409327227514,
			"0.017": 0.0,
			"0.018": 0.0,
			"0.019": 0.0,
			"0.02": 0.0,
			"0.021": 0.0,
			"0.022": 0.0,
			"0.023": 0.0,
			"0.024": 0.0,
			"0.025": 0.0
		}
	}
}
