{
	 "smiles": "CC1=CC(C)=C(C)C=C1C", 
	 "Tm": 352.65, 
	 "num_atms": 24, 
	 "gaussian": { 
		 "optdone": 1, 
		 "sigma_profile": "yes", 
		 "theory": "DFT", 
		 "functional": "B3LYP", 
		 "basiset": "6-31G**", 
		 "properties": { 
			 "R2extent": 1823.0253, 
			 "electric_dipole_moment_norm": 0.0, 
			 "electric_quadrupole_moment_norm": 3.80567268561, 
			 "total_energy": -389.531188158, 
			 "HOMO_LUMO_gap": 0.2262, 
			 "cosmo_polarized_energy": -3.23, 
			 "cosmo_cavitation_energy": 25.8, 
			 "cosmo_dispersion_energy": -18.71, 
			 "cosmo_repulsion_energy": 1.5, 
			 "cosmo_total_nonelectrostatic_energy": 8.59, 
			 "SMD_solvation_energy": 4.5 
		},
		"coords": [
			{
				"x": 2.8443454452,
				"y": -2.1316756683,
				"z": 0.4787409445,
				"element": "C" 
			},
			{
				"x": 1.7274554621,
				"y": -1.1652909672,
				"z": 0.1620568279,
				"element": "C" 
			},
			{
				"x": 1.0519869093,
				"y": -0.504311122,
				"z": 1.1930044411,
				"element": "C" 
			},
			{
				"x": 0.0110598831,
				"y": 0.4003791623,
				"z": 0.9606369998,
				"element": "C" 
			},
			{
				"x": -0.6792747976,
				"y": 1.0824840024,
				"z": 2.1181334641,
				"element": "C" 
			},
			{
				"x": -0.3737378459,
				"y": 0.656940184,
				"z": -0.3694198291,
				"element": "C" 
			},
			{
				"x": -1.4906297731,
				"y": 1.6233255081,
				"z": -0.6860958984,
				"element": "C" 
			},
			{
				"x": 0.3017279557,
				"y": -0.0040376327,
				"z": -1.4003628005,
				"element": "C" 
			},
			{
				"x": 1.3426592733,
				"y": -0.9087318334,
				"z": -1.1679933611,
				"element": "C" 
			},
			{
				"x": 2.0329909578,
				"y": -1.5908320157,
				"z": -2.3254944931,
				"element": "C" 
			},
			{
				"x": 3.0065450153,
				"y": -2.2071211757,
				"z": 1.557392136,
				"element": "H" 
			},
			{
				"x": 2.6290502791,
				"y": -3.1396936472,
				"z": 0.1028750083,
				"element": "H" 
			},
			{
				"x": 3.7919513724,
				"y": -1.8227389164,
				"z": 0.0201331428,
				"element": "H" 
			},
			{
				"x": 1.3494221693,
				"y": -0.7026664471,
				"z": 2.2211540791,
				"element": "H" 
			},
			{
				"x": -1.75284153,
				"y": 0.8574596856,
				"z": 2.1414585998,
				"element": "H" 
			},
			{
				"x": -0.5898816622,
				"y": 2.1743762512,
				"z": 2.0589478607,
				"element": "H" 
			},
			{
				"x": -0.252776968,
				"y": 0.7657254695,
				"z": 3.0737753843,
				"element": "H" 
			},
			{
				"x": -1.6528327222,
				"y": 1.6987743681,
				"z": -1.7647467902,
				"element": "H" 
			},
			{
				"x": -2.4382332959,
				"y": 1.3143859532,
				"z": -0.227485993,
				"element": "H" 
			},
			{
				"x": -1.2753320665,
				"y": 2.6313414819,
				"z": -0.3102272263,
				"element": "H" 
			},
			{
				"x": 0.0042979797,
				"y": 0.194311683,
				"z": -2.4285149262,
				"element": "H" 
			},
			{
				"x": 3.1065562242,
				"y": -1.3658013334,
				"z": -2.3488259087,
				"element": "H" 
			},
			{
				"x": 1.6064857063,
				"y": -1.2740778027,
				"z": -3.2811341285,
				"element": "H" 
			},
			{
				"x": 1.9436060285,
				"y": -2.6827251875,
				"z": -2.2663075335,
				"element": "H" 
			}
		],
		 "valence_orbital": [ 
			{
				"type": "occ",
				"energy": -0.32178,
				"method": "rhf"
			},
			{
				"type": "occ",
				"energy": -0.32057,
				"method": "rhf"
			},
			{
				"type": "occ",
				"energy": -0.31916,
				"method": "rhf"
			},
			{
				"type": "occ",
				"energy": -0.22969,
				"method": "rhf"
			},
			{
				"type": "occ",
				"energy": -0.21531,
				"method": "rhf"
			},
			{
				"type": "unocc",
				"energy": 0.01089,
				"method": "rhf"
			},
			{
				"type": "unocc",
				"energy": 0.01734,
				"method": "rhf"
			},
			{
				"type": "unocc",
				"energy": 0.099,
				"method": "rhf"
			},
			{
				"type": "unocc",
				"energy": 0.09948,
				"method": "rhf"
			},
			{
				"type": "unocc",
				"energy": 0.12031,
				"method": "rhf"
			}
		],
		"cosmo_sigma_profile": { 
			"-0.025": 0.0,
			"-0.024": 0.0,
			"-0.023": 0.0,
			"-0.022": 0.0,
			"-0.021": 0.0,
			"-0.02": 0.0,
			"-0.019": 0.0,
			"-0.018": 0.0,
			"-0.017": 0.0,
			"-0.016": 0.0,
			"-0.015": 0.0,
			"-0.014": 0.0,
			"-0.013": 0.0,
			"-0.012": 0.0,
			"-0.011": 0.0,
			"-0.01": 0.0,
			"-0.009": 0.0,
			"-0.008": 0.0,
			"-0.007": 0.0,
			"-0.006": 0.0,
			"-0.005": 0.237713585082,
			"-0.004": 16.8461692288,
			"-0.003": 30.0905353942,
			"-0.002": 25.0920462976,
			"-0.001": 24.8984541835,
			"0.0": 32.424504316,
			"0.001": 24.7988419213,
			"0.002": 11.081819722,
			"0.003": 8.07461001059,
			"0.004": 6.2082030233,
			"0.005": 6.93126000394,
			"0.006": 6.12006711118,
			"0.007": 6.46325856773,
			"0.008": 2.35172482191,
			"0.009": 0.0,
			"0.01": 0.0,
			"0.011": 0.0,
			"0.012": 0.0,
			"0.013": 0.0,
			"0.014": 0.0,
			"0.015": 0.0,
			"0.016": 0.0,
			"0.017": 0.0,
			"0.018": 0.0,
			"0.019": 0.0,
			"0.02": 0.0,
			"0.021": 0.0,
			"0.022": 0.0,
			"0.023": 0.0,
			"0.024": 0.0,
			"0.025": 0.0
		}
	}
}
