{
	 "smiles": "CNC(=O)C1=CC(O)=CC=C1", 
	 "Tm": 382.15, 
	 "num_atms": 20, 
	 "gaussian": { 
		 "optdone": 1, 
		 "sigma_profile": "yes", 
		 "theory": "DFT", 
		 "functional": "B3LYP", 
		 "basiset": "6-31G**", 
		 "properties": { 
			 "R2extent": 2360.7039, 
			 "electric_dipole_moment_norm": 2.58870161664, 
			 "electric_quadrupole_moment_norm": 10.0666925358, 
			 "total_energy": -515.48849096, 
			 "HOMO_LUMO_gap": 0.1954, 
			 "cosmo_polarized_energy": -15.01, 
			 "cosmo_cavitation_energy": 24.11, 
			 "cosmo_dispersion_energy": -18.03, 
			 "cosmo_repulsion_energy": 1.46, 
			 "cosmo_total_nonelectrostatic_energy": 7.54, 
			 "SMD_solvation_energy": 4.93 
		},
		"coords": [
			{
				"x": -2.4225860846,
				"y": -0.1671030793,
				"z": -2.8323144309,
				"element": "C" 
			},
			{
				"x": -1.5134760425,
				"y": -0.0142577223,
				"z": -1.7107143266,
				"element": "N" 
			},
			{
				"x": -0.2685002996,
				"y": -0.583638204,
				"z": -1.7090257363,
				"element": "C" 
			},
			{
				"x": 0.1368758636,
				"y": -1.2897772792,
				"z": -2.6295717021,
				"element": "O" 
			},
			{
				"x": 0.5878773274,
				"y": -0.2932042134,
				"z": -0.5047151727,
				"element": "C" 
			},
			{
				"x": 1.964564004,
				"y": -0.4906151852,
				"z": -0.6570993815,
				"element": "C" 
			},
			{
				"x": 2.8336523514,
				"y": -0.2422520331,
				"z": 0.4055810961,
				"element": "C" 
			},
			{
				"x": 4.1843293884,
				"y": -0.4104903022,
				"z": 0.3053758691,
				"element": "O" 
			},
			{
				"x": 2.3290550385,
				"y": 0.1976510286,
				"z": 1.6363496768,
				"element": "C" 
			},
			{
				"x": 0.9570160932,
				"y": 0.3749247754,
				"z": 1.7901659992,
				"element": "C" 
			},
			{
				"x": 0.0803702644,
				"y": 0.1331092464,
				"z": 0.7296775937,
				"element": "C" 
			},
			{
				"x": -2.4300652177,
				"y": 0.7192840711,
				"z": -3.4792638474,
				"element": "H" 
			},
			{
				"x": -3.4412747526,
				"y": -0.3518365086,
				"z": -2.4770554086,
				"element": "H" 
			},
			{
				"x": -2.0817319648,
				"y": -1.0198444092,
				"z": -3.4195555254,
				"element": "H" 
			},
			{
				"x": -1.7119159814,
				"y": 0.6996061797,
				"z": -1.0274150848,
				"element": "H" 
			},
			{
				"x": 2.3280034438,
				"y": -0.8468155534,
				"z": -1.6173282281,
				"element": "H" 
			},
			{
				"x": 4.3969074692,
				"y": -0.7291920331,
				"z": -0.5817232488,
				"element": "H" 
			},
			{
				"x": 3.0202681912,
				"y": 0.3827568786,
				"z": 2.4518639619,
				"element": "H" 
			},
			{
				"x": 0.5651540896,
				"y": 0.696753582,
				"z": 2.7506685255,
				"element": "H" 
			},
			{
				"x": -0.9886231815,
				"y": 0.2366407612,
				"z": 0.8875993709,
				"element": "H" 
			}
		],
		 "valence_orbital": [ 
			{
				"type": "occ",
				"energy": -0.33348,
				"method": "rhf"
			},
			{
				"type": "occ",
				"energy": -0.25942,
				"method": "rhf"
			},
			{
				"type": "occ",
				"energy": -0.25323,
				"method": "rhf"
			},
			{
				"type": "occ",
				"energy": -0.24503,
				"method": "rhf"
			},
			{
				"type": "occ",
				"energy": -0.22772,
				"method": "rhf"
			},
			{
				"type": "unocc",
				"energy": -0.03232,
				"method": "rhf"
			},
			{
				"type": "unocc",
				"energy": 0.00213,
				"method": "rhf"
			},
			{
				"type": "unocc",
				"energy": 0.06838,
				"method": "rhf"
			},
			{
				"type": "unocc",
				"energy": 0.0719,
				"method": "rhf"
			},
			{
				"type": "unocc",
				"energy": 0.08006,
				"method": "rhf"
			}
		],
		"cosmo_sigma_profile": { 
			"-0.025": 0.0,
			"-0.024": 0.0,
			"-0.023": 0.0,
			"-0.022": 0.0,
			"-0.021": 0.0,
			"-0.02": 0.0,
			"-0.019": 0.0,
			"-0.018": 0.47281295593,
			"-0.017": 1.25091465372,
			"-0.016": 0.76388105485,
			"-0.015": 1.54063419804,
			"-0.014": 1.75600735368,
			"-0.013": 1.66988955473,
			"-0.012": 2.62048673747,
			"-0.011": 1.97240995994,
			"-0.01": 2.15739747557,
			"-0.009": 2.30479381084,
			"-0.008": 2.43009294022,
			"-0.007": 3.13552284429,
			"-0.006": 7.66716636326,
			"-0.005": 11.5289918368,
			"-0.004": 13.6857163427,
			"-0.003": 11.9882488053,
			"-0.002": 13.4150866378,
			"-0.001": 11.7212422006,
			"0.0": 10.8949879912,
			"0.001": 9.92932708835,
			"0.002": 11.4795078256,
			"0.003": 13.32737785,
			"0.004": 15.3873084407,
			"0.005": 9.59471500721,
			"0.006": 3.04059184724,
			"0.007": 3.0252458132,
			"0.008": 2.66690720451,
			"0.009": 3.34380443645,
			"0.01": 3.60911610176,
			"0.011": 3.37954307541,
			"0.012": 1.71407469574,
			"0.013": 3.66806765095,
			"0.014": 4.39630444061,
			"0.015": 0.166089503286,
			"0.016": 0.0,
			"0.017": 0.0,
			"0.018": 0.0,
			"0.019": 0.0,
			"0.02": 0.0,
			"0.021": 0.0,
			"0.022": 0.0,
			"0.023": 0.0,
			"0.024": 0.0,
			"0.025": 0.0
		}
	}
}
