{
	 "smiles": "OC1C2=CC=CC=C2C=CC2=CC=CC=C12", 
	 "Tm": 399.15, 
	 "num_atms": 28, 
	 "gaussian": { 
		 "optdone": 1, 
		 "sigma_profile": "yes", 
		 "theory": "DFT", 
		 "functional": "B3LYP", 
		 "basiset": "6-31G**", 
		 "properties": { 
			 "R2extent": 3552.7308, 
			 "electric_dipole_moment_norm": 1.779520781, 
			 "electric_quadrupole_moment_norm": 12.3113067393, 
			 "total_energy": -654.041219306, 
			 "HOMO_LUMO_gap": 0.16652, 
			 "cosmo_polarized_energy": -9.64, 
			 "cosmo_cavitation_energy": 30.41, 
			 "cosmo_dispersion_energy": -22.44, 
			 "cosmo_repulsion_energy": 1.7, 
			 "cosmo_total_nonelectrostatic_energy": 9.68, 
			 "SMD_solvation_energy": 4.44 
		},
		"coords": [
			{
				"x": -2.0397628507,
				"y": -1.1365348342,
				"z": 0.0358936868,
				"element": "O" 
			},
			{
				"x": -1.2088742132,
				"y": -0.6012667687,
				"z": 1.0693029934,
				"element": "C" 
			},
			{
				"x": 0.0845622011,
				"y": -1.3841768331,
				"z": 1.2161602899,
				"element": "C" 
			},
			{
				"x": 0.3005787326,
				"y": -2.1470854191,
				"z": 2.3691052661,
				"element": "C" 
			},
			{
				"x": 1.4157271619,
				"y": -2.972815883,
				"z": 2.4980131425,
				"element": "C" 
			},
			{
				"x": 2.3333658074,
				"y": -3.0611479777,
				"z": 1.4482858404,
				"element": "C" 
			},
			{
				"x": 2.1349991527,
				"y": -2.3075041095,
				"z": 0.2972681241,
				"element": "C" 
			},
			{
				"x": 1.0336816254,
				"y": -1.4378509529,
				"z": 0.1675055523,
				"element": "C" 
			},
			{
				"x": 0.9496224122,
				"y": -0.6248957604,
				"z": -1.0453474765,
				"element": "C" 
			},
			{
				"x": 0.3744392688,
				"y": 0.5908963873,
				"z": -1.2118566646,
				"element": "C" 
			},
			{
				"x": -0.3175482028,
				"y": 1.4177334914,
				"z": -0.2235762771,
				"element": "C" 
			},
			{
				"x": -0.288858643,
				"y": 2.8150752638,
				"z": -0.4041465495,
				"element": "C" 
			},
			{
				"x": -0.8563676017,
				"y": 3.6791373913,
				"z": 0.5251394821,
				"element": "C" 
			},
			{
				"x": -1.4860842818,
				"y": 3.1578031219,
				"z": 1.658023349,
				"element": "C" 
			},
			{
				"x": -1.5571249031,
				"y": 1.7768776319,
				"z": 1.8312055322,
				"element": "C" 
			},
			{
				"x": -0.9935547251,
				"y": 0.893287384,
				"z": 0.9040460287,
				"element": "C" 
			},
			{
				"x": -1.5652467345,
				"y": -1.0263986557,
				"z": -0.8003366876,
				"element": "H" 
			},
			{
				"x": -1.7902410106,
				"y": -0.7510021525,
				"z": 1.9840843738,
				"element": "H" 
			},
			{
				"x": -0.4331335236,
				"y": -2.1066517594,
				"z": 3.1702963855,
				"element": "H" 
			},
			{
				"x": 1.5562942037,
				"y": -3.5601748776,
				"z": 3.4007015239,
				"element": "H" 
			},
			{
				"x": 3.1975180497,
				"y": -3.7141983728,
				"z": 1.5278581705,
				"element": "H" 
			},
			{
				"x": 2.8536705183,
				"y": -2.3654424718,
				"z": -0.5163867588,
				"element": "H" 
			},
			{
				"x": 1.5103556,
				"y": -1.0145080375,
				"z": -1.893519119,
				"element": "H" 
			},
			{
				"x": 0.5249403636,
				"y": 1.0685105568,
				"z": -2.1787247814,
				"element": "H" 
			},
			{
				"x": 0.2120043755,
				"y": 3.2184216258,
				"z": -1.2806868281,
				"element": "H" 
			},
			{
				"x": -0.8091628964,
				"y": 4.7527867685,
				"z": 0.3682749268,
				"element": "H" 
			},
			{
				"x": -1.9380139199,
				"y": 3.8216757149,
				"z": 2.3891990553,
				"element": "H" 
			},
			{
				"x": -2.0795859664,
				"y": 1.3700495282,
				"z": 2.6934174194,
				"element": "H" 
			}
		],
		 "valence_orbital": [ 
			{
				"type": "occ",
				"energy": -0.26583,
				"method": "rhf"
			},
			{
				"type": "occ",
				"energy": -0.25991,
				"method": "rhf"
			},
			{
				"type": "occ",
				"energy": -0.25578,
				"method": "rhf"
			},
			{
				"type": "occ",
				"energy": -0.2396,
				"method": "rhf"
			},
			{
				"type": "occ",
				"energy": -0.21579,
				"method": "rhf"
			},
			{
				"type": "unocc",
				"energy": -0.04927,
				"method": "rhf"
			},
			{
				"type": "unocc",
				"energy": -0.01482,
				"method": "rhf"
			},
			{
				"type": "unocc",
				"energy": 0.00174,
				"method": "rhf"
			},
			{
				"type": "unocc",
				"energy": 0.0082,
				"method": "rhf"
			},
			{
				"type": "unocc",
				"energy": 0.06358,
				"method": "rhf"
			}
		],
		"cosmo_sigma_profile": { 
			"-0.025": 0.0,
			"-0.024": 0.0,
			"-0.023": 0.0,
			"-0.022": 0.0,
			"-0.021": 0.0,
			"-0.02": 0.0,
			"-0.019": 0.0,
			"-0.018": 0.0,
			"-0.017": 0.0,
			"-0.016": 0.0,
			"-0.015": 0.0,
			"-0.014": 0.0,
			"-0.013": 0.0,
			"-0.012": 0.0,
			"-0.011": 0.589791900142,
			"-0.01": 0.656625615858,
			"-0.009": 0.350990877541,
			"-0.008": 0.36900565112,
			"-0.007": 2.01407409535,
			"-0.006": 21.605375181,
			"-0.005": 24.5707942426,
			"-0.004": 22.1490401368,
			"-0.003": 18.9466452779,
			"-0.002": 14.5251621712,
			"-0.001": 14.7441357314,
			"0.0": 13.1305592652,
			"0.001": 14.221399866,
			"0.002": 13.9707002758,
			"0.003": 18.2840748885,
			"0.004": 21.4456710176,
			"0.005": 23.064786017,
			"0.006": 5.40407540723,
			"0.007": 1.52782999724,
			"0.008": 1.78318809011,
			"0.009": 1.20723517455,
			"0.01": 1.0857451621,
			"0.011": 1.59308842575,
			"0.012": 1.44987532122,
			"0.013": 1.93674349734,
			"0.014": 2.23896704613,
			"0.015": 0.182447834345,
			"0.016": 0.0,
			"0.017": 0.0,
			"0.018": 0.0,
			"0.019": 0.0,
			"0.02": 0.0,
			"0.021": 0.0,
			"0.022": 0.0,
			"0.023": 0.0,
			"0.024": 0.0,
			"0.025": 0.0
		}
	}
}
