{
	 "smiles": "COC1=C(C)C=C(C=C1)S(Cl)(=O)=O", 
	 "Tm": 325.15, 
	 "num_atms": 22, 
	 "gaussian": { 
		 "optdone": 1, 
		 "sigma_profile": "yes", 
		 "theory": "DFT", 
		 "functional": "B3LYP", 
		 "basiset": "6-31G**", 
		 "properties": { 
			 "R2extent": 3999.8509, 
			 "electric_dipole_moment_norm": 7.33134795655, 
			 "electric_quadrupole_moment_norm": 16.3000526867, 
			 "total_energy": -1394.25708526, 
			 "HOMO_LUMO_gap": 0.16981, 
			 "cosmo_polarized_energy": -11.1, 
			 "cosmo_cavitation_energy": 29.38, 
			 "cosmo_dispersion_energy": -21.82, 
			 "cosmo_repulsion_energy": 1.7, 
			 "cosmo_total_nonelectrostatic_energy": 9.26, 
			 "SMD_solvation_energy": 4.6 
		},
		"coords": [
			{
				"x": -2.5671111627,
				"y": 3.591423371,
				"z": -0.7391202909,
				"element": "C" 
			},
			{
				"x": -1.9059429019,
				"y": 2.4278241263,
				"z": -1.2247536651,
				"element": "O" 
			},
			{
				"x": -1.0730431485,
				"y": 1.7506698108,
				"z": -0.3964219103,
				"element": "C" 
			},
			{
				"x": -0.4631306713,
				"y": 0.6063372535,
				"z": -0.9687360498,
				"element": "C" 
			},
			{
				"x": -0.7591630603,
				"y": 0.2325022503,
				"z": -2.3973315117,
				"element": "C" 
			},
			{
				"x": 0.403202025,
				"y": -0.1382892942,
				"z": -0.1783188518,
				"element": "C" 
			},
			{
				"x": 0.6589737848,
				"y": 0.2482427293,
				"z": 1.1432678042,
				"element": "C" 
			},
			{
				"x": 0.0599219437,
				"y": 1.3704038646,
				"z": 1.7081546242,
				"element": "C" 
			},
			{
				"x": -0.8102641692,
				"y": 2.1280886369,
				"z": 0.9276246317,
				"element": "C" 
			},
			{
				"x": 1.7764269366,
				"y": -0.7187848913,
				"z": 2.1241070551,
				"element": "S" 
			},
			{
				"x": 0.4613718508,
				"y": -2.1843329716,
				"z": 2.9788491108,
				"element": "Cl" 
			},
			{
				"x": 2.6781496178,
				"y": -1.4629859625,
				"z": 1.2522367238,
				"element": "O" 
			},
			{
				"x": 2.2597252705,
				"y": 0.078248263,
				"z": 3.2459926143,
				"element": "O" 
			},
			{
				"x": -1.8489989649,
				"y": 4.366248238,
				"z": -0.4455589709,
				"element": "H" 
			},
			{
				"x": -3.1737916794,
				"y": 3.956834784,
				"z": -1.5681464239,
				"element": "H" 
			},
			{
				"x": -3.217969232,
				"y": 3.3558942614,
				"z": 0.1111978107,
				"element": "H" 
			},
			{
				"x": -0.4800724898,
				"y": 1.0403512588,
				"z": -3.0820751542,
				"element": "H" 
			},
			{
				"x": -1.8297219693,
				"y": 0.053991014,
				"z": -2.5433205878,
				"element": "H" 
			},
			{
				"x": -0.2144693693,
				"y": -0.6696641106,
				"z": -2.6846678437,
				"element": "H" 
			},
			{
				"x": 0.8938601014,
				"y": -1.0152651203,
				"z": -0.5869516168,
				"element": "H" 
			},
			{
				"x": 0.2775363832,
				"y": 1.6526481162,
				"z": 2.7318427603,
				"element": "H" 
			},
			{
				"x": -1.2739890952,
				"y": 3.0078143724,
				"z": 1.3561297417,
				"element": "H" 
			}
		],
		 "valence_orbital": [ 
			{
				"type": "occ",
				"energy": -0.32689,
				"method": "rhf"
			},
			{
				"type": "occ",
				"energy": -0.31834,
				"method": "rhf"
			},
			{
				"type": "occ",
				"energy": -0.30376,
				"method": "rhf"
			},
			{
				"type": "occ",
				"energy": -0.27797,
				"method": "rhf"
			},
			{
				"type": "occ",
				"energy": -0.2509,
				"method": "rhf"
			},
			{
				"type": "unocc",
				"energy": -0.08109,
				"method": "rhf"
			},
			{
				"type": "unocc",
				"energy": -0.03036,
				"method": "rhf"
			},
			{
				"type": "unocc",
				"energy": -0.02728,
				"method": "rhf"
			},
			{
				"type": "unocc",
				"energy": 0.06051,
				"method": "rhf"
			},
			{
				"type": "unocc",
				"energy": 0.07748,
				"method": "rhf"
			}
		],
		"cosmo_sigma_profile": { 
			"-0.025": 0.0,
			"-0.024": 0.0,
			"-0.023": 0.0,
			"-0.022": 0.0,
			"-0.021": 0.0,
			"-0.02": 0.0,
			"-0.019": 0.0,
			"-0.018": 0.0,
			"-0.017": 0.0,
			"-0.016": 0.0,
			"-0.015": 0.0,
			"-0.014": 0.0,
			"-0.013": 0.0,
			"-0.012": 0.0,
			"-0.011": 0.0,
			"-0.01": 0.0,
			"-0.009": 0.0746480619024,
			"-0.008": 3.65596007581,
			"-0.007": 9.0781403208,
			"-0.006": 14.2037378713,
			"-0.005": 15.1235615309,
			"-0.004": 18.4234299383,
			"-0.003": 14.7184492737,
			"-0.002": 14.9501118987,
			"-0.001": 19.3801133426,
			"0.0": 22.6820889196,
			"0.001": 20.8182174475,
			"0.002": 18.0733056666,
			"0.003": 13.4052528959,
			"0.004": 16.4881614206,
			"0.005": 6.89216789533,
			"0.006": 5.12575743638,
			"0.007": 6.26897890052,
			"0.008": 9.60399536054,
			"0.009": 7.32658127658,
			"0.01": 0.501599171515,
			"0.011": 0.0,
			"0.012": 0.0,
			"0.013": 0.0,
			"0.014": 0.0,
			"0.015": 0.0,
			"0.016": 0.0,
			"0.017": 0.0,
			"0.018": 0.0,
			"0.019": 0.0,
			"0.02": 0.0,
			"0.021": 0.0,
			"0.022": 0.0,
			"0.023": 0.0,
			"0.024": 0.0,
			"0.025": 0.0
		}
	}
}
