{
	 "smiles": "OC1OC(CC2=CC=CC=C12)C1=CC=CC=C1", 
	 "Tm": 375.15, 
	 "num_atms": 31, 
	 "gaussian": { 
		 "optdone": 1, 
		 "sigma_profile": "yes", 
		 "theory": "DFT", 
		 "functional": "B3LYP", 
		 "basiset": "6-31G**", 
		 "properties": { 
			 "R2extent": 3726.5208, 
			 "electric_dipole_moment_norm": 2.56314386838, 
			 "electric_quadrupole_moment_norm": 5.03295379275, 
			 "total_energy": -730.475100555, 
			 "HOMO_LUMO_gap": 0.22393, 
			 "cosmo_polarized_energy": -9.89, 
			 "cosmo_cavitation_energy": 32.56, 
			 "cosmo_dispersion_energy": -23.45, 
			 "cosmo_repulsion_energy": 1.8, 
			 "cosmo_total_nonelectrostatic_energy": 10.9, 
			 "SMD_solvation_energy": 4.76 
		},
		"coords": [
			{
				"x": -1.8640083571,
				"y": 1.0203205581,
				"z": -0.8854756445,
				"element": "O" 
			},
			{
				"x": -1.7598632038,
				"y": -0.3683994085,
				"z": -1.1128273083,
				"element": "C" 
			},
			{
				"x": -0.738704077,
				"y": -0.6955632876,
				"z": -2.0462313701,
				"element": "O" 
			},
			{
				"x": 0.5349980658,
				"y": -1.1062051141,
				"z": -1.523236622,
				"element": "C" 
			},
			{
				"x": 0.3255976953,
				"y": -2.3747220358,
				"z": -0.6914930643,
				"element": "C" 
			},
			{
				"x": -0.6916171443,
				"y": -2.1289402983,
				"z": 0.3971383137,
				"element": "C" 
			},
			{
				"x": -0.6718780366,
				"y": -2.8355514791,
				"z": 1.6059666607,
				"element": "C" 
			},
			{
				"x": -1.6150907149,
				"y": -2.5781191264,
				"z": 2.5990095712,
				"element": "C" 
			},
			{
				"x": -2.586358174,
				"y": -1.5937915969,
				"z": 2.3971125014,
				"element": "C" 
			},
			{
				"x": -2.6082314058,
				"y": -0.8801222166,
				"z": 1.2010465627,
				"element": "C" 
			},
			{
				"x": -1.6729710499,
				"y": -1.1479739686,
				"z": 0.1934256638,
				"element": "C" 
			},
			{
				"x": 1.2837746655,
				"y": 0.0429575991,
				"z": -0.8418322844,
				"element": "C" 
			},
			{
				"x": 2.0278187497,
				"y": -0.1129057722,
				"z": 0.3340106102,
				"element": "C" 
			},
			{
				"x": 2.74494459,
				"y": 0.9586113012,
				"z": 0.8738473942,
				"element": "C" 
			},
			{
				"x": 2.729035432,
				"y": 2.2036050658,
				"z": 0.2467946654,
				"element": "C" 
			},
			{
				"x": 1.9880408793,
				"y": 2.3725971124,
				"z": -0.9259842946,
				"element": "C" 
			},
			{
				"x": 1.275053509,
				"y": 1.3025976933,
				"z": -1.4647257414,
				"element": "C" 
			},
			{
				"x": -1.1108779604,
				"y": 1.2870227828,
				"z": -0.3386219876,
				"element": "H" 
			},
			{
				"x": -2.6885791448,
				"y": -0.6216012679,
				"z": -1.6355692319,
				"element": "H" 
			},
			{
				"x": 1.0987941985,
				"y": -1.3711595338,
				"z": -2.4256667634,
				"element": "H" 
			},
			{
				"x": -0.0381870781,
				"y": -3.1504162869,
				"z": -1.3774808145,
				"element": "H" 
			},
			{
				"x": 1.2680181718,
				"y": -2.7458749632,
				"z": -0.2762951522,
				"element": "H" 
			},
			{
				"x": 0.0950443815,
				"y": -3.5895773715,
				"z": 1.7681624573,
				"element": "H" 
			},
			{
				"x": -1.5880935095,
				"y": -3.1365921091,
				"z": 3.530420666,
				"element": "H" 
			},
			{
				"x": -3.3197592204,
				"y": -1.3822853461,
				"z": 3.1698577055,
				"element": "H" 
			},
			{
				"x": -3.3481387113,
				"y": -0.1020937456,
				"z": 1.0378228728,
				"element": "H" 
			},
			{
				"x": 2.0470173758,
				"y": -1.0678460781,
				"z": 0.8480542785,
				"element": "H" 
			},
			{
				"x": 3.3115183882,
				"y": 0.8167964837,
				"z": 1.7899012538,
				"element": "H" 
			},
			{
				"x": 3.285323057,
				"y": 3.0360559772,
				"z": 0.6679620755,
				"element": "H" 
			},
			{
				"x": 1.9659137245,
				"y": 3.3386447872,
				"z": -1.422589853,
				"element": "H" 
			},
			{
				"x": 0.6859649039,
				"y": 1.4362316456,
				"z": -2.3664031204,
				"element": "H" 
			}
		],
		 "valence_orbital": [ 
			{
				"type": "occ",
				"energy": -0.26738,
				"method": "rhf"
			},
			{
				"type": "occ",
				"energy": -0.25483,
				"method": "rhf"
			},
			{
				"type": "occ",
				"energy": -0.25094,
				"method": "rhf"
			},
			{
				"type": "occ",
				"energy": -0.24495,
				"method": "rhf"
			},
			{
				"type": "occ",
				"energy": -0.23935,
				"method": "rhf"
			},
			{
				"type": "unocc",
				"energy": -0.01542,
				"method": "rhf"
			},
			{
				"type": "unocc",
				"energy": -0.01004,
				"method": "rhf"
			},
			{
				"type": "unocc",
				"energy": -0.00236,
				"method": "rhf"
			},
			{
				"type": "unocc",
				"energy": 0.00201,
				"method": "rhf"
			},
			{
				"type": "unocc",
				"energy": 0.08669,
				"method": "rhf"
			}
		],
		"cosmo_sigma_profile": { 
			"-0.025": 0.0,
			"-0.024": 0.0,
			"-0.023": 0.0,
			"-0.022": 0.0,
			"-0.021": 0.0,
			"-0.02": 0.0,
			"-0.019": 0.0,
			"-0.018": 0.0,
			"-0.017": 0.0,
			"-0.016": 0.0,
			"-0.015": 0.0,
			"-0.014": 0.0,
			"-0.013": 0.0,
			"-0.012": 0.215657589056,
			"-0.011": 0.392270657568,
			"-0.01": 0.799735673743,
			"-0.009": 0.564516013854,
			"-0.008": 0.732446344524,
			"-0.007": 1.24047104111,
			"-0.006": 11.4361492214,
			"-0.005": 26.5504752643,
			"-0.004": 28.2182078683,
			"-0.003": 26.6851913367,
			"-0.002": 19.7502544629,
			"-0.001": 18.3854395443,
			"0.0": 14.3218152068,
			"0.001": 15.4545816923,
			"0.002": 16.7680206781,
			"0.003": 16.1137629143,
			"0.004": 16.8064296981,
			"0.005": 17.6461295429,
			"0.006": 9.13650577555,
			"0.007": 1.85252558486,
			"0.008": 2.3259639901,
			"0.009": 2.24600381805,
			"0.01": 2.18799552368,
			"0.011": 2.67686229102,
			"0.012": 3.05750374509,
			"0.013": 2.21630940847,
			"0.014": 0.635326830988,
			"0.015": 0.0,
			"0.016": 0.0,
			"0.017": 0.0,
			"0.018": 0.0,
			"0.019": 0.0,
			"0.02": 0.0,
			"0.021": 0.0,
			"0.022": 0.0,
			"0.023": 0.0,
			"0.024": 0.0,
			"0.025": 0.0
		}
	}
}
