{
	 "smiles": "O=C1NCCC2=C1C=CC=C2", 
	 "Tm": 328.15, 
	 "num_atms": 20, 
	 "gaussian": { 
		 "optdone": 1, 
		 "sigma_profile": "yes", 
		 "theory": "DFT", 
		 "functional": "B3LYP", 
		 "basiset": "6-31G**", 
		 "properties": { 
			 "R2extent": 1850.9702, 
			 "electric_dipole_moment_norm": 3.87389084513, 
			 "electric_quadrupole_moment_norm": 12.2557151317, 
			 "total_energy": -478.384242913, 
			 "HOMO_LUMO_gap": 0.20641, 
			 "cosmo_polarized_energy": -11.6, 
			 "cosmo_cavitation_energy": 22.87, 
			 "cosmo_dispersion_energy": -17.44, 
			 "cosmo_repulsion_energy": 1.39, 
			 "cosmo_total_nonelectrostatic_energy": 6.82, 
			 "SMD_solvation_energy": 3.42 
		},
		"coords": [
			{
				"x": 0.0886178838,
				"y": 2.9465934221,
				"z": 0.3613665158,
				"element": "O" 
			},
			{
				"x": 0.2448151718,
				"y": 1.73927714,
				"z": 0.2051364786,
				"element": "C" 
			},
			{
				"x": 0.9302138549,
				"y": 1.2299168997,
				"z": -0.8722334508,
				"element": "N" 
			},
			{
				"x": 1.4114460651,
				"y": -0.1471078163,
				"z": -0.9300039682,
				"element": "C" 
			},
			{
				"x": 0.2991504381,
				"y": -1.0950124333,
				"z": -0.4791074966,
				"element": "C" 
			},
			{
				"x": -0.2757476995,
				"y": -0.6538734706,
				"z": 0.8484751599,
				"element": "C" 
			},
			{
				"x": -0.3097757959,
				"y": 0.7195523059,
				"z": 1.1522740614,
				"element": "C" 
			},
			{
				"x": -0.8733873837,
				"y": 1.1658072318,
				"z": 2.35272057,
				"element": "C" 
			},
			{
				"x": -1.3993689764,
				"y": 0.25185378,
				"z": 3.2614190499,
				"element": "C" 
			},
			{
				"x": -1.3645431847,
				"y": -1.1145148359,
				"z": 2.9676449335,
				"element": "C" 
			},
			{
				"x": -0.8079865057,
				"y": -1.5619757442,
				"z": 1.768659664,
				"element": "C" 
			},
			{
				"x": 1.4026139167,
				"y": 1.9362073308,
				"z": -1.4211091831,
				"element": "H" 
			},
			{
				"x": 2.2997235091,
				"y": -0.2861963011,
				"z": -0.2938764211,
				"element": "H" 
			},
			{
				"x": 1.7075778854,
				"y": -0.3677692059,
				"z": -1.9597625656,
				"element": "H" 
			},
			{
				"x": -0.495046316,
				"y": -1.0966652215,
				"z": -1.2386366251,
				"element": "H" 
			},
			{
				"x": 0.6845683446,
				"y": -2.1178984947,
				"z": -0.4145069732,
				"element": "H" 
			},
			{
				"x": -0.885595002,
				"y": 2.23369572,
				"z": 2.5439630991,
				"element": "H" 
			},
			{
				"x": -1.8342045664,
				"y": 0.5983544511,
				"z": 4.1942623512,
				"element": "H" 
			},
			{
				"x": -1.7693294263,
				"y": -1.8333412594,
				"z": 3.6746607138,
				"element": "H" 
			},
			{
				"x": -0.7850422128,
				"y": -2.6258034983,
				"z": 1.5451540868,
				"element": "H" 
			}
		],
		 "valence_orbital": [ 
			{
				"type": "occ",
				"energy": -0.33834,
				"method": "rhf"
			},
			{
				"type": "occ",
				"energy": -0.25499,
				"method": "rhf"
			},
			{
				"type": "occ",
				"energy": -0.25321,
				"method": "rhf"
			},
			{
				"type": "occ",
				"energy": -0.24602,
				"method": "rhf"
			},
			{
				"type": "occ",
				"energy": -0.24123,
				"method": "rhf"
			},
			{
				"type": "unocc",
				"energy": -0.03482,
				"method": "rhf"
			},
			{
				"type": "unocc",
				"energy": -0.00606,
				"method": "rhf"
			},
			{
				"type": "unocc",
				"energy": 0.06516,
				"method": "rhf"
			},
			{
				"type": "unocc",
				"energy": 0.08225,
				"method": "rhf"
			},
			{
				"type": "unocc",
				"energy": 0.10174,
				"method": "rhf"
			}
		],
		"cosmo_sigma_profile": { 
			"-0.025": 0.0,
			"-0.024": 0.0,
			"-0.023": 0.0,
			"-0.022": 0.0,
			"-0.021": 0.0,
			"-0.02": 0.0,
			"-0.019": 0.0,
			"-0.018": 0.0,
			"-0.017": 0.0,
			"-0.016": 0.0,
			"-0.015": 0.0,
			"-0.014": 0.138524534978,
			"-0.013": 1.15398387856,
			"-0.012": 1.17351491689,
			"-0.011": 1.02219953873,
			"-0.01": 1.16669408344,
			"-0.009": 1.18496340763,
			"-0.008": 0.669626491965,
			"-0.007": 1.06203980906,
			"-0.006": 8.71769460631,
			"-0.005": 15.4168495834,
			"-0.004": 21.6398659136,
			"-0.003": 19.669080658,
			"-0.002": 16.0085433521,
			"-0.001": 11.351317849,
			"0.0": 8.25578360897,
			"0.001": 9.07611481839,
			"0.002": 9.69343374224,
			"0.003": 10.4496409542,
			"0.004": 12.7792022747,
			"0.005": 9.96184065883,
			"0.006": 1.93894078126,
			"0.007": 1.79721730602,
			"0.008": 1.75635874918,
			"0.009": 1.30789485215,
			"0.01": 0.470697049762,
			"0.011": 2.03262711109,
			"0.012": 1.7762312672,
			"0.013": 3.06602485842,
			"0.014": 5.73749591322,
			"0.015": 1.04411104871,
			"0.016": 0.0,
			"0.017": 0.0,
			"0.018": 0.0,
			"0.019": 0.0,
			"0.02": 0.0,
			"0.021": 0.0,
			"0.022": 0.0,
			"0.023": 0.0,
			"0.024": 0.0,
			"0.025": 0.0
		}
	}
}
