{
	 "smiles": "NC1=CC2=C(OC(=O)C=C2)C=C1", 
	 "Tm": 433.15, 
	 "num_atms": 19, 
	 "gaussian": { 
		 "optdone": 1, 
		 "sigma_profile": "yes", 
		 "theory": "DFT", 
		 "functional": "B3LYP", 
		 "basiset": "6-31G**", 
		 "properties": { 
			 "R2extent": 2912.6168, 
			 "electric_dipole_moment_norm": 6.41196960068, 
			 "electric_quadrupole_moment_norm": 17.9427537349, 
			 "total_energy": -552.379371762, 
			 "HOMO_LUMO_gap": 0.14346, 
			 "cosmo_polarized_energy": -15.72, 
			 "cosmo_cavitation_energy": 23.59, 
			 "cosmo_dispersion_energy": -17.83, 
			 "cosmo_repulsion_energy": 1.4, 
			 "cosmo_total_nonelectrostatic_energy": 7.16, 
			 "SMD_solvation_energy": 5.14 
		},
		"coords": [
			{
				"x": 3.7442586754,
				"y": 0.0300787776,
				"z": 1.4479522729,
				"element": "N" 
			},
			{
				"x": 2.4506036425,
				"y": 0.5580223951,
				"z": 1.4736519881,
				"element": "C" 
			},
			{
				"x": 1.3791976756,
				"y": -0.1172567055,
				"z": 0.8845242489,
				"element": "C" 
			},
			{
				"x": 0.0923848835,
				"y": 0.4478149237,
				"z": 0.8585661833,
				"element": "C" 
			},
			{
				"x": -0.1144920855,
				"y": 1.7112099137,
				"z": 1.4395245685,
				"element": "C" 
			},
			{
				"x": -1.3465678339,
				"y": 2.3084572982,
				"z": 1.4484544598,
				"element": "O" 
			},
			{
				"x": -2.472361802,
				"y": 1.7140323332,
				"z": 0.8871910927,
				"element": "C" 
			},
			{
				"x": -3.5214842323,
				"y": 2.3138005704,
				"z": 0.9410604505,
				"element": "O" 
			},
			{
				"x": -2.2663101388,
				"y": 0.4008491057,
				"z": 0.2795285097,
				"element": "C" 
			},
			{
				"x": -1.0539979678,
				"y": -0.197673118,
				"z": 0.2666214294,
				"element": "C" 
			},
			{
				"x": 0.9459137447,
				"y": 2.3977514687,
				"z": 2.0325756974,
				"element": "C" 
			},
			{
				"x": 2.2108842763,
				"y": 1.8268838334,
				"z": 2.046938254,
				"element": "C" 
			},
			{
				"x": 4.3552544633,
				"y": 0.3606946206,
				"z": 2.1821645525,
				"element": "H" 
			},
			{
				"x": 3.7949557047,
				"y": -0.97431095,
				"z": 1.3465396708,
				"element": "H" 
			},
			{
				"x": 1.534184754,
				"y": -1.0935540702,
				"z": 0.4313630865,
				"element": "H" 
			},
			{
				"x": -3.1476175839,
				"y": -0.0546360802,
				"z": -0.1560338796,
				"element": "H" 
			},
			{
				"x": -0.9253437685,
				"y": -1.1754676653,
				"z": -0.1916274893,
				"element": "H" 
			},
			{
				"x": 0.7629173431,
				"y": 3.3707472664,
				"z": 2.4754446139,
				"element": "H" 
			},
			{
				"x": 3.0358202497,
				"y": 2.3675560826,
				"z": 2.5034602899,
				"element": "H" 
			}
		],
		 "valence_orbital": [ 
			{
				"type": "occ",
				"energy": -0.33436,
				"method": "rhf"
			},
			{
				"type": "occ",
				"energy": -0.28764,
				"method": "rhf"
			},
			{
				"type": "occ",
				"energy": -0.26574,
				"method": "rhf"
			},
			{
				"type": "occ",
				"energy": -0.24755,
				"method": "rhf"
			},
			{
				"type": "occ",
				"energy": -0.20693,
				"method": "rhf"
			},
			{
				"type": "unocc",
				"energy": -0.06347,
				"method": "rhf"
			},
			{
				"type": "unocc",
				"energy": 0.00156,
				"method": "rhf"
			},
			{
				"type": "unocc",
				"energy": 0.00816,
				"method": "rhf"
			},
			{
				"type": "unocc",
				"energy": 0.06748,
				"method": "rhf"
			},
			{
				"type": "unocc",
				"energy": 0.09419,
				"method": "rhf"
			}
		],
		"cosmo_sigma_profile": { 
			"-0.025": 0.0,
			"-0.024": 0.0,
			"-0.023": 0.0,
			"-0.022": 0.0,
			"-0.021": 0.0,
			"-0.02": 0.0,
			"-0.019": 0.0,
			"-0.018": 0.0,
			"-0.017": 0.0,
			"-0.016": 0.0,
			"-0.015": 0.0,
			"-0.014": 0.0,
			"-0.013": 0.894232959463,
			"-0.012": 3.03820751922,
			"-0.011": 2.46197964823,
			"-0.01": 3.27486400339,
			"-0.009": 3.90750022114,
			"-0.008": 6.93254084234,
			"-0.007": 10.9507372889,
			"-0.006": 11.3144562769,
			"-0.005": 8.42543243303,
			"-0.004": 8.50826520271,
			"-0.003": 9.65637335322,
			"-0.002": 9.04740236702,
			"-0.001": 10.4763407424,
			"0.0": 12.1454486999,
			"0.001": 14.4354738405,
			"0.002": 13.4973736785,
			"0.003": 12.4175721747,
			"0.004": 11.6386349147,
			"0.005": 3.97803284914,
			"0.006": 3.26089624453,
			"0.007": 2.27580629551,
			"0.008": 3.63292134409,
			"0.009": 2.90282063898,
			"0.01": 3.67061377305,
			"0.011": 3.41746008123,
			"0.012": 6.6328656605,
			"0.013": 5.0443202288,
			"0.014": 1.18330074101,
			"0.015": 0.103686110935,
			"0.016": 0.0,
			"0.017": 0.0,
			"0.018": 0.0,
			"0.019": 0.0,
			"0.02": 0.0,
			"0.021": 0.0,
			"0.022": 0.0,
			"0.023": 0.0,
			"0.024": 0.0,
			"0.025": 0.0
		}
	}
}
