{
	 "smiles": "CSC1=NC2=C(N1C)C(=O)N(C(=S)N2)C1=CC=CC=C1", 
	 "Tm": 542.15, 
	 "num_atms": 32, 
	 "gaussian": { 
		 "optdone": 1, 
		 "sigma_profile": "yes", 
		 "theory": "DFT", 
		 "functional": "B3LYP", 
		 "basiset": "6-31G**", 
		 "properties": { 
			 "R2extent": 8516.4515, 
			 "electric_dipole_moment_norm": 5.13296554245, 
			 "electric_quadrupole_moment_norm": 25.988805638, 
			 "total_energy": -1593.24968089, 
			 "HOMO_LUMO_gap": 0.16815, 
			 "cosmo_polarized_energy": -19.98, 
			 "cosmo_cavitation_energy": 39.67, 
			 "cosmo_dispersion_energy": -28.9, 
			 "cosmo_repulsion_energy": 2.13, 
			 "cosmo_total_nonelectrostatic_energy": 12.9, 
			 "SMD_solvation_energy": 5.11 
		},
		"coords": [
			{
				"x": -0.3409963088,
				"y": 5.3619418154,
				"z": -0.1213156585,
				"element": "C" 
			},
			{
				"x": 0.4308608056,
				"y": 4.0926756467,
				"z": -1.1845480557,
				"element": "S" 
			},
			{
				"x": -0.1335334484,
				"y": 2.6475940244,
				"z": -0.3584308926,
				"element": "C" 
			},
			{
				"x": -0.9074252561,
				"y": 2.6311894877,
				"z": 0.7306268155,
				"element": "N" 
			},
			{
				"x": -1.0657939303,
				"y": 1.3076632789,
				"z": 0.9824942122,
				"element": "C" 
			},
			{
				"x": -0.4060948358,
				"y": 0.5126485268,
				"z": 0.0717911262,
				"element": "C" 
			},
			{
				"x": 0.2044661997,
				"y": 1.4042412437,
				"z": -0.8064644256,
				"element": "N" 
			},
			{
				"x": 1.0301997815,
				"y": 1.0637676589,
				"z": -1.9614075096,
				"element": "C" 
			},
			{
				"x": -0.42122191,
				"y": -0.9156870999,
				"z": 0.1257164843,
				"element": "C" 
			},
			{
				"x": 0.1350221642,
				"y": -1.692904972,
				"z": -0.6388652423,
				"element": "O" 
			},
			{
				"x": -1.2051874836,
				"y": -1.3962047021,
				"z": 1.2395292656,
				"element": "N" 
			},
			{
				"x": -1.8847018144,
				"y": -0.6188932738,
				"z": 2.1783120677,
				"element": "C" 
			},
			{
				"x": -2.7794589439,
				"y": -1.2288540353,
				"z": 3.451665576,
				"element": "S" 
			},
			{
				"x": -1.7828564311,
				"y": 0.7429109105,
				"z": 2.0039891132,
				"element": "N" 
			},
			{
				"x": -1.2670638121,
				"y": -2.8401812466,
				"z": 1.359527861,
				"element": "C" 
			},
			{
				"x": -0.2937077352,
				"y": -3.5095641717,
				"z": 2.0982642809,
				"element": "C" 
			},
			{
				"x": -0.336587143,
				"y": -4.9005202283,
				"z": 2.1849134719,
				"element": "C" 
			},
			{
				"x": -1.3439123406,
				"y": -5.6124759826,
				"z": 1.5308135196,
				"element": "C" 
			},
			{
				"x": -2.3095383656,
				"y": -4.9322408881,
				"z": 0.7863335176,
				"element": "C" 
			},
			{
				"x": -2.2716944426,
				"y": -3.5413596603,
				"z": 0.6959949258,
				"element": "C" 
			},
			{
				"x": -0.0500861906,
				"y": 6.3211993037,
				"z": -0.5529881371,
				"element": "H" 
			},
			{
				"x": 0.0311420049,
				"y": 5.2777196529,
				"z": 0.8993731262,
				"element": "H" 
			},
			{
				"x": -1.4253828869,
				"y": 5.2554039671,
				"z": -0.1315229489,
				"element": "H" 
			},
			{
				"x": 1.0876119627,
				"y": -0.0229569995,
				"z": -2.0149148819,
				"element": "H" 
			},
			{
				"x": 0.5798403999,
				"y": 1.4566487205,
				"z": -2.8776999776,
				"element": "H" 
			},
			{
				"x": 2.0340796409,
				"y": 1.4827208129,
				"z": -1.8453798428,
				"element": "H" 
			},
			{
				"x": -2.270629409,
				"y": 1.3174237093,
				"z": 2.6777973058,
				"element": "H" 
			},
			{
				"x": 0.481830937,
				"y": -2.9429119548,
				"z": 2.6029571419,
				"element": "H" 
			},
			{
				"x": 0.4171060042,
				"y": -5.426799574,
				"z": 2.7628343105,
				"element": "H" 
			},
			{
				"x": -1.3754573569,
				"y": -6.695890258,
				"z": 1.5998837471,
				"element": "H" 
			},
			{
				"x": -3.0929131475,
				"y": -5.4832240742,
				"z": 0.2747108599,
				"element": "H" 
			},
			{
				"x": -3.0165167082,
				"y": -2.9991796383,
				"z": 0.1228088435,
				"element": "H" 
			}
		],
		 "valence_orbital": [ 
			{
				"type": "occ",
				"energy": -0.25437,
				"method": "rhf"
			},
			{
				"type": "occ",
				"energy": -0.25068,
				"method": "rhf"
			},
			{
				"type": "occ",
				"energy": -0.24213,
				"method": "rhf"
			},
			{
				"type": "occ",
				"energy": -0.20733,
				"method": "rhf"
			},
			{
				"type": "occ",
				"energy": -0.207,
				"method": "rhf"
			},
			{
				"type": "unocc",
				"energy": -0.03885,
				"method": "rhf"
			},
			{
				"type": "unocc",
				"energy": -0.0258,
				"method": "rhf"
			},
			{
				"type": "unocc",
				"energy": -0.00557,
				"method": "rhf"
			},
			{
				"type": "unocc",
				"energy": 0.00027,
				"method": "rhf"
			},
			{
				"type": "unocc",
				"energy": 0.00423,
				"method": "rhf"
			}
		],
		"cosmo_sigma_profile": { 
			"-0.025": 0.0,
			"-0.024": 0.0,
			"-0.023": 0.0,
			"-0.022": 0.0,
			"-0.021": 0.0,
			"-0.02": 0.0,
			"-0.019": 0.0,
			"-0.018": 0.0,
			"-0.017": 0.292751929565,
			"-0.016": 0.914653106113,
			"-0.015": 0.96599863009,
			"-0.014": 0.783080586384,
			"-0.013": 0.577304888605,
			"-0.012": 0.816246913785,
			"-0.011": 0.805399878937,
			"-0.01": 0.6897148092,
			"-0.009": 0.500072786104,
			"-0.008": 1.9076833466,
			"-0.007": 10.8034233975,
			"-0.006": 23.7384282941,
			"-0.005": 28.7406662482,
			"-0.004": 29.8381532238,
			"-0.003": 27.7605493315,
			"-0.002": 28.4070644919,
			"-0.001": 18.8795402052,
			"0.0": 15.1028658873,
			"0.001": 12.6161169667,
			"0.002": 15.7410835201,
			"0.003": 13.9794187132,
			"0.004": 14.0299766296,
			"0.005": 13.4259819368,
			"0.006": 11.9257775894,
			"0.007": 8.01276907883,
			"0.008": 8.33786367402,
			"0.009": 10.9825290968,
			"0.01": 10.7219291541,
			"0.011": 6.03194546371,
			"0.012": 4.26231797641,
			"0.013": 0.906904768401,
			"0.014": 0.0,
			"0.015": 0.0,
			"0.016": 0.0,
			"0.017": 0.0,
			"0.018": 0.0,
			"0.019": 0.0,
			"0.02": 0.0,
			"0.021": 0.0,
			"0.022": 0.0,
			"0.023": 0.0,
			"0.024": 0.0,
			"0.025": 0.0
		}
	}
}
