{
	 "smiles": "CC(=O)C1=CC=C(O)C(=C1)C(F)(F)F", 
	 "Tm": 448.65, 
	 "num_atms": 21, 
	 "gaussian": { 
		 "optdone": 1, 
		 "sigma_profile": "yes", 
		 "theory": "DFT", 
		 "functional": "B3LYP", 
		 "basiset": "6-31G**", 
		 "properties": { 
			 "R2extent": 3199.5655, 
			 "electric_dipole_moment_norm": 1.75480769887, 
			 "electric_quadrupole_moment_norm": 22.1309183519, 
			 "total_energy": -797.151680565, 
			 "HOMO_LUMO_gap": 0.19067, 
			 "cosmo_polarized_energy": -13.59, 
			 "cosmo_cavitation_energy": 27.0, 
			 "cosmo_dispersion_energy": -19.11, 
			 "cosmo_repulsion_energy": 1.44, 
			 "cosmo_total_nonelectrostatic_energy": 9.33, 
			 "SMD_solvation_energy": 6.89 
		},
		"coords": [
			{
				"x": -1.6546983532,
				"y": 2.5810134692,
				"z": 2.2206702377,
				"element": "C" 
			},
			{
				"x": -1.8204229977,
				"y": 2.0477116445,
				"z": 0.8078293225,
				"element": "C" 
			},
			{
				"x": -2.7405937949,
				"y": 2.4309847814,
				"z": 0.0999431318,
				"element": "O" 
			},
			{
				"x": -0.837591546,
				"y": 1.0437136273,
				"z": 0.2949816629,
				"element": "C" 
			},
			{
				"x": -1.0011662691,
				"y": 0.5586059893,
				"z": -1.0117555948,
				"element": "C" 
			},
			{
				"x": -0.1209558369,
				"y": -0.3733355168,
				"z": -1.5404917812,
				"element": "C" 
			},
			{
				"x": 0.9513735526,
				"y": -0.8466825394,
				"z": -0.7716208649,
				"element": "C" 
			},
			{
				"x": 1.8373446789,
				"y": -1.7562975268,
				"z": -1.2427338693,
				"element": "O" 
			},
			{
				"x": 1.1305940064,
				"y": -0.3706408766,
				"z": 0.5414351995,
				"element": "C" 
			},
			{
				"x": 0.2369097092,
				"y": 0.5652707408,
				"z": 1.0562490967,
				"element": "C" 
			},
			{
				"x": 2.280376991,
				"y": -0.8738699762,
				"z": 1.3751075415,
				"element": "C" 
			},
			{
				"x": 2.2857923855,
				"y": -0.3020010405,
				"z": 2.6026843353,
				"element": "F" 
			},
			{
				"x": 3.4734076204,
				"y": -0.6013280169,
				"z": 0.8061285345,
				"element": "F" 
			},
			{
				"x": 2.2224203028,
				"y": -2.2093581687,
				"z": 1.5607697266,
				"element": "F" 
			},
			{
				"x": -0.6858842913,
				"y": 3.0778105974,
				"z": 2.3435162226,
				"element": "H" 
			},
			{
				"x": -1.7014911724,
				"y": 1.7703003779,
				"z": 2.9562384115,
				"element": "H" 
			},
			{
				"x": -2.4542420918,
				"y": 3.2950530847,
				"z": 2.4190815849,
				"element": "H" 
			},
			{
				"x": -1.8352646667,
				"y": 0.9333647774,
				"z": -1.595553011,
				"element": "H" 
			},
			{
				"x": -0.2552620063,
				"y": -0.7440005326,
				"z": -2.5543617738,
				"element": "H" 
			},
			{
				"x": 1.6030674197,
				"y": -1.9988114125,
				"z": -2.1484932362,
				"element": "H" 
			},
			{
				"x": 0.3949863599,
				"y": 0.9166965172,
				"z": 2.0683751233,
				"element": "H" 
			}
		],
		 "valence_orbital": [ 
			{
				"type": "occ",
				"energy": -0.35631,
				"method": "rhf"
			},
			{
				"type": "occ",
				"energy": -0.34537,
				"method": "rhf"
			},
			{
				"type": "occ",
				"energy": -0.28142,
				"method": "rhf"
			},
			{
				"type": "occ",
				"energy": -0.25288,
				"method": "rhf"
			},
			{
				"type": "occ",
				"energy": -0.24917,
				"method": "rhf"
			},
			{
				"type": "unocc",
				"energy": -0.0585,
				"method": "rhf"
			},
			{
				"type": "unocc",
				"energy": -0.03367,
				"method": "rhf"
			},
			{
				"type": "unocc",
				"energy": 0.03116,
				"method": "rhf"
			},
			{
				"type": "unocc",
				"energy": 0.04892,
				"method": "rhf"
			},
			{
				"type": "unocc",
				"energy": 0.08672,
				"method": "rhf"
			}
		],
		"cosmo_sigma_profile": { 
			"-0.025": 0.0,
			"-0.024": 0.0,
			"-0.023": 0.0,
			"-0.022": 0.0,
			"-0.021": 0.0,
			"-0.02": 0.0266128803466,
			"-0.019": 0.99499299704,
			"-0.018": 1.26164067886,
			"-0.017": 1.00921410277,
			"-0.016": 1.41226937956,
			"-0.015": 1.27052918918,
			"-0.014": 0.389446209643,
			"-0.013": 0.638085449409,
			"-0.012": 1.41366417092,
			"-0.011": 1.53524168685,
			"-0.01": 0.338165567235,
			"-0.009": 1.40974721227,
			"-0.008": 2.14484842256,
			"-0.007": 5.75232508164,
			"-0.006": 10.6556491749,
			"-0.005": 9.99176449334,
			"-0.004": 9.49594473622,
			"-0.003": 11.2384895711,
			"-0.002": 13.452375802,
			"-0.001": 13.5762209832,
			"0.0": 15.3656841572,
			"0.001": 19.6100767019,
			"0.002": 25.2560295546,
			"0.003": 30.1202572846,
			"0.004": 6.32181552949,
			"0.005": 5.13318722024,
			"0.006": 4.37892166712,
			"0.007": 3.90397430871,
			"0.008": 4.64903936507,
			"0.009": 2.29926825372,
			"0.01": 2.13644871232,
			"0.011": 2.73891504305,
			"0.012": 3.98759473703,
			"0.013": 1.74349019656,
			"0.014": 0.169273659395,
			"0.015": 0.0,
			"0.016": 0.0,
			"0.017": 0.0,
			"0.018": 0.0,
			"0.019": 0.0,
			"0.02": 0.0,
			"0.021": 0.0,
			"0.022": 0.0,
			"0.023": 0.0,
			"0.024": 0.0,
			"0.025": 0.0
		}
	}
}
