{
	 "smiles": "NC(=N)NS(=O)(=O)C1=CC=CC=C1", 
	 "Tm": 485.15, 
	 "num_atms": 22, 
	 "gaussian": { 
		 "optdone": 1, 
		 "sigma_profile": "yes", 
		 "theory": "DFT", 
		 "functional": "B3LYP", 
		 "basiset": "6-31G**", 
		 "properties": { 
			 "R2extent": 2674.6609, 
			 "electric_dipole_moment_norm": 6.15395918089, 
			 "electric_quadrupole_moment_norm": 15.4691430629, 
			 "total_energy": -984.98109103, 
			 "HOMO_LUMO_gap": 0.21699, 
			 "cosmo_polarized_energy": -23.1, 
			 "cosmo_cavitation_energy": 27.58, 
			 "cosmo_dispersion_energy": -20.65, 
			 "cosmo_repulsion_energy": 1.62, 
			 "cosmo_total_nonelectrostatic_energy": 8.55, 
			 "SMD_solvation_energy": 3.85 
		},
		"coords": [
			{
				"x": 0.0616335872,
				"y": 3.0562529252,
				"z": 2.0599524339,
				"element": "N" 
			},
			{
				"x": -0.1454038164,
				"y": 1.7813807746,
				"z": 1.5252939651,
				"element": "C" 
			},
			{
				"x": -0.3444064602,
				"y": 0.6846995658,
				"z": 2.1462293949,
				"element": "N" 
			},
			{
				"x": -0.1262527873,
				"y": 1.8210054641,
				"z": 0.1193676581,
				"element": "N" 
			},
			{
				"x": -0.6688986047,
				"y": 0.5506384184,
				"z": -0.9019031661,
				"element": "S" 
			},
			{
				"x": -0.6116800226,
				"y": 1.1994448148,
				"z": -2.2162157469,
				"element": "O" 
			},
			{
				"x": -1.9082392567,
				"y": -0.0414126711,
				"z": -0.4119752751,
				"element": "O" 
			},
			{
				"x": 0.6402600779,
				"y": -0.6639214549,
				"z": -0.7943803789,
				"element": "C" 
			},
			{
				"x": 0.5770262762,
				"y": -1.6586249123,
				"z": 0.1831464684,
				"element": "C" 
			},
			{
				"x": 1.5886603458,
				"y": -2.6184398171,
				"z": 0.2212629854,
				"element": "C" 
			},
			{
				"x": 2.6328419013,
				"y": -2.5793349187,
				"z": -0.7061316663,
				"element": "C" 
			},
			{
				"x": 2.6746946478,
				"y": -1.5805534636,
				"z": -1.6822013672,
				"element": "C" 
			},
			{
				"x": 1.6721464441,
				"y": -0.6123959585,
				"z": -1.7337702542,
				"element": "C" 
			},
			{
				"x": 0.2349585204,
				"y": 3.0598629068,
				"z": 3.0561073511,
				"element": "H" 
			},
			{
				"x": 0.7264630429,
				"y": 3.6328726963,
				"z": 1.5583415218,
				"element": "H" 
			},
			{
				"x": -0.2457287247,
				"y": 0.8061667076,
				"z": 3.1531608463,
				"element": "H" 
			},
			{
				"x": -0.3758936765,
				"y": 2.7052310243,
				"z": -0.3127919315,
				"element": "H" 
			},
			{
				"x": -0.2363841545,
				"y": -1.6554446663,
				"z": 0.8978570368,
				"element": "H" 
			},
			{
				"x": 1.5585326056,
				"y": -3.399760074,
				"z": 0.9746552993,
				"element": "H" 
			},
			{
				"x": 3.4143988639,
				"y": -3.3329804625,
				"z": -0.6715846952,
				"element": "H" 
			},
			{
				"x": 3.4824966816,
				"y": -1.558778806,
				"z": -2.4074147128,
				"element": "H" 
			},
			{
				"x": 1.671474509,
				"y": 0.1614919071,
				"z": -2.4932057671,
				"element": "H" 
			}
		],
		 "valence_orbital": [ 
			{
				"type": "occ",
				"energy": -0.29297,
				"method": "rhf"
			},
			{
				"type": "occ",
				"energy": -0.27486,
				"method": "rhf"
			},
			{
				"type": "occ",
				"energy": -0.2655,
				"method": "rhf"
			},
			{
				"type": "occ",
				"energy": -0.26085,
				"method": "rhf"
			},
			{
				"type": "occ",
				"energy": -0.25132,
				"method": "rhf"
			},
			{
				"type": "unocc",
				"energy": -0.03433,
				"method": "rhf"
			},
			{
				"type": "unocc",
				"energy": -0.01295,
				"method": "rhf"
			},
			{
				"type": "unocc",
				"energy": 0.03109,
				"method": "rhf"
			},
			{
				"type": "unocc",
				"energy": 0.04119,
				"method": "rhf"
			},
			{
				"type": "unocc",
				"energy": 0.07413,
				"method": "rhf"
			}
		],
		"cosmo_sigma_profile": { 
			"-0.025": 0.0,
			"-0.024": 0.0,
			"-0.023": 0.0,
			"-0.022": 0.0,
			"-0.021": 0.0,
			"-0.02": 0.0,
			"-0.019": 0.0,
			"-0.018": 0.0,
			"-0.017": 0.0,
			"-0.016": 0.32508668112,
			"-0.015": 1.67699916375,
			"-0.014": 4.03964416846,
			"-0.013": 4.79571418276,
			"-0.012": 4.56894212061,
			"-0.011": 4.41587377623,
			"-0.01": 3.39293244232,
			"-0.009": 3.39141304581,
			"-0.008": 2.88782062719,
			"-0.007": 8.48541639803,
			"-0.006": 12.8584493119,
			"-0.005": 12.9229709869,
			"-0.004": 9.53845736132,
			"-0.003": 9.25987701977,
			"-0.002": 8.64398450424,
			"-0.001": 9.00706082805,
			"0.0": 10.2150451781,
			"0.001": 12.1381734012,
			"0.002": 14.53518628,
			"0.003": 18.8278569903,
			"0.004": 7.90679426504,
			"0.005": 5.76806742943,
			"0.006": 5.09152553755,
			"0.007": 6.33001998144,
			"0.008": 6.00014483653,
			"0.009": 6.17150182242,
			"0.01": 9.75826838857,
			"0.011": 9.60394253519,
			"0.012": 3.59108221123,
			"0.013": 1.01636598754,
			"0.014": 0.854131680237,
			"0.015": 1.02348254001,
			"0.016": 0.503356501694,
			"0.017": 0.0,
			"0.018": 0.0,
			"0.019": 0.0,
			"0.02": 0.0,
			"0.021": 0.0,
			"0.022": 0.0,
			"0.023": 0.0,
			"0.024": 0.0,
			"0.025": 0.0
		}
	}
}
