{
	 "smiles": "CCCCCCCCCCCCCCCCOC(=O)C(C)O", 
	 "Tm": 314.15, 
	 "num_atms": 60, 
	 "gaussian": { 
		 "optdone": 1, 
		 "sigma_profile": "yes", 
		 "theory": "DFT", 
		 "functional": "B3LYP", 
		 "basiset": "6-31G**", 
		 "properties": { 
			 "R2extent": 9906.2506, 
			 "electric_dipole_moment_norm": 1.89974531188, 
			 "electric_quadrupole_moment_norm": 8.58704887258, 
			 "total_energy": -972.646174224, 
			 "HOMO_LUMO_gap": 0.26547, 
			 "cosmo_polarized_energy": -8.72, 
			 "cosmo_cavitation_energy": 57.63, 
			 "cosmo_dispersion_energy": -34.83, 
			 "cosmo_repulsion_energy": 2.76, 
			 "cosmo_total_nonelectrostatic_energy": 25.56, 
			 "SMD_solvation_energy": 8.36 
		},
		"coords": [
			{
				"x": -6.1555483084,
				"y": 2.0022769521,
				"z": -0.8831935011,
				"element": "C" 
			},
			{
				"x": -5.1142320223,
				"y": 2.8597858135,
				"z": -1.6093134428,
				"element": "C" 
			},
			{
				"x": -3.6736625764,
				"y": 2.3786319569,
				"z": -1.3908588635,
				"element": "C" 
			},
			{
				"x": -2.6288070178,
				"y": 3.2376925728,
				"z": -2.1171147275,
				"element": "C" 
			},
			{
				"x": -1.16817833,
				"y": 2.8313734249,
				"z": -1.8602096253,
				"element": "C" 
			},
			{
				"x": -0.7719750334,
				"y": 1.4584942138,
				"z": -2.4218047755,
				"element": "C" 
			},
			{
				"x": 0.7042689353,
				"y": 1.1100927101,
				"z": -2.1863054221,
				"element": "C" 
			},
			{
				"x": 1.0813667297,
				"y": -0.2841043444,
				"z": -2.7085822758,
				"element": "C" 
			},
			{
				"x": 2.5521284756,
				"y": -0.7079970045,
				"z": -2.5366473372,
				"element": "C" 
			},
			{
				"x": 3.026157719,
				"y": -0.9779557511,
				"z": -1.0902670236,
				"element": "C" 
			},
			{
				"x": 3.5983910777,
				"y": 0.2383540221,
				"z": -0.3419509452,
				"element": "C" 
			},
			{
				"x": 4.1387102531,
				"y": -0.0956033771,
				"z": 1.0614190859,
				"element": "C" 
			},
			{
				"x": 3.078724344,
				"y": -0.3876947042,
				"z": 2.1562947714,
				"element": "C" 
			},
			{
				"x": 2.857029744,
				"y": 0.7699109865,
				"z": 3.1515137752,
				"element": "C" 
			},
			{
				"x": 2.164131141,
				"y": 2.0371115594,
				"z": 2.6065134372,
				"element": "C" 
			},
			{
				"x": 0.6432081027,
				"y": 2.0191284961,
				"z": 2.6734219659,
				"element": "C" 
			},
			{
				"x": 0.1217135464,
				"y": 0.9683155915,
				"z": 1.818263752,
				"element": "O" 
			},
			{
				"x": -1.0504070283,
				"y": 0.3988054885,
				"z": 2.1825318673,
				"element": "C" 
			},
			{
				"x": -1.7046761899,
				"y": 0.7336759406,
				"z": 3.1448390543,
				"element": "O" 
			},
			{
				"x": -1.4756556787,
				"y": -0.6900666809,
				"z": 1.1909812038,
				"element": "C" 
			},
			{
				"x": -2.0456207607,
				"y": -1.9001695534,
				"z": 1.9235837131,
				"element": "C" 
			},
			{
				"x": -0.4209405851,
				"y": -1.127266101,
				"z": 0.3517065422,
				"element": "O" 
			},
			{
				"x": -5.9834372254,
				"y": 2.0017053633,
				"z": 0.1992397676,
				"element": "H" 
			},
			{
				"x": -7.1714023781,
				"y": 2.3718347863,
				"z": -1.0576523395,
				"element": "H" 
			},
			{
				"x": -6.1182791811,
				"y": 0.9608585458,
				"z": -1.2231820219,
				"element": "H" 
			},
			{
				"x": -5.200810859,
				"y": 3.9027979518,
				"z": -1.2753488282,
				"element": "H" 
			},
			{
				"x": -5.3323645624,
				"y": 2.8678931408,
				"z": -2.6860345091,
				"element": "H" 
			},
			{
				"x": -3.5950239368,
				"y": 1.3335553124,
				"z": -1.7194648576,
				"element": "H" 
			},
			{
				"x": -3.4541813913,
				"y": 2.3778411423,
				"z": -0.3125755132,
				"element": "H" 
			},
			{
				"x": -2.761889283,
				"y": 4.2843511254,
				"z": -1.8111166367,
				"element": "H" 
			},
			{
				"x": -2.8267138763,
				"y": 3.212233314,
				"z": -3.1983925466,
				"element": "H" 
			},
			{
				"x": -0.9746117363,
				"y": 2.8465248909,
				"z": -0.7772605931,
				"element": "H" 
			},
			{
				"x": -0.5074807334,
				"y": 3.5938610009,
				"z": -2.2948582086,
				"element": "H" 
			},
			{
				"x": -0.9857857489,
				"y": 1.4303010534,
				"z": -3.4999013009,
				"element": "H" 
			},
			{
				"x": -1.3924623323,
				"y": 0.6736994375,
				"z": -1.9694319573,
				"element": "H" 
			},
			{
				"x": 1.3433931737,
				"y": 1.8672889717,
				"z": -2.6627684056,
				"element": "H" 
			},
			{
				"x": 0.9133722755,
				"y": 1.1884085599,
				"z": -1.110408899,
				"element": "H" 
			},
			{
				"x": 0.8353318566,
				"y": -0.3233657727,
				"z": -3.7788017169,
				"element": "H" 
			},
			{
				"x": 0.4390131891,
				"y": -1.0319426147,
				"z": -2.2240537253,
				"element": "H" 
			},
			{
				"x": 3.2098254516,
				"y": 0.0389799314,
				"z": -3.0043731681,
				"element": "H" 
			},
			{
				"x": 2.6905947333,
				"y": -1.6286684308,
				"z": -3.117076172,
				"element": "H" 
			},
			{
				"x": 2.2046511701,
				"y": -1.4305320473,
				"z": -0.5185983169,
				"element": "H" 
			},
			{
				"x": 3.8159416362,
				"y": -1.7409762696,
				"z": -1.1202854724,
				"element": "H" 
			},
			{
				"x": 2.8487367621,
				"y": 1.0348083491,
				"z": -0.2731505795,
				"element": "H" 
			},
			{
				"x": 4.4190613147,
				"y": 0.6530311613,
				"z": -0.9435137499,
				"element": "H" 
			},
			{
				"x": 4.7808985905,
				"y": 0.7285303319,
				"z": 1.400303617,
				"element": "H" 
			},
			{
				"x": 4.8056257289,
				"y": -0.962463672,
				"z": 0.9645598312,
				"element": "H" 
			},
			{
				"x": 2.1256990936,
				"y": -0.6809073655,
				"z": 1.7038149131,
				"element": "H" 
			},
			{
				"x": 3.4065469413,
				"y": -1.2547106123,
				"z": 2.7424710822,
				"element": "H" 
			},
			{
				"x": 3.8369896811,
				"y": 1.0579920665,
				"z": 3.5537504342,
				"element": "H" 
			},
			{
				"x": 2.2809083874,
				"y": 0.4010136122,
				"z": 4.0111970247,
				"element": "H" 
			},
			{
				"x": 2.4718150678,
				"y": 2.9033602411,
				"z": 3.207025663,
				"element": "H" 
			},
			{
				"x": 2.4903571845,
				"y": 2.2515500154,
				"z": 1.5826108981,
				"element": "H" 
			},
			{
				"x": 0.2858618646,
				"y": 1.8370735299,
				"z": 3.6900332452,
				"element": "H" 
			},
			{
				"x": 0.2177534629,
				"y": 2.967960636,
				"z": 2.328473316,
				"element": "H" 
			},
			{
				"x": -2.2797504924,
				"y": -0.2271042853,
				"z": 0.591542862,
				"element": "H" 
			},
			{
				"x": -2.4210408538,
				"y": -2.6247281594,
				"z": 1.19695511,
				"element": "H" 
			},
			{
				"x": -1.2645789186,
				"y": -2.3806570217,
				"z": 2.519717771,
				"element": "H" 
			},
			{
				"x": -2.8583230125,
				"y": -1.5925358126,
				"z": 2.5839497852,
				"element": "H" 
			},
			{
				"x": 0.1086324187,
				"y": -0.3540546193,
				"z": 0.1161829692,
				"element": "H" 
			}
		],
		 "valence_orbital": [ 
			{
				"type": "occ",
				"energy": -0.30251,
				"method": "rhf"
			},
			{
				"type": "occ",
				"energy": -0.29711,
				"method": "rhf"
			},
			{
				"type": "occ",
				"energy": -0.29308,
				"method": "rhf"
			},
			{
				"type": "occ",
				"energy": -0.29119,
				"method": "rhf"
			},
			{
				"type": "occ",
				"energy": -0.26084,
				"method": "rhf"
			},
			{
				"type": "unocc",
				"energy": 0.00463,
				"method": "rhf"
			},
			{
				"type": "unocc",
				"energy": 0.0487,
				"method": "rhf"
			},
			{
				"type": "unocc",
				"energy": 0.08021,
				"method": "rhf"
			},
			{
				"type": "unocc",
				"energy": 0.08358,
				"method": "rhf"
			},
			{
				"type": "unocc",
				"energy": 0.09625,
				"method": "rhf"
			}
		],
		"cosmo_sigma_profile": { 
			"-0.025": 0.0,
			"-0.024": 0.0,
			"-0.023": 0.0,
			"-0.022": 0.0,
			"-0.021": 0.0,
			"-0.02": 0.0,
			"-0.019": 0.0,
			"-0.018": 0.0,
			"-0.017": 0.0,
			"-0.016": 0.0,
			"-0.015": 0.0,
			"-0.014": 0.0,
			"-0.013": 0.0,
			"-0.012": 0.0,
			"-0.011": 0.00436362244096,
			"-0.01": 0.0923848875935,
			"-0.009": 0.311479661701,
			"-0.008": 0.186394686618,
			"-0.007": 0.346679383254,
			"-0.006": 1.2166411433,
			"-0.005": 6.79983795071,
			"-0.004": 20.5439653675,
			"-0.003": 27.4537765654,
			"-0.002": 60.7814955724,
			"-0.001": 88.4214697496,
			"0.0": 88.9260933176,
			"0.001": 75.2999657241,
			"0.002": 34.5033797424,
			"0.003": 5.37407341238,
			"0.004": 3.78115364936,
			"0.005": 4.06856328174,
			"0.006": 2.57454393089,
			"0.007": 2.44059547285,
			"0.008": 2.73548965511,
			"0.009": 3.56664959164,
			"0.01": 2.42403403981,
			"0.011": 4.51849535712,
			"0.012": 5.26650858789,
			"0.013": 0.718196389565,
			"0.014": 0.0,
			"0.015": 0.0,
			"0.016": 0.0,
			"0.017": 0.0,
			"0.018": 0.0,
			"0.019": 0.0,
			"0.02": 0.0,
			"0.021": 0.0,
			"0.022": 0.0,
			"0.023": 0.0,
			"0.024": 0.0,
			"0.025": 0.0
		}
	}
}
