{
	 "smiles": "ClCC(=O)NC1=CC=NN1C1CCCC1", 
	 "Tm": 350.15, 
	 "num_atms": 29, 
	 "gaussian": { 
		 "optdone": 1, 
		 "sigma_profile": "yes", 
		 "theory": "DFT", 
		 "functional": "B3LYP", 
		 "basiset": "6-31G**", 
		 "properties": { 
			 "R2extent": 4450.9892, 
			 "electric_dipole_moment_norm": 2.22605930963, 
			 "electric_quadrupole_moment_norm": 7.31899947397, 
			 "total_energy": -1089.17024831, 
			 "HOMO_LUMO_gap": 0.22987, 
			 "cosmo_polarized_energy": -13.0, 
			 "cosmo_cavitation_energy": 32.93, 
			 "cosmo_dispersion_energy": -23.7, 
			 "cosmo_repulsion_energy": 1.91, 
			 "cosmo_total_nonelectrostatic_energy": 11.13, 
			 "SMD_solvation_energy": 4.73 
		},
		"coords": [
			{
				"x": 4.2302489703,
				"y": -1.7772276892,
				"z": 1.7848486399,
				"element": "Cl" 
			},
			{
				"x": 2.8738858962,
				"y": -2.6759461721,
				"z": 0.9794759196,
				"element": "C" 
			},
			{
				"x": 1.5502896744,
				"y": -1.9258798645,
				"z": 0.8047267459,
				"element": "C" 
			},
			{
				"x": 0.615091596,
				"y": -2.5426740264,
				"z": 0.3214059456,
				"element": "O" 
			},
			{
				"x": 1.5193376938,
				"y": -0.6091052841,
				"z": 1.1705778706,
				"element": "N" 
			},
			{
				"x": 0.3477769412,
				"y": 0.1734092089,
				"z": 1.1991070048,
				"element": "C" 
			},
			{
				"x": -0.2957576026,
				"y": 0.7429773116,
				"z": 2.2851256009,
				"element": "C" 
			},
			{
				"x": -1.3657943369,
				"y": 1.4554166139,
				"z": 1.7127622147,
				"element": "C" 
			},
			{
				"x": -1.3885876266,
				"y": 1.3355568219,
				"z": 0.3849912062,
				"element": "N" 
			},
			{
				"x": -0.3265481862,
				"y": 0.5630889929,
				"z": 0.0765842072,
				"element": "N" 
			},
			{
				"x": -0.0711300823,
				"y": 0.2033667254,
				"z": -1.3184053397,
				"element": "C" 
			},
			{
				"x": -1.1609027835,
				"y": -0.6940815564,
				"z": -1.932297996,
				"element": "C" 
			},
			{
				"x": -0.9162675279,
				"y": -0.5323858599,
				"z": -3.4376396227,
				"element": "C" 
			},
			{
				"x": -0.6130287883,
				"y": 0.9755442007,
				"z": -3.6071127688,
				"element": "C" 
			},
			{
				"x": 0.019983292,
				"y": 1.4330357767,
				"z": -2.2623594714,
				"element": "C" 
			},
			{
				"x": 3.2312421874,
				"y": -2.9813542954,
				"z": -0.0045496216,
				"element": "H" 
			},
			{
				"x": 2.6776342155,
				"y": -3.5677333481,
				"z": 1.5745158915,
				"element": "H" 
			},
			{
				"x": 2.3440126166,
				"y": -0.2333185562,
				"z": 1.6210895791,
				"element": "H" 
			},
			{
				"x": -0.0274644921,
				"y": 0.6400794988,
				"z": 3.3258453996,
				"element": "H" 
			},
			{
				"x": -2.1245405752,
				"y": 2.0452228555,
				"z": 2.2096164216,
				"element": "H" 
			},
			{
				"x": 0.878015739,
				"y": -0.3369070213,
				"z": -1.3146740156,
				"element": "H" 
			},
			{
				"x": -1.093549113,
				"y": -1.7211818479,
				"z": -1.5671474336,
				"element": "H" 
			},
			{
				"x": -2.1403110283,
				"y": -0.2886603393,
				"z": -1.6541959501,
				"element": "H" 
			},
			{
				"x": -1.7614892742,
				"y": -0.8664706221,
				"z": -4.0469409947,
				"element": "H" 
			},
			{
				"x": -0.0465278407,
				"y": -1.1306540486,
				"z": -3.7389170041,
				"element": "H" 
			},
			{
				"x": -1.5443178431,
				"y": 1.5237456855,
				"z": -3.7838317624,
				"element": "H" 
			},
			{
				"x": 0.0379674775,
				"y": 1.1729053544,
				"z": -4.4640434606,
				"element": "H" 
			},
			{
				"x": 1.0574974947,
				"y": 1.7615970202,
				"z": -2.3775347132,
				"element": "H" 
			},
			{
				"x": -0.5404666936,
				"y": 2.2607344652,
				"z": -1.8231224926,
				"element": "H" 
			}
		],
		 "valence_orbital": [ 
			{
				"type": "occ",
				"energy": -0.30365,
				"method": "rhf"
			},
			{
				"type": "occ",
				"energy": -0.27812,
				"method": "rhf"
			},
			{
				"type": "occ",
				"energy": -0.27572,
				"method": "rhf"
			},
			{
				"type": "occ",
				"energy": -0.24365,
				"method": "rhf"
			},
			{
				"type": "occ",
				"energy": -0.23813,
				"method": "rhf"
			},
			{
				"type": "unocc",
				"energy": -0.00826,
				"method": "rhf"
			},
			{
				"type": "unocc",
				"energy": 0.00339,
				"method": "rhf"
			},
			{
				"type": "unocc",
				"energy": 0.02244,
				"method": "rhf"
			},
			{
				"type": "unocc",
				"energy": 0.0663,
				"method": "rhf"
			},
			{
				"type": "unocc",
				"energy": 0.08132,
				"method": "rhf"
			}
		],
		"cosmo_sigma_profile": { 
			"-0.025": 0.0,
			"-0.024": 0.0,
			"-0.023": 0.0,
			"-0.022": 0.0,
			"-0.021": 0.0,
			"-0.02": 0.0,
			"-0.019": 0.0,
			"-0.018": 0.0,
			"-0.017": 0.0,
			"-0.016": 0.0,
			"-0.015": 0.0,
			"-0.014": 0.284811562313,
			"-0.013": 0.821394509065,
			"-0.012": 0.933370763313,
			"-0.011": 0.749556834635,
			"-0.01": 1.32240009334,
			"-0.009": 5.471102579,
			"-0.008": 5.64577425403,
			"-0.007": 7.74348329663,
			"-0.006": 10.1853216132,
			"-0.005": 10.4540331831,
			"-0.004": 12.1748117377,
			"-0.003": 19.6637248664,
			"-0.002": 25.7560907859,
			"-0.001": 28.8416354125,
			"0.0": 24.8696720315,
			"0.001": 23.0514178432,
			"0.002": 13.1075896149,
			"0.003": 11.1738432052,
			"0.004": 12.6229039194,
			"0.005": 15.3816991888,
			"0.006": 7.33686862275,
			"0.007": 4.01727118077,
			"0.008": 4.28046704116,
			"0.009": 2.9591829679,
			"0.01": 2.6342516818,
			"0.011": 3.38679807432,
			"0.012": 4.17811992916,
			"0.013": 1.9145367064,
			"0.014": 0.41976270695,
			"0.015": 0.593081272324,
			"0.016": 0.0139724464075,
			"0.017": 0.0,
			"0.018": 0.0,
			"0.019": 0.0,
			"0.02": 0.0,
			"0.021": 0.0,
			"0.022": 0.0,
			"0.023": 0.0,
			"0.024": 0.0,
			"0.025": 0.0
		}
	}
}
