{
	 "smiles": "CC1=CC=CC2=C1SC1=C(C)C=CC=C21", 
	 "Tm": 423.15, 
	 "num_atms": 27, 
	 "gaussian": { 
		 "optdone": 1, 
		 "sigma_profile": "yes", 
		 "theory": "DFT", 
		 "functional": "B3LYP", 
		 "basiset": "6-31G**", 
		 "properties": { 
			 "R2extent": 3659.3375, 
			 "electric_dipole_moment_norm": 0.146577760933, 
			 "electric_quadrupole_moment_norm": 10.1892698301, 
			 "total_energy": -938.948990991, 
			 "HOMO_LUMO_gap": 0.17969, 
			 "cosmo_polarized_energy": -5.58, 
			 "cosmo_cavitation_energy": 31.04, 
			 "cosmo_dispersion_energy": -23.29, 
			 "cosmo_repulsion_energy": 1.73, 
			 "cosmo_total_nonelectrostatic_energy": 9.48, 
			 "SMD_solvation_energy": 4.5 
		},
		"coords": [
			{
				"x": 0.4474844856,
				"y": -0.9013643036,
				"z": 3.0092882866,
				"element": "C" 
			},
			{
				"x": -0.5567527738,
				"y": -0.8118922909,
				"z": 1.8889303783,
				"element": "C" 
			},
			{
				"x": -1.8386737833,
				"y": -1.3555182108,
				"z": 1.9994935543,
				"element": "C" 
			},
			{
				"x": -2.7700573081,
				"y": -1.2695693395,
				"z": 0.9536840364,
				"element": "C" 
			},
			{
				"x": -2.4416915527,
				"y": -0.6338892096,
				"z": -0.2370675292,
				"element": "C" 
			},
			{
				"x": -1.1636337468,
				"y": -0.0743698061,
				"z": -0.3883058651,
				"element": "C" 
			},
			{
				"x": -0.2439043293,
				"y": -0.1737504797,
				"z": 0.6783192755,
				"element": "C" 
			},
			{
				"x": 1.3066280121,
				"y": 0.5889116875,
				"z": 0.2988275707,
				"element": "S" 
			},
			{
				"x": 0.7233392768,
				"y": 1.0488880685,
				"z": -1.3067803459,
				"element": "C" 
			},
			{
				"x": 1.4690069407,
				"y": 1.7485768036,
				"z": -2.2685974686,
				"element": "C" 
			},
			{
				"x": 2.8868892009,
				"y": 2.1817115518,
				"z": -1.9971155571,
				"element": "C" 
			},
			{
				"x": 0.8320654622,
				"y": 2.0200820651,
				"z": -3.4817206605,
				"element": "C" 
			},
			{
				"x": -0.4880469306,
				"y": 1.6146400994,
				"z": -3.7297128503,
				"element": "C" 
			},
			{
				"x": -1.2098544105,
				"y": 0.9229819001,
				"z": -2.7651385894,
				"element": "C" 
			},
			{
				"x": -0.606066858,
				"y": 0.6303707822,
				"z": -1.5325909978,
				"element": "C" 
			},
			{
				"x": 0.032479397,
				"y": -1.430137447,
				"z": 3.8710701558,
				"element": "H" 
			},
			{
				"x": 0.7617056236,
				"y": 0.0950260137,
				"z": 3.3434456597,
				"element": "H" 
			},
			{
				"x": 1.3532243201,
				"y": -1.4321181772,
				"z": 2.6912878172,
				"element": "H" 
			},
			{
				"x": -2.1161996449,
				"y": -1.8572914346,
				"z": 2.9228904278,
				"element": "H" 
			},
			{
				"x": -3.7566868563,
				"y": -1.7054679693,
				"z": 1.079755737,
				"element": "H" 
			},
			{
				"x": -3.1657223361,
				"y": -0.5696148486,
				"z": -1.0440359774,
				"element": "H" 
			},
			{
				"x": 3.5319126894,
				"y": 1.3213813947,
				"z": -1.7803889005,
				"element": "H" 
			},
			{
				"x": 2.9405027875,
				"y": 2.8483346022,
				"z": -1.1276741217,
				"element": "H" 
			},
			{
				"x": 3.3094706371,
				"y": 2.711830309,
				"z": -2.8543759079,
				"element": "H" 
			},
			{
				"x": 1.3789467979,
				"y": 2.5602156557,
				"z": -4.2502478306,
				"element": "H" 
			},
			{
				"x": -0.9470732237,
				"y": 1.8455201304,
				"z": -4.6864407994,
				"element": "H" 
			},
			{
				"x": -2.2314918767,
				"y": 0.611012453,
				"z": -2.9612994978,
				"element": "H" 
			}
		],
		 "valence_orbital": [ 
			{
				"type": "occ",
				"energy": -0.30905,
				"method": "rhf"
			},
			{
				"type": "occ",
				"energy": -0.27329,
				"method": "rhf"
			},
			{
				"type": "occ",
				"energy": -0.24812,
				"method": "rhf"
			},
			{
				"type": "occ",
				"energy": -0.2186,
				"method": "rhf"
			},
			{
				"type": "occ",
				"energy": -0.20941,
				"method": "rhf"
			},
			{
				"type": "unocc",
				"energy": -0.02972,
				"method": "rhf"
			},
			{
				"type": "unocc",
				"energy": -0.00201,
				"method": "rhf"
			},
			{
				"type": "unocc",
				"energy": 0.0029,
				"method": "rhf"
			},
			{
				"type": "unocc",
				"energy": 0.0264,
				"method": "rhf"
			},
			{
				"type": "unocc",
				"energy": 0.04175,
				"method": "rhf"
			}
		],
		"cosmo_sigma_profile": { 
			"-0.025": 0.0,
			"-0.024": 0.0,
			"-0.023": 0.0,
			"-0.022": 0.0,
			"-0.021": 0.0,
			"-0.02": 0.0,
			"-0.019": 0.0,
			"-0.018": 0.0,
			"-0.017": 0.0,
			"-0.016": 0.0,
			"-0.015": 0.0,
			"-0.014": 0.0,
			"-0.013": 0.0,
			"-0.012": 0.0,
			"-0.011": 0.0,
			"-0.01": 0.0,
			"-0.009": 0.0,
			"-0.008": 0.0209564196815,
			"-0.007": 1.6577736968,
			"-0.006": 7.05118995288,
			"-0.005": 17.2607386285,
			"-0.004": 23.6308780985,
			"-0.003": 22.5592523911,
			"-0.002": 23.1636921385,
			"-0.001": 24.7471451311,
			"0.0": 20.8464687418,
			"0.001": 16.0038203807,
			"0.002": 17.1523495068,
			"0.003": 22.5363274051,
			"0.004": 22.6761203528,
			"0.005": 21.5638996374,
			"0.006": 8.21431918533,
			"0.007": 0.483461149073,
			"0.008": 0.0,
			"0.009": 0.0,
			"0.01": 0.0,
			"0.011": 0.0,
			"0.012": 0.0,
			"0.013": 0.0,
			"0.014": 0.0,
			"0.015": 0.0,
			"0.016": 0.0,
			"0.017": 0.0,
			"0.018": 0.0,
			"0.019": 0.0,
			"0.02": 0.0,
			"0.021": 0.0,
			"0.022": 0.0,
			"0.023": 0.0,
			"0.024": 0.0,
			"0.025": 0.0
		}
	}
}
