{
	 "smiles": "CCC(=O)C1=CC=C(C=C1)C(F)(F)F", 
	 "Tm": 309.65, 
	 "num_atms": 23, 
	 "gaussian": { 
		 "optdone": 1, 
		 "sigma_profile": "yes", 
		 "theory": "DFT", 
		 "functional": "B3LYP", 
		 "basiset": "6-31G**", 
		 "properties": { 
			 "R2extent": 3890.9741, 
			 "electric_dipole_moment_norm": 2.49189573016, 
			 "electric_quadrupole_moment_norm": 13.8851641748, 
			 "total_energy": -761.246047591, 
			 "HOMO_LUMO_gap": 0.18214, 
			 "cosmo_polarized_energy": -7.65, 
			 "cosmo_cavitation_energy": 28.51, 
			 "cosmo_dispersion_energy": -20.04, 
			 "cosmo_repulsion_energy": 1.52, 
			 "cosmo_total_nonelectrostatic_energy": 9.98, 
			 "SMD_solvation_energy": 6.63 
		},
		"coords": [
			{
				"x": -2.6265561049,
				"y": 2.488333627,
				"z": 1.8834830422,
				"element": "C" 
			},
			{
				"x": -2.03902725,
				"y": 3.1802142432,
				"z": 0.637512153,
				"element": "C" 
			},
			{
				"x": -0.5347386802,
				"y": 2.9660608765,
				"z": 0.5314872224,
				"element": "C" 
			},
			{
				"x": 0.2382990296,
				"y": 3.8159126388,
				"z": 0.947638442,
				"element": "O" 
			},
			{
				"x": 0.0006093104,
				"y": 1.6852415968,
				"z": -0.051635275,
				"element": "C" 
			},
			{
				"x": 1.3930466257,
				"y": 1.5048558184,
				"z": -0.0641367781,
				"element": "C" 
			},
			{
				"x": 1.9534863585,
				"y": 0.3469845622,
				"z": -0.5886787198,
				"element": "C" 
			},
			{
				"x": 1.1230316692,
				"y": -0.6523663277,
				"z": -1.1089085058,
				"element": "C" 
			},
			{
				"x": -0.2633587883,
				"y": -0.4882831244,
				"z": -1.1015515833,
				"element": "C" 
			},
			{
				"x": -0.8204246764,
				"y": 0.6758759525,
				"z": -0.5749866227,
				"element": "C" 
			},
			{
				"x": 1.7332301945,
				"y": -1.8824287274,
				"z": -1.7287445451,
				"element": "C" 
			},
			{
				"x": 0.8939993143,
				"y": -2.9398741807,
				"z": -1.6818361607,
				"element": "F" 
			},
			{
				"x": 2.8771925392,
				"y": -2.2408802503,
				"z": -1.1066105114,
				"element": "F" 
			},
			{
				"x": 2.0399896538,
				"y": -1.6782546685,
				"z": -3.0303299797,
				"element": "F" 
			},
			{
				"x": -2.4918856857,
				"y": 1.4029157917,
				"z": 1.8485086059,
				"element": "H" 
			},
			{
				"x": -2.1414452869,
				"y": 2.8588264246,
				"z": 2.7912559173,
				"element": "H" 
			},
			{
				"x": -3.6980332683,
				"y": 2.6936461182,
				"z": 1.9632389688,
				"element": "H" 
			},
			{
				"x": -2.1916504031,
				"y": 4.2601505594,
				"z": 0.7089239989,
				"element": "H" 
			},
			{
				"x": -2.5495593159,
				"y": 2.8285836733,
				"z": -0.2656483518,
				"element": "H" 
			},
			{
				"x": 2.0139136116,
				"y": 2.2930999533,
				"z": 0.3474176993,
				"element": "H" 
			},
			{
				"x": 3.0293791416,
				"y": 0.2085021512,
				"z": -0.589735275,
				"element": "H" 
			},
			{
				"x": -0.9013138601,
				"y": -1.2698163089,
				"z": -1.4991577889,
				"element": "H" 
			},
			{
				"x": -1.8991841286,
				"y": 0.7869996008,
				"z": -0.5750059526,
				"element": "H" 
			}
		],
		 "valence_orbital": [ 
			{
				"type": "occ",
				"energy": -0.35929,
				"method": "rhf"
			},
			{
				"type": "occ",
				"energy": -0.35523,
				"method": "rhf"
			},
			{
				"type": "occ",
				"energy": -0.27798,
				"method": "rhf"
			},
			{
				"type": "occ",
				"energy": -0.27482,
				"method": "rhf"
			},
			{
				"type": "occ",
				"energy": -0.25538,
				"method": "rhf"
			},
			{
				"type": "unocc",
				"energy": -0.07324,
				"method": "rhf"
			},
			{
				"type": "unocc",
				"energy": -0.02608,
				"method": "rhf"
			},
			{
				"type": "unocc",
				"energy": 0.01709,
				"method": "rhf"
			},
			{
				"type": "unocc",
				"energy": 0.0782,
				"method": "rhf"
			},
			{
				"type": "unocc",
				"energy": 0.10885,
				"method": "rhf"
			}
		],
		"cosmo_sigma_profile": { 
			"-0.025": 0.0,
			"-0.024": 0.0,
			"-0.023": 0.0,
			"-0.022": 0.0,
			"-0.021": 0.0,
			"-0.02": 0.0,
			"-0.019": 0.0,
			"-0.018": 0.0,
			"-0.017": 0.0,
			"-0.016": 0.0,
			"-0.015": 0.0,
			"-0.014": 0.0,
			"-0.013": 0.0,
			"-0.012": 0.0,
			"-0.011": 0.0,
			"-0.01": 0.0,
			"-0.009": 0.0,
			"-0.008": 2.05217025044,
			"-0.007": 6.03398957133,
			"-0.006": 9.29908795911,
			"-0.005": 10.2357978854,
			"-0.004": 15.7253760999,
			"-0.003": 17.4439104037,
			"-0.002": 22.3708189937,
			"-0.001": 20.8913138938,
			"0.0": 20.9262433224,
			"0.001": 22.2248959764,
			"0.002": 32.9497282577,
			"0.003": 27.1300958799,
			"0.004": 2.56638615143,
			"0.005": 1.74134893104,
			"0.006": 1.27659061467,
			"0.007": 1.44081026814,
			"0.008": 1.6895821893,
			"0.009": 1.80842929699,
			"0.01": 1.73568124973,
			"0.011": 3.76407760177,
			"0.012": 3.08249709695,
			"0.013": 0.978244901623,
			"0.014": 0.0267459816828,
			"0.015": 0.0,
			"0.016": 0.0,
			"0.017": 0.0,
			"0.018": 0.0,
			"0.019": 0.0,
			"0.02": 0.0,
			"0.021": 0.0,
			"0.022": 0.0,
			"0.023": 0.0,
			"0.024": 0.0,
			"0.025": 0.0
		}
	}
}
