{
	 "smiles": "CN1CC2=C(NC1=O)C=CC(Br)=C2", 
	 "Tm": 483.15, 
	 "num_atms": 22, 
	 "gaussian": { 
		 "optdone": 1, 
		 "sigma_profile": "yes", 
		 "theory": "DFT", 
		 "functional": "B3LYP", 
		 "basiset": "6-31G**", 
		 "properties": { 
			 "R2extent": 4577.1335, 
			 "electric_dipole_moment_norm": 1.21337750927, 
			 "electric_quadrupole_moment_norm": 18.2271686309, 
			 "total_energy": -3104.5437998, 
			 "HOMO_LUMO_gap": 0.19446, 
			 "cosmo_polarized_energy": -12.38, 
			 "cosmo_cavitation_energy": 27.73, 
			 "cosmo_dispersion_energy": -21.18, 
			 "cosmo_repulsion_energy": 1.66, 
			 "cosmo_total_nonelectrostatic_energy": 8.21, 
			 "SMD_solvation_energy": 3.4 
		},
		"coords": [
			{
				"x": 0.8585810866,
				"y": 2.9362189322,
				"z": -2.1530634146,
				"element": "C" 
			},
			{
				"x": 1.0044733663,
				"y": 1.7680787958,
				"z": -1.2983766262,
				"element": "N" 
			},
			{
				"x": 0.0473222923,
				"y": 0.6833720639,
				"z": -1.5133480987,
				"element": "C" 
			},
			{
				"x": 0.0627292355,
				"y": -0.3050431144,
				"z": -0.3743355304,
				"element": "C" 
			},
			{
				"x": 1.2621267252,
				"y": -0.4662010969,
				"z": 0.3353930366,
				"element": "C" 
			},
			{
				"x": 2.3436552363,
				"y": 0.3398736633,
				"z": -0.0185040117,
				"element": "N" 
			},
			{
				"x": 2.233056367,
				"y": 1.5457828294,
				"z": -0.7154174102,
				"element": "C" 
			},
			{
				"x": 3.1739496814,
				"y": 2.3287505258,
				"z": -0.7571394726,
				"element": "O" 
			},
			{
				"x": 1.34877988,
				"y": -1.4172120763,
				"z": 1.3589900579,
				"element": "C" 
			},
			{
				"x": 0.2450610729,
				"y": -2.2061524878,
				"z": 1.6760353593,
				"element": "C" 
			},
			{
				"x": -0.9468815542,
				"y": -2.0315597702,
				"z": 0.9752834373,
				"element": "C" 
			},
			{
				"x": -2.4689482537,
				"y": -3.1011832829,
				"z": 1.4144824904,
				"element": "Br" 
			},
			{
				"x": -1.0436812183,
				"y": -1.0841200332,
				"z": -0.0430553674,
				"element": "C" 
			},
			{
				"x": -0.1224886719,
				"y": 3.3948271724,
				"z": -1.9886708004,
				"element": "H" 
			},
			{
				"x": 1.6445399444,
				"y": 3.6467679178,
				"z": -1.903211964,
				"element": "H" 
			},
			{
				"x": 0.9456995852,
				"y": 2.6711137964,
				"z": -3.2166331295,
				"element": "H" 
			},
			{
				"x": -0.9496261037,
				"y": 1.1275375871,
				"z": -1.6130042354,
				"element": "H" 
			},
			{
				"x": 0.2580116031,
				"y": 0.1694919536,
				"z": -2.469258695,
				"element": "H" 
			},
			{
				"x": 3.2067873323,
				"y": 0.2692034453,
				"z": 0.5013515472,
				"element": "H" 
			},
			{
				"x": 2.2772737765,
				"y": -1.5384400607,
				"z": 1.9100255123,
				"element": "H" 
			},
			{
				"x": 0.3103862036,
				"y": -2.9434889536,
				"z": 2.4677432563,
				"element": "H" 
			},
			{
				"x": -1.977607587,
				"y": -0.9596178069,
				"z": -0.5813859412,
				"element": "H" 
			}
		],
		 "valence_orbital": [ 
			{
				"type": "occ",
				"energy": -0.28595,
				"method": "rhf"
			},
			{
				"type": "occ",
				"energy": -0.26908,
				"method": "rhf"
			},
			{
				"type": "occ",
				"energy": -0.26739,
				"method": "rhf"
			},
			{
				"type": "occ",
				"energy": -0.24557,
				"method": "rhf"
			},
			{
				"type": "occ",
				"energy": -0.21801,
				"method": "rhf"
			},
			{
				"type": "unocc",
				"energy": -0.02355,
				"method": "rhf"
			},
			{
				"type": "unocc",
				"energy": -0.01515,
				"method": "rhf"
			},
			{
				"type": "unocc",
				"energy": 0.00472,
				"method": "rhf"
			},
			{
				"type": "unocc",
				"energy": 0.05462,
				"method": "rhf"
			},
			{
				"type": "unocc",
				"energy": 0.08647,
				"method": "rhf"
			}
		],
		"cosmo_sigma_profile": { 
			"-0.025": 0.0,
			"-0.024": 0.0,
			"-0.023": 0.0,
			"-0.022": 0.0,
			"-0.021": 0.0,
			"-0.02": 0.0,
			"-0.019": 0.0,
			"-0.018": 0.0,
			"-0.017": 0.0,
			"-0.016": 0.0,
			"-0.015": 0.314869203203,
			"-0.014": 1.41035917186,
			"-0.013": 1.16100795793,
			"-0.012": 1.19292922727,
			"-0.011": 0.645879149516,
			"-0.01": 1.4495128887,
			"-0.009": 1.07050476036,
			"-0.008": 2.41840853346,
			"-0.007": 8.12851269386,
			"-0.006": 9.82085477725,
			"-0.005": 14.6802081487,
			"-0.004": 19.6951613151,
			"-0.003": 16.4465216196,
			"-0.002": 15.4348811303,
			"-0.001": 14.7673137282,
			"0.0": 11.2046689998,
			"0.001": 14.861649514,
			"0.002": 18.0135350915,
			"0.003": 22.9339739394,
			"0.004": 18.3811555961,
			"0.005": 10.8997465896,
			"0.006": 1.48488394436,
			"0.007": 0.932700763391,
			"0.008": 2.19994735246,
			"0.009": 1.2368635211,
			"0.01": 0.7834198353,
			"0.011": 1.32416079326,
			"0.012": 1.92801122945,
			"0.013": 3.08128392033,
			"0.014": 5.63854079529,
			"0.015": 0.520693906373,
			"0.016": 0.0,
			"0.017": 0.0,
			"0.018": 0.0,
			"0.019": 0.0,
			"0.02": 0.0,
			"0.021": 0.0,
			"0.022": 0.0,
			"0.023": 0.0,
			"0.024": 0.0,
			"0.025": 0.0
		}
	}
}
