{
	 "smiles": "OC(=O)C1=C(CN2C=NC=N2)C=CC=C1", 
	 "Tm": 479.15, 
	 "num_atms": 24, 
	 "gaussian": { 
		 "optdone": 1, 
		 "sigma_profile": "yes", 
		 "theory": "DFT", 
		 "functional": "B3LYP", 
		 "basiset": "6-31G**", 
		 "properties": { 
			 "R2extent": 3249.8546, 
			 "electric_dipole_moment_norm": 2.46380968421, 
			 "electric_quadrupole_moment_norm": 16.9518881892, 
			 "total_energy": -701.186717912, 
			 "HOMO_LUMO_gap": 0.19747, 
			 "cosmo_polarized_energy": -15.2, 
			 "cosmo_cavitation_energy": 28.68, 
			 "cosmo_dispersion_energy": -20.68, 
			 "cosmo_repulsion_energy": 1.59, 
			 "cosmo_total_nonelectrostatic_energy": 9.58, 
			 "SMD_solvation_energy": 4.02 
		},
		"coords": [
			{
				"x": 0.3197513362,
				"y": 0.6284183346,
				"z": 2.9445436182,
				"element": "O" 
			},
			{
				"x": 1.3007605532,
				"y": 1.2832714551,
				"z": 2.2621058929,
				"element": "C" 
			},
			{
				"x": 2.2134912197,
				"y": 1.8173982212,
				"z": 2.8586824362,
				"element": "O" 
			},
			{
				"x": 1.1765544603,
				"y": 1.2530495014,
				"z": 0.7729998907,
				"element": "C" 
			},
			{
				"x": 0.0306228058,
				"y": 0.8932644836,
				"z": 0.0265282723,
				"element": "C" 
			},
			{
				"x": -1.3188473062,
				"y": 0.5055867489,
				"z": 0.6173747403,
				"element": "C" 
			},
			{
				"x": -1.5588241195,
				"y": -0.936464749,
				"z": 0.5799655794,
				"element": "N" 
			},
			{
				"x": -1.2739748762,
				"y": -1.8897837885,
				"z": 1.4967231013,
				"element": "C" 
			},
			{
				"x": -1.6002132809,
				"y": -3.0869978835,
				"z": 1.0364929954,
				"element": "N" 
			},
			{
				"x": -2.0846107471,
				"y": -2.8015818226,
				"z": -0.2040870079,
				"element": "C" 
			},
			{
				"x": -2.0805547421,
				"y": -1.5170333415,
				"z": -0.5335400102,
				"element": "N" 
			},
			{
				"x": 0.1171666539,
				"y": 0.9062512745,
				"z": -1.3725183873,
				"element": "C" 
			},
			{
				"x": 1.2913617891,
				"y": 1.2633330472,
				"z": -2.0303514367,
				"element": "C" 
			},
			{
				"x": 2.4146307346,
				"y": 1.6373560509,
				"z": -1.2908344934,
				"element": "C" 
			},
			{
				"x": 2.3495891391,
				"y": 1.6349666935,
				"z": 0.0964527792,
				"element": "C" 
			},
			{
				"x": 0.5510314604,
				"y": 0.7344627536,
				"z": 3.8832520832,
				"element": "H" 
			},
			{
				"x": -1.4261731024,
				"y": 0.8375594148,
				"z": 1.6459602866,
				"element": "H" 
			},
			{
				"x": -2.1144630136,
				"y": 0.955334985,
				"z": 0.0200897305,
				"element": "H" 
			},
			{
				"x": -0.8369178804,
				"y": -1.6600724474,
				"z": 2.4571830658,
				"element": "H" 
			},
			{
				"x": -2.4582244883,
				"y": -3.557495832,
				"z": -0.8812991659,
				"element": "H" 
			},
			{
				"x": -0.7578203289,
				"y": 0.6154926233,
				"z": -1.9460495276,
				"element": "H" 
			},
			{
				"x": 1.325239756,
				"y": 1.2570495635,
				"z": -3.1158629639,
				"element": "H" 
			},
			{
				"x": 3.3330006871,
				"y": 1.9285430368,
				"z": -1.7911714232,
				"element": "H" 
			},
			{
				"x": 3.2062232902,
				"y": 1.9238916767,
				"z": 0.6946599441,
				"element": "H" 
			}
		],
		 "valence_orbital": [ 
			{
				"type": "occ",
				"energy": -0.28612,
				"method": "rhf"
			},
			{
				"type": "occ",
				"energy": -0.2743,
				"method": "rhf"
			},
			{
				"type": "occ",
				"energy": -0.27198,
				"method": "rhf"
			},
			{
				"type": "occ",
				"energy": -0.26541,
				"method": "rhf"
			},
			{
				"type": "occ",
				"energy": -0.2593,
				"method": "rhf"
			},
			{
				"type": "unocc",
				"energy": -0.06183,
				"method": "rhf"
			},
			{
				"type": "unocc",
				"energy": -0.02558,
				"method": "rhf"
			},
			{
				"type": "unocc",
				"energy": 0.01149,
				"method": "rhf"
			},
			{
				"type": "unocc",
				"energy": 0.03918,
				"method": "rhf"
			},
			{
				"type": "unocc",
				"energy": 0.05776,
				"method": "rhf"
			}
		],
		"cosmo_sigma_profile": { 
			"-0.025": 0.0,
			"-0.024": 0.0,
			"-0.023": 0.0,
			"-0.022": 0.0,
			"-0.021": 0.0,
			"-0.02": 0.0,
			"-0.019": 0.224807779835,
			"-0.018": 1.03015541479,
			"-0.017": 0.839767070394,
			"-0.016": 0.494776480163,
			"-0.015": 0.877909597996,
			"-0.014": 0.336682232692,
			"-0.013": 0.69636629267,
			"-0.012": 0.700029573561,
			"-0.011": 1.05997188732,
			"-0.01": 0.560417324825,
			"-0.009": 1.10455280593,
			"-0.008": 3.7490935101,
			"-0.007": 8.52078357234,
			"-0.006": 13.7279753321,
			"-0.005": 19.1745107141,
			"-0.004": 16.3078960114,
			"-0.003": 14.8454649239,
			"-0.002": 15.0340590528,
			"-0.001": 15.2523229603,
			"0.0": 15.5939838184,
			"0.001": 15.4061532917,
			"0.002": 16.0978859957,
			"0.003": 18.1732718016,
			"0.004": 7.90577674532,
			"0.005": 5.03283012939,
			"0.006": 4.08201540829,
			"0.007": 5.60640573188,
			"0.008": 4.11015086002,
			"0.009": 2.62301292982,
			"0.01": 4.83281040432,
			"0.011": 6.48744998476,
			"0.012": 3.82491428718,
			"0.013": 2.52516605394,
			"0.014": 0.901653845874,
			"0.015": 1.21965844179,
			"0.016": 1.12677809542,
			"0.017": 0.418714132387,
			"0.018": 0.0,
			"0.019": 0.0,
			"0.02": 0.0,
			"0.021": 0.0,
			"0.022": 0.0,
			"0.023": 0.0,
			"0.024": 0.0,
			"0.025": 0.0
		}
	}
}
