{
	 "smiles": "CCCCCC(=O)OC(=O)CCCCC", 
	 "Tm": 232.65, 
	 "num_atms": 37, 
	 "gaussian": { 
		 "optdone": 1, 
		 "sigma_profile": "yes", 
		 "theory": "DFT", 
		 "functional": "B3LYP", 
		 "basiset": "6-31G**", 
		 "properties": { 
			 "R2extent": 5484.1452, 
			 "electric_dipole_moment_norm": 3.31103644347, 
			 "electric_quadrupole_moment_norm": 13.0891827889, 
			 "total_energy": -696.253512613, 
			 "HOMO_LUMO_gap": 0.2455, 
			 "cosmo_polarized_energy": -10.32, 
			 "cosmo_cavitation_energy": 39.24, 
			 "cosmo_dispersion_energy": -25.58, 
			 "cosmo_repulsion_energy": 2.09, 
			 "cosmo_total_nonelectrostatic_energy": 15.76, 
			 "SMD_solvation_energy": 7.42 
		},
		"coords": [
			{
				"x": -3.9810305307,
				"y": 1.9022707413,
				"z": -2.7155919798,
				"element": "C" 
			},
			{
				"x": -2.5239111643,
				"y": 2.0124616619,
				"z": -2.2507757086,
				"element": "C" 
			},
			{
				"x": -1.4865327497,
				"y": 1.5449681412,
				"z": -3.2869515258,
				"element": "C" 
			},
			{
				"x": -1.552331494,
				"y": 0.0586147692,
				"z": -3.6826356318,
				"element": "C" 
			},
			{
				"x": -1.2536617599,
				"y": -0.9254216252,
				"z": -2.5450980191,
				"element": "C" 
			},
			{
				"x": 0.1893633476,
				"y": -0.9132379559,
				"z": -2.0954670587,
				"element": "C" 
			},
			{
				"x": 1.1171073449,
				"y": -0.3941082759,
				"z": -2.6569363727,
				"element": "O" 
			},
			{
				"x": 0.3210363443,
				"y": -1.5748243488,
				"z": -0.8789969493,
				"element": "O" 
			},
			{
				"x": 1.5307191971,
				"y": -2.2012304308,
				"z": -0.5466949641,
				"element": "C" 
			},
			{
				"x": 2.2021163539,
				"y": -2.7701032554,
				"z": -1.3612511289,
				"element": "O" 
			},
			{
				"x": 1.79519735,
				"y": -2.0862020719,
				"z": 0.9346789794,
				"element": "C" 
			},
			{
				"x": 2.0019011392,
				"y": -0.624401528,
				"z": 1.3844109741,
				"element": "C" 
			},
			{
				"x": 3.1767752312,
				"y": 0.0678592242,
				"z": 0.6778678222,
				"element": "C" 
			},
			{
				"x": 3.4530774877,
				"y": 1.4968489569,
				"z": 1.1731170538,
				"element": "C" 
			},
			{
				"x": 2.3358641657,
				"y": 2.5011788297,
				"z": 0.8642598745,
				"element": "C" 
			},
			{
				"x": -4.1402097241,
				"y": 2.4581545327,
				"z": -3.6469464046,
				"element": "H" 
			},
			{
				"x": -4.277837047,
				"y": 0.863856497,
				"z": -2.8978349276,
				"element": "H" 
			},
			{
				"x": -4.6663106467,
				"y": 2.3095425584,
				"z": -1.9649896345,
				"element": "H" 
			},
			{
				"x": -2.3080174427,
				"y": 3.059157432,
				"z": -2.0020657488,
				"element": "H" 
			},
			{
				"x": -2.3974934997,
				"y": 1.4571323959,
				"z": -1.311515444,
				"element": "H" 
			},
			{
				"x": -1.6091962738,
				"y": 2.144313769,
				"z": -4.1989235638,
				"element": "H" 
			},
			{
				"x": -0.4789025394,
				"y": 1.7639763163,
				"z": -2.9153759942,
				"element": "H" 
			},
			{
				"x": -2.5422696866,
				"y": -0.1788034659,
				"z": -4.0885077533,
				"element": "H" 
			},
			{
				"x": -0.8339086299,
				"y": -0.1211071631,
				"z": -4.4892468831,
				"element": "H" 
			},
			{
				"x": -1.8879261815,
				"y": -0.7593991546,
				"z": -1.6676348989,
				"element": "H" 
			},
			{
				"x": -1.4620989805,
				"y": -1.9568340683,
				"z": -2.8616411363,
				"element": "H" 
			},
			{
				"x": 2.6778505562,
				"y": -2.6941435402,
				"z": 1.1496458984,
				"element": "H" 
			},
			{
				"x": 0.9406558854,
				"y": -2.517519946,
				"z": 1.4697703311,
				"element": "H" 
			},
			{
				"x": 1.0725130486,
				"y": -0.0713802161,
				"z": 1.2122524359,
				"element": "H" 
			},
			{
				"x": 2.1701154524,
				"y": -0.6245528654,
				"z": 2.4688385255,
				"element": "H" 
			},
			{
				"x": 4.0804962728,
				"y": -0.5401793223,
				"z": 0.81840744,
				"element": "H" 
			},
			{
				"x": 2.9909947557,
				"y": 0.0918169592,
				"z": -0.4046115917,
				"element": "H" 
			},
			{
				"x": 3.6404435176,
				"y": 1.4766269698,
				"z": 2.2558484061,
				"element": "H" 
			},
			{
				"x": 4.384169125,
				"y": 1.84854999,
				"z": 0.7117247145,
				"element": "H" 
			},
			{
				"x": 2.1260196369,
				"y": 2.5360293313,
				"z": -0.210964502,
				"element": "H" 
			},
			{
				"x": 2.616300013,
				"y": 3.5108454022,
				"z": 1.1817654545,
				"element": "H" 
			},
			{
				"x": 1.401722125,
				"y": 2.2468447556,
				"z": 1.3761699116,
				"element": "H" 
			}
		],
		 "valence_orbital": [ 
			{
				"type": "occ",
				"energy": -0.32025,
				"method": "rhf"
			},
			{
				"type": "occ",
				"energy": -0.31847,
				"method": "rhf"
			},
			{
				"type": "occ",
				"energy": -0.3158,
				"method": "rhf"
			},
			{
				"type": "occ",
				"energy": -0.29132,
				"method": "rhf"
			},
			{
				"type": "occ",
				"energy": -0.27063,
				"method": "rhf"
			},
			{
				"type": "unocc",
				"energy": -0.02513,
				"method": "rhf"
			},
			{
				"type": "unocc",
				"energy": 0.01194,
				"method": "rhf"
			},
			{
				"type": "unocc",
				"energy": 0.07294,
				"method": "rhf"
			},
			{
				"type": "unocc",
				"energy": 0.0888,
				"method": "rhf"
			},
			{
				"type": "unocc",
				"energy": 0.10758,
				"method": "rhf"
			}
		],
		"cosmo_sigma_profile": { 
			"-0.025": 0.0,
			"-0.024": 0.0,
			"-0.023": 0.0,
			"-0.022": 0.0,
			"-0.021": 0.0,
			"-0.02": 0.0,
			"-0.019": 0.0,
			"-0.018": 0.0,
			"-0.017": 0.0,
			"-0.016": 0.0,
			"-0.015": 0.0,
			"-0.014": 0.0,
			"-0.013": 0.0,
			"-0.012": 0.0,
			"-0.011": 0.0,
			"-0.01": 0.0,
			"-0.009": 0.0,
			"-0.008": 0.1637434575,
			"-0.007": 3.32292068752,
			"-0.006": 6.20561209352,
			"-0.005": 10.0489672307,
			"-0.004": 12.823987858,
			"-0.003": 31.8109221157,
			"-0.002": 46.6773292312,
			"-0.001": 45.9973282091,
			"0.0": 50.1955755294,
			"0.001": 37.2259545828,
			"0.002": 15.5428089879,
			"0.003": 4.67955640032,
			"0.004": 4.74441216632,
			"0.005": 3.60469516108,
			"0.006": 3.22781003011,
			"0.007": 3.22144854917,
			"0.008": 3.25581454954,
			"0.009": 4.41018782696,
			"0.01": 8.95133099683,
			"0.011": 7.39246494945,
			"0.012": 0.335888618999,
			"0.013": 0.0,
			"0.014": 0.0,
			"0.015": 0.0,
			"0.016": 0.0,
			"0.017": 0.0,
			"0.018": 0.0,
			"0.019": 0.0,
			"0.02": 0.0,
			"0.021": 0.0,
			"0.022": 0.0,
			"0.023": 0.0,
			"0.024": 0.0,
			"0.025": 0.0
		}
	}
}
