{
	 "smiles": "CC(C)OC1=CC=C(C=C1)S(N)(=O)=O", 
	 "Tm": 395.15, 
	 "num_atms": 27, 
	 "gaussian": { 
		 "optdone": 1, 
		 "sigma_profile": "yes", 
		 "theory": "DFT", 
		 "functional": "B3LYP", 
		 "basiset": "6-31G**", 
		 "properties": { 
			 "R2extent": 5037.3396, 
			 "electric_dipole_moment_norm": 7.37068682417, 
			 "electric_quadrupole_moment_norm": 32.8548781331, 
			 "total_energy": -1029.32935407, 
			 "HOMO_LUMO_gap": 0.21835, 
			 "cosmo_polarized_energy": -19.81, 
			 "cosmo_cavitation_energy": 31.58, 
			 "cosmo_dispersion_energy": -23.03, 
			 "cosmo_repulsion_energy": 1.78, 
			 "cosmo_total_nonelectrostatic_energy": 10.33, 
			 "SMD_solvation_energy": 5.17 
		},
		"coords": [
			{
				"x": -2.4576543472,
				"y": -1.1398465769,
				"z": -0.3326703373,
				"element": "C" 
			},
			{
				"x": -2.2743320568,
				"y": -0.2079491629,
				"z": 0.8640884328,
				"element": "C" 
			},
			{
				"x": -2.5426044129,
				"y": 1.2561161877,
				"z": 0.5192419555,
				"element": "C" 
			},
			{
				"x": -0.9828854649,
				"y": -0.3911344387,
				"z": 1.5075853609,
				"element": "O" 
			},
			{
				"x": 0.1671179941,
				"y": -0.1075053685,
				"z": 0.8152830614,
				"element": "C" 
			},
			{
				"x": 0.7462657714,
				"y": 1.1661869847,
				"z": 0.9081136096,
				"element": "C" 
			},
			{
				"x": 1.9596644972,
				"y": 1.4324950512,
				"z": 0.2781921475,
				"element": "C" 
			},
			{
				"x": 2.5941995722,
				"y": 0.4196359228,
				"z": -0.4458940367,
				"element": "C" 
			},
			{
				"x": 2.0419309656,
				"y": -0.86177404,
				"z": -0.5225051167,
				"element": "C" 
			},
			{
				"x": 0.8282924157,
				"y": -1.1226601775,
				"z": 0.109148347,
				"element": "C" 
			},
			{
				"x": 4.1443986388,
				"y": 0.7677647323,
				"z": -1.2836656261,
				"element": "S" 
			},
			{
				"x": 3.7547373009,
				"y": 1.2937345183,
				"z": -2.835553676,
				"element": "N" 
			},
			{
				"x": 4.8399481055,
				"y": -0.5049198754,
				"z": -1.4676931685,
				"element": "O" 
			},
			{
				"x": 4.7511693854,
				"y": 1.9222402332,
				"z": -0.6230440032,
				"element": "O" 
			},
			{
				"x": -2.2714471125,
				"y": -2.1791308964,
				"z": -0.0474741493,
				"element": "H" 
			},
			{
				"x": -3.4843140685,
				"y": -1.0672213974,
				"z": -0.7058020359,
				"element": "H" 
			},
			{
				"x": -1.7832392794,
				"y": -0.8772526886,
				"z": -1.1537878235,
				"element": "H" 
			},
			{
				"x": -2.9636602459,
				"y": -0.5143484447,
				"z": 1.6573118837,
				"element": "H" 
			},
			{
				"x": -3.5709963078,
				"y": 1.3707435162,
				"z": 0.1617174262,
				"element": "H" 
			},
			{
				"x": -1.8721172259,
				"y": 1.6130850003,
				"z": -0.2688165838,
				"element": "H" 
			},
			{
				"x": -2.4151391176,
				"y": 1.8919125537,
				"z": 1.3999510093,
				"element": "H" 
			},
			{
				"x": 0.2503951787,
				"y": 1.9285690025,
				"z": 1.4987942186,
				"element": "H" 
			},
			{
				"x": 2.4304775325,
				"y": 2.4058217817,
				"z": 0.3678714203,
				"element": "H" 
			},
			{
				"x": 2.5757581015,
				"y": -1.6475171561,
				"z": -1.0466325178,
				"element": "H" 
			},
			{
				"x": 0.3949423814,
				"y": -2.1165186606,
				"z": 0.0866538913,
				"element": "H" 
			},
			{
				"x": 3.3043406714,
				"y": 0.573997293,
				"z": -3.3919490487,
				"element": "H" 
			},
			{
				"x": 3.2456511271,
				"y": 2.1719761059,
				"z": -2.8353646405,
				"element": "H" 
			}
		],
		 "valence_orbital": [ 
			{
				"type": "occ",
				"energy": -0.30207,
				"method": "rhf"
			},
			{
				"type": "occ",
				"energy": -0.30079,
				"method": "rhf"
			},
			{
				"type": "occ",
				"energy": -0.2825,
				"method": "rhf"
			},
			{
				"type": "occ",
				"energy": -0.27392,
				"method": "rhf"
			},
			{
				"type": "occ",
				"energy": -0.25504,
				"method": "rhf"
			},
			{
				"type": "unocc",
				"energy": -0.03669,
				"method": "rhf"
			},
			{
				"type": "unocc",
				"energy": -0.02524,
				"method": "rhf"
			},
			{
				"type": "unocc",
				"energy": 0.05146,
				"method": "rhf"
			},
			{
				"type": "unocc",
				"energy": 0.07141,
				"method": "rhf"
			},
			{
				"type": "unocc",
				"energy": 0.08383,
				"method": "rhf"
			}
		],
		"cosmo_sigma_profile": { 
			"-0.025": 0.0,
			"-0.024": 0.0,
			"-0.023": 0.0,
			"-0.022": 0.0,
			"-0.021": 0.0,
			"-0.02": 0.0,
			"-0.019": 0.0,
			"-0.018": 0.0,
			"-0.017": 0.0,
			"-0.016": 0.0290140396188,
			"-0.015": 1.82598712902,
			"-0.014": 2.81669758593,
			"-0.013": 2.88496199857,
			"-0.012": 2.98400535487,
			"-0.011": 2.51421811035,
			"-0.01": 2.22988247739,
			"-0.009": 1.9497299287,
			"-0.008": 1.66041810482,
			"-0.007": 5.67071977315,
			"-0.006": 9.45918006503,
			"-0.005": 10.4292585416,
			"-0.004": 19.8069142583,
			"-0.003": 23.4691639183,
			"-0.002": 20.1532523584,
			"-0.001": 20.7935365237,
			"0.0": 21.3307504315,
			"0.001": 14.9632573288,
			"0.002": 16.9653459456,
			"0.003": 9.94096825562,
			"0.004": 3.54637924731,
			"0.005": 5.41707880347,
			"0.006": 4.54654972653,
			"0.007": 4.25754306092,
			"0.008": 6.51521865038,
			"0.009": 5.28395419684,
			"0.01": 8.39925784288,
			"0.011": 11.9402022495,
			"0.012": 6.83430036393,
			"0.013": 0.341319549905,
			"0.014": 0.0,
			"0.015": 0.0,
			"0.016": 0.0,
			"0.017": 0.0,
			"0.018": 0.0,
			"0.019": 0.0,
			"0.02": 0.0,
			"0.021": 0.0,
			"0.022": 0.0,
			"0.023": 0.0,
			"0.024": 0.0,
			"0.025": 0.0
		}
	}
}
