{
	 "smiles": "CC1=CC=CC=C1[N+]([O-])=O", 
	 "Tm": 269.15, 
	 "num_atms": 17, 
	 "gaussian": { 
		 "optdone": 1, 
		 "sigma_profile": "yes", 
		 "theory": "DFT", 
		 "functional": "B3LYP", 
		 "basiset": "6-31G**", 
		 "properties": { 
			 "R2extent": 1852.6727, 
			 "electric_dipole_moment_norm": 4.29394959449, 
			 "electric_quadrupole_moment_norm": 10.4624800382, 
			 "total_energy": -476.066155026, 
			 "HOMO_LUMO_gap": 0.18245, 
			 "cosmo_polarized_energy": -7.34, 
			 "cosmo_cavitation_energy": 21.09, 
			 "cosmo_dispersion_energy": -15.79, 
			 "cosmo_repulsion_energy": 1.27, 
			 "cosmo_total_nonelectrostatic_energy": 6.58, 
			 "SMD_solvation_energy": 5.8 
		},
		"coords": [
			{
				"x": -1.3540014779,
				"y": -0.2116217397,
				"z": 2.6589711225,
				"element": "C" 
			},
			{
				"x": -0.4633602323,
				"y": 0.0140409398,
				"z": 1.4615716739,
				"element": "C" 
			},
			{
				"x": -0.8511679522,
				"y": 0.9679403809,
				"z": 0.5070593613,
				"element": "C" 
			},
			{
				"x": -0.0934214059,
				"y": 1.2415173799,
				"z": -0.6294160625,
				"element": "C" 
			},
			{
				"x": 1.0976484062,
				"y": 0.5509720698,
				"z": -0.8593526244,
				"element": "C" 
			},
			{
				"x": 1.5127738396,
				"y": -0.4080402705,
				"z": 0.0557152034,
				"element": "C" 
			},
			{
				"x": 0.7444477031,
				"y": -0.664121566,
				"z": 1.1954247904,
				"element": "C" 
			},
			{
				"x": 1.27499944,
				"y": -1.6931348864,
				"z": 2.109818149,
				"element": "N" 
			},
			{
				"x": 2.2286995832,
				"y": -2.367972616,
				"z": 1.720576746,
				"element": "O" 
			},
			{
				"x": 0.747092321,
				"y": -1.8243958272,
				"z": 3.2150149153,
				"element": "O" 
			},
			{
				"x": -2.2661965841,
				"y": 0.3814160438,
				"z": 2.5530621307,
				"element": "H" 
			},
			{
				"x": -0.8536255713,
				"y": 0.0715457715,
				"z": 3.5883376724,
				"element": "H" 
			},
			{
				"x": -1.6267839573,
				"y": -1.2637045331,
				"z": 2.7708057465,
				"element": "H" 
			},
			{
				"x": -1.7794951618,
				"y": 1.507341576,
				"z": 0.6711318176,
				"element": "H" 
			},
			{
				"x": -0.435607025,
				"y": 1.9924378694,
				"z": -1.3354996658,
				"element": "H" 
			},
			{
				"x": 1.6964294333,
				"y": 0.7546848158,
				"z": -1.7411374547,
				"element": "H" 
			},
			{
				"x": 2.4253686413,
				"y": -0.972105408,
				"z": -0.0867835216,
				"element": "H" 
			}
		],
		 "valence_orbital": [ 
			{
				"type": "occ",
				"energy": -0.30585,
				"method": "rhf"
			},
			{
				"type": "occ",
				"energy": -0.30255,
				"method": "rhf"
			},
			{
				"type": "occ",
				"energy": -0.28708,
				"method": "rhf"
			},
			{
				"type": "occ",
				"energy": -0.2769,
				"method": "rhf"
			},
			{
				"type": "occ",
				"energy": -0.26739,
				"method": "rhf"
			},
			{
				"type": "unocc",
				"energy": -0.08494,
				"method": "rhf"
			},
			{
				"type": "unocc",
				"energy": -0.02226,
				"method": "rhf"
			},
			{
				"type": "unocc",
				"energy": -0.00017,
				"method": "rhf"
			},
			{
				"type": "unocc",
				"energy": 0.07945,
				"method": "rhf"
			},
			{
				"type": "unocc",
				"energy": 0.11213,
				"method": "rhf"
			}
		],
		"cosmo_sigma_profile": { 
			"-0.025": 0.0,
			"-0.024": 0.0,
			"-0.023": 0.0,
			"-0.022": 0.0,
			"-0.021": 0.0,
			"-0.02": 0.0,
			"-0.019": 0.0,
			"-0.018": 0.0,
			"-0.017": 0.0,
			"-0.016": 0.0,
			"-0.015": 0.0,
			"-0.014": 0.0,
			"-0.013": 0.0,
			"-0.012": 0.0,
			"-0.011": 0.0,
			"-0.01": 0.0,
			"-0.009": 0.0,
			"-0.008": 0.168460408166,
			"-0.007": 5.99573193624,
			"-0.006": 10.4135804086,
			"-0.005": 13.9675765011,
			"-0.004": 12.568172578,
			"-0.003": 12.3987698606,
			"-0.002": 13.0246771457,
			"-0.001": 16.046773751,
			"0.0": 15.1160189897,
			"0.001": 13.5021252603,
			"0.002": 12.5604208794,
			"0.003": 11.3620565439,
			"0.004": 3.40837450588,
			"0.005": 2.85540507126,
			"0.006": 3.02697755744,
			"0.007": 5.29525208439,
			"0.008": 7.9092362663,
			"0.009": 4.36218859061,
			"0.01": 3.87419548867,
			"0.011": 0.714227899765,
			"0.012": 0.0,
			"0.013": 0.0,
			"0.014": 0.0,
			"0.015": 0.0,
			"0.016": 0.0,
			"0.017": 0.0,
			"0.018": 0.0,
			"0.019": 0.0,
			"0.02": 0.0,
			"0.021": 0.0,
			"0.022": 0.0,
			"0.023": 0.0,
			"0.024": 0.0,
			"0.025": 0.0
		}
	}
}
