{
	 "smiles": "COC1=C(C=C(F)C=C1)[N+]([O-])=O", 
	 "Tm": 336.15, 
	 "num_atms": 18, 
	 "gaussian": { 
		 "optdone": 1, 
		 "sigma_profile": "yes", 
		 "theory": "DFT", 
		 "functional": "B3LYP", 
		 "basiset": "6-31G**", 
		 "properties": { 
			 "R2extent": 2297.8297, 
			 "electric_dipole_moment_norm": 5.46611334954, 
			 "electric_quadrupole_moment_norm": 6.64330202234, 
			 "total_energy": -650.490728989, 
			 "HOMO_LUMO_gap": 0.15919, 
			 "cosmo_polarized_energy": -11.48, 
			 "cosmo_cavitation_energy": 23.6, 
			 "cosmo_dispersion_energy": -17.23, 
			 "cosmo_repulsion_energy": 1.35, 
			 "cosmo_total_nonelectrostatic_energy": 7.72, 
			 "SMD_solvation_energy": 7.75 
		},
		"coords": [
			{
				"x": 1.9717649496,
				"y": 0.4194900023,
				"z": -1.466946146,
				"element": "C" 
			},
			{
				"x": 1.1946264861,
				"y": 0.5337715865,
				"z": -0.2805534443,
				"element": "O" 
			},
			{
				"x": 0.1045224105,
				"y": -0.2475485883,
				"z": -0.1379620191,
				"element": "C" 
			},
			{
				"x": -0.6370430489,
				"y": -0.1794912237,
				"z": 1.0661678711,
				"element": "C" 
			},
			{
				"x": -1.7428767074,
				"y": -0.9999387578,
				"z": 1.2883310719,
				"element": "C" 
			},
			{
				"x": -2.1377849618,
				"y": -1.8817164844,
				"z": 0.2974635508,
				"element": "C" 
			},
			{
				"x": -3.2149926642,
				"y": -2.6649863933,
				"z": 0.5012123253,
				"element": "F" 
			},
			{
				"x": -1.4428359279,
				"y": -1.9732658723,
				"z": -0.9023815614,
				"element": "C" 
			},
			{
				"x": -0.3269295652,
				"y": -1.166294083,
				"z": -1.1104439377,
				"element": "C" 
			},
			{
				"x": -0.2936087716,
				"y": 0.7550622698,
				"z": 2.1481520893,
				"element": "N" 
			},
			{
				"x": -0.6828063469,
				"y": 0.4608144256,
				"z": 3.2812224073,
				"element": "O" 
			},
			{
				"x": 0.3297455035,
				"y": 1.7734028163,
				"z": 1.8656597584,
				"element": "O" 
			},
			{
				"x": 2.3776468946,
				"y": -0.5923525256,
				"z": -1.5877741942,
				"element": "H" 
			},
			{
				"x": 1.3896004751,
				"y": 0.6892031708,
				"z": -2.3563379727,
				"element": "H" 
			},
			{
				"x": 2.7920258016,
				"y": 1.1269962272,
				"z": -1.3455077313,
				"element": "H" 
			},
			{
				"x": -2.2729854556,
				"y": -0.9360463483,
				"z": 2.2294774458,
				"element": "H" 
			},
			{
				"x": -1.7725673084,
				"y": -2.6740559969,
				"z": -1.6616698874,
				"element": "H" 
			},
			{
				"x": 0.2142982369,
				"y": -1.255344225,
				"z": -2.0434096257,
				"element": "H" 
			}
		],
		 "valence_orbital": [ 
			{
				"type": "occ",
				"energy": -0.30282,
				"method": "rhf"
			},
			{
				"type": "occ",
				"energy": -0.30138,
				"method": "rhf"
			},
			{
				"type": "occ",
				"energy": -0.2929,
				"method": "rhf"
			},
			{
				"type": "occ",
				"energy": -0.27711,
				"method": "rhf"
			},
			{
				"type": "occ",
				"energy": -0.24302,
				"method": "rhf"
			},
			{
				"type": "unocc",
				"energy": -0.08383,
				"method": "rhf"
			},
			{
				"type": "unocc",
				"energy": -0.01933,
				"method": "rhf"
			},
			{
				"type": "unocc",
				"energy": -0.00069,
				"method": "rhf"
			},
			{
				"type": "unocc",
				"energy": 0.06191,
				"method": "rhf"
			},
			{
				"type": "unocc",
				"energy": 0.08791,
				"method": "rhf"
			}
		],
		"cosmo_sigma_profile": { 
			"-0.025": 0.0,
			"-0.024": 0.0,
			"-0.023": 0.0,
			"-0.022": 0.0,
			"-0.021": 0.0,
			"-0.02": 0.0,
			"-0.019": 0.0,
			"-0.018": 0.0,
			"-0.017": 0.0,
			"-0.016": 0.0,
			"-0.015": 0.0,
			"-0.014": 0.0,
			"-0.013": 0.0,
			"-0.012": 0.0,
			"-0.011": 0.0,
			"-0.01": 0.0,
			"-0.009": 1.4360410108,
			"-0.008": 5.95384782309,
			"-0.007": 9.11314751726,
			"-0.006": 15.1078769004,
			"-0.005": 11.7000651823,
			"-0.004": 14.4601462785,
			"-0.003": 10.3631011327,
			"-0.002": 9.08459560855,
			"-0.001": 17.1476933747,
			"0.0": 18.6543918977,
			"0.001": 10.7954461776,
			"0.002": 8.2439566437,
			"0.003": 7.55422613801,
			"0.004": 12.8852418213,
			"0.005": 3.8706212243,
			"0.006": 2.85793811997,
			"0.007": 6.68137692126,
			"0.008": 9.33540127969,
			"0.009": 6.81593533447,
			"0.01": 4.78157243942,
			"0.011": 1.60538251751,
			"0.012": 0.924644021801,
			"0.013": 0.0610844559633,
			"0.014": 0.0,
			"0.015": 0.0,
			"0.016": 0.0,
			"0.017": 0.0,
			"0.018": 0.0,
			"0.019": 0.0,
			"0.02": 0.0,
			"0.021": 0.0,
			"0.022": 0.0,
			"0.023": 0.0,
			"0.024": 0.0,
			"0.025": 0.0
		}
	}
}
