{
	 "smiles": "CC(C)CBr", 
	 "Tm": 155.15, 
	 "num_atms": 14, 
	 "gaussian": { 
		 "optdone": 1, 
		 "sigma_profile": "yes", 
		 "theory": "DFT", 
		 "functional": "B3LYP", 
		 "basiset": "6-31G**", 
		 "properties": { 
			 "R2extent": 1245.3635, 
			 "electric_dipole_moment_norm": 2.17241918147, 
			 "electric_quadrupole_moment_norm": 4.73604227072, 
			 "total_energy": -2729.27138871, 
			 "HOMO_LUMO_gap": 0.27377, 
			 "cosmo_polarized_energy": -3.65, 
			 "cosmo_cavitation_energy": 18.09, 
			 "cosmo_dispersion_energy": -13.76, 
			 "cosmo_repulsion_energy": 1.2, 
			 "cosmo_total_nonelectrostatic_energy": 5.53, 
			 "SMD_solvation_energy": 2.22 
		},
		"coords": [
			{
				"x": -0.8960558474,
				"y": -0.1424372746,
				"z": -0.7669785099,
				"element": "C" 
			},
			{
				"x": -0.1711458503,
				"y": 0.5155626686,
				"z": 0.4139372715,
				"element": "C" 
			},
			{
				"x": 0.1804715036,
				"y": 1.9809640388,
				"z": 0.1276666845,
				"element": "C" 
			},
			{
				"x": 1.032737379,
				"y": -0.2959122092,
				"z": 0.8913508409,
				"element": "C" 
			},
			{
				"x": 2.484915213,
				"y": -0.4607654917,
				"z": -0.4632759208,
				"element": "Br" 
			},
			{
				"x": -1.1845737586,
				"y": -1.1735878042,
				"z": -0.5354521238,
				"element": "H" 
			},
			{
				"x": -0.2547749296,
				"y": -0.1638935097,
				"z": -1.6533017285,
				"element": "H" 
			},
			{
				"x": -1.805045573,
				"y": 0.4131086765,
				"z": -1.0182455232,
				"element": "H" 
			},
			{
				"x": -0.853507191,
				"y": 0.4966062281,
				"z": 1.2799601244,
				"element": "H" 
			},
			{
				"x": 0.6552639713,
				"y": 2.4553428639,
				"z": 0.99349304,
				"element": "H" 
			},
			{
				"x": -0.7206157562,
				"y": 2.5520772474,
				"z": -0.1170647501,
				"element": "H" 
			},
			{
				"x": 0.8710773724,
				"y": 2.0566663374,
				"z": -0.7176689331,
				"element": "H" 
			},
			{
				"x": 1.5173656949,
				"y": 0.1619951036,
				"z": 1.7538376908,
				"element": "H" 
			},
			{
				"x": 0.7632877721,
				"y": -1.3257268749,
				"z": 1.126541837,
				"element": "H" 
			}
		],
		 "valence_orbital": [ 
			{
				"type": "occ",
				"energy": -0.35276,
				"method": "rhf"
			},
			{
				"type": "occ",
				"energy": -0.34157,
				"method": "rhf"
			},
			{
				"type": "occ",
				"energy": -0.32729,
				"method": "rhf"
			},
			{
				"type": "occ",
				"energy": -0.26883,
				"method": "rhf"
			},
			{
				"type": "occ",
				"energy": -0.26652,
				"method": "rhf"
			},
			{
				"type": "unocc",
				"energy": 0.00725,
				"method": "rhf"
			},
			{
				"type": "unocc",
				"energy": 0.07745,
				"method": "rhf"
			},
			{
				"type": "unocc",
				"energy": 0.1322,
				"method": "rhf"
			},
			{
				"type": "unocc",
				"energy": 0.13843,
				"method": "rhf"
			},
			{
				"type": "unocc",
				"energy": 0.14515,
				"method": "rhf"
			}
		],
		"cosmo_sigma_profile": { 
			"-0.025": 0.0,
			"-0.024": 0.0,
			"-0.023": 0.0,
			"-0.022": 0.0,
			"-0.021": 0.0,
			"-0.02": 0.0,
			"-0.019": 0.0,
			"-0.018": 0.0,
			"-0.017": 0.0,
			"-0.016": 0.0,
			"-0.015": 0.0,
			"-0.014": 0.0,
			"-0.013": 0.0,
			"-0.012": 0.0,
			"-0.011": 0.0,
			"-0.01": 0.0,
			"-0.009": 0.0,
			"-0.008": 0.0,
			"-0.007": 1.04967638588,
			"-0.006": 4.02369741747,
			"-0.005": 6.06025866274,
			"-0.004": 11.5188930752,
			"-0.003": 15.3175279101,
			"-0.002": 14.7984747779,
			"-0.001": 15.8547027933,
			"0.0": 15.6715455874,
			"0.001": 18.1589755041,
			"0.002": 9.73079117027,
			"0.003": 5.11912595561,
			"0.004": 5.48166101042,
			"0.005": 6.9103267679,
			"0.006": 8.0291789463,
			"0.007": 5.87622957045,
			"0.008": 0.0203604840974,
			"0.009": 0.0,
			"0.01": 0.0,
			"0.011": 0.0,
			"0.012": 0.0,
			"0.013": 0.0,
			"0.014": 0.0,
			"0.015": 0.0,
			"0.016": 0.0,
			"0.017": 0.0,
			"0.018": 0.0,
			"0.019": 0.0,
			"0.02": 0.0,
			"0.021": 0.0,
			"0.022": 0.0,
			"0.023": 0.0,
			"0.024": 0.0,
			"0.025": 0.0
		}
	}
}
