{
	 "smiles": "CC(C)NC(=O)C1CCCC(N)C1", 
	 "Tm": 400.15, 
	 "num_atms": 33, 
	 "gaussian": { 
		 "optdone": 1, 
		 "sigma_profile": "yes", 
		 "theory": "DFT", 
		 "functional": "B3LYP", 
		 "basiset": "6-31G**", 
		 "properties": { 
			 "R2extent": 3290.7181, 
			 "electric_dipole_moment_norm": 3.92153646547, 
			 "electric_quadrupole_moment_norm": 16.6565915772, 
			 "total_energy": -577.880887928, 
			 "HOMO_LUMO_gap": 0.24842, 
			 "cosmo_polarized_energy": -14.04, 
			 "cosmo_cavitation_energy": 32.84, 
			 "cosmo_dispersion_energy": -22.97, 
			 "cosmo_repulsion_energy": 1.85, 
			 "cosmo_total_nonelectrostatic_energy": 11.72, 
			 "SMD_solvation_energy": 4.03 
		},
		"coords": [
			{
				"x": 0.0101438966,
				"y": 1.2778095049,
				"z": -3.8914365611,
				"element": "C" 
			},
			{
				"x": -0.6412335228,
				"y": 0.5041353188,
				"z": -2.7386047412,
				"element": "C" 
			},
			{
				"x": -1.9589783712,
				"y": -0.157669973,
				"z": -3.1720828473,
				"element": "C" 
			},
			{
				"x": 0.3166810908,
				"y": -0.4759209326,
				"z": -2.2216390818,
				"element": "N" 
			},
			{
				"x": 0.4801341079,
				"y": -0.9797757942,
				"z": -0.9542006999,
				"element": "C" 
			},
			{
				"x": 1.2623236836,
				"y": -1.9098861419,
				"z": -0.7670557797,
				"element": "O" 
			},
			{
				"x": -0.2836473795,
				"y": -0.2997888414,
				"z": 0.1870466944,
				"element": "C" 
			},
			{
				"x": 0.5086139276,
				"y": 0.9335289567,
				"z": 0.6973779959,
				"element": "C" 
			},
			{
				"x": 1.7542940391,
				"y": 0.5301146114,
				"z": 1.4984553422,
				"element": "C" 
			},
			{
				"x": 1.3733898368,
				"y": -0.377486473,
				"z": 2.6775744916,
				"element": "C" 
			},
			{
				"x": 0.6212615963,
				"y": -1.6425863496,
				"z": 2.2197841636,
				"element": "C" 
			},
			{
				"x": 0.1569351114,
				"y": -2.5019861292,
				"z": 3.3185026159,
				"element": "N" 
			},
			{
				"x": -0.5896553243,
				"y": -1.2730658296,
				"z": 1.3466290002,
				"element": "C" 
			},
			{
				"x": 0.9291503641,
				"y": 1.7708990281,
				"z": -3.5622414936,
				"element": "H" 
			},
			{
				"x": -0.6732214509,
				"y": 2.0384295947,
				"z": -4.2805775125,
				"element": "H" 
			},
			{
				"x": 0.2613501848,
				"y": 0.6039165464,
				"z": -4.7195651376,
				"element": "H" 
			},
			{
				"x": -0.8515681393,
				"y": 1.2155412638,
				"z": -1.9343373291,
				"element": "H" 
			},
			{
				"x": -2.4196791868,
				"y": -0.6984135396,
				"z": -2.3399250304,
				"element": "H" 
			},
			{
				"x": -1.7810750219,
				"y": -0.8751176391,
				"z": -3.980926388,
				"element": "H" 
			},
			{
				"x": -2.6728993993,
				"y": 0.5908925154,
				"z": -3.5325019194,
				"element": "H" 
			},
			{
				"x": 0.8488080404,
				"y": -0.9988208586,
				"z": -2.9081573392,
				"element": "H" 
			},
			{
				"x": -1.2435852655,
				"y": 0.0554397359,
				"z": -0.2048690849,
				"element": "H" 
			},
			{
				"x": 0.7861520395,
				"y": 1.5810757717,
				"z": -0.1431130429,
				"element": "H" 
			},
			{
				"x": -0.1584136686,
				"y": 1.5224139986,
				"z": 1.3419034721,
				"element": "H" 
			},
			{
				"x": 2.2694429068,
				"y": 1.4293618972,
				"z": 1.8573715112,
				"element": "H" 
			},
			{
				"x": 2.4567192101,
				"y": 0.0005344282,
				"z": 0.8435870492,
				"element": "H" 
			},
			{
				"x": 2.2692468746,
				"y": -0.6670730203,
				"z": 3.242403429,
				"element": "H" 
			},
			{
				"x": 0.731342688,
				"y": 0.1835859881,
				"z": 3.375821744,
				"element": "H" 
			},
			{
				"x": 1.2960360763,
				"y": -2.2420983112,
				"z": 1.6021063229,
				"element": "H" 
			},
			{
				"x": 0.9585578059,
				"y": -2.844579328,
				"z": 3.8443572437,
				"element": "H" 
			},
			{
				"x": -0.3895866919,
				"y": -1.9460371344,
				"z": 3.9762283775,
				"element": "H" 
			},
			{
				"x": -1.0429246988,
				"y": -2.193405615,
				"z": 0.9663589619,
				"element": "H" 
			},
			{
				"x": -1.3439153597,
				"y": -0.7920672493,
				"z": 1.988225573,
				"element": "H" 
			}
		],
		 "valence_orbital": [ 
			{
				"type": "occ",
				"energy": -0.31015,
				"method": "rhf"
			},
			{
				"type": "occ",
				"energy": -0.29616,
				"method": "rhf"
			},
			{
				"type": "occ",
				"energy": -0.24387,
				"method": "rhf"
			},
			{
				"type": "occ",
				"energy": -0.23444,
				"method": "rhf"
			},
			{
				"type": "occ",
				"energy": -0.2184,
				"method": "rhf"
			},
			{
				"type": "unocc",
				"energy": 0.03002,
				"method": "rhf"
			},
			{
				"type": "unocc",
				"energy": 0.06907,
				"method": "rhf"
			},
			{
				"type": "unocc",
				"energy": 0.08748,
				"method": "rhf"
			},
			{
				"type": "unocc",
				"energy": 0.09878,
				"method": "rhf"
			},
			{
				"type": "unocc",
				"energy": 0.11071,
				"method": "rhf"
			}
		],
		"cosmo_sigma_profile": { 
			"-0.025": 0.0,
			"-0.024": 0.0,
			"-0.023": 0.0,
			"-0.022": 0.0,
			"-0.021": 0.0,
			"-0.02": 0.0,
			"-0.019": 0.0,
			"-0.018": 0.0,
			"-0.017": 0.0,
			"-0.016": 0.0,
			"-0.015": 0.0,
			"-0.014": 0.0,
			"-0.013": 0.0,
			"-0.012": 0.631796940679,
			"-0.011": 0.994452390317,
			"-0.01": 0.773385072708,
			"-0.009": 2.46486110698,
			"-0.008": 4.00648715895,
			"-0.007": 3.29079520124,
			"-0.006": 4.42819615433,
			"-0.005": 7.33596728648,
			"-0.004": 16.1570751083,
			"-0.003": 30.576827971,
			"-0.002": 38.2013572035,
			"-0.001": 33.2522899255,
			"0.0": 34.6517075226,
			"0.001": 25.7874864047,
			"0.002": 7.30197633645,
			"0.003": 4.03352408266,
			"0.004": 4.59823408117,
			"0.005": 3.2126085187,
			"0.006": 3.05133094219,
			"0.007": 2.35457086071,
			"0.008": 2.15994602258,
			"0.009": 2.73696464418,
			"0.01": 2.20935854817,
			"0.011": 3.16468528605,
			"0.012": 1.80716448244,
			"0.013": 1.95620997801,
			"0.014": 5.07796933929,
			"0.015": 2.51553646698,
			"0.016": 0.922855215628,
			"0.017": 0.532750676446,
			"0.018": 0.689791346779,
			"0.019": 0.494258185076,
			"0.02": 0.394335047677,
			"0.021": 0.0934370815225,
			"0.022": 0.0,
			"0.023": 0.0,
			"0.024": 0.0,
			"0.025": 0.0
		}
	}
}
