{
	 "smiles": "CC(C)NCC(O)COC1=CC=CC2=C1C=CN2", 
	 "Tm": 443.15, 
	 "num_atms": 38, 
	 "gaussian": { 
		 "optdone": 1, 
		 "sigma_profile": "yes", 
		 "theory": "DFT", 
		 "functional": "B3LYP", 
		 "basiset": "6-31G**", 
		 "properties": { 
			 "R2extent": 7276.2426, 
			 "electric_dipole_moment_norm": 3.31405048392, 
			 "electric_quadrupole_moment_norm": 16.1447536695, 
			 "total_energy": -805.482367135, 
			 "HOMO_LUMO_gap": 0.1924, 
			 "cosmo_polarized_energy": -13.96, 
			 "cosmo_cavitation_energy": 39.57, 
			 "cosmo_dispersion_energy": -28.2, 
			 "cosmo_repulsion_energy": 2.2, 
			 "cosmo_total_nonelectrostatic_energy": 13.57, 
			 "SMD_solvation_energy": 4.68 
		},
		"coords": [
			{
				"x": -0.8385716965,
				"y": 0.0221275874,
				"z": -5.6400587967,
				"element": "C" 
			},
			{
				"x": -1.5300254743,
				"y": -1.0381616971,
				"z": -4.7737773196,
				"element": "C" 
			},
			{
				"x": -2.9656469969,
				"y": -0.6135143322,
				"z": -4.4054953799,
				"element": "C" 
			},
			{
				"x": -0.6808600129,
				"y": -1.4132447859,
				"z": -3.6318674941,
				"element": "N" 
			},
			{
				"x": -0.4455112524,
				"y": -0.3969535074,
				"z": -2.6112576177,
				"element": "C" 
			},
			{
				"x": 0.3596351557,
				"y": -1.0082449158,
				"z": -1.4701170642,
				"element": "C" 
			},
			{
				"x": -0.4441450444,
				"y": -2.0341450147,
				"z": -0.8862908893,
				"element": "O" 
			},
			{
				"x": 0.7370984294,
				"y": 0.014169782,
				"z": -0.4036583095,
				"element": "C" 
			},
			{
				"x": 1.3963462463,
				"y": -0.7113813739,
				"z": 0.6485880524,
				"element": "O" 
			},
			{
				"x": 1.2589073531,
				"y": -0.1987539172,
				"z": 1.9260387771,
				"element": "C" 
			},
			{
				"x": 2.3701803767,
				"y": 0.3148456584,
				"z": 2.5792700276,
				"element": "C" 
			},
			{
				"x": 2.2721761199,
				"y": 0.7915347432,
				"z": 3.9028622107,
				"element": "C" 
			},
			{
				"x": 1.0670190117,
				"y": 0.7724655906,
				"z": 4.5933683097,
				"element": "C" 
			},
			{
				"x": -0.0472934823,
				"y": 0.2494606556,
				"z": 3.924432999,
				"element": "C" 
			},
			{
				"x": 0.017850049,
				"y": -0.2478713571,
				"z": 2.5939442005,
				"element": "C" 
			},
			{
				"x": -1.2934461017,
				"y": -0.7267679562,
				"z": 2.2500314155,
				"element": "C" 
			},
			{
				"x": -2.0911437865,
				"y": -0.509422777,
				"z": 3.3425942143,
				"element": "C" 
			},
			{
				"x": -1.3493146419,
				"y": 0.0795709711,
				"z": 4.3507799497,
				"element": "N" 
			},
			{
				"x": -0.7875629786,
				"y": 0.9917695698,
				"z": -5.1318851698,
				"element": "H" 
			},
			{
				"x": 0.1809158761,
				"y": -0.2903619807,
				"z": -5.8836987278,
				"element": "H" 
			},
			{
				"x": -1.3896632841,
				"y": 0.1741834429,
				"z": -6.5736723023,
				"element": "H" 
			},
			{
				"x": -1.6046258901,
				"y": -1.952159241,
				"z": -5.3787809441,
				"element": "H" 
			},
			{
				"x": -3.4561538523,
				"y": -1.3786146632,
				"z": -3.7932806018,
				"element": "H" 
			},
			{
				"x": -2.9800917419,
				"y": 0.327071324,
				"z": -3.8441598852,
				"element": "H" 
			},
			{
				"x": -3.5709148511,
				"y": -0.4666352224,
				"z": -5.3070469127,
				"element": "H" 
			},
			{
				"x": -1.0818953044,
				"y": -2.223631531,
				"z": -3.1658495822,
				"element": "H" 
			},
			{
				"x": -1.3662173321,
				"y": 0.0381408671,
				"z": -2.1820910221,
				"element": "H" 
			},
			{
				"x": 0.1319441392,
				"y": 0.4288910517,
				"z": -3.0444154025,
				"element": "H" 
			},
			{
				"x": 1.2792412743,
				"y": -1.4471586808,
				"z": -1.8865862328,
				"element": "H" 
			},
			{
				"x": 0.0603859401,
				"y": -2.3613884735,
				"z": -0.1269375423,
				"element": "H" 
			},
			{
				"x": -0.1606935015,
				"y": 0.5088923732,
				"z": -0.0170237305,
				"element": "H" 
			},
			{
				"x": 1.4170080507,
				"y": 0.7776105636,
				"z": -0.806463883,
				"element": "H" 
			},
			{
				"x": 3.318551324,
				"y": 0.3355412595,
				"z": 2.0524979715,
				"element": "H" 
			},
			{
				"x": 3.1600780602,
				"y": 1.185515399,
				"z": 4.3882477817,
				"element": "H" 
			},
			{
				"x": 0.9951845857,
				"y": 1.1416660477,
				"z": 5.6121466582,
				"element": "H" 
			},
			{
				"x": -1.5913070912,
				"y": -1.1740714415,
				"z": 1.3128201246,
				"element": "H" 
			},
			{
				"x": -3.138937133,
				"y": -0.7283745083,
				"z": 3.490890698,
				"element": "H" 
			},
			{
				"x": -1.6993005419,
				"y": 0.3268004902,
				"z": 5.2617014197,
				"element": "H" 
			}
		],
		 "valence_orbital": [ 
			{
				"type": "occ",
				"energy": -0.26631,
				"method": "rhf"
			},
			{
				"type": "occ",
				"energy": -0.26049,
				"method": "rhf"
			},
			{
				"type": "occ",
				"energy": -0.22087,
				"method": "rhf"
			},
			{
				"type": "occ",
				"energy": -0.20864,
				"method": "rhf"
			},
			{
				"type": "occ",
				"energy": -0.19856,
				"method": "rhf"
			},
			{
				"type": "unocc",
				"energy": -0.00616,
				"method": "rhf"
			},
			{
				"type": "unocc",
				"energy": 0.02931,
				"method": "rhf"
			},
			{
				"type": "unocc",
				"energy": 0.06792,
				"method": "rhf"
			},
			{
				"type": "unocc",
				"energy": 0.07766,
				"method": "rhf"
			},
			{
				"type": "unocc",
				"energy": 0.08668,
				"method": "rhf"
			}
		],
		"cosmo_sigma_profile": { 
			"-0.025": 0.0,
			"-0.024": 0.0,
			"-0.023": 0.0,
			"-0.022": 0.0,
			"-0.021": 0.0,
			"-0.02": 0.0,
			"-0.019": 0.0,
			"-0.018": 0.0,
			"-0.017": 0.0,
			"-0.016": 0.260856023367,
			"-0.015": 1.83493736607,
			"-0.014": 1.04946125681,
			"-0.013": 1.51321926203,
			"-0.012": 1.8689597917,
			"-0.011": 1.91057679219,
			"-0.01": 1.35891510604,
			"-0.009": 1.91127651796,
			"-0.008": 3.61044767079,
			"-0.007": 5.50521015803,
			"-0.006": 6.72324092534,
			"-0.005": 12.9439659736,
			"-0.004": 18.4434416456,
			"-0.003": 29.6651467562,
			"-0.002": 35.8128600744,
			"-0.001": 29.3429247848,
			"0.0": 26.1218492739,
			"0.001": 26.195719676,
			"0.002": 17.5673902807,
			"0.003": 13.2512892876,
			"0.004": 13.3048301597,
			"0.005": 19.6936402787,
			"0.006": 15.1814069281,
			"0.007": 9.5851859309,
			"0.008": 3.22837016455,
			"0.009": 2.6153314971,
			"0.01": 2.75218319504,
			"0.011": 2.75596528161,
			"0.012": 1.0443250664,
			"0.013": 0.963057840525,
			"0.014": 0.275099235197,
			"0.015": 0.321550245624,
			"0.016": 0.572559358592,
			"0.017": 0.569409160851,
			"0.018": 0.148923246981,
			"0.019": 0.0,
			"0.02": 0.0,
			"0.021": 0.0,
			"0.022": 0.0,
			"0.023": 0.0,
			"0.024": 0.0,
			"0.025": 0.0
		}
	}
}
