{
	 "smiles": "OC(=O)C(=C)C1=CC=CC=C1", 
	 "Tm": 379.15, 
	 "num_atms": 19, 
	 "gaussian": { 
		 "optdone": 1, 
		 "sigma_profile": "yes", 
		 "theory": "DFT", 
		 "functional": "B3LYP", 
		 "basiset": "6-31G**", 
		 "properties": { 
			 "R2extent": 1933.2262, 
			 "electric_dipole_moment_norm": 5.03181557094, 
			 "electric_quadrupole_moment_norm": 7.988700179, 
			 "total_energy": -498.215315776, 
			 "HOMO_LUMO_gap": 0.19816, 
			 "cosmo_polarized_energy": -11.55, 
			 "cosmo_cavitation_energy": 23.46, 
			 "cosmo_dispersion_energy": -16.91, 
			 "cosmo_repulsion_energy": 1.35, 
			 "cosmo_total_nonelectrostatic_energy": 7.91, 
			 "SMD_solvation_energy": 5.76 
		},
		"coords": [
			{
				"x": 0.6611685649,
				"y": -0.6569198132,
				"z": -1.9957934467,
				"element": "O" 
			},
			{
				"x": 0.5885487059,
				"y": -1.3830799756,
				"z": -0.8531817143,
				"element": "C" 
			},
			{
				"x": 0.7979194956,
				"y": -2.5731017972,
				"z": -0.8761319661,
				"element": "O" 
			},
			{
				"x": 0.2112399521,
				"y": -0.626262742,
				"z": 0.4034548138,
				"element": "C" 
			},
			{
				"x": -0.1170164477,
				"y": -1.3623667868,
				"z": 1.4750840137,
				"element": "C" 
			},
			{
				"x": 0.1851988753,
				"y": 0.8625509822,
				"z": 0.4146076508,
				"element": "C" 
			},
			{
				"x": -0.9236460104,
				"y": 1.5525179702,
				"z": 0.9350547984,
				"element": "C" 
			},
			{
				"x": -0.9410203816,
				"y": 2.9454507013,
				"z": 0.9797183537,
				"element": "C" 
			},
			{
				"x": 0.1459828003,
				"y": 3.6785468733,
				"z": 0.4977367775,
				"element": "C" 
			},
			{
				"x": 1.2521891134,
				"y": 3.0087438439,
				"z": -0.0266086203,
				"element": "C" 
			},
			{
				"x": 1.2733378289,
				"y": 1.613813248,
				"z": -0.070274484,
				"element": "C" 
			},
			{
				"x": 0.4295802949,
				"y": 0.2680450966,
				"z": -1.8167164076,
				"element": "H" 
			},
			{
				"x": -0.0972693065,
				"y": -2.4449197164,
				"z": 1.4123409078,
				"element": "H" 
			},
			{
				"x": -0.3901101402,
				"y": -0.9025605185,
				"z": 2.4192075122,
				"element": "H" 
			},
			{
				"x": -1.7779656286,
				"y": 0.9853197201,
				"z": 1.2922144885,
				"element": "H" 
			},
			{
				"x": -1.8084493157,
				"y": 3.4598471757,
				"z": 1.3830678841,
				"element": "H" 
			},
			{
				"x": 0.1293525133,
				"y": 4.7638816664,
				"z": 0.528766108,
				"element": "H" 
			},
			{
				"x": 2.1054804313,
				"y": 3.5699516645,
				"z": -0.3959627186,
				"element": "H" 
			},
			{
				"x": 2.1508786546,
				"y": 1.1025424075,
				"z": -0.4567839511,
				"element": "H" 
			}
		],
		 "valence_orbital": [ 
			{
				"type": "occ",
				"energy": -0.31781,
				"method": "rhf"
			},
			{
				"type": "occ",
				"energy": -0.29986,
				"method": "rhf"
			},
			{
				"type": "occ",
				"energy": -0.27138,
				"method": "rhf"
			},
			{
				"type": "occ",
				"energy": -0.26875,
				"method": "rhf"
			},
			{
				"type": "occ",
				"energy": -0.25341,
				"method": "rhf"
			},
			{
				"type": "unocc",
				"energy": -0.05525,
				"method": "rhf"
			},
			{
				"type": "unocc",
				"energy": -0.02415,
				"method": "rhf"
			},
			{
				"type": "unocc",
				"energy": -0.01756,
				"method": "rhf"
			},
			{
				"type": "unocc",
				"energy": 0.07999,
				"method": "rhf"
			},
			{
				"type": "unocc",
				"energy": 0.08328,
				"method": "rhf"
			}
		],
		"cosmo_sigma_profile": { 
			"-0.025": 0.0,
			"-0.024": 0.0,
			"-0.023": 0.0,
			"-0.022": 0.0,
			"-0.021": 0.0,
			"-0.02": 0.0,
			"-0.019": 0.0,
			"-0.018": 0.0,
			"-0.017": 0.0,
			"-0.016": 0.0,
			"-0.015": 0.419560356159,
			"-0.014": 0.553649426697,
			"-0.013": 0.446348642272,
			"-0.012": 0.52286989274,
			"-0.011": 1.49599669905,
			"-0.01": 0.672827765376,
			"-0.009": 0.758725616835,
			"-0.008": 1.2323291179,
			"-0.007": 5.82604890826,
			"-0.006": 13.2230222038,
			"-0.005": 16.4364451409,
			"-0.004": 18.025568362,
			"-0.003": 11.9976411866,
			"-0.002": 13.9476122607,
			"-0.001": 10.8341434487,
			"0.0": 11.0225646974,
			"0.001": 12.8415433295,
			"0.002": 12.7780676835,
			"0.003": 10.5997768136,
			"0.004": 11.0543649877,
			"0.005": 5.82303846551,
			"0.006": 2.80071600088,
			"0.007": 2.61174672393,
			"0.008": 2.22452357707,
			"0.009": 3.45806377987,
			"0.01": 4.47700145832,
			"0.011": 5.13187507831,
			"0.012": 5.05913092205,
			"0.013": 1.72013650045,
			"0.014": 0.0896570210118,
			"0.015": 0.0,
			"0.016": 0.0,
			"0.017": 0.0,
			"0.018": 0.0,
			"0.019": 0.0,
			"0.02": 0.0,
			"0.021": 0.0,
			"0.022": 0.0,
			"0.023": 0.0,
			"0.024": 0.0,
			"0.025": 0.0
		}
	}
}
