{
	 "smiles": "NC(=O)C(Cl)C1=CC=C(F)C=C1", 
	 "Tm": 367.15, 
	 "num_atms": 19, 
	 "gaussian": { 
		 "optdone": 1, 
		 "sigma_profile": "yes", 
		 "theory": "DFT", 
		 "functional": "B3LYP", 
		 "basiset": "6-31G**", 
		 "properties": { 
			 "R2extent": 4082.3543, 
			 "electric_dipole_moment_norm": 1.84583111091, 
			 "electric_quadrupole_moment_norm": 16.9254624398, 
			 "total_energy": -999.089465367, 
			 "HOMO_LUMO_gap": 0.21345, 
			 "cosmo_polarized_energy": -12.81, 
			 "cosmo_cavitation_energy": 25.79, 
			 "cosmo_dispersion_energy": -18.44, 
			 "cosmo_repulsion_energy": 1.47, 
			 "cosmo_total_nonelectrostatic_energy": 8.82, 
			 "SMD_solvation_energy": 5.42 
		},
		"coords": [
			{
				"x": 2.0966534427,
				"y": -1.6422067537,
				"z": -3.216073685,
				"element": "N" 
			},
			{
				"x": 0.753112277,
				"y": -1.4729793944,
				"z": -3.3316721984,
				"element": "C" 
			},
			{
				"x": 0.2256546246,
				"y": -0.6103809927,
				"z": -4.0148217859,
				"element": "O" 
			},
			{
				"x": -0.1589443404,
				"y": -2.3789750051,
				"z": -2.483094766,
				"element": "C" 
			},
			{
				"x": 0.6496897958,
				"y": -3.9931786965,
				"z": -2.0349749935,
				"element": "Cl" 
			},
			{
				"x": -0.6808529014,
				"y": -1.6884028533,
				"z": -1.2503120065,
				"element": "C" 
			},
			{
				"x": 0.1751794448,
				"y": -0.9837015727,
				"z": -0.3913035465,
				"element": "C" 
			},
			{
				"x": -0.3196887323,
				"y": -0.3543504934,
				"z": 0.7472148759,
				"element": "C" 
			},
			{
				"x": -1.6822530298,
				"y": -0.4374993038,
				"z": 1.0185653878,
				"element": "C" 
			},
			{
				"x": -2.1658804146,
				"y": 0.1707297578,
				"z": 2.1188342877,
				"element": "F" 
			},
			{
				"x": -2.5583684955,
				"y": -1.1264932392,
				"z": 0.1883879239,
				"element": "C" 
			},
			{
				"x": -2.0465063553,
				"y": -1.7518426402,
				"z": -0.9473468263,
				"element": "C" 
			},
			{
				"x": 2.6812373383,
				"y": -1.0864335649,
				"z": -3.8228718643,
				"element": "H" 
			},
			{
				"x": 2.4765333895,
				"y": -2.4776510213,
				"z": -2.7976353783,
				"element": "H" 
			},
			{
				"x": -0.984380515,
				"y": -2.667713288,
				"z": -3.1319382871,
				"element": "H" 
			},
			{
				"x": 1.2354106273,
				"y": -0.9235347374,
				"z": -0.6165633745,
				"element": "H" 
			},
			{
				"x": 0.3276663834,
				"y": 0.1972099626,
				"z": 1.4200187111,
				"element": "H" 
			},
			{
				"x": -3.6139619495,
				"y": -1.1643738119,
				"z": 0.4335054829,
				"element": "H" 
			},
			{
				"x": -2.7190005896,
				"y": -2.2940223519,
				"z": -1.6059179569,
				"element": "H" 
			}
		],
		 "valence_orbital": [ 
			{
				"type": "occ",
				"energy": -0.31212,
				"method": "rhf"
			},
			{
				"type": "occ",
				"energy": -0.28193,
				"method": "rhf"
			},
			{
				"type": "occ",
				"energy": -0.27086,
				"method": "rhf"
			},
			{
				"type": "occ",
				"energy": -0.26302,
				"method": "rhf"
			},
			{
				"type": "occ",
				"energy": -0.25112,
				"method": "rhf"
			},
			{
				"type": "unocc",
				"energy": -0.03767,
				"method": "rhf"
			},
			{
				"type": "unocc",
				"energy": -0.02199,
				"method": "rhf"
			},
			{
				"type": "unocc",
				"energy": 0.01384,
				"method": "rhf"
			},
			{
				"type": "unocc",
				"energy": 0.03228,
				"method": "rhf"
			},
			{
				"type": "unocc",
				"energy": 0.07527,
				"method": "rhf"
			}
		],
		"cosmo_sigma_profile": { 
			"-0.025": 0.0,
			"-0.024": 0.0,
			"-0.023": 0.0,
			"-0.022": 0.0,
			"-0.021": 0.0,
			"-0.02": 0.0,
			"-0.019": 0.0,
			"-0.018": 0.0,
			"-0.017": 0.0,
			"-0.016": 0.0,
			"-0.015": 0.302901562578,
			"-0.014": 1.48665562529,
			"-0.013": 1.89732570385,
			"-0.012": 1.88666597256,
			"-0.011": 2.00446994608,
			"-0.01": 2.88114423667,
			"-0.009": 3.71693131687,
			"-0.008": 5.23963138707,
			"-0.007": 9.19290703588,
			"-0.006": 10.4441307213,
			"-0.005": 10.9636371666,
			"-0.004": 9.27095597378,
			"-0.003": 8.07485206766,
			"-0.002": 8.05942303279,
			"-0.001": 11.1170198429,
			"0.0": 16.4051924533,
			"0.001": 15.4172503423,
			"0.002": 17.1287193827,
			"0.003": 20.5292207522,
			"0.004": 19.0728734588,
			"0.005": 9.05095470296,
			"0.006": 6.45634015038,
			"0.007": 1.40676322584,
			"0.008": 1.25960332259,
			"0.009": 1.46576390457,
			"0.01": 1.02017517226,
			"0.011": 1.99803628017,
			"0.012": 3.79826311217,
			"0.013": 5.48831975284,
			"0.014": 1.01814269405,
			"0.015": 0.0,
			"0.016": 0.0,
			"0.017": 0.0,
			"0.018": 0.0,
			"0.019": 0.0,
			"0.02": 0.0,
			"0.021": 0.0,
			"0.022": 0.0,
			"0.023": 0.0,
			"0.024": 0.0,
			"0.025": 0.0
		}
	}
}
