{
	 "smiles": "CC1=NC=CN1C1=NC(F)=CC=C1", 
	 "Tm": 371.15, 
	 "num_atms": 21, 
	 "gaussian": { 
		 "optdone": 1, 
		 "sigma_profile": "yes", 
		 "theory": "DFT", 
		 "functional": "B3LYP", 
		 "basiset": "6-31G**", 
		 "properties": { 
			 "R2extent": 4084.1803, 
			 "electric_dipole_moment_norm": 4.57704427551, 
			 "electric_quadrupole_moment_norm": 10.8971956301, 
			 "total_energy": -611.868785595, 
			 "HOMO_LUMO_gap": 0.17872, 
			 "cosmo_polarized_energy": -10.75, 
			 "cosmo_cavitation_energy": 25.57, 
			 "cosmo_dispersion_energy": -18.77, 
			 "cosmo_repulsion_energy": 1.42, 
			 "cosmo_total_nonelectrostatic_energy": 8.22, 
			 "SMD_solvation_energy": 3.37 
		},
		"coords": [
			{
				"x": -3.3971679527,
				"y": 1.3923281148,
				"z": 0.0576883039,
				"element": "C" 
			},
			{
				"x": -2.0323997255,
				"y": 1.7992084034,
				"z": 0.5105436908,
				"element": "C" 
			},
			{
				"x": -1.509891644,
				"y": 2.9702238713,
				"z": 0.2285996168,
				"element": "N" 
			},
			{
				"x": -0.2556111567,
				"y": 2.9908936014,
				"z": 0.8032071965,
				"element": "C" 
			},
			{
				"x": -0.0006788353,
				"y": 1.8198989208,
				"z": 1.4470656094,
				"element": "C" 
			},
			{
				"x": -1.1398403483,
				"y": 1.0287814331,
				"z": 1.2715733538,
				"element": "N" 
			},
			{
				"x": -1.3077437799,
				"y": -0.2760502263,
				"z": 1.7787891367,
				"element": "C" 
			},
			{
				"x": -2.4700447178,
				"y": -0.8796273932,
				"z": 1.5085532639,
				"element": "N" 
			},
			{
				"x": -2.6569221195,
				"y": -2.0972312485,
				"z": 1.967845979,
				"element": "C" 
			},
			{
				"x": -3.8384133891,
				"y": -2.6557398321,
				"z": 1.6684224009,
				"element": "F" 
			},
			{
				"x": -1.7456818735,
				"y": -2.83020561,
				"z": 2.7208933306,
				"element": "C" 
			},
			{
				"x": -0.5380139556,
				"y": -2.1927172078,
				"z": 2.9970147066,
				"element": "C" 
			},
			{
				"x": -0.2992273397,
				"y": -0.9029534886,
				"z": 2.5294802552,
				"element": "C" 
			},
			{
				"x": -3.802976886,
				"y": 2.2327161456,
				"z": -0.5081251305,
				"element": "H" 
			},
			{
				"x": -3.3733360842,
				"y": 0.5011820349,
				"z": -0.5747307301,
				"element": "H" 
			},
			{
				"x": -4.0583440491,
				"y": 1.1611030578,
				"z": 0.8967599679,
				"element": "H" 
			},
			{
				"x": 0.3909387565,
				"y": 3.8533089653,
				"z": 0.717400004,
				"element": "H" 
			},
			{
				"x": 0.8611797873,
				"y": 1.4856631982,
				"z": 1.9982155264,
				"element": "H" 
			},
			{
				"x": -1.9795991428,
				"y": -3.8309782302,
				"z": 3.0610278165,
				"element": "H" 
			},
			{
				"x": 0.2237364184,
				"y": -2.7014719143,
				"z": 3.5798643463,
				"element": "H" 
			},
			{
				"x": 0.6393380376,
				"y": -0.4125325953,
				"z": 2.7463113554,
				"element": "H" 
			}
		],
		 "valence_orbital": [ 
			{
				"type": "occ",
				"energy": -0.29716,
				"method": "rhf"
			},
			{
				"type": "occ",
				"energy": -0.29568,
				"method": "rhf"
			},
			{
				"type": "occ",
				"energy": -0.26402,
				"method": "rhf"
			},
			{
				"type": "occ",
				"energy": -0.24775,
				"method": "rhf"
			},
			{
				"type": "occ",
				"energy": -0.22439,
				"method": "rhf"
			},
			{
				"type": "unocc",
				"energy": -0.04567,
				"method": "rhf"
			},
			{
				"type": "unocc",
				"energy": -0.02934,
				"method": "rhf"
			},
			{
				"type": "unocc",
				"energy": 0.04106,
				"method": "rhf"
			},
			{
				"type": "unocc",
				"energy": 0.07276,
				"method": "rhf"
			},
			{
				"type": "unocc",
				"energy": 0.07551,
				"method": "rhf"
			}
		],
		"cosmo_sigma_profile": { 
			"-0.025": 0.0,
			"-0.024": 0.0,
			"-0.023": 0.0,
			"-0.022": 0.0,
			"-0.021": 0.0,
			"-0.02": 0.0,
			"-0.019": 0.0,
			"-0.018": 0.0,
			"-0.017": 0.0,
			"-0.016": 0.0,
			"-0.015": 0.0,
			"-0.014": 0.0,
			"-0.013": 0.0,
			"-0.012": 0.181791163691,
			"-0.011": 1.40357953161,
			"-0.01": 1.30701713221,
			"-0.009": 2.71817932259,
			"-0.008": 5.72431336904,
			"-0.007": 7.78641309779,
			"-0.006": 8.63229173204,
			"-0.005": 7.83538950127,
			"-0.004": 10.3282660414,
			"-0.003": 11.6579477464,
			"-0.002": 15.7622606855,
			"-0.001": 25.7935257933,
			"0.0": 21.4293441884,
			"0.001": 16.9609695578,
			"0.002": 13.3858021352,
			"0.003": 12.0045579512,
			"0.004": 14.0407255533,
			"0.005": 8.5885698762,
			"0.006": 4.49224505381,
			"0.007": 3.32634284224,
			"0.008": 2.16523809311,
			"0.009": 1.66319106795,
			"0.01": 1.26608597546,
			"0.011": 0.741942849444,
			"0.012": 1.4441183151,
			"0.013": 1.28711215622,
			"0.014": 0.907415535121,
			"0.015": 0.680448273202,
			"0.016": 1.09664659752,
			"0.017": 0.949595405329,
			"0.018": 0.404540703436,
			"0.019": 0.0,
			"0.02": 0.0,
			"0.021": 0.0,
			"0.022": 0.0,
			"0.023": 0.0,
			"0.024": 0.0,
			"0.025": 0.0
		}
	}
}
