{
	 "smiles": "OC(=O)C=CC1=C(C=CC=C1)C(O)=O", 
	 "Tm": 473.15, 
	 "num_atms": 22, 
	 "gaussian": { 
		 "optdone": 1, 
		 "sigma_profile": "yes", 
		 "theory": "DFT", 
		 "functional": "B3LYP", 
		 "basiset": "6-31G**", 
		 "properties": { 
			 "R2extent": 3337.9713, 
			 "electric_dipole_moment_norm": 6.47699248263, 
			 "electric_quadrupole_moment_norm": 13.893270882, 
			 "total_energy": -686.775685933, 
			 "HOMO_LUMO_gap": 0.17355, 
			 "cosmo_polarized_energy": -21.76, 
			 "cosmo_cavitation_energy": 27.58, 
			 "cosmo_dispersion_energy": -19.92, 
			 "cosmo_repulsion_energy": 1.57, 
			 "cosmo_total_nonelectrostatic_energy": 9.22, 
			 "SMD_solvation_energy": 7.11 
		},
		"coords": [
			{
				"x": -4.0452669122,
				"y": 0.6295820643,
				"z": -0.7632568737,
				"element": "O" 
			},
			{
				"x": -2.8492361218,
				"y": 0.2296876677,
				"z": -1.2721561314,
				"element": "C" 
			},
			{
				"x": -2.6956513901,
				"y": 0.1603858859,
				"z": -2.4712547139,
				"element": "O" 
			},
			{
				"x": -1.8059475001,
				"y": -0.0959284364,
				"z": -0.2589009001,
				"element": "C" 
			},
			{
				"x": -0.592954884,
				"y": -0.4852408406,
				"z": -0.6859571585,
				"element": "C" 
			},
			{
				"x": 0.6069177299,
				"y": -0.8967527684,
				"z": 0.0595659773,
				"element": "C" 
			},
			{
				"x": 0.9962337131,
				"y": -0.5045213232,
				"z": 1.368566543,
				"element": "C" 
			},
			{
				"x": 2.2029595122,
				"y": -0.9802686923,
				"z": 1.9077763947,
				"element": "C" 
			},
			{
				"x": 3.0306421429,
				"y": -1.8460234576,
				"z": 1.1969505251,
				"element": "C" 
			},
			{
				"x": 2.6728068027,
				"y": -2.2171400258,
				"z": -0.0981686015,
				"element": "C" 
			},
			{
				"x": 1.492950956,
				"y": -1.7316750326,
				"z": -0.6522100841,
				"element": "C" 
			},
			{
				"x": 0.1976831455,
				"y": 0.4109757334,
				"z": 2.2570123945,
				"element": "C" 
			},
			{
				"x": 0.9117824795,
				"y": 1.4185502347,
				"z": 2.8229475653,
				"element": "O" 
			},
			{
				"x": -0.9725956929,
				"y": 0.2857046272,
				"z": 2.5340499904,
				"element": "O" 
			},
			{
				"x": -4.0080399534,
				"y": 0.6449957349,
				"z": 0.2037265537,
				"element": "H" 
			},
			{
				"x": -2.0428437721,
				"y": -0.030236896,
				"z": 0.796156702,
				"element": "H" 
			},
			{
				"x": -0.4906894492,
				"y": -0.5580371237,
				"z": -1.7686005619,
				"element": "H" 
			},
			{
				"x": 2.4810199031,
				"y": -0.6861247849,
				"z": 2.9162534107,
				"element": "H" 
			},
			{
				"x": 3.9467347709,
				"y": -2.2149554589,
				"z": 1.647331332,
				"element": "H" 
			},
			{
				"x": 3.3116346556,
				"y": -2.8756699684,
				"z": -0.6786334151,
				"element": "H" 
			},
			{
				"x": 1.228408666,
				"y": -2.0105797637,
				"z": -1.6680092206,
				"element": "H" 
			},
			{
				"x": 1.7961511983,
				"y": 1.4527726242,
				"z": 2.430410272,
				"element": "H" 
			}
		],
		 "valence_orbital": [ 
			{
				"type": "occ",
				"energy": -0.30544,
				"method": "rhf"
			},
			{
				"type": "occ",
				"energy": -0.2967,
				"method": "rhf"
			},
			{
				"type": "occ",
				"energy": -0.28031,
				"method": "rhf"
			},
			{
				"type": "occ",
				"energy": -0.26681,
				"method": "rhf"
			},
			{
				"type": "occ",
				"energy": -0.25425,
				"method": "rhf"
			},
			{
				"type": "unocc",
				"energy": -0.0807,
				"method": "rhf"
			},
			{
				"type": "unocc",
				"energy": -0.04792,
				"method": "rhf"
			},
			{
				"type": "unocc",
				"energy": -0.00673,
				"method": "rhf"
			},
			{
				"type": "unocc",
				"energy": 0.01413,
				"method": "rhf"
			},
			{
				"type": "unocc",
				"energy": 0.0637,
				"method": "rhf"
			}
		],
		"cosmo_sigma_profile": { 
			"-0.025": 0.0,
			"-0.024": 0.0,
			"-0.023": 0.0,
			"-0.022": 0.0,
			"-0.021": 0.0,
			"-0.02": 0.04303097342,
			"-0.019": 0.978130118405,
			"-0.018": 1.68355161862,
			"-0.017": 1.35769841895,
			"-0.016": 2.29124053916,
			"-0.015": 1.69753450087,
			"-0.014": 1.56128418268,
			"-0.013": 2.47281229351,
			"-0.012": 2.20300309341,
			"-0.011": 1.80731629472,
			"-0.01": 2.00381675655,
			"-0.009": 1.76529056171,
			"-0.008": 4.67597797311,
			"-0.007": 11.7887545456,
			"-0.006": 13.1842290701,
			"-0.005": 10.6783070461,
			"-0.004": 9.11156299245,
			"-0.003": 9.80099961931,
			"-0.002": 10.4655020325,
			"-0.001": 11.3414476594,
			"0.0": 12.1545736432,
			"0.001": 17.9411924622,
			"0.002": 19.4532962986,
			"0.003": 11.8605609163,
			"0.004": 3.83814943942,
			"0.005": 4.37968999377,
			"0.006": 5.47120458403,
			"0.007": 4.87745524463,
			"0.008": 5.15570498896,
			"0.009": 5.97596750399,
			"0.01": 11.0036943124,
			"0.011": 7.28257671282,
			"0.012": 7.53037642908,
			"0.013": 3.00672628298,
			"0.014": 0.328231673051,
			"0.015": 0.0,
			"0.016": 0.0,
			"0.017": 0.0,
			"0.018": 0.0,
			"0.019": 0.0,
			"0.02": 0.0,
			"0.021": 0.0,
			"0.022": 0.0,
			"0.023": 0.0,
			"0.024": 0.0,
			"0.025": 0.0
		}
	}
}
