{
	 "smiles": "OC1=CC=C(CC#N)C=C1", 
	 "Tm": 343.15, 
	 "num_atms": 17, 
	 "gaussian": { 
		 "optdone": 1, 
		 "sigma_profile": "yes", 
		 "theory": "DFT", 
		 "functional": "B3LYP", 
		 "basiset": "6-31G**", 
		 "properties": { 
			 "R2extent": 2004.3995, 
			 "electric_dipole_moment_norm": 4.26115828619, 
			 "electric_quadrupole_moment_norm": 21.5482165448, 
			 "total_energy": -439.023310387, 
			 "HOMO_LUMO_gap": 0.21456, 
			 "cosmo_polarized_energy": -14.81, 
			 "cosmo_cavitation_energy": 22.44, 
			 "cosmo_dispersion_energy": -15.83, 
			 "cosmo_repulsion_energy": 1.3, 
			 "cosmo_total_nonelectrostatic_energy": 7.91, 
			 "SMD_solvation_energy": 5.68 
		},
		"coords": [
			{
				"x": 1.9466611731,
				"y": -1.0475925778,
				"z": 1.3305967014,
				"element": "O" 
			},
			{
				"x": 1.0654293424,
				"y": -0.5568657373,
				"z": 0.4122581386,
				"element": "C" 
			},
			{
				"x": -0.0919352345,
				"y": 0.1435139632,
				"z": 0.7702731341,
				"element": "C" 
			},
			{
				"x": -0.9484253251,
				"y": 0.6219307189,
				"z": -0.2197762981,
				"element": "C" 
			},
			{
				"x": -0.6689481164,
				"y": 0.4143422861,
				"z": -1.5737006715,
				"element": "C" 
			},
			{
				"x": -1.6138191459,
				"y": 0.9292346031,
				"z": -2.6500400497,
				"element": "C" 
			},
			{
				"x": -2.7216338966,
				"y": 0.004857904,
				"z": -2.9346806851,
				"element": "C" 
			},
			{
				"x": -3.5946468471,
				"y": -0.7289935837,
				"z": -3.1507909551,
				"element": "N" 
			},
			{
				"x": 0.492534335,
				"y": -0.2885897907,
				"z": -1.9170180135,
				"element": "C" 
			},
			{
				"x": 1.3569745341,
				"y": -0.7714852901,
				"z": -0.9396035314,
				"element": "C" 
			},
			{
				"x": 1.6260291281,
				"y": -0.8485641451,
				"z": 2.2198869316,
				"element": "H" 
			},
			{
				"x": -0.3220894381,
				"y": 0.3163869065,
				"z": 1.8193816473,
				"element": "H" 
			},
			{
				"x": -1.8455450519,
				"y": 1.1624116146,
				"z": 0.0710120259,
				"element": "H" 
			},
			{
				"x": -2.0473459505,
				"y": 1.892074007,
				"z": -2.3552836465,
				"element": "H" 
			},
			{
				"x": -1.0705782983,
				"y": 1.1040035579,
				"z": -3.5855818131,
				"element": "H" 
			},
			{
				"x": 0.7268676195,
				"y": -0.4624746728,
				"z": -2.964126951,
				"element": "H" 
			},
			{
				"x": 2.2588711723,
				"y": -1.313789764,
				"z": -1.202605964,
				"element": "H" 
			}
		],
		 "valence_orbital": [ 
			{
				"type": "occ",
				"energy": -0.34107,
				"method": "rhf"
			},
			{
				"type": "occ",
				"energy": -0.3199,
				"method": "rhf"
			},
			{
				"type": "occ",
				"energy": -0.31955,
				"method": "rhf"
			},
			{
				"type": "occ",
				"energy": -0.26475,
				"method": "rhf"
			},
			{
				"type": "occ",
				"energy": -0.23194,
				"method": "rhf"
			},
			{
				"type": "unocc",
				"energy": -0.01738,
				"method": "rhf"
			},
			{
				"type": "unocc",
				"energy": -0.00605,
				"method": "rhf"
			},
			{
				"type": "unocc",
				"energy": 0.04274,
				"method": "rhf"
			},
			{
				"type": "unocc",
				"energy": 0.04525,
				"method": "rhf"
			},
			{
				"type": "unocc",
				"energy": 0.06193,
				"method": "rhf"
			}
		],
		"cosmo_sigma_profile": { 
			"-0.025": 0.0,
			"-0.024": 0.0,
			"-0.023": 0.0,
			"-0.022": 0.0,
			"-0.021": 0.0,
			"-0.02": 0.0,
			"-0.019": 0.0,
			"-0.018": 0.568813910782,
			"-0.017": 0.94581650467,
			"-0.016": 1.1302089344,
			"-0.015": 1.20453907923,
			"-0.014": 1.24514425695,
			"-0.013": 0.596199321644,
			"-0.012": 0.946835192085,
			"-0.011": 0.764704746747,
			"-0.01": 1.54181242788,
			"-0.009": 2.22821150026,
			"-0.008": 8.18146823517,
			"-0.007": 9.30410982349,
			"-0.006": 12.6707051214,
			"-0.005": 11.62921744,
			"-0.004": 10.5106431392,
			"-0.003": 7.59177862443,
			"-0.002": 6.64655988863,
			"-0.001": 6.78296459379,
			"0.0": 7.79402293327,
			"0.001": 6.68139607812,
			"0.002": 9.55996666289,
			"0.003": 12.0180963499,
			"0.004": 14.2363660017,
			"0.005": 11.06320414,
			"0.006": 5.0544604331,
			"0.007": 3.76207325016,
			"0.008": 4.55742977386,
			"0.009": 5.1725584372,
			"0.01": 4.89798576317,
			"0.011": 5.17690334717,
			"0.012": 2.85318654227,
			"0.013": 2.12771915197,
			"0.014": 0.489459526489,
			"0.015": 0.0,
			"0.016": 0.0,
			"0.017": 0.0,
			"0.018": 0.0,
			"0.019": 0.0,
			"0.02": 0.0,
			"0.021": 0.0,
			"0.022": 0.0,
			"0.023": 0.0,
			"0.024": 0.0,
			"0.025": 0.0
		}
	}
}
