{
	 "smiles": "NN=C1NN=C(C=C1)C(N)=O", 
	 "Tm": 525.15, 
	 "num_atms": 18, 
	 "gaussian": { 
		 "optdone": 1, 
		 "sigma_profile": "yes", 
		 "theory": "DFT", 
		 "functional": "B3LYP", 
		 "basiset": "6-31G**", 
		 "properties": { 
			 "R2extent": 2823.0498, 
			 "electric_dipole_moment_norm": 2.66085019871, 
			 "electric_quadrupole_moment_norm": 15.5026794558, 
			 "total_energy": -543.673287003, 
			 "HOMO_LUMO_gap": 0.12395, 
			 "cosmo_polarized_energy": -17.3, 
			 "cosmo_cavitation_energy": 23.01, 
			 "cosmo_dispersion_energy": -17.48, 
			 "cosmo_repulsion_energy": 1.44, 
			 "cosmo_total_nonelectrostatic_energy": 6.97, 
			 "SMD_solvation_energy": 3.91 
		},
		"coords": [
			{
				"x": -3.7696772557,
				"y": -2.2935353654,
				"z": -0.5164025034,
				"element": "N" 
			},
			{
				"x": -3.7601636594,
				"y": -0.8923814101,
				"z": -0.2405252738,
				"element": "N" 
			},
			{
				"x": -2.6313164379,
				"y": -0.3181704934,
				"z": -0.4811079193,
				"element": "C" 
			},
			{
				"x": -2.5675935445,
				"y": 1.0634301523,
				"z": -0.2184887587,
				"element": "N" 
			},
			{
				"x": -1.541629385,
				"y": 1.877391646,
				"z": -0.4354845911,
				"element": "N" 
			},
			{
				"x": -0.4439034574,
				"y": 1.3548714376,
				"z": -0.9228908883,
				"element": "C" 
			},
			{
				"x": -0.3229450838,
				"y": -0.0553721895,
				"z": -1.1996597848,
				"element": "C" 
			},
			{
				"x": -1.3825160371,
				"y": -0.8697323705,
				"z": -0.986767771,
				"element": "C" 
			},
			{
				"x": 0.7231304581,
				"y": 2.2594841637,
				"z": -1.1802094784,
				"element": "C" 
			},
			{
				"x": 0.5244340861,
				"y": 3.5706725769,
				"z": -0.8801543809,
				"element": "N" 
			},
			{
				"x": 1.7729613523,
				"y": 1.8132027058,
				"z": -1.6337572311,
				"element": "O" 
			},
			{
				"x": -4.6943164913,
				"y": -2.6098035057,
				"z": -0.238737396,
				"element": "H" 
			},
			{
				"x": -3.7241434915,
				"y": -2.4386481261,
				"z": -1.5278193838,
				"element": "H" 
			},
			{
				"x": -3.4024305689,
				"y": 1.4936683939,
				"z": 0.1589898097,
				"element": "H" 
			},
			{
				"x": 0.6327873211,
				"y": -0.4160082945,
				"z": -1.5622388633,
				"element": "H" 
			},
			{
				"x": -1.3365515363,
				"y": -1.9397314745,
				"z": -1.1476588449,
				"element": "H" 
			},
			{
				"x": -0.3534962752,
				"y": 3.8828170741,
				"z": -0.4969405161,
				"element": "H" 
			},
			{
				"x": 1.2845700065,
				"y": 4.2152450794,
				"z": -1.0240462245,
				"element": "H" 
			}
		],
		 "valence_orbital": [ 
			{
				"type": "occ",
				"energy": -0.30658,
				"method": "rhf"
			},
			{
				"type": "occ",
				"energy": -0.26678,
				"method": "rhf"
			},
			{
				"type": "occ",
				"energy": -0.25709,
				"method": "rhf"
			},
			{
				"type": "occ",
				"energy": -0.24845,
				"method": "rhf"
			},
			{
				"type": "occ",
				"energy": -0.19137,
				"method": "rhf"
			},
			{
				"type": "unocc",
				"energy": -0.06742,
				"method": "rhf"
			},
			{
				"type": "unocc",
				"energy": -0.02149,
				"method": "rhf"
			},
			{
				"type": "unocc",
				"energy": 0.06927,
				"method": "rhf"
			},
			{
				"type": "unocc",
				"energy": 0.08365,
				"method": "rhf"
			},
			{
				"type": "unocc",
				"energy": 0.08525,
				"method": "rhf"
			}
		],
		"cosmo_sigma_profile": { 
			"-0.025": 0.0,
			"-0.024": 0.0,
			"-0.023": 0.0,
			"-0.022": 0.0,
			"-0.021": 0.0,
			"-0.02": 0.0,
			"-0.019": 0.0,
			"-0.018": 0.0,
			"-0.017": 0.0,
			"-0.016": 0.679883812095,
			"-0.015": 1.34959566198,
			"-0.014": 1.92790045238,
			"-0.013": 1.41720907846,
			"-0.012": 3.13444839798,
			"-0.011": 4.64851716306,
			"-0.01": 6.36359399017,
			"-0.009": 5.06038106078,
			"-0.008": 4.93737322832,
			"-0.007": 7.40033640143,
			"-0.006": 7.17351062993,
			"-0.005": 5.9368309853,
			"-0.004": 6.56617474574,
			"-0.003": 6.42216432207,
			"-0.002": 10.4819245648,
			"-0.001": 15.2868208979,
			"0.0": 14.8162461269,
			"0.001": 12.4633286074,
			"0.002": 9.72401837173,
			"0.003": 6.6437068269,
			"0.004": 6.98330668351,
			"0.005": 5.97907376294,
			"0.006": 3.13274270084,
			"0.007": 3.04379116426,
			"0.008": 2.95453589953,
			"0.009": 3.23058745053,
			"0.01": 3.63373080041,
			"0.011": 3.61739811051,
			"0.012": 3.4327699182,
			"0.013": 6.37643148268,
			"0.014": 4.82224433104,
			"0.015": 2.01164916249,
			"0.016": 0.821914408453,
			"0.017": 0.224520311361,
			"0.018": 0.0,
			"0.019": 0.0,
			"0.02": 0.0,
			"0.021": 0.0,
			"0.022": 0.0,
			"0.023": 0.0,
			"0.024": 0.0,
			"0.025": 0.0
		}
	}
}
