{
	 "smiles": "NC(=NO)C1=CC2=CC=CC=C2C=C1", 
	 "Tm": 423.15, 
	 "num_atms": 24, 
	 "gaussian": { 
		 "optdone": 1, 
		 "sigma_profile": "yes", 
		 "theory": "DFT", 
		 "functional": "B3LYP", 
		 "basiset": "6-31G**", 
		 "properties": { 
			 "R2extent": 3653.7786, 
			 "electric_dipole_moment_norm": 1.46495509146, 
			 "electric_quadrupole_moment_norm": 11.0566767091, 
			 "total_energy": -609.889162489, 
			 "HOMO_LUMO_gap": 0.16202, 
			 "cosmo_polarized_energy": -12.28, 
			 "cosmo_cavitation_energy": 28.01, 
			 "cosmo_dispersion_energy": -21.03, 
			 "cosmo_repulsion_energy": 1.64, 
			 "cosmo_total_nonelectrostatic_energy": 8.62, 
			 "SMD_solvation_energy": 4.58 
		},
		"coords": [
			{
				"x": 0.9506151073,
				"y": -2.7095920848,
				"z": 0.1454918478,
				"element": "N" 
			},
			{
				"x": 1.3247476458,
				"y": -1.4310064441,
				"z": 0.5178134812,
				"element": "C" 
			},
			{
				"x": 2.2622289145,
				"y": -1.1738156076,
				"z": 1.3735123373,
				"element": "N" 
			},
			{
				"x": 2.7547931803,
				"y": -2.3890017651,
				"z": 1.9232705133,
				"element": "O" 
			},
			{
				"x": 0.6612467465,
				"y": -0.2820758962,
				"z": -0.1405978607,
				"element": "C" 
			},
			{
				"x": -0.0010255461,
				"y": -0.4372633086,
				"z": -1.3453096715,
				"element": "C" 
			},
			{
				"x": -0.6489609499,
				"y": 0.6560326616,
				"z": -1.9785086006,
				"element": "C" 
			},
			{
				"x": -1.3347071409,
				"y": 0.5136898656,
				"z": -3.2151738655,
				"element": "C" 
			},
			{
				"x": -1.9544893518,
				"y": 1.5925744669,
				"z": -3.8056762447,
				"element": "C" 
			},
			{
				"x": -1.9160462384,
				"y": 2.8657227457,
				"z": -3.1863078358,
				"element": "C" 
			},
			{
				"x": -1.2564359745,
				"y": 3.0361210664,
				"z": -1.9886297156,
				"element": "C" 
			},
			{
				"x": -0.606552042,
				"y": 1.9445572402,
				"z": -1.3555386942,
				"element": "C" 
			},
			{
				"x": 0.0905370639,
				"y": 2.0799941366,
				"z": -0.1222419517,
				"element": "C" 
			},
			{
				"x": 0.7046546124,
				"y": 1.0053054382,
				"z": 0.4698609793,
				"element": "C" 
			},
			{
				"x": 1.3312492493,
				"y": -3.4267220331,
				"z": 0.7487062868,
				"element": "H" 
			},
			{
				"x": -0.0285657343,
				"y": -2.8280378833,
				"z": -0.0717948242,
				"element": "H" 
			},
			{
				"x": 3.4319623338,
				"y": -2.0718824239,
				"z": 2.5327106962,
				"element": "H" 
			},
			{
				"x": -0.0076278296,
				"y": -1.4023831561,
				"z": -1.8439856487,
				"element": "H" 
			},
			{
				"x": -1.3619362636,
				"y": -0.4643808537,
				"z": -3.6890204324,
				"element": "H" 
			},
			{
				"x": -2.4759253088,
				"y": 1.4711928118,
				"z": -4.7507464626,
				"element": "H" 
			},
			{
				"x": -2.4084769166,
				"y": 3.7088922278,
				"z": -3.6620906725,
				"element": "H" 
			},
			{
				"x": -1.2232004446,
				"y": 4.0126146752,
				"z": -1.5120720985,
				"element": "H" 
			},
			{
				"x": 0.1253177831,
				"y": 3.0569670738,
				"z": 0.3532094874,
				"element": "H" 
			},
			{
				"x": 1.231097104,
				"y": 1.1099970466,
				"z": 1.4114189497,
				"element": "H" 
			}
		],
		 "valence_orbital": [ 
			{
				"type": "occ",
				"energy": -0.28426,
				"method": "rhf"
			},
			{
				"type": "occ",
				"energy": -0.27233,
				"method": "rhf"
			},
			{
				"type": "occ",
				"energy": -0.24794,
				"method": "rhf"
			},
			{
				"type": "occ",
				"energy": -0.21994,
				"method": "rhf"
			},
			{
				"type": "occ",
				"energy": -0.20601,
				"method": "rhf"
			},
			{
				"type": "unocc",
				"energy": -0.04399,
				"method": "rhf"
			},
			{
				"type": "unocc",
				"energy": -0.01895,
				"method": "rhf"
			},
			{
				"type": "unocc",
				"energy": 0.02666,
				"method": "rhf"
			},
			{
				"type": "unocc",
				"energy": 0.05158,
				"method": "rhf"
			},
			{
				"type": "unocc",
				"energy": 0.0724,
				"method": "rhf"
			}
		],
		"cosmo_sigma_profile": { 
			"-0.025": 0.0,
			"-0.024": 0.0,
			"-0.023": 0.0,
			"-0.022": 0.0,
			"-0.021": 0.0,
			"-0.02": 0.0,
			"-0.019": 0.0,
			"-0.018": 0.0,
			"-0.017": 0.495751306319,
			"-0.016": 1.05010046529,
			"-0.015": 0.993783738727,
			"-0.014": 0.834282203435,
			"-0.013": 1.29523998359,
			"-0.012": 2.12021160223,
			"-0.011": 2.26872202112,
			"-0.01": 2.6676578365,
			"-0.009": 2.92583352175,
			"-0.008": 3.08067905592,
			"-0.007": 3.9335796592,
			"-0.006": 13.1063313831,
			"-0.005": 15.8423901064,
			"-0.004": 13.8158442949,
			"-0.003": 13.2863704367,
			"-0.002": 10.3870045928,
			"-0.001": 9.06252124924,
			"0.0": 12.1505776189,
			"0.001": 11.5531883763,
			"0.002": 13.7084583351,
			"0.003": 20.546361713,
			"0.004": 26.6881737887,
			"0.005": 14.9429096343,
			"0.006": 6.12293229091,
			"0.007": 4.66857759132,
			"0.008": 5.40058291147,
			"0.009": 4.20017662765,
			"0.01": 2.55781859756,
			"0.011": 1.60776399135,
			"0.012": 1.19582940823,
			"0.013": 0.747591659684,
			"0.014": 0.346832119294,
			"0.015": 0.0,
			"0.016": 0.0,
			"0.017": 0.0,
			"0.018": 0.0,
			"0.019": 0.0,
			"0.02": 0.0,
			"0.021": 0.0,
			"0.022": 0.0,
			"0.023": 0.0,
			"0.024": 0.0,
			"0.025": 0.0
		}
	}
}
