{
	 "smiles": "CCOCC", 
	 "Tm": 157.15, 
	 "num_atms": 15, 
	 "gaussian": { 
		 "optdone": 1, 
		 "sigma_profile": "yes", 
		 "theory": "DFT", 
		 "functional": "B3LYP", 
		 "basiset": "6-31G**", 
		 "properties": { 
			 "R2extent": 873.8923, 
			 "electric_dipole_moment_norm": 1.14467003543, 
			 "electric_quadrupole_moment_norm": 3.55104980816, 
			 "total_energy": -233.670713203, 
			 "HOMO_LUMO_gap": 0.33923, 
			 "cosmo_polarized_energy": -3.42, 
			 "cosmo_cavitation_energy": 17.19, 
			 "cosmo_dispersion_energy": -12.9, 
			 "cosmo_repulsion_energy": 1.17, 
			 "cosmo_total_nonelectrostatic_energy": 5.45, 
			 "SMD_solvation_energy": 3.45 
		},
		"coords": [
			{
				"x": -0.7200581517,
				"y": -2.188745751,
				"z": -0.6537410235,
				"element": "C" 
			},
			{
				"x": -0.6807399172,
				"y": -0.7089987561,
				"z": -1.001645376,
				"element": "C" 
			},
			{
				"x": -1.8300378809,
				"y": -0.0937791146,
				"z": -0.4430536602,
				"element": "O" 
			},
			{
				"x": -2.0021979662,
				"y": 1.2708730091,
				"z": -0.7927832346,
				"element": "C" 
			},
			{
				"x": -1.071325998,
				"y": 2.2227309642,
				"z": -0.0408471733,
				"element": "C" 
			},
			{
				"x": -1.624892793,
				"y": -2.6529729666,
				"z": -1.0565653321,
				"element": "H" 
			},
			{
				"x": -0.7202326745,
				"y": -2.3263673253,
				"z": 0.4315176231,
				"element": "H" 
			},
			{
				"x": 0.1520730119,
				"y": -2.7039890451,
				"z": -1.0687958188,
				"element": "H" 
			},
			{
				"x": 0.244147604,
				"y": -0.2544037412,
				"z": -0.6123219244,
				"element": "H" 
			},
			{
				"x": -0.6722731615,
				"y": -0.5697195159,
				"z": -2.0966885301,
				"element": "H" 
			},
			{
				"x": -1.8818612054,
				"y": 1.402267323,
				"z": -1.8814501662,
				"element": "H" 
			},
			{
				"x": -3.0444096486,
				"y": 1.504647829,
				"z": -0.5494119335,
				"element": "H" 
			},
			{
				"x": -1.1841496341,
				"y": 2.0904164867,
				"z": 1.0395187879,
				"element": "H" 
			},
			{
				"x": -1.313349122,
				"y": 3.2621498063,
				"z": -0.2882214221,
				"element": "H" 
			},
			{
				"x": -0.0203924628,
				"y": 2.0575907976,
				"z": -0.2977108161,
				"element": "H" 
			}
		],
		 "valence_orbital": [ 
			{
				"type": "occ",
				"energy": -0.37016,
				"method": "rhf"
			},
			{
				"type": "occ",
				"energy": -0.35356,
				"method": "rhf"
			},
			{
				"type": "occ",
				"energy": -0.33953,
				"method": "rhf"
			},
			{
				"type": "occ",
				"energy": -0.30182,
				"method": "rhf"
			},
			{
				"type": "occ",
				"energy": -0.24642,
				"method": "rhf"
			},
			{
				"type": "unocc",
				"energy": 0.09281,
				"method": "rhf"
			},
			{
				"type": "unocc",
				"energy": 0.11864,
				"method": "rhf"
			},
			{
				"type": "unocc",
				"energy": 0.12786,
				"method": "rhf"
			},
			{
				"type": "unocc",
				"energy": 0.14299,
				"method": "rhf"
			},
			{
				"type": "unocc",
				"energy": 0.1519,
				"method": "rhf"
			}
		],
		"cosmo_sigma_profile": { 
			"-0.025": 0.0,
			"-0.024": 0.0,
			"-0.023": 0.0,
			"-0.022": 0.0,
			"-0.021": 0.0,
			"-0.02": 0.0,
			"-0.019": 0.0,
			"-0.018": 0.0,
			"-0.017": 0.0,
			"-0.016": 0.0,
			"-0.015": 0.0,
			"-0.014": 0.0,
			"-0.013": 0.0,
			"-0.012": 0.0,
			"-0.011": 0.0,
			"-0.01": 0.0,
			"-0.009": 0.0,
			"-0.008": 0.0,
			"-0.007": 0.0,
			"-0.006": 0.0,
			"-0.005": 0.0477333010557,
			"-0.004": 5.55253468848,
			"-0.003": 21.839039113,
			"-0.002": 27.9446224371,
			"-0.001": 22.5711531053,
			"0.0": 16.5944955516,
			"0.001": 15.7396602674,
			"0.002": 5.08372322491,
			"0.003": 1.37215344438,
			"0.004": 2.57208724813,
			"0.005": 1.47877132194,
			"0.006": 1.59229657753,
			"0.007": 1.15936577552,
			"0.008": 1.84489413741,
			"0.009": 1.06107597084,
			"0.01": 1.24002860812,
			"0.011": 1.47902278357,
			"0.012": 1.09914096943,
			"0.013": 1.54190209361,
			"0.014": 1.04626902575,
			"0.015": 0.0,
			"0.016": 0.0,
			"0.017": 0.0,
			"0.018": 0.0,
			"0.019": 0.0,
			"0.02": 0.0,
			"0.021": 0.0,
			"0.022": 0.0,
			"0.023": 0.0,
			"0.024": 0.0,
			"0.025": 0.0
		}
	}
}
