{
	 "smiles": "NC(=O)C(N)=O", 
	 "Tm": 764.15, 
	 "num_atms": 10, 
	 "gaussian": { 
		 "optdone": 1, 
		 "sigma_profile": "yes", 
		 "theory": "DFT", 
		 "functional": "B3LYP", 
		 "basiset": "6-31G**", 
		 "properties": { 
			 "R2extent": 741.8313, 
			 "electric_dipole_moment_norm": 0.0004472135955, 
			 "electric_quadrupole_moment_norm": 12.9158832834, 
			 "total_energy": -338.608769274, 
			 "HOMO_LUMO_gap": 0.20926, 
			 "cosmo_polarized_energy": -13.72, 
			 "cosmo_cavitation_energy": 14.59, 
			 "cosmo_dispersion_energy": -11.15, 
			 "cosmo_repulsion_energy": 1.01, 
			 "cosmo_total_nonelectrostatic_energy": 4.44, 
			 "SMD_solvation_energy": 4.55 
		},
		"coords": [
			{
				"x": 0.2149151841,
				"y": -0.5521351295,
				"z": 1.5024007728,
				"element": "N" 
			},
			{
				"x": 0.0684113356,
				"y": 0.5887973084,
				"z": 0.8003178771,
				"element": "C" 
			},
			{
				"x": 0.9618976357,
				"y": 1.3524155924,
				"z": 0.4510902572,
				"element": "O" 
			},
			{
				"x": -1.4153188501,
				"y": 0.8596198434,
				"z": 0.4573042273,
				"element": "C" 
			},
			{
				"x": -1.5618128384,
				"y": 2.0005037761,
				"z": -0.244859757,
				"element": "N" 
			},
			{
				"x": -2.3088141681,
				"y": 0.0960459439,
				"z": 0.806605753,
				"element": "O" 
			},
			{
				"x": -0.6150527034,
				"y": -1.0852484212,
				"z": 1.7210318364,
				"element": "H" 
			},
			{
				"x": 1.1305775414,
				"y": -0.8535613813,
				"z": 1.7945897034,
				"element": "H" 
			},
			{
				"x": -2.4774698465,
				"y": 2.3019032479,
				"z": -0.5370932032,
				"element": "H" 
			},
			{
				"x": -0.7318332902,
				"y": 2.53355922,
				"z": -0.463587467,
				"element": "H" 
			}
		],
		 "valence_orbital": [ 
			{
				"type": "occ",
				"energy": -0.38203,
				"method": "rhf"
			},
			{
				"type": "occ",
				"energy": -0.31139,
				"method": "rhf"
			},
			{
				"type": "occ",
				"energy": -0.28758,
				"method": "rhf"
			},
			{
				"type": "occ",
				"energy": -0.27361,
				"method": "rhf"
			},
			{
				"type": "occ",
				"energy": -0.24369,
				"method": "rhf"
			},
			{
				"type": "unocc",
				"energy": -0.03443,
				"method": "rhf"
			},
			{
				"type": "unocc",
				"energy": 0.0835,
				"method": "rhf"
			},
			{
				"type": "unocc",
				"energy": 0.08749,
				"method": "rhf"
			},
			{
				"type": "unocc",
				"energy": 0.10346,
				"method": "rhf"
			},
			{
				"type": "unocc",
				"energy": 0.14171,
				"method": "rhf"
			}
		],
		"cosmo_sigma_profile": { 
			"-0.025": 0.0,
			"-0.024": 0.0,
			"-0.023": 0.0,
			"-0.022": 0.0,
			"-0.021": 0.0,
			"-0.02": 0.0,
			"-0.019": 0.0,
			"-0.018": 0.0,
			"-0.017": 0.0,
			"-0.016": 0.110002887278,
			"-0.015": 2.52704996666,
			"-0.014": 2.02844979674,
			"-0.013": 3.60741299696,
			"-0.012": 3.75116257672,
			"-0.011": 3.91253015152,
			"-0.01": 3.57161956404,
			"-0.009": 4.06499748997,
			"-0.008": 2.68429803144,
			"-0.007": 2.16915029728,
			"-0.006": 2.78893700438,
			"-0.005": 3.37862592486,
			"-0.004": 4.27712100701,
			"-0.003": 4.23648484813,
			"-0.002": 4.86057203881,
			"-0.001": 7.13524250573,
			"0.0": 5.67269817343,
			"0.001": 7.53529787033,
			"0.002": 7.2063575211,
			"0.003": 3.76306273675,
			"0.004": 2.42460000891,
			"0.005": 2.10895499072,
			"0.006": 2.12401974573,
			"0.007": 1.53381572002,
			"0.008": 2.34712274572,
			"0.009": 3.72382908664,
			"0.01": 2.97590747687,
			"0.011": 4.15443213428,
			"0.012": 6.85343031296,
			"0.013": 6.16888125325,
			"0.014": 1.62667367377,
			"0.015": 0.0,
			"0.016": 0.0,
			"0.017": 0.0,
			"0.018": 0.0,
			"0.019": 0.0,
			"0.02": 0.0,
			"0.021": 0.0,
			"0.022": 0.0,
			"0.023": 0.0,
			"0.024": 0.0,
			"0.025": 0.0
		}
	}
}
