{
	 "smiles": "OC(=O)C1SCCC2=C1C=CC=C2", 
	 "Tm": 404.15, 
	 "num_atms": 23, 
	 "gaussian": { 
		 "optdone": 1, 
		 "sigma_profile": "yes", 
		 "theory": "DFT", 
		 "functional": "B3LYP", 
		 "basiset": "6-31G**", 
		 "properties": { 
			 "R2extent": 2572.618, 
			 "electric_dipole_moment_norm": 3.01945098321, 
			 "electric_quadrupole_moment_norm": 6.47071931936, 
			 "total_energy": -935.743485431, 
			 "HOMO_LUMO_gap": 0.20986, 
			 "cosmo_polarized_energy": -11.25, 
			 "cosmo_cavitation_energy": 27.18, 
			 "cosmo_dispersion_energy": -20.4, 
			 "cosmo_repulsion_energy": 1.57, 
			 "cosmo_total_nonelectrostatic_energy": 8.35, 
			 "SMD_solvation_energy": 4.76 
		},
		"coords": [
			{
				"x": 1.0012064123,
				"y": 0.980550739,
				"z": -1.5324840833,
				"element": "O" 
			},
			{
				"x": 0.5651883996,
				"y": -0.2213761065,
				"z": -1.9812067706,
				"element": "C" 
			},
			{
				"x": 0.8620039764,
				"y": -0.6583119162,
				"z": -3.070433027,
				"element": "O" 
			},
			{
				"x": -0.3187520231,
				"y": -0.9469516424,
				"z": -0.9702716349,
				"element": "C" 
			},
			{
				"x": -1.9444030363,
				"y": -0.1003088538,
				"z": -0.8133413259,
				"element": "S" 
			},
			{
				"x": -1.4726917186,
				"y": 1.1232617002,
				"z": 0.4649157133,
				"element": "C" 
			},
			{
				"x": -1.0035211191,
				"y": 0.4312395008,
				"z": 1.740394929,
				"element": "C" 
			},
			{
				"x": 0.1259393028,
				"y": -0.5694446952,
				"z": 1.5582821338,
				"element": "C" 
			},
			{
				"x": 0.4136920005,
				"y": -1.2117472138,
				"z": 0.3413751768,
				"element": "C" 
			},
			{
				"x": 1.4546772491,
				"y": -2.153443236,
				"z": 0.2868485186,
				"element": "C" 
			},
			{
				"x": 2.2095950189,
				"y": -2.4673862852,
				"z": 1.4119264965,
				"element": "C" 
			},
			{
				"x": 1.9277145154,
				"y": -1.8321415659,
				"z": 2.6229154728,
				"element": "C" 
			},
			{
				"x": 0.8986074561,
				"y": -0.8980807968,
				"z": 2.6836450417,
				"element": "C" 
			},
			{
				"x": 1.5327842808,
				"y": 1.3586498291,
				"z": -2.2530149645,
				"element": "H" 
			},
			{
				"x": -0.5587558641,
				"y": -1.9009644525,
				"z": -1.4449008486,
				"element": "H" 
			},
			{
				"x": -2.3724534141,
				"y": 1.7158113159,
				"z": 0.6511113738,
				"element": "H" 
			},
			{
				"x": -0.7039169961,
				"y": 1.7823276688,
				"z": 0.0550919753,
				"element": "H" 
			},
			{
				"x": -1.8594952342,
				"y": -0.0825817631,
				"z": 2.1975639645,
				"element": "H" 
			},
			{
				"x": -0.6821028756,
				"y": 1.1953298458,
				"z": 2.4601067216,
				"element": "H" 
			},
			{
				"x": 1.6700339496,
				"y": -2.6432272198,
				"z": -0.6600133062,
				"element": "H" 
			},
			{
				"x": 3.0072320404,
				"y": -3.2012504957,
				"z": 1.344890816,
				"element": "H" 
			},
			{
				"x": 2.5063773804,
				"y": -2.0621524998,
				"z": 3.5128522134,
				"element": "H" 
			},
			{
				"x": 0.6792402992,
				"y": -0.4032018569,
				"z": 3.6270454139,
				"element": "H" 
			}
		],
		 "valence_orbital": [ 
			{
				"type": "occ",
				"energy": -0.31095,
				"method": "rhf"
			},
			{
				"type": "occ",
				"energy": -0.28552,
				"method": "rhf"
			},
			{
				"type": "occ",
				"energy": -0.25101,
				"method": "rhf"
			},
			{
				"type": "occ",
				"energy": -0.2449,
				"method": "rhf"
			},
			{
				"type": "occ",
				"energy": -0.22887,
				"method": "rhf"
			},
			{
				"type": "unocc",
				"energy": -0.01901,
				"method": "rhf"
			},
			{
				"type": "unocc",
				"energy": -0.0117,
				"method": "rhf"
			},
			{
				"type": "unocc",
				"energy": 0.00968,
				"method": "rhf"
			},
			{
				"type": "unocc",
				"energy": 0.03945,
				"method": "rhf"
			},
			{
				"type": "unocc",
				"energy": 0.07098,
				"method": "rhf"
			}
		],
		"cosmo_sigma_profile": { 
			"-0.025": 0.0,
			"-0.024": 0.0,
			"-0.023": 0.0,
			"-0.022": 0.0,
			"-0.021": 0.0,
			"-0.02": 0.0,
			"-0.019": 0.0692607701529,
			"-0.018": 0.976017526056,
			"-0.017": 0.786917215958,
			"-0.016": 1.25277846326,
			"-0.015": 0.707865862822,
			"-0.014": 0.415236649385,
			"-0.013": 0.667565581352,
			"-0.012": 0.722377342125,
			"-0.011": 0.664978035227,
			"-0.01": 1.01662632202,
			"-0.009": 0.384292283802,
			"-0.008": 1.5681670359,
			"-0.007": 3.8101777051,
			"-0.006": 9.75739619322,
			"-0.005": 17.0146893008,
			"-0.004": 18.5720557253,
			"-0.003": 21.4794773109,
			"-0.002": 16.2492262075,
			"-0.001": 12.9384453717,
			"0.0": 10.5523306316,
			"0.001": 11.6930920462,
			"0.002": 11.2410028561,
			"0.003": 14.0008520873,
			"0.004": 14.9975041605,
			"0.005": 14.3137422056,
			"0.006": 8.9465493067,
			"0.007": 4.25423430793,
			"0.008": 4.46138599565,
			"0.009": 3.20386285684,
			"0.01": 2.38708750798,
			"0.011": 4.86756768353,
			"0.012": 3.05313367713,
			"0.013": 0.19881909429,
			"0.014": 0.0,
			"0.015": 0.0,
			"0.016": 0.0,
			"0.017": 0.0,
			"0.018": 0.0,
			"0.019": 0.0,
			"0.02": 0.0,
			"0.021": 0.0,
			"0.022": 0.0,
			"0.023": 0.0,
			"0.024": 0.0,
			"0.025": 0.0
		}
	}
}
