{
	 "smiles": "CC(Cl)C(=O)NC(C)C1=CC=C(Cl)C=C1", 
	 "Tm": 401.15, 
	 "num_atms": 28, 
	 "gaussian": { 
		 "optdone": 1, 
		 "sigma_profile": "yes", 
		 "theory": "DFT", 
		 "functional": "B3LYP", 
		 "basiset": "6-31G**", 
		 "properties": { 
			 "R2extent": 5603.8768, 
			 "electric_dipole_moment_norm": 2.1117552415, 
			 "electric_quadrupole_moment_norm": 17.5662309429, 
			 "total_energy": -1477.38874093, 
			 "HOMO_LUMO_gap": 0.22432, 
			 "cosmo_polarized_energy": -12.59, 
			 "cosmo_cavitation_energy": 34.68, 
			 "cosmo_dispersion_energy": -23.64, 
			 "cosmo_repulsion_energy": 1.88, 
			 "cosmo_total_nonelectrostatic_energy": 12.92, 
			 "SMD_solvation_energy": 6.1 
		},
		"coords": [
			{
				"x": 1.5460680599,
				"y": -0.1621241357,
				"z": -2.5060822036,
				"element": "C" 
			},
			{
				"x": 2.3893579677,
				"y": 1.1046906789,
				"z": -2.6027589638,
				"element": "C" 
			},
			{
				"x": 1.4085218093,
				"y": 2.4895501835,
				"z": -3.3147245497,
				"element": "Cl" 
			},
			{
				"x": 3.1033053864,
				"y": 1.5052428285,
				"z": -1.3011285341,
				"element": "C" 
			},
			{
				"x": 4.3215039132,
				"y": 1.3825157315,
				"z": -1.2548162896,
				"element": "O" 
			},
			{
				"x": 2.4020127434,
				"y": 1.9521446334,
				"z": -0.2152160893,
				"element": "N" 
			},
			{
				"x": 0.9691591866,
				"y": 2.1114108086,
				"z": 0.0245636511,
				"element": "C" 
			},
			{
				"x": 0.7472545429,
				"y": 3.4165636328,
				"z": 0.8108491302,
				"element": "C" 
			},
			{
				"x": 0.3330425922,
				"y": 0.920907149,
				"z": 0.7459687551,
				"element": "C" 
			},
			{
				"x": -1.0572154576,
				"y": 0.7497413058,
				"z": 0.6829685304,
				"element": "C" 
			},
			{
				"x": -1.6907042489,
				"y": -0.2936138146,
				"z": 1.3554611496,
				"element": "C" 
			},
			{
				"x": -0.9200131086,
				"y": -1.1827921889,
				"z": 2.1047188759,
				"element": "C" 
			},
			{
				"x": -1.705600076,
				"y": -2.5049033488,
				"z": 2.9555306605,
				"element": "Cl" 
			},
			{
				"x": 0.4637326244,
				"y": -1.0409790474,
				"z": 2.1805281672,
				"element": "C" 
			},
			{
				"x": 1.0806256526,
				"y": 0.0096478196,
				"z": 1.4987722301,
				"element": "C" 
			},
			{
				"x": 2.1755758567,
				"y": -0.9749125815,
				"z": -2.1273028238,
				"element": "H" 
			},
			{
				"x": 0.6934246763,
				"y": -0.0487846457,
				"z": -1.8343832355,
				"element": "H" 
			},
			{
				"x": 1.1775522301,
				"y": -0.4438987195,
				"z": -3.4952445868,
				"element": "H" 
			},
			{
				"x": 3.2014997899,
				"y": 0.9666988611,
				"z": -3.314060046,
				"element": "H" 
			},
			{
				"x": 3.0224767707,
				"y": 2.1850493057,
				"z": 0.5514447056,
				"element": "H" 
			},
			{
				"x": 0.4834151378,
				"y": 2.2220561054,
				"z": -0.9467420602,
				"element": "H" 
			},
			{
				"x": 1.1368966521,
				"y": 4.2696374328,
				"z": 0.2485427661,
				"element": "H" 
			},
			{
				"x": 1.2535969216,
				"y": 3.3727463147,
				"z": 1.7819891401,
				"element": "H" 
			},
			{
				"x": -0.3170529564,
				"y": 3.5761844384,
				"z": 1.0011969071,
				"element": "H" 
			},
			{
				"x": -1.65899592,
				"y": 1.4394745551,
				"z": 0.095616245,
				"element": "H" 
			},
			{
				"x": -2.765996828,
				"y": -0.4209029617,
				"z": 1.2962959281,
				"element": "H" 
			},
			{
				"x": 1.0514761395,
				"y": -1.7440663744,
				"z": 2.7604329102,
				"element": "H" 
			},
			{
				"x": 2.1607799421,
				"y": 0.1048160335,
				"z": 1.5463796299,
				"element": "H" 
			}
		],
		 "valence_orbital": [ 
			{
				"type": "occ",
				"energy": -0.30317,
				"method": "rhf"
			},
			{
				"type": "occ",
				"energy": -0.27301,
				"method": "rhf"
			},
			{
				"type": "occ",
				"energy": -0.26523,
				"method": "rhf"
			},
			{
				"type": "occ",
				"energy": -0.25768,
				"method": "rhf"
			},
			{
				"type": "occ",
				"energy": -0.24977,
				"method": "rhf"
			},
			{
				"type": "unocc",
				"energy": -0.02545,
				"method": "rhf"
			},
			{
				"type": "unocc",
				"energy": -0.02232,
				"method": "rhf"
			},
			{
				"type": "unocc",
				"energy": -0.01703,
				"method": "rhf"
			},
			{
				"type": "unocc",
				"energy": 0.02369,
				"method": "rhf"
			},
			{
				"type": "unocc",
				"energy": 0.04602,
				"method": "rhf"
			}
		],
		"cosmo_sigma_profile": { 
			"-0.025": 0.0,
			"-0.024": 0.0,
			"-0.023": 0.0,
			"-0.022": 0.0,
			"-0.021": 0.0,
			"-0.02": 0.0,
			"-0.019": 0.0,
			"-0.018": 0.0,
			"-0.017": 0.0,
			"-0.016": 0.0,
			"-0.015": 0.0,
			"-0.014": 0.0992183197725,
			"-0.013": 0.914143743569,
			"-0.012": 0.857898350352,
			"-0.011": 1.34007297224,
			"-0.01": 1.51679518131,
			"-0.009": 1.32554312826,
			"-0.008": 2.37934588486,
			"-0.007": 7.88864819391,
			"-0.006": 14.0281429647,
			"-0.005": 19.4127686416,
			"-0.004": 18.6900973828,
			"-0.003": 18.0300452398,
			"-0.002": 22.86842607,
			"-0.001": 24.096971179,
			"0.0": 24.1427976459,
			"0.001": 18.8646938399,
			"0.002": 21.3875114527,
			"0.003": 21.6921276173,
			"0.004": 21.6020153281,
			"0.005": 14.8195927951,
			"0.006": 6.73063951798,
			"0.007": 0.627964226099,
			"0.008": 1.25740532113,
			"0.009": 0.511794975605,
			"0.01": 1.38172294078,
			"0.011": 1.68413986556,
			"0.012": 2.89242489994,
			"0.013": 5.58178666877,
			"0.014": 2.18398654638,
			"0.015": 0.0168546816197,
			"0.016": 0.0,
			"0.017": 0.0,
			"0.018": 0.0,
			"0.019": 0.0,
			"0.02": 0.0,
			"0.021": 0.0,
			"0.022": 0.0,
			"0.023": 0.0,
			"0.024": 0.0,
			"0.025": 0.0
		}
	}
}
