{
	 "smiles": "CC(C)(C)OC(=O)NC(CC(O)=O)C1=CC=CC(F)=C1", 
	 "Tm": 398.15, 
	 "num_atms": 38, 
	 "gaussian": { 
		 "optdone": 1, 
		 "sigma_profile": "yes", 
		 "theory": "DFT", 
		 "functional": "B3LYP", 
		 "basiset": "6-31G**", 
		 "properties": { 
			 "R2extent": 7156.9135, 
			 "electric_dipole_moment_norm": 4.66140184601, 
			 "electric_quadrupole_moment_norm": 19.6880155755, 
			 "total_energy": -999.863471793, 
			 "HOMO_LUMO_gap": 0.22778, 
			 "cosmo_polarized_energy": -20.56, 
			 "cosmo_cavitation_energy": 41.36, 
			 "cosmo_dispersion_energy": -26.98, 
			 "cosmo_repulsion_energy": 2.06, 
			 "cosmo_total_nonelectrostatic_energy": 16.44, 
			 "SMD_solvation_energy": 9.06 
		},
		"coords": [
			{
				"x": -0.0656846997,
				"y": -3.5079103423,
				"z": -0.3231261798,
				"element": "C" 
			},
			{
				"x": 0.5223383001,
				"y": -2.3097165672,
				"z": 0.4293303325,
				"element": "C" 
			},
			{
				"x": 0.7438611875,
				"y": -2.6098317015,
				"z": 1.9153880708,
				"element": "C" 
			},
			{
				"x": 1.823776511,
				"y": -1.8423267707,
				"z": -0.2278384755,
				"element": "C" 
			},
			{
				"x": -0.3573496211,
				"y": -1.1343664116,
				"z": 0.2733961182,
				"element": "O" 
			},
			{
				"x": -1.6391180464,
				"y": -1.1699493814,
				"z": 0.7199754088,
				"element": "C" 
			},
			{
				"x": -2.1600376246,
				"y": -2.0985517643,
				"z": 1.3161039204,
				"element": "O" 
			},
			{
				"x": -2.3266265476,
				"y": -0.0254643346,
				"z": 0.4065444931,
				"element": "N" 
			},
			{
				"x": -1.8996581194,
				"y": 1.241810319,
				"z": -0.1949896945,
				"element": "C" 
			},
			{
				"x": -1.0239427226,
				"y": 1.0427453755,
				"z": -1.4492965428,
				"element": "C" 
			},
			{
				"x": -1.1667090057,
				"y": 2.2031724498,
				"z": -2.4300102829,
				"element": "C" 
			},
			{
				"x": -0.1838859181,
				"y": 2.2989211402,
				"z": -3.3599241591,
				"element": "O" 
			},
			{
				"x": -2.0920704204,
				"y": 2.9781142172,
				"z": -2.4500051188,
				"element": "O" 
			},
			{
				"x": -1.2798200613,
				"y": 2.2316121897,
				"z": 0.7959246995,
				"element": "C" 
			},
			{
				"x": -0.3543103909,
				"y": 1.8287318009,
				"z": 1.7689056534,
				"element": "C" 
			},
			{
				"x": 0.1988898764,
				"y": 2.7619507717,
				"z": 2.6465203332,
				"element": "C" 
			},
			{
				"x": -0.1549043716,
				"y": 4.1101008215,
				"z": 2.5720878692,
				"element": "C" 
			},
			{
				"x": -1.0702704881,
				"y": 4.4919824308,
				"z": 1.5994318315,
				"element": "C" 
			},
			{
				"x": -1.427762489,
				"y": 5.7905024256,
				"z": 1.5131349481,
				"element": "F" 
			},
			{
				"x": -1.6386893036,
				"y": 3.5830813443,
				"z": 0.7141313043,
				"element": "C" 
			},
			{
				"x": -1.0004997902,
				"y": -3.8346602131,
				"z": 0.1321042382,
				"element": "H" 
			},
			{
				"x": -0.2516897372,
				"y": -3.2471202044,
				"z": -1.3701015629,
				"element": "H" 
			},
			{
				"x": 0.6476490656,
				"y": -4.3380974255,
				"z": -0.3033042179,
				"element": "H" 
			},
			{
				"x": 1.4719851108,
				"y": -3.4208087516,
				"z": 2.0196396965,
				"element": "H" 
			},
			{
				"x": 1.1450814009,
				"y": -1.7297766494,
				"z": 2.4285302793,
				"element": "H" 
			},
			{
				"x": -0.1879455775,
				"y": -2.9073360925,
				"z": 2.3957449552,
				"element": "H" 
			},
			{
				"x": 2.213990816,
				"y": -0.9514151973,
				"z": 0.2731862402,
				"element": "H" 
			},
			{
				"x": 2.5790984512,
				"y": -2.6310375905,
				"z": -0.1651611102,
				"element": "H" 
			},
			{
				"x": 1.6631976269,
				"y": -1.6064012495,
				"z": -1.2843782403,
				"element": "H" 
			},
			{
				"x": -3.2418753566,
				"y": -0.0250268643,
				"z": 0.8331214066,
				"element": "H" 
			},
			{
				"x": -2.8220051237,
				"y": 1.6979638795,
				"z": -0.5653953484,
				"element": "H" 
			},
			{
				"x": 0.0235457351,
				"y": 0.891939075,
				"z": -1.176428811,
				"element": "H" 
			},
			{
				"x": -1.3483700196,
				"y": 0.1363950116,
				"z": -1.9757391276,
				"element": "H" 
			},
			{
				"x": 0.4942573976,
				"y": 1.6269206222,
				"z": -3.2015081563,
				"element": "H" 
			},
			{
				"x": -0.0664161851,
				"y": 0.7866201943,
				"z": 1.8405599936,
				"element": "H" 
			},
			{
				"x": 0.9113289936,
				"y": 2.4374660862,
				"z": 3.3993936556,
				"element": "H" 
			},
			{
				"x": 0.2583403201,
				"y": 4.8530645,
				"z": 3.2453915334,
				"element": "H" 
			},
			{
				"x": -2.3392991728,
				"y": 3.9332028565,
				"z": -0.0360399534,
				"element": "H" 
			}
		],
		 "valence_orbital": [ 
			{
				"type": "occ",
				"energy": -0.28313,
				"method": "rhf"
			},
			{
				"type": "occ",
				"energy": -0.27114,
				"method": "rhf"
			},
			{
				"type": "occ",
				"energy": -0.26567,
				"method": "rhf"
			},
			{
				"type": "occ",
				"energy": -0.25581,
				"method": "rhf"
			},
			{
				"type": "occ",
				"energy": -0.24286,
				"method": "rhf"
			},
			{
				"type": "unocc",
				"energy": -0.01508,
				"method": "rhf"
			},
			{
				"type": "unocc",
				"energy": -0.00574,
				"method": "rhf"
			},
			{
				"type": "unocc",
				"energy": 0.00241,
				"method": "rhf"
			},
			{
				"type": "unocc",
				"energy": 0.04356,
				"method": "rhf"
			},
			{
				"type": "unocc",
				"energy": 0.04696,
				"method": "rhf"
			}
		],
		"cosmo_sigma_profile": { 
			"-0.025": 0.0,
			"-0.024": 0.0,
			"-0.023": 0.0,
			"-0.022": 0.0,
			"-0.021": 0.0,
			"-0.02": 0.0,
			"-0.019": 0.550233309773,
			"-0.018": 1.04047979235,
			"-0.017": 1.21602441002,
			"-0.016": 1.38003558956,
			"-0.015": 1.26490310138,
			"-0.014": 1.98358708545,
			"-0.013": 1.61004763904,
			"-0.012": 2.05634182104,
			"-0.011": 3.17028430272,
			"-0.01": 1.7905411493,
			"-0.009": 1.46478333565,
			"-0.008": 3.67448288833,
			"-0.007": 6.2586298353,
			"-0.006": 8.90347580013,
			"-0.005": 8.538300267,
			"-0.004": 24.1534854012,
			"-0.003": 27.9783405034,
			"-0.002": 25.6945545279,
			"-0.001": 27.4519825236,
			"0.0": 32.2795103283,
			"0.001": 34.2871199404,
			"0.002": 19.7638271992,
			"0.003": 15.7693332898,
			"0.004": 21.6716212504,
			"0.005": 12.1914645251,
			"0.006": 3.56326434557,
			"0.007": 4.51535266746,
			"0.008": 4.23481125771,
			"0.009": 4.15778149286,
			"0.01": 6.05551090103,
			"0.011": 5.74072688523,
			"0.012": 4.87556178184,
			"0.013": 4.33837244185,
			"0.014": 1.7658168361,
			"0.015": 0.0,
			"0.016": 0.0,
			"0.017": 0.0,
			"0.018": 0.0,
			"0.019": 0.0,
			"0.02": 0.0,
			"0.021": 0.0,
			"0.022": 0.0,
			"0.023": 0.0,
			"0.024": 0.0,
			"0.025": 0.0
		}
	}
}
