{
	 "smiles": "COC1=CC(=CC=C1)N1C=NN=C1S", 
	 "Tm": 441.15, 
	 "num_atms": 23, 
	 "gaussian": { 
		 "optdone": 1, 
		 "sigma_profile": "yes", 
		 "theory": "DFT", 
		 "functional": "B3LYP", 
		 "basiset": "6-31G**", 
		 "properties": { 
			 "R2extent": 3730.6846, 
			 "electric_dipole_moment_norm": 4.85311207783, 
			 "electric_quadrupole_moment_norm": 24.5359385038, 
			 "total_energy": -985.999240022, 
			 "HOMO_LUMO_gap": 0.20126, 
			 "cosmo_polarized_energy": -15.73, 
			 "cosmo_cavitation_energy": 29.35, 
			 "cosmo_dispersion_energy": -21.35, 
			 "cosmo_repulsion_energy": 1.63, 
			 "cosmo_total_nonelectrostatic_energy": 9.63, 
			 "SMD_solvation_energy": 4.06 
		},
		"coords": [
			{
				"x": -3.3754482326,
				"y": -0.8932645059,
				"z": -0.6025214367,
				"element": "C" 
			},
			{
				"x": -2.3728602253,
				"y": -0.7337672379,
				"z": -1.5983344284,
				"element": "O" 
			},
			{
				"x": -1.2441379141,
				"y": -0.0477405657,
				"z": -1.2786306518,
				"element": "C" 
			},
			{
				"x": -1.0103531243,
				"y": 0.5479316113,
				"z": -0.0339872359,
				"element": "C" 
			},
			{
				"x": 0.1985511598,
				"y": 1.2224198049,
				"z": 0.1803445635,
				"element": "C" 
			},
			{
				"x": 1.1612929645,
				"y": 1.3291608199,
				"z": -0.8218786022,
				"element": "C" 
			},
			{
				"x": 0.9001132102,
				"y": 0.7469197437,
				"z": -2.066269496,
				"element": "C" 
			},
			{
				"x": -0.2843528968,
				"y": 0.0602383554,
				"z": -2.2984540767,
				"element": "C" 
			},
			{
				"x": 0.4382053514,
				"y": 1.8355923376,
				"z": 1.4480104262,
				"element": "N" 
			},
			{
				"x": 0.8103168964,
				"y": 3.1446969181,
				"z": 1.6792906824,
				"element": "C" 
			},
			{
				"x": 0.9623345455,
				"y": 3.3723718634,
				"z": 2.95543346,
				"element": "N" 
			},
			{
				"x": 0.6947689125,
				"y": 2.1885936463,
				"z": 3.621961894,
				"element": "N" 
			},
			{
				"x": 0.3856510129,
				"y": 1.292894508,
				"z": 2.7133825817,
				"element": "C" 
			},
			{
				"x": 0.0013657505,
				"y": -0.4031649125,
				"z": 3.0329311268,
				"element": "S" 
			},
			{
				"x": -3.7909087224,
				"y": 0.0732225566,
				"z": -0.290703124,
				"element": "H" 
			},
			{
				"x": -4.1629741156,
				"y": -1.4898631836,
				"z": -1.0642287079,
				"element": "H" 
			},
			{
				"x": -2.9882427365,
				"y": -1.4212319571,
				"z": 0.2775514803,
				"element": "H" 
			},
			{
				"x": -1.7465492949,
				"y": 0.5131076282,
				"z": 0.7584793404,
				"element": "H" 
			},
			{
				"x": 2.0983535053,
				"y": 1.8378908928,
				"z": -0.6247547197,
				"element": "H" 
			},
			{
				"x": 1.6393515027,
				"y": 0.8215379171,
				"z": -2.8578305492,
				"element": "H" 
			},
			{
				"x": -0.4936745223,
				"y": -0.403506194,
				"z": -3.2562948647,
				"element": "H" 
			},
			{
				"x": 0.923965084,
				"y": 3.8630665868,
				"z": 0.8805676425,
				"element": "H" 
			},
			{
				"x": 0.2494318894,
				"y": -0.2639066335,
				"z": 4.3494346953,
				"element": "H" 
			}
		],
		 "valence_orbital": [ 
			{
				"type": "occ",
				"energy": -0.30688,
				"method": "rhf"
			},
			{
				"type": "occ",
				"energy": -0.26965,
				"method": "rhf"
			},
			{
				"type": "occ",
				"energy": -0.25502,
				"method": "rhf"
			},
			{
				"type": "occ",
				"energy": -0.23883,
				"method": "rhf"
			},
			{
				"type": "occ",
				"energy": -0.23348,
				"method": "rhf"
			},
			{
				"type": "unocc",
				"energy": -0.03222,
				"method": "rhf"
			},
			{
				"type": "unocc",
				"energy": -0.01599,
				"method": "rhf"
			},
			{
				"type": "unocc",
				"energy": 0.01276,
				"method": "rhf"
			},
			{
				"type": "unocc",
				"energy": 0.02367,
				"method": "rhf"
			},
			{
				"type": "unocc",
				"energy": 0.04037,
				"method": "rhf"
			}
		],
		"cosmo_sigma_profile": { 
			"-0.025": 0.0,
			"-0.024": 0.0,
			"-0.023": 0.0,
			"-0.022": 0.0,
			"-0.021": 0.0,
			"-0.02": 0.0,
			"-0.019": 0.0,
			"-0.018": 0.0,
			"-0.017": 0.0,
			"-0.016": 0.0,
			"-0.015": 0.0,
			"-0.014": 0.0,
			"-0.013": 0.164242672318,
			"-0.012": 1.24233918177,
			"-0.011": 2.01926051678,
			"-0.01": 2.54406221117,
			"-0.009": 2.9953579435,
			"-0.008": 3.40928489919,
			"-0.007": 9.05184602761,
			"-0.006": 17.1517363798,
			"-0.005": 19.3477042315,
			"-0.004": 19.2519246518,
			"-0.003": 16.8713785143,
			"-0.002": 14.62232075,
			"-0.001": 11.9062559658,
			"0.0": 13.1997905156,
			"0.001": 16.2923793388,
			"0.002": 18.6511085809,
			"0.003": 16.5670501901,
			"0.004": 11.5091968518,
			"0.005": 5.46025938829,
			"0.006": 5.16787394594,
			"0.007": 4.12383136684,
			"0.008": 3.49135575052,
			"0.009": 3.30299761098,
			"0.01": 3.46117342818,
			"0.011": 1.99046322096,
			"0.012": 2.57485194491,
			"0.013": 3.86166326943,
			"0.014": 2.9944160006,
			"0.015": 2.76828548203,
			"0.016": 1.60783522519,
			"0.017": 0.204492161596,
			"0.018": 0.0,
			"0.019": 0.0,
			"0.02": 0.0,
			"0.021": 0.0,
			"0.022": 0.0,
			"0.023": 0.0,
			"0.024": 0.0,
			"0.025": 0.0
		}
	}
}
