{
	 "smiles": "CC(C)(C)OC(=O)NC1=NOC=N1", 
	 "Tm": 439.15, 
	 "num_atms": 24, 
	 "gaussian": { 
		 "optdone": 1, 
		 "sigma_profile": "yes", 
		 "theory": "DFT", 
		 "functional": "B3LYP", 
		 "basiset": "6-31G**", 
		 "properties": { 
			 "R2extent": 3808.9554, 
			 "electric_dipole_moment_norm": 1.73915948952, 
			 "electric_quadrupole_moment_norm": 12.2970762399, 
			 "total_energy": -663.282406964, 
			 "HOMO_LUMO_gap": 0.22908, 
			 "cosmo_polarized_energy": -14.33, 
			 "cosmo_cavitation_energy": 28.27, 
			 "cosmo_dispersion_energy": -20.47, 
			 "cosmo_repulsion_energy": 1.63, 
			 "cosmo_total_nonelectrostatic_energy": 9.43, 
			 "SMD_solvation_energy": 5.16 
		},
		"coords": [
			{
				"x": 0.7582452868,
				"y": 0.0121047984,
				"z": 3.0001457351,
				"element": "C" 
			},
			{
				"x": 1.3082325013,
				"y": 0.2820074054,
				"z": 1.5962123437,
				"element": "C" 
			},
			{
				"x": 1.0279006219,
				"y": 1.7119555197,
				"z": 1.1237795839,
				"element": "C" 
			},
			{
				"x": 2.8037604315,
				"y": -0.0343370526,
				"z": 1.5244099667,
				"element": "C" 
			},
			{
				"x": 0.7334255805,
				"y": -0.6839460209,
				"z": 0.6383412995,
				"element": "O" 
			},
			{
				"x": -0.5985341536,
				"y": -0.7223646634,
				"z": 0.4125923407,
				"element": "C" 
			},
			{
				"x": -1.4529300215,
				"y": -0.0315095899,
				"z": 0.9171856402,
				"element": "O" 
			},
			{
				"x": -0.8159519491,
				"y": -1.725826881,
				"z": -0.5294692791,
				"element": "N" 
			},
			{
				"x": -2.0178824813,
				"y": -2.1293214151,
				"z": -1.0681416233,
				"element": "C" 
			},
			{
				"x": -2.0320656935,
				"y": -3.1048549969,
				"z": -1.9561894969,
				"element": "N" 
			},
			{
				"x": -3.4028024123,
				"y": -3.221021696,
				"z": -2.258045363,
				"element": "O" 
			},
			{
				"x": -4.0253059269,
				"y": -2.3038790375,
				"z": -1.5142546944,
				"element": "C" 
			},
			{
				"x": -3.2471302507,
				"y": -1.5938475852,
				"z": -0.7578993326,
				"element": "N" 
			},
			{
				"x": -0.3114154956,
				"y": 0.2171755213,
				"z": 3.0502482413,
				"element": "H" 
			},
			{
				"x": 0.9346511392,
				"y": -1.029991286,
				"z": 3.2845908615,
				"element": "H" 
			},
			{
				"x": 1.2736213489,
				"y": 0.6527474861,
				"z": 3.7228537028,
				"element": "H" 
			},
			{
				"x": -0.0389922642,
				"y": 1.9347265836,
				"z": 1.1536418088,
				"element": "H" 
			},
			{
				"x": 1.3927131405,
				"y": 1.8537819538,
				"z": 0.101631128,
				"element": "H" 
			},
			{
				"x": 1.5534366566,
				"y": 2.419850286,
				"z": 1.772665989,
				"element": "H" 
			},
			{
				"x": 2.9948706948,
				"y": -1.0708496672,
				"z": 1.8169963503,
				"element": "H" 
			},
			{
				"x": 3.1826865684,
				"y": 0.1140895011,
				"z": 0.5090970051,
				"element": "H" 
			},
			{
				"x": 3.3575029919,
				"y": 0.6238316424,
				"z": 2.2002286841,
				"element": "H" 
			},
			{
				"x": 0.0011358071,
				"y": -2.2195211037,
				"z": -0.8607720322,
				"element": "H" 
			},
			{
				"x": -5.1007721208,
				"y": -2.2361997025,
				"z": -1.6068488591,
				"element": "H" 
			}
		],
		 "valence_orbital": [ 
			{
				"type": "occ",
				"energy": -0.31765,
				"method": "rhf"
			},
			{
				"type": "occ",
				"energy": -0.3068,
				"method": "rhf"
			},
			{
				"type": "occ",
				"energy": -0.30019,
				"method": "rhf"
			},
			{
				"type": "occ",
				"energy": -0.27357,
				"method": "rhf"
			},
			{
				"type": "occ",
				"energy": -0.25686,
				"method": "rhf"
			},
			{
				"type": "unocc",
				"energy": -0.02778,
				"method": "rhf"
			},
			{
				"type": "unocc",
				"energy": 0.01952,
				"method": "rhf"
			},
			{
				"type": "unocc",
				"energy": 0.06924,
				"method": "rhf"
			},
			{
				"type": "unocc",
				"energy": 0.0837,
				"method": "rhf"
			},
			{
				"type": "unocc",
				"energy": 0.08439,
				"method": "rhf"
			}
		],
		"cosmo_sigma_profile": { 
			"-0.025": 0.0,
			"-0.024": 0.0,
			"-0.023": 0.0,
			"-0.022": 0.0,
			"-0.021": 0.0,
			"-0.02": 0.0,
			"-0.019": 0.0,
			"-0.018": 0.0,
			"-0.017": 0.0503224753392,
			"-0.016": 0.597966323125,
			"-0.015": 1.03982021195,
			"-0.014": 0.627889211586,
			"-0.013": 2.58857445337,
			"-0.012": 2.29578877444,
			"-0.011": 2.99568505439,
			"-0.01": 2.1146792244,
			"-0.009": 2.00102369808,
			"-0.008": 2.1393653702,
			"-0.007": 2.43399725726,
			"-0.006": 2.72408574659,
			"-0.005": 5.72420140417,
			"-0.004": 19.123995443,
			"-0.003": 21.7113522304,
			"-0.002": 25.7205581662,
			"-0.001": 24.1672384213,
			"0.0": 28.1554927574,
			"0.001": 14.5050263662,
			"0.002": 6.08226577167,
			"0.003": 7.35113126818,
			"0.004": 5.44263154672,
			"0.005": 6.77813201339,
			"0.006": 8.57825240188,
			"0.007": 4.19064265214,
			"0.008": 3.0490403272,
			"0.009": 3.39405954598,
			"0.01": 2.8533592094,
			"0.011": 4.04205975696,
			"0.012": 4.01142490345,
			"0.013": 2.27153188055,
			"0.014": 2.01721500604,
			"0.015": 0.536325403309,
			"0.016": 1.45297330597,
			"0.017": 0.732693243086,
			"0.018": 0.0590632776487,
			"0.019": 0.0,
			"0.02": 0.0,
			"0.021": 0.0,
			"0.022": 0.0,
			"0.023": 0.0,
			"0.024": 0.0,
			"0.025": 0.0
		}
	}
}
