{
	 "smiles": "OC(=O)CSCSCC(O)=O", 
	 "Tm": 399.15, 
	 "num_atms": 19, 
	 "gaussian": { 
		 "optdone": 1, 
		 "sigma_profile": "yes", 
		 "theory": "DFT", 
		 "functional": "B3LYP", 
		 "basiset": "6-31G**", 
		 "properties": { 
			 "R2extent": 3393.3466, 
			 "electric_dipole_moment_norm": 6.73139963603, 
			 "electric_quadrupole_moment_norm": 15.7425634898, 
			 "total_energy": -1292.639716, 
			 "HOMO_LUMO_gap": 0.20156, 
			 "cosmo_polarized_energy": -20.44, 
			 "cosmo_cavitation_energy": 26.03, 
			 "cosmo_dispersion_energy": -19.74, 
			 "cosmo_repulsion_energy": 1.5, 
			 "cosmo_total_nonelectrostatic_energy": 7.79, 
			 "SMD_solvation_energy": 5.8 
		},
		"coords": [
			{
				"x": 0.1128751333,
				"y": 1.3365259029,
				"z": 2.0778920062,
				"element": "O" 
			},
			{
				"x": -0.1120648718,
				"y": 2.6404017226,
				"z": 1.8078457886,
				"element": "C" 
			},
			{
				"x": -0.8207433788,
				"y": 3.3104432199,
				"z": 2.5182243023,
				"element": "O" 
			},
			{
				"x": 0.5349243739,
				"y": 3.189421996,
				"z": 0.5370684616,
				"element": "C" 
			},
			{
				"x": -0.5568252108,
				"y": 2.9925438012,
				"z": -0.932718231,
				"element": "S" 
			},
			{
				"x": -0.2846621581,
				"y": 1.2390475989,
				"z": -1.3341125317,
				"element": "C" 
			},
			{
				"x": 1.3720233101,
				"y": 0.9651008208,
				"z": -2.1068282416,
				"element": "S" 
			},
			{
				"x": 1.692634256,
				"y": -0.7749531564,
				"z": -1.6640030514,
				"element": "C" 
			},
			{
				"x": 2.153430697,
				"y": -0.9993552787,
				"z": -0.2354492208,
				"element": "C" 
			},
			{
				"x": 2.85077927,
				"y": -2.1412546974,
				"z": -0.1251609584,
				"element": "O" 
			},
			{
				"x": 1.9276023509,
				"y": -0.284792944,
				"z": 0.7221291979,
				"element": "O" 
			},
			{
				"x": 0.7974942986,
				"y": 0.9404851592,
				"z": 1.5059499874,
				"element": "H" 
			},
			{
				"x": 1.5075467881,
				"y": 2.7401511402,
				"z": 0.3146336018,
				"element": "H" 
			},
			{
				"x": 0.6538839773,
				"y": 4.2668416062,
				"z": 0.6581478165,
				"element": "H" 
			},
			{
				"x": -1.0734052019,
				"y": 0.9716643994,
				"z": -2.0406311283,
				"element": "H" 
			},
			{
				"x": -0.3826830612,
				"y": 0.6223791046,
				"z": -0.4393651304,
				"element": "H" 
			},
			{
				"x": 2.461506198,
				"y": -1.1454544532,
				"z": -2.3464171856,
				"element": "H" 
			},
			{
				"x": 0.8034357375,
				"y": -1.3927130078,
				"z": -1.8360713588,
				"element": "H" 
			},
			{
				"x": 3.0834474923,
				"y": -2.2464829344,
				"z": 0.8140658758,
				"element": "H" 
			}
		],
		 "valence_orbital": [ 
			{
				"type": "occ",
				"energy": -0.32449,
				"method": "rhf"
			},
			{
				"type": "occ",
				"energy": -0.30166,
				"method": "rhf"
			},
			{
				"type": "occ",
				"energy": -0.27062,
				"method": "rhf"
			},
			{
				"type": "occ",
				"energy": -0.25226,
				"method": "rhf"
			},
			{
				"type": "occ",
				"energy": -0.23793,
				"method": "rhf"
			},
			{
				"type": "unocc",
				"energy": -0.03637,
				"method": "rhf"
			},
			{
				"type": "unocc",
				"energy": -0.00766,
				"method": "rhf"
			},
			{
				"type": "unocc",
				"energy": 0.0106,
				"method": "rhf"
			},
			{
				"type": "unocc",
				"energy": 0.02278,
				"method": "rhf"
			},
			{
				"type": "unocc",
				"energy": 0.04614,
				"method": "rhf"
			}
		],
		"cosmo_sigma_profile": { 
			"-0.025": 0.0,
			"-0.024": 0.0,
			"-0.023": 0.0,
			"-0.022": 0.0,
			"-0.021": 0.0,
			"-0.02": 0.000451825193786,
			"-0.019": 0.613232906235,
			"-0.018": 1.14886047532,
			"-0.017": 0.940626554775,
			"-0.016": 0.610538651459,
			"-0.015": 0.957060432658,
			"-0.014": 0.922651287285,
			"-0.013": 0.422449953784,
			"-0.012": 0.835428465123,
			"-0.011": 1.08001057923,
			"-0.01": 2.02578911429,
			"-0.009": 7.36085774742,
			"-0.008": 10.8425179002,
			"-0.007": 12.8148109096,
			"-0.006": 12.0994626346,
			"-0.005": 12.3417526448,
			"-0.004": 11.4016988248,
			"-0.003": 9.44537614664,
			"-0.002": 6.84451265228,
			"-0.001": 7.49633150226,
			"0.0": 8.57119421699,
			"0.001": 8.43666795612,
			"0.002": 8.61178066795,
			"0.003": 10.3033276373,
			"0.004": 12.3812655345,
			"0.005": 12.5277380169,
			"0.006": 9.00090484379,
			"0.007": 8.9701757668,
			"0.008": 7.59905464923,
			"0.009": 4.82123677007,
			"0.01": 4.35470007371,
			"0.011": 5.76854739115,
			"0.012": 5.96729974915,
			"0.013": 2.48731414264,
			"0.014": 0.118199658758,
			"0.015": 0.0,
			"0.016": 0.0,
			"0.017": 0.0,
			"0.018": 0.0,
			"0.019": 0.0,
			"0.02": 0.0,
			"0.021": 0.0,
			"0.022": 0.0,
			"0.023": 0.0,
			"0.024": 0.0,
			"0.025": 0.0
		}
	}
}
