{
	 "smiles": "CC1=C(Cl)N=C(Cl)N=C1", 
	 "Tm": 299.15, 
	 "num_atms": 13, 
	 "gaussian": { 
		 "optdone": 1, 
		 "sigma_profile": "yes", 
		 "theory": "DFT", 
		 "functional": "B3LYP", 
		 "basiset": "6-31G**", 
		 "properties": { 
			 "R2extent": 4029.5473, 
			 "electric_dipole_moment_norm": 3.89954214877, 
			 "electric_quadrupole_moment_norm": 8.92088881614, 
			 "total_energy": -1222.8287426, 
			 "HOMO_LUMO_gap": 0.21365, 
			 "cosmo_polarized_energy": -7.55, 
			 "cosmo_cavitation_energy": 21.15, 
			 "cosmo_dispersion_energy": -16.14, 
			 "cosmo_repulsion_energy": 1.33, 
			 "cosmo_total_nonelectrostatic_energy": 6.34, 
			 "SMD_solvation_energy": 0.39 
		},
		"coords": [
			{
				"x": 1.128652731,
				"y": -0.0225959647,
				"z": 0.86963765,
				"element": "C" 
			},
			{
				"x": 1.170736879,
				"y": 0.7023739382,
				"z": -0.4440430541,
				"element": "C" 
			},
			{
				"x": 2.3514973471,
				"y": 1.0108343245,
				"z": -1.1383755408,
				"element": "C" 
			},
			{
				"x": 3.9000602372,
				"y": 0.5388727731,
				"z": -0.4660617718,
				"element": "Cl" 
			},
			{
				"x": 2.3872120242,
				"y": 1.6492194894,
				"z": -2.2952589362,
				"element": "N" 
			},
			{
				"x": 1.2075053945,
				"y": 2.0026062093,
				"z": -2.7960927157,
				"element": "C" 
			},
			{
				"x": 1.2477893747,
				"y": 2.8470855597,
				"z": -4.3258633977,
				"element": "Cl" 
			},
			{
				"x": 0.0112569764,
				"y": 1.7880915523,
				"z": -2.2693640839,
				"element": "N" 
			},
			{
				"x": 0.0151241928,
				"y": 1.1393517291,
				"z": -1.0984174869,
				"element": "C" 
			},
			{
				"x": 1.6828570058,
				"y": 0.5224713195,
				"z": 1.6406588844,
				"element": "H" 
			},
			{
				"x": 0.0967296685,
				"y": -0.1440327309,
				"z": 1.2084254217,
				"element": "H" 
			},
			{
				"x": 1.5841709472,
				"y": -1.0149237767,
				"z": 0.7890160554,
				"element": "H" 
			},
			{
				"x": -0.9602927785,
				"y": 0.9546455771,
				"z": -0.6512610243,
				"element": "H" 
			}
		],
		 "valence_orbital": [ 
			{
				"type": "occ",
				"energy": -0.33544,
				"method": "rhf"
			},
			{
				"type": "occ",
				"energy": -0.32416,
				"method": "rhf"
			},
			{
				"type": "occ",
				"energy": -0.31734,
				"method": "rhf"
			},
			{
				"type": "occ",
				"energy": -0.2809,
				"method": "rhf"
			},
			{
				"type": "occ",
				"energy": -0.27742,
				"method": "rhf"
			},
			{
				"type": "unocc",
				"energy": -0.06377,
				"method": "rhf"
			},
			{
				"type": "unocc",
				"energy": -0.04881,
				"method": "rhf"
			},
			{
				"type": "unocc",
				"energy": 0.00964,
				"method": "rhf"
			},
			{
				"type": "unocc",
				"energy": 0.0423,
				"method": "rhf"
			},
			{
				"type": "unocc",
				"energy": 0.09363,
				"method": "rhf"
			}
		],
		"cosmo_sigma_profile": { 
			"-0.025": 0.0,
			"-0.024": 0.0,
			"-0.023": 0.0,
			"-0.022": 0.0,
			"-0.021": 0.0,
			"-0.02": 0.0,
			"-0.019": 0.0,
			"-0.018": 0.0,
			"-0.017": 0.0,
			"-0.016": 0.0,
			"-0.015": 0.0,
			"-0.014": 0.0,
			"-0.013": 0.0,
			"-0.012": 0.0,
			"-0.011": 0.0,
			"-0.01": 0.0236686863593,
			"-0.009": 2.42970084513,
			"-0.008": 2.87526608172,
			"-0.007": 2.68589857308,
			"-0.006": 5.19809791848,
			"-0.005": 10.9530489349,
			"-0.004": 13.4783812522,
			"-0.003": 19.2853211355,
			"-0.002": 19.2430325055,
			"-0.001": 12.6246341851,
			"0.0": 10.3302116742,
			"0.001": 10.0402745396,
			"0.002": 14.2923876578,
			"0.003": 16.9431781006,
			"0.004": 11.8212752401,
			"0.005": 5.9125993877,
			"0.006": 2.59830009583,
			"0.007": 3.63563365499,
			"0.008": 2.68312239926,
			"0.009": 2.28897324846,
			"0.01": 1.24730810565,
			"0.011": 1.99808314679,
			"0.012": 1.31480493388,
			"0.013": 0.755589229992,
			"0.014": 0.0836154531589,
			"0.015": 0.0,
			"0.016": 0.0,
			"0.017": 0.0,
			"0.018": 0.0,
			"0.019": 0.0,
			"0.02": 0.0,
			"0.021": 0.0,
			"0.022": 0.0,
			"0.023": 0.0,
			"0.024": 0.0,
			"0.025": 0.0
		}
	}
}
