{
	 "smiles": "NC1=NN(C=C1)C1=CC=NC=C1", 
	 "Tm": 466.15, 
	 "num_atms": 20, 
	 "gaussian": { 
		 "optdone": 1, 
		 "sigma_profile": "yes", 
		 "theory": "DFT", 
		 "functional": "B3LYP", 
		 "basiset": "6-31G**", 
		 "properties": { 
			 "R2extent": 2417.4526, 
			 "electric_dipole_moment_norm": 3.98144093514, 
			 "electric_quadrupole_moment_norm": 10.0814640346, 
			 "total_energy": -528.651538413, 
			 "HOMO_LUMO_gap": 0.17571, 
			 "cosmo_polarized_energy": -13.71, 
			 "cosmo_cavitation_energy": 24.43, 
			 "cosmo_dispersion_energy": -18.44, 
			 "cosmo_repulsion_energy": 1.45, 
			 "cosmo_total_nonelectrostatic_energy": 7.44, 
			 "SMD_solvation_energy": 2.46 
		},
		"coords": [
			{
				"x": 0.2125907857,
				"y": -0.2647732259,
				"z": 3.7442746017,
				"element": "N" 
			},
			{
				"x": -0.0472547937,
				"y": 0.2606090748,
				"z": 2.4862004528,
				"element": "C" 
			},
			{
				"x": 0.6811059933,
				"y": -0.0903004049,
				"z": 1.4344278045,
				"element": "N" 
			},
			{
				"x": 0.0965464725,
				"y": 0.552033383,
				"z": 0.3708379576,
				"element": "N" 
			},
			{
				"x": -0.9763194585,
				"y": 1.302717948,
				"z": 0.7697488346,
				"element": "C" 
			},
			{
				"x": -1.1081388552,
				"y": 1.1447139915,
				"z": 2.1259864716,
				"element": "C" 
			},
			{
				"x": 0.6209910177,
				"y": 0.3863571682,
				"z": -0.9207706799,
				"element": "C" 
			},
			{
				"x": 1.6877536512,
				"y": -0.4948852289,
				"z": -1.1388552499,
				"element": "C" 
			},
			{
				"x": 2.1763746441,
				"y": -0.6306363581,
				"z": -2.4347358479,
				"element": "C" 
			},
			{
				"x": 1.6978414924,
				"y": 0.0244213073,
				"z": -3.5020199035,
				"element": "N" 
			},
			{
				"x": 0.679441963,
				"y": 0.8622328014,
				"z": -3.271623083,
				"element": "C" 
			},
			{
				"x": 0.1068059042,
				"y": 1.0846914537,
				"z": -2.021728496,
				"element": "C" 
			},
			{
				"x": 0.0457791417,
				"y": 0.3769477676,
				"z": 4.507531843,
				"element": "H" 
			},
			{
				"x": 1.1260437759,
				"y": -0.6966434055,
				"z": 3.8061696635,
				"element": "H" 
			},
			{
				"x": -1.5660359059,
				"y": 1.8766873439,
				"z": 0.0725885807,
				"element": "H" 
			},
			{
				"x": -1.8598638364,
				"y": 1.5796779639,
				"z": 2.7674126958,
				"element": "H" 
			},
			{
				"x": 2.1088461933,
				"y": -1.0483389261,
				"z": -0.3102000868,
				"element": "H" 
			},
			{
				"x": 3.0048104067,
				"y": -1.3111850632,
				"z": -2.6239044418,
				"element": "H" 
			},
			{
				"x": 0.2914402588,
				"y": 1.3961900764,
				"z": -4.1375586884,
				"element": "H" 
			},
			{
				"x": -0.7117588507,
				"y": 1.788482333,
				"z": -1.9256824286,
				"element": "H" 
			}
		],
		 "valence_orbital": [ 
			{
				"type": "occ",
				"energy": -0.28594,
				"method": "rhf"
			},
			{
				"type": "occ",
				"energy": -0.26244,
				"method": "rhf"
			},
			{
				"type": "occ",
				"energy": -0.25114,
				"method": "rhf"
			},
			{
				"type": "occ",
				"energy": -0.24961,
				"method": "rhf"
			},
			{
				"type": "occ",
				"energy": -0.20973,
				"method": "rhf"
			},
			{
				"type": "unocc",
				"energy": -0.03402,
				"method": "rhf"
			},
			{
				"type": "unocc",
				"energy": -0.00856,
				"method": "rhf"
			},
			{
				"type": "unocc",
				"energy": 0.03722,
				"method": "rhf"
			},
			{
				"type": "unocc",
				"energy": 0.06899,
				"method": "rhf"
			},
			{
				"type": "unocc",
				"energy": 0.08759,
				"method": "rhf"
			}
		],
		"cosmo_sigma_profile": { 
			"-0.025": 0.0,
			"-0.024": 0.0,
			"-0.023": 0.0,
			"-0.022": 0.0,
			"-0.021": 0.0,
			"-0.02": 0.0,
			"-0.019": 0.0,
			"-0.018": 0.0,
			"-0.017": 0.0,
			"-0.016": 0.0,
			"-0.015": 0.0,
			"-0.014": 0.0169526723553,
			"-0.013": 1.2350197271,
			"-0.012": 2.61230832967,
			"-0.011": 3.27175051162,
			"-0.01": 4.5334334069,
			"-0.009": 5.27579017164,
			"-0.008": 4.67724162582,
			"-0.007": 7.51435274493,
			"-0.006": 10.9958056016,
			"-0.005": 10.9265878619,
			"-0.004": 9.85775695075,
			"-0.003": 10.4614210338,
			"-0.002": 8.16874945568,
			"-0.001": 8.609546627,
			"0.0": 9.02523839197,
			"0.001": 13.636776167,
			"0.002": 20.0273190149,
			"0.003": 17.3103914668,
			"0.004": 10.5169720435,
			"0.005": 7.00444864228,
			"0.006": 4.39055061833,
			"0.007": 4.05532620256,
			"0.008": 3.76888177972,
			"0.009": 3.84700898081,
			"0.01": 3.38719313008,
			"0.011": 2.92481289103,
			"0.012": 2.50991100296,
			"0.013": 1.74118404219,
			"0.014": 1.1696141057,
			"0.015": 1.1968781673,
			"0.016": 0.945799630667,
			"0.017": 0.532024136678,
			"0.018": 0.0391472617246,
			"0.019": 0.0,
			"0.02": 0.0,
			"0.021": 0.0,
			"0.022": 0.0,
			"0.023": 0.0,
			"0.024": 0.0,
			"0.025": 0.0
		}
	}
}
