{
	 "smiles": "OC1=C(Cl)C=C2C(OC(=O)C=C2C(F)(F)F)=C1", 
	 "Tm": 453.15, 
	 "num_atms": 21, 
	 "gaussian": { 
		 "optdone": 1, 
		 "sigma_profile": "yes", 
		 "theory": "DFT", 
		 "functional": "B3LYP", 
		 "basiset": "6-31G**", 
		 "properties": { 
			 "R2extent": 5572.2847, 
			 "electric_dipole_moment_norm": 2.28189791183, 
			 "electric_quadrupole_moment_norm": 17.0960472016, 
			 "total_energy": -1368.85770428, 
			 "HOMO_LUMO_gap": 0.15279, 
			 "cosmo_polarized_energy": -14.36, 
			 "cosmo_cavitation_energy": 29.49, 
			 "cosmo_dispersion_energy": -21.52, 
			 "cosmo_repulsion_energy": 1.59, 
			 "cosmo_total_nonelectrostatic_energy": 9.57, 
			 "SMD_solvation_energy": 7.46 
		},
		"coords": [
			{
				"x": 0.4347709355,
				"y": -4.6070565275,
				"z": 0.0150156395,
				"element": "O" 
			},
			{
				"x": 0.6064193828,
				"y": -3.2770218161,
				"z": -0.1418281499,
				"element": "C" 
			},
			{
				"x": 1.7861940049,
				"y": -2.830548939,
				"z": -0.7813472585,
				"element": "C" 
			},
			{
				"x": 2.9551086867,
				"y": -4.0034973732,
				"z": -1.3334961754,
				"element": "Cl" 
			},
			{
				"x": 2.0165538581,
				"y": -1.4805725782,
				"z": -0.9699135559,
				"element": "C" 
			},
			{
				"x": 1.0840139401,
				"y": -0.5182562621,
				"z": -0.5307913996,
				"element": "C" 
			},
			{
				"x": -0.0865559015,
				"y": -0.9784236802,
				"z": 0.1046154472,
				"element": "C" 
			},
			{
				"x": -1.0438319005,
				"y": -0.1247831676,
				"z": 0.5621681091,
				"element": "O" 
			},
			{
				"x": -0.9401840667,
				"y": 1.2621496302,
				"z": 0.4379588187,
				"element": "C" 
			},
			{
				"x": -1.8383233323,
				"y": 1.9395889466,
				"z": 0.8733144158,
				"element": "O" 
			},
			{
				"x": 0.2664474122,
				"y": 1.7532451227,
				"z": -0.2178781144,
				"element": "C" 
			},
			{
				"x": 1.2250375537,
				"y": 0.9151981027,
				"z": -0.6768791766,
				"element": "C" 
			},
			{
				"x": 2.4557772236,
				"y": 1.4843510207,
				"z": -1.3490429373,
				"element": "C" 
			},
			{
				"x": 3.5775488605,
				"y": 1.1217929765,
				"z": -0.688984684,
				"element": "F" 
			},
			{
				"x": 2.5714652441,
				"y": 1.0241460715,
				"z": -2.6140925937,
				"element": "F" 
			},
			{
				"x": 2.4315769013,
				"y": 2.8265557327,
				"z": -1.4044851482,
				"element": "F" 
			},
			{
				"x": -0.3248727496,
				"y": -2.337518484,
				"z": 0.2978420076,
				"element": "C" 
			},
			{
				"x": -0.4050244477,
				"y": -4.7767859249,
				"z": 0.4627865138,
				"element": "H" 
			},
			{
				"x": 2.928827261,
				"y": -1.1716080441,
				"z": -1.4625531697,
				"element": "H" 
			},
			{
				"x": 0.3477953585,
				"y": 2.8274683011,
				"z": -0.3146340253,
				"element": "H" 
			},
			{
				"x": -1.2416442248,
				"y": -2.6429231078,
				"z": 0.792725437,
				"element": "H" 
			}
		],
		 "valence_orbital": [ 
			{
				"type": "occ",
				"energy": -0.32482,
				"method": "rhf"
			},
			{
				"type": "occ",
				"energy": -0.30922,
				"method": "rhf"
			},
			{
				"type": "occ",
				"energy": -0.29161,
				"method": "rhf"
			},
			{
				"type": "occ",
				"energy": -0.26923,
				"method": "rhf"
			},
			{
				"type": "occ",
				"energy": -0.24211,
				"method": "rhf"
			},
			{
				"type": "unocc",
				"energy": -0.08932,
				"method": "rhf"
			},
			{
				"type": "unocc",
				"energy": -0.03399,
				"method": "rhf"
			},
			{
				"type": "unocc",
				"energy": -0.01742,
				"method": "rhf"
			},
			{
				"type": "unocc",
				"energy": 0.01556,
				"method": "rhf"
			},
			{
				"type": "unocc",
				"energy": 0.04277,
				"method": "rhf"
			}
		],
		"cosmo_sigma_profile": { 
			"-0.025": 0.0,
			"-0.024": 0.0,
			"-0.023": 0.0,
			"-0.022": 0.0,
			"-0.021": 0.0,
			"-0.02": 0.399058849111,
			"-0.019": 1.44147098713,
			"-0.018": 1.14439952243,
			"-0.017": 1.00963502486,
			"-0.016": 1.46085279539,
			"-0.015": 0.825976799574,
			"-0.014": 0.60409557511,
			"-0.013": 1.26790189069,
			"-0.012": 1.07891027342,
			"-0.011": 1.34160084053,
			"-0.01": 1.19856428303,
			"-0.009": 2.38156277241,
			"-0.008": 2.98124024264,
			"-0.007": 4.8691125685,
			"-0.006": 5.52009102124,
			"-0.005": 7.89051763668,
			"-0.004": 11.2712415858,
			"-0.003": 13.941994043,
			"-0.002": 16.9457683758,
			"-0.001": 24.0431722513,
			"0.0": 25.7635997428,
			"0.001": 25.9881174047,
			"0.002": 29.3588749041,
			"0.003": 11.1532035851,
			"0.004": 10.545729349,
			"0.005": 5.5660195223,
			"0.006": 3.22125425911,
			"0.007": 4.49721538237,
			"0.008": 4.58240167567,
			"0.009": 5.08230923004,
			"0.01": 4.23436715964,
			"0.011": 5.7201460962,
			"0.012": 3.11747092171,
			"0.013": 0.17349429348,
			"0.014": 0.0,
			"0.015": 0.0,
			"0.016": 0.0,
			"0.017": 0.0,
			"0.018": 0.0,
			"0.019": 0.0,
			"0.02": 0.0,
			"0.021": 0.0,
			"0.022": 0.0,
			"0.023": 0.0,
			"0.024": 0.0,
			"0.025": 0.0
		}
	}
}
