{
	 "smiles": "CC(C)N1C(=O)NC(C)=C(Br)C1=O", 
	 "Tm": 431.15, 
	 "num_atms": 24, 
	 "gaussian": { 
		 "optdone": 1, 
		 "sigma_profile": "yes", 
		 "theory": "DFT", 
		 "functional": "B3LYP", 
		 "basiset": "6-31G**", 
		 "properties": { 
			 "R2extent": 3588.4435, 
			 "electric_dipole_moment_norm": 3.75830255435, 
			 "electric_quadrupole_moment_norm": 14.9933706447, 
			 "total_energy": -3142.88184891, 
			 "HOMO_LUMO_gap": 0.19118, 
			 "cosmo_polarized_energy": -15.62, 
			 "cosmo_cavitation_energy": 28.94, 
			 "cosmo_dispersion_energy": -21.38, 
			 "cosmo_repulsion_energy": 1.7, 
			 "cosmo_total_nonelectrostatic_energy": 9.26, 
			 "SMD_solvation_energy": 5.61 
		},
		"coords": [
			{
				"x": 2.5505356395,
				"y": 2.0440790306,
				"z": -1.4612474042,
				"element": "C" 
			},
			{
				"x": 1.0441889528,
				"y": 2.2670866935,
				"z": -1.2866969961,
				"element": "C" 
			},
			{
				"x": 0.7020108973,
				"y": 3.5632349446,
				"z": -0.5436227154,
				"element": "C" 
			},
			{
				"x": 0.3827836972,
				"y": 1.0810405875,
				"z": -0.655366779,
				"element": "N" 
			},
			{
				"x": -0.5574831191,
				"y": 0.4085598945,
				"z": -1.4345826997,
				"element": "C" 
			},
			{
				"x": -0.8695514645,
				"y": 0.7179202937,
				"z": -2.5743661827,
				"element": "O" 
			},
			{
				"x": -1.1495951496,
				"y": -0.6859726187,
				"z": -0.8158403748,
				"element": "N" 
			},
			{
				"x": -0.8904045749,
				"y": -1.1400094912,
				"z": 0.4605636325,
				"element": "C" 
			},
			{
				"x": -1.6739352898,
				"y": -2.3463301622,
				"z": 0.8825209924,
				"element": "C" 
			},
			{
				"x": 0.0290607853,
				"y": -0.4661361689,
				"z": 1.1960398849,
				"element": "C" 
			},
			{
				"x": 0.4903747906,
				"y": -0.971631403,
				"z": 2.9631908275,
				"element": "Br" 
			},
			{
				"x": 0.7331284554,
				"y": 0.7105203245,
				"z": 0.6640713104,
				"element": "C" 
			},
			{
				"x": 1.5659399325,
				"y": 1.3412920272,
				"z": 1.2962836253,
				"element": "O" 
			},
			{
				"x": 2.7447461744,
				"y": 1.1184250257,
				"z": -2.0121376984,
				"element": "H" 
			},
			{
				"x": 3.0628928145,
				"y": 1.9989150942,
				"z": -0.4995460012,
				"element": "H" 
			},
			{
				"x": 2.9677632838,
				"y": 2.8728587904,
				"z": -2.0424686473,
				"element": "H" 
			},
			{
				"x": 0.5862733124,
				"y": 2.307041201,
				"z": -2.2752210741,
				"element": "H" 
			},
			{
				"x": -0.3821633617,
				"y": 3.6882776259,
				"z": -0.4601540337,
				"element": "H" 
			},
			{
				"x": 1.1391204782,
				"y": 3.5795497434,
				"z": 0.455424889,
				"element": "H" 
			},
			{
				"x": 1.0938252838,
				"y": 4.4130903085,
				"z": -1.1119490499,
				"element": "H" 
			},
			{
				"x": -1.8285215144,
				"y": -1.1592123583,
				"z": -1.3957426716,
				"element": "H" 
			},
			{
				"x": -2.7486262684,
				"y": -2.134539657,
				"z": 0.8402998684,
				"element": "H" 
			},
			{
				"x": -1.4713666973,
				"y": -3.1856743053,
				"z": 0.2072058141,
				"element": "H" 
			},
			{
				"x": -1.4153970581,
				"y": -2.6430854207,
				"z": 1.8969414837,
				"element": "H" 
			}
		],
		 "valence_orbital": [ 
			{
				"type": "occ",
				"energy": -0.29156,
				"method": "rhf"
			},
			{
				"type": "occ",
				"energy": -0.28584,
				"method": "rhf"
			},
			{
				"type": "occ",
				"energy": -0.27352,
				"method": "rhf"
			},
			{
				"type": "occ",
				"energy": -0.26435,
				"method": "rhf"
			},
			{
				"type": "occ",
				"energy": -0.23597,
				"method": "rhf"
			},
			{
				"type": "unocc",
				"energy": -0.04479,
				"method": "rhf"
			},
			{
				"type": "unocc",
				"energy": 0.00086,
				"method": "rhf"
			},
			{
				"type": "unocc",
				"energy": 0.00748,
				"method": "rhf"
			},
			{
				"type": "unocc",
				"energy": 0.06846,
				"method": "rhf"
			},
			{
				"type": "unocc",
				"energy": 0.10111,
				"method": "rhf"
			}
		],
		"cosmo_sigma_profile": { 
			"-0.025": 0.0,
			"-0.024": 0.0,
			"-0.023": 0.0,
			"-0.022": 0.0,
			"-0.021": 0.0,
			"-0.02": 0.0,
			"-0.019": 0.0,
			"-0.018": 0.0,
			"-0.017": 0.307703821476,
			"-0.016": 1.20711564353,
			"-0.015": 1.04584629922,
			"-0.014": 0.962186138145,
			"-0.013": 1.28390082707,
			"-0.012": 1.28406602812,
			"-0.011": 1.17623033086,
			"-0.01": 1.03079239529,
			"-0.009": 1.32907945487,
			"-0.008": 2.58723935917,
			"-0.007": 5.09122773661,
			"-0.006": 5.0117617841,
			"-0.005": 8.14083997251,
			"-0.004": 17.6686951562,
			"-0.003": 28.0073124528,
			"-0.002": 25.4729172505,
			"-0.001": 22.1284045198,
			"0.0": 20.9740164665,
			"0.001": 19.5579298442,
			"0.002": 9.17535660353,
			"0.003": 8.12944436533,
			"0.004": 9.05922835697,
			"0.005": 7.06773580582,
			"0.006": 4.86368498076,
			"0.007": 3.49342857523,
			"0.008": 1.83039625237,
			"0.009": 3.08319820689,
			"0.01": 4.08489605233,
			"0.011": 3.43403752845,
			"0.012": 8.02007023228,
			"0.013": 4.9284466572,
			"0.014": 0.477148783966,
			"0.015": 0.0,
			"0.016": 0.0,
			"0.017": 0.0,
			"0.018": 0.0,
			"0.019": 0.0,
			"0.02": 0.0,
			"0.021": 0.0,
			"0.022": 0.0,
			"0.023": 0.0,
			"0.024": 0.0,
			"0.025": 0.0
		}
	}
}
