{
	 "smiles": "CCCCCCCCCCO", 
	 "Tm": 279.65, 
	 "num_atms": 33, 
	 "gaussian": { 
		 "optdone": 1, 
		 "sigma_profile": "yes", 
		 "theory": "DFT", 
		 "functional": "B3LYP", 
		 "basiset": "6-31G**", 
		 "properties": { 
			 "R2extent": 4279.5103, 
			 "electric_dipole_moment_norm": 1.51051035415, 
			 "electric_quadrupole_moment_norm": 7.84721007556, 
			 "total_energy": -469.565444503, 
			 "HOMO_LUMO_gap": 0.34102, 
			 "cosmo_polarized_energy": -5.96, 
			 "cosmo_cavitation_energy": 33.57, 
			 "cosmo_dispersion_energy": -23.75, 
			 "cosmo_repulsion_energy": 2.02, 
			 "cosmo_total_nonelectrostatic_energy": 11.83, 
			 "SMD_solvation_energy": 4.79 
		},
		"coords": [
			{
				"x": -3.4021224208,
				"y": -2.3964100728,
				"z": -2.4907218793,
				"element": "C" 
			},
			{
				"x": -4.1875486647,
				"y": -2.5453035257,
				"z": -1.1820524225,
				"element": "C" 
			},
			{
				"x": -4.0560308939,
				"y": -1.3531347213,
				"z": -0.2196099283,
				"element": "C" 
			},
			{
				"x": -2.6482954669,
				"y": -1.1434382693,
				"z": 0.356441914,
				"element": "C" 
			},
			{
				"x": -2.5801554192,
				"y": 0.015808537,
				"z": 1.3613617087,
				"element": "C" 
			},
			{
				"x": -1.2072217137,
				"y": 0.2183246271,
				"z": 2.0236693755,
				"element": "C" 
			},
			{
				"x": -0.0916932161,
				"y": 0.6741839108,
				"z": 1.0719560371,
				"element": "C" 
			},
			{
				"x": 1.239318576,
				"y": 0.9329422787,
				"z": 1.7945057407,
				"element": "C" 
			},
			{
				"x": 2.3632156901,
				"y": 1.4870925355,
				"z": 0.9057290895,
				"element": "C" 
			},
			{
				"x": 2.8580556937,
				"y": 0.5166692988,
				"z": -0.1614878966,
				"element": "C" 
			},
			{
				"x": 3.9522486596,
				"y": 1.1333332606,
				"z": -0.8318436776,
				"element": "O" 
			},
			{
				"x": -2.3231143528,
				"y": -2.3342105637,
				"z": -2.315890365,
				"element": "H" 
			},
			{
				"x": -3.5769645415,
				"y": -3.2495775776,
				"z": -3.1546055545,
				"element": "H" 
			},
			{
				"x": -3.7025236579,
				"y": -1.4899545836,
				"z": -3.0294825442,
				"element": "H" 
			},
			{
				"x": -5.2495123835,
				"y": -2.6874514655,
				"z": -1.4202409871,
				"element": "H" 
			},
			{
				"x": -3.8683856203,
				"y": -3.4617534219,
				"z": -0.6665777906,
				"element": "H" 
			},
			{
				"x": -4.7594580017,
				"y": -1.4923375495,
				"z": 0.6128076362,
				"element": "H" 
			},
			{
				"x": -4.3764561049,
				"y": -0.4361801393,
				"z": -0.7354220734,
				"element": "H" 
			},
			{
				"x": -2.3195528625,
				"y": -2.0694529419,
				"z": 0.8512843597,
				"element": "H" 
			},
			{
				"x": -1.9387222767,
				"y": -0.9659259414,
				"z": -0.4606066083,
				"element": "H" 
			},
			{
				"x": -2.8811170748,
				"y": 0.9474727672,
				"z": 0.8607357555,
				"element": "H" 
			},
			{
				"x": -3.3271906491,
				"y": -0.1576084072,
				"z": 2.1480064585,
				"element": "H" 
			},
			{
				"x": -0.9027236195,
				"y": -0.7154955865,
				"z": 2.518250873,
				"element": "H" 
			},
			{
				"x": -1.3093951876,
				"y": 0.9632817636,
				"z": 2.8246574574,
				"element": "H" 
			},
			{
				"x": 0.0523650592,
				"y": -0.0776146919,
				"z": 0.2863903005,
				"element": "H" 
			},
			{
				"x": -0.4080323771,
				"y": 1.5942432872,
				"z": 0.5589637663,
				"element": "H" 
			},
			{
				"x": 1.0621705799,
				"y": 1.6440675576,
				"z": 2.6121255724,
				"element": "H" 
			},
			{
				"x": 1.5778768941,
				"y": 0.0035316,
				"z": 2.2750550142,
				"element": "H" 
			},
			{
				"x": 2.0341764679,
				"y": 2.4101307029,
				"z": 0.41149383,
				"element": "H" 
			},
			{
				"x": 3.2243672419,
				"y": 1.7584566568,
				"z": 1.5281061043,
				"element": "H" 
			},
			{
				"x": 3.1641974134,
				"y": -0.4301363609,
				"z": 0.3160340899,
				"element": "H" 
			},
			{
				"x": 2.0486179438,
				"y": 0.2764325874,
				"z": -0.8686980992,
				"element": "H" 
			},
			{
				"x": 4.2508062856,
				"y": 0.5374144485,
				"z": -1.5296352568,
				"element": "H" 
			}
		],
		 "valence_orbital": [ 
			{
				"type": "occ",
				"energy": -0.31587,
				"method": "rhf"
			},
			{
				"type": "occ",
				"energy": -0.3122,
				"method": "rhf"
			},
			{
				"type": "occ",
				"energy": -0.30323,
				"method": "rhf"
			},
			{
				"type": "occ",
				"energy": -0.299,
				"method": "rhf"
			},
			{
				"type": "occ",
				"energy": -0.26031,
				"method": "rhf"
			},
			{
				"type": "unocc",
				"energy": 0.08071,
				"method": "rhf"
			},
			{
				"type": "unocc",
				"energy": 0.0863,
				"method": "rhf"
			},
			{
				"type": "unocc",
				"energy": 0.09505,
				"method": "rhf"
			},
			{
				"type": "unocc",
				"energy": 0.1062,
				"method": "rhf"
			},
			{
				"type": "unocc",
				"energy": 0.11258,
				"method": "rhf"
			}
		],
		"cosmo_sigma_profile": { 
			"-0.025": 0.0,
			"-0.024": 0.0,
			"-0.023": 0.0,
			"-0.022": 0.0,
			"-0.021": 0.0,
			"-0.02": 0.0,
			"-0.019": 0.0,
			"-0.018": 0.0,
			"-0.017": 0.0,
			"-0.016": 0.0859735991084,
			"-0.015": 0.859155769161,
			"-0.014": 1.40587544028,
			"-0.013": 0.800940567018,
			"-0.012": 0.432877284482,
			"-0.011": 0.930388262895,
			"-0.01": 0.946042611987,
			"-0.009": 1.03433204533,
			"-0.008": 0.769146695268,
			"-0.007": 0.672644586379,
			"-0.006": 0.889290783951,
			"-0.005": 0.998976784434,
			"-0.004": 1.06031388837,
			"-0.003": 8.02868746047,
			"-0.002": 37.1812829141,
			"-0.001": 55.5174191395,
			"0.0": 58.6204590736,
			"0.001": 48.2077610651,
			"0.002": 18.8876736388,
			"0.003": 1.97988917084,
			"0.004": 1.39568473579,
			"0.005": 1.4400796571,
			"0.006": 1.00520641676,
			"0.007": 1.45181527254,
			"0.008": 1.25510078217,
			"0.009": 1.10049444091,
			"0.01": 1.73172455935,
			"0.011": 1.38021500327,
			"0.012": 0.676374604084,
			"0.013": 2.06418524605,
			"0.014": 1.82052693531,
			"0.015": 1.61962718452,
			"0.016": 0.0,
			"0.017": 0.0,
			"0.018": 0.0,
			"0.019": 0.0,
			"0.02": 0.0,
			"0.021": 0.0,
			"0.022": 0.0,
			"0.023": 0.0,
			"0.024": 0.0,
			"0.025": 0.0
		}
	}
}
