{
	 "smiles": "ClCC1=NN=NN1C1=CC=CC=C1", 
	 "Tm": 332.15, 
	 "num_atms": 20, 
	 "gaussian": { 
		 "optdone": 1, 
		 "sigma_profile": "yes", 
		 "theory": "DFT", 
		 "functional": "B3LYP", 
		 "basiset": "6-31G**", 
		 "properties": { 
			 "R2extent": 2912.4178, 
			 "electric_dipole_moment_norm": 5.93460324032, 
			 "electric_quadrupole_moment_norm": 11.8791080722, 
			 "total_energy": -988.211628882, 
			 "HOMO_LUMO_gap": 0.20709, 
			 "cosmo_polarized_energy": -13.52, 
			 "cosmo_cavitation_energy": 26.37, 
			 "cosmo_dispersion_energy": -19.32, 
			 "cosmo_repulsion_energy": 1.52, 
			 "cosmo_total_nonelectrostatic_energy": 8.58, 
			 "SMD_solvation_energy": 2.32 
		},
		"coords": [
			{
				"x": -1.4534592497,
				"y": -0.819710296,
				"z": 2.512782602,
				"element": "Cl" 
			},
			{
				"x": -0.4755278857,
				"y": 0.4905194605,
				"z": 1.7002664368,
				"element": "C" 
			},
			{
				"x": -1.1221683588,
				"y": 1.0118256513,
				"z": 0.47023723,
				"element": "C" 
			},
			{
				"x": -1.935575592,
				"y": 2.0523459617,
				"z": 0.4375604095,
				"element": "N" 
			},
			{
				"x": -2.2601259343,
				"y": 2.2404076072,
				"z": -0.8636014061,
				"element": "N" 
			},
			{
				"x": -1.682066939,
				"y": 1.3666152206,
				"z": -1.6208980847,
				"element": "N" 
			},
			{
				"x": -0.9507394411,
				"y": 0.5629549477,
				"z": -0.8036117363,
				"element": "N" 
			},
			{
				"x": -0.1292811084,
				"y": -0.4703167128,
				"z": -1.3499829268,
				"element": "C" 
			},
			{
				"x": -0.0616387795,
				"y": -1.7215886119,
				"z": -0.7321540381,
				"element": "C" 
			},
			{
				"x": 0.7573653391,
				"y": -2.7066684198,
				"z": -1.2862650429,
				"element": "C" 
			},
			{
				"x": 1.4815461265,
				"y": -2.4508277082,
				"z": -2.4511160242,
				"element": "C" 
			},
			{
				"x": 1.3892864642,
				"y": -1.2006273443,
				"z": -3.0684742976,
				"element": "C" 
			},
			{
				"x": 0.5885802422,
				"y": -0.2016097872,
				"z": -2.5198315878,
				"element": "C" 
			},
			{
				"x": -0.395907581,
				"y": 1.2997210338,
				"z": 2.4236522214,
				"element": "H" 
			},
			{
				"x": 0.5057190973,
				"y": 0.0624504671,
				"z": 1.4965033316,
				"element": "H" 
			},
			{
				"x": -0.6537860336,
				"y": -1.9299113188,
				"z": 0.1520050316,
				"element": "H" 
			},
			{
				"x": 0.8142184376,
				"y": -3.6803564689,
				"z": -0.8096902279,
				"element": "H" 
			},
			{
				"x": 2.1116735123,
				"y": -3.2237300999,
				"z": -2.8802518024,
				"element": "H" 
			},
			{
				"x": 1.9468532845,
				"y": -0.9982598851,
				"z": -3.9776671491,
				"element": "H" 
			},
			{
				"x": 0.5066343994,
				"y": 0.774566303,
				"z": -2.983562939,
				"element": "H" 
			}
		],
		 "valence_orbital": [ 
			{
				"type": "occ",
				"energy": -0.30417,
				"method": "rhf"
			},
			{
				"type": "occ",
				"energy": -0.30276,
				"method": "rhf"
			},
			{
				"type": "occ",
				"energy": -0.29297,
				"method": "rhf"
			},
			{
				"type": "occ",
				"energy": -0.27969,
				"method": "rhf"
			},
			{
				"type": "occ",
				"energy": -0.26738,
				"method": "rhf"
			},
			{
				"type": "unocc",
				"energy": -0.06029,
				"method": "rhf"
			},
			{
				"type": "unocc",
				"energy": -0.03078,
				"method": "rhf"
			},
			{
				"type": "unocc",
				"energy": -0.02351,
				"method": "rhf"
			},
			{
				"type": "unocc",
				"energy": -0.00114,
				"method": "rhf"
			},
			{
				"type": "unocc",
				"energy": 0.04471,
				"method": "rhf"
			}
		],
		"cosmo_sigma_profile": { 
			"-0.025": 0.0,
			"-0.024": 0.0,
			"-0.023": 0.0,
			"-0.022": 0.0,
			"-0.021": 0.0,
			"-0.02": 0.0,
			"-0.019": 0.0,
			"-0.018": 0.0,
			"-0.017": 0.0,
			"-0.016": 0.0,
			"-0.015": 0.0,
			"-0.014": 0.0,
			"-0.013": 0.0,
			"-0.012": 0.0,
			"-0.011": 0.0,
			"-0.01": 2.46971059818,
			"-0.009": 4.86703535836,
			"-0.008": 4.53728487897,
			"-0.007": 11.4392215709,
			"-0.006": 15.8998032226,
			"-0.005": 16.0676190997,
			"-0.004": 13.3669356842,
			"-0.003": 11.3970240713,
			"-0.002": 10.908588326,
			"-0.001": 11.1088950836,
			"0.0": 12.4065804931,
			"0.001": 13.1359032106,
			"0.002": 16.9194369522,
			"0.003": 18.9259727657,
			"0.004": 11.7936553816,
			"0.005": 9.02871289322,
			"0.006": 3.37107573005,
			"0.007": 4.6877662322,
			"0.008": 5.06386891098,
			"0.009": 4.53121512297,
			"0.01": 4.05174023479,
			"0.011": 3.5939144324,
			"0.012": 2.3078801825,
			"0.013": 1.95567329845,
			"0.014": 1.0625799817,
			"0.015": 0.0202703145357,
			"0.016": 0.0,
			"0.017": 0.0,
			"0.018": 0.0,
			"0.019": 0.0,
			"0.02": 0.0,
			"0.021": 0.0,
			"0.022": 0.0,
			"0.023": 0.0,
			"0.024": 0.0,
			"0.025": 0.0
		}
	}
}
