{
	 "smiles": "CCOC(=O)C1=C(NC(=O)CCl)SC2=C1CCCC2", 
	 "Tm": 389.15, 
	 "num_atms": 35, 
	 "gaussian": { 
		 "optdone": 1, 
		 "sigma_profile": "yes", 
		 "theory": "DFT", 
		 "functional": "B3LYP", 
		 "basiset": "6-31G**", 
		 "properties": { 
			 "R2extent": 6935.933, 
			 "electric_dipole_moment_norm": 6.59440497846, 
			 "electric_quadrupole_moment_norm": 17.975551436, 
			 "total_energy": -1643.85683198, 
			 "HOMO_LUMO_gap": 0.18003, 
			 "cosmo_polarized_energy": -13.94, 
			 "cosmo_cavitation_energy": 40.61, 
			 "cosmo_dispersion_energy": -28.64, 
			 "cosmo_repulsion_energy": 2.25, 
			 "cosmo_total_nonelectrostatic_energy": 14.21, 
			 "SMD_solvation_energy": 6.94 
		},
		"coords": [
			{
				"x": 2.3396814719,
				"y": -2.8073931323,
				"z": -2.4098136681,
				"element": "C" 
			},
			{
				"x": 1.1013030036,
				"y": -1.9392643753,
				"z": -2.5222962244,
				"element": "C" 
			},
			{
				"x": 1.0431683359,
				"y": -1.1061985123,
				"z": -1.3380433551,
				"element": "O" 
			},
			{
				"x": -0.0155541517,
				"y": -0.2722543935,
				"z": -1.2609711414,
				"element": "C" 
			},
			{
				"x": -0.8631620308,
				"y": -0.2069234103,
				"z": -2.1346456516,
				"element": "O" 
			},
			{
				"x": -0.0130201467,
				"y": 0.5516426594,
				"z": -0.0250164241,
				"element": "C" 
			},
			{
				"x": -0.586517766,
				"y": 1.8129590318,
				"z": -0.0217396196,
				"element": "C" 
			},
			{
				"x": -1.1710611707,
				"y": 2.5313587888,
				"z": -1.0732423636,
				"element": "N" 
			},
			{
				"x": -2.3841289553,
				"y": 2.3230480052,
				"z": -1.7098270687,
				"element": "C" 
			},
			{
				"x": -2.6942848582,
				"y": 2.98619392,
				"z": -2.6819219809,
				"element": "O" 
			},
			{
				"x": -3.321202585,
				"y": 1.2783279389,
				"z": -1.1181027445,
				"element": "C" 
			},
			{
				"x": -4.2099088798,
				"y": 1.9610685775,
				"z": 0.3134426474,
				"element": "Cl" 
			},
			{
				"x": -0.4166045639,
				"y": 2.5781788743,
				"z": 1.5371701069,
				"element": "S" 
			},
			{
				"x": 0.421040458,
				"y": 1.1972727786,
				"z": 2.1844380825,
				"element": "C" 
			},
			{
				"x": 0.5671211217,
				"y": 0.1999986765,
				"z": 1.253143404,
				"element": "C" 
			},
			{
				"x": 1.2274619599,
				"y": -1.114419919,
				"z": 1.6149997095,
				"element": "C" 
			},
			{
				"x": 1.9795354213,
				"y": -1.0339134911,
				"z": 2.9548546705,
				"element": "C" 
			},
			{
				"x": 1.1616156789,
				"y": -0.309445694,
				"z": 4.0307480568,
				"element": "C" 
			},
			{
				"x": 0.8878994786,
				"y": 1.1459161098,
				"z": 3.6154747956,
				"element": "C" 
			},
			{
				"x": 2.2910235022,
				"y": -3.4506686219,
				"z": -1.5264114559,
				"element": "H" 
			},
			{
				"x": 2.4231086838,
				"y": -3.4463145658,
				"z": -3.294376902,
				"element": "H" 
			},
			{
				"x": 3.2433001494,
				"y": -2.1947750579,
				"z": -2.3427978354,
				"element": "H" 
			},
			{
				"x": 1.1302895737,
				"y": -1.2918566856,
				"z": -3.4038143774,
				"element": "H" 
			},
			{
				"x": 0.1834529641,
				"y": -2.5322723145,
				"z": -2.5806754198,
				"element": "H" 
			},
			{
				"x": -0.6501795992,
				"y": 3.3018772463,
				"z": -1.4768093001,
				"element": "H" 
			},
			{
				"x": -4.0654046188,
				"y": 1.0380466808,
				"z": -1.8737658002,
				"element": "H" 
			},
			{
				"x": -2.8018964192,
				"y": 0.3838014912,
				"z": -0.787712589,
				"element": "H" 
			},
			{
				"x": 1.9099665119,
				"y": -1.4202035127,
				"z": 0.8198414253,
				"element": "H" 
			},
			{
				"x": 0.4575845808,
				"y": -1.8980513493,
				"z": 1.6684902487,
				"element": "H" 
			},
			{
				"x": 2.927328457,
				"y": -0.4991892275,
				"z": 2.8066162335,
				"element": "H" 
			},
			{
				"x": 2.2394760433,
				"y": -2.0450147255,
				"z": 3.2868274099,
				"element": "H" 
			},
			{
				"x": 0.2070037643,
				"y": -0.8305161237,
				"z": 4.1788122237,
				"element": "H" 
			},
			{
				"x": 1.6861431732,
				"y": -0.3249315734,
				"z": 4.9922842314,
				"element": "H" 
			},
			{
				"x": 1.8046731803,
				"y": 1.742352054,
				"z": 3.7280764011,
				"element": "H" 
			},
			{
				"x": 0.1435482314,
				"y": 1.6000638523,
				"z": 4.2797642752,
				"element": "H" 
			}
		],
		 "valence_orbital": [ 
			{
				"type": "occ",
				"energy": -0.28472,
				"method": "rhf"
			},
			{
				"type": "occ",
				"energy": -0.27459,
				"method": "rhf"
			},
			{
				"type": "occ",
				"energy": -0.25834,
				"method": "rhf"
			},
			{
				"type": "occ",
				"energy": -0.25611,
				"method": "rhf"
			},
			{
				"type": "occ",
				"energy": -0.23109,
				"method": "rhf"
			},
			{
				"type": "unocc",
				"energy": -0.05106,
				"method": "rhf"
			},
			{
				"type": "unocc",
				"energy": -0.01469,
				"method": "rhf"
			},
			{
				"type": "unocc",
				"energy": 0.00099,
				"method": "rhf"
			},
			{
				"type": "unocc",
				"energy": 0.01381,
				"method": "rhf"
			},
			{
				"type": "unocc",
				"energy": 0.06293,
				"method": "rhf"
			}
		],
		"cosmo_sigma_profile": { 
			"-0.025": 0.0,
			"-0.024": 0.0,
			"-0.023": 0.0,
			"-0.022": 0.0,
			"-0.021": 0.0,
			"-0.02": 0.0,
			"-0.019": 0.0,
			"-0.018": 0.0,
			"-0.017": 0.0,
			"-0.016": 0.061849216451,
			"-0.015": 1.10651103047,
			"-0.014": 1.10545841394,
			"-0.013": 0.640379301679,
			"-0.012": 1.32629147648,
			"-0.011": 0.851501972425,
			"-0.01": 1.02213899364,
			"-0.009": 1.14500003604,
			"-0.008": 2.48233995477,
			"-0.007": 2.81286373231,
			"-0.006": 4.51147605874,
			"-0.005": 12.7288160219,
			"-0.004": 25.6835814488,
			"-0.003": 37.4358109747,
			"-0.002": 38.6473071845,
			"-0.001": 38.5943539414,
			"0.0": 32.283637206,
			"0.001": 22.8257404336,
			"0.002": 19.2408142561,
			"0.003": 18.5418844836,
			"0.004": 12.6338791198,
			"0.005": 14.4184422022,
			"0.006": 8.83154539194,
			"0.007": 2.81592894399,
			"0.008": 3.54887665687,
			"0.009": 2.30543548491,
			"0.01": 3.24750762652,
			"0.011": 4.35687936577,
			"0.012": 6.07933507437,
			"0.013": 2.53543544421,
			"0.014": 0.083630673725,
			"0.015": 0.0,
			"0.016": 0.0,
			"0.017": 0.0,
			"0.018": 0.0,
			"0.019": 0.0,
			"0.02": 0.0,
			"0.021": 0.0,
			"0.022": 0.0,
			"0.023": 0.0,
			"0.024": 0.0,
			"0.025": 0.0
		}
	}
}
