{
	 "smiles": "CN(C1=CC=C(C=C1)C1=CSC(N)=N1)S(C)(=O)=O", 
	 "Tm": 479.15, 
	 "num_atms": 31, 
	 "gaussian": { 
		 "optdone": 1, 
		 "sigma_profile": "yes", 
		 "theory": "DFT", 
		 "functional": "B3LYP", 
		 "basiset": "6-31G**", 
		 "properties": { 
			 "R2extent": 8533.0205, 
			 "electric_dipole_moment_norm": 5.62303019643, 
			 "electric_quadrupole_moment_norm": 25.1102185697, 
			 "total_energy": -1538.0118572, 
			 "HOMO_LUMO_gap": 0.16646, 
			 "cosmo_polarized_energy": -20.72, 
			 "cosmo_cavitation_energy": 37.83, 
			 "cosmo_dispersion_energy": -28.05, 
			 "cosmo_repulsion_energy": 2.07, 
			 "cosmo_total_nonelectrostatic_energy": 11.86, 
			 "SMD_solvation_energy": 4.71 
		},
		"coords": [
			{
				"x": 3.4677133986,
				"y": 1.5473695832,
				"z": 2.4853303678,
				"element": "C" 
			},
			{
				"x": 3.4165819031,
				"y": 0.6629617358,
				"z": 1.3045985107,
				"element": "N" 
			},
			{
				"x": 2.0931303996,
				"y": 0.3695974045,
				"z": 0.8062289479,
				"element": "C" 
			},
			{
				"x": 1.3458879607,
				"y": 1.286840072,
				"z": 0.05720886,
				"element": "C" 
			},
			{
				"x": 0.0583910474,
				"y": 0.9609027339,
				"z": -0.3608939601,
				"element": "C" 
			},
			{
				"x": -0.5191828284,
				"y": -0.2783212292,
				"z": -0.0361447188,
				"element": "C" 
			},
			{
				"x": 0.239208104,
				"y": -1.1885161548,
				"z": 0.7201654108,
				"element": "C" 
			},
			{
				"x": 1.5286551678,
				"y": -0.8700444797,
				"z": 1.1328468816,
				"element": "C" 
			},
			{
				"x": -1.8877993606,
				"y": -0.5886905565,
				"z": -0.4914072992,
				"element": "C" 
			},
			{
				"x": -2.5768644758,
				"y": -1.7488449431,
				"z": -0.2593955375,
				"element": "C" 
			},
			{
				"x": -4.1634117854,
				"y": -1.6753246972,
				"z": -0.9784840338,
				"element": "S" 
			},
			{
				"x": -3.7574953573,
				"y": -0.0545162182,
				"z": -1.565994612,
				"element": "C" 
			},
			{
				"x": -4.6810137311,
				"y": 0.7046121166,
				"z": -2.2458364633,
				"element": "N" 
			},
			{
				"x": -2.5714182664,
				"y": 0.3609770497,
				"z": -1.2395831251,
				"element": "N" 
			},
			{
				"x": 4.6405129856,
				"y": 0.937966124,
				"z": 0.1436905739,
				"element": "S" 
			},
			{
				"x": 4.8449469113,
				"y": -0.7209587631,
				"z": -0.5239292294,
				"element": "C" 
			},
			{
				"x": 5.8417044829,
				"y": 1.3005844992,
				"z": 0.9027968787,
				"element": "O" 
			},
			{
				"x": 4.1864782904,
				"y": 1.8035976588,
				"z": -0.9535432848,
				"element": "O" 
			},
			{
				"x": 3.0653973706,
				"y": 2.5482958895,
				"z": 2.2830301659,
				"element": "H" 
			},
			{
				"x": 4.5011079928,
				"y": 1.6330444256,
				"z": 2.8201598302,
				"element": "H" 
			},
			{
				"x": 2.8698420902,
				"y": 1.080515089,
				"z": 3.2717257967,
				"element": "H" 
			},
			{
				"x": 1.7846830011,
				"y": 2.2404639296,
				"z": -0.2133986406,
				"element": "H" 
			},
			{
				"x": -0.5218317299,
				"y": 1.6647012734,
				"z": -0.9460249399,
				"element": "H" 
			},
			{
				"x": -0.1753662359,
				"y": -2.1546859781,
				"z": 0.9904577136,
				"element": "H" 
			},
			{
				"x": 2.1118587754,
				"y": -1.5740901306,
				"z": 1.7186412357,
				"element": "H" 
			},
			{
				"x": -2.2667568006,
				"y": -2.6347034595,
				"z": 0.2733864757,
				"element": "H" 
			},
			{
				"x": -4.2762743747,
				"y": 1.5216501145,
				"z": -2.6841705602,
				"element": "H" 
			},
			{
				"x": -5.344048144,
				"y": 0.2116442699,
				"z": -2.8264106959,
				"element": "H" 
			},
			{
				"x": 3.8880862591,
				"y": -1.0689753003,
				"z": -0.9140039453,
				"element": "H" 
			},
			{
				"x": 5.5751380737,
				"y": -0.6403443323,
				"z": -1.3307984157,
				"element": "H" 
			},
			{
				"x": 5.2096388758,
				"y": -1.3731077266,
				"z": 0.2690518123,
				"element": "H" 
			}
		],
		 "valence_orbital": [ 
			{
				"type": "occ",
				"energy": -0.28017,
				"method": "rhf"
			},
			{
				"type": "occ",
				"energy": -0.25892,
				"method": "rhf"
			},
			{
				"type": "occ",
				"energy": -0.25514,
				"method": "rhf"
			},
			{
				"type": "occ",
				"energy": -0.24934,
				"method": "rhf"
			},
			{
				"type": "occ",
				"energy": -0.20832,
				"method": "rhf"
			},
			{
				"type": "unocc",
				"energy": -0.04186,
				"method": "rhf"
			},
			{
				"type": "unocc",
				"energy": -0.00976,
				"method": "rhf"
			},
			{
				"type": "unocc",
				"energy": 0.00213,
				"method": "rhf"
			},
			{
				"type": "unocc",
				"energy": 0.00894,
				"method": "rhf"
			},
			{
				"type": "unocc",
				"energy": 0.06332,
				"method": "rhf"
			}
		],
		"cosmo_sigma_profile": { 
			"-0.025": 0.0,
			"-0.024": 0.0,
			"-0.023": 0.0,
			"-0.022": 0.0,
			"-0.021": 0.0,
			"-0.02": 0.0,
			"-0.019": 0.0,
			"-0.018": 0.0,
			"-0.017": 0.0,
			"-0.016": 0.0,
			"-0.015": 0.293133843146,
			"-0.014": 2.25147542805,
			"-0.013": 2.7181566718,
			"-0.012": 2.83168285453,
			"-0.011": 2.76477592025,
			"-0.01": 1.75017311034,
			"-0.009": 6.02730512772,
			"-0.008": 8.84667657282,
			"-0.007": 9.12358259661,
			"-0.006": 12.0053273988,
			"-0.005": 18.9733411114,
			"-0.004": 24.7069253523,
			"-0.003": 20.8862784788,
			"-0.002": 19.9163706017,
			"-0.001": 13.5768835321,
			"0.0": 14.1025651336,
			"0.001": 16.1909979868,
			"0.002": 18.6257983131,
			"0.003": 26.5237705908,
			"0.004": 24.410195274,
			"0.005": 10.2386938703,
			"0.006": 5.62867530947,
			"0.007": 5.25596976173,
			"0.008": 5.23391763658,
			"0.009": 5.4731579996,
			"0.01": 8.54727600646,
			"0.011": 10.608378919,
			"0.012": 6.00812691726,
			"0.013": 0.222288161967,
			"0.014": 0.0,
			"0.015": 0.0,
			"0.016": 0.0,
			"0.017": 0.0,
			"0.018": 0.0,
			"0.019": 0.0,
			"0.02": 0.0,
			"0.021": 0.0,
			"0.022": 0.0,
			"0.023": 0.0,
			"0.024": 0.0,
			"0.025": 0.0
		}
	}
}
