{
	 "smiles": "OC(=O)C1=NN(C(=O)C=C1)C1=CC=CC=C1", 
	 "Tm": 482.15, 
	 "num_atms": 24, 
	 "gaussian": { 
		 "optdone": 1, 
		 "sigma_profile": "yes", 
		 "theory": "DFT", 
		 "functional": "B3LYP", 
		 "basiset": "6-31G**", 
		 "properties": { 
			 "R2extent": 4067.7734, 
			 "electric_dipole_moment_norm": 3.0667081537, 
			 "electric_quadrupole_moment_norm": 21.8040591615, 
			 "total_energy": -759.151238718, 
			 "HOMO_LUMO_gap": 0.15232, 
			 "cosmo_polarized_energy": -15.24, 
			 "cosmo_cavitation_energy": 29.52, 
			 "cosmo_dispersion_energy": -21.49, 
			 "cosmo_repulsion_energy": 1.65, 
			 "cosmo_total_nonelectrostatic_energy": 9.69, 
			 "SMD_solvation_energy": 6.73 
		},
		"coords": [
			{
				"x": -0.6253092405,
				"y": 3.1604880563,
				"z": -1.7035002454,
				"element": "O" 
			},
			{
				"x": 0.5877349771,
				"y": 3.2948487572,
				"z": -1.1409907262,
				"element": "C" 
			},
			{
				"x": 1.1689038031,
				"y": 4.3541076791,
				"z": -1.0805958786,
				"element": "O" 
			},
			{
				"x": 1.1781044599,
				"y": 2.0296268496,
				"z": -0.5880808339,
				"element": "C" 
			},
			{
				"x": 0.4613667153,
				"y": 0.9443476215,
				"z": -0.7394785368,
				"element": "N" 
			},
			{
				"x": 0.9166153584,
				"y": -0.2208599632,
				"z": -0.2627239568,
				"element": "N" 
			},
			{
				"x": 2.1699088196,
				"y": -0.3760356221,
				"z": 0.4240510284,
				"element": "C" 
			},
			{
				"x": 2.5351185355,
				"y": -1.4637577813,
				"z": 0.8415336624,
				"element": "O" 
			},
			{
				"x": 2.9208211059,
				"y": 0.8648267322,
				"z": 0.5519220307,
				"element": "C" 
			},
			{
				"x": 2.4474820099,
				"y": 2.0379858033,
				"z": 0.0652571905,
				"element": "C" 
			},
			{
				"x": 0.0818135793,
				"y": -1.3608658204,
				"z": -0.5480860894,
				"element": "C" 
			},
			{
				"x": -0.149305734,
				"y": -2.3395128936,
				"z": 0.4233017352,
				"element": "C" 
			},
			{
				"x": -0.9885866233,
				"y": -3.4110225361,
				"z": 0.1199970468,
				"element": "C" 
			},
			{
				"x": -1.591631218,
				"y": -3.5103466126,
				"z": -1.1349611036,
				"element": "C" 
			},
			{
				"x": -1.3519238518,
				"y": -2.5286967248,
				"z": -2.0983150856,
				"element": "C" 
			},
			{
				"x": -0.5130663151,
				"y": -1.4541823062,
				"z": -1.8100812751,
				"element": "C" 
			},
			{
				"x": -0.8889671901,
				"y": 2.2250555377,
				"z": -1.6219795099,
				"element": "H" 
			},
			{
				"x": 3.8772894334,
				"y": 0.7794475903,
				"z": 1.0552482649,
				"element": "H" 
			},
			{
				"x": 2.9836890103,
				"y": 2.9766999703,
				"z": 0.1481797636,
				"element": "H" 
			},
			{
				"x": 0.3252613082,
				"y": -2.2678616574,
				"z": 1.3921713376,
				"element": "H" 
			},
			{
				"x": -1.1710821471,
				"y": -4.1706399033,
				"z": 0.873899871,
				"element": "H" 
			},
			{
				"x": -2.2417541427,
				"y": -4.3496771706,
				"z": -1.3624355445,
				"element": "H" 
			},
			{
				"x": -1.8110666064,
				"y": -2.6005071437,
				"z": -3.0795566051,
				"element": "H" 
			},
			{
				"x": -0.3139160468,
				"y": -0.6912684622,
				"z": -2.5541765404,
				"element": "H" 
			}
		],
		 "valence_orbital": [ 
			{
				"type": "occ",
				"energy": -0.28983,
				"method": "rhf"
			},
			{
				"type": "occ",
				"energy": -0.28157,
				"method": "rhf"
			},
			{
				"type": "occ",
				"energy": -0.27337,
				"method": "rhf"
			},
			{
				"type": "occ",
				"energy": -0.26589,
				"method": "rhf"
			},
			{
				"type": "occ",
				"energy": -0.24655,
				"method": "rhf"
			},
			{
				"type": "unocc",
				"energy": -0.09423,
				"method": "rhf"
			},
			{
				"type": "unocc",
				"energy": -0.05149,
				"method": "rhf"
			},
			{
				"type": "unocc",
				"energy": -0.01835,
				"method": "rhf"
			},
			{
				"type": "unocc",
				"energy": -0.01574,
				"method": "rhf"
			},
			{
				"type": "unocc",
				"energy": 0.04455,
				"method": "rhf"
			}
		],
		"cosmo_sigma_profile": { 
			"-0.025": 0.0,
			"-0.024": 0.0,
			"-0.023": 0.0,
			"-0.022": 0.0,
			"-0.021": 0.0,
			"-0.02": 0.0,
			"-0.019": 0.0,
			"-0.018": 0.0,
			"-0.017": 0.0,
			"-0.016": 0.0,
			"-0.015": 0.110614612388,
			"-0.014": 0.392787916542,
			"-0.013": 0.74692659807,
			"-0.012": 0.479472157099,
			"-0.011": 0.978598040105,
			"-0.01": 0.619801980773,
			"-0.009": 2.76388541008,
			"-0.008": 4.87455308143,
			"-0.007": 8.12386903946,
			"-0.006": 17.7237647244,
			"-0.005": 21.8451739076,
			"-0.004": 21.4664561412,
			"-0.003": 18.3957406589,
			"-0.002": 16.1082966596,
			"-0.001": 14.2101929257,
			"0.0": 12.7119715805,
			"0.001": 10.3353010169,
			"0.002": 11.1451641842,
			"0.003": 12.8346255655,
			"0.004": 14.5889405568,
			"0.005": 5.36196263127,
			"0.006": 4.22586576989,
			"0.007": 4.24419376415,
			"0.008": 4.3955354232,
			"0.009": 6.36593430046,
			"0.01": 6.58778066252,
			"0.011": 7.19441880982,
			"0.012": 6.9283461689,
			"0.013": 2.29313758314,
			"0.014": 0.128979222507,
			"0.015": 0.0,
			"0.016": 0.0,
			"0.017": 0.0,
			"0.018": 0.0,
			"0.019": 0.0,
			"0.02": 0.0,
			"0.021": 0.0,
			"0.022": 0.0,
			"0.023": 0.0,
			"0.024": 0.0,
			"0.025": 0.0
		}
	}
}
