{
	 "smiles": "CC1=NN(C2=C1C=C(C=N2)C(O)=O)C1=CC=C(F)C=C1", 
	 "Tm": 621.15, 
	 "num_atms": 30, 
	 "gaussian": { 
		 "optdone": 1, 
		 "sigma_profile": "yes", 
		 "theory": "DFT", 
		 "functional": "B3LYP", 
		 "basiset": "6-31G**", 
		 "properties": { 
			 "R2extent": 7235.4572, 
			 "electric_dipole_moment_norm": 4.65265976942, 
			 "electric_quadrupole_moment_norm": 25.9396561498, 
			 "total_energy": -954.055338517, 
			 "HOMO_LUMO_gap": 0.14861, 
			 "cosmo_polarized_energy": -17.87, 
			 "cosmo_cavitation_energy": 35.86, 
			 "cosmo_dispersion_energy": -26.11, 
			 "cosmo_repulsion_energy": 1.94, 
			 "cosmo_total_nonelectrostatic_energy": 11.69, 
			 "SMD_solvation_energy": 6.13 
		},
		"coords": [
			{
				"x": 0.1755876558,
				"y": 1.6599287979,
				"z": -3.6834805038,
				"element": "C" 
			},
			{
				"x": 0.1121137984,
				"y": 1.0807801619,
				"z": -2.3063513735,
				"element": "C" 
			},
			{
				"x": 0.1960516496,
				"y": -0.2196770341,
				"z": -2.1090264651,
				"element": "N" 
			},
			{
				"x": 0.1108549926,
				"y": -0.45556608,
				"z": -0.7577252731,
				"element": "N" 
			},
			{
				"x": -0.0332302288,
				"y": 0.7284014465,
				"z": -0.0766774682,
				"element": "C" 
			},
			{
				"x": -0.0399959481,
				"y": 1.7584916043,
				"z": -1.0538889414,
				"element": "C" 
			},
			{
				"x": -0.1780838418,
				"y": 3.0758567449,
				"z": -0.6146211644,
				"element": "C" 
			},
			{
				"x": -0.3000960918,
				"y": 3.2898518159,
				"z": 0.7588473889,
				"element": "C" 
			},
			{
				"x": -0.2571140157,
				"y": 2.172965039,
				"z": 1.6348210938,
				"element": "C" 
			},
			{
				"x": -0.1363276261,
				"y": 0.9087728551,
				"z": 1.2485789897,
				"element": "N" 
			},
			{
				"x": -0.4238067018,
				"y": 4.6422583705,
				"z": 1.3833253035,
				"element": "C" 
			},
			{
				"x": -0.8580321474,
				"y": 5.6522734855,
				"z": 0.5803647935,
				"element": "O" 
			},
			{
				"x": -0.1550183318,
				"y": 4.8638993358,
				"z": 2.5404234963,
				"element": "O" 
			},
			{
				"x": 0.1775862089,
				"y": -1.798924875,
				"z": -0.2859830949,
				"element": "C" 
			},
			{
				"x": 0.1336745396,
				"y": -2.0879184875,
				"z": 1.0849749619,
				"element": "C" 
			},
			{
				"x": 0.2009149753,
				"y": -3.4129870124,
				"z": 1.513101434,
				"element": "C" 
			},
			{
				"x": 0.3119987631,
				"y": -4.4297354493,
				"z": 0.573601444,
				"element": "C" 
			},
			{
				"x": 0.3772705882,
				"y": -5.7108539167,
				"z": 0.9920220013,
				"element": "F" 
			},
			{
				"x": 0.3576250447,
				"y": -4.1586564309,
				"z": -0.7891859096,
				"element": "C" 
			},
			{
				"x": 0.2897280934,
				"y": -2.8373389864,
				"z": -1.2212976628,
				"element": "C" 
			},
			{
				"x": 1.0185760954,
				"y": 2.3527344491,
				"z": -3.7850562983,
				"element": "H" 
			},
			{
				"x": -0.7378148201,
				"y": 2.2153779269,
				"z": -3.9249282912,
				"element": "H" 
			},
			{
				"x": 0.2962079548,
				"y": 0.8587365396,
				"z": -4.4149989592,
				"element": "H" 
			},
			{
				"x": -0.1540560486,
				"y": 3.8995109039,
				"z": -1.3246763136,
				"element": "H" 
			},
			{
				"x": -0.329818673,
				"y": 2.3589382559,
				"z": 2.7026706383,
				"element": "H" 
			},
			{
				"x": -1.2131409038,
				"y": 5.2986007787,
				"z": -0.2463959906,
				"element": "H" 
			},
			{
				"x": 0.0467986452,
				"y": -1.2844344121,
				"z": 1.8036887914,
				"element": "H" 
			},
			{
				"x": 0.1685928404,
				"y": -3.6586597681,
				"z": 2.5688719855,
				"element": "H" 
			},
			{
				"x": 0.4447447855,
				"y": -4.9754832333,
				"z": -1.4972008107,
				"element": "H" 
			},
			{
				"x": 0.3236087478,
				"y": -2.5997428255,
				"z": -2.2761978019,
				"element": "H" 
			}
		],
		 "valence_orbital": [ 
			{
				"type": "occ",
				"energy": -0.28422,
				"method": "rhf"
			},
			{
				"type": "occ",
				"energy": -0.2789,
				"method": "rhf"
			},
			{
				"type": "occ",
				"energy": -0.27183,
				"method": "rhf"
			},
			{
				"type": "occ",
				"energy": -0.26483,
				"method": "rhf"
			},
			{
				"type": "occ",
				"energy": -0.22332,
				"method": "rhf"
			},
			{
				"type": "unocc",
				"energy": -0.07471,
				"method": "rhf"
			},
			{
				"type": "unocc",
				"energy": -0.05326,
				"method": "rhf"
			},
			{
				"type": "unocc",
				"energy": -0.01682,
				"method": "rhf"
			},
			{
				"type": "unocc",
				"energy": -0.00615,
				"method": "rhf"
			},
			{
				"type": "unocc",
				"energy": 0.03885,
				"method": "rhf"
			}
		],
		"cosmo_sigma_profile": { 
			"-0.025": 0.0,
			"-0.024": 0.0,
			"-0.023": 0.0,
			"-0.022": 0.0,
			"-0.021": 0.0,
			"-0.02": 0.106504863814,
			"-0.019": 0.756978534671,
			"-0.018": 0.995713416235,
			"-0.017": 1.34873854614,
			"-0.016": 0.952205175361,
			"-0.015": 0.766488714008,
			"-0.014": 1.23021248112,
			"-0.013": 1.40635008561,
			"-0.012": 0.907033628199,
			"-0.011": 1.30347200195,
			"-0.01": 1.45565643985,
			"-0.009": 1.91556537071,
			"-0.008": 3.06073914869,
			"-0.007": 6.79907851862,
			"-0.006": 10.429509207,
			"-0.005": 17.4825981942,
			"-0.004": 15.7660714047,
			"-0.003": 15.7148071798,
			"-0.002": 22.5836122941,
			"-0.001": 29.5104430712,
			"0.0": 24.1347651495,
			"0.001": 20.9565362442,
			"0.002": 21.8149878187,
			"0.003": 23.1911271044,
			"0.004": 18.8644161574,
			"0.005": 9.63867193306,
			"0.006": 5.77876620227,
			"0.007": 5.35626431977,
			"0.008": 4.71577655897,
			"0.009": 4.87699207168,
			"0.01": 5.17299859168,
			"0.011": 5.46119218224,
			"0.012": 3.86350272839,
			"0.013": 0.917332279782,
			"0.014": 0.0,
			"0.015": 0.0,
			"0.016": 0.0,
			"0.017": 0.0,
			"0.018": 0.0,
			"0.019": 0.0,
			"0.02": 0.0,
			"0.021": 0.0,
			"0.022": 0.0,
			"0.023": 0.0,
			"0.024": 0.0,
			"0.025": 0.0
		}
	}
}
