{
	 "smiles": "CNC(C(NC)C1=CC=CC=C1)C1=CC=CC=C1", 
	 "Tm": 322.65, 
	 "num_atms": 38, 
	 "gaussian": { 
		 "optdone": 1, 
		 "sigma_profile": "yes", 
		 "theory": "DFT", 
		 "functional": "B3LYP", 
		 "basiset": "6-31G**", 
		 "properties": { 
			 "R2extent": 4481.104, 
			 "electric_dipole_moment_norm": 0.440303452178, 
			 "electric_quadrupole_moment_norm": 3.13452902523, 
			 "total_energy": -731.231939693, 
			 "HOMO_LUMO_gap": 0.20808, 
			 "cosmo_polarized_energy": -9.67, 
			 "cosmo_cavitation_energy": 37.86, 
			 "cosmo_dispersion_energy": -25.98, 
			 "cosmo_repulsion_energy": 2.02, 
			 "cosmo_total_nonelectrostatic_energy": 13.9, 
			 "SMD_solvation_energy": 4.28 
		},
		"coords": [
			{
				"x": -0.0712512941,
				"y": -2.1716160803,
				"z": 2.1996133945,
				"element": "C" 
			},
			{
				"x": 0.674912208,
				"y": -2.3525648857,
				"z": 0.952639496,
				"element": "N" 
			},
			{
				"x": 0.7110313297,
				"y": -1.2769949668,
				"z": -0.0446914323,
				"element": "C" 
			},
			{
				"x": -0.7437954407,
				"y": -0.9175664971,
				"z": -0.5205169597,
				"element": "C" 
			},
			{
				"x": -0.6667245084,
				"y": -0.4065781946,
				"z": -1.9014025377,
				"element": "N" 
			},
			{
				"x": -1.9617872856,
				"y": -0.2633359444,
				"z": -2.5649844236,
				"element": "C" 
			},
			{
				"x": -1.5519424391,
				"y": 0.0477453256,
				"z": 0.3449595196,
				"element": "C" 
			},
			{
				"x": -2.7227327424,
				"y": -0.3995555136,
				"z": 0.9729431038,
				"element": "C" 
			},
			{
				"x": -3.5076125411,
				"y": 0.4596595343,
				"z": 1.7435727715,
				"element": "C" 
			},
			{
				"x": -3.1377566827,
				"y": 1.7968182954,
				"z": 1.8895772854,
				"element": "C" 
			},
			{
				"x": -1.9877419036,
				"y": 2.263361123,
				"z": 1.2496870158,
				"element": "C" 
			},
			{
				"x": -1.2061388518,
				"y": 1.4010909803,
				"z": 0.4795469014,
				"element": "C" 
			},
			{
				"x": 1.6522393649,
				"y": -0.0974081467,
				"z": 0.2667512208,
				"element": "C" 
			},
			{
				"x": 2.2855312718,
				"y": 0.0415462792,
				"z": 1.5084999199,
				"element": "C" 
			},
			{
				"x": 3.1979016644,
				"y": 1.0736038798,
				"z": 1.7463144826,
				"element": "C" 
			},
			{
				"x": 3.5075389285,
				"y": 1.9857590353,
				"z": 0.7397882825,
				"element": "C" 
			},
			{
				"x": 2.8986940802,
				"y": 1.8508207132,
				"z": -0.5104230686,
				"element": "C" 
			},
			{
				"x": 1.9895917851,
				"y": 0.8202835396,
				"z": -0.7448591454,
				"element": "C" 
			},
			{
				"x": 0.0497060331,
				"y": -1.1950496795,
				"z": 2.6908174361,
				"element": "H" 
			},
			{
				"x": -1.1409356207,
				"y": -2.3166759776,
				"z": 2.0308836697,
				"element": "H" 
			},
			{
				"x": 0.2511216216,
				"y": -2.9474920955,
				"z": 2.9012247832,
				"element": "H" 
			},
			{
				"x": 1.6288057908,
				"y": -2.6286779729,
				"z": 1.1593596977,
				"element": "H" 
			},
			{
				"x": 1.1518688865,
				"y": -1.7580155253,
				"z": -0.9318732911,
				"element": "H" 
			},
			{
				"x": -1.2749966183,
				"y": -1.8862717025,
				"z": -0.492749966,
				"element": "H" 
			},
			{
				"x": -0.1011707742,
				"y": -1.0573394164,
				"z": -2.4417887614,
				"element": "H" 
			},
			{
				"x": -1.7955465899,
				"y": 0.0045028271,
				"z": -3.6126823435,
				"element": "H" 
			},
			{
				"x": -2.5841023004,
				"y": -1.1757685774,
				"z": -2.5358775593,
				"element": "H" 
			},
			{
				"x": -2.5335781701,
				"y": 0.5429538926,
				"z": -2.0988672537,
				"element": "H" 
			},
			{
				"x": -3.0270014481,
				"y": -1.4365705429,
				"z": 0.8517715497,
				"element": "H" 
			},
			{
				"x": -4.4089560989,
				"y": 0.0854502752,
				"z": 2.221193522,
				"element": "H" 
			},
			{
				"x": -3.7444983167,
				"y": 2.4713662592,
				"z": 2.4872600206,
				"element": "H" 
			},
			{
				"x": -1.697838849,
				"y": 3.3062028501,
				"z": 1.3455862751,
				"element": "H" 
			},
			{
				"x": -0.3279545274,
				"y": 1.7815101156,
				"z": -0.0268780511,
				"element": "H" 
			},
			{
				"x": 2.0780759698,
				"y": -0.6626102192,
				"z": 2.3058042728,
				"element": "H" 
			},
			{
				"x": 3.6680650987,
				"y": 1.1575490728,
				"z": 2.722461021,
				"element": "H" 
			},
			{
				"x": 4.2191364387,
				"y": 2.7861074478,
				"z": 0.921958785,
				"element": "H" 
			},
			{
				"x": 3.1377704454,
				"y": 2.5468326304,
				"z": -1.3102314475,
				"element": "H" 
			},
			{
				"x": 1.5091720855,
				"y": 0.733627862,
				"z": -1.7135881859,
				"element": "H" 
			}
		],
		 "valence_orbital": [ 
			{
				"type": "occ",
				"energy": -0.24211,
				"method": "rhf"
			},
			{
				"type": "occ",
				"energy": -0.23897,
				"method": "rhf"
			},
			{
				"type": "occ",
				"energy": -0.23364,
				"method": "rhf"
			},
			{
				"type": "occ",
				"energy": -0.22254,
				"method": "rhf"
			},
			{
				"type": "occ",
				"energy": -0.21144,
				"method": "rhf"
			},
			{
				"type": "unocc",
				"energy": -0.00336,
				"method": "rhf"
			},
			{
				"type": "unocc",
				"energy": 0.00264,
				"method": "rhf"
			},
			{
				"type": "unocc",
				"energy": 0.006,
				"method": "rhf"
			},
			{
				"type": "unocc",
				"energy": 0.01097,
				"method": "rhf"
			},
			{
				"type": "unocc",
				"energy": 0.07909,
				"method": "rhf"
			}
		],
		"cosmo_sigma_profile": { 
			"-0.025": 0.0,
			"-0.024": 0.0,
			"-0.023": 0.0,
			"-0.022": 0.0,
			"-0.021": 0.0,
			"-0.02": 0.0,
			"-0.019": 0.0,
			"-0.018": 0.0,
			"-0.017": 0.0,
			"-0.016": 0.0,
			"-0.015": 0.0,
			"-0.014": 0.0,
			"-0.013": 0.0,
			"-0.012": 0.0,
			"-0.011": 0.00557684109805,
			"-0.01": 1.38292168401,
			"-0.009": 3.02360902637,
			"-0.008": 2.87555675557,
			"-0.007": 3.1396279609,
			"-0.006": 6.51885666239,
			"-0.005": 18.5542059056,
			"-0.004": 26.1702032518,
			"-0.003": 29.3635577641,
			"-0.002": 31.803811034,
			"-0.001": 28.1363757851,
			"0.0": 27.4363284732,
			"0.001": 19.6263084721,
			"0.002": 16.9927114074,
			"0.003": 16.9667144942,
			"0.004": 17.9161375872,
			"0.005": 17.6363006689,
			"0.006": 16.628232325,
			"0.007": 4.52910935419,
			"0.008": 1.38248570989,
			"0.009": 1.48491734178,
			"0.01": 1.73338801178,
			"0.011": 1.65236356508,
			"0.012": 0.870045339921,
			"0.013": 0.578625789021,
			"0.014": 0.383715984565,
			"0.015": 0.276151635478,
			"0.016": 0.565664034316,
			"0.017": 0.561416108176,
			"0.018": 0.0162287798574,
			"0.019": 0.0,
			"0.02": 0.0,
			"0.021": 0.0,
			"0.022": 0.0,
			"0.023": 0.0,
			"0.024": 0.0,
			"0.025": 0.0
		}
	}
}
