{
	 "smiles": "OC(=O)CCCCCCCC(O)=O", 
	 "Tm": 377.15, 
	 "num_atms": 29, 
	 "gaussian": { 
		 "optdone": 1, 
		 "sigma_profile": "yes", 
		 "theory": "DFT", 
		 "functional": "B3LYP", 
		 "basiset": "6-31G**", 
		 "properties": { 
			 "R2extent": 4826.8818, 
			 "electric_dipole_moment_norm": 0.853538815755, 
			 "electric_quadrupole_moment_norm": 9.51069937649, 
			 "total_energy": -653.54791894, 
			 "HOMO_LUMO_gap": 0.28327, 
			 "cosmo_polarized_energy": -14.88, 
			 "cosmo_cavitation_energy": 32.37, 
			 "cosmo_dispersion_energy": -22.59, 
			 "cosmo_repulsion_energy": 1.88, 
			 "cosmo_total_nonelectrostatic_energy": 11.66, 
			 "SMD_solvation_energy": 6.87 
		},
		"coords": [
			{
				"x": -0.3800558939,
				"y": -3.4801661017,
				"z": 4.6600456562,
				"element": "O" 
			},
			{
				"x": -0.1920137702,
				"y": -3.1902867795,
				"z": 3.3482721258,
				"element": "C" 
			},
			{
				"x": -0.9256091267,
				"y": -3.6141247522,
				"z": 2.4812867446,
				"element": "O" 
			},
			{
				"x": 1.0323466255,
				"y": -2.3230461961,
				"z": 3.1415492703,
				"element": "C" 
			},
			{
				"x": 1.1502653983,
				"y": -1.7567551147,
				"z": 1.7233362676,
				"element": "C" 
			},
			{
				"x": 0.1090803845,
				"y": -0.6771972476,
				"z": 1.3996171266,
				"element": "C" 
			},
			{
				"x": 0.2577088974,
				"y": -0.1063184785,
				"z": -0.0165215204,
				"element": "C" 
			},
			{
				"x": -0.7983325244,
				"y": 0.9599617305,
				"z": -0.3402724062,
				"element": "C" 
			},
			{
				"x": -0.6421646927,
				"y": 1.6588772372,
				"z": -1.701469023,
				"element": "C" 
			},
			{
				"x": -0.7314946517,
				"y": 0.724327864,
				"z": -2.9180217972,
				"element": "C" 
			},
			{
				"x": 0.5763716122,
				"y": 0.0371473844,
				"z": -3.25353816,
				"element": "C" 
			},
			{
				"x": 0.3772187766,
				"y": -1.147762824,
				"z": -3.8820219148,
				"element": "O" 
			},
			{
				"x": 1.68553163,
				"y": 0.4771674576,
				"z": -3.0393370867,
				"element": "O" 
			},
			{
				"x": -1.1625182038,
				"y": -4.0557143679,
				"z": 4.6976921304,
				"element": "H" 
			},
			{
				"x": 1.9012519667,
				"y": -2.9482402924,
				"z": 3.3866527448,
				"element": "H" 
			},
			{
				"x": 1.0202873107,
				"y": -1.5281616542,
				"z": 3.8967977795,
				"element": "H" 
			},
			{
				"x": 1.0564549114,
				"y": -2.5803309715,
				"z": 1.0063363934,
				"element": "H" 
			},
			{
				"x": 2.1577069295,
				"y": -1.3405006643,
				"z": 1.5991832299,
				"element": "H" 
			},
			{
				"x": 0.1944143472,
				"y": 0.140386355,
				"z": 2.1305032024,
				"element": "H" 
			},
			{
				"x": -0.8954012324,
				"y": -1.1011420527,
				"z": 1.5190198565,
				"element": "H" 
			},
			{
				"x": 0.1867307245,
				"y": -0.9330122122,
				"z": -0.7365536018,
				"element": "H" 
			},
			{
				"x": 1.2612130997,
				"y": 0.3206940567,
				"z": -0.1428003992,
				"element": "H" 
			},
			{
				"x": -0.7751842858,
				"y": 1.7307443633,
				"z": 0.442080776,
				"element": "H" 
			},
			{
				"x": -1.7970879797,
				"y": 0.5034291472,
				"z": -0.2830855369,
				"element": "H" 
			},
			{
				"x": -1.426766909,
				"y": 2.4189327214,
				"z": -1.7911452499,
				"element": "H" 
			},
			{
				"x": 0.3170608226,
				"y": 2.1866646904,
				"z": -1.7455075902,
				"element": "H" 
			},
			{
				"x": -0.9966115752,
				"y": 1.3020461223,
				"z": -3.8140182575,
				"element": "H" 
			},
			{
				"x": -1.5153912799,
				"y": -0.0309361118,
				"z": -2.8008846845,
				"element": "H" 
			},
			{
				"x": 1.2618886884,
				"y": -1.4904833087,
				"z": -4.0948960758,
				"element": "H" 
			}
		],
		 "valence_orbital": [ 
			{
				"type": "occ",
				"energy": -0.31501,
				"method": "rhf"
			},
			{
				"type": "occ",
				"energy": -0.31196,
				"method": "rhf"
			},
			{
				"type": "occ",
				"energy": -0.30849,
				"method": "rhf"
			},
			{
				"type": "occ",
				"energy": -0.27379,
				"method": "rhf"
			},
			{
				"type": "occ",
				"energy": -0.27236,
				"method": "rhf"
			},
			{
				"type": "unocc",
				"energy": 0.01091,
				"method": "rhf"
			},
			{
				"type": "unocc",
				"energy": 0.01192,
				"method": "rhf"
			},
			{
				"type": "unocc",
				"energy": 0.07821,
				"method": "rhf"
			},
			{
				"type": "unocc",
				"energy": 0.0801,
				"method": "rhf"
			},
			{
				"type": "unocc",
				"energy": 0.09225,
				"method": "rhf"
			}
		],
		"cosmo_sigma_profile": { 
			"-0.025": 0.0,
			"-0.024": 0.0,
			"-0.023": 0.0,
			"-0.022": 0.0,
			"-0.021": 0.0,
			"-0.02": 0.0,
			"-0.019": 0.0,
			"-0.018": 0.719643008713,
			"-0.017": 2.27461687098,
			"-0.016": 1.51275582059,
			"-0.015": 1.73925357275,
			"-0.014": 1.1396912548,
			"-0.013": 0.949874282141,
			"-0.012": 1.65692898391,
			"-0.011": 1.3723235262,
			"-0.01": 1.91037028001,
			"-0.009": 1.10957166327,
			"-0.008": 0.875237371685,
			"-0.007": 2.32988814896,
			"-0.006": 7.99019160861,
			"-0.005": 9.0950318197,
			"-0.004": 11.8562240182,
			"-0.003": 20.3637035848,
			"-0.002": 36.9535628702,
			"-0.001": 35.5741441706,
			"0.0": 25.8308762736,
			"0.001": 14.287856886,
			"0.002": 7.53952413857,
			"0.003": 6.32203831884,
			"0.004": 5.53951807612,
			"0.005": 6.07339153556,
			"0.006": 6.14787264534,
			"0.007": 4.174903578,
			"0.008": 6.78427565823,
			"0.009": 6.90373869128,
			"0.01": 5.12474154548,
			"0.011": 5.22964546118,
			"0.012": 9.44903311362,
			"0.013": 1.66959689196,
			"0.014": 0.0,
			"0.015": 0.0,
			"0.016": 0.0,
			"0.017": 0.0,
			"0.018": 0.0,
			"0.019": 0.0,
			"0.02": 0.0,
			"0.021": 0.0,
			"0.022": 0.0,
			"0.023": 0.0,
			"0.024": 0.0,
			"0.025": 0.0
		}
	}
}
