{
	 "smiles": "NC(=O)C(F)(F)C(F)(F)C(N)=O", 
	 "Tm": 533.15, 
	 "num_atms": 16, 
	 "gaussian": { 
		 "optdone": 1, 
		 "sigma_profile": "yes", 
		 "theory": "DFT", 
		 "functional": "B3LYP", 
		 "basiset": "6-31G**", 
		 "properties": { 
			 "R2extent": 1991.5785, 
			 "electric_dipole_moment_norm": 1.81210531703, 
			 "electric_quadrupole_moment_norm": 15.3608971138, 
			 "total_energy": -814.155816854, 
			 "HOMO_LUMO_gap": 0.25976, 
			 "cosmo_polarized_energy": -17.07, 
			 "cosmo_cavitation_energy": 22.59, 
			 "cosmo_dispersion_energy": -15.77, 
			 "cosmo_repulsion_energy": 1.23, 
			 "cosmo_total_nonelectrostatic_energy": 8.06, 
			 "SMD_solvation_energy": 6.72 
		},
		"coords": [
			{
				"x": -1.8691223022,
				"y": -1.1928632412,
				"z": -0.9696508061,
				"element": "N" 
			},
			{
				"x": -1.2286188427,
				"y": -1.1385219505,
				"z": 0.2192079159,
				"element": "C" 
			},
			{
				"x": -1.7114764671,
				"y": -0.783000455,
				"z": 1.2820740806,
				"element": "O" 
			},
			{
				"x": 0.2302909519,
				"y": -1.6405730658,
				"z": 0.1755119522,
				"element": "C" 
			},
			{
				"x": 0.2580588082,
				"y": -2.9333388081,
				"z": 0.600858836,
				"element": "F" 
			},
			{
				"x": 0.7210003174,
				"y": -1.6171236088,
				"z": -1.0965386496,
				"element": "F" 
			},
			{
				"x": 1.1706767652,
				"y": -0.8143575491,
				"z": 1.0886168922,
				"element": "C" 
			},
			{
				"x": 2.4550291966,
				"y": -1.0945233165,
				"z": 0.7352027126,
				"element": "F" 
			},
			{
				"x": 1.0020851588,
				"y": -1.2236365203,
				"z": 2.3783963912,
				"element": "F" 
			},
			{
				"x": 0.9424447413,
				"y": 0.7060944581,
				"z": 0.9524115023,
				"element": "C" 
			},
			{
				"x": 1.0595313987,
				"y": 1.3899322769,
				"z": 2.1122550883,
				"element": "N" 
			},
			{
				"x": 0.7269078583,
				"y": 1.1864738188,
				"z": -0.1485050585,
				"element": "O" 
			},
			{
				"x": -2.8051834677,
				"y": -0.8188273844,
				"z": -1.0193094233,
				"element": "H" 
			},
			{
				"x": -1.3439818332,
				"y": -1.3243731888,
				"z": -1.8202039946,
				"element": "H" 
			},
			{
				"x": 1.0568800287,
				"y": 0.8964672903,
				"z": 2.991452185,
				"element": "H" 
			},
			{
				"x": 0.8589776878,
				"y": 2.3789712444,
				"z": 2.0997203759,
				"element": "H" 
			}
		],
		 "valence_orbital": [ 
			{
				"type": "occ",
				"energy": -0.36365,
				"method": "rhf"
			},
			{
				"type": "occ",
				"energy": -0.29424,
				"method": "rhf"
			},
			{
				"type": "occ",
				"energy": -0.29138,
				"method": "rhf"
			},
			{
				"type": "occ",
				"energy": -0.27684,
				"method": "rhf"
			},
			{
				"type": "occ",
				"energy": -0.27163,
				"method": "rhf"
			},
			{
				"type": "unocc",
				"energy": -0.01187,
				"method": "rhf"
			},
			{
				"type": "unocc",
				"energy": -0.00796,
				"method": "rhf"
			},
			{
				"type": "unocc",
				"energy": 0.06519,
				"method": "rhf"
			},
			{
				"type": "unocc",
				"energy": 0.0729,
				"method": "rhf"
			},
			{
				"type": "unocc",
				"energy": 0.09893,
				"method": "rhf"
			}
		],
		"cosmo_sigma_profile": { 
			"-0.025": 0.0,
			"-0.024": 0.0,
			"-0.023": 0.0,
			"-0.022": 0.0,
			"-0.021": 0.0,
			"-0.02": 0.0,
			"-0.019": 0.0,
			"-0.018": 0.0,
			"-0.017": 0.0,
			"-0.016": 1.45374032463,
			"-0.015": 4.12937097232,
			"-0.014": 4.70550178277,
			"-0.013": 3.56853009575,
			"-0.012": 3.90355149531,
			"-0.011": 4.70492387599,
			"-0.01": 4.53432890348,
			"-0.009": 3.23281265404,
			"-0.008": 2.41266148671,
			"-0.007": 3.83967988941,
			"-0.006": 4.08033612645,
			"-0.005": 3.14805092756,
			"-0.004": 2.77823304607,
			"-0.003": 3.3451600332,
			"-0.002": 5.53783695535,
			"-0.001": 6.85084494402,
			"0.0": 9.21769318214,
			"0.001": 12.6885712973,
			"0.002": 29.6052663482,
			"0.003": 24.2165344599,
			"0.004": 6.00131648194,
			"0.005": 4.44784325818,
			"0.006": 3.15139661466,
			"0.007": 2.77124349437,
			"0.008": 3.36266020244,
			"0.009": 2.94820301781,
			"0.01": 3.95427680847,
			"0.011": 6.97538169383,
			"0.012": 6.59292599722,
			"0.013": 1.2988156585,
			"0.014": 0.0,
			"0.015": 0.0,
			"0.016": 0.0,
			"0.017": 0.0,
			"0.018": 0.0,
			"0.019": 0.0,
			"0.02": 0.0,
			"0.021": 0.0,
			"0.022": 0.0,
			"0.023": 0.0,
			"0.024": 0.0,
			"0.025": 0.0
		}
	}
}
