{
	 "smiles": "CC12CCC3C(CCC4=CC(=O)CCC34C)C1CCC2(O)C(=O)CO", 
	 "Tm": 488.15, 
	 "num_atms": 55, 
	 "gaussian": { 
		 "optdone": 1, 
		 "sigma_profile": "yes", 
		 "theory": "DFT", 
		 "functional": "B3LYP", 
		 "basiset": "6-31G**", 
		 "properties": { 
			 "R2extent": 11380.4048, 
			 "electric_dipole_moment_norm": 2.87538675312, 
			 "electric_quadrupole_moment_norm": 54.1426355827, 
			 "total_energy": -1119.19227619, 
			 "HOMO_LUMO_gap": 0.18543, 
			 "cosmo_polarized_energy": -20.04, 
			 "cosmo_cavitation_energy": 47.96, 
			 "cosmo_dispersion_energy": -33.67, 
			 "cosmo_repulsion_energy": 2.46, 
			 "cosmo_total_nonelectrostatic_energy": 16.74, 
			 "SMD_solvation_energy": 7.88 
		},
		"coords": [
			{
				"x": 0.4928854174,
				"y": 2.3982728628,
				"z": 1.1213677331,
				"element": "C" 
			},
			{
				"x": -0.8714918135,
				"y": 1.6868929043,
				"z": 1.0124647093,
				"element": "C" 
			},
			{
				"x": -1.0092593318,
				"y": 0.7001175684,
				"z": 2.1930728677,
				"element": "C" 
			},
			{
				"x": -0.0501500487,
				"y": -0.5103254006,
				"z": 2.1032013784,
				"element": "C" 
			},
			{
				"x": 0.2656651911,
				"y": -0.997525811,
				"z": 0.6598325406,
				"element": "C" 
			},
			{
				"x": -0.8991586086,
				"y": -0.6228414229,
				"z": -0.2839146743,
				"element": "C" 
			},
			{
				"x": -2.1512316736,
				"y": -1.4456782551,
				"z": 0.0837174547,
				"element": "C" 
			},
			{
				"x": -1.8418361065,
				"y": -2.9527906497,
				"z": -0.000420547,
				"element": "C" 
			},
			{
				"x": -0.6126370408,
				"y": -3.3703650587,
				"z": 0.7756122737,
				"element": "C" 
			},
			{
				"x": -0.6333657108,
				"y": -4.4728061529,
				"z": 1.5541091986,
				"element": "C" 
			},
			{
				"x": 0.5576009637,
				"y": -5.0453875883,
				"z": 2.2099316152,
				"element": "C" 
			},
			{
				"x": 0.4845349439,
				"y": -6.0354293353,
				"z": 2.9253063334,
				"element": "O" 
			},
			{
				"x": 1.8840281083,
				"y": -4.3727072838,
				"z": 1.886404026,
				"element": "C" 
			},
			{
				"x": 1.7064875768,
				"y": -2.8670856804,
				"z": 1.6578054329,
				"element": "C" 
			},
			{
				"x": 0.6448478805,
				"y": -2.5226008213,
				"z": 0.5808055185,
				"element": "C" 
			},
			{
				"x": 1.2484595414,
				"y": -2.8319125623,
				"z": -0.8167895999,
				"element": "C" 
			},
			{
				"x": -1.0302639805,
				"y": 0.9296970118,
				"z": -0.3648104782,
				"element": "C" 
			},
			{
				"x": -2.3510643422,
				"y": 1.4334727307,
				"z": -1.008177302,
				"element": "C" 
			},
			{
				"x": -3.1528478175,
				"y": 2.0501146201,
				"z": 0.14298481,
				"element": "C" 
			},
			{
				"x": -2.0892953765,
				"y": 2.7107985004,
				"z": 1.0466212155,
				"element": "C" 
			},
			{
				"x": -2.5283863479,
				"y": 2.8894248611,
				"z": 2.3939743323,
				"element": "O" 
			},
			{
				"x": -1.7028098546,
				"y": 4.0840664683,
				"z": 0.4763813332,
				"element": "C" 
			},
			{
				"x": -1.3869880455,
				"y": 4.2545917408,
				"z": -0.6929405651,
				"element": "O" 
			},
			{
				"x": -1.7200834531,
				"y": 5.2961767774,
				"z": 1.4014186256,
				"element": "C" 
			},
			{
				"x": -1.3173409452,
				"y": 6.4501690928,
				"z": 0.7226412001,
				"element": "O" 
			},
			{
				"x": 0.5529397954,
				"y": 2.9907899538,
				"z": 2.0417027704,
				"element": "H" 
			},
			{
				"x": 0.6793215376,
				"y": 3.059093071,
				"z": 0.2711510675,
				"element": "H" 
			},
			{
				"x": 1.3088570326,
				"y": 1.6710812702,
				"z": 1.1529891022,
				"element": "H" 
			},
			{
				"x": -0.8341329266,
				"y": 1.2314449857,
				"z": 3.1324189145,
				"element": "H" 
			},
			{
				"x": -2.0432871111,
				"y": 0.3527422363,
				"z": 2.2534576666,
				"element": "H" 
			},
			{
				"x": 0.8889271816,
				"y": -0.2634903384,
				"z": 2.6080977188,
				"element": "H" 
			},
			{
				"x": -0.4930464174,
				"y": -1.3281769343,
				"z": 2.6836482886,
				"element": "H" 
			},
			{
				"x": 1.1538893348,
				"y": -0.4542565913,
				"z": 0.3080824364,
				"element": "H" 
			},
			{
				"x": -0.6341871186,
				"y": -0.9314600718,
				"z": -1.3037115017,
				"element": "H" 
			},
			{
				"x": -2.9797464024,
				"y": -1.2227373617,
				"z": -0.5964266943,
				"element": "H" 
			},
			{
				"x": -2.5056832398,
				"y": -1.2133678527,
				"z": 1.0919424764,
				"element": "H" 
			},
			{
				"x": -2.7036787736,
				"y": -3.5427547131,
				"z": 0.328144877,
				"element": "H" 
			},
			{
				"x": -1.6794080494,
				"y": -3.2116611848,
				"z": -1.0577444153,
				"element": "H" 
			},
			{
				"x": -1.5521030778,
				"y": -5.0398175083,
				"z": 1.6896501786,
				"element": "H" 
			},
			{
				"x": 2.2906391829,
				"y": -4.8660895443,
				"z": 0.9929151866,
				"element": "H" 
			},
			{
				"x": 2.5840246949,
				"y": -4.578522073,
				"z": 2.7011870241,
				"element": "H" 
			},
			{
				"x": 1.4146648787,
				"y": -2.4245473898,
				"z": 2.6137080481,
				"element": "H" 
			},
			{
				"x": 2.6626192094,
				"y": -2.4063340999,
				"z": 1.3804464934,
				"element": "H" 
			},
			{
				"x": 2.1155863034,
				"y": -2.188199285,
				"z": -1.001413304,
				"element": "H" 
			},
			{
				"x": 0.5373946238,
				"y": -2.6725354979,
				"z": -1.6301785569,
				"element": "H" 
			},
			{
				"x": 1.5808232736,
				"y": -3.8718173958,
				"z": -0.8799016263,
				"element": "H" 
			},
			{
				"x": -0.1987908868,
				"y": 1.2460024202,
				"z": -1.0046912522,
				"element": "H" 
			},
			{
				"x": -2.1280504609,
				"y": 2.2077862718,
				"z": -1.7435543861,
				"element": "H" 
			},
			{
				"x": -2.9082011783,
				"y": 0.6451479736,
				"z": -1.5218072856,
				"element": "H" 
			},
			{
				"x": -3.6521538765,
				"y": 1.2753450827,
				"z": 0.7375324449,
				"element": "H" 
			},
			{
				"x": -3.9188722252,
				"y": 2.7579070227,
				"z": -0.1948423405,
				"element": "H" 
			},
			{
				"x": -3.465121312,
				"y": 3.1232517815,
				"z": 2.3815639847,
				"element": "H" 
			},
			{
				"x": -2.7366529822,
				"y": 5.4075419348,
				"z": 1.8134120659,
				"element": "H" 
			},
			{
				"x": -1.0741010997,
				"y": 5.0817653518,
				"z": 2.2662345895,
				"element": "H" 
			},
			{
				"x": -1.1491690358,
				"y": 6.1612293693,
				"z": -0.1925134036,
				"element": "H" 
			}
		],
		 "valence_orbital": [ 
			{
				"type": "occ",
				"energy": -0.28778,
				"method": "rhf"
			},
			{
				"type": "occ",
				"energy": -0.26802,
				"method": "rhf"
			},
			{
				"type": "occ",
				"energy": -0.25753,
				"method": "rhf"
			},
			{
				"type": "occ",
				"energy": -0.25648,
				"method": "rhf"
			},
			{
				"type": "occ",
				"energy": -0.23151,
				"method": "rhf"
			},
			{
				"type": "unocc",
				"energy": -0.04608,
				"method": "rhf"
			},
			{
				"type": "unocc",
				"energy": -0.03647,
				"method": "rhf"
			},
			{
				"type": "unocc",
				"energy": 0.04506,
				"method": "rhf"
			},
			{
				"type": "unocc",
				"energy": 0.05202,
				"method": "rhf"
			},
			{
				"type": "unocc",
				"energy": 0.07205,
				"method": "rhf"
			}
		],
		"cosmo_sigma_profile": { 
			"-0.025": 0.0,
			"-0.024": 0.0,
			"-0.023": 0.0,
			"-0.022": 0.0,
			"-0.021": 0.0,
			"-0.02": 0.0,
			"-0.019": 0.0,
			"-0.018": 0.0,
			"-0.017": 0.0,
			"-0.016": 0.455355092178,
			"-0.015": 0.838556333042,
			"-0.014": 1.39639308248,
			"-0.013": 1.40584592724,
			"-0.012": 1.41621709931,
			"-0.011": 0.917993372969,
			"-0.01": 1.69909157674,
			"-0.009": 2.71776449492,
			"-0.008": 1.46314759066,
			"-0.007": 2.61523128197,
			"-0.006": 3.7552553286,
			"-0.005": 13.3680258941,
			"-0.004": 26.4965825592,
			"-0.003": 44.6237535851,
			"-0.002": 58.2313934292,
			"-0.001": 55.3934490849,
			"0.0": 39.8912657808,
			"0.001": 27.0072700857,
			"0.002": 12.5259874693,
			"0.003": 9.1234321832,
			"0.004": 7.58232271556,
			"0.005": 5.47771849642,
			"0.006": 5.53439401307,
			"0.007": 4.74029585456,
			"0.008": 5.67912832104,
			"0.009": 5.69247135564,
			"0.01": 5.87333466625,
			"0.011": 5.09701879163,
			"0.012": 4.90148103213,
			"0.013": 6.92678344839,
			"0.014": 5.60505636104,
			"0.015": 0.97753483675,
			"0.016": 0.0,
			"0.017": 0.0,
			"0.018": 0.0,
			"0.019": 0.0,
			"0.02": 0.0,
			"0.021": 0.0,
			"0.022": 0.0,
			"0.023": 0.0,
			"0.024": 0.0,
			"0.025": 0.0
		}
	}
}
