{
	 "smiles": "OC(=O)C1CC1(F)F", 
	 "Tm": 331.15, 
	 "num_atms": 12, 
	 "gaussian": { 
		 "optdone": 1, 
		 "sigma_profile": "yes", 
		 "theory": "DFT", 
		 "functional": "B3LYP", 
		 "basiset": "6-31G**", 
		 "properties": { 
			 "R2extent": 1361.444, 
			 "electric_dipole_moment_norm": 3.63872888383, 
			 "electric_quadrupole_moment_norm": 12.0728956121, 
			 "total_energy": -504.923228081, 
			 "HOMO_LUMO_gap": 0.2674, 
			 "cosmo_polarized_energy": -11.54, 
			 "cosmo_cavitation_energy": 17.14, 
			 "cosmo_dispersion_energy": -12.52, 
			 "cosmo_repulsion_energy": 1.02, 
			 "cosmo_total_nonelectrostatic_energy": 5.64, 
			 "SMD_solvation_energy": 4.88 
		},
		"coords": [
			{
				"x": -0.7540031707,
				"y": -0.7951639694,
				"z": -3.1218524604,
				"element": "O" 
			},
			{
				"x": -1.1573515648,
				"y": -1.2189779854,
				"z": -1.9019637747,
				"element": "C" 
			},
			{
				"x": -2.1459870233,
				"y": -1.8966459176,
				"z": -1.7725239295,
				"element": "O" 
			},
			{
				"x": -0.3544817035,
				"y": -0.7661995478,
				"z": -0.7083126059,
				"element": "C" 
			},
			{
				"x": -0.0995935227,
				"y": 0.7578162861,
				"z": -0.4686283117,
				"element": "C" 
			},
			{
				"x": 1.0067673682,
				"y": -0.1625078485,
				"z": -0.7638684051,
				"element": "C" 
			},
			{
				"x": 1.63449382,
				"y": -0.0561105903,
				"z": -1.9797360612,
				"element": "F" 
			},
			{
				"x": 1.9115412617,
				"y": -0.4838724389,
				"z": 0.1753331926,
				"element": "F" 
			},
			{
				"x": 0.1387479429,
				"y": -0.4171311589,
				"z": -3.0776959425,
				"element": "H" 
			},
			{
				"x": -0.5795537793,
				"y": -1.3407493369,
				"z": 0.183408816,
				"element": "H" 
			},
			{
				"x": -0.2202476753,
				"y": 1.120555749,
				"z": 0.546092308,
				"element": "H" 
			},
			{
				"x": -0.4165319531,
				"y": 1.4351867587,
				"z": -1.2555528257,
				"element": "H" 
			}
		],
		 "valence_orbital": [ 
			{
				"type": "occ",
				"energy": -0.38055,
				"method": "rhf"
			},
			{
				"type": "occ",
				"energy": -0.35323,
				"method": "rhf"
			},
			{
				"type": "occ",
				"energy": -0.33288,
				"method": "rhf"
			},
			{
				"type": "occ",
				"energy": -0.31721,
				"method": "rhf"
			},
			{
				"type": "occ",
				"energy": -0.27609,
				"method": "rhf"
			},
			{
				"type": "unocc",
				"energy": -0.00869,
				"method": "rhf"
			},
			{
				"type": "unocc",
				"energy": 0.04703,
				"method": "rhf"
			},
			{
				"type": "unocc",
				"energy": 0.08388,
				"method": "rhf"
			},
			{
				"type": "unocc",
				"energy": 0.11091,
				"method": "rhf"
			},
			{
				"type": "unocc",
				"energy": 0.12111,
				"method": "rhf"
			}
		],
		"cosmo_sigma_profile": { 
			"-0.025": 0.0,
			"-0.024": 0.0,
			"-0.023": 0.0,
			"-0.022": 0.0,
			"-0.021": 0.0,
			"-0.02": 0.0,
			"-0.019": 0.0,
			"-0.018": 0.0,
			"-0.017": 0.0,
			"-0.016": 0.0,
			"-0.015": 0.0,
			"-0.014": 0.0859145221212,
			"-0.013": 0.995476900549,
			"-0.012": 1.50184052713,
			"-0.011": 1.38069162251,
			"-0.01": 1.34474295271,
			"-0.009": 5.74101438691,
			"-0.008": 8.36863267556,
			"-0.007": 5.56720465979,
			"-0.006": 6.50453647869,
			"-0.005": 6.54531843617,
			"-0.004": 8.08907488483,
			"-0.003": 6.52956012607,
			"-0.002": 7.97028834076,
			"-0.001": 7.38249629041,
			"0.0": 4.76219247354,
			"0.001": 6.5020347184,
			"0.002": 10.0411521329,
			"0.003": 15.3031616082,
			"0.004": 2.80487549877,
			"0.005": 1.88575334951,
			"0.006": 2.63431117064,
			"0.007": 2.09331334211,
			"0.008": 2.84633255085,
			"0.009": 3.70615775088,
			"0.01": 4.76539566345,
			"0.011": 5.71655500113,
			"0.012": 4.78738641369,
			"0.013": 1.09418805075,
			"0.014": 0.0,
			"0.015": 0.0,
			"0.016": 0.0,
			"0.017": 0.0,
			"0.018": 0.0,
			"0.019": 0.0,
			"0.02": 0.0,
			"0.021": 0.0,
			"0.022": 0.0,
			"0.023": 0.0,
			"0.024": 0.0,
			"0.025": 0.0
		}
	}
}
