{
	 "smiles": "NC1=NC2=C(S1)C(=CC(=N2)C1=CC=CS1)C(F)(F)F", 
	 "Tm": 517.15, 
	 "num_atms": 25, 
	 "gaussian": { 
		 "optdone": 1, 
		 "sigma_profile": "yes", 
		 "theory": "DFT", 
		 "functional": "B3LYP", 
		 "basiset": "6-31G**", 
		 "properties": { 
			 "R2extent": 7483.864, 
			 "electric_dipole_moment_norm": 2.0709254791, 
			 "electric_quadrupole_moment_norm": 29.9025651711, 
			 "total_energy": -1682.9445313, 
			 "HOMO_LUMO_gap": 0.15309, 
			 "cosmo_polarized_energy": -16.65, 
			 "cosmo_cavitation_energy": 34.63, 
			 "cosmo_dispersion_energy": -26.13, 
			 "cosmo_repulsion_energy": 1.85, 
			 "cosmo_total_nonelectrostatic_energy": 10.35, 
			 "SMD_solvation_energy": 3.5 
		},
		"coords": [
			{
				"x": 4.4516057698,
				"y": 3.1689829827,
				"z": 1.3937755989,
				"element": "N" 
			},
			{
				"x": 3.5717274617,
				"y": 2.3439126936,
				"z": 0.7638408583,
				"element": "C" 
			},
			{
				"x": 2.411124588,
				"y": 2.0209805422,
				"z": 1.2418507991,
				"element": "N" 
			},
			{
				"x": 1.7740508418,
				"y": 1.1253137437,
				"z": 0.4045759794,
				"element": "C" 
			},
			{
				"x": 2.4963345605,
				"y": 0.7657203908,
				"z": -0.7683750378,
				"element": "C" 
			},
			{
				"x": 4.0477495948,
				"y": 1.5806013203,
				"z": -0.7893023211,
				"element": "S" 
			},
			{
				"x": 1.9136613651,
				"y": -0.1189251628,
				"z": -1.6731913146,
				"element": "C" 
			},
			{
				"x": 0.6481162174,
				"y": -0.6160389643,
				"z": -1.3763569561,
				"element": "C" 
			},
			{
				"x": 0.0035260264,
				"y": -0.2131153687,
				"z": -0.1885167895,
				"element": "C" 
			},
			{
				"x": 0.5636287856,
				"y": 0.6458831953,
				"z": 0.681063068,
				"element": "N" 
			},
			{
				"x": -1.3254630213,
				"y": -0.7135425875,
				"z": 0.1638697007,
				"element": "C" 
			},
			{
				"x": -2.1460581488,
				"y": -1.5930300695,
				"z": -0.509972557,
				"element": "C" 
			},
			{
				"x": -3.3772365311,
				"y": -1.8375119059,
				"z": 0.1586943717,
				"element": "C" 
			},
			{
				"x": -3.48061044,
				"y": -1.1411925341,
				"z": 1.3346580433,
				"element": "C" 
			},
			{
				"x": -2.0793156488,
				"y": -0.1758631332,
				"z": 1.6475622587,
				"element": "S" 
			},
			{
				"x": 2.6209826467,
				"y": -0.5053126297,
				"z": -2.946568098,
				"element": "C" 
			},
			{
				"x": 2.7622247393,
				"y": 0.5591216663,
				"z": -3.7676678723,
				"element": "F" 
			},
			{
				"x": 3.8651595493,
				"y": -0.9715804605,
				"z": -2.6946023192,
				"element": "F" 
			},
			{
				"x": 1.9587759896,
				"y": -1.4591604527,
				"z": -3.6283154636,
				"element": "F" 
			},
			{
				"x": 5.1701738722,
				"y": 3.6280709582,
				"z": 0.8561020598,
				"element": "H" 
			},
			{
				"x": 4.0718369634,
				"y": 3.6865719683,
				"z": 2.1740387302,
				"element": "H" 
			},
			{
				"x": 0.1740151932,
				"y": -1.3072974248,
				"z": -2.0601477101,
				"element": "H" 
			},
			{
				"x": -1.8813547198,
				"y": -2.0537918932,
				"z": -1.4548521178,
				"element": "H" 
			},
			{
				"x": -4.1479414905,
				"y": -2.5000234638,
				"z": -0.2183753845,
				"element": "H" 
			},
			{
				"x": -4.3033141645,
				"y": -1.1412734108,
				"z": 2.0368124734,
				"element": "H" 
			}
		],
		 "valence_orbital": [ 
			{
				"type": "occ",
				"energy": -0.27187,
				"method": "rhf"
			},
			{
				"type": "occ",
				"energy": -0.26796,
				"method": "rhf"
			},
			{
				"type": "occ",
				"energy": -0.25162,
				"method": "rhf"
			},
			{
				"type": "occ",
				"energy": -0.24463,
				"method": "rhf"
			},
			{
				"type": "occ",
				"energy": -0.21119,
				"method": "rhf"
			},
			{
				"type": "unocc",
				"energy": -0.0581,
				"method": "rhf"
			},
			{
				"type": "unocc",
				"energy": -0.03949,
				"method": "rhf"
			},
			{
				"type": "unocc",
				"energy": -0.00838,
				"method": "rhf"
			},
			{
				"type": "unocc",
				"energy": 0.00452,
				"method": "rhf"
			},
			{
				"type": "unocc",
				"energy": 0.03509,
				"method": "rhf"
			}
		],
		"cosmo_sigma_profile": { 
			"-0.025": 0.0,
			"-0.024": 0.0,
			"-0.023": 0.0,
			"-0.022": 0.0,
			"-0.021": 0.0,
			"-0.02": 0.0,
			"-0.019": 0.0,
			"-0.018": 0.0,
			"-0.017": 0.0,
			"-0.016": 0.851807859779,
			"-0.015": 3.1596313917,
			"-0.014": 2.19318867528,
			"-0.013": 3.11912718736,
			"-0.012": 2.34471980946,
			"-0.011": 1.99391317852,
			"-0.01": 2.6551706853,
			"-0.009": 3.95088921531,
			"-0.008": 5.16778124469,
			"-0.007": 7.4111327288,
			"-0.006": 7.6637749838,
			"-0.005": 8.25772276289,
			"-0.004": 10.4579624742,
			"-0.003": 11.6883617149,
			"-0.002": 13.7582337136,
			"-0.001": 22.1969962416,
			"0.0": 26.499567451,
			"0.001": 28.3372927244,
			"0.002": 42.9345239138,
			"0.003": 26.3763744252,
			"0.004": 19.0013722318,
			"0.005": 10.717625874,
			"0.006": 3.8879652549,
			"0.007": 3.16429354631,
			"0.008": 2.4227584312,
			"0.009": 2.1959290499,
			"0.01": 2.09244763852,
			"0.011": 2.39161592355,
			"0.012": 2.05343820247,
			"0.013": 2.19836410098,
			"0.014": 2.10930824378,
			"0.015": 0.610824191106,
			"0.016": 0.0,
			"0.017": 0.0,
			"0.018": 0.0,
			"0.019": 0.0,
			"0.02": 0.0,
			"0.021": 0.0,
			"0.022": 0.0,
			"0.023": 0.0,
			"0.024": 0.0,
			"0.025": 0.0
		}
	}
}
