{
	 "smiles": "FC1=CC=C(C=C1C(F)(F)F)C(=O)C1=CC=CC=C1", 
	 "Tm": 319.15, 
	 "num_atms": 27, 
	 "gaussian": { 
		 "optdone": 1, 
		 "sigma_profile": "yes", 
		 "theory": "DFT", 
		 "functional": "B3LYP", 
		 "basiset": "6-31G**", 
		 "properties": { 
			 "R2extent": 7502.0992, 
			 "electric_dipole_moment_norm": 2.06960859585, 
			 "electric_quadrupole_moment_norm": 21.3773455712, 
			 "total_energy": -1012.89677486, 
			 "HOMO_LUMO_gap": 0.17981, 
			 "cosmo_polarized_energy": -8.54, 
			 "cosmo_cavitation_energy": 33.91, 
			 "cosmo_dispersion_energy": -23.51, 
			 "cosmo_repulsion_energy": 1.72, 
			 "cosmo_total_nonelectrostatic_energy": 12.11, 
			 "SMD_solvation_energy": 7.72 
		},
		"coords": [
			{
				"x": 4.3746177045,
				"y": -2.6376985917,
				"z": 2.1406436363,
				"element": "F" 
			},
			{
				"x": 3.2805006381,
				"y": -2.014928875,
				"z": 1.6760139089,
				"element": "C" 
			},
			{
				"x": 2.1356466201,
				"y": -1.9848837697,
				"z": 2.4645584222,
				"element": "C" 
			},
			{
				"x": 1.0068054063,
				"y": -1.3336613089,
				"z": 1.9813445418,
				"element": "C" 
			},
			{
				"x": 1.0063523837,
				"y": -0.7383385828,
				"z": 0.7094772373,
				"element": "C" 
			},
			{
				"x": 2.1775698149,
				"y": -0.7762146164,
				"z": -0.0591909507,
				"element": "C" 
			},
			{
				"x": 3.3254819138,
				"y": -1.4100536341,
				"z": 0.4178376828,
				"element": "C" 
			},
			{
				"x": 4.5967868619,
				"y": -1.4485520632,
				"z": -0.389267708,
				"element": "C" 
			},
			{
				"x": 4.9737453892,
				"y": -2.7154800554,
				"z": -0.661523586,
				"element": "F" 
			},
			{
				"x": 4.449261084,
				"y": -0.8096481217,
				"z": -1.5707171026,
				"element": "F" 
			},
			{
				"x": 5.6199884486,
				"y": -0.8594409164,
				"z": 0.2626310493,
				"element": "F" 
			},
			{
				"x": -0.2341533886,
				"y": -0.0044934122,
				"z": 0.2850744727,
				"element": "C" 
			},
			{
				"x": -0.9910567085,
				"y": 0.4356239373,
				"z": 1.1434038444,
				"element": "O" 
			},
			{
				"x": -0.5472354277,
				"y": 0.1955991734,
				"z": -1.1662754725,
				"element": "C" 
			},
			{
				"x": -0.1669469347,
				"y": -0.713792037,
				"z": -2.1660935413,
				"element": "C" 
			},
			{
				"x": -0.5479708788,
				"y": -0.5018793847,
				"z": -3.4915872734,
				"element": "C" 
			},
			{
				"x": -1.3002459918,
				"y": 0.6233769723,
				"z": -3.8319522698,
				"element": "C" 
			},
			{
				"x": -1.6906293826,
				"y": 1.52932843,
				"z": -2.8406380246,
				"element": "C" 
			},
			{
				"x": -1.3280592415,
				"y": 1.3098773261,
				"z": -1.5154526606,
				"element": "C" 
			},
			{
				"x": 2.1514867117,
				"y": -2.4628073337,
				"z": 3.4377890327,
				"element": "H" 
			},
			{
				"x": 0.1050168548,
				"y": -1.2695769214,
				"z": 2.5804899786,
				"element": "H" 
			},
			{
				"x": 2.2160266937,
				"y": -0.2929194488,
				"z": -1.0272585724,
				"element": "H" 
			},
			{
				"x": 0.3996277646,
				"y": -1.602104859,
				"z": -1.9072298644,
				"element": "H" 
			},
			{
				"x": -0.2597171506,
				"y": -1.2169343183,
				"z": -4.2563409907,
				"element": "H" 
			},
			{
				"x": -1.5879562654,
				"y": 0.7915451446,
				"z": -4.8657984206,
				"element": "H" 
			},
			{
				"x": -2.2819816354,
				"y": 2.4015621692,
				"z": -3.103244138,
				"element": "H" 
			},
			{
				"x": -1.6391612842,
				"y": 1.9891950975,
				"z": -0.7288932315,
				"element": "H" 
			}
		],
		 "valence_orbital": [ 
			{
				"type": "occ",
				"energy": -0.2879,
				"method": "rhf"
			},
			{
				"type": "occ",
				"energy": -0.27306,
				"method": "rhf"
			},
			{
				"type": "occ",
				"energy": -0.2684,
				"method": "rhf"
			},
			{
				"type": "occ",
				"energy": -0.26653,
				"method": "rhf"
			},
			{
				"type": "occ",
				"energy": -0.25526,
				"method": "rhf"
			},
			{
				"type": "unocc",
				"energy": -0.07545,
				"method": "rhf"
			},
			{
				"type": "unocc",
				"energy": -0.04131,
				"method": "rhf"
			},
			{
				"type": "unocc",
				"energy": -0.02612,
				"method": "rhf"
			},
			{
				"type": "unocc",
				"energy": -0.01522,
				"method": "rhf"
			},
			{
				"type": "unocc",
				"energy": 0.04104,
				"method": "rhf"
			}
		],
		"cosmo_sigma_profile": { 
			"-0.025": 0.0,
			"-0.024": 0.0,
			"-0.023": 0.0,
			"-0.022": 0.0,
			"-0.021": 0.0,
			"-0.02": 0.0,
			"-0.019": 0.0,
			"-0.018": 0.0,
			"-0.017": 0.0,
			"-0.016": 0.0,
			"-0.015": 0.0,
			"-0.014": 0.0,
			"-0.013": 0.0,
			"-0.012": 0.0,
			"-0.011": 0.0,
			"-0.01": 0.0,
			"-0.009": 0.598451459836,
			"-0.008": 2.38035522628,
			"-0.007": 5.62564056673,
			"-0.006": 14.8482813185,
			"-0.005": 17.2022147517,
			"-0.004": 19.8851530194,
			"-0.003": 17.4761720688,
			"-0.002": 19.4322893641,
			"-0.001": 23.424273759,
			"0.0": 22.1197277542,
			"0.001": 21.3288582838,
			"0.002": 37.5303209839,
			"0.003": 41.186982799,
			"0.004": 12.3814014932,
			"0.005": 2.44269938474,
			"0.006": 2.46378840573,
			"0.007": 1.57274169818,
			"0.008": 1.21062508959,
			"0.009": 2.13900168399,
			"0.01": 1.94817806169,
			"0.011": 3.43008120582,
			"0.012": 3.09111922202,
			"0.013": 0.106503088614,
			"0.014": 0.0,
			"0.015": 0.0,
			"0.016": 0.0,
			"0.017": 0.0,
			"0.018": 0.0,
			"0.019": 0.0,
			"0.02": 0.0,
			"0.021": 0.0,
			"0.022": 0.0,
			"0.023": 0.0,
			"0.024": 0.0,
			"0.025": 0.0
		}
	}
}
