{
	 "smiles": "OC(=O)C1=CC=CC=C1C(=O)C1=CC=CC=C1", 
	 "Tm": 401.15, 
	 "num_atms": 27, 
	 "gaussian": { 
		 "optdone": 1, 
		 "sigma_profile": "yes", 
		 "theory": "DFT", 
		 "functional": "B3LYP", 
		 "basiset": "6-31G**", 
		 "properties": { 
			 "R2extent": 4149.6317, 
			 "electric_dipole_moment_norm": 5.61778574707, 
			 "electric_quadrupole_moment_norm": 21.6071875641, 
			 "total_energy": -765.189963993, 
			 "HOMO_LUMO_gap": 0.18302, 
			 "cosmo_polarized_energy": -20.65, 
			 "cosmo_cavitation_energy": 31.88, 
			 "cosmo_dispersion_energy": -22.27, 
			 "cosmo_repulsion_energy": 1.72, 
			 "cosmo_total_nonelectrostatic_energy": 11.33, 
			 "SMD_solvation_energy": 6.86 
		},
		"coords": [
			{
				"x": -3.2893799768,
				"y": 0.4596769636,
				"z": -1.1654642067,
				"element": "O" 
			},
			{
				"x": -2.1898428018,
				"y": 1.1133218014,
				"z": -0.7026481099,
				"element": "C" 
			},
			{
				"x": -2.3090605851,
				"y": 2.0226972308,
				"z": 0.0825289498,
				"element": "O" 
			},
			{
				"x": -0.8677880207,
				"y": 0.6580728993,
				"z": -1.2487976525,
				"element": "C" 
			},
			{
				"x": -0.7697848014,
				"y": 0.1961519716,
				"z": -2.5699732975,
				"element": "C" 
			},
			{
				"x": 0.4670405334,
				"y": -0.1320327488,
				"z": -3.1227006733,
				"element": "C" 
			},
			{
				"x": 1.6244592733,
				"y": 0.0140390886,
				"z": -2.3579358423,
				"element": "C" 
			},
			{
				"x": 1.5389558124,
				"y": 0.4905126606,
				"z": -1.0498648258,
				"element": "C" 
			},
			{
				"x": 0.3023256869,
				"y": 0.8055510635,
				"z": -0.4761919773,
				"element": "C" 
			},
			{
				"x": 0.3254371144,
				"y": 1.328074562,
				"z": 0.9472250677,
				"element": "C" 
			},
			{
				"x": 1.0386123386,
				"y": 2.286759655,
				"z": 1.2022210646,
				"element": "O" 
			},
			{
				"x": -0.4162349147,
				"y": 0.6009045897,
				"z": 2.0217165776,
				"element": "C" 
			},
			{
				"x": -0.8945276528,
				"y": -0.7067406393,
				"z": 1.8554506381,
				"element": "C" 
			},
			{
				"x": -1.5328198436,
				"y": -1.3610515926,
				"z": 2.9092456158,
				"element": "C" 
			},
			{
				"x": -1.7034269795,
				"y": -0.711423872,
				"z": 4.1327400655,
				"element": "C" 
			},
			{
				"x": -1.224335122,
				"y": 0.5912738896,
				"z": 4.3063154112,
				"element": "C" 
			},
			{
				"x": -0.5770868826,
				"y": 1.2405964269,
				"z": 3.2603233531,
				"element": "C" 
			},
			{
				"x": -3.0216424393,
				"y": -0.3270222069,
				"z": -1.66083714,
				"element": "H" 
			},
			{
				"x": -1.6597284328,
				"y": 0.1419694602,
				"z": -3.1919174604,
				"element": "H" 
			},
			{
				"x": 0.5264968151,
				"y": -0.4803181119,
				"z": -4.1492469408,
				"element": "H" 
			},
			{
				"x": 2.5937839512,
				"y": -0.2298643289,
				"z": -2.782255836,
				"element": "H" 
			},
			{
				"x": 2.4367808426,
				"y": 0.626956461,
				"z": -0.4556461594,
				"element": "H" 
			},
			{
				"x": -0.7533285321,
				"y": -1.2205404808,
				"z": 0.9095866306,
				"element": "H" 
			},
			{
				"x": -1.8945945318,
				"y": -2.3764683874,
				"z": 2.7763261367,
				"element": "H" 
			},
			{
				"x": -2.2064286326,
				"y": -1.218843454,
				"z": 4.9510358178,
				"element": "H" 
			},
			{
				"x": -1.3571567259,
				"y": 1.0965076086,
				"z": 5.2584986537,
				"element": "H" 
			},
			{
				"x": -0.1903254923,
				"y": 2.2475394901,
				"z": 3.3737661395,
				"element": "H" 
			}
		],
		 "valence_orbital": [ 
			{
				"type": "occ",
				"energy": -0.27932,
				"method": "rhf"
			},
			{
				"type": "occ",
				"energy": -0.26954,
				"method": "rhf"
			},
			{
				"type": "occ",
				"energy": -0.25828,
				"method": "rhf"
			},
			{
				"type": "occ",
				"energy": -0.25626,
				"method": "rhf"
			},
			{
				"type": "occ",
				"energy": -0.24792,
				"method": "rhf"
			},
			{
				"type": "unocc",
				"energy": -0.0649,
				"method": "rhf"
			},
			{
				"type": "unocc",
				"energy": -0.04998,
				"method": "rhf"
			},
			{
				"type": "unocc",
				"energy": -0.02854,
				"method": "rhf"
			},
			{
				"type": "unocc",
				"energy": -0.00608,
				"method": "rhf"
			},
			{
				"type": "unocc",
				"energy": 0.03577,
				"method": "rhf"
			}
		],
		"cosmo_sigma_profile": { 
			"-0.025": 0.0,
			"-0.024": 0.0,
			"-0.023": 0.0,
			"-0.022": 0.0,
			"-0.021": 0.0,
			"-0.02": 0.0,
			"-0.019": 0.144652472646,
			"-0.018": 0.810734143667,
			"-0.017": 1.12008438601,
			"-0.016": 1.04181152462,
			"-0.015": 1.18534304282,
			"-0.014": 0.79244625938,
			"-0.013": 1.13188359063,
			"-0.012": 0.990756646321,
			"-0.011": 1.09036525591,
			"-0.01": 1.02453603251,
			"-0.009": 1.70654584972,
			"-0.008": 2.84235757153,
			"-0.007": 10.4244641605,
			"-0.006": 19.3058400081,
			"-0.005": 20.6413955484,
			"-0.004": 17.8044239199,
			"-0.003": 15.8696424305,
			"-0.002": 11.7736401229,
			"-0.001": 13.9307720798,
			"0.0": 13.646546707,
			"0.001": 15.1143138884,
			"0.002": 19.4334233985,
			"0.003": 18.127245029,
			"0.004": 14.6728086731,
			"0.005": 6.37171080263,
			"0.006": 5.39614637964,
			"0.007": 5.79329835458,
			"0.008": 5.04108903911,
			"0.009": 7.00062328498,
			"0.01": 7.38910078893,
			"0.011": 8.51699461849,
			"0.012": 5.06051832178,
			"0.013": 0.869261235975,
			"0.014": 0.0,
			"0.015": 0.0,
			"0.016": 0.0,
			"0.017": 0.0,
			"0.018": 0.0,
			"0.019": 0.0,
			"0.02": 0.0,
			"0.021": 0.0,
			"0.022": 0.0,
			"0.023": 0.0,
			"0.024": 0.0,
			"0.025": 0.0
		}
	}
}
