{
	 "smiles": "COCCN1C(=O)NC(=O)C=C1N", 
	 "Tm": 364.15, 
	 "num_atms": 24, 
	 "gaussian": { 
		 "optdone": 1, 
		 "sigma_profile": "yes", 
		 "theory": "DFT", 
		 "functional": "B3LYP", 
		 "basiset": "6-31G**", 
		 "properties": { 
			 "R2extent": 3147.3281, 
			 "electric_dipole_moment_norm": 7.08133143554, 
			 "electric_quadrupole_moment_norm": 10.4218456091, 
			 "total_energy": -663.327600931, 
			 "HOMO_LUMO_gap": 0.20929, 
			 "cosmo_polarized_energy": -20.19, 
			 "cosmo_cavitation_energy": 27.22, 
			 "cosmo_dispersion_energy": -20.04, 
			 "cosmo_repulsion_energy": 1.58, 
			 "cosmo_total_nonelectrostatic_energy": 8.77, 
			 "SMD_solvation_energy": 6.57 
		},
		"coords": [
			{
				"x": 0.6374015252,
				"y": -2.9487033816,
				"z": -1.1318672932,
				"element": "C" 
			},
			{
				"x": 0.0276512826,
				"y": -2.3314061966,
				"z": -0.0046018611,
				"element": "O" 
			},
			{
				"x": -1.2594054011,
				"y": -1.7696707772,
				"z": -0.2821285993,
				"element": "C" 
			},
			{
				"x": -1.2045297607,
				"y": -0.3128871967,
				"z": -0.7580942537,
				"element": "C" 
			},
			{
				"x": -1.0567042668,
				"y": 0.6800726209,
				"z": 0.3180790709,
				"element": "N" 
			},
			{
				"x": -2.23075958,
				"y": 1.3709125614,
				"z": 0.6790251354,
				"element": "C" 
			},
			{
				"x": -3.3279198515,
				"y": 1.0579972875,
				"z": 0.2370057605,
				"element": "O" 
			},
			{
				"x": -2.0393870321,
				"y": 2.4175965465,
				"z": 1.545391313,
				"element": "N" 
			},
			{
				"x": -0.8191109412,
				"y": 2.8842614043,
				"z": 2.0966633879,
				"element": "C" 
			},
			{
				"x": -0.8281712555,
				"y": 3.8506183762,
				"z": 2.8472868724,
				"element": "O" 
			},
			{
				"x": 0.3156372852,
				"y": 2.0955924123,
				"z": 1.7003376349,
				"element": "C" 
			},
			{
				"x": 0.1839845265,
				"y": 1.0315088988,
				"z": 0.8490182892,
				"element": "C" 
			},
			{
				"x": 1.246094133,
				"y": 0.2649772012,
				"z": 0.4246483977,
				"element": "N" 
			},
			{
				"x": 1.5938613263,
				"y": -3.354403289,
				"z": -0.7949135073,
				"element": "H" 
			},
			{
				"x": 0.822404105,
				"y": -2.2385230607,
				"z": -1.9503112366,
				"element": "H" 
			},
			{
				"x": 0.0154089817,
				"y": -3.7701975869,
				"z": -1.5124448912,
				"element": "H" 
			},
			{
				"x": -1.8379726199,
				"y": -1.8309900206,
				"z": 0.6439710785,
				"element": "H" 
			},
			{
				"x": -1.7693720906,
				"y": -2.3774314347,
				"z": -1.0421703124,
				"element": "H" 
			},
			{
				"x": -0.3908270322,
				"y": -0.170730506,
				"z": -1.4753247166,
				"element": "H" 
			},
			{
				"x": -2.1501451885,
				"y": -0.0733789016,
				"z": -1.2454807809,
				"element": "H" 
			},
			{
				"x": -2.874832417,
				"y": 2.9243536126,
				"z": 1.809257669,
				"element": "H" 
			},
			{
				"x": 1.2775968068,
				"y": 2.3414213212,
				"z": 2.1298704629,
				"element": "H" 
			},
			{
				"x": 2.1108895753,
				"y": 0.4771895232,
				"z": 0.902209406,
				"element": "H" 
			},
			{
				"x": 1.0546078894,
				"y": -0.7345794145,
				"z": 0.3493729739,
				"element": "H" 
			}
		],
		 "valence_orbital": [ 
			{
				"type": "occ",
				"energy": -0.28568,
				"method": "rhf"
			},
			{
				"type": "occ",
				"energy": -0.27529,
				"method": "rhf"
			},
			{
				"type": "occ",
				"energy": -0.26859,
				"method": "rhf"
			},
			{
				"type": "occ",
				"energy": -0.24268,
				"method": "rhf"
			},
			{
				"type": "occ",
				"energy": -0.21734,
				"method": "rhf"
			},
			{
				"type": "unocc",
				"energy": -0.00805,
				"method": "rhf"
			},
			{
				"type": "unocc",
				"energy": 0.02236,
				"method": "rhf"
			},
			{
				"type": "unocc",
				"energy": 0.06384,
				"method": "rhf"
			},
			{
				"type": "unocc",
				"energy": 0.08255,
				"method": "rhf"
			},
			{
				"type": "unocc",
				"energy": 0.08755,
				"method": "rhf"
			}
		],
		"cosmo_sigma_profile": { 
			"-0.025": 0.0,
			"-0.024": 0.0,
			"-0.023": 0.0,
			"-0.022": 0.0,
			"-0.021": 0.0,
			"-0.02": 0.0,
			"-0.019": 0.0,
			"-0.018": 0.0,
			"-0.017": 0.0,
			"-0.016": 0.0281069318124,
			"-0.015": 0.635903498121,
			"-0.014": 2.07116397594,
			"-0.013": 2.32304637163,
			"-0.012": 2.17718673804,
			"-0.011": 1.93273112204,
			"-0.01": 2.18865701113,
			"-0.009": 2.86858398043,
			"-0.008": 2.30085949019,
			"-0.007": 3.76399163974,
			"-0.006": 13.7600719338,
			"-0.005": 18.9108985555,
			"-0.004": 19.7489952683,
			"-0.003": 26.3494512586,
			"-0.002": 16.7352920094,
			"-0.001": 10.5719299572,
			"0.0": 9.959327816,
			"0.001": 7.85631974695,
			"0.002": 5.31961532228,
			"0.003": 7.32963351558,
			"0.004": 8.57640741083,
			"0.005": 4.63444149183,
			"0.006": 3.70435699493,
			"0.007": 4.30527381519,
			"0.008": 3.13168451459,
			"0.009": 3.02167156927,
			"0.01": 4.20163543447,
			"0.011": 4.82748243023,
			"0.012": 4.9987153324,
			"0.013": 7.60696111599,
			"0.014": 6.80907711264,
			"0.015": 2.08049001369,
			"0.016": 0.153316646235,
			"0.017": 0.0,
			"0.018": 0.0,
			"0.019": 0.0,
			"0.02": 0.0,
			"0.021": 0.0,
			"0.022": 0.0,
			"0.023": 0.0,
			"0.024": 0.0,
			"0.025": 0.0
		}
	}
}
