{
	 "smiles": "N#CC1=CC2=CC=CC=C2N=C1", 
	 "Tm": 382.15, 
	 "num_atms": 18, 
	 "gaussian": { 
		 "optdone": 1, 
		 "sigma_profile": "yes", 
		 "theory": "DFT", 
		 "functional": "B3LYP", 
		 "basiset": "6-31G**", 
		 "properties": { 
			 "R2extent": 2313.1157, 
			 "electric_dipole_moment_norm": 4.82708671043, 
			 "electric_quadrupole_moment_norm": 14.4501943679, 
			 "total_energy": -494.170307715, 
			 "HOMO_LUMO_gap": 0.1706, 
			 "cosmo_polarized_energy": -10.53, 
			 "cosmo_cavitation_energy": 23.65, 
			 "cosmo_dispersion_energy": -17.1, 
			 "cosmo_repulsion_energy": 1.33, 
			 "cosmo_total_nonelectrostatic_energy": 7.88, 
			 "SMD_solvation_energy": 3.86 
		},
		"coords": [
			{
				"x": -4.1770161839,
				"y": -2.8611705957,
				"z": -0.5011010764,
				"element": "N" 
			},
			{
				"x": -3.2695049964,
				"y": -2.1804220553,
				"z": -0.2428747952,
				"element": "C" 
			},
			{
				"x": -2.1497053444,
				"y": -1.3530686744,
				"z": 0.0877378121,
				"element": "C" 
			},
			{
				"x": -1.8964051991,
				"y": -0.1744399509,
				"z": -0.5918882176,
				"element": "C" 
			},
			{
				"x": -0.7764451397,
				"y": 0.605828649,
				"z": -0.2253346839,
				"element": "C" 
			},
			{
				"x": -0.4414530046,
				"y": 1.8278160667,
				"z": -0.8679460139,
				"element": "C" 
			},
			{
				"x": 0.663278744,
				"y": 2.542537211,
				"z": -0.4645591951,
				"element": "C" 
			},
			{
				"x": 1.4774357572,
				"y": 2.0677294442,
				"z": 0.5948321876,
				"element": "C" 
			},
			{
				"x": 1.178045096,
				"y": 0.886468759,
				"z": 1.2369882761,
				"element": "C" 
			},
			{
				"x": 0.0466158362,
				"y": 0.1264243789,
				"z": 0.8451855523,
				"element": "C" 
			},
			{
				"x": -0.2168314163,
				"y": -1.0404950856,
				"z": 1.5072150967,
				"element": "N" 
			},
			{
				"x": -1.2640829848,
				"y": -1.740461257,
				"z": 1.1418744972,
				"element": "C" 
			},
			{
				"x": -2.5483591281,
				"y": 0.1498452607,
				"z": -1.397652694,
				"element": "H" 
			},
			{
				"x": -1.0695564839,
				"y": 2.1861317769,
				"z": -1.6791511885,
				"element": "H" 
			},
			{
				"x": 0.9167696472,
				"y": 3.4760898156,
				"z": -0.9575749419,
				"element": "H" 
			},
			{
				"x": 2.3451748568,
				"y": 2.6453440303,
				"z": 0.899328808,
				"element": "H" 
			},
			{
				"x": 1.786007328,
				"y": 0.5034516336,
				"z": 2.0497149061,
				"element": "H" 
			},
			{
				"x": -1.4581673843,
				"y": -2.6664094072,
				"z": 1.6800056708,
				"element": "H" 
			}
		],
		 "valence_orbital": [ 
			{
				"type": "occ",
				"energy": -0.34067,
				"method": "rhf"
			},
			{
				"type": "occ",
				"energy": -0.31828,
				"method": "rhf"
			},
			{
				"type": "occ",
				"energy": -0.27482,
				"method": "rhf"
			},
			{
				"type": "occ",
				"energy": -0.26904,
				"method": "rhf"
			},
			{
				"type": "occ",
				"energy": -0.25213,
				"method": "rhf"
			},
			{
				"type": "unocc",
				"energy": -0.08153,
				"method": "rhf"
			},
			{
				"type": "unocc",
				"energy": -0.04903,
				"method": "rhf"
			},
			{
				"type": "unocc",
				"energy": -0.0008,
				"method": "rhf"
			},
			{
				"type": "unocc",
				"energy": 0.02785,
				"method": "rhf"
			},
			{
				"type": "unocc",
				"energy": 0.03557,
				"method": "rhf"
			}
		],
		"cosmo_sigma_profile": { 
			"-0.025": 0.0,
			"-0.024": 0.0,
			"-0.023": 0.0,
			"-0.022": 0.0,
			"-0.021": 0.0,
			"-0.02": 0.0,
			"-0.019": 0.0,
			"-0.018": 0.0,
			"-0.017": 0.0,
			"-0.016": 0.0,
			"-0.015": 0.0,
			"-0.014": 0.0,
			"-0.013": 0.0,
			"-0.012": 0.0,
			"-0.011": 0.0,
			"-0.01": 0.306584412787,
			"-0.009": 3.76927357539,
			"-0.008": 5.41870509913,
			"-0.007": 10.1254753118,
			"-0.006": 10.9465796471,
			"-0.005": 13.2681688071,
			"-0.004": 10.7940111791,
			"-0.003": 11.7477859639,
			"-0.002": 14.5775818634,
			"-0.001": 16.3610929517,
			"0.0": 13.8344097494,
			"0.001": 14.0866223987,
			"0.002": 14.3351186813,
			"0.003": 13.8546240501,
			"0.004": 4.79541340266,
			"0.005": 3.68965435957,
			"0.006": 4.15820767701,
			"0.007": 4.28087685066,
			"0.008": 4.59511874887,
			"0.009": 4.09953964575,
			"0.01": 3.64488536062,
			"0.011": 3.52647239634,
			"0.012": 3.36468759515,
			"0.013": 1.55563904039,
			"0.014": 0.757296873131,
			"0.015": 0.552530614809,
			"0.016": 0.0,
			"0.017": 0.0,
			"0.018": 0.0,
			"0.019": 0.0,
			"0.02": 0.0,
			"0.021": 0.0,
			"0.022": 0.0,
			"0.023": 0.0,
			"0.024": 0.0,
			"0.025": 0.0
		}
	}
}
