{
	 "smiles": "OC(=O)C1=C(Cl)C(=CC(=C1)[N+]([O-])=O)[N+]([O-])=O", 
	 "Tm": 472.15, 
	 "num_atms": 19, 
	 "gaussian": { 
		 "optdone": 1, 
		 "sigma_profile": "yes", 
		 "theory": "DFT", 
		 "functional": "B3LYP", 
		 "basiset": "6-31G**", 
		 "properties": { 
			 "R2extent": 4169.2782, 
			 "electric_dipole_moment_norm": 2.45861827253, 
			 "electric_quadrupole_moment_norm": 15.8368223672, 
			 "total_energy": -1289.36685503, 
			 "HOMO_LUMO_gap": 0.17535, 
			 "cosmo_polarized_energy": -17.62, 
			 "cosmo_cavitation_energy": 27.89, 
			 "cosmo_dispersion_energy": -20.43, 
			 "cosmo_repulsion_energy": 1.57, 
			 "cosmo_total_nonelectrostatic_energy": 9.03, 
			 "SMD_solvation_energy": 10.41 
		},
		"coords": [
			{
				"x": -0.6787330495,
				"y": 0.9647733525,
				"z": 2.8837038404,
				"element": "O" 
			},
			{
				"x": 0.1171993175,
				"y": 0.1449911566,
				"z": 2.1838397139,
				"element": "C" 
			},
			{
				"x": 1.0068532238,
				"y": -0.4614662312,
				"z": 2.7303443907,
				"element": "O" 
			},
			{
				"x": -0.0643222705,
				"y": 0.0212565168,
				"z": 0.6717869987,
				"element": "C" 
			},
			{
				"x": -1.204705412,
				"y": 0.3235617621,
				"z": -0.1005855938,
				"element": "C" 
			},
			{
				"x": -2.6868752719,
				"y": 0.8630950814,
				"z": 0.6547037523,
				"element": "Cl" 
			},
			{
				"x": -1.1772565466,
				"y": 0.1079769216,
				"z": -1.4906031941,
				"element": "C" 
			},
			{
				"x": -0.0556586325,
				"y": -0.4097531624,
				"z": -2.1238404425,
				"element": "C" 
			},
			{
				"x": 1.0624727757,
				"y": -0.6842372472,
				"z": -1.3503914045,
				"element": "C" 
			},
			{
				"x": 1.0692632948,
				"y": -0.4838879265,
				"z": 0.0198267685,
				"element": "C" 
			},
			{
				"x": 2.2708869213,
				"y": -1.2181104834,
				"z": -2.0114061795,
				"element": "N" 
			},
			{
				"x": 2.2143602642,
				"y": -1.382076702,
				"z": -3.2271374706,
				"element": "O" 
			},
			{
				"x": 3.2404672856,
				"y": -1.4565975312,
				"z": -1.2993036424,
				"element": "O" 
			},
			{
				"x": -2.3224101587,
				"y": 0.4189052391,
				"z": -2.3768859273,
				"element": "N" 
			},
			{
				"x": -2.5274149082,
				"y": -0.3718853268,
				"z": -3.2925988195,
				"element": "O" 
			},
			{
				"x": -2.9463165976,
				"y": 1.4506365889,
				"z": -2.1613648368,
				"element": "O" 
			},
			{
				"x": -1.3659697512,
				"y": 1.368394309,
				"z": 2.3307405531,
				"element": "H" 
			},
			{
				"x": -0.0591534173,
				"y": -0.593520736,
				"z": -3.1902844373,
				"element": "H" 
			},
			{
				"x": 1.9426129333,
				"y": -0.7308555812,
				"z": 0.6101559307,
				"element": "H" 
			}
		],
		 "valence_orbital": [ 
			{
				"type": "occ",
				"energy": -0.33499,
				"method": "rhf"
			},
			{
				"type": "occ",
				"energy": -0.32412,
				"method": "rhf"
			},
			{
				"type": "occ",
				"energy": -0.32071,
				"method": "rhf"
			},
			{
				"type": "occ",
				"energy": -0.31798,
				"method": "rhf"
			},
			{
				"type": "occ",
				"energy": -0.30647,
				"method": "rhf"
			},
			{
				"type": "unocc",
				"energy": -0.13112,
				"method": "rhf"
			},
			{
				"type": "unocc",
				"energy": -0.11973,
				"method": "rhf"
			},
			{
				"type": "unocc",
				"energy": -0.08987,
				"method": "rhf"
			},
			{
				"type": "unocc",
				"energy": -0.04495,
				"method": "rhf"
			},
			{
				"type": "unocc",
				"energy": -0.03334,
				"method": "rhf"
			}
		],
		"cosmo_sigma_profile": { 
			"-0.025": 0.0,
			"-0.024": 0.0,
			"-0.023": 0.0,
			"-0.022": 0.0,
			"-0.021": 0.0,
			"-0.02": 0.0,
			"-0.019": 0.0,
			"-0.018": 0.0,
			"-0.017": 0.00631255130061,
			"-0.016": 0.453086556647,
			"-0.015": 1.37028522059,
			"-0.014": 0.907403809839,
			"-0.013": 1.0374340501,
			"-0.012": 1.07872933961,
			"-0.011": 1.36317640122,
			"-0.01": 3.77687774001,
			"-0.009": 4.17318437664,
			"-0.008": 6.83324039651,
			"-0.007": 9.81669644711,
			"-0.006": 16.0187658171,
			"-0.005": 21.8487723899,
			"-0.004": 16.4124111976,
			"-0.003": 10.3000504628,
			"-0.002": 9.12025549776,
			"-0.001": 8.87447377979,
			"0.0": 8.78412300921,
			"0.001": 8.52838494298,
			"0.002": 7.39832108474,
			"0.003": 7.90536477232,
			"0.004": 8.14540790426,
			"0.005": 11.4901822719,
			"0.006": 20.7218427986,
			"0.007": 15.2150112931,
			"0.008": 10.7062173403,
			"0.009": 7.18476161749,
			"0.01": 4.64944510652,
			"0.011": 2.89890746262,
			"0.012": 0.811037458454,
			"0.013": 0.0,
			"0.014": 0.0,
			"0.015": 0.0,
			"0.016": 0.0,
			"0.017": 0.0,
			"0.018": 0.0,
			"0.019": 0.0,
			"0.02": 0.0,
			"0.021": 0.0,
			"0.022": 0.0,
			"0.023": 0.0,
			"0.024": 0.0,
			"0.025": 0.0
		}
	}
}
