{
	 "smiles": "OC(=O)C1CC2=C(CN1C(=O)CCl)C=CC=C2", 
	 "Tm": 427.15, 
	 "num_atms": 29, 
	 "gaussian": { 
		 "optdone": 1, 
		 "sigma_profile": "yes", 
		 "theory": "DFT", 
		 "functional": "B3LYP", 
		 "basiset": "6-31G**", 
		 "properties": { 
			 "R2extent": 5347.3693, 
			 "electric_dipole_moment_norm": 6.34888055644, 
			 "electric_quadrupole_moment_norm": 18.250718768, 
			 "total_energy": -1205.14551587, 
			 "HOMO_LUMO_gap": 0.20907, 
			 "cosmo_polarized_energy": -19.71, 
			 "cosmo_cavitation_energy": 33.72, 
			 "cosmo_dispersion_energy": -23.36, 
			 "cosmo_repulsion_energy": 1.8, 
			 "cosmo_total_nonelectrostatic_energy": 12.16, 
			 "SMD_solvation_energy": 6.76 
		},
		"coords": [
			{
				"x": -2.9294311955,
				"y": 0.5573295927,
				"z": -0.3338188602,
				"element": "O" 
			},
			{
				"x": -2.2036133223,
				"y": 1.282873122,
				"z": 0.5326534084,
				"element": "C" 
			},
			{
				"x": -2.4903987699,
				"y": 1.3590981125,
				"z": 1.7026925682,
				"element": "O" 
			},
			{
				"x": -0.9777067729,
				"y": 2.035100396,
				"z": -0.0372926876,
				"element": "C" 
			},
			{
				"x": 0.2657957301,
				"y": 1.6931804991,
				"z": 0.8014722875,
				"element": "C" 
			},
			{
				"x": 0.701631746,
				"y": 0.2757696948,
				"z": 0.5265946979,
				"element": "C" 
			},
			{
				"x": 0.7006354239,
				"y": -0.1384889142,
				"z": -0.8136094338,
				"element": "C" 
			},
			{
				"x": 0.361893387,
				"y": 0.878583831,
				"z": -1.8776339302,
				"element": "C" 
			},
			{
				"x": -0.7539744489,
				"y": 1.7710965704,
				"z": -1.4725918819,
				"element": "N" 
			},
			{
				"x": -1.3215596564,
				"y": 2.6710850888,
				"z": -2.3556785653,
				"element": "C" 
			},
			{
				"x": -2.0512443834,
				"y": 3.5816517967,
				"z": -1.990456725,
				"element": "O" 
			},
			{
				"x": -1.0426109756,
				"y": 2.4864077868,
				"z": -3.8479167031,
				"element": "C" 
			},
			{
				"x": -1.8777844991,
				"y": 1.0127559463,
				"z": -4.5078612096,
				"element": "Cl" 
			},
			{
				"x": 1.0566846805,
				"y": -1.4484816523,
				"z": -1.1428316827,
				"element": "C" 
			},
			{
				"x": 1.4246507473,
				"y": -2.3462674988,
				"z": -0.1395445974,
				"element": "C" 
			},
			{
				"x": 1.4232065522,
				"y": -1.9374004127,
				"z": 1.1953080555,
				"element": "C" 
			},
			{
				"x": 1.0543788115,
				"y": -0.6325296503,
				"z": 1.5269899237,
				"element": "C" 
			},
			{
				"x": -2.5127853884,
				"y": 0.6140684776,
				"z": -1.2103169893,
				"element": "H" 
			},
			{
				"x": -1.2192788974,
				"y": 3.096624165,
				"z": 0.0607836194,
				"element": "H" 
			},
			{
				"x": 1.0660292834,
				"y": 2.4037408883,
				"z": 0.5535059997,
				"element": "H" 
			},
			{
				"x": 0.0081653176,
				"y": 1.837320751,
				"z": 1.8524512759,
				"element": "H" 
			},
			{
				"x": 1.2526110957,
				"y": 1.4920392216,
				"z": -2.0868787539,
				"element": "H" 
			},
			{
				"x": 0.090186236,
				"y": 0.3663286604,
				"z": -2.8022476652,
				"element": "H" 
			},
			{
				"x": 0.0176809831,
				"y": 2.385388448,
				"z": -4.0843087442,
				"element": "H" 
			},
			{
				"x": -1.4645167977,
				"y": 3.3475130861,
				"z": -4.3604143808,
				"element": "H" 
			},
			{
				"x": 1.0451267537,
				"y": -1.7677874556,
				"z": -2.182067149,
				"element": "H" 
			},
			{
				"x": 1.6994840348,
				"y": -3.364283376,
				"z": -0.3986294611,
				"element": "H" 
			},
			{
				"x": 1.6967100774,
				"y": -2.6374454895,
				"z": 1.9791474706,
				"element": "H" 
			},
			{
				"x": 1.0329342475,
				"y": -0.3182716859,
				"z": 2.5669001133,
				"element": "H" 
			}
		],
		 "valence_orbital": [ 
			{
				"type": "occ",
				"energy": -0.29532,
				"method": "rhf"
			},
			{
				"type": "occ",
				"energy": -0.28062,
				"method": "rhf"
			},
			{
				"type": "occ",
				"energy": -0.26485,
				"method": "rhf"
			},
			{
				"type": "occ",
				"energy": -0.25785,
				"method": "rhf"
			},
			{
				"type": "occ",
				"energy": -0.25354,
				"method": "rhf"
			},
			{
				"type": "unocc",
				"energy": -0.04447,
				"method": "rhf"
			},
			{
				"type": "unocc",
				"energy": -0.02074,
				"method": "rhf"
			},
			{
				"type": "unocc",
				"energy": -0.01796,
				"method": "rhf"
			},
			{
				"type": "unocc",
				"energy": 0.01297,
				"method": "rhf"
			},
			{
				"type": "unocc",
				"energy": 0.03207,
				"method": "rhf"
			}
		],
		"cosmo_sigma_profile": { 
			"-0.025": 0.0,
			"-0.024": 0.0,
			"-0.023": 0.0,
			"-0.022": 0.0,
			"-0.021": 0.0,
			"-0.02": 0.0,
			"-0.019": 0.0,
			"-0.018": 0.0,
			"-0.017": 0.0,
			"-0.016": 0.0,
			"-0.015": 0.0,
			"-0.014": 0.0,
			"-0.013": 0.0,
			"-0.012": 0.0,
			"-0.011": 0.225253056562,
			"-0.01": 3.8100326899,
			"-0.009": 7.70927228722,
			"-0.008": 6.43867353446,
			"-0.007": 10.4223030564,
			"-0.006": 22.1894759997,
			"-0.005": 22.453496355,
			"-0.004": 19.8334792832,
			"-0.003": 15.489253324,
			"-0.002": 14.5441702155,
			"-0.001": 14.2157571052,
			"0.0": 13.4091293928,
			"0.001": 14.2080263389,
			"0.002": 14.590808994,
			"0.003": 15.8254876166,
			"0.004": 15.1089720864,
			"0.005": 16.024689498,
			"0.006": 6.38834163912,
			"0.007": 3.94668519993,
			"0.008": 4.74766501101,
			"0.009": 4.29664243302,
			"0.01": 6.6917983337,
			"0.011": 6.96204868134,
			"0.012": 8.38670880219,
			"0.013": 2.0128564889,
			"0.014": 0.0,
			"0.015": 0.0,
			"0.016": 0.0,
			"0.017": 0.0,
			"0.018": 0.0,
			"0.019": 0.0,
			"0.02": 0.0,
			"0.021": 0.0,
			"0.022": 0.0,
			"0.023": 0.0,
			"0.024": 0.0,
			"0.025": 0.0
		}
	}
}
