{
	 "smiles": "CCC(C)(Br)CBr", 
	 "Tm": 203.15, 
	 "num_atms": 17, 
	 "gaussian": { 
		 "optdone": 1, 
		 "sigma_profile": "yes", 
		 "theory": "DFT", 
		 "functional": "B3LYP", 
		 "basiset": "6-31G**", 
		 "properties": { 
			 "R2extent": 2435.8869, 
			 "electric_dipole_moment_norm": 3.04041425138, 
			 "electric_quadrupole_moment_norm": 5.52804236145, 
			 "total_energy": -5339.38640701, 
			 "HOMO_LUMO_gap": 0.24767, 
			 "cosmo_polarized_energy": -6.9, 
			 "cosmo_cavitation_energy": 22.82, 
			 "cosmo_dispersion_energy": -17.22, 
			 "cosmo_repulsion_energy": 1.42, 
			 "cosmo_total_nonelectrostatic_energy": 7.02, 
			 "SMD_solvation_energy": 1.83 
		},
		"coords": [
			{
				"x": -1.7462046884,
				"y": -0.107134798,
				"z": 0.7069364397,
				"element": "C" 
			},
			{
				"x": -0.7513720698,
				"y": 0.0766535603,
				"z": -0.4413363515,
				"element": "C" 
			},
			{
				"x": 0.6069505031,
				"y": -0.6226319444,
				"z": -0.2872437184,
				"element": "C" 
			},
			{
				"x": 0.4832567238,
				"y": -2.1241695143,
				"z": -0.000415386,
				"element": "C" 
			},
			{
				"x": 1.5855072785,
				"y": 0.186809322,
				"z": 1.286038845,
				"element": "Br" 
			},
			{
				"x": 1.5005095539,
				"y": -0.459696681,
				"z": -1.5181790328,
				"element": "C" 
			},
			{
				"x": 1.7902799434,
				"y": 1.3882784395,
				"z": -2.145332993,
				"element": "Br" 
			},
			{
				"x": -2.6519373393,
				"y": 0.4732704339,
				"z": 0.5072153047,
				"element": "H" 
			},
			{
				"x": -1.3230085828,
				"y": 0.2431063954,
				"z": 1.6523307213,
				"element": "H" 
			},
			{
				"x": -2.0481752781,
				"y": -1.151353943,
				"z": 0.8332604663,
				"element": "H" 
			},
			{
				"x": -1.1918710911,
				"y": -0.312124316,
				"z": -1.3719928418,
				"element": "H" 
			},
			{
				"x": -0.5715979207,
				"y": 1.1412911966,
				"z": -0.6102007338,
				"element": "H" 
			},
			{
				"x": -0.0826183767,
				"y": -2.607344993,
				"z": -0.8068623987,
				"element": "H" 
			},
			{
				"x": 1.4659476644,
				"y": -2.597669529,
				"z": 0.0662278569,
				"element": "H" 
			},
			{
				"x": -0.0404626253,
				"y": -2.3015579981,
				"z": 0.9398423836,
				"element": "H" 
			},
			{
				"x": 2.4951372863,
				"y": -0.8631286994,
				"z": -1.3383791849,
				"element": "H" 
			},
			{
				"x": 1.0428590187,
				"y": -0.9744969315,
				"z": -2.3660093768,
				"element": "H" 
			}
		],
		 "valence_orbital": [ 
			{
				"type": "occ",
				"energy": -0.33366,
				"method": "rhf"
			},
			{
				"type": "occ",
				"energy": -0.28131,
				"method": "rhf"
			},
			{
				"type": "occ",
				"energy": -0.27688,
				"method": "rhf"
			},
			{
				"type": "occ",
				"energy": -0.27223,
				"method": "rhf"
			},
			{
				"type": "occ",
				"energy": -0.26516,
				"method": "rhf"
			},
			{
				"type": "unocc",
				"energy": -0.01749,
				"method": "rhf"
			},
			{
				"type": "unocc",
				"energy": 0.00747,
				"method": "rhf"
			},
			{
				"type": "unocc",
				"energy": 0.07491,
				"method": "rhf"
			},
			{
				"type": "unocc",
				"energy": 0.109,
				"method": "rhf"
			},
			{
				"type": "unocc",
				"energy": 0.12639,
				"method": "rhf"
			}
		],
		"cosmo_sigma_profile": { 
			"-0.025": 0.0,
			"-0.024": 0.0,
			"-0.023": 0.0,
			"-0.022": 0.0,
			"-0.021": 0.0,
			"-0.02": 0.0,
			"-0.019": 0.0,
			"-0.018": 0.0,
			"-0.017": 0.0,
			"-0.016": 0.0,
			"-0.015": 0.0,
			"-0.014": 0.0,
			"-0.013": 0.0,
			"-0.012": 0.0,
			"-0.011": 0.0,
			"-0.01": 0.0,
			"-0.009": 0.286025020075,
			"-0.008": 3.85116155717,
			"-0.007": 5.48638524108,
			"-0.006": 6.73099213258,
			"-0.005": 9.16520791832,
			"-0.004": 11.8176678805,
			"-0.003": 15.0230201356,
			"-0.002": 17.2586491868,
			"-0.001": 20.3249894436,
			"0.0": 16.0949069834,
			"0.001": 14.1583146973,
			"0.002": 9.81397509739,
			"0.003": 9.11885637439,
			"0.004": 10.3805557562,
			"0.005": 12.9022398735,
			"0.006": 14.7037831904,
			"0.007": 4.83313331538,
			"0.008": 1.97389576562,
			"0.009": 0.0323495538024,
			"0.01": 0.0,
			"0.011": 0.0,
			"0.012": 0.0,
			"0.013": 0.0,
			"0.014": 0.0,
			"0.015": 0.0,
			"0.016": 0.0,
			"0.017": 0.0,
			"0.018": 0.0,
			"0.019": 0.0,
			"0.02": 0.0,
			"0.021": 0.0,
			"0.022": 0.0,
			"0.023": 0.0,
			"0.024": 0.0,
			"0.025": 0.0
		}
	}
}
