{
	 "smiles": "BrN1C(=O)C2=C(C=CC=C2)S1(=O)=O", 
	 "Tm": 438.15, 
	 "num_atms": 17, 
	 "gaussian": { 
		 "optdone": 1, 
		 "sigma_profile": "yes", 
		 "theory": "DFT", 
		 "functional": "B3LYP", 
		 "basiset": "6-31G**", 
		 "properties": { 
			 "R2extent": 5470.4397, 
			 "electric_dipole_moment_norm": 4.83321343725, 
			 "electric_quadrupole_moment_norm": 9.84711403712, 
			 "total_energy": -3519.05769402, 
			 "HOMO_LUMO_gap": 0.18342, 
			 "cosmo_polarized_energy": -13.83, 
			 "cosmo_cavitation_energy": 26.0, 
			 "cosmo_dispersion_energy": -19.83, 
			 "cosmo_repulsion_energy": 1.5, 
			 "cosmo_total_nonelectrostatic_energy": 7.67, 
			 "SMD_solvation_energy": 2.92 
		},
		"coords": [
			{
				"x": -0.6327414863,
				"y": 3.9324953942,
				"z": -2.6579532222,
				"element": "Br" 
			},
			{
				"x": -0.0249086835,
				"y": 2.716469908,
				"z": -1.381351863,
				"element": "N" 
			},
			{
				"x": 0.6891179109,
				"y": 1.5653604819,
				"z": -1.742101822,
				"element": "C" 
			},
			{
				"x": 1.1565010531,
				"y": 1.3397301169,
				"z": -2.8359659801,
				"element": "O" 
			},
			{
				"x": 0.7817628473,
				"y": 0.6970889857,
				"z": -0.5315954912,
				"element": "C" 
			},
			{
				"x": 0.064003997,
				"y": 1.1538977766,
				"z": 0.5734791772,
				"element": "C" 
			},
			{
				"x": 0.0447847796,
				"y": 0.4754122208,
				"z": 1.7842730741,
				"element": "C" 
			},
			{
				"x": 0.7744940563,
				"y": -0.7159919274,
				"z": 1.8602535364,
				"element": "C" 
			},
			{
				"x": 1.4952452154,
				"y": -1.1915999706,
				"z": 0.7579855992,
				"element": "C" 
			},
			{
				"x": 1.5074863411,
				"y": -0.4881494692,
				"z": -0.4487454989,
				"element": "C" 
			},
			{
				"x": -0.7823421927,
				"y": 2.6831466556,
				"z": 0.2033233276,
				"element": "S" 
			},
			{
				"x": -0.2715818433,
				"y": 3.7884097084,
				"z": 1.0052893978,
				"element": "O" 
			},
			{
				"x": -2.2205225251,
				"y": 2.4884700625,
				"z": 0.0510370333,
				"element": "O" 
			},
			{
				"x": -0.5136985581,
				"y": 0.8495188827,
				"z": 2.6354892566,
				"element": "H" 
			},
			{
				"x": 0.7795323155,
				"y": -1.2777948836,
				"z": 2.788996091,
				"element": "H" 
			},
			{
				"x": 2.0528878547,
				"y": -2.1188436044,
				"z": 0.8442642108,
				"element": "H" 
			},
			{
				"x": 2.0624789181,
				"y": -0.8375203381,
				"z": -1.3127768266,
				"element": "H" 
			}
		],
		 "valence_orbital": [ 
			{
				"type": "occ",
				"energy": -0.31699,
				"method": "rhf"
			},
			{
				"type": "occ",
				"energy": -0.29945,
				"method": "rhf"
			},
			{
				"type": "occ",
				"energy": -0.29633,
				"method": "rhf"
			},
			{
				"type": "occ",
				"energy": -0.29413,
				"method": "rhf"
			},
			{
				"type": "occ",
				"energy": -0.27192,
				"method": "rhf"
			},
			{
				"type": "unocc",
				"energy": -0.0885,
				"method": "rhf"
			},
			{
				"type": "unocc",
				"energy": -0.08014,
				"method": "rhf"
			},
			{
				"type": "unocc",
				"energy": -0.05674,
				"method": "rhf"
			},
			{
				"type": "unocc",
				"energy": 0.01807,
				"method": "rhf"
			},
			{
				"type": "unocc",
				"energy": 0.02438,
				"method": "rhf"
			}
		],
		"cosmo_sigma_profile": { 
			"-0.025": 0.0,
			"-0.024": 0.0,
			"-0.023": 0.0,
			"-0.022": 0.0,
			"-0.021": 0.0,
			"-0.02": 0.0,
			"-0.019": 0.0,
			"-0.018": 0.0,
			"-0.017": 0.0,
			"-0.016": 0.0,
			"-0.015": 0.0,
			"-0.014": 0.0,
			"-0.013": 0.0,
			"-0.012": 0.0,
			"-0.011": 0.876130881789,
			"-0.01": 3.35367784837,
			"-0.009": 4.0130811283,
			"-0.008": 11.0890586712,
			"-0.007": 12.3728403344,
			"-0.006": 11.0006946291,
			"-0.005": 7.58643071775,
			"-0.004": 9.89702228292,
			"-0.003": 11.155732194,
			"-0.002": 13.5589871276,
			"-0.001": 17.8469482282,
			"0.0": 22.5766107307,
			"0.001": 18.2225052977,
			"0.002": 10.6125697449,
			"0.003": 5.98682134901,
			"0.004": 4.78144049301,
			"0.005": 4.05809188739,
			"0.006": 4.96876225341,
			"0.007": 5.77753146298,
			"0.008": 10.8861881719,
			"0.009": 14.7754593424,
			"0.01": 6.77029897377,
			"0.011": 1.81870369021,
			"0.012": 0.0,
			"0.013": 0.0,
			"0.014": 0.0,
			"0.015": 0.0,
			"0.016": 0.0,
			"0.017": 0.0,
			"0.018": 0.0,
			"0.019": 0.0,
			"0.02": 0.0,
			"0.021": 0.0,
			"0.022": 0.0,
			"0.023": 0.0,
			"0.024": 0.0,
			"0.025": 0.0
		}
	}
}
