{
	 "smiles": "[O-][N+](=O)C1=CC=C(C=C1)S(=O)(=O)N1CCN(CC1)C(=O)CCl", 
	 "Tm": 461.15, 
	 "num_atms": 36, 
	 "gaussian": { 
		 "optdone": 1, 
		 "sigma_profile": "yes", 
		 "theory": "DFT", 
		 "functional": "B3LYP", 
		 "basiset": "6-31G**", 
		 "properties": { 
			 "R2extent": 11006.9506, 
			 "electric_dipole_moment_norm": 3.57021447115, 
			 "electric_quadrupole_moment_norm": 27.128361421, 
			 "total_energy": -1864.28870555, 
			 "HOMO_LUMO_gap": 0.15036, 
			 "cosmo_polarized_energy": -27.33, 
			 "cosmo_cavitation_energy": 43.06, 
			 "cosmo_dispersion_energy": -30.76, 
			 "cosmo_repulsion_energy": 2.32, 
			 "cosmo_total_nonelectrostatic_energy": 14.62, 
			 "SMD_solvation_energy": 7.67 
		},
		"coords": [
			{
				"x": -2.4694308948,
				"y": 5.4077509883,
				"z": 0.4753868119,
				"element": "O" 
			},
			{
				"x": -1.613391335,
				"y": 4.7867614719,
				"z": 1.1013046957,
				"element": "N" 
			},
			{
				"x": -1.3207803137,
				"y": 4.9778353827,
				"z": 2.279738313,
				"element": "O" 
			},
			{
				"x": -0.8801375899,
				"y": 3.7258124928,
				"z": 0.3822064299,
				"element": "C" 
			},
			{
				"x": 0.1010948975,
				"y": 3.0090522251,
				"z": 1.0659603977,
				"element": "C" 
			},
			{
				"x": 0.7891041931,
				"y": 2.0072559886,
				"z": 0.3882689037,
				"element": "C" 
			},
			{
				"x": 0.4780144206,
				"y": 1.7496874215,
				"z": -0.9500867714,
				"element": "C" 
			},
			{
				"x": -0.4944125588,
				"y": 2.4855803281,
				"z": -1.6312535079,
				"element": "C" 
			},
			{
				"x": -1.1886126103,
				"y": 3.48687122,
				"z": -0.9544605802,
				"element": "C" 
			},
			{
				"x": 1.3646302072,
				"y": 0.4418254186,
				"z": -1.8163307037,
				"element": "S" 
			},
			{
				"x": 2.6611763519,
				"y": 0.2701041853,
				"z": -1.15562139,
				"element": "O" 
			},
			{
				"x": 1.2557715855,
				"y": 0.7383435561,
				"z": -3.2474694458,
				"element": "O" 
			},
			{
				"x": 0.4581640376,
				"y": -0.927304492,
				"z": -1.4603121432,
				"element": "N" 
			},
			{
				"x": 1.1199643138,
				"y": -2.0890953469,
				"z": -0.8550126907,
				"element": "C" 
			},
			{
				"x": 0.1039838612,
				"y": -2.8469244107,
				"z": 0.0029729412,
				"element": "C" 
			},
			{
				"x": -1.1205692077,
				"y": -3.1037665806,
				"z": -0.7665455657,
				"element": "N" 
			},
			{
				"x": -1.1337943728,
				"y": -2.6685477012,
				"z": -2.1625050948,
				"element": "C" 
			},
			{
				"x": -0.7414674974,
				"y": -1.1941810302,
				"z": -2.2878662421,
				"element": "C" 
			},
			{
				"x": -2.2524270752,
				"y": -3.6949403747,
				"z": -0.2490794605,
				"element": "C" 
			},
			{
				"x": -3.2609254532,
				"y": -3.8845379743,
				"z": -0.9078039892,
				"element": "O" 
			},
			{
				"x": -2.1337381796,
				"y": -4.094171891,
				"z": 1.2304500113,
				"element": "C" 
			},
			{
				"x": -3.6060807691,
				"y": -4.9021076245,
				"z": 1.8405748382,
				"element": "Cl" 
			},
			{
				"x": 0.3118495638,
				"y": 3.2471564551,
				"z": 2.1008683025,
				"element": "H" 
			},
			{
				"x": 1.5735949434,
				"y": 1.4431569651,
				"z": 0.8798498239,
				"element": "H" 
			},
			{
				"x": -0.6850326764,
				"y": 2.289936289,
				"z": -2.6802362372,
				"element": "H" 
			},
			{
				"x": -1.9494512596,
				"y": 4.0830265728,
				"z": -1.442220793,
				"element": "H" 
			},
			{
				"x": 1.5528400943,
				"y": -2.7513650847,
				"z": -1.6167492118,
				"element": "H" 
			},
			{
				"x": 1.9402535743,
				"y": -1.7393292328,
				"z": -0.2287950227,
				"element": "H" 
			},
			{
				"x": -0.1247536345,
				"y": -2.2439858607,
				"z": 0.8903301688,
				"element": "H" 
			},
			{
				"x": 0.5670071163,
				"y": -3.7840257537,
				"z": 0.3418173256,
				"element": "H" 
			},
			{
				"x": -0.4590111831,
				"y": -3.2938350823,
				"z": -2.7600147085,
				"element": "H" 
			},
			{
				"x": -2.1455308771,
				"y": -2.8205247857,
				"z": -2.5382386391,
				"element": "H" 
			},
			{
				"x": -0.5459502078,
				"y": -0.9578805204,
				"z": -3.3390298836,
				"element": "H" 
			},
			{
				"x": -1.5637911512,
				"y": -0.5595172864,
				"z": -1.9365927095,
				"element": "H" 
			},
			{
				"x": -1.9619950332,
				"y": -3.2116718937,
				"z": 1.8518961805,
				"element": "H" 
			},
			{
				"x": -1.2961652802,
				"y": -4.7799440342,
				"z": 1.3789996467,
				"element": "H" 
			}
		],
		 "valence_orbital": [ 
			{
				"type": "occ",
				"energy": -0.30421,
				"method": "rhf"
			},
			{
				"type": "occ",
				"energy": -0.30196,
				"method": "rhf"
			},
			{
				"type": "occ",
				"energy": -0.27541,
				"method": "rhf"
			},
			{
				"type": "occ",
				"energy": -0.27024,
				"method": "rhf"
			},
			{
				"type": "occ",
				"energy": -0.26186,
				"method": "rhf"
			},
			{
				"type": "unocc",
				"energy": -0.1115,
				"method": "rhf"
			},
			{
				"type": "unocc",
				"energy": -0.0521,
				"method": "rhf"
			},
			{
				"type": "unocc",
				"energy": -0.03498,
				"method": "rhf"
			},
			{
				"type": "unocc",
				"energy": 0.0043,
				"method": "rhf"
			},
			{
				"type": "unocc",
				"energy": 0.0148,
				"method": "rhf"
			}
		],
		"cosmo_sigma_profile": { 
			"-0.025": 0.0,
			"-0.024": 0.0,
			"-0.023": 0.0,
			"-0.022": 0.0,
			"-0.021": 0.0,
			"-0.02": 0.0,
			"-0.019": 0.0,
			"-0.018": 0.0,
			"-0.017": 0.0,
			"-0.016": 0.0,
			"-0.015": 0.0,
			"-0.014": 0.0,
			"-0.013": 0.0,
			"-0.012": 0.0,
			"-0.011": 0.0,
			"-0.01": 1.90795900653,
			"-0.009": 7.87909608431,
			"-0.008": 13.0644717897,
			"-0.007": 17.5942412873,
			"-0.006": 28.5508034737,
			"-0.005": 29.5371316629,
			"-0.004": 24.7187390462,
			"-0.003": 20.6876012305,
			"-0.002": 20.6166693133,
			"-0.001": 23.7580742864,
			"0.0": 20.6003219455,
			"0.001": 12.6200852678,
			"0.002": 9.77069344911,
			"0.003": 10.4225387832,
			"0.004": 11.8910661846,
			"0.005": 11.6888737049,
			"0.006": 14.8193714099,
			"0.007": 16.281670587,
			"0.008": 10.2470460053,
			"0.009": 9.41605220548,
			"0.01": 10.051625256,
			"0.011": 8.22115127993,
			"0.012": 3.06675292899,
			"0.013": 4.71462250802,
			"0.014": 2.22686452961,
			"0.015": 0.434175393899,
			"0.016": 0.0,
			"0.017": 0.0,
			"0.018": 0.0,
			"0.019": 0.0,
			"0.02": 0.0,
			"0.021": 0.0,
			"0.022": 0.0,
			"0.023": 0.0,
			"0.024": 0.0,
			"0.025": 0.0
		}
	}
}
