{
	 "smiles": "COC1=C(OC)C=C(C(=C1)C(C1=CC=C(C)S1)C1=CC=C(C)S1)[N+]([O-])=O", 
	 "Tm": 393.15, 
	 "num_atms": 45, 
	 "gaussian": { 
		 "optdone": 1, 
		 "sigma_profile": "yes", 
		 "theory": "DFT", 
		 "functional": "B3LYP", 
		 "basiset": "6-31G**", 
		 "properties": { 
			 "R2extent": 10656.5267, 
			 "electric_dipole_moment_norm": 6.37664164667, 
			 "electric_quadrupole_moment_norm": 22.5459555244, 
			 "total_energy": -1887.34460516, 
			 "HOMO_LUMO_gap": 0.13785, 
			 "cosmo_polarized_energy": -14.82, 
			 "cosmo_cavitation_energy": 51.66, 
			 "cosmo_dispersion_energy": -34.58, 
			 "cosmo_repulsion_energy": 2.62, 
			 "cosmo_total_nonelectrostatic_energy": 19.69, 
			 "SMD_solvation_energy": 11.64 
		},
		"coords": [
			{
				"x": -2.4405062048,
				"y": -0.5098782166,
				"z": 2.71947132,
				"element": "C" 
			},
			{
				"x": -2.127994225,
				"y": 0.8803563106,
				"z": 2.7276904408,
				"element": "O" 
			},
			{
				"x": -1.18366258,
				"y": 1.3387481296,
				"z": 1.8713747649,
				"element": "C" 
			},
			{
				"x": -0.9439022472,
				"y": 2.7341544635,
				"z": 1.8910666429,
				"element": "C" 
			},
			{
				"x": -1.6586095742,
				"y": 3.5815854646,
				"z": 2.692777229,
				"element": "O" 
			},
			{
				"x": -1.4232222082,
				"y": 3.4678158433,
				"z": 4.1006660412,
				"element": "C" 
			},
			{
				"x": -0.0060661735,
				"y": 3.2590518669,
				"z": 1.0216971477,
				"element": "C" 
			},
			{
				"x": 0.6946485347,
				"y": 2.4416341192,
				"z": 0.1224020776,
				"element": "C" 
			},
			{
				"x": 0.4889104945,
				"y": 1.0479295561,
				"z": 0.0937606607,
				"element": "C" 
			},
			{
				"x": -0.4560058214,
				"y": 0.5333390548,
				"z": 0.9932391417,
				"element": "C" 
			},
			{
				"x": 1.1817586074,
				"y": 0.0575410025,
				"z": -0.8592595041,
				"element": "C" 
			},
			{
				"x": 1.4387850168,
				"y": -1.2961850031,
				"z": -0.2187204618,
				"element": "C" 
			},
			{
				"x": 0.9460882609,
				"y": -2.5316388779,
				"z": -0.540110543,
				"element": "C" 
			},
			{
				"x": 1.4723575679,
				"y": -3.5865419736,
				"z": 0.2710668737,
				"element": "C" 
			},
			{
				"x": 2.3709388981,
				"y": -3.1656813883,
				"z": 1.2120303359,
				"element": "C" 
			},
			{
				"x": 3.1199924583,
				"y": -3.9825710812,
				"z": 2.2220917537,
				"element": "C" 
			},
			{
				"x": 2.5823975784,
				"y": -1.430593559,
				"z": 1.108089202,
				"element": "S" 
			},
			{
				"x": 0.4355986217,
				"y": -0.0513097664,
				"z": -2.1742433044,
				"element": "C" 
			},
			{
				"x": 0.9758340532,
				"y": -0.0111679866,
				"z": -3.4302579813,
				"element": "C" 
			},
			{
				"x": 0.0132808374,
				"y": -0.166218676,
				"z": -4.4735647437,
				"element": "C" 
			},
			{
				"x": -1.2692657419,
				"y": -0.3188152806,
				"z": -4.0213347764,
				"element": "C" 
			},
			{
				"x": -2.5272019336,
				"y": -0.4912052125,
				"z": -4.8192324052,
				"element": "C" 
			},
			{
				"x": -1.3044132539,
				"y": -0.2690112997,
				"z": -2.2726448813,
				"element": "S" 
			},
			{
				"x": 1.6491254681,
				"y": 3.1437514153,
				"z": -0.7460290169,
				"element": "N" 
			},
			{
				"x": 2.1977047207,
				"y": 2.5245187536,
				"z": -1.6629536823,
				"element": "O" 
			},
			{
				"x": 1.8582851669,
				"y": 4.3368805519,
				"z": -0.5183723907,
				"element": "O" 
			},
			{
				"x": -1.5737072829,
				"y": -1.1175099548,
				"z": 3.0045218719,
				"element": "H" 
			},
			{
				"x": -2.8014576952,
				"y": -0.8299320876,
				"z": 1.7353348315,
				"element": "H" 
			},
			{
				"x": -3.2332801961,
				"y": -0.6389723473,
				"z": 3.4569043802,
				"element": "H" 
			},
			{
				"x": -1.7169546632,
				"y": 2.4847199882,
				"z": 4.4793098316,
				"element": "H" 
			},
			{
				"x": -2.0365744935,
				"y": 4.2385908107,
				"z": 4.5707154862,
				"element": "H" 
			},
			{
				"x": -0.3673754384,
				"y": 3.6532141557,
				"z": 4.3348937873,
				"element": "H" 
			},
			{
				"x": 0.1815679506,
				"y": 4.3241280856,
				"z": 1.027262849,
				"element": "H" 
			},
			{
				"x": -0.6109454892,
				"y": -0.5380642754,
				"z": 0.9935913282,
				"element": "H" 
			},
			{
				"x": 2.1492563614,
				"y": 0.4862741651,
				"z": -1.1229754591,
				"element": "H" 
			},
			{
				"x": 0.2388051159,
				"y": -2.6886703298,
				"z": -1.3453476515,
				"element": "H" 
			},
			{
				"x": 1.1939685835,
				"y": -4.6287967875,
				"z": 0.1531113139,
				"element": "H" 
			},
			{
				"x": 4.2049793855,
				"y": -3.9058254822,
				"z": 2.0875006898,
				"element": "H" 
			},
			{
				"x": 2.8959249847,
				"y": -3.6734657453,
				"z": 3.2495911594,
				"element": "H" 
			},
			{
				"x": 2.8442033669,
				"y": -5.036079372,
				"z": 2.1214040634,
				"element": "H" 
			},
			{
				"x": 2.0356518824,
				"y": 0.1384400888,
				"z": -3.6029454863,
				"element": "H" 
			},
			{
				"x": 0.2635828062,
				"y": -0.153697223,
				"z": -5.5292957047,
				"element": "H" 
			},
			{
				"x": -3.2456395577,
				"y": 0.3150275976,
				"z": -4.6317897852,
				"element": "H" 
			},
			{
				"x": -2.288906741,
				"y": -0.4849988302,
				"z": -5.8865401133,
				"element": "H" 
			},
			{
				"x": -3.0314552011,
				"y": -1.4381706672,
				"z": -4.5942473334,
				"element": "H" 
			}
		],
		 "valence_orbital": [ 
			{
				"type": "occ",
				"energy": -0.24924,
				"method": "rhf"
			},
			{
				"type": "occ",
				"energy": -0.24351,
				"method": "rhf"
			},
			{
				"type": "occ",
				"energy": -0.23564,
				"method": "rhf"
			},
			{
				"type": "occ",
				"energy": -0.22411,
				"method": "rhf"
			},
			{
				"type": "occ",
				"energy": -0.21463,
				"method": "rhf"
			},
			{
				"type": "unocc",
				"energy": -0.07678,
				"method": "rhf"
			},
			{
				"type": "unocc",
				"energy": -0.02224,
				"method": "rhf"
			},
			{
				"type": "unocc",
				"energy": -0.01392,
				"method": "rhf"
			},
			{
				"type": "unocc",
				"energy": -0.00225,
				"method": "rhf"
			},
			{
				"type": "unocc",
				"energy": 0.01127,
				"method": "rhf"
			}
		],
		"cosmo_sigma_profile": { 
			"-0.025": 0.0,
			"-0.024": 0.0,
			"-0.023": 0.0,
			"-0.022": 0.0,
			"-0.021": 0.0,
			"-0.02": 0.0,
			"-0.019": 0.0,
			"-0.018": 0.0,
			"-0.017": 0.0,
			"-0.016": 0.0,
			"-0.015": 0.0,
			"-0.014": 0.0,
			"-0.013": 0.0,
			"-0.012": 0.0,
			"-0.011": 0.0,
			"-0.01": 0.0,
			"-0.009": 0.0,
			"-0.008": 0.0,
			"-0.007": 2.51590644246,
			"-0.006": 18.8781512448,
			"-0.005": 33.6128119313,
			"-0.004": 40.2769535972,
			"-0.003": 44.1256910777,
			"-0.002": 38.3505903241,
			"-0.001": 36.2263383671,
			"0.0": 32.4435321658,
			"0.001": 28.6153831898,
			"0.002": 25.5153163089,
			"0.003": 24.0248400647,
			"0.004": 24.4847423923,
			"0.005": 22.6159322013,
			"0.006": 11.3062389306,
			"0.007": 7.44953374045,
			"0.008": 9.17895693396,
			"0.009": 7.2057058388,
			"0.01": 5.39064080308,
			"0.011": 2.66490419923,
			"0.012": 0.0914876363266,
			"0.013": 0.0,
			"0.014": 0.0,
			"0.015": 0.0,
			"0.016": 0.0,
			"0.017": 0.0,
			"0.018": 0.0,
			"0.019": 0.0,
			"0.02": 0.0,
			"0.021": 0.0,
			"0.022": 0.0,
			"0.023": 0.0,
			"0.024": 0.0,
			"0.025": 0.0
		}
	}
}
