{
	 "smiles": "CN(C1=CC=C(CN)C=C1)S(C)(=O)=O", 
	 "Tm": 320.15, 
	 "num_atms": 28, 
	 "gaussian": { 
		 "optdone": 1, 
		 "sigma_profile": "yes", 
		 "theory": "DFT", 
		 "functional": "B3LYP", 
		 "basiset": "6-31G**", 
		 "properties": { 
			 "R2extent": 4258.8273, 
			 "electric_dipole_moment_norm": 3.90860035435, 
			 "electric_quadrupole_moment_norm": 13.2436068403, 
			 "total_energy": -1009.45573072, 
			 "HOMO_LUMO_gap": 0.21269, 
			 "cosmo_polarized_energy": -18.74, 
			 "cosmo_cavitation_energy": 32.68, 
			 "cosmo_dispersion_energy": -23.0, 
			 "cosmo_repulsion_energy": 1.79, 
			 "cosmo_total_nonelectrostatic_energy": 11.47, 
			 "SMD_solvation_energy": 3.62 
		},
		"coords": [
			{
				"x": -0.4718539786,
				"y": 2.9840840694,
				"z": -2.2566615451,
				"element": "C" 
			},
			{
				"x": -0.4056509907,
				"y": 1.5252764248,
				"z": -2.0566427844,
				"element": "N" 
			},
			{
				"x": -0.5749765736,
				"y": 1.0856869892,
				"z": -0.6889133389,
				"element": "C" 
			},
			{
				"x": 0.339195193,
				"y": 1.4316448205,
				"z": 0.3124973123,
				"element": "C" 
			},
			{
				"x": 0.1199089859,
				"y": 1.0188676631,
				"z": 1.6248704841,
				"element": "C" 
			},
			{
				"x": -1.0067587924,
				"y": 0.2569166671,
				"z": 1.9660658594,
				"element": "C" 
			},
			{
				"x": -1.2017359707,
				"y": -0.2506956193,
				"z": 3.3848430626,
				"element": "C" 
			},
			{
				"x": -0.5736286956,
				"y": -1.5485710355,
				"z": 3.6807475952,
				"element": "N" 
			},
			{
				"x": -1.9156551496,
				"y": -0.0752045412,
				"z": 0.9524359033,
				"element": "C" 
			},
			{
				"x": -1.703581502,
				"y": 0.3308324775,
				"z": -0.3643086205,
				"element": "C" 
			},
			{
				"x": 0.8690912889,
				"y": 0.755187768,
				"z": -2.9104547743,
				"element": "S" 
			},
			{
				"x": 0.1104176518,
				"y": 0.5149066414,
				"z": -4.5276930178,
				"element": "C" 
			},
			{
				"x": 1.0664441848,
				"y": -0.5597981647,
				"z": -2.3009031451,
				"element": "O" 
			},
			{
				"x": 1.9948414796,
				"y": 1.6842521254,
				"z": -3.079949156,
				"element": "O" 
			},
			{
				"x": -1.4126209901,
				"y": 3.3342341876,
				"z": -1.8263010695,
				"element": "H" 
			},
			{
				"x": -0.4779198066,
				"y": 3.2146710401,
				"z": -3.324943411,
				"element": "H" 
			},
			{
				"x": 0.3637266217,
				"y": 3.5211527412,
				"z": -1.7939195238,
				"element": "H" 
			},
			{
				"x": 1.2206414167,
				"y": 2.0140410626,
				"z": 0.0604292229,
				"element": "H" 
			},
			{
				"x": 0.8353998161,
				"y": 1.2919066974,
				"z": 2.3973482236,
				"element": "H" 
			},
			{
				"x": -2.2726514773,
				"y": -0.3439021499,
				"z": 3.5984767049,
				"element": "H" 
			},
			{
				"x": -0.8017723862,
				"y": 0.4806272474,
				"z": 4.0964178823,
				"element": "H" 
			},
			{
				"x": 0.4262097929,
				"y": -1.4869507307,
				"z": 3.4971303587,
				"element": "H" 
			},
			{
				"x": -0.9259681919,
				"y": -2.2475450532,
				"z": 3.0292189317,
				"element": "H" 
			},
			{
				"x": -2.8013933645,
				"y": -0.6572407897,
				"z": 1.1971678576,
				"element": "H" 
			},
			{
				"x": -2.4077461113,
				"y": 0.0739392058,
				"z": -1.1492721506,
				"element": "H" 
			},
			{
				"x": 0.8714266588,
				"y": 0.0573696388,
				"z": -5.1624464453,
				"element": "H" 
			},
			{
				"x": -0.1894121181,
				"y": 1.4779042477,
				"z": -4.9422862048,
				"element": "H" 
			},
			{
				"x": -0.7469769911,
				"y": -0.1472936307,
				"z": -4.4119542114,
				"element": "H" 
			}
		],
		 "valence_orbital": [ 
			{
				"type": "occ",
				"energy": -0.2963,
				"method": "rhf"
			},
			{
				"type": "occ",
				"energy": -0.26452,
				"method": "rhf"
			},
			{
				"type": "occ",
				"energy": -0.2584,
				"method": "rhf"
			},
			{
				"type": "occ",
				"energy": -0.25499,
				"method": "rhf"
			},
			{
				"type": "occ",
				"energy": -0.23154,
				"method": "rhf"
			},
			{
				"type": "unocc",
				"energy": -0.01885,
				"method": "rhf"
			},
			{
				"type": "unocc",
				"energy": -0.01124,
				"method": "rhf"
			},
			{
				"type": "unocc",
				"energy": 0.06588,
				"method": "rhf"
			},
			{
				"type": "unocc",
				"energy": 0.07119,
				"method": "rhf"
			},
			{
				"type": "unocc",
				"energy": 0.08407,
				"method": "rhf"
			}
		],
		"cosmo_sigma_profile": { 
			"-0.025": 0.0,
			"-0.024": 0.0,
			"-0.023": 0.0,
			"-0.022": 0.0,
			"-0.021": 0.0,
			"-0.02": 0.0,
			"-0.019": 0.0,
			"-0.018": 0.0,
			"-0.017": 0.0,
			"-0.016": 0.0,
			"-0.015": 0.0,
			"-0.014": 0.0,
			"-0.013": 0.0,
			"-0.012": 0.0,
			"-0.011": 0.0,
			"-0.01": 0.935757233987,
			"-0.009": 5.3648159869,
			"-0.008": 8.97339234339,
			"-0.007": 8.1639451928,
			"-0.006": 18.4979809024,
			"-0.005": 24.7571081105,
			"-0.004": 26.5261516387,
			"-0.003": 23.0909777822,
			"-0.002": 17.7537453985,
			"-0.001": 13.3516257289,
			"0.0": 11.9082093199,
			"0.001": 9.90544357662,
			"0.002": 10.4823066948,
			"0.003": 9.8191347604,
			"0.004": 10.5763177126,
			"0.005": 8.18081705802,
			"0.006": 5.12826165709,
			"0.007": 3.61522212432,
			"0.008": 4.93401035387,
			"0.009": 4.29993285264,
			"0.01": 5.59662827905,
			"0.011": 13.3098521658,
			"0.012": 6.94637081886,
			"0.013": 0.910809002784,
			"0.014": 0.960606343342,
			"0.015": 0.21951659803,
			"0.016": 0.515243909749,
			"0.017": 0.800364695707,
			"0.018": 0.742286268183,
			"0.019": 0.580324304229,
			"0.02": 0.295347225737,
			"0.021": 0.0,
			"0.022": 0.0,
			"0.023": 0.0,
			"0.024": 0.0,
			"0.025": 0.0
		}
	}
}
