{
	 "smiles": "NC1=C(C=C(C=C1)S(N)(=O)=O)[N+]([O-])=O", 
	 "Tm": 480.15, 
	 "num_atms": 21, 
	 "gaussian": { 
		 "optdone": 1, 
		 "sigma_profile": "yes", 
		 "theory": "DFT", 
		 "functional": "B3LYP", 
		 "basiset": "6-31G**", 
		 "properties": { 
			 "R2extent": 3696.3351, 
			 "electric_dipole_moment_norm": 7.33878486263, 
			 "electric_quadrupole_moment_norm": 21.6496930914, 
			 "total_energy": -1096.03090704, 
			 "HOMO_LUMO_gap": 0.14577, 
			 "cosmo_polarized_energy": -26.06, 
			 "cosmo_cavitation_energy": 27.46, 
			 "cosmo_dispersion_energy": -20.93, 
			 "cosmo_repulsion_energy": 1.6, 
			 "cosmo_total_nonelectrostatic_energy": 8.14, 
			 "SMD_solvation_energy": 6.39 
		},
		"coords": [
			{
				"x": 0.7520301352,
				"y": 2.3055394258,
				"z": -2.5316768828,
				"element": "N" 
			},
			{
				"x": 0.7561531914,
				"y": 1.4662901632,
				"z": -1.4730234557,
				"element": "C" 
			},
			{
				"x": 0.4641829964,
				"y": 1.870426717,
				"z": -0.1361289572,
				"element": "C" 
			},
			{
				"x": 0.479289803,
				"y": 0.9542834229,
				"z": 0.9220399494,
				"element": "C" 
			},
			{
				"x": 0.7679341813,
				"y": -0.3769213947,
				"z": 0.6823404938,
				"element": "C" 
			},
			{
				"x": 1.0703873444,
				"y": -0.8082365544,
				"z": -0.6235940093,
				"element": "C" 
			},
			{
				"x": 1.0616553728,
				"y": 0.0908665806,
				"z": -1.6671317985,
				"element": "C" 
			},
			{
				"x": 0.7713569536,
				"y": -1.5516840369,
				"z": 2.0369803146,
				"element": "S" 
			},
			{
				"x": -0.7927362414,
				"y": -2.1449380565,
				"z": 2.1942801185,
				"element": "N" 
			},
			{
				"x": 1.0290696043,
				"y": -0.801934351,
				"z": 3.2637341711,
				"element": "O" 
			},
			{
				"x": 1.5793119171,
				"y": -2.6904763878,
				"z": 1.6030173526,
				"element": "O" 
			},
			{
				"x": 0.1484551555,
				"y": 3.2495330423,
				"z": 0.1982283686,
				"element": "N" 
			},
			{
				"x": 0.1510803971,
				"y": 4.0995173739,
				"z": -0.7111496097,
				"element": "O" 
			},
			{
				"x": -0.1140060171,
				"y": 3.5225156154,
				"z": 1.3673338178,
				"element": "O" 
			},
			{
				"x": 1.0153750209,
				"y": 1.9648688062,
				"z": -3.4413737553,
				"element": "H" 
			},
			{
				"x": 0.5784627716,
				"y": 3.2872822692,
				"z": -2.3673308911,
				"element": "H" 
			},
			{
				"x": 0.2812948953,
				"y": 1.3159272632,
				"z": 1.9235351718,
				"element": "H" 
			},
			{
				"x": 1.3332600374,
				"y": -1.8468869366,
				"z": -0.7946166453,
				"element": "H" 
			},
			{
				"x": 1.3039586131,
				"y": -0.2422420055,
				"z": -2.6723034096,
				"element": "H" 
			},
			{
				"x": -1.4590212154,
				"y": -1.4397795933,
				"z": 2.4922592341,
				"element": "H" 
			},
			{
				"x": -1.1020949164,
				"y": -2.6802513631,
				"z": 1.3896804225,
				"element": "H" 
			}
		],
		 "valence_orbital": [ 
			{
				"type": "occ",
				"energy": -0.30949,
				"method": "rhf"
			},
			{
				"type": "occ",
				"energy": -0.30815,
				"method": "rhf"
			},
			{
				"type": "occ",
				"energy": -0.30167,
				"method": "rhf"
			},
			{
				"type": "occ",
				"energy": -0.29788,
				"method": "rhf"
			},
			{
				"type": "occ",
				"energy": -0.24484,
				"method": "rhf"
			},
			{
				"type": "unocc",
				"energy": -0.09907,
				"method": "rhf"
			},
			{
				"type": "unocc",
				"energy": -0.0408,
				"method": "rhf"
			},
			{
				"type": "unocc",
				"energy": -0.01696,
				"method": "rhf"
			},
			{
				"type": "unocc",
				"energy": 0.04482,
				"method": "rhf"
			},
			{
				"type": "unocc",
				"energy": 0.05963,
				"method": "rhf"
			}
		],
		"cosmo_sigma_profile": { 
			"-0.025": 0.0,
			"-0.024": 0.0,
			"-0.023": 0.0,
			"-0.022": 0.0,
			"-0.021": 0.0,
			"-0.02": 0.0,
			"-0.019": 0.0,
			"-0.018": 0.0,
			"-0.017": 0.0,
			"-0.016": 0.436585503532,
			"-0.015": 3.97131989631,
			"-0.014": 4.37585064058,
			"-0.013": 4.30397368131,
			"-0.012": 4.24167455462,
			"-0.011": 5.45585088146,
			"-0.01": 4.68092474845,
			"-0.009": 4.58263304961,
			"-0.008": 5.83825014838,
			"-0.007": 5.80424271909,
			"-0.006": 8.68202132907,
			"-0.005": 8.62217067815,
			"-0.004": 7.23232487945,
			"-0.003": 9.11285224295,
			"-0.002": 11.8892059699,
			"-0.001": 14.504633306,
			"0.0": 15.2763476297,
			"0.001": 12.6753856021,
			"0.002": 9.33475615945,
			"0.003": 5.47800635662,
			"0.004": 5.17950736442,
			"0.005": 5.78935231535,
			"0.006": 6.13697506174,
			"0.007": 9.57358631145,
			"0.008": 10.3384169812,
			"0.009": 8.76529931021,
			"0.01": 11.5559001251,
			"0.011": 11.1490342089,
			"0.012": 4.35468590389,
			"0.013": 0.0945984569988,
			"0.014": 0.0,
			"0.015": 0.0,
			"0.016": 0.0,
			"0.017": 0.0,
			"0.018": 0.0,
			"0.019": 0.0,
			"0.02": 0.0,
			"0.021": 0.0,
			"0.022": 0.0,
			"0.023": 0.0,
			"0.024": 0.0,
			"0.0": 0.0
		}
	}
}
