{
	 "smiles": "CCOC=C(C#N)S(=O)(=O)C1=CC=C(Cl)C=C1", 
	 "Tm": 395.15, 
	 "num_atms": 27, 
	 "gaussian": { 
		 "optdone": 1, 
		 "sigma_profile": "yes", 
		 "theory": "DFT", 
		 "functional": "B3LYP", 
		 "basiset": "6-31G**", 
		 "properties": { 
			 "R2extent": 6195.4174, 
			 "electric_dipole_moment_norm": 8.2236028327, 
			 "electric_quadrupole_moment_norm": 19.2672308908, 
			 "total_energy": -1563.87795018, 
			 "HOMO_LUMO_gap": 0.19419, 
			 "cosmo_polarized_energy": -23.15, 
			 "cosmo_cavitation_energy": 36.54, 
			 "cosmo_dispersion_energy": -24.58, 
			 "cosmo_repulsion_energy": 1.91, 
			 "cosmo_total_nonelectrostatic_energy": 13.87, 
			 "SMD_solvation_energy": 7.48 
		},
		"coords": [
			{
				"x": -2.478002002,
				"y": -1.1342763563,
				"z": -1.6676405576,
				"element": "C" 
			},
			{
				"x": -1.3699825958,
				"y": -2.0860808803,
				"z": -1.2485674662,
				"element": "C" 
			},
			{
				"x": -0.2636154554,
				"y": -1.3677857919,
				"z": -0.6494538728,
				"element": "O" 
			},
			{
				"x": -0.3143320105,
				"y": -1.1478765586,
				"z": 0.6564117282,
				"element": "C" 
			},
			{
				"x": 0.6251326931,
				"y": -0.4408412629,
				"z": 1.3350815519,
				"element": "C" 
			},
			{
				"x": 0.4696747387,
				"y": -0.2195259335,
				"z": 2.7285806626,
				"element": "C" 
			},
			{
				"x": 0.3148485234,
				"y": -0.0377788025,
				"z": 3.8686738873,
				"element": "N" 
			},
			{
				"x": 2.1058648896,
				"y": 0.2475851381,
				"z": 0.5394810673,
				"element": "S" 
			},
			{
				"x": 2.9288637631,
				"y": 0.7862020247,
				"z": 1.626745376,
				"element": "O" 
			},
			{
				"x": 2.620482055,
				"y": -0.7477300881,
				"z": -0.4064939348,
				"element": "O" 
			},
			{
				"x": 1.4715812579,
				"y": 1.6346955969,
				"z": -0.4112500359,
				"element": "C" 
			},
			{
				"x": 1.1669839875,
				"y": 1.458579411,
				"z": -1.7619621841,
				"element": "C" 
			},
			{
				"x": 0.6827796321,
				"y": 2.538761754,
				"z": -2.4982652492,
				"element": "C" 
			},
			{
				"x": 0.513294655,
				"y": 3.77220033,
				"z": -1.8659843091,
				"element": "C" 
			},
			{
				"x": -0.0997523914,
				"y": 5.1293298537,
				"z": -2.7903752898,
				"element": "Cl" 
			},
			{
				"x": 0.8278582523,
				"y": 3.9524968171,
				"z": -0.5170714264,
				"element": "C" 
			},
			{
				"x": 1.3147351561,
				"y": 2.8725755068,
				"z": 0.2164381099,
				"element": "C" 
			},
			{
				"x": -2.0930284914,
				"y": -0.370162318,
				"z": -2.348077125,
				"element": "H" 
			},
			{
				"x": -2.9225656313,
				"y": -0.633836125,
				"z": -0.801762453,
				"element": "H" 
			},
			{
				"x": -3.2683066863,
				"y": -1.6900888336,
				"z": -2.1819490241,
				"element": "H" 
			},
			{
				"x": -0.9309109005,
				"y": -2.597755927,
				"z": -2.1071732132,
				"element": "H" 
			},
			{
				"x": -1.7264856395,
				"y": -2.8445950361,
				"z": -0.5419043224,
				"element": "H" 
			},
			{
				"x": -1.1656755538,
				"y": -1.562381201,
				"z": 1.1984793774,
				"element": "H" 
			},
			{
				"x": 1.325477961,
				"y": 0.4921463736,
				"z": -2.2264764311,
				"element": "H" 
			},
			{
				"x": 0.4477860688,
				"y": 2.4317930454,
				"z": -3.5513020892,
				"element": "H" 
			},
			{
				"x": 0.7001601394,
				"y": 4.9241913457,
				"z": -0.053757767,
				"element": "H" 
			},
			{
				"x": 1.5865335851,
				"y": 2.9904579179,
				"z": 1.2599749901,
				"element": "H" 
			}
		],
		 "valence_orbital": [ 
			{
				"type": "occ",
				"energy": -0.30738,
				"method": "rhf"
			},
			{
				"type": "occ",
				"energy": -0.29909,
				"method": "rhf"
			},
			{
				"type": "occ",
				"energy": -0.28725,
				"method": "rhf"
			},
			{
				"type": "occ",
				"energy": -0.27834,
				"method": "rhf"
			},
			{
				"type": "occ",
				"energy": -0.26085,
				"method": "rhf"
			},
			{
				"type": "unocc",
				"energy": -0.06666,
				"method": "rhf"
			},
			{
				"type": "unocc",
				"energy": -0.0477,
				"method": "rhf"
			},
			{
				"type": "unocc",
				"energy": -0.03667,
				"method": "rhf"
			},
			{
				"type": "unocc",
				"energy": -0.0004,
				"method": "rhf"
			},
			{
				"type": "unocc",
				"energy": 0.01319,
				"method": "rhf"
			}
		],
		"cosmo_sigma_profile": { 
			"-0.025": 0.0,
			"-0.024": 0.0,
			"-0.023": 0.0,
			"-0.022": 0.0,
			"-0.021": 0.0,
			"-0.02": 0.0,
			"-0.019": 0.0,
			"-0.018": 0.0,
			"-0.017": 0.0,
			"-0.016": 0.0,
			"-0.015": 0.0,
			"-0.014": 0.0,
			"-0.013": 0.0171380832914,
			"-0.012": 3.02599795686,
			"-0.011": 3.05081294401,
			"-0.01": 2.54044543301,
			"-0.009": 3.19737751737,
			"-0.008": 8.5694476238,
			"-0.007": 14.3417499647,
			"-0.006": 14.8161483781,
			"-0.005": 18.6440392659,
			"-0.004": 18.5590109135,
			"-0.003": 17.9890351573,
			"-0.002": 19.9179493577,
			"-0.001": 24.1927970875,
			"0.0": 26.430862008,
			"0.001": 23.3854835318,
			"0.002": 11.5288642098,
			"0.003": 12.1885933668,
			"0.004": 12.6881489519,
			"0.005": 5.05846803692,
			"0.006": 6.5840739151,
			"0.007": 6.21148432972,
			"0.008": 7.01948262053,
			"0.009": 9.36655877724,
			"0.01": 12.1951918378,
			"0.011": 10.2451825238,
			"0.012": 2.79873790224,
			"0.013": 1.23308326716,
			"0.014": 0.0,
			"0.015": 0.0,
			"0.016": 0.0,
			"0.017": 0.0,
			"0.018": 0.0,
			"0.019": 0.0,
			"0.02": 0.0,
			"0.021": 0.0,
			"0.022": 0.0,
			"0.023": 0.0,
			"0.024": 0.0,
			"0.025": 0.0
		}
	}
}
