{
	 "smiles": "BrC1=CC(NC(=O)C2=CC(=CC=C2)S(=O)(=O)N2CCCCCC2)=CC=C1", 
	 "Tm": 423.15, 
	 "num_atms": 47, 
	 "gaussian": { 
		 "optdone": 1, 
		 "sigma_profile": "yes", 
		 "theory": "DFT", 
		 "functional": "B3LYP", 
		 "basiset": "6-31G**", 
		 "properties": { 
			 "R2extent": 13530.5923, 
			 "electric_dipole_moment_norm": 7.00433190319, 
			 "electric_quadrupole_moment_norm": 30.3160400541, 
			 "total_energy": -4041.39151206, 
			 "HOMO_LUMO_gap": 0.179, 
			 "cosmo_polarized_energy": -21.05, 
			 "cosmo_cavitation_energy": 52.44, 
			 "cosmo_dispersion_energy": -34.48, 
			 "cosmo_repulsion_energy": 2.56, 
			 "cosmo_total_nonelectrostatic_energy": 20.52, 
			 "SMD_solvation_energy": 6.34 
		},
		"coords": [
			{
				"x": -4.3793937703,
				"y": -1.1398901087,
				"z": -1.7654832078,
				"element": "Br" 
			},
			{
				"x": -3.3702697866,
				"y": -0.3080790132,
				"z": -3.1608164623,
				"element": "C" 
			},
			{
				"x": -1.9809327895,
				"y": -0.3690944729,
				"z": -3.1080313611,
				"element": "C" 
			},
			{
				"x": -1.2313274318,
				"y": 0.2508112624,
				"z": -4.1186306906,
				"element": "C" 
			},
			{
				"x": 0.182909962,
				"y": 0.2114198988,
				"z": -4.1313750477,
				"element": "N" 
			},
			{
				"x": 1.0966036758,
				"y": 0.0895690535,
				"z": -3.0924826381,
				"element": "C" 
			},
			{
				"x": 2.2079734897,
				"y": -0.3717434881,
				"z": -3.3122670767,
				"element": "O" 
			},
			{
				"x": 0.7236954417,
				"y": 0.6028676409,
				"z": -1.7322412782,
				"element": "C" 
			},
			{
				"x": 1.2841161427,
				"y": -0.045943301,
				"z": -0.6228744617,
				"element": "C" 
			},
			{
				"x": 1.0051702941,
				"y": 0.4280659667,
				"z": 0.65596179,
				"element": "C" 
			},
			{
				"x": 0.228654525,
				"y": 1.5739421235,
				"z": 0.8530445396,
				"element": "C" 
			},
			{
				"x": -0.2914791432,
				"y": 2.2386062147,
				"z": -0.2555464353,
				"element": "C" 
			},
			{
				"x": -0.0585427761,
				"y": 1.7493585747,
				"z": -1.5422750492,
				"element": "C" 
			},
			{
				"x": 1.6631174475,
				"y": -0.435905332,
				"z": 2.0931850715,
				"element": "S" 
			},
			{
				"x": 2.7588977546,
				"y": -1.284689546,
				"z": 1.612545702,
				"element": "O" 
			},
			{
				"x": 1.8785126345,
				"y": 0.5647594237,
				"z": 3.1446147318,
				"element": "O" 
			},
			{
				"x": 0.3699038387,
				"y": -1.400526152,
				"z": 2.575967516,
				"element": "N" 
			},
			{
				"x": 0.2132308905,
				"y": -2.6547497913,
				"z": 1.8153147951,
				"element": "C" 
			},
			{
				"x": -1.0835972813,
				"y": -3.4076046025,
				"z": 2.1385236208,
				"element": "C" 
			},
			{
				"x": -2.3626981247,
				"y": -2.5518259844,
				"z": 2.1922203567,
				"element": "C" 
			},
			{
				"x": -2.6162007168,
				"y": -1.9136457832,
				"z": 3.5688101422,
				"element": "C" 
			},
			{
				"x": -1.5963810509,
				"y": -0.8566703687,
				"z": 4.0142191614,
				"element": "C" 
			},
			{
				"x": -0.1248514339,
				"y": -1.292831136,
				"z": 3.9603305119,
				"element": "C" 
			},
			{
				"x": -1.8931678374,
				"y": 0.8856147033,
				"z": -5.1796679599,
				"element": "C" 
			},
			{
				"x": -3.2854558624,
				"y": 0.9075258756,
				"z": -5.2221501561,
				"element": "C" 
			},
			{
				"x": -4.0427477883,
				"y": 0.3206622442,
				"z": -4.2069822063,
				"element": "C" 
			},
			{
				"x": -1.4898438866,
				"y": -0.8954580913,
				"z": -2.3005215814,
				"element": "H" 
			},
			{
				"x": 0.6137212546,
				"y": -0.0103300772,
				"z": -5.0216728947,
				"element": "H" 
			},
			{
				"x": 1.9440439922,
				"y": -0.8938086392,
				"z": -0.7673712339,
				"element": "H" 
			},
			{
				"x": 0.0604991616,
				"y": 1.944016943,
				"z": 1.8586352059,
				"element": "H" 
			},
			{
				"x": -0.8776615022,
				"y": 3.141939427,
				"z": -0.1184715668,
				"element": "H" 
			},
			{
				"x": -0.4691370214,
				"y": 2.2723393093,
				"z": -2.399185532,
				"element": "H" 
			},
			{
				"x": 0.2066213656,
				"y": -2.3903273166,
				"z": 0.7511433582,
				"element": "H" 
			},
			{
				"x": 1.0736719231,
				"y": -3.3174374847,
				"z": 1.9738889055,
				"element": "H" 
			},
			{
				"x": -1.1820700455,
				"y": -4.1797733669,
				"z": 1.3661705683,
				"element": "H" 
			},
			{
				"x": -0.9749102418,
				"y": -3.9508807452,
				"z": 3.0855178692,
				"element": "H" 
			},
			{
				"x": -2.333002055,
				"y": -1.7804192314,
				"z": 1.4112877701,
				"element": "H" 
			},
			{
				"x": -3.2196365283,
				"y": -3.1933829564,
				"z": 1.9545844545,
				"element": "H" 
			},
			{
				"x": -2.6455076095,
				"y": -2.7183335849,
				"z": 4.3177367611,
				"element": "H" 
			},
			{
				"x": -3.6147164754,
				"y": -1.4590826949,
				"z": 3.5759844066,
				"element": "H" 
			},
			{
				"x": -1.826676157,
				"y": -0.5580506113,
				"z": 5.0455145333,
				"element": "H" 
			},
			{
				"x": -1.6977645829,
				"y": 0.0448373992,
				"z": 3.3972704015,
				"element": "H" 
			},
			{
				"x": 0.0264186988,
				"y": -2.2486787257,
				"z": 4.4796236855,
				"element": "H" 
			},
			{
				"x": 0.492431279,
				"y": -0.553478385,
				"z": 4.4712028669,
				"element": "H" 
			},
			{
				"x": -1.3109296836,
				"y": 1.3645802308,
				"z": -5.961211532,
				"element": "H" 
			},
			{
				"x": -3.7895310007,
				"y": 1.3992197012,
				"z": -6.048637127,
				"element": "H" 
			},
			{
				"x": -5.1255611885,
				"y": 0.3465049983,
				"z": -4.2289032265,
				"element": "H" 
			}
		],
		 "valence_orbital": [ 
			{
				"type": "occ",
				"energy": -0.27974,
				"method": "rhf"
			},
			{
				"type": "occ",
				"energy": -0.26333,
				"method": "rhf"
			},
			{
				"type": "occ",
				"energy": -0.26096,
				"method": "rhf"
			},
			{
				"type": "occ",
				"energy": -0.24373,
				"method": "rhf"
			},
			{
				"type": "occ",
				"energy": -0.23926,
				"method": "rhf"
			},
			{
				"type": "unocc",
				"energy": -0.06026,
				"method": "rhf"
			},
			{
				"type": "unocc",
				"energy": -0.04051,
				"method": "rhf"
			},
			{
				"type": "unocc",
				"energy": -0.02838,
				"method": "rhf"
			},
			{
				"type": "unocc",
				"energy": -0.02226,
				"method": "rhf"
			},
			{
				"type": "unocc",
				"energy": -0.0058,
				"method": "rhf"
			}
		],
		"cosmo_sigma_profile": { 
			"-0.025": 0.0,
			"-0.024": 0.0,
			"-0.023": 0.0,
			"-0.022": 0.0,
			"-0.021": 0.0,
			"-0.02": 0.0,
			"-0.019": 0.0,
			"-0.018": 0.0,
			"-0.017": 0.0,
			"-0.016": 0.0,
			"-0.015": 0.585555269744,
			"-0.014": 0.767744710217,
			"-0.013": 1.05002210742,
			"-0.012": 1.33731282645,
			"-0.011": 1.2796832642,
			"-0.01": 0.984672871777,
			"-0.009": 1.0130768218,
			"-0.008": 2.59314838866,
			"-0.007": 13.702115141,
			"-0.006": 14.9896305664,
			"-0.005": 18.4724985813,
			"-0.004": 27.5058903706,
			"-0.003": 40.0602906272,
			"-0.002": 45.2487727223,
			"-0.001": 42.5434555944,
			"0.0": 40.46323633,
			"0.001": 37.5780935856,
			"0.002": 32.4484688886,
			"0.003": 23.2207182534,
			"0.004": 17.1565340719,
			"0.005": 8.32374151449,
			"0.006": 4.39382921595,
			"0.007": 4.16151003347,
			"0.008": 5.01377383652,
			"0.009": 4.34318140972,
			"0.01": 8.34797518611,
			"0.011": 9.61452926503,
			"0.012": 7.8205043555,
			"0.013": 3.190589674,
			"0.014": 0.106344609298,
			"0.015": 0.0,
			"0.016": 0.0,
			"0.017": 0.0,
			"0.018": 0.0,
			"0.019": 0.0,
			"0.02": 0.0,
			"0.021": 0.0,
			"0.022": 0.0,
			"0.023": 0.0,
			"0.024": 0.0,
			"0.025": 0.0
		}
	}
}
