{
	 "smiles": "CC(=O)NC1=CC=C(C=C1Cl)C(F)(F)F", 
	 "Tm": 409.15, 
	 "num_atms": 22, 
	 "gaussian": { 
		 "optdone": 1, 
		 "sigma_profile": "yes", 
		 "theory": "DFT", 
		 "functional": "B3LYP", 
		 "basiset": "6-31G**", 
		 "properties": { 
			 "R2extent": 4641.4745, 
			 "electric_dipole_moment_norm": 1.84411822831, 
			 "electric_quadrupole_moment_norm": 22.2640290159, 
			 "total_energy": -1236.88798549, 
			 "HOMO_LUMO_gap": 0.19813, 
			 "cosmo_polarized_energy": -10.61, 
			 "cosmo_cavitation_energy": 29.73, 
			 "cosmo_dispersion_energy": -21.15, 
			 "cosmo_repulsion_energy": 1.6, 
			 "cosmo_total_nonelectrostatic_energy": 10.18, 
			 "SMD_solvation_energy": 6.83 
		},
		"coords": [
			{
				"x": -2.2711150106,
				"y": -1.9444713813,
				"z": 2.4247521879,
				"element": "C" 
			},
			{
				"x": -1.3282107054,
				"y": -1.1914884608,
				"z": 3.3412479643,
				"element": "C" 
			},
			{
				"x": -1.5136670139,
				"y": -1.1214366892,
				"z": 4.5443488263,
				"element": "O" 
			},
			{
				"x": -0.2256899389,
				"y": -0.5302153536,
				"z": 2.7990052151,
				"element": "N" 
			},
			{
				"x": 0.2555027463,
				"y": -0.4114777105,
				"z": 1.4932275222,
				"element": "C" 
			},
			{
				"x": 0.1775836023,
				"y": -1.4494152699,
				"z": 0.54766285,
				"element": "C" 
			},
			{
				"x": 0.6763321225,
				"y": -1.2919746836,
				"z": -0.7400175413,
				"element": "C" 
			},
			{
				"x": 1.2995778561,
				"y": -0.1001785255,
				"z": -1.1136083888,
				"element": "C" 
			},
			{
				"x": 1.4238218456,
				"y": 0.9338634165,
				"z": -0.1853014084,
				"element": "C" 
			},
			{
				"x": 0.905442511,
				"y": 0.7774813536,
				"z": 1.0941252855,
				"element": "C" 
			},
			{
				"x": 1.0702081134,
				"y": 2.1042531972,
				"z": 2.2338104683,
				"element": "Cl" 
			},
			{
				"x": 1.8983549201,
				"y": 0.0441231681,
				"z": -2.4854887053,
				"element": "C" 
			},
			{
				"x": 1.9633450301,
				"y": 1.336719054,
				"z": -2.8715524254,
				"element": "F" 
			},
			{
				"x": 3.1583474248,
				"y": -0.4462832889,
				"z": -2.5354822377,
				"element": "F" 
			},
			{
				"x": 1.1805809772,
				"y": -0.6269644438,
				"z": -3.4130533873,
				"element": "F" 
			},
			{
				"x": -2.3926930558,
				"y": -1.467891278,
				"z": 1.4495076209,
				"element": "H" 
			},
			{
				"x": -1.914727097,
				"y": -2.9680377206,
				"z": 2.2665224843,
				"element": "H" 
			},
			{
				"x": -3.2328644216,
				"y": -2.0024681926,
				"z": 2.9351385254,
				"element": "H" 
			},
			{
				"x": 0.2138767829,
				"y": 0.0660806405,
				"z": 3.4913343021,
				"element": "H" 
			},
			{
				"x": -0.2581503171,
				"y": -2.3972271038,
				"z": 0.834507362,
				"element": "H" 
			},
			{
				"x": 0.5918776609,
				"y": -2.1052451696,
				"z": -1.4522910664,
				"element": "H" 
			},
			{
				"x": 1.9057659673,
				"y": 1.8647544421,
				"z": -0.4585954536,
				"element": "H" 
			}
		],
		 "valence_orbital": [ 
			{
				"type": "occ",
				"energy": -0.3384,
				"method": "rhf"
			},
			{
				"type": "occ",
				"energy": -0.32468,
				"method": "rhf"
			},
			{
				"type": "occ",
				"energy": -0.27696,
				"method": "rhf"
			},
			{
				"type": "occ",
				"energy": -0.26931,
				"method": "rhf"
			},
			{
				"type": "occ",
				"energy": -0.24643,
				"method": "rhf"
			},
			{
				"type": "unocc",
				"energy": -0.0483,
				"method": "rhf"
			},
			{
				"type": "unocc",
				"energy": -0.03855,
				"method": "rhf"
			},
			{
				"type": "unocc",
				"energy": 0.00834,
				"method": "rhf"
			},
			{
				"type": "unocc",
				"energy": 0.0138,
				"method": "rhf"
			},
			{
				"type": "unocc",
				"energy": 0.08156,
				"method": "rhf"
			}
		],
		"cosmo_sigma_profile": { 
			"-0.025": 0.0,
			"-0.024": 0.0,
			"-0.023": 0.0,
			"-0.022": 0.0,
			"-0.021": 0.0,
			"-0.02": 0.0,
			"-0.019": 0.0,
			"-0.018": 0.0,
			"-0.017": 0.0,
			"-0.016": 0.0,
			"-0.015": 0.0,
			"-0.014": 0.0,
			"-0.013": 0.0,
			"-0.012": 0.236239333157,
			"-0.011": 0.778538152956,
			"-0.01": 1.06255776766,
			"-0.009": 3.65666873061,
			"-0.008": 5.6592827287,
			"-0.007": 7.51388998419,
			"-0.006": 9.80026509718,
			"-0.005": 12.3979266973,
			"-0.004": 12.678618111,
			"-0.003": 13.5629854528,
			"-0.002": 17.5898003963,
			"-0.001": 19.2895134345,
			"0.0": 21.5532438775,
			"0.001": 27.6241476186,
			"0.002": 27.8977434928,
			"0.003": 32.9446563712,
			"0.004": 6.59509070794,
			"0.005": 1.06392926817,
			"0.006": 1.34200722681,
			"0.007": 1.2342073262,
			"0.008": 1.61925256506,
			"0.009": 1.30001714731,
			"0.01": 0.95610179123,
			"0.011": 2.02627840951,
			"0.012": 4.34378466642,
			"0.013": 4.71910006273,
			"0.014": 1.00782534897,
			"0.015": 0.0,
			"0.016": 0.0,
			"0.017": 0.0,
			"0.018": 0.0,
			"0.019": 0.0,
			"0.02": 0.0,
			"0.021": 0.0,
			"0.022": 0.0,
			"0.023": 0.0,
			"0.024": 0.0,
			"0.025": 0.0
		}
	}
}
