{
	 "smiles": "COC(=O)C1=C(O)C=CC2=C1C=CC=C2", 
	 "Tm": 353.15, 
	 "num_atms": 25, 
	 "gaussian": { 
		 "optdone": 1, 
		 "sigma_profile": "yes", 
		 "theory": "DFT", 
		 "functional": "B3LYP", 
		 "basiset": "6-31G**", 
		 "properties": { 
			 "R2extent": 3407.6127, 
			 "electric_dipole_moment_norm": 3.02665009705, 
			 "electric_quadrupole_moment_norm": 11.6606378698, 
			 "total_energy": -688.983274123, 
			 "HOMO_LUMO_gap": 0.16229, 
			 "cosmo_polarized_energy": -14.67, 
			 "cosmo_cavitation_energy": 29.07, 
			 "cosmo_dispersion_energy": -21.43, 
			 "cosmo_repulsion_energy": 1.66, 
			 "cosmo_total_nonelectrostatic_energy": 9.3, 
			 "SMD_solvation_energy": 6.51 
		},
		"coords": [
			{
				"x": -2.1931621779,
				"y": 1.1555545078,
				"z": -2.2224426864,
				"element": "C" 
			},
			{
				"x": -1.4422435963,
				"y": 0.3113343939,
				"z": -1.3375053542,
				"element": "O" 
			},
			{
				"x": -0.4617222972,
				"y": 0.9306034282,
				"z": -0.6483450427,
				"element": "C" 
			},
			{
				"x": -0.2670790114,
				"y": 2.1300122808,
				"z": -0.7174542189,
				"element": "O" 
			},
			{
				"x": 0.3076369009,
				"y": -0.0156370669,
				"z": 0.2175465396,
				"element": "C" 
			},
			{
				"x": 0.7424302458,
				"y": -1.2409695477,
				"z": -0.2805881049,
				"element": "C" 
			},
			{
				"x": 0.4874192527,
				"y": -1.5677328087,
				"z": -1.5782291016,
				"element": "O" 
			},
			{
				"x": 1.4820328177,
				"y": -2.1339184584,
				"z": 0.5361589073,
				"element": "C" 
			},
			{
				"x": 1.7774520151,
				"y": -1.8075157551,
				"z": 1.8343735046,
				"element": "C" 
			},
			{
				"x": 1.3663746281,
				"y": -0.5679773496,
				"z": 2.3883474013,
				"element": "C" 
			},
			{
				"x": 0.6333732233,
				"y": 0.3535234609,
				"z": 1.5684143229,
				"element": "C" 
			},
			{
				"x": 0.2409229925,
				"y": 1.5906601216,
				"z": 2.1545631136,
				"element": "C" 
			},
			{
				"x": 0.5536144138,
				"y": 1.8856994585,
				"z": 3.4636740275,
				"element": "C" 
			},
			{
				"x": 1.2750399831,
				"y": 0.9727205759,
				"z": 4.267407844,
				"element": "C" 
			},
			{
				"x": 1.6723892171,
				"y": -0.2305543233,
				"z": 3.7333601749,
				"element": "C" 
			},
			{
				"x": -2.7023815496,
				"y": 1.9458096201,
				"z": -1.6645853362,
				"element": "H" 
			},
			{
				"x": -1.5377198436,
				"y": 1.6176184852,
				"z": -2.9651284067,
				"element": "H" 
			},
			{
				"x": -2.9177343147,
				"y": 0.5005090083,
				"z": -2.70625439,
				"element": "H" 
			},
			{
				"x": 0.8865599338,
				"y": -2.4266296897,
				"z": -1.7670842613,
				"element": "H" 
			},
			{
				"x": 1.812433847,
				"y": -3.0822866016,
				"z": 0.1170577037,
				"element": "H" 
			},
			{
				"x": 2.3400175953,
				"y": -2.5002767299,
				"z": 2.4545695978,
				"element": "H" 
			},
			{
				"x": -0.2924360488,
				"y": 2.3125763442,
				"z": 1.5504962506,
				"element": "H" 
			},
			{
				"x": 0.243017629,
				"y": 2.8386114947,
				"z": 3.882924088,
				"element": "H" 
			},
			{
				"x": 1.5129182569,
				"y": 1.2238719719,
				"z": 5.2967355517,
				"element": "H" 
			},
			{
				"x": 2.2282458872,
				"y": -0.9467068211,
				"z": 4.3333878755,
				"element": "H" 
			}
		],
		 "valence_orbital": [ 
			{
				"type": "occ",
				"energy": -0.29102,
				"method": "rhf"
			},
			{
				"type": "occ",
				"energy": -0.28478,
				"method": "rhf"
			},
			{
				"type": "occ",
				"energy": -0.26081,
				"method": "rhf"
			},
			{
				"type": "occ",
				"energy": -0.23607,
				"method": "rhf"
			},
			{
				"type": "occ",
				"energy": -0.21052,
				"method": "rhf"
			},
			{
				"type": "unocc",
				"energy": -0.04823,
				"method": "rhf"
			},
			{
				"type": "unocc",
				"energy": -0.00479,
				"method": "rhf"
			},
			{
				"type": "unocc",
				"energy": 0.00446,
				"method": "rhf"
			},
			{
				"type": "unocc",
				"energy": 0.05256,
				"method": "rhf"
			},
			{
				"type": "unocc",
				"energy": 0.06338,
				"method": "rhf"
			}
		],
		"cosmo_sigma_profile": { 
			"-0.025": 0.0,
			"-0.024": 0.0,
			"-0.023": 0.0,
			"-0.022": 0.0,
			"-0.021": 0.0,
			"-0.02": 0.0,
			"-0.019": 0.156256177766,
			"-0.018": 1.21377522106,
			"-0.017": 0.912425108238,
			"-0.016": 1.05508165944,
			"-0.015": 1.48874676229,
			"-0.014": 1.06759288242,
			"-0.013": 0.36555236181,
			"-0.012": 0.669708463758,
			"-0.011": 1.55901065548,
			"-0.01": 0.973999505657,
			"-0.009": 1.4798604298,
			"-0.008": 1.2237956654,
			"-0.007": 4.23275167669,
			"-0.006": 13.8522962419,
			"-0.005": 17.4431381385,
			"-0.004": 16.8590884344,
			"-0.003": 19.9597942275,
			"-0.002": 13.2008411741,
			"-0.001": 10.4573387536,
			"0.0": 12.2230396978,
			"0.001": 13.7194382672,
			"0.002": 15.3908046539,
			"0.003": 22.3429864955,
			"0.004": 17.2379357543,
			"0.005": 13.4095110754,
			"0.006": 5.00623801056,
			"0.007": 3.51165510046,
			"0.008": 4.0147385948,
			"0.009": 3.57010219956,
			"0.01": 3.84051488525,
			"0.011": 4.06819588498,
			"0.012": 4.90267751436,
			"0.013": 1.07288249919,
			"0.014": 0.0,
			"0.015": 0.0,
			"0.016": 0.0,
			"0.017": 0.0,
			"0.018": 0.0,
			"0.019": 0.0,
			"0.02": 0.0,
			"0.021": 0.0,
			"0.022": 0.0,
			"0.023": 0.0,
			"0.024": 0.0,
			"0.025": 0.0
		}
	}
}
