{
	 "smiles": "[O-][N+](=O)C1=CC=C(C=C1)C1=C(C(=NO1)C(=O)C1=CC=C(Br)C=C1)S(=O)(=O)C1=CC=CC=C1", 
	 "Tm": 474.15, 
	 "num_atms": 45, 
	 "gaussian": { 
		 "optdone": 1, 
		 "sigma_profile": "yes", 
		 "theory": "DFT", 
		 "functional": "B3LYP", 
		 "basiset": "6-31G**", 
		 "properties": { 
			 "R2extent": 24861.9205, 
			 "electric_dipole_moment_norm": 3.18244677096, 
			 "electric_quadrupole_moment_norm": 30.1958061876, 
			 "total_energy": -4376.38203896, 
			 "HOMO_LUMO_gap": 0.14979, 
			 "cosmo_polarized_energy": -19.71, 
			 "cosmo_cavitation_energy": 55.73, 
			 "cosmo_dispersion_energy": -38.65, 
			 "cosmo_repulsion_energy": 2.84, 
			 "cosmo_total_nonelectrostatic_energy": 19.93, 
			 "SMD_solvation_energy": 9.96 
		},
		"coords": [
			{
				"x": 2.8641843109,
				"y": -1.4987396468,
				"z": -7.0615769074,
				"element": "O" 
			},
			{
				"x": 1.9640872498,
				"y": -2.0593277039,
				"z": -6.4385699151,
				"element": "N" 
			},
			{
				"x": 1.4648936355,
				"y": -3.1415437897,
				"z": -6.7409514421,
				"element": "O" 
			},
			{
				"x": 1.4452674393,
				"y": -1.3821453012,
				"z": -5.2360667535,
				"element": "C" 
			},
			{
				"x": 1.9961530259,
				"y": -0.1578271756,
				"z": -4.8625107485,
				"element": "C" 
			},
			{
				"x": 1.5059218543,
				"y": 0.4741139207,
				"z": -3.7272029072,
				"element": "C" 
			},
			{
				"x": 0.4760473502,
				"y": -0.1170568718,
				"z": -2.967568093,
				"element": "C" 
			},
			{
				"x": -0.0680714342,
				"y": -1.3479260756,
				"z": -3.3736461257,
				"element": "C" 
			},
			{
				"x": 0.4200900886,
				"y": -1.9836137038,
				"z": -4.5116278197,
				"element": "C" 
			},
			{
				"x": -0.0113514913,
				"y": 0.6063513784,
				"z": -1.78506619,
				"element": "C" 
			},
			{
				"x": -0.5296359576,
				"y": 0.2989750589,
				"z": -0.5416225804,
				"element": "C" 
			},
			{
				"x": -0.7003202439,
				"y": 1.5720367594,
				"z": 0.0939631017,
				"element": "C" 
			},
			{
				"x": -0.338888147,
				"y": 2.5552417616,
				"z": -0.6947973641,
				"element": "N" 
			},
			{
				"x": 0.100225773,
				"y": 1.9508318322,
				"z": -1.8716379549,
				"element": "O" 
			},
			{
				"x": -1.0780121459,
				"y": 1.8970143987,
				"z": 1.5286806539,
				"element": "C" 
			},
			{
				"x": -0.3126008045,
				"y": 1.5416351334,
				"z": 2.4114305355,
				"element": "O" 
			},
			{
				"x": -2.3144174104,
				"y": 2.6653989735,
				"z": 1.796336143,
				"element": "C" 
			},
			{
				"x": -2.6265268623,
				"y": 2.9618205139,
				"z": 3.1344843422,
				"element": "C" 
			},
			{
				"x": -3.7764042572,
				"y": 3.6720146462,
				"z": 3.4518608252,
				"element": "C" 
			},
			{
				"x": -4.6224368781,
				"y": 4.0889143375,
				"z": 2.4195960636,
				"element": "C" 
			},
			{
				"x": -6.2017507317,
				"y": 5.0640644982,
				"z": 2.8466450483,
				"element": "Br" 
			},
			{
				"x": -4.3347859153,
				"y": 3.8055501773,
				"z": 1.0845383564,
				"element": "C" 
			},
			{
				"x": -3.1792437972,
				"y": 3.0916797002,
				"z": 0.7767996082,
				"element": "C" 
			},
			{
				"x": -0.9659117046,
				"y": -1.262447044,
				"z": 0.2204243048,
				"element": "S" 
			},
			{
				"x": -1.4939210799,
				"y": -2.1576414841,
				"z": -0.8221446613,
				"element": "O" 
			},
			{
				"x": -1.7963729451,
				"y": -0.9006861205,
				"z": 1.3742580719,
				"element": "O" 
			},
			{
				"x": 0.5944543802,
				"y": -1.9428039293,
				"z": 0.7891248789,
				"element": "C" 
			},
			{
				"x": 1.2642137536,
				"y": -1.3246915325,
				"z": 1.8498630266,
				"element": "C" 
			},
			{
				"x": 2.463641232,
				"y": -1.8816668596,
				"z": 2.2914386951,
				"element": "C" 
			},
			{
				"x": 2.9711609314,
				"y": -3.0355448242,
				"z": 1.6868919,
				"element": "C" 
			},
			{
				"x": 2.2843823038,
				"y": -3.6423411849,
				"z": 0.6334868291,
				"element": "C" 
			},
			{
				"x": 1.0853017291,
				"y": -3.0959364172,
				"z": 0.1738818958,
				"element": "C" 
			},
			{
				"x": 2.7914844546,
				"y": 0.274717247,
				"z": -5.4560413925,
				"element": "H" 
			},
			{
				"x": 1.9222668449,
				"y": 1.4259241937,
				"z": -3.4187877539,
				"element": "H" 
			},
			{
				"x": -0.8714265053,
				"y": -1.7969208577,
				"z": -2.8040100347,
				"element": "H" 
			},
			{
				"x": 0.0137013381,
				"y": -2.9295421683,
				"z": -4.84673614,
				"element": "H" 
			},
			{
				"x": -1.9518949606,
				"y": 2.621720877,
				"z": 3.912613439,
				"element": "H" 
			},
			{
				"x": -4.021306831,
				"y": 3.9014865413,
				"z": 4.4823699103,
				"element": "H" 
			},
			{
				"x": -5.0043407312,
				"y": 4.1379683588,
				"z": 0.3000677081,
				"element": "H" 
			},
			{
				"x": -2.950135731,
				"y": 2.8768114208,
				"z": -0.2605451495,
				"element": "H" 
			},
			{
				"x": 0.8603968992,
				"y": -0.427078122,
				"z": 2.3080270963,
				"element": "H" 
			},
			{
				"x": 3.0000520647,
				"y": -1.4154418883,
				"z": 3.1120983734,
				"element": "H" 
			},
			{
				"x": 3.904507227,
				"y": -3.4639504246,
				"z": 2.0402439257,
				"element": "H" 
			},
			{
				"x": 2.6781445519,
				"y": -4.5416570263,
				"z": 0.1700407091,
				"element": "H" 
			},
			{
				"x": 0.5277781273,
				"y": -3.5544415769,
				"z": -0.6347555086,
				"element": "H" 
			}
		],
		 "valence_orbital": [ 
			{
				"type": "occ",
				"energy": -0.28472,
				"method": "rhf"
			},
			{
				"type": "occ",
				"energy": -0.28196,
				"method": "rhf"
			},
			{
				"type": "occ",
				"energy": -0.27809,
				"method": "rhf"
			},
			{
				"type": "occ",
				"energy": -0.27194,
				"method": "rhf"
			},
			{
				"type": "occ",
				"energy": -0.26129,
				"method": "rhf"
			},
			{
				"type": "unocc",
				"energy": -0.1115,
				"method": "rhf"
			},
			{
				"type": "unocc",
				"energy": -0.08825,
				"method": "rhf"
			},
			{
				"type": "unocc",
				"energy": -0.06209,
				"method": "rhf"
			},
			{
				"type": "unocc",
				"energy": -0.04952,
				"method": "rhf"
			},
			{
				"type": "unocc",
				"energy": -0.04232,
				"method": "rhf"
			}
		],
		"cosmo_sigma_profile": { 
			"-0.025": 0.0,
			"-0.024": 0.0,
			"-0.023": 0.0,
			"-0.022": 0.0,
			"-0.021": 0.0,
			"-0.02": 0.0,
			"-0.019": 0.0,
			"-0.018": 0.0,
			"-0.017": 0.0,
			"-0.016": 0.0,
			"-0.015": 0.0,
			"-0.014": 0.0,
			"-0.013": 0.0,
			"-0.012": 0.0,
			"-0.011": 0.0,
			"-0.01": 0.0,
			"-0.009": 0.631206197627,
			"-0.008": 9.80518152716,
			"-0.007": 22.9372126076,
			"-0.006": 23.4589119258,
			"-0.005": 29.0667877316,
			"-0.004": 27.1544401344,
			"-0.003": 28.7295668808,
			"-0.002": 33.9980675842,
			"-0.001": 38.0535364026,
			"0.0": 45.7610785664,
			"0.001": 41.9811790288,
			"0.002": 32.5552223362,
			"0.003": 28.3502217493,
			"0.004": 18.089287593,
			"0.005": 10.6389411394,
			"0.006": 10.1823653891,
			"0.007": 16.1787479199,
			"0.008": 13.7586637235,
			"0.009": 10.0545345189,
			"0.01": 8.35467277364,
			"0.011": 5.32812412031,
			"0.012": 0.0852885107483,
			"0.013": 0.0,
			"0.014": 0.0,
			"0.015": 0.0,
			"0.016": 0.0,
			"0.017": 0.0,
			"0.018": 0.0,
			"0.019": 0.0,
			"0.02": 0.0,
			"0.021": 0.0,
			"0.022": 0.0,
			"0.023": 0.0,
			"0.024": 0.0,
			"0.025": 0.0
		}
	}
}
