{
	 "smiles": "CC1=NC=CN1C1=C(N)C=CC=C1", 
	 "Tm": 407.15, 
	 "num_atms": 24, 
	 "gaussian": { 
		 "optdone": 1, 
		 "sigma_profile": "yes", 
		 "theory": "DFT", 
		 "functional": "B3LYP", 
		 "basiset": "6-31G**", 
		 "properties": { 
			 "R2extent": 2340.8973, 
			 "electric_dipole_moment_norm": 3.90118257584, 
			 "electric_quadrupole_moment_norm": 8.56427115521, 
			 "total_energy": -551.951948753, 
			 "HOMO_LUMO_gap": 0.19959, 
			 "cosmo_polarized_energy": -12.43, 
			 "cosmo_cavitation_energy": 27.44, 
			 "cosmo_dispersion_energy": -19.53, 
			 "cosmo_repulsion_energy": 1.55, 
			 "cosmo_total_nonelectrostatic_energy": 9.46, 
			 "SMD_solvation_energy": 3.91 
		},
		"coords": [
			{
				"x": -0.1617167699,
				"y": -2.2490299645,
				"z": 0.0849537353,
				"element": "C" 
			},
			{
				"x": -0.9798703986,
				"y": -1.3471684446,
				"z": 0.9508967268,
				"element": "C" 
			},
			{
				"x": -1.7972297035,
				"y": -1.7343908076,
				"z": 1.9100417046,
				"element": "N" 
			},
			{
				"x": -2.3459662614,
				"y": -0.5816179993,
				"z": 2.42897873,
				"element": "C" 
			},
			{
				"x": -1.8585271687,
				"y": 0.5211478791,
				"z": 1.780787527,
				"element": "C" 
			},
			{
				"x": -0.9708050951,
				"y": 0.0314742733,
				"z": 0.8284611445,
				"element": "N" 
			},
			{
				"x": -0.2334924216,
				"y": 0.8174299852,
				"z": -0.1127838676,
				"element": "C" 
			},
			{
				"x": 1.1509897178,
				"y": 1.0152598397,
				"z": 0.0844944414,
				"element": "C" 
			},
			{
				"x": 1.8123989751,
				"y": 0.4041185753,
				"z": 1.1435661264,
				"element": "N" 
			},
			{
				"x": 1.8446773009,
				"y": 1.8030136181,
				"z": -0.8511788107,
				"element": "C" 
			},
			{
				"x": 1.183010636,
				"y": 2.3777586143,
				"z": -1.9319198106,
				"element": "C" 
			},
			{
				"x": -0.1889015865,
				"y": 2.184602225,
				"z": -2.1148334706,
				"element": "C" 
			},
			{
				"x": -0.8879161046,
				"y": 1.3996889784,
				"z": -1.1998865841,
				"element": "C" 
			},
			{
				"x": -0.3851208493,
				"y": -3.2804424102,
				"z": 0.3608926387,
				"element": "H" 
			},
			{
				"x": 0.9113567168,
				"y": -2.0697560959,
				"z": 0.2149889155,
				"element": "H" 
			},
			{
				"x": -0.3926989942,
				"y": -2.1105219318,
				"z": -0.9771415419,
				"element": "H" 
			},
			{
				"x": -3.0612031448,
				"y": -0.6133177155,
				"z": 3.2396382386,
				"element": "H" 
			},
			{
				"x": -2.0350712342,
				"y": 1.5802584462,
				"z": 1.8887931743,
				"element": "H" 
			},
			{
				"x": 2.68352945,
				"y": 0.8356916136,
				"z": 1.4177002554,
				"element": "H" 
			},
			{
				"x": 1.2295376013,
				"y": 0.1555026415,
				"z": 1.9317029611,
				"element": "H" 
			},
			{
				"x": 2.91189073,
				"y": 1.9613650882,
				"z": -0.717830059,
				"element": "H" 
			},
			{
				"x": 1.7453359789,
				"y": 2.984704061,
				"z": -2.6358089579,
				"element": "H" 
			},
			{
				"x": -0.7043697907,
				"y": 2.633722231,
				"z": -2.957235151,
				"element": "H" 
			},
			{
				"x": -1.9535375836,
				"y": 1.2243072995,
				"z": -1.3131780662,
				"element": "H" 
			}
		],
		 "valence_orbital": [ 
			{
				"type": "occ",
				"energy": -0.27396,
				"method": "rhf"
			},
			{
				"type": "occ",
				"energy": -0.26054,
				"method": "rhf"
			},
			{
				"type": "occ",
				"energy": -0.24725,
				"method": "rhf"
			},
			{
				"type": "occ",
				"energy": -0.21509,
				"method": "rhf"
			},
			{
				"type": "occ",
				"energy": -0.21216,
				"method": "rhf"
			},
			{
				"type": "unocc",
				"energy": -0.01257,
				"method": "rhf"
			},
			{
				"type": "unocc",
				"energy": 0.00441,
				"method": "rhf"
			},
			{
				"type": "unocc",
				"energy": 0.03539,
				"method": "rhf"
			},
			{
				"type": "unocc",
				"energy": 0.07667,
				"method": "rhf"
			},
			{
				"type": "unocc",
				"energy": 0.08077,
				"method": "rhf"
			}
		],
		"cosmo_sigma_profile": { 
			"-0.025": 0.0,
			"-0.024": 0.0,
			"-0.023": 0.0,
			"-0.022": 0.0,
			"-0.021": 0.0,
			"-0.02": 0.0,
			"-0.019": 0.0,
			"-0.018": 0.0,
			"-0.017": 0.0,
			"-0.016": 0.0,
			"-0.015": 0.0,
			"-0.014": 0.0,
			"-0.013": 0.953799731269,
			"-0.012": 1.33627582946,
			"-0.011": 2.35052297048,
			"-0.01": 2.54953761798,
			"-0.009": 2.99356308432,
			"-0.008": 3.31341771508,
			"-0.007": 5.08602513299,
			"-0.006": 8.36828057509,
			"-0.005": 15.7896852241,
			"-0.004": 15.3187966709,
			"-0.003": 17.2892421094,
			"-0.002": 17.3425320698,
			"-0.001": 19.8203031111,
			"0.0": 15.9932540195,
			"0.001": 13.0424306131,
			"0.002": 9.38675581646,
			"0.003": 11.7672075243,
			"0.004": 12.2698953618,
			"0.005": 12.7850769812,
			"0.006": 11.4945371553,
			"0.007": 3.59725049197,
			"0.008": 2.50361542298,
			"0.009": 1.67749516776,
			"0.01": 2.03490618094,
			"0.011": 1.49714227887,
			"0.012": 1.43591455617,
			"0.013": 1.16559547569,
			"0.014": 1.30837009318,
			"0.015": 0.944240795967,
			"0.016": 0.997238257993,
			"0.017": 1.14972268355,
			"0.018": 0.783228891391,
			"0.019": 0.189615903878,
			"0.02": 0.0,
			"0.021": 0.0,
			"0.022": 0.0,
			"0.023": 0.0,
			"0.024": 0.0,
			"0.025": 0.0
		}
	}
}
