{
	 "smiles": "NC1=CC=C(Cl)C(Cl)=C1", 
	 "Tm": 345.15, 
	 "num_atms": 14, 
	 "gaussian": { 
		 "optdone": 1, 
		 "sigma_profile": "yes", 
		 "theory": "DFT", 
		 "functional": "B3LYP", 
		 "basiset": "6-31G**", 
		 "properties": { 
			 "R2extent": 2518.4036, 
			 "electric_dipole_moment_norm": 4.44093979468, 
			 "electric_quadrupole_moment_norm": 8.03027765585, 
			 "total_energy": -1206.7880768, 
			 "HOMO_LUMO_gap": 0.1953, 
			 "cosmo_polarized_energy": -9.56, 
			 "cosmo_cavitation_energy": 21.59, 
			 "cosmo_dispersion_energy": -16.5, 
			 "cosmo_repulsion_energy": 1.36, 
			 "cosmo_total_nonelectrostatic_energy": 6.45, 
			 "SMD_solvation_energy": 3.17 
		},
		"coords": [
			{
				"x": -2.4503350145,
				"y": -0.7075333625,
				"z": -1.8808528325,
				"element": "N" 
			},
			{
				"x": -1.8101625105,
				"y": -0.9016188016,
				"z": -0.6604612276,
				"element": "C" 
			},
			{
				"x": -1.6658482133,
				"y": -2.1903032634,
				"z": -0.1167600546,
				"element": "C" 
			},
			{
				"x": -1.0759464698,
				"y": -2.3687255438,
				"z": 1.1279702552,
				"element": "C" 
			},
			{
				"x": -0.6127104202,
				"y": -1.2785451065,
				"z": 1.8687474554,
				"element": "C" 
			},
			{
				"x": 0.1258257644,
				"y": -1.5575497346,
				"z": 3.429758203,
				"element": "Cl" 
			},
			{
				"x": -0.7543976116,
				"y": 0.0068209368,
				"z": 1.3322290473,
				"element": "C" 
			},
			{
				"x": -0.1948600939,
				"y": 1.4198209947,
				"z": 2.1994691819,
				"element": "Cl" 
			},
			{
				"x": -1.3447212568,
				"y": 0.1936977371,
				"z": 0.0836243323,
				"element": "C" 
			},
			{
				"x": -2.2348724752,
				"y": 0.1563659162,
				"z": -2.3581180043,
				"element": "H" 
			},
			{
				"x": -2.4495559361,
				"y": -1.5015092123,
				"z": -2.5054113037,
				"element": "H" 
			},
			{
				"x": -2.0223767289,
				"y": -3.0539188928,
				"z": -0.6710627464,
				"element": "H" 
			},
			{
				"x": -0.9666120097,
				"y": -3.3661289813,
				"z": 1.5397183109,
				"element": "H" 
			},
			{
				"x": -1.4447270238,
				"y": 1.2018273139,
				"z": -0.3048506168,
				"element": "H" 
			}
		],
		 "valence_orbital": [ 
			{
				"type": "occ",
				"energy": -0.32102,
				"method": "rhf"
			},
			{
				"type": "occ",
				"energy": -0.30232,
				"method": "rhf"
			},
			{
				"type": "occ",
				"energy": -0.29554,
				"method": "rhf"
			},
			{
				"type": "occ",
				"energy": -0.25418,
				"method": "rhf"
			},
			{
				"type": "occ",
				"energy": -0.21348,
				"method": "rhf"
			},
			{
				"type": "unocc",
				"energy": -0.01818,
				"method": "rhf"
			},
			{
				"type": "unocc",
				"energy": -0.00223,
				"method": "rhf"
			},
			{
				"type": "unocc",
				"energy": 0.0086,
				"method": "rhf"
			},
			{
				"type": "unocc",
				"energy": 0.06192,
				"method": "rhf"
			},
			{
				"type": "unocc",
				"energy": 0.07628,
				"method": "rhf"
			}
		],
		"cosmo_sigma_profile": { 
			"-0.025": 0.0,
			"-0.024": 0.0,
			"-0.023": 0.0,
			"-0.022": 0.0,
			"-0.021": 0.0,
			"-0.02": 0.0,
			"-0.019": 0.0,
			"-0.018": 0.0,
			"-0.017": 0.0,
			"-0.016": 0.0,
			"-0.015": 0.0,
			"-0.014": 0.0245664682384,
			"-0.013": 2.2057455805,
			"-0.012": 2.89467082988,
			"-0.011": 3.20503447181,
			"-0.01": 4.01183019279,
			"-0.009": 3.01083273069,
			"-0.008": 3.79199404635,
			"-0.007": 6.12149210791,
			"-0.006": 5.79302057396,
			"-0.005": 6.23725562192,
			"-0.004": 5.26663614162,
			"-0.003": 4.83863142532,
			"-0.002": 7.80992434351,
			"-0.001": 8.23537522817,
			"0.0": 8.761226775,
			"0.001": 15.2320386076,
			"0.002": 20.2280307374,
			"0.003": 21.8501938236,
			"0.004": 24.9693698025,
			"0.005": 13.4384981941,
			"0.006": 4.11265890234,
			"0.007": 1.11384845104,
			"0.008": 0.381203965675,
			"0.009": 0.704680171294,
			"0.01": 0.800031944365,
			"0.011": 0.544079218716,
			"0.012": 0.81703992449,
			"0.013": 0.491548426571,
			"0.014": 0.122601265812,
			"0.015": 0.0,
			"0.016": 0.0,
			"0.017": 0.0,
			"0.018": 0.0,
			"0.019": 0.0,
			"0.02": 0.0,
			"0.021": 0.0,
			"0.022": 0.0,
			"0.023": 0.0,
			"0.024": 0.0,
			"0.025": 0.0
		}
	}
}
