{
	 "smiles": "OC1=C(C=O)C(Cl)=CC(Cl)=C1", 
	 "Tm": 325.15, 
	 "num_atms": 15, 
	 "gaussian": { 
		 "optdone": 1, 
		 "sigma_profile": "yes", 
		 "theory": "DFT", 
		 "functional": "B3LYP", 
		 "basiset": "6-31G**", 
		 "properties": { 
			 "R2extent": 2758.1454, 
			 "electric_dipole_moment_norm": 2.36097670679, 
			 "electric_quadrupole_moment_norm": 10.5004740098, 
			 "total_energy": -1339.96144179, 
			 "HOMO_LUMO_gap": 0.17274, 
			 "cosmo_polarized_energy": -11.88, 
			 "cosmo_cavitation_energy": 23.36, 
			 "cosmo_dispersion_energy": -17.76, 
			 "cosmo_repulsion_energy": 1.42, 
			 "cosmo_total_nonelectrostatic_energy": 7.01, 
			 "SMD_solvation_energy": 4.83 
		},
		"coords": [
			{
				"x": 2.2332617798,
				"y": -0.9957959486,
				"z": -0.271489684,
				"element": "O" 
			},
			{
				"x": 0.9084297254,
				"y": -0.958646629,
				"z": 0.016208833,
				"element": "C" 
			},
			{
				"x": 0.0922237919,
				"y": 0.198696572,
				"z": -0.1261712108,
				"element": "C" 
			},
			{
				"x": 0.6998414843,
				"y": 1.4568631908,
				"z": -0.5993928697,
				"element": "C" 
			},
			{
				"x": 0.1475348893,
				"y": 2.518392224,
				"z": -0.8010411431,
				"element": "O" 
			},
			{
				"x": -1.2779639304,
				"y": 0.0594924412,
				"z": 0.2132784875,
				"element": "C" 
			},
			{
				"x": -2.3957794048,
				"y": 1.3939049878,
				"z": 0.0865945583,
				"element": "Cl" 
			},
			{
				"x": -1.8098341024,
				"y": -1.139868319,
				"z": 0.6684434447,
				"element": "C" 
			},
			{
				"x": -0.9618465282,
				"y": -2.2435299255,
				"z": 0.7925889019,
				"element": "C" 
			},
			{
				"x": -1.625544098,
				"y": -3.7558909139,
				"z": 1.3650152619,
				"element": "Cl" 
			},
			{
				"x": 0.3844768154,
				"y": -2.1719633274,
				"z": 0.4740021694,
				"element": "C" 
			},
			{
				"x": 2.547966158,
				"y": -0.1448311912,
				"z": -0.6022023272,
				"element": "H" 
			},
			{
				"x": 1.8010009499,
				"y": 1.3977084914,
				"z": -0.7810718666,
				"element": "H" 
			},
			{
				"x": -2.8593806142,
				"y": -1.2135960633,
				"z": 0.9209791329,
				"element": "H" 
			},
			{
				"x": 1.0413130837,
				"y": -3.0275355893,
				"z": 0.5671583117,
				"element": "H" 
			}
		],
		 "valence_orbital": [ 
			{
				"type": "occ",
				"energy": -0.32458,
				"method": "rhf"
			},
			{
				"type": "occ",
				"energy": -0.31825,
				"method": "rhf"
			},
			{
				"type": "occ",
				"energy": -0.27014,
				"method": "rhf"
			},
			{
				"type": "occ",
				"energy": -0.26479,
				"method": "rhf"
			},
			{
				"type": "occ",
				"energy": -0.25597,
				"method": "rhf"
			},
			{
				"type": "unocc",
				"energy": -0.08323,
				"method": "rhf"
			},
			{
				"type": "unocc",
				"energy": -0.0283,
				"method": "rhf"
			},
			{
				"type": "unocc",
				"energy": -0.00443,
				"method": "rhf"
			},
			{
				"type": "unocc",
				"energy": 0.01587,
				"method": "rhf"
			},
			{
				"type": "unocc",
				"energy": 0.03773,
				"method": "rhf"
			}
		],
		"cosmo_sigma_profile": { 
			"-0.025": 0.0,
			"-0.024": 0.0,
			"-0.023": 0.0,
			"-0.022": 0.0,
			"-0.021": 0.0,
			"-0.02": 0.0234534427825,
			"-0.019": 0.692962290428,
			"-0.018": 1.33826243323,
			"-0.017": 1.32428867384,
			"-0.016": 1.24891701276,
			"-0.015": 0.719493524381,
			"-0.014": 1.09234856269,
			"-0.013": 0.947789840578,
			"-0.012": 1.12206699313,
			"-0.011": 1.34653966413,
			"-0.01": 1.334796887,
			"-0.009": 1.94592502767,
			"-0.008": 3.92734556815,
			"-0.007": 4.66086365774,
			"-0.006": 4.13695592295,
			"-0.005": 5.25077125213,
			"-0.004": 6.35814796366,
			"-0.003": 9.19247475511,
			"-0.002": 11.4089187293,
			"-0.001": 19.1841403194,
			"0.0": 26.9217804282,
			"0.001": 16.5092043641,
			"0.002": 12.9787728212,
			"0.003": 18.7748608607,
			"0.004": 12.5994332135,
			"0.005": 3.78576462253,
			"0.006": 2.50745957014,
			"0.007": 3.29796607371,
			"0.008": 4.08316948831,
			"0.009": 4.04018899337,
			"0.01": 3.31044172113,
			"0.011": 4.78232290497,
			"0.012": 1.90656080876,
			"0.013": 0.077580698285,
			"0.014": 0.0,
			"0.015": 0.0,
			"0.016": 0.0,
			"0.017": 0.0,
			"0.018": 0.0,
			"0.019": 0.0,
			"0.02": 0.0,
			"0.021": 0.0,
			"0.022": 0.0,
			"0.023": 0.0,
			"0.024": 0.0,
			"0.025": 0.0
		}
	}
}
