{
	 "smiles": "COC1=C(C=C(C=C1)C(C)=O)C1=CC=CC=C1", 
	 "Tm": 365.15, 
	 "num_atms": 31, 
	 "gaussian": { 
		 "optdone": 1, 
		 "sigma_profile": "yes", 
		 "theory": "DFT", 
		 "functional": "B3LYP", 
		 "basiset": "6-31G**", 
		 "properties": { 
			 "R2extent": 5357.4242, 
			 "electric_dipole_moment_norm": 3.64551144423, 
			 "electric_quadrupole_moment_norm": 11.487483227, 
			 "total_energy": -730.47648591, 
			 "HOMO_LUMO_gap": 0.17757, 
			 "cosmo_polarized_energy": -10.37, 
			 "cosmo_cavitation_energy": 34.75, 
			 "cosmo_dispersion_energy": -24.26, 
			 "cosmo_repulsion_energy": 1.88, 
			 "cosmo_total_nonelectrostatic_energy": 12.37, 
			 "SMD_solvation_energy": 7.17 
		},
		"coords": [
			{
				"x": 2.0020322078,
				"y": -1.5411904426,
				"z": 0.3060430814,
				"element": "C" 
			},
			{
				"x": 2.0416190686,
				"y": -0.2637852128,
				"z": 0.9485246589,
				"element": "O" 
			},
			{
				"x": 0.855807255,
				"y": 0.4359751038,
				"z": 0.9244967694,
				"element": "C" 
			},
			{
				"x": 0.4543664273,
				"y": 1.1648559414,
				"z": -0.2162989205,
				"element": "C" 
			},
			{
				"x": -0.7569137849,
				"y": 1.8690184621,
				"z": -0.1384543605,
				"element": "C" 
			},
			{
				"x": -1.5515712988,
				"y": 1.8657237599,
				"z": 1.0151472251,
				"element": "C" 
			},
			{
				"x": -1.1193587491,
				"y": 1.1380081055,
				"z": 2.1342295421,
				"element": "C" 
			},
			{
				"x": 0.0728151811,
				"y": 0.4290598985,
				"z": 2.0839927042,
				"element": "C" 
			},
			{
				"x": -2.8422044559,
				"y": 2.6193145718,
				"z": 1.1141355486,
				"element": "C" 
			},
			{
				"x": -3.3177092547,
				"y": 3.4265843157,
				"z": -0.0830552626,
				"element": "C" 
			},
			{
				"x": -3.5046272052,
				"y": 2.5863426965,
				"z": 2.1410375734,
				"element": "O" 
			},
			{
				"x": 1.2650985572,
				"y": 1.221319529,
				"z": -1.4636391568,
				"element": "C" 
			},
			{
				"x": 0.6405196932,
				"y": 1.0987498415,
				"z": -2.7167099881,
				"element": "C" 
			},
			{
				"x": 1.376637407,
				"y": 1.1936347989,
				"z": -3.897724704,
				"element": "C" 
			},
			{
				"x": 2.7540025806,
				"y": 1.4126154363,
				"z": -3.8486758897,
				"element": "C" 
			},
			{
				"x": 3.387882755,
				"y": 1.5328884846,
				"z": -2.6098810481,
				"element": "C" 
			},
			{
				"x": 2.6540932992,
				"y": 1.4370633745,
				"z": -1.4284131492,
				"element": "C" 
			},
			{
				"x": 3.0003853523,
				"y": -1.9698279561,
				"z": 0.4113334757,
				"element": "H" 
			},
			{
				"x": 1.2699416318,
				"y": -2.199378962,
				"z": 0.7910604268,
				"element": "H" 
			},
			{
				"x": 1.7576323767,
				"y": -1.448980153,
				"z": -0.7581692499,
				"element": "H" 
			},
			{
				"x": -1.0599259208,
				"y": 2.4516440281,
				"z": -1.0021488611,
				"element": "H" 
			},
			{
				"x": -1.7363418702,
				"y": 1.1463960967,
				"z": 3.0262666139,
				"element": "H" 
			},
			{
				"x": 0.4276654274,
				"y": -0.1408683588,
				"z": 2.9369639478,
				"element": "H" 
			},
			{
				"x": -3.4506980578,
				"y": 2.7873077881,
				"z": -0.9627892894,
				"element": "H" 
			},
			{
				"x": -2.5897489044,
				"y": 4.2008069974,
				"z": -0.3495995346,
				"element": "H" 
			},
			{
				"x": -4.2685640625,
				"y": 3.896209427,
				"z": 0.1699893792,
				"element": "H" 
			},
			{
				"x": -0.4284912395,
				"y": 0.9104578904,
				"z": -2.7627061743,
				"element": "H" 
			},
			{
				"x": 0.8738307414,
				"y": 1.0903935749,
				"z": -4.8551866726,
				"element": "H" 
			},
			{
				"x": 3.3292366259,
				"y": 1.4865568662,
				"z": -4.7670577311,
				"element": "H" 
			},
			{
				"x": 4.4591152877,
				"y": 1.7075519146,
				"z": -2.5622219938,
				"element": "H" 
			},
			{
				"x": 3.152872929,
				"y": 1.5306521819,
				"z": -0.4705889603,
				"element": "H" 
			}
		],
		 "valence_orbital": [ 
			{
				"type": "occ",
				"energy": -0.27425,
				"method": "rhf"
			},
			{
				"type": "occ",
				"energy": -0.25461,
				"method": "rhf"
			},
			{
				"type": "occ",
				"energy": -0.25282,
				"method": "rhf"
			},
			{
				"type": "occ",
				"energy": -0.2453,
				"method": "rhf"
			},
			{
				"type": "occ",
				"energy": -0.23017,
				"method": "rhf"
			},
			{
				"type": "unocc",
				"energy": -0.0526,
				"method": "rhf"
			},
			{
				"type": "unocc",
				"energy": -0.03016,
				"method": "rhf"
			},
			{
				"type": "unocc",
				"energy": -0.00551,
				"method": "rhf"
			},
			{
				"type": "unocc",
				"energy": 0.01094,
				"method": "rhf"
			},
			{
				"type": "unocc",
				"energy": 0.04635,
				"method": "rhf"
			}
		],
		"cosmo_sigma_profile": { 
			"-0.025": 0.0,
			"-0.024": 0.0,
			"-0.023": 0.0,
			"-0.022": 0.0,
			"-0.021": 0.0,
			"-0.02": 0.0,
			"-0.019": 0.0,
			"-0.018": 0.0,
			"-0.017": 0.0,
			"-0.016": 0.0,
			"-0.015": 0.0,
			"-0.014": 0.0,
			"-0.013": 0.0,
			"-0.012": 0.0,
			"-0.011": 0.0,
			"-0.01": 0.0,
			"-0.009": 0.0,
			"-0.008": 0.0,
			"-0.007": 0.698209190772,
			"-0.006": 15.5099955419,
			"-0.005": 25.0583139067,
			"-0.004": 26.9514828138,
			"-0.003": 30.0746341815,
			"-0.002": 24.7503775208,
			"-0.001": 20.286161501,
			"0.0": 19.5224989905,
			"0.001": 18.208777149,
			"0.002": 20.4806989801,
			"0.003": 22.8956936603,
			"0.004": 13.8274608211,
			"0.005": 11.3441575567,
			"0.006": 6.91888391346,
			"0.007": 2.45191662594,
			"0.008": 2.98066627146,
			"0.009": 2.25538371386,
			"0.01": 2.58064556069,
			"0.011": 4.07527381107,
			"0.012": 4.20656487279,
			"0.013": 1.79313033036,
			"0.014": 0.236385469211,
			"0.015": 0.0,
			"0.016": 0.0,
			"0.017": 0.0,
			"0.018": 0.0,
			"0.019": 0.0,
			"0.02": 0.0,
			"0.021": 0.0,
			"0.022": 0.0,
			"0.023": 0.0,
			"0.024": 0.0,
			"0.025": 0.0
		}
	}
}
