{
	 "smiles": "CC1=CC(NC(=O)C(F)(F)C(F)(F)C(F)(F)C(F)(F)C(F)(F)C(F)(F)C(F)(F)C(F)(F)F)=CC=C1", 
	 "Tm": 370.15, 
	 "num_atms": 43, 
	 "gaussian": { 
		 "optdone": 1, 
		 "sigma_profile": "yes", 
		 "theory": "DFT", 
		 "functional": "B3LYP", 
		 "basiset": "6-31G**", 
		 "properties": { 
			 "R2extent": 16727.9494, 
			 "electric_dipole_moment_norm": 4.39566286014, 
			 "electric_quadrupole_moment_norm": 11.8135226444, 
			 "total_energy": -2441.72229632, 
			 "HOMO_LUMO_gap": 0.20515, 
			 "cosmo_polarized_energy": -9.75, 
			 "cosmo_cavitation_energy": 52.58, 
			 "cosmo_dispersion_energy": -32.96, 
			 "cosmo_repulsion_energy": 2.2, 
			 "cosmo_total_nonelectrostatic_energy": 21.82, 
			 "SMD_solvation_energy": 14.36 
		},
		"coords": [
			{
				"x": -1.1077097747,
				"y": -4.0775701088,
				"z": -3.3441303449,
				"element": "C" 
			},
			{
				"x": -1.6412415081,
				"y": -3.3851672388,
				"z": -2.1120961482,
				"element": "C" 
			},
			{
				"x": -0.9096470947,
				"y": -3.4011867197,
				"z": -0.9191615614,
				"element": "C" 
			},
			{
				"x": -1.3764078837,
				"y": -2.7249170524,
				"z": 0.2117558996,
				"element": "C" 
			},
			{
				"x": -0.6744042791,
				"y": -2.7654140036,
				"z": 1.4543415558,
				"element": "N" 
			},
			{
				"x": 0.6371337735,
				"y": -2.6029273078,
				"z": 1.795327941,
				"element": "C" 
			},
			{
				"x": 1.0492493698,
				"y": -2.8096358179,
				"z": 2.925696316,
				"element": "O" 
			},
			{
				"x": 1.6405019778,
				"y": -2.1484966471,
				"z": 0.7138526388,
				"element": "C" 
			},
			{
				"x": 1.081526267,
				"y": -1.3213469017,
				"z": -0.2071572911,
				"element": "F" 
			},
			{
				"x": 2.0892744079,
				"y": -3.2613823968,
				"z": 0.0560667935,
				"element": "F" 
			},
			{
				"x": 2.9273766244,
				"y": -1.4444241587,
				"z": 1.2462363513,
				"element": "C" 
			},
			{
				"x": 3.6099459623,
				"y": -1.0586403509,
				"z": 0.1370117263,
				"element": "F" 
			},
			{
				"x": 3.6742127526,
				"y": -2.3440884845,
				"z": 1.9163019813,
				"element": "F" 
			},
			{
				"x": 2.8283251561,
				"y": -0.1777127232,
				"z": 2.1677784841,
				"element": "C" 
			},
			{
				"x": 4.0718659029,
				"y": 0.3608583544,
				"z": 2.1690923993,
				"element": "F" 
			},
			{
				"x": 2.5157041942,
				"y": -0.5426555869,
				"z": 3.4253154389,
				"element": "F" 
			},
			{
				"x": 1.8150445681,
				"y": 0.9082752336,
				"z": 1.7185366385,
				"element": "C" 
			},
			{
				"x": 0.5720723269,
				"y": 0.3523225437,
				"z": 1.7786496104,
				"element": "F" 
			},
			{
				"x": 2.0855271453,
				"y": 1.2648289711,
				"z": 0.4444069229,
				"element": "F" 
			},
			{
				"x": 1.7828401264,
				"y": 2.1847124492,
				"z": 2.6062030595,
				"element": "C" 
			},
			{
				"x": 1.2977127039,
				"y": 1.8540415517,
				"z": 3.8212510408,
				"element": "F" 
			},
			{
				"x": 3.0419522054,
				"y": 2.6585860903,
				"z": 2.7483418398,
				"element": "F" 
			},
			{
				"x": 0.950228386,
				"y": 3.3905906992,
				"z": 2.0553004678,
				"element": "C" 
			},
			{
				"x": 1.0031875778,
				"y": 4.3398149085,
				"z": 3.0232272626,
				"element": "F" 
			},
			{
				"x": 1.5615879506,
				"y": 3.8621281194,
				"z": 0.9482456168,
				"element": "F" 
			},
			{
				"x": -0.5408789995,
				"y": 3.1324949223,
				"z": 1.7191477286,
				"element": "C" 
			},
			{
				"x": -0.6044480768,
				"y": 2.4426582076,
				"z": 0.557348633,
				"element": "F" 
			},
			{
				"x": -1.1102596248,
				"y": 2.4034122934,
				"z": 2.7062348267,
				"element": "F" 
			},
			{
				"x": -1.3872566793,
				"y": 4.4224084102,
				"z": 1.5452224103,
				"element": "C" 
			},
			{
				"x": -2.579102016,
				"y": 4.0880707269,
				"z": 1.0350559827,
				"element": "F" 
			},
			{
				"x": -0.7807742772,
				"y": 5.2731437129,
				"z": 0.7075918814,
				"element": "F" 
			},
			{
				"x": -1.5768083145,
				"y": 5.0238455236,
				"z": 2.7232508869,
				"element": "F" 
			},
			{
				"x": -2.6038673119,
				"y": -2.0552829749,
				"z": 0.1739634888,
				"element": "C" 
			},
			{
				"x": -3.348540198,
				"y": -2.0587201987,
				"z": -1.0035868372,
				"element": "C" 
			},
			{
				"x": -2.8698553393,
				"y": -2.7122714057,
				"z": -2.1390020063,
				"element": "C" 
			},
			{
				"x": -0.4928321798,
				"y": -3.3938938431,
				"z": -3.9424112584,
				"element": "H" 
			},
			{
				"x": -0.4797761448,
				"y": -4.9343242673,
				"z": -3.0830080408,
				"element": "H" 
			},
			{
				"x": -1.919115797,
				"y": -4.4328898567,
				"z": -3.9859631966,
				"element": "H" 
			},
			{
				"x": 0.0286366813,
				"y": -3.9417964869,
				"z": -0.8698260439,
				"element": "H" 
			},
			{
				"x": -1.2284111825,
				"y": -2.9884992888,
				"z": 2.2740623708,
				"element": "H" 
			},
			{
				"x": -2.9617146581,
				"y": -1.5338697837,
				"z": 1.0568803537,
				"element": "H" 
			},
			{
				"x": -4.3042898481,
				"y": -1.5441117453,
				"z": -1.0357231386,
				"element": "H" 
			},
			{
				"x": -3.4570648721,
				"y": -2.7062673681,
				"z": -3.0533326804,
				"element": "H" 
			}
		],
		 "valence_orbital": [ 
			{
				"type": "occ",
				"energy": -0.33982,
				"method": "rhf"
			},
			{
				"type": "occ",
				"energy": -0.30745,
				"method": "rhf"
			},
			{
				"type": "occ",
				"energy": -0.28376,
				"method": "rhf"
			},
			{
				"type": "occ",
				"energy": -0.25857,
				"method": "rhf"
			},
			{
				"type": "occ",
				"energy": -0.24413,
				"method": "rhf"
			},
			{
				"type": "unocc",
				"energy": -0.03898,
				"method": "rhf"
			},
			{
				"type": "unocc",
				"energy": -0.0161,
				"method": "rhf"
			},
			{
				"type": "unocc",
				"energy": -0.00337,
				"method": "rhf"
			},
			{
				"type": "unocc",
				"energy": 0.00991,
				"method": "rhf"
			},
			{
				"type": "unocc",
				"energy": 0.01944,
				"method": "rhf"
			}
		],
		"cosmo_sigma_profile": { 
			"-0.025": 0.0,
			"-0.024": 0.0,
			"-0.023": 0.0,
			"-0.022": 0.0,
			"-0.021": 0.0,
			"-0.02": 0.0,
			"-0.019": 0.0,
			"-0.018": 0.0,
			"-0.017": 0.0,
			"-0.016": 0.35610699731,
			"-0.015": 1.18518442838,
			"-0.014": 0.97282105293,
			"-0.013": 0.828204682654,
			"-0.012": 1.30801720273,
			"-0.011": 0.991547765834,
			"-0.01": 0.895247231437,
			"-0.009": 1.24988406862,
			"-0.008": 1.59880970622,
			"-0.007": 2.41791160153,
			"-0.006": 5.84927485745,
			"-0.005": 12.5693735165,
			"-0.004": 19.6518996995,
			"-0.003": 19.4557646193,
			"-0.002": 26.6712788895,
			"-0.001": 40.6683764743,
			"0.0": 77.7041737157,
			"0.001": 123.667987136,
			"0.002": 36.2740057348,
			"0.003": 12.0823206902,
			"0.004": 11.4933983251,
			"0.005": 8.12539395491,
			"0.006": 1.8932145277,
			"0.007": 1.99208251188,
			"0.008": 1.89812713368,
			"0.009": 2.21664285613,
			"0.01": 2.56249279024,
			"0.011": 3.54875034735,
			"0.012": 1.03776545047,
			"0.013": 0.0,
			"0.014": 0.0,
			"0.015": 0.0,
			"0.016": 0.0,
			"0.017": 0.0,
			"0.018": 0.0,
			"0.019": 0.0,
			"0.02": 0.0,
			"0.021": 0.0,
			"0.022": 0.0,
			"0.023": 0.0,
			"0.024": 0.0,
			"0.025": 0.0
		}
	}
}
