{
	 "smiles": "COC1=CC=C(C=C1OC)C(=O)C1=CC=C(Cl)C=C1", 
	 "Tm": 382.15, 
	 "num_atms": 32, 
	 "gaussian": { 
		 "optdone": 1, 
		 "sigma_profile": "yes", 
		 "theory": "DFT", 
		 "functional": "B3LYP", 
		 "basiset": "6-31G**", 
		 "properties": { 
			 "R2extent": 8724.557, 
			 "electric_dipole_moment_norm": 3.53740915643, 
			 "electric_quadrupole_moment_norm": 9.84924162461, 
			 "total_energy": -1265.26518192, 
			 "HOMO_LUMO_gap": 0.16997, 
			 "cosmo_polarized_energy": -10.6, 
			 "cosmo_cavitation_energy": 38.26, 
			 "cosmo_dispersion_energy": -27.26, 
			 "cosmo_repulsion_energy": 2.11, 
			 "cosmo_total_nonelectrostatic_energy": 13.11, 
			 "SMD_solvation_energy": 8.06 
		},
		"coords": [
			{
				"x": -3.5890647059,
				"y": -0.4763008341,
				"z": 2.2105797398,
				"element": "C" 
			},
			{
				"x": -3.4430826178,
				"y": -1.3309103883,
				"z": 1.0669653325,
				"element": "O" 
			},
			{
				"x": -2.2591179655,
				"y": -1.2130525375,
				"z": 0.3848275787,
				"element": "C" 
			},
			{
				"x": -1.4122838386,
				"y": -2.3247474764,
				"z": 0.3180987376,
				"element": "C" 
			},
			{
				"x": -0.2168679821,
				"y": -2.2616738396,
				"z": -0.3875137702,
				"element": "C" 
			},
			{
				"x": 0.1759364355,
				"y": -1.0693377811,
				"z": -1.0164291732,
				"element": "C" 
			},
			{
				"x": -0.6870692567,
				"y": 0.0368852807,
				"z": -0.9724130187,
				"element": "C" 
			},
			{
				"x": -1.9025227283,
				"y": -0.0302044062,
				"z": -0.2937022797,
				"element": "C" 
			},
			{
				"x": -2.7148608511,
				"y": 1.0819608992,
				"z": -0.2786976375,
				"element": "O" 
			},
			{
				"x": -3.9314965194,
				"y": 0.9448604161,
				"z": -1.025722295,
				"element": "C" 
			},
			{
				"x": 1.4586583907,
				"y": -1.0763747486,
				"z": -1.7879107553,
				"element": "C" 
			},
			{
				"x": 1.8989528035,
				"y": -2.1312180326,
				"z": -2.2340818011,
				"element": "O" 
			},
			{
				"x": 2.2203692978,
				"y": 0.1963583281,
				"z": -2.0227739602,
				"element": "C" 
			},
			{
				"x": 3.0600985393,
				"y": 0.2536295796,
				"z": -3.146636904,
				"element": "C" 
			},
			{
				"x": 3.8339284707,
				"y": 1.3791067354,
				"z": -3.4061999567,
				"element": "C" 
			},
			{
				"x": 3.7873426272,
				"y": 2.4529722622,
				"z": -2.5137183569,
				"element": "C" 
			},
			{
				"x": 4.7653656751,
				"y": 3.8762258383,
				"z": -2.8279892581,
				"element": "Cl" 
			},
			{
				"x": 2.9845933169,
				"y": 2.4125837181,
				"z": -1.3745518431,
				"element": "C" 
			},
			{
				"x": 2.1998326232,
				"y": 1.2843743792,
				"z": -1.1373441494,
				"element": "C" 
			},
			{
				"x": -2.8261396618,
				"y": -0.7098577087,
				"z": 2.963147636,
				"element": "H" 
			},
			{
				"x": -3.5185667382,
				"y": 0.5791575659,
				"z": 1.9337909386,
				"element": "H" 
			},
			{
				"x": -4.5775507216,
				"y": -0.688804416,
				"z": 2.621638264,
				"element": "H" 
			},
			{
				"x": -1.717836982,
				"y": -3.2300202097,
				"z": 0.8329999401,
				"element": "H" 
			},
			{
				"x": 0.4374706128,
				"y": -3.1237617831,
				"z": -0.4552285605,
				"element": "H" 
			},
			{
				"x": -0.4505735864,
				"y": 0.959625523,
				"z": -1.4904401569,
				"element": "H" 
			},
			{
				"x": -3.7157496654,
				"y": 0.7660958375,
				"z": -2.0861990718,
				"element": "H" 
			},
			{
				"x": -4.462789533,
				"y": 1.8926503721,
				"z": -0.919968894,
				"element": "H" 
			},
			{
				"x": -4.5485883925,
				"y": 0.1286554591,
				"z": -0.6372163812,
				"element": "H" 
			},
			{
				"x": 3.0949568467,
				"y": -0.6042729198,
				"z": -3.8096265423,
				"element": "H" 
			},
			{
				"x": 4.4712158929,
				"y": 1.4281948115,
				"z": -4.2821292375,
				"element": "H" 
			},
			{
				"x": 2.97757384,
				"y": 3.248439045,
				"z": -0.683992173,
				"element": "H" 
			},
			{
				"x": 1.588866374,
				"y": 1.2465610309,
				"z": -0.242161991,
				"element": "H" 
			}
		],
		 "valence_orbital": [ 
			{
				"type": "occ",
				"energy": -0.2714,
				"method": "rhf"
			},
			{
				"type": "occ",
				"energy": -0.25952,
				"method": "rhf"
			},
			{
				"type": "occ",
				"energy": -0.25532,
				"method": "rhf"
			},
			{
				"type": "occ",
				"energy": -0.24833,
				"method": "rhf"
			},
			{
				"type": "occ",
				"energy": -0.23806,
				"method": "rhf"
			},
			{
				"type": "unocc",
				"energy": -0.06809,
				"method": "rhf"
			},
			{
				"type": "unocc",
				"energy": -0.02325,
				"method": "rhf"
			},
			{
				"type": "unocc",
				"energy": -0.01721,
				"method": "rhf"
			},
			{
				"type": "unocc",
				"energy": -0.00924,
				"method": "rhf"
			},
			{
				"type": "unocc",
				"energy": 0.02574,
				"method": "rhf"
			}
		],
		"cosmo_sigma_profile": { 
			"-0.025": 0.0,
			"-0.024": 0.0,
			"-0.023": 0.0,
			"-0.022": 0.0,
			"-0.021": 0.0,
			"-0.02": 0.0,
			"-0.019": 0.0,
			"-0.018": 0.0,
			"-0.017": 0.0,
			"-0.016": 0.0,
			"-0.015": 0.0,
			"-0.014": 0.0,
			"-0.013": 0.0,
			"-0.012": 0.0,
			"-0.011": 0.0,
			"-0.01": 0.0,
			"-0.009": 0.0,
			"-0.008": 1.25313598477,
			"-0.007": 6.67759484564,
			"-0.006": 14.5601343053,
			"-0.005": 19.1998801414,
			"-0.004": 25.710510521,
			"-0.003": 32.0659971807,
			"-0.002": 27.8427468138,
			"-0.001": 25.948247215,
			"0.0": 22.2153699455,
			"0.001": 26.5206470919,
			"0.002": 32.5978186493,
			"0.003": 21.8207024837,
			"0.004": 16.6149996925,
			"0.005": 7.12097039829,
			"0.006": 4.52427638036,
			"0.007": 3.3168088361,
			"0.008": 2.77575425503,
			"0.009": 3.85484666666,
			"0.01": 4.50877324136,
			"0.011": 4.40785439049,
			"0.012": 4.49460578641,
			"0.013": 0.431428887839,
			"0.014": 0.0,
			"0.015": 0.0,
			"0.016": 0.0,
			"0.017": 0.0,
			"0.018": 0.0,
			"0.019": 0.0,
			"0.02": 0.0,
			"0.021": 0.0,
			"0.022": 0.0,
			"0.023": 0.0,
			"0.024": 0.0,
			"0.025": 0.0
		}
	}
}
