{
	 "smiles": "COC1=C(OC)C(OC)=C(CCC(O)=O)C=C1", 
	 "Tm": 347.15, 
	 "num_atms": 33, 
	 "gaussian": { 
		 "optdone": 1, 
		 "sigma_profile": "yes", 
		 "theory": "DFT", 
		 "functional": "B3LYP", 
		 "basiset": "6-31G**", 
		 "properties": { 
			 "R2extent": 5189.1951, 
			 "electric_dipole_moment_norm": 6.84334391069, 
			 "electric_quadrupole_moment_norm": 27.6213590924, 
			 "total_energy": -843.002286298, 
			 "HOMO_LUMO_gap": 0.22258, 
			 "cosmo_polarized_energy": -14.93, 
			 "cosmo_cavitation_energy": 35.96, 
			 "cosmo_dispersion_energy": -24.37, 
			 "cosmo_repulsion_energy": 1.94, 
			 "cosmo_total_nonelectrostatic_energy": 13.52, 
			 "SMD_solvation_energy": 9.31 
		},
		"coords": [
			{
				"x": -1.9799265137,
				"y": 0.053505133,
				"z": 3.6533035187,
				"element": "C" 
			},
			{
				"x": -1.5026844422,
				"y": -1.1540949999,
				"z": 3.0455773016,
				"element": "O" 
			},
			{
				"x": -1.007391125,
				"y": -1.0194177175,
				"z": 1.7717474508,
				"element": "C" 
			},
			{
				"x": 0.1990091691,
				"y": -0.3342833059,
				"z": 1.5330013499,
				"element": "C" 
			},
			{
				"x": 0.8800701462,
				"y": 0.263222994,
				"z": 2.5706494956,
				"element": "O" 
			},
			{
				"x": 1.6455081731,
				"y": -0.6539644845,
				"z": 3.3677165596,
				"element": "C" 
			},
			{
				"x": 0.7093800776,
				"y": -0.2528373483,
				"z": 0.2269877385,
				"element": "C" 
			},
			{
				"x": 1.9069540401,
				"y": 0.369067073,
				"z": -0.0305199677,
				"element": "O" 
			},
			{
				"x": 1.9736985937,
				"y": 1.7763021451,
				"z": 0.2413990644,
				"element": "C" 
			},
			{
				"x": 0.041479016,
				"y": -0.8742781336,
				"z": -0.8489761231,
				"element": "C" 
			},
			{
				"x": 0.6053973574,
				"y": -0.7805577337,
				"z": -2.2536674997,
				"element": "C" 
			},
			{
				"x": 1.8933060417,
				"y": -1.6014593422,
				"z": -2.5204499714,
				"element": "C" 
			},
			{
				"x": 1.7242906671,
				"y": -3.1150176303,
				"z": -2.6014818811,
				"element": "C" 
			},
			{
				"x": 1.0413731169,
				"y": -3.70851779,
				"z": -1.5887648056,
				"element": "O" 
			},
			{
				"x": 2.1826597141,
				"y": -3.7863085106,
				"z": -3.493856667,
				"element": "O" 
			},
			{
				"x": -1.1447312939,
				"y": -1.5707513347,
				"z": -0.5756262392,
				"element": "C" 
			},
			{
				"x": -1.6726857419,
				"y": -1.6377314502,
				"z": 0.7143512546,
				"element": "C" 
			},
			{
				"x": -2.3375720171,
				"y": -0.2279637232,
				"z": 4.6455283048,
				"element": "H" 
			},
			{
				"x": -1.1825630266,
				"y": 0.7966119814,
				"z": 3.743805338,
				"element": "H" 
			},
			{
				"x": -2.8120822561,
				"y": 0.4742639774,
				"z": 3.075232056,
				"element": "H" 
			},
			{
				"x": 2.4139632704,
				"y": -1.1455607032,
				"z": 2.7603966549,
				"element": "H" 
			},
			{
				"x": 2.1241971441,
				"y": -0.0568071466,
				"z": 4.1462088727,
				"element": "H" 
			},
			{
				"x": 0.9960316738,
				"y": -1.4061941614,
				"z": 3.8264372861,
				"element": "H" 
			},
			{
				"x": 1.8384130786,
				"y": 1.9809037245,
				"z": 1.3056146536,
				"element": "H" 
			},
			{
				"x": 1.217195459,
				"y": 2.3193224901,
				"z": -0.3385443106,
				"element": "H" 
			},
			{
				"x": 2.9679888464,
				"y": 2.0955104955,
				"z": -0.0765346092,
				"element": "H" 
			},
			{
				"x": 0.8502559761,
				"y": 0.2655849464,
				"z": -2.4641072787,
				"element": "H" 
			},
			{
				"x": -0.1691429125,
				"y": -1.073042585,
				"z": -2.9709457149,
				"element": "H" 
			},
			{
				"x": 2.625941348,
				"y": -1.3719837984,
				"z": -1.7377710898,
				"element": "H" 
			},
			{
				"x": 2.3308523109,
				"y": -1.2992847535,
				"z": -3.4741986897,
				"element": "H" 
			},
			{
				"x": 0.7079989574,
				"y": -3.0441234011,
				"z": -0.963706673,
				"element": "H" 
			},
			{
				"x": -1.6731720403,
				"y": -2.0521893535,
				"z": -1.3938962633,
				"element": "H" 
			},
			{
				"x": -2.5942128086,
				"y": -2.171325553,
				"z": 0.920890884,
				"element": "H" 
			}
		],
		 "valence_orbital": [ 
			{
				"type": "occ",
				"energy": -0.29544,
				"method": "rhf"
			},
			{
				"type": "occ",
				"energy": -0.27386,
				"method": "rhf"
			},
			{
				"type": "occ",
				"energy": -0.25438,
				"method": "rhf"
			},
			{
				"type": "occ",
				"energy": -0.24506,
				"method": "rhf"
			},
			{
				"type": "occ",
				"energy": -0.23937,
				"method": "rhf"
			},
			{
				"type": "unocc",
				"energy": -0.01679,
				"method": "rhf"
			},
			{
				"type": "unocc",
				"energy": -0.01494,
				"method": "rhf"
			},
			{
				"type": "unocc",
				"energy": 0.0241,
				"method": "rhf"
			},
			{
				"type": "unocc",
				"energy": 0.06087,
				"method": "rhf"
			},
			{
				"type": "unocc",
				"energy": 0.08894,
				"method": "rhf"
			}
		],
		"cosmo_sigma_profile": { 
			"-0.025": 0.0,
			"-0.024": 0.0,
			"-0.023": 0.0,
			"-0.022": 0.0,
			"-0.021": 0.0,
			"-0.02": 0.0,
			"-0.019": 0.0,
			"-0.018": 0.0,
			"-0.017": 0.0,
			"-0.016": 0.0,
			"-0.015": 0.0,
			"-0.014": 0.0,
			"-0.013": 0.0,
			"-0.012": 0.0,
			"-0.011": 0.153782733344,
			"-0.01": 1.30506967111,
			"-0.009": 1.24103617627,
			"-0.008": 1.09654333478,
			"-0.007": 2.65044980343,
			"-0.006": 12.3284033383,
			"-0.005": 23.511022081,
			"-0.004": 30.2520520317,
			"-0.003": 36.474315532,
			"-0.002": 33.9148380483,
			"-0.001": 21.9227170509,
			"0.0": 17.3554202468,
			"0.001": 15.1178847811,
			"0.002": 14.0096218844,
			"0.003": 11.9921625243,
			"0.004": 10.2543884419,
			"0.005": 7.90475907433,
			"0.006": 5.91703257351,
			"0.007": 4.0416249618,
			"0.008": 4.32329232893,
			"0.009": 5.00884716845,
			"0.01": 5.64019982368,
			"0.011": 6.13431116022,
			"0.012": 6.87784528157,
			"0.013": 3.79216022727,
			"0.014": 0.453978516551,
			"0.015": 0.0,
			"0.016": 0.0,
			"0.017": 0.0,
			"0.018": 0.0,
			"0.019": 0.0,
			"0.02": 0.0,
			"0.021": 0.0,
			"0.022": 0.0,
			"0.023": 0.0,
			"0.024": 0.0,
			"0.025": 0.0
		}
	}
}
