{
	 "smiles": "CCOC(=O)C1=C(C)OC(N)=C(C#N)C1C1=CC=CC=C1", 
	 "Tm": 463.15, 
	 "num_atms": 37, 
	 "gaussian": { 
		 "optdone": 1, 
		 "sigma_profile": "yes", 
		 "theory": "DFT", 
		 "functional": "B3LYP", 
		 "basiset": "6-31G**", 
		 "properties": { 
			 "R2extent": 6109.7045, 
			 "electric_dipole_moment_norm": 3.07901110586, 
			 "electric_quadrupole_moment_norm": 29.5572184781, 
			 "total_energy": -954.50345112, 
			 "HOMO_LUMO_gap": 0.16766, 
			 "cosmo_polarized_energy": -18.43, 
			 "cosmo_cavitation_energy": 41.73, 
			 "cosmo_dispersion_energy": -27.28, 
			 "cosmo_repulsion_energy": 2.15, 
			 "cosmo_total_nonelectrostatic_energy": 16.61, 
			 "SMD_solvation_energy": 9.79 
		},
		"coords": [
			{
				"x": 2.9292604279,
				"y": -2.2979643457,
				"z": -2.3261772342,
				"element": "C" 
			},
			{
				"x": 2.1796591957,
				"y": -2.9267815936,
				"z": -1.1670984539,
				"element": "C" 
			},
			{
				"x": 0.9678222406,
				"y": -2.1635449491,
				"z": -0.9726870797,
				"element": "O" 
			},
			{
				"x": 0.1934364858,
				"y": -2.5349918167,
				"z": 0.0710173851,
				"element": "C" 
			},
			{
				"x": 0.4795368581,
				"y": -3.481475816,
				"z": 0.7845823399,
				"element": "O" 
			},
			{
				"x": -0.9963480026,
				"y": -1.6440818253,
				"z": 0.1849849866,
				"element": "C" 
			},
			{
				"x": -2.0166392605,
				"y": -1.9620666091,
				"z": 1.0125525497,
				"element": "C" 
			},
			{
				"x": -2.1790569447,
				"y": -3.1263933419,
				"z": 1.9360418308,
				"element": "C" 
			},
			{
				"x": -3.1525404881,
				"y": -1.1748249928,
				"z": 1.1009372338,
				"element": "O" 
			},
			{
				"x": -3.3557328956,
				"y": -0.1633628849,
				"z": 0.2116034395,
				"element": "C" 
			},
			{
				"x": -4.6358669227,
				"y": 0.305528577,
				"z": 0.2997956822,
				"element": "N" 
			},
			{
				"x": -2.3940542931,
				"y": 0.2427162386,
				"z": -0.6589407232,
				"element": "C" 
			},
			{
				"x": -2.7043017936,
				"y": 1.2910822469,
				"z": -1.5601100431,
				"element": "C" 
			},
			{
				"x": -2.9888918265,
				"y": 2.1547257867,
				"z": -2.2924948232,
				"element": "N" 
			},
			{
				"x": -0.9997167555,
				"y": -0.3677521148,
				"z": -0.6503686385,
				"element": "C" 
			},
			{
				"x": 0.0504424868,
				"y": 0.6447423692,
				"z": -0.1738300994,
				"element": "C" 
			},
			{
				"x": 0.9007388566,
				"y": 1.2607857027,
				"z": -1.0984932536,
				"element": "C" 
			},
			{
				"x": 1.8348274949,
				"y": 2.2127607515,
				"z": -0.6857708986,
				"element": "C" 
			},
			{
				"x": 1.9330683809,
				"y": 2.5577067785,
				"z": 0.6628698695,
				"element": "C" 
			},
			{
				"x": 1.0887420128,
				"y": 1.9480966939,
				"z": 1.5936321817,
				"element": "C" 
			},
			{
				"x": 0.1532732991,
				"y": 1.0013168923,
				"z": 1.1764373012,
				"element": "C" 
			},
			{
				"x": 2.3338629578,
				"y": -2.331500543,
				"z": -3.2432629945,
				"element": "H" 
			},
			{
				"x": 3.1723737101,
				"y": -1.2540233853,
				"z": -2.109576392,
				"element": "H" 
			},
			{
				"x": 3.8624314592,
				"y": -2.8419275134,
				"z": -2.5025286847,
				"element": "H" 
			},
			{
				"x": 2.760066818,
				"y": -2.9057674026,
				"z": -0.239786861,
				"element": "H" 
			},
			{
				"x": 1.9119846654,
				"y": -3.9699128018,
				"z": -1.3637591122,
				"element": "H" 
			},
			{
				"x": -3.0811378595,
				"y": -3.6848301098,
				"z": 1.661746546,
				"element": "H" 
			},
			{
				"x": -1.3081535834,
				"y": -3.7739889539,
				"z": 1.9054046315,
				"element": "H" 
			},
			{
				"x": -2.3273250023,
				"y": -2.7580357506,
				"z": 2.9577716323,
				"element": "H" 
			},
			{
				"x": -4.8237972363,
				"y": 1.1974168759,
				"z": -0.1350320842,
				"element": "H" 
			},
			{
				"x": -5.1222733211,
				"y": 0.115127846,
				"z": 1.1630985728,
				"element": "H" 
			},
			{
				"x": -0.7343095117,
				"y": -0.6373802155,
				"z": -1.6776550179,
				"element": "H" 
			},
			{
				"x": 0.8283410299,
				"y": 0.993843126,
				"z": -2.1496160014,
				"element": "H" 
			},
			{
				"x": 2.4845499431,
				"y": 2.6838244495,
				"z": -1.4180769866,
				"element": "H" 
			},
			{
				"x": 2.6606782064,
				"y": 3.2962758129,
				"z": 0.986873602,
				"element": "H" 
			},
			{
				"x": 1.1583518764,
				"y": 2.2105977386,
				"z": 2.645672368,
				"element": "H" 
			},
			{
				"x": -0.4999027084,
				"y": 0.5323590792,
				"z": 1.9076432292,
				"element": "H" 
			}
		],
		 "valence_orbital": [ 
			{
				"type": "occ",
				"energy": -0.27391,
				"method": "rhf"
			},
			{
				"type": "occ",
				"energy": -0.26013,
				"method": "rhf"
			},
			{
				"type": "occ",
				"energy": -0.24747,
				"method": "rhf"
			},
			{
				"type": "occ",
				"energy": -0.24113,
				"method": "rhf"
			},
			{
				"type": "occ",
				"energy": -0.21551,
				"method": "rhf"
			},
			{
				"type": "unocc",
				"energy": -0.04785,
				"method": "rhf"
			},
			{
				"type": "unocc",
				"energy": -0.00519,
				"method": "rhf"
			},
			{
				"type": "unocc",
				"energy": 0.00213,
				"method": "rhf"
			},
			{
				"type": "unocc",
				"energy": 0.00906,
				"method": "rhf"
			},
			{
				"type": "unocc",
				"energy": 0.03692,
				"method": "rhf"
			}
		],
		"cosmo_sigma_profile": { 
			"-0.025": 0.0,
			"-0.024": 0.0,
			"-0.023": 0.0,
			"-0.022": 0.0,
			"-0.021": 0.0,
			"-0.02": 0.0,
			"-0.019": 0.0,
			"-0.018": 0.0,
			"-0.017": 0.0,
			"-0.016": 0.0328797918428,
			"-0.015": 1.05450969143,
			"-0.014": 1.90177577583,
			"-0.013": 2.39484434992,
			"-0.012": 2.27273251765,
			"-0.011": 2.04316668702,
			"-0.01": 1.89293252187,
			"-0.009": 1.49525919735,
			"-0.008": 1.77962412157,
			"-0.007": 2.40391115575,
			"-0.006": 9.03378614259,
			"-0.005": 23.3463166015,
			"-0.004": 29.7307552976,
			"-0.003": 32.8606629561,
			"-0.002": 31.9207873985,
			"-0.001": 29.6945593232,
			"0.0": 27.4576322117,
			"0.001": 19.120964199,
			"0.002": 17.3470232944,
			"0.003": 16.6370126947,
			"0.004": 17.1271133391,
			"0.005": 13.7803313297,
			"0.006": 12.3532111712,
			"0.007": 4.57765786705,
			"0.008": 4.16018397154,
			"0.009": 4.12927821235,
			"0.01": 5.47977900498,
			"0.011": 5.71708095529,
			"0.012": 5.50846659563,
			"0.013": 2.97868201569,
			"0.014": 1.79179427941,
			"0.015": 0.158009440403,
			"0.016": 0.0,
			"0.017": 0.0,
			"0.018": 0.0,
			"0.019": 0.0,
			"0.02": 0.0,
			"0.021": 0.0,
			"0.022": 0.0,
			"0.023": 0.0,
			"0.024": 0.0,
			"0.025": 0.0
		}
	}
}
