{
	 "smiles": "COC1=CC=C(C=C1)C(=O)C=C(SC)SC", 
	 "Tm": 373.15, 
	 "num_atms": 30, 
	 "gaussian": { 
		 "optdone": 1, 
		 "sigma_profile": "yes", 
		 "theory": "DFT", 
		 "functional": "B3LYP", 
		 "basiset": "6-31G**", 
		 "properties": { 
			 "R2extent": 7318.6857, 
			 "electric_dipole_moment_norm": 4.34163772095, 
			 "electric_quadrupole_moment_norm": 15.4205039324, 
			 "total_energy": -1412.50667583, 
			 "HOMO_LUMO_gap": 0.15264, 
			 "cosmo_polarized_energy": -12.71, 
			 "cosmo_cavitation_energy": 36.74, 
			 "cosmo_dispersion_energy": -27.26, 
			 "cosmo_repulsion_energy": 2.05, 
			 "cosmo_total_nonelectrostatic_energy": 11.53, 
			 "SMD_solvation_energy": 7.74 
		},
		"coords": [
			{
				"x": -3.2965772731,
				"y": 1.8936630404,
				"z": -4.2590665364,
				"element": "C" 
			},
			{
				"x": -1.9467531014,
				"y": 2.3109395532,
				"z": -4.1133828073,
				"element": "O" 
			},
			{
				"x": -1.2590557186,
				"y": 1.9113023618,
				"z": -3.0102931191,
				"element": "C" 
			},
			{
				"x": -1.7837879044,
				"y": 1.1017577145,
				"z": -1.994502261,
				"element": "C" 
			},
			{
				"x": -0.9839919579,
				"y": 0.7629622079,
				"z": -0.9021377752,
				"element": "C" 
			},
			{
				"x": 0.3399000027,
				"y": 1.2090831581,
				"z": -0.7995714825,
				"element": "C" 
			},
			{
				"x": 0.8530551941,
				"y": 2.0078740518,
				"z": -1.8403069278,
				"element": "C" 
			},
			{
				"x": 0.0704632266,
				"y": 2.361643001,
				"z": -2.9247145094,
				"element": "C" 
			},
			{
				"x": 1.2592075414,
				"y": 0.8562550581,
				"z": 0.32923233,
				"element": "C" 
			},
			{
				"x": 2.4721393862,
				"y": 1.0585170894,
				"z": 0.2109534095,
				"element": "O" 
			},
			{
				"x": 0.6507820203,
				"y": 0.3354088842,
				"z": 1.5649691593,
				"element": "C" 
			},
			{
				"x": 1.2828611021,
				"y": -0.1392452414,
				"z": 2.677341185,
				"element": "C" 
			},
			{
				"x": 0.3268195575,
				"y": -0.1125419806,
				"z": 4.1841620617,
				"element": "S" 
			},
			{
				"x": 0.7646655023,
				"y": -1.6575097344,
				"z": 5.0656371869,
				"element": "C" 
			},
			{
				"x": 2.9505436174,
				"y": -0.6576922206,
				"z": 2.8842242008,
				"element": "S" 
			},
			{
				"x": 3.4266700658,
				"y": -1.4337000371,
				"z": 1.302969915,
				"element": "C" 
			},
			{
				"x": -3.377549324,
				"y": 0.8008475987,
				"z": -4.3161367894,
				"element": "H" 
			},
			{
				"x": -3.9228564887,
				"y": 2.2583738086,
				"z": -3.4352362179,
				"element": "H" 
			},
			{
				"x": -3.6460191621,
				"y": 2.3290107321,
				"z": -5.1962464811,
				"element": "H" 
			},
			{
				"x": -2.8005621431,
				"y": 0.7311590481,
				"z": -2.0445403848,
				"element": "H" 
			},
			{
				"x": -1.407020128,
				"y": 0.1181261556,
				"z": -0.1386719011,
				"element": "H" 
			},
			{
				"x": 1.8830288607,
				"y": 2.3399005202,
				"z": -1.7667018911,
				"element": "H" 
			},
			{
				"x": 0.4568142007,
				"y": 2.9848096124,
				"z": -3.7246712046,
				"element": "H" 
			},
			{
				"x": -0.4228250064,
				"y": 0.4585342018,
				"z": 1.6600607619,
				"element": "H" 
			},
			{
				"x": 0.0748607998,
				"y": -1.702963145,
				"z": 5.9121247134,
				"element": "H" 
			},
			{
				"x": 0.6080149923,
				"y": -2.5279091217,
				"z": 4.4265162882,
				"element": "H" 
			},
			{
				"x": 1.7893375662,
				"y": -1.6398715278,
				"z": 5.4343507268,
				"element": "H" 
			},
			{
				"x": 2.6160087089,
				"y": -2.0721387916,
				"z": 0.9457476431,
				"element": "H" 
			},
			{
				"x": 3.6606629296,
				"y": -0.6707378345,
				"z": 0.5621123519,
				"element": "H" 
			},
			{
				"x": 4.2990629333,
				"y": -2.0486581632,
				"z": 1.5354783553,
				"element": "H" 
			}
		],
		 "valence_orbital": [ 
			{
				"type": "occ",
				"energy": -0.25629,
				"method": "rhf"
			},
			{
				"type": "occ",
				"energy": -0.25003,
				"method": "rhf"
			},
			{
				"type": "occ",
				"energy": -0.23405,
				"method": "rhf"
			},
			{
				"type": "occ",
				"energy": -0.22735,
				"method": "rhf"
			},
			{
				"type": "occ",
				"energy": -0.21794,
				"method": "rhf"
			},
			{
				"type": "unocc",
				"energy": -0.0653,
				"method": "rhf"
			},
			{
				"type": "unocc",
				"energy": -0.0078,
				"method": "rhf"
			},
			{
				"type": "unocc",
				"energy": 0.0032,
				"method": "rhf"
			},
			{
				"type": "unocc",
				"energy": 0.02892,
				"method": "rhf"
			},
			{
				"type": "unocc",
				"energy": 0.04728,
				"method": "rhf"
			}
		],
		"cosmo_sigma_profile": { 
			"-0.025": 0.0,
			"-0.024": 0.0,
			"-0.023": 0.0,
			"-0.022": 0.0,
			"-0.021": 0.0,
			"-0.02": 0.0,
			"-0.019": 0.0,
			"-0.018": 0.0,
			"-0.017": 0.0,
			"-0.016": 0.0,
			"-0.015": 0.0,
			"-0.014": 0.0,
			"-0.013": 0.0,
			"-0.012": 0.0,
			"-0.011": 0.0,
			"-0.01": 0.0,
			"-0.009": 0.00265976144753,
			"-0.008": 1.07540158906,
			"-0.007": 7.57401295056,
			"-0.006": 19.7874449029,
			"-0.005": 23.9207099542,
			"-0.004": 25.8021748614,
			"-0.003": 24.7909516832,
			"-0.002": 25.6159457094,
			"-0.001": 21.862082782,
			"0.0": 17.9484334092,
			"0.001": 16.9787712732,
			"0.002": 20.8961035989,
			"0.003": 22.8196987959,
			"0.004": 24.032140458,
			"0.005": 12.1054646776,
			"0.006": 7.59014077472,
			"0.007": 5.62017999506,
			"0.008": 4.83057062616,
			"0.009": 3.38852749526,
			"0.01": 2.70228030378,
			"0.011": 2.37433507543,
			"0.012": 2.59627723149,
			"0.013": 1.89470240702,
			"0.014": 0.0171961353387,
			"0.015": 0.0,
			"0.016": 0.0,
			"0.017": 0.0,
			"0.018": 0.0,
			"0.019": 0.0,
			"0.02": 0.0,
			"0.021": 0.0,
			"0.022": 0.0,
			"0.023": 0.0,
			"0.024": 0.0,
			"0.025": 0.0
		}
	}
}
