{
	 "smiles": "OC(=O)C1=NC=C(OC2=CC=CC=C2)N=C1", 
	 "Tm": 408.15, 
	 "num_atms": 24, 
	 "gaussian": { 
		 "optdone": 1, 
		 "sigma_profile": "yes", 
		 "theory": "DFT", 
		 "functional": "B3LYP", 
		 "basiset": "6-31G**", 
		 "properties": { 
			 "R2extent": 4783.2323, 
			 "electric_dipole_moment_norm": 6.80582808701, 
			 "electric_quadrupole_moment_norm": 16.5847775698, 
			 "total_energy": -759.159398445, 
			 "HOMO_LUMO_gap": 0.1864, 
			 "cosmo_polarized_energy": -14.49, 
			 "cosmo_cavitation_energy": 30.07, 
			 "cosmo_dispersion_energy": -21.94, 
			 "cosmo_repulsion_energy": 1.7, 
			 "cosmo_total_nonelectrostatic_energy": 9.83, 
			 "SMD_solvation_energy": 4.37 
		},
		"coords": [
			{
				"x": -3.7789918073,
				"y": 1.9429382684,
				"z": -0.0734245705,
				"element": "O" 
			},
			{
				"x": -2.7853868264,
				"y": 2.7170224596,
				"z": 0.3963214379,
				"element": "C" 
			},
			{
				"x": -2.9534772861,
				"y": 3.8589602252,
				"z": 0.7598964782,
				"element": "O" 
			},
			{
				"x": -1.4481792966,
				"y": 2.0372553261,
				"z": 0.4293513313,
				"element": "C" 
			},
			{
				"x": -1.3946098704,
				"y": 0.7671035181,
				"z": -0.0018492646,
				"element": "N" 
			},
			{
				"x": -0.2182036181,
				"y": 0.1496225759,
				"z": 0.0205300186,
				"element": "C" 
			},
			{
				"x": 0.9298471155,
				"y": 0.8264307054,
				"z": 0.4876542191,
				"element": "C" 
			},
			{
				"x": 2.1627612411,
				"y": 0.2674855729,
				"z": 0.5411815401,
				"element": "O" 
			},
			{
				"x": 2.3474954857,
				"y": -1.053912866,
				"z": 0.1252927522,
				"element": "C" 
			},
			{
				"x": 2.7153745027,
				"y": -1.3039196396,
				"z": -1.1953823787,
				"element": "C" 
			},
			{
				"x": 2.9721583369,
				"y": -2.6190692475,
				"z": -1.5872326499,
				"element": "C" 
			},
			{
				"x": 2.862657781,
				"y": -3.662973789,
				"z": -0.665729687,
				"element": "C" 
			},
			{
				"x": 2.4995024708,
				"y": -3.3923791554,
				"z": 0.6555934634,
				"element": "C" 
			},
			{
				"x": 2.2402772977,
				"y": -2.0816846291,
				"z": 1.0604131329,
				"element": "C" 
			},
			{
				"x": 0.8866617862,
				"y": 2.0853954564,
				"z": 0.9167671865,
				"element": "N" 
			},
			{
				"x": -0.3018092721,
				"y": 2.6903964847,
				"z": 0.8875956668,
				"element": "C" 
			},
			{
				"x": -3.3837618124,
				"y": 1.0765728823,
				"z": -0.295319366,
				"element": "H" 
			},
			{
				"x": -0.1749509456,
				"y": -0.8763873657,
				"z": -0.3279209982,
				"element": "H" 
			},
			{
				"x": 2.8070023588,
				"y": -0.4766172161,
				"z": -1.8915549116,
				"element": "H" 
			},
			{
				"x": 3.262065527,
				"y": -2.82511515,
				"z": -2.6130975267,
				"element": "H" 
			},
			{
				"x": 3.0657628478,
				"y": -4.6836080667,
				"z": -0.9748295141,
				"element": "H" 
			},
			{
				"x": 2.4214338372,
				"y": -4.2006612351,
				"z": 1.3763482336,
				"element": "H" 
			},
			{
				"x": 1.9697296556,
				"y": -1.8477837555,
				"z": 2.0849171678,
				"element": "H" 
			},
			{
				"x": -0.3588595092,
				"y": 3.7182286404,
				"z": 1.233578239,
				"element": "H" 
			}
		],
		 "valence_orbital": [ 
			{
				"type": "occ",
				"energy": -0.29425,
				"method": "rhf"
			},
			{
				"type": "occ",
				"energy": -0.27899,
				"method": "rhf"
			},
			{
				"type": "occ",
				"energy": -0.27073,
				"method": "rhf"
			},
			{
				"type": "occ",
				"energy": -0.26788,
				"method": "rhf"
			},
			{
				"type": "occ",
				"energy": -0.26366,
				"method": "rhf"
			},
			{
				"type": "unocc",
				"energy": -0.07726,
				"method": "rhf"
			},
			{
				"type": "unocc",
				"energy": -0.05538,
				"method": "rhf"
			},
			{
				"type": "unocc",
				"energy": -0.02685,
				"method": "rhf"
			},
			{
				"type": "unocc",
				"energy": -0.02442,
				"method": "rhf"
			},
			{
				"type": "unocc",
				"energy": 0.04468,
				"method": "rhf"
			}
		],
		"cosmo_sigma_profile": { 
			"-0.025": 0.0,
			"-0.024": 0.0,
			"-0.023": 0.0,
			"-0.022": 0.0,
			"-0.021": 0.0,
			"-0.02": 0.0,
			"-0.019": 0.0,
			"-0.018": 0.0,
			"-0.017": 0.0,
			"-0.016": 0.0,
			"-0.015": 0.0,
			"-0.014": 0.158793677071,
			"-0.013": 0.715810493551,
			"-0.012": 0.426404051195,
			"-0.011": 0.512847677396,
			"-0.01": 0.78611561757,
			"-0.009": 1.7521249294,
			"-0.008": 3.17534421581,
			"-0.007": 9.3087749248,
			"-0.006": 17.2866865602,
			"-0.005": 20.8031886628,
			"-0.004": 22.3718485071,
			"-0.003": 20.5260822323,
			"-0.002": 17.2580047186,
			"-0.001": 12.8953874629,
			"0.0": 13.6532437662,
			"0.001": 13.7760630681,
			"0.002": 14.2364611339,
			"0.003": 13.3273558816,
			"0.004": 14.2477412211,
			"0.005": 6.15915308033,
			"0.006": 3.29579546774,
			"0.007": 5.61757911231,
			"0.008": 4.67402851589,
			"0.009": 5.65296873949,
			"0.01": 7.29936043285,
			"0.011": 6.51037359809,
			"0.012": 4.32027336237,
			"0.013": 1.77508909626,
			"0.014": 0.286682204037,
			"0.015": 0.0,
			"0.016": 0.0,
			"0.017": 0.0,
			"0.018": 0.0,
			"0.019": 0.0,
			"0.02": 0.0,
			"0.021": 0.0,
			"0.022": 0.0,
			"0.023": 0.0,
			"0.024": 0.0,
			"0.025": 0.0
		}
	}
}
