{
	 "smiles": "CNC(=O)ON=C(CSC)C(C)(C)C", 
	 "Tm": 330.15, 
	 "num_atms": 32, 
	 "gaussian": { 
		 "optdone": 1, 
		 "sigma_profile": "yes", 
		 "theory": "DFT", 
		 "functional": "B3LYP", 
		 "basiset": "6-31G**", 
		 "properties": { 
			 "R2extent": 4767.7132, 
			 "electric_dipole_moment_norm": 3.28870325356, 
			 "electric_quadrupole_moment_norm": 31.8272514266, 
			 "total_energy": -1011.90803088, 
			 "HOMO_LUMO_gap": 0.20622, 
			 "cosmo_polarized_energy": -16.76, 
			 "cosmo_cavitation_energy": 35.63, 
			 "cosmo_dispersion_energy": -24.36, 
			 "cosmo_repulsion_energy": 1.9, 
			 "cosmo_total_nonelectrostatic_energy": 13.18, 
			 "SMD_solvation_energy": 6.72 
		},
		"coords": [
			{
				"x": -1.6263894914,
				"y": -3.8403761558,
				"z": -0.7733636664,
				"element": "C" 
			},
			{
				"x": -2.8659704479,
				"y": -3.1363496948,
				"z": -1.0645090909,
				"element": "N" 
			},
			{
				"x": -3.135512866,
				"y": -1.8251501537,
				"z": -0.7876377287,
				"element": "C" 
			},
			{
				"x": -4.2256543103,
				"y": -1.3090370018,
				"z": -0.8481051796,
				"element": "O" 
			},
			{
				"x": -1.9480986444,
				"y": -1.1736837552,
				"z": -0.4791317111,
				"element": "O" 
			},
			{
				"x": -2.1921914338,
				"y": 0.1231136413,
				"z": 0.033898604,
				"element": "N" 
			},
			{
				"x": -1.1450728452,
				"y": 0.8690809423,
				"z": 0.0640909517,
				"element": "C" 
			},
			{
				"x": -1.4749332949,
				"y": 2.2005838061,
				"z": 0.7111806184,
				"element": "C" 
			},
			{
				"x": -0.9519153112,
				"y": 2.2090104314,
				"z": 2.4865512819,
				"element": "S" 
			},
			{
				"x": -1.1379009167,
				"y": 3.991749928,
				"z": 2.8344343767,
				"element": "C" 
			},
			{
				"x": 0.2788915246,
				"y": 0.5467987786,
				"z": -0.4374005328,
				"element": "C" 
			},
			{
				"x": 1.2120421076,
				"y": 1.7730102037,
				"z": -0.3323074387,
				"element": "C" 
			},
			{
				"x": 0.2334893827,
				"y": 0.1304371324,
				"z": -1.9285564355,
				"element": "C" 
			},
			{
				"x": 0.8798707863,
				"y": -0.5889418571,
				"z": 0.4264764198,
				"element": "C" 
			},
			{
				"x": -0.7788816704,
				"y": -3.3540035886,
				"z": -1.2619431076,
				"element": "H" 
			},
			{
				"x": -1.7081006363,
				"y": -4.8552954581,
				"z": -1.1685153213,
				"element": "H" 
			},
			{
				"x": -1.4171471169,
				"y": -3.9019311927,
				"z": 0.3019570749,
				"element": "H" 
			},
			{
				"x": -3.7025139742,
				"y": -3.6749638305,
				"z": -1.2283406505,
				"element": "H" 
			},
			{
				"x": -0.9664691225,
				"y": 3.0235354484,
				"z": 0.2034305491,
				"element": "H" 
			},
			{
				"x": -2.5543319509,
				"y": 2.3532171027,
				"z": 0.6637263765,
				"element": "H" 
			},
			{
				"x": -0.4678385687,
				"y": 4.5923645745,
				"z": 2.2128981624,
				"element": "H" 
			},
			{
				"x": -2.1711884559,
				"y": 4.3165335934,
				"z": 2.6864738369,
				"element": "H" 
			},
			{
				"x": -0.8709788453,
				"y": 4.1375543989,
				"z": 3.8834824461,
				"element": "H" 
			},
			{
				"x": 1.2851067565,
				"y": 2.1466385873,
				"z": 0.6923189359,
				"element": "H" 
			},
			{
				"x": 2.2164904196,
				"y": 1.4818507624,
				"z": -0.6560144017,
				"element": "H" 
			},
			{
				"x": 0.8875081904,
				"y": 2.5910643217,
				"z": -0.9842729565,
				"element": "H" 
			},
			{
				"x": -0.353281019,
				"y": -0.7729426838,
				"z": -2.0889424903,
				"element": "H" 
			},
			{
				"x": -0.1955230359,
				"y": 0.9287666594,
				"z": -2.5434826106,
				"element": "H" 
			},
			{
				"x": 1.2544214809,
				"y": -0.0502272228,
				"z": -2.2825587161,
				"element": "H" 
			},
			{
				"x": 0.9767693077,
				"y": -0.2730220709,
				"z": 1.4698601002,
				"element": "H" 
			},
			{
				"x": 1.880083263,
				"y": -0.8406929471,
				"z": 0.0560693218,
				"element": "H" 
			},
			{
				"x": 0.2630207384,
				"y": -1.4877926993,
				"z": 0.395132982,
				"element": "H" 
			}
		],
		 "valence_orbital": [ 
			{
				"type": "occ",
				"energy": -0.27199,
				"method": "rhf"
			},
			{
				"type": "occ",
				"energy": -0.26699,
				"method": "rhf"
			},
			{
				"type": "occ",
				"energy": -0.25987,
				"method": "rhf"
			},
			{
				"type": "occ",
				"energy": -0.25106,
				"method": "rhf"
			},
			{
				"type": "occ",
				"energy": -0.22263,
				"method": "rhf"
			},
			{
				"type": "unocc",
				"energy": -0.01641,
				"method": "rhf"
			},
			{
				"type": "unocc",
				"energy": 0.03294,
				"method": "rhf"
			},
			{
				"type": "unocc",
				"energy": 0.05573,
				"method": "rhf"
			},
			{
				"type": "unocc",
				"energy": 0.06811,
				"method": "rhf"
			},
			{
				"type": "unocc",
				"energy": 0.07746,
				"method": "rhf"
			}
		],
		"cosmo_sigma_profile": { 
			"-0.025": 0.0,
			"-0.024": 0.0,
			"-0.023": 0.0,
			"-0.022": 0.0,
			"-0.021": 0.0,
			"-0.02": 0.0,
			"-0.019": 0.0,
			"-0.018": 0.0,
			"-0.017": 0.0,
			"-0.016": 0.0,
			"-0.015": 0.104846028983,
			"-0.014": 1.27697373401,
			"-0.013": 0.928800319917,
			"-0.012": 1.10098358031,
			"-0.011": 0.729660460949,
			"-0.01": 1.56248445813,
			"-0.009": 0.744722973564,
			"-0.008": 1.5764826194,
			"-0.007": 1.88790042221,
			"-0.006": 10.1123089111,
			"-0.005": 16.1075124637,
			"-0.004": 22.1945200996,
			"-0.003": 30.9625901673,
			"-0.002": 34.7203457478,
			"-0.001": 31.4519696428,
			"0.0": 28.5348796702,
			"0.001": 27.7676080898,
			"0.002": 10.516852789,
			"0.003": 6.9814279838,
			"0.004": 6.53022856929,
			"0.005": 5.8961158573,
			"0.006": 5.66984601587,
			"0.007": 4.61867508868,
			"0.008": 3.18084930167,
			"0.009": 3.47339968318,
			"0.01": 3.24124940352,
			"0.011": 2.36817466178,
			"0.012": 3.21022393182,
			"0.013": 6.42137761577,
			"0.014": 2.02392270687,
			"0.015": 1.67770074064,
			"0.016": 1.04741754689,
			"0.017": 1.01595671272,
			"0.018": 0.241876291407,
			"0.019": 0.0,
			"0.02": 0.0,
			"0.021": 0.0,
			"0.022": 0.0,
			"0.023": 0.0,
			"0.024": 0.0,
			"0.025": 0.0
		}
	}
}
