{
	 "smiles": "NS(=O)(=O)C(F)(F)F", 
	 "Tm": 390.65, 
	 "num_atms": 10, 
	 "gaussian": { 
		 "optdone": 1, 
		 "sigma_profile": "yes", 
		 "theory": "DFT", 
		 "functional": "B3LYP", 
		 "basiset": "6-31G**", 
		 "properties": { 
			 "R2extent": 1282.4572, 
			 "electric_dipole_moment_norm": 3.38770500192, 
			 "electric_quadrupole_moment_norm": 11.3077892636, 
			 "total_energy": -942.131449534, 
			 "HOMO_LUMO_gap": 0.35114, 
			 "cosmo_polarized_energy": -11.75, 
			 "cosmo_cavitation_energy": 17.46, 
			 "cosmo_dispersion_energy": -13.13, 
			 "cosmo_repulsion_energy": 1.0, 
			 "cosmo_total_nonelectrostatic_energy": 5.34, 
			 "SMD_solvation_energy": 3.99 
		},
		"coords": [
			{
				"x": -0.7163118812,
				"y": -2.3353729694,
				"z": -0.0344658161,
				"element": "N" 
			},
			{
				"x": -0.8396310575,
				"y": -0.6789590548,
				"z": -0.2199988273,
				"element": "S" 
			},
			{
				"x": -2.0994889038,
				"y": -0.3705700238,
				"z": -0.8870224081,
				"element": "O" 
			},
			{
				"x": 0.4520288433,
				"y": -0.1538582618,
				"z": -0.6479548443,
				"element": "O" 
			},
			{
				"x": -1.0501185806,
				"y": -0.1629533063,
				"z": 1.5588318367,
				"element": "C" 
			},
			{
				"x": -2.1480920134,
				"y": -0.7245152381,
				"z": 2.0648674738,
				"element": "F" 
			},
			{
				"x": 0.0135581359,
				"y": -0.5415019028,
				"z": 2.2675439361,
				"element": "F" 
			},
			{
				"x": -1.1665195578,
				"y": 1.1637163723,
				"z": 1.6023309547,
				"element": "F" 
			},
			{
				"x": 0.1964293222,
				"y": -2.6751182553,
				"z": -0.3210165542,
				"element": "H" 
			},
			{
				"x": -1.4905543072,
				"y": -2.8184673599,
				"z": -0.4792157514,
				"element": "H" 
			}
		],
		 "valence_orbital": [ 
			{
				"type": "occ",
				"energy": -0.38129,
				"method": "rhf"
			},
			{
				"type": "occ",
				"energy": -0.34894,
				"method": "rhf"
			},
			{
				"type": "occ",
				"energy": -0.33604,
				"method": "rhf"
			},
			{
				"type": "occ",
				"energy": -0.33318,
				"method": "rhf"
			},
			{
				"type": "occ",
				"energy": -0.32279,
				"method": "rhf"
			},
			{
				"type": "unocc",
				"energy": 0.02835,
				"method": "rhf"
			},
			{
				"type": "unocc",
				"energy": 0.0447,
				"method": "rhf"
			},
			{
				"type": "unocc",
				"energy": 0.05341,
				"method": "rhf"
			},
			{
				"type": "unocc",
				"energy": 0.06276,
				"method": "rhf"
			},
			{
				"type": "unocc",
				"energy": 0.08726,
				"method": "rhf"
			}
		],
		"cosmo_sigma_profile": { 
			"-0.025": 0.0,
			"-0.024": 0.0,
			"-0.023": 0.0,
			"-0.022": 0.0,
			"-0.021": 0.0,
			"-0.02": 0.0,
			"-0.019": 0.0,
			"-0.018": 0.0,
			"-0.017": 0.417434474288,
			"-0.016": 2.65356632674,
			"-0.015": 2.6360064377,
			"-0.014": 2.68807059585,
			"-0.013": 2.2738405445,
			"-0.012": 1.75767450518,
			"-0.011": 1.96736924062,
			"-0.01": 2.50846782852,
			"-0.009": 1.8184341969,
			"-0.008": 1.41829131587,
			"-0.007": 1.77211588251,
			"-0.006": 1.34806549081,
			"-0.005": 2.53650818581,
			"-0.004": 2.9700871735,
			"-0.003": 2.62390621087,
			"-0.002": 5.78193052862,
			"-0.001": 9.83233759486,
			"0.0": 18.9010556407,
			"0.001": 27.9250751398,
			"0.002": 6.04364258553,
			"0.003": 3.97073687012,
			"0.004": 2.66475956845,
			"0.005": 3.37739703555,
			"0.006": 5.01294207183,
			"0.007": 2.53687843945,
			"0.008": 5.6965425454,
			"0.009": 12.0171669978,
			"0.01": 4.32221636924,
			"0.011": 0.0,
			"0.012": 0.0,
			"0.013": 0.0,
			"0.014": 0.0,
			"0.015": 0.0,
			"0.016": 0.0,
			"0.017": 0.0,
			"0.018": 0.0,
			"0.019": 0.0,
			"0.02": 0.0,
			"0.021": 0.0,
			"0.022": 0.0,
			"0.023": 0.0,
			"0.024": 0.0,
			"0.025": 0.0
		}
	}
}
