{
	 "smiles": "NC1=CC(=C(C=C1)N1CCCCC1)S(=O)(=O)NC1=CC=C(Cl)C=C1", 
	 "Tm": 419.15, 
	 "num_atms": 44, 
	 "gaussian": { 
		 "optdone": 1, 
		 "sigma_profile": "yes", 
		 "theory": "DFT", 
		 "functional": "B3LYP", 
		 "basiset": "6-31G**", 
		 "properties": { 
			 "R2extent": 12731.4673, 
			 "electric_dipole_moment_norm": 7.62935068535, 
			 "electric_quadrupole_moment_norm": 28.534027691, 
			 "total_energy": -1832.87125792, 
			 "HOMO_LUMO_gap": 0.17755, 
			 "cosmo_polarized_energy": -20.32, 
			 "cosmo_cavitation_energy": 48.14, 
			 "cosmo_dispersion_energy": -33.73, 
			 "cosmo_repulsion_energy": 2.51, 
			 "cosmo_total_nonelectrostatic_energy": 16.92, 
			 "SMD_solvation_energy": 6.17 
		},
		"coords": [
			{
				"x": -4.0730580226,
				"y": 3.3031425026,
				"z": 2.582076102,
				"element": "N" 
			},
			{
				"x": -3.2472424064,
				"y": 2.3198146382,
				"z": 2.0496257465,
				"element": "C" 
			},
			{
				"x": -2.9461346697,
				"y": 2.3002703258,
				"z": 0.6781990124,
				"element": "C" 
			},
			{
				"x": -2.1587077464,
				"y": 1.284942067,
				"z": 0.145533809,
				"element": "C" 
			},
			{
				"x": -1.6387254976,
				"y": 0.2361445679,
				"z": 0.9315703263,
				"element": "C" 
			},
			{
				"x": -1.9464215793,
				"y": 0.2797579297,
				"z": 2.2990569894,
				"element": "C" 
			},
			{
				"x": -2.7274310905,
				"y": 1.2905503196,
				"z": 2.8510538504,
				"element": "C" 
			},
			{
				"x": -0.8238828191,
				"y": -0.7875072209,
				"z": 0.3406276455,
				"element": "N" 
			},
			{
				"x": -1.5826548883,
				"y": -1.9529990519,
				"z": -0.2220074615,
				"element": "C" 
			},
			{
				"x": -1.3430981494,
				"y": -3.2370561423,
				"z": 0.5763609209,
				"element": "C" 
			},
			{
				"x": 0.1512711387,
				"y": -3.6295335608,
				"z": 0.5542722224,
				"element": "C" 
			},
			{
				"x": 1.0537785724,
				"y": -2.3741333633,
				"z": 0.4838196013,
				"element": "C" 
			},
			{
				"x": 0.3659415479,
				"y": -1.1705558809,
				"z": 1.1305247588,
				"element": "C" 
			},
			{
				"x": -1.8986239401,
				"y": 1.3724600574,
				"z": -1.6365628513,
				"element": "S" 
			},
			{
				"x": -2.5201165048,
				"y": 0.2027387394,
				"z": -2.2743065546,
				"element": "O" 
			},
			{
				"x": -2.2780852617,
				"y": 2.7119143568,
				"z": -2.100493276,
				"element": "O" 
			},
			{
				"x": -0.1961094922,
				"y": 1.2643624797,
				"z": -1.6695091293,
				"element": "N" 
			},
			{
				"x": 0.5058868988,
				"y": 1.4163847171,
				"z": -2.8974298506,
				"element": "C" 
			},
			{
				"x": 0.3511902217,
				"y": 2.5648416587,
				"z": -3.6884870178,
				"element": "C" 
			},
			{
				"x": 1.0993358642,
				"y": 2.7166545783,
				"z": -4.8533353498,
				"element": "C" 
			},
			{
				"x": 2.0208690065,
				"y": 1.7361491137,
				"z": -5.2197716478,
				"element": "C" 
			},
			{
				"x": 2.9776644558,
				"y": 1.9422370643,
				"z": -6.6821810378,
				"element": "Cl" 
			},
			{
				"x": 2.1950846395,
				"y": 0.5957504,
				"z": -4.4388567798,
				"element": "C" 
			},
			{
				"x": 1.427125281,
				"y": 0.4349748618,
				"z": -3.2873107362,
				"element": "C" 
			},
			{
				"x": -4.1490751522,
				"y": 4.1540482163,
				"z": 2.043035298,
				"element": "H" 
			},
			{
				"x": -3.9716069239,
				"y": 3.4778510654,
				"z": 3.5716134148,
				"element": "H" 
			},
			{
				"x": -3.305835564,
				"y": 3.0840442292,
				"z": 0.0195408485,
				"element": "H" 
			},
			{
				"x": -1.5684223684,
				"y": -0.4973822229,
				"z": 2.9547552572,
				"element": "H" 
			},
			{
				"x": -2.9442829906,
				"y": 1.2787468593,
				"z": 3.9162612959,
				"element": "H" 
			},
			{
				"x": -2.6412622244,
				"y": -1.6906718265,
				"z": -0.2433159699,
				"element": "H" 
			},
			{
				"x": -1.2834341784,
				"y": -2.1003408218,
				"z": -1.2660385685,
				"element": "H" 
			},
			{
				"x": -1.6817531858,
				"y": -3.0865543861,
				"z": 1.6089838297,
				"element": "H" 
			},
			{
				"x": -1.9615198108,
				"y": -4.0421156564,
				"z": 0.1648406082,
				"element": "H" 
			},
			{
				"x": 0.3910523279,
				"y": -4.2160875232,
				"z": 1.4483773831,
				"element": "H" 
			},
			{
				"x": 0.3584212689,
				"y": -4.276540087,
				"z": -0.3052052915,
				"element": "H" 
			},
			{
				"x": 1.2828371542,
				"y": -2.1290804,
				"z": -0.5607741287,
				"element": "H" 
			},
			{
				"x": 2.0136162279,
				"y": -2.5547034198,
				"z": 0.9784249754,
				"element": "H" 
			},
			{
				"x": 1.0363892848,
				"y": -0.304907618,
				"z": 1.175572421,
				"element": "H" 
			},
			{
				"x": 0.1202772287,
				"y": -1.4329661412,
				"z": 2.1721566515,
				"element": "H" 
			},
			{
				"x": 0.0158936327,
				"y": 0.3973214917,
				"z": -1.1608174348,
				"element": "H" 
			},
			{
				"x": -0.3551218237,
				"y": 3.3290362983,
				"z": -3.389467369,
				"element": "H" 
			},
			{
				"x": 0.9757058461,
				"y": 3.6013287373,
				"z": -5.4681482595,
				"element": "H" 
			},
			{
				"x": 2.9114688072,
				"y": -0.1634402196,
				"z": -4.7325044909,
				"element": "H" 
			},
			{
				"x": 1.5482968856,
				"y": -0.4616917329,
				"z": -2.685459763,
				"element": "H" 
			}
		],
		 "valence_orbital": [ 
			{
				"type": "occ",
				"energy": -0.2683,
				"method": "rhf"
			},
			{
				"type": "occ",
				"energy": -0.25827,
				"method": "rhf"
			},
			{
				"type": "occ",
				"energy": -0.24324,
				"method": "rhf"
			},
			{
				"type": "occ",
				"energy": -0.21891,
				"method": "rhf"
			},
			{
				"type": "occ",
				"energy": -0.20941,
				"method": "rhf"
			},
			{
				"type": "unocc",
				"energy": -0.03186,
				"method": "rhf"
			},
			{
				"type": "unocc",
				"energy": -0.00949,
				"method": "rhf"
			},
			{
				"type": "unocc",
				"energy": -0.00897,
				"method": "rhf"
			},
			{
				"type": "unocc",
				"energy": -0.00575,
				"method": "rhf"
			},
			{
				"type": "unocc",
				"energy": 0.03242,
				"method": "rhf"
			}
		],
		"cosmo_sigma_profile": { 
			"-0.025": 0.0,
			"-0.024": 0.0,
			"-0.023": 0.0,
			"-0.022": 0.0,
			"-0.021": 0.0,
			"-0.02": 0.0,
			"-0.019": 0.0,
			"-0.018": 0.0,
			"-0.017": 0.0,
			"-0.016": 0.0,
			"-0.015": 0.0,
			"-0.014": 0.0576897452305,
			"-0.013": 1.80246302659,
			"-0.012": 2.80708315323,
			"-0.011": 3.76318576715,
			"-0.01": 2.78632803674,
			"-0.009": 3.82451151957,
			"-0.008": 4.7120203389,
			"-0.007": 9.99248334095,
			"-0.006": 15.490235665,
			"-0.005": 17.1953626123,
			"-0.004": 19.5873811911,
			"-0.003": 28.6452163515,
			"-0.002": 37.3275271234,
			"-0.001": 38.0117949944,
			"0.0": 27.0689204929,
			"0.001": 27.5007680387,
			"0.002": 26.8209688163,
			"0.003": 36.0285120086,
			"0.004": 26.2106798188,
			"0.005": 14.6890947531,
			"0.006": 5.07252867858,
			"0.007": 4.97789100328,
			"0.008": 4.74001229745,
			"0.009": 5.9485342884,
			"0.01": 7.11771304823,
			"0.011": 6.20816201266,
			"0.012": 3.95207440127,
			"0.013": 0.569220865642,
			"0.014": 0.0997173210837,
			"0.015": 0.0,
			"0.016": 0.0,
			"0.017": 0.0,
			"0.018": 0.0,
			"0.019": 0.0,
			"0.02": 0.0,
			"0.021": 0.0,
			"0.022": 0.0,
			"0.023": 0.0,
			"0.024": 0.0,
			"0.025": 0.0
		}
	}
}
