{
	 "smiles": "O=C(C1=CC=CC=C1)C1=CC=C(OC2=CC=CC=C2)C=C1", 
	 "Tm": 337.15, 
	 "num_atms": 35, 
	 "gaussian": { 
		 "optdone": 1, 
		 "sigma_profile": "yes", 
		 "theory": "DFT", 
		 "functional": "B3LYP", 
		 "basiset": "6-31G**", 
		 "properties": { 
			 "R2extent": 10357.6029, 
			 "electric_dipole_moment_norm": 2.69152882392, 
			 "electric_quadrupole_moment_norm": 24.849698709, 
			 "total_energy": -882.901785853, 
			 "HOMO_LUMO_gap": 0.16796, 
			 "cosmo_polarized_energy": -11.1, 
			 "cosmo_cavitation_energy": 40.06, 
			 "cosmo_dispersion_energy": -28.63, 
			 "cosmo_repulsion_energy": 2.17, 
			 "cosmo_total_nonelectrostatic_energy": 13.6, 
			 "SMD_solvation_energy": 7.31 
		},
		"coords": [
			{
				"x": -3.6102796313,
				"y": -0.5014890433,
				"z": 2.4396866576,
				"element": "O" 
			},
			{
				"x": -2.7856316034,
				"y": -1.3310072362,
				"z": 2.0661925751,
				"element": "C" 
			},
			{
				"x": -2.8895818482,
				"y": -2.7464354306,
				"z": 2.5591873108,
				"element": "C" 
			},
			{
				"x": -3.4823512961,
				"y": -2.9576478811,
				"z": 3.814466896,
				"element": "C" 
			},
			{
				"x": -3.6528742052,
				"y": -4.2478337728,
				"z": 4.3075951202,
				"element": "C" 
			},
			{
				"x": -3.2582556368,
				"y": -5.3481031318,
				"z": 3.5399771098,
				"element": "C" 
			},
			{
				"x": -2.6940651361,
				"y": -5.1505432584,
				"z": 2.2788438747,
				"element": "C" 
			},
			{
				"x": -2.5042573741,
				"y": -3.856433017,
				"z": 1.7916138918,
				"element": "C" 
			},
			{
				"x": -1.6913823351,
				"y": -0.9273444058,
				"z": 1.1303383122,
				"element": "C" 
			},
			{
				"x": -1.8922487313,
				"y": 0.2183086477,
				"z": 0.3428941116,
				"element": "C" 
			},
			{
				"x": -0.9086541859,
				"y": 0.6868735984,
				"z": -0.5193096092,
				"element": "C" 
			},
			{
				"x": 0.3186143127,
				"y": 0.0130959746,
				"z": -0.5873624736,
				"element": "C" 
			},
			{
				"x": 1.3715412209,
				"y": 0.4236504347,
				"z": -1.3661577175,
				"element": "O" 
			},
			{
				"x": 1.1697103489,
				"y": 1.2550599659,
				"z": -2.4582121177,
				"element": "C" 
			},
			{
				"x": 1.9206826815,
				"y": 2.4283267994,
				"z": -2.5214185927,
				"element": "C" 
			},
			{
				"x": 1.8153038601,
				"y": 3.2476720589,
				"z": -3.6465147661,
				"element": "C" 
			},
			{
				"x": 0.961571308,
				"y": 2.899859541,
				"z": -4.6950602284,
				"element": "C" 
			},
			{
				"x": 0.215904919,
				"y": 1.7207275184,
				"z": -4.6191578858,
				"element": "C" 
			},
			{
				"x": 0.3187688111,
				"y": 0.8886555174,
				"z": -3.504158051,
				"element": "C" 
			},
			{
				"x": 0.5522845775,
				"y": -1.1115604602,
				"z": 0.2118655524,
				"element": "C" 
			},
			{
				"x": -0.4468346684,
				"y": -1.5768155717,
				"z": 1.0595321683,
				"element": "C" 
			},
			{
				"x": -3.8045490981,
				"y": -2.0923125187,
				"z": 4.3841264196,
				"element": "H" 
			},
			{
				"x": -4.0991757735,
				"y": -4.3994242391,
				"z": 5.2862158903,
				"element": "H" 
			},
			{
				"x": -3.3973383744,
				"y": -6.3557262161,
				"z": 3.9214918581,
				"element": "H" 
			},
			{
				"x": -2.4046824976,
				"y": -6.00337945,
				"z": 1.671595388,
				"element": "H" 
			},
			{
				"x": -2.0820800745,
				"y": -3.7107081259,
				"z": 0.802851296,
				"element": "H" 
			},
			{
				"x": -2.8399527886,
				"y": 0.7394099729,
				"z": 0.4289489193,
				"element": "H" 
			},
			{
				"x": -1.0814506798,
				"y": 1.5687879864,
				"z": -1.1252205397,
				"element": "H" 
			},
			{
				"x": 2.5779144054,
				"y": 2.6784444193,
				"z": -1.6952417631,
				"element": "H" 
			},
			{
				"x": 2.4002600946,
				"y": 4.1611837857,
				"z": -3.6994297928,
				"element": "H" 
			},
			{
				"x": 0.8796420907,
				"y": 3.54085443,
				"z": -5.567452572,
				"element": "H" 
			},
			{
				"x": -0.4440803998,
				"y": 1.4402107655,
				"z": -5.4348703454,
				"element": "H" 
			},
			{
				"x": -0.2467563989,
				"y": -0.0352569646,
				"z": -3.4416326043,
				"element": "H" 
			},
			{
				"x": 1.5201996349,
				"y": -1.5985054227,
				"z": 0.1580344933,
				"element": "H" 
			},
			{
				"x": -0.247215528,
				"y": -2.4384952702,
				"z": 1.6871412139,
				"element": "H" 
			}
		],
		 "valence_orbital": [ 
			{
				"type": "occ",
				"energy": -0.25869,
				"method": "rhf"
			},
			{
				"type": "occ",
				"energy": -0.25675,
				"method": "rhf"
			},
			{
				"type": "occ",
				"energy": -0.25537,
				"method": "rhf"
			},
			{
				"type": "occ",
				"energy": -0.24126,
				"method": "rhf"
			},
			{
				"type": "occ",
				"energy": -0.22657,
				"method": "rhf"
			},
			{
				"type": "unocc",
				"energy": -0.05861,
				"method": "rhf"
			},
			{
				"type": "unocc",
				"energy": -0.01817,
				"method": "rhf"
			},
			{
				"type": "unocc",
				"energy": -0.01226,
				"method": "rhf"
			},
			{
				"type": "unocc",
				"energy": -0.00799,
				"method": "rhf"
			},
			{
				"type": "unocc",
				"energy": -0.00282,
				"method": "rhf"
			}
		],
		"cosmo_sigma_profile": { 
			"-0.025": 0.0,
			"-0.024": 0.0,
			"-0.023": 0.0,
			"-0.022": 0.0,
			"-0.021": 0.0,
			"-0.02": 0.0,
			"-0.019": 0.0,
			"-0.018": 0.0,
			"-0.017": 0.0,
			"-0.016": 0.0,
			"-0.015": 0.0,
			"-0.014": 0.0,
			"-0.013": 0.0,
			"-0.012": 0.0,
			"-0.011": 0.0,
			"-0.01": 0.0,
			"-0.009": 0.0,
			"-0.008": 0.0,
			"-0.007": 3.92258501921,
			"-0.006": 22.9172556664,
			"-0.005": 26.3354678749,
			"-0.004": 30.204140498,
			"-0.003": 24.2135330326,
			"-0.002": 23.2856206519,
			"-0.001": 22.4572220055,
			"0.0": 23.0443266003,
			"0.001": 22.7327183504,
			"0.002": 27.3831168591,
			"0.003": 32.4356169324,
			"0.004": 28.2638774812,
			"0.005": 13.8205793313,
			"0.006": 2.87047100815,
			"0.007": 3.12624845061,
			"0.008": 3.56056398361,
			"0.009": 1.22251990134,
			"0.01": 2.22643004831,
			"0.011": 2.71253539346,
			"0.012": 3.90857393031,
			"0.013": 1.82802362202,
			"0.014": 0.0,
			"0.015": 0.0,
			"0.016": 0.0,
			"0.017": 0.0,
			"0.018": 0.0,
			"0.019": 0.0,
			"0.02": 0.0,
			"0.021": 0.0,
			"0.022": 0.0,
			"0.023": 0.0,
			"0.024": 0.0,
			"0.025": 0.0
		}
	}
}
