{
	 "smiles": "CCCCCCCCCCCCC=C", 
	 "Tm": 260.65, 
	 "num_atms": 42, 
	 "gaussian": { 
		 "optdone": 1, 
		 "sigma_profile": "yes", 
		 "theory": "DFT", 
		 "functional": "B3LYP", 
		 "basiset": "6-31G**", 
		 "properties": { 
			 "R2extent": 5988.0905, 
			 "electric_dipole_moment_norm": 0.474008786838, 
			 "electric_quadrupole_moment_norm": 3.15558699135, 
			 "total_energy": -550.374860486, 
			 "HOMO_LUMO_gap": 0.27796, 
			 "cosmo_polarized_energy": -1.96, 
			 "cosmo_cavitation_energy": 41.52, 
			 "cosmo_dispersion_energy": -28.04, 
			 "cosmo_repulsion_energy": 2.32, 
			 "cosmo_total_nonelectrostatic_energy": 15.8, 
			 "SMD_solvation_energy": 6.28 
		},
		"coords": [
			{
				"x": 0.5397865318,
				"y": -3.9238198309,
				"z": 1.8404965369,
				"element": "C" 
			},
			{
				"x": 0.2712946795,
				"y": -3.0554343371,
				"z": 0.6063558645,
				"element": "C" 
			},
			{
				"x": -0.0236639647,
				"y": -3.8869820517,
				"z": -0.6495829242,
				"element": "C" 
			},
			{
				"x": -0.1865389117,
				"y": -3.1043055136,
				"z": -1.9651862583,
				"element": "C" 
			},
			{
				"x": -1.3869722906,
				"y": -2.1341355049,
				"z": -2.0364820932,
				"element": "C" 
			},
			{
				"x": -1.0929522318,
				"y": -0.6891370388,
				"z": -1.6014072488,
				"element": "C" 
			},
			{
				"x": -2.320118997,
				"y": 0.2253985797,
				"z": -1.71885344,
				"element": "C" 
			},
			{
				"x": -2.13313035,
				"y": 1.6735743369,
				"z": -1.2307866316,
				"element": "C" 
			},
			{
				"x": -1.1100950359,
				"y": 2.5176948487,
				"z": -2.0269881549,
				"element": "C" 
			},
			{
				"x": 0.3230342429,
				"y": 2.5503527981,
				"z": -1.4618506253,
				"element": "C" 
			},
			{
				"x": 0.4669578737,
				"y": 3.3720166003,
				"z": -0.1726565021,
				"element": "C" 
			},
			{
				"x": 1.9023867817,
				"y": 3.3880489071,
				"z": 0.3619126435,
				"element": "C" 
			},
			{
				"x": 2.136956046,
				"y": 4.1824887713,
				"z": 1.6215135282,
				"element": "C" 
			},
			{
				"x": 1.2295853275,
				"y": 4.871107206,
				"z": 2.3154366192,
				"element": "C" 
			},
			{
				"x": 1.4044458952,
				"y": -4.5789434774,
				"z": 1.6833434477,
				"element": "H" 
			},
			{
				"x": -0.3202096473,
				"y": -4.5641113643,
				"z": 2.068645865,
				"element": "H" 
			},
			{
				"x": 0.7421542226,
				"y": -3.3122318003,
				"z": 2.7259615901,
				"element": "H" 
			},
			{
				"x": -0.5713749065,
				"y": -2.3855591785,
				"z": 0.8166750553,
				"element": "H" 
			},
			{
				"x": 1.1384271403,
				"y": -2.4072230548,
				"z": 0.4186908853,
				"element": "H" 
			},
			{
				"x": -0.9315868906,
				"y": -4.4830163334,
				"z": -0.4762669999,
				"element": "H" 
			},
			{
				"x": 0.7896411178,
				"y": -4.6144006179,
				"z": -0.7824368754,
				"element": "H" 
			},
			{
				"x": 0.7400355517,
				"y": -2.5525594957,
				"z": -2.1792243216,
				"element": "H" 
			},
			{
				"x": -0.2842793757,
				"y": -3.841717277,
				"z": -2.7717915666,
				"element": "H" 
			},
			{
				"x": -2.2176927353,
				"y": -2.5363170378,
				"z": -1.4386057505,
				"element": "H" 
			},
			{
				"x": -1.7564360654,
				"y": -2.102818239,
				"z": -3.0702742435,
				"element": "H" 
			},
			{
				"x": -0.2763236158,
				"y": -0.2994595154,
				"z": -2.2232284177,
				"element": "H" 
			},
			{
				"x": -0.7243720657,
				"y": -0.6698199797,
				"z": -0.5681825774,
				"element": "H" 
			},
			{
				"x": -2.6522895541,
				"y": 0.2446216276,
				"z": -2.7672243994,
				"element": "H" 
			},
			{
				"x": -3.146840703,
				"y": -0.2250597793,
				"z": -1.1517147929,
				"element": "H" 
			},
			{
				"x": -3.1121925244,
				"y": 2.1659325894,
				"z": -1.2808986084,
				"element": "H" 
			},
			{
				"x": -1.8635692761,
				"y": 1.6647662926,
				"z": -0.1660350155,
				"element": "H" 
			},
			{
				"x": -1.4692267769,
				"y": 3.5535456462,
				"z": -2.0900066357,
				"element": "H" 
			},
			{
				"x": -1.08053919,
				"y": 2.1530521112,
				"z": -3.0626489342,
				"element": "H" 
			},
			{
				"x": 0.6806749985,
				"y": 1.5287293976,
				"z": -1.2820930171,
				"element": "H" 
			},
			{
				"x": 0.9916299031,
				"y": 2.9751304516,
				"z": -2.2232889627,
				"element": "H" 
			},
			{
				"x": 0.1366066164,
				"y": 4.4020350818,
				"z": -0.3637616596,
				"element": "H" 
			},
			{
				"x": -0.2005409513,
				"y": 2.9753666202,
				"z": 0.6028005731,
				"element": "H" 
			},
			{
				"x": 2.2370372703,
				"y": 2.3538274145,
				"z": 0.5378486373,
				"element": "H" 
			},
			{
				"x": 2.57842834,
				"y": 3.7697076054,
				"z": -0.4190857874,
				"element": "H" 
			},
			{
				"x": 3.1673831799,
				"y": 4.1753531805,
				"z": 1.9799109164,
				"element": "H" 
			},
			{
				"x": 1.5029787247,
				"y": 5.4133292012,
				"z": 3.2157983109,
				"element": "H" 
			},
			{
				"x": 0.1862016159,
				"y": 4.9235721595,
				"z": 2.0186719705,
				"element": "H" 
			}
		],
		 "valence_orbital": [ 
			{
				"type": "occ",
				"energy": -0.30636,
				"method": "rhf"
			},
			{
				"type": "occ",
				"energy": -0.30201,
				"method": "rhf"
			},
			{
				"type": "occ",
				"energy": -0.30132,
				"method": "rhf"
			},
			{
				"type": "occ",
				"energy": -0.29319,
				"method": "rhf"
			},
			{
				"type": "occ",
				"energy": -0.24825,
				"method": "rhf"
			},
			{
				"type": "unocc",
				"energy": 0.02971,
				"method": "rhf"
			},
			{
				"type": "unocc",
				"energy": 0.08447,
				"method": "rhf"
			},
			{
				"type": "unocc",
				"energy": 0.09292,
				"method": "rhf"
			},
			{
				"type": "unocc",
				"energy": 0.10298,
				"method": "rhf"
			},
			{
				"type": "unocc",
				"energy": 0.10666,
				"method": "rhf"
			}
		],
		"cosmo_sigma_profile": { 
			"-0.025": 0.0,
			"-0.024": 0.0,
			"-0.023": 0.0,
			"-0.022": 0.0,
			"-0.021": 0.0,
			"-0.02": 0.0,
			"-0.019": 0.0,
			"-0.018": 0.0,
			"-0.017": 0.0,
			"-0.016": 0.0,
			"-0.015": 0.0,
			"-0.014": 0.0,
			"-0.013": 0.0,
			"-0.012": 0.0,
			"-0.011": 0.0,
			"-0.01": 0.0,
			"-0.009": 0.0,
			"-0.008": 0.0,
			"-0.007": 0.0,
			"-0.006": 0.0,
			"-0.005": 0.616743373241,
			"-0.004": 4.44550504835,
			"-0.003": 10.9404856757,
			"-0.002": 39.3718036697,
			"-0.001": 77.6287453265,
			"0.0": 79.5087695818,
			"0.001": 57.8687268624,
			"0.002": 29.3909466259,
			"0.003": 4.34594171985,
			"0.004": 4.07414373969,
			"0.005": 3.27692991164,
			"0.006": 2.62908525428,
			"0.007": 2.60705965465,
			"0.008": 1.6616063777,
			"0.009": 0.0525952645404,
			"0.01": 0.0,
			"0.011": 0.0,
			"0.012": 0.0,
			"0.013": 0.0,
			"0.014": 0.0,
			"0.015": 0.0,
			"0.016": 0.0,
			"0.017": 0.0,
			"0.018": 0.0,
			"0.019": 0.0,
			"0.02": 0.0,
			"0.021": 0.0,
			"0.022": 0.0,
			"0.023": 0.0,
			"0.024": 0.0,
			"0.025": 0.0
		}
	}
}
