{
	 "smiles": "CC(C)=NNC1=CC=CC=C1", 
	 "Tm": 315.15, 
	 "num_atms": 23, 
	 "gaussian": { 
		 "optdone": 1, 
		 "sigma_profile": "yes", 
		 "theory": "DFT", 
		 "functional": "B3LYP", 
		 "basiset": "6-31G**", 
		 "properties": { 
			 "R2extent": 2894.3066, 
			 "electric_dipole_moment_norm": 2.70481393445, 
			 "electric_quadrupole_moment_norm": 10.6975360144, 
			 "total_energy": -459.667701621, 
			 "HOMO_LUMO_gap": 0.18471, 
			 "cosmo_polarized_energy": -9.06, 
			 "cosmo_cavitation_energy": 26.46, 
			 "cosmo_dispersion_energy": -19.42, 
			 "cosmo_repulsion_energy": 1.58, 
			 "cosmo_total_nonelectrostatic_energy": 8.63, 
			 "SMD_solvation_energy": 4.24 
		},
		"coords": [
			{
				"x": 2.0495669895,
				"y": 1.4487633613,
				"z": 2.7916270844,
				"element": "C" 
			},
			{
				"x": 0.8875323284,
				"y": 1.9811331112,
				"z": 1.9995088207,
				"element": "C" 
			},
			{
				"x": 0.5085424256,
				"y": 3.4367254758,
				"z": 2.1577168621,
				"element": "C" 
			},
			{
				"x": 0.2729510332,
				"y": 1.1565005647,
				"z": 1.223601847,
				"element": "N" 
			},
			{
				"x": -0.781780359,
				"y": 1.5962367104,
				"z": 0.4974533783,
				"element": "N" 
			},
			{
				"x": -1.4514724133,
				"y": 0.7531911409,
				"z": -0.3876398113,
				"element": "C" 
			},
			{
				"x": -1.1045816902,
				"y": -0.6006665923,
				"z": -0.5268605443,
				"element": "C" 
			},
			{
				"x": -1.8103866352,
				"y": -1.4039509171,
				"z": -1.419430037,
				"element": "C" 
			},
			{
				"x": -2.8612969303,
				"y": -0.8883401314,
				"z": -2.1825550214,
				"element": "C" 
			},
			{
				"x": -3.2023049541,
				"y": 0.4583897763,
				"z": -2.0405303264,
				"element": "C" 
			},
			{
				"x": -2.5074470851,
				"y": 1.2763095223,
				"z": -1.1530138911,
				"element": "C" 
			},
			{
				"x": 2.1995645832,
				"y": 0.3898199049,
				"z": 2.5736551136,
				"element": "H" 
			},
			{
				"x": 1.8816974734,
				"y": 1.567132693,
				"z": 3.8703509631,
				"element": "H" 
			},
			{
				"x": 2.9736980245,
				"y": 1.9924440219,
				"z": 2.5545939563,
				"element": "H" 
			},
			{
				"x": 1.157837176,
				"y": 3.937113381,
				"z": 2.8789091708,
				"element": "H" 
			},
			{
				"x": -0.5264518597,
				"y": 3.5475891547,
				"z": 2.5098302135,
				"element": "H" 
			},
			{
				"x": 0.5898120071,
				"y": 3.982378932,
				"z": 1.2069712537,
				"element": "H" 
			},
			{
				"x": -1.0492078956,
				"y": 2.5731188479,
				"z": 0.5154588218,
				"element": "H" 
			},
			{
				"x": -0.2894004125,
				"y": -0.9968931336,
				"z": 0.0655443459,
				"element": "H" 
			},
			{
				"x": -1.5321723605,
				"y": -2.4498943384,
				"z": -1.5184811637,
				"element": "H" 
			},
			{
				"x": -3.4042382728,
				"y": -1.5239887771,
				"z": -2.8750131204,
				"element": "H" 
			},
			{
				"x": -4.0158438023,
				"y": 0.880215162,
				"z": -2.6244419448,
				"element": "H" 
			},
			{
				"x": -2.7810173704,
				"y": 2.3242721295,
				"z": -1.0490559709,
				"element": "H" 
			}
		],
		 "valence_orbital": [ 
			{
				"type": "occ",
				"energy": -0.33289,
				"method": "rhf"
			},
			{
				"type": "occ",
				"energy": -0.27112,
				"method": "rhf"
			},
			{
				"type": "occ",
				"energy": -0.26462,
				"method": "rhf"
			},
			{
				"type": "occ",
				"energy": -0.2393,
				"method": "rhf"
			},
			{
				"type": "occ",
				"energy": -0.18496,
				"method": "rhf"
			},
			{
				"type": "unocc",
				"energy": -0.00025,
				"method": "rhf"
			},
			{
				"type": "unocc",
				"energy": 0.01137,
				"method": "rhf"
			},
			{
				"type": "unocc",
				"energy": 0.04569,
				"method": "rhf"
			},
			{
				"type": "unocc",
				"energy": 0.07498,
				"method": "rhf"
			},
			{
				"type": "unocc",
				"energy": 0.10457,
				"method": "rhf"
			}
		],
		"cosmo_sigma_profile": { 
			"-0.025": 0.0,
			"-0.024": 0.0,
			"-0.023": 0.0,
			"-0.022": 0.0,
			"-0.021": 0.0,
			"-0.02": 0.0,
			"-0.019": 0.0,
			"-0.018": 0.0,
			"-0.017": 0.0,
			"-0.016": 0.0,
			"-0.015": 0.0,
			"-0.014": 0.0,
			"-0.013": 0.299418514985,
			"-0.012": 1.4281250502,
			"-0.011": 1.44924936241,
			"-0.01": 1.38509639967,
			"-0.009": 1.6711706913,
			"-0.008": 2.36226500814,
			"-0.007": 2.17441839327,
			"-0.006": 3.63115736463,
			"-0.005": 11.6583085146,
			"-0.004": 19.1887018682,
			"-0.003": 22.1619579943,
			"-0.002": 21.2137910792,
			"-0.001": 19.3043465617,
			"0.0": 18.402224904,
			"0.001": 10.2038041146,
			"0.002": 8.32292245475,
			"0.003": 8.42282557434,
			"0.004": 11.698662376,
			"0.005": 13.8792087554,
			"0.006": 13.3021693584,
			"0.007": 9.87513700465,
			"0.008": 3.07691420528,
			"0.009": 1.93525553416,
			"0.01": 1.81152965036,
			"0.011": 0.645447839488,
			"0.012": 0.0,
			"0.013": 0.0,
			"0.014": 0.0,
			"0.015": 0.0,
			"0.016": 0.0,
			"0.017": 0.0,
			"0.018": 0.0,
			"0.019": 0.0,
			"0.02": 0.0,
			"0.021": 0.0,
			"0.022": 0.0,
			"0.023": 0.0,
			"0.024": 0.0,
			"0.025": 0.0
		}
	}
}
