{
	 "smiles": "N#CC1=C(N=CC=C1)N1C=NC=N1", 
	 "Tm": 475.15, 
	 "num_atms": 18, 
	 "gaussian": { 
		 "optdone": 1, 
		 "sigma_profile": "yes", 
		 "theory": "DFT", 
		 "functional": "B3LYP", 
		 "basiset": "6-31G**", 
		 "properties": { 
			 "R2extent": 2766.0679, 
			 "electric_dipole_moment_norm": 5.3984840511, 
			 "electric_quadrupole_moment_norm": 5.62347163147, 
			 "total_energy": -581.574368324, 
			 "HOMO_LUMO_gap": 0.18676, 
			 "cosmo_polarized_energy": -15.14, 
			 "cosmo_cavitation_energy": 24.35, 
			 "cosmo_dispersion_energy": -17.54, 
			 "cosmo_repulsion_energy": 1.36, 
			 "cosmo_total_nonelectrostatic_energy": 8.17, 
			 "SMD_solvation_energy": 2.99 
		},
		"coords": [
			{
				"x": 1.2845898097,
				"y": 2.9619857947,
				"z": 0.5014354408,
				"element": "N" 
			},
			{
				"x": 0.7404098363,
				"y": 1.9608336165,
				"z": 0.2692505305,
				"element": "C" 
			},
			{
				"x": 0.2199862685,
				"y": 0.6369231323,
				"z": 0.0979890348,
				"element": "C" 
			},
			{
				"x": -0.9328773555,
				"y": 0.2811990833,
				"z": -0.640294335,
				"element": "C" 
			},
			{
				"x": -1.3620605835,
				"y": -0.9744428302,
				"z": -0.7585617227,
				"element": "N" 
			},
			{
				"x": -0.6793924977,
				"y": -1.9489517243,
				"z": -0.1561943053,
				"element": "C" 
			},
			{
				"x": 0.4714867526,
				"y": -1.7219519583,
				"z": 0.598608436,
				"element": "C" 
			},
			{
				"x": 0.9181048776,
				"y": -0.4130699209,
				"z": 0.7213883139,
				"element": "C" 
			},
			{
				"x": -1.7288273328,
				"y": 1.2252683154,
				"z": -1.3158191327,
				"element": "N" 
			},
			{
				"x": -2.8588102514,
				"y": 0.9935239885,
				"z": -2.0555003221,
				"element": "C" 
			},
			{
				"x": -3.3234409616,
				"y": 2.1265801892,
				"z": -2.5311558596,
				"element": "N" 
			},
			{
				"x": -2.4321100113,
				"y": 3.0497972312,
				"z": -2.0508009629,
				"element": "C" 
			},
			{
				"x": -1.454084239,
				"y": 2.5599419686,
				"z": -1.3144065186,
				"element": "N" 
			},
			{
				"x": -1.0732536446,
				"y": -2.9544481373,
				"z": -0.2851735961,
				"element": "H" 
			},
			{
				"x": 0.9975123254,
				"y": -2.5428670948,
				"z": 1.0724700738,
				"element": "H" 
			},
			{
				"x": 1.8070645553,
				"y": -0.175338032,
				"z": 1.2957483671,
				"element": "H" 
			},
			{
				"x": -3.2642940688,
				"y": 0.004076204,
				"z": -2.1944622914,
				"element": "H" 
			},
			{
				"x": -2.5104034789,
				"y": 4.1090401742,
				"z": -2.2521211506,
				"element": "H" 
			}
		],
		 "valence_orbital": [ 
			{
				"type": "occ",
				"energy": -0.30919,
				"method": "rhf"
			},
			{
				"type": "occ",
				"energy": -0.30132,
				"method": "rhf"
			},
			{
				"type": "occ",
				"energy": -0.29123,
				"method": "rhf"
			},
			{
				"type": "occ",
				"energy": -0.28734,
				"method": "rhf"
			},
			{
				"type": "occ",
				"energy": -0.26448,
				"method": "rhf"
			},
			{
				"type": "unocc",
				"energy": -0.07772,
				"method": "rhf"
			},
			{
				"type": "unocc",
				"energy": -0.06811,
				"method": "rhf"
			},
			{
				"type": "unocc",
				"energy": 0.01171,
				"method": "rhf"
			},
			{
				"type": "unocc",
				"energy": 0.02924,
				"method": "rhf"
			},
			{
				"type": "unocc",
				"energy": 0.04202,
				"method": "rhf"
			}
		],
		"cosmo_sigma_profile": { 
			"-0.025": 0.0,
			"-0.024": 0.0,
			"-0.023": 0.0,
			"-0.022": 0.0,
			"-0.021": 0.0,
			"-0.02": 0.0,
			"-0.019": 0.0,
			"-0.018": 0.0,
			"-0.017": 0.0,
			"-0.016": 0.0,
			"-0.015": 0.0,
			"-0.014": 0.0,
			"-0.013": 0.0,
			"-0.012": 0.0,
			"-0.011": 0.194102704835,
			"-0.01": 2.31835418302,
			"-0.009": 6.80052754752,
			"-0.008": 10.0551614794,
			"-0.007": 10.7522542976,
			"-0.006": 7.13649192709,
			"-0.005": 8.95404091528,
			"-0.004": 14.6402016664,
			"-0.003": 19.0745611647,
			"-0.002": 15.604111752,
			"-0.001": 16.4497367869,
			"0.0": 12.1900267447,
			"0.001": 7.86524758924,
			"0.002": 6.63054700844,
			"0.003": 5.80797577859,
			"0.004": 5.82423163245,
			"0.005": 5.96422896847,
			"0.006": 3.94997710195,
			"0.007": 6.47821110065,
			"0.008": 6.12339000217,
			"0.009": 6.65219759362,
			"0.01": 6.0720007172,
			"0.011": 5.13863567658,
			"0.012": 3.90468435502,
			"0.013": 2.26314754741,
			"0.014": 1.06861520463,
			"0.015": 0.744196915669,
			"0.016": 0.298842300461,
			"0.017": 0.0,
			"0.018": 0.0,
			"0.019": 0.0,
			"0.02": 0.0,
			"0.021": 0.0,
			"0.022": 0.0,
			"0.023": 0.0,
			"0.024": 0.0,
			"0.025": 0.0
		}
	}
}
