{
	 "smiles": "OC1=CC=C(C=C1)C(=O)OC1=CC=CC=C1", 
	 "Tm": 450.15, 
	 "num_atms": 26, 
	 "gaussian": { 
		 "optdone": 1, 
		 "sigma_profile": "yes", 
		 "theory": "DFT", 
		 "functional": "B3LYP", 
		 "basiset": "6-31G**", 
		 "properties": { 
			 "R2extent": 5739.5449, 
			 "electric_dipole_moment_norm": 3.33270085816, 
			 "electric_quadrupole_moment_norm": 15.9051296983, 
			 "total_energy": -727.089974573, 
			 "HOMO_LUMO_gap": 0.19001, 
			 "cosmo_polarized_energy": -13.27, 
			 "cosmo_cavitation_energy": 31.37, 
			 "cosmo_dispersion_energy": -22.94, 
			 "cosmo_repulsion_energy": 1.77, 
			 "cosmo_total_nonelectrostatic_energy": 10.19, 
			 "SMD_solvation_energy": 6.66 
		},
		"coords": [
			{
				"x": -0.6931757293,
				"y": -4.4410441197,
				"z": 2.3540102349,
				"element": "O" 
			},
			{
				"x": -0.8793311468,
				"y": -3.2709795122,
				"z": 1.6860098542,
				"element": "C" 
			},
			{
				"x": -1.9782592257,
				"y": -2.4843859724,
				"z": 2.0608643443,
				"element": "C" 
			},
			{
				"x": -2.2123852581,
				"y": -1.2818985325,
				"z": 1.4117714211,
				"element": "C" 
			},
			{
				"x": -1.3634156664,
				"y": -0.8413658298,
				"z": 0.3822379443,
				"element": "C" 
			},
			{
				"x": -0.2678215491,
				"y": -1.6353175239,
				"z": 0.0143785425,
				"element": "C" 
			},
			{
				"x": -0.0249559228,
				"y": -2.8424092602,
				"z": 0.6609552865,
				"element": "C" 
			},
			{
				"x": -1.6753725484,
				"y": 0.4544985979,
				"z": -0.2649502171,
				"element": "C" 
			},
			{
				"x": -2.6059469598,
				"y": 1.1716977581,
				"z": 0.032770287,
				"element": "O" 
			},
			{
				"x": -0.7726899751,
				"y": 0.7462712503,
				"z": -1.2577974723,
				"element": "O" 
			},
			{
				"x": -0.8721435752,
				"y": 1.9213289349,
				"z": -2.0019020068,
				"element": "C" 
			},
			{
				"x": -0.6620006558,
				"y": 1.7900803258,
				"z": -3.3741107028,
				"element": "C" 
			},
			{
				"x": -0.6638131498,
				"y": 2.9284105939,
				"z": -4.1800882817,
				"element": "C" 
			},
			{
				"x": -0.8772399285,
				"y": 4.1874208434,
				"z": -3.6156955642,
				"element": "C" 
			},
			{
				"x": -1.08443595,
				"y": 4.3016802925,
				"z": -2.2395123102,
				"element": "C" 
			},
			{
				"x": -1.0809485477,
				"y": 3.172254957,
				"z": -1.4195230202,
				"element": "C" 
			},
			{
				"x": 0.0902461011,
				"y": -4.8883715444,
				"z": 2.0075321276,
				"element": "H" 
			},
			{
				"x": -2.6264247104,
				"y": -2.8353362748,
				"z": 2.8566415532,
				"element": "H" 
			},
			{
				"x": -3.056430702,
				"y": -0.6588985713,
				"z": 1.6874872824,
				"element": "H" 
			},
			{
				"x": 0.392206211,
				"y": -1.3035593524,
				"z": -0.7784099592,
				"element": "H" 
			},
			{
				"x": 0.8269212572,
				"y": -3.4544673527,
				"z": 0.3724398073,
				"element": "H" 
			},
			{
				"x": -0.4977427475,
				"y": 0.8014330607,
				"z": -3.7901009341,
				"element": "H" 
			},
			{
				"x": -0.4993240212,
				"y": 2.828249723,
				"z": -5.2489486969,
				"element": "H" 
			},
			{
				"x": -0.881392815,
				"y": 5.0735067694,
				"z": -4.2432494165,
				"element": "H" 
			},
			{
				"x": -1.2500962868,
				"y": 5.2782917525,
				"z": -1.794021933,
				"element": "H" 
			},
			{
				"x": -1.2488264977,
				"y": 3.2574089868,
				"z": -0.3540881702,
				"element": "H" 
			}
		],
		 "valence_orbital": [ 
			{
				"type": "occ",
				"energy": -0.27541,
				"method": "rhf"
			},
			{
				"type": "occ",
				"energy": -0.2649,
				"method": "rhf"
			},
			{
				"type": "occ",
				"energy": -0.25018,
				"method": "rhf"
			},
			{
				"type": "occ",
				"energy": -0.24092,
				"method": "rhf"
			},
			{
				"type": "occ",
				"energy": -0.23272,
				"method": "rhf"
			},
			{
				"type": "unocc",
				"energy": -0.04271,
				"method": "rhf"
			},
			{
				"type": "unocc",
				"energy": -0.01266,
				"method": "rhf"
			},
			{
				"type": "unocc",
				"energy": -0.00139,
				"method": "rhf"
			},
			{
				"type": "unocc",
				"energy": 0.00563,
				"method": "rhf"
			},
			{
				"type": "unocc",
				"energy": 0.05942,
				"method": "rhf"
			}
		],
		"cosmo_sigma_profile": { 
			"-0.025": 0.0,
			"-0.024": 0.0,
			"-0.023": 0.0,
			"-0.022": 0.0,
			"-0.021": 0.0,
			"-0.02": 0.0,
			"-0.019": 0.115773757539,
			"-0.018": 1.15354989507,
			"-0.017": 1.07652840987,
			"-0.016": 1.02545060279,
			"-0.015": 1.37610102886,
			"-0.014": 1.05738988994,
			"-0.013": 0.641320669337,
			"-0.012": 1.00861929291,
			"-0.011": 0.921293162477,
			"-0.01": 1.55712495912,
			"-0.009": 0.544230838345,
			"-0.008": 1.63820025352,
			"-0.007": 4.02204290446,
			"-0.006": 13.9675333768,
			"-0.005": 16.3475743442,
			"-0.004": 18.920221925,
			"-0.003": 13.8740479739,
			"-0.002": 15.2990027188,
			"-0.001": 12.9805863261,
			"0.0": 17.5888018456,
			"0.001": 19.5406329344,
			"0.002": 22.8193965818,
			"0.003": 27.6212031262,
			"0.004": 18.8246137633,
			"0.005": 13.5035864156,
			"0.006": 3.4665374738,
			"0.007": 3.45581089132,
			"0.008": 2.96794832753,
			"0.009": 3.71276295123,
			"0.01": 3.72557074696,
			"0.011": 4.8051460496,
			"0.012": 2.42208476559,
			"0.013": 0.0,
			"0.014": 0.0,
			"0.015": 0.0,
			"0.016": 0.0,
			"0.017": 0.0,
			"0.018": 0.0,
			"0.019": 0.0,
			"0.02": 0.0,
			"0.021": 0.0,
			"0.022": 0.0,
			"0.023": 0.0,
			"0.024": 0.0,
			"0.025": 0.0
		}
	}
}
