{
	 "smiles": "CC1=C(OC(=N1)C1=CC=C(C=C1)C1=NC(C)=C(O1)C1=CC=CC=C1)C1=CC=CC=C1", 
	 "Tm": 506.15, 
	 "num_atms": 50, 
	 "gaussian": { 
		 "optdone": 1, 
		 "sigma_profile": "yes", 
		 "theory": "DFT", 
		 "functional": "B3LYP", 
		 "basiset": "6-31G**", 
		 "properties": { 
			 "R2extent": 24156.8007, 
			 "electric_dipole_moment_norm": 1.97685540442, 
			 "electric_quadrupole_moment_norm": 31.177958616, 
			 "total_energy": -1262.79998951, 
			 "HOMO_LUMO_gap": 0.12718, 
			 "cosmo_polarized_energy": -12.25, 
			 "cosmo_cavitation_energy": 55.35, 
			 "cosmo_dispersion_energy": -39.66, 
			 "cosmo_repulsion_energy": 2.9, 
			 "cosmo_total_nonelectrostatic_energy": 18.59, 
			 "SMD_solvation_energy": 6.58 
		},
		"coords": [
			{
				"x": -7.1388038365,
				"y": 0.3091088174,
				"z": 0.4692350337,
				"element": "C" 
			},
			{
				"x": -5.6872878171,
				"y": 0.2102554965,
				"z": 0.8201232244,
				"element": "C" 
			},
			{
				"x": -5.0711394416,
				"y": -0.2777054344,
				"z": 1.9515598988,
				"element": "C" 
			},
			{
				"x": -3.7138068254,
				"y": -0.1052249111,
				"z": 1.7709409158,
				"element": "O" 
			},
			{
				"x": -3.5786780603,
				"y": 0.4679025824,
				"z": 0.5443509597,
				"element": "C" 
			},
			{
				"x": -4.7219579015,
				"y": 0.6728985304,
				"z": -0.0540045527,
				"element": "N" 
			},
			{
				"x": -2.2426441303,
				"y": 0.7745961894,
				"z": 0.0565433724,
				"element": "C" 
			},
			{
				"x": -2.0917617785,
				"y": 1.3747079232,
				"z": -1.2080453879,
				"element": "C" 
			},
			{
				"x": -0.8303276161,
				"y": 1.6769429938,
				"z": -1.6951520374,
				"element": "C" 
			},
			{
				"x": 0.3167058487,
				"y": 1.3879162755,
				"z": -0.9317071677,
				"element": "C" 
			},
			{
				"x": 0.1666295735,
				"y": 0.7877763061,
				"z": 0.3300108259,
				"element": "C" 
			},
			{
				"x": -1.0979670091,
				"y": 0.4846969214,
				"z": 0.8182948934,
				"element": "C" 
			},
			{
				"x": 1.6294556279,
				"y": 1.7158376229,
				"z": -1.4666639582,
				"element": "C" 
			},
			{
				"x": 1.917218116,
				"y": 2.2614193299,
				"z": -2.618468207,
				"element": "N" 
			},
			{
				"x": 3.2953539836,
				"y": 2.3609710652,
				"z": -2.64871154,
				"element": "C" 
			},
			{
				"x": 3.9866063801,
				"y": 2.9712272886,
				"z": -3.8274810272,
				"element": "C" 
			},
			{
				"x": 3.80777073,
				"y": 1.8510246534,
				"z": -1.4760434303,
				"element": "C" 
			},
			{
				"x": 2.7308481647,
				"y": 1.4412943249,
				"z": -0.7164151772,
				"element": "O" 
			},
			{
				"x": 5.1332298927,
				"y": 1.6861434567,
				"z": -0.8977983364,
				"element": "C" 
			},
			{
				"x": 5.28113347,
				"y": 1.4071744473,
				"z": 0.4752007466,
				"element": "C" 
			},
			{
				"x": 6.545950822,
				"y": 1.2568686011,
				"z": 1.036300344,
				"element": "C" 
			},
			{
				"x": 7.690838561,
				"y": 1.38250922,
				"z": 0.2456657661,
				"element": "C" 
			},
			{
				"x": 7.55621555,
				"y": 1.6529504579,
				"z": -1.1174077707,
				"element": "C" 
			},
			{
				"x": 6.2936979314,
				"y": 1.7989487856,
				"z": -1.6877725253,
				"element": "C" 
			},
			{
				"x": -5.5071106656,
				"y": -0.8673391625,
				"z": 3.2087701874,
				"element": "C" 
			},
			{
				"x": -6.8230445139,
				"y": -1.3405577125,
				"z": 3.3759299945,
				"element": "C" 
			},
			{
				"x": -7.2298999537,
				"y": -1.8896336743,
				"z": 4.5898168129,
				"element": "C" 
			},
			{
				"x": -6.3360534044,
				"y": -1.988456375,
				"z": 5.6577583266,
				"element": "C" 
			},
			{
				"x": -5.0250043269,
				"y": -1.5327970185,
				"z": 5.4991262694,
				"element": "C" 
			},
			{
				"x": -4.6123098268,
				"y": -0.9776366061,
				"z": 4.2913781959,
				"element": "C" 
			},
			{
				"x": -7.5464622181,
				"y": -0.6529266294,
				"z": 0.1349726604,
				"element": "H" 
			},
			{
				"x": -7.258280773,
				"y": 1.0220007751,
				"z": -0.3492836429,
				"element": "H" 
			},
			{
				"x": -7.7400783257,
				"y": 0.6477770992,
				"z": 1.3186299857,
				"element": "H" 
			},
			{
				"x": -2.979493099,
				"y": 1.5949953662,
				"z": -1.7907895148,
				"element": "H" 
			},
			{
				"x": -0.707026411,
				"y": 2.139448291,
				"z": -2.6683278759,
				"element": "H" 
			},
			{
				"x": 1.0456376161,
				"y": 0.5591775916,
				"z": 0.9226348242,
				"element": "H" 
			},
			{
				"x": -1.2059490958,
				"y": 0.019583695,
				"z": 1.7920081241,
				"element": "H" 
			},
			{
				"x": 3.2596300144,
				"y": 3.5419981034,
				"z": -4.4090533027,
				"element": "H" 
			},
			{
				"x": 4.4181425513,
				"y": 2.2100680485,
				"z": -4.4891960774,
				"element": "H" 
			},
			{
				"x": 4.7948284109,
				"y": 3.6427273138,
				"z": -3.5217118334,
				"element": "H" 
			},
			{
				"x": 4.3966009955,
				"y": 1.3145910329,
				"z": 1.0955547511,
				"element": "H" 
			},
			{
				"x": 6.6382332574,
				"y": 1.0437200039,
				"z": 2.0974844209,
				"element": "H" 
			},
			{
				"x": 8.6765539055,
				"y": 1.2667145155,
				"z": 0.6862990667,
				"element": "H" 
			},
			{
				"x": 8.4387108074,
				"y": 1.742084396,
				"z": -1.7444866411,
				"element": "H" 
			},
			{
				"x": 6.2095271684,
				"y": 1.9822847228,
				"z": -2.7525264874,
				"element": "H" 
			},
			{
				"x": -7.524433721,
				"y": -1.2966402152,
				"z": 2.5510146483,
				"element": "H" 
			},
			{
				"x": -8.2488732778,
				"y": -2.2502536997,
				"z": 4.6976083246,
				"element": "H" 
			},
			{
				"x": -6.6560315436,
				"y": -2.4194524081,
				"z": 6.6017147227,
				"element": "H" 
			},
			{
				"x": -4.3198170858,
				"y": -1.6071016797,
				"z": 6.3220797191,
				"element": "H" 
			},
			{
				"x": -3.59497672,
				"y": -0.6203167182,
				"z": 4.1767394781,
				"element": "H" 
			}
		],
		 "valence_orbital": [ 
			{
				"type": "occ",
				"energy": -0.25889,
				"method": "rhf"
			},
			{
				"type": "occ",
				"energy": -0.25568,
				"method": "rhf"
			},
			{
				"type": "occ",
				"energy": -0.25564,
				"method": "rhf"
			},
			{
				"type": "occ",
				"energy": -0.21577,
				"method": "rhf"
			},
			{
				"type": "occ",
				"energy": -0.19378,
				"method": "rhf"
			},
			{
				"type": "unocc",
				"energy": -0.0666,
				"method": "rhf"
			},
			{
				"type": "unocc",
				"energy": -0.03298,
				"method": "rhf"
			},
			{
				"type": "unocc",
				"energy": -0.01537,
				"method": "rhf"
			},
			{
				"type": "unocc",
				"energy": -0.00595,
				"method": "rhf"
			},
			{
				"type": "unocc",
				"energy": -0.00544,
				"method": "rhf"
			}
		],
		"cosmo_sigma_profile": { 
			"-0.025": 0.0,
			"-0.024": 0.0,
			"-0.023": 0.0,
			"-0.022": 0.0,
			"-0.021": 0.0,
			"-0.02": 0.0,
			"-0.019": 0.0,
			"-0.018": 0.0,
			"-0.017": 0.0,
			"-0.016": 0.0,
			"-0.015": 0.0,
			"-0.014": 0.0,
			"-0.013": 0.0,
			"-0.012": 0.0,
			"-0.011": 0.0,
			"-0.01": 0.0,
			"-0.009": 0.0,
			"-0.008": 0.0,
			"-0.007": 0.810015268072,
			"-0.006": 17.8688429005,
			"-0.005": 37.9435886116,
			"-0.004": 40.6634142583,
			"-0.003": 32.7010431542,
			"-0.002": 31.0248418898,
			"-0.001": 40.4278834209,
			"0.0": 45.7312310616,
			"0.001": 44.5355486257,
			"0.002": 42.4330479334,
			"0.003": 37.7425534124,
			"0.004": 27.0275336021,
			"0.005": 24.7729429682,
			"0.006": 5.09891042952,
			"0.007": 2.91381287778,
			"0.008": 3.11803774542,
			"0.009": 2.10653394053,
			"0.01": 2.30377037798,
			"0.011": 1.92258644817,
			"0.012": 1.69046998928,
			"0.013": 1.69727014493,
			"0.014": 0.78802695861,
			"0.015": 0.0,
			"0.016": 0.0,
			"0.017": 0.0,
			"0.018": 0.0,
			"0.019": 0.0,
			"0.02": 0.0,
			"0.021": 0.0,
			"0.022": 0.0,
			"0.023": 0.0,
			"0.024": 0.0,
			"0.025": 0.0
		}
	}
}
