{
	 "smiles": "BrC1=CC=CC(=C1)C#N", 
	 "Tm": 312.35, 
	 "num_atms": 13, 
	 "gaussian": { 
		 "optdone": 1, 
		 "sigma_profile": "yes", 
		 "theory": "DFT", 
		 "functional": "B3LYP", 
		 "basiset": "6-31G**", 
		 "properties": { 
			 "R2extent": 2824.5284, 
			 "electric_dipole_moment_norm": 3.87056995028, 
			 "electric_quadrupole_moment_norm": 16.489064938, 
			 "total_energy": -2895.29180016, 
			 "HOMO_LUMO_gap": 0.20017, 
			 "cosmo_polarized_energy": -8.27, 
			 "cosmo_cavitation_energy": 21.03, 
			 "cosmo_dispersion_energy": -15.41, 
			 "cosmo_repulsion_energy": 1.26, 
			 "cosmo_total_nonelectrostatic_energy": 6.88, 
			 "SMD_solvation_energy": 3.95 
		},
		"coords": [
			{
				"x": -0.4001166852,
				"y": -2.8142280956,
				"z": 1.0804554853,
				"element": "Br" 
			},
			{
				"x": 0.140878589,
				"y": -0.9873707182,
				"z": 1.0128658794,
				"element": "C" 
			},
			{
				"x": 0.0329262167,
				"y": -0.2829895755,
				"z": -0.1869803858,
				"element": "C" 
			},
			{
				"x": 0.4304440234,
				"y": 1.0545024965,
				"z": -0.2313873986,
				"element": "C" 
			},
			{
				"x": 0.930031261,
				"y": 1.6851784144,
				"z": 0.9050742588,
				"element": "C" 
			},
			{
				"x": 1.032961435,
				"y": 0.9636298559,
				"z": 2.1059186472,
				"element": "C" 
			},
			{
				"x": 0.6363211927,
				"y": -0.382791659,
				"z": 2.1636818987,
				"element": "C" 
			},
			{
				"x": 1.5460222989,
				"y": 1.6008185786,
				"z": 3.2847558943,
				"element": "C" 
			},
			{
				"x": 1.9622990267,
				"y": 2.1198961471,
				"z": 4.2387597687,
				"element": "N" 
			},
			{
				"x": -0.3560237223,
				"y": -0.7743900326,
				"z": -1.0713240643,
				"element": "H" 
			},
			{
				"x": 0.347955004,
				"y": 1.6054308143,
				"z": -1.1626978018,
				"element": "H" 
			},
			{
				"x": 1.2396283192,
				"y": 2.7236041746,
				"z": 0.8741240124,
				"element": "H" 
			},
			{
				"x": 0.716473041,
				"y": -0.9373904005,
				"z": 3.0904538057,
				"element": "H" 
			}
		],
		 "valence_orbital": [ 
			{
				"type": "occ",
				"energy": -0.33922,
				"method": "rhf"
			},
			{
				"type": "occ",
				"energy": -0.32726,
				"method": "rhf"
			},
			{
				"type": "occ",
				"energy": -0.30395,
				"method": "rhf"
			},
			{
				"type": "occ",
				"energy": -0.28203,
				"method": "rhf"
			},
			{
				"type": "occ",
				"energy": -0.26473,
				"method": "rhf"
			},
			{
				"type": "unocc",
				"energy": -0.06456,
				"method": "rhf"
			},
			{
				"type": "unocc",
				"energy": -0.03883,
				"method": "rhf"
			},
			{
				"type": "unocc",
				"energy": -0.01225,
				"method": "rhf"
			},
			{
				"type": "unocc",
				"energy": 0.02991,
				"method": "rhf"
			},
			{
				"type": "unocc",
				"energy": 0.06478,
				"method": "rhf"
			}
		],
		"cosmo_sigma_profile": { 
			"-0.025": 0.0,
			"-0.024": 0.0,
			"-0.023": 0.0,
			"-0.022": 0.0,
			"-0.021": 0.0,
			"-0.02": 0.0,
			"-0.019": 0.0,
			"-0.018": 0.0,
			"-0.017": 0.0,
			"-0.016": 0.0,
			"-0.015": 0.0,
			"-0.014": 0.0,
			"-0.013": 0.0,
			"-0.012": 0.0,
			"-0.011": 0.0,
			"-0.01": 0.0,
			"-0.009": 1.70977973822,
			"-0.008": 7.38025268418,
			"-0.007": 10.0775846173,
			"-0.006": 8.09490325874,
			"-0.005": 8.08130033749,
			"-0.004": 7.88078063489,
			"-0.003": 9.50367043502,
			"-0.002": 12.3338981183,
			"-0.001": 13.3615952495,
			"0.0": 18.6150612837,
			"0.001": 19.4932675844,
			"0.002": 10.8541764913,
			"0.003": 11.1897086068,
			"0.004": 10.8999498573,
			"0.005": 3.8522759449,
			"0.006": 2.40695602179,
			"0.007": 2.52882380781,
			"0.008": 3.78769571734,
			"0.009": 3.12752880689,
			"0.01": 3.10190279504,
			"0.011": 2.64310699161,
			"0.012": 2.29385289755,
			"0.013": 0.983807534121,
			"0.014": 0.0,
			"0.015": 0.0,
			"0.016": 0.0,
			"0.017": 0.0,
			"0.018": 0.0,
			"0.019": 0.0,
			"0.02": 0.0,
			"0.021": 0.0,
			"0.022": 0.0,
			"0.023": 0.0,
			"0.024": 0.0,
			"0.025": 0.0
		}
	}
}
