{
	 "smiles": "O=C(CN1CCC(=O)CC1)NCC#N", 
	 "Tm": 398.15, 
	 "num_atms": 27, 
	 "gaussian": { 
		 "optdone": 1, 
		 "sigma_profile": "yes", 
		 "theory": "DFT", 
		 "functional": "B3LYP", 
		 "basiset": "6-31G**", 
		 "properties": { 
			 "R2extent": 3455.7227, 
			 "electric_dipole_moment_norm": 2.88215290538, 
			 "electric_quadrupole_moment_norm": 26.3334190923, 
			 "total_energy": -665.466075401, 
			 "HOMO_LUMO_gap": 0.21779, 
			 "cosmo_polarized_energy": -22.14, 
			 "cosmo_cavitation_energy": 30.57, 
			 "cosmo_dispersion_energy": -20.78, 
			 "cosmo_repulsion_energy": 1.66, 
			 "cosmo_total_nonelectrostatic_energy": 11.45, 
			 "SMD_solvation_energy": 6.68 
		},
		"coords": [
			{
				"x": -0.9844723386,
				"y": 2.7884624993,
				"z": 0.6718934463,
				"element": "O" 
			},
			{
				"x": -1.4044366034,
				"y": 1.6945539324,
				"z": 0.3275942477,
				"element": "C" 
			},
			{
				"x": -0.8262265889,
				"y": 0.3983132503,
				"z": 0.9081926685,
				"element": "C" 
			},
			{
				"x": -0.2885202744,
				"y": -0.498890215,
				"z": -0.1193249502,
				"element": "N" 
			},
			{
				"x": 0.8297030726,
				"y": 0.0679805634,
				"z": -0.886045381,
				"element": "C" 
			},
			{
				"x": 2.160139883,
				"y": 0.1494373344,
				"z": -0.0927823974,
				"element": "C" 
			},
			{
				"x": 2.50282258,
				"y": -1.1920222481,
				"z": 0.5369301023,
				"element": "C" 
			},
			{
				"x": 3.6027640266,
				"y": -1.7028217535,
				"z": 0.4486487478,
				"element": "O" 
			},
			{
				"x": 1.3414480922,
				"y": -1.8565904465,
				"z": 1.2633126856,
				"element": "C" 
			},
			{
				"x": 0.0585440436,
				"y": -1.8300226513,
				"z": 0.3917064905,
				"element": "C" 
			},
			{
				"x": -2.4120335984,
				"y": 1.5868150311,
				"z": -0.6056704667,
				"element": "N" 
			},
			{
				"x": -3.1254558407,
				"y": 0.3766557019,
				"z": -0.9733669025,
				"element": "C" 
			},
			{
				"x": -4.2127500638,
				"y": 0.0169542919,
				"z": -0.0395351654,
				"element": "C" 
			},
			{
				"x": -5.0516817484,
				"y": -0.2642583041,
				"z": 0.7117288735,
				"element": "N" 
			},
			{
				"x": -0.0956335414,
				"y": 0.7278684998,
				"z": 1.6599229802,
				"element": "H" 
			},
			{
				"x": -1.6228212715,
				"y": -0.1377246772,
				"z": 1.4400870597,
				"element": "H" 
			},
			{
				"x": 0.9769148589,
				"y": -0.5663478406,
				"z": -1.7685208423,
				"element": "H" 
			},
			{
				"x": 0.5514925517,
				"y": 1.061015604,
				"z": -1.249876542,
				"element": "H" 
			},
			{
				"x": 2.9858782276,
				"y": 0.463516139,
				"z": -0.7367420669,
				"element": "H" 
			},
			{
				"x": 2.0592195345,
				"y": 0.8955660484,
				"z": 0.7070387762,
				"element": "H" 
			},
			{
				"x": 1.6230881187,
				"y": -2.8797149558,
				"z": 1.5263429806,
				"element": "H" 
			},
			{
				"x": 1.1595902305,
				"y": -1.3081775083,
				"z": 2.1978042728,
				"element": "H" 
			},
			{
				"x": 0.2038244591,
				"y": -2.489052919,
				"z": -0.4731271298,
				"element": "H" 
			},
			{
				"x": -0.7908770398,
				"y": -2.2267629502,
				"z": 0.9574064356,
				"element": "H" 
			},
			{
				"x": -2.8214483788,
				"y": 2.477766534,
				"z": -0.8577925136,
				"element": "H" 
			},
			{
				"x": -2.4036413741,
				"y": -0.4457000768,
				"z": -1.0216537315,
				"element": "H" 
			},
			{
				"x": -3.5522310168,
				"y": 0.5018811166,
				"z": -1.9734716776,
				"element": "H" 
			}
		],
		 "valence_orbital": [ 
			{
				"type": "occ",
				"energy": -0.34086,
				"method": "rhf"
			},
			{
				"type": "occ",
				"energy": -0.28247,
				"method": "rhf"
			},
			{
				"type": "occ",
				"energy": -0.26962,
				"method": "rhf"
			},
			{
				"type": "occ",
				"energy": -0.24733,
				"method": "rhf"
			},
			{
				"type": "occ",
				"energy": -0.2441,
				"method": "rhf"
			},
			{
				"type": "unocc",
				"energy": -0.02631,
				"method": "rhf"
			},
			{
				"type": "unocc",
				"energy": -0.00716,
				"method": "rhf"
			},
			{
				"type": "unocc",
				"energy": 0.01361,
				"method": "rhf"
			},
			{
				"type": "unocc",
				"energy": 0.02466,
				"method": "rhf"
			},
			{
				"type": "unocc",
				"energy": 0.0656,
				"method": "rhf"
			}
		],
		"cosmo_sigma_profile": { 
			"-0.025": 0.0,
			"-0.024": 0.0,
			"-0.023": 0.0,
			"-0.022": 0.0,
			"-0.021": 0.0,
			"-0.02": 0.0,
			"-0.019": 0.0,
			"-0.018": 0.0,
			"-0.017": 0.0,
			"-0.016": 0.0,
			"-0.015": 0.638304898605,
			"-0.014": 1.70576211856,
			"-0.013": 1.53081608123,
			"-0.012": 1.28853966707,
			"-0.011": 1.29725530268,
			"-0.01": 3.92024921171,
			"-0.009": 3.3345115103,
			"-0.008": 4.23415309591,
			"-0.007": 10.7067526737,
			"-0.006": 17.7617941583,
			"-0.005": 21.7383166488,
			"-0.004": 21.8430290569,
			"-0.003": 23.1029866768,
			"-0.002": 17.806639892,
			"-0.001": 12.0237882432,
			"0.0": 8.72514786596,
			"0.001": 7.49672094107,
			"0.002": 6.69435810653,
			"0.003": 7.11410858192,
			"0.004": 4.75137661193,
			"0.005": 4.74706273861,
			"0.006": 5.41249096532,
			"0.007": 5.53652931318,
			"0.008": 5.11379857737,
			"0.009": 6.12005288858,
			"0.01": 6.95673394567,
			"0.011": 7.10307356988,
			"0.012": 10.0065482095,
			"0.013": 9.60508911086,
			"0.014": 2.43886713656,
			"0.015": 0.0327878582021,
			"0.016": 0.0,
			"0.017": 0.0,
			"0.018": 0.0,
			"0.019": 0.0,
			"0.02": 0.0,
			"0.021": 0.0,
			"0.022": 0.0,
			"0.023": 0.0,
			"0.024": 0.0,
			"0.025": 0.0
		}
	}
}
