{
	 "smiles": "OCCCCCCCCCC=C", 
	 "Tm": 270.65, 
	 "num_atms": 34, 
	 "gaussian": { 
		 "optdone": 1, 
		 "sigma_profile": "yes", 
		 "theory": "DFT", 
		 "functional": "B3LYP", 
		 "basiset": "6-31G**", 
		 "properties": { 
			 "R2extent": 4858.842, 
			 "electric_dipole_moment_norm": 1.66455427668, 
			 "electric_quadrupole_moment_norm": 11.6357083364, 
			 "total_energy": -507.642109999, 
			 "HOMO_LUMO_gap": 0.27248, 
			 "cosmo_polarized_energy": -6.99, 
			 "cosmo_cavitation_energy": 35.14, 
			 "cosmo_dispersion_energy": -24.26, 
			 "cosmo_repulsion_energy": 2.01, 
			 "cosmo_total_nonelectrostatic_energy": 12.9, 
			 "SMD_solvation_energy": 5.61 
		},
		"coords": [
			{
				"x": -3.7131771013,
				"y": -3.3730690665,
				"z": -0.0207014608,
				"element": "O" 
			},
			{
				"x": -3.0640057152,
				"y": -2.4789758962,
				"z": 0.8773203784,
				"element": "C" 
			},
			{
				"x": -3.3213201655,
				"y": -1.0041822751,
				"z": 0.5522385488,
				"element": "C" 
			},
			{
				"x": -2.9378877452,
				"y": -0.594639918,
				"z": -0.8801981976,
				"element": "C" 
			},
			{
				"x": -1.438438879,
				"y": -0.6654988716,
				"z": -1.2170946387,
				"element": "C" 
			},
			{
				"x": -0.5512087277,
				"y": 0.3006066281,
				"z": -0.4194545281,
				"element": "C" 
			},
			{
				"x": 0.9202631205,
				"y": 0.2708782752,
				"z": -0.8548613515,
				"element": "C" 
			},
			{
				"x": 1.8087688421,
				"y": 1.2334955317,
				"z": -0.0544652071,
				"element": "C" 
			},
			{
				"x": 3.2701263441,
				"y": 1.3091343917,
				"z": -0.5292023196,
				"element": "C" 
			},
			{
				"x": 4.0863456841,
				"y": 0.0005425485,
				"z": -0.4182481626,
				"element": "C" 
			},
			{
				"x": 4.2311100742,
				"y": -0.5176931941,
				"z": 0.9876757001,
				"element": "C" 
			},
			{
				"x": 5.3816298063,
				"y": -0.5991278367,
				"z": 1.6574091845,
				"element": "C" 
			},
			{
				"x": -4.6638399313,
				"y": -3.2127741677,
				"z": 0.0446370719,
				"element": "H" 
			},
			{
				"x": -1.9973249755,
				"y": -2.7123173406,
				"z": 0.7956408793,
				"element": "H" 
			},
			{
				"x": -3.3557000257,
				"y": -2.6822193996,
				"z": 1.9204219158,
				"element": "H" 
			},
			{
				"x": -2.7920268343,
				"y": -0.3879135808,
				"z": 1.2907241944,
				"element": "H" 
			},
			{
				"x": -4.3908520878,
				"y": -0.7958601474,
				"z": 0.7047787295,
				"element": "H" 
			},
			{
				"x": -3.2949707736,
				"y": 0.4281387921,
				"z": -1.0605586308,
				"element": "H" 
			},
			{
				"x": -3.4835414228,
				"y": -1.2429691285,
				"z": -1.5752114833,
				"element": "H" 
			},
			{
				"x": -1.3187860775,
				"y": -0.4497172871,
				"z": -2.2874182764,
				"element": "H" 
			},
			{
				"x": -1.0745876766,
				"y": -1.6928052308,
				"z": -1.0821158153,
				"element": "H" 
			},
			{
				"x": -0.6087504289,
				"y": 0.0683345514,
				"z": 0.6527496897,
				"element": "H" 
			},
			{
				"x": -0.940598751,
				"y": 1.3234663488,
				"z": -0.5277950355,
				"element": "H" 
			},
			{
				"x": 1.2978725822,
				"y": -0.7563497857,
				"z": -0.7614423327,
				"element": "H" 
			},
			{
				"x": 0.9868549455,
				"y": 0.5207400327,
				"z": -1.9237794526,
				"element": "H" 
			},
			{
				"x": 1.776705418,
				"y": 0.9603335386,
				"z": 1.0089043769,
				"element": "H" 
			},
			{
				"x": 1.3776073247,
				"y": 2.242052945,
				"z": -0.1141873648,
				"element": "H" 
			},
			{
				"x": 3.7883337343,
				"y": 2.0878043816,
				"z": 0.0442967638,
				"element": "H" 
			},
			{
				"x": 3.2856352695,
				"y": 1.6350264555,
				"z": -1.5782132699,
				"element": "H" 
			},
			{
				"x": 3.6158048987,
				"y": -0.7715503367,
				"z": -1.0428982943,
				"element": "H" 
			},
			{
				"x": 5.0831937042,
				"y": 0.1732683473,
				"z": -0.8415234225,
				"element": "H" 
			},
			{
				"x": 3.3153370321,
				"y": -0.843283982,
				"z": 1.4821046192,
				"element": "H" 
			},
			{
				"x": 6.3243742861,
				"y": -0.2923053689,
				"z": 1.2091782143,
				"element": "H" 
			},
			{
				"x": 5.4278542521,
				"y": -0.9777699544,
				"z": 2.6744889774,
				"element": "H" 
			}
		],
		 "valence_orbital": [ 
			{
				"type": "occ",
				"energy": -0.31314,
				"method": "rhf"
			},
			{
				"type": "occ",
				"energy": -0.30516,
				"method": "rhf"
			},
			{
				"type": "occ",
				"energy": -0.29868,
				"method": "rhf"
			},
			{
				"type": "occ",
				"energy": -0.26273,
				"method": "rhf"
			},
			{
				"type": "occ",
				"energy": -0.24904,
				"method": "rhf"
			},
			{
				"type": "unocc",
				"energy": 0.02344,
				"method": "rhf"
			},
			{
				"type": "unocc",
				"energy": 0.07043,
				"method": "rhf"
			},
			{
				"type": "unocc",
				"energy": 0.08768,
				"method": "rhf"
			},
			{
				"type": "unocc",
				"energy": 0.10518,
				"method": "rhf"
			},
			{
				"type": "unocc",
				"energy": 0.10969,
				"method": "rhf"
			}
		],
		"cosmo_sigma_profile": { 
			"-0.025": 0.0,
			"-0.024": 0.0,
			"-0.023": 0.0,
			"-0.022": 0.0,
			"-0.021": 0.0,
			"-0.02": 0.0,
			"-0.019": 0.0,
			"-0.018": 0.0,
			"-0.017": 0.0,
			"-0.016": 0.0,
			"-0.015": 0.55127793211,
			"-0.014": 1.0650923705,
			"-0.013": 0.776032308044,
			"-0.012": 0.71262113675,
			"-0.011": 0.759980807798,
			"-0.01": 1.4060157938,
			"-0.009": 1.31601735474,
			"-0.008": 0.312132721783,
			"-0.007": 0.670653709445,
			"-0.006": 1.33795011127,
			"-0.005": 2.05383019684,
			"-0.004": 6.98309103189,
			"-0.003": 19.8734619162,
			"-0.002": 40.860371348,
			"-0.001": 52.5424477532,
			"0.0": 49.846807361,
			"0.001": 36.676911862,
			"0.002": 15.6872932924,
			"0.003": 5.9256613802,
			"0.004": 6.42693662705,
			"0.005": 4.82371672703,
			"0.006": 3.36577805682,
			"0.007": 3.72574450054,
			"0.008": 2.62706342218,
			"0.009": 1.03169362485,
			"0.01": 1.24752756798,
			"0.011": 1.06635331136,
			"0.012": 1.53795749133,
			"0.013": 1.37710269275,
			"0.014": 1.7777034406,
			"0.015": 1.69959816958,
			"0.016": 0.0,
			"0.017": 0.0,
			"0.018": 0.0,
			"0.019": 0.0,
			"0.02": 0.0,
			"0.021": 0.0,
			"0.022": 0.0,
			"0.023": 0.0,
			"0.024": 0.0,
			"0.025": 0.0
		}
	}
}
