{
	 "smiles": "SCCCNC1=NC=CC=N1", 
	 "Tm": 319.15, 
	 "num_atms": 22, 
	 "gaussian": { 
		 "optdone": 1, 
		 "sigma_profile": "yes", 
		 "theory": "DFT", 
		 "functional": "B3LYP", 
		 "basiset": "6-31G**", 
		 "properties": { 
			 "R2extent": 2999.7711, 
			 "electric_dipole_moment_norm": 1.97256138561, 
			 "electric_quadrupole_moment_norm": 5.73689001289, 
			 "total_energy": -835.824548904, 
			 "HOMO_LUMO_gap": 0.18856, 
			 "cosmo_polarized_energy": -10.74, 
			 "cosmo_cavitation_energy": 27.11, 
			 "cosmo_dispersion_energy": -20.12, 
			 "cosmo_repulsion_energy": 1.59, 
			 "cosmo_total_nonelectrostatic_energy": 8.58, 
			 "SMD_solvation_energy": 1.5 
		},
		"coords": [
			{
				"x": -2.7098858072,
				"y": -2.3156681592,
				"z": -1.8249179414,
				"element": "S" 
			},
			{
				"x": -1.7837139485,
				"y": -0.7502826311,
				"z": -1.4921473099,
				"element": "C" 
			},
			{
				"x": -1.8040395315,
				"y": -0.2647707709,
				"z": -0.0414821887,
				"element": "C" 
			},
			{
				"x": -1.0461887412,
				"y": -1.1565091096,
				"z": 0.9531896908,
				"element": "C" 
			},
			{
				"x": 0.3653750769,
				"y": -1.3266650267,
				"z": 0.638728034,
				"element": "N" 
			},
			{
				"x": 1.3390926013,
				"y": -0.425198145,
				"z": 0.9489316877,
				"element": "C" 
			},
			{
				"x": 2.6065723552,
				"y": -0.8070843511,
				"z": 0.665584472,
				"element": "N" 
			},
			{
				"x": 3.5570613412,
				"y": 0.072728049,
				"z": 0.9702562404,
				"element": "C" 
			},
			{
				"x": 3.2909900801,
				"y": 1.3163590682,
				"z": 1.5490631468,
				"element": "C" 
			},
			{
				"x": 1.9485605406,
				"y": 1.5947202882,
				"z": 1.7935675552,
				"element": "C" 
			},
			{
				"x": 0.9602213185,
				"y": 0.7458733284,
				"z": 1.5005744271,
				"element": "N" 
			},
			{
				"x": -1.8216805266,
				"y": -3.1716001666,
				"z": -1.2808461874,
				"element": "H" 
			},
			{
				"x": -0.7590948065,
				"y": -0.8665331078,
				"z": -1.8545196044,
				"element": "H" 
			},
			{
				"x": -2.273244845,
				"y": -0.0179548967,
				"z": -2.1397908739,
				"element": "H" 
			},
			{
				"x": -1.3558683195,
				"y": 0.7353720936,
				"z": -0.0069029382,
				"element": "H" 
			},
			{
				"x": -2.8411700117,
				"y": -0.1698474731,
				"z": 0.3007037929,
				"element": "H" 
			},
			{
				"x": -1.4969142,
				"y": -2.1535885606,
				"z": 0.9840283361,
				"element": "H" 
			},
			{
				"x": -1.1364714743,
				"y": -0.7227909659,
				"z": 1.9538934886,
				"element": "H" 
			},
			{
				"x": 0.7066291605,
				"y": -2.2055301759,
				"z": 0.2818878391,
				"element": "H" 
			},
			{
				"x": 4.578850984,
				"y": -0.2299666223,
				"z": 0.7430924512,
				"element": "H" 
			},
			{
				"x": 4.0788826455,
				"y": 2.0195233241,
				"z": 1.79057717,
				"element": "H" 
			},
			{
				"x": 1.6463361082,
				"y": 2.5404140111,
				"z": 2.242228712,
				"element": "H" 
			}
		],
		 "valence_orbital": [ 
			{
				"type": "occ",
				"energy": -0.30944,
				"method": "rhf"
			},
			{
				"type": "occ",
				"energy": -0.30785,
				"method": "rhf"
			},
			{
				"type": "occ",
				"energy": -0.24636,
				"method": "rhf"
			},
			{
				"type": "occ",
				"energy": -0.23792,
				"method": "rhf"
			},
			{
				"type": "occ",
				"energy": -0.22033,
				"method": "rhf"
			},
			{
				"type": "unocc",
				"energy": -0.03177,
				"method": "rhf"
			},
			{
				"type": "unocc",
				"energy": 0.00154,
				"method": "rhf"
			},
			{
				"type": "unocc",
				"energy": 0.02579,
				"method": "rhf"
			},
			{
				"type": "unocc",
				"energy": 0.05836,
				"method": "rhf"
			},
			{
				"type": "unocc",
				"energy": 0.10318,
				"method": "rhf"
			}
		],
		"cosmo_sigma_profile": { 
			"-0.025": 0.0,
			"-0.024": 0.0,
			"-0.023": 0.0,
			"-0.022": 0.0,
			"-0.021": 0.0,
			"-0.02": 0.0,
			"-0.019": 0.0,
			"-0.018": 0.0,
			"-0.017": 0.0,
			"-0.016": 0.0,
			"-0.015": 0.0,
			"-0.014": 0.0349758653081,
			"-0.013": 0.585174864995,
			"-0.012": 1.13859459584,
			"-0.011": 1.07493395486,
			"-0.01": 2.50844554881,
			"-0.009": 3.02053135375,
			"-0.008": 3.36465783926,
			"-0.007": 6.18214677829,
			"-0.006": 10.8658371287,
			"-0.005": 12.214907589,
			"-0.004": 14.5991029073,
			"-0.003": 16.6899501305,
			"-0.002": 20.2772945549,
			"-0.001": 16.3743609055,
			"0.0": 14.4468786641,
			"0.001": 16.042333291,
			"0.002": 16.8080575267,
			"0.003": 11.4576164256,
			"0.004": 8.5488779451,
			"0.005": 6.93541942208,
			"0.006": 5.82584380092,
			"0.007": 6.20993714416,
			"0.008": 5.92010356478,
			"0.009": 3.58054438252,
			"0.01": 4.44693331762,
			"0.011": 2.86299753909,
			"0.012": 1.41236811936,
			"0.013": 1.61864644568,
			"0.014": 0.988629922962,
			"0.015": 0.584330179648,
			"0.016": 0.0226126625998,
			"0.017": 0.0,
			"0.018": 0.0,
			"0.019": 0.0,
			"0.02": 0.0,
			"0.021": 0.0,
			"0.022": 0.0,
			"0.023": 0.0,
			"0.024": 0.0,
			"0.025": 0.0
		}
	}
}
