{
	 "smiles": "CC1=NC(=NN1)C1=CC(NC(=O)CCl)=C(C)C=C1", 
	 "Tm": 571.15, 
	 "num_atms": 31, 
	 "gaussian": { 
		 "optdone": 1, 
		 "sigma_profile": "yes", 
		 "theory": "DFT", 
		 "functional": "B3LYP", 
		 "basiset": "6-31G**", 
		 "properties": { 
			 "R2extent": 7507.9802, 
			 "electric_dipole_moment_norm": 2.17850514115, 
			 "electric_quadrupole_moment_norm": 20.0137066582, 
			 "total_energy": -1219.56616916, 
			 "HOMO_LUMO_gap": 0.18675, 
			 "cosmo_polarized_energy": -21.13, 
			 "cosmo_cavitation_energy": 37.18, 
			 "cosmo_dispersion_energy": -26.94, 
			 "cosmo_repulsion_energy": 2.09, 
			 "cosmo_total_nonelectrostatic_energy": 12.32, 
			 "SMD_solvation_energy": 4.15 
		},
		"coords": [
			{
				"x": 3.2937274254,
				"y": 4.4584055823,
				"z": -0.8334525918,
				"element": "C" 
			},
			{
				"x": 2.3343462934,
				"y": 3.3995002339,
				"z": -1.2673863283,
				"element": "C" 
			},
			{
				"x": 1.6008422809,
				"y": 2.6318329995,
				"z": -0.481620758,
				"element": "N" 
			},
			{
				"x": 0.9016078249,
				"y": 1.8392240658,
				"z": -1.3561379205,
				"element": "C" 
			},
			{
				"x": 1.1646455343,
				"y": 2.0768403922,
				"z": -2.6393868744,
				"element": "N" 
			},
			{
				"x": 2.0805225469,
				"y": 3.0748698167,
				"z": -2.560895804,
				"element": "N" 
			},
			{
				"x": -0.0572735228,
				"y": 0.8137002291,
				"z": -0.9195944401,
				"element": "C" 
			},
			{
				"x": -0.282935772,
				"y": 0.6197896245,
				"z": 0.448899713,
				"element": "C" 
			},
			{
				"x": -1.1932057219,
				"y": -0.3531791046,
				"z": 0.8763233544,
				"element": "C" 
			},
			{
				"x": -1.4548896259,
				"y": -0.5860824229,
				"z": 2.2492724479,
				"element": "N" 
			},
			{
				"x": -0.9232450318,
				"y": 0.0342763765,
				"z": 3.3371930302,
				"element": "C" 
			},
			{
				"x": -0.0961659314,
				"y": 0.9350834159,
				"z": 3.3410144992,
				"element": "O" 
			},
			{
				"x": -1.4067889245,
				"y": -0.4395537913,
				"z": 4.7152821007,
				"element": "C" 
			},
			{
				"x": -2.6374993347,
				"y": -1.7786817536,
				"z": 4.7596896919,
				"element": "Cl" 
			},
			{
				"x": -1.8934774746,
				"y": -1.1489504181,
				"z": -0.0588461907,
				"element": "C" 
			},
			{
				"x": -2.8810346941,
				"y": -2.2052137851,
				"z": 0.3790045966,
				"element": "C" 
			},
			{
				"x": -1.6461382369,
				"y": -0.9311580205,
				"z": -1.4176465479,
				"element": "C" 
			},
			{
				"x": -0.7442741008,
				"y": 0.0321407074,
				"z": -1.8567326286,
				"element": "C" 
			},
			{
				"x": 4.3125456791,
				"y": 4.2444165148,
				"z": -1.1745839158,
				"element": "H" 
			},
			{
				"x": 3.0097216166,
				"y": 5.4433748596,
				"z": -1.2198826872,
				"element": "H" 
			},
			{
				"x": 3.2944431772,
				"y": 4.5003460742,
				"z": 0.2561598128,
				"element": "H" 
			},
			{
				"x": 2.4686777348,
				"y": 3.4648538986,
				"z": -3.4066715067,
				"element": "H" 
			},
			{
				"x": 0.2468308473,
				"y": 1.2226402,
				"z": 1.1723938522,
				"element": "H" 
			},
			{
				"x": -2.1278811656,
				"y": -1.3110715467,
				"z": 2.455981574,
				"element": "H" 
			},
			{
				"x": -0.5400873526,
				"y": -0.7856180608,
				"z": 5.2785594246,
				"element": "H" 
			},
			{
				"x": -1.8463950536,
				"y": 0.4133975933,
				"z": 5.2324183502,
				"element": "H" 
			},
			{
				"x": -3.3144956894,
				"y": -2.7077214031,
				"z": -0.4887367811,
				"element": "H" 
			},
			{
				"x": -2.4131117342,
				"y": -2.9802616368,
				"z": 1.000529975,
				"element": "H" 
			},
			{
				"x": -3.7137937581,
				"y": -1.7823208809,
				"z": 0.956578327,
				"element": "H" 
			},
			{
				"x": -2.1786168948,
				"y": -1.5368908502,
				"z": -2.1463815084,
				"element": "H" 
			},
			{
				"x": -0.5674009409,
				"y": 0.1846110904,
				"z": -2.9156442661,
				"element": "H" 
			}
		],
		 "valence_orbital": [ 
			{
				"type": "occ",
				"energy": -0.26899,
				"method": "rhf"
			},
			{
				"type": "occ",
				"energy": -0.26784,
				"method": "rhf"
			},
			{
				"type": "occ",
				"energy": -0.25786,
				"method": "rhf"
			},
			{
				"type": "occ",
				"energy": -0.22829,
				"method": "rhf"
			},
			{
				"type": "occ",
				"energy": -0.21128,
				"method": "rhf"
			},
			{
				"type": "unocc",
				"energy": -0.02453,
				"method": "rhf"
			},
			{
				"type": "unocc",
				"energy": -0.00806,
				"method": "rhf"
			},
			{
				"type": "unocc",
				"energy": 0.01173,
				"method": "rhf"
			},
			{
				"type": "unocc",
				"energy": 0.01704,
				"method": "rhf"
			},
			{
				"type": "unocc",
				"energy": 0.04273,
				"method": "rhf"
			}
		],
		"cosmo_sigma_profile": { 
			"-0.025": 0.0,
			"-0.024": 0.0,
			"-0.023": 0.0,
			"-0.022": 0.0,
			"-0.021": 0.0,
			"-0.02": 0.0,
			"-0.019": 0.0,
			"-0.018": 0.0416490803944,
			"-0.017": 1.49881196313,
			"-0.016": 1.57794797634,
			"-0.015": 0.909215117106,
			"-0.014": 0.897853162355,
			"-0.013": 1.18057136827,
			"-0.012": 1.2752007047,
			"-0.011": 1.29750245585,
			"-0.01": 0.802747209103,
			"-0.009": 5.36324849749,
			"-0.008": 7.01573478102,
			"-0.007": 7.6997631521,
			"-0.006": 16.5930286608,
			"-0.005": 22.0010016686,
			"-0.004": 20.4832819629,
			"-0.003": 17.3909067273,
			"-0.002": 18.9987511383,
			"-0.001": 20.1692715124,
			"0.0": 15.7590403448,
			"0.001": 15.7467780251,
			"0.002": 17.7659581143,
			"0.003": 21.3976883361,
			"0.004": 23.1759620007,
			"0.005": 19.26655756,
			"0.006": 8.11370483919,
			"0.007": 4.60257183051,
			"0.008": 4.03427826821,
			"0.009": 3.97198059568,
			"0.01": 4.57472992999,
			"0.011": 4.43863991111,
			"0.012": 5.54975826791,
			"0.013": 3.54323133041,
			"0.014": 1.56489451491,
			"0.015": 0.101413492009,
			"0.016": 0.0,
			"0.017": 0.0,
			"0.018": 0.0,
			"0.019": 0.0,
			"0.02": 0.0,
			"0.021": 0.0,
			"0.022": 0.0,
			"0.023": 0.0,
			"0.024": 0.0,
			"0.025": 0.0
		}
	}
}
