{
	 "smiles": "COC1=C(CNC(=O)C(C)Cl)C=CC=C1", 
	 "Tm": 387.15, 
	 "num_atms": 29, 
	 "gaussian": { 
		 "optdone": 1, 
		 "sigma_profile": "yes", 
		 "theory": "DFT", 
		 "functional": "B3LYP", 
		 "basiset": "6-31G**", 
		 "properties": { 
			 "R2extent": 4295.6145, 
			 "electric_dipole_moment_norm": 3.39187584236, 
			 "electric_quadrupole_moment_norm": 5.54880814049, 
			 "total_energy": -1093.01746352, 
			 "HOMO_LUMO_gap": 0.21775, 
			 "cosmo_polarized_energy": -11.01, 
			 "cosmo_cavitation_energy": 34.11, 
			 "cosmo_dispersion_energy": -23.56, 
			 "cosmo_repulsion_energy": 1.88, 
			 "cosmo_total_nonelectrostatic_energy": 12.43, 
			 "SMD_solvation_energy": 6.14 
		},
		"coords": [
			{
				"x": 2.0744739327,
				"y": 1.5968779938,
				"z": -2.3480165339,
				"element": "C" 
			},
			{
				"x": 1.1376667861,
				"y": 0.6159460881,
				"z": -1.9253714182,
				"element": "O" 
			},
			{
				"x": -0.1918239381,
				"y": 0.955083081,
				"z": -1.8843067645,
				"element": "C" 
			},
			{
				"x": -1.0598383024,
				"y": -0.0793455567,
				"z": -1.4780443225,
				"element": "C" 
			},
			{
				"x": -0.4997863235,
				"y": -1.4482215977,
				"z": -1.1506712066,
				"element": "C" 
			},
			{
				"x": 0.3862369875,
				"y": -1.4429111713,
				"z": 0.0105535155,
				"element": "N" 
			},
			{
				"x": 0.035897484,
				"y": -2.0144329595,
				"z": 1.1822392485,
				"element": "C" 
			},
			{
				"x": -1.0065786328,
				"y": -2.6350256579,
				"z": 1.3762240072,
				"element": "O" 
			},
			{
				"x": 1.0027398921,
				"y": -1.8996986586,
				"z": 2.3749592269,
				"element": "C" 
			},
			{
				"x": 0.3304756532,
				"y": -1.2136317572,
				"z": 3.5595664825,
				"element": "C" 
			},
			{
				"x": 2.5928128605,
				"y": -1.0567537166,
				"z": 1.9879560291,
				"element": "Cl" 
			},
			{
				"x": -2.4249499356,
				"y": 0.1902372941,
				"z": -1.3993144363,
				"element": "C" 
			},
			{
				"x": -2.9372215455,
				"y": 1.4515926683,
				"z": -1.7203008711,
				"element": "C" 
			},
			{
				"x": -2.0660254888,
				"y": 2.4590950461,
				"z": -2.123227329,
				"element": "C" 
			},
			{
				"x": -0.6901451718,
				"y": 2.2193527521,
				"z": -2.2071889001,
				"element": "C" 
			},
			{
				"x": 3.0519651234,
				"y": 1.1135111376,
				"z": -2.3176712544,
				"element": "H" 
			},
			{
				"x": 2.0792829927,
				"y": 2.4647622208,
				"z": -1.6769768631,
				"element": "H" 
			},
			{
				"x": 1.8683469171,
				"y": 1.9335165265,
				"z": -3.371513247,
				"element": "H" 
			},
			{
				"x": 0.0589582688,
				"y": -1.8392527767,
				"z": -2.0088691254,
				"element": "H" 
			},
			{
				"x": -1.3093434096,
				"y": -2.1423290743,
				"z": -0.9204512529,
				"element": "H" 
			},
			{
				"x": 1.2437878823,
				"y": -0.9129029054,
				"z": -0.0522859259,
				"element": "H" 
			},
			{
				"x": 1.2949757586,
				"y": -2.9179473705,
				"z": 2.6377188912,
				"element": "H" 
			},
			{
				"x": 0.0988075354,
				"y": -0.170937702,
				"z": 3.3255023063,
				"element": "H" 
			},
			{
				"x": -0.6020146911,
				"y": -1.7418443492,
				"z": 3.7728019532,
				"element": "H" 
			},
			{
				"x": 0.9747340838,
				"y": -1.2421261222,
				"z": 4.4408823217,
				"element": "H" 
			},
			{
				"x": -3.0955730015,
				"y": -0.6029217969,
				"z": -1.079451667,
				"element": "H" 
			},
			{
				"x": -4.0039883062,
				"y": 1.6403723317,
				"z": -1.6529420879,
				"element": "H" 
			},
			{
				"x": -2.4474955045,
				"y": 3.4445058195,
				"z": -2.3750159296,
				"element": "H" 
			},
			{
				"x": -0.0257779067,
				"y": 3.0161302132,
				"z": -2.5198848465,
				"element": "H" 
			}
		],
		 "valence_orbital": [ 
			{
				"type": "occ",
				"energy": -0.30063,
				"method": "rhf"
			},
			{
				"type": "occ",
				"energy": -0.25636,
				"method": "rhf"
			},
			{
				"type": "occ",
				"energy": -0.24959,
				"method": "rhf"
			},
			{
				"type": "occ",
				"energy": -0.24768,
				"method": "rhf"
			},
			{
				"type": "occ",
				"energy": -0.22526,
				"method": "rhf"
			},
			{
				"type": "unocc",
				"energy": -0.00751,
				"method": "rhf"
			},
			{
				"type": "unocc",
				"energy": 0.00623,
				"method": "rhf"
			},
			{
				"type": "unocc",
				"energy": 0.01803,
				"method": "rhf"
			},
			{
				"type": "unocc",
				"energy": 0.02886,
				"method": "rhf"
			},
			{
				"type": "unocc",
				"energy": 0.08672,
				"method": "rhf"
			}
		],
		"cosmo_sigma_profile": { 
			"-0.025": 0.0,
			"-0.024": 0.0,
			"-0.023": 0.0,
			"-0.022": 0.0,
			"-0.021": 0.0,
			"-0.02": 0.0,
			"-0.019": 0.0,
			"-0.018": 0.0,
			"-0.017": 0.0,
			"-0.016": 0.0,
			"-0.015": 0.0,
			"-0.014": 0.0,
			"-0.013": 0.0,
			"-0.012": 0.0,
			"-0.011": 0.0,
			"-0.01": 0.0,
			"-0.009": 0.266475349963,
			"-0.008": 2.13977041277,
			"-0.007": 2.32252891845,
			"-0.006": 12.1246663086,
			"-0.005": 26.0368815876,
			"-0.004": 27.0903949105,
			"-0.003": 30.0431622421,
			"-0.002": 22.4311636627,
			"-0.001": 21.4221523995,
			"0.0": 18.0213798569,
			"0.001": 17.3385816992,
			"0.002": 16.6852747388,
			"0.003": 14.9514088908,
			"0.004": 14.1277371867,
			"0.005": 16.4023187213,
			"0.006": 13.9258958406,
			"0.007": 2.88469648459,
			"0.008": 1.15366406167,
			"0.009": 0.909077291205,
			"0.01": 1.50846252407,
			"0.011": 1.39470997835,
			"0.012": 2.06329838727,
			"0.013": 4.36817622828,
			"0.014": 2.39942002251,
			"0.015": 0.00800537548292,
			"0.016": 0.0,
			"0.017": 0.0,
			"0.018": 0.0,
			"0.019": 0.0,
			"0.02": 0.0,
			"0.021": 0.0,
			"0.022": 0.0,
			"0.023": 0.0,
			"0.024": 0.0,
			"0.025": 0.0
		}
	}
}
