{
	 "smiles": "CC=CC=O", 
	 "Tm": 196.95, 
	 "num_atms": 11, 
	 "gaussian": { 
		 "optdone": 1, 
		 "sigma_profile": "yes", 
		 "theory": "DFT", 
		 "functional": "B3LYP", 
		 "basiset": "6-31G**", 
		 "properties": { 
			 "R2extent": 1681.7002, 
			 "electric_dipole_moment_norm": 3.90577979538, 
			 "electric_quadrupole_moment_norm": 15.5996258571, 
			 "total_energy": -231.238223217, 
			 "HOMO_LUMO_gap": 0.19331, 
			 "cosmo_polarized_energy": -7.61, 
			 "cosmo_cavitation_energy": 15.24, 
			 "cosmo_dispersion_energy": -10.97, 
			 "cosmo_repulsion_energy": 0.99, 
			 "cosmo_total_nonelectrostatic_energy": 5.26, 
			 "SMD_solvation_energy": 4.33 
		},
		"coords": [
			{
				"x": 0.8557701299,
				"y": -0.8173226746,
				"z": -1.8019061638,
				"element": "C" 
			},
			{
				"x": 2.132545387,
				"y": -0.0526328164,
				"z": -1.6570053683,
				"element": "C" 
			},
			{
				"x": 2.3367104249,
				"y": 0.9892899481,
				"z": -0.8359559436,
				"element": "C" 
			},
			{
				"x": 3.6397458876,
				"y": 1.6663138288,
				"z": -0.7777293039,
				"element": "C" 
			},
			{
				"x": 3.8935552934,
				"y": 2.6144610622,
				"z": -0.0581661083,
				"element": "O" 
			},
			{
				"x": 0.071186492,
				"y": -0.4296810784,
				"z": -1.1470741102,
				"element": "H" 
			},
			{
				"x": 0.4955504074,
				"y": -0.7777455359,
				"z": -2.8376778734,
				"element": "H" 
			},
			{
				"x": 1.0107474203,
				"y": -1.8783688346,
				"z": -1.5688509044,
				"element": "H" 
			},
			{
				"x": 2.9657049063,
				"y": -0.382183675,
				"z": -2.2812800823,
				"element": "H" 
			},
			{
				"x": 1.5542347027,
				"y": 1.373472574,
				"z": -0.1848678846,
				"element": "H" 
			},
			{
				"x": 4.4118489485,
				"y": 1.240797202,
				"z": -1.4604862572,
				"element": "H" 
			}
		],
		 "valence_orbital": [ 
			{
				"type": "occ",
				"energy": -0.39856,
				"method": "rhf"
			},
			{
				"type": "occ",
				"energy": -0.38697,
				"method": "rhf"
			},
			{
				"type": "occ",
				"energy": -0.3762,
				"method": "rhf"
			},
			{
				"type": "occ",
				"energy": -0.27566,
				"method": "rhf"
			},
			{
				"type": "occ",
				"energy": -0.24827,
				"method": "rhf"
			},
			{
				"type": "unocc",
				"energy": -0.05496,
				"method": "rhf"
			},
			{
				"type": "unocc",
				"energy": 0.06533,
				"method": "rhf"
			},
			{
				"type": "unocc",
				"energy": 0.10148,
				"method": "rhf"
			},
			{
				"type": "unocc",
				"energy": 0.10215,
				"method": "rhf"
			},
			{
				"type": "unocc",
				"energy": 0.14569,
				"method": "rhf"
			}
		],
		"cosmo_sigma_profile": { 
			"-0.025": 0.0,
			"-0.024": 0.0,
			"-0.023": 0.0,
			"-0.022": 0.0,
			"-0.021": 0.0,
			"-0.02": 0.0,
			"-0.019": 0.0,
			"-0.018": 0.0,
			"-0.017": 0.0,
			"-0.016": 0.0,
			"-0.015": 0.0,
			"-0.014": 0.0,
			"-0.013": 0.0,
			"-0.012": 0.0,
			"-0.011": 0.0,
			"-0.01": 0.0,
			"-0.009": 0.0,
			"-0.008": 0.0220218055558,
			"-0.007": 3.03138584261,
			"-0.006": 6.93533926751,
			"-0.005": 13.0312128079,
			"-0.004": 13.35448956,
			"-0.003": 12.0160824522,
			"-0.002": 12.1550392573,
			"-0.001": 11.6337315463,
			"0.0": 9.33074887786,
			"0.001": 7.08717059329,
			"0.002": 4.57057833536,
			"0.003": 4.108558432,
			"0.004": 2.00227674118,
			"0.005": 1.31628253916,
			"0.006": 1.40838014928,
			"0.007": 1.51417620224,
			"0.008": 1.8990755239,
			"0.009": 1.26713563134,
			"0.01": 2.41494709762,
			"0.011": 3.37164950941,
			"0.012": 4.79208339529,
			"0.013": 2.99906633599,
			"0.014": 0.465550102685,
			"0.015": 0.0,
			"0.016": 0.0,
			"0.017": 0.0,
			"0.018": 0.0,
			"0.019": 0.0,
			"0.02": 0.0,
			"0.021": 0.0,
			"0.022": 0.0,
			"0.023": 0.0,
			"0.024": 0.0,
			"0.025": 0.0
		}
	}
}
