{
	 "smiles": "CN(C1=CC=CC=C1)S(=O)(=O)C1=CC(NC(=O)CCl)=CC=C1", 
	 "Tm": 372.15, 
	 "num_atms": 37, 
	 "gaussian": { 
		 "optdone": 1, 
		 "sigma_profile": "yes", 
		 "theory": "DFT", 
		 "functional": "B3LYP", 
		 "basiset": "6-31G**", 
		 "properties": { 
			 "R2extent": 7526.6919, 
			 "electric_dipole_moment_norm": 6.1494449652, 
			 "electric_quadrupole_moment_norm": 26.3278987071, 
			 "total_energy": -1774.12299548, 
			 "HOMO_LUMO_gap": 0.18341, 
			 "cosmo_polarized_energy": -22.45, 
			 "cosmo_cavitation_energy": 43.52, 
			 "cosmo_dispersion_energy": -28.61, 
			 "cosmo_repulsion_energy": 2.12, 
			 "cosmo_total_nonelectrostatic_energy": 17.03, 
			 "SMD_solvation_energy": 6.33 
		},
		"coords": [
			{
				"x": 2.47258579,
				"y": -1.0410479418,
				"z": -0.4890797848,
				"element": "C" 
			},
			{
				"x": 1.0987168326,
				"y": -0.825336367,
				"z": -0.9652698586,
				"element": "N" 
			},
			{
				"x": 0.7372146006,
				"y": 0.4880121844,
				"z": -1.4163901423,
				"element": "C" 
			},
			{
				"x": 1.328845118,
				"y": 1.6311212419,
				"z": -0.8573455544,
				"element": "C" 
			},
			{
				"x": 1.006688914,
				"y": 2.898355414,
				"z": -1.347045792,
				"element": "C" 
			},
			{
				"x": 0.0792194582,
				"y": 3.0392697953,
				"z": -2.3804125957,
				"element": "C" 
			},
			{
				"x": -0.5160930613,
				"y": 1.9012788396,
				"z": -2.9307386754,
				"element": "C" 
			},
			{
				"x": -0.1833547025,
				"y": 0.6306655976,
				"z": -2.4652704427,
				"element": "C" 
			},
			{
				"x": -0.0963317378,
				"y": -1.7692791555,
				"z": -0.1893853312,
				"element": "S" 
			},
			{
				"x": 0.5357184572,
				"y": -3.0616921216,
				"z": 0.0802665278,
				"element": "O" 
			},
			{
				"x": -1.3222126592,
				"y": -1.6560165586,
				"z": -0.9762249034,
				"element": "O" 
			},
			{
				"x": -0.3864674952,
				"y": -0.9608557314,
				"z": 1.3925894244,
				"element": "C" 
			},
			{
				"x": -1.3695846634,
				"y": 0.0287800445,
				"z": 1.4706198437,
				"element": "C" 
			},
			{
				"x": -1.5495883268,
				"y": 0.7072929647,
				"z": 2.6837584147,
				"element": "C" 
			},
			{
				"x": -2.521916697,
				"y": 1.7112510066,
				"z": 2.8777892211,
				"element": "N" 
			},
			{
				"x": -3.0147446686,
				"y": 2.734198808,
				"z": 2.0861830855,
				"element": "C" 
			},
			{
				"x": -3.7958242164,
				"y": 3.5425310343,
				"z": 2.560456071,
				"element": "O" 
			},
			{
				"x": -2.5537428933,
				"y": 2.8539982854,
				"z": 0.6399014713,
				"element": "C" 
			},
			{
				"x": -3.6963735191,
				"y": 1.9750896417,
				"z": -0.4595154286,
				"element": "Cl" 
			},
			{
				"x": -0.7691664908,
				"y": 0.342428678,
				"z": 3.7958063137,
				"element": "C" 
			},
			{
				"x": 0.1768638814,
				"y": -0.6731714685,
				"z": 3.7028007731,
				"element": "C" 
			},
			{
				"x": 0.3889753373,
				"y": -1.3329651018,
				"z": 2.4911611205,
				"element": "C" 
			},
			{
				"x": 2.6613893898,
				"y": -0.6207898385,
				"z": 0.5088277104,
				"element": "H" 
			},
			{
				"x": 3.1489563705,
				"y": -0.5683548415,
				"z": -1.2039419912,
				"element": "H" 
			},
			{
				"x": 2.6692912029,
				"y": -2.111733696,
				"z": -0.465860345,
				"element": "H" 
			},
			{
				"x": 2.0443263912,
				"y": 1.5348658249,
				"z": -0.0476690578,
				"element": "H" 
			},
			{
				"x": 1.4819169733,
				"y": 3.7746959023,
				"z": -0.9152704197,
				"element": "H" 
			},
			{
				"x": -0.1711687759,
				"y": 4.025377841,
				"z": -2.7599871981,
				"element": "H" 
			},
			{
				"x": -1.2340762968,
				"y": 1.9998830808,
				"z": -3.7391570611,
				"element": "H" 
			},
			{
				"x": -0.630687178,
				"y": -0.2551119923,
				"z": -2.8978303875,
				"element": "H" 
			},
			{
				"x": -2.0069775225,
				"y": 0.2137459153,
				"z": 0.6148686228,
				"element": "H" 
			},
			{
				"x": -2.8545592703,
				"y": 1.8188236034,
				"z": 3.8292195251,
				"element": "H" 
			},
			{
				"x": -2.610590172,
				"y": 3.9074335416,
				"z": 0.3730661387,
				"element": "H" 
			},
			{
				"x": -1.5532959827,
				"y": 2.4652905105,
				"z": 0.452462474,
				"element": "H" 
			},
			{
				"x": -0.9139442225,
				"y": 0.8636889152,
				"z": 4.7382509849,
				"element": "H" 
			},
			{
				"x": 0.7550501374,
				"y": -0.9494665702,
				"z": 4.5791017014,
				"element": "H" 
			},
			{
				"x": 1.1086416976,
				"y": -2.1381572867,
				"z": 2.4020655454,
				"element": "H" 
			}
		],
		 "valence_orbital": [ 
			{
				"type": "occ",
				"energy": -0.28016,
				"method": "rhf"
			},
			{
				"type": "occ",
				"energy": -0.27351,
				"method": "rhf"
			},
			{
				"type": "occ",
				"energy": -0.26198,
				"method": "rhf"
			},
			{
				"type": "occ",
				"energy": -0.25011,
				"method": "rhf"
			},
			{
				"type": "occ",
				"energy": -0.23716,
				"method": "rhf"
			},
			{
				"type": "unocc",
				"energy": -0.05375,
				"method": "rhf"
			},
			{
				"type": "unocc",
				"energy": -0.04523,
				"method": "rhf"
			},
			{
				"type": "unocc",
				"energy": -0.01801,
				"method": "rhf"
			},
			{
				"type": "unocc",
				"energy": -0.01746,
				"method": "rhf"
			},
			{
				"type": "unocc",
				"energy": -0.01302,
				"method": "rhf"
			}
		],
		"cosmo_sigma_profile": { 
			"-0.025": 0.0,
			"-0.024": 0.0,
			"-0.023": 0.0,
			"-0.022": 0.0,
			"-0.021": 0.0,
			"-0.02": 0.0,
			"-0.019": 0.0,
			"-0.018": 0.0,
			"-0.017": 0.0,
			"-0.016": 0.118972088372,
			"-0.015": 0.917580350637,
			"-0.014": 1.67707271719,
			"-0.013": 0.814999560827,
			"-0.012": 1.13768504743,
			"-0.011": 1.29154984126,
			"-0.01": 1.38711223758,
			"-0.009": 2.57539072986,
			"-0.008": 4.92436722305,
			"-0.007": 11.4092507953,
			"-0.006": 19.9323007462,
			"-0.005": 24.3946475806,
			"-0.004": 26.2497845837,
			"-0.003": 25.6290268885,
			"-0.002": 23.7017816126,
			"-0.001": 23.1017816615,
			"0.0": 26.8764694758,
			"0.001": 26.6286159899,
			"0.002": 24.6405894299,
			"0.003": 19.2704118552,
			"0.004": 21.9383464844,
			"0.005": 14.8580937423,
			"0.006": 5.91504910829,
			"0.007": 5.39332231006,
			"0.008": 4.71813010212,
			"0.009": 5.36069788032,
			"0.01": 8.51257901776,
			"0.011": 8.7281558423,
			"0.012": 5.75317748822,
			"0.013": 2.23103658133,
			"0.014": 0.0383828167707,
			"0.015": 0.0,
			"0.016": 0.0,
			"0.017": 0.0,
			"0.018": 0.0,
			"0.019": 0.0,
			"0.02": 0.0,
			"0.021": 0.0,
			"0.022": 0.0,
			"0.023": 0.0,
			"0.024": 0.0,
			"0.025": 0.0
		}
	}
}
