{
	 "smiles": "[O-][N+](=O)C1=CC=CC(NN=C2C(=O)NC(=S)NC2=O)=C1", 
	 "Tm": 603.15, 
	 "num_atms": 27, 
	 "gaussian": { 
		 "optdone": 1, 
		 "sigma_profile": "yes", 
		 "theory": "DFT", 
		 "functional": "B3LYP", 
		 "basiset": "6-31G**", 
		 "properties": { 
			 "R2extent": 9135.3482, 
			 "electric_dipole_moment_norm": 5.87215082487, 
			 "electric_quadrupole_moment_norm": 28.695253397, 
			 "total_energy": -1358.03569707, 
			 "HOMO_LUMO_gap": 0.12427, 
			 "cosmo_polarized_energy": -24.35, 
			 "cosmo_cavitation_energy": 36.38, 
			 "cosmo_dispersion_energy": -26.9, 
			 "cosmo_repulsion_energy": 2.0, 
			 "cosmo_total_nonelectrostatic_energy": 11.47, 
			 "SMD_solvation_energy": 8.24 
		},
		"coords": [
			{
				"x": -1.4293177272,
				"y": 4.4234032159,
				"z": 1.4879293058,
				"element": "O" 
			},
			{
				"x": -0.5061563043,
				"y": 4.9151113916,
				"z": 0.844289572,
				"element": "N" 
			},
			{
				"x": -0.3225506727,
				"y": 6.1197332075,
				"z": 0.678761037,
				"element": "O" 
			},
			{
				"x": 0.4612501403,
				"y": 3.9891406701,
				"z": 0.2186517351,
				"element": "C" 
			},
			{
				"x": 1.5181480073,
				"y": 4.5246498961,
				"z": -0.516581829,
				"element": "C" 
			},
			{
				"x": 2.4240397122,
				"y": 3.6421573221,
				"z": -1.1019479106,
				"element": "C" 
			},
			{
				"x": 2.2690365855,
				"y": 2.2653874305,
				"z": -0.950789723,
				"element": "C" 
			},
			{
				"x": 1.1948877517,
				"y": 1.759868696,
				"z": -0.2048816783,
				"element": "C" 
			},
			{
				"x": 1.0780755343,
				"y": 0.3649130927,
				"z": -0.0790553984,
				"element": "N" 
			},
			{
				"x": 0.103407374,
				"y": -0.1657599045,
				"z": 0.6011461278,
				"element": "N" 
			},
			{
				"x": 0.0015093402,
				"y": -1.4747404108,
				"z": 0.7140620047,
				"element": "C" 
			},
			{
				"x": -1.1446464467,
				"y": -1.9676831134,
				"z": 1.5095468704,
				"element": "C" 
			},
			{
				"x": -1.9845801409,
				"y": -1.283751894,
				"z": 2.0577584938,
				"element": "O" 
			},
			{
				"x": -1.2079682272,
				"y": -3.3737567299,
				"z": 1.5993447637,
				"element": "N" 
			},
			{
				"x": -0.3606492673,
				"y": -4.3008504267,
				"z": 1.0542886227,
				"element": "C" 
			},
			{
				"x": -0.5520079429,
				"y": -5.9386919016,
				"z": 1.2387096156,
				"element": "S" 
			},
			{
				"x": 0.6823612178,
				"y": -3.7614667467,
				"z": 0.3273188063,
				"element": "N" 
			},
			{
				"x": 0.9425939752,
				"y": -2.4173086126,
				"z": 0.1057181787,
				"element": "C" 
			},
			{
				"x": 1.9217147177,
				"y": -2.0802297301,
				"z": -0.5710662457,
				"element": "O" 
			},
			{
				"x": 0.2719586649,
				"y": 2.6244345918,
				"z": 0.3927051687,
				"element": "C" 
			},
			{
				"x": 1.6112626301,
				"y": 5.59813797,
				"z": -0.6156790064,
				"element": "H" 
			},
			{
				"x": 3.2571056028,
				"y": 4.0277052071,
				"z": -1.6801818001,
				"element": "H" 
			},
			{
				"x": 2.9778030352,
				"y": 1.5812332381,
				"z": -1.4089567241,
				"element": "H" 
			},
			{
				"x": 1.7585322401,
				"y": -0.2684151824,
				"z": -0.5205493075,
				"element": "H" 
			},
			{
				"x": -1.98440599,
				"y": -3.737732359,
				"z": 2.1392601841,
				"element": "H" 
			},
			{
				"x": 1.3285566536,
				"y": -4.4213291889,
				"z": -0.0899858826,
				"element": "H" 
			},
			{
				"x": -0.5609604637,
				"y": 2.2468402712,
				"z": 0.9706850193,
				"element": "H" 
			}
		],
		 "valence_orbital": [ 
			{
				"type": "occ",
				"energy": -0.29967,
				"method": "rhf"
			},
			{
				"type": "occ",
				"energy": -0.29284,
				"method": "rhf"
			},
			{
				"type": "occ",
				"energy": -0.26517,
				"method": "rhf"
			},
			{
				"type": "occ",
				"energy": -0.24989,
				"method": "rhf"
			},
			{
				"type": "occ",
				"energy": -0.24347,
				"method": "rhf"
			},
			{
				"type": "unocc",
				"energy": -0.1192,
				"method": "rhf"
			},
			{
				"type": "unocc",
				"energy": -0.10031,
				"method": "rhf"
			},
			{
				"type": "unocc",
				"energy": -0.04736,
				"method": "rhf"
			},
			{
				"type": "unocc",
				"energy": -0.02741,
				"method": "rhf"
			},
			{
				"type": "unocc",
				"energy": -0.0224,
				"method": "rhf"
			}
		],
		"cosmo_sigma_profile": { 
			"-0.025": 0.0,
			"-0.024": 0.0,
			"-0.023": 0.0,
			"-0.022": 0.0,
			"-0.021": 0.0,
			"-0.02": 0.0,
			"-0.019": 0.0,
			"-0.018": 0.0,
			"-0.017": 0.381677419796,
			"-0.016": 1.59726553706,
			"-0.015": 1.51227436188,
			"-0.014": 2.23685308339,
			"-0.013": 2.6105595371,
			"-0.012": 2.19132424171,
			"-0.011": 2.73994618863,
			"-0.01": 3.52465301464,
			"-0.009": 5.9690603059,
			"-0.008": 8.00354515437,
			"-0.007": 12.5478149214,
			"-0.006": 16.248788736,
			"-0.005": 15.2274628476,
			"-0.004": 16.2808954507,
			"-0.003": 20.083631748,
			"-0.002": 20.0431133117,
			"-0.001": 19.1527633236,
			"0.0": 18.7778569176,
			"0.001": 15.0390876007,
			"0.002": 10.3816665466,
			"0.003": 8.42103609047,
			"0.004": 7.82798924491,
			"0.005": 11.0176797609,
			"0.006": 12.1392959973,
			"0.007": 18.5730076606,
			"0.008": 13.8238833863,
			"0.009": 11.6928368935,
			"0.01": 6.92817638322,
			"0.011": 6.27459127689,
			"0.012": 4.42699163838,
			"0.013": 0.954976891236,
			"0.014": 0.0,
			"0.015": 0.0,
			"0.016": 0.0,
			"0.017": 0.0,
			"0.018": 0.0,
			"0.019": 0.0,
			"0.02": 0.0,
			"0.021": 0.0,
			"0.022": 0.0,
			"0.023": 0.0,
			"0.024": 0.0,
			"0.025": 0.0
		}
	}
}
