{
	 "smiles": "ClC1=NC=CC2=C1C=CS2", 
	 "Tm": 372.15, 
	 "num_atms": 14, 
	 "gaussian": { 
		 "optdone": 1, 
		 "sigma_profile": "yes", 
		 "theory": "DFT", 
		 "functional": "B3LYP", 
		 "basiset": "6-31G**", 
		 "properties": { 
			 "R2extent": 2255.1113, 
			 "electric_dipole_moment_norm": 3.16087297752, 
			 "electric_quadrupole_moment_norm": 11.7069381804, 
			 "total_energy": -1182.28128856, 
			 "HOMO_LUMO_gap": 0.18965, 
			 "cosmo_polarized_energy": -7.04, 
			 "cosmo_cavitation_energy": 21.63, 
			 "cosmo_dispersion_energy": -17.09, 
			 "cosmo_repulsion_energy": 1.31, 
			 "cosmo_total_nonelectrostatic_energy": 5.85, 
			 "SMD_solvation_energy": 1.87 
		},
		"coords": [
			{
				"x": -3.0801617048,
				"y": -2.4819239015,
				"z": -0.681176315,
				"element": "Cl" 
			},
			{
				"x": -1.4874223764,
				"y": -1.721791187,
				"z": -0.6968248873,
				"element": "C" 
			},
			{
				"x": -0.4884753665,
				"y": -2.444367315,
				"z": -1.1408580166,
				"element": "N" 
			},
			{
				"x": 0.7420155052,
				"y": -1.8875377441,
				"z": -1.1639597798,
				"element": "C" 
			},
			{
				"x": 1.0147637885,
				"y": -0.5931866395,
				"z": -0.7451234523,
				"element": "C" 
			},
			{
				"x": -0.0671906259,
				"y": 0.158930235,
				"z": -0.2752586496,
				"element": "C" 
			},
			{
				"x": -1.3702217459,
				"y": -0.394096673,
				"z": -0.237564673,
				"element": "C" 
			},
			{
				"x": -2.3472028195,
				"y": 0.5277515099,
				"z": 0.274590665,
				"element": "C" 
			},
			{
				"x": -1.7996579523,
				"y": 1.7244819882,
				"z": 0.6079748715,
				"element": "C" 
			},
			{
				"x": -0.0721130159,
				"y": 1.8034943126,
				"z": 0.3210938303,
				"element": "S" 
			},
			{
				"x": 1.5391935214,
				"y": -2.5235196619,
				"z": -1.5397978268,
				"element": "H" 
			},
			{
				"x": 2.0226139677,
				"y": -0.1948659276,
				"z": -0.784940038,
				"element": "H" 
			},
			{
				"x": -3.397718364,
				"y": 0.2897815784,
				"z": 0.3802188232,
				"element": "H" 
			},
			{
				"x": -2.3029228117,
				"y": 2.5915494254,
				"z": 1.0138254485,
				"element": "H" 
			}
		],
		 "valence_orbital": [ 
			{
				"type": "occ",
				"energy": -0.31486,
				"method": "rhf"
			},
			{
				"type": "occ",
				"energy": -0.2916,
				"method": "rhf"
			},
			{
				"type": "occ",
				"energy": -0.27633,
				"method": "rhf"
			},
			{
				"type": "occ",
				"energy": -0.27227,
				"method": "rhf"
			},
			{
				"type": "occ",
				"energy": -0.23657,
				"method": "rhf"
			},
			{
				"type": "unocc",
				"energy": -0.04692,
				"method": "rhf"
			},
			{
				"type": "unocc",
				"energy": -0.03214,
				"method": "rhf"
			},
			{
				"type": "unocc",
				"energy": -7e-05,
				"method": "rhf"
			},
			{
				"type": "unocc",
				"energy": 0.02774,
				"method": "rhf"
			},
			{
				"type": "unocc",
				"energy": 0.0421,
				"method": "rhf"
			}
		],
		"cosmo_sigma_profile": { 
			"-0.025": 0.0,
			"-0.024": 0.0,
			"-0.023": 0.0,
			"-0.022": 0.0,
			"-0.021": 0.0,
			"-0.02": 0.0,
			"-0.019": 0.0,
			"-0.018": 0.0,
			"-0.017": 0.0,
			"-0.016": 0.0,
			"-0.015": 0.0,
			"-0.014": 0.0,
			"-0.013": 0.0,
			"-0.012": 0.0,
			"-0.011": 0.0,
			"-0.01": 0.588362492326,
			"-0.009": 2.91638893023,
			"-0.008": 6.02431379507,
			"-0.007": 7.74232625927,
			"-0.006": 8.09406082668,
			"-0.005": 7.17958916889,
			"-0.004": 6.43716149724,
			"-0.003": 7.40705122918,
			"-0.002": 8.57691503241,
			"-0.001": 13.0593245168,
			"0.0": 22.8014641048,
			"0.001": 25.4701954028,
			"0.002": 20.1964013714,
			"0.003": 13.9962970234,
			"0.004": 11.4495459157,
			"0.005": 5.19608135688,
			"0.006": 2.69026041738,
			"0.007": 2.00714505433,
			"0.008": 1.29337132408,
			"0.009": 1.52406643413,
			"0.01": 0.931920564044,
			"0.011": 1.19247225174,
			"0.012": 1.1305255477,
			"0.013": 0.827958299214,
			"0.014": 0.833597545832,
			"0.015": 0.199151101454,
			"0.016": 0.0,
			"0.017": 0.0,
			"0.018": 0.0,
			"0.019": 0.0,
			"0.02": 0.0,
			"0.021": 0.0,
			"0.022": 0.0,
			"0.023": 0.0,
			"0.024": 0.0,
			"0.025": 0.0
		}
	}
}
