{
	 "smiles": "CC(=O)C1=CC(F)=C(C=C1)N1CCOCC1", 
	 "Tm": 358.15, 
	 "num_atms": 30, 
	 "gaussian": { 
		 "optdone": 1, 
		 "sigma_profile": "yes", 
		 "theory": "DFT", 
		 "functional": "B3LYP", 
		 "basiset": "6-31G**", 
		 "properties": { 
			 "R2extent": 4883.6627, 
			 "electric_dipole_moment_norm": 2.84819937153, 
			 "electric_quadrupole_moment_norm": 20.8911557639, 
			 "total_energy": -770.723935438, 
			 "HOMO_LUMO_gap": 0.15937, 
			 "cosmo_polarized_energy": -12.51, 
			 "cosmo_cavitation_energy": 32.49, 
			 "cosmo_dispersion_energy": -23.91, 
			 "cosmo_repulsion_energy": 1.82, 
			 "cosmo_total_nonelectrostatic_energy": 10.41, 
			 "SMD_solvation_energy": 5.41 
		},
		"coords": [
			{
				"x": 0.4640976166,
				"y": 1.7608756367,
				"z": -4.7306495095,
				"element": "C" 
			},
			{
				"x": -0.112092017,
				"y": 0.5017466422,
				"z": -4.1002969658,
				"element": "C" 
			},
			{
				"x": -0.5045203588,
				"y": -0.4193967789,
				"z": -4.8049718056,
				"element": "O" 
			},
			{
				"x": -0.1871717583,
				"y": 0.4137696323,
				"z": -2.6157321714,
				"element": "C" 
			},
			{
				"x": 0.2370421972,
				"y": 1.4452715413,
				"z": -1.7606190675,
				"element": "C" 
			},
			{
				"x": 0.1365270897,
				"y": 1.3020649384,
				"z": -0.3923361232,
				"element": "C" 
			},
			{
				"x": 0.5101615997,
				"y": 2.3563553155,
				"z": 0.3837381188,
				"element": "F" 
			},
			{
				"x": -0.361766397,
				"y": 0.1327007927,
				"z": 0.2299762494,
				"element": "C" 
			},
			{
				"x": -0.7926338291,
				"y": -0.8885128447,
				"z": -0.6513443028,
				"element": "C" 
			},
			{
				"x": -0.7090443335,
				"y": -0.7478890271,
				"z": -2.0288130861,
				"element": "C" 
			},
			{
				"x": -0.4655627422,
				"y": 0.0078163104,
				"z": 1.6021427,
				"element": "N" 
			},
			{
				"x": 0.4434274724,
				"y": 0.6894246158,
				"z": 2.5388461496,
				"element": "C" 
			},
			{
				"x": 0.8076673029,
				"y": -0.2514703202,
				"z": 3.6849722376,
				"element": "C" 
			},
			{
				"x": -0.3242886931,
				"y": -0.7038299739,
				"z": 4.4214238563,
				"element": "O" 
			},
			{
				"x": -1.5196266775,
				"y": -0.7914475244,
				"z": 3.6536073454,
				"element": "C" 
			},
			{
				"x": -1.2603830164,
				"y": -1.0761045309,
				"z": 2.1769196479,
				"element": "C" 
			},
			{
				"x": 1.495228413,
				"y": 1.9314700418,
				"z": -4.4017316526,
				"element": "H" 
			},
			{
				"x": -0.1190370936,
				"y": 2.6449640803,
				"z": -4.4492505542,
				"element": "H" 
			},
			{
				"x": 0.4450240982,
				"y": 1.647198456,
				"z": -5.8148514642,
				"element": "H" 
			},
			{
				"x": 0.6281480615,
				"y": 2.3834681059,
				"z": -2.1383536131,
				"element": "H" 
			},
			{
				"x": -1.1791526764,
				"y": -1.8135937658,
				"z": -0.2410417057,
				"element": "H" 
			},
			{
				"x": -1.03624225,
				"y": -1.5475598591,
				"z": -2.6846171331,
				"element": "H" 
			},
			{
				"x": -0.0111301314,
				"y": 1.606216744,
				"z": 2.9362682288,
				"element": "H" 
			},
			{
				"x": 1.3585617395,
				"y": 0.9791164811,
				"z": 2.0209738215,
				"element": "H" 
			},
			{
				"x": 1.460603196,
				"y": 0.2697272153,
				"z": 4.3930108876,
				"element": "H" 
			},
			{
				"x": 1.3672485599,
				"y": -1.1114540537,
				"z": 3.284858442,
				"element": "H" 
			},
			{
				"x": -2.1188392053,
				"y": -1.6002823531,
				"z": 4.0842766826,
				"element": "H" 
			},
			{
				"x": -2.0987972662,
				"y": 0.1405310116,
				"z": 3.7430127838,
				"element": "H" 
			},
			{
				"x": -2.2220022082,
				"y": -1.138612307,
				"z": 1.6547998824,
				"element": "H" 
			},
			{
				"x": -0.7658466924,
				"y": -2.0557642225,
				"z": 2.072182121,
				"element": "H" 
			}
		],
		 "valence_orbital": [ 
			{
				"type": "occ",
				"energy": -0.29371,
				"method": "rhf"
			},
			{
				"type": "occ",
				"energy": -0.25961,
				"method": "rhf"
			},
			{
				"type": "occ",
				"energy": -0.25458,
				"method": "rhf"
			},
			{
				"type": "occ",
				"energy": -0.23988,
				"method": "rhf"
			},
			{
				"type": "occ",
				"energy": -0.20479,
				"method": "rhf"
			},
			{
				"type": "unocc",
				"energy": -0.04542,
				"method": "rhf"
			},
			{
				"type": "unocc",
				"energy": -0.00469,
				"method": "rhf"
			},
			{
				"type": "unocc",
				"energy": 0.04964,
				"method": "rhf"
			},
			{
				"type": "unocc",
				"energy": 0.0738,
				"method": "rhf"
			},
			{
				"type": "unocc",
				"energy": 0.07948,
				"method": "rhf"
			}
		],
		"cosmo_sigma_profile": { 
			"-0.025": 0.0,
			"-0.024": 0.0,
			"-0.023": 0.0,
			"-0.022": 0.0,
			"-0.021": 0.0,
			"-0.02": 0.0,
			"-0.019": 0.0,
			"-0.018": 0.0,
			"-0.017": 0.0,
			"-0.016": 0.0,
			"-0.015": 0.0,
			"-0.014": 0.0,
			"-0.013": 0.0,
			"-0.012": 0.0,
			"-0.011": 0.0,
			"-0.01": 0.0,
			"-0.009": 0.0,
			"-0.008": 0.1010771296,
			"-0.007": 2.44397653147,
			"-0.006": 14.3736168193,
			"-0.005": 27.7867178124,
			"-0.004": 35.2918085047,
			"-0.003": 24.5689131051,
			"-0.002": 18.0004262683,
			"-0.001": 17.1456959465,
			"0.0": 14.9691252002,
			"0.001": 14.1983998077,
			"0.002": 15.7799519069,
			"0.003": 16.7556498187,
			"0.004": 17.8123053567,
			"0.005": 7.33330625141,
			"0.006": 2.47369074156,
			"0.007": 3.83945658837,
			"0.008": 2.59231751626,
			"0.009": 2.63652782639,
			"0.01": 2.72447697255,
			"0.011": 3.33908441515,
			"0.012": 5.47959617425,
			"0.013": 5.29720394487,
			"0.014": 1.42910218698,
			"0.015": 0.0277095027059,
			"0.016": 0.0,
			"0.017": 0.0,
			"0.018": 0.0,
			"0.019": 0.0,
			"0.02": 0.0,
			"0.021": 0.0,
			"0.022": 0.0,
			"0.023": 0.0,
			"0.024": 0.0,
			"0.025": 0.0
		}
	}
}
