{
	 "smiles": "CCS(=O)(=O)C1=CC(C(O)=O)=C(Cl)C=C1", 
	 "Tm": 418.15, 
	 "num_atms": 24, 
	 "gaussian": { 
		 "optdone": 1, 
		 "sigma_profile": "yes", 
		 "theory": "DFT", 
		 "functional": "B3LYP", 
		 "basiset": "6-31G**", 
		 "properties": { 
			 "R2extent": 4857.9064, 
			 "electric_dipole_moment_norm": 5.39604079488, 
			 "electric_quadrupole_moment_norm": 21.7179114878, 
			 "total_energy": -1507.60080992, 
			 "HOMO_LUMO_gap": 0.2069, 
			 "cosmo_polarized_energy": -20.33, 
			 "cosmo_cavitation_energy": 31.4, 
			 "cosmo_dispersion_energy": -23.02, 
			 "cosmo_repulsion_energy": 1.76, 
			 "cosmo_total_nonelectrostatic_energy": 10.13, 
			 "SMD_solvation_energy": 5.66 
		},
		"coords": [
			{
				"x": -1.1207654131,
				"y": 2.27177944,
				"z": 2.420646816,
				"element": "C" 
			},
			{
				"x": -0.4103917238,
				"y": 3.1148964554,
				"z": 1.3681029836,
				"element": "C" 
			},
			{
				"x": 1.2575344192,
				"y": 2.51433751,
				"z": 0.9487710177,
				"element": "S" 
			},
			{
				"x": 1.8189460357,
				"y": 3.4461978992,
				"z": -0.0396296364,
				"element": "O" 
			},
			{
				"x": 1.9644219539,
				"y": 2.2042813386,
				"z": 2.2032876346,
				"element": "O" 
			},
			{
				"x": 0.9692801538,
				"y": 0.9370393961,
				"z": 0.1115127518,
				"element": "C" 
			},
			{
				"x": 0.5556745933,
				"y": 0.9273972061,
				"z": -1.2142655358,
				"element": "C" 
			},
			{
				"x": 0.3451237178,
				"y": -0.2793101029,
				"z": -1.9020073019,
				"element": "C" 
			},
			{
				"x": -0.1282033195,
				"y": -0.1005265014,
				"z": -3.335473236,
				"element": "C" 
			},
			{
				"x": -0.0601947343,
				"y": -1.1349117626,
				"z": -4.1888114203,
				"element": "O" 
			},
			{
				"x": -0.5407440817,
				"y": 0.9721371395,
				"z": -3.71171317,
				"element": "O" 
			},
			{
				"x": 0.5783360275,
				"y": -1.468764673,
				"z": -1.1873993587,
				"element": "C" 
			},
			{
				"x": 0.3408499112,
				"y": -3.0675103213,
				"z": -1.9032278199,
				"element": "Cl" 
			},
			{
				"x": 1.0009904412,
				"y": -1.4620974358,
				"z": 0.143568537,
				"element": "C" 
			},
			{
				"x": 1.2010948714,
				"y": -0.2528729127,
				"z": 0.8018114413,
				"element": "C" 
			},
			{
				"x": -1.3129607193,
				"y": 1.2562954883,
				"z": 2.0620942746,
				"element": "H" 
			},
			{
				"x": -0.5248763392,
				"y": 2.2122787688,
				"z": 3.3341507526,
				"element": "H" 
			},
			{
				"x": -2.0847326096,
				"y": 2.7282309598,
				"z": 2.6636551612,
				"element": "H" 
			},
			{
				"x": -0.9579919678,
				"y": 3.1763390284,
				"z": 0.423419854,
				"element": "H" 
			},
			{
				"x": -0.2205492673,
				"y": 4.1355574869,
				"z": 1.7157004323,
				"element": "H" 
			},
			{
				"x": 0.3935174173,
				"y": 1.8499538671,
				"z": -1.7607197184,
				"element": "H" 
			},
			{
				"x": 0.2758947127,
				"y": -1.9381599046,
				"z": -3.7598851173,
				"element": "H" 
			},
			{
				"x": 1.1713207909,
				"y": -2.4034479978,
				"z": 0.6534275798,
				"element": "H" 
			},
			{
				"x": 1.5468251297,
				"y": -0.223120372,
				"z": 1.8293830782,
				"element": "H" 
			}
		],
		 "valence_orbital": [ 
			{
				"type": "occ",
				"energy": -0.30766,
				"method": "rhf"
			},
			{
				"type": "occ",
				"energy": -0.30198,
				"method": "rhf"
			},
			{
				"type": "occ",
				"energy": -0.29703,
				"method": "rhf"
			},
			{
				"type": "occ",
				"energy": -0.29074,
				"method": "rhf"
			},
			{
				"type": "occ",
				"energy": -0.28816,
				"method": "rhf"
			},
			{
				"type": "unocc",
				"energy": -0.08126,
				"method": "rhf"
			},
			{
				"type": "unocc",
				"energy": -0.0626,
				"method": "rhf"
			},
			{
				"type": "unocc",
				"energy": -0.01545,
				"method": "rhf"
			},
			{
				"type": "unocc",
				"energy": 0.01801,
				"method": "rhf"
			},
			{
				"type": "unocc",
				"energy": 0.05619,
				"method": "rhf"
			}
		],
		"cosmo_sigma_profile": { 
			"-0.025": 0.0,
			"-0.024": 0.0,
			"-0.023": 0.0,
			"-0.022": 0.0,
			"-0.021": 0.0,
			"-0.02": 0.0,
			"-0.019": 0.0,
			"-0.018": 0.0,
			"-0.017": 0.0,
			"-0.016": 0.0,
			"-0.015": 0.0,
			"-0.014": 0.139943398088,
			"-0.013": 0.788737648279,
			"-0.012": 1.96102142072,
			"-0.011": 0.927718953739,
			"-0.01": 1.76692692015,
			"-0.009": 5.29109376444,
			"-0.008": 8.83293610454,
			"-0.007": 10.5661229108,
			"-0.006": 9.83151768391,
			"-0.005": 15.9103716296,
			"-0.004": 22.6696515222,
			"-0.003": 20.7011720095,
			"-0.002": 23.9019777328,
			"-0.001": 24.8992349087,
			"0.0": 15.2941277466,
			"0.001": 10.0088768762,
			"0.002": 10.2753788986,
			"0.003": 5.39429027241,
			"0.004": 4.23328464426,
			"0.005": 4.33644531173,
			"0.006": 4.35653059179,
			"0.007": 5.18236254313,
			"0.008": 6.29978307782,
			"0.009": 6.8979257346,
			"0.01": 10.8778632936,
			"0.011": 13.0631519929,
			"0.012": 8.32266945192,
			"0.013": 0.40360919898,
			"0.014": 0.0,
			"0.015": 0.0,
			"0.016": 0.0,
			"0.017": 0.0,
			"0.018": 0.0,
			"0.019": 0.0,
			"0.02": 0.0,
			"0.021": 0.0,
			"0.022": 0.0,
			"0.023": 0.0,
			"0.024": 0.0,
			"0.025": 0.0
		}
	}
}
