{
	 "smiles": "COC1=NC2=NC(=NN2C(OC)=C1)S(=O)(=O)NC1=C(Cl)C(C)=CC=C1Cl", 
	 "Tm": 484.15, 
	 "num_atms": 39, 
	 "gaussian": { 
		 "optdone": 1, 
		 "sigma_profile": "yes", 
		 "theory": "DFT", 
		 "functional": "B3LYP", 
		 "basiset": "6-31G**", 
		 "properties": { 
			 "R2extent": 12225.3101, 
			 "electric_dipole_moment_norm": 7.78391703836, 
			 "electric_quadrupole_moment_norm": 18.189285575, 
			 "total_energy": -2434.43048365, 
			 "HOMO_LUMO_gap": 0.18839, 
			 "cosmo_polarized_energy": -22.77, 
			 "cosmo_cavitation_energy": 48.82, 
			 "cosmo_dispersion_energy": -34.16, 
			 "cosmo_repulsion_energy": 2.56, 
			 "cosmo_total_nonelectrostatic_energy": 17.22, 
			 "SMD_solvation_energy": 5.7 
		},
		"coords": [
			{
				"x": 2.046264649,
				"y": 4.4523791755,
				"z": -4.1987465812,
				"element": "C" 
			},
			{
				"x": 2.434346361,
				"y": 4.6849330779,
				"z": -2.8346561696,
				"element": "O" 
			},
			{
				"x": 2.2140045978,
				"y": 3.6984107503,
				"z": -1.9580690266,
				"element": "C" 
			},
			{
				"x": 1.6558728606,
				"y": 2.5718755258,
				"z": -2.3636465256,
				"element": "N" 
			},
			{
				"x": 1.475029497,
				"y": 1.6376950049,
				"z": -1.4224840401,
				"element": "C" 
			},
			{
				"x": 0.9706380582,
				"y": 0.4087432652,
				"z": -1.5417923019,
				"element": "N" 
			},
			{
				"x": 1.0601146975,
				"y": -0.0707840471,
				"z": -0.2864089922,
				"element": "C" 
			},
			{
				"x": 1.5724739349,
				"y": 0.7108948227,
				"z": 0.6514697778,
				"element": "N" 
			},
			{
				"x": 1.8414636937,
				"y": 1.8348419294,
				"z": -0.080529189,
				"element": "N" 
			},
			{
				"x": 2.4141902556,
				"y": 3.013142771,
				"z": 0.3437622571,
				"element": "C" 
			},
			{
				"x": 2.8179693739,
				"y": 3.2065298502,
				"z": 1.5940357036,
				"element": "O" 
			},
			{
				"x": 2.1105980029,
				"y": 2.6428821405,
				"z": 2.7277489863,
				"element": "C" 
			},
			{
				"x": 2.6061101712,
				"y": 3.9757837282,
				"z": -0.6187763416,
				"element": "C" 
			},
			{
				"x": 0.5604028225,
				"y": -1.7580480411,
				"z": 0.092043895,
				"element": "S" 
			},
			{
				"x": 0.3745487102,
				"y": -1.8793952006,
				"z": 1.5316330944,
				"element": "O" 
			},
			{
				"x": 1.4561771316,
				"y": -2.6223304005,
				"z": -0.6638397557,
				"element": "O" 
			},
			{
				"x": -0.9753504712,
				"y": -1.8432590169,
				"z": -0.6460446515,
				"element": "N" 
			},
			{
				"x": -2.1682416125,
				"y": -1.7516104512,
				"z": 0.1071478925,
				"element": "C" 
			},
			{
				"x": -2.9965184049,
				"y": -0.6116599548,
				"z": 0.0695169269,
				"element": "C" 
			},
			{
				"x": -2.4942776551,
				"y": 0.7508792879,
				"z": -0.9250953013,
				"element": "Cl" 
			},
			{
				"x": -4.2088377284,
				"y": -0.5215470861,
				"z": 0.7673240375,
				"element": "C" 
			},
			{
				"x": -5.0809057521,
				"y": 0.7059909441,
				"z": 0.7022196066,
				"element": "C" 
			},
			{
				"x": -4.5779576006,
				"y": -1.6253392078,
				"z": 1.543698867,
				"element": "C" 
			},
			{
				"x": -3.7975948401,
				"y": -2.7753055628,
				"z": 1.5997673113,
				"element": "C" 
			},
			{
				"x": -2.6126839523,
				"y": -2.8477224415,
				"z": 0.8729920224,
				"element": "C" 
			},
			{
				"x": -1.7147340774,
				"y": -4.3430414828,
				"z": 0.8883452742,
				"element": "Cl" 
			},
			{
				"x": 2.3125108074,
				"y": 5.3661096619,
				"z": -4.7296873342,
				"element": "H" 
			},
			{
				"x": 2.5823885414,
				"y": 3.5950653666,
				"z": -4.6126715256,
				"element": "H" 
			},
			{
				"x": 0.9721743468,
				"y": 4.2641719216,
				"z": -4.2689835094,
				"element": "H" 
			},
			{
				"x": 2.5377367389,
				"y": 3.1524585535,
				"z": 3.5909317723,
				"element": "H" 
			},
			{
				"x": 2.261970441,
				"y": 1.5671417363,
				"z": 2.7874700508,
				"element": "H" 
			},
			{
				"x": 1.0422111478,
				"y": 2.8630778302,
				"z": 2.6552914036,
				"element": "H" 
			},
			{
				"x": 3.0443481814,
				"y": 4.9267435583,
				"z": -0.3511699349,
				"element": "H" 
			},
			{
				"x": -0.9680212606,
				"y": -1.3591250651,
				"z": -1.5409351564,
				"element": "H" 
			},
			{
				"x": -5.9690517627,
				"y": 0.5777260547,
				"z": 1.3253772565,
				"element": "H" 
			},
			{
				"x": -5.407869245,
				"y": 0.9101627642,
				"z": -0.3228789916,
				"element": "H" 
			},
			{
				"x": -4.5456694545,
				"y": 1.5966997,
				"z": 1.0478638169,
				"element": "H" 
			},
			{
				"x": -5.5056414403,
				"y": -1.5842544671,
				"z": 2.1068054102,
				"element": "H" 
			},
			{
				"x": -4.1113897646,
				"y": -3.6289169956,
				"z": 2.1892699651,
				"element": "H" 
			}
		],
		 "valence_orbital": [ 
			{
				"type": "occ",
				"energy": -0.29178,
				"method": "rhf"
			},
			{
				"type": "occ",
				"energy": -0.26691,
				"method": "rhf"
			},
			{
				"type": "occ",
				"energy": -0.25649,
				"method": "rhf"
			},
			{
				"type": "occ",
				"energy": -0.25033,
				"method": "rhf"
			},
			{
				"type": "occ",
				"energy": -0.24169,
				"method": "rhf"
			},
			{
				"type": "unocc",
				"energy": -0.0533,
				"method": "rhf"
			},
			{
				"type": "unocc",
				"energy": -0.03437,
				"method": "rhf"
			},
			{
				"type": "unocc",
				"energy": -0.02851,
				"method": "rhf"
			},
			{
				"type": "unocc",
				"energy": -0.02317,
				"method": "rhf"
			},
			{
				"type": "unocc",
				"energy": 0.00528,
				"method": "rhf"
			}
		],
		"cosmo_sigma_profile": { 
			"-0.025": 0.0,
			"-0.024": 0.0,
			"-0.023": 0.0,
			"-0.022": 0.0,
			"-0.021": 0.0,
			"-0.02": 0.0,
			"-0.019": 0.0,
			"-0.018": 0.0,
			"-0.017": 0.0,
			"-0.016": 0.0,
			"-0.015": 0.0,
			"-0.014": 0.625419600746,
			"-0.013": 0.422830932318,
			"-0.012": 0.723808029825,
			"-0.011": 0.87385699962,
			"-0.01": 0.849142212621,
			"-0.009": 2.91628230036,
			"-0.008": 5.94381552819,
			"-0.007": 15.8663552983,
			"-0.006": 21.0679910587,
			"-0.005": 25.9480289648,
			"-0.004": 31.0306343503,
			"-0.003": 29.4171852169,
			"-0.002": 30.0238317604,
			"-0.001": 33.129244498,
			"0.0": 32.7525978923,
			"0.001": 26.3087057089,
			"0.002": 25.784894588,
			"0.003": 20.9254352419,
			"0.004": 17.2487263379,
			"0.005": 10.853366866,
			"0.006": 10.5444574728,
			"0.007": 10.9911257292,
			"0.008": 10.1736139731,
			"0.009": 12.8699547875,
			"0.01": 14.2520754926,
			"0.011": 2.55420713575,
			"0.012": 1.23721337618,
			"0.013": 0.21115083976,
			"0.014": 0.0,
			"0.015": 0.0,
			"0.016": 0.0,
			"0.017": 0.0,
			"0.018": 0.0,
			"0.019": 0.0,
			"0.02": 0.0,
			"0.021": 0.0,
			"0.022": 0.0,
			"0.023": 0.0,
			"0.024": 0.0,
			"0.025": 0.0
		}
	}
}
