{
	 "smiles": "CCOC1=C(N)C=C(C=C1)C(=O)N1CCCCC1", 
	 "Tm": 417.15, 
	 "num_atms": 38, 
	 "gaussian": { 
		 "optdone": 1, 
		 "sigma_profile": "yes", 
		 "theory": "DFT", 
		 "functional": "B3LYP", 
		 "basiset": "6-31G**", 
		 "properties": { 
			 "R2extent": 7364.6882, 
			 "electric_dipole_moment_norm": 3.78443019885, 
			 "electric_quadrupole_moment_norm": 19.0749063185, 
			 "total_energy": -805.512412715, 
			 "HOMO_LUMO_gap": 0.18359, 
			 "cosmo_polarized_energy": -15.7, 
			 "cosmo_cavitation_energy": 38.99, 
			 "cosmo_dispersion_energy": -28.34, 
			 "cosmo_repulsion_energy": 2.23, 
			 "cosmo_total_nonelectrostatic_energy": 12.89, 
			 "SMD_solvation_energy": 5.94 
		},
		"coords": [
			{
				"x": -5.2109258913,
				"y": -0.6135403221,
				"z": 1.7939651525,
				"element": "C" 
			},
			{
				"x": -3.9517013533,
				"y": -0.0438068072,
				"z": 1.1644438057,
				"element": "C" 
			},
			{
				"x": -2.8388065407,
				"y": -0.5060442814,
				"z": 1.9269550657,
				"element": "O" 
			},
			{
				"x": -1.5775020286,
				"y": -0.1197889601,
				"z": 1.5542499112,
				"element": "C" 
			},
			{
				"x": -0.5440052546,
				"y": -0.6056964511,
				"z": 2.3950421555,
				"element": "C" 
			},
			{
				"x": -0.8707241203,
				"y": -1.4593248186,
				"z": 3.4471123914,
				"element": "N" 
			},
			{
				"x": 0.7700853241,
				"y": -0.2413383037,
				"z": 2.1075216595,
				"element": "C" 
			},
			{
				"x": 1.0854695603,
				"y": 0.5570664087,
				"z": 0.9976416198,
				"element": "C" 
			},
			{
				"x": 0.0537280763,
				"y": 1.0298048856,
				"z": 0.1827213756,
				"element": "C" 
			},
			{
				"x": -1.2756262096,
				"y": 0.6961321704,
				"z": 0.4667777473,
				"element": "C" 
			},
			{
				"x": 2.5246680182,
				"y": 0.9576261862,
				"z": 0.8343096642,
				"element": "C" 
			},
			{
				"x": 3.2189509944,
				"y": 1.1905469366,
				"z": 1.8261857199,
				"element": "O" 
			},
			{
				"x": 3.0464762773,
				"y": 1.0955345293,
				"z": -0.4328909033,
				"element": "N" 
			},
			{
				"x": 2.5112801809,
				"y": 0.4474253365,
				"z": -1.6400820288,
				"element": "C" 
			},
			{
				"x": 3.6285286203,
				"y": -0.2830820521,
				"z": -2.3954674007,
				"element": "C" 
			},
			{
				"x": 4.7362197205,
				"y": 0.6916672695,
				"z": -2.8595517221,
				"element": "C" 
			},
			{
				"x": 4.8018334936,
				"y": 1.9354358675,
				"z": -1.9459518848,
				"element": "C" 
			},
			{
				"x": 4.4291339287,
				"y": 1.6008489049,
				"z": -0.5016834623,
				"element": "C" 
			},
			{
				"x": -5.184308549,
				"y": -1.7068135143,
				"z": 1.7880903889,
				"element": "H" 
			},
			{
				"x": -6.0924737918,
				"y": -0.284886322,
				"z": 1.2351471618,
				"element": "H" 
			},
			{
				"x": -5.3124962471,
				"y": -0.2756794821,
				"z": 2.8293154058,
				"element": "H" 
			},
			{
				"x": -3.9741213045,
				"y": 1.0552418419,
				"z": 1.165976197,
				"element": "H" 
			},
			{
				"x": -3.8501766755,
				"y": -0.375982135,
				"z": 0.1217197876,
				"element": "H" 
			},
			{
				"x": -1.8326553713,
				"y": -1.3875279374,
				"z": 3.7487337254,
				"element": "H" 
			},
			{
				"x": -0.2136295045,
				"y": -1.4552943619,
				"z": 4.21471209,
				"element": "H" 
			},
			{
				"x": 1.5765602052,
				"y": -0.5667650278,
				"z": 2.7576219129,
				"element": "H" 
			},
			{
				"x": 0.2677827165,
				"y": 1.6864563263,
				"z": -0.6534831572,
				"element": "H" 
			},
			{
				"x": -2.067989938,
				"y": 1.0868886734,
				"z": -0.1608383203,
				"element": "H" 
			},
			{
				"x": 2.0412593357,
				"y": 1.1880467473,
				"z": -2.3045504115,
				"element": "H" 
			},
			{
				"x": 1.7313263785,
				"y": -0.2541649727,
				"z": -1.3434835565,
				"element": "H" 
			},
			{
				"x": 4.0492775217,
				"y": -1.0441942344,
				"z": -1.7281214241,
				"element": "H" 
			},
			{
				"x": 3.1967758052,
				"y": -0.8183943235,
				"z": -3.2482790957,
				"element": "H" 
			},
			{
				"x": 4.5573103265,
				"y": 1.0081197331,
				"z": -3.8934129906,
				"element": "H" 
			},
			{
				"x": 5.7011626654,
				"y": 0.1723729955,
				"z": -2.8585146296,
				"element": "H" 
			},
			{
				"x": 5.8039833283,
				"y": 2.3763830994,
				"z": -1.9650987559,
				"element": "H" 
			},
			{
				"x": 4.1170523416,
				"y": 2.7091023611,
				"z": -2.3143249303,
				"element": "H" 
			},
			{
				"x": 4.4995585903,
				"y": 2.4791881453,
				"z": 0.1444231448,
				"element": "H" 
			},
			{
				"x": 5.1250193707,
				"y": 0.8589358889,
				"z": -0.0836314088,
				"element": "H" 
			}
		],
		 "valence_orbital": [ 
			{
				"type": "occ",
				"energy": -0.29874,
				"method": "rhf"
			},
			{
				"type": "occ",
				"energy": -0.24004,
				"method": "rhf"
			},
			{
				"type": "occ",
				"energy": -0.22348,
				"method": "rhf"
			},
			{
				"type": "occ",
				"energy": -0.21779,
				"method": "rhf"
			},
			{
				"type": "occ",
				"energy": -0.19019,
				"method": "rhf"
			},
			{
				"type": "unocc",
				"energy": -0.0066,
				"method": "rhf"
			},
			{
				"type": "unocc",
				"energy": 0.01556,
				"method": "rhf"
			},
			{
				"type": "unocc",
				"energy": 0.0734,
				"method": "rhf"
			},
			{
				"type": "unocc",
				"energy": 0.07822,
				"method": "rhf"
			},
			{
				"type": "unocc",
				"energy": 0.09135,
				"method": "rhf"
			}
		],
		"cosmo_sigma_profile": { 
			"-0.025": 0.0,
			"-0.024": 0.0,
			"-0.023": 0.0,
			"-0.022": 0.0,
			"-0.021": 0.0,
			"-0.02": 0.0,
			"-0.019": 0.0,
			"-0.018": 0.0,
			"-0.017": 0.0,
			"-0.016": 0.0,
			"-0.015": 0.0,
			"-0.014": 0.0,
			"-0.013": 0.126053352846,
			"-0.012": 1.21409744711,
			"-0.011": 1.58925647855,
			"-0.01": 2.27814853962,
			"-0.009": 2.65586402273,
			"-0.008": 2.57655661632,
			"-0.007": 2.38967812981,
			"-0.006": 4.54313143532,
			"-0.005": 11.2847758098,
			"-0.004": 24.8755356566,
			"-0.003": 40.8171794948,
			"-0.002": 46.641615709,
			"-0.001": 34.5754169951,
			"0.0": 28.1314587618,
			"0.001": 19.1108497422,
			"0.002": 10.8576377804,
			"0.003": 10.8513185182,
			"0.004": 11.5199448907,
			"0.005": 12.1056602655,
			"0.006": 7.58102219429,
			"0.007": 3.50582870296,
			"0.008": 3.33736306333,
			"0.009": 3.11682949783,
			"0.01": 2.03887379251,
			"0.011": 2.31874693201,
			"0.012": 2.68501064839,
			"0.013": 2.79665996227,
			"0.014": 4.84709694673,
			"0.015": 3.97776640123,
			"0.016": 0.257819708041,
			"0.017": 0.0,
			"0.018": 0.0,
			"0.019": 0.0,
			"0.02": 0.0,
			"0.021": 0.0,
			"0.022": 0.0,
			"0.023": 0.0,
			"0.024": 0.0,
			"0.025": 0.0
		}
	}
}
