{
	 "smiles": "CC(C)C1=NOC(N)=C1", 
	 "Tm": 307.15, 
	 "num_atms": 19, 
	 "gaussian": { 
		 "optdone": 1, 
		 "sigma_profile": "yes", 
		 "theory": "DFT", 
		 "functional": "B3LYP", 
		 "basiset": "6-31G**", 
		 "properties": { 
			 "R2extent": 2236.69, 
			 "electric_dipole_moment_norm": 3.61992257376, 
			 "electric_quadrupole_moment_norm": 17.8987576756, 
			 "total_energy": -419.352863711, 
			 "HOMO_LUMO_gap": 0.23171, 
			 "cosmo_polarized_energy": -12.56, 
			 "cosmo_cavitation_energy": 22.46, 
			 "cosmo_dispersion_energy": -16.35, 
			 "cosmo_repulsion_energy": 1.37, 
			 "cosmo_total_nonelectrostatic_energy": 7.49, 
			 "SMD_solvation_energy": 4.05 
		},
		"coords": [
			{
				"x": -0.0102642185,
				"y": -1.1790516863,
				"z": 0.331984525,
				"element": "C" 
			},
			{
				"x": 1.2156784377,
				"y": -0.3411941293,
				"z": -0.0741747082,
				"element": "C" 
			},
			{
				"x": 1.5509167427,
				"y": 0.7180056383,
				"z": 0.9913781707,
				"element": "C" 
			},
			{
				"x": 1.0181230196,
				"y": 0.2913336978,
				"z": -1.4289626085,
				"element": "C" 
			},
			{
				"x": 1.8269985446,
				"y": -0.0388867854,
				"z": -2.412145349,
				"element": "N" 
			},
			{
				"x": 1.3758934907,
				"y": 0.7207995557,
				"z": -3.5294079687,
				"element": "O" 
			},
			{
				"x": 0.32104946,
				"y": 1.4595943324,
				"z": -3.1505069419,
				"element": "C" 
			},
			{
				"x": -0.2741560041,
				"y": 2.212465091,
				"z": -4.1359691921,
				"element": "N" 
			},
			{
				"x": 0.0346985267,
				"y": 1.2435334316,
				"z": -1.8278290837,
				"element": "C" 
			},
			{
				"x": 0.16639745,
				"y": -1.6750722413,
				"z": 1.2923060238,
				"element": "H" 
			},
			{
				"x": -0.9018679243,
				"y": -0.5511281704,
				"z": 0.439539107,
				"element": "H" 
			},
			{
				"x": -0.2285928393,
				"y": -1.9480955812,
				"z": -0.4147894054,
				"element": "H" 
			},
			{
				"x": 2.0757124434,
				"y": -1.0134045436,
				"z": -0.1765613622,
				"element": "H" 
			},
			{
				"x": 0.7218633108,
				"y": 1.4219537989,
				"z": 1.1256720606,
				"element": "H" 
			},
			{
				"x": 1.7426614745,
				"y": 0.2407066878,
				"z": 1.9582378209,
				"element": "H" 
			},
			{
				"x": 2.4390668185,
				"y": 1.2928397163,
				"z": 0.7125110416,
				"element": "H" 
			},
			{
				"x": -0.7847327093,
				"y": 3.0194748373,
				"z": -3.8079148674,
				"element": "H" 
			},
			{
				"x": 0.3256232247,
				"y": 2.4127690853,
				"z": -4.9253453692,
				"element": "H" 
			},
			{
				"x": -0.7543692484,
				"y": 1.6838572651,
				"z": -1.2388218935,
				"element": "H" 
			}
		],
		 "valence_orbital": [ 
			{
				"type": "occ",
				"energy": -0.33349,
				"method": "rhf"
			},
			{
				"type": "occ",
				"energy": -0.32992,
				"method": "rhf"
			},
			{
				"type": "occ",
				"energy": -0.28918,
				"method": "rhf"
			},
			{
				"type": "occ",
				"energy": -0.27277,
				"method": "rhf"
			},
			{
				"type": "occ",
				"energy": -0.21338,
				"method": "rhf"
			},
			{
				"type": "unocc",
				"energy": 0.01833,
				"method": "rhf"
			},
			{
				"type": "unocc",
				"energy": 0.06158,
				"method": "rhf"
			},
			{
				"type": "unocc",
				"energy": 0.08471,
				"method": "rhf"
			},
			{
				"type": "unocc",
				"energy": 0.09318,
				"method": "rhf"
			},
			{
				"type": "unocc",
				"energy": 0.10992,
				"method": "rhf"
			}
		],
		"cosmo_sigma_profile": { 
			"-0.025": 0.0,
			"-0.024": 0.0,
			"-0.023": 0.0,
			"-0.022": 0.0,
			"-0.021": 0.0,
			"-0.02": 0.0,
			"-0.019": 0.0,
			"-0.018": 0.0,
			"-0.017": 0.0,
			"-0.016": 0.0,
			"-0.015": 0.275616956544,
			"-0.014": 2.36600809287,
			"-0.013": 2.72436190328,
			"-0.012": 2.41247521682,
			"-0.011": 2.36689109734,
			"-0.01": 2.89887286648,
			"-0.009": 2.400125848,
			"-0.008": 1.76747669513,
			"-0.007": 3.17854510311,
			"-0.006": 3.57849508384,
			"-0.005": 2.88078559882,
			"-0.004": 8.12983566207,
			"-0.003": 17.4009045705,
			"-0.002": 15.670649018,
			"-0.001": 18.5152514491,
			"0.0": 17.4533799274,
			"0.001": 17.7890575679,
			"0.002": 6.59197275307,
			"0.003": 6.58102540089,
			"0.004": 7.90742147394,
			"0.005": 5.30891774009,
			"0.006": 3.67516926087,
			"0.007": 1.93754014204,
			"0.008": 3.47086134588,
			"0.009": 5.74383352208,
			"0.01": 3.03188454047,
			"0.011": 2.73508519748,
			"0.012": 2.1227388924,
			"0.013": 1.41043369545,
			"0.014": 1.77039375447,
			"0.015": 1.19615092866,
			"0.016": 0.686391866951,
			"0.017": 0.0,
			"0.018": 0.0,
			"0.019": 0.0,
			"0.02": 0.0,
			"0.021": 0.0,
			"0.022": 0.0,
			"0.023": 0.0,
			"0.024": 0.0,
			"0.025": 0.0
		}
	}
}
