{
	 "smiles": "CC(N1C=CN=C1)C(N)=NO", 
	 "Tm": 425.15, 
	 "num_atms": 21, 
	 "gaussian": { 
		 "optdone": 1, 
		 "sigma_profile": "yes", 
		 "theory": "DFT", 
		 "functional": "B3LYP", 
		 "basiset": "6-31G**", 
		 "properties": { 
			 "R2extent": 2239.9442, 
			 "electric_dipole_moment_norm": 2.67369132474, 
			 "electric_quadrupole_moment_norm": 16.4971155164, 
			 "total_energy": -528.828969337, 
			 "HOMO_LUMO_gap": 0.23571, 
			 "cosmo_polarized_energy": -15.47, 
			 "cosmo_cavitation_energy": 24.6, 
			 "cosmo_dispersion_energy": -17.64, 
			 "cosmo_repulsion_energy": 1.43, 
			 "cosmo_total_nonelectrostatic_energy": 8.39, 
			 "SMD_solvation_energy": 3.33 
		},
		"coords": [
			{
				"x": -0.9233085455,
				"y": 0.4814491921,
				"z": 0.3291533817,
				"element": "C" 
			},
			{
				"x": 0.351705346,
				"y": 0.7137534281,
				"z": -0.49407236,
				"element": "C" 
			},
			{
				"x": 1.3604329931,
				"y": -0.3238345615,
				"z": -0.2651121943,
				"element": "N" 
			},
			{
				"x": 1.1803683351,
				"y": -1.6956959994,
				"z": -0.1748939438,
				"element": "C" 
			},
			{
				"x": 2.4388166562,
				"y": -2.2219474,
				"z": -0.013132519,
				"element": "C" 
			},
			{
				"x": 3.3883372384,
				"y": -1.2254953391,
				"z": 0.0000658111,
				"element": "N" 
			},
			{
				"x": 2.7101564164,
				"y": -0.109059082,
				"z": -0.1539382298,
				"element": "C" 
			},
			{
				"x": 0.0203623091,
				"y": 0.8701166452,
				"z": -1.9750694548,
				"element": "C" 
			},
			{
				"x": 0.0375284254,
				"y": -0.2723524991,
				"z": -2.7600514724,
				"element": "N" 
			},
			{
				"x": -0.3691116796,
				"y": 1.9743836234,
				"z": -2.5096117294,
				"element": "N" 
			},
			{
				"x": -0.4918958929,
				"y": 2.9970981557,
				"z": -1.5242381278,
				"element": "O" 
			},
			{
				"x": -1.5795416869,
				"y": 1.3455695312,
				"z": 0.2071440654,
				"element": "H" 
			},
			{
				"x": -0.6767986887,
				"y": 0.3658297672,
				"z": 1.3882033565,
				"element": "H" 
			},
			{
				"x": -1.4599637467,
				"y": -0.4081699704,
				"z": -0.0110716053,
				"element": "H" 
			},
			{
				"x": 0.7997552557,
				"y": 1.6570973628,
				"z": -0.1741934771,
				"element": "H" 
			},
			{
				"x": 0.2041653125,
				"y": -2.1507465002,
				"z": -0.2244899379,
				"element": "H" 
			},
			{
				"x": 2.7107717587,
				"y": -3.262339733,
				"z": 0.1022938151,
				"element": "H" 
			},
			{
				"x": 3.1286515513,
				"y": 0.8883078551,
				"z": -0.1921073789,
				"element": "H" 
			},
			{
				"x": 0.8150905324,
				"y": -0.8981399735,
				"z": -2.5897934603,
				"element": "H" 
			},
			{
				"x": -0.1109206444,
				"y": -0.0776398241,
				"z": -3.7429654597,
				"element": "H" 
			},
			{
				"x": -0.7123012457,
				"y": 3.7629153215,
				"z": -2.0685190795,
				"element": "H" 
			}
		],
		 "valence_orbital": [ 
			{
				"type": "occ",
				"energy": -0.28932,
				"method": "rhf"
			},
			{
				"type": "occ",
				"energy": -0.26447,
				"method": "rhf"
			},
			{
				"type": "occ",
				"energy": -0.26216,
				"method": "rhf"
			},
			{
				"type": "occ",
				"energy": -0.22889,
				"method": "rhf"
			},
			{
				"type": "occ",
				"energy": -0.22042,
				"method": "rhf"
			},
			{
				"type": "unocc",
				"energy": 0.01529,
				"method": "rhf"
			},
			{
				"type": "unocc",
				"energy": 0.02674,
				"method": "rhf"
			},
			{
				"type": "unocc",
				"energy": 0.06329,
				"method": "rhf"
			},
			{
				"type": "unocc",
				"energy": 0.07158,
				"method": "rhf"
			},
			{
				"type": "unocc",
				"energy": 0.08709,
				"method": "rhf"
			}
		],
		"cosmo_sigma_profile": { 
			"-0.025": 0.0,
			"-0.024": 0.0,
			"-0.023": 0.0,
			"-0.022": 0.0,
			"-0.021": 0.0,
			"-0.02": 0.0,
			"-0.019": 0.0,
			"-0.018": 0.0,
			"-0.017": 0.262120639485,
			"-0.016": 1.15999198141,
			"-0.015": 0.658773360474,
			"-0.014": 0.77922992102,
			"-0.013": 1.39512662437,
			"-0.012": 2.50634377092,
			"-0.011": 1.76190135572,
			"-0.01": 3.3346690549,
			"-0.009": 5.25177360356,
			"-0.008": 6.95106495363,
			"-0.007": 7.83907579926,
			"-0.006": 7.90005610088,
			"-0.005": 9.5622219386,
			"-0.004": 11.7055943511,
			"-0.003": 14.2666056575,
			"-0.002": 11.4138961045,
			"-0.001": 16.5225346591,
			"0.0": 9.96783693395,
			"0.001": 8.32260560948,
			"0.002": 7.0986741081,
			"0.003": 7.58146482138,
			"0.004": 7.46833135604,
			"0.005": 8.44333466746,
			"0.006": 7.23010665746,
			"0.007": 6.46789043523,
			"0.008": 6.13927994172,
			"0.009": 4.73588044453,
			"0.01": 3.16041306252,
			"0.011": 3.14603143098,
			"0.012": 2.84171905321,
			"0.013": 2.00423656894,
			"0.014": 1.94565928338,
			"0.015": 1.32870840966,
			"0.016": 1.09371495,
			"0.017": 1.19918754097,
			"0.018": 0.752581664225,
			"0.019": 0.0223892263974,
			"0.02": 0.0,
			"0.021": 0.0,
			"0.022": 0.0,
			"0.023": 0.0,
			"0.024": 0.0,
			"0.025": 0.0
		}
	}
}
