{
	 "smiles": "OC(=O)COC1=CC(F)=C(C=C1)[N+]([O-])=O", 
	 "Tm": 423.15, 
	 "num_atms": 21, 
	 "gaussian": { 
		 "optdone": 1, 
		 "sigma_profile": "yes", 
		 "theory": "DFT", 
		 "functional": "B3LYP", 
		 "basiset": "6-31G**", 
		 "properties": { 
			 "R2extent": 4203.1286, 
			 "electric_dipole_moment_norm": 7.09331866266, 
			 "electric_quadrupole_moment_norm": 14.2533922654, 
			 "total_energy": -839.058915875, 
			 "HOMO_LUMO_gap": 0.17558, 
			 "cosmo_polarized_energy": -18.16, 
			 "cosmo_cavitation_energy": 27.81, 
			 "cosmo_dispersion_energy": -20.05, 
			 "cosmo_repulsion_energy": 1.57, 
			 "cosmo_total_nonelectrostatic_energy": 9.33, 
			 "SMD_solvation_energy": 9.02 
		},
		"coords": [
			{
				"x": -1.2546434639,
				"y": 1.2475526849,
				"z": 4.3092203432,
				"element": "O" 
			},
			{
				"x": -0.4983125415,
				"y": 0.6391167048,
				"z": 3.3695841033,
				"element": "C" 
			},
			{
				"x": -0.7422963372,
				"y": -0.4393925213,
				"z": 2.8897108064,
				"element": "O" 
			},
			{
				"x": 0.6997832659,
				"y": 1.5184427099,
				"z": 3.0248575477,
				"element": "C" 
			},
			{
				"x": 1.5586820914,
				"y": 0.9126583589,
				"z": 2.0845450761,
				"element": "O" 
			},
			{
				"x": 1.2203887787,
				"y": 0.8897163203,
				"z": 0.7687825346,
				"element": "C" 
			},
			{
				"x": 0.0507352232,
				"y": 1.4412003387,
				"z": 0.239181107,
				"element": "C" 
			},
			{
				"x": -0.1752924339,
				"y": 1.3854138709,
				"z": -1.1329282712,
				"element": "C" 
			},
			{
				"x": -1.3105221459,
				"y": 1.9258490014,
				"z": -1.5767054646,
				"element": "F" 
			},
			{
				"x": 0.7541435226,
				"y": 0.7829293426,
				"z": -1.9915103217,
				"element": "C" 
			},
			{
				"x": 1.9197875007,
				"y": 0.2302010593,
				"z": -1.4421711631,
				"element": "C" 
			},
			{
				"x": 2.1583428893,
				"y": 0.2794791019,
				"z": -0.082472545,
				"element": "C" 
			},
			{
				"x": 0.5620997889,
				"y": 0.703343987,
				"z": -3.43718482,
				"element": "N" 
			},
			{
				"x": -0.4509600194,
				"y": 1.2048193188,
				"z": -3.9199982478,
				"element": "O" 
			},
			{
				"x": 1.4404191272,
				"y": 0.1332258849,
				"z": -4.0896877786,
				"element": "O" 
			},
			{
				"x": -1.995661588,
				"y": 0.6495161428,
				"z": 4.5060628049,
				"element": "H" 
			},
			{
				"x": 1.2945385508,
				"y": 1.6637627082,
				"z": 3.9308453051,
				"element": "H" 
			},
			{
				"x": 0.3521012098,
				"y": 2.5069706052,
				"z": 2.6996566101,
				"element": "H" 
			},
			{
				"x": -0.7149293109,
				"y": 1.9030263141,
				"z": 0.8481296567,
				"element": "H" 
			},
			{
				"x": 2.62459632,
				"y": -0.2328612827,
				"z": -2.1210537981,
				"element": "H" 
			},
			{
				"x": 3.0578995722,
				"y": -0.1437706505,
				"z": 0.348736515,
				"element": "H" 
			}
		],
		 "valence_orbital": [ 
			{
				"type": "occ",
				"energy": -0.30191,
				"method": "rhf"
			},
			{
				"type": "occ",
				"energy": -0.30073,
				"method": "rhf"
			},
			{
				"type": "occ",
				"energy": -0.28258,
				"method": "rhf"
			},
			{
				"type": "occ",
				"energy": -0.27758,
				"method": "rhf"
			},
			{
				"type": "occ",
				"energy": -0.25746,
				"method": "rhf"
			},
			{
				"type": "unocc",
				"energy": -0.08188,
				"method": "rhf"
			},
			{
				"type": "unocc",
				"energy": -0.0294,
				"method": "rhf"
			},
			{
				"type": "unocc",
				"energy": -0.01805,
				"method": "rhf"
			},
			{
				"type": "unocc",
				"energy": 0.00626,
				"method": "rhf"
			},
			{
				"type": "unocc",
				"energy": 0.04865,
				"method": "rhf"
			}
		],
		"cosmo_sigma_profile": { 
			"-0.025": 0.0,
			"-0.024": 0.0,
			"-0.023": 0.0,
			"-0.022": 0.0,
			"-0.021": 0.0,
			"-0.02": 0.0,
			"-0.019": 0.750490817906,
			"-0.018": 1.05707479406,
			"-0.017": 0.468216244033,
			"-0.016": 0.938436824018,
			"-0.015": 1.02066466745,
			"-0.014": 0.328386530021,
			"-0.013": 1.43852255801,
			"-0.012": 1.47708065456,
			"-0.011": 1.93567644396,
			"-0.01": 3.49771143621,
			"-0.009": 6.20168313776,
			"-0.008": 7.9930050848,
			"-0.007": 9.76713930131,
			"-0.006": 9.79615537049,
			"-0.005": 9.15846660209,
			"-0.004": 8.88255774828,
			"-0.003": 11.3481106638,
			"-0.002": 13.3266507625,
			"-0.001": 16.2099195322,
			"0.0": 14.4073082996,
			"0.001": 12.799871847,
			"0.002": 10.7402551292,
			"0.003": 11.8257795413,
			"0.004": 6.9936286457,
			"0.005": 6.61939420957,
			"0.006": 8.4849359066,
			"0.007": 10.3285668826,
			"0.008": 15.1419113281,
			"0.009": 8.29652631106,
			"0.01": 7.18285096003,
			"0.011": 4.49431985263,
			"0.012": 0.12686447726,
			"0.013": 0.0,
			"0.014": 0.0,
			"0.015": 0.0,
			"0.016": 0.0,
			"0.017": 0.0,
			"0.018": 0.0,
			"0.019": 0.0,
			"0.02": 0.0,
			"0.021": 0.0,
			"0.022": 0.0,
			"0.023": 0.0,
			"0.024": 0.0,
			"0.025": 0.0
		}
	}
}
