{
	 "smiles": "N1C=CC(=N1)C1=CSC=C1", 
	 "Tm": 384.15, 
	 "num_atms": 16, 
	 "gaussian": { 
		 "optdone": 1, 
		 "sigma_profile": "yes", 
		 "theory": "DFT", 
		 "functional": "B3LYP", 
		 "basiset": "6-31G**", 
		 "properties": { 
			 "R2extent": 2516.7303, 
			 "electric_dipole_moment_norm": 2.74934356711, 
			 "electric_quadrupole_moment_norm": 9.18108920935, 
			 "total_energy": -778.015312315, 
			 "HOMO_LUMO_gap": 0.19848, 
			 "cosmo_polarized_energy": -10.93, 
			 "cosmo_cavitation_energy": 22.0, 
			 "cosmo_dispersion_energy": -17.22, 
			 "cosmo_repulsion_energy": 1.33, 
			 "cosmo_total_nonelectrostatic_energy": 6.11, 
			 "SMD_solvation_energy": 3.44 
		},
		"coords": [
			{
				"x": -0.326793706,
				"y": -2.2718901147,
				"z": -1.6108699516,
				"element": "N" 
			},
			{
				"x": 0.5972934528,
				"y": -2.1504764438,
				"z": -0.6213336481,
				"element": "C" 
			},
			{
				"x": 0.294962725,
				"y": -0.984124586,
				"z": 0.0468226095,
				"element": "C" 
			},
			{
				"x": -0.8464487276,
				"y": -0.4612856788,
				"z": -0.6224566369,
				"element": "C" 
			},
			{
				"x": -1.2154608968,
				"y": -1.2589116903,
				"z": -1.6336181215,
				"element": "N" 
			},
			{
				"x": -1.5986071285,
				"y": 0.7634282663,
				"z": -0.3396704337,
				"element": "C" 
			},
			{
				"x": -1.3085877831,
				"y": 1.6502401242,
				"z": 0.6699031676,
				"element": "C" 
			},
			{
				"x": -2.4124451573,
				"y": 2.9841059042,
				"z": 0.7038917198,
				"element": "S" 
			},
			{
				"x": -3.2843070046,
				"y": 2.350887019,
				"z": -0.6587144842,
				"element": "C" 
			},
			{
				"x": -2.7442774534,
				"y": 1.1800978478,
				"z": -1.1015087868,
				"element": "C" 
			},
			{
				"x": -0.4084720493,
				"y": -3.0076334804,
				"z": -2.2945289251,
				"element": "H" 
			},
			{
				"x": 1.3765682229,
				"y": -2.8838581079,
				"z": -0.4740942967,
				"element": "H" 
			},
			{
				"x": 0.8189785711,
				"y": -0.5679135066,
				"z": 0.8936377105,
				"element": "H" 
			},
			{
				"x": -0.5095100474,
				"y": 1.5957894306,
				"z": 1.3956777738,
				"element": "H" 
			},
			{
				"x": -4.1415835738,
				"y": 2.8817572321,
				"z": -1.0485462374,
				"element": "H" 
			},
			{
				"x": -3.1268094441,
				"y": 0.6106877842,
				"z": -1.9391914592,
				"element": "H" 
			}
		],
		 "valence_orbital": [ 
			{
				"type": "occ",
				"energy": -0.28829,
				"method": "rhf"
			},
			{
				"type": "occ",
				"energy": -0.28763,
				"method": "rhf"
			},
			{
				"type": "occ",
				"energy": -0.24936,
				"method": "rhf"
			},
			{
				"type": "occ",
				"energy": -0.2348,
				"method": "rhf"
			},
			{
				"type": "occ",
				"energy": -0.21087,
				"method": "rhf"
			},
			{
				"type": "unocc",
				"energy": -0.01239,
				"method": "rhf"
			},
			{
				"type": "unocc",
				"energy": 0.01516,
				"method": "rhf"
			},
			{
				"type": "unocc",
				"energy": 0.03808,
				"method": "rhf"
			},
			{
				"type": "unocc",
				"energy": 0.04829,
				"method": "rhf"
			},
			{
				"type": "unocc",
				"energy": 0.07785,
				"method": "rhf"
			}
		],
		"cosmo_sigma_profile": { 
			"-0.025": 0.0,
			"-0.024": 0.0,
			"-0.023": 0.0,
			"-0.022": 0.0,
			"-0.021": 0.0,
			"-0.02": 0.0,
			"-0.019": 0.0,
			"-0.018": 0.0,
			"-0.017": 0.26815797624,
			"-0.016": 1.79398276464,
			"-0.015": 1.39524435956,
			"-0.014": 1.37201973609,
			"-0.013": 1.01600680321,
			"-0.012": 0.834996701763,
			"-0.011": 0.775295787685,
			"-0.01": 1.19414454753,
			"-0.009": 3.54499269379,
			"-0.008": 6.8185009845,
			"-0.007": 7.41752556334,
			"-0.006": 7.95735144505,
			"-0.005": 8.02189699206,
			"-0.004": 8.59221549088,
			"-0.003": 7.51664645014,
			"-0.002": 7.6411704725,
			"-0.001": 7.41439135452,
			"0.0": 9.41634614072,
			"0.001": 9.11518723086,
			"0.002": 10.7686838364,
			"0.003": 13.6309054735,
			"0.004": 24.9704311554,
			"0.005": 20.9187684491,
			"0.006": 6.27115682991,
			"0.007": 2.1522083235,
			"0.008": 1.34534467889,
			"0.009": 1.67328677965,
			"0.01": 1.57788596058,
			"0.011": 0.825961258395,
			"0.012": 1.10459010998,
			"0.013": 1.3546872854,
			"0.014": 0.614496475846,
			"0.015": 0.143453351518,
			"0.016": 0.0,
			"0.017": 0.0,
			"0.018": 0.0,
			"0.019": 0.0,
			"0.02": 0.0,
			"0.021": 0.0,
			"0.022": 0.0,
			"0.023": 0.0,
			"0.024": 0.0,
			"0.025": 0.0
		}
	}
}
