{
	 "smiles": "S1C2=C(C=CC=C2)N=C1C(=CC1=CC=CC=C1)C1=CC=CC=C1", 
	 "Tm": 382.15, 
	 "num_atms": 38, 
	 "gaussian": { 
		 "optdone": 1, 
		 "sigma_profile": "yes", 
		 "theory": "DFT", 
		 "functional": "B3LYP", 
		 "basiset": "6-31G**", 
		 "properties": { 
			 "R2extent": 8625.4628, 
			 "electric_dipole_moment_norm": 1.03167674685, 
			 "electric_quadrupole_moment_norm": 13.8594182313, 
			 "total_energy": -1262.21251237, 
			 "HOMO_LUMO_gap": 0.16288, 
			 "cosmo_polarized_energy": -9.55, 
			 "cosmo_cavitation_energy": 43.8, 
			 "cosmo_dispersion_energy": -30.63, 
			 "cosmo_repulsion_energy": 2.29, 
			 "cosmo_total_nonelectrostatic_energy": 15.46, 
			 "SMD_solvation_energy": 5.18 
		},
		"coords": [
			{
				"x": -1.7860225826,
				"y": 0.603126172,
				"z": -1.1544641499,
				"element": "S" 
			},
			{
				"x": -1.8122297789,
				"y": -0.1106013362,
				"z": -2.751556849,
				"element": "C" 
			},
			{
				"x": -1.0124442984,
				"y": -1.2800206257,
				"z": -2.750859328,
				"element": "C" 
			},
			{
				"x": -0.8774798391,
				"y": -2.0305954681,
				"z": -3.9280770567,
				"element": "C" 
			},
			{
				"x": -1.537236584,
				"y": -1.6074732586,
				"z": -5.0752356772,
				"element": "C" 
			},
			{
				"x": -2.3285029533,
				"y": -0.4450133801,
				"z": -5.0646875054,
				"element": "C" 
			},
			{
				"x": -2.4740237422,
				"y": 0.3149364745,
				"z": -3.9071997562,
				"element": "C" 
			},
			{
				"x": -0.4074508418,
				"y": -1.5859426827,
				"z": -1.5395540847,
				"element": "N" 
			},
			{
				"x": -0.6990295588,
				"y": -0.7115144464,
				"z": -0.6282560941,
				"element": "C" 
			},
			{
				"x": -0.2723530424,
				"y": -0.7642851453,
				"z": 0.7954584358,
				"element": "C" 
			},
			{
				"x": 0.6667869517,
				"y": 0.0634211591,
				"z": 1.3101750225,
				"element": "C" 
			},
			{
				"x": 1.4914358669,
				"y": 1.0927178441,
				"z": 0.6613264786,
				"element": "C" 
			},
			{
				"x": 1.9788035111,
				"y": 2.1453980722,
				"z": 1.4603573425,
				"element": "C" 
			},
			{
				"x": 2.7682347342,
				"y": 3.1567321597,
				"z": 0.9189477546,
				"element": "C" 
			},
			{
				"x": 3.108034127,
				"y": 3.1279018672,
				"z": -0.43517558,
				"element": "C" 
			},
			{
				"x": 2.6574151285,
				"y": 2.0756195221,
				"z": -1.2355306791,
				"element": "C" 
			},
			{
				"x": 1.860540018,
				"y": 1.0672121626,
				"z": -0.6975605186,
				"element": "C" 
			},
			{
				"x": -0.987285207,
				"y": -1.7485048649,
				"z": 1.6600170367,
				"element": "C" 
			},
			{
				"x": -1.3382473783,
				"y": -1.4226691796,
				"z": 2.98253008,
				"element": "C" 
			},
			{
				"x": -1.9815293529,
				"y": -2.3495124616,
				"z": 3.800460262,
				"element": "C" 
			},
			{
				"x": -2.2972319931,
				"y": -3.6188409338,
				"z": 3.3116558495,
				"element": "C" 
			},
			{
				"x": -1.9680219659,
				"y": -3.9489663352,
				"z": 1.9959150381,
				"element": "C" 
			},
			{
				"x": -1.3256169547,
				"y": -3.0235631439,
				"z": 1.1742615563,
				"element": "C" 
			},
			{
				"x": -0.2624838162,
				"y": -2.9245277663,
				"z": -3.9194711672,
				"element": "H" 
			},
			{
				"x": -1.441682384,
				"y": -2.1801970337,
				"z": -5.9927592053,
				"element": "H" 
			},
			{
				"x": -2.83527291,
				"y": -0.133046766,
				"z": -5.9730880419,
				"element": "H" 
			},
			{
				"x": -3.0855740567,
				"y": 1.2114634977,
				"z": -3.9050801427,
				"element": "H" 
			},
			{
				"x": 0.8544278951,
				"y": -0.0400724209,
				"z": 2.3775574713,
				"element": "H" 
			},
			{
				"x": 1.7221336268,
				"y": 2.1697665241,
				"z": 2.5165519938,
				"element": "H" 
			},
			{
				"x": 3.1230524049,
				"y": 3.9632457031,
				"z": 1.5542877887,
				"element": "H" 
			},
			{
				"x": 3.7291970642,
				"y": 3.9110639237,
				"z": -0.8600880911,
				"element": "H" 
			},
			{
				"x": 2.9359806298,
				"y": 2.0331999099,
				"z": -2.284641007,
				"element": "H" 
			},
			{
				"x": 1.55105689,
				"y": 0.2392127363,
				"z": -1.3240917627,
				"element": "H" 
			},
			{
				"x": -1.1287467973,
				"y": -0.4272728965,
				"z": 3.3623318525,
				"element": "H" 
			},
			{
				"x": -2.249479283,
				"y": -2.0738624747,
				"z": 4.8166021896,
				"element": "H" 
			},
			{
				"x": -2.8028233441,
				"y": -4.3397943925,
				"z": 3.9475617,
				"element": "H" 
			},
			{
				"x": -2.2107536625,
				"y": -4.9331187,
				"z": 1.6049865704,
				"element": "H" 
			},
			{
				"x": -1.0642765211,
				"y": -3.2876220155,
				"z": 0.155292274,
				"element": "H" 
			}
		],
		 "valence_orbital": [ 
			{
				"type": "occ",
				"energy": -0.25185,
				"method": "rhf"
			},
			{
				"type": "occ",
				"energy": -0.24891,
				"method": "rhf"
			},
			{
				"type": "occ",
				"energy": -0.23657,
				"method": "rhf"
			},
			{
				"type": "occ",
				"energy": -0.23381,
				"method": "rhf"
			},
			{
				"type": "occ",
				"energy": -0.21527,
				"method": "rhf"
			},
			{
				"type": "unocc",
				"energy": -0.05239,
				"method": "rhf"
			},
			{
				"type": "unocc",
				"energy": -0.03222,
				"method": "rhf"
			},
			{
				"type": "unocc",
				"energy": -0.00621,
				"method": "rhf"
			},
			{
				"type": "unocc",
				"energy": -0.00162,
				"method": "rhf"
			},
			{
				"type": "unocc",
				"energy": 0.00019,
				"method": "rhf"
			}
		],
		"cosmo_sigma_profile": { 
			"-0.025": 0.0,
			"-0.024": 0.0,
			"-0.023": 0.0,
			"-0.022": 0.0,
			"-0.021": 0.0,
			"-0.02": 0.0,
			"-0.019": 0.0,
			"-0.018": 0.0,
			"-0.017": 0.0,
			"-0.016": 0.0,
			"-0.015": 0.0,
			"-0.014": 0.0,
			"-0.013": 0.0,
			"-0.012": 0.0,
			"-0.011": 0.0,
			"-0.01": 0.0,
			"-0.009": 0.0,
			"-0.008": 0.135740068872,
			"-0.007": 4.55146527722,
			"-0.006": 22.4419689967,
			"-0.005": 27.1026462965,
			"-0.004": 31.2627595169,
			"-0.003": 25.9400816792,
			"-0.002": 22.4244481756,
			"-0.001": 22.9387998276,
			"0.0": 25.2247942347,
			"0.001": 30.9439591764,
			"0.002": 32.4826538346,
			"0.003": 36.407975777,
			"0.004": 33.1400156949,
			"0.005": 27.3850610573,
			"0.006": 7.43917783462,
			"0.007": 0.84989566268,
			"0.008": 1.20527118274,
			"0.009": 0.677106901255,
			"0.01": 0.570242989141,
			"0.011": 0.490348186907,
			"0.012": 0.68678840748,
			"0.013": 0.642334834913,
			"0.014": 0.236169005794,
			"0.015": 0.0,
			"0.016": 0.0,
			"0.017": 0.0,
			"0.018": 0.0,
			"0.019": 0.0,
			"0.02": 0.0,
			"0.021": 0.0,
			"0.022": 0.0,
			"0.023": 0.0,
			"0.024": 0.0,
			"0.025": 0.0
		}
	}
}
