{
	 "smiles": "CC(C)(O)CCC1=CC=CC=C1O", 
	 "Tm": 388.15, 
	 "num_atms": 29, 
	 "gaussian": { 
		 "optdone": 1, 
		 "sigma_profile": "yes", 
		 "theory": "DFT", 
		 "functional": "B3LYP", 
		 "basiset": "6-31G**", 
		 "properties": { 
			 "R2extent": 4344.0463, 
			 "electric_dipole_moment_norm": 0.53419631223, 
			 "electric_quadrupole_moment_norm": 10.2114750325, 
			 "total_energy": -579.267857021, 
			 "HOMO_LUMO_gap": 0.21335, 
			 "cosmo_polarized_energy": -11.71, 
			 "cosmo_cavitation_energy": 30.17, 
			 "cosmo_dispersion_energy": -21.22, 
			 "cosmo_repulsion_energy": 1.67, 
			 "cosmo_total_nonelectrostatic_energy": 10.62, 
			 "SMD_solvation_energy": 5.3 
		},
		"coords": [
			{
				"x": 2.8355652548,
				"y": 3.3964402156,
				"z": -1.368404069,
				"element": "C" 
			},
			{
				"x": 1.5530291364,
				"y": 2.8601838729,
				"z": -0.7242541389,
				"element": "C" 
			},
			{
				"x": 0.5373827105,
				"y": 4.000119221,
				"z": -0.5276974785,
				"element": "C" 
			},
			{
				"x": 1.9623354074,
				"y": 2.3714445976,
				"z": 0.5617673979,
				"element": "O" 
			},
			{
				"x": 0.8979910644,
				"y": 1.7401829502,
				"z": -1.5667166401,
				"element": "C" 
			},
			{
				"x": 1.7286324415,
				"y": 0.4661473604,
				"z": -1.8422550281,
				"element": "C" 
			},
			{
				"x": 1.9830627627,
				"y": -0.4111161451,
				"z": -0.6322858356,
				"element": "C" 
			},
			{
				"x": 0.9485506745,
				"y": -1.1531690326,
				"z": -0.0517265737,
				"element": "C" 
			},
			{
				"x": 1.1508887437,
				"y": -1.9581759528,
				"z": 1.0720640826,
				"element": "C" 
			},
			{
				"x": 2.42456255,
				"y": -2.0369869402,
				"z": 1.633431955,
				"element": "C" 
			},
			{
				"x": 3.4786333252,
				"y": -1.3200623178,
				"z": 1.0670452564,
				"element": "C" 
			},
			{
				"x": 3.26190647,
				"y": -0.5150020845,
				"z": -0.0550416337,
				"element": "C" 
			},
			{
				"x": 4.2818055714,
				"y": 0.1868213484,
				"z": -0.6411079411,
				"element": "O" 
			},
			{
				"x": 2.6386426558,
				"y": 3.7800277867,
				"z": -2.3746947071,
				"element": "H" 
			},
			{
				"x": 3.592989322,
				"y": 2.6117787098,
				"z": -1.4233612928,
				"element": "H" 
			},
			{
				"x": 3.2391637535,
				"y": 4.2127078505,
				"z": -0.7614906723,
				"element": "H" 
			},
			{
				"x": 0.2448835995,
				"y": 4.4531086313,
				"z": -1.4814443268,
				"element": "H" 
			},
			{
				"x": -0.3724506671,
				"y": 3.6306849736,
				"z": -0.0394436654,
				"element": "H" 
			},
			{
				"x": 0.9703697986,
				"y": 4.7779433506,
				"z": 0.1078779823,
				"element": "H" 
			},
			{
				"x": 1.2338036722,
				"y": 1.8561264202,
				"z": 0.9329440753,
				"element": "H" 
			},
			{
				"x": 0.6030174606,
				"y": 2.1733655179,
				"z": -2.5312862785,
				"element": "H" 
			},
			{
				"x": -0.0409254607,
				"y": 1.4480693818,
				"z": -1.0731602065,
				"element": "H" 
			},
			{
				"x": 1.1746361343,
				"y": -0.124820214,
				"z": -2.5827907465,
				"element": "H" 
			},
			{
				"x": 2.6782317938,
				"y": 0.7326672583,
				"z": -2.3107181002,
				"element": "H" 
			},
			{
				"x": -0.0425218122,
				"y": -1.0980326741,
				"z": -0.4977491748,
				"element": "H" 
			},
			{
				"x": 0.3252233814,
				"y": -2.5203741986,
				"z": 1.4974510828,
				"element": "H" 
			},
			{
				"x": 2.6055965977,
				"y": -2.658274752,
				"z": 2.5057556336,
				"element": "H" 
			},
			{
				"x": 4.4769400601,
				"y": -1.3838414355,
				"z": 1.4962295682,
				"element": "H" 
			},
			{
				"x": 5.0712535981,
				"y": 0.1129363,
				"z": -0.0903385246,
				"element": "H" 
			}
		],
		 "valence_orbital": [ 
			{
				"type": "occ",
				"energy": -0.32111,
				"method": "rhf"
			},
			{
				"type": "occ",
				"energy": -0.299,
				"method": "rhf"
			},
			{
				"type": "occ",
				"energy": -0.25789,
				"method": "rhf"
			},
			{
				"type": "occ",
				"energy": -0.23699,
				"method": "rhf"
			},
			{
				"type": "occ",
				"energy": -0.2116,
				"method": "rhf"
			},
			{
				"type": "unocc",
				"energy": 0.00175,
				"method": "rhf"
			},
			{
				"type": "unocc",
				"energy": 0.01846,
				"method": "rhf"
			},
			{
				"type": "unocc",
				"energy": 0.07168,
				"method": "rhf"
			},
			{
				"type": "unocc",
				"energy": 0.07801,
				"method": "rhf"
			},
			{
				"type": "unocc",
				"energy": 0.09927,
				"method": "rhf"
			}
		],
		"cosmo_sigma_profile": { 
			"-0.025": 0.0,
			"-0.024": 0.0,
			"-0.023": 0.0,
			"-0.022": 0.0,
			"-0.021": 0.0,
			"-0.02": 0.0,
			"-0.019": 0.0,
			"-0.018": 0.0889700514581,
			"-0.017": 0.771996419688,
			"-0.016": 1.04970060929,
			"-0.015": 1.38851366031,
			"-0.014": 0.835230416692,
			"-0.013": 1.21631872459,
			"-0.012": 1.4756815509,
			"-0.011": 1.30212174476,
			"-0.01": 1.72743903816,
			"-0.009": 2.46213818442,
			"-0.008": 2.34226623674,
			"-0.007": 1.48383264681,
			"-0.006": 3.26906651827,
			"-0.005": 8.57916052729,
			"-0.004": 12.0949324145,
			"-0.003": 26.2317158362,
			"-0.002": 25.2300504342,
			"-0.001": 22.7699016983,
			"0.0": 23.2034704325,
			"0.001": 23.2516969888,
			"0.002": 13.6145082144,
			"0.003": 9.10092040358,
			"0.004": 10.9965629293,
			"0.005": 9.38684180627,
			"0.006": 9.77920929281,
			"0.007": 6.25118836494,
			"0.008": 2.35944221732,
			"0.009": 1.80539217637,
			"0.01": 2.33265198945,
			"0.011": 1.85610629352,
			"0.012": 1.12385044659,
			"0.013": 2.06149240882,
			"0.014": 1.85393748438,
			"0.015": 1.50918502349,
			"0.016": 0.210974039568,
			"0.017": 0.0176304963379,
			"0.018": 0.0,
			"0.019": 0.0,
			"0.02": 0.0,
			"0.021": 0.0,
			"0.022": 0.0,
			"0.023": 0.0,
			"0.024": 0.0,
			"0.025": 0.0
		}
	}
}
