{
	 "smiles": "CC(=O)NCC#C", 
	 "Tm": 353.15, 
	 "num_atms": 14, 
	 "gaussian": { 
		 "optdone": 1, 
		 "sigma_profile": "yes", 
		 "theory": "DFT", 
		 "functional": "B3LYP", 
		 "basiset": "6-31G**", 
		 "properties": { 
			 "R2extent": 1159.9901, 
			 "electric_dipole_moment_norm": 3.51162431077, 
			 "electric_quadrupole_moment_norm": 9.50074487501, 
			 "total_energy": -324.659683158, 
			 "HOMO_LUMO_gap": 0.26552, 
			 "cosmo_polarized_energy": -12.34, 
			 "cosmo_cavitation_energy": 18.91, 
			 "cosmo_dispersion_energy": -13.04, 
			 "cosmo_repulsion_energy": 1.12, 
			 "cosmo_total_nonelectrostatic_energy": 6.99, 
			 "SMD_solvation_energy": 5.06 
		},
		"coords": [
			{
				"x": 0.2562638999,
				"y": 0.5981894637,
				"z": 0.0540864527,
				"element": "C" 
			},
			{
				"x": -0.2614693209,
				"y": -0.6094283009,
				"z": 0.8177294047,
				"element": "C" 
			},
			{
				"x": -0.4507756224,
				"y": -0.5960912292,
				"z": 2.0245685916,
				"element": "O" 
			},
			{
				"x": -0.4828191117,
				"y": -1.759389688,
				"z": 0.085392713,
				"element": "N" 
			},
			{
				"x": -0.564416019,
				"y": -1.8530682536,
				"z": -1.367518359,
				"element": "C" 
			},
			{
				"x": -1.8271962278,
				"y": -1.366998616,
				"z": -1.9463161663,
				"element": "C" 
			},
			{
				"x": -2.8649099319,
				"y": -0.9609817557,
				"z": -2.4116513349,
				"element": "C" 
			},
			{
				"x": -0.4557571779,
				"y": 0.9149849286,
				"z": -0.7151891541,
				"element": "H" 
			},
			{
				"x": 0.4019433774,
				"y": 1.4077279333,
				"z": 0.7683308735,
				"element": "H" 
			},
			{
				"x": 1.2095508117,
				"y": 0.3801234754,
				"z": -0.4398350964,
				"element": "H" 
			},
			{
				"x": -0.9518893479,
				"y": -2.4793679927,
				"z": 0.6205399785,
				"element": "H" 
			},
			{
				"x": -0.4160342637,
				"y": -2.9028584381,
				"z": -1.6448355437,
				"element": "H" 
			},
			{
				"x": 0.2746237542,
				"y": -1.3054356721,
				"z": -1.8093521154,
				"element": "H" 
			},
			{
				"x": -3.78451482,
				"y": -0.6061058547,
				"z": -2.8167502443,
				"element": "H" 
			}
		],
		 "valence_orbital": [ 
			{
				"type": "occ",
				"energy": -0.36202,
				"method": "rhf"
			},
			{
				"type": "occ",
				"energy": -0.28995,
				"method": "rhf"
			},
			{
				"type": "occ",
				"energy": -0.27991,
				"method": "rhf"
			},
			{
				"type": "occ",
				"energy": -0.25706,
				"method": "rhf"
			},
			{
				"type": "occ",
				"energy": -0.2454,
				"method": "rhf"
			},
			{
				"type": "unocc",
				"energy": 0.02012,
				"method": "rhf"
			},
			{
				"type": "unocc",
				"energy": 0.03597,
				"method": "rhf"
			},
			{
				"type": "unocc",
				"energy": 0.04089,
				"method": "rhf"
			},
			{
				"type": "unocc",
				"energy": 0.08826,
				"method": "rhf"
			},
			{
				"type": "unocc",
				"energy": 0.10225,
				"method": "rhf"
			}
		],
		"cosmo_sigma_profile": { 
			"-0.025": 0.0,
			"-0.024": 0.0,
			"-0.023": 0.0,
			"-0.022": 0.0,
			"-0.021": 0.0,
			"-0.02": 0.0,
			"-0.019": 0.0,
			"-0.018": 0.0,
			"-0.017": 0.0,
			"-0.016": 0.0,
			"-0.015": 0.0,
			"-0.014": 0.324171464385,
			"-0.013": 1.45449879867,
			"-0.012": 1.69703745472,
			"-0.011": 2.23919425302,
			"-0.01": 2.05601547797,
			"-0.009": 2.40499774225,
			"-0.008": 6.7323828697,
			"-0.007": 7.01147295092,
			"-0.006": 7.61367313051,
			"-0.005": 9.39243259285,
			"-0.004": 9.63766690055,
			"-0.003": 8.9606222256,
			"-0.002": 9.74558394913,
			"-0.001": 10.3004228769,
			"0.0": 8.55831206024,
			"0.001": 6.20271632792,
			"0.002": 5.23515447809,
			"0.003": 6.06675460351,
			"0.004": 7.05925896092,
			"0.005": 8.31377654514,
			"0.006": 7.94879669898,
			"0.007": 3.6065738832,
			"0.008": 0.878079992398,
			"0.009": 1.33576136459,
			"0.01": 1.74171177115,
			"0.011": 1.61141027057,
			"0.012": 2.05771220316,
			"0.013": 4.28475789176,
			"0.014": 4.84761242112,
			"0.015": 1.2898921881,
			"0.016": 0.0,
			"0.017": 0.0,
			"0.018": 0.0,
			"0.019": 0.0,
			"0.02": 0.0,
			"0.021": 0.0,
			"0.022": 0.0,
			"0.023": 0.0,
			"0.024": 0.0,
			"0.025": 0.0
		}
	}
}
