{
	 "smiles": "CCCCCCCCCCCCCCCC(=O)OCCCC", 
	 "Tm": 290.05, 
	 "num_atms": 62, 
	 "gaussian": { 
		 "optdone": 1, 
		 "sigma_profile": "yes", 
		 "theory": "DFT", 
		 "functional": "B3LYP", 
		 "basiset": "6-31G**", 
		 "properties": { 
			 "R2extent": 10910.6113, 
			 "electric_dipole_moment_norm": 1.75090845278, 
			 "electric_quadrupole_moment_norm": 12.6912141417, 
			 "total_energy": -936.750376144, 
			 "HOMO_LUMO_gap": 0.28182, 
			 "cosmo_polarized_energy": -6.82, 
			 "cosmo_cavitation_energy": 60.51, 
			 "cosmo_dispersion_energy": -36.11, 
			 "cosmo_repulsion_energy": 2.9, 
			 "cosmo_total_nonelectrostatic_energy": 27.3, 
			 "SMD_solvation_energy": 8.89 
		},
		"coords": [
			{
				"x": -4.1453163822,
				"y": -1.1784192914,
				"z": -3.3548563732,
				"element": "C" 
			},
			{
				"x": -3.822736348,
				"y": 0.3151785146,
				"z": -3.4844642564,
				"element": "C" 
			},
			{
				"x": -2.5345090657,
				"y": 0.7538285189,
				"z": -2.7683594541,
				"element": "C" 
			},
			{
				"x": -2.5774916161,
				"y": 0.6355084317,
				"z": -1.2383270065,
				"element": "C" 
			},
			{
				"x": -1.3053795472,
				"y": 1.1709239425,
				"z": -0.5619398124,
				"element": "C" 
			},
			{
				"x": -1.2929294513,
				"y": 1.1002200042,
				"z": 0.9812535202,
				"element": "C" 
			},
			{
				"x": -0.7030104624,
				"y": -0.1798534144,
				"z": 1.6020700221,
				"element": "C" 
			},
			{
				"x": -1.4740373921,
				"y": -1.4789118734,
				"z": 1.3237669926,
				"element": "C" 
			},
			{
				"x": -0.9951799894,
				"y": -2.6872029459,
				"z": 2.1481508318,
				"element": "C" 
			},
			{
				"x": 0.4122606956,
				"y": -3.2279541063,
				"z": 1.8294845455,
				"element": "C" 
			},
			{
				"x": 0.5719904571,
				"y": -3.8132402891,
				"z": 0.4038898707,
				"element": "C" 
			},
			{
				"x": 1.3000843432,
				"y": -2.9074650509,
				"z": -0.6075987266,
				"element": "C" 
			},
			{
				"x": 2.813742896,
				"y": -2.8104881791,
				"z": -0.361961736,
				"element": "C" 
			},
			{
				"x": 3.573635495,
				"y": -1.941012227,
				"z": -1.3784549577,
				"element": "C" 
			},
			{
				"x": 3.3143907977,
				"y": -0.4339537761,
				"z": -1.2636695492,
				"element": "C" 
			},
			{
				"x": 3.9378536253,
				"y": 0.190207066,
				"z": -0.0278466995,
				"element": "C" 
			},
			{
				"x": 4.7242311407,
				"y": -0.3528282257,
				"z": 0.7198593372,
				"element": "O" 
			},
			{
				"x": 3.524233139,
				"y": 1.4679581346,
				"z": 0.1294384823,
				"element": "O" 
			},
			{
				"x": 4.096835968,
				"y": 2.1867711842,
				"z": 1.2474688739,
				"element": "C" 
			},
			{
				"x": 3.6025610812,
				"y": 3.6237844579,
				"z": 1.187251072,
				"element": "C" 
			},
			{
				"x": 2.0860606894,
				"y": 3.7746550876,
				"z": 1.3632417977,
				"element": "C" 
			},
			{
				"x": 1.6218294821,
				"y": 5.2329150025,
				"z": 1.3018860604,
				"element": "C" 
			},
			{
				"x": -3.3202365179,
				"y": -1.7937987361,
				"z": -3.7327617346,
				"element": "H" 
			},
			{
				"x": -5.041836192,
				"y": -1.4391381767,
				"z": -3.9271131187,
				"element": "H" 
			},
			{
				"x": -4.3250641265,
				"y": -1.4697161972,
				"z": -2.3149294209,
				"element": "H" 
			},
			{
				"x": -4.6666484679,
				"y": 0.9056756027,
				"z": -3.1016690728,
				"element": "H" 
			},
			{
				"x": -3.7356029503,
				"y": 0.5682538027,
				"z": -4.5489579449,
				"element": "H" 
			},
			{
				"x": -2.3204648918,
				"y": 1.7981272999,
				"z": -3.0350276284,
				"element": "H" 
			},
			{
				"x": -1.6894439264,
				"y": 0.1647678773,
				"z": -3.1540006884,
				"element": "H" 
			},
			{
				"x": -3.4434934831,
				"y": 1.1970709017,
				"z": -0.8583134062,
				"element": "H" 
			},
			{
				"x": -2.7443471052,
				"y": -0.4079154396,
				"z": -0.9500331006,
				"element": "H" 
			},
			{
				"x": -1.1780156648,
				"y": 2.2176411094,
				"z": -0.8694756063,
				"element": "H" 
			},
			{
				"x": -0.4276545738,
				"y": 0.6395228153,
				"z": -0.9586621103,
				"element": "H" 
			},
			{
				"x": -0.706224378,
				"y": 1.9451873511,
				"z": 1.3628179543,
				"element": "H" 
			},
			{
				"x": -2.3141819135,
				"y": 1.2520622947,
				"z": 1.3592405682,
				"element": "H" 
			},
			{
				"x": 0.3377044126,
				"y": -0.2831729583,
				"z": 1.2661309733,
				"element": "H" 
			},
			{
				"x": -0.6511801021,
				"y": -0.0366698971,
				"z": 2.6908199568,
				"element": "H" 
			},
			{
				"x": -1.4295018555,
				"y": -1.7241616249,
				"z": 0.2553671569,
				"element": "H" 
			},
			{
				"x": -2.5363224564,
				"y": -1.3101622785,
				"z": 1.5484504021,
				"element": "H" 
			},
			{
				"x": -1.7138412172,
				"y": -3.5074888219,
				"z": 2.0143209367,
				"element": "H" 
			},
			{
				"x": -1.0371674545,
				"y": -2.4211611636,
				"z": 3.2136753517,
				"element": "H" 
			},
			{
				"x": 0.6367339687,
				"y": -4.0077875966,
				"z": 2.5670929465,
				"element": "H" 
			},
			{
				"x": 1.1613374828,
				"y": -2.4446325443,
				"z": 1.9998557047,
				"element": "H" 
			},
			{
				"x": 1.1176409823,
				"y": -4.7644015057,
				"z": 0.4580640106,
				"element": "H" 
			},
			{
				"x": -0.4207937465,
				"y": -4.0666812724,
				"z": 0.0090479991,
				"element": "H" 
			},
			{
				"x": 0.8467279134,
				"y": -1.9077748275,
				"z": -0.5952052223,
				"element": "H" 
			},
			{
				"x": 1.1361281123,
				"y": -3.3011119573,
				"z": -1.6205199533,
				"element": "H" 
			},
			{
				"x": 3.019153124,
				"y": -2.4370361976,
				"z": 0.6480296809,
				"element": "H" 
			},
			{
				"x": 3.2322047144,
				"y": -3.8253394101,
				"z": -0.3966906151,
				"element": "H" 
			},
			{
				"x": 4.6486387702,
				"y": -2.1097463668,
				"z": -1.2568269825,
				"element": "H" 
			},
			{
				"x": 3.3146486873,
				"y": -2.2611619677,
				"z": -2.3958976483,
				"element": "H" 
			},
			{
				"x": 2.2458440814,
				"y": -0.192210551,
				"z": -1.2696403131,
				"element": "H" 
			},
			{
				"x": 3.7357396484,
				"y": 0.0949534219,
				"z": -2.128757197,
				"element": "H" 
			},
			{
				"x": 5.1876725913,
				"y": 2.128325266,
				"z": 1.1828758699,
				"element": "H" 
			},
			{
				"x": 3.7949217246,
				"y": 1.6903184554,
				"z": 2.176691119,
				"element": "H" 
			},
			{
				"x": 3.9128952838,
				"y": 4.0659494789,
				"z": 0.2316465173,
				"element": "H" 
			},
			{
				"x": 4.1247274154,
				"y": 4.1852708284,
				"z": 1.9738851062,
				"element": "H" 
			},
			{
				"x": 1.5779300437,
				"y": 3.1895224041,
				"z": 0.5882281505,
				"element": "H" 
			},
			{
				"x": 1.7911174222,
				"y": 3.3341765977,
				"z": 2.3256775975,
				"element": "H" 
			},
			{
				"x": 2.0948524059,
				"y": 5.8351284974,
				"z": 2.086234545,
				"element": "H" 
			},
			{
				"x": 0.5376599889,
				"y": 5.3118833312,
				"z": 1.4312941914,
				"element": "H" 
			},
			{
				"x": 1.875222694,
				"y": 5.6892111898,
				"z": 0.3381521902,
				"element": "H" 
			}
		],
		 "valence_orbital": [ 
			{
				"type": "occ",
				"energy": -0.29974,
				"method": "rhf"
			},
			{
				"type": "occ",
				"energy": -0.29556,
				"method": "rhf"
			},
			{
				"type": "occ",
				"energy": -0.29389,
				"method": "rhf"
			},
			{
				"type": "occ",
				"energy": -0.29304,
				"method": "rhf"
			},
			{
				"type": "occ",
				"energy": -0.26579,
				"method": "rhf"
			},
			{
				"type": "unocc",
				"energy": 0.01603,
				"method": "rhf"
			},
			{
				"type": "unocc",
				"energy": 0.05458,
				"method": "rhf"
			},
			{
				"type": "unocc",
				"energy": 0.08115,
				"method": "rhf"
			},
			{
				"type": "unocc",
				"energy": 0.0877,
				"method": "rhf"
			},
			{
				"type": "unocc",
				"energy": 0.09224,
				"method": "rhf"
			}
		],
		"cosmo_sigma_profile": { 
			"-0.025": 0.0,
			"-0.024": 0.0,
			"-0.023": 0.0,
			"-0.022": 0.0,
			"-0.021": 0.0,
			"-0.02": 0.0,
			"-0.019": 0.0,
			"-0.018": 0.0,
			"-0.017": 0.0,
			"-0.016": 0.0,
			"-0.015": 0.0,
			"-0.014": 0.0,
			"-0.013": 0.0,
			"-0.012": 0.0,
			"-0.011": 0.0,
			"-0.01": 0.0,
			"-0.009": 0.0,
			"-0.008": 0.0,
			"-0.007": 0.0,
			"-0.006": 1.28898110939,
			"-0.005": 5.25127469539,
			"-0.004": 10.8923264709,
			"-0.003": 27.6649193068,
			"-0.002": 65.6860764063,
			"-0.001": 98.7206411597,
			"0.0": 102.356488481,
			"0.001": 84.4067177854,
			"0.002": 35.7587291985,
			"0.003": 4.09241528373,
			"0.004": 4.1322221817,
			"0.005": 3.59927448239,
			"0.006": 3.52221591302,
			"0.007": 2.18459843428,
			"0.008": 2.35148447203,
			"0.009": 1.76291335284,
			"0.01": 2.02156711708,
			"0.011": 2.33569556032,
			"0.012": 3.93809648895,
			"0.013": 1.6622211155,
			"0.014": 0.0,
			"0.015": 0.0,
			"0.016": 0.0,
			"0.017": 0.0,
			"0.018": 0.0,
			"0.019": 0.0,
			"0.02": 0.0,
			"0.021": 0.0,
			"0.022": 0.0,
			"0.023": 0.0,
			"0.024": 0.0,
			"0.025": 0.0
		}
	}
}
