{
	 "smiles": "CC(=O)OCC1=CC=CC=C1", 
	 "Tm": 222.05, 
	 "num_atms": 21, 
	 "gaussian": { 
		 "optdone": 1, 
		 "sigma_profile": "yes", 
		 "theory": "DFT", 
		 "functional": "B3LYP", 
		 "basiset": "6-31G**", 
		 "properties": { 
			 "R2extent": 2191.0585, 
			 "electric_dipole_moment_norm": 1.67554025019, 
			 "electric_quadrupole_moment_norm": 7.59637385073, 
			 "total_energy": -499.446729182, 
			 "HOMO_LUMO_gap": 0.23723, 
			 "cosmo_polarized_energy": -7.57, 
			 "cosmo_cavitation_energy": 25.03, 
			 "cosmo_dispersion_energy": -18.14, 
			 "cosmo_repulsion_energy": 1.48, 
			 "cosmo_total_nonelectrostatic_energy": 8.37, 
			 "SMD_solvation_energy": 5.54 
		},
		"coords": [
			{
				"x": 1.0610896745,
				"y": -1.7310682579,
				"z": 2.7457217451,
				"element": "C" 
			},
			{
				"x": 1.21652496,
				"y": -0.3814579487,
				"z": 2.0852149854,
				"element": "C" 
			},
			{
				"x": 2.2611047978,
				"y": 0.0786512951,
				"z": 1.6744522755,
				"element": "O" 
			},
			{
				"x": 0.022928787,
				"y": 0.2504503783,
				"z": 2.0079107111,
				"element": "O" 
			},
			{
				"x": 0.0149747143,
				"y": 1.559973293,
				"z": 1.3720311987,
				"element": "C" 
			},
			{
				"x": -0.2636567268,
				"y": 1.4646638646,
				"z": -0.107619339,
				"element": "C" 
			},
			{
				"x": -1.5770033354,
				"y": 1.5461778576,
				"z": -0.5868894852,
				"element": "C" 
			},
			{
				"x": -1.8429114269,
				"y": 1.4491376544,
				"z": -1.9532757528,
				"element": "C" 
			},
			{
				"x": -0.7934487329,
				"y": 1.2686278346,
				"z": -2.8561679983,
				"element": "C" 
			},
			{
				"x": 0.5197809161,
				"y": 1.1857299984,
				"z": -2.3873712284,
				"element": "C" 
			},
			{
				"x": 0.7845422084,
				"y": 1.283245892,
				"z": -1.0211946555,
				"element": "C" 
			},
			{
				"x": 2.0440639409,
				"y": -2.1754953866,
				"z": 2.8984910218,
				"element": "H" 
			},
			{
				"x": 0.4572627903,
				"y": -2.3837315184,
				"z": 2.1073981392,
				"element": "H" 
			},
			{
				"x": 0.5364989091,
				"y": -1.6313130468,
				"z": 3.6997295132,
				"element": "H" 
			},
			{
				"x": 0.9742784027,
				"y": 2.0435073985,
				"z": 1.5655294853,
				"element": "H" 
			},
			{
				"x": -0.7816431373,
				"y": 2.1023252005,
				"z": 1.8857067932,
				"element": "H" 
			},
			{
				"x": -2.3950814035,
				"y": 1.6892918717,
				"z": 0.1150891346,
				"element": "H" 
			},
			{
				"x": -2.8659109896,
				"y": 1.5173172681,
				"z": -2.3123587467,
				"element": "H" 
			},
			{
				"x": -0.9976434724,
				"y": 1.1957395956,
				"z": -3.9206964033,
				"element": "H" 
			},
			{
				"x": 1.3393095929,
				"y": 1.0477745976,
				"z": -3.0870363251,
				"element": "H" 
			},
			{
				"x": 1.8020395307,
				"y": 1.2098521584,
				"z": -0.6499650687,
				"element": "H" 
			}
		],
		 "valence_orbital": [ 
			{
				"type": "occ",
				"energy": -0.33608,
				"method": "rhf"
			},
			{
				"type": "occ",
				"energy": -0.29648,
				"method": "rhf"
			},
			{
				"type": "occ",
				"energy": -0.27104,
				"method": "rhf"
			},
			{
				"type": "occ",
				"energy": -0.25084,
				"method": "rhf"
			},
			{
				"type": "occ",
				"energy": -0.24794,
				"method": "rhf"
			},
			{
				"type": "unocc",
				"energy": -0.01071,
				"method": "rhf"
			},
			{
				"type": "unocc",
				"energy": -0.00191,
				"method": "rhf"
			},
			{
				"type": "unocc",
				"energy": 0.01469,
				"method": "rhf"
			},
			{
				"type": "unocc",
				"energy": 0.09533,
				"method": "rhf"
			},
			{
				"type": "unocc",
				"energy": 0.11253,
				"method": "rhf"
			}
		],
		"cosmo_sigma_profile": { 
			"-0.025": 0.0,
			"-0.024": 0.0,
			"-0.023": 0.0,
			"-0.022": 0.0,
			"-0.021": 0.0,
			"-0.02": 0.0,
			"-0.019": 0.0,
			"-0.018": 0.0,
			"-0.017": 0.0,
			"-0.016": 0.0,
			"-0.015": 0.0,
			"-0.014": 0.0,
			"-0.013": 0.0,
			"-0.012": 0.0,
			"-0.011": 0.0,
			"-0.01": 0.0,
			"-0.009": 0.0,
			"-0.008": 0.0,
			"-0.007": 1.53833529956,
			"-0.006": 13.2582334067,
			"-0.005": 18.7284853113,
			"-0.004": 19.7469745915,
			"-0.003": 22.1432618084,
			"-0.002": 17.6465283825,
			"-0.001": 15.7097894491,
			"0.0": 10.6517971819,
			"0.001": 9.23002873809,
			"0.002": 10.8723765479,
			"0.003": 11.3534875434,
			"0.004": 11.2615962098,
			"0.005": 13.0730696191,
			"0.006": 7.8564948136,
			"0.007": 2.95715440686,
			"0.008": 2.31882709287,
			"0.009": 2.30133673788,
			"0.01": 1.50439214362,
			"0.011": 2.45130773369,
			"0.012": 3.11880274488,
			"0.013": 1.28399554463,
			"0.014": 0.0391949387453,
			"0.015": 0.0,
			"0.016": 0.0,
			"0.017": 0.0,
			"0.018": 0.0,
			"0.019": 0.0,
			"0.02": 0.0,
			"0.021": 0.0,
			"0.022": 0.0,
			"0.023": 0.0,
			"0.024": 0.0,
			"0.025": 0.0
		}
	}
}
