{
	 "smiles": "COC(=O)CCCCCCCCC(=O)OC", 
	 "Tm": 311.15, 
	 "num_atms": 38, 
	 "gaussian": { 
		 "optdone": 1, 
		 "sigma_profile": "yes", 
		 "theory": "DFT", 
		 "functional": "B3LYP", 
		 "basiset": "6-31G**", 
		 "properties": { 
			 "R2extent": 5944.2981, 
			 "electric_dipole_moment_norm": 2.86841274924, 
			 "electric_quadrupole_moment_norm": 5.65001786634, 
			 "total_energy": -771.465360641, 
			 "HOMO_LUMO_gap": 0.27939, 
			 "cosmo_polarized_energy": -11.75, 
			 "cosmo_cavitation_energy": 39.34, 
			 "cosmo_dispersion_energy": -26.36, 
			 "cosmo_repulsion_energy": 2.11, 
			 "cosmo_total_nonelectrostatic_energy": 15.09, 
			 "SMD_solvation_energy": 8.53 
		},
		"coords": [
			{
				"x": 4.4754133116,
				"y": -0.2354261536,
				"z": 0.5837783899,
				"element": "C" 
			},
			{
				"x": 3.5524584047,
				"y": 0.8492026323,
				"z": 0.7759424606,
				"element": "O" 
			},
			{
				"x": 3.1680154533,
				"y": 1.4885452808,
				"z": -0.354971809,
				"element": "C" 
			},
			{
				"x": 3.5467898193,
				"y": 1.164772801,
				"z": -1.4606573936,
				"element": "O" 
			},
			{
				"x": 2.2460903372,
				"y": 2.6514167892,
				"z": -0.0441395611,
				"element": "C" 
			},
			{
				"x": 1.2587592887,
				"y": 2.9531718697,
				"z": -1.1797955777,
				"element": "C" 
			},
			{
				"x": 0.2231703212,
				"y": 1.8515349132,
				"z": -1.4703380882,
				"element": "C" 
			},
			{
				"x": -0.7298583719,
				"y": 1.5134118012,
				"z": -0.2986234532,
				"element": "C" 
			},
			{
				"x": -0.3367638235,
				"y": 0.2828350459,
				"z": 0.5447463686,
				"element": "C" 
			},
			{
				"x": -0.4483799662,
				"y": -1.0755631061,
				"z": -0.1737322557,
				"element": "C" 
			},
			{
				"x": -1.8613599251,
				"y": -1.5354502929,
				"z": -0.5769956225,
				"element": "C" 
			},
			{
				"x": -2.8214595719,
				"y": -1.7749502031,
				"z": 0.60123734,
				"element": "C" 
			},
			{
				"x": -3.5086890525,
				"y": -0.5170457919,
				"z": 1.0959023913,
				"element": "C" 
			},
			{
				"x": -3.8951610472,
				"y": 0.3937196912,
				"z": 0.3927328932,
				"element": "O" 
			},
			{
				"x": -3.6873032076,
				"y": -0.5429306381,
				"z": 2.4365455259,
				"element": "O" 
			},
			{
				"x": -4.3938954959,
				"y": 0.582756475,
				"z": 2.983701927,
				"element": "C" 
			},
			{
				"x": 5.4012239895,
				"y": 0.1222129489,
				"z": 0.1257426793,
				"element": "H" 
			},
			{
				"x": 4.6711665216,
				"y": -0.6363614284,
				"z": 1.57832514,
				"element": "H" 
			},
			{
				"x": 4.0397828552,
				"y": -1.0027754008,
				"z": -0.0609037492,
				"element": "H" 
			},
			{
				"x": 2.8933319733,
				"y": 3.5238895033,
				"z": 0.1209951095,
				"element": "H" 
			},
			{
				"x": 1.7410597682,
				"y": 2.4659678241,
				"z": 0.9075565647,
				"element": "H" 
			},
			{
				"x": 0.7329849043,
				"y": 3.8841698521,
				"z": -0.9324557504,
				"element": "H" 
			},
			{
				"x": 1.8353301792,
				"y": 3.1456544935,
				"z": -2.0909203618,
				"element": "H" 
			},
			{
				"x": -0.36872679,
				"y": 2.1848813725,
				"z": -2.3310255481,
				"element": "H" 
			},
			{
				"x": 0.7503841778,
				"y": 0.9517134965,
				"z": -1.8096399488,
				"element": "H" 
			},
			{
				"x": -0.8003546626,
				"y": 2.3843409567,
				"z": 0.3676779774,
				"element": "H" 
			},
			{
				"x": -1.7455755432,
				"y": 1.364122543,
				"z": -0.6778895556,
				"element": "H" 
			},
			{
				"x": 0.6960505021,
				"y": 0.3876574926,
				"z": 0.8998138734,
				"element": "H" 
			},
			{
				"x": -0.9538039407,
				"y": 0.2635922836,
				"z": 1.4532329733,
				"element": "H" 
			},
			{
				"x": 0.1748178031,
				"y": -1.0603973235,
				"z": -1.0769919504,
				"element": "H" 
			},
			{
				"x": -0.0084817536,
				"y": -1.845165827,
				"z": 0.4758140863,
				"element": "H" 
			},
			{
				"x": -2.3273194843,
				"y": -0.8186326511,
				"z": -1.261255666,
				"element": "H" 
			},
			{
				"x": -1.7633103348,
				"y": -2.4747378883,
				"z": -1.1334428859,
				"element": "H" 
			},
			{
				"x": -2.3229825977,
				"y": -2.2712006997,
				"z": 1.439490241,
				"element": "H" 
			},
			{
				"x": -3.6318658504,
				"y": -2.443101798,
				"z": 0.2799263609,
				"element": "H" 
			},
			{
				"x": -5.3971185132,
				"y": 0.6539441906,
				"z": 2.5557379905,
				"element": "H" 
			},
			{
				"x": -4.4477237826,
				"y": 0.4034772443,
				"z": 4.0575130604,
				"element": "H" 
			},
			{
				"x": -3.8576958953,
				"y": 1.5120477012,
				"z": 2.7758658242,
				"element": "H" 
			}
		],
		 "valence_orbital": [ 
			{
				"type": "occ",
				"energy": -0.30248,
				"method": "rhf"
			},
			{
				"type": "occ",
				"energy": -0.29876,
				"method": "rhf"
			},
			{
				"type": "occ",
				"energy": -0.29683,
				"method": "rhf"
			},
			{
				"type": "occ",
				"energy": -0.26978,
				"method": "rhf"
			},
			{
				"type": "occ",
				"energy": -0.26705,
				"method": "rhf"
			},
			{
				"type": "unocc",
				"energy": 0.01234,
				"method": "rhf"
			},
			{
				"type": "unocc",
				"energy": 0.01474,
				"method": "rhf"
			},
			{
				"type": "unocc",
				"energy": 0.07854,
				"method": "rhf"
			},
			{
				"type": "unocc",
				"energy": 0.10041,
				"method": "rhf"
			},
			{
				"type": "unocc",
				"energy": 0.10537,
				"method": "rhf"
			}
		],
		"cosmo_sigma_profile": { 
			"-0.025": 0.0,
			"-0.024": 0.0,
			"-0.023": 0.0,
			"-0.022": 0.0,
			"-0.021": 0.0,
			"-0.02": 0.0,
			"-0.019": 0.0,
			"-0.018": 0.0,
			"-0.017": 0.0,
			"-0.016": 0.0,
			"-0.015": 0.0,
			"-0.014": 0.0,
			"-0.013": 0.0,
			"-0.012": 0.0,
			"-0.011": 0.0,
			"-0.01": 0.0,
			"-0.009": 0.0,
			"-0.008": 0.0,
			"-0.007": 1.19505527928,
			"-0.006": 11.7527042613,
			"-0.005": 17.8691130272,
			"-0.004": 23.4180337609,
			"-0.003": 36.9406171769,
			"-0.002": 43.9309301733,
			"-0.001": 40.2764257685,
			"0.0": 34.7279787165,
			"0.001": 23.1147046386,
			"0.002": 10.5423043017,
			"0.003": 7.57197279201,
			"0.004": 6.65681939068,
			"0.005": 7.11694265548,
			"0.006": 5.74777223226,
			"0.007": 5.64272467419,
			"0.008": 5.29560474747,
			"0.009": 5.15604056571,
			"0.01": 3.58258769309,
			"0.011": 4.59115549528,
			"0.012": 7.86710483527,
			"0.013": 2.29318704042,
			"0.014": 0.0,
			"0.015": 0.0,
			"0.016": 0.0,
			"0.017": 0.0,
			"0.018": 0.0,
			"0.019": 0.0,
			"0.02": 0.0,
			"0.021": 0.0,
			"0.022": 0.0,
			"0.023": 0.0,
			"0.024": 0.0,
			"0.025": 0.0
		}
	}
}
