{
	 "smiles": "CCOC1=CC(=CC(OCC)=C1OCC)C(O)=O", 
	 "Tm": 384.65, 
	 "num_atms": 36, 
	 "gaussian": { 
		 "optdone": 1, 
		 "sigma_profile": "yes", 
		 "theory": "DFT", 
		 "functional": "B3LYP", 
		 "basiset": "6-31G**", 
		 "properties": { 
			 "R2extent": 5882.1678, 
			 "electric_dipole_moment_norm": 5.83543902462, 
			 "electric_quadrupole_moment_norm": 22.7844744484, 
			 "total_energy": -882.336432777, 
			 "HOMO_LUMO_gap": 0.1969, 
			 "cosmo_polarized_energy": -15.76, 
			 "cosmo_cavitation_energy": 39.87, 
			 "cosmo_dispersion_energy": -26.68, 
			 "cosmo_repulsion_energy": 2.14, 
			 "cosmo_total_nonelectrostatic_energy": 15.32, 
			 "SMD_solvation_energy": 8.96 
		},
		"coords": [
			{
				"x": 1.4592853142,
				"y": -0.3866981822,
				"z": 4.782843527,
				"element": "C" 
			},
			{
				"x": 1.0209232459,
				"y": -0.9943582239,
				"z": 3.4635159286,
				"element": "C" 
			},
			{
				"x": 1.4605139035,
				"y": -0.1126368014,
				"z": 2.4088110299,
				"element": "O" 
			},
			{
				"x": 1.146387231,
				"y": -0.5157038558,
				"z": 1.134791291,
				"element": "C" 
			},
			{
				"x": 2.1595368133,
				"y": -0.9632879595,
				"z": 0.2910441183,
				"element": "C" 
			},
			{
				"x": 1.8727974818,
				"y": -1.3017427914,
				"z": -1.0363536035,
				"element": "C" 
			},
			{
				"x": 0.5526645519,
				"y": -1.2348704237,
				"z": -1.4998062751,
				"element": "C" 
			},
			{
				"x": -0.4712951099,
				"y": -0.7899701631,
				"z": -0.660906684,
				"element": "C" 
			},
			{
				"x": -1.7346853852,
				"y": -0.6681205777,
				"z": -1.1755670524,
				"element": "O" 
			},
			{
				"x": -2.738188979,
				"y": -1.547351083,
				"z": -0.6249874549,
				"element": "C" 
			},
			{
				"x": -4.0477138424,
				"y": -1.239575985,
				"z": -1.3268862583,
				"element": "C" 
			},
			{
				"x": -0.1776779137,
				"y": -0.4156802672,
				"z": 0.6631403476,
				"element": "C" 
			},
			{
				"x": -1.1829772906,
				"y": 0.0247590031,
				"z": 1.4870213825,
				"element": "O" 
			},
			{
				"x": -1.2405831468,
				"y": 1.4613540281,
				"z": 1.6443611478,
				"element": "C" 
			},
			{
				"x": -2.3867040737,
				"y": 1.7794243241,
				"z": 2.5854547156,
				"element": "C" 
			},
			{
				"x": 3.0083465877,
				"y": -1.7723410253,
				"z": -1.8935163109,
				"element": "C" 
			},
			{
				"x": 2.8247186193,
				"y": -1.7007947222,
				"z": -3.240138829,
				"element": "O" 
			},
			{
				"x": 4.0483365593,
				"y": -2.1979821222,
				"z": -1.4482286124,
				"element": "O" 
			},
			{
				"x": 1.1615552845,
				"y": -1.0358963891,
				"z": 5.6122175739,
				"element": "H" 
			},
			{
				"x": 2.5457271194,
				"y": -0.264543339,
				"z": 4.8102468413,
				"element": "H" 
			},
			{
				"x": 0.9990702645,
				"y": 0.5948260438,
				"z": 4.9298867061,
				"element": "H" 
			},
			{
				"x": -0.0679845432,
				"y": -1.1063875527,
				"z": 3.4174812256,
				"element": "H" 
			},
			{
				"x": 1.4778204628,
				"y": -1.9821783379,
				"z": 3.3143934649,
				"element": "H" 
			},
			{
				"x": 3.1762189404,
				"y": -1.0358187103,
				"z": 0.6591893247,
				"element": "H" 
			},
			{
				"x": 0.271060826,
				"y": -1.5421143533,
				"z": -2.5028584984,
				"element": "H" 
			},
			{
				"x": -2.8166529072,
				"y": -1.3847350822,
				"z": 0.4542949448,
				"element": "H" 
			},
			{
				"x": -2.4329935584,
				"y": -2.5885649917,
				"z": -0.7992571159,
				"element": "H" 
			},
			{
				"x": -3.9555911029,
				"y": -1.3909690736,
				"z": -2.4062318753,
				"element": "H" 
			},
			{
				"x": -4.3454713766,
				"y": -0.2020932684,
				"z": -1.1493857596,
				"element": "H" 
			},
			{
				"x": -4.8384980206,
				"y": -1.8960613798,
				"z": -0.9505601578,
				"element": "H" 
			},
			{
				"x": -1.3982299896,
				"y": 1.9184907372,
				"z": 0.6592468444,
				"element": "H" 
			},
			{
				"x": -0.2843571606,
				"y": 1.8150958305,
				"z": 2.0459498611,
				"element": "H" 
			},
			{
				"x": -3.3349826469,
				"y": 1.4131422252,
				"z": 2.1815775239,
				"element": "H" 
			},
			{
				"x": -2.4659848083,
				"y": 2.8620640271,
				"z": 2.724920262,
				"element": "H" 
			},
			{
				"x": -2.2263269485,
				"y": 1.3168503666,
				"z": 3.5636768505,
				"element": "H" 
			},
			{
				"x": 2.0249355984,
				"y": -1.193929924,
				"z": -3.4378804239,
				"element": "H" 
			}
		],
		 "valence_orbital": [ 
			{
				"type": "occ",
				"energy": -0.29237,
				"method": "rhf"
			},
			{
				"type": "occ",
				"energy": -0.26986,
				"method": "rhf"
			},
			{
				"type": "occ",
				"energy": -0.26553,
				"method": "rhf"
			},
			{
				"type": "occ",
				"energy": -0.24739,
				"method": "rhf"
			},
			{
				"type": "occ",
				"energy": -0.2421,
				"method": "rhf"
			},
			{
				"type": "unocc",
				"energy": -0.0452,
				"method": "rhf"
			},
			{
				"type": "unocc",
				"energy": -0.01077,
				"method": "rhf"
			},
			{
				"type": "unocc",
				"energy": 0.05018,
				"method": "rhf"
			},
			{
				"type": "unocc",
				"energy": 0.06309,
				"method": "rhf"
			},
			{
				"type": "unocc",
				"energy": 0.07533,
				"method": "rhf"
			}
		],
		"cosmo_sigma_profile": { 
			"-0.025": 0.0,
			"-0.024": 0.0,
			"-0.023": 0.0,
			"-0.022": 0.0,
			"-0.021": 0.0,
			"-0.02": 0.0,
			"-0.019": 0.222958247442,
			"-0.018": 0.627825676886,
			"-0.017": 0.91528445554,
			"-0.016": 1.42783131084,
			"-0.015": 0.576725442519,
			"-0.014": 0.974836818643,
			"-0.013": 0.946707493592,
			"-0.012": 1.39726211547,
			"-0.011": 0.815381012505,
			"-0.01": 1.27582984052,
			"-0.009": 1.23530916761,
			"-0.008": 0.971210709914,
			"-0.007": 2.01563409131,
			"-0.006": 1.91446377572,
			"-0.005": 6.92982508939,
			"-0.004": 26.1001735076,
			"-0.003": 40.8991059755,
			"-0.002": 42.4197150622,
			"-0.001": 37.0301435366,
			"0.0": 35.3416321015,
			"0.001": 23.8245536738,
			"0.002": 16.852553948,
			"0.003": 10.9303824987,
			"0.004": 8.06111533824,
			"0.005": 6.3789045369,
			"0.006": 6.4428523648,
			"0.007": 5.52358553053,
			"0.008": 5.5921413993,
			"0.009": 5.13208197493,
			"0.01": 6.7243734716,
			"0.011": 7.22915993909,
			"0.012": 5.29615895008,
			"0.013": 1.55146603173,
			"0.014": 0.0637861780869,
			"0.015": 0.0,
			"0.016": 0.0,
			"0.017": 0.0,
			"0.018": 0.0,
			"0.019": 0.0,
			"0.02": 0.0,
			"0.021": 0.0,
			"0.022": 0.0,
			"0.023": 0.0,
			"0.024": 0.0,
			"0.025": 0.0
		}
	}
}
