{
	 "smiles": "CC1=CC=C(C=C1)C(=O)C1=NN(C(S1)=N/N=C/C1=CC=CO1)C1=CC=CC=C1", 
	 "Tm": 386.15, 
	 "num_atms": 44, 
	 "gaussian": { 
		 "optdone": 1, 
		 "sigma_profile": "yes", 
		 "theory": "DFT", 
		 "functional": "B3LYP", 
		 "basiset": "6-31G**", 
		 "properties": { 
			 "R2extent": 16231.8675, 
			 "electric_dipole_moment_norm": 5.43312250092, 
			 "electric_quadrupole_moment_norm": 28.6859993079, 
			 "total_energy": -1577.4199724, 
			 "HOMO_LUMO_gap": 0.10696, 
			 "cosmo_polarized_energy": -14.3, 
			 "cosmo_cavitation_energy": 52.69, 
			 "cosmo_dispersion_energy": -36.14, 
			 "cosmo_repulsion_energy": 2.67, 
			 "cosmo_total_nonelectrostatic_energy": 19.23, 
			 "SMD_solvation_energy": 8.85 
		},
		"coords": [
			{
				"x": -7.191031313,
				"y": 2.7278913149,
				"z": -1.0304576888,
				"element": "C" 
			},
			{
				"x": -5.9833232322,
				"y": 1.9111720995,
				"z": -1.4185187733,
				"element": "C" 
			},
			{
				"x": -4.8200868918,
				"y": 1.9214642939,
				"z": -0.6381659813,
				"element": "C" 
			},
			{
				"x": -3.7106788303,
				"y": 1.1492894029,
				"z": -0.9761296609,
				"element": "C" 
			},
			{
				"x": -3.7392280701,
				"y": 0.3388180411,
				"z": -2.1229044996,
				"element": "C" 
			},
			{
				"x": -4.9032185795,
				"y": 0.3301258253,
				"z": -2.914336668,
				"element": "C" 
			},
			{
				"x": -6.0027932366,
				"y": 1.1015636313,
				"z": -2.5662017812,
				"element": "C" 
			},
			{
				"x": -2.615241782,
				"y": -0.5177144421,
				"z": -2.5912378667,
				"element": "C" 
			},
			{
				"x": -2.6803971841,
				"y": -1.1397258526,
				"z": -3.6503994649,
				"element": "O" 
			},
			{
				"x": -1.3460296106,
				"y": -0.6916172096,
				"z": -1.8277976549,
				"element": "C" 
			},
			{
				"x": -1.0237629636,
				"y": -0.1624482966,
				"z": -0.6928889511,
				"element": "N" 
			},
			{
				"x": 0.2232155999,
				"y": -0.5255265658,
				"z": -0.2886096395,
				"element": "N" 
			},
			{
				"x": 0.9038429674,
				"y": -1.4333003292,
				"z": -1.1263707994,
				"element": "C" 
			},
			{
				"x": -0.113668656,
				"y": -1.729892854,
				"z": -2.5506090718,
				"element": "S" 
			},
			{
				"x": 2.0258726487,
				"y": -2.0617596695,
				"z": -1.0161466834,
				"element": "N" 
			},
			{
				"x": 2.7182499446,
				"y": -1.8639553327,
				"z": 0.1640151005,
				"element": "N" 
			},
			{
				"x": 3.8422056997,
				"y": -2.5008997349,
				"z": 0.1857586864,
				"element": "C" 
			},
			{
				"x": 4.7046597583,
				"y": -2.4359715656,
				"z": 1.3363397599,
				"element": "C" 
			},
			{
				"x": 4.6415286501,
				"y": -1.7923826506,
				"z": 2.5498637453,
				"element": "C" 
			},
			{
				"x": 5.8286546512,
				"y": -2.1430690319,
				"z": 3.2557600877,
				"element": "C" 
			},
			{
				"x": 6.5334848147,
				"y": -2.972583563,
				"z": 2.429961781,
				"element": "C" 
			},
			{
				"x": 5.8689040954,
				"y": -3.1619384665,
				"z": 1.2616874093,
				"element": "O" 
			},
			{
				"x": 0.7044462113,
				"y": 0.1218014319,
				"z": 0.9018387491,
				"element": "C" 
			},
			{
				"x": 1.8422254988,
				"y": 0.9294240914,
				"z": 0.8527639691,
				"element": "C" 
			},
			{
				"x": 2.2591943142,
				"y": 1.5914252713,
				"z": 2.00532882,
				"element": "C" 
			},
			{
				"x": 1.5367690824,
				"y": 1.4601488651,
				"z": 3.1954201685,
				"element": "C" 
			},
			{
				"x": 0.3918607412,
				"y": 0.6626313097,
				"z": 3.2291571722,
				"element": "C" 
			},
			{
				"x": -0.028336359,
				"y": -0.0106604688,
				"z": 2.0812015884,
				"element": "C" 
			},
			{
				"x": -7.9435354425,
				"y": 2.1021208721,
				"z": -0.534337632,
				"element": "H" 
			},
			{
				"x": -7.6709960859,
				"y": 3.1729117231,
				"z": -1.9077945966,
				"element": "H" 
			},
			{
				"x": -6.9265978536,
				"y": 3.5331882421,
				"z": -0.3396781149,
				"element": "H" 
			},
			{
				"x": -4.7797882132,
				"y": 2.5474792681,
				"z": 0.2495423336,
				"element": "H" 
			},
			{
				"x": -2.8253253243,
				"y": 1.1788756983,
				"z": -0.3547501599,
				"element": "H" 
			},
			{
				"x": -4.9163200371,
				"y": -0.2917287839,
				"z": -3.8026797229,
				"element": "H" 
			},
			{
				"x": -6.8919291147,
				"y": 1.0814584988,
				"z": -3.1914846194,
				"element": "H" 
			},
			{
				"x": 4.1723822531,
				"y": -3.1089482103,
				"z": -0.6609760902,
				"element": "H" 
			},
			{
				"x": 3.8372520884,
				"y": -1.1496744391,
				"z": 2.8755349711,
				"element": "H" 
			},
			{
				"x": 6.1222049655,
				"y": -1.8235786021,
				"z": 4.2454164519,
				"element": "H" 
			},
			{
				"x": 7.4782082952,
				"y": -3.485611271,
				"z": 2.523389139,
				"element": "H" 
			},
			{
				"x": 2.3955529842,
				"y": 1.0254048118,
				"z": -0.074571003,
				"element": "H" 
			},
			{
				"x": 3.1456318084,
				"y": 2.2176072437,
				"z": 1.9714811273,
				"element": "H" 
			},
			{
				"x": 1.8630217804,
				"y": 1.9824326907,
				"z": 4.0899225719,
				"element": "H" 
			},
			{
				"x": -0.1752236779,
				"y": 0.5587719015,
				"z": 4.1493350701,
				"element": "H" 
			},
			{
				"x": -0.9144563952,
				"y": -0.6361191887,
				"z": 2.0925284215,
				"element": "H" 
			}
		],
		 "valence_orbital": [ 
			{
				"type": "occ",
				"energy": -0.25937,
				"method": "rhf"
			},
			{
				"type": "occ",
				"energy": -0.25308,
				"method": "rhf"
			},
			{
				"type": "occ",
				"energy": -0.2439,
				"method": "rhf"
			},
			{
				"type": "occ",
				"energy": -0.22265,
				"method": "rhf"
			},
			{
				"type": "occ",
				"energy": -0.19262,
				"method": "rhf"
			},
			{
				"type": "unocc",
				"energy": -0.08566,
				"method": "rhf"
			},
			{
				"type": "unocc",
				"energy": -0.05005,
				"method": "rhf"
			},
			{
				"type": "unocc",
				"energy": -0.01858,
				"method": "rhf"
			},
			{
				"type": "unocc",
				"energy": -0.01589,
				"method": "rhf"
			},
			{
				"type": "unocc",
				"energy": -0.00915,
				"method": "rhf"
			}
		],
		"cosmo_sigma_profile": { 
			"-0.025": 0.0,
			"-0.024": 0.0,
			"-0.023": 0.0,
			"-0.022": 0.0,
			"-0.021": 0.0,
			"-0.02": 0.0,
			"-0.019": 0.0,
			"-0.018": 0.0,
			"-0.017": 0.0,
			"-0.016": 0.0,
			"-0.015": 0.0,
			"-0.014": 0.0,
			"-0.013": 0.0,
			"-0.012": 0.0,
			"-0.011": 0.0,
			"-0.01": 0.234897936359,
			"-0.009": 1.97947182021,
			"-0.008": 2.15554767722,
			"-0.007": 7.15542852835,
			"-0.006": 19.3840020751,
			"-0.005": 30.711478997,
			"-0.004": 35.5285561802,
			"-0.003": 33.5929865535,
			"-0.002": 30.1060214796,
			"-0.001": 33.3607261763,
			"0.0": 37.2424128816,
			"0.001": 38.1069231489,
			"0.002": 38.0841282414,
			"0.003": 42.1004908011,
			"0.004": 35.2680416692,
			"0.005": 11.1394908031,
			"0.006": 7.60653235471,
			"0.007": 5.86735978626,
			"0.008": 3.96980172226,
			"0.009": 3.7049627071,
			"0.01": 4.93902654654,
			"0.011": 3.14673122863,
			"0.012": 1.10693348623,
			"0.013": 0.352214291221,
			"0.014": 0.0,
			"0.015": 0.0,
			"0.016": 0.0,
			"0.017": 0.0,
			"0.018": 0.0,
			"0.019": 0.0,
			"0.02": 0.0,
			"0.021": 0.0,
			"0.022": 0.0,
			"0.023": 0.0,
			"0.024": 0.0,
			"0.025": 0.0
		}
	}
}
