{
	 "smiles": "CC1=CC(Cl)=CC(Cl)=C1C#N", 
	 "Tm": 353.15, 
	 "num_atms": 16, 
	 "gaussian": { 
		 "optdone": 1, 
		 "sigma_profile": "yes", 
		 "theory": "DFT", 
		 "functional": "B3LYP", 
		 "basiset": "6-31G**", 
		 "properties": { 
			 "R2extent": 3366.241, 
			 "electric_dipole_moment_norm": 3.43858073775, 
			 "electric_quadrupole_moment_norm": 14.9402397076, 
			 "total_energy": -1282.98862969, 
			 "HOMO_LUMO_gap": 0.19669, 
			 "cosmo_polarized_energy": -8.16, 
			 "cosmo_cavitation_energy": 24.96, 
			 "cosmo_dispersion_energy": -17.9, 
			 "cosmo_repulsion_energy": 1.44, 
			 "cosmo_total_nonelectrostatic_energy": 8.5, 
			 "SMD_solvation_energy": 4.91 
		},
		"coords": [
			{
				"x": 0.1278331589,
				"y": -1.2229496549,
				"z": 0.802131002,
				"element": "C" 
			},
			{
				"x": 0.0445392416,
				"y": 0.1566901886,
				"z": 0.1994582687,
				"element": "C" 
			},
			{
				"x": -1.1914656773,
				"y": 0.7575265834,
				"z": -0.0401055146,
				"element": "C" 
			},
			{
				"x": -1.2569448211,
				"y": 2.0343321425,
				"z": -0.5980476182,
				"element": "C" 
			},
			{
				"x": -2.8208689243,
				"y": 2.7633583116,
				"z": -0.8874816051,
				"element": "Cl" 
			},
			{
				"x": -0.1079384714,
				"y": 2.7473239296,
				"z": -0.9322559948,
				"element": "C" 
			},
			{
				"x": 1.1283602261,
				"y": 2.1535147474,
				"z": -0.6957908327,
				"element": "C" 
			},
			{
				"x": 2.5734349048,
				"y": 3.0381794159,
				"z": -1.110863331,
				"element": "Cl" 
			},
			{
				"x": 1.224115841,
				"y": 0.8665185824,
				"z": -0.1339445686,
				"element": "C" 
			},
			{
				"x": 2.4970776988,
				"y": 0.2595174363,
				"z": 0.1076148884,
				"element": "C" 
			},
			{
				"x": 3.5067884605,
				"y": -0.2765669242,
				"z": 0.322991598,
				"element": "N" 
			},
			{
				"x": -0.8686893963,
				"y": -1.624476588,
				"z": 0.9970396362,
				"element": "H" 
			},
			{
				"x": 0.6542774959,
				"y": -1.9133681197,
				"z": 0.1347967373,
				"element": "H" 
			},
			{
				"x": 0.6850470024,
				"y": -1.208252894,
				"z": 1.7447107979,
				"element": "H" 
			},
			{
				"x": -2.1066498268,
				"y": 0.2318510278,
				"z": 0.2075946057,
				"element": "H" 
			},
			{
				"x": -0.1696169128,
				"y": 3.7377018153,
				"z": -1.3648480693,
				"element": "H" 
			}
		],
		 "valence_orbital": [ 
			{
				"type": "occ",
				"energy": -0.33685,
				"method": "rhf"
			},
			{
				"type": "occ",
				"energy": -0.33014,
				"method": "rhf"
			},
			{
				"type": "occ",
				"energy": -0.32972,
				"method": "rhf"
			},
			{
				"type": "occ",
				"energy": -0.27687,
				"method": "rhf"
			},
			{
				"type": "occ",
				"energy": -0.26699,
				"method": "rhf"
			},
			{
				"type": "unocc",
				"energy": -0.0703,
				"method": "rhf"
			},
			{
				"type": "unocc",
				"energy": -0.04176,
				"method": "rhf"
			},
			{
				"type": "unocc",
				"energy": -0.00847,
				"method": "rhf"
			},
			{
				"type": "unocc",
				"energy": 0.02218,
				"method": "rhf"
			},
			{
				"type": "unocc",
				"energy": 0.03514,
				"method": "rhf"
			}
		],
		"cosmo_sigma_profile": { 
			"-0.025": 0.0,
			"-0.024": 0.0,
			"-0.023": 0.0,
			"-0.022": 0.0,
			"-0.021": 0.0,
			"-0.02": 0.0,
			"-0.019": 0.0,
			"-0.018": 0.0,
			"-0.017": 0.0,
			"-0.016": 0.0,
			"-0.015": 0.0,
			"-0.014": 0.0,
			"-0.013": 0.0,
			"-0.012": 0.0,
			"-0.011": 0.0,
			"-0.01": 0.144111158541,
			"-0.009": 1.47986768103,
			"-0.008": 4.46743583531,
			"-0.007": 3.72787274609,
			"-0.006": 7.74808728538,
			"-0.005": 10.0395388989,
			"-0.004": 10.1272092161,
			"-0.003": 16.4673857837,
			"-0.002": 21.9728343482,
			"-0.001": 29.1916417454,
			"0.0": 21.5781211528,
			"0.001": 13.4830990966,
			"0.002": 13.4285483539,
			"0.003": 20.6538567222,
			"0.004": 8.46151216899,
			"0.005": 2.4197069583,
			"0.006": 2.85318863854,
			"0.007": 3.07956212207,
			"0.008": 2.89130985357,
			"0.009": 3.44797662489,
			"0.01": 2.85446693616,
			"0.011": 2.61281432396,
			"0.012": 2.24347684664,
			"0.013": 0.549906444634,
			"0.014": 0.0,
			"0.015": 0.0,
			"0.016": 0.0,
			"0.017": 0.0,
			"0.018": 0.0,
			"0.019": 0.0,
			"0.02": 0.0,
			"0.021": 0.0,
			"0.022": 0.0,
			"0.023": 0.0,
			"0.024": 0.0,
			"0.025": 0.0
		}
	}
}
