{
	 "smiles": "ClC1=CC=C(C=C1)C(=O)C(Br)C1=CC=CC=C1", 
	 "Tm": 338.65, 
	 "num_atms": 27, 
	 "gaussian": { 
		 "optdone": 1, 
		 "sigma_profile": "yes", 
		 "theory": "DFT", 
		 "functional": "B3LYP", 
		 "basiset": "6-31G**", 
		 "properties": { 
			 "R2extent": 8833.2429, 
			 "electric_dipole_moment_norm": 3.32231679405, 
			 "electric_quadrupole_moment_norm": 16.4287537345, 
			 "total_energy": -3646.33626138, 
			 "HOMO_LUMO_gap": 0.17393, 
			 "cosmo_polarized_energy": -11.96, 
			 "cosmo_cavitation_energy": 35.66, 
			 "cosmo_dispersion_energy": -25.43, 
			 "cosmo_repulsion_energy": 1.99, 
			 "cosmo_total_nonelectrostatic_energy": 12.21, 
			 "SMD_solvation_energy": 4.88 
		},
		"coords": [
			{
				"x": 1.6367827651,
				"y": -2.9188349188,
				"z": 4.6645053116,
				"element": "Cl" 
			},
			{
				"x": 1.8853085926,
				"y": -2.2615910767,
				"z": 3.0591405015,
				"element": "C" 
			},
			{
				"x": 0.9414340668,
				"y": -2.5134654835,
				"z": 2.0633359992,
				"element": "C" 
			},
			{
				"x": 1.1472693019,
				"y": -1.9953897059,
				"z": 0.7864327951,
				"element": "C" 
			},
			{
				"x": 2.2831672784,
				"y": -1.2225562721,
				"z": 0.4998723183,
				"element": "C" 
			},
			{
				"x": 3.2108905111,
				"y": -0.9748241783,
				"z": 1.5255401569,
				"element": "C" 
			},
			{
				"x": 3.0233046719,
				"y": -1.4930675077,
				"z": 2.8010186895,
				"element": "C" 
			},
			{
				"x": 2.5736091979,
				"y": -0.6263551234,
				"z": -0.8442859074,
				"element": "C" 
			},
			{
				"x": 3.4851629809,
				"y": 0.1671828233,
				"z": -0.9894069553,
				"element": "O" 
			},
			{
				"x": 1.6563947568,
				"y": -1.0254480302,
				"z": -2.0157739926,
				"element": "C" 
			},
			{
				"x": 2.6933322576,
				"y": -0.9831691288,
				"z": -3.7183613938,
				"element": "Br" 
			},
			{
				"x": 0.4350720056,
				"y": -0.1440770174,
				"z": -2.1064712739,
				"element": "C" 
			},
			{
				"x": 0.5385767271,
				"y": 1.2494550675,
				"z": -1.9826003701,
				"element": "C" 
			},
			{
				"x": -0.6022094083,
				"y": 2.0460531211,
				"z": -2.0578000711,
				"element": "C" 
			},
			{
				"x": -1.8571024116,
				"y": 1.4642477997,
				"z": -2.2559815447,
				"element": "C" 
			},
			{
				"x": -1.9668649981,
				"y": 0.0787466903,
				"z": -2.3835123617,
				"element": "C" 
			},
			{
				"x": -0.8261315692,
				"y": -0.7207351527,
				"z": -2.3093687817,
				"element": "C" 
			},
			{
				"x": 0.0601661768,
				"y": -3.1040085464,
				"z": 2.2866454693,
				"element": "H" 
			},
			{
				"x": 0.3962257666,
				"y": -2.1817763826,
				"z": 0.0270921944,
				"element": "H" 
			},
			{
				"x": 4.0812871685,
				"y": -0.369889942,
				"z": 1.2959821256,
				"element": "H" 
			},
			{
				"x": 3.7439322447,
				"y": -1.3075956342,
				"z": 3.5896353855,
				"element": "H" 
			},
			{
				"x": 1.361946021,
				"y": -2.0699274581,
				"z": -1.9297345477,
				"element": "H" 
			},
			{
				"x": 1.514582684,
				"y": 1.7016905332,
				"z": -1.8377660181,
				"element": "H" 
			},
			{
				"x": -0.5116111358,
				"y": 3.1239947508,
				"z": -1.9616034433,
				"element": "H" 
			},
			{
				"x": -2.7440520659,
				"y": 2.0883577022,
				"z": -2.3132753494,
				"element": "H" 
			},
			{
				"x": -2.9381306865,
				"y": -0.3801998352,
				"z": -2.5432415052,
				"element": "H" 
			},
			{
				"x": -0.9129428999,
				"y": -1.798817094,
				"z": -2.4221174309,
				"element": "H" 
			}
		],
		 "valence_orbital": [ 
			{
				"type": "occ",
				"energy": -0.27217,
				"method": "rhf"
			},
			{
				"type": "occ",
				"energy": -0.26646,
				"method": "rhf"
			},
			{
				"type": "occ",
				"energy": -0.26255,
				"method": "rhf"
			},
			{
				"type": "occ",
				"energy": -0.26204,
				"method": "rhf"
			},
			{
				"type": "occ",
				"energy": -0.25224,
				"method": "rhf"
			},
			{
				"type": "unocc",
				"energy": -0.07831,
				"method": "rhf"
			},
			{
				"type": "unocc",
				"energy": -0.03942,
				"method": "rhf"
			},
			{
				"type": "unocc",
				"energy": -0.02898,
				"method": "rhf"
			},
			{
				"type": "unocc",
				"energy": -0.01561,
				"method": "rhf"
			},
			{
				"type": "unocc",
				"energy": 0.01278,
				"method": "rhf"
			}
		],
		"cosmo_sigma_profile": { 
			"-0.025": 0.0,
			"-0.024": 0.0,
			"-0.023": 0.0,
			"-0.022": 0.0,
			"-0.021": 0.0,
			"-0.02": 0.0,
			"-0.019": 0.0,
			"-0.018": 0.0,
			"-0.017": 0.0,
			"-0.016": 0.0,
			"-0.015": 0.0,
			"-0.014": 0.0,
			"-0.013": 0.0,
			"-0.012": 0.0269230766501,
			"-0.011": 0.777192027635,
			"-0.01": 1.72178135415,
			"-0.009": 2.73127599928,
			"-0.008": 6.07100022048,
			"-0.007": 9.94278328179,
			"-0.006": 15.5417535094,
			"-0.005": 17.5256632831,
			"-0.004": 16.9248104711,
			"-0.003": 15.6024296981,
			"-0.002": 17.842973738,
			"-0.001": 19.8872694764,
			"0.0": 24.773503347,
			"0.001": 28.2357750549,
			"0.002": 29.3946884781,
			"0.003": 19.7852857821,
			"0.004": 27.1958714541,
			"0.005": 15.2405021362,
			"0.006": 8.42929960451,
			"0.007": 2.0909536662,
			"0.008": 2.40595519494,
			"0.009": 2.46128168185,
			"0.01": 2.51755866896,
			"0.011": 3.5152890467,
			"0.012": 1.32079629111,
			"0.013": 0.128604379149,
			"0.014": 0.0,
			"0.015": 0.0,
			"0.016": 0.0,
			"0.017": 0.0,
			"0.018": 0.0,
			"0.019": 0.0,
			"0.02": 0.0,
			"0.021": 0.0,
			"0.022": 0.0,
			"0.023": 0.0,
			"0.024": 0.0,
			"0.025": 0.0
		}
	}
}
