{
	 "smiles": "CC1=CC2=C(C=CC=C2)C=C1C", 
	 "Tm": 378.15, 
	 "num_atms": 24, 
	 "gaussian": { 
		 "optdone": 1, 
		 "sigma_profile": "yes", 
		 "theory": "DFT", 
		 "functional": "B3LYP", 
		 "basiset": "6-31G**", 
		 "properties": { 
			 "R2extent": 2398.2334, 
			 "electric_dipole_moment_norm": 0.818963179881, 
			 "electric_quadrupole_moment_norm": 7.72082826451, 
			 "total_energy": -464.536645093, 
			 "HOMO_LUMO_gap": 0.17681, 
			 "cosmo_polarized_energy": -4.66, 
			 "cosmo_cavitation_energy": 26.52, 
			 "cosmo_dispersion_energy": -19.61, 
			 "cosmo_repulsion_energy": 1.52, 
			 "cosmo_total_nonelectrostatic_energy": 8.43, 
			 "SMD_solvation_energy": 4.25 
		},
		"coords": [
			{
				"x": 3.2514087756,
				"y": 0.9893382984,
				"z": 0.9427831618,
				"element": "C" 
			},
			{
				"x": 1.8664722276,
				"y": 0.388713374,
				"z": 0.9567393899,
				"element": "C" 
			},
			{
				"x": 1.0377113119,
				"y": 0.51662802,
				"z": -0.138432487,
				"element": "C" 
			},
			{
				"x": -0.2714870791,
				"y": -0.0321134127,
				"z": -0.1680969734,
				"element": "C" 
			},
			{
				"x": -0.7390772384,
				"y": -0.740904363,
				"z": 0.9826470593,
				"element": "C" 
			},
			{
				"x": -2.0471957001,
				"y": -1.2943690721,
				"z": 0.9648698133,
				"element": "C" 
			},
			{
				"x": -2.856938062,
				"y": -1.1537226689,
				"z": -0.1405406068,
				"element": "C" 
			},
			{
				"x": -2.3937196699,
				"y": -0.4515974717,
				"z": -1.2805024026,
				"element": "C" 
			},
			{
				"x": -1.1298802679,
				"y": 0.0960790355,
				"z": -1.2926169512,
				"element": "C" 
			},
			{
				"x": 0.127987373,
				"y": -0.8624070047,
				"z": 2.1004410034,
				"element": "C" 
			},
			{
				"x": 1.397265263,
				"y": -0.3225734675,
				"z": 2.1114995329,
				"element": "C" 
			},
			{
				"x": 2.2841653387,
				"y": -0.4770056406,
				"z": 3.323340235,
				"element": "C" 
			},
			{
				"x": 4.0263700733,
				"y": 0.2261943012,
				"z": 1.0853003105,
				"element": "H" 
			},
			{
				"x": 3.4509653183,
				"y": 1.4939521857,
				"z": -0.0060638557,
				"element": "H" 
			},
			{
				"x": 3.3834075913,
				"y": 1.7239708007,
				"z": 1.7466246368,
				"element": "H" 
			},
			{
				"x": 1.3910966569,
				"y": 1.0554560922,
				"z": -1.0152825071,
				"element": "H" 
			},
			{
				"x": -2.3999979189,
				"y": -1.8326948558,
				"z": 1.8412180385,
				"element": "H" 
			},
			{
				"x": -3.8554999881,
				"y": -1.5813977814,
				"z": -0.1423495129,
				"element": "H" 
			},
			{
				"x": -3.0411110834,
				"y": -0.3470042541,
				"z": -2.1465173523,
				"element": "H" 
			},
			{
				"x": -0.7716260765,
				"y": 0.6354872425,
				"z": -2.1660831196,
				"element": "H" 
			},
			{
				"x": -0.2302220771,
				"y": -1.4021674136,
				"z": 2.974756509,
				"element": "H" 
			},
			{
				"x": 3.2156727074,
				"y": -1.0028464916,
				"z": 3.0803282993,
				"element": "H" 
			},
			{
				"x": 2.5729644263,
				"y": 0.4950646799,
				"z": 3.7416075093,
				"element": "H" 
			},
			{
				"x": 1.7782680981,
				"y": -1.0416801323,
				"z": 4.1107302696,
				"element": "H" 
			}
		],
		 "valence_orbital": [ 
			{
				"type": "occ",
				"energy": -0.32087,
				"method": "rhf"
			},
			{
				"type": "occ",
				"energy": -0.3076,
				"method": "rhf"
			},
			{
				"type": "occ",
				"energy": -0.27497,
				"method": "rhf"
			},
			{
				"type": "occ",
				"energy": -0.22833,
				"method": "rhf"
			},
			{
				"type": "occ",
				"energy": -0.2064,
				"method": "rhf"
			},
			{
				"type": "unocc",
				"energy": -0.02959,
				"method": "rhf"
			},
			{
				"type": "unocc",
				"energy": -0.00195,
				"method": "rhf"
			},
			{
				"type": "unocc",
				"energy": 0.04063,
				"method": "rhf"
			},
			{
				"type": "unocc",
				"energy": 0.09442,
				"method": "rhf"
			},
			{
				"type": "unocc",
				"energy": 0.10006,
				"method": "rhf"
			}
		],
		"cosmo_sigma_profile": { 
			"-0.025": 0.0,
			"-0.024": 0.0,
			"-0.023": 0.0,
			"-0.022": 0.0,
			"-0.021": 0.0,
			"-0.02": 0.0,
			"-0.019": 0.0,
			"-0.018": 0.0,
			"-0.017": 0.0,
			"-0.016": 0.0,
			"-0.015": 0.0,
			"-0.014": 0.0,
			"-0.013": 0.0,
			"-0.012": 0.0,
			"-0.011": 0.0,
			"-0.01": 0.0,
			"-0.009": 0.0,
			"-0.008": 0.0,
			"-0.007": 0.0,
			"-0.006": 1.89814119917,
			"-0.005": 14.5825204558,
			"-0.004": 24.912734188,
			"-0.003": 23.7500367226,
			"-0.002": 19.0451289454,
			"-0.001": 18.4437931068,
			"0.0": 21.659632378,
			"0.001": 15.0341121386,
			"0.002": 11.4814074482,
			"0.003": 10.8009242038,
			"0.004": 14.6027404306,
			"0.005": 24.3113822996,
			"0.006": 9.71719925105,
			"0.007": 0.11042786922,
			"0.008": 0.0,
			"0.009": 0.0,
			"0.01": 0.0,
			"0.011": 0.0,
			"0.012": 0.0,
			"0.013": 0.0,
			"0.014": 0.0,
			"0.015": 0.0,
			"0.016": 0.0,
			"0.017": 0.0,
			"0.018": 0.0,
			"0.019": 0.0,
			"0.02": 0.0,
			"0.021": 0.0,
			"0.022": 0.0,
			"0.023": 0.0,
			"0.024": 0.0,
			"0.025": 0.0
		}
	}
}
