{
	 "smiles": "OC(=O)C1=NN(C=C1O)C1=C(Cl)C=C(Cl)C=C1Cl", 
	 "Tm": 468.15, 
	 "num_atms": 23, 
	 "gaussian": { 
		 "optdone": 1, 
		 "sigma_profile": "yes", 
		 "theory": "DFT", 
		 "functional": "B3LYP", 
		 "basiset": "6-31G**", 
		 "properties": { 
			 "R2extent": 6807.9695, 
			 "electric_dipole_moment_norm": 5.26064507641, 
			 "electric_quadrupole_moment_norm": 13.4036694901, 
			 "total_energy": -2099.8034967, 
			 "HOMO_LUMO_gap": 0.17422, 
			 "cosmo_polarized_energy": -13.33, 
			 "cosmo_cavitation_energy": 34.7, 
			 "cosmo_dispersion_energy": -24.83, 
			 "cosmo_repulsion_energy": 1.95, 
			 "cosmo_total_nonelectrostatic_energy": 11.82, 
			 "SMD_solvation_energy": 6.62 
		},
		"coords": [
			{
				"x": -3.2165882319,
				"y": -3.1285750727,
				"z": 0.2705024615,
				"element": "O" 
			},
			{
				"x": -2.8430608347,
				"y": -2.8939400534,
				"z": -0.9976654512,
				"element": "C" 
			},
			{
				"x": -3.2841679301,
				"y": -3.546002518,
				"z": -1.9324230434,
				"element": "O" 
			},
			{
				"x": -1.8771446305,
				"y": -1.8152761823,
				"z": -1.2161025062,
				"element": "C" 
			},
			{
				"x": -1.3628715286,
				"y": -1.0708735845,
				"z": -0.23039062,
				"element": "N" 
			},
			{
				"x": -0.5377382816,
				"y": -0.2171247809,
				"z": -0.8564497127,
				"element": "N" 
			},
			{
				"x": -0.5082911466,
				"y": -0.3942635208,
				"z": -2.2240038217,
				"element": "C" 
			},
			{
				"x": -1.3771150783,
				"y": -1.4356806775,
				"z": -2.4881799873,
				"element": "C" 
			},
			{
				"x": -1.6944117039,
				"y": -1.9838570818,
				"z": -3.6727228396,
				"element": "O" 
			},
			{
				"x": 0.1961093396,
				"y": 0.742787473,
				"z": -0.1106719854,
				"element": "C" 
			},
			{
				"x": 1.4721076458,
				"y": 0.4419303718,
				"z": 0.3926187059,
				"element": "C" 
			},
			{
				"x": 2.1770114329,
				"y": -1.1238713218,
				"z": 0.0979137183,
				"element": "Cl" 
			},
			{
				"x": 2.1984990709,
				"y": 1.3740976676,
				"z": 1.1312489548,
				"element": "C" 
			},
			{
				"x": 1.6332791151,
				"y": 2.6254932918,
				"z": 1.3681931439,
				"element": "C" 
			},
			{
				"x": 2.5331067104,
				"y": 3.8040877224,
				"z": 2.2929007562,
				"element": "Cl" 
			},
			{
				"x": 0.3694114506,
				"y": 2.961852767,
				"z": 0.8874410012,
				"element": "C" 
			},
			{
				"x": -0.3392458957,
				"y": 2.0143453745,
				"z": 0.1511008523,
				"element": "C" 
			},
			{
				"x": -1.9205290158,
				"y": 2.4332020392,
				"z": -0.4485248888,
				"element": "Cl" 
			},
			{
				"x": -2.7484182147,
				"y": -2.5003723401,
				"z": 0.8479397383,
				"element": "H" 
			},
			{
				"x": 0.1070060609,
				"y": 0.2152929992,
				"z": -2.8658510106,
				"element": "H" 
			},
			{
				"x": -2.3382802157,
				"y": -2.6942064437,
				"z": -3.4710337452,
				"element": "H" 
			},
			{
				"x": 3.180681432,
				"y": 1.1253651473,
				"z": 1.512252326,
				"element": "H" 
			},
			{
				"x": -0.05854955,
				"y": 3.9371887237,
				"z": 1.0805079534,
				"element": "H" 
			}
		],
		 "valence_orbital": [ 
			{
				"type": "occ",
				"energy": -0.29164,
				"method": "rhf"
			},
			{
				"type": "occ",
				"energy": -0.28373,
				"method": "rhf"
			},
			{
				"type": "occ",
				"energy": -0.28264,
				"method": "rhf"
			},
			{
				"type": "occ",
				"energy": -0.28127,
				"method": "rhf"
			},
			{
				"type": "occ",
				"energy": -0.23723,
				"method": "rhf"
			},
			{
				"type": "unocc",
				"energy": -0.06301,
				"method": "rhf"
			},
			{
				"type": "unocc",
				"energy": -0.05785,
				"method": "rhf"
			},
			{
				"type": "unocc",
				"energy": -0.04825,
				"method": "rhf"
			},
			{
				"type": "unocc",
				"energy": -0.03293,
				"method": "rhf"
			},
			{
				"type": "unocc",
				"energy": 0.02021,
				"method": "rhf"
			}
		],
		"cosmo_sigma_profile": { 
			"-0.025": 0.0,
			"-0.024": 0.0,
			"-0.023": 0.0,
			"-0.022": 0.0,
			"-0.021": 0.0,
			"-0.02": 0.0,
			"-0.019": 0.0,
			"-0.018": 0.0,
			"-0.017": 0.204770714594,
			"-0.016": 0.676730055648,
			"-0.015": 0.376656419873,
			"-0.014": 0.441979555292,
			"-0.013": 0.614252901132,
			"-0.012": 0.754819034639,
			"-0.011": 1.68108200622,
			"-0.01": 4.20776307323,
			"-0.009": 6.24907108926,
			"-0.008": 6.82175797057,
			"-0.007": 5.74177269098,
			"-0.006": 7.45325403337,
			"-0.005": 9.04704725615,
			"-0.004": 13.1875607624,
			"-0.003": 17.9530421609,
			"-0.002": 24.983553877,
			"-0.001": 31.5020726657,
			"0.0": 20.8889397383,
			"0.001": 24.0616487205,
			"0.002": 31.4706460726,
			"0.003": 29.8569794935,
			"0.004": 10.6682779383,
			"0.005": 5.25989447586,
			"0.006": 4.4949609124,
			"0.007": 5.45686041324,
			"0.008": 5.17587715383,
			"0.009": 6.4744142835,
			"0.01": 5.56482217514,
			"0.011": 3.36959754446,
			"0.012": 1.95266034826,
			"0.013": 0.352727826079,
			"0.014": 0.0,
			"0.015": 0.0,
			"0.016": 0.0,
			"0.017": 0.0,
			"0.018": 0.0,
			"0.019": 0.0,
			"0.02": 0.0,
			"0.021": 0.0,
			"0.022": 0.0,
			"0.023": 0.0,
			"0.024": 0.0,
			"0.025": 0.0
		}
	}
}
