{
	 "smiles": "COC1=CC=C(C=O)C(C(O)=O)=C1OC", 
	 "Tm": 421.15, 
	 "num_atms": 25, 
	 "gaussian": { 
		 "optdone": 1, 
		 "sigma_profile": "yes", 
		 "theory": "DFT", 
		 "functional": "B3LYP", 
		 "basiset": "6-31G**", 
		 "properties": { 
			 "R2extent": 5111.6492, 
			 "electric_dipole_moment_norm": 5.76239685287, 
			 "electric_quadrupole_moment_norm": 28.2183957475, 
			 "total_energy": -763.177627244, 
			 "HOMO_LUMO_gap": 0.17342, 
			 "cosmo_polarized_energy": -16.18, 
			 "cosmo_cavitation_energy": 29.77, 
			 "cosmo_dispersion_energy": -21.21, 
			 "cosmo_repulsion_energy": 1.67, 
			 "cosmo_total_nonelectrostatic_energy": 10.22, 
			 "SMD_solvation_energy": 8.84 
		},
		"coords": [
			{
				"x": -1.8425518917,
				"y": 0.112400825,
				"z": 4.6711575784,
				"element": "C" 
			},
			{
				"x": -1.2342427237,
				"y": 0.8021813737,
				"z": 3.5850727547,
				"element": "O" 
			},
			{
				"x": -1.8049022697,
				"y": 0.7082241811,
				"z": 2.358131772,
				"element": "C" 
			},
			{
				"x": -2.9432093317,
				"y": -0.0503163719,
				"z": 2.0640851342,
				"element": "C" 
			},
			{
				"x": -3.464963551,
				"y": -0.0452202678,
				"z": 0.7748110751,
				"element": "C" 
			},
			{
				"x": -2.8780422046,
				"y": 0.7074313587,
				"z": -0.2452444021,
				"element": "C" 
			},
			{
				"x": -3.4907486061,
				"y": 0.6392483085,
				"z": -1.5981087492,
				"element": "C" 
			},
			{
				"x": -4.4875018271,
				"y": -0.0198006499,
				"z": -1.8406039469,
				"element": "O" 
			},
			{
				"x": -1.7081234525,
				"y": 1.4523307629,
				"z": 0.0409885236,
				"element": "C" 
			},
			{
				"x": -1.0578874038,
				"y": 2.2922020789,
				"z": -1.0188517941,
				"element": "C" 
			},
			{
				"x": 0.2625791524,
				"y": 2.0336954797,
				"z": -1.1546819762,
				"element": "O" 
			},
			{
				"x": -1.637079537,
				"y": 3.0975077555,
				"z": -1.7163504122,
				"element": "O" 
			},
			{
				"x": -1.1779977266,
				"y": 1.4611718836,
				"z": 1.333603512,
				"element": "C" 
			},
			{
				"x": -0.1284536846,
				"y": 2.2858888003,
				"z": 1.6327290047,
				"element": "O" 
			},
			{
				"x": 1.1264746912,
				"y": 1.6448363428,
				"z": 1.8989256779,
				"element": "C" 
			},
			{
				"x": -2.8708963136,
				"y": 0.4551939279,
				"z": 4.8358068255,
				"element": "H" 
			},
			{
				"x": -1.2384175187,
				"y": 0.3476661959,
				"z": 5.5478825096,
				"element": "H" 
			},
			{
				"x": -1.8422299315,
				"y": -0.9725206901,
				"z": 4.5101872282,
				"element": "H" 
			},
			{
				"x": -3.4304202236,
				"y": -0.6323308243,
				"z": 2.8372239551,
				"element": "H" 
			},
			{
				"x": -4.347963464,
				"y": -0.6256193758,
				"z": 0.5290631055,
				"element": "H" 
			},
			{
				"x": -2.9927389052,
				"y": 1.2227331421,
				"z": -2.3918564534,
				"element": "H" 
			},
			{
				"x": 0.5830093417,
				"y": 2.6433185254,
				"z": -1.8417335249,
				"element": "H" 
			},
			{
				"x": 1.4774554253,
				"y": 1.1111482332,
				"z": 1.0096950273,
				"element": "H" 
			},
			{
				"x": 1.8256785677,
				"y": 2.4473421757,
				"z": 2.1406012158,
				"element": "H" 
			},
			{
				"x": 1.0499733884,
				"y": 0.960786829,
				"z": 2.7487663592,
				"element": "H" 
			}
		],
		 "valence_orbital": [ 
			{
				"type": "occ",
				"energy": -0.2907,
				"method": "rhf"
			},
			{
				"type": "occ",
				"energy": -0.28737,
				"method": "rhf"
			},
			{
				"type": "occ",
				"energy": -0.26105,
				"method": "rhf"
			},
			{
				"type": "occ",
				"energy": -0.24583,
				"method": "rhf"
			},
			{
				"type": "occ",
				"energy": -0.23423,
				"method": "rhf"
			},
			{
				"type": "unocc",
				"energy": -0.06081,
				"method": "rhf"
			},
			{
				"type": "unocc",
				"energy": -0.03479,
				"method": "rhf"
			},
			{
				"type": "unocc",
				"energy": 0.02005,
				"method": "rhf"
			},
			{
				"type": "unocc",
				"energy": 0.04514,
				"method": "rhf"
			},
			{
				"type": "unocc",
				"energy": 0.07547,
				"method": "rhf"
			}
		],
		"cosmo_sigma_profile": { 
			"-0.025": 0.0,
			"-0.024": 0.0,
			"-0.023": 0.0,
			"-0.022": 0.0,
			"-0.021": 0.0,
			"-0.02": 0.0,
			"-0.019": 0.0730404172454,
			"-0.018": 1.07291715276,
			"-0.017": 0.912183591578,
			"-0.016": 0.715901367244,
			"-0.015": 1.01166058416,
			"-0.014": 0.712776093284,
			"-0.013": 0.352303991027,
			"-0.012": 0.775858798367,
			"-0.011": 1.05893909516,
			"-0.01": 0.53342623867,
			"-0.009": 0.489614022363,
			"-0.008": 2.30314163661,
			"-0.007": 7.89857788791,
			"-0.006": 16.148870138,
			"-0.005": 15.6539960795,
			"-0.004": 18.5908307621,
			"-0.003": 19.540722789,
			"-0.002": 17.3047671936,
			"-0.001": 13.4531598788,
			"0.0": 16.7545840345,
			"0.001": 19.2947965479,
			"0.002": 15.1853625084,
			"0.003": 10.0975387977,
			"0.004": 6.95390086657,
			"0.005": 6.82144844422,
			"0.006": 5.58695445878,
			"0.007": 5.29990795873,
			"0.008": 6.06770246338,
			"0.009": 5.73278830962,
			"0.01": 7.27109564499,
			"0.011": 9.07750838639,
			"0.012": 3.52855903726,
			"0.013": 0.930468197232,
			"0.014": 0.0104483550876,
			"0.015": 0.0,
			"0.016": 0.0,
			"0.017": 0.0,
			"0.018": 0.0,
			"0.019": 0.0,
			"0.02": 0.0,
			"0.021": 0.0,
			"0.022": 0.0,
			"0.023": 0.0,
			"0.024": 0.0,
			"0.025": 0.0
		}
	}
}
