{
	 "smiles": "[O-][N+](=O)OCCO[N+]([O-])=O", 
	 "Tm": 250.85, 
	 "num_atms": 14, 
	 "gaussian": { 
		 "optdone": 1, 
		 "sigma_profile": "yes", 
		 "theory": "DFT", 
		 "functional": "B3LYP", 
		 "basiset": "6-31G**", 
		 "properties": { 
			 "R2extent": 3893.0308, 
			 "electric_dipole_moment_norm": 3.2185079307, 
			 "electric_quadrupole_moment_norm": 12.6017192311, 
			 "total_energy": -639.173075163, 
			 "HOMO_LUMO_gap": 0.24874, 
			 "cosmo_polarized_energy": -11.34, 
			 "cosmo_cavitation_energy": 21.0, 
			 "cosmo_dispersion_energy": -15.31, 
			 "cosmo_repulsion_energy": 1.32, 
			 "cosmo_total_nonelectrostatic_energy": 7.0, 
			 "SMD_solvation_energy": 9.92 
		},
		"coords": [
			{
				"x": -1.9344322332,
				"y": 3.0142361015,
				"z": 4.1304778312,
				"element": "O" 
			},
			{
				"x": -1.2827950871,
				"y": 2.1892056589,
				"z": 3.5445524465,
				"element": "N" 
			},
			{
				"x": -0.6719316876,
				"y": 1.2276542217,
				"z": 3.9650503173,
				"element": "O" 
			},
			{
				"x": -1.2455020828,
				"y": 2.4175681151,
				"z": 2.1420146689,
				"element": "O" 
			},
			{
				"x": -0.4742955201,
				"y": 1.43485282,
				"z": 1.4247538007,
				"element": "C" 
			},
			{
				"x": -0.5081373825,
				"y": 1.8452755274,
				"z": -0.0325151227,
				"element": "C" 
			},
			{
				"x": -1.8493459234,
				"y": 1.5948203314,
				"z": -0.4944564396,
				"element": "O" 
			},
			{
				"x": -2.0369539435,
				"y": 1.9008884741,
				"z": -1.8698730788,
				"element": "N" 
			},
			{
				"x": -3.1629054535,
				"y": 1.692821016,
				"z": -2.2407625036,
				"element": "O" 
			},
			{
				"x": -1.0733179577,
				"y": 2.3166976423,
				"z": -2.4806641204,
				"element": "O" 
			},
			{
				"x": -0.8999762796,
				"y": 0.4384861855,
				"z": 1.5689119761,
				"element": "H" 
			},
			{
				"x": 0.560220843,
				"y": 1.434231515,
				"z": 1.7813922829,
				"element": "H" 
			},
			{
				"x": -0.2546629858,
				"y": 2.9013342894,
				"z": -0.1559006097,
				"element": "H" 
			},
			{
				"x": 0.2050356939,
				"y": 1.2400281017,
				"z": -0.6003814487,
				"element": "H" 
			}
		],
		 "valence_orbital": [ 
			{
				"type": "occ",
				"energy": -0.35373,
				"method": "rhf"
			},
			{
				"type": "occ",
				"energy": -0.34378,
				"method": "rhf"
			},
			{
				"type": "occ",
				"energy": -0.34075,
				"method": "rhf"
			},
			{
				"type": "occ",
				"energy": -0.32993,
				"method": "rhf"
			},
			{
				"type": "occ",
				"energy": -0.32672,
				"method": "rhf"
			},
			{
				"type": "unocc",
				"energy": -0.07798,
				"method": "rhf"
			},
			{
				"type": "unocc",
				"energy": -0.07582,
				"method": "rhf"
			},
			{
				"type": "unocc",
				"energy": 0.02218,
				"method": "rhf"
			},
			{
				"type": "unocc",
				"energy": 0.03873,
				"method": "rhf"
			},
			{
				"type": "unocc",
				"energy": 0.08111,
				"method": "rhf"
			}
		],
		"cosmo_sigma_profile": { 
			"-0.025": 0.0,
			"-0.024": 0.0,
			"-0.023": 0.0,
			"-0.022": 0.0,
			"-0.021": 0.0,
			"-0.02": 0.0,
			"-0.019": 0.0,
			"-0.018": 0.0,
			"-0.017": 0.0,
			"-0.016": 0.0,
			"-0.015": 0.0,
			"-0.014": 0.0,
			"-0.013": 0.0,
			"-0.012": 0.0,
			"-0.011": 0.0,
			"-0.01": 1.71020556873,
			"-0.009": 11.4926104771,
			"-0.008": 14.2607252111,
			"-0.007": 10.1484066923,
			"-0.006": 6.52982340762,
			"-0.005": 6.16461805502,
			"-0.004": 5.32514296553,
			"-0.003": 5.87654728954,
			"-0.002": 5.64234446032,
			"-0.001": 5.65961449274,
			"0.0": 4.4491849103,
			"0.001": 6.15763939138,
			"0.002": 6.95048369803,
			"0.003": 7.38733863847,
			"0.004": 11.6313608576,
			"0.005": 19.3391888764,
			"0.006": 24.9090489505,
			"0.007": 11.8862323116,
			"0.008": 1.35408033784,
			"0.009": 0.0,
			"0.01": 0.0,
			"0.011": 0.0,
			"0.012": 0.0,
			"0.013": 0.0,
			"0.014": 0.0,
			"0.015": 0.0,
			"0.016": 0.0,
			"0.017": 0.0,
			"0.018": 0.0,
			"0.019": 0.0,
			"0.02": 0.0,
			"0.021": 0.0,
			"0.022": 0.0,
			"0.023": 0.0,
			"0.024": 0.0,
			"0.025": 0.0
		}
	}
}
