{
	 "smiles": "C(C1=CC=CC=C1)C1=CC2=CC=CC=C2C=C1", 
	 "Tm": 331.15, 
	 "num_atms": 31, 
	 "gaussian": { 
		 "optdone": 1, 
		 "sigma_profile": "yes", 
		 "theory": "DFT", 
		 "functional": "B3LYP", 
		 "basiset": "6-31G**", 
		 "properties": { 
			 "R2extent": 5174.2208, 
			 "electric_dipole_moment_norm": 0.389079670505, 
			 "electric_quadrupole_moment_norm": 5.66176608136, 
			 "total_energy": -656.266870146, 
			 "HOMO_LUMO_gap": 0.17752, 
			 "cosmo_polarized_energy": -6.56, 
			 "cosmo_cavitation_energy": 34.39, 
			 "cosmo_dispersion_energy": -24.61, 
			 "cosmo_repulsion_energy": 1.89, 
			 "cosmo_total_nonelectrostatic_energy": 11.67, 
			 "SMD_solvation_energy": 5.15 
		},
		"coords": [
			{
				"x": -1.482990149,
				"y": -1.1202632644,
				"z": -0.4826588517,
				"element": "C" 
			},
			{
				"x": -2.6243434314,
				"y": -0.1935452657,
				"z": -0.1231117001,
				"element": "C" 
			},
			{
				"x": -3.185503069,
				"y": 0.6576034954,
				"z": -1.0856062415,
				"element": "C" 
			},
			{
				"x": -4.2330284372,
				"y": 1.5185183655,
				"z": -0.7572790913,
				"element": "C" 
			},
			{
				"x": -4.7377170882,
				"y": 1.5436928225,
				"z": 0.5448040505,
				"element": "C" 
			},
			{
				"x": -4.1871344062,
				"y": 0.7027910492,
				"z": 1.5131104781,
				"element": "C" 
			},
			{
				"x": -3.1391940729,
				"y": -0.1574703761,
				"z": 1.1793356896,
				"element": "C" 
			},
			{
				"x": -0.0830625283,
				"y": -0.5167936375,
				"z": -0.4296030472,
				"element": "C" 
			},
			{
				"x": 0.1807268123,
				"y": 0.7383107166,
				"z": 0.0756018413,
				"element": "C" 
			},
			{
				"x": 1.5037062482,
				"y": 1.2594245894,
				"z": 0.1231446739,
				"element": "C" 
			},
			{
				"x": 1.7863886396,
				"y": 2.5520771419,
				"z": 0.6407986903,
				"element": "C" 
			},
			{
				"x": 3.0769349617,
				"y": 3.0327260584,
				"z": 0.6753065067,
				"element": "C" 
			},
			{
				"x": 4.1479733597,
				"y": 2.2419178906,
				"z": 0.1922311564,
				"element": "C" 
			},
			{
				"x": 3.9066472526,
				"y": 0.9845932025,
				"z": -0.316201165,
				"element": "C" 
			},
			{
				"x": 2.5875031234,
				"y": 0.4612569822,
				"z": -0.3645673894,
				"element": "C" 
			},
			{
				"x": 2.2941829672,
				"y": -0.8303998516,
				"z": -0.8815632214,
				"element": "C" 
			},
			{
				"x": 1.0039075779,
				"y": -1.3009429359,
				"z": -0.9128689459,
				"element": "C" 
			},
			{
				"x": -1.645134793,
				"y": -1.5174806871,
				"z": -1.4933889912,
				"element": "H" 
			},
			{
				"x": -1.5059933842,
				"y": -1.9941603245,
				"z": 0.1825236301,
				"element": "H" 
			},
			{
				"x": -2.7973569656,
				"y": 0.642284467,
				"z": -2.1012389378,
				"element": "H" 
			},
			{
				"x": -4.657678557,
				"y": 2.1669809125,
				"z": -1.5186209929,
				"element": "H" 
			},
			{
				"x": -5.5555628261,
				"y": 2.2110374765,
				"z": 0.8011860516,
				"element": "H" 
			},
			{
				"x": -4.5750495354,
				"y": 0.7125757754,
				"z": 2.5279404372,
				"element": "H" 
			},
			{
				"x": -2.7166827904,
				"y": -0.8124992303,
				"z": 1.9375699393,
				"element": "H" 
			},
			{
				"x": -0.6316670344,
				"y": 1.3552992926,
				"z": 0.4478964006,
				"element": "H" 
			},
			{
				"x": 0.9631502917,
				"y": 3.158069633,
				"z": 1.0108060493,
				"element": "H" 
			},
			{
				"x": 3.2782186467,
				"y": 4.0229677526,
				"z": 1.0740697051,
				"element": "H" 
			},
			{
				"x": 5.1613317047,
				"y": 2.6318066459,
				"z": 0.2245219153,
				"element": "H" 
			},
			{
				"x": 4.725927935,
				"y": 0.374249591,
				"z": -0.6882926506,
				"element": "H" 
			},
			{
				"x": 3.1103233885,
				"y": -1.4433339108,
				"z": -1.2563901929,
				"element": "H" 
			},
			{
				"x": 0.8002761591,
				"y": -2.2912943769,
				"z": -1.3141557962,
				"element": "H" 
			}
		],
		 "valence_orbital": [ 
			{
				"type": "occ",
				"energy": -0.2778,
				"method": "rhf"
			},
			{
				"type": "occ",
				"energy": -0.24894,
				"method": "rhf"
			},
			{
				"type": "occ",
				"energy": -0.24228,
				"method": "rhf"
			},
			{
				"type": "occ",
				"energy": -0.2334,
				"method": "rhf"
			},
			{
				"type": "occ",
				"energy": -0.20921,
				"method": "rhf"
			},
			{
				"type": "unocc",
				"energy": -0.03169,
				"method": "rhf"
			},
			{
				"type": "unocc",
				"energy": -0.00827,
				"method": "rhf"
			},
			{
				"type": "unocc",
				"energy": -0.00114,
				"method": "rhf"
			},
			{
				"type": "unocc",
				"energy": 0.00376,
				"method": "rhf"
			},
			{
				"type": "unocc",
				"energy": 0.0386,
				"method": "rhf"
			}
		],
		"cosmo_sigma_profile": { 
			"-0.025": 0.0,
			"-0.024": 0.0,
			"-0.023": 0.0,
			"-0.022": 0.0,
			"-0.021": 0.0,
			"-0.02": 0.0,
			"-0.019": 0.0,
			"-0.018": 0.0,
			"-0.017": 0.0,
			"-0.016": 0.0,
			"-0.015": 0.0,
			"-0.014": 0.0,
			"-0.013": 0.0,
			"-0.012": 0.0,
			"-0.011": 0.0,
			"-0.01": 0.0,
			"-0.009": 0.0,
			"-0.008": 0.0,
			"-0.007": 0.0,
			"-0.006": 7.28339226017,
			"-0.005": 27.5131276469,
			"-0.004": 31.2831040867,
			"-0.003": 29.637443719,
			"-0.002": 19.7420875489,
			"-0.001": 18.1822872716,
			"0.0": 15.868315976,
			"0.001": 17.4012569771,
			"0.002": 18.048272369,
			"0.003": 20.0832709309,
			"0.004": 26.159199579,
			"0.005": 30.3469775188,
			"0.006": 12.6791017956,
			"0.007": 0.767184848377,
			"0.008": 0.0,
			"0.009": 0.0,
			"0.01": 0.0,
			"0.011": 0.0,
			"0.012": 0.0,
			"0.013": 0.0,
			"0.014": 0.0,
			"0.015": 0.0,
			"0.016": 0.0,
			"0.017": 0.0,
			"0.018": 0.0,
			"0.019": 0.0,
			"0.02": 0.0,
			"0.021": 0.0,
			"0.022": 0.0,
			"0.023": 0.0,
			"0.024": 0.0,
			"0.025": 0.0
		}
	}
}
