{
	 "smiles": "CC1=NN(CCO)C(C)=C1", 
	 "Tm": 348.15, 
	 "num_atms": 22, 
	 "gaussian": { 
		 "optdone": 1, 
		 "sigma_profile": "yes", 
		 "theory": "DFT", 
		 "functional": "B3LYP", 
		 "basiset": "6-31G**", 
		 "properties": { 
			 "R2extent": 1893.3214, 
			 "electric_dipole_moment_norm": 1.14002884613, 
			 "electric_quadrupole_moment_norm": 7.6471015058, 
			 "total_energy": -458.689844003, 
			 "HOMO_LUMO_gap": 0.25403, 
			 "cosmo_polarized_energy": -9.66, 
			 "cosmo_cavitation_energy": 24.65, 
			 "cosmo_dispersion_energy": -17.84, 
			 "cosmo_repulsion_energy": 1.47, 
			 "cosmo_total_nonelectrostatic_energy": 8.29, 
			 "SMD_solvation_energy": 3.48 
		},
		"coords": [
			{
				"x": 1.0568379926,
				"y": 2.3693556685,
				"z": -0.1825604801,
				"element": "C" 
			},
			{
				"x": 0.4469774915,
				"y": 1.018228318,
				"z": 0.0397285517,
				"element": "C" 
			},
			{
				"x": 0.4912057853,
				"y": 0.4476337029,
				"z": 1.2439772672,
				"element": "N" 
			},
			{
				"x": -0.1606306536,
				"y": -0.7371343574,
				"z": 1.1011475636,
				"element": "N" 
			},
			{
				"x": -0.1915844197,
				"y": -1.6591973253,
				"z": 2.2250222155,
				"element": "C" 
			},
			{
				"x": 1.1221019827,
				"y": -2.4373608676,
				"z": 2.3604069237,
				"element": "C" 
			},
			{
				"x": 1.4066001135,
				"y": -3.2185212472,
				"z": 1.2088549153,
				"element": "O" 
			},
			{
				"x": -0.6023455639,
				"y": -0.9404471558,
				"z": -0.1786758714,
				"element": "C" 
			},
			{
				"x": -1.3492905518,
				"y": -2.1660436077,
				"z": -0.606953513,
				"element": "C" 
			},
			{
				"x": -0.2270055746,
				"y": 0.186856048,
				"z": -0.8889819017,
				"element": "C" 
			},
			{
				"x": 0.3042849675,
				"y": 3.1035443857,
				"z": -0.4922095102,
				"element": "H" 
			},
			{
				"x": 1.8231061634,
				"y": 2.3404313684,
				"z": -0.9655248879,
				"element": "H" 
			},
			{
				"x": 1.5207136189,
				"y": 2.7231274934,
				"z": 0.7409759327,
				"element": "H" 
			},
			{
				"x": -1.0223596353,
				"y": -2.353766578,
				"z": 2.0773150728,
				"element": "H" 
			},
			{
				"x": -0.3805093181,
				"y": -1.0770724976,
				"z": 3.1318238323,
				"element": "H" 
			},
			{
				"x": 1.0407447414,
				"y": -3.1360109363,
				"z": 3.1997444712,
				"element": "H" 
			},
			{
				"x": 1.935358075,
				"y": -1.7323167209,
				"z": 2.5806633165,
				"element": "H" 
			},
			{
				"x": 1.6491319193,
				"y": -2.6071121613,
				"z": 0.5006970812,
				"element": "H" 
			},
			{
				"x": -1.5072119007,
				"y": -2.1423245011,
				"z": -1.6874375184,
				"element": "H" 
			},
			{
				"x": -2.3346930968,
				"y": -2.231975432,
				"z": -0.1292605077,
				"element": "H" 
			},
			{
				"x": -0.7977882179,
				"y": -3.0781589223,
				"z": -0.3577828149,
				"element": "H" 
			},
			{
				"x": -0.4246439189,
				"y": 0.3829653256,
				"z": -1.9333701387,
				"element": "H" 
			}
		],
		 "valence_orbital": [ 
			{
				"type": "occ",
				"energy": -0.33429,
				"method": "rhf"
			},
			{
				"type": "occ",
				"energy": -0.28122,
				"method": "rhf"
			},
			{
				"type": "occ",
				"energy": -0.2742,
				"method": "rhf"
			},
			{
				"type": "occ",
				"energy": -0.23039,
				"method": "rhf"
			},
			{
				"type": "occ",
				"energy": -0.22943,
				"method": "rhf"
			},
			{
				"type": "unocc",
				"energy": 0.0246,
				"method": "rhf"
			},
			{
				"type": "unocc",
				"energy": 0.07306,
				"method": "rhf"
			},
			{
				"type": "unocc",
				"energy": 0.07936,
				"method": "rhf"
			},
			{
				"type": "unocc",
				"energy": 0.10188,
				"method": "rhf"
			},
			{
				"type": "unocc",
				"energy": 0.12381,
				"method": "rhf"
			}
		],
		"cosmo_sigma_profile": { 
			"-0.025": 0.0,
			"-0.024": 0.0,
			"-0.023": 0.0,
			"-0.022": 0.0,
			"-0.021": 0.0,
			"-0.02": 0.0,
			"-0.019": 0.0,
			"-0.018": 0.0,
			"-0.017": 0.0,
			"-0.016": 0.0,
			"-0.015": 0.0152191173991,
			"-0.014": 0.598228981201,
			"-0.013": 0.571344653752,
			"-0.012": 0.788163999581,
			"-0.011": 0.394034591412,
			"-0.01": 1.31212242448,
			"-0.009": 0.547276465175,
			"-0.008": 1.12666203244,
			"-0.007": 1.05970400146,
			"-0.006": 5.82110807151,
			"-0.005": 16.0582280592,
			"-0.004": 21.4411909113,
			"-0.003": 20.1445615943,
			"-0.002": 19.6114617978,
			"-0.001": 20.4393024371,
			"0.0": 17.6632826715,
			"0.001": 9.76954004956,
			"0.002": 6.66188670961,
			"0.003": 6.62178024721,
			"0.004": 6.77681645293,
			"0.005": 7.13476288221,
			"0.006": 5.6426485641,
			"0.007": 3.82600534639,
			"0.008": 2.79088797873,
			"0.009": 3.31915076919,
			"0.01": 1.51379483909,
			"0.011": 2.74611094081,
			"0.012": 2.04615213128,
			"0.013": 2.37253245916,
			"0.014": 2.24447627143,
			"0.015": 1.0011948926,
			"0.016": 0.915216304204,
			"0.017": 0.204794308811,
			"0.018": 0.0,
			"0.019": 0.0,
			"0.02": 0.0,
			"0.021": 0.0,
			"0.022": 0.0,
			"0.023": 0.0,
			"0.024": 0.0,
			"0.025": 0.0
		}
	}
}
