{
	 "smiles": "OC(=O)C1=C(C=C(Cl)C(Cl)=C1)C(O)=O", 
	 "Tm": 475.15, 
	 "num_atms": 18, 
	 "gaussian": { 
		 "optdone": 1, 
		 "sigma_profile": "yes", 
		 "theory": "DFT", 
		 "functional": "B3LYP", 
		 "basiset": "6-31G**", 
		 "properties": { 
			 "R2extent": 3972.7423, 
			 "electric_dipole_moment_norm": 5.49720560103, 
			 "electric_quadrupole_moment_norm": 18.8273982215, 
			 "total_energy": -1528.56327267, 
			 "HOMO_LUMO_gap": 0.1735, 
			 "cosmo_polarized_energy": -14.72, 
			 "cosmo_cavitation_energy": 26.83, 
			 "cosmo_dispersion_energy": -20.44, 
			 "cosmo_repulsion_energy": 1.59, 
			 "cosmo_total_nonelectrostatic_energy": 7.97, 
			 "SMD_solvation_energy": 6.44 
		},
		"coords": [
			{
				"x": -3.2458354318,
				"y": -0.7269636801,
				"z": 0.0648075342,
				"element": "O" 
			},
			{
				"x": -2.3299046887,
				"y": 0.1934642343,
				"z": 0.4068394963,
				"element": "C" 
			},
			{
				"x": -2.6962741194,
				"y": 1.3209565442,
				"z": 0.7234025595,
				"element": "O" 
			},
			{
				"x": -0.9279327113,
				"y": -0.3041122367,
				"z": 0.3358982776,
				"element": "C" 
			},
			{
				"x": 0.225202362,
				"y": 0.4000927727,
				"z": 0.7900678239,
				"element": "C" 
			},
			{
				"x": 1.4660916987,
				"y": -0.2266936357,
				"z": 0.6308415554,
				"element": "C" 
			},
			{
				"x": 1.6134647235,
				"y": -1.4812018954,
				"z": 0.0472051717,
				"element": "C" 
			},
			{
				"x": 3.2055033387,
				"y": -2.1576878144,
				"z": -0.1099582903,
				"element": "Cl" 
			},
			{
				"x": 0.4771419934,
				"y": -2.1692837453,
				"z": -0.3957621232,
				"element": "C" 
			},
			{
				"x": 0.5797704667,
				"y": -3.7425044667,
				"z": -1.1312073207,
				"element": "Cl" 
			},
			{
				"x": -0.769600283,
				"y": -1.5764095472,
				"z": -0.2408855532,
				"element": "C" 
			},
			{
				"x": 0.3754424525,
				"y": 1.7721466856,
				"z": 1.4798549495,
				"element": "C" 
			},
			{
				"x": -0.6597016733,
				"y": 2.590062412,
				"z": 1.5753531118,
				"element": "O" 
			},
			{
				"x": 1.4645883441,
				"y": 2.0892904411,
				"z": 1.9136716013,
				"element": "O" 
			},
			{
				"x": -4.1116142772,
				"y": -0.2897122498,
				"z": 0.1286229098,
				"element": "H" 
			},
			{
				"x": 2.3369967018,
				"y": 0.3054724665,
				"z": 0.9928937226,
				"element": "H" 
			},
			{
				"x": -1.6422766404,
				"y": -2.1164583018,
				"z": -0.5813102107,
				"element": "H" 
			},
			{
				"x": -1.4939622566,
				"y": 2.1948420166,
				"z": 1.2110647846,
				"element": "H" 
			}
		],
		 "valence_orbital": [ 
			{
				"type": "occ",
				"energy": -0.32087,
				"method": "rhf"
			},
			{
				"type": "occ",
				"energy": -0.30865,
				"method": "rhf"
			},
			{
				"type": "occ",
				"energy": -0.28768,
				"method": "rhf"
			},
			{
				"type": "occ",
				"energy": -0.27915,
				"method": "rhf"
			},
			{
				"type": "occ",
				"energy": -0.27443,
				"method": "rhf"
			},
			{
				"type": "unocc",
				"energy": -0.10093,
				"method": "rhf"
			},
			{
				"type": "unocc",
				"energy": -0.06222,
				"method": "rhf"
			},
			{
				"type": "unocc",
				"energy": -0.01495,
				"method": "rhf"
			},
			{
				"type": "unocc",
				"energy": 0.00802,
				"method": "rhf"
			},
			{
				"type": "unocc",
				"energy": 0.03547,
				"method": "rhf"
			}
		],
		"cosmo_sigma_profile": { 
			"-0.025": 0.0,
			"-0.024": 0.0,
			"-0.023": 0.0,
			"-0.022": 0.0,
			"-0.021": 0.0228474972637,
			"-0.02": 0.672284391762,
			"-0.019": 0.845959071569,
			"-0.018": 1.13981524572,
			"-0.017": 0.662129356055,
			"-0.016": 0.492576358722,
			"-0.015": 0.584644896766,
			"-0.014": 0.857002545721,
			"-0.013": 1.13622688042,
			"-0.012": 0.303601061998,
			"-0.011": 0.417362502135,
			"-0.01": 1.48685122305,
			"-0.009": 2.20291262927,
			"-0.008": 2.65341166042,
			"-0.007": 3.30686378205,
			"-0.006": 6.76889527073,
			"-0.005": 9.56274703454,
			"-0.004": 11.9337590307,
			"-0.003": 16.1252638435,
			"-0.002": 29.2859756112,
			"-0.001": 22.7684913313,
			"0.0": 11.0947876697,
			"0.001": 15.8492872454,
			"0.002": 17.5227296955,
			"0.003": 20.1990082004,
			"0.004": 8.73872687585,
			"0.005": 4.32387946067,
			"0.006": 3.30719890039,
			"0.007": 3.77241126146,
			"0.008": 3.78328507687,
			"0.009": 3.94424701321,
			"0.01": 3.69718374125,
			"0.011": 5.46368393194,
			"0.012": 4.17029506375,
			"0.013": 1.97514556946,
			"0.014": 0.190718721104,
			"0.015": 0.0,
			"0.016": 0.0,
			"0.017": 0.0,
			"0.018": 0.0,
			"0.019": 0.0,
			"0.02": 0.0,
			"0.021": 0.0,
			"0.022": 0.0,
			"0.023": 0.0,
			"0.024": 0.0,
			"0.025": 0.0
		}
	}
}
