{
	 "smiles": "CN1C(Cl)=NN=C1C1=CC=C(Cl)C=C1", 
	 "Tm": 453.15, 
	 "num_atms": 21, 
	 "gaussian": { 
		 "optdone": 1, 
		 "sigma_profile": "yes", 
		 "theory": "DFT", 
		 "functional": "B3LYP", 
		 "basiset": "6-31G**", 
		 "properties": { 
			 "R2extent": 6645.7726, 
			 "electric_dipole_moment_norm": 4.98925677631, 
			 "electric_quadrupole_moment_norm": 20.1383892288, 
			 "total_energy": -1431.79038249, 
			 "HOMO_LUMO_gap": 0.19003, 
			 "cosmo_polarized_energy": -15.26, 
			 "cosmo_cavitation_energy": 29.16, 
			 "cosmo_dispersion_energy": -21.71, 
			 "cosmo_repulsion_energy": 1.69, 
			 "cosmo_total_nonelectrostatic_energy": 9.14, 
			 "SMD_solvation_energy": 2.47 
		},
		"coords": [
			{
				"x": 0.768213863,
				"y": -1.6124790807,
				"z": -2.0283255825,
				"element": "C" 
			},
			{
				"x": -0.6051707523,
				"y": -2.0127332723,
				"z": -1.7473226876,
				"element": "N" 
			},
			{
				"x": -1.6053684254,
				"y": -2.2276931937,
				"z": -2.6621022249,
				"element": "C" 
			},
			{
				"x": -1.3271913422,
				"y": -2.1815943476,
				"z": -4.3609503394,
				"element": "Cl" 
			},
			{
				"x": -2.7559289686,
				"y": -2.4643818384,
				"z": -2.0936884436,
				"element": "N" 
			},
			{
				"x": -2.533822257,
				"y": -2.4099584016,
				"z": -0.7373854002,
				"element": "N" 
			},
			{
				"x": -1.2562752341,
				"y": -2.1450318161,
				"z": -0.5338670707,
				"element": "C" 
			},
			{
				"x": -0.6587809694,
				"y": -1.9974233994,
				"z": 0.7993228602,
				"element": "C" 
			},
			{
				"x": 0.6547054171,
				"y": -2.391040366,
				"z": 1.1005565206,
				"element": "C" 
			},
			{
				"x": 1.1633628092,
				"y": -2.2541868071,
				"z": 2.391356661,
				"element": "C" 
			},
			{
				"x": 0.3481008532,
				"y": -1.7298696584,
				"z": 3.3929023306,
				"element": "C" 
			},
			{
				"x": 0.9846532128,
				"y": -1.5507641094,
				"z": 5.0182730092,
				"element": "Cl" 
			},
			{
				"x": -0.968337522,
				"y": -1.350765263,
				"z": 3.1235606981,
				"element": "C" 
			},
			{
				"x": -1.4642975909,
				"y": -1.4850575404,
				"z": 1.8311903564,
				"element": "C" 
			},
			{
				"x": 0.7902360052,
				"y": -1.0463485137,
				"z": -2.9600785237,
				"element": "H" 
			},
			{
				"x": 1.1297404281,
				"y": -0.9804319591,
				"z": -1.216992695,
				"element": "H" 
			},
			{
				"x": 1.4226275828,
				"y": -2.4834583644,
				"z": -2.1303208972,
				"element": "H" 
			},
			{
				"x": 1.283914846,
				"y": -2.8392965442,
				"z": 0.3391942672,
				"element": "H" 
			},
			{
				"x": 2.1767958175,
				"y": -2.5635551235,
				"z": 2.6209387011,
				"element": "H" 
			},
			{
				"x": -1.5918643605,
				"y": -0.9515418661,
				"z": 3.9156422408,
				"element": "H" 
			},
			{
				"x": -2.4853134126,
				"y": -1.199288535,
				"z": 1.6038962195,
				"element": "H" 
			}
		],
		 "valence_orbital": [ 
			{
				"type": "occ",
				"energy": -0.30489,
				"method": "rhf"
			},
			{
				"type": "occ",
				"energy": -0.28287,
				"method": "rhf"
			},
			{
				"type": "occ",
				"energy": -0.27862,
				"method": "rhf"
			},
			{
				"type": "occ",
				"energy": -0.26497,
				"method": "rhf"
			},
			{
				"type": "occ",
				"energy": -0.23891,
				"method": "rhf"
			},
			{
				"type": "unocc",
				"energy": -0.04888,
				"method": "rhf"
			},
			{
				"type": "unocc",
				"energy": -0.02883,
				"method": "rhf"
			},
			{
				"type": "unocc",
				"energy": 0.01453,
				"method": "rhf"
			},
			{
				"type": "unocc",
				"energy": 0.01886,
				"method": "rhf"
			},
			{
				"type": "unocc",
				"energy": 0.02133,
				"method": "rhf"
			}
		],
		"cosmo_sigma_profile": { 
			"-0.025": 0.0,
			"-0.024": 0.0,
			"-0.023": 0.0,
			"-0.022": 0.0,
			"-0.021": 0.0,
			"-0.02": 0.0,
			"-0.019": 0.0,
			"-0.018": 0.0,
			"-0.017": 0.0,
			"-0.016": 0.0,
			"-0.015": 0.0,
			"-0.014": 0.0,
			"-0.013": 0.0,
			"-0.012": 0.0,
			"-0.011": 0.0,
			"-0.01": 0.13381652394,
			"-0.009": 1.43377217267,
			"-0.008": 5.86068470575,
			"-0.007": 14.5522049096,
			"-0.006": 16.2374911287,
			"-0.005": 16.741171615,
			"-0.004": 16.0822021211,
			"-0.003": 12.8137940909,
			"-0.002": 13.0538009015,
			"-0.001": 14.6809746063,
			"0.0": 17.1415650215,
			"0.001": 21.3010296397,
			"0.002": 27.3760137355,
			"0.003": 18.3104599895,
			"0.004": 13.3245425739,
			"0.005": 5.52563884702,
			"0.006": 1.95159847967,
			"0.007": 2.37411102446,
			"0.008": 2.32891870454,
			"0.009": 1.65735969786,
			"0.01": 2.17294399014,
			"0.011": 2.41264611533,
			"0.012": 3.35321182264,
			"0.013": 3.66044168078,
			"0.014": 2.1885832353,
			"0.015": 2.24765184739,
			"0.016": 0.625347487315,
			"0.017": 0.0,
			"0.018": 0.0,
			"0.019": 0.0,
			"0.02": 0.0,
			"0.021": 0.0,
			"0.022": 0.0,
			"0.023": 0.0,
			"0.024": 0.0,
			"0.025": 0.0
		}
	}
}
