{
	 "smiles": "CC1=CC(C)=C(O)C(C)=C1C", 
	 "Tm": 353.65, 
	 "num_atms": 25, 
	 "gaussian": { 
		 "optdone": 1, 
		 "sigma_profile": "yes", 
		 "theory": "DFT", 
		 "functional": "B3LYP", 
		 "basiset": "6-31G**", 
		 "properties": { 
			 "R2extent": 2309.1515, 
			 "electric_dipole_moment_norm": 1.09133784412, 
			 "electric_quadrupole_moment_norm": 8.26655632776, 
			 "total_energy": -464.746762564, 
			 "HOMO_LUMO_gap": 0.21122, 
			 "cosmo_polarized_energy": -6.82, 
			 "cosmo_cavitation_energy": 26.41, 
			 "cosmo_dispersion_energy": -19.54, 
			 "cosmo_repulsion_energy": 1.55, 
			 "cosmo_total_nonelectrostatic_energy": 8.43, 
			 "SMD_solvation_energy": 4.76 
		},
		"coords": [
			{
				"x": -0.0379327181,
				"y": 1.897303114,
				"z": 1.2305638969,
				"element": "C" 
			},
			{
				"x": 0.5094023282,
				"y": 0.7867940629,
				"z": 0.3590986942,
				"element": "C" 
			},
			{
				"x": 1.2409074349,
				"y": 1.1175742006,
				"z": -0.7852543255,
				"element": "C" 
			},
			{
				"x": 1.7785468713,
				"y": 0.1547496226,
				"z": -1.6397213485,
				"element": "C" 
			},
			{
				"x": 2.5653993151,
				"y": 0.5409328116,
				"z": -2.8702509011,
				"element": "C" 
			},
			{
				"x": 1.5653473252,
				"y": -1.1948596001,
				"z": -1.3204042475,
				"element": "C" 
			},
			{
				"x": 2.0645248043,
				"y": -2.2010242553,
				"z": -2.1146588574,
				"element": "O" 
			},
			{
				"x": 0.8369646168,
				"y": -1.5736628413,
				"z": -0.1818678123,
				"element": "C" 
			},
			{
				"x": 0.6313921446,
				"y": -3.039102144,
				"z": 0.1240873662,
				"element": "C" 
			},
			{
				"x": 0.30758908,
				"y": -0.57549207,
				"z": 0.6604394933,
				"element": "C" 
			},
			{
				"x": -0.4746627507,
				"y": -1.0013497285,
				"z": 1.8835116074,
				"element": "C" 
			},
			{
				"x": -1.1315003521,
				"y": 1.865652112,
				"z": 1.3060888656,
				"element": "H" 
			},
			{
				"x": 0.3546339719,
				"y": 1.8546107285,
				"z": 2.253636865,
				"element": "H" 
			},
			{
				"x": 0.2310502567,
				"y": 2.8746804879,
				"z": 0.8201286673,
				"element": "H" 
			},
			{
				"x": 1.3999307646,
				"y": 2.1673723114,
				"z": -1.0229782831,
				"element": "H" 
			},
			{
				"x": 2.6337921967,
				"y": 1.6276448365,
				"z": -2.9615067803,
				"element": "H" 
			},
			{
				"x": 2.1004224125,
				"y": 0.1713814558,
				"z": -3.7952921198,
				"element": "H" 
			},
			{
				"x": 3.5951780041,
				"y": 0.1571630213,
				"z": -2.8438485648,
				"element": "H" 
			},
			{
				"x": 2.5379359551,
				"y": -1.8093558213,
				"z": -2.8580996649,
				"element": "H" 
			},
			{
				"x": 1.0542099921,
				"y": -3.3072394377,
				"z": 1.1001213247,
				"element": "H" 
			},
			{
				"x": -0.4347532361,
				"y": -3.2940006649,
				"z": 0.1626539838,
				"element": "H" 
			},
			{
				"x": 1.1015521248,
				"y": -3.6681911109,
				"z": -0.6311192165,
				"element": "H" 
			},
			{
				"x": 0.1351580368,
				"y": -1.6198289163,
				"z": 2.5535224667,
				"element": "H" 
			},
			{
				"x": -0.8359730705,
				"y": -0.1503813838,
				"z": 2.4614523962,
				"element": "H" 
			},
			{
				"x": -1.346715508,
				"y": -1.6079707911,
				"z": 1.6098964945,
				"element": "H" 
			}
		],
		 "valence_orbital": [ 
			{
				"type": "occ",
				"energy": -0.32757,
				"method": "rhf"
			},
			{
				"type": "occ",
				"energy": -0.31758,
				"method": "rhf"
			},
			{
				"type": "occ",
				"energy": -0.3045,
				"method": "rhf"
			},
			{
				"type": "occ",
				"energy": -0.22188,
				"method": "rhf"
			},
			{
				"type": "occ",
				"energy": -0.20057,
				"method": "rhf"
			},
			{
				"type": "unocc",
				"energy": 0.01065,
				"method": "rhf"
			},
			{
				"type": "unocc",
				"energy": 0.02642,
				"method": "rhf"
			},
			{
				"type": "unocc",
				"energy": 0.07032,
				"method": "rhf"
			},
			{
				"type": "unocc",
				"energy": 0.09999,
				"method": "rhf"
			},
			{
				"type": "unocc",
				"energy": 0.11354,
				"method": "rhf"
			}
		],
		"cosmo_sigma_profile": { 
			"-0.025": 0.0,
			"-0.024": 0.0,
			"-0.023": 0.0,
			"-0.022": 0.0,
			"-0.021": 0.0,
			"-0.02": 0.0,
			"-0.019": 0.0,
			"-0.018": 0.0,
			"-0.017": 0.0,
			"-0.016": 0.0856679873222,
			"-0.015": 0.599915081543,
			"-0.014": 0.747243639364,
			"-0.013": 0.775908023543,
			"-0.012": 0.677111253583,
			"-0.011": 1.59319535356,
			"-0.01": 0.932310024022,
			"-0.009": 1.23740757662,
			"-0.008": 1.253222526,
			"-0.007": 0.944213276456,
			"-0.006": 2.0985426823,
			"-0.005": 4.41088291984,
			"-0.004": 13.7811526439,
			"-0.003": 23.3374225764,
			"-0.002": 22.5341201602,
			"-0.001": 22.7347530598,
			"0.0": 26.6847659347,
			"0.001": 23.6888095786,
			"0.002": 10.0931370298,
			"0.003": 7.9148965081,
			"0.004": 7.79429948301,
			"0.005": 9.51747161997,
			"0.006": 7.54762021084,
			"0.007": 7.92943821439,
			"0.008": 3.14093344006,
			"0.009": 1.80139563154,
			"0.01": 2.00266153073,
			"0.011": 0.833469177969,
			"0.012": 0.0,
			"0.013": 0.0,
			"0.014": 0.0,
			"0.015": 0.0,
			"0.016": 0.0,
			"0.017": 0.0,
			"0.018": 0.0,
			"0.019": 0.0,
			"0.02": 0.0,
			"0.021": 0.0,
			"0.022": 0.0,
			"0.023": 0.0,
			"0.024": 0.0,
			"0.025": 0.0
		}
	}
}
