{
	 "smiles": "CC(C)(N)C1=NN=NN1", 
	 "Tm": 525.15, 
	 "num_atms": 18, 
	 "gaussian": { 
		 "optdone": 1, 
		 "sigma_profile": "yes", 
		 "theory": "DFT", 
		 "functional": "B3LYP", 
		 "basiset": "6-31G**", 
		 "properties": { 
			 "R2extent": 1821.9422, 
			 "electric_dipole_moment_norm": 6.28088384386, 
			 "electric_quadrupole_moment_norm": 19.1450862667, 
			 "total_energy": -431.560751325, 
			 "HOMO_LUMO_gap": 0.26364, 
			 "cosmo_polarized_energy": -17.0, 
			 "cosmo_cavitation_energy": 21.36, 
			 "cosmo_dispersion_energy": -15.48, 
			 "cosmo_repulsion_energy": 1.28, 
			 "cosmo_total_nonelectrostatic_energy": 7.16, 
			 "SMD_solvation_energy": 1.59 
		},
		"coords": [
			{
				"x": 0.2384180862,
				"y": -0.5824264436,
				"z": -0.4119175066,
				"element": "C" 
			},
			{
				"x": -0.5824484771,
				"y": -0.4050628817,
				"z": 0.8814186844,
				"element": "C" 
			},
			{
				"x": -1.0580440487,
				"y": -1.7725353612,
				"z": 1.4058528743,
				"element": "C" 
			},
			{
				"x": -1.6859442113,
				"y": 0.539272765,
				"z": 0.5977165686,
				"element": "N" 
			},
			{
				"x": 0.2915571248,
				"y": 0.2622279735,
				"z": 1.9188455869,
				"element": "C" 
			},
			{
				"x": 1.1848611437,
				"y": -0.289116662,
				"z": 2.7191616894,
				"element": "N" 
			},
			{
				"x": 1.7384323856,
				"y": 0.7358054411,
				"z": 3.4298022398,
				"element": "N" 
			},
			{
				"x": 1.2183486179,
				"y": 1.8725480758,
				"z": 3.0947030661,
				"element": "N" 
			},
			{
				"x": 0.305429452,
				"y": 1.5906357607,
				"z": 2.1401642921,
				"element": "N" 
			},
			{
				"x": 0.5525390913,
				"y": 0.3880756873,
				"z": -0.8062075857,
				"element": "H" 
			},
			{
				"x": 1.1274673239,
				"y": -1.1873181001,
				"z": -0.2201019909,
				"element": "H" 
			},
			{
				"x": -0.3659987463,
				"y": -1.0888547832,
				"z": -1.1731454257,
				"element": "H" 
			},
			{
				"x": -0.2092908175,
				"y": -2.4086591029,
				"z": 1.6693583261,
				"element": "H" 
			},
			{
				"x": -1.6565987341,
				"y": -2.2771443443,
				"z": 0.6402148611,
				"element": "H" 
			},
			{
				"x": -1.6724780223,
				"y": -1.6518069234,
				"z": 2.3041996419,
				"element": "H" 
			},
			{
				"x": -2.3992554227,
				"y": 0.4609258662,
				"z": 1.3208421576,
				"element": "H" 
			},
			{
				"x": -2.1369983851,
				"y": 0.2799423623,
				"z": -0.2762530393,
				"element": "H" 
			},
			{
				"x": -0.2695963603,
				"y": 2.2942906703,
				"z": 1.6981455599,
				"element": "H" 
			}
		],
		 "valence_orbital": [ 
			{
				"type": "occ",
				"energy": -0.31619,
				"method": "rhf"
			},
			{
				"type": "occ",
				"energy": -0.29183,
				"method": "rhf"
			},
			{
				"type": "occ",
				"energy": -0.28683,
				"method": "rhf"
			},
			{
				"type": "occ",
				"energy": -0.27799,
				"method": "rhf"
			},
			{
				"type": "occ",
				"energy": -0.26919,
				"method": "rhf"
			},
			{
				"type": "unocc",
				"energy": -0.00555,
				"method": "rhf"
			},
			{
				"type": "unocc",
				"energy": 0.02586,
				"method": "rhf"
			},
			{
				"type": "unocc",
				"energy": 0.05454,
				"method": "rhf"
			},
			{
				"type": "unocc",
				"energy": 0.09458,
				"method": "rhf"
			},
			{
				"type": "unocc",
				"energy": 0.10784,
				"method": "rhf"
			}
		],
		"cosmo_sigma_profile": { 
			"-0.025": 0.0,
			"-0.024": 0.0,
			"-0.023": 0.0,
			"-0.022": 0.0,
			"-0.021": 0.0,
			"-0.02": 0.0,
			"-0.019": 0.0,
			"-0.018": 0.25852498921,
			"-0.017": 0.70649021856,
			"-0.016": 0.251918411116,
			"-0.015": 0.992637454484,
			"-0.014": 1.08863215168,
			"-0.013": 0.57482147529,
			"-0.012": 0.618411006508,
			"-0.011": 1.72642896209,
			"-0.01": 3.86039879294,
			"-0.009": 4.22903420511,
			"-0.008": 4.88468246626,
			"-0.007": 4.27191593359,
			"-0.006": 4.58062180676,
			"-0.005": 7.88003129344,
			"-0.004": 13.240732089,
			"-0.003": 15.271939818,
			"-0.002": 14.5853901767,
			"-0.001": 15.1871904825,
			"0.0": 14.5630936519,
			"0.001": 5.92791366753,
			"0.002": 3.22381494722,
			"0.003": 3.41136213879,
			"0.004": 3.52823815873,
			"0.005": 2.80138588624,
			"0.006": 3.83355529575,
			"0.007": 3.80430002994,
			"0.008": 5.28034723343,
			"0.009": 5.47173376741,
			"0.01": 5.58472322415,
			"0.011": 5.12136384134,
			"0.012": 4.70056098778,
			"0.013": 2.7437051613,
			"0.014": 2.31562742203,
			"0.015": 0.774176796525,
			"0.016": 0.0225813468616,
			"0.017": 0.0,
			"0.018": 0.0,
			"0.019": 0.0,
			"0.02": 0.0,
			"0.021": 0.0,
			"0.022": 0.0,
			"0.023": 0.0,
			"0.024": 0.0,
			"0.025": 0.0
		}
	}
}
