{
	 "smiles": "NCCNC(=O)C1=CC=C(Br)C=C1", 
	 "Tm": 312.15, 
	 "num_atms": 24, 
	 "gaussian": { 
		 "optdone": 1, 
		 "sigma_profile": "yes", 
		 "theory": "DFT", 
		 "functional": "B3LYP", 
		 "basiset": "6-31G**", 
		 "properties": { 
			 "R2extent": 6014.721, 
			 "electric_dipole_moment_norm": 4.75512595206, 
			 "electric_quadrupole_moment_norm": 11.4227108989, 
			 "total_energy": -3105.7251098, 
			 "HOMO_LUMO_gap": 0.20098, 
			 "cosmo_polarized_energy": -15.28, 
			 "cosmo_cavitation_energy": 30.01, 
			 "cosmo_dispersion_energy": -21.63, 
			 "cosmo_repulsion_energy": 1.76, 
			 "cosmo_total_nonelectrostatic_energy": 10.15, 
			 "SMD_solvation_energy": 3.25 
		},
		"coords": [
			{
				"x": 0.9339506046,
				"y": 1.3783686189,
				"z": -2.1099964959,
				"element": "N" 
			},
			{
				"x": -0.4796977656,
				"y": 1.124813121,
				"z": -2.3740689028,
				"element": "C" 
			},
			{
				"x": -1.0371351174,
				"y": 0.0845058033,
				"z": -1.3894526567,
				"element": "C" 
			},
			{
				"x": -0.4098865584,
				"y": -1.2296603507,
				"z": -1.5010179323,
				"element": "N" 
			},
			{
				"x": 0.8513294577,
				"y": -1.5590172497,
				"z": -1.0373360778,
				"element": "C" 
			},
			{
				"x": 1.5584797297,
				"y": -2.3586356532,
				"z": -1.6387684381,
				"element": "O" 
			},
			{
				"x": 1.2886717724,
				"y": -0.9992004826,
				"z": 0.2876305951,
				"element": "C" 
			},
			{
				"x": 2.6415251018,
				"y": -0.6750931494,
				"z": 0.4500689984,
				"element": "C" 
			},
			{
				"x": 3.1225688017,
				"y": -0.2166910043,
				"z": 1.6735513506,
				"element": "C" 
			},
			{
				"x": 2.2421275846,
				"y": -0.1086438677,
				"z": 2.7513130196,
				"element": "C" 
			},
			{
				"x": 2.8943796505,
				"y": 0.5153945288,
				"z": 4.4368283769,
				"element": "Br" 
			},
			{
				"x": 0.8984997404,
				"y": -0.454002347,
				"z": 2.624177019,
				"element": "C" 
			},
			{
				"x": 0.4270076292,
				"y": -0.8960016025,
				"z": 1.3867626857,
				"element": "C" 
			},
			{
				"x": 1.3647263116,
				"y": 1.8763929947,
				"z": -2.8826377109,
				"element": "H" 
			},
			{
				"x": 1.0482350703,
				"y": 1.9553156105,
				"z": -1.2809494898,
				"element": "H" 
			},
			{
				"x": -1.1260534574,
				"y": 2.0198401649,
				"z": -2.3240357221,
				"element": "H" 
			},
			{
				"x": -0.5697819145,
				"y": 0.7310084307,
				"z": -3.3939764641,
				"element": "H" 
			},
			{
				"x": -0.9149156216,
				"y": 0.4507145862,
				"z": -0.3672099862,
				"element": "H" 
			},
			{
				"x": -2.1139203312,
				"y": -0.0335578549,
				"z": -1.5570585686,
				"element": "H" 
			},
			{
				"x": -0.5694908815,
				"y": -1.6924703974,
				"z": -2.3903640368,
				"element": "H" 
			},
			{
				"x": 3.3096174856,
				"y": -0.7889725448,
				"z": -0.3967057989,
				"element": "H" 
			},
			{
				"x": 4.1672353228,
				"y": 0.0462176671,
				"z": 1.7951656816,
				"element": "H" 
			},
			{
				"x": 0.2336072124,
				"y": -0.3858752905,
				"z": 3.477658065,
				"element": "H" 
			},
			{
				"x": -0.6138798277,
				"y": -1.1885497316,
				"z": 1.2873224891,
				"element": "H" 
			}
		],
		 "valence_orbital": [ 
			{
				"type": "occ",
				"energy": -0.26589,
				"method": "rhf"
			},
			{
				"type": "occ",
				"energy": -0.26284,
				"method": "rhf"
			},
			{
				"type": "occ",
				"energy": -0.2524,
				"method": "rhf"
			},
			{
				"type": "occ",
				"energy": -0.23974,
				"method": "rhf"
			},
			{
				"type": "occ",
				"energy": -0.23448,
				"method": "rhf"
			},
			{
				"type": "unocc",
				"energy": -0.0335,
				"method": "rhf"
			},
			{
				"type": "unocc",
				"energy": -0.01567,
				"method": "rhf"
			},
			{
				"type": "unocc",
				"energy": 0.00648,
				"method": "rhf"
			},
			{
				"type": "unocc",
				"energy": 0.04799,
				"method": "rhf"
			},
			{
				"type": "unocc",
				"energy": 0.06987,
				"method": "rhf"
			}
		],
		"cosmo_sigma_profile": { 
			"-0.025": 0.0,
			"-0.024": 0.0,
			"-0.023": 0.0,
			"-0.022": 0.0,
			"-0.021": 0.0,
			"-0.02": 0.0,
			"-0.019": 0.0,
			"-0.018": 0.0,
			"-0.017": 0.0,
			"-0.016": 0.0,
			"-0.015": 0.0,
			"-0.014": 0.0,
			"-0.013": 0.149426755398,
			"-0.012": 1.16055995347,
			"-0.011": 1.01782993772,
			"-0.01": 2.50604872757,
			"-0.009": 3.74154639939,
			"-0.008": 4.89689438677,
			"-0.007": 8.05159671828,
			"-0.006": 12.903210734,
			"-0.005": 15.6953204952,
			"-0.004": 17.6600381044,
			"-0.003": 19.844060834,
			"-0.002": 19.2339768968,
			"-0.001": 14.081924474,
			"0.0": 13.6936667928,
			"0.001": 14.3360373048,
			"0.002": 20.2313902983,
			"0.003": 19.2991017859,
			"0.004": 15.0434503987,
			"0.005": 8.07171411683,
			"0.006": 2.49723248899,
			"0.007": 2.61822426042,
			"0.008": 2.72762661718,
			"0.009": 2.03513868747,
			"0.01": 2.44671123612,
			"0.011": 3.27164103351,
			"0.012": 3.0926354624,
			"0.013": 4.91341447115,
			"0.014": 4.70649986486,
			"0.015": 0.379888232495,
			"0.016": 0.0,
			"0.017": 0.0,
			"0.018": 0.0,
			"0.019": 0.0,
			"0.02": 0.0,
			"0.021": 0.0,
			"0.022": 0.0,
			"0.023": 0.0,
			"0.024": 0.0,
			"0.025": 0.0
		}
	}
}
