{
	 "smiles": "CN1CCN(CC1)C1=NC(Cl)=CC=N1", 
	 "Tm": 368.15, 
	 "num_atms": 27, 
	 "gaussian": { 
		 "optdone": 1, 
		 "sigma_profile": "yes", 
		 "theory": "DFT", 
		 "functional": "B3LYP", 
		 "basiset": "6-31G**", 
		 "properties": { 
			 "R2extent": 4524.8597, 
			 "electric_dipole_moment_norm": 1.90057336612, 
			 "electric_quadrupole_moment_norm": 12.8591023722, 
			 "total_energy": -1029.98132689, 
			 "HOMO_LUMO_gap": 0.17465, 
			 "cosmo_polarized_energy": -7.69, 
			 "cosmo_cavitation_energy": 30.71, 
			 "cosmo_dispersion_energy": -23.0, 
			 "cosmo_repulsion_energy": 1.82, 
			 "cosmo_total_nonelectrostatic_energy": 9.53, 
			 "SMD_solvation_energy": -0.46 
		},
		"coords": [
			{
				"x": 0.275014916,
				"y": 3.1835550606,
				"z": -2.0064890338,
				"element": "C" 
			},
			{
				"x": -0.5028370895,
				"y": 1.9666407998,
				"z": -1.8375814211,
				"element": "N" 
			},
			{
				"x": 0.2774126205,
				"y": 0.7764924642,
				"z": -2.183244813,
				"element": "C" 
			},
			{
				"x": -0.3763152337,
				"y": -0.4962127506,
				"z": -1.653709962,
				"element": "C" 
			},
			{
				"x": -0.4306924964,
				"y": -0.4471227923,
				"z": -0.1885563888,
				"element": "N" 
			},
			{
				"x": -0.5008566876,
				"y": 0.8777602252,
				"z": 0.4359099015,
				"element": "C" 
			},
			{
				"x": -1.1787137921,
				"y": 1.8511418944,
				"z": -0.5340162256,
				"element": "C" 
			},
			{
				"x": -0.40329769,
				"y": -1.5835473269,
				"z": 0.555756036,
				"element": "C" 
			},
			{
				"x": -0.3973197882,
				"y": -1.4360019639,
				"z": 1.9061858883,
				"element": "N" 
			},
			{
				"x": -0.3782913807,
				"y": -2.545579266,
				"z": 2.6075381467,
				"element": "C" 
			},
			{
				"x": -0.3805479366,
				"y": -2.3681402081,
				"z": 4.3629911917,
				"element": "Cl" 
			},
			{
				"x": -0.3518871793,
				"y": -3.8287018496,
				"z": 2.0609126801,
				"element": "C" 
			},
			{
				"x": -0.3537901491,
				"y": -3.856294912,
				"z": 0.6663782473,
				"element": "C" 
			},
			{
				"x": -0.3845589981,
				"y": -2.7672221441,
				"z": -0.0992630299,
				"element": "N" 
			},
			{
				"x": 0.6484078742,
				"y": 3.2365447509,
				"z": -3.0352484906,
				"element": "H" 
			},
			{
				"x": -0.3579066851,
				"y": 4.0604284537,
				"z": -1.8393579868,
				"element": "H" 
			},
			{
				"x": 1.1510289086,
				"y": 3.2548313432,
				"z": -1.332115183,
				"element": "H" 
			},
			{
				"x": 0.3659194554,
				"y": 0.7072894645,
				"z": -3.2749607589,
				"element": "H" 
			},
			{
				"x": 1.3092495584,
				"y": 0.8277407763,
				"z": -1.7836640661,
				"element": "H" 
			},
			{
				"x": -1.384752746,
				"y": -0.6073805726,
				"z": -2.0764129576,
				"element": "H" 
			},
			{
				"x": 0.1974938251,
				"y": -1.373902446,
				"z": -1.9531842478,
				"element": "H" 
			},
			{
				"x": 0.5051750476,
				"y": 1.231148561,
				"z": 0.7046681736,
				"element": "H" 
			},
			{
				"x": -1.069186771,
				"y": 0.801459898,
				"z": 1.364656327,
				"element": "H" 
			},
			{
				"x": -1.2300680777,
				"y": 2.8388842238,
				"z": -0.0658454533,
				"element": "H" 
			},
			{
				"x": -2.2153138494,
				"y": 1.5199443,
				"z": -0.6863202831,
				"element": "H" 
			},
			{
				"x": -0.3315297487,
				"y": -4.7231826006,
				"z": 2.6677625129,
				"element": "H" 
			},
			{
				"x": -0.3337359065,
				"y": -4.8098733829,
				"z": 0.1402111964,
				"element": "H" 
			}
		],
		 "valence_orbital": [ 
			{
				"type": "occ",
				"energy": -0.31041,
				"method": "rhf"
			},
			{
				"type": "occ",
				"energy": -0.28517,
				"method": "rhf"
			},
			{
				"type": "occ",
				"energy": -0.25457,
				"method": "rhf"
			},
			{
				"type": "occ",
				"energy": -0.21742,
				"method": "rhf"
			},
			{
				"type": "occ",
				"energy": -0.20942,
				"method": "rhf"
			},
			{
				"type": "unocc",
				"energy": -0.03477,
				"method": "rhf"
			},
			{
				"type": "unocc",
				"energy": -0.00485,
				"method": "rhf"
			},
			{
				"type": "unocc",
				"energy": 0.03396,
				"method": "rhf"
			},
			{
				"type": "unocc",
				"energy": 0.0749,
				"method": "rhf"
			},
			{
				"type": "unocc",
				"energy": 0.11234,
				"method": "rhf"
			}
		],
		"cosmo_sigma_profile": { 
			"-0.025": 0.0,
			"-0.024": 0.0,
			"-0.023": 0.0,
			"-0.022": 0.0,
			"-0.021": 0.0,
			"-0.02": 0.0,
			"-0.019": 0.0,
			"-0.018": 0.0,
			"-0.017": 0.0,
			"-0.016": 0.0,
			"-0.015": 0.0,
			"-0.014": 0.0,
			"-0.013": 0.0,
			"-0.012": 0.0,
			"-0.011": 0.0,
			"-0.01": 0.0,
			"-0.009": 0.0,
			"-0.008": 1.80832526253,
			"-0.007": 5.03174813202,
			"-0.006": 3.62560455508,
			"-0.005": 6.84806762029,
			"-0.004": 21.8914278589,
			"-0.003": 31.1483060271,
			"-0.002": 30.5170614893,
			"-0.001": 27.1296316144,
			"0.0": 29.7943370289,
			"0.001": 17.9081128866,
			"0.002": 13.9059728993,
			"0.003": 10.1513142898,
			"0.004": 13.693824006,
			"0.005": 7.32619570288,
			"0.006": 4.80213514189,
			"0.007": 4.00128878162,
			"0.008": 3.36127080741,
			"0.009": 3.33729858102,
			"0.01": 2.70094481044,
			"0.011": 1.75385332194,
			"0.012": 1.46100579931,
			"0.013": 1.05156251794,
			"0.014": 0.35059621659,
			"0.015": 0.491197925767,
			"0.016": 0.236885608758,
			"0.017": 0.0543107420149,
			"0.018": 0.0,
			"0.019": 0.0,
			"0.02": 0.0,
			"0.021": 0.0,
			"0.022": 0.0,
			"0.023": 0.0,
			"0.024": 0.0,
			"0.025": 0.0
		}
	}
}
