{
	 "smiles": "CC1=CC=C(Cl)N=N1", 
	 "Tm": 330.15, 
	 "num_atms": 13, 
	 "gaussian": { 
		 "optdone": 1, 
		 "sigma_profile": "yes", 
		 "theory": "DFT", 
		 "functional": "B3LYP", 
		 "basiset": "6-31G**", 
		 "properties": { 
			 "R2extent": 1559.7198, 
			 "electric_dipole_moment_norm": 4.65626432776, 
			 "electric_quadrupole_moment_norm": 7.30490088023, 
			 "total_energy": -763.201779743, 
			 "HOMO_LUMO_gap": 0.1837, 
			 "cosmo_polarized_energy": -10.74, 
			 "cosmo_cavitation_energy": 19.15, 
			 "cosmo_dispersion_energy": -14.55, 
			 "cosmo_repulsion_energy": 1.22, 
			 "cosmo_total_nonelectrostatic_energy": 5.82, 
			 "SMD_solvation_energy": 1.53 
		},
		"coords": [
			{
				"x": -0.348524132,
				"y": -1.6610812029,
				"z": -2.3090079635,
				"element": "C" 
			},
			{
				"x": 0.0949294843,
				"y": -1.1704875707,
				"z": -0.9571474362,
				"element": "C" 
			},
			{
				"x": 0.0537639752,
				"y": 0.1930756344,
				"z": -0.6070893184,
				"element": "C" 
			},
			{
				"x": 0.4789299039,
				"y": 0.55718032,
				"z": 0.6531465158,
				"element": "C" 
			},
			{
				"x": 0.9189273875,
				"y": -0.4876308719,
				"z": 1.4776329546,
				"element": "C" 
			},
			{
				"x": 1.4784195841,
				"y": -0.1207320275,
				"z": 3.0984163433,
				"element": "Cl" 
			},
			{
				"x": 0.9462808763,
				"y": -1.7587223358,
				"z": 1.1217641529,
				"element": "N" 
			},
			{
				"x": 0.5320528826,
				"y": -2.103794942,
				"z": -0.1028060049,
				"element": "N" 
			},
			{
				"x": -0.2305201532,
				"y": -2.7443514516,
				"z": -2.3586210182,
				"element": "H" 
			},
			{
				"x": -1.3987212242,
				"y": -1.4100656957,
				"z": -2.4951378063,
				"element": "H" 
			},
			{
				"x": 0.2437201145,
				"y": -1.2030496973,
				"z": -3.1090230833,
				"element": "H" 
			},
			{
				"x": -0.3045147787,
				"y": 0.9347964432,
				"z": -1.3151681141,
				"element": "H" 
			},
			{
				"x": 0.4790560798,
				"y": 1.5840633979,
				"z": 1.0000407782,
				"element": "H" 
			}
		],
		 "valence_orbital": [ 
			{
				"type": "occ",
				"energy": -0.33214,
				"method": "rhf"
			},
			{
				"type": "occ",
				"energy": -0.31767,
				"method": "rhf"
			},
			{
				"type": "occ",
				"energy": -0.31738,
				"method": "rhf"
			},
			{
				"type": "occ",
				"energy": -0.2747,
				"method": "rhf"
			},
			{
				"type": "occ",
				"energy": -0.24542,
				"method": "rhf"
			},
			{
				"type": "unocc",
				"energy": -0.06172,
				"method": "rhf"
			},
			{
				"type": "unocc",
				"energy": -0.03639,
				"method": "rhf"
			},
			{
				"type": "unocc",
				"energy": 0.02433,
				"method": "rhf"
			},
			{
				"type": "unocc",
				"energy": 0.09821,
				"method": "rhf"
			},
			{
				"type": "unocc",
				"energy": 0.10251,
				"method": "rhf"
			}
		],
		"cosmo_sigma_profile": { 
			"-0.025": 0.0,
			"-0.024": 0.0,
			"-0.023": 0.0,
			"-0.022": 0.0,
			"-0.021": 0.0,
			"-0.02": 0.0,
			"-0.019": 0.0,
			"-0.018": 0.0,
			"-0.017": 0.0,
			"-0.016": 0.0,
			"-0.015": 0.0,
			"-0.014": 0.0,
			"-0.013": 0.0,
			"-0.012": 0.0,
			"-0.011": 0.0,
			"-0.01": 0.48627832604,
			"-0.009": 3.73542370113,
			"-0.008": 4.85448820726,
			"-0.007": 5.03123522944,
			"-0.006": 5.78578994753,
			"-0.005": 10.7976334789,
			"-0.004": 8.71803193136,
			"-0.003": 12.7943201946,
			"-0.002": 19.1113998702,
			"-0.001": 17.3958153323,
			"0.0": 10.3893559025,
			"0.001": 5.97485746966,
			"0.002": 6.7468896123,
			"0.003": 9.0938758898,
			"0.004": 9.75646983191,
			"0.005": 3.68622445543,
			"0.006": 3.07029915266,
			"0.007": 1.86840803345,
			"0.008": 1.81395345568,
			"0.009": 2.10116575312,
			"0.01": 1.9832958229,
			"0.011": 2.1484071875,
			"0.012": 2.39992350433,
			"0.013": 2.96357406785,
			"0.014": 1.86625562953,
			"0.015": 1.34748080172,
			"0.016": 0.103381264859,
			"0.017": 0.0,
			"0.018": 0.0,
			"0.019": 0.0,
			"0.02": 0.0,
			"0.021": 0.0,
			"0.022": 0.0,
			"0.023": 0.0,
			"0.024": 0.0,
			"0.025": 0.0
		}
	}
}
