{
	 "smiles": "CC(C)(C)C1=CC=C(N)C(N)=C1", 
	 "Tm": 372.15, 
	 "num_atms": 28, 
	 "gaussian": { 
		 "optdone": 1, 
		 "sigma_profile": "yes", 
		 "theory": "DFT", 
		 "functional": "B3LYP", 
		 "basiset": "6-31G**", 
		 "properties": { 
			 "R2extent": 2688.1115, 
			 "electric_dipole_moment_norm": 1.16026315119, 
			 "electric_quadrupole_moment_norm": 9.88290271681, 
			 "total_energy": -500.230293108, 
			 "HOMO_LUMO_gap": 0.20186, 
			 "cosmo_polarized_energy": -9.85, 
			 "cosmo_cavitation_energy": 29.02, 
			 "cosmo_dispersion_energy": -20.97, 
			 "cosmo_repulsion_energy": 1.67, 
			 "cosmo_total_nonelectrostatic_energy": 9.72, 
			 "SMD_solvation_energy": 5.0 
		},
		"coords": [
			{
				"x": -2.9261741023,
				"y": -0.7209707714,
				"z": -0.8499839848,
				"element": "C" 
			},
			{
				"x": -1.8764950298,
				"y": 0.0406549814,
				"z": -0.0059481086,
				"element": "C" 
			},
			{
				"x": -1.82622337,
				"y": 1.4960503087,
				"z": -0.5087485842,
				"element": "C" 
			},
			{
				"x": -2.3292291119,
				"y": 0.0602913674,
				"z": 1.4733970214,
				"element": "C" 
			},
			{
				"x": -0.5137658714,
				"y": -0.6683613956,
				"z": -0.1195320779,
				"element": "C" 
			},
			{
				"x": -0.3769797569,
				"y": -2.0007421785,
				"z": 0.2967498439,
				"element": "C" 
			},
			{
				"x": 0.8408197831,
				"y": -2.6722092773,
				"z": 0.1896671204,
				"element": "C" 
			},
			{
				"x": 1.9714408124,
				"y": -2.0362846658,
				"z": -0.3255997273,
				"element": "C" 
			},
			{
				"x": 3.233897097,
				"y": -2.6587061285,
				"z": -0.424497549,
				"element": "N" 
			},
			{
				"x": 1.8627965148,
				"y": -0.6869083463,
				"z": -0.7210983655,
				"element": "C" 
			},
			{
				"x": 3.0109218142,
				"y": -0.0650086378,
				"z": -1.2551315352,
				"element": "N" 
			},
			{
				"x": 0.6311847139,
				"y": -0.0326985217,
				"z": -0.6210316175,
				"element": "C" 
			},
			{
				"x": -2.6363013666,
				"y": -0.7429505676,
				"z": -1.9057302803,
				"element": "H" 
			},
			{
				"x": -3.9063074433,
				"y": -0.2351627189,
				"z": -0.7757340589,
				"element": "H" 
			},
			{
				"x": -3.0410340249,
				"y": -1.7562023903,
				"z": -0.5154675264,
				"element": "H" 
			},
			{
				"x": -1.5370876502,
				"y": 1.5526111239,
				"z": -1.5635053361,
				"element": "H" 
			},
			{
				"x": -1.1241349921,
				"y": 2.1036771723,
				"z": 0.0720435922,
				"element": "H" 
			},
			{
				"x": -2.8158228126,
				"y": 1.9551170727,
				"z": -0.4130700258,
				"element": "H" 
			},
			{
				"x": -1.6086759524,
				"y": 0.6022558874,
				"z": 2.0948861187,
				"element": "H" 
			},
			{
				"x": -3.3032106413,
				"y": 0.5541305747,
				"z": 1.5715391718,
				"element": "H" 
			},
			{
				"x": -2.4253891133,
				"y": -0.9502273881,
				"z": 1.8812437784,
				"element": "H" 
			},
			{
				"x": -1.2301721826,
				"y": -2.5374350489,
				"z": 0.7003132462,
				"element": "H" 
			},
			{
				"x": 0.9142789063,
				"y": -3.7114968464,
				"z": 0.5036513437,
				"element": "H" 
			},
			{
				"x": 3.6821972639,
				"y": -2.4636122204,
				"z": -1.3154786975,
				"element": "H" 
			},
			{
				"x": 3.1919843017,
				"y": -3.6591712709,
				"z": -0.2713905967,
				"element": "H" 
			},
			{
				"x": 3.8420765746,
				"y": -0.2713793044,
				"z": -0.7081072514,
				"element": "H" 
			},
			{
				"x": 2.9047066926,
				"y": 0.9367501986,
				"z": -1.3606126181,
				"element": "H" 
			},
			{
				"x": 0.5861989473,
				"y": 1.0040889916,
				"z": -0.9399232952,
				"element": "H" 
			}
		],
		 "valence_orbital": [ 
			{
				"type": "occ",
				"energy": -0.30815,
				"method": "rhf"
			},
			{
				"type": "occ",
				"energy": -0.3019,
				"method": "rhf"
			},
			{
				"type": "occ",
				"energy": -0.28271,
				"method": "rhf"
			},
			{
				"type": "occ",
				"energy": -0.2151,
				"method": "rhf"
			},
			{
				"type": "occ",
				"energy": -0.18057,
				"method": "rhf"
			},
			{
				"type": "unocc",
				"energy": 0.02129,
				"method": "rhf"
			},
			{
				"type": "unocc",
				"energy": 0.02922,
				"method": "rhf"
			},
			{
				"type": "unocc",
				"energy": 0.07961,
				"method": "rhf"
			},
			{
				"type": "unocc",
				"energy": 0.08931,
				"method": "rhf"
			},
			{
				"type": "unocc",
				"energy": 0.10815,
				"method": "rhf"
			}
		],
		"cosmo_sigma_profile": { 
			"-0.025": 0.0,
			"-0.024": 0.0,
			"-0.023": 0.0,
			"-0.022": 0.0,
			"-0.021": 0.0,
			"-0.02": 0.0,
			"-0.019": 0.0,
			"-0.018": 0.0,
			"-0.017": 0.0,
			"-0.016": 0.0,
			"-0.015": 0.0,
			"-0.014": 0.0,
			"-0.013": 0.0,
			"-0.012": 0.623107098611,
			"-0.011": 3.30667395866,
			"-0.01": 3.88197285761,
			"-0.009": 5.80721662817,
			"-0.008": 5.42268351163,
			"-0.007": 4.98979511217,
			"-0.006": 4.75361910705,
			"-0.005": 5.70598188533,
			"-0.004": 8.43773169356,
			"-0.003": 15.0494595517,
			"-0.002": 26.5851069075,
			"-0.001": 21.8070398732,
			"0.0": 21.0272523637,
			"0.001": 24.3803389892,
			"0.002": 19.8106879274,
			"0.003": 7.34355954775,
			"0.004": 6.74591936049,
			"0.005": 6.40383212125,
			"0.006": 8.27117143276,
			"0.007": 8.40711925265,
			"0.008": 6.88657653337,
			"0.009": 2.26218494597,
			"0.01": 1.42369595731,
			"0.011": 1.98946042079,
			"0.012": 0.810036555882,
			"0.013": 1.02512840351,
			"0.014": 1.08958391065,
			"0.015": 0.83371309947,
			"0.016": 0.299049954686,
			"0.017": 0.0,
			"0.018": 0.0,
			"0.019": 0.0,
			"0.02": 0.0,
			"0.021": 0.0,
			"0.022": 0.0,
			"0.023": 0.0,
			"0.024": 0.0,
			"0.025": 0.0
		}
	}
}
