{
	 "smiles": "CC1=NC(OC2=CC=CC(Br)=C2)=CN=C1", 
	 "Tm": 311.95, 
	 "num_atms": 24, 
	 "gaussian": { 
		 "optdone": 1, 
		 "sigma_profile": "yes", 
		 "theory": "DFT", 
		 "functional": "B3LYP", 
		 "basiset": "6-31G**", 
		 "properties": { 
			 "R2extent": 7098.2005, 
			 "electric_dipole_moment_norm": 1.4193037906, 
			 "electric_quadrupole_moment_norm": 13.320336099, 
			 "total_energy": -3180.71384749, 
			 "HOMO_LUMO_gap": 0.18921, 
			 "cosmo_polarized_energy": -8.16, 
			 "cosmo_cavitation_energy": 31.54, 
			 "cosmo_dispersion_energy": -22.89, 
			 "cosmo_repulsion_energy": 1.82, 
			 "cosmo_total_nonelectrostatic_energy": 10.46, 
			 "SMD_solvation_energy": 2.43 
		},
		"coords": [
			{
				"x": -1.9868910282,
				"y": 2.8780622989,
				"z": 2.4237251003,
				"element": "C" 
			},
			{
				"x": -1.7910042807,
				"y": 1.5176545846,
				"z": 1.8069396527,
				"element": "C" 
			},
			{
				"x": -1.0046900785,
				"y": 1.4334025104,
				"z": 0.7182346704,
				"element": "N" 
			},
			{
				"x": -0.8406724804,
				"y": 0.2332402854,
				"z": 0.1860481286,
				"element": "C" 
			},
			{
				"x": -0.0837826138,
				"y": 0.0643555865,
				"z": -0.9364800803,
				"element": "O" 
			},
			{
				"x": 0.699316252,
				"y": 1.0897588295,
				"z": -1.4502262309,
				"element": "C" 
			},
			{
				"x": 0.5677819064,
				"y": 1.3574553193,
				"z": -2.8111277417,
				"element": "C" 
			},
			{
				"x": 1.4019530732,
				"y": 2.3068050725,
				"z": -3.4017967482,
				"element": "C" 
			},
			{
				"x": 2.3555387815,
				"y": 2.9885355526,
				"z": -2.6453568297,
				"element": "C" 
			},
			{
				"x": 2.4636660409,
				"y": 2.6959138943,
				"z": -1.2859050354,
				"element": "C" 
			},
			{
				"x": 3.7713769319,
				"y": 3.6140999775,
				"z": -0.2341220152,
				"element": "Br" 
			},
			{
				"x": 1.6510628548,
				"y": 1.7489412958,
				"z": -0.6697777847,
				"element": "C" 
			},
			{
				"x": -1.4461984544,
				"y": -0.9202254394,
				"z": 0.7112913201,
				"element": "C" 
			},
			{
				"x": -2.2261590192,
				"y": -0.8422615523,
				"z": 1.7850569773,
				"element": "N" 
			},
			{
				"x": -2.3975819441,
				"y": 0.370018339,
				"z": 2.3296242282,
				"element": "C" 
			},
			{
				"x": -1.6487041891,
				"y": 2.8923736927,
				"z": 3.4656802891,
				"element": "H" 
			},
			{
				"x": -1.4220276052,
				"y": 3.6227786932,
				"z": 1.8611344149,
				"element": "H" 
			},
			{
				"x": -3.0445804268,
				"y": 3.1637292861,
				"z": 2.4221179209,
				"element": "H" 
			},
			{
				"x": -0.1771722489,
				"y": 0.8188598452,
				"z": -3.3862786736,
				"element": "H" 
			},
			{
				"x": 1.3073414546,
				"y": 2.5207445555,
				"z": -4.4620192258,
				"element": "H" 
			},
			{
				"x": 3.0028262404,
				"y": 3.7297850257,
				"z": -3.0986269456,
				"element": "H" 
			},
			{
				"x": 1.7493713408,
				"y": 1.532452681,
				"z": 0.3853258867,
				"element": "H" 
			},
			{
				"x": -1.2880656091,
				"y": -1.8903045441,
				"z": 0.2480387208,
				"element": "H" 
			},
			{
				"x": -3.0346048982,
				"y": 0.4292242101,
				"z": 3.2092000012,
				"element": "H" 
			}
		],
		 "valence_orbital": [ 
			{
				"type": "occ",
				"energy": -0.28869,
				"method": "rhf"
			},
			{
				"type": "occ",
				"energy": -0.26647,
				"method": "rhf"
			},
			{
				"type": "occ",
				"energy": -0.25679,
				"method": "rhf"
			},
			{
				"type": "occ",
				"energy": -0.2474,
				"method": "rhf"
			},
			{
				"type": "occ",
				"energy": -0.23707,
				"method": "rhf"
			},
			{
				"type": "unocc",
				"energy": -0.04786,
				"method": "rhf"
			},
			{
				"type": "unocc",
				"energy": -0.02295,
				"method": "rhf"
			},
			{
				"type": "unocc",
				"energy": -0.01704,
				"method": "rhf"
			},
			{
				"type": "unocc",
				"energy": -0.00658,
				"method": "rhf"
			},
			{
				"type": "unocc",
				"energy": 0.00434,
				"method": "rhf"
			}
		],
		"cosmo_sigma_profile": { 
			"-0.025": 0.0,
			"-0.024": 0.0,
			"-0.023": 0.0,
			"-0.022": 0.0,
			"-0.021": 0.0,
			"-0.02": 0.0,
			"-0.019": 0.0,
			"-0.018": 0.0,
			"-0.017": 0.0,
			"-0.016": 0.0,
			"-0.015": 0.0,
			"-0.014": 0.0,
			"-0.013": 0.0,
			"-0.012": 0.0,
			"-0.011": 0.0,
			"-0.01": 0.0,
			"-0.009": 0.0,
			"-0.008": 1.38584010466,
			"-0.007": 9.72453070141,
			"-0.006": 11.851936545,
			"-0.005": 16.912755965,
			"-0.004": 18.6644267936,
			"-0.003": 16.8413021173,
			"-0.002": 21.5582158647,
			"-0.001": 24.6747104495,
			"0.0": 20.9299808678,
			"0.001": 20.2942713058,
			"0.002": 24.3405165748,
			"0.003": 23.2859852931,
			"0.004": 18.4645249486,
			"0.005": 8.51864883382,
			"0.006": 4.4696569585,
			"0.007": 3.83417587593,
			"0.008": 2.57435555858,
			"0.009": 1.30081605916,
			"0.01": 1.75453872749,
			"0.011": 1.78849759062,
			"0.012": 1.39280979144,
			"0.013": 0.600234382898,
			"0.014": 0.882018125338,
			"0.015": 0.717815599059,
			"0.016": 0.0824870179844,
			"0.017": 0.0,
			"0.018": 0.0,
			"0.019": 0.0,
			"0.02": 0.0,
			"0.021": 0.0,
			"0.022": 0.0,
			"0.023": 0.0,
			"0.024": 0.0,
			"0.025": 0.0
		}
	}
}
