{
	 "smiles": "NC1=NC=C(C=C1)[N+]([O-])=O", 
	 "Tm": 461.15, 
	 "num_atms": 15, 
	 "gaussian": { 
		 "optdone": 1, 
		 "sigma_profile": "yes", 
		 "theory": "DFT", 
		 "functional": "B3LYP", 
		 "basiset": "6-31G**", 
		 "properties": { 
			 "R2extent": 1649.3873, 
			 "electric_dipole_moment_norm": 6.57499799163, 
			 "electric_quadrupole_moment_norm": 2.57869012097, 
			 "total_energy": -508.15290653, 
			 "HOMO_LUMO_gap": 0.16243, 
			 "cosmo_polarized_energy": -14.7, 
			 "cosmo_cavitation_energy": 20.29, 
			 "cosmo_dispersion_energy": -15.3, 
			 "cosmo_repulsion_energy": 1.25, 
			 "cosmo_total_nonelectrostatic_energy": 6.24, 
			 "SMD_solvation_energy": 4.55 
		},
		"coords": [
			{
				"x": 1.6721232325,
				"y": -0.1940329341,
				"z": -2.7198103694,
				"element": "N" 
			},
			{
				"x": 0.790380126,
				"y": 0.0052299432,
				"z": -1.7005281707,
				"element": "C" 
			},
			{
				"x": -0.3992171061,
				"y": 0.5380890172,
				"z": -2.048972431,
				"element": "N" 
			},
			{
				"x": -1.2826626369,
				"y": 0.7802911645,
				"z": -1.0845785392,
				"element": "C" 
			},
			{
				"x": -1.0295067462,
				"y": 0.5025999467,
				"z": 0.2593775501,
				"element": "C" 
			},
			{
				"x": 0.2008278306,
				"y": -0.0544397207,
				"z": 0.629159725,
				"element": "C" 
			},
			{
				"x": 1.1277994139,
				"y": -0.308234988,
				"z": -0.3596421731,
				"element": "C" 
			},
			{
				"x": -2.0358214208,
				"y": 0.7854971574,
				"z": 1.2662841002,
				"element": "N" 
			},
			{
				"x": -3.1038345846,
				"y": 1.2754304413,
				"z": 0.8910027374,
				"element": "O" 
			},
			{
				"x": -1.7619750406,
				"y": 0.5184426398,
				"z": 2.4396682709,
				"element": "O" 
			},
			{
				"x": 1.3206810761,
				"y": -0.0758028312,
				"z": -3.65755267,
				"element": "H" 
			},
			{
				"x": 2.4928389046,
				"y": -0.7607177309,
				"z": -2.5858184061,
				"element": "H" 
			},
			{
				"x": -2.2367197149,
				"y": 1.2093468707,
				"z": -1.3746960278,
				"element": "H" 
			},
			{
				"x": 0.3968596957,
				"y": -0.2716148733,
				"z": 1.6721996721,
				"element": "H" 
			},
			{
				"x": 2.0967269707,
				"y": -0.7350841027,
				"z": -0.1209932684,
				"element": "H" 
			}
		],
		 "valence_orbital": [ 
			{
				"type": "occ",
				"energy": -0.30505,
				"method": "rhf"
			},
			{
				"type": "occ",
				"energy": -0.29805,
				"method": "rhf"
			},
			{
				"type": "occ",
				"energy": -0.28282,
				"method": "rhf"
			},
			{
				"type": "occ",
				"energy": -0.27771,
				"method": "rhf"
			},
			{
				"type": "occ",
				"energy": -0.24127,
				"method": "rhf"
			},
			{
				"type": "unocc",
				"energy": -0.07884,
				"method": "rhf"
			},
			{
				"type": "unocc",
				"energy": -0.03903,
				"method": "rhf"
			},
			{
				"type": "unocc",
				"energy": 0.01193,
				"method": "rhf"
			},
			{
				"type": "unocc",
				"energy": 0.06197,
				"method": "rhf"
			},
			{
				"type": "unocc",
				"energy": 0.09223,
				"method": "rhf"
			}
		],
		"cosmo_sigma_profile": { 
			"-0.025": 0.0,
			"-0.024": 0.0,
			"-0.023": 0.0,
			"-0.022": 0.0,
			"-0.021": 0.0,
			"-0.02": 0.0,
			"-0.019": 0.0,
			"-0.018": 0.0,
			"-0.017": 0.0,
			"-0.016": 0.00652886711746,
			"-0.015": 1.08876180706,
			"-0.014": 2.75172328881,
			"-0.013": 2.48850307915,
			"-0.012": 2.1132762251,
			"-0.011": 3.17194064902,
			"-0.01": 2.49582060108,
			"-0.009": 2.79403633739,
			"-0.008": 3.72681393047,
			"-0.007": 5.59448872546,
			"-0.006": 6.25997151303,
			"-0.005": 6.57745416616,
			"-0.004": 6.13093259148,
			"-0.003": 8.01341087027,
			"-0.002": 9.48455886348,
			"-0.001": 13.8058416624,
			"0.0": 13.7303855136,
			"0.001": 11.7197385324,
			"0.002": 7.25862113719,
			"0.003": 5.45159065594,
			"0.004": 4.2253570618,
			"0.005": 4.81882016576,
			"0.006": 4.78654064404,
			"0.007": 5.99800514464,
			"0.008": 10.5962984924,
			"0.009": 7.2006667358,
			"0.01": 5.28687615055,
			"0.011": 2.93828784199,
			"0.012": 0.54487199193,
			"0.013": 0.797820722161,
			"0.014": 0.688957723083,
			"0.015": 0.0330704572439,
			"0.016": 0.0,
			"0.017": 0.0,
			"0.018": 0.0,
			"0.019": 0.0,
			"0.02": 0.0,
			"0.021": 0.0,
			"0.022": 0.0,
			"0.023": 0.0,
			"0.024": 0.0,
			"0.025": 0.0
		}
	}
}
