{
	 "smiles": "CCCCCCCCCCCCCCCCCCCCO", 
	 "Tm": 338.15, 
	 "num_atms": 63, 
	 "gaussian": { 
		 "optdone": 1, 
		 "sigma_profile": "yes", 
		 "theory": "DFT", 
		 "functional": "B3LYP", 
		 "basiset": "6-31G**", 
		 "properties": { 
			 "R2extent": 10018.3062, 
			 "electric_dipole_moment_norm": 1.70313293081, 
			 "electric_quadrupole_moment_norm": 8.87222137517, 
			 "total_energy": -862.706114674, 
			 "HOMO_LUMO_gap": 0.30735, 
			 "cosmo_polarized_energy": -6.47, 
			 "cosmo_cavitation_energy": 59.03, 
			 "cosmo_dispersion_energy": -35.34, 
			 "cosmo_repulsion_energy": 2.79, 
			 "cosmo_total_nonelectrostatic_energy": 26.48, 
			 "SMD_solvation_energy": 7.19 
		},
		"coords": [
			{
				"x": -1.2073967393,
				"y": -3.9024659157,
				"z": -3.2888501179,
				"element": "C" 
			},
			{
				"x": -2.5373420921,
				"y": -3.1474627966,
				"z": -3.4167543281,
				"element": "C" 
			},
			{
				"x": -2.6976323021,
				"y": -1.911782053,
				"z": -2.5054150398,
				"element": "C" 
			},
			{
				"x": -2.1389307286,
				"y": -0.5799215326,
				"z": -3.0456455131,
				"element": "C" 
			},
			{
				"x": -0.6136475326,
				"y": -0.4500332875,
				"z": -3.2043344546,
				"element": "C" 
			},
			{
				"x": 0.1971855888,
				"y": -0.6309569582,
				"z": -1.9127985042,
				"element": "C" 
			},
			{
				"x": 1.6868696416,
				"y": -0.3068328117,
				"z": -2.098950423,
				"element": "C" 
			},
			{
				"x": 2.5525666218,
				"y": -0.4536911695,
				"z": -0.8358882905,
				"element": "C" 
			},
			{
				"x": 2.7585614503,
				"y": -1.9021427661,
				"z": -0.3648874549,
				"element": "C" 
			},
			{
				"x": 3.7823707915,
				"y": -2.0489557008,
				"z": 0.7778200971,
				"element": "C" 
			},
			{
				"x": 3.3925580428,
				"y": -1.4897124315,
				"z": 2.1674634794,
				"element": "C" 
			},
			{
				"x": 2.6730772952,
				"y": -2.4787457554,
				"z": 3.1108598403,
				"element": "C" 
			},
			{
				"x": 1.1733167249,
				"y": -2.7626996437,
				"z": 2.862982109,
				"element": "C" 
			},
			{
				"x": 0.1909667797,
				"y": -1.8624075253,
				"z": 3.6336758154,
				"element": "C" 
			},
			{
				"x": 0.2074638514,
				"y": -0.3711691026,
				"z": 3.2690274819,
				"element": "C" 
			},
			{
				"x": -0.9002631222,
				"y": 0.4201891356,
				"z": 3.9796040018,
				"element": "C" 
			},
			{
				"x": -0.8899958501,
				"y": 1.9357398907,
				"z": 3.7120544779,
				"element": "C" 
			},
			{
				"x": -1.0276487363,
				"y": 2.3572844376,
				"z": 2.2381268181,
				"element": "C" 
			},
			{
				"x": -2.3089733873,
				"y": 1.868221907,
				"z": 1.5499895657,
				"element": "C" 
			},
			{
				"x": -2.4105298112,
				"y": 2.3285777083,
				"z": 0.0954936684,
				"element": "C" 
			},
			{
				"x": -3.5814378253,
				"y": 1.8540288725,
				"z": -0.5615603082,
				"element": "O" 
			},
			{
				"x": -1.2013729793,
				"y": -4.7927794007,
				"z": -3.9271220325,
				"element": "H" 
			},
			{
				"x": -0.3484427404,
				"y": -3.2890845411,
				"z": -3.574767532,
				"element": "H" 
			},
			{
				"x": -1.0456795962,
				"y": -4.2368306628,
				"z": -2.257362536,
				"element": "H" 
			},
			{
				"x": -2.6930271514,
				"y": -2.8461501727,
				"z": -4.4618583384,
				"element": "H" 
			},
			{
				"x": -3.347088829,
				"y": -3.8520600096,
				"z": -3.1876780442,
				"element": "H" 
			},
			{
				"x": -3.7711135541,
				"y": -1.7570698314,
				"z": -2.3334799764,
				"element": "H" 
			},
			{
				"x": -2.2695274519,
				"y": -2.1328647444,
				"z": -1.5175845509,
				"element": "H" 
			},
			{
				"x": -2.4881956399,
				"y": 0.2311843929,
				"z": -2.3916745265,
				"element": "H" 
			},
			{
				"x": -2.6053827505,
				"y": -0.3857553564,
				"z": -4.0213064077,
				"element": "H" 
			},
			{
				"x": -0.4041824493,
				"y": 0.5489728713,
				"z": -3.6112322173,
				"element": "H" 
			},
			{
				"x": -0.2506302661,
				"y": -1.1567360869,
				"z": -3.9617519778,
				"element": "H" 
			},
			{
				"x": -0.2155565926,
				"y": 0.0237569238,
				"z": -1.1303185009,
				"element": "H" 
			},
			{
				"x": 0.0823811975,
				"y": -1.6568881383,
				"z": -1.5429240839,
				"element": "H" 
			},
			{
				"x": 2.0998381096,
				"y": -0.945715081,
				"z": -2.8932146788,
				"element": "H" 
			},
			{
				"x": 1.7739138966,
				"y": 0.7241478783,
				"z": -2.4680862231,
				"element": "H" 
			},
			{
				"x": 3.5394307637,
				"y": -0.0142151901,
				"z": -1.0370111187,
				"element": "H" 
			},
			{
				"x": 2.1147696196,
				"y": 0.1489539781,
				"z": -0.027994757,
				"element": "H" 
			},
			{
				"x": 1.7988939598,
				"y": -2.3471158397,
				"z": -0.0782909028,
				"element": "H" 
			},
			{
				"x": 3.1172416922,
				"y": -2.4922864891,
				"z": -1.2200119112,
				"element": "H" 
			},
			{
				"x": 4.0423774193,
				"y": -3.1102817182,
				"z": 0.8902815638,
				"element": "H" 
			},
			{
				"x": 4.7068666034,
				"y": -1.5528949024,
				"z": 0.4517257353,
				"element": "H" 
			},
			{
				"x": 2.8059098083,
				"y": -0.5710512439,
				"z": 2.0536603871,
				"element": "H" 
			},
			{
				"x": 4.3182573445,
				"y": -1.184059921,
				"z": 2.6714838413,
				"element": "H" 
			},
			{
				"x": 2.7853847446,
				"y": -2.1211355063,
				"z": 4.144005372,
				"element": "H" 
			},
			{
				"x": 3.2245087203,
				"y": -3.4277315006,
				"z": 3.0712927872,
				"element": "H" 
			},
			{
				"x": 0.9641078454,
				"y": -3.7984556766,
				"z": 3.1592168915,
				"element": "H" 
			},
			{
				"x": 0.946922273,
				"y": -2.7125381988,
				"z": 1.791254706,
				"element": "H" 
			},
			{
				"x": -0.8259471612,
				"y": -2.2476414122,
				"z": 3.4730581752,
				"element": "H" 
			},
			{
				"x": 0.3835500702,
				"y": -1.9686524629,
				"z": 4.71121748,
				"element": "H" 
			},
			{
				"x": 1.1812433588,
				"y": 0.0682333135,
				"z": 3.5229545979,
				"element": "H" 
			},
			{
				"x": 0.1005583382,
				"y": -0.2688333227,
				"z": 2.1804447035,
				"element": "H" 
			},
			{
				"x": -1.8761528169,
				"y": -0.0002047943,
				"z": 3.7013476703,
				"element": "H" 
			},
			{
				"x": -0.8099171378,
				"y": 0.2619569909,
				"z": 5.0628736171,
				"element": "H" 
			},
			{
				"x": -1.7015572219,
				"y": 2.3978267702,
				"z": 4.2901901614,
				"element": "H" 
			},
			{
				"x": 0.0428832111,
				"y": 2.3600273199,
				"z": 4.1073534871,
				"element": "H" 
			},
			{
				"x": -0.991046048,
				"y": 3.4538346851,
				"z": 2.187152096,
				"element": "H" 
			},
			{
				"x": -0.1567562357,
				"y": 2.0039573629,
				"z": 1.6700477361,
				"element": "H" 
			},
			{
				"x": -2.3432460842,
				"y": 0.7692523557,
				"z": 1.5669526497,
				"element": "H" 
			},
			{
				"x": -3.1950037472,
				"y": 2.214930184,
				"z": 2.0972479731,
				"element": "H" 
			},
			{
				"x": -1.5020704598,
				"y": 2.0282986472,
				"z": -0.4524727063,
				"element": "H" 
			},
			{
				"x": -2.4670476557,
				"y": 3.4215099506,
				"z": 0.0446459628,
				"element": "H" 
			},
			{
				"x": -3.5864330679,
				"y": 0.8906260781,
				"z": -0.4889774925,
				"element": "H" 
			}
		],
		 "valence_orbital": [ 
			{
				"type": "occ",
				"energy": -0.30247,
				"method": "rhf"
			},
			{
				"type": "occ",
				"energy": -0.29713,
				"method": "rhf"
			},
			{
				"type": "occ",
				"energy": -0.29582,
				"method": "rhf"
			},
			{
				"type": "occ",
				"energy": -0.29547,
				"method": "rhf"
			},
			{
				"type": "occ",
				"energy": -0.26217,
				"method": "rhf"
			},
			{
				"type": "unocc",
				"energy": 0.04518,
				"method": "rhf"
			},
			{
				"type": "unocc",
				"energy": 0.06661,
				"method": "rhf"
			},
			{
				"type": "unocc",
				"energy": 0.08009,
				"method": "rhf"
			},
			{
				"type": "unocc",
				"energy": 0.08718,
				"method": "rhf"
			},
			{
				"type": "unocc",
				"energy": 0.091,
				"method": "rhf"
			}
		],
		"cosmo_sigma_profile": { 
			"-0.025": 0.0,
			"-0.024": 0.0,
			"-0.023": 0.0,
			"-0.022": 0.0,
			"-0.021": 0.0,
			"-0.02": 0.0,
			"-0.019": 0.0,
			"-0.018": 0.0,
			"-0.017": 0.0,
			"-0.016": 0.0,
			"-0.015": 0.0,
			"-0.014": 0.0,
			"-0.013": 0.0622197972785,
			"-0.012": 0.5690555911,
			"-0.011": 0.739037362944,
			"-0.01": 1.33247318278,
			"-0.009": 0.918274363771,
			"-0.008": 1.42270763635,
			"-0.007": 1.88056518493,
			"-0.006": 1.04178059698,
			"-0.005": 1.98448836207,
			"-0.004": 3.62322818828,
			"-0.003": 8.70025255205,
			"-0.002": 56.8502296176,
			"-0.001": 109.880481744,
			"0.0": 115.202401061,
			"0.001": 87.0656567706,
			"0.002": 37.8465390544,
			"0.003": 3.54683299664,
			"0.004": 2.19068384693,
			"0.005": 1.15200976305,
			"0.006": 1.71992155904,
			"0.007": 1.03753196292,
			"0.008": 1.54426670946,
			"0.009": 0.94377252903,
			"0.01": 1.6617799458,
			"0.011": 0.915775044159,
			"0.012": 0.984127854637,
			"0.013": 1.72302298554,
			"0.014": 2.14061952437,
			"0.015": 1.42954240057,
			"0.016": 0.0,
			"0.017": 0.0,
			"0.018": 0.0,
			"0.019": 0.0,
			"0.02": 0.0,
			"0.021": 0.0,
			"0.022": 0.0,
			"0.023": 0.0,
			"0.024": 0.0,
			"0.025": 0.0
		}
	}
}
