{
	 "smiles": "CC1=CC=C(C=C1)C1=CSC(=N1)C(=N/NC1=CC=C(Cl)C=C1)C#N", 
	 "Tm": 445.15, 
	 "num_atms": 37, 
	 "gaussian": { 
		 "optdone": 1, 
		 "sigma_profile": "yes", 
		 "theory": "DFT", 
		 "functional": "B3LYP", 
		 "basiset": "6-31G**", 
		 "properties": { 
			 "R2extent": 13738.3342, 
			 "electric_dipole_moment_norm": 6.5839797767, 
			 "electric_quadrupole_moment_norm": 13.4106743593, 
			 "total_energy": -1771.09942925, 
			 "HOMO_LUMO_gap": 0.12534, 
			 "cosmo_polarized_energy": -13.73, 
			 "cosmo_cavitation_energy": 47.37, 
			 "cosmo_dispersion_energy": -33.21, 
			 "cosmo_repulsion_energy": 2.46, 
			 "cosmo_total_nonelectrostatic_energy": 16.61, 
			 "SMD_solvation_energy": 7.51 
		},
		"coords": [
			{
				"x": 5.6517725509,
				"y": 1.7768938729,
				"z": 1.6027472291,
				"element": "C" 
			},
			{
				"x": 4.5064829225,
				"y": 1.0177555226,
				"z": 0.977073801,
				"element": "C" 
			},
			{
				"x": 4.6073787872,
				"y": 0.5036059958,
				"z": -0.3238911047,
				"element": "C" 
			},
			{
				"x": 3.5647813637,
				"y": -0.2168089842,
				"z": -0.898260229,
				"element": "C" 
			},
			{
				"x": 2.3775708831,
				"y": -0.4536794123,
				"z": -0.1866070712,
				"element": "C" 
			},
			{
				"x": 2.2696463064,
				"y": 0.064991727,
				"z": 1.1124823338,
				"element": "C" 
			},
			{
				"x": 3.3169049286,
				"y": 0.7872668833,
				"z": 1.679865605,
				"element": "C" 
			},
			{
				"x": 1.2719525561,
				"y": -1.2294951346,
				"z": -0.7782717106,
				"element": "C" 
			},
			{
				"x": 1.3828985882,
				"y": -2.1755532545,
				"z": -1.7703423312,
				"element": "C" 
			},
			{
				"x": -0.1528069849,
				"y": -2.8599302682,
				"z": -2.1645959036,
				"element": "S" 
			},
			{
				"x": -0.8827834616,
				"y": -1.8214425653,
				"z": -0.9463060633,
				"element": "C" 
			},
			{
				"x": -0.0187567492,
				"y": -1.0470629972,
				"z": -0.3240375744,
				"element": "N" 
			},
			{
				"x": -2.3151016053,
				"y": -1.8152194689,
				"z": -0.6801891557,
				"element": "C" 
			},
			{
				"x": -2.9463296497,
				"y": -1.0255153027,
				"z": 0.163740157,
				"element": "N" 
			},
			{
				"x": -2.2728103894,
				"y": -0.1389193846,
				"z": 0.8610269064,
				"element": "N" 
			},
			{
				"x": -2.9260308448,
				"y": 0.7210963364,
				"z": 1.7543258845,
				"element": "C" 
			},
			{
				"x": -2.1551851517,
				"y": 1.6712395897,
				"z": 2.4384270882,
				"element": "C" 
			},
			{
				"x": -2.7576755237,
				"y": 2.5450787816,
				"z": 3.3390715559,
				"element": "C" 
			},
			{
				"x": -4.1334275629,
				"y": 2.4667875597,
				"z": 3.5533870927,
				"element": "C" 
			},
			{
				"x": -4.8985869379,
				"y": 3.566905576,
				"z": 4.6887192735,
				"element": "Cl" 
			},
			{
				"x": -4.9092694112,
				"y": 1.5243673073,
				"z": 2.8752372675,
				"element": "C" 
			},
			{
				"x": -4.3085717557,
				"y": 0.6500892688,
				"z": 1.9752815765,
				"element": "C" 
			},
			{
				"x": -3.1399389985,
				"y": -2.7420349181,
				"z": -1.3983439382,
				"element": "C" 
			},
			{
				"x": -3.7662109002,
				"y": -3.511648736,
				"z": -2.0068529758,
				"element": "N" 
			},
			{
				"x": 6.1545783361,
				"y": 2.4175256993,
				"z": 0.8714072118,
				"element": "H" 
			},
			{
				"x": 6.4077898641,
				"y": 1.090927211,
				"z": 2.0050229371,
				"element": "H" 
			},
			{
				"x": 5.3108255733,
				"y": 2.4077218716,
				"z": 2.4285438961,
				"element": "H" 
			},
			{
				"x": 5.5121934694,
				"y": 0.6810628518,
				"z": -0.8999308793,
				"element": "H" 
			},
			{
				"x": 3.6631758131,
				"y": -0.5748006775,
				"z": -1.9190250358,
				"element": "H" 
			},
			{
				"x": 1.3640327687,
				"y": -0.1157426282,
				"z": 1.6822566108,
				"element": "H" 
			},
			{
				"x": 3.2102112863,
				"y": 1.1757972144,
				"z": 2.6896526186,
				"element": "H" 
			},
			{
				"x": 2.280722882,
				"y": -2.5249742775,
				"z": -2.2583185789,
				"element": "H" 
			},
			{
				"x": -1.2550817502,
				"y": -0.0841329817,
				"z": 0.7244524335,
				"element": "H" 
			},
			{
				"x": -1.084472826,
				"y": 1.7306761409,
				"z": 2.2629941081,
				"element": "H" 
			},
			{
				"x": -2.1644979569,
				"y": 3.2817959316,
				"z": 3.8689177674,
				"element": "H" 
			},
			{
				"x": -5.9780304297,
				"y": 1.4751847724,
				"z": 3.0516404819,
				"element": "H" 
			},
			{
				"x": -4.89634999,
				"y": -0.0868091225,
				"z": 1.4417987156,
				"element": "H" 
			}
		],
		 "valence_orbital": [ 
			{
				"type": "occ",
				"energy": -0.27547,
				"method": "rhf"
			},
			{
				"type": "occ",
				"energy": -0.27331,
				"method": "rhf"
			},
			{
				"type": "occ",
				"energy": -0.26389,
				"method": "rhf"
			},
			{
				"type": "occ",
				"energy": -0.23897,
				"method": "rhf"
			},
			{
				"type": "occ",
				"energy": -0.21289,
				"method": "rhf"
			},
			{
				"type": "unocc",
				"energy": -0.08755,
				"method": "rhf"
			},
			{
				"type": "unocc",
				"energy": -0.04377,
				"method": "rhf"
			},
			{
				"type": "unocc",
				"energy": -0.02376,
				"method": "rhf"
			},
			{
				"type": "unocc",
				"energy": -0.01722,
				"method": "rhf"
			},
			{
				"type": "unocc",
				"energy": -0.01013,
				"method": "rhf"
			}
		],
		"cosmo_sigma_profile": { 
			"-0.025": 0.0,
			"-0.024": 0.0,
			"-0.023": 0.0,
			"-0.022": 0.0,
			"-0.021": 0.0,
			"-0.02": 0.0,
			"-0.019": 0.0,
			"-0.018": 0.0,
			"-0.017": 0.0,
			"-0.016": 0.0,
			"-0.015": 0.0,
			"-0.014": 0.0,
			"-0.013": 0.0,
			"-0.012": 0.0,
			"-0.011": 0.0955747289024,
			"-0.01": 2.03141818501,
			"-0.009": 3.82851053997,
			"-0.008": 5.08857746215,
			"-0.007": 10.5710578923,
			"-0.006": 13.5290242386,
			"-0.005": 18.0457298464,
			"-0.004": 26.3516196209,
			"-0.003": 26.2437621959,
			"-0.002": 29.204692309,
			"-0.001": 33.1140462036,
			"0.0": 41.1004889033,
			"0.001": 39.6859442974,
			"0.002": 38.5932415438,
			"0.003": 32.5841590533,
			"0.004": 23.3434202196,
			"0.005": 20.7168647596,
			"0.006": 5.23636224943,
			"0.007": 3.07379835034,
			"0.008": 3.07631917168,
			"0.009": 3.03188738005,
			"0.01": 3.13238381016,
			"0.011": 2.32935343298,
			"0.012": 2.35047489837,
			"0.013": 0.671870420365,
			"0.014": 0.0,
			"0.015": 0.0,
			"0.016": 0.0,
			"0.017": 0.0,
			"0.018": 0.0,
			"0.019": 0.0,
			"0.02": 0.0,
			"0.021": 0.0,
			"0.022": 0.0,
			"0.023": 0.0,
			"0.024": 0.0,
			"0.025": 0.0
		}
	}
}
