{
	 "smiles": "CN(C)C1=CC=C(C=NC2=CC=CC=C2)C=C1", 
	 "Tm": 371.15, 
	 "num_atms": 33, 
	 "gaussian": { 
		 "optdone": 1, 
		 "sigma_profile": "yes", 
		 "theory": "DFT", 
		 "functional": "B3LYP", 
		 "basiset": "6-31G**", 
		 "properties": { 
			 "R2extent": 8332.1684, 
			 "electric_dipole_moment_norm": 4.56290778342, 
			 "electric_quadrupole_moment_norm": 17.9242577512, 
			 "total_energy": -690.731341068, 
			 "HOMO_LUMO_gap": 0.14639, 
			 "cosmo_polarized_energy": -10.83, 
			 "cosmo_cavitation_energy": 36.45, 
			 "cosmo_dispersion_energy": -26.6, 
			 "cosmo_repulsion_energy": 2.04, 
			 "cosmo_total_nonelectrostatic_energy": 11.88, 
			 "SMD_solvation_energy": 4.84 
		},
		"coords": [
			{
				"x": 4.7380198172,
				"y": -1.001211645,
				"z": -0.8013485041,
				"element": "C" 
			},
			{
				"x": 3.9167623439,
				"y": 0.0586183985,
				"z": -0.2402462703,
				"element": "N" 
			},
			{
				"x": 4.5386319576,
				"y": 1.3182485293,
				"z": 0.1306279919,
				"element": "C" 
			},
			{
				"x": 2.6088306305,
				"y": -0.1975642283,
				"z": 0.1225634672,
				"element": "C" 
			},
			{
				"x": 2.0058455079,
				"y": -1.4563710487,
				"z": -0.1395992929,
				"element": "C" 
			},
			{
				"x": 0.6911527645,
				"y": -1.7054170804,
				"z": 0.2123199632,
				"element": "C" 
			},
			{
				"x": -0.096880589,
				"y": -0.72551692,
				"z": 0.8444101178,
				"element": "C" 
			},
			{
				"x": -1.4834695964,
				"y": -0.9718460945,
				"z": 1.2222893107,
				"element": "C" 
			},
			{
				"x": -2.0901938277,
				"y": -2.0787592347,
				"z": 0.9825374314,
				"element": "N" 
			},
			{
				"x": -3.4061295235,
				"y": -2.2696888442,
				"z": 1.4328244734,
				"element": "C" 
			},
			{
				"x": -3.8719423816,
				"y": -1.8182086856,
				"z": 2.6819285628,
				"element": "C" 
			},
			{
				"x": -5.1868859134,
				"y": -2.064542858,
				"z": 3.0756708033,
				"element": "C" 
			},
			{
				"x": -6.0589578613,
				"y": -2.7606254106,
				"z": 2.2364058468,
				"element": "C" 
			},
			{
				"x": -5.5984870919,
				"y": -3.2263476426,
				"z": 1.0010136988,
				"element": "C" 
			},
			{
				"x": -4.2827012533,
				"y": -2.9973203638,
				"z": 0.6085187869,
				"element": "C" 
			},
			{
				"x": 0.4993084961,
				"y": 0.5172537702,
				"z": 1.110274032,
				"element": "C" 
			},
			{
				"x": 1.8170501999,
				"y": 0.7843073282,
				"z": 0.7661350988,
				"element": "C" 
			},
			{
				"x": 4.8672361136,
				"y": -1.8444212006,
				"z": -0.1072938988,
				"element": "H" 
			},
			{
				"x": 4.3073952486,
				"y": -1.3925139097,
				"z": -1.7313345052,
				"element": "H" 
			},
			{
				"x": 5.7255539473,
				"y": -0.6025316238,
				"z": -1.036457524,
				"element": "H" 
			},
			{
				"x": 4.584564452,
				"y": 1.4587534352,
				"z": 1.2206073701,
				"element": "H" 
			},
			{
				"x": 5.5577504485,
				"y": 1.3434331075,
				"z": -0.2568939335,
				"element": "H" 
			},
			{
				"x": 3.998790633,
				"y": 2.1724435847,
				"z": -0.296853165,
				"element": "H" 
			},
			{
				"x": 2.5746336018,
				"y": -2.2426553827,
				"z": -0.6205012426,
				"element": "H" 
			},
			{
				"x": 0.2425709637,
				"y": -2.6716703971,
				"z": 0.0048767792,
				"element": "H" 
			},
			{
				"x": -1.9936342081,
				"y": -0.1330343664,
				"z": 1.7216824484,
				"element": "H" 
			},
			{
				"x": -3.1893984052,
				"y": -1.3060785222,
				"z": 3.3537966138,
				"element": "H" 
			},
			{
				"x": -5.5285365311,
				"y": -1.7182743226,
				"z": 4.0475555705,
				"element": "H" 
			},
			{
				"x": -7.0816247425,
				"y": -2.9524855613,
				"z": 2.5476667173,
				"element": "H" 
			},
			{
				"x": -6.2661756314,
				"y": -3.7786329091,
				"z": 0.3452944599,
				"element": "H" 
			},
			{
				"x": -3.9085258353,
				"y": -3.3623023403,
				"z": -0.342892354,
				"element": "H" 
			},
			{
				"x": -0.0840035797,
				"y": 1.2928337695,
				"z": 1.6020316301,
				"element": "H" 
			},
			{
				"x": 2.2317498457,
				"y": 1.7572286691,
				"z": 0.9982895163,
				"element": "H" 
			}
		],
		 "valence_orbital": [ 
			{
				"type": "occ",
				"energy": -0.25591,
				"method": "rhf"
			},
			{
				"type": "occ",
				"energy": -0.24865,
				"method": "rhf"
			},
			{
				"type": "occ",
				"energy": -0.23871,
				"method": "rhf"
			},
			{
				"type": "occ",
				"energy": -0.21733,
				"method": "rhf"
			},
			{
				"type": "occ",
				"energy": -0.18669,
				"method": "rhf"
			},
			{
				"type": "unocc",
				"energy": -0.0403,
				"method": "rhf"
			},
			{
				"type": "unocc",
				"energy": 0.00344,
				"method": "rhf"
			},
			{
				"type": "unocc",
				"energy": 0.01102,
				"method": "rhf"
			},
			{
				"type": "unocc",
				"energy": 0.02654,
				"method": "rhf"
			},
			{
				"type": "unocc",
				"energy": 0.07043,
				"method": "rhf"
			}
		],
		"cosmo_sigma_profile": { 
			"-0.025": 0.0,
			"-0.024": 0.0,
			"-0.023": 0.0,
			"-0.022": 0.0,
			"-0.021": 0.0,
			"-0.02": 0.0,
			"-0.019": 0.0,
			"-0.018": 0.0,
			"-0.017": 0.0,
			"-0.016": 0.0,
			"-0.015": 0.0,
			"-0.014": 0.0,
			"-0.013": 0.0,
			"-0.012": 0.0,
			"-0.011": 0.0,
			"-0.01": 0.0,
			"-0.009": 0.0,
			"-0.008": 0.109488776065,
			"-0.007": 2.0942052048,
			"-0.006": 10.3263347028,
			"-0.005": 26.1721148889,
			"-0.004": 33.459879607,
			"-0.003": 30.7079691669,
			"-0.002": 29.2795352978,
			"-0.001": 21.3739209926,
			"0.0": 14.9990077067,
			"0.001": 15.0198212179,
			"0.002": 15.5865056039,
			"0.003": 16.1164341509,
			"0.004": 20.7764358221,
			"0.005": 23.7001153138,
			"0.006": 19.6610910414,
			"0.007": 3.51784764413,
			"0.008": 2.01991379216,
			"0.009": 1.5475369237,
			"0.01": 0.822250737333,
			"0.011": 1.3193715326,
			"0.012": 1.02047799456,
			"0.013": 0.616208930989,
			"0.014": 0.0290064509488,
			"0.015": 0.0,
			"0.016": 0.0,
			"0.017": 0.0,
			"0.018": 0.0,
			"0.019": 0.0,
			"0.02": 0.0,
			"0.021": 0.0,
			"0.022": 0.0,
			"0.023": 0.0,
			"0.024": 0.0,
			"0.025": 0.0
		}
	}
}
