{
	 "smiles": "[O-][N+](=O)C1=CC=CC=C1N1CCCCC1", 
	 "Tm": 351.15, 
	 "num_atms": 29, 
	 "gaussian": { 
		 "optdone": 1, 
		 "sigma_profile": "yes", 
		 "theory": "DFT", 
		 "functional": "B3LYP", 
		 "basiset": "6-31G**", 
		 "properties": { 
			 "R2extent": 3411.6052, 
			 "electric_dipole_moment_norm": 4.96612735539, 
			 "electric_quadrupole_moment_norm": 10.5146401779, 
			 "total_energy": -687.448687103, 
			 "HOMO_LUMO_gap": 0.13666, 
			 "cosmo_polarized_energy": -10.3, 
			 "cosmo_cavitation_energy": 30.25, 
			 "cosmo_dispersion_energy": -22.15, 
			 "cosmo_repulsion_energy": 1.71, 
			 "cosmo_total_nonelectrostatic_energy": 9.81, 
			 "SMD_solvation_energy": 6.31 
		},
		"coords": [
			{
				"x": 1.0475832948,
				"y": 0.3771854285,
				"z": 2.5340984704,
				"element": "O" 
			},
			{
				"x": 1.2118899504,
				"y": -0.2835386447,
				"z": 1.5036075934,
				"element": "N" 
			},
			{
				"x": 2.3200861381,
				"y": -0.5948542805,
				"z": 1.0560004168,
				"element": "O" 
			},
			{
				"x": 0.0226252032,
				"y": -0.7937436002,
				"z": 0.8224136921,
				"element": "C" 
			},
			{
				"x": -1.0455983724,
				"y": -1.124118113,
				"z": 1.6688918025,
				"element": "C" 
			},
			{
				"x": -2.1399528801,
				"y": -1.8222893973,
				"z": 1.1890605535,
				"element": "C" 
			},
			{
				"x": -2.1585981159,
				"y": -2.1871429173,
				"z": -0.1639743087,
				"element": "C" 
			},
			{
				"x": -1.1324495636,
				"y": -1.8188702153,
				"z": -1.0186402744,
				"element": "C" 
			},
			{
				"x": -0.0067605965,
				"y": -1.075107161,
				"z": -0.5737465522,
				"element": "C" 
			},
			{
				"x": 0.9388737419,
				"y": -0.6250928762,
				"z": -1.4686357762,
				"element": "N" 
			},
			{
				"x": 1.0771193183,
				"y": -1.2091382733,
				"z": -2.8017597711,
				"element": "C" 
			},
			{
				"x": 0.3805137915,
				"y": -0.3600452123,
				"z": -3.8883552943,
				"element": "C" 
			},
			{
				"x": 0.4610220491,
				"y": 1.1400115727,
				"z": -3.5201317878,
				"element": "C" 
			},
			{
				"x": 1.7054966424,
				"y": 1.4120098023,
				"z": -2.665628712,
				"element": "C" 
			},
			{
				"x": 1.6211605595,
				"y": 0.6677852432,
				"z": -1.3138562254,
				"element": "C" 
			},
			{
				"x": -0.9606098398,
				"y": -0.8495222442,
				"z": 2.7131730584,
				"element": "H" 
			},
			{
				"x": -2.9535710542,
				"y": -2.0942158487,
				"z": 1.8525195026,
				"element": "H" 
			},
			{
				"x": -3.0022405921,
				"y": -2.7415375923,
				"z": -0.5656979035,
				"element": "H" 
			},
			{
				"x": -1.2204409217,
				"y": -2.060099569,
				"z": -2.0707806708,
				"element": "H" 
			},
			{
				"x": 0.7219058023,
				"y": -2.2406324543,
				"z": -2.7909746103,
				"element": "H" 
			},
			{
				"x": 2.1519802873,
				"y": -1.2642765188,
				"z": -3.0146087362,
				"element": "H" 
			},
			{
				"x": -0.6660894096,
				"y": -0.6615032212,
				"z": -4.0071556711,
				"element": "H" 
			},
			{
				"x": 0.8743802493,
				"y": -0.5504661637,
				"z": -4.8488293225,
				"element": "H" 
			},
			{
				"x": 0.4646368336,
				"y": 1.7580525701,
				"z": -4.4237503194,
				"element": "H" 
			},
			{
				"x": -0.4296523436,
				"y": 1.427930475,
				"z": -2.9482815421,
				"element": "H" 
			},
			{
				"x": 1.8220214154,
				"y": 2.4817671833,
				"z": -2.4627440072,
				"element": "H" 
			},
			{
				"x": 2.6046175455,
				"y": 1.1052869343,
				"z": -3.2144588823,
				"element": "H" 
			},
			{
				"x": 2.6168370188,
				"y": 0.5399003473,
				"z": -0.8736413097,
				"element": "H" 
			},
			{
				"x": 1.0356138481,
				"y": 1.2691647465,
				"z": -0.6096134125,
				"element": "H" 
			}
		],
		 "valence_orbital": [ 
			{
				"type": "occ",
				"energy": -0.29164,
				"method": "rhf"
			},
			{
				"type": "occ",
				"energy": -0.2847,
				"method": "rhf"
			},
			{
				"type": "occ",
				"energy": -0.27967,
				"method": "rhf"
			},
			{
				"type": "occ",
				"energy": -0.2587,
				"method": "rhf"
			},
			{
				"type": "occ",
				"energy": -0.20494,
				"method": "rhf"
			},
			{
				"type": "unocc",
				"energy": -0.06828,
				"method": "rhf"
			},
			{
				"type": "unocc",
				"energy": -0.00719,
				"method": "rhf"
			},
			{
				"type": "unocc",
				"energy": 0.00691,
				"method": "rhf"
			},
			{
				"type": "unocc",
				"energy": 0.06887,
				"method": "rhf"
			},
			{
				"type": "unocc",
				"energy": 0.0846,
				"method": "rhf"
			}
		],
		"cosmo_sigma_profile": { 
			"-0.025": 0.0,
			"-0.024": 0.0,
			"-0.023": 0.0,
			"-0.022": 0.0,
			"-0.021": 0.0,
			"-0.02": 0.0,
			"-0.019": 0.0,
			"-0.018": 0.0,
			"-0.017": 0.0,
			"-0.016": 0.0,
			"-0.015": 0.0,
			"-0.014": 0.0,
			"-0.013": 0.0,
			"-0.012": 0.0,
			"-0.011": 0.0,
			"-0.01": 0.0,
			"-0.009": 0.0,
			"-0.008": 0.00369007853122,
			"-0.007": 2.99475013223,
			"-0.006": 9.66446579235,
			"-0.005": 14.8184600755,
			"-0.004": 21.6867790625,
			"-0.003": 29.613904148,
			"-0.002": 29.6968611374,
			"-0.001": 25.6096827773,
			"0.0": 20.8389486643,
			"0.001": 12.7931128351,
			"0.002": 11.1197377306,
			"0.003": 11.6612762437,
			"0.004": 10.6432442252,
			"0.005": 5.68495061523,
			"0.006": 3.21718268018,
			"0.007": 4.11337227386,
			"0.008": 6.44548850186,
			"0.009": 8.52938363805,
			"0.01": 5.53463163062,
			"0.011": 3.23032115958,
			"0.012": 0.33572027195,
			"0.013": 0.0,
			"0.014": 0.0,
			"0.015": 0.0,
			"0.016": 0.0,
			"0.017": 0.0,
			"0.018": 0.0,
			"0.019": 0.0,
			"0.02": 0.0,
			"0.021": 0.0,
			"0.022": 0.0,
			"0.023": 0.0,
			"0.024": 0.0,
			"0.025": 0.0
		}
	}
}
