{
	 "smiles": "OC(=O)C1=CC2=C(C=C1)N=CO2", 
	 "Tm": 516.15, 
	 "num_atms": 17, 
	 "gaussian": { 
		 "optdone": 1, 
		 "sigma_profile": "yes", 
		 "theory": "DFT", 
		 "functional": "B3LYP", 
		 "basiset": "6-31G**", 
		 "properties": { 
			 "R2extent": 2387.1309, 
			 "electric_dipole_moment_norm": 2.1274829024, 
			 "electric_quadrupole_moment_norm": 4.39213007776, 
			 "total_energy": -588.296714603, 
			 "HOMO_LUMO_gap": 0.19357, 
			 "cosmo_polarized_energy": -11.23, 
			 "cosmo_cavitation_energy": 22.42, 
			 "cosmo_dispersion_energy": -16.97, 
			 "cosmo_repulsion_energy": 1.32, 
			 "cosmo_total_nonelectrostatic_energy": 6.77, 
			 "SMD_solvation_energy": 4.14 
		},
		"coords": [
			{
				"x": 1.273269687,
				"y": 2.2311581007,
				"z": 1.4110118313,
				"element": "O" 
			},
			{
				"x": 2.0170149607,
				"y": 1.1009238685,
				"z": 1.2991014054,
				"element": "C" 
			},
			{
				"x": 3.0462989354,
				"y": 0.9423692085,
				"z": 1.9251999957,
				"element": "O" 
			},
			{
				"x": 1.4364453183,
				"y": 0.1149073109,
				"z": 0.3504224162,
				"element": "C" 
			},
			{
				"x": 0.239426446,
				"y": 0.3816956512,
				"z": -0.3312577046,
				"element": "C" 
			},
			{
				"x": -0.1931046843,
				"y": -0.6172570302,
				"z": -1.1846269217,
				"element": "C" 
			},
			{
				"x": 0.4852023661,
				"y": -1.8286906254,
				"z": -1.3858922739,
				"element": "C" 
			},
			{
				"x": 1.6777648426,
				"y": -2.0834866561,
				"z": -0.7006316535,
				"element": "C" 
			},
			{
				"x": 2.137984534,
				"y": -1.098021768,
				"z": 0.1644220118,
				"element": "C" 
			},
			{
				"x": -0.2308462032,
				"y": -2.5964188266,
				"z": -2.3075745946,
				"element": "N" 
			},
			{
				"x": -1.2463284495,
				"y": -1.8542833053,
				"z": -2.6002190477,
				"element": "C" 
			},
			{
				"x": -1.3177878727,
				"y": -0.6390307771,
				"z": -1.9761433799,
				"element": "O" 
			},
			{
				"x": 1.743164258,
				"y": 2.7932164802,
				"z": 2.0486358881,
				"element": "H" 
			},
			{
				"x": -0.3009142738,
				"y": 1.3091702354,
				"z": -0.1917264942,
				"element": "H" 
			},
			{
				"x": 2.2145246623,
				"y": -3.0146291665,
				"z": -0.8446954799,
				"element": "H" 
			},
			{
				"x": 3.0561837674,
				"y": -1.2354099802,
				"z": 0.7245504559,
				"element": "H" 
			},
			{
				"x": -2.0532982944,
				"y": -2.0786127198,
				"z": -3.2837764545,
				"element": "H" 
			}
		],
		 "valence_orbital": [ 
			{
				"type": "occ",
				"energy": -0.32251,
				"method": "rhf"
			},
			{
				"type": "occ",
				"energy": -0.30488,
				"method": "rhf"
			},
			{
				"type": "occ",
				"energy": -0.28169,
				"method": "rhf"
			},
			{
				"type": "occ",
				"energy": -0.2612,
				"method": "rhf"
			},
			{
				"type": "occ",
				"energy": -0.25514,
				"method": "rhf"
			},
			{
				"type": "unocc",
				"energy": -0.06157,
				"method": "rhf"
			},
			{
				"type": "unocc",
				"energy": -0.01647,
				"method": "rhf"
			},
			{
				"type": "unocc",
				"energy": 0.00899,
				"method": "rhf"
			},
			{
				"type": "unocc",
				"energy": 0.06729,
				"method": "rhf"
			},
			{
				"type": "unocc",
				"energy": 0.07367,
				"method": "rhf"
			}
		],
		"cosmo_sigma_profile": { 
			"-0.025": 0.0,
			"-0.024": 0.0,
			"-0.023": 0.0,
			"-0.022": 0.0,
			"-0.021": 0.0,
			"-0.02": 0.0,
			"-0.019": 0.133059519394,
			"-0.018": 0.925487337483,
			"-0.017": 1.22403370072,
			"-0.016": 0.377135426844,
			"-0.015": 0.396240141392,
			"-0.014": 0.981677534162,
			"-0.013": 0.547983433383,
			"-0.012": 2.35901906074,
			"-0.011": 2.80870225277,
			"-0.01": 2.17748161189,
			"-0.009": 2.18446803748,
			"-0.008": 2.84564500652,
			"-0.007": 5.52902989832,
			"-0.006": 6.5286429667,
			"-0.005": 7.77171679788,
			"-0.004": 7.232842078,
			"-0.003": 11.4719102336,
			"-0.002": 11.1622873989,
			"-0.001": 14.0778422525,
			"0.0": 16.1533866182,
			"0.001": 17.9270620376,
			"0.002": 16.2315357515,
			"0.003": 8.63701128238,
			"0.004": 4.43792754639,
			"0.005": 6.97617720776,
			"0.006": 5.68417692294,
			"0.007": 3.82294507619,
			"0.008": 2.92146972955,
			"0.009": 2.68195917377,
			"0.01": 2.98602670878,
			"0.011": 5.25196239261,
			"0.012": 3.95131799293,
			"0.013": 1.49566748895,
			"0.014": 0.782091107448,
			"0.015": 0.563502489283,
			"0.016": 0.0,
			"0.017": 0.0,
			"0.018": 0.0,
			"0.019": 0.0,
			"0.02": 0.0,
			"0.021": 0.0,
			"0.022": 0.0,
			"0.023": 0.0,
			"0.024": 0.0,
			"0.025": 0.0
		}
	}
}
