{
	 "smiles": "COC1=C2C(=O)CCC2=CC=C1", 
	 "Tm": 373.15, 
	 "num_atms": 22, 
	 "gaussian": { 
		 "optdone": 1, 
		 "sigma_profile": "yes", 
		 "theory": "DFT", 
		 "functional": "B3LYP", 
		 "basiset": "6-31G**", 
		 "properties": { 
			 "R2extent": 2293.4412, 
			 "electric_dipole_moment_norm": 2.98881400893, 
			 "electric_quadrupole_moment_norm": 7.12045883072, 
			 "total_energy": -537.530493967, 
			 "HOMO_LUMO_gap": 0.1783, 
			 "cosmo_polarized_energy": -8.47, 
			 "cosmo_cavitation_energy": 24.85, 
			 "cosmo_dispersion_energy": -18.67, 
			 "cosmo_repulsion_energy": 1.49, 
			 "cosmo_total_nonelectrostatic_energy": 7.66, 
			 "SMD_solvation_energy": 5.19 
		},
		"coords": [
			{
				"x": -3.6866012983,
				"y": 0.2646866573,
				"z": -1.0783000387,
				"element": "C" 
			},
			{
				"x": -3.4151213302,
				"y": -0.0359330173,
				"z": 0.2987475795,
				"element": "O" 
			},
			{
				"x": -2.1653211144,
				"y": 0.1522567566,
				"z": 0.7928301316,
				"element": "C" 
			},
			{
				"x": -0.9509936486,
				"y": -0.2731108671,
				"z": 0.1983707067,
				"element": "C" 
			},
			{
				"x": -0.6866893177,
				"y": -1.1052605547,
				"z": -1.0032495015,
				"element": "C" 
			},
			{
				"x": -1.4855388611,
				"y": -1.6316735947,
				"z": -1.7610370541,
				"element": "O" 
			},
			{
				"x": 0.8349237888,
				"y": -1.2594732009,
				"z": -1.1418451945,
				"element": "C" 
			},
			{
				"x": 1.457878896,
				"y": -0.5404077692,
				"z": 0.0681488177,
				"element": "C" 
			},
			{
				"x": 0.2727487655,
				"y": -0.0023990471,
				"z": 0.8459206417,
				"element": "C" 
			},
			{
				"x": 0.3209040946,
				"y": 0.6538872,
				"z": 2.0702346282,
				"element": "C" 
			},
			{
				"x": -0.8838147551,
				"y": 1.0378210682,
				"z": 2.6656389404,
				"element": "C" 
			},
			{
				"x": -2.10402346,
				"y": 0.795097006,
				"z": 2.0373372062,
				"element": "C" 
			},
			{
				"x": -3.308306186,
				"y": 1.2629343631,
				"z": -1.3311237927,
				"element": "H" 
			},
			{
				"x": -3.2465606124,
				"y": -0.4820910403,
				"z": -1.7395012346,
				"element": "H" 
			},
			{
				"x": -4.7747645186,
				"y": 0.262469772,
				"z": -1.1648654637,
				"element": "H" 
			},
			{
				"x": 1.0780435653,
				"y": -2.3254990003,
				"z": -1.1846911833,
				"element": "H" 
			},
			{
				"x": 1.1402135461,
				"y": -0.8308251917,
				"z": -2.1022223697,
				"element": "H" 
			},
			{
				"x": 2.0550784813,
				"y": -1.2172171866,
				"z": 0.689479946,
				"element": "H" 
			},
			{
				"x": 2.1266186704,
				"y": 0.2744812166,
				"z": -0.2328785501,
				"element": "H" 
			},
			{
				"x": 1.270193444,
				"y": 0.8509341221,
				"z": 2.5599492641,
				"element": "H" 
			},
			{
				"x": -0.874836521,
				"y": 1.5453509736,
				"z": 3.6264213007,
				"element": "H" 
			},
			{
				"x": -3.0392316287,
				"y": 1.1087713344,
				"z": 2.48883522,
				"element": "H" 
			}
		],
		 "valence_orbital": [ 
			{
				"type": "occ",
				"energy": -0.32723,
				"method": "rhf"
			},
			{
				"type": "occ",
				"energy": -0.2925,
				"method": "rhf"
			},
			{
				"type": "occ",
				"energy": -0.25639,
				"method": "rhf"
			},
			{
				"type": "occ",
				"energy": -0.24144,
				"method": "rhf"
			},
			{
				"type": "occ",
				"energy": -0.22951,
				"method": "rhf"
			},
			{
				"type": "unocc",
				"energy": -0.05121,
				"method": "rhf"
			},
			{
				"type": "unocc",
				"energy": -0.00561,
				"method": "rhf"
			},
			{
				"type": "unocc",
				"energy": 0.0456,
				"method": "rhf"
			},
			{
				"type": "unocc",
				"energy": 0.09515,
				"method": "rhf"
			},
			{
				"type": "unocc",
				"energy": 0.10094,
				"method": "rhf"
			}
		],
		"cosmo_sigma_profile": { 
			"-0.025": 0.0,
			"-0.024": 0.0,
			"-0.023": 0.0,
			"-0.022": 0.0,
			"-0.021": 0.0,
			"-0.02": 0.0,
			"-0.019": 0.0,
			"-0.018": 0.0,
			"-0.017": 0.0,
			"-0.016": 0.0,
			"-0.015": 0.0,
			"-0.014": 0.0,
			"-0.013": 0.0,
			"-0.012": 0.0,
			"-0.011": 0.0,
			"-0.01": 0.0,
			"-0.009": 0.0,
			"-0.008": 0.0,
			"-0.007": 0.770202838355,
			"-0.006": 8.4125155073,
			"-0.005": 18.5634026383,
			"-0.004": 24.371264547,
			"-0.003": 22.9923515375,
			"-0.002": 20.7199208111,
			"-0.001": 15.8371115797,
			"0.0": 10.2096780519,
			"0.001": 10.096776323,
			"0.002": 11.4500736157,
			"0.003": 13.1401884788,
			"0.004": 10.6969663685,
			"0.005": 5.44275780767,
			"0.006": 3.38368520913,
			"0.007": 3.82955739013,
			"0.008": 3.07363631468,
			"0.009": 3.16027118881,
			"0.01": 3.38310327594,
			"0.011": 3.48672553929,
			"0.012": 2.55584572067,
			"0.013": 1.64087011453,
			"0.014": 0.425253708073,
			"0.015": 0.0,
			"0.016": 0.0,
			"0.017": 0.0,
			"0.018": 0.0,
			"0.019": 0.0,
			"0.02": 0.0,
			"0.021": 0.0,
			"0.022": 0.0,
			"0.023": 0.0,
			"0.024": 0.0,
			"0.025": 0.0
		}
	}
}
