{
	 "smiles": "COC1=C(OCC2=C(Cl)C=CC=C2)C=CC(=C1)C(O)=O", 
	 "Tm": 417.15, 
	 "num_atms": 33, 
	 "gaussian": { 
		 "optdone": 1, 
		 "sigma_profile": "yes", 
		 "theory": "DFT", 
		 "functional": "B3LYP", 
		 "basiset": "6-31G**", 
		 "properties": { 
			 "R2extent": 7865.4602, 
			 "electric_dipole_moment_norm": 5.82158108249, 
			 "electric_quadrupole_moment_norm": 34.7487533028, 
			 "total_energy": -1340.50043969, 
			 "HOMO_LUMO_gap": 0.1943, 
			 "cosmo_polarized_energy": -18.32, 
			 "cosmo_cavitation_energy": 39.43, 
			 "cosmo_dispersion_energy": -27.61, 
			 "cosmo_repulsion_energy": 2.14, 
			 "cosmo_total_nonelectrostatic_energy": 13.95, 
			 "SMD_solvation_energy": 8.45 
		},
		"coords": [
			{
				"x": 2.9268626567,
				"y": -0.314375511,
				"z": 2.00784941,
				"element": "C" 
			},
			{
				"x": 1.5970884657,
				"y": 0.1779897643,
				"z": 2.2039980471,
				"element": "O" 
			},
			{
				"x": 1.1184490419,
				"y": 1.0114323211,
				"z": 1.2265697231,
				"element": "C" 
			},
			{
				"x": 0.7411260045,
				"y": 0.5058308172,
				"z": -0.0421125185,
				"element": "C" 
			},
			{
				"x": 0.9511281873,
				"y": -0.8298400884,
				"z": -0.2285351581,
				"element": "O" 
			},
			{
				"x": 0.6437731428,
				"y": -1.4174499421,
				"z": -1.490945899,
				"element": "C" 
			},
			{
				"x": -0.8331675316,
				"y": -1.7207796115,
				"z": -1.6639501584,
				"element": "C" 
			},
			{
				"x": -1.3826233095,
				"y": -2.0011534762,
				"z": -2.9216811864,
				"element": "C" 
			},
			{
				"x": -0.3545806828,
				"y": -1.9763020279,
				"z": -4.358140942,
				"element": "Cl" 
			},
			{
				"x": -2.7316233183,
				"y": -2.3131725545,
				"z": -3.0846194474,
				"element": "C" 
			},
			{
				"x": -3.562763248,
				"y": -2.3523533348,
				"z": -1.9657521345,
				"element": "C" 
			},
			{
				"x": -3.0390707733,
				"y": -2.0855804352,
				"z": -0.7002654932,
				"element": "C" 
			},
			{
				"x": -1.687607792,
				"y": -1.7766949015,
				"z": -0.5554907229,
				"element": "C" 
			},
			{
				"x": 0.1905007527,
				"y": 1.3716320772,
				"z": -0.9916517323,
				"element": "C" 
			},
			{
				"x": 0.0106236595,
				"y": 2.7217051979,
				"z": -0.686590828,
				"element": "C" 
			},
			{
				"x": 0.3687026749,
				"y": 3.2272232136,
				"z": 0.5671024431,
				"element": "C" 
			},
			{
				"x": 0.9396177772,
				"y": 2.3572769754,
				"z": 1.5092405594,
				"element": "C" 
			},
			{
				"x": 0.2155173852,
				"y": 4.6638781264,
				"z": 0.951841044,
				"element": "C" 
			},
			{
				"x": -0.6651415494,
				"y": 5.4031502996,
				"z": 0.2205534055,
				"element": "O" 
			},
			{
				"x": 0.8246868477,
				"y": 5.1809145543,
				"z": 1.8593762402,
				"element": "O" 
			},
			{
				"x": 3.6435759248,
				"y": 0.5138839574,
				"z": 1.9432556352,
				"element": "H" 
			},
			{
				"x": 3.1567838702,
				"y": -0.921717641,
				"z": 2.885210823,
				"element": "H" 
			},
			{
				"x": 2.9975070091,
				"y": -0.9323720344,
				"z": 1.1076417643,
				"element": "H" 
			},
			{
				"x": 1.018709972,
				"y": -0.7936881025,
				"z": -2.3089546987,
				"element": "H" 
			},
			{
				"x": 1.2202268068,
				"y": -2.3483246985,
				"z": -1.5080767902,
				"element": "H" 
			},
			{
				"x": -3.1176139157,
				"y": -2.5210885151,
				"z": -4.0764229826,
				"element": "H" 
			},
			{
				"x": -4.6143320897,
				"y": -2.5933575604,
				"z": -2.0876804875,
				"element": "H" 
			},
			{
				"x": -3.6803723933,
				"y": -2.1190103174,
				"z": 0.1750051888,
				"element": "H" 
			},
			{
				"x": -1.2733434365,
				"y": -1.5721873418,
				"z": 0.4259521922,
				"element": "H" 
			},
			{
				"x": -0.1140196171,
				"y": 1.0032101425,
				"z": -1.9634173607,
				"element": "H" 
			},
			{
				"x": -0.3846151628,
				"y": 3.3728250325,
				"z": -1.4621592589,
				"element": "H" 
			},
			{
				"x": 1.2351088169,
				"y": 2.7387218283,
				"z": 2.4800671814,
				"element": "H" 
			},
			{
				"x": -1.1982141758,
				"y": 4.8229737864,
				"z": -0.3400158581,
				"element": "H" 
			}
		],
		 "valence_orbital": [ 
			{
				"type": "occ",
				"energy": -0.27188,
				"method": "rhf"
			},
			{
				"type": "occ",
				"energy": -0.26823,
				"method": "rhf"
			},
			{
				"type": "occ",
				"energy": -0.25881,
				"method": "rhf"
			},
			{
				"type": "occ",
				"energy": -0.25654,
				"method": "rhf"
			},
			{
				"type": "occ",
				"energy": -0.23628,
				"method": "rhf"
			},
			{
				"type": "unocc",
				"energy": -0.04198,
				"method": "rhf"
			},
			{
				"type": "unocc",
				"energy": -0.02782,
				"method": "rhf"
			},
			{
				"type": "unocc",
				"energy": -0.0244,
				"method": "rhf"
			},
			{
				"type": "unocc",
				"energy": -0.0152,
				"method": "rhf"
			},
			{
				"type": "unocc",
				"energy": 0.01626,
				"method": "rhf"
			}
		],
		"cosmo_sigma_profile": { 
			"-0.025": 0.0,
			"-0.024": 0.0,
			"-0.023": 0.0,
			"-0.022": 0.0,
			"-0.021": 0.0,
			"-0.02": 0.0,
			"-0.019": 0.0545364331738,
			"-0.018": 0.689261928206,
			"-0.017": 0.942816020339,
			"-0.016": 1.14624986048,
			"-0.015": 1.26389739616,
			"-0.014": 0.298913559194,
			"-0.013": 0.762153462317,
			"-0.012": 1.68533109773,
			"-0.011": 1.50907056214,
			"-0.01": 0.776481420053,
			"-0.009": 1.58479974908,
			"-0.008": 2.63081384299,
			"-0.007": 10.1771694502,
			"-0.006": 16.8207749421,
			"-0.005": 20.2928823624,
			"-0.004": 21.2714562584,
			"-0.003": 23.0042269706,
			"-0.002": 24.6406127963,
			"-0.001": 22.0158167982,
			"0.0": 19.3633363633,
			"0.001": 24.9249030974,
			"0.002": 27.7987486313,
			"0.003": 26.4772074331,
			"0.004": 20.0112071268,
			"0.005": 8.26617817418,
			"0.006": 3.43869074721,
			"0.007": 4.57153545641,
			"0.008": 5.19859577543,
			"0.009": 4.47985405872,
			"0.01": 5.93807080567,
			"0.011": 7.31288873422,
			"0.012": 5.74471581182,
			"0.013": 2.1643457477,
			"0.014": 0.245681257627,
			"0.015": 0.0,
			"0.016": 0.0,
			"0.017": 0.0,
			"0.018": 0.0,
			"0.019": 0.0,
			"0.02": 0.0,
			"0.021": 0.0,
			"0.022": 0.0,
			"0.023": 0.0,
			"0.024": 0.0,
			"0.025": 0.0
		}
	}
}
