{
	 "smiles": "OC(C1=CC(C=C1)=C(C1=CC=CC=N1)C1=CC=CC=N1)(C1=CC=CC=N1)C1=CC=CC=N1", 
	 "Tm": 419.15, 
	 "num_atms": 52, 
	 "gaussian": { 
		 "optdone": 1, 
		 "sigma_profile": "yes", 
		 "theory": "DFT", 
		 "functional": "B3LYP", 
		 "basiset": "6-31G**", 
		 "properties": { 
			 "R2extent": 15029.587, 
			 "electric_dipole_moment_norm": 3.67161110958, 
			 "electric_quadrupole_moment_norm": 13.6005554225, 
			 "total_energy": -1335.09451971, 
			 "HOMO_LUMO_gap": 0.12969, 
			 "cosmo_polarized_energy": -18.26, 
			 "cosmo_cavitation_energy": 56.33, 
			 "cosmo_dispersion_energy": -37.44, 
			 "cosmo_repulsion_energy": 2.83, 
			 "cosmo_total_nonelectrostatic_energy": 21.72, 
			 "SMD_solvation_energy": 6.75 
		},
		"coords": [
			{
				"x": 3.4842322519,
				"y": -0.3453360363,
				"z": -1.8555321639,
				"element": "O" 
			},
			{
				"x": 2.8773458815,
				"y": -0.3327935264,
				"z": -0.5750856932,
				"element": "C" 
			},
			{
				"x": 1.4738178122,
				"y": -0.8948392232,
				"z": -0.7230353824,
				"element": "C" 
			},
			{
				"x": 0.3066296801,
				"y": -0.4828244277,
				"z": -0.1665672774,
				"element": "C" 
			},
			{
				"x": -0.7706497785,
				"y": -1.3731365797,
				"z": -0.6429354176,
				"element": "C" 
			},
			{
				"x": -0.1240222357,
				"y": -2.3430956545,
				"z": -1.5479739312,
				"element": "C" 
			},
			{
				"x": 1.1974946381,
				"y": -2.0624500629,
				"z": -1.5870507549,
				"element": "C" 
			},
			{
				"x": -2.0993147715,
				"y": -1.2607231002,
				"z": -0.3520568186,
				"element": "C" 
			},
			{
				"x": -2.5725762626,
				"y": -0.2069577562,
				"z": 0.6013590153,
				"element": "C" 
			},
			{
				"x": -2.0681153097,
				"y": -0.1723107397,
				"z": 1.9125223615,
				"element": "C" 
			},
			{
				"x": -2.5217394519,
				"y": 0.8110547422,
				"z": 2.7878744889,
				"element": "C" 
			},
			{
				"x": -3.4678100892,
				"y": 1.7305037494,
				"z": 2.3373326911,
				"element": "C" 
			},
			{
				"x": -3.9224682635,
				"y": 1.6109634619,
				"z": 1.0241865731,
				"element": "C" 
			},
			{
				"x": -3.4981324699,
				"y": 0.6707780695,
				"z": 0.1734545399,
				"element": "N" 
			},
			{
				"x": -3.1210265634,
				"y": -2.1880967102,
				"z": -0.9285291248,
				"element": "C" 
			},
			{
				"x": -4.339572299,
				"y": -1.7089937003,
				"z": -1.4418990316,
				"element": "C" 
			},
			{
				"x": -5.2538029027,
				"y": -2.618831565,
				"z": -1.9660631081,
				"element": "C" 
			},
			{
				"x": -4.940383411,
				"y": -3.9770587398,
				"z": -1.9605430238,
				"element": "C" 
			},
			{
				"x": -3.7087070544,
				"y": -4.3591655256,
				"z": -1.4281068582,
				"element": "C" 
			},
			{
				"x": -2.8169216091,
				"y": -3.5016706448,
				"z": -0.9230998875,
				"element": "N" 
			},
			{
				"x": 3.7123216542,
				"y": -1.2396712253,
				"z": 0.3653094892,
				"element": "C" 
			},
			{
				"x": 3.2774218403,
				"y": -1.641879495,
				"z": 1.6325310388,
				"element": "C" 
			},
			{
				"x": 4.1168636843,
				"y": -2.4503039723,
				"z": 2.3926067406,
				"element": "C" 
			},
			{
				"x": 5.3551466682,
				"y": -2.8341725624,
				"z": 1.87070401,
				"element": "C" 
			},
			{
				"x": 5.6993977555,
				"y": -2.3868472242,
				"z": 0.5990949752,
				"element": "C" 
			},
			{
				"x": 4.8954050833,
				"y": -1.6069384231,
				"z": -0.1365403316,
				"element": "N" 
			},
			{
				"x": 2.8667970268,
				"y": 1.1094538084,
				"z": -0.0237974126,
				"element": "C" 
			},
			{
				"x": 3.2534567252,
				"y": 2.1756234652,
				"z": -0.843197513,
				"element": "C" 
			},
			{
				"x": 3.2302739817,
				"y": 3.4651882164,
				"z": -0.316787353,
				"element": "C" 
			},
			{
				"x": 2.8236327032,
				"y": 3.6512177772,
				"z": 1.0042567346,
				"element": "C" 
			},
			{
				"x": 2.453509014,
				"y": 2.5256372785,
				"z": 1.7387760483,
				"element": "C" 
			},
			{
				"x": 2.4722989752,
				"y": 1.2811960208,
				"z": 1.2463052792,
				"element": "N" 
			},
			{
				"x": 4.362361806,
				"y": -0.7549473485,
				"z": -1.7054721851,
				"element": "H" 
			},
			{
				"x": 0.1727719421,
				"y": 0.3585589527,
				"z": 0.494839829,
				"element": "H" 
			},
			{
				"x": -0.6428567833,
				"y": -3.1374792867,
				"z": -2.0606709427,
				"element": "H" 
			},
			{
				"x": 1.9564012776,
				"y": -2.5721579143,
				"z": -2.1660889514,
				"element": "H" 
			},
			{
				"x": -1.3402608494,
				"y": -0.9111145286,
				"z": 2.227343038,
				"element": "H" 
			},
			{
				"x": -2.145381388,
				"y": 0.8541084195,
				"z": 3.8060137737,
				"element": "H" 
			},
			{
				"x": -3.8510164091,
				"y": 2.5139883392,
				"z": 2.983226795,
				"element": "H" 
			},
			{
				"x": -4.6651452746,
				"y": 2.3049388494,
				"z": 0.6339203014,
				"element": "H" 
			},
			{
				"x": -4.5412618419,
				"y": -0.645650337,
				"z": -1.4220234207,
				"element": "H" 
			},
			{
				"x": -6.1975559673,
				"y": -2.2687258551,
				"z": -2.375054109,
				"element": "H" 
			},
			{
				"x": -5.6257292261,
				"y": -4.7211581773,
				"z": -2.3541717718,
				"element": "H" 
			},
			{
				"x": -3.4239554,
				"y": -5.41005598,
				"z": -1.3998377201,
				"element": "H" 
			},
			{
				"x": 2.3113536529,
				"y": -1.3178787678,
				"z": 1.9963455019,
				"element": "H" 
			},
			{
				"x": 3.8091674279,
				"y": -2.7821785401,
				"z": 3.3801793949,
				"element": "H" 
			},
			{
				"x": 6.034103445,
				"y": -3.4676335054,
				"z": 2.4322465111,
				"element": "H" 
			},
			{
				"x": 6.6499406015,
				"y": -2.6610880923,
				"z": 0.1466040847,
				"element": "H" 
			},
			{
				"x": 3.5594266627,
				"y": 1.973375088,
				"z": -1.8613449667,
				"element": "H" 
			},
			{
				"x": 3.5258818067,
				"y": 4.3124768458,
				"z": -0.9295398472,
				"element": "H" 
			},
			{
				"x": 2.7932784286,
				"y": 4.6377820182,
				"z": 1.4559480547,
				"element": "H" 
			},
			{
				"x": 2.1289731851,
				"y": 2.6251201257,
				"z": 2.7736237283,
				"element": "H" 
			}
		],
		 "valence_orbital": [ 
			{
				"type": "occ",
				"energy": -0.24974,
				"method": "rhf"
			},
			{
				"type": "occ",
				"energy": -0.2463,
				"method": "rhf"
			},
			{
				"type": "occ",
				"energy": -0.24521,
				"method": "rhf"
			},
			{
				"type": "occ",
				"energy": -0.22054,
				"method": "rhf"
			},
			{
				"type": "occ",
				"energy": -0.19871,
				"method": "rhf"
			},
			{
				"type": "unocc",
				"energy": -0.06902,
				"method": "rhf"
			},
			{
				"type": "unocc",
				"energy": -0.02644,
				"method": "rhf"
			},
			{
				"type": "unocc",
				"energy": -0.02495,
				"method": "rhf"
			},
			{
				"type": "unocc",
				"energy": -0.02277,
				"method": "rhf"
			},
			{
				"type": "unocc",
				"energy": -0.0136,
				"method": "rhf"
			}
		],
		"cosmo_sigma_profile": { 
			"-0.025": 0.0,
			"-0.024": 0.0,
			"-0.023": 0.0,
			"-0.022": 0.0,
			"-0.021": 0.0,
			"-0.02": 0.0,
			"-0.019": 0.0,
			"-0.018": 0.0,
			"-0.017": 0.0,
			"-0.016": 0.0,
			"-0.015": 0.0,
			"-0.014": 0.0,
			"-0.013": 0.0,
			"-0.012": 0.0,
			"-0.011": 0.0,
			"-0.01": 0.0,
			"-0.009": 0.0,
			"-0.008": 0.76375664368,
			"-0.007": 17.970692894,
			"-0.006": 31.8532103179,
			"-0.005": 36.1122254981,
			"-0.004": 28.7451910202,
			"-0.003": 27.2825303349,
			"-0.002": 24.9782400018,
			"-0.001": 27.2438582419,
			"0.0": 35.7044518942,
			"0.001": 45.7629627726,
			"0.002": 61.9313674428,
			"0.003": 43.1293441508,
			"0.004": 17.3040991296,
			"0.005": 14.9972073797,
			"0.006": 11.4967319882,
			"0.007": 7.89086311233,
			"0.008": 4.92931207371,
			"0.009": 4.34377830428,
			"0.01": 3.36530462546,
			"0.011": 2.39380280755,
			"0.012": 2.81432976952,
			"0.013": 1.17399453094,
			"0.014": 1.44158654298,
			"0.015": 0.418717416289,
			"0.016": 0.0171768014884,
			"0.017": 0.0,
			"0.018": 0.0,
			"0.019": 0.0,
			"0.02": 0.0,
			"0.021": 0.0,
			"0.022": 0.0,
			"0.023": 0.0,
			"0.024": 0.0,
			"0.025": 0.0
		}
	}
}
