{
	 "smiles": "CCN(CC)C1=CC=C(C=C1)C(=O)C1=CC=C(C=C1)N(CC)CC", 
	 "Tm": 367.15, 
	 "num_atms": 52, 
	 "gaussian": { 
		 "optdone": 1, 
		 "sigma_profile": "yes", 
		 "theory": "DFT", 
		 "functional": "B3LYP", 
		 "basiset": "6-31G**", 
		 "properties": { 
			 "R2extent": 15089.3836, 
			 "electric_dipole_moment_norm": 5.21672394803, 
			 "electric_quadrupole_moment_norm": 36.4622240767, 
			 "total_energy": -1001.8541685, 
			 "HOMO_LUMO_gap": 0.15318, 
			 "cosmo_polarized_energy": -16.82, 
			 "cosmo_cavitation_energy": 52.22, 
			 "cosmo_dispersion_energy": -36.44, 
			 "cosmo_repulsion_energy": 2.77, 
			 "cosmo_total_nonelectrostatic_energy": 18.54, 
			 "SMD_solvation_energy": 8.82 
		},
		"coords": [
			{
				"x": 5.3518511251,
				"y": 3.5156476356,
				"z": -3.7860761392,
				"element": "C" 
			},
			{
				"x": 3.9395170209,
				"y": 3.5333677218,
				"z": -4.3862304173,
				"element": "C" 
			},
			{
				"x": 3.1220365932,
				"y": 2.3816758901,
				"z": -4.0137826056,
				"element": "N" 
			},
			{
				"x": 3.1606250139,
				"y": 1.2376569456,
				"z": -4.9200853929,
				"element": "C" 
			},
			{
				"x": 2.0731288923,
				"y": 1.2614557693,
				"z": -6.0029319122,
				"element": "C" 
			},
			{
				"x": 2.3536393804,
				"y": 2.3737695504,
				"z": -2.8626792346,
				"element": "C" 
			},
			{
				"x": 1.4561405384,
				"y": 1.3159022306,
				"z": -2.5760929459,
				"element": "C" 
			},
			{
				"x": 0.7035653893,
				"y": 1.3056125771,
				"z": -1.4081230341,
				"element": "C" 
			},
			{
				"x": 0.7842907774,
				"y": 2.3462079537,
				"z": -0.4691927342,
				"element": "C" 
			},
			{
				"x": 1.6464957242,
				"y": 3.4144850586,
				"z": -0.76984544,
				"element": "C" 
			},
			{
				"x": 2.422593575,
				"y": 3.4294670091,
				"z": -1.9164270287,
				"element": "C" 
			},
			{
				"x": -0.0479435015,
				"y": 2.4382067177,
				"z": 0.7652485918,
				"element": "C" 
			},
			{
				"x": -0.3014558281,
				"y": 3.5443641666,
				"z": 1.2480455722,
				"element": "O" 
			},
			{
				"x": -0.577036591,
				"y": 1.2083864159,
				"z": 1.4229306102,
				"element": "C" 
			},
			{
				"x": 0.0319333008,
				"y": -0.0548069147,
				"z": 1.3560791811,
				"element": "C" 
			},
			{
				"x": -0.4721268894,
				"y": -1.146257841,
				"z": 2.0526764289,
				"element": "C" 
			},
			{
				"x": -1.6371847175,
				"y": -1.0343545543,
				"z": 2.8507274928,
				"element": "C" 
			},
			{
				"x": -2.2423105319,
				"y": 0.2474290095,
				"z": 2.924725281,
				"element": "C" 
			},
			{
				"x": -1.7115045538,
				"y": 1.3297253737,
				"z": 2.2434539979,
				"element": "C" 
			},
			{
				"x": -2.1574634307,
				"y": -2.1212175476,
				"z": 3.5316355233,
				"element": "N" 
			},
			{
				"x": -3.2677050547,
				"y": -1.9823763502,
				"z": 4.4705073224,
				"element": "C" 
			},
			{
				"x": -4.6527422987,
				"y": -2.0932650003,
				"z": 3.8189386704,
				"element": "C" 
			},
			{
				"x": -1.624121384,
				"y": -3.4683079953,
				"z": 3.3512295503,
				"element": "C" 
			},
			{
				"x": -0.4611601345,
				"y": -3.8110916859,
				"z": 4.2923652456,
				"element": "C" 
			},
			{
				"x": 5.3166732593,
				"y": 3.5171523594,
				"z": -2.6930767298,
				"element": "H" 
			},
			{
				"x": 5.899518264,
				"y": 2.6216641101,
				"z": -4.1019876737,
				"element": "H" 
			},
			{
				"x": 5.9197268723,
				"y": 4.3934375561,
				"z": -4.1134077717,
				"element": "H" 
			},
			{
				"x": 4.0066693606,
				"y": 3.549987764,
				"z": -5.4799503285,
				"element": "H" 
			},
			{
				"x": 3.4174264143,
				"y": 4.4540241426,
				"z": -4.1074985504,
				"element": "H" 
			},
			{
				"x": 4.1486053542,
				"y": 1.2249560454,
				"z": -5.3944581704,
				"element": "H" 
			},
			{
				"x": 3.0990214175,
				"y": 0.3129469181,
				"z": -4.3374628294,
				"element": "H" 
			},
			{
				"x": 2.1590351304,
				"y": 2.1596167464,
				"z": -6.6231913742,
				"element": "H" 
			},
			{
				"x": 1.0733811023,
				"y": 1.2566621941,
				"z": -5.5597363238,
				"element": "H" 
			},
			{
				"x": 2.1638173723,
				"y": 0.388193012,
				"z": -6.6582680824,
				"element": "H" 
			},
			{
				"x": 1.3216451715,
				"y": 0.5051892424,
				"z": -3.281520069,
				"element": "H" 
			},
			{
				"x": 0.0093397375,
				"y": 0.4871550765,
				"z": -1.2481155323,
				"element": "H" 
			},
			{
				"x": 1.6986252233,
				"y": 4.2400550193,
				"z": -0.0672431319,
				"element": "H" 
			},
			{
				"x": 3.0961950644,
				"y": 4.2629084813,
				"z": -2.0738843154,
				"element": "H" 
			},
			{
				"x": 0.9431967856,
				"y": -0.1847853297,
				"z": 0.7815139317,
				"element": "H" 
			},
			{
				"x": 0.0637877928,
				"y": -2.0855790974,
				"z": 1.9940686948,
				"element": "H" 
			},
			{
				"x": -3.1408424194,
				"y": 0.3957480023,
				"z": 3.511068271,
				"element": "H" 
			},
			{
				"x": -2.1769876929,
				"y": 2.3065427921,
				"z": 2.3276600844,
				"element": "H" 
			},
			{
				"x": -3.1568299554,
				"y": -2.7644648244,
				"z": 5.2301671486,
				"element": "H" 
			},
			{
				"x": -3.1726203945,
				"y": -1.0329791294,
				"z": 5.0066925373,
				"element": "H" 
			},
			{
				"x": -4.7995228776,
				"y": -1.3123359649,
				"z": 3.0676084633,
				"element": "H" 
			},
			{
				"x": -5.4413060407,
				"y": -1.9976765938,
				"z": 4.5733778233,
				"element": "H" 
			},
			{
				"x": -4.7749309129,
				"y": -3.0618307141,
				"z": 3.3230744937,
				"element": "H" 
			},
			{
				"x": -2.4466830417,
				"y": -4.174037805,
				"z": 3.5144050456,
				"element": "H" 
			},
			{
				"x": -1.3221887851,
				"y": -3.6003945308,
				"z": 2.3073388064,
				"element": "H" 
			},
			{
				"x": -0.7695341315,
				"y": -3.7304621991,
				"z": 5.3398377434,
				"element": "H" 
			},
			{
				"x": -0.1159902384,
				"y": -4.8364194578,
				"z": 4.1196318985,
				"element": "H" 
			},
			{
				"x": 0.3836097527,
				"y": -3.1334559516,
				"z": 4.1403593578,
				"element": "H" 
			}
		],
		 "valence_orbital": [ 
			{
				"type": "occ",
				"energy": -0.24214,
				"method": "rhf"
			},
			{
				"type": "occ",
				"energy": -0.24015,
				"method": "rhf"
			},
			{
				"type": "occ",
				"energy": -0.22041,
				"method": "rhf"
			},
			{
				"type": "occ",
				"energy": -0.18761,
				"method": "rhf"
			},
			{
				"type": "occ",
				"energy": -0.18433,
				"method": "rhf"
			},
			{
				"type": "unocc",
				"energy": -0.03115,
				"method": "rhf"
			},
			{
				"type": "unocc",
				"energy": 0.00486,
				"method": "rhf"
			},
			{
				"type": "unocc",
				"energy": 0.01136,
				"method": "rhf"
			},
			{
				"type": "unocc",
				"energy": 0.02242,
				"method": "rhf"
			},
			{
				"type": "unocc",
				"energy": 0.07446,
				"method": "rhf"
			}
		],
		"cosmo_sigma_profile": { 
			"-0.025": 0.0,
			"-0.024": 0.0,
			"-0.023": 0.0,
			"-0.022": 0.0,
			"-0.021": 0.0,
			"-0.02": 0.0,
			"-0.019": 0.0,
			"-0.018": 0.0,
			"-0.017": 0.0,
			"-0.016": 0.0,
			"-0.015": 0.0,
			"-0.014": 0.0,
			"-0.013": 0.0,
			"-0.012": 0.0,
			"-0.011": 0.0,
			"-0.01": 0.0,
			"-0.009": 0.0,
			"-0.008": 0.0,
			"-0.007": 0.0168156445693,
			"-0.006": 5.290908062,
			"-0.005": 22.5700868683,
			"-0.004": 42.6280782936,
			"-0.003": 54.8630119452,
			"-0.002": 53.3789818544,
			"-0.001": 41.9921862735,
			"0.0": 39.0484616215,
			"0.001": 40.5746647539,
			"0.002": 19.0880354677,
			"0.003": 17.6709365488,
			"0.004": 17.6028447506,
			"0.005": 17.6228234447,
			"0.006": 18.0977213579,
			"0.007": 2.24857374746,
			"0.008": 1.86678372791,
			"0.009": 1.82381111915,
			"0.01": 2.37687875209,
			"0.011": 1.81628060746,
			"0.012": 1.75713992011,
			"0.013": 3.48012271168,
			"0.014": 4.31399700101,
			"0.015": 0.50314171134,
			"0.016": 0.0,
			"0.017": 0.0,
			"0.018": 0.0,
			"0.019": 0.0,
			"0.02": 0.0,
			"0.021": 0.0,
			"0.022": 0.0,
			"0.023": 0.0,
			"0.024": 0.0,
			"0.025": 0.0
		}
	}
}
