{
	 "smiles": "COC1=CC(=C(O)C=C1)[N+]([O-])=O", 
	 "Tm": 352.15, 
	 "num_atms": 19, 
	 "gaussian": { 
		 "optdone": 1, 
		 "sigma_profile": "yes", 
		 "theory": "DFT", 
		 "functional": "B3LYP", 
		 "basiset": "6-31G**", 
		 "properties": { 
			 "R2extent": 2305.9806, 
			 "electric_dipole_moment_norm": 5.08034960805, 
			 "electric_quadrupole_moment_norm": 19.024241034, 
			 "total_energy": -626.48157385, 
			 "HOMO_LUMO_gap": 0.14649, 
			 "cosmo_polarized_energy": -16.17, 
			 "cosmo_cavitation_energy": 23.98, 
			 "cosmo_dispersion_energy": -17.87, 
			 "cosmo_repulsion_energy": 1.43, 
			 "cosmo_total_nonelectrostatic_energy": 7.54, 
			 "SMD_solvation_energy": 7.6 
		},
		"coords": [
			{
				"x": -2.7090433575,
				"y": 0.8655331392,
				"z": 0.8732335288,
				"element": "C" 
			},
			{
				"x": -2.2430575712,
				"y": -0.3265796366,
				"z": 0.2557494053,
				"element": "O" 
			},
			{
				"x": -0.9035154373,
				"y": -0.4498012018,
				"z": 0.0388657859,
				"element": "C" 
			},
			{
				"x": 0.0496700493,
				"y": 0.5032208171,
				"z": 0.3755873552,
				"element": "C" 
			},
			{
				"x": 1.4079853332,
				"y": 0.2757218982,
				"z": 0.1072215609,
				"element": "C" 
			},
			{
				"x": 1.8436140536,
				"y": -0.9139872442,
				"z": -0.5056641515,
				"element": "C" 
			},
			{
				"x": 3.1504850127,
				"y": -1.1483855059,
				"z": -0.7709038628,
				"element": "O" 
			},
			{
				"x": 0.8561555372,
				"y": -1.8613923253,
				"z": -0.835567596,
				"element": "C" 
			},
			{
				"x": -0.4848330349,
				"y": -1.6433494382,
				"z": -0.5738354959,
				"element": "C" 
			},
			{
				"x": 2.3361443899,
				"y": 1.3428716169,
				"z": 0.5005886751,
				"element": "N" 
			},
			{
				"x": 3.5346851259,
				"y": 1.1884949054,
				"z": 0.283515446,
				"element": "O" 
			},
			{
				"x": 1.8505497491,
				"y": 2.3464928473,
				"z": 1.0336931667,
				"element": "O" 
			},
			{
				"x": -2.4734888382,
				"y": 1.7507138554,
				"z": 0.2689690663,
				"element": "H" 
			},
			{
				"x": -3.791743197,
				"y": 0.759884737,
				"z": 0.9515023109,
				"element": "H" 
			},
			{
				"x": -2.2832637079,
				"y": 0.9923308548,
				"z": 1.8766296759,
				"element": "H" 
			},
			{
				"x": -0.2036273569,
				"y": 1.4410572814,
				"z": 0.8482989048,
				"element": "H" 
			},
			{
				"x": 3.2246907111,
				"y": -2.0172930349,
				"z": -1.1892495662,
				"element": "H" 
			},
			{
				"x": 1.1646134826,
				"y": -2.7903031219,
				"z": -1.3102893685,
				"element": "H" 
			},
			{
				"x": -1.2311209436,
				"y": -2.3859304439,
				"z": -0.8357448409,
				"element": "H" 
			}
		],
		 "valence_orbital": [ 
			{
				"type": "occ",
				"energy": -0.29584,
				"method": "rhf"
			},
			{
				"type": "occ",
				"energy": -0.29463,
				"method": "rhf"
			},
			{
				"type": "occ",
				"energy": -0.28102,
				"method": "rhf"
			},
			{
				"type": "occ",
				"energy": -0.27481,
				"method": "rhf"
			},
			{
				"type": "occ",
				"energy": -0.22535,
				"method": "rhf"
			},
			{
				"type": "unocc",
				"energy": -0.07886,
				"method": "rhf"
			},
			{
				"type": "unocc",
				"energy": -0.00927,
				"method": "rhf"
			},
			{
				"type": "unocc",
				"energy": 0.01254,
				"method": "rhf"
			},
			{
				"type": "unocc",
				"energy": 0.05295,
				"method": "rhf"
			},
			{
				"type": "unocc",
				"energy": 0.07635,
				"method": "rhf"
			}
		],
		"cosmo_sigma_profile": { 
			"-0.025": 0.0,
			"-0.024": 0.0,
			"-0.023": 0.0,
			"-0.022": 0.0,
			"-0.021": 0.0,
			"-0.02": 0.0143453674927,
			"-0.019": 0.72849430396,
			"-0.018": 1.34889210917,
			"-0.017": 1.12895389541,
			"-0.016": 1.10659314177,
			"-0.015": 1.1538378404,
			"-0.014": 0.84948812605,
			"-0.013": 0.588557238038,
			"-0.012": 1.40091685958,
			"-0.011": 1.20681344072,
			"-0.01": 0.880605698648,
			"-0.009": 1.58568457087,
			"-0.008": 2.44430833655,
			"-0.007": 6.14740436478,
			"-0.006": 11.2907537855,
			"-0.005": 13.2220607076,
			"-0.004": 12.9092086284,
			"-0.003": 12.5962301886,
			"-0.002": 9.8800943874,
			"-0.001": 9.31546227547,
			"0.0": 13.8811582059,
			"0.001": 15.6478232969,
			"0.002": 13.4116279958,
			"0.003": 6.9823148333,
			"0.004": 3.95027336194,
			"0.005": 4.0679915091,
			"0.006": 5.95042015088,
			"0.007": 5.50669975496,
			"0.008": 10.3331779516,
			"0.009": 8.84186542371,
			"0.01": 6.17702235533,
			"0.011": 3.66059997252,
			"0.012": 1.64006892182,
			"0.013": 1.20482375867,
			"0.014": 0.345798791152,
			"0.015": 0.0,
			"0.016": 0.0,
			"0.017": 0.0,
			"0.018": 0.0,
			"0.019": 0.0,
			"0.02": 0.0,
			"0.021": 0.0,
			"0.022": 0.0,
			"0.023": 0.0,
			"0.024": 0.0,
			"0.025": 0.0
		}
	}
}
