{
	 "smiles": "CC1=CC(Cl)=C(NC(=O)NN)C=C1", 
	 "Tm": 406.15, 
	 "num_atms": 23, 
	 "gaussian": { 
		 "optdone": 1, 
		 "sigma_profile": "yes", 
		 "theory": "DFT", 
		 "functional": "B3LYP", 
		 "basiset": "6-31G**", 
		 "properties": { 
			 "R2extent": 3369.8878, 
			 "electric_dipole_moment_norm": 3.50720746321, 
			 "electric_quadrupole_moment_norm": 8.30842885268, 
			 "total_energy": -1010.54094684, 
			 "HOMO_LUMO_gap": 0.21456, 
			 "cosmo_polarized_energy": -17.2, 
			 "cosmo_cavitation_energy": 29.13, 
			 "cosmo_dispersion_energy": -21.05, 
			 "cosmo_repulsion_energy": 1.7, 
			 "cosmo_total_nonelectrostatic_energy": 9.78, 
			 "SMD_solvation_energy": 5.82 
		},
		"coords": [
			{
				"x": 4.0654760854,
				"y": -0.6297510337,
				"z": -0.5709962298,
				"element": "C" 
			},
			{
				"x": 2.6415061924,
				"y": -0.1740004054,
				"z": -0.3569543136,
				"element": "C" 
			},
			{
				"x": 1.6416475168,
				"y": -1.0932730356,
				"z": -0.0208164983,
				"element": "C" 
			},
			{
				"x": 0.3204064636,
				"y": -0.6869506423,
				"z": 0.1586674561,
				"element": "C" 
			},
			{
				"x": -0.8559825292,
				"y": -1.8806193837,
				"z": 0.6689446724,
				"element": "Cl" 
			},
			{
				"x": -0.0525097864,
				"y": 0.6542719073,
				"z": -0.0243785824,
				"element": "C" 
			},
			{
				"x": -1.3819359144,
				"y": 1.0996094731,
				"z": 0.177191219,
				"element": "N" 
			},
			{
				"x": -2.4229245866,
				"y": 0.7320182962,
				"z": -0.6774277527,
				"element": "C" 
			},
			{
				"x": -2.3039367836,
				"y": -0.0178777295,
				"z": -1.6308511473,
				"element": "O" 
			},
			{
				"x": -3.6312368678,
				"y": 1.3284364007,
				"z": -0.3210434905,
				"element": "N" 
			},
			{
				"x": -4.7984203309,
				"y": 0.9036954591,
				"z": -1.0020059965,
				"element": "N" 
			},
			{
				"x": 0.9532357602,
				"y": 1.5699969488,
				"z": -0.3546797023,
				"element": "C" 
			},
			{
				"x": 2.2775166718,
				"y": 1.1696265367,
				"z": -0.5062691717,
				"element": "C" 
			},
			{
				"x": 4.3085749728,
				"y": -1.4935202379,
				"z": 0.0548355344,
				"element": "H" 
			},
			{
				"x": 4.7781255681,
				"y": 0.1675884895,
				"z": -0.3405697253,
				"element": "H" 
			},
			{
				"x": 4.2322467664,
				"y": -0.9259281037,
				"z": -1.6140692642,
				"element": "H" 
			},
			{
				"x": 1.8895307652,
				"y": -2.1399243183,
				"z": 0.1236330135,
				"element": "H" 
			},
			{
				"x": -1.4756873667,
				"y": 2.008620196,
				"z": 0.6101860056,
				"element": "H" 
			},
			{
				"x": -3.7919378868,
				"y": 1.4321200768,
				"z": 0.6734532514,
				"element": "H" 
			},
			{
				"x": -4.6182568955,
				"y": -0.0411238546,
				"z": -1.3465232411,
				"element": "H" 
			},
			{
				"x": -4.8870429084,
				"y": 1.4853090886,
				"z": -1.8332354992,
				"element": "H" 
			},
			{
				"x": 0.6797007499,
				"y": 2.6116806504,
				"z": -0.50058099,
				"element": "H" 
			},
			{
				"x": 3.0334043439,
				"y": 1.9084952218,
				"z": -0.7578095477,
				"element": "H" 
			}
		],
		 "valence_orbital": [ 
			{
				"type": "occ",
				"energy": -0.28317,
				"method": "rhf"
			},
			{
				"type": "occ",
				"energy": -0.26924,
				"method": "rhf"
			},
			{
				"type": "occ",
				"energy": -0.25404,
				"method": "rhf"
			},
			{
				"type": "occ",
				"energy": -0.24895,
				"method": "rhf"
			},
			{
				"type": "occ",
				"energy": -0.22905,
				"method": "rhf"
			},
			{
				"type": "unocc",
				"energy": -0.01449,
				"method": "rhf"
			},
			{
				"type": "unocc",
				"energy": -0.01122,
				"method": "rhf"
			},
			{
				"type": "unocc",
				"energy": 0.03566,
				"method": "rhf"
			},
			{
				"type": "unocc",
				"energy": 0.04564,
				"method": "rhf"
			},
			{
				"type": "unocc",
				"energy": 0.07361,
				"method": "rhf"
			}
		],
		"cosmo_sigma_profile": { 
			"-0.025": 0.0,
			"-0.024": 0.0,
			"-0.023": 0.0,
			"-0.022": 0.0,
			"-0.021": 0.0,
			"-0.02": 0.0,
			"-0.019": 0.0,
			"-0.018": 0.0,
			"-0.017": 0.0,
			"-0.016": 0.0,
			"-0.015": 0.824081750356,
			"-0.014": 2.62850411246,
			"-0.013": 3.26379497483,
			"-0.012": 2.29630497322,
			"-0.011": 2.60876959925,
			"-0.01": 3.65988572406,
			"-0.009": 4.52054022064,
			"-0.008": 4.783695975,
			"-0.007": 5.46928303893,
			"-0.006": 8.21408136215,
			"-0.005": 11.0346627589,
			"-0.004": 16.9709312095,
			"-0.003": 12.0339439313,
			"-0.002": 14.5945075004,
			"-0.001": 17.1494806361,
			"0.0": 15.85098402,
			"0.001": 13.3792051815,
			"0.002": 13.753359208,
			"0.003": 16.6804207637,
			"0.004": 18.9505356571,
			"0.005": 11.0143057823,
			"0.006": 4.09882164004,
			"0.007": 4.21968901505,
			"0.008": 4.03306364594,
			"0.009": 2.44739518588,
			"0.01": 1.84526373306,
			"0.011": 3.58149586473,
			"0.012": 3.32089691035,
			"0.013": 5.5199761687,
			"0.014": 2.10675235789,
			"0.015": 0.464491303429,
			"0.016": 0.763270974486,
			"0.017": 0.371838360689,
			"0.018": 0.0,
			"0.019": 0.0,
			"0.02": 0.0,
			"0.021": 0.0,
			"0.022": 0.0,
			"0.023": 0.0,
			"0.024": 0.0,
			"0.025": 0.0
		}
	}
}
