{
	 "smiles": "CCOC1=C(NC2=NCCS2)C=CC=C1", 
	 "Tm": 329.15, 
	 "num_atms": 29, 
	 "gaussian": { 
		 "optdone": 1, 
		 "sigma_profile": "yes", 
		 "theory": "DFT", 
		 "functional": "B3LYP", 
		 "basiset": "6-31G**", 
		 "properties": { 
			 "R2extent": 3911.8642, 
			 "electric_dipole_moment_norm": 1.5426490236, 
			 "electric_quadrupole_moment_norm": 9.42595832953, 
			 "total_energy": -1010.50712323, 
			 "HOMO_LUMO_gap": 0.19942, 
			 "cosmo_polarized_energy": -11.54, 
			 "cosmo_cavitation_energy": 33.51, 
			 "cosmo_dispersion_energy": -23.44, 
			 "cosmo_repulsion_energy": 1.82, 
			 "cosmo_total_nonelectrostatic_energy": 11.89, 
			 "SMD_solvation_energy": 2.33 
		},
		"coords": [
			{
				"x": 0.9538986523,
				"y": 2.6678567313,
				"z": -1.95132785,
				"element": "C" 
			},
			{
				"x": 0.8595734685,
				"y": 2.072803389,
				"z": -0.55916155,
				"element": "C" 
			},
			{
				"x": -0.1237805963,
				"y": 1.023294718,
				"z": -0.5935528309,
				"element": "O" 
			},
			{
				"x": -0.2177261622,
				"y": 0.2752522756,
				"z": 0.5550028786,
				"element": "C" 
			},
			{
				"x": 0.6643802117,
				"y": -0.8007478712,
				"z": 0.7849512168,
				"element": "C" 
			},
			{
				"x": 1.700198828,
				"y": -1.121442985,
				"z": -0.1407771343,
				"element": "N" 
			},
			{
				"x": 1.5142094051,
				"y": -1.2970474345,
				"z": -1.4918189208,
				"element": "C" 
			},
			{
				"x": 2.4035969808,
				"y": -1.0074740286,
				"z": -2.3646969183,
				"element": "N" 
			},
			{
				"x": 2.0461492154,
				"y": -1.5265015528,
				"z": -3.6788664948,
				"element": "C" 
			},
			{
				"x": 0.5124766616,
				"y": -1.7052579132,
				"z": -3.7668971972,
				"element": "C" 
			},
			{
				"x": 0.0043639208,
				"y": -2.1187814355,
				"z": -2.0513128695,
				"element": "S" 
			},
			{
				"x": 0.5366964037,
				"y": -1.5495128412,
				"z": 1.9591146297,
				"element": "C" 
			},
			{
				"x": -0.4520476135,
				"y": -1.2452832692,
				"z": 2.8947358519,
				"element": "C" 
			},
			{
				"x": -1.3405905262,
				"y": -0.1971026102,
				"z": 2.6485307231,
				"element": "C" 
			},
			{
				"x": -1.2232343874,
				"y": 0.5583734449,
				"z": 1.4814241271,
				"element": "C" 
			},
			{
				"x": 1.6618540042,
				"y": 3.5026783754,
				"z": -1.9568475381,
				"element": "H" 
			},
			{
				"x": 1.3021963349,
				"y": 1.9113284359,
				"z": -2.6592405546,
				"element": "H" 
			},
			{
				"x": -0.0220596393,
				"y": 3.0372378175,
				"z": -2.2795244859,
				"element": "H" 
			},
			{
				"x": 0.5570218255,
				"y": 2.8270094576,
				"z": 0.1815860992,
				"element": "H" 
			},
			{
				"x": 1.8299137715,
				"y": 1.6645842672,
				"z": -0.2475436133,
				"element": "H" 
			},
			{
				"x": 2.6396654538,
				"y": -0.8173137366,
				"z": 0.0853108477,
				"element": "H" 
			},
			{
				"x": 2.5470710757,
				"y": -2.4934422927,
				"z": -3.8366963923,
				"element": "H" 
			},
			{
				"x": 2.3998427762,
				"y": -0.8474855952,
				"z": -4.4625233929,
				"element": "H" 
			},
			{
				"x": 0.013009865,
				"y": -0.7798826067,
				"z": -4.0678039422,
				"element": "H" 
			},
			{
				"x": 0.216765649,
				"y": -2.5097334573,
				"z": -4.4428781594,
				"element": "H" 
			},
			{
				"x": 1.2180606039,
				"y": -2.3799987072,
				"z": 2.1177587797,
				"element": "H" 
			},
			{
				"x": -0.5392195246,
				"y": -1.8366380278,
				"z": 3.8010230614,
				"element": "H" 
			},
			{
				"x": -2.1241840078,
				"y": 0.0345982676,
				"z": 3.3639718565,
				"element": "H" 
			},
			{
				"x": -1.9017026502,
				"y": 1.3787291849,
				"z": 1.269159773,
				"element": "H" 
			}
		],
		 "valence_orbital": [ 
			{
				"type": "occ",
				"energy": -0.26228,
				"method": "rhf"
			},
			{
				"type": "occ",
				"energy": -0.25416,
				"method": "rhf"
			},
			{
				"type": "occ",
				"energy": -0.24558,
				"method": "rhf"
			},
			{
				"type": "occ",
				"energy": -0.22833,
				"method": "rhf"
			},
			{
				"type": "occ",
				"energy": -0.21238,
				"method": "rhf"
			},
			{
				"type": "unocc",
				"energy": -0.01296,
				"method": "rhf"
			},
			{
				"type": "unocc",
				"energy": -0.0019,
				"method": "rhf"
			},
			{
				"type": "unocc",
				"energy": 0.02354,
				"method": "rhf"
			},
			{
				"type": "unocc",
				"energy": 0.04195,
				"method": "rhf"
			},
			{
				"type": "unocc",
				"energy": 0.07634,
				"method": "rhf"
			}
		],
		"cosmo_sigma_profile": { 
			"-0.025": 0.0,
			"-0.024": 0.0,
			"-0.023": 0.0,
			"-0.022": 0.0,
			"-0.021": 0.0,
			"-0.02": 0.0,
			"-0.019": 0.0,
			"-0.018": 0.0,
			"-0.017": 0.0,
			"-0.016": 0.0,
			"-0.015": 0.0,
			"-0.014": 0.480264257872,
			"-0.013": 1.19168524573,
			"-0.012": 0.556714822685,
			"-0.011": 0.888888186331,
			"-0.01": 1.00097770844,
			"-0.009": 0.884434878661,
			"-0.008": 0.980322234333,
			"-0.007": 2.65354847577,
			"-0.006": 11.1438062714,
			"-0.005": 15.6215714649,
			"-0.004": 28.0144858462,
			"-0.003": 29.6204532306,
			"-0.002": 25.9323602322,
			"-0.001": 20.2954767324,
			"0.0": 17.9268252027,
			"0.001": 15.3311481686,
			"0.002": 16.0556678079,
			"0.003": 15.6181465261,
			"0.004": 19.739470339,
			"0.005": 13.7417126546,
			"0.006": 6.76680751951,
			"0.007": 4.57970489466,
			"0.008": 4.78435801882,
			"0.009": 3.51630252104,
			"0.01": 2.15638362656,
			"0.011": 1.90423045566,
			"0.012": 1.95356660239,
			"0.013": 0.72403293356,
			"0.014": 0.85558912306,
			"0.015": 0.535155314443,
			"0.016": 1.02918466151,
			"0.017": 0.21846856823,
			"0.018": 0.0,
			"0.019": 0.0,
			"0.02": 0.0,
			"0.021": 0.0,
			"0.022": 0.0,
			"0.023": 0.0,
			"0.024": 0.0,
			"0.025": 0.0
		}
	}
}
