{
	 "smiles": "OC(=O)C1=CC=C(Cl)NC1=O", 
	 "Tm": 498.15, 
	 "num_atms": 15, 
	 "gaussian": { 
		 "optdone": 1, 
		 "sigma_profile": "yes", 
		 "theory": "DFT", 
		 "functional": "B3LYP", 
		 "basiset": "6-31G**", 
		 "properties": { 
			 "R2extent": 2387.3261, 
			 "electric_dipole_moment_norm": 6.53212850455, 
			 "electric_quadrupole_moment_norm": 15.7288188994, 
			 "total_energy": -971.68761606, 
			 "HOMO_LUMO_gap": 0.16721, 
			 "cosmo_polarized_energy": -16.94, 
			 "cosmo_cavitation_energy": 21.87, 
			 "cosmo_dispersion_energy": -16.83, 
			 "cosmo_repulsion_energy": 1.34, 
			 "cosmo_total_nonelectrostatic_energy": 6.39, 
			 "SMD_solvation_energy": 5.41 
		},
		"coords": [
			{
				"x": -0.9775997051,
				"y": -3.7643068108,
				"z": 0.2479547751,
				"element": "O" 
			},
			{
				"x": -0.7045521825,
				"y": -2.7986822982,
				"z": 1.1305643432,
				"element": "C" 
			},
			{
				"x": -0.5753036434,
				"y": -3.0148508174,
				"z": 2.317623922,
				"element": "O" 
			},
			{
				"x": -0.5644384349,
				"y": -1.4095791242,
				"z": 0.56673664,
				"element": "C" 
			},
			{
				"x": -0.2843997795,
				"y": -0.3669115604,
				"z": 1.4168757733,
				"element": "C" 
			},
			{
				"x": -0.1378237074,
				"y": 0.9671240263,
				"z": 0.9626616649,
				"element": "C" 
			},
			{
				"x": -0.2862393619,
				"y": 1.1943266121,
				"z": -0.3775021065,
				"element": "C" 
			},
			{
				"x": -0.1384344426,
				"y": 2.7662430119,
				"z": -1.0946882315,
				"element": "Cl" 
			},
			{
				"x": -0.5636866487,
				"y": 0.1742317125,
				"z": -1.2344904334,
				"element": "N" 
			},
			{
				"x": -0.7212454281,
				"y": -1.1667185546,
				"z": -0.8519382125,
				"element": "C" 
			},
			{
				"x": -0.9731677496,
				"y": -2.0121287079,
				"z": -1.7235291101,
				"element": "O" 
			},
			{
				"x": -1.0402664948,
				"y": -3.368252805,
				"z": -0.6575435006,
				"element": "H" 
			},
			{
				"x": -0.1762892467,
				"y": -0.6014889784,
				"z": 2.4718328449,
				"element": "H" 
			},
			{
				"x": 0.0826022138,
				"y": 1.7833107528,
				"z": 1.6367529259,
				"element": "H" 
			},
			{
				"x": -0.6714553887,
				"y": 0.3555835413,
				"z": -2.2264112949,
				"element": "H" 
			}
		],
		 "valence_orbital": [ 
			{
				"type": "occ",
				"energy": -0.33737,
				"method": "rhf"
			},
			{
				"type": "occ",
				"energy": -0.3005,
				"method": "rhf"
			},
			{
				"type": "occ",
				"energy": -0.29813,
				"method": "rhf"
			},
			{
				"type": "occ",
				"energy": -0.26886,
				"method": "rhf"
			},
			{
				"type": "occ",
				"energy": -0.25591,
				"method": "rhf"
			},
			{
				"type": "unocc",
				"energy": -0.0887,
				"method": "rhf"
			},
			{
				"type": "unocc",
				"energy": -0.03007,
				"method": "rhf"
			},
			{
				"type": "unocc",
				"energy": -0.01958,
				"method": "rhf"
			},
			{
				"type": "unocc",
				"energy": 0.02936,
				"method": "rhf"
			},
			{
				"type": "unocc",
				"energy": 0.07074,
				"method": "rhf"
			}
		],
		"cosmo_sigma_profile": { 
			"-0.025": 0.0,
			"-0.024": 0.0,
			"-0.023": 0.0,
			"-0.022": 0.0,
			"-0.021": 0.0,
			"-0.02": 0.0,
			"-0.019": 0.0152511648459,
			"-0.018": 0.501250022379,
			"-0.017": 1.14173933274,
			"-0.016": 0.754366000266,
			"-0.015": 0.55593442492,
			"-0.014": 1.21624687593,
			"-0.013": 1.27533854279,
			"-0.012": 0.776309812277,
			"-0.011": 1.08858460417,
			"-0.01": 1.18808546934,
			"-0.009": 3.39043913039,
			"-0.008": 4.78592341432,
			"-0.007": 5.04093661888,
			"-0.006": 5.76587784203,
			"-0.005": 9.74735384612,
			"-0.004": 15.967032345,
			"-0.003": 14.5472028667,
			"-0.002": 14.3428400036,
			"-0.001": 14.9146832444,
			"0.0": 13.2947748563,
			"0.001": 11.7368076227,
			"0.002": 8.60319194654,
			"0.003": 3.04225949263,
			"0.004": 3.58996000715,
			"0.005": 3.36816688999,
			"0.006": 2.52609297138,
			"0.007": 3.65036014263,
			"0.008": 3.8007702386,
			"0.009": 3.82490631498,
			"0.01": 5.87470777107,
			"0.011": 7.38406750105,
			"0.012": 7.50801830315,
			"0.013": 2.7563569771,
			"0.014": 0.711316356726,
			"0.015": 0.0,
			"0.016": 0.0,
			"0.017": 0.0,
			"0.018": 0.0,
			"0.019": 0.0,
			"0.02": 0.0,
			"0.021": 0.0,
			"0.022": 0.0,
			"0.023": 0.0,
			"0.024": 0.0,
			"0.025": 0.0
		}
	}
}
