{
	 "smiles": "ClC1=C(C#N)C(OC2=CC=CC=C2)=CC=C1", 
	 "Tm": 334.15, 
	 "num_atms": 24, 
	 "gaussian": { 
		 "optdone": 1, 
		 "sigma_profile": "yes", 
		 "theory": "DFT", 
		 "functional": "B3LYP", 
		 "basiset": "6-31G**", 
		 "properties": { 
			 "R2extent": 4751.6224, 
			 "electric_dipole_moment_norm": 6.64379218369, 
			 "electric_quadrupole_moment_norm": 17.7397312409, 
			 "total_energy": -1090.34160015, 
			 "HOMO_LUMO_gap": 0.19115, 
			 "cosmo_polarized_energy": -11.82, 
			 "cosmo_cavitation_energy": 31.96, 
			 "cosmo_dispersion_energy": -22.33, 
			 "cosmo_repulsion_energy": 1.75, 
			 "cosmo_total_nonelectrostatic_energy": 11.38, 
			 "SMD_solvation_energy": 6.61 
		},
		"coords": [
			{
				"x": -2.2072462989,
				"y": 3.4379726696,
				"z": -0.88617965,
				"element": "Cl" 
			},
			{
				"x": -0.984657457,
				"y": 2.2832655991,
				"z": -0.4165616211,
				"element": "C" 
			},
			{
				"x": -1.2361297074,
				"y": 0.9058917024,
				"z": -0.5617570321,
				"element": "C" 
			},
			{
				"x": -2.4704784624,
				"y": 0.4128796769,
				"z": -1.0863639919,
				"element": "C" 
			},
			{
				"x": -3.4729589196,
				"y": 0.0065356764,
				"z": -1.5133227942,
				"element": "N" 
			},
			{
				"x": -0.2282907625,
				"y": -0.0094973299,
				"z": -0.173480227,
				"element": "C" 
			},
			{
				"x": -0.54466731,
				"y": -1.3248137962,
				"z": -0.3328757802,
				"element": "O" 
			},
			{
				"x": 0.4018398975,
				"y": -2.3093450699,
				"z": -0.05044726,
				"element": "C" 
			},
			{
				"x": 0.3537432846,
				"y": -2.954232592,
				"z": 1.1837828329,
				"element": "C" 
			},
			{
				"x": 1.2490375766,
				"y": -3.9948980817,
				"z": 1.4385101836,
				"element": "C" 
			},
			{
				"x": 2.177331201,
				"y": -4.3788334179,
				"z": 0.4683019293,
				"element": "C" 
			},
			{
				"x": 2.2088729843,
				"y": -3.7235961237,
				"z": -0.765092689,
				"element": "C" 
			},
			{
				"x": 1.3178079725,
				"y": -2.683141018,
				"z": -1.0328645009,
				"element": "C" 
			},
			{
				"x": 0.9853377776,
				"y": 0.4502850343,
				"z": 0.341046634,
				"element": "C" 
			},
			{
				"x": 1.1974973809,
				"y": 1.8219314649,
				"z": 0.4688536369,
				"element": "C" 
			},
			{
				"x": 0.2238914616,
				"y": 2.7476855582,
				"z": 0.094775909,
				"element": "C" 
			},
			{
				"x": -0.3833696843,
				"y": -2.6463866353,
				"z": 1.9180053987,
				"element": "H" 
			},
			{
				"x": 1.2165831046,
				"y": -4.5070697406,
				"z": 2.3954302586,
				"element": "H" 
			},
			{
				"x": 2.8698707988,
				"y": -5.1902451192,
				"z": 0.670000586,
				"element": "H" 
			},
			{
				"x": 2.9234340556,
				"y": -4.0255144611,
				"z": -1.524933879,
				"element": "H" 
			},
			{
				"x": 1.3162064084,
				"y": -2.1708724372,
				"z": -1.9894267519,
				"element": "H" 
			},
			{
				"x": 1.7485061797,
				"y": -0.2585079388,
				"z": 0.6369441247,
				"element": "H" 
			},
			{
				"x": 2.1419367643,
				"y": 2.1767865102,
				"z": 0.8700823541,
				"element": "H" 
			},
			{
				"x": 0.3925017542,
				"y": 3.8129198694,
				"z": 0.1957723295,
				"element": "H" 
			}
		],
		 "valence_orbital": [ 
			{
				"type": "occ",
				"energy": -0.31925,
				"method": "rhf"
			},
			{
				"type": "occ",
				"energy": -0.27195,
				"method": "rhf"
			},
			{
				"type": "occ",
				"energy": -0.26336,
				"method": "rhf"
			},
			{
				"type": "occ",
				"energy": -0.26254,
				"method": "rhf"
			},
			{
				"type": "occ",
				"energy": -0.2484,
				"method": "rhf"
			},
			{
				"type": "unocc",
				"energy": -0.05725,
				"method": "rhf"
			},
			{
				"type": "unocc",
				"energy": -0.02203,
				"method": "rhf"
			},
			{
				"type": "unocc",
				"energy": -0.02061,
				"method": "rhf"
			},
			{
				"type": "unocc",
				"energy": -0.01766,
				"method": "rhf"
			},
			{
				"type": "unocc",
				"energy": 0.01668,
				"method": "rhf"
			}
		],
		"cosmo_sigma_profile": { 
			"-0.025": 0.0,
			"-0.024": 0.0,
			"-0.023": 0.0,
			"-0.022": 0.0,
			"-0.021": 0.0,
			"-0.02": 0.0,
			"-0.019": 0.0,
			"-0.018": 0.0,
			"-0.017": 0.0,
			"-0.016": 0.0,
			"-0.015": 0.0,
			"-0.014": 0.0,
			"-0.013": 0.0,
			"-0.012": 0.0,
			"-0.011": 0.0,
			"-0.01": 0.0,
			"-0.009": 0.221998628136,
			"-0.008": 3.83382462354,
			"-0.007": 10.5090549893,
			"-0.006": 16.4489377994,
			"-0.005": 15.6655623484,
			"-0.004": 15.8203215075,
			"-0.003": 15.334111131,
			"-0.002": 21.3570471516,
			"-0.001": 23.1589770857,
			"0.0": 22.7084379648,
			"0.001": 22.401755976,
			"0.002": 23.4697601736,
			"0.003": 21.5889394837,
			"0.004": 15.8680640962,
			"0.005": 6.21413186248,
			"0.006": 4.95721963898,
			"0.007": 4.9518550736,
			"0.008": 4.43595089854,
			"0.009": 3.05013199968,
			"0.01": 3.42454936631,
			"0.011": 2.44955769118,
			"0.012": 2.36250346063,
			"0.013": 0.931411098854,
			"0.014": 0.0,
			"0.015": 0.0,
			"0.016": 0.0,
			"0.017": 0.0,
			"0.018": 0.0,
			"0.019": 0.0,
			"0.02": 0.0,
			"0.021": 0.0,
			"0.022": 0.0,
			"0.023": 0.0,
			"0.024": 0.0,
			"0.025": 0.0
		}
	}
}
