{
	 "smiles": "OC(=O)C=CC1=CN(N=C1C1=CC=CS1)C1=CC=CC=C1", 
	 "Tm": 498.15, 
	 "num_atms": 33, 
	 "gaussian": { 
		 "optdone": 1, 
		 "sigma_profile": "yes", 
		 "theory": "DFT", 
		 "functional": "B3LYP", 
		 "basiset": "6-31G**", 
		 "properties": { 
			 "R2extent": 9173.7566, 
			 "electric_dipole_moment_norm": 5.25973018034, 
			 "electric_quadrupole_moment_norm": 42.7368227085, 
			 "total_energy": -1275.03605319, 
			 "HOMO_LUMO_gap": 0.15104, 
			 "cosmo_polarized_energy": -21.09, 
			 "cosmo_cavitation_energy": 40.65, 
			 "cosmo_dispersion_energy": -29.22, 
			 "cosmo_repulsion_energy": 2.18, 
			 "cosmo_total_nonelectrostatic_energy": 13.61, 
			 "SMD_solvation_energy": 7.48 
		},
		"coords": [
			{
				"x": 0.9804134578,
				"y": 5.9243525415,
				"z": 1.0098163876,
				"element": "O" 
			},
			{
				"x": 1.2668315727,
				"y": 5.5183154205,
				"z": -0.2616254941,
				"element": "C" 
			},
			{
				"x": 1.588816024,
				"y": 6.3323845115,
				"z": -1.0971777657,
				"element": "O" 
			},
			{
				"x": 1.1479138976,
				"y": 4.0714064713,
				"z": -0.5611112011,
				"element": "C" 
			},
			{
				"x": 0.4248901263,
				"y": 3.1885257405,
				"z": 0.1581262965,
				"element": "C" 
			},
			{
				"x": 0.2831657713,
				"y": 1.7725062322,
				"z": -0.1118157452,
				"element": "C" 
			},
			{
				"x": 1.0982981333,
				"y": 0.9601980342,
				"z": -0.8890174587,
				"element": "C" 
			},
			{
				"x": 0.634847753,
				"y": -0.3111383847,
				"z": -0.7746427847,
				"element": "N" 
			},
			{
				"x": -0.4499445654,
				"y": -0.3870477182,
				"z": 0.0379980628,
				"element": "N" 
			},
			{
				"x": -0.6782055241,
				"y": 0.862313447,
				"z": 0.4455356159,
				"element": "C" 
			},
			{
				"x": -1.7867839372,
				"y": 1.1515299277,
				"z": 1.3442406566,
				"element": "C" 
			},
			{
				"x": -2.5356778449,
				"y": 2.3029330317,
				"z": 1.4619337099,
				"element": "C" 
			},
			{
				"x": -3.554093328,
				"y": 2.2130436444,
				"z": 2.4542559566,
				"element": "C" 
			},
			{
				"x": -3.5758294235,
				"y": 0.9952806198,
				"z": 3.0783972238,
				"element": "C" 
			},
			{
				"x": -2.3532917989,
				"y": -0.0669405718,
				"z": 2.4651494004,
				"element": "S" 
			},
			{
				"x": 1.1581256328,
				"y": -1.4896626785,
				"z": -1.3746121751,
				"element": "C" 
			},
			{
				"x": 1.9388047594,
				"y": -1.403095073,
				"z": -2.5323409538,
				"element": "C" 
			},
			{
				"x": 2.4642987996,
				"y": -2.566154982,
				"z": -3.093699437,
				"element": "C" 
			},
			{
				"x": 2.2014228894,
				"y": -3.8104362166,
				"z": -2.5187082178,
				"element": "C" 
			},
			{
				"x": 1.4053177528,
				"y": -3.8864203465,
				"z": -1.3734716308,
				"element": "C" 
			},
			{
				"x": 0.8831685784,
				"y": -2.732262262,
				"z": -0.793942588,
				"element": "C" 
			},
			{
				"x": 0.9336168655,
				"y": 5.1578978159,
				"z": 1.5977607178,
				"element": "H" 
			},
			{
				"x": 1.631587869,
				"y": 3.7808679491,
				"z": -1.488710589,
				"element": "H" 
			},
			{
				"x": -0.1300785728,
				"y": 3.5391141714,
				"z": 1.0276849859,
				"element": "H" 
			},
			{
				"x": 1.9893321916,
				"y": 1.1945588826,
				"z": -1.4498944333,
				"element": "H" 
			},
			{
				"x": -2.3925814476,
				"y": 3.1698612246,
				"z": 0.8278592143,
				"element": "H" 
			},
			{
				"x": -4.2448297495,
				"y": 3.0164146997,
				"z": 2.6828668129,
				"element": "H" 
			},
			{
				"x": -4.2430481873,
				"y": 0.6559053525,
				"z": 3.8587468707,
				"element": "H" 
			},
			{
				"x": 2.1167057899,
				"y": -0.4443369995,
				"z": -3.0075115757,
				"element": "H" 
			},
			{
				"x": 3.0692830281,
				"y": -2.4961312507,
				"z": -3.9925612575,
				"element": "H" 
			},
			{
				"x": 2.6079320001,
				"y": -4.7135702963,
				"z": -2.9631440287,
				"element": "H" 
			},
			{
				"x": 1.1916227389,
				"y": -4.8504533397,
				"z": -0.9217741297,
				"element": "H" 
			},
			{
				"x": 0.2658687475,
				"y": -2.7739595984,
				"z": 0.0947895541,
				"element": "H" 
			}
		],
		 "valence_orbital": [ 
			{
				"type": "occ",
				"energy": -0.26726,
				"method": "rhf"
			},
			{
				"type": "occ",
				"energy": -0.26427,
				"method": "rhf"
			},
			{
				"type": "occ",
				"energy": -0.25897,
				"method": "rhf"
			},
			{
				"type": "occ",
				"energy": -0.24518,
				"method": "rhf"
			},
			{
				"type": "occ",
				"energy": -0.21925,
				"method": "rhf"
			},
			{
				"type": "unocc",
				"energy": -0.06821,
				"method": "rhf"
			},
			{
				"type": "unocc",
				"energy": -0.0497,
				"method": "rhf"
			},
			{
				"type": "unocc",
				"energy": -0.02012,
				"method": "rhf"
			},
			{
				"type": "unocc",
				"energy": -0.01079,
				"method": "rhf"
			},
			{
				"type": "unocc",
				"energy": 0.01937,
				"method": "rhf"
			}
		],
		"cosmo_sigma_profile": { 
			"-0.025": 0.0,
			"-0.024": 0.0,
			"-0.023": 0.0,
			"-0.022": 0.0,
			"-0.021": 0.0,
			"-0.02": 0.0,
			"-0.019": 0.0940459094507,
			"-0.018": 0.719646533914,
			"-0.017": 0.814364000511,
			"-0.016": 1.34846459922,
			"-0.015": 0.552896452505,
			"-0.014": 0.949807820228,
			"-0.013": 0.710344813482,
			"-0.012": 1.40283906917,
			"-0.011": 2.04088108767,
			"-0.01": 3.33768479456,
			"-0.009": 4.26718883976,
			"-0.008": 8.41142184976,
			"-0.007": 11.5016158162,
			"-0.006": 17.9568372457,
			"-0.005": 19.5803181656,
			"-0.004": 19.4331812548,
			"-0.003": 18.4093111623,
			"-0.002": 16.7030223434,
			"-0.001": 18.1286105015,
			"0.0": 21.441122509,
			"0.001": 26.0057921896,
			"0.002": 28.0649840614,
			"0.003": 26.3452750403,
			"0.004": 28.9243967708,
			"0.005": 14.0338584545,
			"0.006": 4.91640480256,
			"0.007": 4.01017526331,
			"0.008": 3.21275316622,
			"0.009": 4.51896279629,
			"0.01": 5.12937976275,
			"0.011": 5.6822920044,
			"0.012": 6.43252863839,
			"0.013": 4.13793147357,
			"0.014": 0.709360460075,
			"0.015": 0.0,
			"0.016": 0.0,
			"0.017": 0.0,
			"0.018": 0.0,
			"0.019": 0.0,
			"0.02": 0.0,
			"0.021": 0.0,
			"0.022": 0.0,
			"0.023": 0.0,
			"0.024": 0.0,
			"0.0": 0.0
		}
	}
}
