{
	 "smiles": "NC1=CC2=C(C=C1)N1CCCCCC1=N2", 
	 "Tm": 454.15, 
	 "num_atms": 30, 
	 "gaussian": { 
		 "optdone": 1, 
		 "sigma_profile": "yes", 
		 "theory": "DFT", 
		 "functional": "B3LYP", 
		 "basiset": "6-31G**", 
		 "properties": { 
			 "R2extent": 3554.0414, 
			 "electric_dipole_moment_norm": 3.43616337796, 
			 "electric_quadrupole_moment_norm": 17.4214808099, 
			 "total_energy": -630.59437677, 
			 "HOMO_LUMO_gap": 0.17731, 
			 "cosmo_polarized_energy": -15.21, 
			 "cosmo_cavitation_energy": 30.96, 
			 "cosmo_dispersion_energy": -23.09, 
			 "cosmo_repulsion_energy": 1.79, 
			 "cosmo_total_nonelectrostatic_energy": 9.65, 
			 "SMD_solvation_energy": 2.0 
		},
		"coords": [
			{
				"x": 3.738718014,
				"y": -3.1590229523,
				"z": 0.5189920049,
				"element": "N" 
			},
			{
				"x": 2.5910474099,
				"y": -2.3438559168,
				"z": 0.5088764792,
				"element": "C" 
			},
			{
				"x": 1.6929583727,
				"y": -2.3887939876,
				"z": -0.5617785396,
				"element": "C" 
			},
			{
				"x": 0.5327030331,
				"y": -1.6087357774,
				"z": -0.4994671672,
				"element": "C" 
			},
			{
				"x": 0.2819984244,
				"y": -0.7923190862,
				"z": 0.6295688335,
				"element": "C" 
			},
			{
				"x": 1.17045856,
				"y": -0.7344659682,
				"z": 1.7027633183,
				"element": "C" 
			},
			{
				"x": 2.3189157807,
				"y": -1.5168692631,
				"z": 1.6271705619,
				"element": "C" 
			},
			{
				"x": -0.9369041509,
				"y": -0.1789294425,
				"z": 0.3613571291,
				"element": "N" 
			},
			{
				"x": -1.6612839556,
				"y": 0.8193033739,
				"z": 1.131923739,
				"element": "C" 
			},
			{
				"x": -1.601809099,
				"y": 2.229710455,
				"z": 0.5019093552,
				"element": "C" 
			},
			{
				"x": -1.5607595832,
				"y": 2.2350188075,
				"z": -1.0377869703,
				"element": "C" 
			},
			{
				"x": -2.6360148585,
				"y": 1.4061475247,
				"z": -1.7649492759,
				"element": "C" 
			},
			{
				"x": -2.6142557692,
				"y": -0.1305320916,
				"z": -1.4802632129,
				"element": "C" 
			},
			{
				"x": -1.3345199562,
				"y": -0.6286011235,
				"z": -0.8833565646,
				"element": "C" 
			},
			{
				"x": -0.4921937884,
				"y": -1.479682049,
				"z": -1.4273130451,
				"element": "N" 
			},
			{
				"x": 4.5111523034,
				"y": -2.7727463471,
				"z": 1.0462991877,
				"element": "H" 
			},
			{
				"x": 4.0455669711,
				"y": -3.4403264711,
				"z": -0.4032704256,
				"element": "H" 
			},
			{
				"x": 1.8813936983,
				"y": -3.0161359063,
				"z": -1.4283410704,
				"element": "H" 
			},
			{
				"x": 0.9899770899,
				"y": -0.1073557644,
				"z": 2.5711871567,
				"element": "H" 
			},
			{
				"x": 3.0277289567,
				"y": -1.5025382631,
				"z": 2.4512664264,
				"element": "H" 
			},
			{
				"x": -1.2567623816,
				"y": 0.8281683241,
				"z": 2.1472103653,
				"element": "H" 
			},
			{
				"x": -2.7035070665,
				"y": 0.4905957111,
				"z": 1.215761108,
				"element": "H" 
			},
			{
				"x": -2.4692454741,
				"y": 2.7967508896,
				"z": 0.8629262232,
				"element": "H" 
			},
			{
				"x": -0.7117316408,
				"y": 2.7553897718,
				"z": 0.8667619889,
				"element": "H" 
			},
			{
				"x": -1.6362925853,
				"y": 3.2750591129,
				"z": -1.3767881302,
				"element": "H" 
			},
			{
				"x": -0.5738658351,
				"y": 1.885225636,
				"z": -1.3624135342,
				"element": "H" 
			},
			{
				"x": -3.6326463621,
				"y": 1.7990428679,
				"z": -1.5295527297,
				"element": "H" 
			},
			{
				"x": -2.4933975611,
				"y": 1.5621462181,
				"z": -2.8396095417,
				"element": "H" 
			},
			{
				"x": -2.7820481809,
				"y": -0.6928427419,
				"z": -2.4008787813,
				"element": "H" 
			},
			{
				"x": -3.4391803656,
				"y": -0.3884055405,
				"z": -0.8028048886,
				"element": "H" 
			}
		],
		 "valence_orbital": [ 
			{
				"type": "occ",
				"energy": -0.28572,
				"method": "rhf"
			},
			{
				"type": "occ",
				"energy": -0.26629,
				"method": "rhf"
			},
			{
				"type": "occ",
				"energy": -0.25301,
				"method": "rhf"
			},
			{
				"type": "occ",
				"energy": -0.20765,
				"method": "rhf"
			},
			{
				"type": "occ",
				"energy": -0.17903,
				"method": "rhf"
			},
			{
				"type": "unocc",
				"energy": -0.00172,
				"method": "rhf"
			},
			{
				"type": "unocc",
				"energy": 0.04534,
				"method": "rhf"
			},
			{
				"type": "unocc",
				"energy": 0.06451,
				"method": "rhf"
			},
			{
				"type": "unocc",
				"energy": 0.06917,
				"method": "rhf"
			},
			{
				"type": "unocc",
				"energy": 0.09291,
				"method": "rhf"
			}
		],
		"cosmo_sigma_profile": { 
			"-0.025": 0.0,
			"-0.024": 0.0,
			"-0.023": 0.0,
			"-0.022": 0.0,
			"-0.021": 0.0,
			"-0.02": 0.0,
			"-0.019": 0.0,
			"-0.018": 0.0,
			"-0.017": 0.0,
			"-0.016": 0.0,
			"-0.015": 0.0,
			"-0.014": 0.0,
			"-0.013": 0.0,
			"-0.012": 0.963098388529,
			"-0.011": 2.66387339655,
			"-0.01": 2.06766786677,
			"-0.009": 3.53334783181,
			"-0.008": 3.47351439702,
			"-0.007": 4.19985537177,
			"-0.006": 10.3927693676,
			"-0.005": 13.8814083722,
			"-0.004": 17.2914286675,
			"-0.003": 28.6168420816,
			"-0.002": 27.1018641277,
			"-0.001": 27.4488320786,
			"0.0": 18.9391250876,
			"0.001": 8.31895147977,
			"0.002": 7.12016769217,
			"0.003": 7.93682292652,
			"0.004": 7.74559005218,
			"0.005": 8.21099852741,
			"0.006": 11.3243493314,
			"0.007": 10.9988991033,
			"0.008": 3.15562406092,
			"0.009": 2.42480987874,
			"0.01": 2.44899574716,
			"0.011": 1.42936540184,
			"0.012": 2.07849699584,
			"0.013": 2.01459141045,
			"0.014": 1.81015477772,
			"0.015": 1.47266888436,
			"0.016": 1.56993778201,
			"0.017": 1.13594420899,
			"0.018": 0.833315722644,
			"0.019": 0.341265213197,
			"0.02": 0.0,
			"0.021": 0.0,
			"0.022": 0.0,
			"0.023": 0.0,
			"0.024": 0.0,
			"0.025": 0.0
		}
	}
}
