{
	 "smiles": "ClCCS(=O)(=O)C1=CC=C(Br)C=C1", 
	 "Tm": 384.15, 
	 "num_atms": 21, 
	 "gaussian": { 
		 "optdone": 1, 
		 "sigma_profile": "yes", 
		 "theory": "DFT", 
		 "functional": "B3LYP", 
		 "basiset": "6-31G**", 
		 "properties": { 
			 "R2extent": 6062.1162, 
			 "electric_dipole_moment_norm": 3.19755228417, 
			 "electric_quadrupole_moment_norm": 14.0401725392, 
			 "total_energy": -3889.84109622, 
			 "HOMO_LUMO_gap": 0.211, 
			 "cosmo_polarized_energy": -14.51, 
			 "cosmo_cavitation_energy": 30.7, 
			 "cosmo_dispersion_energy": -22.94, 
			 "cosmo_repulsion_energy": 1.8, 
			 "cosmo_total_nonelectrostatic_energy": 9.55, 
			 "SMD_solvation_energy": 2.88 
		},
		"coords": [
			{
				"x": 3.6711675116,
				"y": 1.6376356524,
				"z": -1.5325577995,
				"element": "Cl" 
			},
			{
				"x": 2.6184532838,
				"y": 0.5718874059,
				"z": -0.5109891506,
				"element": "C" 
			},
			{
				"x": 2.1208280182,
				"y": -0.6069381017,
				"z": -1.3301465104,
				"element": "C" 
			},
			{
				"x": 1.0894610033,
				"y": -1.7562995231,
				"z": -0.3502375178,
				"element": "S" 
			},
			{
				"x": 0.7912305602,
				"y": -2.8974305085,
				"z": -1.2270140227,
				"element": "O" 
			},
			{
				"x": 1.7473189465,
				"y": -1.9318843768,
				"z": 0.9552003888,
				"element": "O" 
			},
			{
				"x": -0.4461009487,
				"y": -0.8592665905,
				"z": -0.0715217332,
				"element": "C" 
			},
			{
				"x": -0.6309779032,
				"y": -0.1745103744,
				"z": 1.1309663526,
				"element": "C" 
			},
			{
				"x": -1.8230890913,
				"y": 0.5158817804,
				"z": 1.3487166449,
				"element": "C" 
			},
			{
				"x": -2.8070956277,
				"y": 0.5041361856,
				"z": 0.3592250202,
				"element": "C" 
			},
			{
				"x": -4.4344440716,
				"y": 1.4497326698,
				"z": 0.6531944278,
				"element": "Br" 
			},
			{
				"x": -2.6300919439,
				"y": -0.1924780594,
				"z": -0.8382628434,
				"element": "C" 
			},
			{
				"x": -1.4394431733,
				"y": -0.8837282951,
				"z": -1.0533258244,
				"element": "C" 
			},
			{
				"x": 3.2179116038,
				"y": 0.2369053275,
				"z": 0.3344529269,
				"element": "H" 
			},
			{
				"x": 1.7986669689,
				"y": 1.1956986933,
				"z": -0.1527534082,
				"element": "H" 
			},
			{
				"x": 1.527435591,
				"y": -0.2960144802,
				"z": -2.1931025284,
				"element": "H" 
			},
			{
				"x": 2.9480258382,
				"y": -1.2309008094,
				"z": -1.6801905136,
				"element": "H" 
			},
			{
				"x": 0.1408452128,
				"y": -0.2036799288,
				"z": 1.8926727841,
				"element": "H" 
			},
			{
				"x": -1.9891557038,
				"y": 1.0500172308,
				"z": 2.2769904923,
				"element": "H" 
			},
			{
				"x": -3.4152259219,
				"y": -0.200664108,
				"z": -1.5852830502,
				"element": "H" 
			},
			{
				"x": -1.291020153,
				"y": -1.4556997898,
				"z": -1.9633341354,
				"element": "H" 
			}
		],
		 "valence_orbital": [ 
			{
				"type": "occ",
				"energy": -0.31101,
				"method": "rhf"
			},
			{
				"type": "occ",
				"energy": -0.30702,
				"method": "rhf"
			},
			{
				"type": "occ",
				"energy": -0.29524,
				"method": "rhf"
			},
			{
				"type": "occ",
				"energy": -0.29334,
				"method": "rhf"
			},
			{
				"type": "occ",
				"energy": -0.27198,
				"method": "rhf"
			},
			{
				"type": "unocc",
				"energy": -0.06098,
				"method": "rhf"
			},
			{
				"type": "unocc",
				"energy": -0.04473,
				"method": "rhf"
			},
			{
				"type": "unocc",
				"energy": -0.01372,
				"method": "rhf"
			},
			{
				"type": "unocc",
				"energy": -0.00415,
				"method": "rhf"
			},
			{
				"type": "unocc",
				"energy": 0.05381,
				"method": "rhf"
			}
		],
		"cosmo_sigma_profile": { 
			"-0.025": 0.0,
			"-0.024": 0.0,
			"-0.023": 0.0,
			"-0.022": 0.0,
			"-0.021": 0.0,
			"-0.02": 0.0,
			"-0.019": 0.0,
			"-0.018": 0.0,
			"-0.017": 0.0,
			"-0.016": 0.0,
			"-0.015": 0.0,
			"-0.014": 0.0,
			"-0.013": 0.0,
			"-0.012": 0.0,
			"-0.011": 0.0,
			"-0.01": 0.603972542518,
			"-0.009": 4.79358283758,
			"-0.008": 12.0146628332,
			"-0.007": 17.6167207454,
			"-0.006": 14.4047465248,
			"-0.005": 14.2586224189,
			"-0.004": 11.9260734822,
			"-0.003": 10.5125828344,
			"-0.002": 11.9983663573,
			"-0.001": 15.5922355899,
			"0.0": 20.0415530247,
			"0.001": 25.0630473546,
			"0.002": 14.2490399876,
			"0.003": 14.017224223,
			"0.004": 15.8987490349,
			"0.005": 11.1494602999,
			"0.006": 8.95920192985,
			"0.007": 3.51110479081,
			"0.008": 2.48323981765,
			"0.009": 3.07582187099,
			"0.01": 7.04375953504,
			"0.011": 8.16541096931,
			"0.012": 3.55717560456,
			"0.013": 0.0,
			"0.014": 0.0,
			"0.015": 0.0,
			"0.016": 0.0,
			"0.017": 0.0,
			"0.018": 0.0,
			"0.019": 0.0,
			"0.02": 0.0,
			"0.021": 0.0,
			"0.022": 0.0,
			"0.023": 0.0,
			"0.024": 0.0,
			"0.025": 0.0
		}
	}
}
