{
	 "smiles": "O=CC1=C2C=CC=NC2=C2C=CC=CC2=N1", 
	 "Tm": 417.15, 
	 "num_atms": 24, 
	 "gaussian": { 
		 "optdone": 1, 
		 "sigma_profile": "yes", 
		 "theory": "DFT", 
		 "functional": "B3LYP", 
		 "basiset": "6-31G**", 
		 "properties": { 
			 "R2extent": 3871.1024, 
			 "electric_dipole_moment_norm": 2.19084546466, 
			 "electric_quadrupole_moment_norm": 15.9752004814, 
			 "total_energy": -684.938190613, 
			 "HOMO_LUMO_gap": 0.15196, 
			 "cosmo_polarized_energy": -8.17, 
			 "cosmo_cavitation_energy": 28.5, 
			 "cosmo_dispersion_energy": -21.37, 
			 "cosmo_repulsion_energy": 1.6, 
			 "cosmo_total_nonelectrostatic_energy": 8.73, 
			 "SMD_solvation_energy": 3.18 
		},
		"coords": [
			{
				"x": 4.264678663,
				"y": 1.3342473056,
				"z": -2.3390385073,
				"element": "O" 
			},
			{
				"x": 3.52135506,
				"y": 0.3840925179,
				"z": -2.1822442931,
				"element": "C" 
			},
			{
				"x": 2.3284109235,
				"y": 0.3249331295,
				"z": -1.2821372136,
				"element": "C" 
			},
			{
				"x": 1.8847037751,
				"y": 1.4250963045,
				"z": -0.4508243282,
				"element": "C" 
			},
			{
				"x": 2.5200012153,
				"y": 2.6873085266,
				"z": -0.3855897236,
				"element": "C" 
			},
			{
				"x": 1.9944794286,
				"y": 3.652899175,
				"z": 0.4498172095,
				"element": "C" 
			},
			{
				"x": 0.8459456463,
				"y": 3.3467621287,
				"z": 1.2062062242,
				"element": "C" 
			},
			{
				"x": 0.2265152124,
				"y": 2.177108325,
				"z": 1.1695482095,
				"element": "N" 
			},
			{
				"x": 0.7312019166,
				"y": 1.2205324171,
				"z": 0.3543249201,
				"element": "C" 
			},
			{
				"x": 0.0679837463,
				"y": -0.0642592338,
				"z": 0.3007525664,
				"element": "C" 
			},
			{
				"x": -1.0811040761,
				"y": -0.3617990663,
				"z": 1.0612217578,
				"element": "C" 
			},
			{
				"x": -1.6716682287,
				"y": -1.6094722419,
				"z": 0.9676111923,
				"element": "C" 
			},
			{
				"x": -1.1357556497,
				"y": -2.5979470969,
				"z": 0.1141588184,
				"element": "C" 
			},
			{
				"x": -0.0109202764,
				"y": -2.3278119513,
				"z": -0.639584444,
				"element": "C" 
			},
			{
				"x": 0.6105589632,
				"y": -1.058605007,
				"z": -0.5604944777,
				"element": "C" 
			},
			{
				"x": 1.7263122851,
				"y": -0.8405862935,
				"z": -1.3303246626,
				"element": "N" 
			},
			{
				"x": 3.6683360773,
				"y": -0.573938989,
				"z": -2.7202461407,
				"element": "H" 
			},
			{
				"x": 3.4002367754,
				"y": 2.8691100653,
				"z": -0.9886862086,
				"element": "H" 
			},
			{
				"x": 2.4513071645,
				"y": 4.6340566736,
				"z": 0.5292870028,
				"element": "H" 
			},
			{
				"x": 0.417556593,
				"y": 4.0962632385,
				"z": 1.8705593946,
				"element": "H" 
			},
			{
				"x": -1.4805819207,
				"y": 0.4077130674,
				"z": 1.7118959464,
				"element": "H" 
			},
			{
				"x": -2.5568507202,
				"y": -1.8321664122,
				"z": 1.556287499,
				"element": "H" 
			},
			{
				"x": -1.6114848559,
				"y": -3.5721740825,
				"z": 0.0524055721,
				"element": "H" 
			},
			{
				"x": 0.426582282,
				"y": -3.0644625005,
				"z": -1.3052063138,
				"element": "H" 
			}
		],
		 "valence_orbital": [ 
			{
				"type": "occ",
				"energy": -0.2819,
				"method": "rhf"
			},
			{
				"type": "occ",
				"energy": -0.27761,
				"method": "rhf"
			},
			{
				"type": "occ",
				"energy": -0.25248,
				"method": "rhf"
			},
			{
				"type": "occ",
				"energy": -0.2511,
				"method": "rhf"
			},
			{
				"type": "occ",
				"energy": -0.24414,
				"method": "rhf"
			},
			{
				"type": "unocc",
				"energy": -0.09218,
				"method": "rhf"
			},
			{
				"type": "unocc",
				"energy": -0.05428,
				"method": "rhf"
			},
			{
				"type": "unocc",
				"energy": -0.03571,
				"method": "rhf"
			},
			{
				"type": "unocc",
				"energy": 0.00277,
				"method": "rhf"
			},
			{
				"type": "unocc",
				"energy": 0.02141,
				"method": "rhf"
			}
		],
		"cosmo_sigma_profile": { 
			"-0.025": 0.0,
			"-0.024": 0.0,
			"-0.023": 0.0,
			"-0.022": 0.0,
			"-0.021": 0.0,
			"-0.02": 0.0,
			"-0.019": 0.0,
			"-0.018": 0.0,
			"-0.017": 0.0,
			"-0.016": 0.0,
			"-0.015": 0.0,
			"-0.014": 0.0,
			"-0.013": 0.0,
			"-0.012": 0.0,
			"-0.011": 0.0,
			"-0.01": 0.0,
			"-0.009": 0.0,
			"-0.008": 0.820598612156,
			"-0.007": 8.09731208435,
			"-0.006": 14.8010580419,
			"-0.005": 15.8015704722,
			"-0.004": 17.3179288302,
			"-0.003": 14.85184875,
			"-0.002": 17.2766964979,
			"-0.001": 20.2394374464,
			"0.0": 21.3318097211,
			"0.001": 22.9616982469,
			"0.002": 22.4160649456,
			"0.003": 16.4659168519,
			"0.004": 7.52215764758,
			"0.005": 4.51288766344,
			"0.006": 5.03405751731,
			"0.007": 4.0746510923,
			"0.008": 3.43879784827,
			"0.009": 4.47872791292,
			"0.01": 4.3621090205,
			"0.011": 3.46633686244,
			"0.012": 1.88733663923,
			"0.013": 0.0354345874684,
			"0.014": 0.0,
			"0.015": 0.0,
			"0.016": 0.0,
			"0.017": 0.0,
			"0.018": 0.0,
			"0.019": 0.0,
			"0.02": 0.0,
			"0.021": 0.0,
			"0.022": 0.0,
			"0.023": 0.0,
			"0.024": 0.0,
			"0.025": 0.0
		}
	}
}
