{
	 "smiles": "CC1=C2NC(=O)C3=C(OC(=O)C(NC(=O)C4=CC=CC=C4)=C3)C2=CC=C1", 
	 "Tm": 573.15, 
	 "num_atms": 40, 
	 "gaussian": { 
		 "optdone": 1, 
		 "sigma_profile": "yes", 
		 "theory": "DFT", 
		 "functional": "B3LYP", 
		 "basiset": "6-31G**", 
		 "properties": { 
			 "R2extent": 10952.8709, 
			 "electric_dipole_moment_norm": 6.93894421436, 
			 "electric_quadrupole_moment_norm": 19.8365450704, 
			 "total_energy": -1181.02172018, 
			 "HOMO_LUMO_gap": 0.13449, 
			 "cosmo_polarized_energy": -21.0, 
			 "cosmo_cavitation_energy": 45.03, 
			 "cosmo_dispersion_energy": -31.77, 
			 "cosmo_repulsion_energy": 2.35, 
			 "cosmo_total_nonelectrostatic_energy": 15.62, 
			 "SMD_solvation_energy": 9.49 
		},
		"coords": [
			{
				"x": 2.9626173356,
				"y": -1.5921489152,
				"z": -5.141316226,
				"element": "C" 
			},
			{
				"x": 3.3775091399,
				"y": -1.4714377938,
				"z": -3.6954267384,
				"element": "C" 
			},
			{
				"x": 2.5272779608,
				"y": -0.8531862252,
				"z": -2.7504702126,
				"element": "C" 
			},
			{
				"x": 1.2957540944,
				"y": -0.3448167512,
				"z": -3.1316523471,
				"element": "N" 
			},
			{
				"x": 0.363425223,
				"y": 0.2832887901,
				"z": -2.3102379683,
				"element": "C" 
			},
			{
				"x": -0.6997753694,
				"y": 0.6950580365,
				"z": -2.7618516641,
				"element": "O" 
			},
			{
				"x": 0.7723886141,
				"y": 0.3940763345,
				"z": -0.903698827,
				"element": "C" 
			},
			{
				"x": 1.9920048538,
				"y": -0.09561421,
				"z": -0.5031586782,
				"element": "C" 
			},
			{
				"x": 2.3829523799,
				"y": 0.0181204935,
				"z": 0.7931175456,
				"element": "O" 
			},
			{
				"x": 1.6001512738,
				"y": 0.6090988407,
				"z": 1.7700106177,
				"element": "C" 
			},
			{
				"x": 2.0514827973,
				"y": 0.7055809707,
				"z": 2.8904918248,
				"element": "O" 
			},
			{
				"x": 0.2731593953,
				"y": 1.0943755091,
				"z": 1.356134377,
				"element": "C" 
			},
			{
				"x": -0.4215138449,
				"y": 1.6488350104,
				"z": 2.4286192302,
				"element": "N" 
			},
			{
				"x": -1.6826439152,
				"y": 2.238070866,
				"z": 2.5379072928,
				"element": "C" 
			},
			{
				"x": -1.8613495989,
				"y": 3.0895796803,
				"z": 3.3970689634,
				"element": "O" 
			},
			{
				"x": -2.801623197,
				"y": 1.7602176318,
				"z": 1.6688079336,
				"element": "C" 
			},
			{
				"x": -3.7763462507,
				"y": 2.6919921089,
				"z": 1.285874935,
				"element": "C" 
			},
			{
				"x": -4.8827115909,
				"y": 2.2833720652,
				"z": 0.5445992924,
				"element": "C" 
			},
			{
				"x": -5.0396420173,
				"y": 0.9364702083,
				"z": 0.2079510987,
				"element": "C" 
			},
			{
				"x": -4.0873261127,
				"y": -0.0012161393,
				"z": 0.6136273541,
				"element": "C" 
			},
			{
				"x": -2.9680853822,
				"y": 0.4078394786,
				"z": 1.3372409712,
				"element": "C" 
			},
			{
				"x": -0.0977374621,
				"y": 1.0149923059,
				"z": 0.0443658467,
				"element": "C" 
			},
			{
				"x": 2.9185043008,
				"y": -0.7405785865,
				"z": -1.3939565278,
				"element": "C" 
			},
			{
				"x": 4.1660129378,
				"y": -1.2475239751,
				"z": -0.982294221,
				"element": "C" 
			},
			{
				"x": 5.0002019293,
				"y": -1.8539057173,
				"z": -1.9048527005,
				"element": "C" 
			},
			{
				"x": 4.6013867085,
				"y": -1.9603753171,
				"z": -3.2466474294,
				"element": "C" 
			},
			{
				"x": 2.7924327825,
				"y": -0.6106883259,
				"z": -5.6026249323,
				"element": "H" 
			},
			{
				"x": 3.7370869789,
				"y": -2.0950320186,
				"z": -5.7244684709,
				"element": "H" 
			},
			{
				"x": 2.0385641233,
				"y": -2.1735631057,
				"z": -5.2558265518,
				"element": "H" 
			},
			{
				"x": 1.0049883657,
				"y": -0.4155020272,
				"z": -4.0977304247,
				"element": "H" 
			},
			{
				"x": 0.1818464373,
				"y": 1.8711870821,
				"z": 3.215972443,
				"element": "H" 
			},
			{
				"x": -3.653116702,
				"y": 3.7284413683,
				"z": 1.5819456888,
				"element": "H" 
			},
			{
				"x": -5.6263810335,
				"y": 3.0121639218,
				"z": 0.2364159827,
				"element": "H" 
			},
			{
				"x": -5.9054209979,
				"y": 0.6169202717,
				"z": -0.3647560739,
				"element": "H" 
			},
			{
				"x": -4.2168296235,
				"y": -1.0508554352,
				"z": 0.3675305542,
				"element": "H" 
			},
			{
				"x": -2.2322470211,
				"y": -0.3226110689,
				"z": 1.6580589883,
				"element": "H" 
			},
			{
				"x": -1.0420444358,
				"y": 1.3969458462,
				"z": -0.3207379787,
				"element": "H" 
			},
			{
				"x": 4.4526164691,
				"y": -1.1522634287,
				"z": 0.0587267396,
				"element": "H" 
			},
			{
				"x": 5.9627262069,
				"y": -2.2470685378,
				"z": -1.5944498299,
				"element": "H" 
			},
			{
				"x": 5.2639042471,
				"y": -2.4378392419,
				"z": -3.9636098774,
				"element": "H" 
			}
		],
		 "valence_orbital": [ 
			{
				"type": "occ",
				"energy": -0.27019,
				"method": "rhf"
			},
			{
				"type": "occ",
				"energy": -0.26092,
				"method": "rhf"
			},
			{
				"type": "occ",
				"energy": -0.25306,
				"method": "rhf"
			},
			{
				"type": "occ",
				"energy": -0.23962,
				"method": "rhf"
			},
			{
				"type": "occ",
				"energy": -0.21487,
				"method": "rhf"
			},
			{
				"type": "unocc",
				"energy": -0.08038,
				"method": "rhf"
			},
			{
				"type": "unocc",
				"energy": -0.04805,
				"method": "rhf"
			},
			{
				"type": "unocc",
				"energy": -0.03587,
				"method": "rhf"
			},
			{
				"type": "unocc",
				"energy": -0.01773,
				"method": "rhf"
			},
			{
				"type": "unocc",
				"energy": -0.00879,
				"method": "rhf"
			}
		],
		"cosmo_sigma_profile": { 
			"-0.025": 0.0,
			"-0.024": 0.0,
			"-0.023": 0.0,
			"-0.022": 0.0,
			"-0.021": 0.0,
			"-0.02": 0.0,
			"-0.019": 0.0,
			"-0.018": 0.0,
			"-0.017": 0.0,
			"-0.016": 0.0,
			"-0.015": 0.0516660917843,
			"-0.014": 0.691526778499,
			"-0.013": 0.821602178592,
			"-0.012": 1.0567444006,
			"-0.011": 1.44122629369,
			"-0.01": 2.28307791924,
			"-0.009": 2.82373504724,
			"-0.008": 2.21650583087,
			"-0.007": 7.67786728253,
			"-0.006": 23.9138205452,
			"-0.005": 28.4449666748,
			"-0.004": 30.4493499399,
			"-0.003": 28.2407776365,
			"-0.002": 30.2242379367,
			"-0.001": 33.6422106293,
			"0.0": 29.552807757,
			"0.001": 20.0513989066,
			"0.002": 20.8387513687,
			"0.003": 21.7393438844,
			"0.004": 19.7926776969,
			"0.005": 5.15284653662,
			"0.006": 4.59636964198,
			"0.007": 4.66720649767,
			"0.008": 3.81268000941,
			"0.009": 5.23756831534,
			"0.01": 6.26239065593,
			"0.011": 8.2605089947,
			"0.012": 9.11971703763,
			"0.013": 7.70734422787,
			"0.014": 1.32441529675,
			"0.015": 0.0,
			"0.016": 0.0,
			"0.017": 0.0,
			"0.018": 0.0,
			"0.019": 0.0,
			"0.02": 0.0,
			"0.021": 0.0,
			"0.022": 0.0,
			"0.023": 0.0,
			"0.024": 0.0,
			"0.025": 0.0
		}
	}
}
