{
	 "smiles": "OC(=O)CC1=CSC(=N1)C1=CC=C(Cl)C=C1", 
	 "Tm": 529.15, 
	 "num_atms": 24, 
	 "gaussian": { 
		 "optdone": 1, 
		 "sigma_profile": "yes", 
		 "theory": "DFT", 
		 "functional": "B3LYP", 
		 "basiset": "6-31G**", 
		 "properties": { 
			 "R2extent": 7259.0278, 
			 "electric_dipole_moment_norm": 2.07198165291, 
			 "electric_quadrupole_moment_norm": 11.9725143408, 
			 "total_energy": -1487.5886277, 
			 "HOMO_LUMO_gap": 0.1638, 
			 "cosmo_polarized_energy": -10.93, 
			 "cosmo_cavitation_energy": 32.74, 
			 "cosmo_dispersion_energy": -24.86, 
			 "cosmo_repulsion_energy": 1.89, 
			 "cosmo_total_nonelectrostatic_energy": 9.77, 
			 "SMD_solvation_energy": 4.98 
		},
		"coords": [
			{
				"x": -2.3957966595,
				"y": -1.4732889203,
				"z": 4.727437978,
				"element": "O" 
			},
			{
				"x": -2.5555253642,
				"y": -0.9809478515,
				"z": 3.4760934174,
				"element": "C" 
			},
			{
				"x": -3.6433676755,
				"y": -0.6749901997,
				"z": 3.0377112613,
				"element": "O" 
			},
			{
				"x": -1.2168620092,
				"y": -0.8911018651,
				"z": 2.7777648658,
				"element": "C" 
			},
			{
				"x": -1.2037330541,
				"y": -0.3598269521,
				"z": 1.3692724316,
				"element": "C" 
			},
			{
				"x": -2.25828489,
				"y": 0.0631410897,
				"z": 0.6068793797,
				"element": "C" 
			},
			{
				"x": -1.6994642498,
				"y": 0.5798667497,
				"z": -0.9474831914,
				"element": "S" 
			},
			{
				"x": -0.0506823379,
				"y": 0.1844056902,
				"z": -0.4581948237,
				"element": "C" 
			},
			{
				"x": 0.0284868055,
				"y": -0.2862528114,
				"z": 0.759080694,
				"element": "N" 
			},
			{
				"x": 1.1094585028,
				"y": 0.3698794001,
				"z": -1.3390112812,
				"element": "C" 
			},
			{
				"x": 0.9889115165,
				"y": 0.8789056024,
				"z": -2.641719068,
				"element": "C" 
			},
			{
				"x": 2.1079089855,
				"y": 1.0437380209,
				"z": -3.4535416635,
				"element": "C" 
			},
			{
				"x": 3.3647835894,
				"y": 0.6959330164,
				"z": -2.9590554563,
				"element": "C" 
			},
			{
				"x": 4.7808402885,
				"y": 0.900923119,
				"z": -3.9766097595,
				"element": "Cl" 
			},
			{
				"x": 3.513015812,
				"y": 0.1874848141,
				"z": -1.6673755648,
				"element": "C" 
			},
			{
				"x": 2.3883718765,
				"y": 0.0271490877,
				"z": -0.8654680107,
				"element": "C" 
			},
			{
				"x": -3.2839629731,
				"y": -1.5067010937,
				"z": 5.1209084086,
				"element": "H" 
			},
			{
				"x": -0.7667500798,
				"y": -1.8918074023,
				"z": 2.7981237094,
				"element": "H" 
			},
			{
				"x": -0.556682466,
				"y": -0.281165274,
				"z": 3.407420895,
				"element": "H" 
			},
			{
				"x": -3.3009443957,
				"y": 0.09305942,
				"z": 0.8796328544,
				"element": "H" 
			},
			{
				"x": 0.0140670642,
				"y": 1.1525039844,
				"z": -3.0351624881,
				"element": "H" 
			},
			{
				"x": 2.0081193953,
				"y": 1.4374494718,
				"z": -4.4587383225,
				"element": "H" 
			},
			{
				"x": 4.4973552881,
				"y": -0.0781265418,
				"z": -1.298042949,
				"element": "H" 
			},
			{
				"x": 2.4820370305,
				"y": -0.3660305545,
				"z": 0.1404766833,
				"element": "H" 
			}
		],
		 "valence_orbital": [ 
			{
				"type": "occ",
				"energy": -0.28871,
				"method": "rhf"
			},
			{
				"type": "occ",
				"energy": -0.27967,
				"method": "rhf"
			},
			{
				"type": "occ",
				"energy": -0.27261,
				"method": "rhf"
			},
			{
				"type": "occ",
				"energy": -0.26823,
				"method": "rhf"
			},
			{
				"type": "occ",
				"energy": -0.22302,
				"method": "rhf"
			},
			{
				"type": "unocc",
				"energy": -0.05922,
				"method": "rhf"
			},
			{
				"type": "unocc",
				"energy": -0.01883,
				"method": "rhf"
			},
			{
				"type": "unocc",
				"energy": -0.00222,
				"method": "rhf"
			},
			{
				"type": "unocc",
				"energy": 0.01457,
				"method": "rhf"
			},
			{
				"type": "unocc",
				"energy": 0.01534,
				"method": "rhf"
			}
		],
		"cosmo_sigma_profile": { 
			"-0.025": 0.0,
			"-0.024": 0.0,
			"-0.023": 0.0,
			"-0.022": 0.0,
			"-0.021": 0.0,
			"-0.02": 0.0,
			"-0.019": 0.0679631614596,
			"-0.018": 0.717289540996,
			"-0.017": 1.37078397916,
			"-0.016": 0.505327391013,
			"-0.015": 0.534242875707,
			"-0.014": 1.11365728001,
			"-0.013": 0.364670640443,
			"-0.012": 0.468279182754,
			"-0.011": 1.31141745867,
			"-0.01": 0.609676365409,
			"-0.009": 0.365322815168,
			"-0.008": 4.28859827002,
			"-0.007": 12.9386755724,
			"-0.006": 13.7056984443,
			"-0.005": 12.4742324451,
			"-0.004": 12.6538935879,
			"-0.003": 11.8909935516,
			"-0.002": 14.8413645713,
			"-0.001": 16.2077796539,
			"0.0": 18.4517614127,
			"0.001": 29.4385923987,
			"0.002": 35.1344894978,
			"0.003": 28.6830681968,
			"0.004": 16.173055528,
			"0.005": 8.69274202982,
			"0.006": 4.29521767078,
			"0.007": 4.12014687563,
			"0.008": 4.0346437727,
			"0.009": 4.40627576339,
			"0.01": 4.06543545039,
			"0.011": 2.92857305826,
			"0.012": 0.703199352763,
			"0.013": 0.0,
			"0.014": 0.0,
			"0.015": 0.0,
			"0.016": 0.0,
			"0.017": 0.0,
			"0.018": 0.0,
			"0.019": 0.0,
			"0.02": 0.0,
			"0.021": 0.0,
			"0.022": 0.0,
			"0.023": 0.0,
			"0.024": 0.0,
			"0.025": 0.0
		}
	}
}
