{
	 "smiles": "CC1=C(Br)N=C2C=CC=CC2=C1", 
	 "Tm": 368.15, 
	 "num_atms": 20, 
	 "gaussian": { 
		 "optdone": 1, 
		 "sigma_profile": "yes", 
		 "theory": "DFT", 
		 "functional": "B3LYP", 
		 "basiset": "6-31G**", 
		 "properties": { 
			 "R2extent": 3491.4291, 
			 "electric_dipole_moment_norm": 3.33393767938, 
			 "electric_quadrupole_moment_norm": 8.65907251558, 
			 "total_energy": -3012.05782078, 
			 "HOMO_LUMO_gap": 0.17883, 
			 "cosmo_polarized_energy": -7.24, 
			 "cosmo_cavitation_energy": 25.97, 
			 "cosmo_dispersion_energy": -19.79, 
			 "cosmo_repulsion_energy": 1.55, 
			 "cosmo_total_nonelectrostatic_energy": 7.73, 
			 "SMD_solvation_energy": 1.73 
		},
		"coords": [
			{
				"x": 0.7670118799,
				"y": 3.2375939939,
				"z": -0.307752472,
				"element": "C" 
			},
			{
				"x": 0.1426040175,
				"y": 1.8722533229,
				"z": -0.2266641323,
				"element": "C" 
			},
			{
				"x": 0.0886948093,
				"y": 0.975657122,
				"z": -1.340734634,
				"element": "C" 
			},
			{
				"x": 0.8586866082,
				"y": 1.5660216624,
				"z": -3.0156797005,
				"element": "Br" 
			},
			{
				"x": -0.4308841537,
				"y": -0.2118789237,
				"z": -1.3467433578,
				"element": "N" 
			},
			{
				"x": -0.9898391725,
				"y": -0.6828731436,
				"z": -0.1922215206,
				"element": "C" 
			},
			{
				"x": -1.5619964294,
				"y": -1.9800692761,
				"z": -0.1835516896,
				"element": "C" 
			},
			{
				"x": -2.1309897846,
				"y": -2.4747263097,
				"z": 0.9696934635,
				"element": "C" 
			},
			{
				"x": -2.1514321845,
				"y": -1.6978052176,
				"z": 2.1547111677,
				"element": "C" 
			},
			{
				"x": -1.601815201,
				"y": -0.4345184951,
				"z": 2.171137248,
				"element": "C" 
			},
			{
				"x": -1.008551478,
				"y": 0.1026920758,
				"z": 0.9997138372,
				"element": "C" 
			},
			{
				"x": -0.4226615796,
				"y": 1.3927903313,
				"z": 0.9361838239,
				"element": "C" 
			},
			{
				"x": 0.2736272697,
				"y": 3.8557495728,
				"z": -1.0648864152,
				"element": "H" 
			},
			{
				"x": 1.8225867893,
				"y": 3.1754477046,
				"z": -0.5918475681,
				"element": "H" 
			},
			{
				"x": 0.6969968368,
				"y": 3.7483068131,
				"z": 0.6560883628,
				"element": "H" 
			},
			{
				"x": -1.53323394,
				"y": -2.5539411209,
				"z": -1.1038222653,
				"element": "H" 
			},
			{
				"x": -2.569125637,
				"y": -3.4684397135,
				"z": 0.9757227062,
				"element": "H" 
			},
			{
				"x": -2.604504196,
				"y": -2.1049825687,
				"z": 3.0537314581,
				"element": "H" 
			},
			{
				"x": -1.6154929267,
				"y": 0.1645015651,
				"z": 3.0780731404,
				"element": "H" 
			},
			{
				"x": -0.4208815278,
				"y": 2.016120605,
				"z": 1.8277485477,
				"element": "H" 
			}
		],
		 "valence_orbital": [ 
			{
				"type": "occ",
				"energy": -0.29436,
				"method": "rhf"
			},
			{
				"type": "occ",
				"energy": -0.28309,
				"method": "rhf"
			},
			{
				"type": "occ",
				"energy": -0.26574,
				"method": "rhf"
			},
			{
				"type": "occ",
				"energy": -0.2456,
				"method": "rhf"
			},
			{
				"type": "occ",
				"energy": -0.23692,
				"method": "rhf"
			},
			{
				"type": "unocc",
				"energy": -0.05809,
				"method": "rhf"
			},
			{
				"type": "unocc",
				"energy": -0.02391,
				"method": "rhf"
			},
			{
				"type": "unocc",
				"energy": 0.0117,
				"method": "rhf"
			},
			{
				"type": "unocc",
				"energy": 0.01383,
				"method": "rhf"
			},
			{
				"type": "unocc",
				"energy": 0.0777,
				"method": "rhf"
			}
		],
		"cosmo_sigma_profile": { 
			"-0.025": 0.0,
			"-0.024": 0.0,
			"-0.023": 0.0,
			"-0.022": 0.0,
			"-0.021": 0.0,
			"-0.02": 0.0,
			"-0.019": 0.0,
			"-0.018": 0.0,
			"-0.017": 0.0,
			"-0.016": 0.0,
			"-0.015": 0.0,
			"-0.014": 0.0,
			"-0.013": 0.0,
			"-0.012": 0.0,
			"-0.011": 0.0,
			"-0.01": 0.0,
			"-0.009": 0.0,
			"-0.008": 0.672382871743,
			"-0.007": 6.19896378345,
			"-0.006": 11.4249861427,
			"-0.005": 12.7375902784,
			"-0.004": 15.3213444944,
			"-0.003": 14.0283163332,
			"-0.002": 15.6470618129,
			"-0.001": 19.8157444067,
			"0.0": 19.8544167516,
			"0.001": 19.5784803048,
			"0.002": 19.3447489677,
			"0.003": 18.6416782328,
			"0.004": 17.8860182945,
			"0.005": 7.55955230435,
			"0.006": 3.20732428681,
			"0.007": 2.32371425818,
			"0.008": 1.79338729346,
			"0.009": 1.28866166564,
			"0.01": 0.636067164278,
			"0.011": 1.28837143127,
			"0.012": 1.09142875787,
			"0.013": 0.720675408522,
			"0.014": 0.445957561671,
			"0.015": 0.0,
			"0.016": 0.0,
			"0.017": 0.0,
			"0.018": 0.0,
			"0.019": 0.0,
			"0.02": 0.0,
			"0.021": 0.0,
			"0.022": 0.0,
			"0.023": 0.0,
			"0.024": 0.0,
			"0.025": 0.0
		}
	}
}
