{
	 "smiles": "OC(=O)C1=CC(NS(=O)(=O)C2=CC(Cl)=C(Cl)C=C2)=CC=C1", 
	 "Tm": 528.15, 
	 "num_atms": 30, 
	 "gaussian": { 
		 "optdone": 1, 
		 "sigma_profile": "yes", 
		 "theory": "DFT", 
		 "functional": "B3LYP", 
		 "basiset": "6-31G**", 
		 "properties": { 
			 "R2extent": 8542.401, 
			 "electric_dipole_moment_norm": 5.68575593039, 
			 "electric_quadrupole_moment_norm": 18.5259290558, 
			 "total_energy": -2174.96838777, 
			 "HOMO_LUMO_gap": 0.18303, 
			 "cosmo_polarized_energy": -21.72, 
			 "cosmo_cavitation_energy": 40.86, 
			 "cosmo_dispersion_energy": -28.34, 
			 "cosmo_repulsion_energy": 2.15, 
			 "cosmo_total_nonelectrostatic_energy": 14.67, 
			 "SMD_solvation_energy": 6.78 
		},
		"coords": [
			{
				"x": -3.7112817536,
				"y": -2.9993730735,
				"z": -0.7535373414,
				"element": "O" 
			},
			{
				"x": -3.3259910346,
				"y": -1.816096118,
				"z": -0.2144324275,
				"element": "C" 
			},
			{
				"x": -4.0492510685,
				"y": -0.8412050399,
				"z": -0.2081454895,
				"element": "O" 
			},
			{
				"x": -1.9468347412,
				"y": -1.8570721126,
				"z": 0.3496416987,
				"element": "C" 
			},
			{
				"x": -1.468941995,
				"y": -0.6917318034,
				"z": 0.9595498335,
				"element": "C" 
			},
			{
				"x": -0.1757949637,
				"y": -0.672324208,
				"z": 1.4915436099,
				"element": "C" 
			},
			{
				"x": 0.3360404541,
				"y": 0.4793587576,
				"z": 2.1465129645,
				"element": "N" 
			},
			{
				"x": 0.3012965869,
				"y": 2.0482950888,
				"z": 1.5037422637,
				"element": "S" 
			},
			{
				"x": -1.0863425556,
				"y": 2.3630667566,
				"z": 1.1785359646,
				"element": "O" 
			},
			{
				"x": 1.0955239354,
				"y": 2.8268969691,
				"z": 2.4526812283,
				"element": "O" 
			},
			{
				"x": 1.210223445,
				"y": 1.9792725181,
				"z": -0.0459901883,
				"element": "C" 
			},
			{
				"x": 0.5249515064,
				"y": 1.6934242733,
				"z": -1.2255236106,
				"element": "C" 
			},
			{
				"x": 1.2351193293,
				"y": 1.6098768068,
				"z": -2.4245996051,
				"element": "C" 
			},
			{
				"x": 0.3628989655,
				"y": 1.2526185172,
				"z": -3.8895576212,
				"element": "Cl" 
			},
			{
				"x": 2.6231658764,
				"y": 1.8202333344,
				"z": -2.4301363029,
				"element": "C" 
			},
			{
				"x": 3.5468995273,
				"y": 1.727925393,
				"z": -3.9032409323,
				"element": "Cl" 
			},
			{
				"x": 3.2906232677,
				"y": 2.1197349715,
				"z": -1.2379864581,
				"element": "C" 
			},
			{
				"x": 2.5890949166,
				"y": 2.1994505839,
				"z": -0.0398506404,
				"element": "C" 
			},
			{
				"x": 0.6187590075,
				"y": -1.8270766169,
				"z": 1.4266645173,
				"element": "C" 
			},
			{
				"x": 0.1219063421,
				"y": -2.9917174035,
				"z": 0.8445499676,
				"element": "C" 
			},
			{
				"x": -1.1582174277,
				"y": -3.0136509733,
				"z": 0.2945335593,
				"element": "C" 
			},
			{
				"x": -4.6122589473,
				"y": -2.8564774669,
				"z": -1.0871939001,
				"element": "H" 
			},
			{
				"x": -2.1086284394,
				"y": 0.1803042827,
				"z": 1.0181320781,
				"element": "H" 
			},
			{
				"x": 1.1990798606,
				"y": 0.3420829705,
				"z": 2.6620268478,
				"element": "H" 
			},
			{
				"x": -0.5497571315,
				"y": 1.5577745432,
				"z": -1.2205909806,
				"element": "H" 
			},
			{
				"x": 4.3601298694,
				"y": 2.2953818919,
				"z": -1.2640496483,
				"element": "H" 
			},
			{
				"x": 3.0962716756,
				"y": 2.453138452,
				"z": 0.8842566366,
				"element": "H" 
			},
			{
				"x": 1.6254061119,
				"y": -1.8111730594,
				"z": 1.8371298932,
				"element": "H" 
			},
			{
				"x": 0.7445167242,
				"y": -3.8803618207,
				"z": 0.8099072041,
				"element": "H" 
			},
			{
				"x": -1.5475073441,
				"y": -3.9112764144,
				"z": -0.1703731214,
				"element": "H" 
			}
		],
		 "valence_orbital": [ 
			{
				"type": "occ",
				"energy": -0.28525,
				"method": "rhf"
			},
			{
				"type": "occ",
				"energy": -0.2832,
				"method": "rhf"
			},
			{
				"type": "occ",
				"energy": -0.27511,
				"method": "rhf"
			},
			{
				"type": "occ",
				"energy": -0.2732,
				"method": "rhf"
			},
			{
				"type": "occ",
				"energy": -0.24758,
				"method": "rhf"
			},
			{
				"type": "unocc",
				"energy": -0.06455,
				"method": "rhf"
			},
			{
				"type": "unocc",
				"energy": -0.05883,
				"method": "rhf"
			},
			{
				"type": "unocc",
				"energy": -0.0458,
				"method": "rhf"
			},
			{
				"type": "unocc",
				"energy": -0.02544,
				"method": "rhf"
			},
			{
				"type": "unocc",
				"energy": -0.01195,
				"method": "rhf"
			}
		],
		"cosmo_sigma_profile": { 
			"-0.025": 0.0,
			"-0.024": 0.0,
			"-0.023": 0.0,
			"-0.022": 0.0,
			"-0.021": 0.0,
			"-0.02": 0.0,
			"-0.019": 0.108901042021,
			"-0.018": 0.803056374767,
			"-0.017": 1.05680246256,
			"-0.016": 1.80022934717,
			"-0.015": 1.73075360577,
			"-0.014": 2.06394299729,
			"-0.013": 2.15529415698,
			"-0.012": 2.18790194038,
			"-0.011": 2.47421239574,
			"-0.01": 1.65811350256,
			"-0.009": 3.4311893124,
			"-0.008": 8.39155700603,
			"-0.007": 9.70230970028,
			"-0.006": 12.6712497084,
			"-0.005": 11.5474998878,
			"-0.004": 11.7731688558,
			"-0.003": 15.8501550114,
			"-0.002": 22.4751000945,
			"-0.001": 36.0756365252,
			"0.0": 30.591816276,
			"0.001": 24.8471706725,
			"0.002": 29.526040938,
			"0.003": 31.0256438341,
			"0.004": 15.4599139814,
			"0.005": 7.05121930623,
			"0.006": 6.82694374819,
			"0.007": 7.60859188958,
			"0.008": 4.96448845253,
			"0.009": 6.56365107004,
			"0.01": 9.72031189732,
			"0.011": 7.86855993334,
			"0.012": 3.09515259543,
			"0.013": 0.00903719333821,
			"0.014": 0.0,
			"0.015": 0.0,
			"0.016": 0.0,
			"0.017": 0.0,
			"0.018": 0.0,
			"0.019": 0.0,
			"0.02": 0.0,
			"0.021": 0.0,
			"0.022": 0.0,
			"0.023": 0.0,
			"0.024": 0.0,
			"0.0": 0.0
		}
	}
}
