{
	 "smiles": "C[Si]1(O[Si](C)(O[Si](C)(O1)C1=CC=CC=C1)C1=CC=CC=C1)C1=CC=CC=C1", 
	 "Tm": 373.15, 
	 "num_atms": 51, 
	 "gaussian": { 
		 "optdone": 1, 
		 "sigma_profile": "yes", 
		 "theory": "DFT", 
		 "functional": "B3LYP", 
		 "basiset": "6-31G**", 
		 "properties": { 
			 "R2extent": 12482.2636, 
			 "electric_dipole_moment_norm": 0.188906564206, 
			 "electric_quadrupole_moment_norm": 8.12797611525, 
			 "total_energy": -1909.22440107, 
			 "HOMO_LUMO_gap": 0.23259, 
			 "cosmo_polarized_energy": -10.47, 
			 "cosmo_cavitation_energy": 59.36, 
			 "cosmo_dispersion_energy": -32.71, 
			 "cosmo_repulsion_energy": 2.74, 
			 "cosmo_total_nonelectrostatic_energy": 29.4, 
			 "SMD_solvation_energy": 11.19 
		},
		"coords": [
			{
				"x": 2.6390517629,
				"y": 0.2704718998,
				"z": 1.5554745813,
				"element": "C" 
			},
			{
				"x": 1.3984606384,
				"y": 1.4856226686,
				"z": 0.864067049,
				"element": "Si" 
			},
			{
				"x": 1.152378012,
				"y": 1.1802633151,
				"z": -0.7556718625,
				"element": "O" 
			},
			{
				"x": -0.2112376508,
				"y": 0.715468506,
				"z": -1.599707973,
				"element": "Si" 
			},
			{
				"x": -0.4495454428,
				"y": 1.8723335513,
				"z": -3.0483080457,
				"element": "C" 
			},
			{
				"x": -1.5136677136,
				"y": 0.8413871545,
				"z": -0.5674160459,
				"element": "O" 
			},
			{
				"x": -1.6094894756,
				"y": 1.0866518177,
				"z": 1.0805428332,
				"element": "Si" 
			},
			{
				"x": -2.6138783235,
				"y": 2.6319327674,
				"z": 1.3988290879,
				"element": "C" 
			},
			{
				"x": -0.0570730342,
				"y": 1.2819007751,
				"z": 1.655590264,
				"element": "O" 
			},
			{
				"x": -2.3486552239,
				"y": -0.428861287,
				"z": 1.8938599537,
				"element": "C" 
			},
			{
				"x": -3.5416571591,
				"y": -0.997262031,
				"z": 1.4083911542,
				"element": "C" 
			},
			{
				"x": -4.1122466131,
				"y": -2.1126231689,
				"z": 2.0224866159,
				"element": "C" 
			},
			{
				"x": -3.4990905044,
				"y": -2.6823984247,
				"z": 3.14085444,
				"element": "C" 
			},
			{
				"x": -2.315685419,
				"y": -2.1345378088,
				"z": 3.6384573037,
				"element": "C" 
			},
			{
				"x": -1.7475092398,
				"y": -1.0193033136,
				"z": 3.019303962,
				"element": "C" 
			},
			{
				"x": -0.0247726835,
				"y": -1.0725462454,
				"z": -2.125590529,
				"element": "C" 
			},
			{
				"x": -1.0456492826,
				"y": -2.012824836,
				"z": -1.8993640295,
				"element": "C" 
			},
			{
				"x": -0.9093341446,
				"y": -3.3389252524,
				"z": -2.3152407711,
				"element": "C" 
			},
			{
				"x": 0.2540094404,
				"y": -3.7505462122,
				"z": -2.9672307018,
				"element": "C" 
			},
			{
				"x": 1.2823804153,
				"y": -2.8337642496,
				"z": -3.1985914038,
				"element": "C" 
			},
			{
				"x": 1.1418722327,
				"y": -1.5101795392,
				"z": -2.7810046862,
				"element": "C" 
			},
			{
				"x": 1.9373421934,
				"y": 3.270028852,
				"z": 1.0486035183,
				"element": "C" 
			},
			{
				"x": 2.6678738894,
				"y": 3.9157616762,
				"z": 0.0343429667,
				"element": "C" 
			},
			{
				"x": 3.1005163974,
				"y": 5.2343096553,
				"z": 0.1848067342,
				"element": "C" 
			},
			{
				"x": 2.8083618027,
				"y": 5.9351639763,
				"z": 1.3566955117,
				"element": "C" 
			},
			{
				"x": 2.0803653173,
				"y": 5.3147862542,
				"z": 2.3741628336,
				"element": "C" 
			},
			{
				"x": 1.6502130371,
				"y": 3.9960309383,
				"z": 2.2192136464,
				"element": "C" 
			},
			{
				"x": 2.2853656312,
				"y": -0.7573875758,
				"z": 1.4251480129,
				"element": "H" 
			},
			{
				"x": 3.6038084997,
				"y": 0.3659976053,
				"z": 1.0465582064,
				"element": "H" 
			},
			{
				"x": 2.8041293973,
				"y": 0.4434599964,
				"z": 2.6240880551,
				"element": "H" 
			},
			{
				"x": 0.3928488563,
				"y": 1.8084219229,
				"z": -3.7450870012,
				"element": "H" 
			},
			{
				"x": -0.5301814576,
				"y": 2.909385944,
				"z": -2.7070260023,
				"element": "H" 
			},
			{
				"x": -1.3613728714,
				"y": 1.6213871479,
				"z": -3.5999914386,
				"element": "H" 
			},
			{
				"x": -3.6303176137,
				"y": 2.5283085842,
				"z": 1.0046464051,
				"element": "H" 
			},
			{
				"x": -2.1509862932,
				"y": 3.5008674332,
				"z": 0.9198084222,
				"element": "H" 
			},
			{
				"x": -2.6887562954,
				"y": 2.834332208,
				"z": 2.4722841963,
				"element": "H" 
			},
			{
				"x": -4.0297399022,
				"y": -0.5698185956,
				"z": 0.5348943966,
				"element": "H" 
			},
			{
				"x": -5.0320933357,
				"y": -2.5378963207,
				"z": 1.6301956126,
				"element": "H" 
			},
			{
				"x": -3.9417853804,
				"y": -3.5509249575,
				"z": 3.6208730365,
				"element": "H" 
			},
			{
				"x": -1.8340404738,
				"y": -2.5774010451,
				"z": 4.5060842726,
				"element": "H" 
			},
			{
				"x": -0.8217835538,
				"y": -0.6043538973,
				"z": 3.408466963,
				"element": "H" 
			},
			{
				"x": -1.9496994532,
				"y": -1.706571255,
				"z": -1.3806961182,
				"element": "H" 
			},
			{
				"x": -1.7084169592,
				"y": -4.0507767193,
				"z": -2.1267181185,
				"element": "H" 
			},
			{
				"x": 0.3617187422,
				"y": -4.7823092011,
				"z": -3.2908217789,
				"element": "H" 
			},
			{
				"x": 2.192462777,
				"y": -3.1516752376,
				"z": -3.7001664308,
				"element": "H" 
			},
			{
				"x": 1.9576272672,
				"y": -0.8127120079,
				"z": -2.9589261161,
				"element": "H" 
			},
			{
				"x": 2.8896091907,
				"y": 3.3847687688,
				"z": -0.887980219,
				"element": "H" 
			},
			{
				"x": 3.6608272415,
				"y": 5.7162018242,
				"z": -0.6119135964,
				"element": "H" 
			},
			{
				"x": 3.1431854747,
				"y": 6.9621403389,
				"z": 1.4750175834,
				"element": "H" 
			},
			{
				"x": 1.8451032494,
				"y": 5.8593682873,
				"z": 3.284650516,
				"element": "H" 
			},
			{
				"x": 1.0728540339,
				"y": 3.5290453126,
				"z": 3.0134547339,
				"element": "H" 
			}
		],
		 "valence_orbital": [ 
			{
				"type": "occ",
				"energy": -0.2482,
				"method": "rhf"
			},
			{
				"type": "occ",
				"energy": -0.24813,
				"method": "rhf"
			},
			{
				"type": "occ",
				"energy": -0.24765,
				"method": "rhf"
			},
			{
				"type": "occ",
				"energy": -0.24591,
				"method": "rhf"
			},
			{
				"type": "occ",
				"energy": -0.24544,
				"method": "rhf"
			},
			{
				"type": "unocc",
				"energy": -0.01285,
				"method": "rhf"
			},
			{
				"type": "unocc",
				"energy": -0.01239,
				"method": "rhf"
			},
			{
				"type": "unocc",
				"energy": -0.01005,
				"method": "rhf"
			},
			{
				"type": "unocc",
				"energy": 8e-05,
				"method": "rhf"
			},
			{
				"type": "unocc",
				"energy": 0.00057,
				"method": "rhf"
			}
		],
		"cosmo_sigma_profile": { 
			"-0.025": 0.0,
			"-0.024": 0.0,
			"-0.023": 0.0,
			"-0.022": 0.0,
			"-0.021": 0.0,
			"-0.02": 0.0,
			"-0.019": 0.0,
			"-0.018": 0.0,
			"-0.017": 0.0,
			"-0.016": 0.0,
			"-0.015": 0.0,
			"-0.014": 0.0,
			"-0.013": 0.0,
			"-0.012": 0.0,
			"-0.011": 0.0,
			"-0.01": 0.0,
			"-0.009": 0.0,
			"-0.008": 0.0,
			"-0.007": 0.0,
			"-0.006": 10.8291554346,
			"-0.005": 32.8943508166,
			"-0.004": 48.0915963612,
			"-0.003": 47.9493784959,
			"-0.002": 40.0706017406,
			"-0.001": 36.1111038996,
			"0.0": 43.4316054167,
			"0.001": 38.9353249739,
			"0.002": 37.0481186266,
			"0.003": 31.3923926025,
			"0.004": 31.2301254362,
			"0.005": 32.2037017565,
			"0.006": 21.6324225793,
			"0.007": 2.96543615023,
			"0.008": 1.86419003711,
			"0.009": 1.51866575807,
			"0.01": 0.708851229652,
			"0.011": 0.141687282786,
			"0.012": 0.0,
			"0.013": 0.0,
			"0.014": 0.0,
			"0.015": 0.0,
			"0.016": 0.0,
			"0.017": 0.0,
			"0.018": 0.0,
			"0.019": 0.0,
			"0.02": 0.0,
			"0.021": 0.0,
			"0.022": 0.0,
			"0.023": 0.0,
			"0.024": 0.0,
			"0.025": 0.0
		}
	}
}
