{
	 "smiles": "CC1=C(C=NO1)C(=O)NC1=CC(C(O)=O)=C(O)C=C1", 
	 "Tm": 523.15, 
	 "num_atms": 29, 
	 "gaussian": { 
		 "optdone": 1, 
		 "sigma_profile": "yes", 
		 "theory": "DFT", 
		 "functional": "B3LYP", 
		 "basiset": "6-31G**", 
		 "properties": { 
			 "R2extent": 5652.0672, 
			 "electric_dipole_moment_norm": 3.02627974087, 
			 "electric_quadrupole_moment_norm": 19.7750515264, 
			 "total_energy": -948.905196216, 
			 "HOMO_LUMO_gap": 0.16331, 
			 "cosmo_polarized_energy": -22.83, 
			 "cosmo_cavitation_energy": 34.42, 
			 "cosmo_dispersion_energy": -24.29, 
			 "cosmo_repulsion_energy": 1.86, 
			 "cosmo_total_nonelectrostatic_energy": 11.98, 
			 "SMD_solvation_energy": 8.01 
		},
		"coords": [
			{
				"x": 0.9738941434,
				"y": 0.6483784793,
				"z": 3.7600057314,
				"element": "C" 
			},
			{
				"x": 1.3853809252,
				"y": 0.4963210466,
				"z": 2.3388692513,
				"element": "C" 
			},
			{
				"x": 0.7827743875,
				"y": 0.7993518056,
				"z": 1.1373529625,
				"element": "C" 
			},
			{
				"x": 1.7614167829,
				"y": 0.3999835008,
				"z": 0.1719366599,
				"element": "C" 
			},
			{
				"x": 2.8349516416,
				"y": -0.1029290665,
				"z": 0.7229347256,
				"element": "N" 
			},
			{
				"x": 2.5891433665,
				"y": -0.0511399412,
				"z": 2.1078223822,
				"element": "O" 
			},
			{
				"x": -0.5286537501,
				"y": 1.4729290618,
				"z": 0.9931208796,
				"element": "C" 
			},
			{
				"x": -1.0269889575,
				"y": 2.1192336657,
				"z": 1.9115926226,
				"element": "O" 
			},
			{
				"x": -1.1809276814,
				"y": 1.4080275194,
				"z": -0.2252339193,
				"element": "N" 
			},
			{
				"x": -1.0338076349,
				"y": 0.4871791974,
				"z": -1.2966370712,
				"element": "C" 
			},
			{
				"x": -0.9163027362,
				"y": -0.8824485145,
				"z": -1.0821729645,
				"element": "C" 
			},
			{
				"x": -0.783203109,
				"y": -1.7832712747,
				"z": -2.1546101669,
				"element": "C" 
			},
			{
				"x": -0.5985897164,
				"y": -3.2391272994,
				"z": -1.9590550702,
				"element": "C" 
			},
			{
				"x": -0.2969992904,
				"y": -3.6999543118,
				"z": -0.7299664921,
				"element": "O" 
			},
			{
				"x": -0.7001955404,
				"y": -4.0464310956,
				"z": -2.8762359533,
				"element": "O" 
			},
			{
				"x": -0.8633201686,
				"y": -1.2932937672,
				"z": -3.4857605157,
				"element": "C" 
			},
			{
				"x": -0.8150977101,
				"y": -2.0906745407,
				"z": -4.5569561488,
				"element": "O" 
			},
			{
				"x": -0.9924371359,
				"y": 0.0921547778,
				"z": -3.6949945117,
				"element": "C" 
			},
			{
				"x": -1.0602847614,
				"y": 0.9634357926,
				"z": -2.621913014,
				"element": "C" 
			},
			{
				"x": 1.6878982804,
				"y": 1.2867869405,
				"z": 4.2908780183,
				"element": "H" 
			},
			{
				"x": -0.0116447556,
				"y": 1.1098110261,
				"z": 3.8020414804,
				"element": "H" 
			},
			{
				"x": 0.9626524759,
				"y": -0.3236460338,
				"z": 4.264264122,
				"element": "H" 
			},
			{
				"x": 1.7194571417,
				"y": 0.4789962557,
				"z": -0.9057037299,
				"element": "H" 
			},
			{
				"x": -2.0085031674,
				"y": 1.9934893467,
				"z": -0.2282608185,
				"element": "H" 
			},
			{
				"x": -0.9608918812,
				"y": -1.2456539282,
				"z": -0.059624126,
				"element": "H" 
			},
			{
				"x": -0.0637278691,
				"y": -2.9725232163,
				"z": -0.1367475048,
				"element": "H" 
			},
			{
				"x": -0.7883977424,
				"y": -3.0220805625,
				"z": -4.2199862431,
				"element": "H" 
			},
			{
				"x": -1.0336908031,
				"y": 0.4522813448,
				"z": -4.7170649455,
				"element": "H" 
			},
			{
				"x": -1.1449047339,
				"y": 2.0324137915,
				"z": -2.7951956403,
				"element": "H" 
			}
		],
		 "valence_orbital": [ 
			{
				"type": "occ",
				"energy": -0.29382,
				"method": "rhf"
			},
			{
				"type": "occ",
				"energy": -0.28981,
				"method": "rhf"
			},
			{
				"type": "occ",
				"energy": -0.27878,
				"method": "rhf"
			},
			{
				"type": "occ",
				"energy": -0.26722,
				"method": "rhf"
			},
			{
				"type": "occ",
				"energy": -0.23685,
				"method": "rhf"
			},
			{
				"type": "unocc",
				"energy": -0.07354,
				"method": "rhf"
			},
			{
				"type": "unocc",
				"energy": -0.04584,
				"method": "rhf"
			},
			{
				"type": "unocc",
				"energy": -0.02824,
				"method": "rhf"
			},
			{
				"type": "unocc",
				"energy": -0.00665,
				"method": "rhf"
			},
			{
				"type": "unocc",
				"energy": 0.02565,
				"method": "rhf"
			}
		],
		"cosmo_sigma_profile": { 
			"-0.025": 0.0,
			"-0.024": 0.0,
			"-0.023": 0.0,
			"-0.022": 0.0,
			"-0.021": 0.0,
			"-0.02": 0.0,
			"-0.019": 0.316874074789,
			"-0.018": 0.702839487123,
			"-0.017": 0.86705176587,
			"-0.016": 1.20293796965,
			"-0.015": 1.05652985021,
			"-0.014": 2.56398811167,
			"-0.013": 2.59461731517,
			"-0.012": 1.66123060775,
			"-0.011": 2.59947952872,
			"-0.01": 2.21141479095,
			"-0.009": 2.74530541496,
			"-0.008": 6.06352908975,
			"-0.007": 12.2304421446,
			"-0.006": 13.672441668,
			"-0.005": 14.3371709818,
			"-0.004": 16.5202579753,
			"-0.003": 20.6678064334,
			"-0.002": 23.381101894,
			"-0.001": 17.5883283983,
			"0.0": 16.718693097,
			"0.001": 17.4208309775,
			"0.002": 13.522395728,
			"0.003": 8.5267216823,
			"0.004": 6.77888229334,
			"0.005": 8.71947069058,
			"0.006": 6.83447816371,
			"0.007": 10.0634125361,
			"0.008": 8.66184857015,
			"0.009": 8.98512914463,
			"0.01": 8.54130902973,
			"0.011": 6.11531956412,
			"0.012": 6.47209208188,
			"0.013": 4.81373875175,
			"0.014": 0.818761046248,
			"0.015": 0.0,
			"0.016": 0.0,
			"0.017": 0.0,
			"0.018": 0.0,
			"0.019": 0.0,
			"0.02": 0.0,
			"0.021": 0.0,
			"0.022": 0.0,
			"0.023": 0.0,
			"0.024": 0.0,
			"0.025": 0.0
		}
	}
}
