{
	 "smiles": "O=C1NC(=O)C2(CCNC2)N1", 
	 "Tm": 475.15, 
	 "num_atms": 20, 
	 "gaussian": { 
		 "optdone": 1, 
		 "sigma_profile": "yes", 
		 "theory": "DFT", 
		 "functional": "B3LYP", 
		 "basiset": "6-31G**", 
		 "properties": { 
			 "R2extent": 1811.4525, 
			 "electric_dipole_moment_norm": 3.23761286444, 
			 "electric_quadrupole_moment_norm": 9.09369914226, 
			 "total_energy": -548.794999357, 
			 "HOMO_LUMO_gap": 0.22823, 
			 "cosmo_polarized_energy": -15.67, 
			 "cosmo_cavitation_energy": 23.2, 
			 "cosmo_dispersion_energy": -17.24, 
			 "cosmo_repulsion_energy": 1.41, 
			 "cosmo_total_nonelectrostatic_energy": 7.37, 
			 "SMD_solvation_energy": 2.89 
		},
		"coords": [
			{
				"x": 0.4390348408,
				"y": 3.1160318335,
				"z": 0.1290625392,
				"element": "O" 
			},
			{
				"x": -0.0577969666,
				"y": 2.094131726,
				"z": -0.2957030062,
				"element": "C" 
			},
			{
				"x": -1.1993057246,
				"y": 2.0149330281,
				"z": -1.1297106617,
				"element": "N" 
			},
			{
				"x": -1.5853481552,
				"y": 0.7225619739,
				"z": -1.4060986113,
				"element": "C" 
			},
			{
				"x": -2.5177794264,
				"y": 0.3592051708,
				"z": -2.094071753,
				"element": "O" 
			},
			{
				"x": -0.5963359496,
				"y": -0.1799172329,
				"z": -0.6541949837,
				"element": "C" 
			},
			{
				"x": 0.073981784,
				"y": -1.2604003046,
				"z": -1.5465939342,
				"element": "C" 
			},
			{
				"x": 0.202752864,
				"y": -2.5090186095,
				"z": -0.6328010736,
				"element": "C" 
			},
			{
				"x": -0.1985942998,
				"y": -2.0130246446,
				"z": 0.6945187362,
				"element": "N" 
			},
			{
				"x": -1.2611807347,
				"y": -1.0408194354,
				"z": 0.4408695606,
				"element": "C" 
			},
			{
				"x": 0.3385192819,
				"y": 0.79485767,
				"z": -0.1048292241,
				"element": "N" 
			},
			{
				"x": -1.6667788792,
				"y": 2.8382491243,
				"z": -1.4808467762,
				"element": "H" 
			},
			{
				"x": -0.5685145215,
				"y": -1.4657349342,
				"z": -2.4062719375,
				"element": "H" 
			},
			{
				"x": 1.0362694907,
				"y": -0.8973544353,
				"z": -1.9129855681,
				"element": "H" 
			},
			{
				"x": -0.45475374,
				"y": -3.3105565937,
				"z": -1.0065001018,
				"element": "H" 
			},
			{
				"x": 1.2225318836,
				"y": -2.9051717413,
				"z": -0.5985424424,
				"element": "H" 
			},
			{
				"x": -0.4938654549,
				"y": -2.7609304545,
				"z": 1.3151887401,
				"element": "H" 
			},
			{
				"x": -2.1920340812,
				"y": -1.4725486499,
				"z": 0.0326681949,
				"element": "H" 
			},
			{
				"x": -1.5022662652,
				"y": -0.4616265365,
				"z": 1.3371593561,
				"element": "H" 
			},
			{
				"x": 0.9835640539,
				"y": 0.5567330458,
				"z": 0.6339829466,
				"element": "H" 
			}
		],
		 "valence_orbital": [ 
			{
				"type": "occ",
				"energy": -0.28952,
				"method": "rhf"
			},
			{
				"type": "occ",
				"energy": -0.2878,
				"method": "rhf"
			},
			{
				"type": "occ",
				"energy": -0.26822,
				"method": "rhf"
			},
			{
				"type": "occ",
				"energy": -0.26088,
				"method": "rhf"
			},
			{
				"type": "occ",
				"energy": -0.23925,
				"method": "rhf"
			},
			{
				"type": "unocc",
				"energy": -0.01102,
				"method": "rhf"
			},
			{
				"type": "unocc",
				"energy": 0.05954,
				"method": "rhf"
			},
			{
				"type": "unocc",
				"energy": 0.06696,
				"method": "rhf"
			},
			{
				"type": "unocc",
				"energy": 0.09177,
				"method": "rhf"
			},
			{
				"type": "unocc",
				"energy": 0.0931,
				"method": "rhf"
			}
		],
		"cosmo_sigma_profile": { 
			"-0.025": 0.0,
			"-0.024": 0.0,
			"-0.023": 0.0,
			"-0.022": 0.0,
			"-0.021": 0.0,
			"-0.02": 0.0,
			"-0.019": 0.0,
			"-0.018": 0.0,
			"-0.017": 0.213626624043,
			"-0.016": 1.46844228304,
			"-0.015": 0.9245946953,
			"-0.014": 1.70893870459,
			"-0.013": 1.86147663989,
			"-0.012": 0.967506865093,
			"-0.011": 2.29155846486,
			"-0.01": 3.68909316802,
			"-0.009": 2.419661713,
			"-0.008": 2.70941159445,
			"-0.007": 3.33834908396,
			"-0.006": 4.47925754509,
			"-0.005": 8.74675706414,
			"-0.004": 13.6333743345,
			"-0.003": 27.3695825291,
			"-0.002": 20.4776977021,
			"-0.001": 15.2979562135,
			"0.0": 7.22025959355,
			"0.001": 4.88091863436,
			"0.002": 5.34513310553,
			"0.003": 5.50910574611,
			"0.004": 3.86331520462,
			"0.005": 2.70675916202,
			"0.006": 2.48055688169,
			"0.007": 3.61010785484,
			"0.008": 3.16960947829,
			"0.009": 2.96926294335,
			"0.01": 3.74288150821,
			"0.011": 5.22125441967,
			"0.012": 9.74642389683,
			"0.013": 7.68762452146,
			"0.014": 1.69181488857,
			"0.015": 0.290804740284,
			"0.016": 0.0,
			"0.017": 0.0,
			"0.018": 0.0,
			"0.019": 0.0,
			"0.02": 0.0,
			"0.021": 0.0,
			"0.022": 0.0,
			"0.023": 0.0,
			"0.024": 0.0,
			"0.025": 0.0
		}
	}
}
