{
	 "smiles": "C(CC1=CC=C(C=C1)C#CC1=CC=CC=C1)C1=CC=CC=C1", 
	 "Tm": 378.15, 
	 "num_atms": 40, 
	 "gaussian": { 
		 "optdone": 1, 
		 "sigma_profile": "yes", 
		 "theory": "DFT", 
		 "functional": "B3LYP", 
		 "basiset": "6-31G**", 
		 "properties": { 
			 "R2extent": 12610.7001, 
			 "electric_dipole_moment_norm": 0.467219381019, 
			 "electric_quadrupole_moment_norm": 13.6307269689, 
			 "total_energy": -849.152539859, 
			 "HOMO_LUMO_gap": 0.16047, 
			 "cosmo_polarized_energy": -8.91, 
			 "cosmo_cavitation_energy": 45.55, 
			 "cosmo_dispersion_energy": -31.11, 
			 "cosmo_repulsion_energy": 2.4, 
			 "cosmo_total_nonelectrostatic_energy": 16.84, 
			 "SMD_solvation_energy": 7.16 
		},
		"coords": [
			{
				"x": 3.6221338121,
				"y": 0.5526704003,
				"z": -3.1641482064,
				"element": "C" 
			},
			{
				"x": 2.2645981795,
				"y": -0.1273981893,
				"z": -3.4994943145,
				"element": "C" 
			},
			{
				"x": 1.5260384371,
				"y": -0.6626906821,
				"z": -2.2934315551,
				"element": "C" 
			},
			{
				"x": 0.5389549222,
				"y": 0.0938361714,
				"z": -1.6456234133,
				"element": "C" 
			},
			{
				"x": -0.1232555161,
				"y": -0.3933540631,
				"z": -0.5232170084,
				"element": "C" 
			},
			{
				"x": 0.1852010466,
				"y": -1.6669842546,
				"z": -0.0058357935,
				"element": "C" 
			},
			{
				"x": 1.1770830543,
				"y": -2.4306217681,
				"z": -0.6541284829,
				"element": "C" 
			},
			{
				"x": 1.8295641613,
				"y": -1.9313990944,
				"z": -1.7758746247,
				"element": "C" 
			},
			{
				"x": -0.4912735875,
				"y": -2.1730251763,
				"z": 1.1409361697,
				"element": "C" 
			},
			{
				"x": -1.0686211209,
				"y": -2.6051171126,
				"z": 2.1209205408,
				"element": "C" 
			},
			{
				"x": -1.7452492871,
				"y": -3.1104690876,
				"z": 3.2684750936,
				"element": "C" 
			},
			{
				"x": -1.4358646716,
				"y": -4.3874026219,
				"z": 3.7801660421,
				"element": "C" 
			},
			{
				"x": -2.0997152797,
				"y": -4.8767968897,
				"z": 4.9017244903,
				"element": "C" 
			},
			{
				"x": -3.0805196469,
				"y": -4.1074084947,
				"z": 5.533027086,
				"element": "C" 
			},
			{
				"x": -3.3950815389,
				"y": -2.8405850413,
				"z": 5.0343206428,
				"element": "C" 
			},
			{
				"x": -2.7366394522,
				"y": -2.3427055757,
				"z": 3.9133146205,
				"element": "C" 
			},
			{
				"x": 3.4925912463,
				"y": 1.8448655265,
				"z": -2.3867182205,
				"element": "C" 
			},
			{
				"x": 3.2144454695,
				"y": 3.0485298389,
				"z": -3.0511186913,
				"element": "C" 
			},
			{
				"x": 3.0702144176,
				"y": 4.2429125828,
				"z": -2.3447842028,
				"element": "C" 
			},
			{
				"x": 3.2040513784,
				"y": 4.2543936976,
				"z": -0.9545983748,
				"element": "C" 
			},
			{
				"x": 3.4824299138,
				"y": 3.0644911104,
				"z": -0.2805968291,
				"element": "C" 
			},
			{
				"x": 3.6243784838,
				"y": 1.8715576362,
				"z": -0.9919641721,
				"element": "C" 
			},
			{
				"x": 4.2428819233,
				"y": -0.157049596,
				"z": -2.6054544807,
				"element": "H" 
			},
			{
				"x": 4.1409860783,
				"y": 0.7488128914,
				"z": -4.1103815196,
				"element": "H" 
			},
			{
				"x": 1.6329803662,
				"y": 0.5925927096,
				"z": -4.032238075,
				"element": "H" 
			},
			{
				"x": 2.4630457433,
				"y": -0.9505411236,
				"z": -4.1966318997,
				"element": "H" 
			},
			{
				"x": 0.2876415648,
				"y": 1.0795991363,
				"z": -2.0270761415,
				"element": "H" 
			},
			{
				"x": -0.8863872863,
				"y": 0.2049967159,
				"z": -0.0358849503,
				"element": "H" 
			},
			{
				"x": 1.4210235807,
				"y": -3.4163245895,
				"z": -0.2708153289,
				"element": "H" 
			},
			{
				"x": 2.5861618415,
				"y": -2.5403392864,
				"z": -2.2656767473,
				"element": "H" 
			},
			{
				"x": -0.6737039559,
				"y": -4.9827157694,
				"z": 3.2876929203,
				"element": "H" 
			},
			{
				"x": -1.8512098744,
				"y": -5.8623368713,
				"z": 5.2850711439,
				"element": "H" 
			},
			{
				"x": -3.596339073,
				"y": -4.4925193361,
				"z": 6.4077657124,
				"element": "H" 
			},
			{
				"x": -4.1567825786,
				"y": -2.2381819431,
				"z": 5.5210599446,
				"element": "H" 
			},
			{
				"x": -2.9788304964,
				"y": -1.3591942312,
				"z": 3.5236396832,
				"element": "H" 
			},
			{
				"x": 3.117274407,
				"y": 3.049620575,
				"z": -4.134804782,
				"element": "H" 
			},
			{
				"x": 2.8601448535,
				"y": 5.1651142918,
				"z": -2.8797036536,
				"element": "H" 
			},
			{
				"x": 3.0963768293,
				"y": 5.183777732,
				"z": -0.4026265937,
				"element": "H" 
			},
			{
				"x": 3.5908778289,
				"y": 3.063149412,
				"z": 0.8004637944,
				"element": "H" 
			},
			{
				"x": 3.8398938262,
				"y": 0.9489403701,
				"z": -0.4595498227,
				"element": "H" 
			}
		],
		 "valence_orbital": [ 
			{
				"type": "occ",
				"energy": -0.25295,
				"method": "rhf"
			},
			{
				"type": "occ",
				"energy": -0.25259,
				"method": "rhf"
			},
			{
				"type": "occ",
				"energy": -0.24478,
				"method": "rhf"
			},
			{
				"type": "occ",
				"energy": -0.23781,
				"method": "rhf"
			},
			{
				"type": "occ",
				"energy": -0.20473,
				"method": "rhf"
			},
			{
				"type": "unocc",
				"energy": -0.04426,
				"method": "rhf"
			},
			{
				"type": "unocc",
				"energy": -0.00332,
				"method": "rhf"
			},
			{
				"type": "unocc",
				"energy": -0.0016,
				"method": "rhf"
			},
			{
				"type": "unocc",
				"energy": 0.00239,
				"method": "rhf"
			},
			{
				"type": "unocc",
				"energy": 0.00407,
				"method": "rhf"
			}
		],
		"cosmo_sigma_profile": { 
			"-0.025": 0.0,
			"-0.024": 0.0,
			"-0.023": 0.0,
			"-0.022": 0.0,
			"-0.021": 0.0,
			"-0.02": 0.0,
			"-0.019": 0.0,
			"-0.018": 0.0,
			"-0.017": 0.0,
			"-0.016": 0.0,
			"-0.015": 0.0,
			"-0.014": 0.0,
			"-0.013": 0.0,
			"-0.012": 0.0,
			"-0.011": 0.0,
			"-0.01": 0.0,
			"-0.009": 0.0,
			"-0.008": 0.0,
			"-0.007": 0.544187756009,
			"-0.006": 13.4273494746,
			"-0.005": 26.364598313,
			"-0.004": 39.2868316973,
			"-0.003": 39.3509181657,
			"-0.002": 29.9470415144,
			"-0.001": 27.248661259,
			"0.0": 23.1865426685,
			"0.001": 22.9863747477,
			"0.002": 23.6068692609,
			"0.003": 33.8747442234,
			"0.004": 36.473317232,
			"0.005": 31.9099173088,
			"0.006": 13.6771941943,
			"0.007": 2.76324834158,
			"0.008": 0.0,
			"0.009": 0.0,
			"0.01": 0.0,
			"0.011": 0.0,
			"0.012": 0.0,
			"0.013": 0.0,
			"0.014": 0.0,
			"0.015": 0.0,
			"0.016": 0.0,
			"0.017": 0.0,
			"0.018": 0.0,
			"0.019": 0.0,
			"0.02": 0.0,
			"0.021": 0.0,
			"0.022": 0.0,
			"0.023": 0.0,
			"0.024": 0.0,
			"0.025": 0.0
		}
	}
}
