{
	 "smiles": "N#CC1=NN=CN1", 
	 "Tm": 462.15, 
	 "num_atms": 9, 
	 "gaussian": { 
		 "optdone": 1, 
		 "sigma_profile": "yes", 
		 "theory": "DFT", 
		 "functional": "B3LYP", 
		 "basiset": "6-31G**", 
		 "properties": { 
			 "R2extent": 927.1709, 
			 "electric_dipole_moment_norm": 5.69861221088, 
			 "electric_quadrupole_moment_norm": 7.51146101434, 
			 "total_energy": -334.470688251, 
			 "HOMO_LUMO_gap": 0.2249, 
			 "cosmo_polarized_energy": -20.04, 
			 "cosmo_cavitation_energy": 15.16, 
			 "cosmo_dispersion_energy": -10.86, 
			 "cosmo_repulsion_energy": 0.93, 
			 "cosmo_total_nonelectrostatic_energy": 5.23, 
			 "SMD_solvation_energy": 2.76 
		},
		"coords": [
			{
				"x": 2.5431832539,
				"y": 1.2574488614,
				"z": 0.5134283839,
				"element": "N" 
			},
			{
				"x": 1.7069403875,
				"y": 0.4902850851,
				"z": 0.7653762114,
				"element": "C" 
			},
			{
				"x": 0.6694368165,
				"y": -0.4423754047,
				"z": 1.0398438142,
				"element": "C" 
			},
			{
				"x": 0.4958868668,
				"y": -1.123324235,
				"z": 2.1584547836,
				"element": "N" 
			},
			{
				"x": -0.6200296436,
				"y": -1.8999284186,
				"z": 1.9906553966,
				"element": "N" 
			},
			{
				"x": -1.0902768231,
				"y": -1.6709530333,
				"z": 0.7835295838,
				"element": "C" 
			},
			{
				"x": -0.3154931008,
				"y": -0.757566704,
				"z": 0.1353375664,
				"element": "N" 
			},
			{
				"x": -1.965146757,
				"y": -2.1307657222,
				"z": 0.3475145278,
				"element": "H" 
			},
			{
				"x": -0.4294010002,
				"y": -0.3884204288,
				"z": -0.7980402677,
				"element": "H" 
			}
		],
		 "valence_orbital": [ 
			{
				"type": "occ",
				"energy": -0.36923,
				"method": "rhf"
			},
			{
				"type": "occ",
				"energy": -0.34358,
				"method": "rhf"
			},
			{
				"type": "occ",
				"energy": -0.34149,
				"method": "rhf"
			},
			{
				"type": "occ",
				"energy": -0.2893,
				"method": "rhf"
			},
			{
				"type": "occ",
				"energy": -0.28514,
				"method": "rhf"
			},
			{
				"type": "unocc",
				"energy": -0.06024,
				"method": "rhf"
			},
			{
				"type": "unocc",
				"energy": -0.00672,
				"method": "rhf"
			},
			{
				"type": "unocc",
				"energy": 0.00247,
				"method": "rhf"
			},
			{
				"type": "unocc",
				"energy": 0.04295,
				"method": "rhf"
			},
			{
				"type": "unocc",
				"energy": 0.11079,
				"method": "rhf"
			}
		],
		"cosmo_sigma_profile": { 
			"-0.025": 0.0,
			"-0.024": 0.0,
			"-0.023": 0.0,
			"-0.022": 0.0,
			"-0.021": 0.0,
			"-0.02": 0.611577538908,
			"-0.019": 2.47002241068,
			"-0.018": 1.7024373867,
			"-0.017": 1.26521913668,
			"-0.016": 1.59988149175,
			"-0.015": 1.3649534718,
			"-0.014": 1.00550690295,
			"-0.013": 1.4804841881,
			"-0.012": 3.00195566637,
			"-0.011": 3.60125302639,
			"-0.01": 2.83503169589,
			"-0.009": 2.29731382055,
			"-0.008": 2.25885446822,
			"-0.007": 2.81169445417,
			"-0.006": 2.33292963523,
			"-0.005": 4.1060818013,
			"-0.004": 6.96132615693,
			"-0.003": 6.59932303649,
			"-0.002": 4.11570788975,
			"-0.001": 5.44916273765,
			"0.0": 5.06310514503,
			"0.001": 4.30539828419,
			"0.002": 4.06359437595,
			"0.003": 4.16422840507,
			"0.004": 4.49649481953,
			"0.005": 5.06679486173,
			"0.006": 4.09741439733,
			"0.007": 4.75160938261,
			"0.008": 5.77927496974,
			"0.009": 5.05032934415,
			"0.01": 4.47672651128,
			"0.011": 5.94104968089,
			"0.012": 2.8426927777,
			"0.013": 2.50993126863,
			"0.014": 2.35598090875,
			"0.015": 1.14177126656,
			"0.016": 0.0855366723653,
			"0.017": 0.0,
			"0.018": 0.0,
			"0.019": 0.0,
			"0.02": 0.0,
			"0.021": 0.0,
			"0.022": 0.0,
			"0.023": 0.0,
			"0.024": 0.0,
			"0.025": 0.0
		}
	}
}
