{
	 "smiles": "COC(=O)C1=CC(C(=O)OC)=C(C=C1C(=O)OC)C(=O)OC", 
	 "Tm": 417.15, 
	 "num_atms": 36, 
	 "gaussian": { 
		 "optdone": 1, 
		 "sigma_profile": "yes", 
		 "theory": "DFT", 
		 "functional": "B3LYP", 
		 "basiset": "6-31G**", 
		 "properties": { 
			 "R2extent": 7878.1631, 
			 "electric_dipole_moment_norm": 0.000346410161514, 
			 "electric_quadrupole_moment_norm": 36.4865242968, 
			 "total_energy": -1143.73812433, 
			 "HOMO_LUMO_gap": 0.18106, 
			 "cosmo_polarized_energy": -18.17, 
			 "cosmo_cavitation_energy": 42.81, 
			 "cosmo_dispersion_energy": -28.98, 
			 "cosmo_repulsion_energy": 2.27, 
			 "cosmo_total_nonelectrostatic_energy": 16.1, 
			 "SMD_solvation_energy": 13.1 
		},
		"coords": [
			{
				"x": 0.3209801463,
				"y": -4.6994459047,
				"z": 1.4894785464,
				"element": "C" 
			},
			{
				"x": 0.2675167972,
				"y": -3.4347176913,
				"z": 0.8078246849,
				"element": "O" 
			},
			{
				"x": -0.3756613781,
				"y": -2.4554083928,
				"z": 1.4673937453,
				"element": "C" 
			},
			{
				"x": -1.0084893067,
				"y": -2.6140359737,
				"z": 2.48876685,
				"element": "O" 
			},
			{
				"x": -0.3090806321,
				"y": -1.1500327187,
				"z": 0.7253002669,
				"element": "C" 
			},
			{
				"x": -1.5230745802,
				"y": -0.5068143053,
				"z": 0.4801014469,
				"element": "C" 
			},
			{
				"x": -1.5811983125,
				"y": 0.6831864751,
				"z": -0.2525134433,
				"element": "C" 
			},
			{
				"x": -2.9104573753,
				"y": 1.2593884482,
				"z": -0.6328817343,
				"element": "C" 
			},
			{
				"x": -3.1145391407,
				"y": 1.9109582683,
				"z": -1.6362972827,
				"element": "O" 
			},
			{
				"x": -3.8724077074,
				"y": 0.9281881462,
				"z": 0.2518618943,
				"element": "O" 
			},
			{
				"x": -5.1942441887,
				"y": 1.3880669065,
				"z": -0.0782430277,
				"element": "C" 
			},
			{
				"x": -0.3870679733,
				"y": 1.2577099147,
				"z": -0.7260553049,
				"element": "C" 
			},
			{
				"x": 0.8269263058,
				"y": 0.6144857803,
				"z": -0.4808572425,
				"element": "C" 
			},
			{
				"x": 0.8850466744,
				"y": -0.5755208193,
				"z": 0.2517435536,
				"element": "C" 
			},
			{
				"x": 2.2142934264,
				"y": -1.1517551574,
				"z": 0.6320998238,
				"element": "C" 
			},
			{
				"x": 2.4183501888,
				"y": -1.8033829469,
				"z": 1.635482761,
				"element": "O" 
			},
			{
				"x": 3.1762669658,
				"y": -0.8204937755,
				"z": -0.252593515,
				"element": "O" 
			},
			{
				"x": 4.4980937859,
				"y": -1.2803933383,
				"z": 0.0775214635,
				"element": "C" 
			},
			{
				"x": -0.3204539902,
				"y": 2.5631092563,
				"z": -1.4681144778,
				"element": "C" 
			},
			{
				"x": 0.3122908737,
				"y": 2.7217076426,
				"z": -2.4895434191,
				"element": "O" 
			},
			{
				"x": -0.9634289276,
				"y": 3.5424792886,
				"z": -0.8084424379,
				"element": "O" 
			},
			{
				"x": -1.0168150013,
				"y": 4.8072376472,
				"z": -1.490049805,
				"element": "C" 
			},
			{
				"x": 0.9117895391,
				"y": -4.6046182759,
				"z": 2.4039096231,
				"element": "H" 
			},
			{
				"x": 0.801376634,
				"y": -5.3872909028,
				"z": 0.7941155202,
				"element": "H" 
			},
			{
				"x": -0.684054386,
				"y": -5.0437883564,
				"z": 1.7432327809,
				"element": "H" 
			},
			{
				"x": -2.4390778803,
				"y": -0.9529633844,
				"z": 0.8479613862,
				"element": "H" 
			},
			{
				"x": -5.5144618884,
				"y": 0.9778406562,
				"z": -1.0391491248,
				"element": "H" 
			},
			{
				"x": -5.2151222993,
				"y": 2.4789592821,
				"z": -0.1348755711,
				"element": "H" 
			},
			{
				"x": -5.8368421232,
				"y": 1.032459898,
				"z": 0.7264928699,
				"element": "H" 
			},
			{
				"x": 1.7429319275,
				"y": 1.0606359213,
				"z": -0.8487106256,
				"element": "H" 
			},
			{
				"x": 4.5189734421,
				"y": -2.3712898148,
				"z": 0.1340756058,
				"element": "H" 
			},
			{
				"x": 5.1407169194,
				"y": -0.9247258054,
				"z": -0.7271674117,
				"element": "H" 
			},
			{
				"x": 4.8182782928,
				"y": -0.8702351476,
				"z": 1.0384676671,
				"element": "H" 
			},
			{
				"x": -1.4970975004,
				"y": 5.4951059025,
				"z": -0.794631406,
				"element": "H" 
			},
			{
				"x": -1.6076934905,
				"y": 4.7125010261,
				"z": -2.4044452664,
				"element": "H" 
			},
			{
				"x": -0.0117638372,
				"y": 5.1514922507,
				"z": -1.7438593944,
				"element": "H" 
			}
		],
		 "valence_orbital": [ 
			{
				"type": "occ",
				"energy": -0.28704,
				"method": "rhf"
			},
			{
				"type": "occ",
				"energy": -0.28653,
				"method": "rhf"
			},
			{
				"type": "occ",
				"energy": -0.278,
				"method": "rhf"
			},
			{
				"type": "occ",
				"energy": -0.27449,
				"method": "rhf"
			},
			{
				"type": "occ",
				"energy": -0.26211,
				"method": "rhf"
			},
			{
				"type": "unocc",
				"energy": -0.08105,
				"method": "rhf"
			},
			{
				"type": "unocc",
				"energy": -0.04481,
				"method": "rhf"
			},
			{
				"type": "unocc",
				"energy": -0.00658,
				"method": "rhf"
			},
			{
				"type": "unocc",
				"energy": 0.0218,
				"method": "rhf"
			},
			{
				"type": "unocc",
				"energy": 0.02475,
				"method": "rhf"
			}
		],
		"cosmo_sigma_profile": { 
			"-0.025": 0.0,
			"-0.024": 0.0,
			"-0.023": 0.0,
			"-0.022": 0.0,
			"-0.021": 0.0,
			"-0.02": 0.0,
			"-0.019": 0.0,
			"-0.018": 0.0,
			"-0.017": 0.0,
			"-0.016": 0.0,
			"-0.015": 0.0,
			"-0.014": 0.0,
			"-0.013": 0.0,
			"-0.012": 0.0,
			"-0.011": 0.0,
			"-0.01": 0.0,
			"-0.009": 0.0,
			"-0.008": 0.222694342881,
			"-0.007": 9.30083516011,
			"-0.006": 25.457177814,
			"-0.005": 33.4634088707,
			"-0.004": 39.277404092,
			"-0.003": 33.949253481,
			"-0.002": 25.8253028998,
			"-0.001": 25.844750516,
			"0.0": 19.9049495514,
			"0.001": 16.6100945502,
			"0.002": 13.6581133222,
			"0.003": 12.6670753838,
			"0.004": 12.2394408707,
			"0.005": 11.5543166839,
			"0.006": 12.4344865191,
			"0.007": 9.58069695792,
			"0.008": 4.57743866524,
			"0.009": 7.07092030041,
			"0.01": 9.46432164123,
			"0.011": 14.0102655414,
			"0.012": 3.78738794138,
			"0.013": 0.00313644869691,
			"0.014": 0.0,
			"0.015": 0.0,
			"0.016": 0.0,
			"0.017": 0.0,
			"0.018": 0.0,
			"0.019": 0.0,
			"0.02": 0.0,
			"0.021": 0.0,
			"0.022": 0.0,
			"0.023": 0.0,
			"0.024": 0.0,
			"0.025": 0.0
		}
	}
}
