{
	 "smiles": "CC1=NC(=CO1)C1=CC=C(N)C=C1", 
	 "Tm": 386.15, 
	 "num_atms": 23, 
	 "gaussian": { 
		 "optdone": 1, 
		 "sigma_profile": "yes", 
		 "theory": "DFT", 
		 "functional": "B3LYP", 
		 "basiset": "6-31G**", 
		 "properties": { 
			 "R2extent": 3359.068, 
			 "electric_dipole_moment_norm": 1.62145925943, 
			 "electric_quadrupole_moment_norm": 19.1768491267, 
			 "total_energy": -571.818854557, 
			 "HOMO_LUMO_gap": 0.17693, 
			 "cosmo_polarized_energy": -12.55, 
			 "cosmo_cavitation_energy": 27.38, 
			 "cosmo_dispersion_energy": -20.44, 
			 "cosmo_repulsion_energy": 1.61, 
			 "cosmo_total_nonelectrostatic_energy": 8.55, 
			 "SMD_solvation_energy": 4.11 
		},
		"coords": [
			{
				"x": -3.7334891004,
				"y": -1.179600404,
				"z": -0.8870618279,
				"element": "C" 
			},
			{
				"x": -2.3035810121,
				"y": -1.098892969,
				"z": -0.4826206257,
				"element": "C" 
			},
			{
				"x": -1.6593962792,
				"y": -0.0866459422,
				"z": 0.0078239257,
				"element": "N" 
			},
			{
				"x": -0.3507007888,
				"y": -0.5414157588,
				"z": 0.2112314854,
				"element": "C" 
			},
			{
				"x": -0.2937229238,
				"y": -1.845005375,
				"z": -0.1855212696,
				"element": "C" 
			},
			{
				"x": -1.5392011595,
				"y": -2.2159911698,
				"z": -0.6323565021,
				"element": "O" 
			},
			{
				"x": 0.6879062938,
				"y": 0.3320870217,
				"z": 0.7632431578,
				"element": "C" 
			},
			{
				"x": 2.0081746311,
				"y": -0.1093162079,
				"z": 0.9527915523,
				"element": "C" 
			},
			{
				"x": 2.9829907606,
				"y": 0.7305872023,
				"z": 1.475824519,
				"element": "C" 
			},
			{
				"x": 2.672271782,
				"y": 2.0554866741,
				"z": 1.8319430815,
				"element": "C" 
			},
			{
				"x": 3.6350836667,
				"y": 2.8843912736,
				"z": 2.4103138457,
				"element": "N" 
			},
			{
				"x": 1.35293563,
				"y": 2.5017720419,
				"z": 1.6441503287,
				"element": "C" 
			},
			{
				"x": 0.3830745097,
				"y": 1.6552752267,
				"z": 1.1206089691,
				"element": "C" 
			},
			{
				"x": -4.2061393003,
				"y": -0.2136029746,
				"z": -0.707443387,
				"element": "H" 
			},
			{
				"x": -4.2622047018,
				"y": -1.9486321068,
				"z": -0.3140514602,
				"element": "H" 
			},
			{
				"x": -3.8292750753,
				"y": -1.4330652216,
				"z": -1.9481400692,
				"element": "H" 
			},
			{
				"x": 0.4709643226,
				"y": -2.6029778625,
				"z": -0.2199283473,
				"element": "H" 
			},
			{
				"x": 2.2842743623,
				"y": -1.1257631563,
				"z": 0.6847821155,
				"element": "H" 
			},
			{
				"x": 3.9964418617,
				"y": 0.3621434628,
				"z": 1.6159481008,
				"element": "H" 
			},
			{
				"x": 4.5932748322,
				"y": 2.6498558694,
				"z": 2.1896142261,
				"element": "H" 
			},
			{
				"x": 3.4595592268,
				"y": 3.8754999775,
				"z": 2.3166302066,
				"element": "H" 
			},
			{
				"x": 1.0900998642,
				"y": 3.5214329951,
				"z": 1.9161880152,
				"element": "H" 
			},
			{
				"x": -0.6315414024,
				"y": 2.0110774034,
				"z": 0.9775299595,
				"element": "H" 
			}
		],
		 "valence_orbital": [ 
			{
				"type": "occ",
				"energy": -0.2926,
				"method": "rhf"
			},
			{
				"type": "occ",
				"energy": -0.27658,
				"method": "rhf"
			},
			{
				"type": "occ",
				"energy": -0.24355,
				"method": "rhf"
			},
			{
				"type": "occ",
				"energy": -0.24071,
				"method": "rhf"
			},
			{
				"type": "occ",
				"energy": -0.18584,
				"method": "rhf"
			},
			{
				"type": "unocc",
				"energy": -0.00891,
				"method": "rhf"
			},
			{
				"type": "unocc",
				"energy": 0.00717,
				"method": "rhf"
			},
			{
				"type": "unocc",
				"energy": 0.0248,
				"method": "rhf"
			},
			{
				"type": "unocc",
				"energy": 0.07957,
				"method": "rhf"
			},
			{
				"type": "unocc",
				"energy": 0.10007,
				"method": "rhf"
			}
		],
		"cosmo_sigma_profile": { 
			"-0.025": 0.0,
			"-0.024": 0.0,
			"-0.023": 0.0,
			"-0.022": 0.0,
			"-0.021": 0.0,
			"-0.02": 0.0,
			"-0.019": 0.0,
			"-0.018": 0.0,
			"-0.017": 0.0,
			"-0.016": 0.0,
			"-0.015": 0.0,
			"-0.014": 0.0,
			"-0.013": 0.41814223692,
			"-0.012": 2.44444317061,
			"-0.011": 2.55621571791,
			"-0.01": 3.27198703522,
			"-0.009": 4.94155143246,
			"-0.008": 5.11531203195,
			"-0.007": 6.7911730029,
			"-0.006": 10.6789523634,
			"-0.005": 12.6930434624,
			"-0.004": 14.0069769269,
			"-0.003": 14.7974962205,
			"-0.002": 15.5567109627,
			"-0.001": 12.3349272108,
			"0.0": 11.6865269669,
			"0.001": 9.72100508547,
			"0.002": 12.3171267124,
			"0.003": 12.2657760147,
			"0.004": 16.50074849,
			"0.005": 13.8706880281,
			"0.006": 15.3724485952,
			"0.007": 7.09390023727,
			"0.008": 3.38193369196,
			"0.009": 2.01117178513,
			"0.01": 2.04074296543,
			"0.011": 1.89076257852,
			"0.012": 1.23391576856,
			"0.013": 1.98384838508,
			"0.014": 1.31348200371,
			"0.015": 0.136986402934,
			"0.016": 0.0,
			"0.017": 0.0,
			"0.018": 0.0,
			"0.019": 0.0,
			"0.02": 0.0,
			"0.021": 0.0,
			"0.022": 0.0,
			"0.023": 0.0,
			"0.024": 0.0,
			"0.025": 0.0
		}
	}
}
