{
	 "smiles": "OC[C@H]1O[C@H]([C@H](O)[C@@H]1O)N1C=CC(=O)NC1=O", 
	 "Tm": 440.65, 
	 "num_atms": 29, 
	 "gaussian": { 
		 "optdone": 1, 
		 "sigma_profile": "yes", 
		 "theory": "DFT", 
		 "functional": "B3LYP", 
		 "basiset": "6-31G**", 
		 "properties": { 
			 "R2extent": 4472.48, 
			 "electric_dipole_moment_norm": 4.39212377558, 
			 "electric_quadrupole_moment_norm": 22.383318854, 
			 "total_energy": -911.027326708, 
			 "HOMO_LUMO_gap": 0.20446, 
			 "cosmo_polarized_energy": -28.0, 
			 "cosmo_cavitation_energy": 32.7, 
			 "cosmo_dispersion_energy": -23.32, 
			 "cosmo_repulsion_energy": 1.82, 
			 "cosmo_total_nonelectrostatic_energy": 11.19, 
			 "SMD_solvation_energy": 6.82 
		},
		"coords": [
			{
				"x": -1.3360341478,
				"y": 2.8917940063,
				"z": -2.4165390198,
				"element": "O" 
			},
			{
				"x": -1.9318484946,
				"y": 2.213743633,
				"z": -1.329577007,
				"element": "C" 
			},
			{
				"x": -1.8319016277,
				"y": 0.7048359904,
				"z": -1.4732770168,
				"element": "C" 
			},
			{
				"x": -0.432761623,
				"y": 0.3417489648,
				"z": -1.4902847994,
				"element": "O" 
			},
			{
				"x": -0.2298833435,
				"y": -0.9206447866,
				"z": -0.8838388865,
				"element": "C" 
			},
			{
				"x": -1.6166453908,
				"y": -1.4356485784,
				"z": -0.4531868343,
				"element": "C" 
			},
			{
				"x": -2.1380598513,
				"y": -2.2111053423,
				"z": -1.5089042797,
				"element": "O" 
			},
			{
				"x": -2.4271016918,
				"y": -0.1255978732,
				"z": -0.3350203507,
				"element": "C" 
			},
			{
				"x": -3.8158040821,
				"y": -0.3204844029,
				"z": -0.5653455011,
				"element": "O" 
			},
			{
				"x": 0.7089439119,
				"y": -0.7649803547,
				"z": 0.2604719166,
				"element": "N" 
			},
			{
				"x": 1.0829423859,
				"y": 0.4610945114,
				"z": 0.7646247231,
				"element": "C" 
			},
			{
				"x": 1.9559411904,
				"y": 0.6019941218,
				"z": 1.7875484718,
				"element": "C" 
			},
			{
				"x": 2.5645562294,
				"y": -0.5687586939,
				"z": 2.4007841859,
				"element": "C" 
			},
			{
				"x": 3.3592169196,
				"y": -0.582622252,
				"z": 3.3266132118,
				"element": "O" 
			},
			{
				"x": 2.1433566503,
				"y": -1.7770263902,
				"z": 1.8014752182,
				"element": "N" 
			},
			{
				"x": 1.2536421319,
				"y": -1.9554605695,
				"z": 0.7595892744,
				"element": "C" 
			},
			{
				"x": 0.950786988,
				"y": -3.0492491466,
				"z": 0.3090722033,
				"element": "O" 
			},
			{
				"x": -0.4333392093,
				"y": 2.5547310538,
				"z": -2.5001912567,
				"element": "H" 
			},
			{
				"x": -2.9894815431,
				"y": 2.4963464617,
				"z": -1.3146717942,
				"element": "H" 
			},
			{
				"x": -1.4905234346,
				"y": 2.5174668458,
				"z": -0.3640601394,
				"element": "H" 
			},
			{
				"x": -2.2918136166,
				"y": 0.3954668469,
				"z": -2.4198276483,
				"element": "H" 
			},
			{
				"x": 0.2248232335,
				"y": -1.6252096681,
				"z": -1.5833253227,
				"element": "H" 
			},
			{
				"x": -1.5614989147,
				"y": -2.0083493519,
				"z": 0.4811170521,
				"element": "H" 
			},
			{
				"x": -3.0906570029,
				"y": -2.0233905712,
				"z": -1.5345769096,
				"element": "H" 
			},
			{
				"x": -2.245526017,
				"y": 0.3615453931,
				"z": 0.6332138936,
				"element": "H" 
			},
			{
				"x": -4.2375940086,
				"y": -0.5696578696,
				"z": 0.2672436893,
				"element": "H" 
			},
			{
				"x": 0.6320515698,
				"y": 1.3057072007,
				"z": 0.2619573318,
				"element": "H" 
			},
			{
				"x": 2.2322631468,
				"y": 1.5782199326,
				"z": 2.1614546642,
				"element": "H" 
			},
			{
				"x": 2.5429496419,
				"y": -2.6288091109,
				"z": 2.1773609302,
				"element": "H" 
			}
		],
		 "valence_orbital": [ 
			{
				"type": "occ",
				"energy": -0.28911,
				"method": "rhf"
			},
			{
				"type": "occ",
				"energy": -0.28426,
				"method": "rhf"
			},
			{
				"type": "occ",
				"energy": -0.28183,
				"method": "rhf"
			},
			{
				"type": "occ",
				"energy": -0.26177,
				"method": "rhf"
			},
			{
				"type": "occ",
				"energy": -0.24583,
				"method": "rhf"
			},
			{
				"type": "unocc",
				"energy": -0.04137,
				"method": "rhf"
			},
			{
				"type": "unocc",
				"energy": 0.00679,
				"method": "rhf"
			},
			{
				"type": "unocc",
				"energy": 0.02617,
				"method": "rhf"
			},
			{
				"type": "unocc",
				"energy": 0.05521,
				"method": "rhf"
			},
			{
				"type": "unocc",
				"energy": 0.08,
				"method": "rhf"
			}
		],
		"cosmo_sigma_profile": { 
			"-0.025": 0.0,
			"-0.024": 0.0,
			"-0.023": 0.0,
			"-0.022": 0.0,
			"-0.021": 0.0,
			"-0.02": 0.0,
			"-0.019": 0.0,
			"-0.018": 0.256825958803,
			"-0.017": 1.27199938793,
			"-0.016": 1.36632074247,
			"-0.015": 2.59091318822,
			"-0.014": 2.36079038853,
			"-0.013": 2.70731219472,
			"-0.012": 1.67831949557,
			"-0.011": 2.66850385335,
			"-0.01": 3.64764835933,
			"-0.009": 3.66781405397,
			"-0.008": 7.62228384172,
			"-0.007": 16.9488960916,
			"-0.006": 16.8972786884,
			"-0.005": 15.2278284726,
			"-0.004": 15.0150939805,
			"-0.003": 16.1477913869,
			"-0.002": 15.8197423137,
			"-0.001": 13.6508251278,
			"0.0": 10.5954135597,
			"0.001": 10.0713877543,
			"0.002": 11.1201431626,
			"0.003": 8.4475026217,
			"0.004": 7.2544681332,
			"0.005": 4.62843248485,
			"0.006": 5.00005390515,
			"0.007": 8.00106778027,
			"0.008": 6.43763063687,
			"0.009": 4.96101363135,
			"0.01": 5.95713642381,
			"0.011": 8.42148727764,
			"0.012": 11.5179755259,
			"0.013": 10.7160606195,
			"0.014": 4.03217472868,
			"0.015": 0.0364741114103,
			"0.016": 0.0,
			"0.017": 0.0,
			"0.018": 0.0,
			"0.019": 0.0,
			"0.02": 0.0,
			"0.021": 0.0,
			"0.022": 0.0,
			"0.023": 0.0,
			"0.024": 0.0,
			"0.025": 0.0
		}
	}
}
