{
	 "smiles": "NC1=NN(CC2=NC=CC=C2)C=N1", 
	 "Tm": 387.15, 
	 "num_atms": 22, 
	 "gaussian": { 
		 "optdone": 1, 
		 "sigma_profile": "yes", 
		 "theory": "DFT", 
		 "functional": "B3LYP", 
		 "basiset": "6-31G**", 
		 "properties": { 
			 "R2extent": 3205.5881, 
			 "electric_dipole_moment_norm": 1.37272954729, 
			 "electric_quadrupole_moment_norm": 10.9479110144, 
			 "total_energy": -584.018984785, 
			 "HOMO_LUMO_gap": 0.18472, 
			 "cosmo_polarized_energy": -14.46, 
			 "cosmo_cavitation_energy": 26.76, 
			 "cosmo_dispersion_energy": -19.62, 
			 "cosmo_repulsion_energy": 1.56, 
			 "cosmo_total_nonelectrostatic_energy": 8.71, 
			 "SMD_solvation_energy": 0.99 
		},
		"coords": [
			{
				"x": -1.6371208203,
				"y": 0.7215915755,
				"z": -4.5842485001,
				"element": "N" 
			},
			{
				"x": -0.7370446727,
				"y": 0.2815095678,
				"z": -3.6324289636,
				"element": "C" 
			},
			{
				"x": -0.6674633393,
				"y": 0.8030574092,
				"z": -2.4091904222,
				"element": "N" 
			},
			{
				"x": 0.304231494,
				"y": 0.0267608006,
				"z": -1.8270249607,
				"element": "N" 
			},
			{
				"x": 0.6702686246,
				"y": 0.2110245149,
				"z": -0.4335984397,
				"element": "C" 
			},
			{
				"x": -0.2499674083,
				"y": -0.4856431216,
				"z": 0.5582772388,
				"element": "C" 
			},
			{
				"x": 0.3699374871,
				"y": -1.0439766803,
				"z": 1.607642525,
				"element": "N" 
			},
			{
				"x": -0.3892687801,
				"y": -1.6461310973,
				"z": 2.5323229142,
				"element": "C" 
			},
			{
				"x": -1.7789780591,
				"y": -1.72814692,
				"z": 2.4548467662,
				"element": "C" 
			},
			{
				"x": -2.4132596163,
				"y": -1.1454689192,
				"z": 1.3571059654,
				"element": "C" 
			},
			{
				"x": -1.6395182765,
				"y": -0.5078611366,
				"z": 0.3900940584,
				"element": "C" 
			},
			{
				"x": 0.7410890047,
				"y": -0.8860926826,
				"z": -2.7151753633,
				"element": "C" 
			},
			{
				"x": 0.1156655192,
				"y": -0.7578785505,
				"z": -3.8748547221,
				"element": "N" 
			},
			{
				"x": -1.9390125143,
				"y": 1.6772760685,
				"z": -4.4547945584,
				"element": "H" 
			},
			{
				"x": -1.3424708249,
				"y": 0.5179381214,
				"z": -5.5291192491,
				"element": "H" 
			},
			{
				"x": 1.6821388149,
				"y": -0.170867008,
				"z": -0.2830919596,
				"element": "H" 
			},
			{
				"x": 0.6856495708,
				"y": 1.2899658931,
				"z": -0.2469649672,
				"element": "H" 
			},
			{
				"x": 0.143904052,
				"y": -2.0888640505,
				"z": 3.3719210121,
				"element": "H" 
			},
			{
				"x": -2.3434799301,
				"y": -2.2351017556,
				"z": 3.2309965955,
				"element": "H" 
			},
			{
				"x": -3.4941501164,
				"y": -1.1848497085,
				"z": 1.2562044458,
				"element": "H" 
			},
			{
				"x": -2.0850124375,
				"y": -0.0352915827,
				"z": -0.4787646114,
				"element": "H" 
			},
			{
				"x": 1.5113622286,
				"y": -1.6093507376,
				"z": -2.483354804,
				"element": "H" 
			}
		],
		 "valence_orbital": [ 
			{
				"type": "occ",
				"energy": -0.27777,
				"method": "rhf"
			},
			{
				"type": "occ",
				"energy": -0.2697,
				"method": "rhf"
			},
			{
				"type": "occ",
				"energy": -0.26072,
				"method": "rhf"
			},
			{
				"type": "occ",
				"energy": -0.25948,
				"method": "rhf"
			},
			{
				"type": "occ",
				"energy": -0.21179,
				"method": "rhf"
			},
			{
				"type": "unocc",
				"energy": -0.02707,
				"method": "rhf"
			},
			{
				"type": "unocc",
				"energy": -0.01643,
				"method": "rhf"
			},
			{
				"type": "unocc",
				"energy": 0.01607,
				"method": "rhf"
			},
			{
				"type": "unocc",
				"energy": 0.0748,
				"method": "rhf"
			},
			{
				"type": "unocc",
				"energy": 0.09505,
				"method": "rhf"
			}
		],
		"cosmo_sigma_profile": { 
			"-0.025": 0.0,
			"-0.024": 0.0,
			"-0.023": 0.0,
			"-0.022": 0.0,
			"-0.021": 0.0,
			"-0.02": 0.0,
			"-0.019": 0.0,
			"-0.018": 0.0,
			"-0.017": 0.0,
			"-0.016": 0.0,
			"-0.015": 0.0,
			"-0.014": 0.0502884913911,
			"-0.013": 1.49053852069,
			"-0.012": 2.15811509963,
			"-0.011": 2.39640360425,
			"-0.01": 5.05252025019,
			"-0.009": 4.30726233623,
			"-0.008": 4.89445458806,
			"-0.007": 10.3345618944,
			"-0.006": 12.9303303497,
			"-0.005": 14.6849082521,
			"-0.004": 12.8654073835,
			"-0.003": 10.1513345604,
			"-0.002": 10.0277968019,
			"-0.001": 11.3998339288,
			"0.0": 13.6711559326,
			"0.001": 14.6381904784,
			"0.002": 18.1073465206,
			"0.003": 14.2763411237,
			"0.004": 6.92365619476,
			"0.005": 5.58125892994,
			"0.006": 5.02699404692,
			"0.007": 5.52254136417,
			"0.008": 4.16898931421,
			"0.009": 4.00464736413,
			"0.01": 3.30250361618,
			"0.011": 2.86654129728,
			"0.012": 3.79398331162,
			"0.013": 3.05687809179,
			"0.014": 2.63273179782,
			"0.015": 2.52568523055,
			"0.016": 0.85037494681,
			"0.017": 0.476667729257,
			"0.018": 0.0,
			"0.019": 0.0,
			"0.02": 0.0,
			"0.021": 0.0,
			"0.022": 0.0,
			"0.023": 0.0,
			"0.024": 0.0,
			"0.025": 0.0
		}
	}
}
