{
	 "smiles": "CC1=C(Cl)C(Br)=C(C=N1)C(O)=O", 
	 "Tm": 403.15, 
	 "num_atms": 17, 
	 "gaussian": { 
		 "optdone": 1, 
		 "sigma_profile": "yes", 
		 "theory": "DFT", 
		 "functional": "B3LYP", 
		 "basiset": "6-31G**", 
		 "properties": { 
			 "R2extent": 5011.0214, 
			 "electric_dipole_moment_norm": 4.16749077264, 
			 "electric_quadrupole_moment_norm": 18.5834161383, 
			 "total_energy": -3506.55302303, 
			 "HOMO_LUMO_gap": 0.19753, 
			 "cosmo_polarized_energy": -10.9, 
			 "cosmo_cavitation_energy": 25.24, 
			 "cosmo_dispersion_energy": -19.46, 
			 "cosmo_repulsion_energy": 1.52, 
			 "cosmo_total_nonelectrostatic_energy": 7.31, 
			 "SMD_solvation_energy": 3.11 
		},
		"coords": [
			{
				"x": -0.8641471036,
				"y": 1.9480153539,
				"z": -0.2923435909,
				"element": "C" 
			},
			{
				"x": -0.4981742948,
				"y": 0.8605107195,
				"z": 0.679035002,
				"element": "C" 
			},
			{
				"x": -1.0782708141,
				"y": -0.4222100765,
				"z": 0.6216498872,
				"element": "C" 
			},
			{
				"x": -2.2536667913,
				"y": -0.7575550713,
				"z": -0.6246073422,
				"element": "Cl" 
			},
			{
				"x": -0.7032742921,
				"y": -1.3975978287,
				"z": 1.5541010458,
				"element": "C" 
			},
			{
				"x": -1.5167216571,
				"y": -3.1261971737,
				"z": 1.4210524487,
				"element": "Br" 
			},
			{
				"x": 0.2559658029,
				"y": -1.0856134652,
				"z": 2.5320062687,
				"element": "C" 
			},
			{
				"x": 0.7703990791,
				"y": 0.2219665112,
				"z": 2.4879938931,
				"element": "C" 
			},
			{
				"x": 0.4147871332,
				"y": 1.157876367,
				"z": 1.6131959148,
				"element": "N" 
			},
			{
				"x": 0.8449449292,
				"y": -1.9421764202,
				"z": 3.640720675,
				"element": "C" 
			},
			{
				"x": 0.2578330966,
				"y": -3.1018570243,
				"z": 3.9727680891,
				"element": "O" 
			},
			{
				"x": 1.8231283657,
				"y": -1.5638791527,
				"z": 4.2440093111,
				"element": "O" 
			},
			{
				"x": -1.9341721785,
				"y": 2.1765396563,
				"z": -0.2475030494,
				"element": "H" 
			},
			{
				"x": -0.6456310198,
				"y": 1.6487039766,
				"z": -1.3228691697,
				"element": "H" 
			},
			{
				"x": -0.2917691896,
				"y": 2.8423964974,
				"z": -0.0462149616,
				"element": "H" 
			},
			{
				"x": 1.5196969815,
				"y": 0.4898342587,
				"z": 3.2261579434,
				"element": "H" 
			},
			{
				"x": -0.4967280474,
				"y": -3.3067571281,
				"z": 3.393647635,
				"element": "H" 
			}
		],
		 "valence_orbital": [ 
			{
				"type": "occ",
				"energy": -0.32184,
				"method": "rhf"
			},
			{
				"type": "occ",
				"energy": -0.29746,
				"method": "rhf"
			},
			{
				"type": "occ",
				"energy": -0.29473,
				"method": "rhf"
			},
			{
				"type": "occ",
				"energy": -0.27833,
				"method": "rhf"
			},
			{
				"type": "occ",
				"energy": -0.27452,
				"method": "rhf"
			},
			{
				"type": "unocc",
				"energy": -0.07699,
				"method": "rhf"
			},
			{
				"type": "unocc",
				"energy": -0.05625,
				"method": "rhf"
			},
			{
				"type": "unocc",
				"energy": -0.0482,
				"method": "rhf"
			},
			{
				"type": "unocc",
				"energy": 0.0241,
				"method": "rhf"
			},
			{
				"type": "unocc",
				"energy": 0.02923,
				"method": "rhf"
			}
		],
		"cosmo_sigma_profile": { 
			"-0.025": 0.0,
			"-0.024": 0.0,
			"-0.023": 0.0,
			"-0.022": 0.0,
			"-0.021": 0.0,
			"-0.02": 0.0,
			"-0.019": 0.0,
			"-0.018": 0.0,
			"-0.017": 0.0,
			"-0.016": 0.0,
			"-0.015": 0.0,
			"-0.014": 0.014067967912,
			"-0.013": 0.203151892761,
			"-0.012": 0.757828073602,
			"-0.011": 1.36291936952,
			"-0.01": 1.7742966546,
			"-0.009": 0.93866755138,
			"-0.008": 1.40054257202,
			"-0.007": 4.82066592345,
			"-0.006": 7.65053282621,
			"-0.005": 13.2421018809,
			"-0.004": 14.6863476013,
			"-0.003": 24.7441819738,
			"-0.002": 24.3008110312,
			"-0.001": 18.4548939296,
			"0.0": 13.2102698057,
			"0.001": 15.3616921544,
			"0.002": 15.6895734003,
			"0.003": 10.2361116128,
			"0.004": 4.15889213874,
			"0.005": 3.58990333264,
			"0.006": 2.84176520988,
			"0.007": 3.64627454247,
			"0.008": 4.47039067449,
			"0.009": 4.20090507972,
			"0.01": 6.102298512,
			"0.011": 5.54093929385,
			"0.012": 3.18000513802,
			"0.013": 1.32394920966,
			"0.014": 0.291864859157,
			"0.015": 0.0,
			"0.016": 0.0,
			"0.017": 0.0,
			"0.018": 0.0,
			"0.019": 0.0,
			"0.02": 0.0,
			"0.021": 0.0,
			"0.022": 0.0,
			"0.023": 0.0,
			"0.024": 0.0,
			"0.025": 0.0
		}
	}
}
