{
	 "smiles": "CC1=CC(=O)NC(=N1)C1=NC=CC=N1", 
	 "Tm": 446.15, 
	 "num_atms": 22, 
	 "gaussian": { 
		 "optdone": 1, 
		 "sigma_profile": "yes", 
		 "theory": "DFT", 
		 "functional": "B3LYP", 
		 "basiset": "6-31G**", 
		 "properties": { 
			 "R2extent": 3440.7508, 
			 "electric_dipole_moment_norm": 5.29390093315, 
			 "electric_quadrupole_moment_norm": 30.8166229835, 
			 "total_energy": -642.022698491, 
			 "HOMO_LUMO_gap": 0.15025, 
			 "cosmo_polarized_energy": -17.18, 
			 "cosmo_cavitation_energy": 27.27, 
			 "cosmo_dispersion_energy": -20.37, 
			 "cosmo_repulsion_energy": 1.6, 
			 "cosmo_total_nonelectrostatic_energy": 8.51, 
			 "SMD_solvation_energy": 2.14 
		},
		"coords": [
			{
				"x": -2.6089088986,
				"y": -1.4202347152,
				"z": 0.1820703192,
				"element": "C" 
			},
			{
				"x": -1.6173042686,
				"y": -0.3335448224,
				"z": -0.1273777602,
				"element": "C" 
			},
			{
				"x": -1.9552359834,
				"y": 0.9927144034,
				"z": -0.1283463423,
				"element": "C" 
			},
			{
				"x": -0.9755779532,
				"y": 2.0181869067,
				"z": -0.4311841209,
				"element": "C" 
			},
			{
				"x": -1.1438326794,
				"y": 3.2295548705,
				"z": -0.466094098,
				"element": "O" 
			},
			{
				"x": 0.292136527,
				"y": 1.4584272946,
				"z": -0.7044558274,
				"element": "N" 
			},
			{
				"x": 0.5512874347,
				"y": 0.1232157052,
				"z": -0.6837121875,
				"element": "C" 
			},
			{
				"x": -0.3420642927,
				"y": -0.7841846958,
				"z": -0.4094064423,
				"element": "N" 
			},
			{
				"x": 1.9623983884,
				"y": -0.26222566,
				"z": -1.0028694244,
				"element": "C" 
			},
			{
				"x": 2.794610539,
				"y": 0.7573015728,
				"z": -1.269800739,
				"element": "N" 
			},
			{
				"x": 4.060010049,
				"y": 0.4394302029,
				"z": -1.5580380506,
				"element": "C" 
			},
			{
				"x": 4.4999546852,
				"y": -0.8814485303,
				"z": -1.5820446915,
				"element": "C" 
			},
			{
				"x": 3.5466696172,
				"y": -1.8576639273,
				"z": -1.2884374426,
				"element": "C" 
			},
			{
				"x": 2.2775704022,
				"y": -1.5619489807,
				"z": -0.9979297638,
				"element": "N" 
			},
			{
				"x": -2.2651406297,
				"y": -2.0058463743,
				"z": 1.041322164,
				"element": "H" 
			},
			{
				"x": -3.6007969184,
				"y": -1.0175679067,
				"z": 0.3982117203,
				"element": "H" 
			},
			{
				"x": -2.6800087684,
				"y": -2.112708423,
				"z": -0.6634201565,
				"element": "H" 
			},
			{
				"x": -2.9619274659,
				"y": 1.3252150634,
				"z": 0.0957936272,
				"element": "H" 
			},
			{
				"x": 1.0570695135,
				"y": 2.0879074924,
				"z": -0.9301122866,
				"element": "H" 
			},
			{
				"x": 4.7328861827,
				"y": 1.2667514784,
				"z": -1.7740103686,
				"element": "H" 
			},
			{
				"x": 5.5271927286,
				"y": -1.1371342777,
				"z": -1.8161469097,
				"element": "H" 
			},
			{
				"x": 3.8085117907,
				"y": -2.9142966769,
				"z": -1.2857112188,
				"element": "H" 
			}
		],
		 "valence_orbital": [ 
			{
				"type": "occ",
				"energy": -0.29435,
				"method": "rhf"
			},
			{
				"type": "occ",
				"energy": -0.28299,
				"method": "rhf"
			},
			{
				"type": "occ",
				"energy": -0.26555,
				"method": "rhf"
			},
			{
				"type": "occ",
				"energy": -0.24795,
				"method": "rhf"
			},
			{
				"type": "occ",
				"energy": -0.23151,
				"method": "rhf"
			},
			{
				"type": "unocc",
				"energy": -0.08126,
				"method": "rhf"
			},
			{
				"type": "unocc",
				"energy": -0.06125,
				"method": "rhf"
			},
			{
				"type": "unocc",
				"energy": -0.01452,
				"method": "rhf"
			},
			{
				"type": "unocc",
				"energy": 0.023,
				"method": "rhf"
			},
			{
				"type": "unocc",
				"energy": 0.0852,
				"method": "rhf"
			}
		],
		"cosmo_sigma_profile": { 
			"-0.025": 0.0,
			"-0.024": 0.0,
			"-0.023": 0.0,
			"-0.022": 0.0,
			"-0.021": 0.0,
			"-0.02": 0.0,
			"-0.019": 0.0,
			"-0.018": 0.0,
			"-0.017": 0.0,
			"-0.016": 0.0,
			"-0.015": 0.0,
			"-0.014": 0.0,
			"-0.013": 0.0,
			"-0.012": 0.301298025217,
			"-0.011": 0.440792824873,
			"-0.01": 0.285886037409,
			"-0.009": 4.58746045504,
			"-0.008": 9.58294681369,
			"-0.007": 9.31833695214,
			"-0.006": 9.20473751692,
			"-0.005": 11.7763984515,
			"-0.004": 15.9950359508,
			"-0.003": 23.0371975294,
			"-0.002": 22.5608598917,
			"-0.001": 25.3384651142,
			"0.0": 16.2446318429,
			"0.001": 11.3256021363,
			"0.002": 7.88555684376,
			"0.003": 4.91711787342,
			"0.004": 4.77024409094,
			"0.005": 4.28370945301,
			"0.006": 4.42381837523,
			"0.007": 2.7112822769,
			"0.008": 2.14438452189,
			"0.009": 1.88336743084,
			"0.01": 3.66559297318,
			"0.011": 2.50036259319,
			"0.012": 3.05231770261,
			"0.013": 5.886194905,
			"0.014": 5.98905686297,
			"0.015": 1.48317631604,
			"0.016": 1.57903795158,
			"0.017": 0.849489974648,
			"0.018": 0.795461698435,
			"0.019": 0.66271390324,
			"0.02": 0.0122045559755,
			"0.021": 0.0,
			"0.022": 0.0,
			"0.023": 0.0,
			"0.024": 0.0,
			"0.025": 0.0
		}
	}
}
