{
	 "smiles": "COC1=CC=C(C=C1)C1=C(C)OC2=C(C=CC(O)=C2)C1=O", 
	 "Tm": 556.15, 
	 "num_atms": 35, 
	 "gaussian": { 
		 "optdone": 1, 
		 "sigma_profile": "yes", 
		 "theory": "DFT", 
		 "functional": "B3LYP", 
		 "basiset": "6-31G**", 
		 "properties": { 
			 "R2extent": 8796.1024, 
			 "electric_dipole_moment_norm": 3.65073043376, 
			 "electric_quadrupole_moment_norm": 25.3657983775, 
			 "total_energy": -957.133462345, 
			 "HOMO_LUMO_gap": 0.16122, 
			 "cosmo_polarized_energy": -18.55, 
			 "cosmo_cavitation_energy": 39.15, 
			 "cosmo_dispersion_energy": -28.46, 
			 "cosmo_repulsion_energy": 2.15, 
			 "cosmo_total_nonelectrostatic_energy": 12.84, 
			 "SMD_solvation_energy": 8.4 
		},
		"coords": [
			{
				"x": -3.1760535208,
				"y": 1.3073375766,
				"z": -4.7943162027,
				"element": "C" 
			},
			{
				"x": -1.8234829524,
				"y": 1.6439175079,
				"z": -4.5308219717,
				"element": "O" 
			},
			{
				"x": -1.2586623077,
				"y": 1.1889560605,
				"z": -3.374352408,
				"element": "C" 
			},
			{
				"x": -1.9234830433,
				"y": 0.4233729713,
				"z": -2.4086009235,
				"element": "C" 
			},
			{
				"x": -1.2445976914,
				"y": 0.0108061611,
				"z": -1.2615728014,
				"element": "C" 
			},
			{
				"x": 0.095684374,
				"y": 0.3553755295,
				"z": -1.0391145824,
				"element": "C" 
			},
			{
				"x": 0.7494559784,
				"y": 1.1088654437,
				"z": -2.0312614336,
				"element": "C" 
			},
			{
				"x": 0.0876620959,
				"y": 1.5268374298,
				"z": -3.1785354837,
				"element": "C" 
			},
			{
				"x": 0.807965132,
				"y": -0.098716188,
				"z": 0.183406174,
				"element": "C" 
			},
			{
				"x": 1.5018984554,
				"y": 0.7632903336,
				"z": 0.9802439904,
				"element": "C" 
			},
			{
				"x": 1.5880998245,
				"y": 2.2543796074,
				"z": 0.8583782792,
				"element": "C" 
			},
			{
				"x": 2.2255669617,
				"y": 0.3591623653,
				"z": 2.0709138164,
				"element": "O" 
			},
			{
				"x": 2.278469932,
				"y": -0.9604987123,
				"z": 2.4161387281,
				"element": "C" 
			},
			{
				"x": 1.5693278703,
				"y": -1.9266161587,
				"z": 1.6979510477,
				"element": "C" 
			},
			{
				"x": 1.6634529258,
				"y": -3.266332075,
				"z": 2.1208322464,
				"element": "C" 
			},
			{
				"x": 2.434566185,
				"y": -3.6196458614,
				"z": 3.2109290136,
				"element": "C" 
			},
			{
				"x": 3.1390933134,
				"y": -2.6224776988,
				"z": 3.917086525,
				"element": "C" 
			},
			{
				"x": 3.8800369134,
				"y": -3.0315144218,
				"z": 4.9824912911,
				"element": "O" 
			},
			{
				"x": 3.0644824256,
				"y": -1.2879491008,
				"z": 3.5248834875,
				"element": "C" 
			},
			{
				"x": 0.7535271506,
				"y": -1.5384852099,
				"z": 0.5352826617,
				"element": "C" 
			},
			{
				"x": 0.0798540154,
				"y": -2.3586206938,
				"z": -0.0897444394,
				"element": "O" 
			},
			{
				"x": -3.3186313911,
				"y": 0.2209204422,
				"z": -4.8579771571,
				"element": "H" 
			},
			{
				"x": -3.8517581558,
				"y": 1.7119746474,
				"z": -4.0295305951,
				"element": "H" 
			},
			{
				"x": -3.4166795327,
				"y": 1.7577576983,
				"z": -5.7586670023,
				"element": "H" 
			},
			{
				"x": -2.9607825685,
				"y": 0.1386204611,
				"z": -2.5390672033,
				"element": "H" 
			},
			{
				"x": -1.7647051028,
				"y": -0.5977367416,
				"z": -0.5313062955,
				"element": "H" 
			},
			{
				"x": 1.8004719727,
				"y": 1.3550642107,
				"z": -1.9095262052,
				"element": "H" 
			},
			{
				"x": 0.5956254096,
				"y": 2.1042923295,
				"z": -3.9440452828,
				"element": "H" 
			},
			{
				"x": 2.5850527719,
				"y": 2.5645399071,
				"z": 0.5238481821,
				"element": "H" 
			},
			{
				"x": 1.4225628886,
				"y": 2.7066537581,
				"z": 1.8416461653,
				"element": "H" 
			},
			{
				"x": 0.8506622267,
				"y": 2.6358576984,
				"z": 0.1540822612,
				"element": "H" 
			},
			{
				"x": 1.1076093709,
				"y": -4.0076335887,
				"z": 1.5563846783,
				"element": "H" 
			},
			{
				"x": 2.5161038794,
				"y": -4.6481752083,
				"z": 3.5448210817,
				"element": "H" 
			},
			{
				"x": 4.3157939073,
				"y": -2.2689012286,
				"z": 5.3851933863,
				"element": "H" 
			},
			{
				"x": 3.5955102858,
				"y": -0.5022792518,
				"z": 4.0543269716,
				"element": "H" 
			}
		],
		 "valence_orbital": [ 
			{
				"type": "occ",
				"energy": -0.24793,
				"method": "rhf"
			},
			{
				"type": "occ",
				"energy": -0.24338,
				"method": "rhf"
			},
			{
				"type": "occ",
				"energy": -0.23183,
				"method": "rhf"
			},
			{
				"type": "occ",
				"energy": -0.2315,
				"method": "rhf"
			},
			{
				"type": "occ",
				"energy": -0.20514,
				"method": "rhf"
			},
			{
				"type": "unocc",
				"energy": -0.04392,
				"method": "rhf"
			},
			{
				"type": "unocc",
				"energy": -0.01563,
				"method": "rhf"
			},
			{
				"type": "unocc",
				"energy": 0.0012,
				"method": "rhf"
			},
			{
				"type": "unocc",
				"energy": 0.00533,
				"method": "rhf"
			},
			{
				"type": "unocc",
				"energy": 0.02614,
				"method": "rhf"
			}
		],
		"cosmo_sigma_profile": { 
			"-0.025": 0.0,
			"-0.024": 0.0,
			"-0.023": 0.0,
			"-0.022": 0.0,
			"-0.021": 0.0,
			"-0.02": 0.0,
			"-0.019": 0.177822288367,
			"-0.018": 1.31269799628,
			"-0.017": 1.17978470482,
			"-0.016": 1.2338864337,
			"-0.015": 1.32256179313,
			"-0.014": 0.553174282981,
			"-0.013": 0.582939164573,
			"-0.012": 1.19879025358,
			"-0.011": 1.45474582826,
			"-0.01": 1.21746912799,
			"-0.009": 0.940779556136,
			"-0.008": 1.37170906016,
			"-0.007": 3.20063547601,
			"-0.006": 13.7026450456,
			"-0.005": 24.6787389231,
			"-0.004": 25.8829643031,
			"-0.003": 25.704036436,
			"-0.002": 25.3741655468,
			"-0.001": 23.8046938309,
			"0.0": 18.0678242654,
			"0.001": 22.0943462809,
			"0.002": 26.1404256167,
			"0.003": 21.8920362798,
			"0.004": 16.1754515593,
			"0.005": 13.1970066964,
			"0.006": 8.00676029953,
			"0.007": 5.23278651244,
			"0.008": 4.73620592158,
			"0.009": 4.68808301967,
			"0.01": 5.0401920438,
			"0.011": 2.81168843899,
			"0.012": 2.5466041648,
			"0.013": 3.94869411102,
			"0.014": 3.28873740776,
			"0.015": 0.0355819945766,
			"0.016": 0.0,
			"0.017": 0.0,
			"0.018": 0.0,
			"0.019": 0.0,
			"0.02": 0.0,
			"0.021": 0.0,
			"0.022": 0.0,
			"0.023": 0.0,
			"0.024": 0.0,
			"0.025": 0.0
		}
	}
}
