{
	 "smiles": "CN1C=C(C=O)C(=N1)C1=CC=CS1", 
	 "Tm": 338.15, 
	 "num_atms": 21, 
	 "gaussian": { 
		 "optdone": 1, 
		 "sigma_profile": "yes", 
		 "theory": "DFT", 
		 "functional": "B3LYP", 
		 "basiset": "6-31G**", 
		 "properties": { 
			 "R2extent": 3153.1114, 
			 "electric_dipole_moment_norm": 4.62544217562, 
			 "electric_quadrupole_moment_norm": 19.9583309563, 
			 "total_energy": -930.654970811, 
			 "HOMO_LUMO_gap": 0.16083, 
			 "cosmo_polarized_energy": -13.99, 
			 "cosmo_cavitation_energy": 27.14, 
			 "cosmo_dispersion_energy": -20.52, 
			 "cosmo_repulsion_energy": 1.56, 
			 "cosmo_total_nonelectrostatic_energy": 8.18, 
			 "SMD_solvation_energy": 5.2 
		},
		"coords": [
			{
				"x": -1.8115031079,
				"y": -0.2807066317,
				"z": 2.8368983976,
				"element": "C" 
			},
			{
				"x": -1.5870498248,
				"y": 0.3252555927,
				"z": 1.5370688084,
				"element": "N" 
			},
			{
				"x": -2.3546907779,
				"y": 1.2095477518,
				"z": 0.880337648,
				"element": "C" 
			},
			{
				"x": -1.7242029762,
				"y": 1.4958592037,
				"z": -0.3305630805,
				"element": "C" 
			},
			{
				"x": -2.2974029636,
				"y": 2.4273132307,
				"z": -1.2899712646,
				"element": "C" 
			},
			{
				"x": -1.844946485,
				"y": 2.7572656931,
				"z": -2.3757344007,
				"element": "O" 
			},
			{
				"x": -0.5265636579,
				"y": 0.6914489473,
				"z": -0.2988797168,
				"element": "C" 
			},
			{
				"x": -0.4715427501,
				"y": -0.0045067529,
				"z": 0.8414975188,
				"element": "N" 
			},
			{
				"x": 0.5522242129,
				"y": 0.5405464793,
				"z": -1.2616653486,
				"element": "C" 
			},
			{
				"x": 0.7320238778,
				"y": 1.1332093891,
				"z": -2.4920727776,
				"element": "C" 
			},
			{
				"x": 1.9318824283,
				"y": 0.7205370009,
				"z": -3.1383982307,
				"element": "C" 
			},
			{
				"x": 2.652487051,
				"y": -0.1785762469,
				"z": -2.3995096111,
				"element": "C" 
			},
			{
				"x": 1.8828382359,
				"y": -0.5450647125,
				"z": -0.8922807433,
				"element": "S" 
			},
			{
				"x": -0.9875211676,
				"y": -0.0302395688,
				"z": 3.5094175161,
				"element": "H" 
			},
			{
				"x": -2.7480789236,
				"y": 0.0983849331,
				"z": 3.2481268264,
				"element": "H" 
			},
			{
				"x": -1.8689558345,
				"y": -1.3670644575,
				"z": 2.7342649702,
				"element": "H" 
			},
			{
				"x": -3.283212453,
				"y": 1.5823568017,
				"z": 1.2897572818,
				"element": "H" 
			},
			{
				"x": -3.2622883237,
				"y": 2.8613418507,
				"z": -0.9432522674,
				"element": "H" 
			},
			{
				"x": 0.0161938162,
				"y": 1.8365377274,
				"z": -2.8975893293,
				"element": "H" 
			},
			{
				"x": 2.2424010593,
				"y": 1.0800264175,
				"z": -4.112870237,
				"element": "H" 
			},
			{
				"x": 3.5931085644,
				"y": -0.6495726487,
				"z": -2.6511819596,
				"element": "H" 
			}
		],
		 "valence_orbital": [ 
			{
				"type": "occ",
				"energy": -0.29196,
				"method": "rhf"
			},
			{
				"type": "occ",
				"energy": -0.26404,
				"method": "rhf"
			},
			{
				"type": "occ",
				"energy": -0.2507,
				"method": "rhf"
			},
			{
				"type": "occ",
				"energy": -0.24092,
				"method": "rhf"
			},
			{
				"type": "occ",
				"energy": -0.21005,
				"method": "rhf"
			},
			{
				"type": "unocc",
				"energy": -0.04922,
				"method": "rhf"
			},
			{
				"type": "unocc",
				"energy": -0.02451,
				"method": "rhf"
			},
			{
				"type": "unocc",
				"energy": 0.03197,
				"method": "rhf"
			},
			{
				"type": "unocc",
				"energy": 0.04437,
				"method": "rhf"
			},
			{
				"type": "unocc",
				"energy": 0.07148,
				"method": "rhf"
			}
		],
		"cosmo_sigma_profile": { 
			"-0.025": 0.0,
			"-0.024": 0.0,
			"-0.023": 0.0,
			"-0.022": 0.0,
			"-0.021": 0.0,
			"-0.02": 0.0,
			"-0.019": 0.0,
			"-0.018": 0.0,
			"-0.017": 0.0,
			"-0.016": 0.0,
			"-0.015": 0.0,
			"-0.014": 0.0,
			"-0.013": 0.0,
			"-0.012": 0.0,
			"-0.011": 1.27290818085,
			"-0.01": 3.64224566873,
			"-0.009": 4.138929602,
			"-0.008": 5.73841787795,
			"-0.007": 9.59126884653,
			"-0.006": 13.8390182546,
			"-0.005": 13.7368898574,
			"-0.004": 16.6013075482,
			"-0.003": 13.6188893933,
			"-0.002": 10.1442777905,
			"-0.001": 9.50194436287,
			"0.0": 11.8844793448,
			"0.001": 12.7760270856,
			"0.002": 14.4998347461,
			"0.003": 16.6667637779,
			"0.004": 22.3322665777,
			"0.005": 14.8623875742,
			"0.006": 5.11567220008,
			"0.007": 2.77285858196,
			"0.008": 3.49689241565,
			"0.009": 3.42671865094,
			"0.01": 3.52583253862,
			"0.011": 2.56291610849,
			"0.012": 3.19017646235,
			"0.013": 1.55751925644,
			"0.014": 0.160684761292,
			"0.015": 0.0,
			"0.016": 0.0,
			"0.017": 0.0,
			"0.018": 0.0,
			"0.019": 0.0,
			"0.02": 0.0,
			"0.021": 0.0,
			"0.022": 0.0,
			"0.023": 0.0,
			"0.024": 0.0,
			"0.025": 0.0
		}
	}
}
