{
	 "smiles": "CC1=C2CCC(=O)C2=CC=C1", 
	 "Tm": 368.15, 
	 "num_atms": 21, 
	 "gaussian": { 
		 "optdone": 1, 
		 "sigma_profile": "yes", 
		 "theory": "DFT", 
		 "functional": "B3LYP", 
		 "basiset": "6-31G**", 
		 "properties": { 
			 "R2extent": 1851.1039, 
			 "electric_dipole_moment_norm": 3.80270589186, 
			 "electric_quadrupole_moment_norm": 12.5450132587, 
			 "total_energy": -462.331914665, 
			 "HOMO_LUMO_gap": 0.1881, 
			 "cosmo_polarized_energy": -8.59, 
			 "cosmo_cavitation_energy": 24.03, 
			 "cosmo_dispersion_energy": -17.76, 
			 "cosmo_repulsion_energy": 1.42, 
			 "cosmo_total_nonelectrostatic_energy": 7.69, 
			 "SMD_solvation_energy": 4.29 
		},
		"coords": [
			{
				"x": 1.4209121358,
				"y": -0.179374238,
				"z": 1.9977199243,
				"element": "C" 
			},
			{
				"x": 0.2757395747,
				"y": -0.0644690633,
				"z": 1.0220748185,
				"element": "C" 
			},
			{
				"x": 0.3606304706,
				"y": -0.6039953155,
				"z": -0.2705217607,
				"element": "C" 
			},
			{
				"x": 1.5251011411,
				"y": -1.349973672,
				"z": -0.8952864412,
				"element": "C" 
			},
			{
				"x": 1.0471296057,
				"y": -1.6995852553,
				"z": -2.3250240267,
				"element": "C" 
			},
			{
				"x": -0.3776311942,
				"y": -1.1338226116,
				"z": -2.4522559726,
				"element": "C" 
			},
			{
				"x": -1.0887889788,
				"y": -1.2099156274,
				"z": -3.4368797894,
				"element": "O" 
			},
			{
				"x": -0.7105823533,
				"y": -0.4875787367,
				"z": -1.1605551373,
				"element": "C" 
			},
			{
				"x": -1.8981392952,
				"y": 0.161169069,
				"z": -0.8112123784,
				"element": "C" 
			},
			{
				"x": -1.9919524214,
				"y": 0.6991624521,
				"z": 0.4676714818,
				"element": "C" 
			},
			{
				"x": -0.9178688514,
				"y": 0.5840008737,
				"z": 1.3640108653,
				"element": "C" 
			},
			{
				"x": 1.1803242562,
				"y": 0.295827884,
				"z": 2.9522921153,
				"element": "H" 
			},
			{
				"x": 2.3297881685,
				"y": 0.2940311495,
				"z": 1.6069414968,
				"element": "H" 
			},
			{
				"x": 1.6728040556,
				"y": -1.2276823204,
				"z": 2.1988934362,
				"element": "H" 
			},
			{
				"x": 2.4309371334,
				"y": -0.7313430457,
				"z": -0.9046902617,
				"element": "H" 
			},
			{
				"x": 1.7764272082,
				"y": -2.246577956,
				"z": -0.315395977,
				"element": "H" 
			},
			{
				"x": 1.6767967059,
				"y": -1.2601829164,
				"z": -3.1053826454,
				"element": "H" 
			},
			{
				"x": 1.0216778736,
				"y": -2.7773709405,
				"z": -2.5153966163,
				"element": "H" 
			},
			{
				"x": -2.7089674816,
				"y": 0.2318044782,
				"z": -1.5298278095,
				"element": "H" 
			},
			{
				"x": -2.8962204941,
				"y": 1.2120352941,
				"z": 0.7822154502,
				"element": "H" 
			},
			{
				"x": -1.0129172592,
				"y": 1.0122404982,
				"z": 2.3593092278,
				"element": "H" 
			}
		],
		 "valence_orbital": [ 
			{
				"type": "occ",
				"energy": -0.34107,
				"method": "rhf"
			},
			{
				"type": "occ",
				"energy": -0.33336,
				"method": "rhf"
			},
			{
				"type": "occ",
				"energy": -0.25323,
				"method": "rhf"
			},
			{
				"type": "occ",
				"energy": -0.24685,
				"method": "rhf"
			},
			{
				"type": "occ",
				"energy": -0.2369,
				"method": "rhf"
			},
			{
				"type": "unocc",
				"energy": -0.0488,
				"method": "rhf"
			},
			{
				"type": "unocc",
				"energy": -0.00852,
				"method": "rhf"
			},
			{
				"type": "unocc",
				"energy": 0.0499,
				"method": "rhf"
			},
			{
				"type": "unocc",
				"energy": 0.08544,
				"method": "rhf"
			},
			{
				"type": "unocc",
				"energy": 0.10071,
				"method": "rhf"
			}
		],
		"cosmo_sigma_profile": { 
			"-0.025": 0.0,
			"-0.024": 0.0,
			"-0.023": 0.0,
			"-0.022": 0.0,
			"-0.021": 0.0,
			"-0.02": 0.0,
			"-0.019": 0.0,
			"-0.018": 0.0,
			"-0.017": 0.0,
			"-0.016": 0.0,
			"-0.015": 0.0,
			"-0.014": 0.0,
			"-0.013": 0.0,
			"-0.012": 0.0,
			"-0.011": 0.0,
			"-0.01": 0.0,
			"-0.009": 0.0,
			"-0.008": 0.0,
			"-0.007": 0.0605700586366,
			"-0.006": 5.73791133385,
			"-0.005": 14.5180123987,
			"-0.004": 28.2782085848,
			"-0.003": 22.1278596438,
			"-0.002": 19.3366093938,
			"-0.001": 18.3349064059,
			"0.0": 14.0384349786,
			"0.001": 11.3608607603,
			"0.002": 9.6947633873,
			"0.003": 10.0830981462,
			"0.004": 11.4395385165,
			"0.005": 5.38906828807,
			"0.006": 1.72921364265,
			"0.007": 1.13062624766,
			"0.008": 2.27983219829,
			"0.009": 1.41871136107,
			"0.01": 1.81770574469,
			"0.011": 2.49337792888,
			"0.012": 4.53870459642,
			"0.013": 3.81054317972,
			"0.014": 0.815192915216,
			"0.015": 0.0,
			"0.016": 0.0,
			"0.017": 0.0,
			"0.018": 0.0,
			"0.019": 0.0,
			"0.02": 0.0,
			"0.021": 0.0,
			"0.022": 0.0,
			"0.023": 0.0,
			"0.024": 0.0,
			"0.025": 0.0
		}
	}
}
