{
	 "smiles": "CC(C=CC=C(/C)C(O)=O)=CC=CC=C(/C)C=CC=C(/C)C(O)=O", 
	 "Tm": 559.15, 
	 "num_atms": 48, 
	 "gaussian": { 
		 "optdone": 1, 
		 "sigma_profile": "yes", 
		 "theory": "DFT", 
		 "functional": "B3LYP", 
		 "basiset": "6-31G**", 
		 "properties": { 
			 "R2extent": 17394.7686, 
			 "electric_dipole_moment_norm": 8.42272430334, 
			 "electric_quadrupole_moment_norm": 40.3353030358, 
			 "total_energy": -1077.41768713, 
			 "HOMO_LUMO_gap": 0.10067, 
			 "cosmo_polarized_energy": -27.86, 
			 "cosmo_cavitation_energy": 53.23, 
			 "cosmo_dispersion_energy": -35.45, 
			 "cosmo_repulsion_energy": 2.7, 
			 "cosmo_total_nonelectrostatic_energy": 20.49, 
			 "SMD_solvation_energy": 11.68 
		},
		"coords": [
			{
				"x": -3.9063034164,
				"y": 1.1332356515,
				"z": 4.1025269749,
				"element": "C" 
			},
			{
				"x": -2.9622524411,
				"y": 0.731726489,
				"z": 2.9915042313,
				"element": "C" 
			},
			{
				"x": -1.5711879573,
				"y": 0.4813845934,
				"z": 3.3198761835,
				"element": "C" 
			},
			{
				"x": -1.0182509597,
				"y": 0.6787755804,
				"z": 4.5480420937,
				"element": "C" 
			},
			{
				"x": 0.3303303527,
				"y": 0.3572679806,
				"z": 4.9759607003,
				"element": "C" 
			},
			{
				"x": 1.4724616393,
				"y": 0.2480586338,
				"z": 4.245969336,
				"element": "C" 
			},
			{
				"x": 1.5999169486,
				"y": 0.5672547222,
				"z": 2.7830166335,
				"element": "C" 
			},
			{
				"x": 2.7654852334,
				"y": -0.0787844102,
				"z": 4.9345750573,
				"element": "C" 
			},
			{
				"x": 2.6919796557,
				"y": -0.7950708595,
				"z": 6.0909833782,
				"element": "O" 
			},
			{
				"x": 3.8468631375,
				"y": 0.2659573004,
				"z": 4.5127008305,
				"element": "O" 
			},
			{
				"x": -3.4666282431,
				"y": 0.5491242094,
				"z": 1.7311681299,
				"element": "C" 
			},
			{
				"x": -2.8010674471,
				"y": 0.2584568779,
				"z": 0.4803183852,
				"element": "C" 
			},
			{
				"x": -1.5670489371,
				"y": 0.6569055993,
				"z": 0.0587795851,
				"element": "C" 
			},
			{
				"x": -1.051422966,
				"y": 0.3166253851,
				"z": -1.2395800387,
				"element": "C" 
			},
			{
				"x": 0.1389516952,
				"y": 0.6937370833,
				"z": -1.793372833,
				"element": "C" 
			},
			{
				"x": 1.1781125242,
				"y": 1.5195190382,
				"z": -1.0706084927,
				"element": "C" 
			},
			{
				"x": 0.5125736793,
				"y": 0.2892952333,
				"z": -3.1465856046,
				"element": "C" 
			},
			{
				"x": -0.3395972374,
				"y": -0.0497924291,
				"z": -4.150047442,
				"element": "C" 
			},
			{
				"x": -0.0242355472,
				"y": -0.4728379284,
				"z": -5.501629707,
				"element": "C" 
			},
			{
				"x": 1.1334751209,
				"y": -0.9505568244,
				"z": -6.0316953758,
				"element": "C" 
			},
			{
				"x": 2.4248388088,
				"y": -1.141073537,
				"z": -5.2832845828,
				"element": "C" 
			},
			{
				"x": 1.2156068721,
				"y": -1.2475128751,
				"z": -7.4993725893,
				"element": "C" 
			},
			{
				"x": 0.0600808213,
				"y": -1.5512324902,
				"z": -8.1554197013,
				"element": "O" 
			},
			{
				"x": 2.2606142148,
				"y": -1.220661097,
				"z": -8.1097708518,
				"element": "O" 
			},
			{
				"x": -3.8978071922,
				"y": 0.4049796284,
				"z": 4.9219841315,
				"element": "H" 
			},
			{
				"x": -4.9314900164,
				"y": 1.2228030071,
				"z": 3.736253772,
				"element": "H" 
			},
			{
				"x": -3.6227556789,
				"y": 2.1016029098,
				"z": 4.5329100252,
				"element": "H" 
			},
			{
				"x": -0.9707345865,
				"y": 0.0308185532,
				"z": 2.537996087,
				"element": "H" 
			},
			{
				"x": -1.6525001645,
				"y": 1.0767245679,
				"z": 5.336971918,
				"element": "H" 
			},
			{
				"x": 0.4254277336,
				"y": 0.2546667505,
				"z": 6.0575238196,
				"element": "H" 
			},
			{
				"x": 0.9082525725,
				"y": 1.3647360933,
				"z": 2.4964122476,
				"element": "H" 
			},
			{
				"x": 2.6251437906,
				"y": 0.8787849366,
				"z": 2.5745877349,
				"element": "H" 
			},
			{
				"x": 1.382559932,
				"y": -0.3049036521,
				"z": 2.1521586716,
				"element": "H" 
			},
			{
				"x": 1.7987733383,
				"y": -1.1525204961,
				"z": 6.1913165963,
				"element": "H" 
			},
			{
				"x": -4.551887117,
				"y": 0.6056215784,
				"z": 1.644587157,
				"element": "H" 
			},
			{
				"x": -3.4117414333,
				"y": -0.2879359111,
				"z": -0.2403647136,
				"element": "H" 
			},
			{
				"x": -0.9731663003,
				"y": 1.2962286006,
				"z": 0.7043474793,
				"element": "H" 
			},
			{
				"x": -1.6941458721,
				"y": -0.3326272072,
				"z": -1.8322850664,
				"element": "H" 
			},
			{
				"x": 0.8988141466,
				"y": 1.7644841949,
				"z": -0.0459930174,
				"element": "H" 
			},
			{
				"x": 1.364874663,
				"y": 2.4607354829,
				"z": -1.6016773051,
				"element": "H" 
			},
			{
				"x": 2.1348509725,
				"y": 0.9836997892,
				"z": -1.0352539003,
				"element": "H" 
			},
			{
				"x": 1.5766477657,
				"y": 0.332527585,
				"z": -3.3589727757,
				"element": "H" 
			},
			{
				"x": -1.4064670559,
				"y": 0.0444515845,
				"z": -3.9546322324,
				"element": "H" 
			},
			{
				"x": -0.8690164989,
				"y": -0.3659497886,
				"z": -6.1820315683,
				"element": "H" 
			},
			{
				"x": 3.0869017935,
				"y": -1.8103777983,
				"z": -5.834176971,
				"element": "H" 
			},
			{
				"x": 2.2425753645,
				"y": -1.5464062221,
				"z": -4.2829368752,
				"element": "H" 
			},
			{
				"x": 2.9617137607,
				"y": -0.1915635863,
				"z": -5.1638950643,
				"element": "H" 
			},
			{
				"x": -0.639919469,
				"y": -1.7313825274,
				"z": -7.5132844507,
				"element": "H" 
			}
		],
		 "valence_orbital": [ 
			{
				"type": "occ",
				"energy": -0.2727,
				"method": "rhf"
			},
			{
				"type": "occ",
				"energy": -0.2706,
				"method": "rhf"
			},
			{
				"type": "occ",
				"energy": -0.26625,
				"method": "rhf"
			},
			{
				"type": "occ",
				"energy": -0.23824,
				"method": "rhf"
			},
			{
				"type": "occ",
				"energy": -0.201,
				"method": "rhf"
			},
			{
				"type": "unocc",
				"energy": -0.10033,
				"method": "rhf"
			},
			{
				"type": "unocc",
				"energy": -0.0713,
				"method": "rhf"
			},
			{
				"type": "unocc",
				"energy": -0.03365,
				"method": "rhf"
			},
			{
				"type": "unocc",
				"energy": 0.00434,
				"method": "rhf"
			},
			{
				"type": "unocc",
				"energy": 0.03047,
				"method": "rhf"
			}
		],
		"cosmo_sigma_profile": { 
			"-0.025": 0.0,
			"-0.024": 0.0,
			"-0.023": 0.0,
			"-0.022": 0.0,
			"-0.021": 0.0,
			"-0.02": 0.0,
			"-0.019": 0.0,
			"-0.018": 0.766978282929,
			"-0.017": 1.91961131461,
			"-0.016": 1.20474470713,
			"-0.015": 2.30984289544,
			"-0.014": 2.12004442124,
			"-0.013": 1.54897555944,
			"-0.012": 2.20016382165,
			"-0.011": 1.96448327068,
			"-0.01": 2.09505246982,
			"-0.009": 2.26659513888,
			"-0.008": 2.67101626549,
			"-0.007": 4.03713516702,
			"-0.006": 14.1274332889,
			"-0.005": 30.2635672012,
			"-0.004": 36.230102135,
			"-0.003": 35.3464965484,
			"-0.002": 35.2774238159,
			"-0.001": 38.0730213014,
			"0.0": 40.4945597533,
			"0.001": 25.5127939242,
			"0.002": 23.6333584451,
			"0.003": 26.375346337,
			"0.004": 24.4005750263,
			"0.005": 9.39905824745,
			"0.006": 5.0912289712,
			"0.007": 4.37856200917,
			"0.008": 5.79887489906,
			"0.009": 6.33388735107,
			"0.01": 7.42322907657,
			"0.011": 10.687716046,
			"0.012": 11.0467562456,
			"0.013": 5.94091926362,
			"0.014": 0.935626885238,
			"0.015": 0.0,
			"0.016": 0.0,
			"0.017": 0.0,
			"0.018": 0.0,
			"0.019": 0.0,
			"0.02": 0.0,
			"0.021": 0.0,
			"0.022": 0.0,
			"0.023": 0.0,
			"0.024": 0.0,
			"0.025": 0.0
		}
	}
}
