{
	 "smiles": "CC(CN1C[C@H](C)O[C@H](C)C1)CC1=CC=C(C=C1)C(C)(C)C", 
	 "Tm": 229.15, 
	 "num_atms": 55, 
	 "gaussian": { 
		 "optdone": 1, 
		 "sigma_profile": "yes", 
		 "theory": "DFT", 
		 "functional": "B3LYP", 
		 "basiset": "6-31G**", 
		 "properties": { 
			 "R2extent": 9837.0609, 
			 "electric_dipole_moment_norm": 1.49109599289, 
			 "electric_quadrupole_moment_norm": 8.88857552986, 
			 "total_energy": -912.007681132, 
			 "HOMO_LUMO_gap": 0.21439, 
			 "cosmo_polarized_energy": -7.76, 
			 "cosmo_cavitation_energy": 51.86, 
			 "cosmo_dispersion_energy": -34.0, 
			 "cosmo_repulsion_energy": 2.61, 
			 "cosmo_total_nonelectrostatic_energy": 20.48, 
			 "SMD_solvation_energy": 7.92 
		},
		"coords": [
			{
				"x": -2.7158470134,
				"y": -1.6396076159,
				"z": -1.4006944915,
				"element": "C" 
			},
			{
				"x": -1.2457269562,
				"y": -1.6060653261,
				"z": -1.8445975028,
				"element": "C" 
			},
			{
				"x": -0.3540033621,
				"y": -2.1094936821,
				"z": -0.695675066,
				"element": "C" 
			},
			{
				"x": 1.0787063752,
				"y": -2.1505144785,
				"z": -0.9851356101,
				"element": "N" 
			},
			{
				"x": 1.8608493546,
				"y": -2.2797614666,
				"z": 0.2506668546,
				"element": "C" 
			},
			{
				"x": 3.3088030084,
				"y": -2.7284586302,
				"z": -0.0518010091,
				"element": "C" 
			},
			{
				"x": 4.3101412177,
				"y": -2.1740926054,
				"z": 0.9507336847,
				"element": "C" 
			},
			{
				"x": 3.6946568893,
				"y": -2.2806051561,
				"z": -1.3438250658,
				"element": "O" 
			},
			{
				"x": 2.9444074092,
				"y": -2.8997172047,
				"z": -2.3919132413,
				"element": "C" 
			},
			{
				"x": 3.0401123727,
				"y": -1.9699146391,
				"z": -3.5943994329,
				"element": "C" 
			},
			{
				"x": 1.4836426633,
				"y": -3.1682966117,
				"z": -1.9467201037,
				"element": "C" 
			},
			{
				"x": -0.8182429817,
				"y": -0.2136895396,
				"z": -2.3860100602,
				"element": "C" 
			},
			{
				"x": -0.8255605815,
				"y": 0.9198343334,
				"z": -1.381142864,
				"element": "C" 
			},
			{
				"x": -1.9635190392,
				"y": 1.7126169268,
				"z": -1.172762179,
				"element": "C" 
			},
			{
				"x": -1.9612605711,
				"y": 2.7517525335,
				"z": -0.2448670891,
				"element": "C" 
			},
			{
				"x": -0.8220848339,
				"y": 3.0567084856,
				"z": 0.5191978732,
				"element": "C" 
			},
			{
				"x": 0.3155225981,
				"y": 2.2678214853,
				"z": 0.3007634692,
				"element": "C" 
			},
			{
				"x": 0.3149641112,
				"y": 1.2246240447,
				"z": -0.6285411969,
				"element": "C" 
			},
			{
				"x": -0.8596946902,
				"y": 4.2168492926,
				"z": 1.5308687353,
				"element": "C" 
			},
			{
				"x": -1.1738843478,
				"y": 5.5381936184,
				"z": 0.7894548161,
				"element": "C" 
			},
			{
				"x": 0.4793295287,
				"y": 4.3902780603,
				"z": 2.2725590122,
				"element": "C" 
			},
			{
				"x": -1.9612406015,
				"y": 3.9477245684,
				"z": 2.5837377993,
				"element": "C" 
			},
			{
				"x": -3.3807797895,
				"y": -1.345317275,
				"z": -2.2197760893,
				"element": "H" 
			},
			{
				"x": -3.0082128714,
				"y": -2.6456896229,
				"z": -1.0805176612,
				"element": "H" 
			},
			{
				"x": -2.8954050079,
				"y": -0.9564198389,
				"z": -0.5639242646,
				"element": "H" 
			},
			{
				"x": -1.1497936981,
				"y": -2.3006708469,
				"z": -2.6909351273,
				"element": "H" 
			},
			{
				"x": -0.7243038618,
				"y": -3.1022479172,
				"z": -0.3677896611,
				"element": "H" 
			},
			{
				"x": -0.4863093008,
				"y": -1.4358496365,
				"z": 0.1594634436,
				"element": "H" 
			},
			{
				"x": 1.8605559577,
				"y": -1.3077423471,
				"z": 0.7606894057,
				"element": "H" 
			},
			{
				"x": 1.4087128936,
				"y": -3.0130691443,
				"z": 0.9473511202,
				"element": "H" 
			},
			{
				"x": 3.3545853735,
				"y": -3.8309115758,
				"z": -0.0248365762,
				"element": "H" 
			},
			{
				"x": 5.3143986428,
				"y": -2.5509009404,
				"z": 0.7389922406,
				"element": "H" 
			},
			{
				"x": 4.3318664603,
				"y": -1.0813339512,
				"z": 0.893038893,
				"element": "H" 
			},
			{
				"x": 4.0364602515,
				"y": -2.463577907,
				"z": 1.970726828,
				"element": "H" 
			},
			{
				"x": 3.4106765951,
				"y": -3.8692300906,
				"z": -2.6401426957,
				"element": "H" 
			},
			{
				"x": 2.6035569444,
				"y": -2.436220544,
				"z": -4.4837422727,
				"element": "H" 
			},
			{
				"x": 4.0872215751,
				"y": -1.7342634886,
				"z": -3.8046622577,
				"element": "H" 
			},
			{
				"x": 2.5119348142,
				"y": -1.03491823,
				"z": -3.3865686034,
				"element": "H" 
			},
			{
				"x": 0.8327487378,
				"y": -3.1267735577,
				"z": -2.8243561507,
				"element": "H" 
			},
			{
				"x": 1.3846140377,
				"y": -4.1911323845,
				"z": -1.5312780123,
				"element": "H" 
			},
			{
				"x": 0.1889448973,
				"y": -0.3086167059,
				"z": -2.8025190033,
				"element": "H" 
			},
			{
				"x": -1.4857283676,
				"y": 0.0379714024,
				"z": -3.2198987917,
				"element": "H" 
			},
			{
				"x": -2.8630319703,
				"y": 1.5208585922,
				"z": -1.7531879313,
				"element": "H" 
			},
			{
				"x": -2.8669797629,
				"y": 3.3394454104,
				"z": -0.1226351576,
				"element": "H" 
			},
			{
				"x": 1.2282088933,
				"y": 2.4624239913,
				"z": 0.853058579,
				"element": "H" 
			},
			{
				"x": 1.2158144419,
				"y": 0.6355930264,
				"z": -0.7794073992,
				"element": "H" 
			},
			{
				"x": -2.1377756476,
				"y": 5.49563509,
				"z": 0.2736477547,
				"element": "H" 
			},
			{
				"x": -0.4052041731,
				"y": 5.7589794899,
				"z": 0.041560181,
				"element": "H" 
			},
			{
				"x": -1.2108407061,
				"y": 6.3747987651,
				"z": 1.496755781,
				"element": "H" 
			},
			{
				"x": 0.4039058856,
				"y": 5.2215071963,
				"z": 2.9813631262,
				"element": "H" 
			},
			{
				"x": 1.300111302,
				"y": 4.6173479093,
				"z": 1.5843329237,
				"element": "H" 
			},
			{
				"x": 0.7486590823,
				"y": 3.49446849,
				"z": 2.8418479026,
				"element": "H" 
			},
			{
				"x": -2.0068063542,
				"y": 4.7687468373,
				"z": 3.3085285184,
				"element": "H" 
			},
			{
				"x": -1.7602557867,
				"y": 3.0213518894,
				"z": 3.1320028124,
				"element": "H" 
			},
			{
				"x": -2.9496200377,
				"y": 3.854771522,
				"z": 2.1239208133,
				"element": "H" 
			}
		],
		 "valence_orbital": [ 
			{
				"type": "occ",
				"energy": -0.29777,
				"method": "rhf"
			},
			{
				"type": "occ",
				"energy": -0.24346,
				"method": "rhf"
			},
			{
				"type": "occ",
				"energy": -0.23809,
				"method": "rhf"
			},
			{
				"type": "occ",
				"energy": -0.22429,
				"method": "rhf"
			},
			{
				"type": "occ",
				"energy": -0.20815,
				"method": "rhf"
			},
			{
				"type": "unocc",
				"energy": 0.00624,
				"method": "rhf"
			},
			{
				"type": "unocc",
				"energy": 0.00988,
				"method": "rhf"
			},
			{
				"type": "unocc",
				"energy": 0.07648,
				"method": "rhf"
			},
			{
				"type": "unocc",
				"energy": 0.08573,
				"method": "rhf"
			},
			{
				"type": "unocc",
				"energy": 0.09416,
				"method": "rhf"
			}
		],
		"cosmo_sigma_profile": { 
			"-0.025": 0.0,
			"-0.024": 0.0,
			"-0.023": 0.0,
			"-0.022": 0.0,
			"-0.021": 0.0,
			"-0.02": 0.0,
			"-0.019": 0.0,
			"-0.018": 0.0,
			"-0.017": 0.0,
			"-0.016": 0.0,
			"-0.015": 0.0,
			"-0.014": 0.0,
			"-0.013": 0.0,
			"-0.012": 0.0,
			"-0.011": 0.0,
			"-0.01": 0.0,
			"-0.009": 0.0,
			"-0.008": 0.0,
			"-0.007": 0.0,
			"-0.006": 0.0,
			"-0.005": 2.62035400735,
			"-0.004": 14.6046397634,
			"-0.003": 47.1596271596,
			"-0.002": 73.4753319535,
			"-0.001": 73.406190736,
			"0.0": 56.7348155789,
			"0.001": 51.1722277468,
			"0.002": 26.6496266539,
			"0.003": 10.0073541722,
			"0.004": 8.69633579275,
			"0.005": 8.86066374307,
			"0.006": 8.19796913922,
			"0.007": 7.12604667579,
			"0.008": 2.52526081524,
			"0.009": 2.06591360098,
			"0.01": 1.3253720021,
			"0.011": 1.14951368693,
			"0.012": 2.18986769347,
			"0.013": 1.68776774593,
			"0.014": 0.136480965912,
			"0.015": 0.0,
			"0.016": 0.0,
			"0.017": 0.0,
			"0.018": 0.0,
			"0.019": 0.0,
			"0.02": 0.0,
			"0.021": 0.0,
			"0.022": 0.0,
			"0.023": 0.0,
			"0.024": 0.0,
			"0.025": 0.0
		}
	}
}
