{
	 "smiles": "NC1=C(N=CC=C1)N1C=CC=N1", 
	 "Tm": 339.15, 
	 "num_atms": 20, 
	 "gaussian": { 
		 "optdone": 1, 
		 "sigma_profile": "yes", 
		 "theory": "DFT", 
		 "functional": "B3LYP", 
		 "basiset": "6-31G**", 
		 "properties": { 
			 "R2extent": 2219.5388, 
			 "electric_dipole_moment_norm": 4.21740979394, 
			 "electric_quadrupole_moment_norm": 12.8060116726, 
			 "total_energy": -528.645376599, 
			 "HOMO_LUMO_gap": 0.1894, 
			 "cosmo_polarized_energy": -16.32, 
			 "cosmo_cavitation_energy": 24.33, 
			 "cosmo_dispersion_energy": -18.02, 
			 "cosmo_repulsion_energy": 1.42, 
			 "cosmo_total_nonelectrostatic_energy": 7.74, 
			 "SMD_solvation_energy": 2.58 
		},
		"coords": [
			{
				"x": 1.8285602986,
				"y": -0.5421344239,
				"z": 0.4845761919,
				"element": "N" 
			},
			{
				"x": 1.3008051743,
				"y": 0.7446669426,
				"z": 0.5210872424,
				"element": "C" 
			},
			{
				"x": -0.0802390559,
				"y": 0.9886431762,
				"z": 0.7060756041,
				"element": "C" 
			},
			{
				"x": -0.6273315436,
				"y": 2.1965078586,
				"z": 0.7300235743,
				"element": "N" 
			},
			{
				"x": 0.164642993,
				"y": 3.2593154781,
				"z": 0.5651649522,
				"element": "C" 
			},
			{
				"x": 1.5389719374,
				"y": 3.1433265286,
				"z": 0.3517205294,
				"element": "C" 
			},
			{
				"x": 2.1088507253,
				"y": 1.8757515677,
				"z": 0.3290915544,
				"element": "C" 
			},
			{
				"x": -0.962692018,
				"y": -0.11874158,
				"z": 0.9005713362,
				"element": "N" 
			},
			{
				"x": -1.1577187117,
				"y": -1.1810150847,
				"z": 0.0567989096,
				"element": "C" 
			},
			{
				"x": -2.1531207551,
				"y": -1.9533209363,
				"z": 0.6149498649,
				"element": "C" 
			},
			{
				"x": -2.5056719719,
				"y": -1.2685865622,
				"z": 1.8027067311,
				"element": "C" 
			},
			{
				"x": -1.7927236598,
				"y": -0.1603730182,
				"z": 1.9753440566,
				"element": "N" 
			},
			{
				"x": 1.2872612103,
				"y": -1.2414098118,
				"z": 0.9761946435,
				"element": "H" 
			},
			{
				"x": 2.8158737126,
				"y": -0.6003829662,
				"z": 0.6944598745,
				"element": "H" 
			},
			{
				"x": -0.3188675135,
				"y": 4.232504018,
				"z": 0.5988329055,
				"element": "H" 
			},
			{
				"x": 2.1524567569,
				"y": 4.0278176264,
				"z": 0.211856983,
				"element": "H" 
			},
			{
				"x": 3.1780555331,
				"y": 1.7491382752,
				"z": 0.1788036259,
				"element": "H" 
			},
			{
				"x": -0.5893300589,
				"y": -1.28255897,
				"z": -0.8557858427,
				"element": "H" 
			},
			{
				"x": -2.5676875702,
				"y": -2.8693172199,
				"z": 0.2211162726,
				"element": "H" 
			},
			{
				"x": -3.2466954826,
				"y": -1.543430898,
				"z": 2.5419109908,
				"element": "H" 
			}
		],
		 "valence_orbital": [ 
			{
				"type": "occ",
				"energy": -0.27999,
				"method": "rhf"
			},
			{
				"type": "occ",
				"energy": -0.26186,
				"method": "rhf"
			},
			{
				"type": "occ",
				"energy": -0.25343,
				"method": "rhf"
			},
			{
				"type": "occ",
				"energy": -0.24265,
				"method": "rhf"
			},
			{
				"type": "occ",
				"energy": -0.21769,
				"method": "rhf"
			},
			{
				"type": "unocc",
				"energy": -0.02829,
				"method": "rhf"
			},
			{
				"type": "unocc",
				"energy": -0.00494,
				"method": "rhf"
			},
			{
				"type": "unocc",
				"energy": 0.02756,
				"method": "rhf"
			},
			{
				"type": "unocc",
				"energy": 0.06829,
				"method": "rhf"
			},
			{
				"type": "unocc",
				"energy": 0.08341,
				"method": "rhf"
			}
		],
		"cosmo_sigma_profile": { 
			"-0.025": 0.0,
			"-0.024": 0.0,
			"-0.023": 0.0,
			"-0.022": 0.0,
			"-0.021": 0.0,
			"-0.02": 0.0,
			"-0.019": 0.0,
			"-0.018": 0.0,
			"-0.017": 0.0,
			"-0.016": 0.0,
			"-0.015": 0.0,
			"-0.014": 0.357637271212,
			"-0.013": 1.45165531752,
			"-0.012": 2.33390822931,
			"-0.011": 2.66814133448,
			"-0.01": 2.54139083821,
			"-0.009": 3.66762921664,
			"-0.008": 4.29542600496,
			"-0.007": 9.97172648838,
			"-0.006": 12.0520973099,
			"-0.005": 13.0704067776,
			"-0.004": 11.5618420132,
			"-0.003": 11.3241685304,
			"-0.002": 11.1884984021,
			"-0.001": 9.13259845224,
			"0.0": 8.84647126982,
			"0.001": 12.2069905575,
			"0.002": 14.6028539465,
			"0.003": 15.7506455828,
			"0.004": 10.134868221,
			"0.005": 8.04951834152,
			"0.006": 3.11740307305,
			"0.007": 4.2014970284,
			"0.008": 2.89111793987,
			"0.009": 2.66614789567,
			"0.01": 2.60329268329,
			"0.011": 2.24876675652,
			"0.012": 2.71827702949,
			"0.013": 2.3654277801,
			"0.014": 1.50772669639,
			"0.015": 2.87641782916,
			"0.016": 2.6537727057,
			"0.017": 0.308118832973,
			"0.018": 0.0,
			"0.019": 0.0,
			"0.02": 0.0,
			"0.021": 0.0,
			"0.022": 0.0,
			"0.023": 0.0,
			"0.024": 0.0,
			"0.025": 0.0
		}
	}
}
