{
	 "smiles": "FC(F)(F)C(F)(F)C(F)(F)C(F)(F)C(F)(F)C(F)(F)C(F)(F)C(F)(F)C(F)(F)C(F)(F)C=O", 
	 "Tm": 344.15, 
	 "num_atms": 34, 
	 "gaussian": { 
		 "optdone": 1, 
		 "sigma_profile": "yes", 
		 "theory": "DFT", 
		 "functional": "B3LYP", 
		 "basiset": "6-31G**", 
		 "properties": { 
			 "R2extent": 14562.7521, 
			 "electric_dipole_moment_norm": 1.47497837611, 
			 "electric_quadrupole_moment_norm": 11.0177262409, 
			 "total_energy": -2591.51795688, 
			 "HOMO_LUMO_gap": 0.21835, 
			 "cosmo_polarized_energy": -5.61, 
			 "cosmo_cavitation_energy": 45.82, 
			 "cosmo_dispersion_energy": -29.03, 
			 "cosmo_repulsion_energy": 1.81, 
			 "cosmo_total_nonelectrostatic_energy": 18.6, 
			 "SMD_solvation_energy": 14.97 
		},
		"coords": [
			{
				"x": -3.0103447106,
				"y": -4.2032714647,
				"z": -2.4157702115,
				"element": "F" 
			},
			{
				"x": -2.4263238743,
				"y": -3.008101337,
				"z": -2.2755521746,
				"element": "C" 
			},
			{
				"x": -1.1156471824,
				"y": -3.133202551,
				"z": -2.5221722637,
				"element": "F" 
			},
			{
				"x": -2.9610697034,
				"y": -2.1593684706,
				"z": -3.1589182248,
				"element": "F" 
			},
			{
				"x": -2.6624047353,
				"y": -2.5043534628,
				"z": -0.8254041539,
				"element": "C" 
			},
			{
				"x": -3.980190296,
				"y": -2.2286289781,
				"z": -0.7017018194,
				"element": "F" 
			},
			{
				"x": -2.3357165743,
				"y": -3.5064348192,
				"z": 0.0179713439,
				"element": "F" 
			},
			{
				"x": -1.8194990905,
				"y": -1.2494045853,
				"z": -0.4499214212,
				"element": "C" 
			},
			{
				"x": -1.885182789,
				"y": -0.3620734103,
				"z": -1.4733659035,
				"element": "F" 
			},
			{
				"x": -0.5393319085,
				"y": -1.6540206674,
				"z": -0.2918102294,
				"element": "F" 
			},
			{
				"x": -2.2826235337,
				"y": -0.5418592687,
				"z": 0.8517590881,
				"element": "C" 
			},
			{
				"x": -2.3315030203,
				"y": -1.4875275967,
				"z": 1.8227756762,
				"element": "F" 
			},
			{
				"x": -3.5206462539,
				"y": -0.0365678513,
				"z": 0.6712942714,
				"element": "F" 
			},
			{
				"x": -1.3740869493,
				"y": 0.5988183096,
				"z": 1.4273232194,
				"element": "C" 
			},
			{
				"x": -0.168462827,
				"y": 0.0714064319,
				"z": 1.7394070879,
				"element": "F" 
			},
			{
				"x": -1.9856727965,
				"y": 0.9701305654,
				"z": 2.5742431678,
				"element": "F" 
			},
			{
				"x": -1.1908546131,
				"y": 1.9073464408,
				"z": 0.5684236204,
				"element": "C" 
			},
			{
				"x": -1.2342827959,
				"y": 2.9665309907,
				"z": 1.4086712823,
				"element": "F" 
			},
			{
				"x": -2.2283976523,
				"y": 2.0138813336,
				"z": -0.2905498909,
				"element": "F" 
			},
			{
				"x": 0.1313375409,
				"y": 2.0225146823,
				"z": -0.2684826629,
				"element": "C" 
			},
			{
				"x": -0.1282496973,
				"y": 2.8201041468,
				"z": -1.3246204941,
				"element": "F" 
			},
			{
				"x": 0.4814460739,
				"y": 0.7990097843,
				"z": -0.7330111602,
				"element": "F" 
			},
			{
				"x": 1.330302864,
				"y": 2.6592367514,
				"z": 0.502396977,
				"element": "C" 
			},
			{
				"x": 1.1277371698,
				"y": 3.991201355,
				"z": 0.5569376833,
				"element": "F" 
			},
			{
				"x": 1.3794819758,
				"y": 2.1734917795,
				"z": 1.7730838906,
				"element": "F" 
			},
			{
				"x": 2.7140553009,
				"y": 2.378698204,
				"z": -0.1386611479,
				"element": "C" 
			},
			{
				"x": 3.0042296181,
				"y": 1.0626117894,
				"z": 0.0324767032,
				"element": "F" 
			},
			{
				"x": 2.6518588731,
				"y": 2.6542474856,
				"z": -1.4600705876,
				"element": "F" 
			},
			{
				"x": 3.8887756813,
				"y": 3.1787249832,
				"z": 0.485123806,
				"element": "C" 
			},
			{
				"x": 3.7107449215,
				"y": 4.4936540655,
				"z": 0.2681127657,
				"element": "F" 
			},
			{
				"x": 5.0129123758,
				"y": 2.764741249,
				"z": -0.1712902089,
				"element": "F" 
			},
			{
				"x": 4.1284365196,
				"y": 2.9004776052,
				"z": 1.9865239641,
				"element": "C" 
			},
			{
				"x": 4.0309504015,
				"y": 3.7659260366,
				"z": 2.814528845,
				"element": "O" 
			},
			{
				"x": 4.4314216874,
				"y": 1.8594604729,
				"z": 2.2071491623,
				"element": "H" 
			}
		],
		 "valence_orbital": [ 
			{
				"type": "occ",
				"energy": -0.40259,
				"method": "rhf"
			},
			{
				"type": "occ",
				"energy": -0.38399,
				"method": "rhf"
			},
			{
				"type": "occ",
				"energy": -0.3577,
				"method": "rhf"
			},
			{
				"type": "occ",
				"energy": -0.34879,
				"method": "rhf"
			},
			{
				"type": "occ",
				"energy": -0.29752,
				"method": "rhf"
			},
			{
				"type": "unocc",
				"energy": -0.07917,
				"method": "rhf"
			},
			{
				"type": "unocc",
				"energy": -0.00747,
				"method": "rhf"
			},
			{
				"type": "unocc",
				"energy": 0.00361,
				"method": "rhf"
			},
			{
				"type": "unocc",
				"energy": 0.01492,
				"method": "rhf"
			},
			{
				"type": "unocc",
				"energy": 0.02725,
				"method": "rhf"
			}
		],
		"cosmo_sigma_profile": { 
			"-0.025": 0.0,
			"-0.024": 0.0,
			"-0.023": 0.0,
			"-0.022": 0.0,
			"-0.021": 0.0,
			"-0.02": 0.0,
			"-0.019": 0.0,
			"-0.018": 0.0,
			"-0.017": 0.0,
			"-0.016": 0.0,
			"-0.015": 0.0,
			"-0.014": 0.0,
			"-0.013": 0.0,
			"-0.012": 0.0,
			"-0.011": 1.02992606535,
			"-0.01": 2.78633652735,
			"-0.009": 2.68401839174,
			"-0.008": 2.53500295822,
			"-0.007": 2.6456559396,
			"-0.006": 3.10143693687,
			"-0.005": 3.66975427774,
			"-0.004": 6.94675213825,
			"-0.003": 12.9122024729,
			"-0.002": 23.138390369,
			"-0.001": 39.1798196746,
			"0.0": 92.4721389376,
			"0.001": 133.816718599,
			"0.002": 22.8511861045,
			"0.003": 2.64409158519,
			"0.004": 2.45439980107,
			"0.005": 1.49937238717,
			"0.006": 2.3507009485,
			"0.007": 3.37415231159,
			"0.008": 4.04659413979,
			"0.009": 2.37919300712,
			"0.01": 0.179573865674,
			"0.011": 0.0,
			"0.012": 0.0,
			"0.013": 0.0,
			"0.014": 0.0,
			"0.015": 0.0,
			"0.016": 0.0,
			"0.017": 0.0,
			"0.018": 0.0,
			"0.019": 0.0,
			"0.02": 0.0,
			"0.021": 0.0,
			"0.022": 0.0,
			"0.023": 0.0,
			"0.024": 0.0,
			"0.025": 0.0
		}
	}
}
