{
	 "smiles": "ClC1=C(C=C(C=C1)C(=O)C1=CC=CC=C1)N(=O)=O", 
	 "Tm": 378.15, 
	 "num_atms": 26, 
	 "gaussian": { 
		 "optdone": 1, 
		 "sigma_profile": "yes", 
		 "theory": "DFT", 
		 "functional": "B3LYP", 
		 "basiset": "6-31G**", 
		 "properties": { 
			 "R2extent": 7505.4794, 
			 "electric_dipole_moment_norm": 3.08771165428, 
			 "electric_quadrupole_moment_norm": 18.5221125815, 
			 "total_energy": -1240.70784079, 
			 "HOMO_LUMO_gap": 0.16388, 
			 "cosmo_polarized_energy": -11.98, 
			 "cosmo_cavitation_energy": 33.68, 
			 "cosmo_dispersion_energy": -24.09, 
			 "cosmo_repulsion_energy": 1.84, 
			 "cosmo_total_nonelectrostatic_energy": 11.43, 
			 "SMD_solvation_energy": 8.11 
		},
		"coords": [
			{
				"x": 0.9978250986,
				"y": 1.089580265,
				"z": -5.5046693412,
				"element": "Cl" 
			},
			{
				"x": 0.6911268846,
				"y": 1.381247571,
				"z": -3.8184110816,
				"element": "C" 
			},
			{
				"x": 1.0457367037,
				"y": 0.4890290107,
				"z": -2.7954472718,
				"element": "C" 
			},
			{
				"x": 0.8419980357,
				"y": 0.8242383655,
				"z": -1.4556204966,
				"element": "C" 
			},
			{
				"x": 0.2497619018,
				"y": 2.0392446399,
				"z": -1.1089490881,
				"element": "C" 
			},
			{
				"x": -0.1349456063,
				"y": 2.9158849985,
				"z": -2.1359900591,
				"element": "C" 
			},
			{
				"x": 0.1035502288,
				"y": 2.6029347119,
				"z": -3.4668769486,
				"element": "C" 
			},
			{
				"x": -0.0877262412,
				"y": 2.4237962845,
				"z": 0.3074688154,
				"element": "C" 
			},
			{
				"x": -1.0286853577,
				"y": 3.1849880688,
				"z": 0.4998815331,
				"element": "O" 
			},
			{
				"x": 0.7015375047,
				"y": 1.8846864281,
				"z": 1.4575012022,
				"element": "C" 
			},
			{
				"x": 2.0555876752,
				"y": 1.5248256996,
				"z": 1.3600231283,
				"element": "C" 
			},
			{
				"x": 2.7485785079,
				"y": 1.0857934323,
				"z": 2.4884800615,
				"element": "C" 
			},
			{
				"x": 2.0954710983,
				"y": 0.9925827802,
				"z": 3.7183608139,
				"element": "C" 
			},
			{
				"x": 0.749641268,
				"y": 1.3579421487,
				"z": 3.8257363049,
				"element": "C" 
			},
			{
				"x": 0.0608725411,
				"y": 1.8126331665,
				"z": 2.7061112286,
				"element": "C" 
			},
			{
				"x": 1.6354862798,
				"y": -0.8383519933,
				"z": -3.0493843686,
				"element": "N" 
			},
			{
				"x": 2.4079532243,
				"y": -1.2691192517,
				"z": -2.1924551348,
				"element": "O" 
			},
			{
				"x": 1.3036998027,
				"y": -1.4349193274,
				"z": -4.0672948606,
				"element": "O" 
			},
			{
				"x": 1.136696867,
				"y": 0.1023754797,
				"z": -0.7050106994,
				"element": "H" 
			},
			{
				"x": -0.620867101,
				"y": 3.8475339616,
				"z": -1.8670587641,
				"element": "H" 
			},
			{
				"x": -0.1633898032,
				"y": 3.2975526271,
				"z": -4.2552607569,
				"element": "H" 
			},
			{
				"x": 2.5790246854,
				"y": 1.6128372748,
				"z": 0.4138995731,
				"element": "H" 
			},
			{
				"x": 3.7977595412,
				"y": 0.8188955606,
				"z": 2.4059277115,
				"element": "H" 
			},
			{
				"x": 2.634541419,
				"y": 0.6415697643,
				"z": 4.5935575187,
				"element": "H" 
			},
			{
				"x": 0.2426343713,
				"y": 1.2916266773,
				"z": 4.7837637327,
				"element": "H" 
			},
			{
				"x": -0.9777695298,
				"y": 2.1186916559,
				"z": 2.7723172474,
				"element": "H" 
			}
		],
		 "valence_orbital": [ 
			{
				"type": "occ",
				"energy": -0.28809,
				"method": "rhf"
			},
			{
				"type": "occ",
				"energy": -0.28002,
				"method": "rhf"
			},
			{
				"type": "occ",
				"energy": -0.27348,
				"method": "rhf"
			},
			{
				"type": "occ",
				"energy": -0.2707,
				"method": "rhf"
			},
			{
				"type": "occ",
				"energy": -0.26237,
				"method": "rhf"
			},
			{
				"type": "unocc",
				"energy": -0.09849,
				"method": "rhf"
			},
			{
				"type": "unocc",
				"energy": -0.08252,
				"method": "rhf"
			},
			{
				"type": "unocc",
				"energy": -0.04061,
				"method": "rhf"
			},
			{
				"type": "unocc",
				"energy": -0.02257,
				"method": "rhf"
			},
			{
				"type": "unocc",
				"energy": -0.01924,
				"method": "rhf"
			}
		],
		"cosmo_sigma_profile": { 
			"-0.025": 0.0,
			"-0.024": 0.0,
			"-0.023": 0.0,
			"-0.022": 0.0,
			"-0.021": 0.0,
			"-0.02": 0.0,
			"-0.019": 0.0,
			"-0.018": 0.0,
			"-0.017": 0.0,
			"-0.016": 0.0,
			"-0.015": 0.0,
			"-0.014": 0.0,
			"-0.013": 0.0,
			"-0.012": 0.0,
			"-0.011": 0.0,
			"-0.01": 0.0,
			"-0.009": 1.43539106753,
			"-0.008": 5.35881684207,
			"-0.007": 9.19734183831,
			"-0.006": 16.8489478821,
			"-0.005": 20.1587068897,
			"-0.004": 20.6817263969,
			"-0.003": 18.5856990881,
			"-0.002": 24.683696763,
			"-0.001": 21.8509443126,
			"0.0": 18.8623312147,
			"0.001": 16.7385370571,
			"0.002": 18.0827780217,
			"0.003": 21.0012166003,
			"0.004": 13.9440079718,
			"0.005": 5.8572754527,
			"0.006": 6.73462714691,
			"0.007": 12.2303083044,
			"0.008": 8.51945892304,
			"0.009": 5.16107862833,
			"0.01": 2.90675993982,
			"0.011": 3.72081312288,
			"0.012": 1.57260077306,
			"0.013": 0.0,
			"0.014": 0.0,
			"0.015": 0.0,
			"0.016": 0.0,
			"0.017": 0.0,
			"0.018": 0.0,
			"0.019": 0.0,
			"0.02": 0.0,
			"0.021": 0.0,
			"0.022": 0.0,
			"0.023": 0.0,
			"0.024": 0.0,
			"0.025": 0.0
		}
	}
}
