{
	 "smiles": "CCC1=C(CC(O)=O)C(CC)=NO1", 
	 "Tm": 347.15, 
	 "num_atms": 26, 
	 "gaussian": { 
		 "optdone": 1, 
		 "sigma_profile": "yes", 
		 "theory": "DFT", 
		 "functional": "B3LYP", 
		 "basiset": "6-31G**", 
		 "properties": { 
			 "R2extent": 2943.9004, 
			 "electric_dipole_moment_norm": 4.08803944453, 
			 "electric_quadrupole_moment_norm": 8.64239747003, 
			 "total_energy": -631.200265459, 
			 "HOMO_LUMO_gap": 0.23982, 
			 "cosmo_polarized_energy": -14.84, 
			 "cosmo_cavitation_energy": 29.8, 
			 "cosmo_dispersion_energy": -20.69, 
			 "cosmo_repulsion_energy": 1.7, 
			 "cosmo_total_nonelectrostatic_energy": 10.81, 
			 "SMD_solvation_energy": 6.08 
		},
		"coords": [
			{
				"x": -2.9735065177,
				"y": 0.9627947181,
				"z": -0.0553682313,
				"element": "C" 
			},
			{
				"x": -1.8898572537,
				"y": 0.2654786172,
				"z": 0.7874037722,
				"element": "C" 
			},
			{
				"x": -0.5041844495,
				"y": 0.5288528131,
				"z": 0.292290069,
				"element": "C" 
			},
			{
				"x": 0.4636227071,
				"y": -0.2472580813,
				"z": -0.2822169748,
				"element": "C" 
			},
			{
				"x": 0.404349278,
				"y": -1.7139906426,
				"z": -0.5767889867,
				"element": "C" 
			},
			{
				"x": 0.3467247367,
				"y": -2.0593835945,
				"z": -2.0580125635,
				"element": "C" 
			},
			{
				"x": -0.0455721632,
				"y": -3.3442681119,
				"z": -2.2351255736,
				"element": "O" 
			},
			{
				"x": 0.6319372929,
				"y": -1.3303024387,
				"z": -2.9805897439,
				"element": "O" 
			},
			{
				"x": 1.5379363616,
				"y": 0.6737617691,
				"z": -0.5289284045,
				"element": "C" 
			},
			{
				"x": 2.8897995764,
				"y": 0.4101851575,
				"z": -1.1303080902,
				"element": "C" 
			},
			{
				"x": 3.8564133073,
				"y": -0.2978445799,
				"z": -0.1644885086,
				"element": "C" 
			},
			{
				"x": 1.2310620409,
				"y": 1.8880751935,
				"z": -0.1343570559,
				"element": "N" 
			},
			{
				"x": -0.0661542947,
				"y": 1.8015020921,
				"z": 0.3912165694,
				"element": "O" 
			},
			{
				"x": -3.9673069825,
				"y": 0.7585087318,
				"z": 0.3542023379,
				"element": "H" 
			},
			{
				"x": -2.8200409912,
				"y": 2.0450425226,
				"z": -0.0618507884,
				"element": "H" 
			},
			{
				"x": -2.9506235253,
				"y": 0.6125931401,
				"z": -1.0917107704,
				"element": "H" 
			},
			{
				"x": -1.9613107768,
				"y": 0.6051719545,
				"z": 1.8280651667,
				"element": "H" 
			},
			{
				"x": -2.058910458,
				"y": -0.8163656802,
				"z": 0.7980094095,
				"element": "H" 
			},
			{
				"x": -0.4560983174,
				"y": -2.1820529461,
				"z": -0.0891228762,
				"element": "H" 
			},
			{
				"x": 1.2832794869,
				"y": -2.2376938897,
				"z": -0.1762245388,
				"element": "H" 
			},
			{
				"x": -0.0246375631,
				"y": -3.5048556476,
				"z": -3.1937357387,
				"element": "H" 
			},
			{
				"x": 2.7558659882,
				"y": -0.1833467875,
				"z": -2.0402795002,
				"element": "H" 
			},
			{
				"x": 3.3136090083,
				"y": 1.373334627,
				"z": -1.4301970061,
				"element": "H" 
			},
			{
				"x": 4.8262146114,
				"y": -0.4611601692,
				"z": -0.6448654824,
				"element": "H" 
			},
			{
				"x": 3.4764829447,
				"y": -1.2748877619,
				"z": 0.1532860789,
				"element": "H" 
			},
			{
				"x": 4.0185059525,
				"y": 0.3043089943,
				"z": 0.7344974306,
				"element": "H" 
			}
		],
		 "valence_orbital": [ 
			{
				"type": "occ",
				"energy": -0.32779,
				"method": "rhf"
			},
			{
				"type": "occ",
				"energy": -0.2906,
				"method": "rhf"
			},
			{
				"type": "occ",
				"energy": -0.2873,
				"method": "rhf"
			},
			{
				"type": "occ",
				"energy": -0.27293,
				"method": "rhf"
			},
			{
				"type": "occ",
				"energy": -0.24411,
				"method": "rhf"
			},
			{
				"type": "unocc",
				"energy": -0.00429,
				"method": "rhf"
			},
			{
				"type": "unocc",
				"energy": 0.002,
				"method": "rhf"
			},
			{
				"type": "unocc",
				"energy": 0.05214,
				"method": "rhf"
			},
			{
				"type": "unocc",
				"energy": 0.06791,
				"method": "rhf"
			},
			{
				"type": "unocc",
				"energy": 0.08023,
				"method": "rhf"
			}
		],
		"cosmo_sigma_profile": { 
			"-0.025": 0.0,
			"-0.024": 0.0,
			"-0.023": 0.0,
			"-0.022": 0.0,
			"-0.021": 0.0,
			"-0.02": 0.0,
			"-0.019": 0.0937671858313,
			"-0.018": 0.64798180577,
			"-0.017": 0.955017763095,
			"-0.016": 1.39371062589,
			"-0.015": 0.572091333023,
			"-0.014": 0.230580023521,
			"-0.013": 0.57489226414,
			"-0.012": 1.00690852414,
			"-0.011": 0.669376244665,
			"-0.01": 1.08303500638,
			"-0.009": 0.561142776776,
			"-0.008": 2.25756325162,
			"-0.007": 7.06003038572,
			"-0.006": 7.174070053,
			"-0.005": 10.4598217484,
			"-0.004": 17.1021834867,
			"-0.003": 22.6615746718,
			"-0.002": 29.0167484207,
			"-0.001": 24.1507152552,
			"0.0": 24.1065916346,
			"0.001": 15.4227258044,
			"0.002": 8.36389562772,
			"0.003": 5.71810180319,
			"0.004": 6.17917515306,
			"0.005": 5.18467704502,
			"0.006": 4.69179367338,
			"0.007": 5.64724183882,
			"0.008": 6.70222576726,
			"0.009": 7.9403801474,
			"0.01": 4.14017561075,
			"0.011": 5.09067314002,
			"0.012": 3.72880184487,
			"0.013": 1.45400368026,
			"0.014": 1.22779301592,
			"0.015": 0.853981117528,
			"0.016": 0.0394651504546,
			"0.017": 0.0,
			"0.018": 0.0,
			"0.019": 0.0,
			"0.02": 0.0,
			"0.021": 0.0,
			"0.022": 0.0,
			"0.023": 0.0,
			"0.024": 0.0,
			"0.025": 0.0
		}
	}
}
