{
	 "smiles": "ClC1=CC=CC=C1CC#N", 
	 "Tm": 296.65, 
	 "num_atms": 16, 
	 "gaussian": { 
		 "optdone": 1, 
		 "sigma_profile": "yes", 
		 "theory": "DFT", 
		 "functional": "B3LYP", 
		 "basiset": "6-31G**", 
		 "properties": { 
			 "R2extent": 2926.395, 
			 "electric_dipole_moment_norm": 4.7235967927, 
			 "electric_quadrupole_moment_norm": 15.2158978595, 
			 "total_energy": -823.392982518, 
			 "HOMO_LUMO_gap": 0.22856, 
			 "cosmo_polarized_energy": -10.65, 
			 "cosmo_cavitation_energy": 22.85, 
			 "cosmo_dispersion_energy": -16.18, 
			 "cosmo_repulsion_energy": 1.32, 
			 "cosmo_total_nonelectrostatic_energy": 7.99, 
			 "SMD_solvation_energy": 5.08 
		},
		"coords": [
			{
				"x": 0.5920776803,
				"y": -1.2917745464,
				"z": -4.0288142712,
				"element": "Cl" 
			},
			{
				"x": 0.7261871661,
				"y": -1.3901018773,
				"z": -2.277397496,
				"element": "C" 
			},
			{
				"x": 1.4247992154,
				"y": -2.4654386587,
				"z": -1.7286791292,
				"element": "C" 
			},
			{
				"x": 1.5488840557,
				"y": -2.5696090306,
				"z": -0.3439950348,
				"element": "C" 
			},
			{
				"x": 0.9745943658,
				"y": -1.6039896333,
				"z": 0.4830049796,
				"element": "C" 
			},
			{
				"x": 0.2774187901,
				"y": -0.5371501077,
				"z": -0.0808654445,
				"element": "C" 
			},
			{
				"x": 0.138025352,
				"y": -0.4077222284,
				"z": -1.4682918003,
				"element": "C" 
			},
			{
				"x": -0.6305713265,
				"y": 0.7691934862,
				"z": -2.0474186129,
				"element": "C" 
			},
			{
				"x": 0.2437900264,
				"y": 1.8674554427,
				"z": -2.4825965733,
				"element": "C" 
			},
			{
				"x": 0.9341131136,
				"y": 2.7401035025,
				"z": -2.8118408235,
				"element": "N" 
			},
			{
				"x": 1.8644079193,
				"y": -3.2076586582,
				"z": -2.3855120171,
				"element": "H" 
			},
			{
				"x": 2.0934454767,
				"y": -3.4060960023,
				"z": 0.0830782247,
				"element": "H" 
			},
			{
				"x": 1.0671210981,
				"y": -1.6800447595,
				"z": 1.561765907,
				"element": "H" 
			},
			{
				"x": -0.1699181055,
				"y": 0.2160710428,
				"z": 0.5620828705,
				"element": "H" 
			},
			{
				"x": -1.3189681296,
				"y": 1.1647341074,
				"z": -1.2931070091,
				"element": "H" 
			},
			{
				"x": -1.2350066977,
				"y": 0.4548279208,
				"z": -2.9045137699,
				"element": "H" 
			}
		],
		 "valence_orbital": [ 
			{
				"type": "occ",
				"energy": -0.33029,
				"method": "rhf"
			},
			{
				"type": "occ",
				"energy": -0.32296,
				"method": "rhf"
			},
			{
				"type": "occ",
				"energy": -0.31989,
				"method": "rhf"
			},
			{
				"type": "occ",
				"energy": -0.27387,
				"method": "rhf"
			},
			{
				"type": "occ",
				"energy": -0.25928,
				"method": "rhf"
			},
			{
				"type": "unocc",
				"energy": -0.03072,
				"method": "rhf"
			},
			{
				"type": "unocc",
				"energy": -0.02718,
				"method": "rhf"
			},
			{
				"type": "unocc",
				"energy": 0.0143,
				"method": "rhf"
			},
			{
				"type": "unocc",
				"energy": 0.04003,
				"method": "rhf"
			},
			{
				"type": "unocc",
				"energy": 0.0462,
				"method": "rhf"
			}
		],
		"cosmo_sigma_profile": { 
			"-0.025": 0.0,
			"-0.024": 0.0,
			"-0.023": 0.0,
			"-0.022": 0.0,
			"-0.021": 0.0,
			"-0.02": 0.0,
			"-0.019": 0.0,
			"-0.018": 0.0,
			"-0.017": 0.0,
			"-0.016": 0.0,
			"-0.015": 0.0,
			"-0.014": 0.0,
			"-0.013": 0.0,
			"-0.012": 0.0,
			"-0.011": 0.0,
			"-0.01": 0.688982995311,
			"-0.009": 4.21691367153,
			"-0.008": 5.8771377565,
			"-0.007": 10.0848051858,
			"-0.006": 12.7596063976,
			"-0.005": 12.727806659,
			"-0.004": 10.0318174479,
			"-0.003": 7.59668066819,
			"-0.002": 9.44885096207,
			"-0.001": 9.11541373573,
			"0.0": 12.3771090644,
			"0.001": 16.3651317978,
			"0.002": 16.4748620568,
			"0.003": 17.5443704597,
			"0.004": 14.6770060875,
			"0.005": 3.59483613458,
			"0.006": 2.74004545111,
			"0.007": 2.76115963963,
			"0.008": 3.42065145782,
			"0.009": 3.56576592944,
			"0.01": 3.2807752218,
			"0.011": 2.74772559973,
			"0.012": 2.46047182486,
			"0.013": 1.77109876443,
			"0.014": 0.164023270726,
			"0.015": 0.0,
			"0.016": 0.0,
			"0.017": 0.0,
			"0.018": 0.0,
			"0.019": 0.0,
			"0.02": 0.0,
			"0.021": 0.0,
			"0.022": 0.0,
			"0.023": 0.0,
			"0.024": 0.0,
			"0.025": 0.0
		}
	}
}
