{
	 "smiles": "COC1=C(C=CC=C1)C(=O)NC(C(C)C)C(O)=O", 
	 "Tm": 401.15, 
	 "num_atms": 35, 
	 "gaussian": { 
		 "optdone": 1, 
		 "sigma_profile": "yes", 
		 "theory": "DFT", 
		 "functional": "B3LYP", 
		 "basiset": "6-31G**", 
		 "properties": { 
			 "R2extent": 5423.717, 
			 "electric_dipole_moment_norm": 5.94035500033, 
			 "electric_quadrupole_moment_norm": 8.15016333333, 
			 "total_energy": -861.309380411, 
			 "HOMO_LUMO_gap": 0.19964, 
			 "cosmo_polarized_energy": -16.76, 
			 "cosmo_cavitation_energy": 37.89, 
			 "cosmo_dispersion_energy": -25.86, 
			 "cosmo_repulsion_energy": 1.99, 
			 "cosmo_total_nonelectrostatic_energy": 14.02, 
			 "SMD_solvation_energy": 8.48 
		},
		"coords": [
			{
				"x": -0.7300665374,
				"y": -2.0789327941,
				"z": 2.8919398091,
				"element": "C" 
			},
			{
				"x": -0.2577904017,
				"y": -1.4644342473,
				"z": 1.7000504926,
				"element": "O" 
			},
			{
				"x": 0.9998659965,
				"y": -1.760690411,
				"z": 1.2391837205,
				"element": "C" 
			},
			{
				"x": 1.4392540642,
				"y": -1.110711881,
				"z": 0.0608621865,
				"element": "C" 
			},
			{
				"x": 2.7211293468,
				"y": -1.4133237996,
				"z": -0.4164239538,
				"element": "C" 
			},
			{
				"x": 3.5570572286,
				"y": -2.3180556725,
				"z": 0.2312318933,
				"element": "C" 
			},
			{
				"x": 3.1077776747,
				"y": -2.9473810739,
				"z": 1.3902844495,
				"element": "C" 
			},
			{
				"x": 1.8361052578,
				"y": -2.6728719547,
				"z": 1.8940015071,
				"element": "C" 
			},
			{
				"x": 0.6693755485,
				"y": -0.1060105453,
				"z": -0.7662172337,
				"element": "C" 
			},
			{
				"x": 1.1629523551,
				"y": 0.366105925,
				"z": -1.7930456231,
				"element": "O" 
			},
			{
				"x": -0.5730822447,
				"y": 0.2589688393,
				"z": -0.3422478641,
				"element": "N" 
			},
			{
				"x": -1.3447756693,
				"y": 1.238966654,
				"z": -1.0878598038,
				"element": "C" 
			},
			{
				"x": -2.1121990638,
				"y": 0.5984916919,
				"z": -2.2929136365,
				"element": "C" 
			},
			{
				"x": -3.1917105504,
				"y": -0.3927602405,
				"z": -1.839602457,
				"element": "C" 
			},
			{
				"x": -2.6714762411,
				"y": 1.6581212302,
				"z": -3.2503479306,
				"element": "C" 
			},
			{
				"x": -2.2879833042,
				"y": 2.0067796183,
				"z": -0.177129828,
				"element": "C" 
			},
			{
				"x": -2.5931772336,
				"y": 1.3390995212,
				"z": 0.9676484966,
				"element": "O" 
			},
			{
				"x": -2.7710636117,
				"y": 3.0860775597,
				"z": -0.4365668601,
				"element": "O" 
			},
			{
				"x": -0.0951233209,
				"y": -1.8289618902,
				"z": 3.7500529389,
				"element": "H" 
			},
			{
				"x": -0.7868794973,
				"y": -3.1686251015,
				"z": 2.7854414986,
				"element": "H" 
			},
			{
				"x": -1.7315434703,
				"y": -1.6786166701,
				"z": 3.0538797659,
				"element": "H" 
			},
			{
				"x": 3.0322284578,
				"y": -0.9037468325,
				"z": -1.3216958394,
				"element": "H" 
			},
			{
				"x": 4.5454254522,
				"y": -2.5291467033,
				"z": -0.1643039714,
				"element": "H" 
			},
			{
				"x": 3.7420742415,
				"y": -3.6578627575,
				"z": 1.9128288271,
				"element": "H" 
			},
			{
				"x": 1.5032073516,
				"y": -3.1725950465,
				"z": 2.7952093975,
				"element": "H" 
			},
			{
				"x": -0.9431976332,
				"y": -0.1379912779,
				"z": 0.5096260495,
				"element": "H" 
			},
			{
				"x": -0.6449048534,
				"y": 1.967719919,
				"z": -1.5066055976,
				"element": "H" 
			},
			{
				"x": -1.329257493,
				"y": 0.0428600033,
				"z": -2.8216888995,
				"element": "H" 
			},
			{
				"x": -2.7857324593,
				"y": -1.1406408857,
				"z": -1.1512575999,
				"element": "H" 
			},
			{
				"x": -4.0234922294,
				"y": 0.1161436412,
				"z": -1.3379304727,
				"element": "H" 
			},
			{
				"x": -3.6064941798,
				"y": -0.9238008214,
				"z": -2.7023736013,
				"element": "H" 
			},
			{
				"x": -3.4402829381,
				"y": 2.2716831533,
				"z": -2.7720413568,
				"element": "H" 
			},
			{
				"x": -1.8819587103,
				"y": 2.329700748,
				"z": -3.603128343,
				"element": "H" 
			},
			{
				"x": -3.1165750255,
				"y": 1.1747606225,
				"z": -4.1264755282,
				"element": "H" 
			},
			{
				"x": -3.2133863071,
				"y": 1.9109814796,
				"z": 1.450715368,
				"element": "H" 
			}
		],
		 "valence_orbital": [ 
			{
				"type": "occ",
				"energy": -0.28246,
				"method": "rhf"
			},
			{
				"type": "occ",
				"energy": -0.25479,
				"method": "rhf"
			},
			{
				"type": "occ",
				"energy": -0.24717,
				"method": "rhf"
			},
			{
				"type": "occ",
				"energy": -0.23996,
				"method": "rhf"
			},
			{
				"type": "occ",
				"energy": -0.23269,
				"method": "rhf"
			},
			{
				"type": "unocc",
				"energy": -0.03305,
				"method": "rhf"
			},
			{
				"type": "unocc",
				"energy": 0.00207,
				"method": "rhf"
			},
			{
				"type": "unocc",
				"energy": 0.00356,
				"method": "rhf"
			},
			{
				"type": "unocc",
				"energy": 0.0648,
				"method": "rhf"
			},
			{
				"type": "unocc",
				"energy": 0.06911,
				"method": "rhf"
			}
		],
		"cosmo_sigma_profile": { 
			"-0.025": 0.0,
			"-0.024": 0.0,
			"-0.023": 0.0,
			"-0.022": 0.0,
			"-0.021": 0.0,
			"-0.02": 0.0,
			"-0.019": 0.172088970657,
			"-0.018": 0.98100830683,
			"-0.017": 0.883301280975,
			"-0.016": 0.91219277051,
			"-0.015": 0.932566979998,
			"-0.014": 0.644463112782,
			"-0.013": 0.0974263226887,
			"-0.012": 0.781639712798,
			"-0.011": 1.03699312969,
			"-0.01": 0.584892113845,
			"-0.009": 0.151576039864,
			"-0.008": 1.4146057219,
			"-0.007": 4.24883720946,
			"-0.006": 13.9669613741,
			"-0.005": 17.0844570918,
			"-0.004": 22.9042445592,
			"-0.003": 27.0455628262,
			"-0.002": 25.9779915218,
			"-0.001": 23.76823975,
			"0.0": 30.6879198244,
			"0.001": 31.4159953202,
			"0.002": 17.8024005988,
			"0.003": 16.0289059311,
			"0.004": 15.9672504071,
			"0.005": 10.0002197169,
			"0.006": 3.86453416563,
			"0.007": 3.45774309383,
			"0.008": 3.40442021938,
			"0.009": 2.59018462451,
			"0.01": 3.83660768474,
			"0.011": 5.94926545683,
			"0.012": 3.75028532748,
			"0.013": 2.78891634709,
			"0.014": 3.56070766184,
			"0.015": 0.0776709660354,
			"0.016": 0.0,
			"0.017": 0.0,
			"0.018": 0.0,
			"0.019": 0.0,
			"0.02": 0.0,
			"0.021": 0.0,
			"0.022": 0.0,
			"0.023": 0.0,
			"0.024": 0.0,
			"0.025": 0.0
		}
	}
}
