{
	 "smiles": "OC(=O)C1=C(O)C2=C(C=CC(Br)=C2)N=C1", 
	 "Tm": 548.15, 
	 "num_atms": 21, 
	 "gaussian": { 
		 "optdone": 1, 
		 "sigma_profile": "yes", 
		 "theory": "DFT", 
		 "functional": "B3LYP", 
		 "basiset": "6-31G**", 
		 "properties": { 
			 "R2extent": 6167.1241, 
			 "electric_dipole_moment_norm": 5.75602112748, 
			 "electric_quadrupole_moment_norm": 25.1276658645, 
			 "total_energy": -3236.5204122, 
			 "HOMO_LUMO_gap": 0.16866, 
			 "cosmo_polarized_energy": -19.92, 
			 "cosmo_cavitation_energy": 28.11, 
			 "cosmo_dispersion_energy": -21.8, 
			 "cosmo_repulsion_energy": 1.66, 
			 "cosmo_total_nonelectrostatic_energy": 7.98, 
			 "SMD_solvation_energy": 3.4 
		},
		"coords": [
			{
				"x": -0.8184959072,
				"y": 3.6781661791,
				"z": 1.541247868,
				"element": "O" 
			},
			{
				"x": -0.7368607694,
				"y": 3.6137438182,
				"z": 0.1981748657,
				"element": "C" 
			},
			{
				"x": -0.5765940475,
				"y": 4.6191934153,
				"z": -0.4574777316,
				"element": "O" 
			},
			{
				"x": -0.8452333464,
				"y": 2.2623582166,
				"z": -0.456682023,
				"element": "C" 
			},
			{
				"x": -1.0485240511,
				"y": 1.0507843526,
				"z": 0.1863636101,
				"element": "C" 
			},
			{
				"x": -1.1821427504,
				"y": 1.0372804853,
				"z": 1.5452562234,
				"element": "O" 
			},
			{
				"x": -1.1276626184,
				"y": -0.1543397061,
				"z": -0.5742850651,
				"element": "C" 
			},
			{
				"x": -0.9601801871,
				"y": -0.0385366767,
				"z": -1.9895436361,
				"element": "C" 
			},
			{
				"x": -1.0140216541,
				"y": -1.2169080886,
				"z": -2.7781391274,
				"element": "C" 
			},
			{
				"x": -1.2302608714,
				"y": -2.4494010732,
				"z": -2.2058582816,
				"element": "C" 
			},
			{
				"x": -1.4085089114,
				"y": -2.544634122,
				"z": -0.8070280346,
				"element": "C" 
			},
			{
				"x": -1.7274410072,
				"y": -4.2578882392,
				"z": -0.0328709383,
				"element": "Br" 
			},
			{
				"x": -1.3634716319,
				"y": -1.4304888582,
				"z": -0.0005159878,
				"element": "C" 
			},
			{
				"x": -0.7548855346,
				"y": 1.1531042096,
				"z": -2.6216366852,
				"element": "N" 
			},
			{
				"x": -0.7109897166,
				"y": 2.2326928299,
				"z": -1.8749891779,
				"element": "C" 
			},
			{
				"x": -0.9465941566,
				"y": 2.7923360955,
				"z": 1.9209001453,
				"element": "H" 
			},
			{
				"x": -1.1507338136,
				"y": 0.138650201,
				"z": 1.8967770172,
				"element": "H" 
			},
			{
				"x": -0.8804705853,
				"y": -1.1067003752,
				"z": -3.8488918184,
				"element": "H" 
			},
			{
				"x": -1.271087626,
				"y": -3.3462917133,
				"z": -2.8130018346,
				"element": "H" 
			},
			{
				"x": -1.5302736477,
				"y": -1.5587440532,
				"z": 1.0648714168,
				"element": "H" 
			},
			{
				"x": -0.5514671661,
				"y": 3.1864231028,
				"z": -2.3710708047,
				"element": "H" 
			}
		],
		 "valence_orbital": [ 
			{
				"type": "occ",
				"energy": -0.30766,
				"method": "rhf"
			},
			{
				"type": "occ",
				"energy": -0.28366,
				"method": "rhf"
			},
			{
				"type": "occ",
				"energy": -0.27142,
				"method": "rhf"
			},
			{
				"type": "occ",
				"energy": -0.2684,
				"method": "rhf"
			},
			{
				"type": "occ",
				"energy": -0.25199,
				"method": "rhf"
			},
			{
				"type": "unocc",
				"energy": -0.08333,
				"method": "rhf"
			},
			{
				"type": "unocc",
				"energy": -0.05607,
				"method": "rhf"
			},
			{
				"type": "unocc",
				"energy": -0.0164,
				"method": "rhf"
			},
			{
				"type": "unocc",
				"energy": -0.00594,
				"method": "rhf"
			},
			{
				"type": "unocc",
				"energy": 0.01538,
				"method": "rhf"
			}
		],
		"cosmo_sigma_profile": { 
			"-0.025": 0.0,
			"-0.024": 0.0,
			"-0.023": 0.0,
			"-0.022": 0.0,
			"-0.021": 0.452348451249,
			"-0.02": 1.23195982787,
			"-0.019": 1.2029876914,
			"-0.018": 0.558936103422,
			"-0.017": 1.2443023412,
			"-0.016": 1.21848968875,
			"-0.015": 0.5356696823,
			"-0.014": 1.29772210372,
			"-0.013": 1.19415654035,
			"-0.012": 0.489316258033,
			"-0.011": 1.07627752871,
			"-0.01": 2.40819680904,
			"-0.009": 1.6135409175,
			"-0.008": 3.79679372877,
			"-0.007": 6.96469568935,
			"-0.006": 9.29523657065,
			"-0.005": 9.09144814474,
			"-0.004": 12.0826443214,
			"-0.003": 14.3653974449,
			"-0.002": 16.0701005214,
			"-0.001": 19.4238020511,
			"0.0": 20.9180382379,
			"0.001": 22.763353505,
			"0.002": 14.3367211058,
			"0.003": 13.226578446,
			"0.004": 13.1263773938,
			"0.005": 4.0783978087,
			"0.006": 3.98662930815,
			"0.007": 3.74828467785,
			"0.008": 3.4479124028,
			"0.009": 3.77635685409,
			"0.01": 5.08829256693,
			"0.011": 6.81533074041,
			"0.012": 5.20543707558,
			"0.013": 2.85781561326,
			"0.014": 0.713971963014,
			"0.015": 0.708102737838,
			"0.016": 0.118746652226,
			"0.017": 0.0,
			"0.018": 0.0,
			"0.019": 0.0,
			"0.02": 0.0,
			"0.021": 0.0,
			"0.022": 0.0,
			"0.023": 0.0,
			"0.024": 0.0,
			"0.025": 0.0
		}
	}
}
