{
	 "smiles": "CCCC1=CN=C(S)N=C1", 
	 "Tm": 482.15, 
	 "num_atms": 20, 
	 "gaussian": { 
		 "optdone": 1, 
		 "sigma_profile": "yes", 
		 "theory": "DFT", 
		 "functional": "B3LYP", 
		 "basiset": "6-31G**", 
		 "properties": { 
			 "R2extent": 2358.3759, 
			 "electric_dipole_moment_norm": 3.381957584, 
			 "electric_quadrupole_moment_norm": 5.5994895437, 
			 "total_energy": -780.465876604, 
			 "HOMO_LUMO_gap": 0.19104, 
			 "cosmo_polarized_energy": -7.93, 
			 "cosmo_cavitation_energy": 25.18, 
			 "cosmo_dispersion_energy": -18.78, 
			 "cosmo_repulsion_energy": 1.49, 
			 "cosmo_total_nonelectrostatic_energy": 7.9, 
			 "SMD_solvation_energy": 0.75 
		},
		"coords": [
			{
				"x": -3.3677384311,
				"y": -1.9055653224,
				"z": -1.3578351711,
				"element": "C" 
			},
			{
				"x": -2.8971635728,
				"y": -0.7122622076,
				"z": -2.1939653324,
				"element": "C" 
			},
			{
				"x": -1.3611136416,
				"y": -0.5485640415,
				"z": -2.2473294705,
				"element": "C" 
			},
			{
				"x": -0.7300721856,
				"y": -0.2142069582,
				"z": -0.9173602074,
				"element": "C" 
			},
			{
				"x": -0.7610331825,
				"y": 1.0779313839,
				"z": -0.3769132347,
				"element": "C" 
			},
			{
				"x": -0.2280421057,
				"y": 1.3973502207,
				"z": 0.8035707082,
				"element": "N" 
			},
			{
				"x": 0.3573141976,
				"y": 0.3938443777,
				"z": 1.4688765425,
				"element": "C" 
			},
			{
				"x": 1.0502850998,
				"y": 0.8537538156,
				"z": 3.0419740417,
				"element": "S" 
			},
			{
				"x": 0.4674647973,
				"y": -0.8767182004,
				"z": 1.0683359698,
				"element": "N" 
			},
			{
				"x": -0.0784363946,
				"y": -1.1593274918,
				"z": -0.1201552389,
				"element": "C" 
			},
			{
				"x": -4.4595160605,
				"y": -1.9819560782,
				"z": -1.363958168,
				"element": "H" 
			},
			{
				"x": -3.047794134,
				"y": -1.818125418,
				"z": -0.3144574316,
				"element": "H" 
			},
			{
				"x": -2.966981259,
				"y": -2.8469493707,
				"z": -1.7514842042,
				"element": "H" 
			},
			{
				"x": -3.2645145664,
				"y": -0.8177162158,
				"z": -3.2222030517,
				"element": "H" 
			},
			{
				"x": -3.3415733426,
				"y": 0.2117605206,
				"z": -1.8022218683,
				"element": "H" 
			},
			{
				"x": -0.9148147242,
				"y": -1.4724670991,
				"z": -2.6363213584,
				"element": "H" 
			},
			{
				"x": -1.115713332,
				"y": 0.2407803946,
				"z": -2.9684664747,
				"element": "H" 
			},
			{
				"x": -1.2317430783,
				"y": 1.8946551382,
				"z": -0.9248252675,
				"element": "H" 
			},
			{
				"x": 1.5027570722,
				"y": -0.3813905225,
				"z": 3.3303870969,
				"element": "H" 
			},
			{
				"x": 0.0153288441,
				"y": -2.1925269249,
				"z": -0.4542478796,
				"element": "H" 
			}
		],
		 "valence_orbital": [ 
			{
				"type": "occ",
				"energy": -0.32084,
				"method": "rhf"
			},
			{
				"type": "occ",
				"energy": -0.30434,
				"method": "rhf"
			},
			{
				"type": "occ",
				"energy": -0.3031,
				"method": "rhf"
			},
			{
				"type": "occ",
				"energy": -0.25552,
				"method": "rhf"
			},
			{
				"type": "occ",
				"energy": -0.2357,
				"method": "rhf"
			},
			{
				"type": "unocc",
				"energy": -0.04466,
				"method": "rhf"
			},
			{
				"type": "unocc",
				"energy": -0.0259,
				"method": "rhf"
			},
			{
				"type": "unocc",
				"energy": 0.02481,
				"method": "rhf"
			},
			{
				"type": "unocc",
				"energy": 0.0791,
				"method": "rhf"
			},
			{
				"type": "unocc",
				"energy": 0.08953,
				"method": "rhf"
			}
		],
		"cosmo_sigma_profile": { 
			"-0.025": 0.0,
			"-0.024": 0.0,
			"-0.023": 0.0,
			"-0.022": 0.0,
			"-0.021": 0.0,
			"-0.02": 0.0,
			"-0.019": 0.0,
			"-0.018": 0.0,
			"-0.017": 0.0,
			"-0.016": 0.0,
			"-0.015": 0.0,
			"-0.014": 0.0,
			"-0.013": 0.0,
			"-0.012": 0.0,
			"-0.011": 0.550775445521,
			"-0.01": 1.64061882431,
			"-0.009": 1.28206982915,
			"-0.008": 1.87382418426,
			"-0.007": 5.43570003098,
			"-0.006": 6.19012897705,
			"-0.005": 8.01957644533,
			"-0.004": 9.85994191694,
			"-0.003": 17.2588033654,
			"-0.002": 22.9768223423,
			"-0.001": 28.8840460891,
			"0.0": 24.4728497805,
			"0.001": 15.9979749943,
			"0.002": 10.1166140018,
			"0.003": 8.99261894164,
			"0.004": 7.39236114486,
			"0.005": 7.35377825595,
			"0.006": 5.53355454504,
			"0.007": 5.59445762109,
			"0.008": 3.17825627766,
			"0.009": 1.90667451442,
			"0.01": 1.41427830252,
			"0.011": 2.0052175103,
			"0.012": 1.36051532156,
			"0.013": 1.52406990515,
			"0.014": 0.845586026849,
			"0.015": 0.0,
			"0.016": 0.0,
			"0.017": 0.0,
			"0.018": 0.0,
			"0.019": 0.0,
			"0.02": 0.0,
			"0.021": 0.0,
			"0.022": 0.0,
			"0.023": 0.0,
			"0.024": 0.0,
			"0.025": 0.0
		}
	}
}
