{
	 "smiles": "CC1=CC(C)=C(C)C(I)=C1C", 
	 "Tm": 352.15, 
	 "num_atms": 24, 
	 "gaussian": { 
		 "optdone": 1, 
		 "sigma_profile": "no", 
		 "theory": "DFT", 
		 "functional": "B3LYP", 
		 "basiset": "6-31G**", 
		 "properties": { 
			 "R2extent": 2233.2915, 
			 "electric_dipole_moment_norm": 1.91540535136, 
			 "electric_quadrupole_moment_norm": 6.85851906901, 
			 "total_energy": -400.308057568, 
			 "HOMO_LUMO_gap": 0.20027, 
			 "cosmo_polarized_energy": -77418.19, 
			 "cosmo_cavitation_energy": 28.24, 
			 "cosmo_dispersion_energy": -21.95, 
			 "cosmo_repulsion_energy": 1.7, 
			 "cosmo_total_nonelectrostatic_energy": 7.99, 
			 "SMD_solvation_energy": 4.1 
		},
		"coords": [
			{
				"x": -1.7081631039,
				"y": -1.3065430457,
				"z": -1.732621445,
				"element": "C" 
			},
			{
				"x": -1.1894630459,
				"y": -0.6176407532,
				"z": -0.4881180582,
				"element": "C" 
			},
			{
				"x": -1.8703244215,
				"y": -0.7968207287,
				"z": 0.7169533503,
				"element": "C" 
			},
			{
				"x": -1.469092738,
				"y": -0.2036593561,
				"z": 1.914880913,
				"element": "C" 
			},
			{
				"x": -2.2783111998,
				"y": -0.4624144546,
				"z": 3.1681317177,
				"element": "C" 
			},
			{
				"x": -0.3223525811,
				"y": 0.6189620713,
				"z": 1.9229892019,
				"element": "C" 
			},
			{
				"x": 0.1458009115,
				"y": 1.2800581218,
				"z": 3.1981074017,
				"element": "C" 
			},
			{
				"x": 0.3536813035,
				"y": 0.7905565903,
				"z": 0.7022860441,
				"element": "C" 
			},
			{
				"x": 2.1029185577,
				"y": 2.0392681864,
				"z": 0.6907596866,
				"element": "I" 
			},
			{
				"x": -0.0389543676,
				"y": 0.1994104978,
				"z": -0.511381948,
				"element": "C" 
			},
			{
				"x": 0.7271835071,
				"y": 0.419415286,
				"z": -1.794641772,
				"element": "C" 
			},
			{
				"x": -0.970381283,
				"y": -1.9950665211,
				"z": -2.1601559843,
				"element": "H" 
			},
			{
				"x": -2.6041273825,
				"y": -1.8883400707,
				"z": -1.5008647794,
				"element": "H" 
			},
			{
				"x": -1.9749079289,
				"y": -0.5909023809,
				"z": -2.5186716375,
				"element": "H" 
			},
			{
				"x": -2.7554413313,
				"y": -1.4285399885,
				"z": 0.7227661404,
				"element": "H" 
			},
			{
				"x": -2.686125283,
				"y": 0.4617751648,
				"z": 3.5932486182,
				"element": "H" 
			},
			{
				"x": -3.1215654066,
				"y": -1.1222437388,
				"z": 2.947910635,
				"element": "H" 
			},
			{
				"x": -1.6813646443,
				"y": -0.9421237514,
				"z": 3.9521592493,
				"element": "H" 
			},
			{
				"x": 1.1653170315,
				"y": 0.9719424534,
				"z": 3.4539699594,
				"element": "H" 
			},
			{
				"x": 0.1642144951,
				"y": 2.3705301462,
				"z": 3.0963698012,
				"element": "H" 
			},
			{
				"x": -0.4993213482,
				"y": 1.0338557159,
				"z": 4.0411760227,
				"element": "H" 
			},
			{
				"x": 0.2776164666,
				"y": -0.1163128932,
				"z": -2.6303724038,
				"element": "H" 
			},
			{
				"x": 0.764406789,
				"y": 1.4820648588,
				"z": -2.0577366434,
				"element": "H" 
			},
			{
				"x": 1.7654570035,
				"y": 0.0835685903,
				"z": -1.6997440698,
				"element": "H" 
			}
		],
		 "valence_orbital": [ 
			{
				"type": "occ",
				"energy": -0.32043,
				"method": "rhf"
			},
			{
				"type": "occ",
				"energy": -0.27953,
				"method": "rhf"
			},
			{
				"type": "occ",
				"energy": -0.25588,
				"method": "rhf"
			},
			{
				"type": "occ",
				"energy": -0.22924,
				"method": "rhf"
			},
			{
				"type": "occ",
				"energy": -0.22877,
				"method": "rhf"
			},
			{
				"type": "unocc",
				"energy": -0.0285,
				"method": "rhf"
			},
			{
				"type": "unocc",
				"energy": -0.0046,
				"method": "rhf"
			},
			{
				"type": "unocc",
				"energy": -0.00205,
				"method": "rhf"
			},
			{
				"type": "unocc",
				"energy": 0.04116,
				"method": "rhf"
			},
			{
				"type": "unocc",
				"energy": 0.05046,
				"method": "rhf"
			}
		],
		"cosmo_sigma_profile": { 
			"0.0": 0.0,
			"0.0": 0.0,
			"0.0": 0.0,
			"0.0": 0.0,
			"0.0": 0.0,
			"0.0": 0.0,
			"0.0": 0.0,
			"0.0": 0.0,
			"0.0": 0.0,
			"0.0": 0.0,
			"0.0": 0.0,
			"0.0": 0.0,
			"0.0": 0.0,
			"0.0": 0.0,
			"0.0": 0.0,
			"0.0": 0.0,
			"0.0": 0.0,
			"0.0": 0.0,
			"0.0": 0.0,
			"0.0": 0.0,
			"0.0": 0.0,
			"0.0": 0.0,
			"0.0": 0.0,
			"0.0": 0.0,
			"0.0": 0.0,
			"0.0": 0.0,
			"0.0": 0.0,
			"0.0": 0.0,
			"0.0": 0.0,
			"0.0": 0.0,
			"0.0": 0.0,
			"0.0": 0.0,
			"0.0": 0.0,
			"0.0": 0.0,
			"0.0": 0.0,
			"0.0": 0.0,
			"0.0": 0.0,
			"0.0": 0.0,
			"0.0": 0.0,
			"0.0": 0.0,
			"0.0": 0.0,
			"0.0": 0.0,
			"0.0": 0.0,
			"0.0": 0.0,
			"0.0": 0.0,
			"0.0": 0.0,
			"0.0": 0.0,
			"0.0": 0.0,
			"0.0": 0.0,
			"0.0": 0.0,
			"0.0": 0.0
		}
	}
}
