{
	 "smiles": "FC(F)(F)C1=C(Cl)C(=CC(=C1)N(=O)=O)N(=O)=O", 
	 "Tm": 336.15, 
	 "num_atms": 19, 
	 "gaussian": { 
		 "optdone": 1, 
		 "sigma_profile": "yes", 
		 "theory": "DFT", 
		 "functional": "B3LYP", 
		 "basiset": "6-31G**", 
		 "properties": { 
			 "R2extent": 5634.5106, 
			 "electric_dipole_moment_norm": 1.41497001028, 
			 "electric_quadrupole_moment_norm": 9.84606504397, 
			 "total_energy": -1437.83473844, 
			 "HOMO_LUMO_gap": 0.17746, 
			 "cosmo_polarized_energy": -10.65, 
			 "cosmo_cavitation_energy": 29.38, 
			 "cosmo_dispersion_energy": -20.33, 
			 "cosmo_repulsion_energy": 1.51, 
			 "cosmo_total_nonelectrostatic_energy": 10.56, 
			 "SMD_solvation_energy": 10.92 
		},
		"coords": [
			{
				"x": 3.5412916581,
				"y": 1.2604180338,
				"z": -2.480359911,
				"element": "F" 
			},
			{
				"x": 3.3856175613,
				"y": 1.8938239783,
				"z": -1.3042035997,
				"element": "C" 
			},
			{
				"x": 4.4193051376,
				"y": 1.5571170371,
				"z": -0.5124320551,
				"element": "F" 
			},
			{
				"x": 3.4679667838,
				"y": 3.2177794173,
				"z": -1.5405318022,
				"element": "F" 
			},
			{
				"x": 2.056972762,
				"y": 1.5414936417,
				"z": -0.6584152056,
				"element": "C" 
			},
			{
				"x": 1.7328362243,
				"y": 0.2159575063,
				"z": -0.3146875631,
				"element": "C" 
			},
			{
				"x": 2.8212692591,
				"y": -1.1017017771,
				"z": -0.6021684694,
				"element": "Cl" 
			},
			{
				"x": 0.4928973005,
				"y": -0.0432475499,
				"z": 0.277186136,
				"element": "C" 
			},
			{
				"x": -0.4279067706,
				"y": 0.9599834767,
				"z": 0.5371574158,
				"element": "C" 
			},
			{
				"x": -0.0790136254,
				"y": 2.2575960322,
				"z": 0.1866767158,
				"element": "C" 
			},
			{
				"x": 1.1422284389,
				"y": 2.561076804,
				"z": -0.4036014142,
				"element": "C" 
			},
			{
				"x": -1.0379533954,
				"y": 3.3459809113,
				"z": 0.4508751394,
				"element": "N" 
			},
			{
				"x": -0.7008831421,
				"y": 4.4821218943,
				"z": 0.130091964,
				"element": "O" 
			},
			{
				"x": -2.1055988905,
				"y": 3.0367427144,
				"z": 0.9734023899,
				"element": "O" 
			},
			{
				"x": 0.1265743295,
				"y": -1.4272658602,
				"z": 0.6483288756,
				"element": "N" 
			},
			{
				"x": 0.4248200872,
				"y": -1.7852963965,
				"z": 1.7801875175,
				"element": "O" 
			},
			{
				"x": -0.4599665647,
				"y": -2.0828502489,
				"z": -0.2028050101,
				"element": "O" 
			},
			{
				"x": -1.3866207939,
				"y": 0.7516487042,
				"z": 0.9960087755,
				"element": "H" 
			},
			{
				"x": 1.3714636401,
				"y": 3.5864216808,
				"z": -0.6599098993,
				"element": "H" 
			}
		],
		 "valence_orbital": [ 
			{
				"type": "occ",
				"energy": -0.33987,
				"method": "rhf"
			},
			{
				"type": "occ",
				"energy": -0.33343,
				"method": "rhf"
			},
			{
				"type": "occ",
				"energy": -0.32329,
				"method": "rhf"
			},
			{
				"type": "occ",
				"energy": -0.31816,
				"method": "rhf"
			},
			{
				"type": "occ",
				"energy": -0.30354,
				"method": "rhf"
			},
			{
				"type": "unocc",
				"energy": -0.12608,
				"method": "rhf"
			},
			{
				"type": "unocc",
				"energy": -0.10242,
				"method": "rhf"
			},
			{
				"type": "unocc",
				"energy": -0.08293,
				"method": "rhf"
			},
			{
				"type": "unocc",
				"energy": -0.04872,
				"method": "rhf"
			},
			{
				"type": "unocc",
				"energy": -0.01916,
				"method": "rhf"
			}
		],
		"cosmo_sigma_profile": { 
			"-0.025": 0.0,
			"-0.024": 0.0,
			"-0.023": 0.0,
			"-0.022": 0.0,
			"-0.021": 0.0,
			"-0.02": 0.0,
			"-0.019": 0.0,
			"-0.018": 0.0,
			"-0.017": 0.0,
			"-0.016": 0.0,
			"-0.015": 0.0,
			"-0.014": 0.276680764418,
			"-0.013": 0.984956726496,
			"-0.012": 1.14361616619,
			"-0.011": 1.43835186519,
			"-0.01": 0.888567666989,
			"-0.009": 3.09612809204,
			"-0.008": 3.27912842483,
			"-0.007": 5.83667755902,
			"-0.006": 11.0956620857,
			"-0.005": 18.2567238044,
			"-0.004": 19.8781494539,
			"-0.003": 12.3685592624,
			"-0.002": 12.120619035,
			"-0.001": 12.744902422,
			"0.0": 15.5122478008,
			"0.001": 24.5008902372,
			"0.002": 32.0455747133,
			"0.003": 8.39800421927,
			"0.004": 6.3413752593,
			"0.005": 9.82747296545,
			"0.006": 18.5722324481,
			"0.007": 13.0873252396,
			"0.008": 6.0162103818,
			"0.009": 2.05347056457,
			"0.01": 0.0127189040998,
			"0.011": 0.0,
			"0.012": 0.0,
			"0.013": 0.0,
			"0.014": 0.0,
			"0.015": 0.0,
			"0.016": 0.0,
			"0.017": 0.0,
			"0.018": 0.0,
			"0.019": 0.0,
			"0.02": 0.0,
			"0.021": 0.0,
			"0.022": 0.0,
			"0.023": 0.0,
			"0.024": 0.0,
			"0.025": 0.0
		}
	}
}
