{
	 "smiles": "CS(=O)(=O)NC1=NC2=C(S1)C=C(N)C=C2", 
	 "Tm": 555.15, 
	 "num_atms": 24, 
	 "gaussian": { 
		 "optdone": 1, 
		 "sigma_profile": "yes", 
		 "theory": "DFT", 
		 "functional": "B3LYP", 
		 "basiset": "6-31G**", 
		 "properties": { 
			 "R2extent": 5520.8645, 
			 "electric_dipole_moment_norm": 5.7246959273, 
			 "electric_quadrupole_moment_norm": 18.2981229537, 
			 "total_energy": -1421.29511892, 
			 "HOMO_LUMO_gap": 0.17373, 
			 "cosmo_polarized_energy": -20.68, 
			 "cosmo_cavitation_energy": 31.42, 
			 "cosmo_dispersion_energy": -24.1, 
			 "cosmo_repulsion_energy": 1.79, 
			 "cosmo_total_nonelectrostatic_energy": 9.11, 
			 "SMD_solvation_energy": 3.4 
		},
		"coords": [
			{
				"x": -1.2722684188,
				"y": -1.4293290837,
				"z": -3.7796551564,
				"element": "C" 
			},
			{
				"x": -2.7527254011,
				"y": -1.530678869,
				"z": -2.7720017537,
				"element": "S" 
			},
			{
				"x": -2.6221620234,
				"y": -2.6669365277,
				"z": -1.8650985329,
				"element": "O" 
			},
			{
				"x": -3.9484458269,
				"y": -1.3510208496,
				"z": -3.5966652788,
				"element": "O" 
			},
			{
				"x": -2.6655005065,
				"y": -0.0372198147,
				"z": -1.9051040258,
				"element": "N" 
			},
			{
				"x": -1.8045157517,
				"y": 0.1396143599,
				"z": -0.827580743,
				"element": "C" 
			},
			{
				"x": -0.595093657,
				"y": -0.3074575725,
				"z": -0.7938375628,
				"element": "N" 
			},
			{
				"x": 0.0244944316,
				"y": 0.0333932789,
				"z": 0.4012163664,
				"element": "C" 
			},
			{
				"x": -0.7538779501,
				"y": 0.7998104992,
				"z": 1.2998173399,
				"element": "C" 
			},
			{
				"x": -2.3516977162,
				"y": 1.055020351,
				"z": 0.606256095,
				"element": "S" 
			},
			{
				"x": -0.2573502556,
				"y": 1.248740812,
				"z": 2.52037587,
				"element": "C" 
			},
			{
				"x": 1.0591718883,
				"y": 0.9128375759,
				"z": 2.8727640504,
				"element": "C" 
			},
			{
				"x": 1.5755459767,
				"y": 1.2836657544,
				"z": 4.1157955598,
				"element": "N" 
			},
			{
				"x": 1.8406799195,
				"y": 0.14084369,
				"z": 1.9827769055,
				"element": "C" 
			},
			{
				"x": 1.3365902661,
				"y": -0.2931064663,
				"z": 0.7653285471,
				"element": "C" 
			},
			{
				"x": -1.371881466,
				"y": -0.5806225786,
				"z": -4.4561364159,
				"element": "H" 
			},
			{
				"x": -1.2068676686,
				"y": -2.3678157082,
				"z": -4.3331218323,
				"element": "H" 
			},
			{
				"x": -0.4273730633,
				"y": -1.3063554973,
				"z": -3.1007479542,
				"element": "H" 
			},
			{
				"x": -3.5938732867,
				"y": 0.36671778,
				"z": -1.8407508199,
				"element": "H" 
			},
			{
				"x": -0.8719486217,
				"y": 1.8341501186,
				"z": 3.1977342273,
				"element": "H" 
			},
			{
				"x": 2.5837663987,
				"y": 1.3320129086,
				"z": 4.1646365949,
				"element": "H" 
			},
			{
				"x": 1.1392716755,
				"y": 2.0887673696,
				"z": 4.5433576187,
				"element": "H" 
			},
			{
				"x": 2.8568027285,
				"y": -0.119557614,
				"z": 2.2669638485,
				"element": "H" 
			},
			{
				"x": 1.9462583285,
				"y": -0.8818739164,
				"z": 0.0878770518,
				"element": "H" 
			}
		],
		 "valence_orbital": [ 
			{
				"type": "occ",
				"energy": -0.30259,
				"method": "rhf"
			},
			{
				"type": "occ",
				"energy": -0.28777,
				"method": "rhf"
			},
			{
				"type": "occ",
				"energy": -0.2771,
				"method": "rhf"
			},
			{
				"type": "occ",
				"energy": -0.23916,
				"method": "rhf"
			},
			{
				"type": "occ",
				"energy": -0.19983,
				"method": "rhf"
			},
			{
				"type": "unocc",
				"energy": -0.0261,
				"method": "rhf"
			},
			{
				"type": "unocc",
				"energy": -0.00954,
				"method": "rhf"
			},
			{
				"type": "unocc",
				"energy": -0.00891,
				"method": "rhf"
			},
			{
				"type": "unocc",
				"energy": 0.03026,
				"method": "rhf"
			},
			{
				"type": "unocc",
				"energy": 0.05152,
				"method": "rhf"
			}
		],
		"cosmo_sigma_profile": { 
			"-0.025": 0.0,
			"-0.024": 0.0,
			"-0.023": 0.0,
			"-0.022": 0.0,
			"-0.021": 0.0,
			"-0.02": 0.0,
			"-0.019": 0.0,
			"-0.018": 0.0232973588725,
			"-0.017": 0.677155168904,
			"-0.016": 1.34440712024,
			"-0.015": 0.97987473257,
			"-0.014": 0.819985056988,
			"-0.013": 2.25365366638,
			"-0.012": 3.94796236398,
			"-0.011": 4.00019979615,
			"-0.01": 4.74595779138,
			"-0.009": 7.79429785509,
			"-0.008": 8.30034971701,
			"-0.007": 9.3847370947,
			"-0.006": 12.2103357109,
			"-0.005": 14.2073148391,
			"-0.004": 12.7049035119,
			"-0.003": 10.2056156016,
			"-0.002": 8.46387344123,
			"-0.001": 10.5817781026,
			"0.0": 13.1324257976,
			"0.001": 13.8108480158,
			"0.002": 15.3217193974,
			"0.003": 15.9652976403,
			"0.004": 18.6448850534,
			"0.005": 16.0108651973,
			"0.006": 6.62651059226,
			"0.007": 5.26098636076,
			"0.008": 6.62792353665,
			"0.009": 5.14695233441,
			"0.01": 13.2021030356,
			"0.011": 8.71162351297,
			"0.012": 0.994423656094,
			"0.013": 0.605887964778,
			"0.014": 0.458726452761,
			"0.015": 0.0844447503029,
			"0.016": 0.0,
			"0.017": 0.0,
			"0.018": 0.0,
			"0.019": 0.0,
			"0.02": 0.0,
			"0.021": 0.0,
			"0.022": 0.0,
			"0.023": 0.0,
			"0.024": 0.0,
			"0.025": 0.0
		}
	}
}
