{
	 "smiles": "COC1=C(OC)C=C(C=C1)C1=C(C)SC(N)=N1", 
	 "Tm": 459.15, 
	 "num_atms": 31, 
	 "gaussian": { 
		 "optdone": 1, 
		 "sigma_profile": "yes", 
		 "theory": "DFT", 
		 "functional": "B3LYP", 
		 "basiset": "6-31G**", 
		 "properties": { 
			 "R2extent": 7422.9712, 
			 "electric_dipole_moment_norm": 1.38186285137, 
			 "electric_quadrupole_moment_norm": 21.0634582783, 
			 "total_energy": -1123.82560038, 
			 "HOMO_LUMO_gap": 0.17424, 
			 "cosmo_polarized_energy": -13.37, 
			 "cosmo_cavitation_energy": 36.0, 
			 "cosmo_dispersion_energy": -26.33, 
			 "cosmo_repulsion_energy": 2.03, 
			 "cosmo_total_nonelectrostatic_energy": 11.71, 
			 "SMD_solvation_energy": 5.88 
		},
		"coords": [
			{
				"x": 2.5022057463,
				"y": 3.0424325905,
				"z": 0.8444725924,
				"element": "C" 
			},
			{
				"x": 1.0959209938,
				"y": 3.1293927458,
				"z": 0.5876932212,
				"element": "O" 
			},
			{
				"x": 0.6004000743,
				"y": 2.1609251185,
				"z": -0.2576398771,
				"element": "C" 
			},
			{
				"x": 0.5362213172,
				"y": 0.8076288842,
				"z": 0.1211934133,
				"element": "C" 
			},
			{
				"x": 1.001940795,
				"y": 0.3783608027,
				"z": 1.3468743495,
				"element": "O" 
			},
			{
				"x": 0.2231276475,
				"y": 0.8134836444,
				"z": 2.4675573702,
				"element": "C" 
			},
			{
				"x": 0.0134281835,
				"y": -0.1369161903,
				"z": -0.7609371415,
				"element": "C" 
			},
			{
				"x": -0.4603334784,
				"y": 0.2337330256,
				"z": -2.030283184,
				"element": "C" 
			},
			{
				"x": -0.4366665439,
				"y": 1.5960656618,
				"z": -2.3753201834,
				"element": "C" 
			},
			{
				"x": 0.0955005716,
				"y": 2.5409429685,
				"z": -1.50299544,
				"element": "C" 
			},
			{
				"x": -1.0113184937,
				"y": -0.749681413,
				"z": -2.9860491536,
				"element": "C" 
			},
			{
				"x": -0.616672725,
				"y": -2.0571122011,
				"z": -3.139940577,
				"element": "C" 
			},
			{
				"x": 0.4749778362,
				"y": -2.8451707723,
				"z": -2.478850322,
				"element": "C" 
			},
			{
				"x": -1.5815021642,
				"y": -2.8032476692,
				"z": -4.413159797,
				"element": "S" 
			},
			{
				"x": -2.3967443479,
				"y": -1.2550312101,
				"z": -4.6511014799,
				"element": "C" 
			},
			{
				"x": -3.4321741232,
				"y": -1.1277516941,
				"z": -5.554028335,
				"element": "N" 
			},
			{
				"x": -2.0014687064,
				"y": -0.3073746968,
				"z": -3.8597740683,
				"element": "N" 
			},
			{
				"x": 3.0740588101,
				"y": 3.1640717716,
				"z": -0.0842401703,
				"element": "H" 
			},
			{
				"x": 2.7405149689,
				"y": 3.8638403434,
				"z": 1.5235689971,
				"element": "H" 
			},
			{
				"x": 2.7654187841,
				"y": 2.0879984904,
				"z": 1.3107348575,
				"element": "H" 
			},
			{
				"x": 0.7076198721,
				"y": 0.4018634137,
				"z": 3.3555927512,
				"element": "H" 
			},
			{
				"x": -0.801253664,
				"y": 0.4256051053,
				"z": 2.4018466823,
				"element": "H" 
			},
			{
				"x": 0.1942250914,
				"y": 1.905542198,
				"z": 2.5341750876,
				"element": "H" 
			},
			{
				"x": -0.0479073212,
				"y": -1.1617633293,
				"z": -0.4137269946,
				"element": "H" 
			},
			{
				"x": -0.8336868599,
				"y": 1.89926252,
				"z": -3.337275066,
				"element": "H" 
			},
			{
				"x": 0.1331490697,
				"y": 3.5925329585,
				"z": -1.7703450232,
				"element": "H" 
			},
			{
				"x": 1.2314806142,
				"y": -2.1731004725,
				"z": -2.066518739,
				"element": "H" 
			},
			{
				"x": 0.1032420627,
				"y": -3.473317013,
				"z": -1.6590343828,
				"element": "H" 
			},
			{
				"x": 0.9719426734,
				"y": -3.5081522354,
				"z": -3.1948325464,
				"element": "H" 
			},
			{
				"x": -3.3490756106,
				"y": -1.6567138522,
				"z": -6.4111546751,
				"element": "H" 
			},
			{
				"x": -3.6965710737,
				"y": -0.1616494935,
				"z": -5.7006021659,
				"element": "H" 
			}
		],
		 "valence_orbital": [ 
			{
				"type": "occ",
				"energy": -0.26696,
				"method": "rhf"
			},
			{
				"type": "occ",
				"energy": -0.25925,
				"method": "rhf"
			},
			{
				"type": "occ",
				"energy": -0.23893,
				"method": "rhf"
			},
			{
				"type": "occ",
				"energy": -0.22754,
				"method": "rhf"
			},
			{
				"type": "occ",
				"energy": -0.19337,
				"method": "rhf"
			},
			{
				"type": "unocc",
				"energy": -0.01913,
				"method": "rhf"
			},
			{
				"type": "unocc",
				"energy": 0.00416,
				"method": "rhf"
			},
			{
				"type": "unocc",
				"energy": 0.0121,
				"method": "rhf"
			},
			{
				"type": "unocc",
				"energy": 0.02084,
				"method": "rhf"
			},
			{
				"type": "unocc",
				"energy": 0.07473,
				"method": "rhf"
			}
		],
		"cosmo_sigma_profile": { 
			"-0.025": 0.0,
			"-0.024": 0.0,
			"-0.023": 0.0,
			"-0.022": 0.0,
			"-0.021": 0.0,
			"-0.02": 0.0,
			"-0.019": 0.0,
			"-0.018": 0.0,
			"-0.017": 0.0,
			"-0.016": 0.0,
			"-0.015": 0.232475189784,
			"-0.014": 1.44417563078,
			"-0.013": 2.94545809783,
			"-0.012": 1.54814075903,
			"-0.011": 2.78601072332,
			"-0.01": 2.85745446973,
			"-0.009": 2.07637895834,
			"-0.008": 2.08273362514,
			"-0.007": 2.25773963254,
			"-0.006": 4.21422539084,
			"-0.005": 15.4496784621,
			"-0.004": 23.4647746069,
			"-0.003": 30.2062723717,
			"-0.002": 29.6436015752,
			"-0.001": 22.4819985003,
			"0.0": 20.319252989,
			"0.001": 13.657071526,
			"0.002": 19.515182833,
			"0.003": 22.3308739521,
			"0.004": 22.2596339743,
			"0.005": 15.0018426857,
			"0.006": 6.31265092622,
			"0.007": 4.80717527578,
			"0.008": 4.33005888103,
			"0.009": 4.42817968557,
			"0.01": 3.72520712164,
			"0.011": 3.71514045708,
			"0.012": 2.27960892102,
			"0.013": 1.05566672074,
			"0.014": 0.419256254019,
			"0.015": 0.0823789162376,
			"0.016": 0.0,
			"0.017": 0.0,
			"0.018": 0.0,
			"0.019": 0.0,
			"0.02": 0.0,
			"0.021": 0.0,
			"0.022": 0.0,
			"0.023": 0.0,
			"0.024": 0.0,
			"0.025": 0.0
		}
	}
}
