{
	 "smiles": "NN1C(N)=NN=C(CCC2=CC=CC=C2)C1=O", 
	 "Tm": 517.15, 
	 "num_atms": 30, 
	 "gaussian": { 
		 "optdone": 1, 
		 "sigma_profile": "yes", 
		 "theory": "DFT", 
		 "functional": "B3LYP", 
		 "basiset": "6-31G**", 
		 "properties": { 
			 "R2extent": 5367.6592, 
			 "electric_dipole_moment_norm": 4.31432155501, 
			 "electric_quadrupole_moment_norm": 12.0755896398, 
			 "total_energy": -775.948329326, 
			 "HOMO_LUMO_gap": 0.17794, 
			 "cosmo_polarized_energy": -19.28, 
			 "cosmo_cavitation_energy": 33.99, 
			 "cosmo_dispersion_energy": -24.36, 
			 "cosmo_repulsion_energy": 1.92, 
			 "cosmo_total_nonelectrostatic_energy": 11.54, 
			 "SMD_solvation_energy": 5.21 
		},
		"coords": [
			{
				"x": 2.459074076,
				"y": 0.9411135506,
				"z": -1.7154673076,
				"element": "N" 
			},
			{
				"x": 1.2010499986,
				"y": 1.2407961253,
				"z": -1.1422448371,
				"element": "N" 
			},
			{
				"x": 0.079484419,
				"y": 1.2044047888,
				"z": -1.9362130485,
				"element": "C" 
			},
			{
				"x": 0.263652246,
				"y": 0.9767684169,
				"z": -3.2631839182,
				"element": "N" 
			},
			{
				"x": -1.1312938851,
				"y": 1.4248256067,
				"z": -1.4654591968,
				"element": "N" 
			},
			{
				"x": -1.2734747069,
				"y": 1.6989721834,
				"z": -0.1405291168,
				"element": "N" 
			},
			{
				"x": -0.2576350736,
				"y": 1.7352353354,
				"z": 0.679567683,
				"element": "C" 
			},
			{
				"x": -0.4639106487,
				"y": 2.0653969429,
				"z": 2.1382537517,
				"element": "C" 
			},
			{
				"x": -1.9011026068,
				"y": 1.862493761,
				"z": 2.6592051475,
				"element": "C" 
			},
			{
				"x": -2.2930795972,
				"y": 0.407306382,
				"z": 2.8272156675,
				"element": "C" 
			},
			{
				"x": -3.051538124,
				"y": -0.261522749,
				"z": 1.8567012918,
				"element": "C" 
			},
			{
				"x": -3.3973831607,
				"y": -1.6043658891,
				"z": 2.0208637993,
				"element": "C" 
			},
			{
				"x": -2.9898635308,
				"y": -2.3029100094,
				"z": 3.1585553184,
				"element": "C" 
			},
			{
				"x": -2.2341387611,
				"y": -1.6479675429,
				"z": 4.1332784785,
				"element": "C" 
			},
			{
				"x": -1.8922036824,
				"y": -0.3056442933,
				"z": 3.9666640007,
				"element": "C" 
			},
			{
				"x": 1.1164690079,
				"y": 1.4890836893,
				"z": 0.2386780504,
				"element": "C" 
			},
			{
				"x": 2.1309883073,
				"y": 1.4691679034,
				"z": 0.9286651642,
				"element": "O" 
			},
			{
				"x": 2.9561602072,
				"y": 0.4085647779,
				"z": -0.9997154566,
				"element": "H" 
			},
			{
				"x": 2.9707664184,
				"y": 1.8216290821,
				"z": -1.7948047582,
				"element": "H" 
			},
			{
				"x": -0.5783327433,
				"y": 0.763014617,
				"z": -3.7759964922,
				"element": "H" 
			},
			{
				"x": 1.1305648454,
				"y": 0.5333606347,
				"z": -3.5316001131,
				"element": "H" 
			},
			{
				"x": -0.1651423441,
				"y": 3.1122854607,
				"z": 2.2946848576,
				"element": "H" 
			},
			{
				"x": 0.2461721539,
				"y": 1.472231445,
				"z": 2.7249755837,
				"element": "H" 
			},
			{
				"x": -1.9724685331,
				"y": 2.3661523073,
				"z": 3.6303909255,
				"element": "H" 
			},
			{
				"x": -2.5999569988,
				"y": 2.3623884962,
				"z": 1.9834508642,
				"element": "H" 
			},
			{
				"x": -3.3587518799,
				"y": 0.2769652129,
				"z": 0.9655240567,
				"element": "H" 
			},
			{
				"x": -3.9882453958,
				"y": -2.1045531931,
				"z": 1.2580655364,
				"element": "H" 
			},
			{
				"x": -3.2615475742,
				"y": -3.3470019324,
				"z": 3.2872704724,
				"element": "H" 
			},
			{
				"x": -1.916538718,
				"y": -2.180045272,
				"z": 5.0260532228,
				"element": "H" 
			},
			{
				"x": -1.3109737149,
				"y": 0.1998541619,
				"z": 4.7352503727,
				"element": "H" 
			}
		],
		 "valence_orbital": [ 
			{
				"type": "occ",
				"energy": -0.27754,
				"method": "rhf"
			},
			{
				"type": "occ",
				"energy": -0.23864,
				"method": "rhf"
			},
			{
				"type": "occ",
				"energy": -0.23562,
				"method": "rhf"
			},
			{
				"type": "occ",
				"energy": -0.22953,
				"method": "rhf"
			},
			{
				"type": "occ",
				"energy": -0.22696,
				"method": "rhf"
			},
			{
				"type": "unocc",
				"energy": -0.04902,
				"method": "rhf"
			},
			{
				"type": "unocc",
				"energy": 0.00492,
				"method": "rhf"
			},
			{
				"type": "unocc",
				"energy": 0.01194,
				"method": "rhf"
			},
			{
				"type": "unocc",
				"energy": 0.01392,
				"method": "rhf"
			},
			{
				"type": "unocc",
				"energy": 0.0556,
				"method": "rhf"
			}
		],
		"cosmo_sigma_profile": { 
			"-0.025": 0.0,
			"-0.024": 0.0,
			"-0.023": 0.0,
			"-0.022": 0.0,
			"-0.021": 0.0,
			"-0.02": 0.0,
			"-0.019": 0.0,
			"-0.018": 0.0,
			"-0.017": 0.0,
			"-0.016": 0.0,
			"-0.015": 0.275692529386,
			"-0.014": 2.15830136915,
			"-0.013": 3.20734905041,
			"-0.012": 5.2591309523,
			"-0.011": 4.28286765861,
			"-0.01": 4.4034812742,
			"-0.009": 4.29978034447,
			"-0.008": 3.64954746629,
			"-0.007": 2.61358529334,
			"-0.006": 5.03171015484,
			"-0.005": 15.057379448,
			"-0.004": 20.5719026219,
			"-0.003": 27.4361621728,
			"-0.002": 21.5376030218,
			"-0.001": 19.5996222351,
			"0.0": 15.1875408937,
			"0.001": 13.276030169,
			"0.002": 13.0095816393,
			"0.003": 11.5250042666,
			"0.004": 12.8992132816,
			"0.005": 13.924095515,
			"0.006": 13.9008233582,
			"0.007": 8.48371451719,
			"0.008": 4.25435445155,
			"0.009": 3.06562394982,
			"0.01": 3.93495648877,
			"0.011": 3.0995047061,
			"0.012": 6.33010206087,
			"0.013": 3.42924694926,
			"0.014": 1.70574509542,
			"0.015": 1.24646803254,
			"0.016": 0.720258667663,
			"0.017": 0.084964694912,
			"0.018": 0.0,
			"0.019": 0.0,
			"0.02": 0.0,
			"0.021": 0.0,
			"0.022": 0.0,
			"0.023": 0.0,
			"0.024": 0.0,
			"0.025": 0.0
		}
	}
}
