{
	 "smiles": "OCC1=C(Cl)C=C(F)C=C1", 
	 "Tm": 317.65, 
	 "num_atms": 16, 
	 "gaussian": { 
		 "optdone": 1, 
		 "sigma_profile": "yes", 
		 "theory": "DFT", 
		 "functional": "B3LYP", 
		 "basiset": "6-31G**", 
		 "properties": { 
			 "R2extent": 2838.712, 
			 "electric_dipole_moment_norm": 1.17027632207, 
			 "electric_quadrupole_moment_norm": 8.08155158494, 
			 "total_energy": -905.599028797, 
			 "HOMO_LUMO_gap": 0.22498, 
			 "cosmo_polarized_energy": -6.82, 
			 "cosmo_cavitation_energy": 22.26, 
			 "cosmo_dispersion_energy": -16.41, 
			 "cosmo_repulsion_energy": 1.3, 
			 "cosmo_total_nonelectrostatic_energy": 7.15, 
			 "SMD_solvation_energy": 3.99 
		},
		"coords": [
			{
				"x": -2.7785420171,
				"y": 0.1965663266,
				"z": 1.8174961977,
				"element": "O" 
			},
			{
				"x": -1.7972122307,
				"y": -0.0119252479,
				"z": 0.8116381544,
				"element": "C" 
			},
			{
				"x": -0.3791665432,
				"y": 0.2619806702,
				"z": 1.2769322947,
				"element": "C" 
			},
			{
				"x": 0.0983479068,
				"y": 1.5583883222,
				"z": 1.5149906829,
				"element": "C" 
			},
			{
				"x": -0.9708114504,
				"y": 2.9449705156,
				"z": 1.2700332758,
				"element": "Cl" 
			},
			{
				"x": 1.3965595257,
				"y": 1.8165608143,
				"z": 1.9467880279,
				"element": "C" 
			},
			{
				"x": 2.2425443299,
				"y": 0.7310659075,
				"z": 2.1454460891,
				"element": "C" 
			},
			{
				"x": 3.5014540096,
				"y": 0.9644446747,
				"z": 2.561796467,
				"element": "F" 
			},
			{
				"x": 1.8268437495,
				"y": -0.5764374162,
				"z": 1.9290650557,
				"element": "C" 
			},
			{
				"x": 0.5183360217,
				"y": -0.7911429702,
				"z": 1.4992900675,
				"element": "C" 
			},
			{
				"x": -2.827453908,
				"y": 1.1479131153,
				"z": 1.9818201892,
				"element": "H" 
			},
			{
				"x": -2.0121871964,
				"y": 0.586877267,
				"z": -0.0854584843,
				"element": "H" 
			},
			{
				"x": -1.8783706078,
				"y": -1.0648149639,
				"z": 0.5276031172,
				"element": "H" 
			},
			{
				"x": 1.7476294143,
				"y": 2.8253887472,
				"z": 2.1257204906,
				"element": "H" 
			},
			{
				"x": 2.5157580753,
				"y": -1.3964229131,
				"z": 2.0975671597,
				"element": "H" 
			},
			{
				"x": 0.1767709208,
				"y": -1.8083128494,
				"z": 1.3295712149,
				"element": "H" 
			}
		],
		 "valence_orbital": [ 
			{
				"type": "occ",
				"energy": -0.34058,
				"method": "rhf"
			},
			{
				"type": "occ",
				"energy": -0.32722,
				"method": "rhf"
			},
			{
				"type": "occ",
				"energy": -0.27482,
				"method": "rhf"
			},
			{
				"type": "occ",
				"energy": -0.26804,
				"method": "rhf"
			},
			{
				"type": "occ",
				"energy": -0.25313,
				"method": "rhf"
			},
			{
				"type": "unocc",
				"energy": -0.02815,
				"method": "rhf"
			},
			{
				"type": "unocc",
				"energy": -0.01878,
				"method": "rhf"
			},
			{
				"type": "unocc",
				"energy": 0.01312,
				"method": "rhf"
			},
			{
				"type": "unocc",
				"energy": 0.09227,
				"method": "rhf"
			},
			{
				"type": "unocc",
				"energy": 0.09606,
				"method": "rhf"
			}
		],
		"cosmo_sigma_profile": { 
			"-0.025": 0.0,
			"-0.024": 0.0,
			"-0.023": 0.0,
			"-0.022": 0.0,
			"-0.021": 0.0,
			"-0.02": 0.0,
			"-0.019": 0.0,
			"-0.018": 0.0,
			"-0.017": 0.0,
			"-0.016": 0.0,
			"-0.015": 0.0,
			"-0.014": 0.0,
			"-0.013": 0.0253181270908,
			"-0.012": 0.631714246191,
			"-0.011": 0.627579109236,
			"-0.01": 0.727838133116,
			"-0.009": 1.35933854549,
			"-0.008": 3.70847489657,
			"-0.007": 5.10374523111,
			"-0.006": 8.57153070875,
			"-0.005": 12.3629563623,
			"-0.004": 9.35417256088,
			"-0.003": 12.3064297721,
			"-0.002": 10.8623606735,
			"-0.001": 13.4248650949,
			"0.0": 16.4535380959,
			"0.001": 18.8488133784,
			"0.002": 17.6909652477,
			"0.003": 15.8272842089,
			"0.004": 16.3702635102,
			"0.005": 2.22855407767,
			"0.006": 1.09470227851,
			"0.007": 1.34826873534,
			"0.008": 1.50913625755,
			"0.009": 1.08123110521,
			"0.01": 1.1375391195,
			"0.011": 1.28709305887,
			"0.012": 1.54916851285,
			"0.013": 1.76759621331,
			"0.014": 2.33779410812,
			"0.015": 0.128218384615,
			"0.016": 0.0,
			"0.017": 0.0,
			"0.018": 0.0,
			"0.019": 0.0,
			"0.02": 0.0,
			"0.021": 0.0,
			"0.022": 0.0,
			"0.023": 0.0,
			"0.024": 0.0,
			"0.025": 0.0
		}
	}
}
