{
	 "smiles": "CC1(C)SC2C(NC(=O)C3(N)CCCCC3)C(=O)N2C1C(O)=O", 
	 "Tm": 455.15, 
	 "num_atms": 46, 
	 "gaussian": { 
		 "optdone": 1, 
		 "sigma_profile": "yes", 
		 "theory": "DFT", 
		 "functional": "B3LYP", 
		 "basiset": "6-31G**", 
		 "properties": { 
			 "R2extent": 11153.7498, 
			 "electric_dipole_moment_norm": 3.40118667968, 
			 "electric_quadrupole_moment_norm": 27.8020207962, 
			 "total_energy": -1448.80939141, 
			 "HOMO_LUMO_gap": 0.21098, 
			 "cosmo_polarized_energy": -22.99, 
			 "cosmo_cavitation_energy": 46.75, 
			 "cosmo_dispersion_energy": -32.7, 
			 "cosmo_repulsion_energy": 2.44, 
			 "cosmo_total_nonelectrostatic_energy": 16.48, 
			 "SMD_solvation_energy": 6.35 
		},
		"coords": [
			{
				"x": 2.7695075265,
				"y": -2.9590797419,
				"z": 3.5626220219,
				"element": "C" 
			},
			{
				"x": 1.8417247659,
				"y": -1.8301509929,
				"z": 4.033931485,
				"element": "C" 
			},
			{
				"x": 1.9480429986,
				"y": -1.624243987,
				"z": 5.5466042775,
				"element": "C" 
			},
			{
				"x": 2.2902008206,
				"y": -0.2111251421,
				"z": 3.1550295468,
				"element": "S" 
			},
			{
				"x": 1.405310623,
				"y": -0.7885690649,
				"z": 1.6568643106,
				"element": "C" 
			},
			{
				"x": 0.297616913,
				"y": 0.0937891728,
				"z": 0.9678616777,
				"element": "C" 
			},
			{
				"x": 0.2985356679,
				"y": 0.2872983069,
				"z": -0.4480050944,
				"element": "N" 
			},
			{
				"x": 0.4013797138,
				"y": 1.5468351144,
				"z": -1.0026882302,
				"element": "C" 
			},
			{
				"x": 0.5617285195,
				"y": 2.5367657591,
				"z": -0.3004268775,
				"element": "O" 
			},
			{
				"x": 0.2451559534,
				"y": 1.6591973632,
				"z": -2.5414729723,
				"element": "C" 
			},
			{
				"x": 0.8368619423,
				"y": 2.9158940609,
				"z": -3.0104941889,
				"element": "N" 
			},
			{
				"x": 0.913024214,
				"y": 0.4827275949,
				"z": -3.3188713062,
				"element": "C" 
			},
			{
				"x": -0.0782386325,
				"y": -0.6026689875,
				"z": -3.7676677753,
				"element": "C" 
			},
			{
				"x": -1.1632163664,
				"y": -0.0256684249,
				"z": -4.7043482169,
				"element": "C" 
			},
			{
				"x": -1.5489156195,
				"y": 1.42602403,
				"z": -4.325289903,
				"element": "C" 
			},
			{
				"x": -1.2841164974,
				"y": 1.7102246092,
				"z": -2.8434577102,
				"element": "C" 
			},
			{
				"x": -0.6890204572,
				"y": -0.9171559477,
				"z": 1.5987618883,
				"element": "C" 
			},
			{
				"x": -1.8912062342,
				"y": -1.0757774345,
				"z": 1.701267875,
				"element": "O" 
			},
			{
				"x": 0.3276523264,
				"y": -1.6597271089,
				"z": 2.1666294142,
				"element": "N" 
			},
			{
				"x": 0.3685439722,
				"y": -2.0283952429,
				"z": 3.5900681587,
				"element": "C" 
			},
			{
				"x": -0.2917019746,
				"y": -3.3954365588,
				"z": 3.8411940246,
				"element": "C" 
			},
			{
				"x": -1.4864438541,
				"y": -3.5467630347,
				"z": 3.248032315,
				"element": "O" 
			},
			{
				"x": 0.1697207729,
				"y": -4.2492931497,
				"z": 4.5617376892,
				"element": "O" 
			},
			{
				"x": 2.497508159,
				"y": -3.889611261,
				"z": 4.0661723993,
				"element": "H" 
			},
			{
				"x": 2.6993218764,
				"y": -3.1254331952,
				"z": 2.4836077438,
				"element": "H" 
			},
			{
				"x": 3.8068027124,
				"y": -2.7110943875,
				"z": 3.8003100414,
				"element": "H" 
			},
			{
				"x": 1.6204722371,
				"y": -2.5366949028,
				"z": 6.0531021958,
				"element": "H" 
			},
			{
				"x": 2.9833943855,
				"y": -1.4245496468,
				"z": 5.836907486,
				"element": "H" 
			},
			{
				"x": 1.3279001149,
				"y": -0.7890184244,
				"z": 5.8854164977,
				"element": "H" 
			},
			{
				"x": 2.0788574664,
				"y": -1.2900959386,
				"z": 0.9571653788,
				"element": "H" 
			},
			{
				"x": 0.2126396865,
				"y": 1.0764389198,
				"z": 1.4411989771,
				"element": "H" 
			},
			{
				"x": 0.1330191082,
				"y": -0.5048583684,
				"z": -1.050838478,
				"element": "H" 
			},
			{
				"x": 1.8526353344,
				"y": 2.8414863506,
				"z": -2.975049174,
				"element": "H" 
			},
			{
				"x": 0.6027664497,
				"y": 3.6403893888,
				"z": -2.3321906944,
				"element": "H" 
			},
			{
				"x": 1.7331438753,
				"y": 0.0495118457,
				"z": -2.7337765127,
				"element": "H" 
			},
			{
				"x": 1.3687765287,
				"y": 0.9185807802,
				"z": -4.2147990921,
				"element": "H" 
			},
			{
				"x": 0.4625379327,
				"y": -1.4147860968,
				"z": -4.2654799424,
				"element": "H" 
			},
			{
				"x": -0.5635630339,
				"y": -1.0647958143,
				"z": -2.8956181508,
				"element": "H" 
			},
			{
				"x": -2.0446586663,
				"y": -0.6762933318,
				"z": -4.6742604128,
				"element": "H" 
			},
			{
				"x": -0.8008268256,
				"y": -0.0476821523,
				"z": -5.7386077364,
				"element": "H" 
			},
			{
				"x": -0.9583701476,
				"y": 2.1402080719,
				"z": -4.9081645113,
				"element": "H" 
			},
			{
				"x": -2.6005637808,
				"y": 1.6147861229,
				"z": -4.565061405,
				"element": "H" 
			},
			{
				"x": -1.8189530247,
				"y": 0.9859061572,
				"z": -2.2160750152,
				"element": "H" 
			},
			{
				"x": -1.652905292,
				"y": 2.7015593771,
				"z": -2.5599444056,
				"element": "H" 
			},
			{
				"x": -0.2493899331,
				"y": -1.306441998,
				"z": 4.1469313585,
				"element": "H" 
			},
			{
				"x": -1.7633922575,
				"y": -2.7566126889,
				"z": 2.7343710428,
				"element": "H" 
			}
		],
		 "valence_orbital": [ 
			{
				"type": "occ",
				"energy": -0.27797,
				"method": "rhf"
			},
			{
				"type": "occ",
				"energy": -0.27187,
				"method": "rhf"
			},
			{
				"type": "occ",
				"energy": -0.26654,
				"method": "rhf"
			},
			{
				"type": "occ",
				"energy": -0.24894,
				"method": "rhf"
			},
			{
				"type": "occ",
				"energy": -0.24716,
				"method": "rhf"
			},
			{
				"type": "unocc",
				"energy": -0.03618,
				"method": "rhf"
			},
			{
				"type": "unocc",
				"energy": -0.00833,
				"method": "rhf"
			},
			{
				"type": "unocc",
				"energy": -0.00408,
				"method": "rhf"
			},
			{
				"type": "unocc",
				"energy": 0.00471,
				"method": "rhf"
			},
			{
				"type": "unocc",
				"energy": 0.04082,
				"method": "rhf"
			}
		],
		"cosmo_sigma_profile": { 
			"-0.025": 0.0,
			"-0.024": 0.0,
			"-0.023": 0.0,
			"-0.022": 0.0,
			"-0.021": 0.0,
			"-0.02": 0.0,
			"-0.019": 0.0,
			"-0.018": 0.0,
			"-0.017": 0.0,
			"-0.016": 0.0047272520139,
			"-0.015": 0.659674803948,
			"-0.014": 1.15978055349,
			"-0.013": 0.663356485646,
			"-0.012": 1.09131842478,
			"-0.011": 2.4130140106,
			"-0.01": 3.32890237595,
			"-0.009": 5.49771995322,
			"-0.008": 7.41648429469,
			"-0.007": 12.0329378714,
			"-0.006": 10.8748972906,
			"-0.005": 14.6634186523,
			"-0.004": 23.5304948956,
			"-0.003": 32.3364746612,
			"-0.002": 40.2125692317,
			"-0.001": 48.1802946947,
			"0.0": 37.2306717883,
			"0.001": 21.4213835952,
			"0.002": 12.2749330813,
			"0.003": 9.7632481966,
			"0.004": 9.22923959577,
			"0.005": 8.04165841161,
			"0.006": 10.2449697089,
			"0.007": 7.22914603027,
			"0.008": 6.89788103788,
			"0.009": 9.4713788264,
			"0.01": 8.65582732853,
			"0.011": 8.89072614474,
			"0.012": 6.53733697486,
			"0.013": 4.03146056789,
			"0.014": 0.654498554195,
			"0.015": 0.90640846636,
			"0.016": 0.311737339823,
			"0.017": 0.418699139349,
			"0.018": 0.0372776343702,
			"0.019": 0.0,
			"0.02": 0.0,
			"0.021": 0.0,
			"0.022": 0.0,
			"0.023": 0.0,
			"0.024": 0.0,
			"0.025": 0.0
		}
	}
}
