{
	 "smiles": "ClC(C(=O)NC1CC1)C1=CC=CC=C1", 
	 "Tm": 402.15, 
	 "num_atms": 26, 
	 "gaussian": { 
		 "optdone": 1, 
		 "sigma_profile": "yes", 
		 "theory": "DFT", 
		 "functional": "B3LYP", 
		 "basiset": "6-31G**", 
		 "properties": { 
			 "R2extent": 4021.0982, 
			 "electric_dipole_moment_norm": 3.72210029956, 
			 "electric_quadrupole_moment_norm": 13.8537921938, 
			 "total_energy": -1016.55088027, 
			 "HOMO_LUMO_gap": 0.20747, 
			 "cosmo_polarized_energy": -15.68, 
			 "cosmo_cavitation_energy": 31.72, 
			 "cosmo_dispersion_energy": -22.35, 
			 "cosmo_repulsion_energy": 1.8, 
			 "cosmo_total_nonelectrostatic_energy": 11.16, 
			 "SMD_solvation_energy": 4.6 
		},
		"coords": [
			{
				"x": 1.7504507302,
				"y": -0.470231856,
				"z": -2.0598156556,
				"element": "Cl" 
			},
			{
				"x": 0.1374592522,
				"y": 0.0394306824,
				"z": -1.3130841699,
				"element": "C" 
			},
			{
				"x": 0.4805405729,
				"y": 0.9912442364,
				"z": -0.147073264,
				"element": "C" 
			},
			{
				"x": 0.8418637946,
				"y": 0.596451212,
				"z": 0.949457002,
				"element": "O" 
			},
			{
				"x": 0.35624417,
				"y": 2.3144214112,
				"z": -0.4660078063,
				"element": "N" 
			},
			{
				"x": 0.6254818444,
				"y": 3.3593864751,
				"z": 0.4824437429,
				"element": "C" 
			},
			{
				"x": 1.3130263592,
				"y": 4.6033820085,
				"z": -0.0191215017,
				"element": "C" 
			},
			{
				"x": 2.0516383803,
				"y": 3.6382170165,
				"z": 0.8747497913,
				"element": "C" 
			},
			{
				"x": -0.6972278321,
				"y": -1.1513698435,
				"z": -0.930528454,
				"element": "C" 
			},
			{
				"x": -0.3265427857,
				"y": -2.0125614133,
				"z": 0.1134928805,
				"element": "C" 
			},
			{
				"x": -1.1347719102,
				"y": -3.0994073847,
				"z": 0.4393689803,
				"element": "C" 
			},
			{
				"x": -2.3155843761,
				"y": -3.3429055301,
				"z": -0.2679692589,
				"element": "C" 
			},
			{
				"x": -2.6878292546,
				"y": -2.4921932793,
				"z": -1.3086564862,
				"element": "C" 
			},
			{
				"x": -1.8792489464,
				"y": -1.4037024568,
				"z": -1.6385862017,
				"element": "C" 
			},
			{
				"x": -0.3587286904,
				"y": 0.5846120364,
				"z": -2.1181199391,
				"element": "H" 
			},
			{
				"x": -0.0075652745,
				"y": 2.5727526283,
				"z": -1.3713686964,
				"element": "H" 
			},
			{
				"x": -0.1316080824,
				"y": 3.4758993779,
				"z": 1.2555116349,
				"element": "H" 
			},
			{
				"x": 1.5965358746,
				"y": 4.6329792932,
				"z": -1.0675494538,
				"element": "H" 
			},
			{
				"x": 0.9911815849,
				"y": 5.5576278125,
				"z": 0.3856518925,
				"element": "H" 
			},
			{
				"x": 2.2421859238,
				"y": 3.9179357699,
				"z": 1.9055381774,
				"element": "H" 
			},
			{
				"x": 2.8152629288,
				"y": 3.0136371674,
				"z": 0.4244902088,
				"element": "H" 
			},
			{
				"x": 0.582051463,
				"y": -1.8123001205,
				"z": 0.6674804797,
				"element": "H" 
			},
			{
				"x": -0.8419312466,
				"y": -3.7602312667,
				"z": 1.2501104098,
				"element": "H" 
			},
			{
				"x": -2.9401916395,
				"y": -4.1932642613,
				"z": -0.0094773632,
				"element": "H" 
			},
			{
				"x": -3.6019666276,
				"y": -2.6751630939,
				"z": -1.8658834399,
				"element": "H" 
			},
			{
				"x": -2.1685262126,
				"y": -0.7463466216,
				"z": -2.4552535095,
				"element": "H" 
			}
		],
		 "valence_orbital": [ 
			{
				"type": "occ",
				"energy": -0.29922,
				"method": "rhf"
			},
			{
				"type": "occ",
				"energy": -0.26101,
				"method": "rhf"
			},
			{
				"type": "occ",
				"energy": -0.25695,
				"method": "rhf"
			},
			{
				"type": "occ",
				"energy": -0.24902,
				"method": "rhf"
			},
			{
				"type": "occ",
				"energy": -0.24643,
				"method": "rhf"
			},
			{
				"type": "unocc",
				"energy": -0.03896,
				"method": "rhf"
			},
			{
				"type": "unocc",
				"energy": -0.00194,
				"method": "rhf"
			},
			{
				"type": "unocc",
				"energy": 0.01408,
				"method": "rhf"
			},
			{
				"type": "unocc",
				"energy": 0.05505,
				"method": "rhf"
			},
			{
				"type": "unocc",
				"energy": 0.06696,
				"method": "rhf"
			}
		],
		"cosmo_sigma_profile": { 
			"-0.025": 0.0,
			"-0.024": 0.0,
			"-0.023": 0.0,
			"-0.022": 0.0,
			"-0.021": 0.0,
			"-0.02": 0.0,
			"-0.019": 0.0,
			"-0.018": 0.0,
			"-0.017": 0.0,
			"-0.016": 0.134301994115,
			"-0.015": 1.24699291005,
			"-0.014": 2.14168809802,
			"-0.013": 0.969683815488,
			"-0.012": 1.32552609811,
			"-0.011": 1.60051534031,
			"-0.01": 1.78549718038,
			"-0.009": 3.25195060248,
			"-0.008": 2.38604895467,
			"-0.007": 2.89875800626,
			"-0.006": 11.5724280386,
			"-0.005": 19.4942545006,
			"-0.004": 21.6002510467,
			"-0.003": 18.2333021482,
			"-0.002": 16.8142150521,
			"-0.001": 16.0972981901,
			"0.0": 16.2889968413,
			"0.001": 15.9519791884,
			"0.002": 13.7344695549,
			"0.003": 15.9676305244,
			"0.004": 17.0968745431,
			"0.005": 22.4061403245,
			"0.006": 12.2187553496,
			"0.007": 2.98852252605,
			"0.008": 1.79477359843,
			"0.009": 2.0640015842,
			"0.01": 1.85927294036,
			"0.011": 2.48481836138,
			"0.012": 2.6820525949,
			"0.013": 3.7814962185,
			"0.014": 1.09338537393,
			"0.015": 0.0,
			"0.016": 0.0,
			"0.017": 0.0,
			"0.018": 0.0,
			"0.019": 0.0,
			"0.02": 0.0,
			"0.021": 0.0,
			"0.022": 0.0,
			"0.023": 0.0,
			"0.024": 0.0,
			"0.025": 0.0
		}
	}
}
