{
	 "smiles": "COC(=O)C1=C(SCC2=CC=CC=C2)SC=N1", 
	 "Tm": 366.15, 
	 "num_atms": 28, 
	 "gaussian": { 
		 "optdone": 1, 
		 "sigma_profile": "yes", 
		 "theory": "DFT", 
		 "functional": "B3LYP", 
		 "basiset": "6-31G**", 
		 "properties": { 
			 "R2extent": 6211.4328, 
			 "electric_dipole_moment_norm": 2.58660330356, 
			 "electric_quadrupole_moment_norm": 9.95601734581, 
			 "total_energy": -1465.46938137, 
			 "HOMO_LUMO_gap": 0.17761, 
			 "cosmo_polarized_energy": -14.72, 
			 "cosmo_cavitation_energy": 35.51, 
			 "cosmo_dispersion_energy": -26.28, 
			 "cosmo_repulsion_energy": 1.97, 
			 "cosmo_total_nonelectrostatic_energy": 11.2, 
			 "SMD_solvation_energy": 6.1 
		},
		"coords": [
			{
				"x": 2.9777519466,
				"y": -3.6405481421,
				"z": -2.2073377014,
				"element": "C" 
			},
			{
				"x": 1.929470639,
				"y": -3.5794435977,
				"z": -1.2289566022,
				"element": "O" 
			},
			{
				"x": 1.7710627604,
				"y": -2.3796540742,
				"z": -0.6417217559,
				"element": "C" 
			},
			{
				"x": 2.4536341469,
				"y": -1.4012902519,
				"z": -0.9032782954,
				"element": "O" 
			},
			{
				"x": 0.6865788894,
				"y": -2.3612756524,
				"z": 0.3549299484,
				"element": "C" 
			},
			{
				"x": 0.3593088763,
				"y": -1.2161052286,
				"z": 1.0737013722,
				"element": "C" 
			},
			{
				"x": 1.1591271224,
				"y": 0.3419120479,
				"z": 0.9547491606,
				"element": "S" 
			},
			{
				"x": 0.260709164,
				"y": 1.3737788299,
				"z": 2.1956377667,
				"element": "C" 
			},
			{
				"x": -1.1398150298,
				"y": 1.8280554458,
				"z": 1.8405192907,
				"element": "C" 
			},
			{
				"x": -1.4365630744,
				"y": 2.3720736914,
				"z": 0.5831089463,
				"element": "C" 
			},
			{
				"x": -2.7183907887,
				"y": 2.8395691984,
				"z": 0.2981009709,
				"element": "C" 
			},
			{
				"x": -3.7245589726,
				"y": 2.7721560841,
				"z": 1.2654182944,
				"element": "C" 
			},
			{
				"x": -3.4393724014,
				"y": 2.2329996077,
				"z": 2.5195831465,
				"element": "C" 
			},
			{
				"x": -2.1551970163,
				"y": 1.7632981211,
				"z": 2.8029568163,
				"element": "C" 
			},
			{
				"x": -0.9676446473,
				"y": -1.5889518777,
				"z": 2.1429799618,
				"element": "S" 
			},
			{
				"x": -0.9480344973,
				"y": -3.2406326903,
				"z": 1.5420795519,
				"element": "C" 
			},
			{
				"x": -0.0610471759,
				"y": -3.4848520976,
				"z": 0.6350446982,
				"element": "N" 
			},
			{
				"x": 2.7885104514,
				"y": -2.9364608007,
				"z": -3.0218956393,
				"element": "H" 
			},
			{
				"x": 2.9710613292,
				"y": -4.6655170889,
				"z": -2.5776382551,
				"element": "H" 
			},
			{
				"x": 3.9438370632,
				"y": -3.4015859138,
				"z": -1.7550122775,
				"element": "H" 
			},
			{
				"x": 0.277340031,
				"y": 0.8669941595,
				"z": 3.1650878738,
				"element": "H" 
			},
			{
				"x": 0.9311458156,
				"y": 2.2370925181,
				"z": 2.2810354959,
				"element": "H" 
			},
			{
				"x": -0.6615197527,
				"y": 2.4185303614,
				"z": -0.1766167315,
				"element": "H" 
			},
			{
				"x": -2.9328204687,
				"y": 3.2569367013,
				"z": -0.6815920351,
				"element": "H" 
			},
			{
				"x": -4.7231519966,
				"y": 3.135447742,
				"z": 1.0407379513,
				"element": "H" 
			},
			{
				"x": -4.2147806936,
				"y": 2.1729456671,
				"z": 3.2779445645,
				"element": "H" 
			},
			{
				"x": -1.9389471292,
				"y": 1.3444093246,
				"z": 3.7827899572,
				"element": "H" 
			},
			{
				"x": -1.6556945906,
				"y": -3.9661820843,
				"z": 1.9256435258,
				"element": "H" 
			}
		],
		 "valence_orbital": [ 
			{
				"type": "occ",
				"energy": -0.27932,
				"method": "rhf"
			},
			{
				"type": "occ",
				"energy": -0.2675,
				"method": "rhf"
			},
			{
				"type": "occ",
				"energy": -0.25592,
				"method": "rhf"
			},
			{
				"type": "occ",
				"energy": -0.24943,
				"method": "rhf"
			},
			{
				"type": "occ",
				"energy": -0.22058,
				"method": "rhf"
			},
			{
				"type": "unocc",
				"energy": -0.04297,
				"method": "rhf"
			},
			{
				"type": "unocc",
				"energy": -0.02214,
				"method": "rhf"
			},
			{
				"type": "unocc",
				"energy": -0.00825,
				"method": "rhf"
			},
			{
				"type": "unocc",
				"energy": -0.00668,
				"method": "rhf"
			},
			{
				"type": "unocc",
				"energy": 0.01029,
				"method": "rhf"
			}
		],
		"cosmo_sigma_profile": { 
			"-0.025": 0.0,
			"-0.024": 0.0,
			"-0.023": 0.0,
			"-0.022": 0.0,
			"-0.021": 0.0,
			"-0.02": 0.0,
			"-0.019": 0.0,
			"-0.018": 0.0,
			"-0.017": 0.0,
			"-0.016": 0.0,
			"-0.015": 0.0,
			"-0.014": 0.0,
			"-0.013": 0.0,
			"-0.012": 0.0,
			"-0.011": 0.479550551967,
			"-0.01": 2.8923785337,
			"-0.009": 2.14707993082,
			"-0.008": 3.92016210997,
			"-0.007": 8.30439946473,
			"-0.006": 17.4520077181,
			"-0.005": 22.1059170652,
			"-0.004": 26.112796643,
			"-0.003": 24.3150419146,
			"-0.002": 17.6746874094,
			"-0.001": 21.1232338747,
			"0.0": 20.6951687565,
			"0.001": 19.8556652186,
			"0.002": 16.772448608,
			"0.003": 15.5658406208,
			"0.004": 14.36297312,
			"0.005": 13.9342749597,
			"0.006": 9.84956031659,
			"0.007": 5.04296619588,
			"0.008": 3.82342598595,
			"0.009": 4.14436634783,
			"0.01": 3.19684468728,
			"0.011": 4.60851967005,
			"0.012": 5.31922905176,
			"0.013": 1.47456187493,
			"0.014": 1.45223028416,
			"0.015": 1.08398804064,
			"0.016": 0.167652330094,
			"0.017": 0.0,
			"0.018": 0.0,
			"0.019": 0.0,
			"0.02": 0.0,
			"0.021": 0.0,
			"0.022": 0.0,
			"0.023": 0.0,
			"0.024": 0.0,
			"0.025": 0.0
		}
	}
}
