{
	 "smiles": "[O-][N+](=O)C=CC1=CC=CC=C1", 
	 "Tm": 331.15, 
	 "num_atms": 18, 
	 "gaussian": { 
		 "optdone": 1, 
		 "sigma_profile": "yes", 
		 "theory": "DFT", 
		 "functional": "B3LYP", 
		 "basiset": "6-31G**", 
		 "properties": { 
			 "R2extent": 4009.8846, 
			 "electric_dipole_moment_norm": 5.81280097199, 
			 "electric_quadrupole_moment_norm": 26.7240991446, 
			 "total_energy": -514.152281494, 
			 "HOMO_LUMO_gap": 0.15867, 
			 "cosmo_polarized_energy": -10.47, 
			 "cosmo_cavitation_energy": 23.47, 
			 "cosmo_dispersion_energy": -17.11, 
			 "cosmo_repulsion_energy": 1.37, 
			 "cosmo_total_nonelectrostatic_energy": 7.72, 
			 "SMD_solvation_energy": 6.81 
		},
		"coords": [
			{
				"x": -1.4337514383,
				"y": 4.3800113367,
				"z": -2.4084913453,
				"element": "O" 
			},
			{
				"x": -0.2226632011,
				"y": 4.5734007496,
				"z": -2.2804531824,
				"element": "N" 
			},
			{
				"x": 0.4021075032,
				"y": 5.5072374861,
				"z": -2.7918026597,
				"element": "O" 
			},
			{
				"x": 0.5639312286,
				"y": 3.6565332428,
				"z": -1.4757279918,
				"element": "C" 
			},
			{
				"x": -0.0179087451,
				"y": 2.6083931657,
				"z": -0.8756371173,
				"element": "C" 
			},
			{
				"x": 0.6296453177,
				"y": 1.6022877894,
				"z": -0.0391657936,
				"element": "C" 
			},
			{
				"x": 2.0086978394,
				"y": 1.6110145729,
				"z": 0.2507935661,
				"element": "C" 
			},
			{
				"x": 2.5678110139,
				"y": 0.6246905089,
				"z": 1.0550115428,
				"element": "C" 
			},
			{
				"x": 1.7652269764,
				"y": -0.3907908388,
				"z": 1.5871314755,
				"element": "C" 
			},
			{
				"x": 0.3978906181,
				"y": -0.4133791535,
				"z": 1.3091424223,
				"element": "C" 
			},
			{
				"x": -0.1637227398,
				"y": 0.574492312,
				"z": 0.5031958862,
				"element": "C" 
			},
			{
				"x": 1.6056086379,
				"y": 3.9419840879,
				"z": -1.4481773187,
				"element": "H" 
			},
			{
				"x": -1.088607431,
				"y": 2.5038872208,
				"z": -1.0344433586,
				"element": "H" 
			},
			{
				"x": 2.6444501355,
				"y": 2.3919094645,
				"z": -0.1545771074,
				"element": "H" 
			},
			{
				"x": 3.6320189482,
				"y": 0.6443787776,
				"z": 1.2698198234,
				"element": "H" 
			},
			{
				"x": 2.2066279981,
				"y": -1.1591082838,
				"z": 2.2149264765,
				"element": "H" 
			},
			{
				"x": -0.2301871695,
				"y": -1.1985556541,
				"z": 1.7188656336,
				"element": "H" 
			},
			{
				"x": -1.228375492,
				"y": 0.557213215,
				"z": 0.2864890483,
				"element": "H" 
			}
		],
		 "valence_orbital": [ 
			{
				"type": "occ",
				"energy": -0.30015,
				"method": "rhf"
			},
			{
				"type": "occ",
				"energy": -0.29963,
				"method": "rhf"
			},
			{
				"type": "occ",
				"energy": -0.28228,
				"method": "rhf"
			},
			{
				"type": "occ",
				"energy": -0.27501,
				"method": "rhf"
			},
			{
				"type": "occ",
				"energy": -0.25528,
				"method": "rhf"
			},
			{
				"type": "unocc",
				"energy": -0.09661,
				"method": "rhf"
			},
			{
				"type": "unocc",
				"energy": -0.02637,
				"method": "rhf"
			},
			{
				"type": "unocc",
				"energy": -0.02139,
				"method": "rhf"
			},
			{
				"type": "unocc",
				"energy": 0.04593,
				"method": "rhf"
			},
			{
				"type": "unocc",
				"energy": 0.07259,
				"method": "rhf"
			}
		],
		"cosmo_sigma_profile": { 
			"-0.025": 0.0,
			"-0.024": 0.0,
			"-0.023": 0.0,
			"-0.022": 0.0,
			"-0.021": 0.0,
			"-0.02": 0.0,
			"-0.019": 0.0,
			"-0.018": 0.0,
			"-0.017": 0.0,
			"-0.016": 0.0,
			"-0.015": 0.0,
			"-0.014": 0.0,
			"-0.013": 0.0,
			"-0.012": 0.0,
			"-0.011": 0.145066253843,
			"-0.01": 1.63533837038,
			"-0.009": 3.02002294299,
			"-0.008": 4.41909345462,
			"-0.007": 6.57329346078,
			"-0.006": 12.3507449114,
			"-0.005": 14.2311622424,
			"-0.004": 14.0554770714,
			"-0.003": 10.7765673845,
			"-0.002": 12.1625177822,
			"-0.001": 13.7397414108,
			"0.0": 12.94591363,
			"0.001": 12.202237087,
			"0.002": 11.5824057654,
			"0.003": 13.6398499387,
			"0.004": 11.8053617836,
			"0.005": 1.81163908153,
			"0.006": 3.38982477393,
			"0.007": 3.88284273986,
			"0.008": 10.1736135501,
			"0.009": 7.5307563274,
			"0.01": 4.56932263106,
			"0.011": 1.94454456833,
			"0.012": 0.000805197800298,
			"0.013": 0.0,
			"0.014": 0.0,
			"0.015": 0.0,
			"0.016": 0.0,
			"0.017": 0.0,
			"0.018": 0.0,
			"0.019": 0.0,
			"0.02": 0.0,
			"0.021": 0.0,
			"0.022": 0.0,
			"0.023": 0.0,
			"0.024": 0.0,
			"0.025": 0.0
		}
	}
}
