{
	 "smiles": "OCC1=C(Cl)N=C(Cl)N1C1=CC=CC=C1", 
	 "Tm": 413.15, 
	 "num_atms": 23, 
	 "gaussian": { 
		 "optdone": 1, 
		 "sigma_profile": "yes", 
		 "theory": "DFT", 
		 "functional": "B3LYP", 
		 "basiset": "6-31G**", 
		 "properties": { 
			 "R2extent": 4593.4003, 
			 "electric_dipole_moment_norm": 3.97298456453, 
			 "electric_quadrupole_moment_norm": 16.0682051941, 
			 "total_energy": -1490.97334587, 
			 "HOMO_LUMO_gap": 0.19722, 
			 "cosmo_polarized_energy": -11.2, 
			 "cosmo_cavitation_energy": 30.86, 
			 "cosmo_dispersion_energy": -22.16, 
			 "cosmo_repulsion_energy": 1.75, 
			 "cosmo_total_nonelectrostatic_energy": 10.46, 
			 "SMD_solvation_energy": 3.11 
		},
		"coords": [
			{
				"x": 0.8562077369,
				"y": 0.4707613525,
				"z": 2.513919795,
				"element": "O" 
			},
			{
				"x": -0.2692233041,
				"y": -0.4038403312,
				"z": 2.3828973359,
				"element": "C" 
			},
			{
				"x": -0.0729238768,
				"y": -1.4807719358,
				"z": 1.368660055,
				"element": "C" 
			},
			{
				"x": 0.344677203,
				"y": -2.784634468,
				"z": 1.5027735233,
				"element": "C" 
			},
			{
				"x": 0.7172021313,
				"y": -3.5895050144,
				"z": 2.9958034271,
				"element": "Cl" 
			},
			{
				"x": 0.4516762384,
				"y": -3.4313453233,
				"z": 0.3098084235,
				"element": "N" 
			},
			{
				"x": 0.0988427406,
				"y": -2.5291327216,
				"z": -0.5712686783,
				"element": "C" 
			},
			{
				"x": 0.1016143247,
				"y": -2.8016161446,
				"z": -2.2742967662,
				"element": "Cl" 
			},
			{
				"x": -0.2343504126,
				"y": -1.3190416186,
				"z": -0.0155458979,
				"element": "N" 
			},
			{
				"x": -0.6890973548,
				"y": -0.1346581877,
				"z": -0.6851917152,
				"element": "C" 
			},
			{
				"x": -1.8279206161,
				"y": -0.1917372817,
				"z": -1.4945802115,
				"element": "C" 
			},
			{
				"x": -2.2600475719,
				"y": 0.9600141444,
				"z": -2.1505168567,
				"element": "C" 
			},
			{
				"x": -1.5713624501,
				"y": 2.1636820055,
				"z": -1.9855241593,
				"element": "C" 
			},
			{
				"x": -0.4470027533,
				"y": 2.2149204361,
				"z": -1.1598766254,
				"element": "C" 
			},
			{
				"x": 0.0050530867,
				"y": 1.0661059953,
				"z": -0.5099474726,
				"element": "C" 
			},
			{
				"x": 1.6104696018,
				"y": -0.0711853493,
				"z": 2.7830577841,
				"element": "H" 
			},
			{
				"x": -1.1083196419,
				"y": 0.2399229867,
				"z": 2.1067947318,
				"element": "H" 
			},
			{
				"x": -0.5121517442,
				"y": -0.8802971701,
				"z": 3.3409699201,
				"element": "H" 
			},
			{
				"x": -2.3662612534,
				"y": -1.126693308,
				"z": -1.6048479393,
				"element": "H" 
			},
			{
				"x": -3.1412103518,
				"y": 0.9165768438,
				"z": -2.7832667277,
				"element": "H" 
			},
			{
				"x": -1.9141692182,
				"y": 3.0596605372,
				"z": -2.4942082812,
				"element": "H" 
			},
			{
				"x": 0.0866757307,
				"y": 3.1501907366,
				"z": -1.0214842513,
				"element": "H" 
			},
			{
				"x": 0.8629217551,
				"y": 1.0965238163,
				"z": 0.152270587,
				"element": "H" 
			}
		],
		 "valence_orbital": [ 
			{
				"type": "occ",
				"energy": -0.29792,
				"method": "rhf"
			},
			{
				"type": "occ",
				"energy": -0.28885,
				"method": "rhf"
			},
			{
				"type": "occ",
				"energy": -0.2703,
				"method": "rhf"
			},
			{
				"type": "occ",
				"energy": -0.2631,
				"method": "rhf"
			},
			{
				"type": "occ",
				"energy": -0.23117,
				"method": "rhf"
			},
			{
				"type": "unocc",
				"energy": -0.03395,
				"method": "rhf"
			},
			{
				"type": "unocc",
				"energy": -0.02158,
				"method": "rhf"
			},
			{
				"type": "unocc",
				"energy": 0.00145,
				"method": "rhf"
			},
			{
				"type": "unocc",
				"energy": 0.01968,
				"method": "rhf"
			},
			{
				"type": "unocc",
				"energy": 0.03965,
				"method": "rhf"
			}
		],
		"cosmo_sigma_profile": { 
			"-0.025": 0.0,
			"-0.024": 0.0,
			"-0.023": 0.0,
			"-0.022": 0.0,
			"-0.021": 0.0,
			"-0.02": 0.0,
			"-0.019": 0.0,
			"-0.018": 0.0,
			"-0.017": 0.0,
			"-0.016": 0.106114060569,
			"-0.015": 0.876871779401,
			"-0.014": 0.935675303597,
			"-0.013": 0.59819471136,
			"-0.012": 0.952575039013,
			"-0.011": 1.09045775288,
			"-0.01": 1.52686448997,
			"-0.009": 0.875845042226,
			"-0.008": 0.778565443619,
			"-0.007": 5.57348727945,
			"-0.006": 13.1058385922,
			"-0.005": 17.1922296468,
			"-0.004": 18.0176647188,
			"-0.003": 18.1022347001,
			"-0.002": 19.2484961954,
			"-0.001": 15.7152356163,
			"0.0": 19.0600976306,
			"0.001": 18.5528861819,
			"0.002": 23.1515929592,
			"0.003": 26.6935782581,
			"0.004": 21.0646513446,
			"0.005": 7.07154452104,
			"0.006": 3.47763751083,
			"0.007": 2.93756146366,
			"0.008": 2.5988628899,
			"0.009": 2.11452324453,
			"0.01": 1.91789064171,
			"0.011": 2.46299049818,
			"0.012": 2.19767734671,
			"0.013": 2.32977933339,
			"0.014": 1.19530300666,
			"0.015": 0.387067622294,
			"0.016": 0.0,
			"0.017": 0.0,
			"0.018": 0.0,
			"0.019": 0.0,
			"0.02": 0.0,
			"0.021": 0.0,
			"0.022": 0.0,
			"0.023": 0.0,
			"0.024": 0.0,
			"0.025": 0.0
		}
	}
}
