{
	 "smiles": "COC1=CC=C(C=C1)N1C(=S)NC(=O)C2=C1N=CC=C2", 
	 "Tm": 535.15, 
	 "num_atms": 31, 
	 "gaussian": { 
		 "optdone": 1, 
		 "sigma_profile": "yes", 
		 "theory": "DFT", 
		 "functional": "B3LYP", 
		 "basiset": "6-31G**", 
		 "properties": { 
			 "R2extent": 6873.5344, 
			 "electric_dipole_moment_norm": 5.00688425371, 
			 "electric_quadrupole_moment_norm": 13.020856385, 
			 "total_energy": -1253.02894709, 
			 "HOMO_LUMO_gap": 0.14037, 
			 "cosmo_polarized_energy": -19.02, 
			 "cosmo_cavitation_energy": 37.65, 
			 "cosmo_dispersion_energy": -27.01, 
			 "cosmo_repulsion_energy": 2.03, 
			 "cosmo_total_nonelectrostatic_energy": 12.67, 
			 "SMD_solvation_energy": 6.1 
		},
		"coords": [
			{
				"x": 5.9527396019,
				"y": -0.4628868692,
				"z": 2.540128096,
				"element": "C" 
			},
			{
				"x": 5.3733729942,
				"y": -0.5966295734,
				"z": 1.2511239551,
				"element": "O" 
			},
			{
				"x": 4.0157253773,
				"y": -0.5640048229,
				"z": 1.1452676847,
				"element": "C" 
			},
			{
				"x": 3.1380601156,
				"y": -0.388378745,
				"z": 2.2225696049,
				"element": "C" 
			},
			{
				"x": 1.761312618,
				"y": -0.3715504184,
				"z": 1.994103,
				"element": "C" 
			},
			{
				"x": 1.2630945595,
				"y": -0.5322962992,
				"z": 0.7071790654,
				"element": "C" 
			},
			{
				"x": 2.1351707242,
				"y": -0.7024003211,
				"z": -0.3701640766,
				"element": "C" 
			},
			{
				"x": 3.504936166,
				"y": -0.7195140304,
				"z": -0.1532733356,
				"element": "C" 
			},
			{
				"x": -0.1678847871,
				"y": -0.5012714451,
				"z": 0.4778034007,
				"element": "N" 
			},
			{
				"x": -0.8892576918,
				"y": -1.6817912918,
				"z": 0.5373115803,
				"element": "C" 
			},
			{
				"x": -0.239068508,
				"y": -3.1802261973,
				"z": 0.8628336891,
				"element": "S" 
			},
			{
				"x": -2.2460967298,
				"y": -1.5562277518,
				"z": 0.302319963,
				"element": "N" 
			},
			{
				"x": -2.9865175009,
				"y": -0.4115696551,
				"z": 0.0135034671,
				"element": "C" 
			},
			{
				"x": -4.1920209652,
				"y": -0.4625923845,
				"z": -0.1708824387,
				"element": "O" 
			},
			{
				"x": -2.1647426892,
				"y": 0.8035378432,
				"z": -0.0371034707,
				"element": "C" 
			},
			{
				"x": -0.7773635105,
				"y": 0.735215564,
				"z": 0.1950364851,
				"element": "C" 
			},
			{
				"x": 0.0166852207,
				"y": 1.8094532699,
				"z": 0.161001203,
				"element": "N" 
			},
			{
				"x": -0.5495629592,
				"y": 2.9878470773,
				"z": -0.1066381654,
				"element": "C" 
			},
			{
				"x": -1.9155125629,
				"y": 3.1693368012,
				"z": -0.3521390246,
				"element": "C" 
			},
			{
				"x": -2.7337627781,
				"y": 2.0479154597,
				"z": -0.3145696923,
				"element": "C" 
			},
			{
				"x": 5.6321530884,
				"y": -1.2684170673,
				"z": 3.2129044323,
				"element": "H" 
			},
			{
				"x": 5.7074495557,
				"y": 0.5050775614,
				"z": 2.9957747439,
				"element": "H" 
			},
			{
				"x": 7.0317963288,
				"y": -0.5263652514,
				"z": 2.3928166297,
				"element": "H" 
			},
			{
				"x": 3.5086210655,
				"y": -0.2666768376,
				"z": 3.2328944562,
				"element": "H" 
			},
			{
				"x": 1.0758540436,
				"y": -0.2398359046,
				"z": 2.8249372098,
				"element": "H" 
			},
			{
				"x": 1.7375739348,
				"y": -0.8271398756,
				"z": -1.3720023873,
				"element": "H" 
			},
			{
				"x": 4.2029264705,
				"y": -0.8543550779,
				"z": -0.9724069137,
				"element": "H" 
			},
			{
				"x": -2.7675357277,
				"y": -2.4240681778,
				"z": 0.3476619404,
				"element": "H" 
			},
			{
				"x": 0.1282743951,
				"y": 3.8392298775,
				"z": -0.1263671861,
				"element": "H" 
			},
			{
				"x": -2.3110529391,
				"y": 4.156446353,
				"z": -0.563729236,
				"element": "H" 
			},
			{
				"x": -3.8031669101,
				"y": 2.0959381901,
				"z": -0.4926946794,
				"element": "H" 
			}
		],
		 "valence_orbital": [ 
			{
				"type": "occ",
				"energy": -0.27027,
				"method": "rhf"
			},
			{
				"type": "occ",
				"energy": -0.25815,
				"method": "rhf"
			},
			{
				"type": "occ",
				"energy": -0.23389,
				"method": "rhf"
			},
			{
				"type": "occ",
				"energy": -0.22775,
				"method": "rhf"
			},
			{
				"type": "occ",
				"energy": -0.21132,
				"method": "rhf"
			},
			{
				"type": "unocc",
				"energy": -0.07095,
				"method": "rhf"
			},
			{
				"type": "unocc",
				"energy": -0.05085,
				"method": "rhf"
			},
			{
				"type": "unocc",
				"energy": -0.01381,
				"method": "rhf"
			},
			{
				"type": "unocc",
				"energy": -0.00778,
				"method": "rhf"
			},
			{
				"type": "unocc",
				"energy": -0.00014,
				"method": "rhf"
			}
		],
		"cosmo_sigma_profile": { 
			"-0.025": 0.0,
			"-0.024": 0.0,
			"-0.023": 0.0,
			"-0.022": 0.0,
			"-0.021": 0.0,
			"-0.02": 0.0,
			"-0.019": 0.0,
			"-0.018": 0.0,
			"-0.017": 0.0,
			"-0.016": 0.191610853691,
			"-0.015": 0.895914256835,
			"-0.014": 0.778182923707,
			"-0.013": 0.826338941766,
			"-0.012": 0.212244282226,
			"-0.011": 0.911333501299,
			"-0.01": 1.05166808425,
			"-0.009": 1.06099831465,
			"-0.008": 6.09664927692,
			"-0.007": 15.343603913,
			"-0.006": 23.2941092703,
			"-0.005": 26.2903824412,
			"-0.004": 23.1749932865,
			"-0.003": 22.6648163938,
			"-0.002": 20.3962219269,
			"-0.001": 18.7140323505,
			"0.0": 18.0080390157,
			"0.001": 13.4349517482,
			"0.002": 12.18778622,
			"0.003": 14.4244775792,
			"0.004": 10.8822193365,
			"0.005": 12.5229452856,
			"0.006": 10.411221463,
			"0.007": 8.25361965366,
			"0.008": 12.9701212018,
			"0.009": 10.2917057205,
			"0.01": 8.37293461842,
			"0.011": 5.89224060389,
			"0.012": 4.97757676116,
			"0.013": 0.61233611685,
			"0.014": 0.0,
			"0.015": 0.0,
			"0.016": 0.0,
			"0.017": 0.0,
			"0.018": 0.0,
			"0.019": 0.0,
			"0.02": 0.0,
			"0.021": 0.0,
			"0.022": 0.0,
			"0.023": 0.0,
			"0.024": 0.0,
			"0.025": 0.0
		}
	}
}
