{
	 "smiles": "CCC(CC)CS(N)(=O)=O", 
	 "Tm": 307.15, 
	 "num_atms": 25, 
	 "gaussian": { 
		 "optdone": 1, 
		 "sigma_profile": "yes", 
		 "theory": "DFT", 
		 "functional": "B3LYP", 
		 "basiset": "6-31G**", 
		 "properties": { 
			 "R2extent": 3223.9534, 
			 "electric_dipole_moment_norm": 3.41185642429, 
			 "electric_quadrupole_moment_norm": 19.1460759442, 
			 "total_energy": -841.006034884, 
			 "HOMO_LUMO_gap": 0.33674, 
			 "cosmo_polarized_energy": -13.56, 
			 "cosmo_cavitation_energy": 26.25, 
			 "cosmo_dispersion_energy": -19.7, 
			 "cosmo_repulsion_energy": 1.54, 
			 "cosmo_total_nonelectrostatic_energy": 8.09, 
			 "SMD_solvation_energy": 3.91 
		},
		"coords": [
			{
				"x": -0.4202387369,
				"y": 0.4592127052,
				"z": 0.3280400474,
				"element": "C" 
			},
			{
				"x": 0.0774385469,
				"y": 0.1894218976,
				"z": 1.7556012397,
				"element": "C" 
			},
			{
				"x": 1.3697782749,
				"y": -0.6494415893,
				"z": 1.9448995964,
				"element": "C" 
			},
			{
				"x": 2.5776364962,
				"y": -0.2207979859,
				"z": 1.0715108444,
				"element": "C" 
			},
			{
				"x": 2.6771623743,
				"y": -0.7262494603,
				"z": -0.3735367422,
				"element": "C" 
			},
			{
				"x": 1.1877183754,
				"y": -2.1849997086,
				"z": 2.0566485743,
				"element": "C" 
			},
			{
				"x": 0.1301443457,
				"y": -3.1628199499,
				"z": 0.9409643981,
				"element": "S" 
			},
			{
				"x": -1.4435096605,
				"y": -2.7336476829,
				"z": 1.43024309,
				"element": "N" 
			},
			{
				"x": 0.3358144801,
				"y": -4.559497428,
				"z": 1.3432994385,
				"element": "O" 
			},
			{
				"x": 0.2829024335,
				"y": -2.7488508723,
				"z": -0.4590208094,
				"element": "O" 
			},
			{
				"x": -1.3746903364,
				"y": 0.9958690737,
				"z": 0.3652129374,
				"element": "H" 
			},
			{
				"x": -0.5626569823,
				"y": -0.4546612554,
				"z": -0.2527167055,
				"element": "H" 
			},
			{
				"x": 0.2818133466,
				"y": 1.0896812494,
				"z": -0.2259549587,
				"element": "H" 
			},
			{
				"x": 0.2645810322,
				"y": 1.161630174,
				"z": 2.2291652328,
				"element": "H" 
			},
			{
				"x": -0.7243826522,
				"y": -0.2794510955,
				"z": 2.3370194479,
				"element": "H" 
			},
			{
				"x": 1.6872928496,
				"y": -0.4059859261,
				"z": 2.9692273363,
				"element": "H" 
			},
			{
				"x": 2.6063994429,
				"y": 0.8770644415,
				"z": 1.0759038726,
				"element": "H" 
			},
			{
				"x": 3.4868134769,
				"y": -0.5378998679,
				"z": 1.600660649,
				"element": "H" 
			},
			{
				"x": 1.8385180122,
				"y": -0.4059381928,
				"z": -0.9932148226,
				"element": "H" 
			},
			{
				"x": 3.598420959,
				"y": -0.3459416352,
				"z": -0.8285216959,
				"element": "H" 
			},
			{
				"x": 2.7078681464,
				"y": -1.8173927295,
				"z": -0.4249162716,
				"element": "H" 
			},
			{
				"x": 0.7758360533,
				"y": -2.4488697716,
				"z": 3.0347246355,
				"element": "H" 
			},
			{
				"x": 2.1533473972,
				"y": -2.6932223638,
				"z": 1.965822369,
				"element": "H" 
			},
			{
				"x": -1.9036803648,
				"y": -3.566697576,
				"z": 1.7900632433,
				"element": "H" 
			},
			{
				"x": -1.9482273103,
				"y": -2.3635144503,
				"z": 0.6289750532,
				"element": "H" 
			}
		],
		 "valence_orbital": [ 
			{
				"type": "occ",
				"energy": -0.3161,
				"method": "rhf"
			},
			{
				"type": "occ",
				"energy": -0.3109,
				"method": "rhf"
			},
			{
				"type": "occ",
				"energy": -0.30103,
				"method": "rhf"
			},
			{
				"type": "occ",
				"energy": -0.29483,
				"method": "rhf"
			},
			{
				"type": "occ",
				"energy": -0.2868,
				"method": "rhf"
			},
			{
				"type": "unocc",
				"energy": 0.04994,
				"method": "rhf"
			},
			{
				"type": "unocc",
				"energy": 0.06044,
				"method": "rhf"
			},
			{
				"type": "unocc",
				"energy": 0.0747,
				"method": "rhf"
			},
			{
				"type": "unocc",
				"energy": 0.08639,
				"method": "rhf"
			},
			{
				"type": "unocc",
				"energy": 0.0981,
				"method": "rhf"
			}
		],
		"cosmo_sigma_profile": { 
			"-0.025": 0.0,
			"-0.024": 0.0,
			"-0.023": 0.0,
			"-0.022": 0.0,
			"-0.021": 0.0,
			"-0.02": 0.0,
			"-0.019": 0.0,
			"-0.018": 0.0,
			"-0.017": 0.0,
			"-0.016": 0.0,
			"-0.015": 0.10465807924,
			"-0.014": 1.7933032859,
			"-0.013": 2.16583920157,
			"-0.012": 2.43752614423,
			"-0.011": 2.02175922309,
			"-0.01": 2.6618327398,
			"-0.009": 1.41446940881,
			"-0.008": 1.92289937964,
			"-0.007": 6.2807065584,
			"-0.006": 6.75314598896,
			"-0.005": 7.26460119257,
			"-0.004": 9.70667513241,
			"-0.003": 13.6212862291,
			"-0.002": 22.5672105515,
			"-0.001": 22.5860948392,
			"0.0": 22.1755190017,
			"0.001": 19.2589975611,
			"0.002": 11.7344078251,
			"0.003": 4.04392411249,
			"0.004": 3.84933772387,
			"0.005": 3.27143827359,
			"0.006": 2.87816273607,
			"0.007": 3.97508309284,
			"0.008": 4.39304344659,
			"0.009": 3.262603316,
			"0.01": 4.28434872008,
			"0.011": 7.47880537132,
			"0.012": 7.7153521581,
			"0.013": 1.05650592485,
			"0.014": 0.0,
			"0.015": 0.0,
			"0.016": 0.0,
			"0.017": 0.0,
			"0.018": 0.0,
			"0.019": 0.0,
			"0.02": 0.0,
			"0.021": 0.0,
			"0.022": 0.0,
			"0.023": 0.0,
			"0.024": 0.0,
			"0.025": 0.0
		}
	}
}
