{
	 "smiles": "ClCC1=C(Cl)C2=C(S1)C=CC=C2", 
	 "Tm": 351.15, 
	 "num_atms": 18, 
	 "gaussian": { 
		 "optdone": 1, 
		 "sigma_profile": "yes", 
		 "theory": "DFT", 
		 "functional": "B3LYP", 
		 "basiset": "6-31G**", 
		 "properties": { 
			 "R2extent": 4109.0957, 
			 "electric_dipole_moment_norm": 2.83959295146, 
			 "electric_quadrupole_moment_norm": 8.55871248962, 
			 "total_energy": -1665.15028441, 
			 "HOMO_LUMO_gap": 0.1732, 
			 "cosmo_polarized_energy": -6.46, 
			 "cosmo_cavitation_energy": 27.07, 
			 "cosmo_dispersion_energy": -20.51, 
			 "cosmo_repulsion_energy": 1.58, 
			 "cosmo_total_nonelectrostatic_energy": 8.14, 
			 "SMD_solvation_energy": 3.34 
		},
		"coords": [
			{
				"x": 3.4244872168,
				"y": 2.1478549494,
				"z": -0.5400734145,
				"element": "Cl" 
			},
			{
				"x": 3.3815051882,
				"y": 0.6424455806,
				"z": 0.5131212722,
				"element": "C" 
			},
			{
				"x": 2.0020058323,
				"y": 0.2097049382,
				"z": 0.8440202921,
				"element": "C" 
			},
			{
				"x": 1.309433285,
				"y": 0.4232590525,
				"z": 2.001183286,
				"element": "C" 
			},
			{
				"x": 1.9606033611,
				"y": 1.2931894586,
				"z": 3.365245044,
				"element": "Cl" 
			},
			{
				"x": -0.0191696858,
				"y": -0.1316796901,
				"z": 2.0230525734,
				"element": "C" 
			},
			{
				"x": -0.3119807945,
				"y": -0.783614291,
				"z": 0.8018544573,
				"element": "C" 
			},
			{
				"x": 1.0362352645,
				"y": -0.6965840783,
				"z": -0.3173805848,
				"element": "S" 
			},
			{
				"x": -1.5479310916,
				"y": -1.4020097931,
				"z": 0.5860143665,
				"element": "C" 
			},
			{
				"x": -2.4920126339,
				"y": -1.3624496567,
				"z": 1.6057072266,
				"element": "C" 
			},
			{
				"x": -2.2133937068,
				"y": -0.7170242698,
				"z": 2.8250790626,
				"element": "C" 
			},
			{
				"x": -0.9881694573,
				"y": -0.1033535971,
				"z": 3.04100126,
				"element": "C" 
			},
			{
				"x": 3.9296693541,
				"y": 0.8962089554,
				"z": 1.4192049296,
				"element": "H" 
			},
			{
				"x": 3.9281742264,
				"y": -0.1160025451,
				"z": -0.0472550722,
				"element": "H" 
			},
			{
				"x": -1.7643807098,
				"y": -1.8993303931,
				"z": -0.3542757199,
				"element": "H" 
			},
			{
				"x": -3.4576087009,
				"y": -1.8363561354,
				"z": 1.4574402022,
				"element": "H" 
			},
			{
				"x": -2.9680609988,
				"y": -0.6992428205,
				"z": 3.605282876,
				"element": "H" 
			},
			{
				"x": -0.7697059491,
				"y": 0.3967843354,
				"z": 3.9788779429,
				"element": "H" 
			}
		],
		 "valence_orbital": [ 
			{
				"type": "occ",
				"energy": -0.30175,
				"method": "rhf"
			},
			{
				"type": "occ",
				"energy": -0.29798,
				"method": "rhf"
			},
			{
				"type": "occ",
				"energy": -0.28636,
				"method": "rhf"
			},
			{
				"type": "occ",
				"energy": -0.24899,
				"method": "rhf"
			},
			{
				"type": "occ",
				"energy": -0.22909,
				"method": "rhf"
			},
			{
				"type": "unocc",
				"energy": -0.05589,
				"method": "rhf"
			},
			{
				"type": "unocc",
				"energy": -0.01543,
				"method": "rhf"
			},
			{
				"type": "unocc",
				"energy": -0.00661,
				"method": "rhf"
			},
			{
				"type": "unocc",
				"energy": 0.01269,
				"method": "rhf"
			},
			{
				"type": "unocc",
				"energy": 0.0342,
				"method": "rhf"
			}
		],
		"cosmo_sigma_profile": { 
			"-0.025": 0.0,
			"-0.024": 0.0,
			"-0.023": 0.0,
			"-0.022": 0.0,
			"-0.021": 0.0,
			"-0.02": 0.0,
			"-0.019": 0.0,
			"-0.018": 0.0,
			"-0.017": 0.0,
			"-0.016": 0.0,
			"-0.015": 0.0,
			"-0.014": 0.0,
			"-0.013": 0.0,
			"-0.012": 0.0,
			"-0.011": 0.0,
			"-0.01": 0.0,
			"-0.009": 1.80065907961,
			"-0.008": 4.68061683185,
			"-0.007": 7.95590610989,
			"-0.006": 11.3598778141,
			"-0.005": 13.8607460249,
			"-0.004": 11.6625464341,
			"-0.003": 10.8299328354,
			"-0.002": 11.7598604504,
			"-0.001": 11.9648022518,
			"0.0": 19.5645371268,
			"0.001": 26.2109251614,
			"0.002": 25.7441130147,
			"0.003": 23.3643058856,
			"0.004": 22.2933930855,
			"0.005": 9.2524200326,
			"0.006": 10.1495269602,
			"0.007": 1.98518782309,
			"0.008": 0.0,
			"0.009": 0.0,
			"0.01": 0.0,
			"0.011": 0.0,
			"0.012": 0.0,
			"0.013": 0.0,
			"0.014": 0.0,
			"0.015": 0.0,
			"0.016": 0.0,
			"0.017": 0.0,
			"0.018": 0.0,
			"0.019": 0.0,
			"0.02": 0.0,
			"0.021": 0.0,
			"0.022": 0.0,
			"0.023": 0.0,
			"0.024": 0.0,
			"0.025": 0.0
		}
	}
}
