{
	 "smiles": "CN1CCN(CC1)C(=O)CN1C=C(N)C=N1", 
	 "Tm": 393.15, 
	 "num_atms": 33, 
	 "gaussian": { 
		 "optdone": 1, 
		 "sigma_profile": "yes", 
		 "theory": "DFT", 
		 "functional": "B3LYP", 
		 "basiset": "6-31G**", 
		 "properties": { 
			 "R2extent": 4308.1853, 
			 "electric_dipole_moment_norm": 4.77447393856, 
			 "electric_quadrupole_moment_norm": 23.305105475, 
			 "total_energy": -740.247231549, 
			 "HOMO_LUMO_gap": 0.21668, 
			 "cosmo_polarized_energy": -20.57, 
			 "cosmo_cavitation_energy": 34.62, 
			 "cosmo_dispersion_energy": -24.38, 
			 "cosmo_repulsion_energy": 1.93, 
			 "cosmo_total_nonelectrostatic_energy": 12.17, 
			 "SMD_solvation_energy": 2.7 
		},
		"coords": [
			{
				"x": -0.6120206556,
				"y": 3.100591786,
				"z": 1.5673760565,
				"element": "C" 
			},
			{
				"x": -0.0342497912,
				"y": 2.8389275633,
				"z": 0.2584942646,
				"element": "N" 
			},
			{
				"x": 1.1130454291,
				"y": 1.9190315252,
				"z": 0.2742986535,
				"element": "C" 
			},
			{
				"x": 0.7677957857,
				"y": 0.4907717221,
				"z": -0.1666770921,
				"element": "C" 
			},
			{
				"x": 0.2327652944,
				"y": 0.5329196157,
				"z": -1.5334850015,
				"element": "N" 
			},
			{
				"x": -0.4415566746,
				"y": 1.7766628802,
				"z": -1.9352213825,
				"element": "C" 
			},
			{
				"x": -1.0604207305,
				"y": 2.4485840665,
				"z": -0.7151009106,
				"element": "C" 
			},
			{
				"x": 0.2284635047,
				"y": -0.5039693125,
				"z": -2.4199375409,
				"element": "C" 
			},
			{
				"x": -0.2012102701,
				"y": -0.3932231123,
				"z": -3.5645564835,
				"element": "O" 
			},
			{
				"x": 0.8485585694,
				"y": -1.8489868115,
				"z": -1.9985139544,
				"element": "C" 
			},
			{
				"x": 0.3718299695,
				"y": -2.389846795,
				"z": -0.7377695308,
				"element": "N" 
			},
			{
				"x": 1.1004865025,
				"y": -3.0779436888,
				"z": 0.1980128968,
				"element": "C" 
			},
			{
				"x": 0.2075506525,
				"y": -3.4811182993,
				"z": 1.1785116121,
				"element": "C" 
			},
			{
				"x": 0.4782241764,
				"y": -4.1463667699,
				"z": 2.3862580808,
				"element": "N" 
			},
			{
				"x": -1.0425620161,
				"y": -2.9863563597,
				"z": 0.7305734663,
				"element": "C" 
			},
			{
				"x": -0.9338886592,
				"y": -2.3364154822,
				"z": -0.4313272386,
				"element": "N" 
			},
			{
				"x": -1.0811368756,
				"y": 2.2143874234,
				"z": 2.0376718123,
				"element": "H" 
			},
			{
				"x": -1.3862887648,
				"y": 3.8701843859,
				"z": 1.4740887931,
				"element": "H" 
			},
			{
				"x": 0.1548866847,
				"y": 3.4843029236,
				"z": 2.2474246663,
				"element": "H" 
			},
			{
				"x": 1.5340370193,
				"y": 1.8864229756,
				"z": 1.2838409888,
				"element": "H" 
			},
			{
				"x": 1.9029687864,
				"y": 2.303791908,
				"z": -0.385823822,
				"element": "H" 
			},
			{
				"x": 0.0435992479,
				"y": 0.0361318246,
				"z": 0.520882939,
				"element": "H" 
			},
			{
				"x": 1.6732258678,
				"y": -0.1217876827,
				"z": -0.1378923176,
				"element": "H" 
			},
			{
				"x": 0.2667798985,
				"y": 2.4574954466,
				"z": -2.426457207,
				"element": "H" 
			},
			{
				"x": -1.2057755194,
				"y": 1.5184088479,
				"z": -2.6696623345,
				"element": "H" 
			},
			{
				"x": -1.800393603,
				"y": 1.7527357248,
				"z": -0.2758524472,
				"element": "H" 
			},
			{
				"x": -1.6141558126,
				"y": 3.3412964127,
				"z": -1.0329363576,
				"element": "H" 
			},
			{
				"x": 1.9371096355,
				"y": -1.7477981993,
				"z": -1.9248917872,
				"element": "H" 
			},
			{
				"x": 0.6240680118,
				"y": -2.5316975765,
				"z": -2.8219802229,
				"element": "H" 
			},
			{
				"x": 2.1663786752,
				"y": -3.2217426877,
				"z": 0.0979571434,
				"element": "H" 
			},
			{
				"x": -0.3149154789,
				"y": -4.6823515477,
				"z": 2.7174241993,
				"element": "H" 
			},
			{
				"x": 1.2887931233,
				"y": -4.7513074999,
				"z": 2.3329912888,
				"element": "H" 
			},
			{
				"x": -2.0076919829,
				"y": -3.0749352071,
				"z": 1.2124787691,
				"element": "H" 
			}
		],
		 "valence_orbital": [ 
			{
				"type": "occ",
				"energy": -0.24972,
				"method": "rhf"
			},
			{
				"type": "occ",
				"energy": -0.24124,
				"method": "rhf"
			},
			{
				"type": "occ",
				"energy": -0.23153,
				"method": "rhf"
			},
			{
				"type": "occ",
				"energy": -0.20662,
				"method": "rhf"
			},
			{
				"type": "occ",
				"energy": -0.19948,
				"method": "rhf"
			},
			{
				"type": "unocc",
				"energy": 0.0172,
				"method": "rhf"
			},
			{
				"type": "unocc",
				"energy": 0.02469,
				"method": "rhf"
			},
			{
				"type": "unocc",
				"energy": 0.06648,
				"method": "rhf"
			},
			{
				"type": "unocc",
				"energy": 0.07586,
				"method": "rhf"
			},
			{
				"type": "unocc",
				"energy": 0.09393,
				"method": "rhf"
			}
		],
		"cosmo_sigma_profile": { 
			"-0.025": 0.0,
			"-0.024": 0.0,
			"-0.023": 0.0,
			"-0.022": 0.0,
			"-0.021": 0.0,
			"-0.02": 0.0,
			"-0.019": 0.0,
			"-0.018": 0.0,
			"-0.017": 0.0,
			"-0.016": 0.0,
			"-0.015": 0.0,
			"-0.014": 0.0,
			"-0.013": 0.00324829461777,
			"-0.012": 1.79825147629,
			"-0.011": 2.96619238336,
			"-0.01": 2.39611480257,
			"-0.009": 6.07599745323,
			"-0.008": 9.69850262608,
			"-0.007": 8.1037140636,
			"-0.006": 10.0836225385,
			"-0.005": 12.811425118,
			"-0.004": 23.7755255031,
			"-0.003": 30.9207982173,
			"-0.002": 28.7370918916,
			"-0.001": 21.5346989126,
			"0.0": 17.1993234563,
			"0.001": 10.2612887773,
			"0.002": 8.69000621089,
			"0.003": 8.13963422997,
			"0.004": 8.22358828253,
			"0.005": 7.8264234814,
			"0.006": 6.4383968632,
			"0.007": 6.2689360345,
			"0.008": 5.3946732478,
			"0.009": 4.17117336983,
			"0.01": 3.97464528994,
			"0.011": 4.72483534727,
			"0.012": 3.48069834702,
			"0.013": 5.61176314712,
			"0.014": 6.86647591584,
			"0.015": 3.14474146357,
			"0.016": 0.875605620283,
			"0.017": 0.285914267285,
			"0.018": 0.0,
			"0.019": 0.0,
			"0.02": 0.0,
			"0.021": 0.0,
			"0.022": 0.0,
			"0.023": 0.0,
			"0.024": 0.0,
			"0.025": 0.0
		}
	}
}
