{
	 "smiles": "ClC1=CC2=C(NC(=N2)C(Cl)(Cl)Cl)C=C1", 
	 "Tm": 499.15, 
	 "num_atms": 18, 
	 "gaussian": { 
		 "optdone": 1, 
		 "sigma_profile": "yes", 
		 "theory": "DFT", 
		 "functional": "B3LYP", 
		 "basiset": "6-31G**", 
		 "properties": { 
			 "R2extent": 6867.3339, 
			 "electric_dipole_moment_norm": 3.61127253749, 
			 "electric_quadrupole_moment_norm": 9.82393608082, 
			 "total_energy": -2257.52377554, 
			 "HOMO_LUMO_gap": 0.17634, 
			 "cosmo_polarized_energy": -11.62, 
			 "cosmo_cavitation_energy": 30.05, 
			 "cosmo_dispersion_energy": -22.45, 
			 "cosmo_repulsion_energy": 1.77, 
			 "cosmo_total_nonelectrostatic_energy": 9.37, 
			 "SMD_solvation_energy": 1.76 
		},
		"coords": [
			{
				"x": -3.8294046512,
				"y": -0.7716428298,
				"z": -0.8943064927,
				"element": "Cl" 
			},
			{
				"x": -2.2774962168,
				"y": -0.2517807991,
				"z": -0.2483268446,
				"element": "C" 
			},
			{
				"x": -1.5140350969,
				"y": -1.1508253579,
				"z": 0.4818701696,
				"element": "C" 
			},
			{
				"x": -0.2867943627,
				"y": -0.6862703057,
				"z": 0.9741763135,
				"element": "C" 
			},
			{
				"x": 0.1297340985,
				"y": 0.6435655256,
				"z": 0.7230455354,
				"element": "C" 
			},
			{
				"x": 1.3589303504,
				"y": 0.7464354526,
				"z": 1.3447392155,
				"element": "N" 
			},
			{
				"x": 1.6136386899,
				"y": -0.4800776983,
				"z": 1.9167467468,
				"element": "C" 
			},
			{
				"x": 0.664823962,
				"y": -1.3582326721,
				"z": 1.7229775615,
				"element": "N" 
			},
			{
				"x": 2.8767902453,
				"y": -0.7165383796,
				"z": 2.6979997782,
				"element": "C" 
			},
			{
				"x": 2.91180169,
				"y": 0.4052344829,
				"z": 4.1315538771,
				"element": "Cl" 
			},
			{
				"x": 2.9942449899,
				"y": -2.3958600934,
				"z": 3.2539146012,
				"element": "Cl" 
			},
			{
				"x": 4.3124924558,
				"y": -0.3173955201,
				"z": 1.6516361518,
				"element": "Cl" 
			},
			{
				"x": -0.6455227781,
				"y": 1.5413710311,
				"z": -0.0140058368,
				"element": "C" 
			},
			{
				"x": -1.8614885707,
				"y": 1.0726848677,
				"z": -0.4984217289,
				"element": "C" 
			},
			{
				"x": -1.8438313001,
				"y": -2.1658078101,
				"z": 0.6674111154,
				"element": "H" 
			},
			{
				"x": 1.9654927849,
				"y": 1.552078245,
				"z": 1.3717772556,
				"element": "H" 
			},
			{
				"x": -0.3262464786,
				"y": 2.5603168477,
				"z": -0.2068141651,
				"element": "H" 
			},
			{
				"x": -2.5045298116,
				"y": 1.7263450134,
				"z": -1.0764732534,
				"element": "H" 
			}
		],
		 "valence_orbital": [ 
			{
				"type": "occ",
				"energy": -0.31704,
				"method": "rhf"
			},
			{
				"type": "occ",
				"energy": -0.31642,
				"method": "rhf"
			},
			{
				"type": "occ",
				"energy": -0.29907,
				"method": "rhf"
			},
			{
				"type": "occ",
				"energy": -0.25372,
				"method": "rhf"
			},
			{
				"type": "occ",
				"energy": -0.24211,
				"method": "rhf"
			},
			{
				"type": "unocc",
				"energy": -0.06577,
				"method": "rhf"
			},
			{
				"type": "unocc",
				"energy": -0.05559,
				"method": "rhf"
			},
			{
				"type": "unocc",
				"energy": -0.01339,
				"method": "rhf"
			},
			{
				"type": "unocc",
				"energy": -0.00986,
				"method": "rhf"
			},
			{
				"type": "unocc",
				"energy": 0.00013,
				"method": "rhf"
			}
		],
		"cosmo_sigma_profile": { 
			"-0.025": 0.0,
			"-0.024": 0.0,
			"-0.023": 0.0,
			"-0.022": 0.0,
			"-0.021": 0.0,
			"-0.02": 0.0,
			"-0.019": 0.0,
			"-0.018": 0.287597344307,
			"-0.017": 1.0347290069,
			"-0.016": 1.07761823938,
			"-0.015": 0.896409281014,
			"-0.014": 1.27861255228,
			"-0.013": 1.11607909568,
			"-0.012": 1.54026501043,
			"-0.011": 1.20123766674,
			"-0.01": 1.54034158872,
			"-0.009": 1.72619280902,
			"-0.008": 4.06060963663,
			"-0.007": 6.54198710354,
			"-0.006": 5.70061916417,
			"-0.005": 7.04122534755,
			"-0.004": 9.04629261658,
			"-0.003": 10.7460969909,
			"-0.002": 15.3777126991,
			"-0.001": 21.4912963014,
			"0.0": 21.7995227709,
			"0.001": 28.5348297401,
			"0.002": 43.7088804085,
			"0.003": 33.8767839222,
			"0.004": 10.8839765429,
			"0.005": 9.43999280378,
			"0.006": 1.59546746491,
			"0.007": 1.2297367161,
			"0.008": 1.4819117235,
			"0.009": 1.22982030441,
			"0.01": 1.29745463858,
			"0.011": 1.26272323036,
			"0.012": 0.977750164771,
			"0.013": 0.929040047944,
			"0.014": 0.818785248957,
			"0.015": 0.280947337844,
			"0.016": 0.0,
			"0.017": 0.0,
			"0.018": 0.0,
			"0.019": 0.0,
			"0.02": 0.0,
			"0.021": 0.0,
			"0.022": 0.0,
			"0.023": 0.0,
			"0.024": 0.0,
			"0.025": 0.0
		}
	}
}
