{
	 "smiles": "CN(C)[N+]([O-])=O", 
	 "Tm": 331.15, 
	 "num_atms": 12, 
	 "gaussian": { 
		 "optdone": 1, 
		 "sigma_profile": "yes", 
		 "theory": "DFT", 
		 "functional": "B3LYP", 
		 "basiset": "6-31G**", 
		 "properties": { 
			 "R2extent": 562.0236, 
			 "electric_dipole_moment_norm": 4.44653471931, 
			 "electric_quadrupole_moment_norm": 2.82818525383, 
			 "total_energy": -339.658290498, 
			 "HOMO_LUMO_gap": 0.23116, 
			 "cosmo_polarized_energy": -9.63, 
			 "cosmo_cavitation_energy": 15.77, 
			 "cosmo_dispersion_energy": -11.77, 
			 "cosmo_repulsion_energy": 1.03, 
			 "cosmo_total_nonelectrostatic_energy": 5.03, 
			 "SMD_solvation_energy": 4.64 
		},
		"coords": [
			{
				"x": -2.0193938252,
				"y": -0.0162715407,
				"z": -0.5472314522,
				"element": "C" 
			},
			{
				"x": -0.7426022167,
				"y": 0.2452506281,
				"z": 0.1069849202,
				"element": "N" 
			},
			{
				"x": -0.0916115034,
				"y": 1.5414390504,
				"z": -0.0436383295,
				"element": "C" 
			},
			{
				"x": 0.1080421939,
				"y": -0.8412716966,
				"z": 0.2117050631,
				"element": "N" 
			},
			{
				"x": -0.388469675,
				"y": -1.9569584929,
				"z": 0.0519337306,
				"element": "O" 
			},
			{
				"x": 1.2845480089,
				"y": -0.6049630403,
				"z": 0.4888446308,
				"element": "O" 
			},
			{
				"x": -2.506083404,
				"y": -0.8651380399,
				"z": -0.0705255338,
				"element": "H" 
			},
			{
				"x": -2.6382929078,
				"y": 0.8738203107,
				"z": -0.4230559001,
				"element": "H" 
			},
			{
				"x": -1.9028587186,
				"y": -0.2310457989,
				"z": -1.6178659235,
				"element": "H" 
			},
			{
				"x": 0.6391839743,
				"y": 1.6769201763,
				"z": 0.7515234825,
				"element": "H" 
			},
			{
				"x": 0.4166274418,
				"y": 1.6425943355,
				"z": -1.0118414244,
				"element": "H" 
			},
			{
				"x": -0.8648893681,
				"y": 2.3068241082,
				"z": 0.0396667363,
				"element": "H" 
			}
		],
		 "valence_orbital": [ 
			{
				"type": "occ",
				"energy": -0.40908,
				"method": "rhf"
			},
			{
				"type": "occ",
				"energy": -0.31736,
				"method": "rhf"
			},
			{
				"type": "occ",
				"energy": -0.30101,
				"method": "rhf"
			},
			{
				"type": "occ",
				"energy": -0.28061,
				"method": "rhf"
			},
			{
				"type": "occ",
				"energy": -0.27153,
				"method": "rhf"
			},
			{
				"type": "unocc",
				"energy": -0.04037,
				"method": "rhf"
			},
			{
				"type": "unocc",
				"energy": 0.07965,
				"method": "rhf"
			},
			{
				"type": "unocc",
				"energy": 0.10343,
				"method": "rhf"
			},
			{
				"type": "unocc",
				"energy": 0.1293,
				"method": "rhf"
			},
			{
				"type": "unocc",
				"energy": 0.1302,
				"method": "rhf"
			}
		],
		"cosmo_sigma_profile": { 
			"-0.025": 0.0,
			"-0.024": 0.0,
			"-0.023": 0.0,
			"-0.022": 0.0,
			"-0.021": 0.0,
			"-0.02": 0.0,
			"-0.019": 0.0,
			"-0.018": 0.0,
			"-0.017": 0.0,
			"-0.016": 0.0,
			"-0.015": 0.0,
			"-0.014": 0.0,
			"-0.013": 0.0,
			"-0.012": 0.0,
			"-0.011": 0.0,
			"-0.01": 0.0,
			"-0.009": 0.391462495182,
			"-0.008": 2.73337082083,
			"-0.007": 5.86602982826,
			"-0.006": 10.9533345066,
			"-0.005": 12.1763014779,
			"-0.004": 13.1514182345,
			"-0.003": 16.8661322026,
			"-0.002": 6.62990650351,
			"-0.001": 5.26917441638,
			"0.0": 3.54114135813,
			"0.001": 3.54224499814,
			"0.002": 2.79491056922,
			"0.003": 3.63258104359,
			"0.004": 2.92186244539,
			"0.005": 2.09113864804,
			"0.006": 2.93307231105,
			"0.007": 2.85520473484,
			"0.008": 7.85766984152,
			"0.009": 9.69927294574,
			"0.01": 5.04807405055,
			"0.011": 2.87489922046,
			"0.012": 0.164123434549,
			"0.013": 0.0,
			"0.014": 0.0,
			"0.015": 0.0,
			"0.016": 0.0,
			"0.017": 0.0,
			"0.018": 0.0,
			"0.019": 0.0,
			"0.02": 0.0,
			"0.021": 0.0,
			"0.022": 0.0,
			"0.023": 0.0,
			"0.024": 0.0,
			"0.025": 0.0
		}
	}
}
