{
	 "smiles": "CC(C)(C)OC(=O)N1CCN(CC1)C1=CC=CC=C1N", 
	 "Tm": 394.15, 
	 "num_atms": 43, 
	 "gaussian": { 
		 "optdone": 1, 
		 "sigma_profile": "yes", 
		 "theory": "DFT", 
		 "functional": "B3LYP", 
		 "basiset": "6-31G**", 
		 "properties": { 
			 "R2extent": 8718.2226, 
			 "electric_dipole_moment_norm": 2.41599220197, 
			 "electric_quadrupole_moment_norm": 9.52799837951, 
			 "total_energy": -900.188483043, 
			 "HOMO_LUMO_gap": 0.19978, 
			 "cosmo_polarized_energy": -12.98, 
			 "cosmo_cavitation_energy": 43.02, 
			 "cosmo_dispersion_energy": -29.8, 
			 "cosmo_repulsion_energy": 2.31, 
			 "cosmo_total_nonelectrostatic_energy": 15.52, 
			 "SMD_solvation_energy": 7.11 
		},
		"coords": [
			{
				"x": 0.7247872737,
				"y": -4.0520344489,
				"z": 0.8778936882,
				"element": "C" 
			},
			{
				"x": 1.5421915529,
				"y": -3.362929496,
				"z": -0.2203132202,
				"element": "C" 
			},
			{
				"x": 1.4089747024,
				"y": -4.11489891,
				"z": -1.5475922093,
				"element": "C" 
			},
			{
				"x": 3.0165994847,
				"y": -3.204068238,
				"z": 0.1670208278,
				"element": "C" 
			},
			{
				"x": 0.9598245607,
				"y": -2.0511001832,
				"z": -0.537414838,
				"element": "O" 
			},
			{
				"x": 0.8865043419,
				"y": -1.0762835836,
				"z": 0.4046252453,
				"element": "C" 
			},
			{
				"x": 1.2849074767,
				"y": -1.1690176875,
				"z": 1.5587236309,
				"element": "O" 
			},
			{
				"x": 0.298529321,
				"y": 0.0428980656,
				"z": -0.1198866826,
				"element": "N" 
			},
			{
				"x": -0.1667124334,
				"y": 0.1310763132,
				"z": -1.5070442072,
				"element": "C" 
			},
			{
				"x": -1.0651036413,
				"y": 1.3664531066,
				"z": -1.6670883125,
				"element": "C" 
			},
			{
				"x": -1.9891468456,
				"y": 1.4191155748,
				"z": -0.5394451902,
				"element": "N" 
			},
			{
				"x": -1.3061536473,
				"y": 1.7181689822,
				"z": 0.7408422585,
				"element": "C" 
			},
			{
				"x": 0.1562446115,
				"y": 1.2353479588,
				"z": 0.7032388154,
				"element": "C" 
			},
			{
				"x": -3.2235181995,
				"y": 2.1139555031,
				"z": -0.7216967427,
				"element": "C" 
			},
			{
				"x": -3.3572494172,
				"y": 3.2376666807,
				"z": -1.5422433712,
				"element": "C" 
			},
			{
				"x": -4.589519129,
				"y": 3.8770110997,
				"z": -1.6996949556,
				"element": "C" 
			},
			{
				"x": -5.701455436,
				"y": 3.3954430907,
				"z": -1.009352716,
				"element": "C" 
			},
			{
				"x": -5.5879530584,
				"y": 2.2749300458,
				"z": -0.1872361626,
				"element": "C" 
			},
			{
				"x": -4.360766096,
				"y": 1.6138499579,
				"z": -0.0385511514,
				"element": "C" 
			},
			{
				"x": -4.220578511,
				"y": 0.4944374935,
				"z": 0.7836074767,
				"element": "N" 
			},
			{
				"x": 1.0947716208,
				"y": -5.0717632127,
				"z": 1.026935151,
				"element": "H" 
			},
			{
				"x": 0.7998013493,
				"y": -3.5068616163,
				"z": 1.8188151941,
				"element": "H" 
			},
			{
				"x": -0.3283555896,
				"y": -4.113118219,
				"z": 0.5848645557,
				"element": "H" 
			},
			{
				"x": 0.3588901147,
				"y": -4.1920010652,
				"z": -1.8447708986,
				"element": "H" 
			},
			{
				"x": 1.9547139036,
				"y": -3.5965893164,
				"z": -2.3414672998,
				"element": "H" 
			},
			{
				"x": 1.816255537,
				"y": -5.1256358229,
				"z": -1.4499074435,
				"element": "H" 
			},
			{
				"x": 3.5611689565,
				"y": -2.6762919574,
				"z": -0.6225457665,
				"element": "H" 
			},
			{
				"x": 3.47262356,
				"y": -4.1916921389,
				"z": 0.291845122,
				"element": "H" 
			},
			{
				"x": 3.1161071279,
				"y": -2.6473755368,
				"z": 1.0988457417,
				"element": "H" 
			},
			{
				"x": -0.7384432524,
				"y": -0.7689790868,
				"z": -1.745856485,
				"element": "H" 
			},
			{
				"x": 0.6784929123,
				"y": 0.1844734209,
				"z": -2.2080107627,
				"element": "H" 
			},
			{
				"x": -1.6390262631,
				"y": 1.2675619263,
				"z": -2.5919520207,
				"element": "H" 
			},
			{
				"x": -0.4513834726,
				"y": 2.2792045784,
				"z": -1.7681435831,
				"element": "H" 
			},
			{
				"x": -1.8573761086,
				"y": 1.2297889008,
				"z": 1.5505138609,
				"element": "H" 
			},
			{
				"x": -1.3105269187,
				"y": 2.800440642,
				"z": 0.9481089833,
				"element": "H" 
			},
			{
				"x": 0.8045521435,
				"y": 2.0304247204,
				"z": 0.3101412105,
				"element": "H" 
			},
			{
				"x": 0.5092149072,
				"y": 0.9905227888,
				"z": 1.7046614973,
				"element": "H" 
			},
			{
				"x": -2.4840732413,
				"y": 3.6182277732,
				"z": -2.0645977576,
				"element": "H" 
			},
			{
				"x": -4.6730601043,
				"y": 4.7459277057,
				"z": -2.3451432043,
				"element": "H" 
			},
			{
				"x": -6.6656962634,
				"y": 3.8843974355,
				"z": -1.1157222658,
				"element": "H" 
			},
			{
				"x": -6.4606006753,
				"y": 1.891920527,
				"z": 0.336841145,
				"element": "H" 
			},
			{
				"x": -5.0765371016,
				"y": -0.0202556377,
				"z": 0.9419562587,
				"element": "H" 
			},
			{
				"x": -3.4560200527,
				"y": -0.1016481339,
				"z": 0.4841965844,
				"element": "H" 
			}
		],
		 "valence_orbital": [ 
			{
				"type": "occ",
				"energy": -0.25673,
				"method": "rhf"
			},
			{
				"type": "occ",
				"energy": -0.25337,
				"method": "rhf"
			},
			{
				"type": "occ",
				"energy": -0.23278,
				"method": "rhf"
			},
			{
				"type": "occ",
				"energy": -0.2165,
				"method": "rhf"
			},
			{
				"type": "occ",
				"energy": -0.19183,
				"method": "rhf"
			},
			{
				"type": "unocc",
				"energy": 0.00795,
				"method": "rhf"
			},
			{
				"type": "unocc",
				"energy": 0.0215,
				"method": "rhf"
			},
			{
				"type": "unocc",
				"energy": 0.05721,
				"method": "rhf"
			},
			{
				"type": "unocc",
				"energy": 0.07895,
				"method": "rhf"
			},
			{
				"type": "unocc",
				"energy": 0.09142,
				"method": "rhf"
			}
		],
		"cosmo_sigma_profile": { 
			"-0.025": 0.0,
			"-0.024": 0.0,
			"-0.023": 0.0,
			"-0.022": 0.0,
			"-0.021": 0.0,
			"-0.02": 0.0,
			"-0.019": 0.0,
			"-0.018": 0.0,
			"-0.017": 0.0,
			"-0.016": 0.0,
			"-0.015": 0.0,
			"-0.014": 0.0,
			"-0.013": 0.0,
			"-0.012": 0.768313276515,
			"-0.011": 1.48409867878,
			"-0.01": 1.41696180377,
			"-0.009": 2.28937960554,
			"-0.008": 2.6440064567,
			"-0.007": 1.98255340264,
			"-0.006": 3.02852691111,
			"-0.005": 12.6438623728,
			"-0.004": 36.2937785894,
			"-0.003": 47.2978296037,
			"-0.002": 34.8892772165,
			"-0.001": 28.7897758591,
			"0.0": 35.5050406676,
			"0.001": 30.5633179802,
			"0.002": 16.6317503004,
			"0.003": 12.3905598797,
			"0.004": 13.0779501278,
			"0.005": 12.0748039423,
			"0.006": 12.2479988447,
			"0.007": 10.9946654355,
			"0.008": 5.42813255657,
			"0.009": 1.34891783981,
			"0.01": 1.63252542479,
			"0.011": 2.57131562788,
			"0.012": 2.44441134698,
			"0.013": 2.94418682198,
			"0.014": 2.33235016132,
			"0.015": 0.0,
			"0.016": 0.0,
			"0.017": 0.0,
			"0.018": 0.0,
			"0.019": 0.0,
			"0.02": 0.0,
			"0.021": 0.0,
			"0.022": 0.0,
			"0.023": 0.0,
			"0.024": 0.0,
			"0.025": 0.0
		}
	}
}
