{
	 "smiles": "CCCCCC(=NO)C(C)=O", 
	 "Tm": 332.15, 
	 "num_atms": 26, 
	 "gaussian": { 
		 "optdone": 1, 
		 "sigma_profile": "yes", 
		 "theory": "DFT", 
		 "functional": "B3LYP", 
		 "basiset": "6-31G**", 
		 "properties": { 
			 "R2extent": 2813.0703, 
			 "electric_dipole_moment_norm": 2.66935952431, 
			 "electric_quadrupole_moment_norm": 6.97072881627, 
			 "total_energy": -519.036547989, 
			 "HOMO_LUMO_gap": 0.18453, 
			 "cosmo_polarized_energy": -8.38, 
			 "cosmo_cavitation_energy": 28.45, 
			 "cosmo_dispersion_energy": -20.06, 
			 "cosmo_repulsion_energy": 1.68, 
			 "cosmo_total_nonelectrostatic_energy": 10.06, 
			 "SMD_solvation_energy": 5.69 
		},
		"coords": [
			{
				"x": 1.0723440623,
				"y": -3.7498842884,
				"z": 0.405219133,
				"element": "C" 
			},
			{
				"x": 0.3875215701,
				"y": -2.4950840863,
				"z": 0.9573439752,
				"element": "C" 
			},
			{
				"x": -0.9122916418,
				"y": -2.8157199751,
				"z": 1.7074662774,
				"element": "C" 
			},
			{
				"x": -1.6359379251,
				"y": -1.6221573548,
				"z": 2.3566856233,
				"element": "C" 
			},
			{
				"x": -2.1689875575,
				"y": -0.5658147842,
				"z": 1.3714716281,
				"element": "C" 
			},
			{
				"x": -1.2341578661,
				"y": 0.568908461,
				"z": 0.9911848556,
				"element": "C" 
			},
			{
				"x": -0.1794683917,
				"y": 0.7221436778,
				"z": 1.7103645388,
				"element": "N" 
			},
			{
				"x": 0.6335526693,
				"y": 1.8017915211,
				"z": 1.3626893485,
				"element": "O" 
			},
			{
				"x": -1.7133616383,
				"y": 1.420771747,
				"z": -0.1761191407,
				"element": "C" 
			},
			{
				"x": -0.8922989667,
				"y": 2.5621884374,
				"z": -0.7304888743,
				"element": "C" 
			},
			{
				"x": -2.7999714067,
				"y": 1.1425888521,
				"z": -0.6599155345,
				"element": "O" 
			},
			{
				"x": 0.418077694,
				"y": -4.2844529116,
				"z": -0.2933269754,
				"element": "H" 
			},
			{
				"x": 1.3318944487,
				"y": -4.4471852197,
				"z": 1.2103378924,
				"element": "H" 
			},
			{
				"x": 1.995276339,
				"y": -3.5015953139,
				"z": -0.1294256233,
				"element": "H" 
			},
			{
				"x": 1.072393283,
				"y": -1.9620661779,
				"z": 1.628822955,
				"element": "H" 
			},
			{
				"x": 0.1797413675,
				"y": -1.8037858844,
				"z": 0.1312111091,
				"element": "H" 
			},
			{
				"x": -1.6058988755,
				"y": -3.3191422953,
				"z": 1.0178293132,
				"element": "H" 
			},
			{
				"x": -0.6896441235,
				"y": -3.5493119712,
				"z": 2.4949433849,
				"element": "H" 
			},
			{
				"x": -0.983812647,
				"y": -1.1457305487,
				"z": 3.0955756506,
				"element": "H" 
			},
			{
				"x": -2.495088925,
				"y": -2.0182657701,
				"z": 2.9111643146,
				"element": "H" 
			},
			{
				"x": -2.5102734102,
				"y": -1.0408890093,
				"z": 0.4448436797,
				"element": "H" 
			},
			{
				"x": -3.07272878,
				"y": -0.0945631835,
				"z": 1.7804380323,
				"element": "H" 
			},
			{
				"x": 1.3483879482,
				"y": 1.7277007841,
				"z": 2.0091833815,
				"element": "H" 
			},
			{
				"x": -0.7461543781,
				"y": 3.3361838044,
				"z": 0.0285977535,
				"element": "H" 
			},
			{
				"x": 0.1084120546,
				"y": 2.2245838813,
				"z": -1.0143996795,
				"element": "H" 
			},
			{
				"x": -1.4209249036,
				"y": 2.970687608,
				"z": -1.593297019,
				"element": "H" 
			}
		],
		 "valence_orbital": [ 
			{
				"type": "occ",
				"energy": -0.31872,
				"method": "rhf"
			},
			{
				"type": "occ",
				"energy": -0.31083,
				"method": "rhf"
			},
			{
				"type": "occ",
				"energy": -0.29386,
				"method": "rhf"
			},
			{
				"type": "occ",
				"energy": -0.26537,
				"method": "rhf"
			},
			{
				"type": "occ",
				"energy": -0.24741,
				"method": "rhf"
			},
			{
				"type": "unocc",
				"energy": -0.06288,
				"method": "rhf"
			},
			{
				"type": "unocc",
				"energy": 0.05443,
				"method": "rhf"
			},
			{
				"type": "unocc",
				"energy": 0.06054,
				"method": "rhf"
			},
			{
				"type": "unocc",
				"energy": 0.09231,
				"method": "rhf"
			},
			{
				"type": "unocc",
				"energy": 0.11483,
				"method": "rhf"
			}
		],
		"cosmo_sigma_profile": { 
			"-0.025": 0.0,
			"-0.024": 0.0,
			"-0.023": 0.0,
			"-0.022": 0.0,
			"-0.021": 0.0,
			"-0.02": 0.0,
			"-0.019": 0.0,
			"-0.018": 0.789420330645,
			"-0.017": 1.03291317729,
			"-0.016": 0.863958210397,
			"-0.015": 1.14470274787,
			"-0.014": 0.717388488565,
			"-0.013": 0.103386003227,
			"-0.012": 0.430834097564,
			"-0.011": 0.855640802375,
			"-0.01": 0.724956214938,
			"-0.009": 0.807948623323,
			"-0.008": 0.661309692531,
			"-0.007": 0.961368717926,
			"-0.006": 1.16099925323,
			"-0.005": 6.03879966358,
			"-0.004": 10.2204462169,
			"-0.003": 15.8759569371,
			"-0.002": 28.1254894902,
			"-0.001": 33.5157066133,
			"0.0": 31.0655269945,
			"0.001": 26.6912700555,
			"0.002": 17.1950995764,
			"0.003": 6.21966308509,
			"0.004": 7.2988937037,
			"0.005": 6.30753998984,
			"0.006": 4.57024322843,
			"0.007": 2.60882910448,
			"0.008": 2.75930434889,
			"0.009": 2.63195961643,
			"0.01": 2.35997828009,
			"0.011": 3.80633909151,
			"0.012": 2.52947884824,
			"0.013": 0.555783047851,
			"0.014": 0.0,
			"0.015": 0.0,
			"0.016": 0.0,
			"0.017": 0.0,
			"0.018": 0.0,
			"0.019": 0.0,
			"0.02": 0.0,
			"0.021": 0.0,
			"0.022": 0.0,
			"0.023": 0.0,
			"0.024": 0.0,
			"0.025": 0.0
		}
	}
}
