{
	 "smiles": "CCC1=C(C)SC(N)=N1", 
	 "Tm": 347.15, 
	 "num_atms": 19, 
	 "gaussian": { 
		 "optdone": 1, 
		 "sigma_profile": "yes", 
		 "theory": "DFT", 
		 "functional": "B3LYP", 
		 "basiset": "6-31G**", 
		 "properties": { 
			 "R2extent": 1619.7165, 
			 "electric_dipole_moment_norm": 1.29659639441, 
			 "electric_quadrupole_moment_norm": 9.82923716521, 
			 "total_energy": -742.366158857, 
			 "HOMO_LUMO_gap": 0.20233, 
			 "cosmo_polarized_energy": -9.09, 
			 "cosmo_cavitation_energy": 23.58, 
			 "cosmo_dispersion_energy": -17.88, 
			 "cosmo_repulsion_energy": 1.46, 
			 "cosmo_total_nonelectrostatic_energy": 7.16, 
			 "SMD_solvation_energy": 2.53 
		},
		"coords": [
			{
				"x": -1.7266307027,
				"y": -1.8693549645,
				"z": 0.9861829614,
				"element": "C" 
			},
			{
				"x": -0.4617720091,
				"y": -1.1783465585,
				"z": 1.5217835922,
				"element": "C" 
			},
			{
				"x": -0.0404770428,
				"y": -0.0008214494,
				"z": 0.6819324464,
				"element": "C" 
			},
			{
				"x": 1.1122558954,
				"y": 0.1163821632,
				"z": -0.043436592,
				"element": "C" 
			},
			{
				"x": 2.2575361381,
				"y": -0.832208287,
				"z": -0.226409227,
				"element": "C" 
			},
			{
				"x": 1.1269372596,
				"y": 1.6885849266,
				"z": -0.8536780131,
				"element": "S" 
			},
			{
				"x": -0.4543359868,
				"y": 2.0205774198,
				"z": -0.1393930877,
				"element": "C" 
			},
			{
				"x": -1.0773147958,
				"y": 3.2377864431,
				"z": -0.3270655121,
				"element": "N" 
			},
			{
				"x": -0.9204058357,
				"y": 1.0741791746,
				"z": 0.6160427361,
				"element": "N" 
			},
			{
				"x": -2.0412677776,
				"y": -2.6799319356,
				"z": 1.6518105553,
				"element": "H" 
			},
			{
				"x": -1.5517997086,
				"y": -2.2934796283,
				"z": -0.0081536442,
				"element": "H" 
			},
			{
				"x": -2.5461946247,
				"y": -1.1500689842,
				"z": 0.9059418544,
				"element": "H" 
			},
			{
				"x": 0.3563598484,
				"y": -1.9013843124,
				"z": 1.5956332864,
				"element": "H" 
			},
			{
				"x": -0.6552283576,
				"y": -0.8190994814,
				"z": 2.5406528538,
				"element": "H" 
			},
			{
				"x": 2.0865358081,
				"y": -1.7484265085,
				"z": 0.3437903444,
				"element": "H" 
			},
			{
				"x": 2.3892643808,
				"y": -1.1176159526,
				"z": -1.2771159667,
				"element": "H" 
			},
			{
				"x": 3.2061763276,
				"y": -0.40191786,
				"z": 0.1164909484,
				"element": "H" 
			},
			{
				"x": -2.0442083775,
				"y": 3.2242683457,
				"z": -0.027862181,
				"element": "H" 
			},
			{
				"x": -0.9400304389,
				"y": 3.6793774496,
				"z": -1.2254473548,
				"element": "H" 
			}
		],
		 "valence_orbital": [ 
			{
				"type": "occ",
				"energy": -0.32456,
				"method": "rhf"
			},
			{
				"type": "occ",
				"energy": -0.29977,
				"method": "rhf"
			},
			{
				"type": "occ",
				"energy": -0.26232,
				"method": "rhf"
			},
			{
				"type": "occ",
				"energy": -0.25988,
				"method": "rhf"
			},
			{
				"type": "occ",
				"energy": -0.19739,
				"method": "rhf"
			},
			{
				"type": "unocc",
				"energy": 0.00494,
				"method": "rhf"
			},
			{
				"type": "unocc",
				"energy": 0.01707,
				"method": "rhf"
			},
			{
				"type": "unocc",
				"energy": 0.07007,
				"method": "rhf"
			},
			{
				"type": "unocc",
				"energy": 0.07623,
				"method": "rhf"
			},
			{
				"type": "unocc",
				"energy": 0.10474,
				"method": "rhf"
			}
		],
		"cosmo_sigma_profile": { 
			"-0.025": 0.0,
			"-0.024": 0.0,
			"-0.023": 0.0,
			"-0.022": 0.0,
			"-0.021": 0.0,
			"-0.02": 0.0,
			"-0.019": 0.0,
			"-0.018": 0.0,
			"-0.017": 0.0,
			"-0.016": 0.0,
			"-0.015": 0.0622464317106,
			"-0.014": 1.03927196668,
			"-0.013": 2.933938652,
			"-0.012": 1.75583346617,
			"-0.011": 3.12269502136,
			"-0.01": 2.55860600463,
			"-0.009": 2.03102157614,
			"-0.008": 1.48364583912,
			"-0.007": 1.5903705584,
			"-0.006": 2.94903933858,
			"-0.005": 4.70574968471,
			"-0.004": 8.37237221409,
			"-0.003": 13.6428823868,
			"-0.002": 18.2734374947,
			"-0.001": 22.1934786833,
			"0.0": 20.7117359228,
			"0.001": 16.110492472,
			"0.002": 10.7615685694,
			"0.003": 11.8583318676,
			"0.004": 11.7456858069,
			"0.005": 9.81320047231,
			"0.006": 4.6903269101,
			"0.007": 3.4668618906,
			"0.008": 2.65472974495,
			"0.009": 1.69150080847,
			"0.01": 1.61744675927,
			"0.011": 1.24528130249,
			"0.012": 2.39415750486,
			"0.013": 0.704050592079,
			"0.014": 0.589815009034,
			"0.015": 0.644765063916,
			"0.016": 0.173249553899,
			"0.017": 0.0,
			"0.018": 0.0,
			"0.019": 0.0,
			"0.02": 0.0,
			"0.021": 0.0,
			"0.022": 0.0,
			"0.023": 0.0,
			"0.024": 0.0,
			"0.025": 0.0
		}
	}
}
