{
	 "smiles": "CC(NC(=O)C1=C(Cl)C=CC=C1)C(O)=O", 
	 "Tm": 411.15, 
	 "num_atms": 25, 
	 "gaussian": { 
		 "optdone": 1, 
		 "sigma_profile": "yes", 
		 "theory": "DFT", 
		 "functional": "B3LYP", 
		 "basiset": "6-31G**", 
		 "properties": { 
			 "R2extent": 4608.4646, 
			 "electric_dipole_moment_norm": 3.61271789793, 
			 "electric_quadrupole_moment_norm": 20.4151387752, 
			 "total_energy": -1127.73872793, 
			 "HOMO_LUMO_gap": 0.21266, 
			 "cosmo_polarized_energy": -16.69, 
			 "cosmo_cavitation_energy": 31.76, 
			 "cosmo_dispersion_energy": -22.36, 
			 "cosmo_repulsion_energy": 1.77, 
			 "cosmo_total_nonelectrostatic_energy": 11.17, 
			 "SMD_solvation_energy": 6.55 
		},
		"coords": [
			{
				"x": 1.4110049826,
				"y": 2.4681991746,
				"z": -1.9261922536,
				"element": "C" 
			},
			{
				"x": 1.6591556661,
				"y": 0.9591278433,
				"z": -2.12493824,
				"element": "C" 
			},
			{
				"x": 0.9531020672,
				"y": 0.1391315514,
				"z": -1.1582983584,
				"element": "N" 
			},
			{
				"x": 1.4044711401,
				"y": -0.0005919259,
				"z": 0.1225968569,
				"element": "C" 
			},
			{
				"x": 2.3877426606,
				"y": 0.5975862942,
				"z": 0.5437032268,
				"element": "O" 
			},
			{
				"x": 0.6166128384,
				"y": -0.9822756471,
				"z": 0.9559397353,
				"element": "C" 
			},
			{
				"x": 0.1754170209,
				"y": -0.6912396841,
				"z": 2.2564369678,
				"element": "C" 
			},
			{
				"x": 0.4022963937,
				"y": 0.8978418181,
				"z": 2.9638867137,
				"element": "Cl" 
			},
			{
				"x": -0.4999643094,
				"y": -1.6472242035,
				"z": 3.0161512461,
				"element": "C" 
			},
			{
				"x": -0.73412345,
				"y": -2.9170003249,
				"z": 2.4893161981,
				"element": "C" 
			},
			{
				"x": -0.3042632144,
				"y": -3.2288261891,
				"z": 1.1997965785,
				"element": "C" 
			},
			{
				"x": 0.3592790287,
				"y": -2.263985234,
				"z": 0.4445660219,
				"element": "C" 
			},
			{
				"x": 1.2239605739,
				"y": 0.5067715187,
				"z": -3.5094414439,
				"element": "C" 
			},
			{
				"x": 1.9571678479,
				"y": 1.084324839,
				"z": -4.4804749171,
				"element": "O" 
			},
			{
				"x": 0.3139168831,
				"y": -0.2643818239,
				"z": -3.7340626741,
				"element": "O" 
			},
			{
				"x": 0.3470121467,
				"y": 2.7013741806,
				"z": -2.0301260436,
				"element": "H" 
			},
			{
				"x": 1.7380413312,
				"y": 2.74060282,
				"z": -0.9213338969,
				"element": "H" 
			},
			{
				"x": 1.9766707488,
				"y": 3.0500881783,
				"z": -2.6579538519,
				"element": "H" 
			},
			{
				"x": 2.7349470157,
				"y": 0.7745947914,
				"z": -2.021601205,
				"element": "H" 
			},
			{
				"x": 0.1348573882,
				"y": -0.3542074435,
				"z": -1.4892581605,
				"element": "H" 
			},
			{
				"x": -0.8394636305,
				"y": -1.388780994,
				"z": 4.0130414269,
				"element": "H" 
			},
			{
				"x": -1.2543567775,
				"y": -3.6572265711,
				"z": 3.089753406,
				"element": "H" 
			},
			{
				"x": -0.4809643669,
				"y": -4.2159728414,
				"z": 0.7843572908,
				"element": "H" 
			},
			{
				"x": 0.7087242488,
				"y": -2.5065283631,
				"z": -0.5548296536,
				"element": "H" 
			},
			{
				"x": 1.6000557663,
				"y": 0.7646982358,
				"z": -5.3263349702,
				"element": "H" 
			}
		],
		 "valence_orbital": [ 
			{
				"type": "occ",
				"energy": -0.29705,
				"method": "rhf"
			},
			{
				"type": "occ",
				"energy": -0.27041,
				"method": "rhf"
			},
			{
				"type": "occ",
				"energy": -0.25869,
				"method": "rhf"
			},
			{
				"type": "occ",
				"energy": -0.25252,
				"method": "rhf"
			},
			{
				"type": "occ",
				"energy": -0.24717,
				"method": "rhf"
			},
			{
				"type": "unocc",
				"energy": -0.03451,
				"method": "rhf"
			},
			{
				"type": "unocc",
				"energy": -0.01949,
				"method": "rhf"
			},
			{
				"type": "unocc",
				"energy": -0.00902,
				"method": "rhf"
			},
			{
				"type": "unocc",
				"energy": 0.03182,
				"method": "rhf"
			},
			{
				"type": "unocc",
				"energy": 0.04168,
				"method": "rhf"
			}
		],
		"cosmo_sigma_profile": { 
			"-0.025": 0.0,
			"-0.024": 0.0,
			"-0.023": 0.0,
			"-0.022": 0.0,
			"-0.021": 0.0,
			"-0.02": 0.0,
			"-0.019": 0.64211772852,
			"-0.018": 0.636096109066,
			"-0.017": 1.13743135582,
			"-0.016": 0.707165138567,
			"-0.015": 1.05006288788,
			"-0.014": 0.984361724912,
			"-0.013": 0.300744913384,
			"-0.012": 0.727023103321,
			"-0.011": 1.11580166727,
			"-0.01": 1.22346084159,
			"-0.009": 1.24545124383,
			"-0.008": 3.16731367868,
			"-0.007": 11.3547145254,
			"-0.006": 13.563515423,
			"-0.005": 16.0038442242,
			"-0.004": 15.4345131123,
			"-0.003": 15.7033713325,
			"-0.002": 17.4137349789,
			"-0.001": 18.2072112632,
			"0.0": 20.3121235014,
			"0.001": 18.2392338886,
			"0.002": 18.756762341,
			"0.003": 19.5313952856,
			"0.004": 13.115541068,
			"0.005": 7.58125681202,
			"0.006": 4.06117040384,
			"0.007": 4.71734724273,
			"0.008": 4.84004991196,
			"0.009": 3.91581014316,
			"0.01": 4.76064032781,
			"0.011": 4.96687140057,
			"0.012": 2.91452758074,
			"0.013": 4.29712646645,
			"0.014": 2.03654492745,
			"0.015": 0.104001414354,
			"0.016": 0.0,
			"0.017": 0.0,
			"0.018": 0.0,
			"0.019": 0.0,
			"0.02": 0.0,
			"0.021": 0.0,
			"0.022": 0.0,
			"0.023": 0.0,
			"0.024": 0.0,
			"0.025": 0.0
		}
	}
}
