{
	 "smiles": "COC1CC2(C)C(CCC2(O)C#C)C2CCC3=CC(O)=CC=C3C12", 
	 "Tm": 553.15, 
	 "num_atms": 50, 
	 "gaussian": { 
		 "optdone": 1, 
		 "sigma_profile": "yes", 
		 "theory": "DFT", 
		 "functional": "B3LYP", 
		 "basiset": "6-31G**", 
		 "properties": { 
			 "R2extent": 7808.7888, 
			 "electric_dipole_moment_norm": 3.44602452835, 
			 "electric_quadrupole_moment_norm": 17.7569972405, 
			 "total_energy": -1041.48716139, 
			 "HOMO_LUMO_gap": 0.21242, 
			 "cosmo_polarized_energy": -15.87, 
			 "cosmo_cavitation_energy": 46.25, 
			 "cosmo_dispersion_energy": -31.29, 
			 "cosmo_repulsion_energy": 2.34, 
			 "cosmo_total_nonelectrostatic_energy": 17.3, 
			 "SMD_solvation_energy": 8.8 
		},
		"coords": [
			{
				"x": 3.3115796157,
				"y": 0.244915179,
				"z": 2.7785678952,
				"element": "C" 
			},
			{
				"x": 1.9023113875,
				"y": 0.2667196276,
				"z": 2.6802431337,
				"element": "O" 
			},
			{
				"x": 1.383400844,
				"y": -0.2593987878,
				"z": 1.4556923543,
				"element": "C" 
			},
			{
				"x": 1.5420224843,
				"y": 0.7445022216,
				"z": 0.302480007,
				"element": "C" 
			},
			{
				"x": 0.787387307,
				"y": 0.4125828742,
				"z": -1.0082977722,
				"element": "C" 
			},
			{
				"x": 0.4648131694,
				"y": 1.7600447338,
				"z": -1.6994319291,
				"element": "C" 
			},
			{
				"x": -0.540705867,
				"y": -0.3874798633,
				"z": -0.8268651284,
				"element": "C" 
			},
			{
				"x": -0.7502361244,
				"y": -1.1473904382,
				"z": -2.1812126691,
				"element": "C" 
			},
			{
				"x": 0.5344513447,
				"y": -0.9538676317,
				"z": -3.0184132904,
				"element": "C" 
			},
			{
				"x": 1.6143840228,
				"y": -0.4677886477,
				"z": -2.0159106717,
				"element": "C" 
			},
			{
				"x": 2.6172402138,
				"y": 0.3540361371,
				"z": -2.6219473449,
				"element": "O" 
			},
			{
				"x": 2.2814658132,
				"y": -1.6341868269,
				"z": -1.4046935064,
				"element": "C" 
			},
			{
				"x": 2.884000676,
				"y": -2.6112504479,
				"z": -1.0227105664,
				"element": "C" 
			},
			{
				"x": -0.5903712909,
				"y": -1.3610591812,
				"z": 0.3782226592,
				"element": "C" 
			},
			{
				"x": -2.0336557675,
				"y": -1.9286685328,
				"z": 0.5522937761,
				"element": "C" 
			},
			{
				"x": -2.6845191499,
				"y": -1.5513102543,
				"z": 1.9007139716,
				"element": "C" 
			},
			{
				"x": -2.408295544,
				"y": -0.1167776984,
				"z": 2.2768976926,
				"element": "C" 
			},
			{
				"x": -3.416606475,
				"y": 0.7412640388,
				"z": 2.7210309605,
				"element": "C" 
			},
			{
				"x": -3.110555148,
				"y": 2.0474765778,
				"z": 3.1134026896,
				"element": "C" 
			},
			{
				"x": -4.0634432219,
				"y": 2.9280831477,
				"z": 3.5525331974,
				"element": "O" 
			},
			{
				"x": -1.7858747318,
				"y": 2.4879824304,
				"z": 3.073985385,
				"element": "C" 
			},
			{
				"x": -0.7822117399,
				"y": 1.6302133218,
				"z": 2.6259933064,
				"element": "C" 
			},
			{
				"x": -1.0729611545,
				"y": 0.3273374617,
				"z": 2.2009807799,
				"element": "C" 
			},
			{
				"x": -0.0700191953,
				"y": -0.6983863894,
				"z": 1.6886180867,
				"element": "C" 
			},
			{
				"x": 3.5661891046,
				"y": 0.5723688943,
				"z": 3.7900411707,
				"element": "H" 
			},
			{
				"x": 3.7129977068,
				"y": -0.7690613161,
				"z": 2.6231918716,
				"element": "H" 
			},
			{
				"x": 3.8005993618,
				"y": 0.9196261422,
				"z": 2.0612598277,
				"element": "H" 
			},
			{
				"x": 1.9434901863,
				"y": -1.1729319984,
				"z": 1.2110176259,
				"element": "H" 
			},
			{
				"x": 1.1878281012,
				"y": 1.7132895802,
				"z": 0.6653479345,
				"element": "H" 
			},
			{
				"x": 2.6026800768,
				"y": 0.8772069028,
				"z": 0.0600522096,
				"element": "H" 
			},
			{
				"x": -0.0679289453,
				"y": 1.6331321734,
				"z": -2.6458788131,
				"element": "H" 
			},
			{
				"x": 1.3774100229,
				"y": 2.3243538661,
				"z": -1.9025646502,
				"element": "H" 
			},
			{
				"x": -0.1736573441,
				"y": 2.3530953379,
				"z": -1.0373124472,
				"element": "H" 
			},
			{
				"x": -1.3483875729,
				"y": 0.3371104795,
				"z": -0.6752168927,
				"element": "H" 
			},
			{
				"x": -0.9271913919,
				"y": -2.2107432894,
				"z": -1.9932844169,
				"element": "H" 
			},
			{
				"x": -1.6257928897,
				"y": -0.7798968855,
				"z": -2.7243434573,
				"element": "H" 
			},
			{
				"x": 0.4153481418,
				"y": -0.1673572359,
				"z": -3.7683327989,
				"element": "H" 
			},
			{
				"x": 0.8428487102,
				"y": -1.8625720405,
				"z": -3.5428353188,
				"element": "H" 
			},
			{
				"x": 3.2297957718,
				"y": -0.2289132583,
				"z": -3.0895155157,
				"element": "H" 
			},
			{
				"x": 3.4023346815,
				"y": -3.46597763,
				"z": -0.6533332142,
				"element": "H" 
			},
			{
				"x": 0.0862733588,
				"y": -2.1960073689,
				"z": 0.1620372569,
				"element": "H" 
			},
			{
				"x": -2.6713059926,
				"y": -1.5498739891,
				"z": -0.254152119,
				"element": "H" 
			},
			{
				"x": -2.0320783631,
				"y": -3.019609634,
				"z": 0.4522082469,
				"element": "H" 
			},
			{
				"x": -2.2770160227,
				"y": -2.2044905256,
				"z": 2.6863466605,
				"element": "H" 
			},
			{
				"x": -3.7615073638,
				"y": -1.7485412913,
				"z": 1.8686492349,
				"element": "H" 
			},
			{
				"x": -4.4453657564,
				"y": 0.3855554991,
				"z": 2.7697331981,
				"element": "H" 
			},
			{
				"x": -4.9233503691,
				"y": 2.488628995,
				"z": 3.5393007843,
				"element": "H" 
			},
			{
				"x": -1.556799996,
				"y": 3.4967057487,
				"z": 3.4019834556,
				"element": "H" 
			},
			{
				"x": 0.2460598663,
				"y": 1.9691219061,
				"z": 2.6425601003,
				"element": "H" 
			},
			{
				"x": -0.0130745512,
				"y": -1.4955121141,
				"z": 2.4461670496,
				"element": "H" 
			}
		],
		 "valence_orbital": [ 
			{
				"type": "occ",
				"energy": -0.27451,
				"method": "rhf"
			},
			{
				"type": "occ",
				"energy": -0.25735,
				"method": "rhf"
			},
			{
				"type": "occ",
				"energy": -0.24121,
				"method": "rhf"
			},
			{
				"type": "occ",
				"energy": -0.23212,
				"method": "rhf"
			},
			{
				"type": "occ",
				"energy": -0.2016,
				"method": "rhf"
			},
			{
				"type": "unocc",
				"energy": 0.01082,
				"method": "rhf"
			},
			{
				"type": "unocc",
				"energy": 0.02508,
				"method": "rhf"
			},
			{
				"type": "unocc",
				"energy": 0.02656,
				"method": "rhf"
			},
			{
				"type": "unocc",
				"energy": 0.04426,
				"method": "rhf"
			},
			{
				"type": "unocc",
				"energy": 0.07799,
				"method": "rhf"
			}
		],
		"cosmo_sigma_profile": { 
			"-0.025": 0.0,
			"-0.024": 0.0,
			"-0.023": 0.0,
			"-0.022": 0.0,
			"-0.021": 0.0,
			"-0.02": 0.0,
			"-0.019": 0.0,
			"-0.018": 0.0905835246649,
			"-0.017": 0.709026458001,
			"-0.016": 1.27881739717,
			"-0.015": 1.89180482864,
			"-0.014": 1.95394525259,
			"-0.013": 1.28121131558,
			"-0.012": 2.1638199962,
			"-0.011": 2.4494938732,
			"-0.01": 3.28035294234,
			"-0.009": 2.36539369155,
			"-0.008": 3.38329132584,
			"-0.007": 3.18493688003,
			"-0.006": 3.75160141513,
			"-0.005": 6.81916339952,
			"-0.004": 14.8504165533,
			"-0.003": 33.4236929481,
			"-0.002": 49.1370428164,
			"-0.001": 49.5648915056,
			"0.0": 38.3845237265,
			"0.001": 28.7905090308,
			"0.002": 19.2578254667,
			"0.003": 14.7510166868,
			"0.004": 15.015883445,
			"0.005": 16.4546503371,
			"0.006": 15.8815309874,
			"0.007": 8.56041845985,
			"0.008": 3.51265222756,
			"0.009": 4.91795160371,
			"0.01": 4.64731160134,
			"0.011": 4.38995393429,
			"0.012": 3.53736127413,
			"0.013": 0.655383858987,
			"0.014": 0.0,
			"0.015": 0.0,
			"0.016": 0.0,
			"0.017": 0.0,
			"0.018": 0.0,
			"0.019": 0.0,
			"0.02": 0.0,
			"0.021": 0.0,
			"0.022": 0.0,
			"0.023": 0.0,
			"0.024": 0.0,
			"0.025": 0.0
		}
	}
}
