{
	 "smiles": "OC(=O)C1=CC=C(S1)C1=NC=CC=C1", 
	 "Tm": 505.15, 
	 "num_atms": 21, 
	 "gaussian": { 
		 "optdone": 1, 
		 "sigma_profile": "yes", 
		 "theory": "DFT", 
		 "functional": "B3LYP", 
		 "basiset": "6-31G**", 
		 "properties": { 
			 "R2extent": 4406.9207, 
			 "electric_dipole_moment_norm": 4.99024823731, 
			 "electric_quadrupole_moment_norm": 22.0093997685, 
			 "total_energy": -988.664696263, 
			 "HOMO_LUMO_gap": 0.15637, 
			 "cosmo_polarized_energy": -16.89, 
			 "cosmo_cavitation_energy": 27.76, 
			 "cosmo_dispersion_energy": -21.16, 
			 "cosmo_repulsion_energy": 1.59, 
			 "cosmo_total_nonelectrostatic_energy": 8.19, 
			 "SMD_solvation_energy": 4.63 
		},
		"coords": [
			{
				"x": -1.386309537,
				"y": -3.5070190885,
				"z": 4.1913003405,
				"element": "O" 
			},
			{
				"x": -1.6568956985,
				"y": -2.4645988732,
				"z": 3.3618083872,
				"element": "C" 
			},
			{
				"x": -2.7039356541,
				"y": -1.8646199679,
				"z": 3.4596904043,
				"element": "O" 
			},
			{
				"x": -0.6233049414,
				"y": -2.1225272432,
				"z": 2.3637039305,
				"element": "C" 
			},
			{
				"x": 0.5740222098,
				"y": -2.7314177809,
				"z": 2.04621511,
				"element": "C" 
			},
			{
				"x": 1.2724755758,
				"y": -2.0793734551,
				"z": 1.0040542544,
				"element": "C" 
			},
			{
				"x": 0.6059963858,
				"y": -0.9698502346,
				"z": 0.5215398888,
				"element": "C" 
			},
			{
				"x": -0.9022446183,
				"y": -0.7284206872,
				"z": 1.3597537119,
				"element": "S" 
			},
			{
				"x": 1.0706742581,
				"y": -0.0830769169,
				"z": -0.5556283678,
				"element": "C" 
			},
			{
				"x": 2.2607451589,
				"y": -0.4078785531,
				"z": -1.0994728914,
				"element": "N" 
			},
			{
				"x": 2.7345840253,
				"y": 0.3598415632,
				"z": -2.0815556335,
				"element": "C" 
			},
			{
				"x": 2.0696510227,
				"y": 1.4826363833,
				"z": -2.5806614965,
				"element": "C" 
			},
			{
				"x": 0.8392049948,
				"y": 1.8175196012,
				"z": -2.0174944863,
				"element": "C" 
			},
			{
				"x": 0.3290286732,
				"y": 1.0275447535,
				"z": -0.9916542391,
				"element": "C" 
			},
			{
				"x": -0.4955992927,
				"y": -3.8497967107,
				"z": 4.0367361971,
				"element": "H" 
			},
			{
				"x": 0.9513114084,
				"y": -3.6282599436,
				"z": 2.5291802736,
				"element": "H" 
			},
			{
				"x": 2.2276455783,
				"y": -2.3908006047,
				"z": 0.6021715077,
				"element": "H" 
			},
			{
				"x": 3.6978486774,
				"y": 0.0639265044,
				"z": -2.493805903,
				"element": "H" 
			},
			{
				"x": 2.5052904691,
				"y": 2.06986232,
				"z": -3.3822670249,
				"element": "H" 
			},
			{
				"x": 0.2827577831,
				"y": 2.6808050459,
				"z": -2.3702763912,
				"element": "H" 
			},
			{
				"x": -0.6272464789,
				"y": 1.2685038882,
				"z": -0.5380375723,
				"element": "H" 
			}
		],
		 "valence_orbital": [ 
			{
				"type": "occ",
				"energy": -0.29316,
				"method": "rhf"
			},
			{
				"type": "occ",
				"energy": -0.27808,
				"method": "rhf"
			},
			{
				"type": "occ",
				"energy": -0.26986,
				"method": "rhf"
			},
			{
				"type": "occ",
				"energy": -0.26927,
				"method": "rhf"
			},
			{
				"type": "occ",
				"energy": -0.23489,
				"method": "rhf"
			},
			{
				"type": "unocc",
				"energy": -0.07852,
				"method": "rhf"
			},
			{
				"type": "unocc",
				"energy": -0.03549,
				"method": "rhf"
			},
			{
				"type": "unocc",
				"energy": -0.01553,
				"method": "rhf"
			},
			{
				"type": "unocc",
				"energy": 0.01875,
				"method": "rhf"
			},
			{
				"type": "unocc",
				"energy": 0.04447,
				"method": "rhf"
			}
		],
		"cosmo_sigma_profile": { 
			"-0.025": 0.0,
			"-0.024": 0.0,
			"-0.023": 0.0,
			"-0.022": 0.0,
			"-0.021": 0.0,
			"-0.02": 0.0690342824267,
			"-0.019": 0.823571827133,
			"-0.018": 1.24648545494,
			"-0.017": 1.12861712595,
			"-0.016": 0.753193472694,
			"-0.015": 0.888801852339,
			"-0.014": 0.95680883103,
			"-0.013": 1.32174662427,
			"-0.012": 1.34191153111,
			"-0.011": 1.13568109384,
			"-0.01": 1.15029353837,
			"-0.009": 1.483103276,
			"-0.008": 3.10839004825,
			"-0.007": 10.6540964864,
			"-0.006": 13.668927875,
			"-0.005": 12.9280948387,
			"-0.004": 9.49527320565,
			"-0.003": 9.29151225126,
			"-0.002": 11.7123134957,
			"-0.001": 11.4963573877,
			"0.0": 15.927219862,
			"0.001": 26.1430734118,
			"0.002": 28.7248118533,
			"0.003": 14.7375473678,
			"0.004": 4.87716702511,
			"0.005": 4.31121606713,
			"0.006": 4.48443520751,
			"0.007": 4.6253426676,
			"0.008": 4.317845619,
			"0.009": 4.20769402147,
			"0.01": 6.22998458215,
			"0.011": 6.48288822515,
			"0.012": 5.00515250462,
			"0.013": 1.30708677248,
			"0.014": 0.0158010482647,
			"0.015": 0.0,
			"0.016": 0.0,
			"0.017": 0.0,
			"0.018": 0.0,
			"0.019": 0.0,
			"0.02": 0.0,
			"0.021": 0.0,
			"0.022": 0.0,
			"0.023": 0.0,
			"0.024": 0.0,
			"0.025": 0.0
		}
	}
}
