{
	 "smiles": "C1CCC2=C(C1)C1=C(CCCC1)C1=CC(=CC=C21)C1=CC=CC=C1", 
	 "Tm": 409.15, 
	 "num_atms": 48, 
	 "gaussian": { 
		 "optdone": 1, 
		 "sigma_profile": "yes", 
		 "theory": "DFT", 
		 "functional": "B3LYP", 
		 "basiset": "6-31G**", 
		 "properties": { 
			 "R2extent": 10157.5339, 
			 "electric_dipole_moment_norm": 1.10727166495, 
			 "electric_quadrupole_moment_norm": 9.08248535369, 
			 "total_energy": -929.063031584, 
			 "HOMO_LUMO_gap": 0.1581, 
			 "cosmo_polarized_energy": -6.69, 
			 "cosmo_cavitation_energy": 46.04, 
			 "cosmo_dispersion_energy": -33.71, 
			 "cosmo_repulsion_energy": 2.53, 
			 "cosmo_total_nonelectrostatic_energy": 14.87, 
			 "SMD_solvation_energy": 5.53 
		},
		"coords": [
			{
				"x": 0.2055624548,
				"y": -3.9711513143,
				"z": 2.9410507269,
				"element": "C" 
			},
			{
				"x": 0.9732396968,
				"y": -4.0492062469,
				"z": 1.5959445246,
				"element": "C" 
			},
			{
				"x": 0.2172750184,
				"y": -3.343233157,
				"z": 0.4484927343,
				"element": "C" 
			},
			{
				"x": -0.2369282241,
				"y": -1.9585439976,
				"z": 0.8611492578,
				"element": "C" 
			},
			{
				"x": -0.9084236999,
				"y": -1.8689709247,
				"z": 2.0771956252,
				"element": "C" 
			},
			{
				"x": -1.1132988929,
				"y": -3.1759927857,
				"z": 2.8160849812,
				"element": "C" 
			},
			{
				"x": -1.3631632986,
				"y": -0.6066706307,
				"z": 2.5573717364,
				"element": "C" 
			},
			{
				"x": -1.1430755742,
				"y": 0.5507264672,
				"z": 1.816347634,
				"element": "C" 
			},
			{
				"x": -1.6582209662,
				"y": 1.839186462,
				"z": 2.4234506881,
				"element": "C" 
			},
			{
				"x": -1.2074032425,
				"y": 1.9851823961,
				"z": 3.8937581359,
				"element": "C" 
			},
			{
				"x": -1.4772990567,
				"y": 0.7016254435,
				"z": 4.7207956841,
				"element": "C" 
			},
			{
				"x": -2.1047474881,
				"y": -0.422126723,
				"z": 3.8661598104,
				"element": "C" 
			},
			{
				"x": -0.4713885365,
				"y": 0.4855426974,
				"z": 0.5557907572,
				"element": "C" 
			},
			{
				"x": -0.2418819601,
				"y": 1.6360457713,
				"z": -0.2484008896,
				"element": "C" 
			},
			{
				"x": 0.4046750707,
				"y": 1.5798508918,
				"z": -1.4708847924,
				"element": "C" 
			},
			{
				"x": 0.8543495198,
				"y": 0.3122588996,
				"z": -1.9323084932,
				"element": "C" 
			},
			{
				"x": 0.650433685,
				"y": -0.8227590282,
				"z": -1.187119324,
				"element": "C" 
			},
			{
				"x": -0.0099647452,
				"y": -0.7893374122,
				"z": 0.074501884,
				"element": "C" 
			},
			{
				"x": 0.6271001327,
				"y": 2.8033758952,
				"z": -2.2823118187,
				"element": "C" 
			},
			{
				"x": 1.8190525708,
				"y": 2.9823074466,
				"z": -3.0059979581,
				"element": "C" 
			},
			{
				"x": 2.0333306619,
				"y": 4.1330233936,
				"z": -3.7636194087,
				"element": "C" 
			},
			{
				"x": 1.0599670743,
				"y": 5.1325206875,
				"z": -3.816407787,
				"element": "C" 
			},
			{
				"x": -0.1305271507,
				"y": 4.9685036962,
				"z": -3.1054068887,
				"element": "C" 
			},
			{
				"x": -0.3450500495,
				"y": 3.8167109499,
				"z": -2.3498789565,
				"element": "C" 
			},
			{
				"x": -0.0185171734,
				"y": -4.9748768627,
				"z": 3.31900008,
				"element": "H" 
			},
			{
				"x": 0.8321222686,
				"y": -3.4880911632,
				"z": 3.698504571,
				"element": "H" 
			},
			{
				"x": 1.9560507166,
				"y": -3.5775162245,
				"z": 1.701192023,
				"element": "H" 
			},
			{
				"x": 1.1582244677,
				"y": -5.0919315722,
				"z": 1.3148896817,
				"element": "H" 
			},
			{
				"x": -0.6619986799,
				"y": -3.9465225417,
				"z": 0.1773776583,
				"element": "H" 
			},
			{
				"x": 0.8527457893,
				"y": -3.324149746,
				"z": -0.4381539103,
				"element": "H" 
			},
			{
				"x": -1.8420409592,
				"y": -3.7867123709,
				"z": 2.2626149622,
				"element": "H" 
			},
			{
				"x": -1.5425914036,
				"y": -3.0284202881,
				"z": 3.808350532,
				"element": "H" 
			},
			{
				"x": -1.3386523104,
				"y": 2.7196124825,
				"z": 1.8642401272,
				"element": "H" 
			},
			{
				"x": -2.757953596,
				"y": 1.8410533498,
				"z": 2.3869053805,
				"element": "H" 
			},
			{
				"x": -1.7146530879,
				"y": 2.84790957,
				"z": 4.3397165116,
				"element": "H" 
			},
			{
				"x": -0.1368457387,
				"y": 2.215800772,
				"z": 3.9037060539,
				"element": "H" 
			},
			{
				"x": -2.1388771777,
				"y": 0.9169003109,
				"z": 5.5672596594,
				"element": "H" 
			},
			{
				"x": -0.5392857393,
				"y": 0.3307988517,
				"z": 5.147749368,
				"element": "H" 
			},
			{
				"x": -2.1464059947,
				"y": -1.341996026,
				"z": 4.451600032,
				"element": "H" 
			},
			{
				"x": -3.1503687401,
				"y": -0.1581094751,
				"z": 3.6487194753,
				"element": "H" 
			},
			{
				"x": -0.5647803063,
				"y": 2.6047108552,
				"z": 0.1135402457,
				"element": "H" 
			},
			{
				"x": 1.337878701,
				"y": 0.2392482742,
				"z": -2.901852551,
				"element": "H" 
			},
			{
				"x": 0.9903912734,
				"y": -1.7710215603,
				"z": -1.5871217991,
				"element": "H" 
			},
			{
				"x": 2.5941712861,
				"y": 2.2233906576,
				"z": -2.9525780625,
				"element": "H" 
			},
			{
				"x": 2.9663718836,
				"y": 4.252376476,
				"z": -4.3074779584,
				"element": "H" 
			},
			{
				"x": 1.2262846531,
				"y": 6.028639604,
				"z": -4.4072722708,
				"element": "H" 
			},
			{
				"x": -0.8999947425,
				"y": 5.7344891412,
				"z": -3.1478938636,
				"element": "H" 
			},
			{
				"x": -1.2868883893,
				"y": 3.6851486078,
				"z": -1.8253738093,
				"element": "H" 
			}
		],
		 "valence_orbital": [ 
			{
				"type": "occ",
				"energy": -0.26767,
				"method": "rhf"
			},
			{
				"type": "occ",
				"energy": -0.24803,
				"method": "rhf"
			},
			{
				"type": "occ",
				"energy": -0.24582,
				"method": "rhf"
			},
			{
				"type": "occ",
				"energy": -0.21717,
				"method": "rhf"
			},
			{
				"type": "occ",
				"energy": -0.19324,
				"method": "rhf"
			},
			{
				"type": "unocc",
				"energy": -0.03514,
				"method": "rhf"
			},
			{
				"type": "unocc",
				"energy": -0.0131,
				"method": "rhf"
			},
			{
				"type": "unocc",
				"energy": 0.00274,
				"method": "rhf"
			},
			{
				"type": "unocc",
				"energy": 0.0219,
				"method": "rhf"
			},
			{
				"type": "unocc",
				"energy": 0.04197,
				"method": "rhf"
			}
		],
		"cosmo_sigma_profile": { 
			"-0.025": 0.0,
			"-0.024": 0.0,
			"-0.023": 0.0,
			"-0.022": 0.0,
			"-0.021": 0.0,
			"-0.02": 0.0,
			"-0.019": 0.0,
			"-0.018": 0.0,
			"-0.017": 0.0,
			"-0.016": 0.0,
			"-0.015": 0.0,
			"-0.014": 0.0,
			"-0.013": 0.0,
			"-0.012": 0.0,
			"-0.011": 0.0,
			"-0.01": 0.0,
			"-0.009": 0.0,
			"-0.008": 0.0,
			"-0.007": 0.390470009707,
			"-0.006": 5.63053266462,
			"-0.005": 18.152977015,
			"-0.004": 19.5474541035,
			"-0.003": 35.513573074,
			"-0.002": 45.5432235057,
			"-0.001": 53.1019078394,
			"0.0": 48.5114092016,
			"0.001": 34.4399574679,
			"0.002": 18.4145767447,
			"0.003": 18.5606138709,
			"0.004": 19.1829485036,
			"0.005": 29.1301871222,
			"0.006": 16.7852316634,
			"0.007": 0.419466715746,
			"0.008": 0.0,
			"0.009": 0.0,
			"0.01": 0.0,
			"0.011": 0.0,
			"0.012": 0.0,
			"0.013": 0.0,
			"0.014": 0.0,
			"0.015": 0.0,
			"0.016": 0.0,
			"0.017": 0.0,
			"0.018": 0.0,
			"0.019": 0.0,
			"0.02": 0.0,
			"0.021": 0.0,
			"0.022": 0.0,
			"0.023": 0.0,
			"0.024": 0.0,
			"0.025": 0.0
		}
	}
}
