{
	 "smiles": "COC1=CC=C2C[C@@H]3[C@@H]4CCC(=O)[C@@H]5OC1=C2[C@]45CCN3C", 
	 "Tm": 471.15, 
	 "num_atms": 43, 
	 "gaussian": { 
		 "optdone": 1, 
		 "sigma_profile": "yes", 
		 "theory": "DFT", 
		 "functional": "B3LYP", 
		 "basiset": "6-31G**", 
		 "properties": { 
			 "R2extent": 5717.1551, 
			 "electric_dipole_moment_norm": 3.20133398133, 
			 "electric_quadrupole_moment_norm": 12.2040790603, 
			 "total_energy": -978.947113889, 
			 "HOMO_LUMO_gap": 0.1697, 
			 "cosmo_polarized_energy": -11.69, 
			 "cosmo_cavitation_energy": 40.2, 
			 "cosmo_dispersion_energy": -28.86, 
			 "cosmo_repulsion_energy": 2.17, 
			 "cosmo_total_nonelectrostatic_energy": 13.51, 
			 "SMD_solvation_energy": 5.94 
		},
		"coords": [
			{
				"x": 3.4621212737,
				"y": -2.6947007723,
				"z": 1.0407866662,
				"element": "C" 
			},
			{
				"x": 3.3531694833,
				"y": -2.2926046396,
				"z": -0.3254919637,
				"element": "O" 
			},
			{
				"x": 2.1626875283,
				"y": -1.7736181103,
				"z": -0.7478545249,
				"element": "C" 
			},
			{
				"x": 1.8362689664,
				"y": -1.9348819696,
				"z": -2.1086063688,
				"element": "C" 
			},
			{
				"x": 0.710885968,
				"y": -1.3444642864,
				"z": -2.6835563161,
				"element": "C" 
			},
			{
				"x": -0.1970710019,
				"y": -0.613753202,
				"z": -1.8970948757,
				"element": "C" 
			},
			{
				"x": -1.3274886748,
				"y": 0.234230598,
				"z": -2.4496614427,
				"element": "C" 
			},
			{
				"x": -2.1388516832,
				"y": 0.9794258429,
				"z": -1.3501826022,
				"element": "C" 
			},
			{
				"x": -1.2534962585,
				"y": 1.4673697905,
				"z": -0.1635842401,
				"element": "C" 
			},
			{
				"x": -0.1537654637,
				"y": 2.4710164923,
				"z": -0.6122969692,
				"element": "C" 
			},
			{
				"x": 1.1878096506,
				"y": 2.3740256118,
				"z": 0.1734343623,
				"element": "C" 
			},
			{
				"x": 1.0014730083,
				"y": 1.7931926252,
				"z": 1.5581845443,
				"element": "C" 
			},
			{
				"x": 1.2862519806,
				"y": 2.3760756519,
				"z": 2.5860726708,
				"element": "O" 
			},
			{
				"x": 0.3811417773,
				"y": 0.3883342882,
				"z": 1.5963608892,
				"element": "C" 
			},
			{
				"x": 1.4308153466,
				"y": -0.5968369269,
				"z": 1.3208680254,
				"element": "O" 
			},
			{
				"x": 1.2615524874,
				"y": -1.0289865868,
				"z": 0.0195017473,
				"element": "C" 
			},
			{
				"x": 0.0842967923,
				"y": -0.5503504133,
				"z": -0.5412522236,
				"element": "C" 
			},
			{
				"x": -0.712618414,
				"y": 0.1870904909,
				"z": 0.5091365443,
				"element": "C" 
			},
			{
				"x": -1.9146801034,
				"y": -0.6610551928,
				"z": 1.0526610252,
				"element": "C" 
			},
			{
				"x": -3.2698342558,
				"y": -0.1505638893,
				"z": 0.5545970229,
				"element": "C" 
			},
			{
				"x": -3.2227734605,
				"y": 0.0827076265,
				"z": -0.8799174901,
				"element": "N" 
			},
			{
				"x": -4.5167447576,
				"y": 0.4006668001,
				"z": -1.4564732553,
				"element": "C" 
			},
			{
				"x": 2.6662728034,
				"y": -3.4017023971,
				"z": 1.3068488526,
				"element": "H" 
			},
			{
				"x": 3.4221182266,
				"y": -1.8409222509,
				"z": 1.7218520629,
				"element": "H" 
			},
			{
				"x": 4.4298770199,
				"y": -3.1924587708,
				"z": 1.126879621,
				"element": "H" 
			},
			{
				"x": 2.5334780197,
				"y": -2.5033658459,
				"z": -2.7162217283,
				"element": "H" 
			},
			{
				"x": 0.5503947475,
				"y": -1.4408042486,
				"z": -3.7543262984,
				"element": "H" 
			},
			{
				"x": -0.900209938,
				"y": 0.9562183638,
				"z": -3.1595330736,
				"element": "H" 
			},
			{
				"x": -2.0365605849,
				"y": -0.3715559832,
				"z": -3.0249750968,
				"element": "H" 
			},
			{
				"x": -2.5861392386,
				"y": 1.8742333566,
				"z": -1.8102028292,
				"element": "H" 
			},
			{
				"x": -1.9052297995,
				"y": 1.9926862305,
				"z": 0.5440147558,
				"element": "H" 
			},
			{
				"x": 0.0692374367,
				"y": 2.3485710878,
				"z": -1.6750063257,
				"element": "H" 
			},
			{
				"x": -0.5566594025,
				"y": 3.4826866061,
				"z": -0.5010604994,
				"element": "H" 
			},
			{
				"x": 1.8740015727,
				"y": 1.7103000835,
				"z": -0.3659979655,
				"element": "H" 
			},
			{
				"x": 1.6668394877,
				"y": 3.35147097,
				"z": 0.2643464464,
				"element": "H" 
			},
			{
				"x": 0.0357851091,
				"y": 0.200641085,
				"z": 2.6145572324,
				"element": "H" 
			},
			{
				"x": -1.7853783624,
				"y": -1.7029251867,
				"z": 0.744521978,
				"element": "H" 
			},
			{
				"x": -1.9167945666,
				"y": -0.6444491671,
				"z": 2.1483712967,
				"element": "H" 
			},
			{
				"x": -3.5802396007,
				"y": 0.74443016,
				"z": 1.1307696625,
				"element": "H" 
			},
			{
				"x": -4.0350141771,
				"y": -0.9111413046,
				"z": 0.7493971066,
				"element": "H" 
			},
			{
				"x": -4.442700107,
				"y": 0.4373660226,
				"z": -2.5485170942,
				"element": "H" 
			},
			{
				"x": -4.9293608369,
				"y": 1.3701289625,
				"z": -1.1138920949,
				"element": "H" 
			},
			{
				"x": -5.2399679984,
				"y": -0.3810276023,
				"z": -1.2005572344,
				"element": "H" 
			}
		],
		 "valence_orbital": [ 
			{
				"type": "occ",
				"energy": -0.29125,
				"method": "rhf"
			},
			{
				"type": "occ",
				"energy": -0.24872,
				"method": "rhf"
			},
			{
				"type": "occ",
				"energy": -0.2225,
				"method": "rhf"
			},
			{
				"type": "occ",
				"energy": -0.20838,
				"method": "rhf"
			},
			{
				"type": "occ",
				"energy": -0.2019,
				"method": "rhf"
			},
			{
				"type": "unocc",
				"energy": -0.0322,
				"method": "rhf"
			},
			{
				"type": "unocc",
				"energy": 0.00446,
				"method": "rhf"
			},
			{
				"type": "unocc",
				"energy": 0.0126,
				"method": "rhf"
			},
			{
				"type": "unocc",
				"energy": 0.07239,
				"method": "rhf"
			},
			{
				"type": "unocc",
				"energy": 0.08259,
				"method": "rhf"
			}
		],
		"cosmo_sigma_profile": { 
			"-0.025": 0.0,
			"-0.024": 0.0,
			"-0.023": 0.0,
			"-0.022": 0.0,
			"-0.021": 0.0,
			"-0.02": 0.0,
			"-0.019": 0.0,
			"-0.018": 0.0,
			"-0.017": 0.0,
			"-0.016": 0.0,
			"-0.015": 0.0,
			"-0.014": 0.0,
			"-0.013": 0.0,
			"-0.012": 0.0,
			"-0.011": 0.0,
			"-0.01": 0.0,
			"-0.009": 0.0,
			"-0.008": 0.0,
			"-0.007": 1.89463911985,
			"-0.006": 6.19956214326,
			"-0.005": 14.7880918994,
			"-0.004": 32.1736398681,
			"-0.003": 48.7055911601,
			"-0.002": 44.5957817629,
			"-0.001": 37.8245788423,
			"0.0": 28.0351993002,
			"0.001": 13.118802137,
			"0.002": 11.3372780712,
			"0.003": 12.0117182415,
			"0.004": 11.7365554678,
			"0.005": 12.1678534593,
			"0.006": 8.45653111172,
			"0.007": 5.69905697116,
			"0.008": 5.36516641905,
			"0.009": 3.95480641987,
			"0.01": 4.45009990051,
			"0.011": 6.11606660474,
			"0.012": 4.12023610932,
			"0.013": 1.05142681318,
			"0.014": 0.152284353571,
			"0.015": 0.0,
			"0.016": 0.0,
			"0.017": 0.0,
			"0.018": 0.0,
			"0.019": 0.0,
			"0.02": 0.0,
			"0.021": 0.0,
			"0.022": 0.0,
			"0.023": 0.0,
			"0.024": 0.0,
			"0.025": 0.0
		}
	}
}
