{
	 "smiles": "O=CC1=CC=C(C=C1)C1=CN=CN=C1", 
	 "Tm": 421.15, 
	 "num_atms": 22, 
	 "gaussian": { 
		 "optdone": 1, 
		 "sigma_profile": "yes", 
		 "theory": "DFT", 
		 "functional": "B3LYP", 
		 "basiset": "6-31G**", 
		 "properties": { 
			 "R2extent": 3647.0746, 
			 "electric_dipole_moment_norm": 1.66177479521, 
			 "electric_quadrupole_moment_norm": 16.3745514784, 
			 "total_energy": -608.704164226, 
			 "HOMO_LUMO_gap": 0.17268, 
			 "cosmo_polarized_energy": -12.48, 
			 "cosmo_cavitation_energy": 27.4, 
			 "cosmo_dispersion_energy": -19.91, 
			 "cosmo_repulsion_energy": 1.52, 
			 "cosmo_total_nonelectrostatic_energy": 9.01, 
			 "SMD_solvation_energy": 2.76 
		},
		"coords": [
			{
				"x": -3.1200790721,
				"y": 3.5602868546,
				"z": 1.7593196176,
				"element": "O" 
			},
			{
				"x": -1.9260970736,
				"y": 3.3393498683,
				"z": 1.8269050839,
				"element": "C" 
			},
			{
				"x": -1.2282110814,
				"y": 2.2683536106,
				"z": 1.0794843475,
				"element": "C" 
			},
			{
				"x": -1.9447781546,
				"y": 1.4201898906,
				"z": 0.2216330475,
				"element": "C" 
			},
			{
				"x": -1.28633514,
				"y": 0.4192143426,
				"z": -0.4788535413,
				"element": "C" 
			},
			{
				"x": 0.1041340252,
				"y": 0.2363701954,
				"z": -0.3380677388,
				"element": "C" 
			},
			{
				"x": 0.8140162059,
				"y": 1.0893591843,
				"z": 0.5251761013,
				"element": "C" 
			},
			{
				"x": 0.1538383158,
				"y": 2.0954717099,
				"z": 1.2239437324,
				"element": "C" 
			},
			{
				"x": 0.8027140418,
				"y": -0.8323518316,
				"z": -1.0836864218,
				"element": "C" 
			},
			{
				"x": 0.2335717587,
				"y": -2.0963281418,
				"z": -1.3030075378,
				"element": "C" 
			},
			{
				"x": 0.8528161063,
				"y": -3.068137627,
				"z": -1.9775536306,
				"element": "N" 
			},
			{
				"x": 2.0741699863,
				"y": -2.7768844634,
				"z": -2.4380807903,
				"element": "C" 
			},
			{
				"x": 2.7291856387,
				"y": -1.6194869568,
				"z": -2.2961140156,
				"element": "N" 
			},
			{
				"x": 2.0855678174,
				"y": -0.6605283506,
				"z": -1.6260924456,
				"element": "C" 
			},
			{
				"x": -1.2666765273,
				"y": 3.9539315593,
				"z": 2.4795011132,
				"element": "H" 
			},
			{
				"x": -3.0140704728,
				"y": 1.5736189634,
				"z": 0.115994331,
				"element": "H" 
			},
			{
				"x": -1.8427674867,
				"y": -0.2151333985,
				"z": -1.1622229635,
				"element": "H" 
			},
			{
				"x": 1.8807591808,
				"y": 0.9450946161,
				"z": 0.6661346757,
				"element": "H" 
			},
			{
				"x": 0.709781977,
				"y": 2.7471278662,
				"z": 1.8940587357,
				"element": "H" 
			},
			{
				"x": -0.7499634965,
				"y": -2.335758999,
				"z": -0.901532794,
				"element": "H" 
			},
			{
				"x": 2.5886127305,
				"y": -3.5636783389,
				"z": -2.9857883715,
				"element": "H" 
			},
			{
				"x": 2.6011107205,
				"y": 0.2940194463,
				"z": -1.5311505348,
				"element": "H" 
			}
		],
		 "valence_orbital": [ 
			{
				"type": "occ",
				"energy": -0.3109,
				"method": "rhf"
			},
			{
				"type": "occ",
				"energy": -0.27879,
				"method": "rhf"
			},
			{
				"type": "occ",
				"energy": -0.26449,
				"method": "rhf"
			},
			{
				"type": "occ",
				"energy": -0.26304,
				"method": "rhf"
			},
			{
				"type": "occ",
				"energy": -0.25537,
				"method": "rhf"
			},
			{
				"type": "unocc",
				"energy": -0.08269,
				"method": "rhf"
			},
			{
				"type": "unocc",
				"energy": -0.05186,
				"method": "rhf"
			},
			{
				"type": "unocc",
				"energy": -0.03255,
				"method": "rhf"
			},
			{
				"type": "unocc",
				"energy": -0.02768,
				"method": "rhf"
			},
			{
				"type": "unocc",
				"energy": 0.03282,
				"method": "rhf"
			}
		],
		"cosmo_sigma_profile": { 
			"-0.025": 0.0,
			"-0.024": 0.0,
			"-0.023": 0.0,
			"-0.022": 0.0,
			"-0.021": 0.0,
			"-0.02": 0.0,
			"-0.019": 0.0,
			"-0.018": 0.0,
			"-0.017": 0.0,
			"-0.016": 0.0,
			"-0.015": 0.0,
			"-0.014": 0.0,
			"-0.013": 0.0,
			"-0.012": 0.0,
			"-0.011": 0.0,
			"-0.01": 0.0,
			"-0.009": 0.0962277243023,
			"-0.008": 6.86929765173,
			"-0.007": 16.3665468614,
			"-0.006": 16.3713581223,
			"-0.005": 14.1833836609,
			"-0.004": 12.752484853,
			"-0.003": 13.5320777899,
			"-0.002": 15.3679261447,
			"-0.001": 22.7119312515,
			"0.0": 14.2707344737,
			"0.001": 13.9933084098,
			"0.002": 18.2711771029,
			"0.003": 12.3833846445,
			"0.004": 4.25635880647,
			"0.005": 3.72846110295,
			"0.006": 4.64288468273,
			"0.007": 3.8138159111,
			"0.008": 3.12105960898,
			"0.009": 3.89543073342,
			"0.01": 4.44289373487,
			"0.011": 6.07379211695,
			"0.012": 4.66381243951,
			"0.013": 2.4768009672,
			"0.014": 1.64112111136,
			"0.015": 1.30496625338,
			"0.016": 0.129895825411,
			"0.017": 0.0,
			"0.018": 0.0,
			"0.019": 0.0,
			"0.02": 0.0,
			"0.021": 0.0,
			"0.022": 0.0,
			"0.023": 0.0,
			"0.024": 0.0,
			"0.025": 0.0
		}
	}
}
