{
	 "smiles": "OC(=O)C1=C(OC(F)F)C=CC(Cl)=C1", 
	 "Tm": 383.15, 
	 "num_atms": 19, 
	 "gaussian": { 
		 "optdone": 1, 
		 "sigma_profile": "yes", 
		 "theory": "DFT", 
		 "functional": "B3LYP", 
		 "basiset": "6-31G**", 
		 "properties": { 
			 "R2extent": 4161.3668, 
			 "electric_dipole_moment_norm": 5.00286625046, 
			 "electric_quadrupole_moment_norm": 16.1122149787, 
			 "total_energy": -1193.40957237, 
			 "HOMO_LUMO_gap": 0.19659, 
			 "cosmo_polarized_energy": -13.44, 
			 "cosmo_cavitation_energy": 26.61, 
			 "cosmo_dispersion_energy": -19.48, 
			 "cosmo_repulsion_energy": 1.49, 
			 "cosmo_total_nonelectrostatic_energy": 8.62, 
			 "SMD_solvation_energy": 6.69 
		},
		"coords": [
			{
				"x": 2.1100125731,
				"y": -3.0827812627,
				"z": 0.3457606442,
				"element": "O" 
			},
			{
				"x": 2.1346766327,
				"y": -2.5610526815,
				"z": -0.8933009287,
				"element": "C" 
			},
			{
				"x": 2.5675757836,
				"y": -3.2009064197,
				"z": -1.824346768,
				"element": "O" 
			},
			{
				"x": 1.6122858995,
				"y": -1.1511407934,
				"z": -1.0849501616,
				"element": "C" 
			},
			{
				"x": 1.0243299436,
				"y": -0.3315450765,
				"z": -0.1064760623,
				"element": "C" 
			},
			{
				"x": 0.9456925303,
				"y": -0.8428567987,
				"z": 1.2004524518,
				"element": "O" 
			},
			{
				"x": -0.1523584493,
				"y": -0.5719593027,
				"z": 1.9980420685,
				"element": "C" 
			},
			{
				"x": -1.3029734602,
				"y": -0.7350008753,
				"z": 1.3140625841,
				"element": "F" 
			},
			{
				"x": -0.1239955733,
				"y": 0.709323474,
				"z": 2.4478830747,
				"element": "F" 
			},
			{
				"x": 0.5840917324,
				"y": 0.9568349581,
				"z": -0.4094648245,
				"element": "C" 
			},
			{
				"x": 0.7111588955,
				"y": 1.4429950874,
				"z": -1.7076015409,
				"element": "C" 
			},
			{
				"x": 1.2909666462,
				"y": 0.6385446414,
				"z": -2.6890697283,
				"element": "C" 
			},
			{
				"x": 1.4577017465,
				"y": 1.2525059384,
				"z": -4.3221785177,
				"element": "Cl" 
			},
			{
				"x": 1.7394273621,
				"y": -0.6394032111,
				"z": -2.38413564,
				"element": "C" 
			},
			{
				"x": 1.7375992758,
				"y": -2.4358102604,
				"z": 0.9691180106,
				"element": "H" 
			},
			{
				"x": -0.1107837003,
				"y": -1.2534367134,
				"z": 2.8504974786,
				"element": "H" 
			},
			{
				"x": 0.1514797105,
				"y": 1.5790835662,
				"z": 0.3620037918,
				"element": "H" 
			},
			{
				"x": 0.3686237469,
				"y": 2.4424172676,
				"z": -1.9508813976,
				"element": "H" 
			},
			{
				"x": 2.1908887044,
				"y": -1.2773115378,
				"z": -3.1344145346,
				"element": "H" 
			}
		],
		 "valence_orbital": [ 
			{
				"type": "occ",
				"energy": -0.32601,
				"method": "rhf"
			},
			{
				"type": "occ",
				"energy": -0.3176,
				"method": "rhf"
			},
			{
				"type": "occ",
				"energy": -0.28679,
				"method": "rhf"
			},
			{
				"type": "occ",
				"energy": -0.28037,
				"method": "rhf"
			},
			{
				"type": "occ",
				"energy": -0.26264,
				"method": "rhf"
			},
			{
				"type": "unocc",
				"energy": -0.06605,
				"method": "rhf"
			},
			{
				"type": "unocc",
				"energy": -0.03531,
				"method": "rhf"
			},
			{
				"type": "unocc",
				"energy": 0.01688,
				"method": "rhf"
			},
			{
				"type": "unocc",
				"energy": 0.04014,
				"method": "rhf"
			},
			{
				"type": "unocc",
				"energy": 0.07244,
				"method": "rhf"
			}
		],
		"cosmo_sigma_profile": { 
			"-0.025": 0.0,
			"-0.024": 0.0,
			"-0.023": 0.0,
			"-0.022": 0.0,
			"-0.021": 0.0,
			"-0.02": 0.0,
			"-0.019": 0.0,
			"-0.018": 0.0,
			"-0.017": 0.0,
			"-0.016": 0.0,
			"-0.015": 0.0,
			"-0.014": 0.221963397264,
			"-0.013": 1.22744592149,
			"-0.012": 3.94412928335,
			"-0.011": 3.73158237947,
			"-0.01": 2.69135080259,
			"-0.009": 3.54483772874,
			"-0.008": 6.49745781534,
			"-0.007": 6.32163801899,
			"-0.006": 5.85813441606,
			"-0.005": 7.68890622242,
			"-0.004": 8.55781792436,
			"-0.003": 10.0117328039,
			"-0.002": 11.3635319129,
			"-0.001": 17.0253224323,
			"0.0": 25.0475621131,
			"0.001": 22.6834781283,
			"0.002": 17.316055376,
			"0.003": 21.6814337464,
			"0.004": 12.4730613003,
			"0.005": 3.43156819755,
			"0.006": 1.64930270674,
			"0.007": 2.98836628239,
			"0.008": 2.78334252184,
			"0.009": 3.45792388298,
			"0.01": 4.27793165963,
			"0.011": 6.05763397061,
			"0.012": 3.17928963976,
			"0.013": 1.26252313918,
			"0.014": 0.0,
			"0.015": 0.0,
			"0.016": 0.0,
			"0.017": 0.0,
			"0.018": 0.0,
			"0.019": 0.0,
			"0.02": 0.0,
			"0.021": 0.0,
			"0.022": 0.0,
			"0.023": 0.0,
			"0.024": 0.0,
			"0.025": 0.0
		}
	}
}
