{
	 "smiles": "NS(=O)(=O)C1=C2C=CC=CC2=C(Cl)C=C1", 
	 "Tm": 455.15, 
	 "num_atms": 23, 
	 "gaussian": { 
		 "optdone": 1, 
		 "sigma_profile": "yes", 
		 "theory": "DFT", 
		 "functional": "B3LYP", 
		 "basiset": "6-31G**", 
		 "properties": { 
			 "R2extent": 4694.0608, 
			 "electric_dipole_moment_norm": 5.05942607318, 
			 "electric_quadrupole_moment_norm": 17.5441049475, 
			 "total_energy": -1449.40143101, 
			 "HOMO_LUMO_gap": 0.16611, 
			 "cosmo_polarized_energy": -17.04, 
			 "cosmo_cavitation_energy": 29.52, 
			 "cosmo_dispersion_energy": -22.66, 
			 "cosmo_repulsion_energy": 1.7, 
			 "cosmo_total_nonelectrostatic_energy": 8.55, 
			 "SMD_solvation_energy": 4.13 
		},
		"coords": [
			{
				"x": 0.1836561184,
				"y": 2.2900412785,
				"z": -0.3039921511,
				"element": "N" 
			},
			{
				"x": 0.1103242918,
				"y": 1.9235342401,
				"z": 1.3356728978,
				"element": "S" 
			},
			{
				"x": -1.056273667,
				"y": 2.6419567963,
				"z": 1.8448781067,
				"element": "O" 
			},
			{
				"x": 1.4545788604,
				"y": 2.1522119368,
				"z": 1.8642329972,
				"element": "O" 
			},
			{
				"x": -0.2663943719,
				"y": 0.1576820841,
				"z": 1.4370239681,
				"element": "C" 
			},
			{
				"x": 0.6568796105,
				"y": -0.850845686,
				"z": 1.0101422637,
				"element": "C" 
			},
			{
				"x": 1.97740935,
				"y": -0.5744622653,
				"z": 0.5566327972,
				"element": "C" 
			},
			{
				"x": 2.8070279252,
				"y": -1.5855517318,
				"z": 0.1252845736,
				"element": "C" 
			},
			{
				"x": 2.3679788314,
				"y": -2.9273259604,
				"z": 0.1311953684,
				"element": "C" 
			},
			{
				"x": 1.1071763031,
				"y": -3.2386097108,
				"z": 0.5854078719,
				"element": "C" 
			},
			{
				"x": 0.222359389,
				"y": -2.2243854417,
				"z": 1.0374388227,
				"element": "C" 
			},
			{
				"x": -1.0888280747,
				"y": -2.5061163041,
				"z": 1.5283947781,
				"element": "C" 
			},
			{
				"x": -1.6622004882,
				"y": -4.1651072171,
				"z": 1.5906371646,
				"element": "Cl" 
			},
			{
				"x": -1.9356267289,
				"y": -1.5148215251,
				"z": 1.9634562731,
				"element": "C" 
			},
			{
				"x": -1.5192970724,
				"y": -0.1686808206,
				"z": 1.9061223288,
				"element": "C" 
			},
			{
				"x": -0.7229922076,
				"y": 2.2080887915,
				"z": -0.7539409237,
				"element": "H" 
			},
			{
				"x": 0.9130534594,
				"y": 1.7817695621,
				"z": -0.7949996991,
				"element": "H" 
			},
			{
				"x": 2.3510326324,
				"y": 0.4413095138,
				"z": 0.6040099359,
				"element": "H" 
			},
			{
				"x": 3.8127593886,
				"y": -1.3482835301,
				"z": -0.2083826843,
				"element": "H" 
			},
			{
				"x": 3.0307369777,
				"y": -3.7162582357,
				"z": -0.2107653591,
				"element": "H" 
			},
			{
				"x": 0.7727960747,
				"y": -4.2688421434,
				"z": 0.6064556213,
				"element": "H" 
			},
			{
				"x": -2.9211083758,
				"y": -1.7649635429,
				"z": 2.3386964661,
				"element": "H" 
			},
			{
				"x": -2.1869482261,
				"y": 0.6214599117,
				"z": 2.2300985824,
				"element": "H" 
			}
		],
		 "valence_orbital": [ 
			{
				"type": "occ",
				"energy": -0.31128,
				"method": "rhf"
			},
			{
				"type": "occ",
				"energy": -0.30349,
				"method": "rhf"
			},
			{
				"type": "occ",
				"energy": -0.29105,
				"method": "rhf"
			},
			{
				"type": "occ",
				"energy": -0.2729,
				"method": "rhf"
			},
			{
				"type": "occ",
				"energy": -0.24186,
				"method": "rhf"
			},
			{
				"type": "unocc",
				"energy": -0.07575,
				"method": "rhf"
			},
			{
				"type": "unocc",
				"energy": -0.03859,
				"method": "rhf"
			},
			{
				"type": "unocc",
				"energy": -0.00567,
				"method": "rhf"
			},
			{
				"type": "unocc",
				"energy": 0.01632,
				"method": "rhf"
			},
			{
				"type": "unocc",
				"energy": 0.05115,
				"method": "rhf"
			}
		],
		"cosmo_sigma_profile": { 
			"-0.025": 0.0,
			"-0.024": 0.0,
			"-0.023": 0.0,
			"-0.022": 0.0,
			"-0.021": 0.0,
			"-0.02": 0.0,
			"-0.019": 0.0,
			"-0.018": 0.0,
			"-0.017": 0.0,
			"-0.016": 0.347081749084,
			"-0.015": 1.51751963128,
			"-0.014": 2.52413569151,
			"-0.013": 2.58424187722,
			"-0.012": 2.88969842297,
			"-0.011": 2.28535602911,
			"-0.01": 2.16820358046,
			"-0.009": 2.51040079019,
			"-0.008": 4.5296783719,
			"-0.007": 9.18001346775,
			"-0.006": 10.5269704565,
			"-0.005": 11.9126244443,
			"-0.004": 10.1008673367,
			"-0.003": 10.2284374744,
			"-0.002": 11.729242303,
			"-0.001": 14.8924155224,
			"0.0": 23.8311832046,
			"0.001": 25.9035110434,
			"0.002": 19.1447926291,
			"0.003": 18.1651886901,
			"0.004": 11.6789671259,
			"0.005": 3.93041013697,
			"0.006": 3.33706574019,
			"0.007": 3.3146256638,
			"0.008": 4.66226965551,
			"0.009": 5.57421331878,
			"0.01": 8.53320474441,
			"0.011": 9.02262959195,
			"0.012": 2.54557313565,
			"0.013": 0.0864379879472,
			"0.014": 0.0,
			"0.015": 0.0,
			"0.016": 0.0,
			"0.017": 0.0,
			"0.018": 0.0,
			"0.019": 0.0,
			"0.02": 0.0,
			"0.021": 0.0,
			"0.022": 0.0,
			"0.023": 0.0,
			"0.024": 0.0,
			"0.025": 0.0
		}
	}
}
