{
	 "smiles": "CCOC(=O)C1=CC=CC=C1[N+]([O-])=O", 
	 "Tm": 302.15, 
	 "num_atms": 23, 
	 "gaussian": { 
		 "optdone": 1, 
		 "sigma_profile": "yes", 
		 "theory": "DFT", 
		 "functional": "B3LYP", 
		 "basiset": "6-31G**", 
		 "properties": { 
			 "R2extent": 3436.3614, 
			 "electric_dipole_moment_norm": 3.61174624524, 
			 "electric_quadrupole_moment_norm": 23.2372941101, 
			 "total_energy": -703.934349502, 
			 "HOMO_LUMO_gap": 0.18264, 
			 "cosmo_polarized_energy": -11.36, 
			 "cosmo_cavitation_energy": 28.35, 
			 "cosmo_dispersion_energy": -19.98, 
			 "cosmo_repulsion_energy": 1.59, 
			 "cosmo_total_nonelectrostatic_energy": 9.97, 
			 "SMD_solvation_energy": 8.13 
		},
		"coords": [
			{
				"x": 0.4828294439,
				"y": 2.8505353892,
				"z": -1.4142220776,
				"element": "C" 
			},
			{
				"x": -0.8915105514,
				"y": 2.4403401812,
				"z": -0.9093896762,
				"element": "C" 
			},
			{
				"x": -0.9725645018,
				"y": 1.0040212327,
				"z": -0.7148240011,
				"element": "O" 
			},
			{
				"x": -0.5858009918,
				"y": 0.5361193025,
				"z": 0.4817974734,
				"element": "C" 
			},
			{
				"x": -0.0664462182,
				"y": 1.1949789643,
				"z": 1.3575658027,
				"element": "O" 
			},
			{
				"x": -0.7714504143,
				"y": -0.9525614692,
				"z": 0.5805124296,
				"element": "C" 
			},
			{
				"x": 0.3066454427,
				"y": -1.6946389503,
				"z": 1.0736174857,
				"element": "C" 
			},
			{
				"x": 0.2543681424,
				"y": -3.0874600222,
				"z": 1.1296414348,
				"element": "C" 
			},
			{
				"x": -0.8839711762,
				"y": -3.7640618903,
				"z": 0.6889882794,
				"element": "C" 
			},
			{
				"x": -1.9772782178,
				"y": -3.0445478513,
				"z": 0.2098453588,
				"element": "C" 
			},
			{
				"x": -1.9155430197,
				"y": -1.6539131619,
				"z": 0.1745032541,
				"element": "C" 
			},
			{
				"x": -3.144552405,
				"y": -0.9433990956,
				"z": -0.2212569928,
				"element": "N" 
			},
			{
				"x": -3.3810777572,
				"y": 0.1290008344,
				"z": 0.3296646206,
				"element": "O" 
			},
			{
				"x": -3.873966422,
				"y": -1.494651998,
				"z": -1.0437858126,
				"element": "O" 
			},
			{
				"x": 0.4912377478,
				"y": 3.9240642331,
				"z": -1.6301178036,
				"element": "H" 
			},
			{
				"x": 1.2469056754,
				"y": 2.6468026065,
				"z": -0.6601735786,
				"element": "H" 
			},
			{
				"x": 0.7372037424,
				"y": 2.3143121012,
				"z": -2.3331956035,
				"element": "H" 
			},
			{
				"x": -1.6727012392,
				"y": 2.6541310617,
				"z": -1.6418261011,
				"element": "H" 
			},
			{
				"x": -1.1335731893,
				"y": 2.9336894401,
				"z": 0.034364687,
				"element": "H" 
			},
			{
				"x": 1.1893095265,
				"y": -1.1578967688,
				"z": 1.4043603466,
				"element": "H" 
			},
			{
				"x": 1.1042748559,
				"y": -3.6427834778,
				"z": 1.5139265286,
				"element": "H" 
			},
			{
				"x": -0.9294484767,
				"y": -4.8476713648,
				"z": 0.7287506221,
				"element": "H" 
			},
			{
				"x": -2.8838899963,
				"y": -3.5368092967,
				"z": -0.1205466762,
				"element": "H" 
			}
		],
		 "valence_orbital": [ 
			{
				"type": "occ",
				"energy": -0.30694,
				"method": "rhf"
			},
			{
				"type": "occ",
				"energy": -0.29999,
				"method": "rhf"
			},
			{
				"type": "occ",
				"energy": -0.29356,
				"method": "rhf"
			},
			{
				"type": "occ",
				"energy": -0.27953,
				"method": "rhf"
			},
			{
				"type": "occ",
				"energy": -0.27308,
				"method": "rhf"
			},
			{
				"type": "unocc",
				"energy": -0.09044,
				"method": "rhf"
			},
			{
				"type": "unocc",
				"energy": -0.04754,
				"method": "rhf"
			},
			{
				"type": "unocc",
				"energy": -0.0179,
				"method": "rhf"
			},
			{
				"type": "unocc",
				"energy": 0.02625,
				"method": "rhf"
			},
			{
				"type": "unocc",
				"energy": 0.07339,
				"method": "rhf"
			}
		],
		"cosmo_sigma_profile": { 
			"-0.025": 0.0,
			"-0.024": 0.0,
			"-0.023": 0.0,
			"-0.022": 0.0,
			"-0.021": 0.0,
			"-0.02": 0.0,
			"-0.019": 0.0,
			"-0.018": 0.0,
			"-0.017": 0.0,
			"-0.016": 0.0,
			"-0.015": 0.0,
			"-0.014": 0.0,
			"-0.013": 0.0,
			"-0.012": 0.0,
			"-0.011": 0.0,
			"-0.01": 0.0,
			"-0.009": 0.192689702469,
			"-0.008": 5.67829116953,
			"-0.007": 9.57986268473,
			"-0.006": 13.8508934511,
			"-0.005": 12.520270147,
			"-0.004": 17.6305272749,
			"-0.003": 18.244701531,
			"-0.002": 16.7369146399,
			"-0.001": 18.9726816441,
			"0.0": 23.9123792581,
			"0.001": 19.1391864977,
			"0.002": 10.2250824238,
			"0.003": 8.0209119785,
			"0.004": 6.23362410611,
			"0.005": 6.39364526651,
			"0.006": 6.87120496344,
			"0.007": 10.4035080751,
			"0.008": 7.38042494433,
			"0.009": 5.36330356831,
			"0.01": 3.20423636983,
			"0.011": 3.9820410799,
			"0.012": 1.65858448653,
			"0.013": 0.0140180030978,
			"0.014": 0.0,
			"0.015": 0.0,
			"0.016": 0.0,
			"0.017": 0.0,
			"0.018": 0.0,
			"0.019": 0.0,
			"0.02": 0.0,
			"0.021": 0.0,
			"0.022": 0.0,
			"0.023": 0.0,
			"0.024": 0.0,
			"0.025": 0.0
		}
	}
}
