{
	 "smiles": "CC(=C/C(O)=O)C1CCCCC1", 
	 "Tm": 358.65, 
	 "num_atms": 28, 
	 "gaussian": { 
		 "optdone": 1, 
		 "sigma_profile": "yes", 
		 "theory": "DFT", 
		 "functional": "B3LYP", 
		 "basiset": "6-31G**", 
		 "properties": { 
			 "R2extent": 2720.6861, 
			 "electric_dipole_moment_norm": 1.92303181721, 
			 "electric_quadrupole_moment_norm": 4.8848974544, 
			 "total_energy": -541.165236922, 
			 "HOMO_LUMO_gap": 0.21832, 
			 "cosmo_polarized_energy": -7.95, 
			 "cosmo_cavitation_energy": 28.31, 
			 "cosmo_dispersion_energy": -20.61, 
			 "cosmo_repulsion_energy": 1.65, 
			 "cosmo_total_nonelectrostatic_energy": 9.35, 
			 "SMD_solvation_energy": 5.36 
		},
		"coords": [
			{
				"x": -1.0939029151,
				"y": -1.5196354712,
				"z": 0.0304750322,
				"element": "C" 
			},
			{
				"x": -0.4245765814,
				"y": -0.1958579687,
				"z": 0.3185609744,
				"element": "C" 
			},
			{
				"x": -0.8875102269,
				"y": 0.6736941723,
				"z": 1.2417631562,
				"element": "C" 
			},
			{
				"x": -2.0817897726,
				"y": 0.4855384135,
				"z": 2.0830138957,
				"element": "C" 
			},
			{
				"x": -2.2862872419,
				"y": 1.5814498663,
				"z": 2.8678024866,
				"element": "O" 
			},
			{
				"x": -2.8321752357,
				"y": -0.4742100826,
				"z": 2.1368814972,
				"element": "O" 
			},
			{
				"x": 0.8232646395,
				"y": 0.0719376778,
				"z": -0.5207050199,
				"element": "C" 
			},
			{
				"x": 1.4446789826,
				"y": 1.4964382253,
				"z": -0.4627311073,
				"element": "C" 
			},
			{
				"x": 2.7079717299,
				"y": 1.5965739068,
				"z": 0.426949208,
				"element": "C" 
			},
			{
				"x": 2.6397665007,
				"y": 0.6634955482,
				"z": 1.6435578986,
				"element": "C" 
			},
			{
				"x": 2.5006839132,
				"y": -0.8200875701,
				"z": 1.2146436611,
				"element": "C" 
			},
			{
				"x": 1.9285665989,
				"y": -0.9729189548,
				"z": -0.2098419868,
				"element": "C" 
			},
			{
				"x": -0.9275715595,
				"y": -1.8184112348,
				"z": -1.0095413672,
				"element": "H" 
			},
			{
				"x": -2.1605568378,
				"y": -1.4869941368,
				"z": 0.2458846345,
				"element": "H" 
			},
			{
				"x": -0.6707866501,
				"y": -2.3081004346,
				"z": 0.6656398842,
				"element": "H" 
			},
			{
				"x": -0.3768949141,
				"y": 1.6126545505,
				"z": 1.4158005487,
				"element": "H" 
			},
			{
				"x": -3.0812970512,
				"y": 1.381705253,
				"z": 3.3888509715,
				"element": "H" 
			},
			{
				"x": 0.5008857145,
				"y": -0.110777556,
				"z": -1.5557361956,
				"element": "H" 
			},
			{
				"x": 0.6951007053,
				"y": 2.2239982629,
				"z": -0.1383373885,
				"element": "H" 
			},
			{
				"x": 1.7118188873,
				"y": 1.7914981058,
				"z": -1.4837394402,
				"element": "H" 
			},
			{
				"x": 3.5952582026,
				"y": 1.3406693002,
				"z": -0.1665573694,
				"element": "H" 
			},
			{
				"x": 2.8508812074,
				"y": 2.6343677108,
				"z": 0.7485088343,
				"element": "H" 
			},
			{
				"x": 1.7840068366,
				"y": 0.9497398086,
				"z": 2.2646100923,
				"element": "H" 
			},
			{
				"x": 3.5288259096,
				"y": 0.7946837428,
				"z": 2.270342257,
				"element": "H" 
			},
			{
				"x": 3.47614096,
				"y": -1.3191390776,
				"z": 1.252201476,
				"element": "H" 
			},
			{
				"x": 1.8602588779,
				"y": -1.3481743973,
				"z": 1.9301501612,
				"element": "H" 
			},
			{
				"x": 1.5575559051,
				"y": -1.9912976203,
				"z": -0.3621560917,
				"element": "H" 
			},
			{
				"x": 2.7276834153,
				"y": -0.8290400402,
				"z": -0.9470907032,
				"element": "H" 
			}
		],
		 "valence_orbital": [ 
			{
				"type": "occ",
				"energy": -0.30481,
				"method": "rhf"
			},
			{
				"type": "occ",
				"energy": -0.30384,
				"method": "rhf"
			},
			{
				"type": "occ",
				"energy": -0.30144,
				"method": "rhf"
			},
			{
				"type": "occ",
				"energy": -0.26297,
				"method": "rhf"
			},
			{
				"type": "occ",
				"energy": -0.25478,
				"method": "rhf"
			},
			{
				"type": "unocc",
				"energy": -0.03646,
				"method": "rhf"
			},
			{
				"type": "unocc",
				"energy": 0.06942,
				"method": "rhf"
			},
			{
				"type": "unocc",
				"energy": 0.08556,
				"method": "rhf"
			},
			{
				"type": "unocc",
				"energy": 0.09187,
				"method": "rhf"
			},
			{
				"type": "unocc",
				"energy": 0.10357,
				"method": "rhf"
			}
		],
		"cosmo_sigma_profile": { 
			"-0.025": 0.0,
			"-0.024": 0.0,
			"-0.023": 0.0,
			"-0.022": 0.0,
			"-0.021": 0.0,
			"-0.02": 0.0,
			"-0.019": 0.0,
			"-0.018": 0.0003414464941,
			"-0.017": 1.03573748206,
			"-0.016": 0.590544657094,
			"-0.015": 0.652411801605,
			"-0.014": 1.28654879654,
			"-0.013": 0.38316953931,
			"-0.012": 0.630508672835,
			"-0.011": 0.544589206067,
			"-0.01": 0.881357321496,
			"-0.009": 1.00952474498,
			"-0.008": 0.340217140433,
			"-0.007": 0.391433579071,
			"-0.006": 1.2041485536,
			"-0.005": 3.7052524359,
			"-0.004": 10.4754251653,
			"-0.003": 16.6118217286,
			"-0.002": 34.0824538774,
			"-0.001": 33.3803627,
			"0.0": 35.62052255,
			"0.001": 30.2459702566,
			"0.002": 11.9738506236,
			"0.003": 5.23187796753,
			"0.004": 3.26813563626,
			"0.005": 2.49706699476,
			"0.006": 2.72868550958,
			"0.007": 2.82828319246,
			"0.008": 3.27444619852,
			"0.009": 3.37013746366,
			"0.01": 3.0651441062,
			"0.011": 2.44720039899,
			"0.012": 3.85922784551,
			"0.013": 1.7691046325,
			"0.014": 0.0,
			"0.015": 0.0,
			"0.016": 0.0,
			"0.017": 0.0,
			"0.018": 0.0,
			"0.019": 0.0,
			"0.02": 0.0,
			"0.021": 0.0,
			"0.022": 0.0,
			"0.023": 0.0,
			"0.024": 0.0,
			"0.025": 0.0
		}
	}
}
