{
	 "smiles": "CC12CCC3C(CCC4=CC(=O)C=CC34C)C1CCC2O", 
	 "Tm": 438.15, 
	 "num_atms": 47, 
	 "gaussian": { 
		 "optdone": 1, 
		 "sigma_profile": "yes", 
		 "theory": "DFT", 
		 "functional": "B3LYP", 
		 "basiset": "6-31G**", 
		 "properties": { 
			 "R2extent": 6910.7307, 
			 "electric_dipole_moment_norm": 6.62821354288, 
			 "electric_quadrupole_moment_norm": 28.2967944158, 
			 "total_energy": -890.129406059, 
			 "HOMO_LUMO_gap": 0.17781, 
			 "cosmo_polarized_energy": -15.32, 
			 "cosmo_cavitation_energy": 41.89, 
			 "cosmo_dispersion_energy": -29.64, 
			 "cosmo_repulsion_energy": 2.19, 
			 "cosmo_total_nonelectrostatic_energy": 14.45, 
			 "SMD_solvation_energy": 6.66 
		},
		"coords": [
			{
				"x": -1.6309369388,
				"y": -0.5824842866,
				"z": -2.4038332662,
				"element": "C" 
			},
			{
				"x": -0.3986363739,
				"y": 0.2876207163,
				"z": -2.0686998062,
				"element": "C" 
			},
			{
				"x": 0.8345513209,
				"y": -0.598723925,
				"z": -1.8391428845,
				"element": "C" 
			},
			{
				"x": 0.7115347704,
				"y": -1.4022975952,
				"z": -0.5269374636,
				"element": "C" 
			},
			{
				"x": 0.4266080536,
				"y": -0.5154793421,
				"z": 0.7084194535,
				"element": "C" 
			},
			{
				"x": -0.8088849964,
				"y": 0.4069260233,
				"z": 0.4824957465,
				"element": "C" 
			},
			{
				"x": -1.0303654647,
				"y": 1.3426636633,
				"z": 1.6803314167,
				"element": "C" 
			},
			{
				"x": -1.136261784,
				"y": 0.5638964315,
				"z": 3.0043921219,
				"element": "C" 
			},
			{
				"x": 0.0703777465,
				"y": -0.3193682582,
				"z": 3.1857976364,
				"element": "C" 
			},
			{
				"x": 0.8940670559,
				"y": -0.1695122506,
				"z": 4.2412622761,
				"element": "C" 
			},
			{
				"x": 2.1283707587,
				"y": -0.9509578278,
				"z": 4.4271337046,
				"element": "C" 
			},
			{
				"x": 2.8603503515,
				"y": -0.8017703608,
				"z": 5.4037704561,
				"element": "O" 
			},
			{
				"x": 2.4321947953,
				"y": -1.9251902931,
				"z": 3.3594509995,
				"element": "C" 
			},
			{
				"x": 1.6254041462,
				"y": -2.0840561438,
				"z": 2.3008838192,
				"element": "C" 
			},
			{
				"x": 0.3399428049,
				"y": -1.324249973,
				"z": 2.0723333811,
				"element": "C" 
			},
			{
				"x": -0.8004359381,
				"y": -2.3858028202,
				"z": 2.0489291689,
				"element": "C" 
			},
			{
				"x": -0.5976722678,
				"y": 1.1882001817,
				"z": -0.8211064502,
				"element": "C" 
			},
			{
				"x": -1.6497784647,
				"y": 2.2194152967,
				"z": -1.271992755,
				"element": "C" 
			},
			{
				"x": -1.3477852825,
				"y": 2.422146094,
				"z": -2.7883829612,
				"element": "C" 
			},
			{
				"x": -0.2713985907,
				"y": 1.363995137,
				"z": -3.1741694782,
				"element": "C" 
			},
			{
				"x": 1.0474614015,
				"y": 1.9088290368,
				"z": -3.1187083777,
				"element": "O" 
			},
			{
				"x": -1.4372791726,
				"y": -1.1631528302,
				"z": -3.3127902294,
				"element": "H" 
			},
			{
				"x": -1.8689128138,
				"y": -1.2934019404,
				"z": -1.6091808813,
				"element": "H" 
			},
			{
				"x": -2.5307475859,
				"y": 0.0131060435,
				"z": -2.5829121655,
				"element": "H" 
			},
			{
				"x": 0.9804493284,
				"y": -1.2927220531,
				"z": -2.6771245636,
				"element": "H" 
			},
			{
				"x": 1.7236559675,
				"y": 0.0378647481,
				"z": -1.7996486745,
				"element": "H" 
			},
			{
				"x": 1.6440177222,
				"y": -1.9559287275,
				"z": -0.3791292946,
				"element": "H" 
			},
			{
				"x": -0.0769936813,
				"y": -2.1567948913,
				"z": -0.631678105,
				"element": "H" 
			},
			{
				"x": 1.2911025904,
				"y": 0.1548312665,
				"z": 0.829047299,
				"element": "H" 
			},
			{
				"x": -1.706864066,
				"y": -0.2192640896,
				"z": 0.37659782,
				"element": "H" 
			},
			{
				"x": -0.1910506441,
				"y": 2.0485725572,
				"z": 1.7473351077,
				"element": "H" 
			},
			{
				"x": -1.9363161818,
				"y": 1.9408813624,
				"z": 1.5306077561,
				"element": "H" 
			},
			{
				"x": -1.2261875693,
				"y": 1.2515976977,
				"z": 3.8511986543,
				"element": "H" 
			},
			{
				"x": -2.0529407485,
				"y": -0.0417359051,
				"z": 2.9890357855,
				"element": "H" 
			},
			{
				"x": 0.6818230794,
				"y": 0.5638681378,
				"z": 5.0157462509,
				"element": "H" 
			},
			{
				"x": 3.3376179344,
				"y": -2.5123503919,
				"z": 3.4854567101,
				"element": "H" 
			},
			{
				"x": 1.8721885275,
				"y": -2.8363963328,
				"z": 1.5552799846,
				"element": "H" 
			},
			{
				"x": -0.887687903,
				"y": -2.8594621307,
				"z": 3.0309037859,
				"element": "H" 
			},
			{
				"x": -1.7684662754,
				"y": -1.946613353,
				"z": 1.7963578011,
				"element": "H" 
			},
			{
				"x": -0.5875107126,
				"y": -3.1706192401,
				"z": 1.3179517515,
				"element": "H" 
			},
			{
				"x": 0.3482300325,
				"y": 1.7378578688,
				"z": -0.7104010342,
				"element": "H" 
			},
			{
				"x": -1.5837174383,
				"y": 3.155705418,
				"z": -0.7108156429,
				"element": "H" 
			},
			{
				"x": -2.6662684824,
				"y": 1.8350843838,
				"z": -1.1262629416,
				"element": "H" 
			},
			{
				"x": -2.2506481841,
				"y": 2.3028377972,
				"z": -3.3957364454,
				"element": "H" 
			},
			{
				"x": -0.962375351,
				"y": 3.4267032352,
				"z": -2.9941562956,
				"element": "H" 
			},
			{
				"x": -0.4567566447,
				"y": 0.9411078466,
				"z": -4.1735543914,
				"element": "H" 
			},
			{
				"x": 1.0899311688,
				"y": 2.6455240188,
				"z": -3.7408547792,
				"element": "H" 
			}
		],
		 "valence_orbital": [ 
			{
				"type": "occ",
				"energy": -0.28201,
				"method": "rhf"
			},
			{
				"type": "occ",
				"energy": -0.26577,
				"method": "rhf"
			},
			{
				"type": "occ",
				"energy": -0.26318,
				"method": "rhf"
			},
			{
				"type": "occ",
				"energy": -0.24923,
				"method": "rhf"
			},
			{
				"type": "occ",
				"energy": -0.22702,
				"method": "rhf"
			},
			{
				"type": "unocc",
				"energy": -0.04921,
				"method": "rhf"
			},
			{
				"type": "unocc",
				"energy": 0.00479,
				"method": "rhf"
			},
			{
				"type": "unocc",
				"energy": 0.06845,
				"method": "rhf"
			},
			{
				"type": "unocc",
				"energy": 0.07119,
				"method": "rhf"
			},
			{
				"type": "unocc",
				"energy": 0.08705,
				"method": "rhf"
			}
		],
		"cosmo_sigma_profile": { 
			"-0.025": 0.0,
			"-0.024": 0.0,
			"-0.023": 0.0,
			"-0.022": 0.0,
			"-0.021": 0.0,
			"-0.02": 0.0,
			"-0.019": 0.0,
			"-0.018": 0.0,
			"-0.017": 0.0,
			"-0.016": 0.0,
			"-0.015": 0.700925211856,
			"-0.014": 0.877593732649,
			"-0.013": 0.813918944085,
			"-0.012": 0.874060068736,
			"-0.011": 1.10944446843,
			"-0.01": 0.835434895994,
			"-0.009": 0.860470110306,
			"-0.008": 0.658782171087,
			"-0.007": 1.33712922932,
			"-0.006": 4.65221743965,
			"-0.005": 11.0853154884,
			"-0.004": 19.8287979165,
			"-0.003": 32.6722424187,
			"-0.002": 49.1617034722,
			"-0.001": 54.4410085172,
			"0.0": 42.4715627081,
			"0.001": 30.8684440224,
			"0.002": 17.8123835453,
			"0.003": 8.69531088986,
			"0.004": 4.98508239148,
			"0.005": 3.85825296541,
			"0.006": 2.99369681974,
			"0.007": 3.1813700836,
			"0.008": 3.83260466538,
			"0.009": 2.62154691105,
			"0.01": 2.52117519848,
			"0.011": 3.04586075082,
			"0.012": 5.050825179,
			"0.013": 5.13169309334,
			"0.014": 4.288623668,
			"0.015": 1.86991210538,
			"0.016": 0.0460648805811,
			"0.017": 0.0,
			"0.018": 0.0,
			"0.019": 0.0,
			"0.02": 0.0,
			"0.021": 0.0,
			"0.022": 0.0,
			"0.023": 0.0,
			"0.024": 0.0,
			"0.025": 0.0
		}
	}
}
