{
	 "smiles": "N#CC1=CN=C2C=CC=CN12", 
	 "Tm": 428.15, 
	 "num_atms": 16, 
	 "gaussian": { 
		 "optdone": 1, 
		 "sigma_profile": "yes", 
		 "theory": "DFT", 
		 "functional": "B3LYP", 
		 "basiset": "6-31G**", 
		 "properties": { 
			 "R2extent": 2049.428, 
			 "electric_dipole_moment_norm": 4.25281338763, 
			 "electric_quadrupole_moment_norm": 11.513741365, 
			 "total_energy": -472.092945939, 
			 "HOMO_LUMO_gap": 0.1761, 
			 "cosmo_polarized_energy": -11.69, 
			 "cosmo_cavitation_energy": 21.66, 
			 "cosmo_dispersion_energy": -15.65, 
			 "cosmo_repulsion_energy": 1.23, 
			 "cosmo_total_nonelectrostatic_energy": 7.23, 
			 "SMD_solvation_energy": 3.69 
		},
		"coords": [
			{
				"x": 1.2058739892,
				"y": -2.2523553343,
				"z": 2.3382776448,
				"element": "N" 
			},
			{
				"x": 1.4199385028,
				"y": -1.6721039195,
				"z": 1.3496273494,
				"element": "C" 
			},
			{
				"x": 1.6675443414,
				"y": -0.9511431193,
				"z": 0.1655476797,
				"element": "C" 
			},
			{
				"x": 2.2885769432,
				"y": -1.2978230221,
				"z": -1.0352292522,
				"element": "C" 
			},
			{
				"x": 2.3041077324,
				"y": -0.2744954531,
				"z": -1.9124860089,
				"element": "N" 
			},
			{
				"x": 1.6942478109,
				"y": 0.7425216396,
				"z": -1.2889649761,
				"element": "C" 
			},
			{
				"x": 1.4255913473,
				"y": 2.057477326,
				"z": -1.7260605015,
				"element": "C" 
			},
			{
				"x": 0.774422403,
				"y": 2.9284916033,
				"z": -0.8838360331,
				"element": "C" 
			},
			{
				"x": 0.373913937,
				"y": 2.5120284668,
				"z": 0.4158684372,
				"element": "C" 
			},
			{
				"x": 0.6317657631,
				"y": 1.238941293,
				"z": 0.8444726333,
				"element": "C" 
			},
			{
				"x": 1.2813763305,
				"y": 0.3762603328,
				"z": -0.000733607,
				"element": "N" 
			},
			{
				"x": 2.7182667786,
				"y": -2.2625528519,
				"z": -1.2708839253,
				"element": "H" 
			},
			{
				"x": 1.7457974314,
				"y": 2.3382330483,
				"z": -2.7223312515,
				"element": "H" 
			},
			{
				"x": 0.5621835366,
				"y": 3.9418053148,
				"z": -1.2081422168,
				"element": "H" 
			},
			{
				"x": -0.1392712224,
				"y": 3.1956599913,
				"z": 1.0818406672,
				"element": "H" 
			},
			{
				"x": 0.358764375,
				"y": 0.8489546846,
				"z": 1.8174333608,
				"element": "H" 
			}
		],
		 "valence_orbital": [ 
			{
				"type": "occ",
				"energy": -0.34723,
				"method": "rhf"
			},
			{
				"type": "occ",
				"energy": -0.3325,
				"method": "rhf"
			},
			{
				"type": "occ",
				"energy": -0.291,
				"method": "rhf"
			},
			{
				"type": "occ",
				"energy": -0.26885,
				"method": "rhf"
			},
			{
				"type": "occ",
				"energy": -0.23194,
				"method": "rhf"
			},
			{
				"type": "unocc",
				"energy": -0.05584,
				"method": "rhf"
			},
			{
				"type": "unocc",
				"energy": -0.04011,
				"method": "rhf"
			},
			{
				"type": "unocc",
				"energy": 0.00866,
				"method": "rhf"
			},
			{
				"type": "unocc",
				"energy": 0.01516,
				"method": "rhf"
			},
			{
				"type": "unocc",
				"energy": 0.0794,
				"method": "rhf"
			}
		],
		"cosmo_sigma_profile": { 
			"-0.025": 0.0,
			"-0.024": 0.0,
			"-0.023": 0.0,
			"-0.022": 0.0,
			"-0.021": 0.0,
			"-0.02": 0.0,
			"-0.019": 0.0,
			"-0.018": 0.0,
			"-0.017": 0.0,
			"-0.016": 0.0,
			"-0.015": 0.0,
			"-0.014": 0.0,
			"-0.013": 0.0,
			"-0.012": 0.0,
			"-0.011": 0.0132390787379,
			"-0.01": 0.936339875015,
			"-0.009": 3.39034549336,
			"-0.008": 8.44225876921,
			"-0.007": 11.7582190714,
			"-0.006": 11.8370194576,
			"-0.005": 8.78885864494,
			"-0.004": 7.93494810046,
			"-0.003": 12.7285646012,
			"-0.002": 12.2061682474,
			"-0.001": 13.2084897444,
			"0.0": 14.0481815794,
			"0.001": 14.2923915544,
			"0.002": 12.181112267,
			"0.003": 4.27305524882,
			"0.004": 3.96013170184,
			"0.005": 3.63282743495,
			"0.006": 3.31291140225,
			"0.007": 4.48219561183,
			"0.008": 4.18648353106,
			"0.009": 4.46244903334,
			"0.01": 4.01656774998,
			"0.011": 4.02961336786,
			"0.012": 3.69202943353,
			"0.013": 1.90402271801,
			"0.014": 0.90117661051,
			"0.015": 1.17124282531,
			"0.016": 0.867379990985,
			"0.017": 0.0946503442598,
			"0.018": 0.0,
			"0.019": 0.0,
			"0.02": 0.0,
			"0.021": 0.0,
			"0.022": 0.0,
			"0.023": 0.0,
			"0.024": 0.0,
			"0.025": 0.0
		}
	}
}
