{
	 "smiles": "CC(=O)C1=CC=C(NC(=O)CI)C=C1", 
	 "Tm": 413.15, 
	 "num_atms": 24, 
	 "gaussian": { 
		 "optdone": 1, 
		 "sigma_profile": "yes", 
		 "theory": "DFT", 
		 "functional": "B3LYP", 
		 "basiset": "6-31G**", 
		 "properties": { 
			 "R2extent": 4298.6226, 
			 "electric_dipole_moment_norm": 1.74967046326, 
			 "electric_quadrupole_moment_norm": 21.9849591585, 
			 "total_energy": -603.693812377, 
			 "HOMO_LUMO_gap": 0.16642, 
			 "cosmo_polarized_energy": -16.66, 
			 "cosmo_cavitation_energy": 31.63, 
			 "cosmo_dispersion_energy": -23.91, 
			 "cosmo_repulsion_energy": 1.85, 
			 "cosmo_total_nonelectrostatic_energy": 9.58, 
			 "SMD_solvation_energy": 5.86 
		},
		"coords": [
			{
				"x": 0.5692431874,
				"y": 1.7229963871,
				"z": 3.0807245348,
				"element": "C" 
			},
			{
				"x": 1.5098922966,
				"y": 1.6674095157,
				"z": 1.8890093384,
				"element": "C" 
			},
			{
				"x": 2.680980883,
				"y": 1.9979472929,
				"z": 2.0032400634,
				"element": "O" 
			},
			{
				"x": 0.9786813501,
				"y": 1.1995931986,
				"z": 0.5692102125,
				"element": "C" 
			},
			{
				"x": -0.354253011,
				"y": 0.8166941779,
				"z": 0.3686386954,
				"element": "C" 
			},
			{
				"x": -0.8042818126,
				"y": 0.3962457568,
				"z": -0.8814057927,
				"element": "C" 
			},
			{
				"x": 0.0908692096,
				"y": 0.3218664432,
				"z": -1.9584211249,
				"element": "C" 
			},
			{
				"x": -0.2984837478,
				"y": -0.0803238239,
				"z": -3.2531298903,
				"element": "N" 
			},
			{
				"x": -1.1327767127,
				"y": -1.0810154499,
				"z": -3.7236976223,
				"element": "C" 
			},
			{
				"x": -1.2533457164,
				"y": -1.2552821313,
				"z": -4.9252807685,
				"element": "O" 
			},
			{
				"x": -1.8188562867,
				"y": -1.9942255271,
				"z": -2.7249145968,
				"element": "C" 
			},
			{
				"x": -3.9202947712,
				"y": -1.4758632929,
				"z": -2.4520863213,
				"element": "I" 
			},
			{
				"x": 1.4278366318,
				"y": 0.7172478965,
				"z": -1.7669067372,
				"element": "C" 
			},
			{
				"x": 1.8598045741,
				"y": 1.1521052607,
				"z": -0.5239835138,
				"element": "C" 
			},
			{
				"x": 1.1262263762,
				"y": 2.0788512022,
				"z": 3.947712145,
				"element": "H" 
			},
			{
				"x": 0.1497346579,
				"y": 0.7346789157,
				"z": 3.2989396404,
				"element": "H" 
			},
			{
				"x": -0.2710302785,
				"y": 2.3991343078,
				"z": 2.8872568542,
				"element": "H" 
			},
			{
				"x": -1.0676598005,
				"y": 0.8645867429,
				"z": 1.1849185141,
				"element": "H" 
			},
			{
				"x": -1.8537175839,
				"y": 0.1660855958,
				"z": -1.023421567,
				"element": "H" 
			},
			{
				"x": 0.214653133,
				"y": 0.3388723231,
				"z": -4.0203297315,
				"element": "H" 
			},
			{
				"x": -1.8400680282,
				"y": -2.9941084017,
				"z": -3.1515047199,
				"element": "H" 
			},
			{
				"x": -1.375399831,
				"y": -1.997462076,
				"z": -1.7320151704,
				"element": "H" 
			},
			{
				"x": 2.1231647908,
				"y": 0.6654844981,
				"z": -2.6005282713,
				"element": "H" 
			},
			{
				"x": 2.8893804902,
				"y": 1.4544811876,
				"z": -0.3648241703,
				"element": "H" 
			}
		],
		 "valence_orbital": [ 
			{
				"type": "occ",
				"energy": -0.27736,
				"method": "rhf"
			},
			{
				"type": "occ",
				"energy": -0.27372,
				"method": "rhf"
			},
			{
				"type": "occ",
				"energy": -0.26849,
				"method": "rhf"
			},
			{
				"type": "occ",
				"energy": -0.25488,
				"method": "rhf"
			},
			{
				"type": "occ",
				"energy": -0.24509,
				"method": "rhf"
			},
			{
				"type": "unocc",
				"energy": -0.07867,
				"method": "rhf"
			},
			{
				"type": "unocc",
				"energy": -0.06101,
				"method": "rhf"
			},
			{
				"type": "unocc",
				"energy": -0.02712,
				"method": "rhf"
			},
			{
				"type": "unocc",
				"energy": 0.00799,
				"method": "rhf"
			},
			{
				"type": "unocc",
				"energy": 0.0294,
				"method": "rhf"
			}
		],
		"cosmo_sigma_profile": { 
			"-0.025": 0.0,
			"-0.024": 0.0,
			"-0.023": 0.0,
			"-0.022": 0.0,
			"-0.021": 0.0,
			"-0.02": 0.0,
			"-0.019": 0.0,
			"-0.018": 0.0,
			"-0.017": 0.0,
			"-0.016": 0.000248401650941,
			"-0.015": 0.7479327183,
			"-0.014": 1.20155019876,
			"-0.013": 1.04552006512,
			"-0.012": 1.59495244519,
			"-0.011": 0.908894095514,
			"-0.01": 0.798281721228,
			"-0.009": 2.22854123464,
			"-0.008": 4.92124208137,
			"-0.007": 9.52724880315,
			"-0.006": 18.6094212962,
			"-0.005": 18.9545949443,
			"-0.004": 17.1479715667,
			"-0.003": 16.2724690125,
			"-0.002": 16.7882779548,
			"-0.001": 18.2220927539,
			"0.0": 15.854324858,
			"0.001": 16.516561212,
			"0.002": 17.5996898554,
			"0.003": 20.2611352464,
			"0.004": 13.4283319954,
			"0.005": 9.48634416732,
			"0.006": 3.36935748841,
			"0.007": 2.84390182974,
			"0.008": 2.52370491099,
			"0.009": 3.1289377716,
			"0.01": 3.42773349956,
			"0.011": 4.75760633338,
			"0.012": 8.95294608102,
			"0.013": 5.491362975,
			"0.014": 0.761752861502,
			"0.015": 0.0,
			"0.016": 0.0,
			"0.017": 0.0,
			"0.018": 0.0,
			"0.019": 0.0,
			"0.02": 0.0,
			"0.021": 0.0,
			"0.022": 0.0,
			"0.023": 0.0,
			"0.024": 0.0,
			"0.025": 0.0
		}
	}
}
