{
	 "smiles": "ClCCC(=O)N1CCOCC1", 
	 "Tm": 320.15, 
	 "num_atms": 23, 
	 "gaussian": { 
		 "optdone": 1, 
		 "sigma_profile": "yes", 
		 "theory": "DFT", 
		 "functional": "B3LYP", 
		 "basiset": "6-31G**", 
		 "properties": { 
			 "R2extent": 3472.8807, 
			 "electric_dipole_moment_norm": 4.08783960791, 
			 "electric_quadrupole_moment_norm": 18.8130604988, 
			 "total_energy": -939.358375642, 
			 "HOMO_LUMO_gap": 0.25258, 
			 "cosmo_polarized_energy": -16.72, 
			 "cosmo_cavitation_energy": 26.43, 
			 "cosmo_dispersion_energy": -19.61, 
			 "cosmo_repulsion_energy": 1.6, 
			 "cosmo_total_nonelectrostatic_energy": 8.42, 
			 "SMD_solvation_energy": 3.81 
		},
		"coords": [
			{
				"x": -2.6713863554,
				"y": 3.9246701769,
				"z": -1.8463552042,
				"element": "Cl" 
			},
			{
				"x": -2.6649828789,
				"y": 2.8806026684,
				"z": -0.3648897113,
				"element": "C" 
			},
			{
				"x": -2.8020794253,
				"y": 1.3896034827,
				"z": -0.6834572324,
				"element": "C" 
			},
			{
				"x": -1.665908839,
				"y": 0.8082682178,
				"z": -1.5280741787,
				"element": "C" 
			},
			{
				"x": -1.804259776,
				"y": 0.6569745803,
				"z": -2.7361018286,
				"element": "O" 
			},
			{
				"x": -0.4942033965,
				"y": 0.4869605826,
				"z": -0.8792673894,
				"element": "N" 
			},
			{
				"x": -0.3204453864,
				"y": 0.4788078497,
				"z": 0.578887406,
				"element": "C" 
			},
			{
				"x": 1.1426102823,
				"y": 0.1863604791,
				"z": 0.9113545228,
				"element": "C" 
			},
			{
				"x": 1.5781349929,
				"y": -1.0580282588,
				"z": 0.3944290084,
				"element": "O" 
			},
			{
				"x": 1.1637075337,
				"y": -1.3241146135,
				"z": -0.9524613176,
				"element": "C" 
			},
			{
				"x": 0.5983973459,
				"y": -0.0997101104,
				"z": -1.6632835811,
				"element": "C" 
			},
			{
				"x": -3.504623468,
				"y": 3.2147262308,
				"z": 0.2464357356,
				"element": "H" 
			},
			{
				"x": -1.7366717116,
				"y": 3.1100552016,
				"z": 0.1603008468,
				"element": "H" 
			},
			{
				"x": -2.900541762,
				"y": 0.8619267831,
				"z": 0.2733059512,
				"element": "H" 
			},
			{
				"x": -3.7174064615,
				"y": 1.2228938762,
				"z": -1.2543044167,
				"element": "H" 
			},
			{
				"x": -0.9512276624,
				"y": -0.2900238178,
				"z": 1.0479588281,
				"element": "H" 
			},
			{
				"x": -0.5919634106,
				"y": 1.4461460943,
				"z": 1.0164659983,
				"element": "H" 
			},
			{
				"x": 1.7732605154,
				"y": 1.013616124,
				"z": 0.5490142023,
				"element": "H" 
			},
			{
				"x": 1.2649363001,
				"y": 0.1306652622,
				"z": 1.9970632699,
				"element": "H" 
			},
			{
				"x": 0.4050594022,
				"y": -2.1194119908,
				"z": -0.935051677,
				"element": "H" 
			},
			{
				"x": 2.0341965455,
				"y": -1.7022882273,
				"z": -1.5016730025,
				"element": "H" 
			},
			{
				"x": 0.1900226708,
				"y": -0.3739762863,
				"z": -2.6371487061,
				"element": "H" 
			},
			{
				"x": 1.3870749449,
				"y": 0.6446756952,
				"z": -1.8339475238,
				"element": "H" 
			}
		],
		 "valence_orbital": [ 
			{
				"type": "occ",
				"energy": -0.29726,
				"method": "rhf"
			},
			{
				"type": "occ",
				"energy": -0.29473,
				"method": "rhf"
			},
			{
				"type": "occ",
				"energy": -0.26193,
				"method": "rhf"
			},
			{
				"type": "occ",
				"energy": -0.24894,
				"method": "rhf"
			},
			{
				"type": "occ",
				"energy": -0.24353,
				"method": "rhf"
			},
			{
				"type": "unocc",
				"energy": 0.00905,
				"method": "rhf"
			},
			{
				"type": "unocc",
				"energy": 0.02859,
				"method": "rhf"
			},
			{
				"type": "unocc",
				"energy": 0.06395,
				"method": "rhf"
			},
			{
				"type": "unocc",
				"energy": 0.09238,
				"method": "rhf"
			},
			{
				"type": "unocc",
				"energy": 0.10134,
				"method": "rhf"
			}
		],
		"cosmo_sigma_profile": { 
			"-0.025": 0.0,
			"-0.024": 0.0,
			"-0.023": 0.0,
			"-0.022": 0.0,
			"-0.021": 0.0,
			"-0.02": 0.0,
			"-0.019": 0.0,
			"-0.018": 0.0,
			"-0.017": 0.0,
			"-0.016": 0.0,
			"-0.015": 0.0,
			"-0.014": 0.0,
			"-0.013": 0.0,
			"-0.012": 0.0,
			"-0.011": 0.0,
			"-0.01": 0.142329955336,
			"-0.009": 1.43773617234,
			"-0.008": 3.62108369257,
			"-0.007": 10.1584827738,
			"-0.006": 13.361136679,
			"-0.005": 26.0305071428,
			"-0.004": 27.9086395132,
			"-0.003": 20.1665809562,
			"-0.002": 12.3319254372,
			"-0.001": 8.0293860492,
			"0.0": 6.57774131226,
			"0.001": 7.8640247194,
			"0.002": 6.36764634201,
			"0.003": 5.83948915254,
			"0.004": 7.16603576056,
			"0.005": 6.66091319849,
			"0.006": 10.6754548182,
			"0.007": 6.91520896701,
			"0.008": 3.38511936148,
			"0.009": 3.68194054064,
			"0.01": 2.91019561669,
			"0.011": 2.77135729558,
			"0.012": 3.89321593707,
			"0.013": 5.49747448381,
			"0.014": 4.46623125303,
			"0.015": 0.988185848993,
			"0.016": 0.0167794756193,
			"0.017": 0.0,
			"0.018": 0.0,
			"0.019": 0.0,
			"0.02": 0.0,
			"0.021": 0.0,
			"0.022": 0.0,
			"0.023": 0.0,
			"0.024": 0.0,
			"0.025": 0.0
		}
	}
}
