{
	 "smiles": "CC1=CC(Br)=CC(C)=C1N", 
	 "Tm": 323.15, 
	 "num_atms": 20, 
	 "gaussian": { 
		 "optdone": 1, 
		 "sigma_profile": "yes", 
		 "theory": "DFT", 
		 "functional": "B3LYP", 
		 "basiset": "6-31G**", 
		 "properties": { 
			 "R2extent": 3074.9942, 
			 "electric_dipole_moment_norm": 3.82611342357, 
			 "electric_quadrupole_moment_norm": 7.34611872216, 
			 "total_energy": -2937.0524427, 
			 "HOMO_LUMO_gap": 0.19969, 
			 "cosmo_polarized_energy": -8.51, 
			 "cosmo_cavitation_energy": 24.98, 
			 "cosmo_dispersion_energy": -18.96, 
			 "cosmo_repulsion_energy": 1.53, 
			 "cosmo_total_nonelectrostatic_energy": 7.55, 
			 "SMD_solvation_energy": 2.97 
		},
		"coords": [
			{
				"x": -1.6151092449,
				"y": 1.2138769299,
				"z": 1.5843639018,
				"element": "C" 
			},
			{
				"x": -0.5356238976,
				"y": 0.851788393,
				"z": 0.5940953464,
				"element": "C" 
			},
			{
				"x": -0.7527157997,
				"y": 0.9999883029,
				"z": -0.7776435541,
				"element": "C" 
			},
			{
				"x": 0.2487158628,
				"y": 0.6763115144,
				"z": -1.6867455615,
				"element": "C" 
			},
			{
				"x": -0.0711451283,
				"y": 0.884108328,
				"z": -3.56436101,
				"element": "Br" 
			},
			{
				"x": 1.4814308888,
				"y": 0.2069591507,
				"z": -1.2460324265,
				"element": "C" 
			},
			{
				"x": 1.7291089673,
				"y": 0.0478869453,
				"z": 0.1192893318,
				"element": "C" 
			},
			{
				"x": 3.0696007668,
				"y": -0.4489770656,
				"z": 0.6022108747,
				"element": "C" 
			},
			{
				"x": 0.7122065519,
				"y": 0.3675019755,
				"z": 1.0468363908,
				"element": "C" 
			},
			{
				"x": 0.9629124893,
				"y": 0.2634742701,
				"z": 2.4187818297,
				"element": "N" 
			},
			{
				"x": -1.9398423928,
				"y": 0.3454972499,
				"z": 2.1756339838,
				"element": "H" 
			},
			{
				"x": -1.2713102559,
				"y": 1.9769104785,
				"z": 2.2940455367,
				"element": "H" 
			},
			{
				"x": -2.4995007751,
				"y": 1.6048616896,
				"z": 1.0759431173,
				"element": "H" 
			},
			{
				"x": -1.7088342912,
				"y": 1.3702164781,
				"z": -1.1320989482,
				"element": "H" 
			},
			{
				"x": 2.2573972041,
				"y": -0.0375814663,
				"z": -1.9636297019,
				"element": "H" 
			},
			{
				"x": 2.9850937189,
				"y": -1.4028216429,
				"z": 1.1427471375,
				"element": "H" 
			},
			{
				"x": 3.5427791674,
				"y": 0.2678595057,
				"z": 1.2850771721,
				"element": "H" 
			},
			{
				"x": 3.7522446654,
				"y": -0.6136949608,
				"z": -0.2346721636,
				"element": "H" 
			},
			{
				"x": 0.1449377713,
				"y": 0.1608768609,
				"z": 3.0022193458,
				"element": "H" 
			},
			{
				"x": 1.6897537314,
				"y": -0.3879429371,
				"z": 2.6783393976,
				"element": "H" 
			}
		],
		 "valence_orbital": [ 
			{
				"type": "occ",
				"energy": -0.33012,
				"method": "rhf"
			},
			{
				"type": "occ",
				"energy": -0.27405,
				"method": "rhf"
			},
			{
				"type": "occ",
				"energy": -0.2732,
				"method": "rhf"
			},
			{
				"type": "occ",
				"energy": -0.24131,
				"method": "rhf"
			},
			{
				"type": "occ",
				"energy": -0.19798,
				"method": "rhf"
			},
			{
				"type": "unocc",
				"energy": 0.00171,
				"method": "rhf"
			},
			{
				"type": "unocc",
				"energy": 0.01101,
				"method": "rhf"
			},
			{
				"type": "unocc",
				"energy": 0.02017,
				"method": "rhf"
			},
			{
				"type": "unocc",
				"energy": 0.06713,
				"method": "rhf"
			},
			{
				"type": "unocc",
				"energy": 0.10012,
				"method": "rhf"
			}
		],
		"cosmo_sigma_profile": { 
			"-0.025": 0.0,
			"-0.024": 0.0,
			"-0.023": 0.0,
			"-0.022": 0.0,
			"-0.021": 0.0,
			"-0.02": 0.0,
			"-0.019": 0.0,
			"-0.018": 0.0,
			"-0.017": 0.0,
			"-0.016": 0.0,
			"-0.015": 0.0,
			"-0.014": 0.0,
			"-0.013": 0.0,
			"-0.012": 0.774867913622,
			"-0.011": 2.31245652064,
			"-0.01": 2.78554768191,
			"-0.009": 2.7364295366,
			"-0.008": 3.09742420779,
			"-0.007": 3.26219804873,
			"-0.006": 5.5707622232,
			"-0.005": 10.0482351855,
			"-0.004": 15.4243408917,
			"-0.003": 14.0798158879,
			"-0.002": 14.9357276389,
			"-0.001": 16.1229433287,
			"0.0": 19.4642341493,
			"0.001": 12.5957451925,
			"0.002": 10.791784872,
			"0.003": 11.9808047967,
			"0.004": 16.8861717234,
			"0.005": 22.4726460467,
			"0.006": 9.80850861709,
			"0.007": 0.74878368556,
			"0.008": 1.0588148127,
			"0.009": 1.00014554372,
			"0.01": 0.352949598958,
			"0.011": 0.728184162633,
			"0.012": 0.220778453264,
			"0.013": 0.619457175575,
			"0.014": 0.657933446631,
			"0.015": 0.0,
			"0.016": 0.0,
			"0.017": 0.0,
			"0.018": 0.0,
			"0.019": 0.0,
			"0.02": 0.0,
			"0.021": 0.0,
			"0.022": 0.0,
			"0.023": 0.0,
			"0.024": 0.0,
			"0.025": 0.0
		}
	}
}
