{
	 "smiles": "O=C(NCC1=CC=CO1)N1C=CN=C1", 
	 "Tm": 419.15, 
	 "num_atms": 23, 
	 "gaussian": { 
		 "optdone": 1, 
		 "sigma_profile": "yes", 
		 "theory": "DFT", 
		 "functional": "B3LYP", 
		 "basiset": "6-31G**", 
		 "properties": { 
			 "R2extent": 3685.4737, 
			 "electric_dipole_moment_norm": 4.51588153742, 
			 "electric_quadrupole_moment_norm": 16.2910228617, 
			 "total_energy": -663.059334343, 
			 "HOMO_LUMO_gap": 0.20927, 
			 "cosmo_polarized_energy": -16.08, 
			 "cosmo_cavitation_energy": 28.62, 
			 "cosmo_dispersion_energy": -20.4, 
			 "cosmo_repulsion_energy": 1.59, 
			 "cosmo_total_nonelectrostatic_energy": 9.81, 
			 "SMD_solvation_energy": 5.05 
		},
		"coords": [
			{
				"x": 1.612977911,
				"y": -1.4585549506,
				"z": -1.1259531304,
				"element": "O" 
			},
			{
				"x": 1.0311051812,
				"y": -0.453245342,
				"z": -1.4928782385,
				"element": "C" 
			},
			{
				"x": -0.2662354506,
				"y": -0.1458308666,
				"z": -1.1901448862,
				"element": "N" 
			},
			{
				"x": -0.9930013172,
				"y": -0.9833234967,
				"z": -0.2265009408,
				"element": "C" 
			},
			{
				"x": -0.796351561,
				"y": -0.5810829325,
				"z": 1.1972548261,
				"element": "C" 
			},
			{
				"x": 0.0143648473,
				"y": -1.0272834784,
				"z": 2.1986823663,
				"element": "C" 
			},
			{
				"x": -0.2330939922,
				"y": -0.1827712988,
				"z": 3.3307806018,
				"element": "C" 
			},
			{
				"x": -1.1721910694,
				"y": 0.7180981491,
				"z": 2.9325967367,
				"element": "C" 
			},
			{
				"x": -1.5295432713,
				"y": 0.4931998241,
				"z": 1.6349740323,
				"element": "O" 
			},
			{
				"x": 1.6794937201,
				"y": 0.502779971,
				"z": -2.3259984817,
				"element": "N" 
			},
			{
				"x": 1.1548180241,
				"y": 1.5611005938,
				"z": -3.0671084948,
				"element": "C" 
			},
			{
				"x": 2.2317984462,
				"y": 2.1525611091,
				"z": -3.6645486325,
				"element": "C" 
			},
			{
				"x": 3.4067958797,
				"y": 1.5064565746,
				"z": -3.3209974971,
				"element": "N" 
			},
			{
				"x": 3.0456751679,
				"y": 0.5284288465,
				"z": -2.5312771095,
				"element": "C" 
			},
			{
				"x": -0.5498934403,
				"y": 0.8217012545,
				"z": -1.2532612726,
				"element": "H" 
			},
			{
				"x": -2.0553571226,
				"y": -0.9455395526,
				"z": -0.486672251,
				"element": "H" 
			},
			{
				"x": -0.6377718803,
				"y": -2.0046356483,
				"z": -0.3651356441,
				"element": "H" 
			},
			{
				"x": 0.7095878348,
				"y": -1.8513598675,
				"z": 2.1294028293,
				"element": "H" 
			},
			{
				"x": 0.2268643858,
				"y": -0.2433079156,
				"z": 4.3065555107,
				"element": "H" 
			},
			{
				"x": -1.6747852845,
				"y": 1.5368677895,
				"z": 3.4237731648,
				"element": "H" 
			},
			{
				"x": 0.0959248366,
				"y": 1.7498722226,
				"z": -3.143392799,
				"element": "H" 
			},
			{
				"x": 2.2326665502,
				"y": 3.0035975102,
				"z": -4.331580089,
				"element": "H" 
			},
			{
				"x": 3.6880516046,
				"y": -0.1987284954,
				"z": -2.0577706007,
				"element": "H" 
			}
		],
		 "valence_orbital": [ 
			{
				"type": "occ",
				"energy": -0.2845,
				"method": "rhf"
			},
			{
				"type": "occ",
				"energy": -0.27883,
				"method": "rhf"
			},
			{
				"type": "occ",
				"energy": -0.272,
				"method": "rhf"
			},
			{
				"type": "occ",
				"energy": -0.23961,
				"method": "rhf"
			},
			{
				"type": "occ",
				"energy": -0.23266,
				"method": "rhf"
			},
			{
				"type": "unocc",
				"energy": -0.02339,
				"method": "rhf"
			},
			{
				"type": "unocc",
				"energy": 0.00112,
				"method": "rhf"
			},
			{
				"type": "unocc",
				"energy": 0.05541,
				"method": "rhf"
			},
			{
				"type": "unocc",
				"energy": 0.06017,
				"method": "rhf"
			},
			{
				"type": "unocc",
				"energy": 0.0707,
				"method": "rhf"
			}
		],
		"cosmo_sigma_profile": { 
			"-0.025": 0.0,
			"-0.024": 0.0,
			"-0.023": 0.0,
			"-0.022": 0.0,
			"-0.021": 0.0,
			"-0.02": 0.0,
			"-0.019": 0.0,
			"-0.018": 0.0,
			"-0.017": 0.0,
			"-0.016": 0.457812356567,
			"-0.015": 1.12804335405,
			"-0.014": 1.52038380054,
			"-0.013": 0.914796100283,
			"-0.012": 1.06800951075,
			"-0.011": 2.21154980034,
			"-0.01": 2.01720857954,
			"-0.009": 3.65491227176,
			"-0.008": 5.5162782008,
			"-0.007": 10.7417464064,
			"-0.006": 12.7942523679,
			"-0.005": 12.1629563096,
			"-0.004": 15.9172455652,
			"-0.003": 14.5259639617,
			"-0.002": 14.6260670075,
			"-0.001": 11.7836631215,
			"0.0": 13.068469001,
			"0.001": 13.7001754964,
			"0.002": 13.5568367428,
			"0.003": 15.1182364427,
			"0.004": 16.1560590769,
			"0.005": 12.6006218162,
			"0.006": 6.25361180399,
			"0.007": 4.64474671377,
			"0.008": 3.86526628662,
			"0.009": 3.31585084448,
			"0.01": 2.45228871262,
			"0.011": 3.80543390647,
			"0.012": 5.27241117757,
			"0.013": 1.13376833414,
			"0.014": 0.768004519845,
			"0.015": 1.44249447505,
			"0.016": 1.06928273936,
			"0.017": 0.701470700586,
			"0.018": 0.059558422149,
			"0.019": 0.0,
			"0.02": 0.0,
			"0.021": 0.0,
			"0.022": 0.0,
			"0.023": 0.0,
			"0.024": 0.0,
			"0.025": 0.0
		}
	}
}
