{
	 "smiles": "CC1=NC2=C(C=CC=C2)C(CO)=C1", 
	 "Tm": 418.15, 
	 "num_atms": 24, 
	 "gaussian": { 
		 "optdone": 1, 
		 "sigma_profile": "yes", 
		 "theory": "DFT", 
		 "functional": "B3LYP", 
		 "basiset": "6-31G**", 
		 "properties": { 
			 "R2extent": 2670.949, 
			 "electric_dipole_moment_norm": 3.17214593927, 
			 "electric_quadrupole_moment_norm": 12.655989601, 
			 "total_energy": -555.778609864, 
			 "HOMO_LUMO_gap": 0.17811, 
			 "cosmo_polarized_energy": -11.8, 
			 "cosmo_cavitation_energy": 27.19, 
			 "cosmo_dispersion_energy": -20.21, 
			 "cosmo_repulsion_energy": 1.6, 
			 "cosmo_total_nonelectrostatic_energy": 8.58, 
			 "SMD_solvation_energy": 3.18 
		},
		"coords": [
			{
				"x": 2.2219102681,
				"y": -0.4629134138,
				"z": 2.8913088634,
				"element": "C" 
			},
			{
				"x": 1.5517029434,
				"y": 0.0130003437,
				"z": 1.6261900641,
				"element": "C" 
			},
			{
				"x": 0.2352346811,
				"y": -0.0341583225,
				"z": 1.575062438,
				"element": "N" 
			},
			{
				"x": -0.3872404678,
				"y": 0.3863214719,
				"z": 0.4318043176,
				"element": "C" 
			},
			{
				"x": 0.3222911936,
				"y": 0.8713925918,
				"z": -0.7125416926,
				"element": "C" 
			},
			{
				"x": -0.4161736653,
				"y": 1.2782950007,
				"z": -1.8551985805,
				"element": "C" 
			},
			{
				"x": -1.7934600777,
				"y": 1.2208714689,
				"z": -1.8566497897,
				"element": "C" 
			},
			{
				"x": -2.4943162815,
				"y": 0.7487693587,
				"z": -0.7217742999,
				"element": "C" 
			},
			{
				"x": -1.8053024587,
				"y": 0.3367958451,
				"z": 0.3971493639,
				"element": "C" 
			},
			{
				"x": 1.7494198317,
				"y": 0.9272441957,
				"z": -0.6216523799,
				"element": "C" 
			},
			{
				"x": 2.5923708883,
				"y": 1.494355577,
				"z": -1.7389753696,
				"element": "C" 
			},
			{
				"x": 2.411669514,
				"y": 0.7162299556,
				"z": -2.9204841031,
				"element": "O" 
			},
			{
				"x": 2.3409177415,
				"y": 0.4938907232,
				"z": 0.5411225423,
				"element": "C" 
			},
			{
				"x": 1.4657123036,
				"y": -0.7856099677,
				"z": 3.608298693,
				"element": "H" 
			},
			{
				"x": 2.8985986041,
				"y": -1.3014089449,
				"z": 2.6881097286,
				"element": "H" 
			},
			{
				"x": 2.824039011,
				"y": 0.3335431292,
				"z": 3.3445721652,
				"element": "H" 
			},
			{
				"x": 0.1205867033,
				"y": 1.6018583635,
				"z": -2.7394312035,
				"element": "H" 
			},
			{
				"x": -2.3464640091,
				"y": 1.5326663508,
				"z": -2.7381000303,
				"element": "H" 
			},
			{
				"x": -3.5797634112,
				"y": 0.7076462506,
				"z": -0.7388872931,
				"element": "H" 
			},
			{
				"x": -2.3138811519,
				"y": -0.0349626698,
				"z": 1.2807243075,
				"element": "H" 
			},
			{
				"x": 3.6458271131,
				"y": 1.4993038803,
				"z": -1.4228307698,
				"element": "H" 
			},
			{
				"x": 2.2973017173,
				"y": 2.5425325012,
				"z": -1.9117885895,
				"element": "H" 
			},
			{
				"x": 2.9062175008,
				"y": 1.1437594865,
				"z": -3.6314379524,
				"element": "H" 
			},
			{
				"x": 3.4229015082,
				"y": 0.5188768243,
				"z": 0.6443095705,
				"element": "H" 
			}
		],
		 "valence_orbital": [ 
			{
				"type": "occ",
				"energy": -0.29714,
				"method": "rhf"
			},
			{
				"type": "occ",
				"energy": -0.27492,
				"method": "rhf"
			},
			{
				"type": "occ",
				"energy": -0.24566,
				"method": "rhf"
			},
			{
				"type": "occ",
				"energy": -0.23915,
				"method": "rhf"
			},
			{
				"type": "occ",
				"energy": -0.22355,
				"method": "rhf"
			},
			{
				"type": "unocc",
				"energy": -0.04544,
				"method": "rhf"
			},
			{
				"type": "unocc",
				"energy": -0.00921,
				"method": "rhf"
			},
			{
				"type": "unocc",
				"energy": 0.0246,
				"method": "rhf"
			},
			{
				"type": "unocc",
				"energy": 0.07044,
				"method": "rhf"
			},
			{
				"type": "unocc",
				"energy": 0.09415,
				"method": "rhf"
			}
		],
		"cosmo_sigma_profile": { 
			"-0.025": 0.0,
			"-0.024": 0.0,
			"-0.023": 0.0,
			"-0.022": 0.0,
			"-0.021": 0.0,
			"-0.02": 0.0,
			"-0.019": 0.0,
			"-0.018": 0.0,
			"-0.017": 0.0325367429893,
			"-0.016": 1.01368254546,
			"-0.015": 1.0809190205,
			"-0.014": 1.01648873181,
			"-0.013": 0.870619518312,
			"-0.012": 0.645734207257,
			"-0.011": 0.860952119263,
			"-0.01": 0.597653187565,
			"-0.009": 0.653572075026,
			"-0.008": 1.1145363682,
			"-0.007": 2.18432680579,
			"-0.006": 7.88147863598,
			"-0.005": 16.3116875886,
			"-0.004": 23.158764212,
			"-0.003": 20.8880705107,
			"-0.002": 15.1621864655,
			"-0.001": 14.0393052153,
			"0.0": 14.6571400336,
			"0.001": 13.1859966032,
			"0.002": 14.7859070488,
			"0.003": 15.2518180306,
			"0.004": 14.8847180651,
			"0.005": 11.3971084776,
			"0.006": 3.35073504317,
			"0.007": 3.57760822129,
			"0.008": 2.97501893866,
			"0.009": 2.78701693565,
			"0.01": 2.04120315468,
			"0.011": 2.39581287475,
			"0.012": 2.69979483024,
			"0.013": 2.05807668968,
			"0.014": 1.24974527984,
			"0.015": 0.731096898283,
			"0.016": 0.438380894647,
			"0.017": 0.0,
			"0.018": 0.0,
			"0.019": 0.0,
			"0.02": 0.0,
			"0.021": 0.0,
			"0.022": 0.0,
			"0.023": 0.0,
			"0.024": 0.0,
			"0.025": 0.0
		}
	}
}
