{
	 "smiles": "CC(=O)NC1=CC=C(SCC(O)=O)C=C1", 
	 "Tm": 430.15, 
	 "num_atms": 26, 
	 "gaussian": { 
		 "optdone": 1, 
		 "sigma_profile": "yes", 
		 "theory": "DFT", 
		 "functional": "B3LYP", 
		 "basiset": "6-31G**", 
		 "properties": { 
			 "R2extent": 5412.3801, 
			 "electric_dipole_moment_norm": 3.61100238438, 
			 "electric_quadrupole_moment_norm": 19.1665543917, 
			 "total_energy": -1066.32620426, 
			 "HOMO_LUMO_gap": 0.19407, 
			 "cosmo_polarized_energy": -19.97, 
			 "cosmo_cavitation_energy": 32.16, 
			 "cosmo_dispersion_energy": -23.44, 
			 "cosmo_repulsion_energy": 1.81, 
			 "cosmo_total_nonelectrostatic_energy": 10.54, 
			 "SMD_solvation_energy": 7.17 
		},
		"coords": [
			{
				"x": -1.7041948383,
				"y": 3.6565233743,
				"z": 0.0428733517,
				"element": "C" 
			},
			{
				"x": -0.9864169083,
				"y": 3.7596706697,
				"z": 1.3735352239,
				"element": "C" 
			},
			{
				"x": -0.9245036257,
				"y": 4.8076715397,
				"z": 1.9968596242,
				"element": "O" 
			},
			{
				"x": -0.3567741055,
				"y": 2.6336282162,
				"z": 1.8945101583,
				"element": "N" 
			},
			{
				"x": -0.2204804489,
				"y": 1.313555334,
				"z": 1.4315776196,
				"element": "C" 
			},
			{
				"x": -1.2291862826,
				"y": 0.6337794502,
				"z": 0.731456674,
				"element": "C" 
			},
			{
				"x": -1.0300904589,
				"y": -0.680472179,
				"z": 0.3126347809,
				"element": "C" 
			},
			{
				"x": 0.1566683034,
				"y": -1.358393499,
				"z": 0.6129277477,
				"element": "C" 
			},
			{
				"x": 0.3299135279,
				"y": -3.0739869033,
				"z": 0.1083070697,
				"element": "S" 
			},
			{
				"x": 1.5810977941,
				"y": -2.9541674641,
				"z": -1.2357945814,
				"element": "C" 
			},
			{
				"x": 3.0426338206,
				"y": -2.8083862304,
				"z": -0.7917548945,
				"element": "C" 
			},
			{
				"x": 3.3362607017,
				"y": -3.2339245991,
				"z": 0.4543089724,
				"element": "O" 
			},
			{
				"x": 3.8867213504,
				"y": -2.3728182871,
				"z": -1.5335631231,
				"element": "O" 
			},
			{
				"x": 1.1488644889,
				"y": -0.695837407,
				"z": 1.3500872675,
				"element": "C" 
			},
			{
				"x": 0.9672498091,
				"y": 0.6257830279,
				"z": 1.7388873598,
				"element": "C" 
			},
			{
				"x": -2.731230436,
				"y": 3.305240143,
				"z": 0.1894200208,
				"element": "H" 
			},
			{
				"x": -1.2081289,
				"y": 2.9818477577,
				"z": -0.6585016318,
				"element": "H" 
			},
			{
				"x": -1.7514823881,
				"y": 4.6625550306,
				"z": -0.374785777,
				"element": "H" 
			},
			{
				"x": 0.1886397628,
				"y": 2.8777325423,
				"z": 2.7128730972,
				"element": "H" 
			},
			{
				"x": -2.1777704427,
				"y": 1.1147728825,
				"z": 0.5303337391,
				"element": "H" 
			},
			{
				"x": -1.8153729722,
				"y": -1.1915807733,
				"z": -0.2350876054,
				"element": "H" 
			},
			{
				"x": 1.4950569762,
				"y": -3.8907322537,
				"z": -1.7982796156,
				"element": "H" 
			},
			{
				"x": 1.3418996022,
				"y": -2.1354785008,
				"z": -1.9154059041,
				"element": "H" 
			},
			{
				"x": 2.5066097614,
				"y": -3.5198855995,
				"z": 0.884874626,
				"element": "H" 
			},
			{
				"x": 2.0732833832,
				"y": -1.203609782,
				"z": 1.6041853179,
				"element": "H" 
			},
			{
				"x": 1.7539325255,
				"y": 1.1383135104,
				"z": 2.2857204822,
				"element": "H" 
			}
		],
		 "valence_orbital": [ 
			{
				"type": "occ",
				"energy": -0.29033,
				"method": "rhf"
			},
			{
				"type": "occ",
				"energy": -0.27959,
				"method": "rhf"
			},
			{
				"type": "occ",
				"energy": -0.2649,
				"method": "rhf"
			},
			{
				"type": "occ",
				"energy": -0.25827,
				"method": "rhf"
			},
			{
				"type": "occ",
				"energy": -0.23832,
				"method": "rhf"
			},
			{
				"type": "unocc",
				"energy": -0.04425,
				"method": "rhf"
			},
			{
				"type": "unocc",
				"energy": -0.03203,
				"method": "rhf"
			},
			{
				"type": "unocc",
				"energy": 0.00072,
				"method": "rhf"
			},
			{
				"type": "unocc",
				"energy": 0.01436,
				"method": "rhf"
			},
			{
				"type": "unocc",
				"energy": 0.02676,
				"method": "rhf"
			}
		],
		"cosmo_sigma_profile": { 
			"-0.025": 0.0,
			"-0.024": 0.0,
			"-0.023": 0.0,
			"-0.022": 0.0,
			"-0.021": 0.0,
			"-0.02": 0.0,
			"-0.019": 0.0,
			"-0.018": 0.0,
			"-0.017": 0.0,
			"-0.016": 0.0,
			"-0.015": 0.117695733283,
			"-0.014": 1.03465835254,
			"-0.013": 1.29113141685,
			"-0.012": 2.19465205115,
			"-0.011": 2.2045203925,
			"-0.01": 4.52693666377,
			"-0.009": 6.60351533246,
			"-0.008": 8.17693763825,
			"-0.007": 10.7570683079,
			"-0.006": 13.2536273183,
			"-0.005": 16.7158542006,
			"-0.004": 15.643088049,
			"-0.003": 17.426040434,
			"-0.002": 17.190992509,
			"-0.001": 16.6337288859,
			"0.0": 14.2025359907,
			"0.001": 14.6261016596,
			"0.002": 14.8931004193,
			"0.003": 15.9379660104,
			"0.004": 11.7754490572,
			"0.005": 4.53004285015,
			"0.006": 3.93132202614,
			"0.007": 5.39803178621,
			"0.008": 3.62250953656,
			"0.009": 4.84793146162,
			"0.01": 6.11649964368,
			"0.011": 7.72472453156,
			"0.012": 7.12031019768,
			"0.013": 6.33649732858,
			"0.014": 2.83912657353,
			"0.015": 0.167958678589,
			"0.016": 0.0,
			"0.017": 0.0,
			"0.018": 0.0,
			"0.019": 0.0,
			"0.02": 0.0,
			"0.021": 0.0,
			"0.022": 0.0,
			"0.023": 0.0,
			"0.024": 0.0,
			"0.025": 0.0
		}
	}
}
