{
	 "smiles": "CCCCC1=C(C)N=C(NCC)N=C1O", 
	 "Tm": 433.15, 
	 "num_atms": 34, 
	 "gaussian": { 
		 "optdone": 1, 
		 "sigma_profile": "yes", 
		 "theory": "DFT", 
		 "functional": "B3LYP", 
		 "basiset": "6-31G**", 
		 "properties": { 
			 "R2extent": 4456.9571, 
			 "electric_dipole_moment_norm": 1.06616800271, 
			 "electric_quadrupole_moment_norm": 6.8523107234, 
			 "total_energy": -670.148656534, 
			 "HOMO_LUMO_gap": 0.19482, 
			 "cosmo_polarized_energy": -9.21, 
			 "cosmo_cavitation_energy": 35.4, 
			 "cosmo_dispersion_energy": -24.53, 
			 "cosmo_repulsion_energy": 1.98, 
			 "cosmo_total_nonelectrostatic_energy": 12.85, 
			 "SMD_solvation_energy": 3.35 
		},
		"coords": [
			{
				"x": 0.5848944841,
				"y": 2.344000159,
				"z": 0.282909821,
				"element": "C" 
			},
			{
				"x": 2.057062616,
				"y": 2.2611129976,
				"z": 0.7071332604,
				"element": "C" 
			},
			{
				"x": 3.0194224873,
				"y": 1.719081305,
				"z": -0.3698298832,
				"element": "C" 
			},
			{
				"x": 3.1695363463,
				"y": 0.1795426918,
				"z": -0.4468146492,
				"element": "C" 
			},
			{
				"x": 1.9485811224,
				"y": -0.6178310245,
				"z": -0.8491106283,
				"element": "C" 
			},
			{
				"x": 1.5541660321,
				"y": -0.8433912926,
				"z": -2.1803072584,
				"element": "C" 
			},
			{
				"x": 2.3441376334,
				"y": -0.28889666,
				"z": -3.340599772,
				"element": "C" 
			},
			{
				"x": 0.4737011503,
				"y": -1.5658986291,
				"z": -2.5107979048,
				"element": "N" 
			},
			{
				"x": -0.237353553,
				"y": -2.0921804559,
				"z": -1.4965382114,
				"element": "C" 
			},
			{
				"x": -1.3175935915,
				"y": -2.848079095,
				"z": -1.8492546685,
				"element": "N" 
			},
			{
				"x": -2.3087623319,
				"y": -3.3511640242,
				"z": -0.912695838,
				"element": "C" 
			},
			{
				"x": -3.3675739944,
				"y": -2.3175378146,
				"z": -0.5096777347,
				"element": "C" 
			},
			{
				"x": 0.0391788914,
				"y": -1.9547320218,
				"z": -0.1868584119,
				"element": "N" 
			},
			{
				"x": 1.1190543312,
				"y": -1.2333477021,
				"z": 0.1011009133,
				"element": "C" 
			},
			{
				"x": 1.4094714375,
				"y": -1.0949439281,
				"z": 1.4157902714,
				"element": "O" 
			},
			{
				"x": 0.1702686655,
				"y": 1.3639459204,
				"z": 0.0348227685,
				"element": "H" 
			},
			{
				"x": -0.0285772181,
				"y": 2.7718208848,
				"z": 1.0835064641,
				"element": "H" 
			},
			{
				"x": 0.4684467058,
				"y": 2.9841012254,
				"z": -0.5997075202,
				"element": "H" 
			},
			{
				"x": 2.3884095419,
				"y": 3.2695972041,
				"z": 0.9867496341,
				"element": "H" 
			},
			{
				"x": 2.1459676274,
				"y": 1.6488283607,
				"z": 1.6129624777,
				"element": "H" 
			},
			{
				"x": 4.0230585282,
				"y": 2.1191223123,
				"z": -0.1751983804,
				"element": "H" 
			},
			{
				"x": 2.7248088963,
				"y": 2.1162493232,
				"z": -1.3506929762,
				"element": "H" 
			},
			{
				"x": 3.5102751156,
				"y": -0.1785848916,
				"z": 0.5302856822,
				"element": "H" 
			},
			{
				"x": 3.9819354591,
				"y": -0.0401004063,
				"z": -1.1507924276,
				"element": "H" 
			},
			{
				"x": 2.4114463206,
				"y": 0.8030454535,
				"z": -3.2974652071,
				"element": "H" 
			},
			{
				"x": 3.3708616583,
				"y": -0.6731672753,
				"z": -3.3389645018,
				"element": "H" 
			},
			{
				"x": 1.8625451378,
				"y": -0.577951835,
				"z": -4.275347747,
				"element": "H" 
			},
			{
				"x": -1.5378056091,
				"y": -2.8135683977,
				"z": -2.8334762102,
				"element": "H" 
			},
			{
				"x": -1.7771207714,
				"y": -3.703569856,
				"z": -0.0252280862,
				"element": "H" 
			},
			{
				"x": -2.7856965929,
				"y": -4.222637187,
				"z": -1.3747277545,
				"element": "H" 
			},
			{
				"x": -4.0888391137,
				"y": -2.7576788002,
				"z": 0.1878176832,
				"element": "H" 
			},
			{
				"x": -2.8957863023,
				"y": -1.4608361568,
				"z": -0.020421932,
				"element": "H" 
			},
			{
				"x": -3.9188807757,
				"y": -1.9540238382,
				"z": -1.3834180809,
				"element": "H" 
			},
			{
				"x": 0.7256596656,
				"y": -1.5961265458,
				"z": 1.8883468087,
				"element": "H" 
			}
		],
		 "valence_orbital": [ 
			{
				"type": "occ",
				"energy": -0.29657,
				"method": "rhf"
			},
			{
				"type": "occ",
				"energy": -0.28217,
				"method": "rhf"
			},
			{
				"type": "occ",
				"energy": -0.26436,
				"method": "rhf"
			},
			{
				"type": "occ",
				"energy": -0.24235,
				"method": "rhf"
			},
			{
				"type": "occ",
				"energy": -0.20126,
				"method": "rhf"
			},
			{
				"type": "unocc",
				"energy": -0.00644,
				"method": "rhf"
			},
			{
				"type": "unocc",
				"energy": 0.01785,
				"method": "rhf"
			},
			{
				"type": "unocc",
				"energy": 0.08209,
				"method": "rhf"
			},
			{
				"type": "unocc",
				"energy": 0.09499,
				"method": "rhf"
			},
			{
				"type": "unocc",
				"energy": 0.09579,
				"method": "rhf"
			}
		],
		"cosmo_sigma_profile": { 
			"-0.025": 0.0,
			"-0.024": 0.0,
			"-0.023": 0.0,
			"-0.022": 0.0,
			"-0.021": 0.0,
			"-0.02": 0.0,
			"-0.019": 0.0,
			"-0.018": 0.0,
			"-0.017": 0.131401993881,
			"-0.016": 1.11323099635,
			"-0.015": 0.589889705998,
			"-0.014": 0.847707150928,
			"-0.013": 0.906369832601,
			"-0.012": 1.33289547237,
			"-0.011": 1.68205058014,
			"-0.01": 1.74848611,
			"-0.009": 1.47917428061,
			"-0.008": 1.64127660418,
			"-0.007": 1.1343540959,
			"-0.006": 1.75986064821,
			"-0.005": 5.18759921523,
			"-0.004": 13.0396376243,
			"-0.003": 19.1764264522,
			"-0.002": 31.0971704001,
			"-0.001": 39.3179104181,
			"0.0": 40.29219399,
			"0.001": 39.7905355758,
			"0.002": 23.3040513289,
			"0.003": 9.9692133968,
			"0.004": 7.56223941258,
			"0.005": 7.68961197271,
			"0.006": 7.64408260044,
			"0.007": 4.54921430057,
			"0.008": 4.90453100751,
			"0.009": 2.61451481011,
			"0.01": 1.61128741036,
			"0.011": 0.779019634716,
			"0.012": 0.517577296491,
			"0.013": 1.03199726985,
			"0.014": 1.01499465511,
			"0.015": 0.314824436961,
			"0.016": 0.0,
			"0.017": 0.0,
			"0.018": 0.0,
			"0.019": 0.0,
			"0.02": 0.0,
			"0.021": 0.0,
			"0.022": 0.0,
			"0.023": 0.0,
			"0.024": 0.0,
			"0.025": 0.0
		}
	}
}
