{
	 "smiles": "OC1=CC2=CC(O)=CC=C2C=C1", 
	 "Tm": 466.15, 
	 "num_atms": 20, 
	 "gaussian": { 
		 "optdone": 1, 
		 "sigma_profile": "yes", 
		 "theory": "DFT", 
		 "functional": "B3LYP", 
		 "basiset": "6-31G**", 
		 "properties": { 
			 "R2extent": 2497.3728, 
			 "electric_dipole_moment_norm": 2.58095251409, 
			 "electric_quadrupole_moment_norm": 16.2577605853, 
			 "total_energy": -536.33479656, 
			 "HOMO_LUMO_gap": 0.16772, 
			 "cosmo_polarized_energy": -14.17, 
			 "cosmo_cavitation_energy": 24.04, 
			 "cosmo_dispersion_energy": -18.2, 
			 "cosmo_repulsion_energy": 1.42, 
			 "cosmo_total_nonelectrostatic_energy": 7.26, 
			 "SMD_solvation_energy": 4.49 
		},
		"coords": [
			{
				"x": -0.049162697,
				"y": 0.556790972,
				"z": 3.0808375395,
				"element": "O" 
			},
			{
				"x": -0.4931366942,
				"y": 0.6936768702,
				"z": 1.7948290863,
				"element": "C" 
			},
			{
				"x": 0.3458438153,
				"y": 0.3037041994,
				"z": 0.7715462614,
				"element": "C" 
			},
			{
				"x": -0.0627497553,
				"y": 0.4232799845,
				"z": -0.5813236488,
				"element": "C" 
			},
			{
				"x": 0.7754185953,
				"y": 0.0317114876,
				"z": -1.656348524,
				"element": "C" 
			},
			{
				"x": 0.3484696268,
				"y": 0.1608095868,
				"z": -2.9617657427,
				"element": "C" 
			},
			{
				"x": 1.1965773727,
				"y": -0.231916003,
				"z": -3.959837443,
				"element": "O" 
			},
			{
				"x": -0.9376475456,
				"y": 0.6879010931,
				"z": -3.2524433032,
				"element": "C" 
			},
			{
				"x": -1.7679747355,
				"y": 1.0743295897,
				"z": -2.2265758758,
				"element": "C" 
			},
			{
				"x": -1.3650998452,
				"y": 0.957230269,
				"z": -0.8715872117,
				"element": "C" 
			},
			{
				"x": -2.1986987905,
				"y": 1.3470683588,
				"z": 0.2078422955,
				"element": "C" 
			},
			{
				"x": -1.7806211769,
				"y": 1.2216608992,
				"z": 1.5119357091,
				"element": "C" 
			},
			{
				"x": -0.7343748652,
				"y": 0.8664883923,
				"z": 3.6865094797,
				"element": "H" 
			},
			{
				"x": 1.3248996034,
				"y": -0.0967361959,
				"z": 1.0145984744,
				"element": "H" 
			},
			{
				"x": 1.7629451042,
				"y": -0.3740672872,
				"z": -1.4611353617,
				"element": "H" 
			},
			{
				"x": 0.7695955289,
				"y": -0.0855345761,
				"z": -4.8133760082,
				"element": "H" 
			},
			{
				"x": -1.2590926246,
				"y": 0.7830430632,
				"z": -4.2877032165,
				"element": "H" 
			},
			{
				"x": -2.7525841687,
				"y": 1.4778491515,
				"z": -2.4491937056,
				"element": "H" 
			},
			{
				"x": -3.1843917934,
				"y": 1.7512854817,
				"z": -0.008630235,
				"element": "H" 
			},
			{
				"x": -2.4301149544,
				"y": 1.524524663,
				"z": 2.3308214304,
				"element": "H" 
			}
		],
		 "valence_orbital": [ 
			{
				"type": "occ",
				"energy": -0.32825,
				"method": "rhf"
			},
			{
				"type": "occ",
				"energy": -0.28718,
				"method": "rhf"
			},
			{
				"type": "occ",
				"energy": -0.27685,
				"method": "rhf"
			},
			{
				"type": "occ",
				"energy": -0.21507,
				"method": "rhf"
			},
			{
				"type": "occ",
				"energy": -0.1991,
				"method": "rhf"
			},
			{
				"type": "unocc",
				"energy": -0.03138,
				"method": "rhf"
			},
			{
				"type": "unocc",
				"energy": 0.00609,
				"method": "rhf"
			},
			{
				"type": "unocc",
				"energy": 0.03901,
				"method": "rhf"
			},
			{
				"type": "unocc",
				"energy": 0.06919,
				"method": "rhf"
			},
			{
				"type": "unocc",
				"energy": 0.07412,
				"method": "rhf"
			}
		],
		"cosmo_sigma_profile": { 
			"-0.025": 0.0,
			"-0.024": 0.0,
			"-0.023": 0.0,
			"-0.022": 0.0,
			"-0.021": 0.0,
			"-0.02": 0.0,
			"-0.019": 0.0,
			"-0.018": 0.540229165739,
			"-0.017": 2.19056969851,
			"-0.016": 2.4043731192,
			"-0.015": 2.06730144911,
			"-0.014": 2.25677985382,
			"-0.013": 1.62982590729,
			"-0.012": 1.77397022576,
			"-0.011": 1.74506071119,
			"-0.01": 2.80662398455,
			"-0.009": 1.96722311012,
			"-0.008": 2.06231475346,
			"-0.007": 3.04813726646,
			"-0.006": 9.60551508886,
			"-0.005": 12.3409524144,
			"-0.004": 10.4324397874,
			"-0.003": 9.06070902292,
			"-0.002": 7.86241846912,
			"-0.001": 6.50694620781,
			"0.0": 8.36632479319,
			"0.001": 7.39812843428,
			"0.002": 9.41169262773,
			"0.003": 12.173964965,
			"0.004": 21.652552119,
			"0.005": 28.9096951388,
			"0.006": 6.12521801229,
			"0.007": 2.26460144401,
			"0.008": 2.47433796771,
			"0.009": 3.37548133631,
			"0.01": 4.05162257178,
			"0.011": 3.28628720601,
			"0.012": 2.10811181308,
			"0.013": 0.0,
			"0.014": 0.0,
			"0.015": 0.0,
			"0.016": 0.0,
			"0.017": 0.0,
			"0.018": 0.0,
			"0.019": 0.0,
			"0.02": 0.0,
			"0.021": 0.0,
			"0.022": 0.0,
			"0.023": 0.0,
			"0.024": 0.0,
			"0.025": 0.0
		}
	}
}
