{
	 "smiles": "NC1=C2C=CSC2=NC(S)=N1", 
	 "Tm": 549.15, 
	 "num_atms": 16, 
	 "gaussian": { 
		 "optdone": 1, 
		 "sigma_profile": "yes", 
		 "theory": "DFT", 
		 "functional": "B3LYP", 
		 "basiset": "6-31G**", 
		 "properties": { 
			 "R2extent": 3970.573, 
			 "electric_dipole_moment_norm": 5.29929110259, 
			 "electric_quadrupole_moment_norm": 17.8733616393, 
			 "total_energy": -1192.28855368, 
			 "HOMO_LUMO_gap": 0.18077, 
			 "cosmo_polarized_energy": -14.18, 
			 "cosmo_cavitation_energy": 23.86, 
			 "cosmo_dispersion_energy": -19.25, 
			 "cosmo_repulsion_energy": 1.45, 
			 "cosmo_total_nonelectrostatic_energy": 6.06, 
			 "SMD_solvation_energy": 0.38 
		},
		"coords": [
			{
				"x": -0.0827475999,
				"y": -1.0424380807,
				"z": 3.6989271032,
				"element": "N" 
			},
			{
				"x": 0.0778556845,
				"y": 0.1013188029,
				"z": 2.9713493103,
				"element": "C" 
			},
			{
				"x": -0.2446923351,
				"y": 0.1745307728,
				"z": 1.5905942847,
				"element": "C" 
			},
			{
				"x": -0.786418963,
				"y": -0.7796516687,
				"z": 0.663392676,
				"element": "C" 
			},
			{
				"x": -0.9407683356,
				"y": -0.2576304919,
				"z": -0.5829793154,
				"element": "C" 
			},
			{
				"x": -0.4348533198,
				"y": 1.4159234593,
				"z": -0.7020774135,
				"element": "S" 
			},
			{
				"x": 0.0081836039,
				"y": 1.4256457191,
				"z": 0.9974941758,
				"element": "C" 
			},
			{
				"x": 0.519035984,
				"y": 2.4935440099,
				"z": 1.616660569,
				"element": "N" 
			},
			{
				"x": 0.7850090484,
				"y": 2.2809153987,
				"z": 2.9039900448,
				"element": "C" 
			},
			{
				"x": 1.4744000052,
				"y": 3.6863195248,
				"z": 3.7536148967,
				"element": "S" 
			},
			{
				"x": 0.5899180451,
				"y": 1.158997602,
				"z": 3.6138013458,
				"element": "N" 
			},
			{
				"x": -0.710047678,
				"y": -1.7571312499,
				"z": 3.367809168,
				"element": "H" 
			},
			{
				"x": 0.0170614284,
				"y": -0.9457723272,
				"z": 4.6986312289,
				"element": "H" 
			},
			{
				"x": -1.0383029042,
				"y": -1.8058773245,
				"z": 0.9067033688,
				"element": "H" 
			},
			{
				"x": -1.3219653257,
				"y": -0.7570025935,
				"z": -1.4630610514,
				"element": "H" 
			},
			{
				"x": 1.5836326618,
				"y": 3.061308447,
				"z": 4.9410496082,
				"element": "H" 
			}
		],
		 "valence_orbital": [ 
			{
				"type": "occ",
				"energy": -0.28824,
				"method": "rhf"
			},
			{
				"type": "occ",
				"energy": -0.26742,
				"method": "rhf"
			},
			{
				"type": "occ",
				"energy": -0.26045,
				"method": "rhf"
			},
			{
				"type": "occ",
				"energy": -0.25155,
				"method": "rhf"
			},
			{
				"type": "occ",
				"energy": -0.21377,
				"method": "rhf"
			},
			{
				"type": "unocc",
				"energy": -0.033,
				"method": "rhf"
			},
			{
				"type": "unocc",
				"energy": -0.01859,
				"method": "rhf"
			},
			{
				"type": "unocc",
				"energy": 0.01852,
				"method": "rhf"
			},
			{
				"type": "unocc",
				"energy": 0.02915,
				"method": "rhf"
			},
			{
				"type": "unocc",
				"energy": 0.03094,
				"method": "rhf"
			}
		],
		"cosmo_sigma_profile": { 
			"-0.025": 0.0,
			"-0.024": 0.0,
			"-0.023": 0.0,
			"-0.022": 0.0,
			"-0.021": 0.0,
			"-0.02": 0.0,
			"-0.019": 0.0,
			"-0.018": 0.0,
			"-0.017": 0.0,
			"-0.016": 0.0,
			"-0.015": 0.40163591159,
			"-0.014": 2.07651759565,
			"-0.013": 2.55093568011,
			"-0.012": 3.16323425883,
			"-0.011": 3.3446174384,
			"-0.01": 3.73451031493,
			"-0.009": 5.67767155227,
			"-0.008": 5.89125308312,
			"-0.007": 6.1555425149,
			"-0.006": 5.62676807973,
			"-0.005": 5.51014650931,
			"-0.004": 5.58582391005,
			"-0.003": 5.43925857207,
			"-0.002": 8.12194977226,
			"-0.001": 9.10444497866,
			"0.0": 13.4162486064,
			"0.001": 17.6742695842,
			"0.002": 20.1859560593,
			"0.003": 21.6226508032,
			"0.004": 15.2475126735,
			"0.005": 10.2370535567,
			"0.006": 7.32125927612,
			"0.007": 6.35608199959,
			"0.008": 4.06996319968,
			"0.009": 2.66041551984,
			"0.01": 2.32763578192,
			"0.011": 1.683834358,
			"0.012": 0.618499337578,
			"0.013": 0.638257771297,
			"0.014": 0.316597818955,
			"0.015": 0.0,
			"0.016": 0.0,
			"0.017": 0.0,
			"0.018": 0.0,
			"0.019": 0.0,
			"0.02": 0.0,
			"0.021": 0.0,
			"0.022": 0.0,
			"0.023": 0.0,
			"0.024": 0.0,
			"0.025": 0.0
		}
	}
}
