{
	 "smiles": "CC(NC(C)=O)C1=CC=C(C=C1)C1=CSC(N)=N1", 
	 "Tm": 499.15, 
	 "num_atms": 33, 
	 "gaussian": { 
		 "optdone": 1, 
		 "sigma_profile": "yes", 
		 "theory": "DFT", 
		 "functional": "B3LYP", 
		 "basiset": "6-31G**", 
		 "properties": { 
			 "R2extent": 8747.9699, 
			 "electric_dipole_moment_norm": 4.82075384354, 
			 "electric_quadrupole_moment_norm": 22.2008484709, 
			 "total_energy": -1142.11519082, 
			 "HOMO_LUMO_gap": 0.1692, 
			 "cosmo_polarized_energy": -20.21, 
			 "cosmo_cavitation_energy": 38.67, 
			 "cosmo_dispersion_energy": -27.67, 
			 "cosmo_repulsion_energy": 2.11, 
			 "cosmo_total_nonelectrostatic_energy": 13.12, 
			 "SMD_solvation_energy": 5.95 
		},
		"coords": [
			{
				"x": 2.8808550394,
				"y": 2.0612724868,
				"z": -1.3912792102,
				"element": "C" 
			},
			{
				"x": 2.1277685492,
				"y": 1.5628169622,
				"z": -0.1456890672,
				"element": "C" 
			},
			{
				"x": 1.3376438121,
				"y": 2.668124831,
				"z": 0.3883251114,
				"element": "N" 
			},
			{
				"x": 0.8170678497,
				"y": 2.812805362,
				"z": 1.6532120006,
				"element": "C" 
			},
			{
				"x": 1.1890170408,
				"y": 1.7467202324,
				"z": 2.670421618,
				"element": "C" 
			},
			{
				"x": 0.1079381945,
				"y": 3.7709218548,
				"z": 1.9327367205,
				"element": "O" 
			},
			{
				"x": 1.3130512896,
				"y": 0.3096861187,
				"z": -0.4672758334,
				"element": "C" 
			},
			{
				"x": -0.0206210557,
				"y": 0.3810555177,
				"z": -0.8888462399,
				"element": "C" 
			},
			{
				"x": -0.7244892998,
				"y": -0.7699741677,
				"z": -1.2297375021,
				"element": "C" 
			},
			{
				"x": -0.1205698776,
				"y": -2.0366007651,
				"z": -1.1596253577,
				"element": "C" 
			},
			{
				"x": 1.2157685979,
				"y": -2.1068315987,
				"z": -0.7333133036,
				"element": "C" 
			},
			{
				"x": 1.9151051764,
				"y": -0.9520434522,
				"z": -0.3924892718,
				"element": "C" 
			},
			{
				"x": -0.8454881605,
				"y": -3.2728418248,
				"z": -1.5098587323,
				"element": "C" 
			},
			{
				"x": -2.1539750218,
				"y": -3.3635913218,
				"z": -1.9018893262,
				"element": "C" 
			},
			{
				"x": -2.5864809609,
				"y": -5.0226372058,
				"z": -2.222080375,
				"element": "S" 
			},
			{
				"x": -0.9359081505,
				"y": -5.4777166215,
				"z": -1.7724470869,
				"element": "C" 
			},
			{
				"x": -0.5120869958,
				"y": -6.7844841292,
				"z": -1.8601889567,
				"element": "N" 
			},
			{
				"x": -0.1697208267,
				"y": -4.4849634805,
				"z": -1.4361212307,
				"element": "N" 
			},
			{
				"x": 3.5114092099,
				"y": 2.9209174241,
				"z": -1.1436692666,
				"element": "H" 
			},
			{
				"x": 3.5110302511,
				"y": 1.2675303229,
				"z": -1.7996397533,
				"element": "H" 
			},
			{
				"x": 2.1730561669,
				"y": 2.3573806396,
				"z": -2.1737123664,
				"element": "H" 
			},
			{
				"x": 2.8776697575,
				"y": 1.2865925211,
				"z": 0.605839355,
				"element": "H" 
			},
			{
				"x": 1.0511789989,
				"y": 3.4014484827,
				"z": -0.2474554928,
				"element": "H" 
			},
			{
				"x": 0.6559485829,
				"y": 1.9645746318,
				"z": 3.5953344574,
				"element": "H" 
			},
			{
				"x": 2.2666921746,
				"y": 1.7556824776,
				"z": 2.8697903462,
				"element": "H" 
			},
			{
				"x": 0.9249644995,
				"y": 0.744576268,
				"z": 2.3192105574,
				"element": "H" 
			},
			{
				"x": -0.5168056036,
				"y": 1.3458523089,
				"z": -0.9369799108,
				"element": "H" 
			},
			{
				"x": -1.7569822996,
				"y": -0.6757758739,
				"z": -1.5524576488,
				"element": "H" 
			},
			{
				"x": 1.6898189556,
				"y": -3.0794450215,
				"z": -0.6687591137,
				"element": "H" 
			},
			{
				"x": 2.9480777969,
				"y": -1.0346332715,
				"z": -0.0597749282,
				"element": "H" 
			},
			{
				"x": -2.8902128679,
				"y": -2.5826856613,
				"z": -2.0151860804,
				"element": "H" 
			},
			{
				"x": 0.3765177892,
				"y": -6.9411444778,
				"z": -1.4025461717,
				"element": "H" 
			},
			{
				"x": -1.1993386122,
				"y": -7.5011895692,
				"z": -1.6756479402,
				"element": "H" 
			}
		],
		 "valence_orbital": [ 
			{
				"type": "occ",
				"energy": -0.25379,
				"method": "rhf"
			},
			{
				"type": "occ",
				"energy": -0.25121,
				"method": "rhf"
			},
			{
				"type": "occ",
				"energy": -0.24118,
				"method": "rhf"
			},
			{
				"type": "occ",
				"energy": -0.23688,
				"method": "rhf"
			},
			{
				"type": "occ",
				"energy": -0.20308,
				"method": "rhf"
			},
			{
				"type": "unocc",
				"energy": -0.03388,
				"method": "rhf"
			},
			{
				"type": "unocc",
				"energy": -0.0043,
				"method": "rhf"
			},
			{
				"type": "unocc",
				"energy": 0.00617,
				"method": "rhf"
			},
			{
				"type": "unocc",
				"energy": 0.01347,
				"method": "rhf"
			},
			{
				"type": "unocc",
				"energy": 0.03681,
				"method": "rhf"
			}
		],
		"cosmo_sigma_profile": { 
			"-0.025": 0.0,
			"-0.024": 0.0,
			"-0.023": 0.0,
			"-0.022": 0.0,
			"-0.021": 0.0,
			"-0.02": 0.0,
			"-0.019": 0.0,
			"-0.018": 0.0,
			"-0.017": 0.0,
			"-0.016": 0.0,
			"-0.015": 0.314662308758,
			"-0.014": 2.03943202354,
			"-0.013": 2.83858611978,
			"-0.012": 3.13704538929,
			"-0.011": 3.78528932424,
			"-0.01": 3.6662086562,
			"-0.009": 4.25480996327,
			"-0.008": 5.70957389648,
			"-0.007": 5.79288688633,
			"-0.006": 11.9627468587,
			"-0.005": 16.784230604,
			"-0.004": 21.2308574731,
			"-0.003": 23.4074807617,
			"-0.002": 22.8748665096,
			"-0.001": 24.1268005608,
			"0.0": 22.703304273,
			"0.001": 16.8172557723,
			"0.002": 17.6892870016,
			"0.003": 18.3104719751,
			"0.004": 25.1825977577,
			"0.005": 17.1995104943,
			"0.006": 7.17396607612,
			"0.007": 3.41501373561,
			"0.008": 4.36559944603,
			"0.009": 3.12204444144,
			"0.01": 3.43345307513,
			"0.011": 3.33066140597,
			"0.012": 2.05147383912,
			"0.013": 2.8682477513,
			"0.014": 5.88323531477,
			"0.015": 2.97587121678,
			"0.016": 0.197615327947,
			"0.017": 0.0,
			"0.018": 0.0,
			"0.019": 0.0,
			"0.02": 0.0,
			"0.021": 0.0,
			"0.022": 0.0,
			"0.023": 0.0,
			"0.024": 0.0,
			"0.025": 0.0
		}
	}
}
