{
	 "smiles": "CC1=C(CCC(O)=O)C(C)=NS(=O)(=O)N1", 
	 "Tm": 436.15, 
	 "num_atms": 27, 
	 "gaussian": { 
		 "optdone": 1, 
		 "sigma_profile": "yes", 
		 "theory": "DFT", 
		 "functional": "B3LYP", 
		 "basiset": "6-31G**", 
		 "properties": { 
			 "R2extent": 4500.5557, 
			 "electric_dipole_moment_norm": 7.61522587584, 
			 "electric_quadrupole_moment_norm": 32.7033109971, 
			 "total_energy": -1120.60129713, 
			 "HOMO_LUMO_gap": 0.17279, 
			 "cosmo_polarized_energy": -27.15, 
			 "cosmo_cavitation_energy": 31.21, 
			 "cosmo_dispersion_energy": -22.87, 
			 "cosmo_repulsion_energy": 1.75, 
			 "cosmo_total_nonelectrostatic_energy": 10.09, 
			 "SMD_solvation_energy": 4.59 
		},
		"coords": [
			{
				"x": -0.4881619587,
				"y": 0.1160594608,
				"z": 1.9752852296,
				"element": "C" 
			},
			{
				"x": -0.919154205,
				"y": 0.9211911206,
				"z": 0.7775714505,
				"element": "C" 
			},
			{
				"x": -0.2608523295,
				"y": 0.9880791285,
				"z": -0.4341900159,
				"element": "C" 
			},
			{
				"x": 1.0595927522,
				"y": 0.2747126251,
				"z": -0.6715796671,
				"element": "C" 
			},
			{
				"x": 0.9584938674,
				"y": -1.1820568257,
				"z": -1.2110308966,
				"element": "C" 
			},
			{
				"x": 0.4663543641,
				"y": -2.1669523715,
				"z": -0.1764977379,
				"element": "C" 
			},
			{
				"x": 1.4507237787,
				"y": -2.499240882,
				"z": 0.7025065075,
				"element": "O" 
			},
			{
				"x": -0.6574455842,
				"y": -2.607973907,
				"z": -0.0850960864,
				"element": "O" 
			},
			{
				"x": -0.8847644296,
				"y": 1.7043438326,
				"z": -1.5305480897,
				"element": "C" 
			},
			{
				"x": -0.3050083367,
				"y": 1.6106187746,
				"z": -2.9246186416,
				"element": "C" 
			},
			{
				"x": -1.9609583887,
				"y": 2.4535986814,
				"z": -1.4668133043,
				"element": "N" 
			},
			{
				"x": -2.6131172177,
				"y": 2.8881188969,
				"z": -0.0265249868,
				"element": "S" 
			},
			{
				"x": -4.0656552137,
				"y": 2.8088213714,
				"z": -0.0559746782,
				"element": "O" 
			},
			{
				"x": -1.97024321,
				"y": 4.1062697724,
				"z": 0.4562435575,
				"element": "O" 
			},
			{
				"x": -2.1004692661,
				"y": 1.5830622199,
				"z": 0.9665143864,
				"element": "N" 
			},
			{
				"x": 0.4813825187,
				"y": -0.3583518983,
				"z": 1.840690024,
				"element": "H" 
			},
			{
				"x": -1.2219623851,
				"y": -0.6739283348,
				"z": 2.1712301027,
				"element": "H" 
			},
			{
				"x": -0.4384231459,
				"y": 0.7610080852,
				"z": 2.859341114,
				"element": "H" 
			},
			{
				"x": 1.6630837945,
				"y": 0.268543055,
				"z": 0.2400409166,
				"element": "H" 
			},
			{
				"x": 1.6468551751,
				"y": 0.8440366587,
				"z": -1.3965926819,
				"element": "H" 
			},
			{
				"x": 0.269291125,
				"y": -1.2336582995,
				"z": -2.0555675412,
				"element": "H" 
			},
			{
				"x": 1.9511249364,
				"y": -1.5005871355,
				"z": -1.5451802809,
				"element": "H" 
			},
			{
				"x": 1.0527752089,
				"y": -3.1254784069,
				"z": 1.3309311508,
				"element": "H" 
			},
			{
				"x": -0.9931286444,
				"y": 2.0832212772,
				"z": -3.6250094584,
				"element": "H" 
			},
			{
				"x": 0.6532583349,
				"y": 2.1414525324,
				"z": -2.9719217262,
				"element": "H" 
			},
			{
				"x": -0.1258543347,
				"y": 0.5776130972,
				"z": -3.2341361108,
				"element": "H" 
			},
			{
				"x": -2.619037206,
				"y": 1.4651774716,
				"z": 1.8289274643,
				"element": "H" 
			}
		],
		 "valence_orbital": [ 
			{
				"type": "occ",
				"energy": -0.30202,
				"method": "rhf"
			},
			{
				"type": "occ",
				"energy": -0.2962,
				"method": "rhf"
			},
			{
				"type": "occ",
				"energy": -0.29024,
				"method": "rhf"
			},
			{
				"type": "occ",
				"energy": -0.28539,
				"method": "rhf"
			},
			{
				"type": "occ",
				"energy": -0.23836,
				"method": "rhf"
			},
			{
				"type": "unocc",
				"energy": -0.06557,
				"method": "rhf"
			},
			{
				"type": "unocc",
				"energy": -0.01401,
				"method": "rhf"
			},
			{
				"type": "unocc",
				"energy": 0.02911,
				"method": "rhf"
			},
			{
				"type": "unocc",
				"energy": 0.04372,
				"method": "rhf"
			},
			{
				"type": "unocc",
				"energy": 0.06138,
				"method": "rhf"
			}
		],
		"cosmo_sigma_profile": { 
			"-0.025": 0.0,
			"-0.024": 0.0,
			"-0.023": 0.0,
			"-0.022": 0.0,
			"-0.021": 0.0,
			"-0.02": 0.0,
			"-0.019": 0.0152926653333,
			"-0.018": 0.779598057662,
			"-0.017": 2.15611294426,
			"-0.016": 2.47863609621,
			"-0.015": 1.27250847471,
			"-0.014": 1.66272866094,
			"-0.013": 2.27711173714,
			"-0.012": 2.23951257565,
			"-0.011": 1.62742794433,
			"-0.01": 1.76891178297,
			"-0.009": 1.58713386395,
			"-0.008": 3.64993620549,
			"-0.007": 10.7349985047,
			"-0.006": 15.6709661081,
			"-0.005": 19.4893934802,
			"-0.004": 19.133666268,
			"-0.003": 20.1195142176,
			"-0.002": 17.8798626673,
			"-0.001": 13.580740626,
			"0.0": 10.1244701444,
			"0.001": 8.00132440929,
			"0.002": 7.25978721653,
			"0.003": 5.36055021305,
			"0.004": 6.15370695902,
			"0.005": 4.6543594494,
			"0.006": 5.98594790979,
			"0.007": 6.54138454558,
			"0.008": 6.26876625864,
			"0.009": 9.6226733092,
			"0.01": 15.0325036431,
			"0.011": 17.1576344362,
			"0.012": 5.20506807064,
			"0.013": 0.967370828635,
			"0.014": 0.0,
			"0.015": 0.0,
			"0.016": 0.0,
			"0.017": 0.0,
			"0.018": 0.0,
			"0.019": 0.0,
			"0.02": 0.0,
			"0.021": 0.0,
			"0.022": 0.0,
			"0.023": 0.0,
			"0.024": 0.0,
			"0.025": 0.0
		}
	}
}
