{
	 "smiles": "OC(=O)C1=C(F)C(F)=C(O)C=C1", 
	 "Tm": 480.15, 
	 "num_atms": 16, 
	 "gaussian": { 
		 "optdone": 1, 
		 "sigma_profile": "yes", 
		 "theory": "DFT", 
		 "functional": "B3LYP", 
		 "basiset": "6-31G**", 
		 "properties": { 
			 "R2extent": 2616.688, 
			 "electric_dipole_moment_norm": 4.6546350437, 
			 "electric_quadrupole_moment_norm": 3.00540581619, 
			 "total_energy": -694.493361197, 
			 "HOMO_LUMO_gap": 0.20207, 
			 "cosmo_polarized_energy": -13.4, 
			 "cosmo_cavitation_energy": 21.88, 
			 "cosmo_dispersion_energy": -16.41, 
			 "cosmo_repulsion_energy": 1.25, 
			 "cosmo_total_nonelectrostatic_energy": 6.72, 
			 "SMD_solvation_energy": 6.24 
		},
		"coords": [
			{
				"x": -1.8714719768,
				"y": 0.286793102,
				"z": 0.7922083926,
				"element": "O" 
			},
			{
				"x": -1.0631680576,
				"y": 0.61039294,
				"z": -0.239462125,
				"element": "C" 
			},
			{
				"x": -1.5325238887,
				"y": 0.9331043951,
				"z": -1.306703235,
				"element": "O" 
			},
			{
				"x": 0.4222815467,
				"y": 0.5554571621,
				"z": -0.0155432833,
				"element": "C" 
			},
			{
				"x": 1.0525011228,
				"y": 0.1947244065,
				"z": 1.1790692441,
				"element": "C" 
			},
			{
				"x": 0.3377008323,
				"y": -0.1507935527,
				"z": 2.2833217066,
				"element": "F" 
			},
			{
				"x": 2.4329433966,
				"y": 0.1729760159,
				"z": 1.2918806048,
				"element": "C" 
			},
			{
				"x": 3.0276993011,
				"y": -0.1786782399,
				"z": 2.4556423125,
				"element": "F" 
			},
			{
				"x": 3.2472386457,
				"y": 0.5132236283,
				"z": 0.2080123631,
				"element": "C" 
			},
			{
				"x": 4.5941563509,
				"y": 0.4912646252,
				"z": 0.3204771802,
				"element": "O" 
			},
			{
				"x": 2.6399379035,
				"y": 0.8780415587,
				"z": -0.9992422177,
				"element": "C" 
			},
			{
				"x": 1.255538722,
				"y": 0.8947758225,
				"z": -1.0959422844,
				"element": "C" 
			},
			{
				"x": -1.3543329534,
				"y": 0.0509357487,
				"z": 1.5773819494,
				"element": "H" 
			},
			{
				"x": 4.8260338399,
				"y": 0.2170890535,
				"z": 1.2205400582,
				"element": "H" 
			},
			{
				"x": 3.2707647836,
				"y": 1.1420852466,
				"z": -1.8404393592,
				"element": "H" 
			},
			{
				"x": 0.7650004313,
				"y": 1.1742080875,
				"z": -2.0215013068,
				"element": "H" 
			}
		],
		 "valence_orbital": [ 
			{
				"type": "occ",
				"energy": -0.36082,
				"method": "rhf"
			},
			{
				"type": "occ",
				"energy": -0.31433,
				"method": "rhf"
			},
			{
				"type": "occ",
				"energy": -0.27899,
				"method": "rhf"
			},
			{
				"type": "occ",
				"energy": -0.27662,
				"method": "rhf"
			},
			{
				"type": "occ",
				"energy": -0.25711,
				"method": "rhf"
			},
			{
				"type": "unocc",
				"energy": -0.05504,
				"method": "rhf"
			},
			{
				"type": "unocc",
				"energy": -0.02765,
				"method": "rhf"
			},
			{
				"type": "unocc",
				"energy": 0.02391,
				"method": "rhf"
			},
			{
				"type": "unocc",
				"energy": 0.05138,
				"method": "rhf"
			},
			{
				"type": "unocc",
				"energy": 0.07158,
				"method": "rhf"
			}
		],
		"cosmo_sigma_profile": { 
			"-0.025": 0.0,
			"-0.024": 0.0,
			"-0.023": 0.0,
			"-0.022": 0.0,
			"-0.021": 0.0,
			"-0.02": 0.0,
			"-0.019": 0.0,
			"-0.018": 0.198791067838,
			"-0.017": 0.839565572276,
			"-0.016": 0.879216312325,
			"-0.015": 0.732713627574,
			"-0.014": 1.10781405829,
			"-0.013": 0.82539494351,
			"-0.012": 2.12479195204,
			"-0.011": 2.33704311337,
			"-0.01": 2.93084665735,
			"-0.009": 2.90804713543,
			"-0.008": 3.51056080883,
			"-0.007": 5.94315392088,
			"-0.006": 6.11467108328,
			"-0.005": 6.4905961897,
			"-0.004": 7.30106635847,
			"-0.003": 11.7429220467,
			"-0.002": 13.7799360005,
			"-0.001": 12.491565404,
			"0.0": 13.206350507,
			"0.001": 16.1698557939,
			"0.002": 16.3466483453,
			"0.003": 9.27807702027,
			"0.004": 2.94016184436,
			"0.005": 3.50366559688,
			"0.006": 3.29846309499,
			"0.007": 4.13091457657,
			"0.008": 4.1908795518,
			"0.009": 4.81827970237,
			"0.01": 5.28561778133,
			"0.011": 5.6155877683,
			"0.012": 4.0721514885,
			"0.013": 1.48934710609,
			"0.014": 0.0485407280055,
			"0.015": 0.0,
			"0.016": 0.0,
			"0.017": 0.0,
			"0.018": 0.0,
			"0.019": 0.0,
			"0.02": 0.0,
			"0.021": 0.0,
			"0.022": 0.0,
			"0.023": 0.0,
			"0.024": 0.0,
			"0.025": 0.0
		}
	}
}
