{
	 "smiles": "COC1=C(C)C=C(C=C1)C(=O)C1=CC(C)=CC=C1", 
	 "Tm": 335.45, 
	 "num_atms": 34, 
	 "gaussian": { 
		 "optdone": 1, 
		 "sigma_profile": "yes", 
		 "theory": "DFT", 
		 "functional": "B3LYP", 
		 "basiset": "6-31G**", 
		 "properties": { 
			 "R2extent": 6732.8029, 
			 "electric_dipole_moment_norm": 2.914715734, 
			 "electric_quadrupole_moment_norm": 23.0660739668, 
			 "total_energy": -769.801954682, 
			 "HOMO_LUMO_gap": 0.16834, 
			 "cosmo_polarized_energy": -11.14, 
			 "cosmo_cavitation_energy": 37.53, 
			 "cosmo_dispersion_energy": -26.74, 
			 "cosmo_repulsion_energy": 2.07, 
			 "cosmo_total_nonelectrostatic_energy": 12.87, 
			 "SMD_solvation_energy": 7.6 
		},
		"coords": [
			{
				"x": 3.4350171326,
				"y": -3.6712065212,
				"z": 1.6915825018,
				"element": "C" 
			},
			{
				"x": 2.0722586352,
				"y": -3.2826262671,
				"z": 1.7893461829,
				"element": "O" 
			},
			{
				"x": 1.5645230215,
				"y": -2.4345831925,
				"z": 0.8512787034,
				"element": "C" 
			},
			{
				"x": 0.1985375714,
				"y": -2.1120200195,
				"z": 1.0096762205,
				"element": "C" 
			},
			{
				"x": -0.5890975615,
				"y": -2.7152140884,
				"z": 2.1446389828,
				"element": "C" 
			},
			{
				"x": -0.3795005183,
				"y": -1.2386395081,
				"z": 0.0926964307,
				"element": "C" 
			},
			{
				"x": 0.349239711,
				"y": -0.6874701851,
				"z": -0.9778103303,
				"element": "C" 
			},
			{
				"x": 1.6941974663,
				"y": -1.0495703286,
				"z": -1.1228978846,
				"element": "C" 
			},
			{
				"x": 2.3069363539,
				"y": -1.9046138205,
				"z": -0.2125611268,
				"element": "C" 
			},
			{
				"x": -0.2522805884,
				"y": 0.1970395699,
				"z": -2.0210985258,
				"element": "C" 
			},
			{
				"x": 0.2501206131,
				"y": 0.2568583534,
				"z": -3.1406390011,
				"element": "O" 
			},
			{
				"x": -1.4716259327,
				"y": 1.0216784636,
				"z": -1.717209994,
				"element": "C" 
			},
			{
				"x": -2.3281239904,
				"y": 1.3330956885,
				"z": -2.784826197,
				"element": "C" 
			},
			{
				"x": -3.4561826027,
				"y": 2.1358449669,
				"z": -2.6075743264,
				"element": "C" 
			},
			{
				"x": -4.3944908182,
				"y": 2.427085752,
				"z": -3.7556291164,
				"element": "C" 
			},
			{
				"x": -3.7032551203,
				"y": 2.6594288368,
				"z": -1.3282855838,
				"element": "C" 
			},
			{
				"x": -2.8477074646,
				"y": 2.3824743272,
				"z": -0.2634699803,
				"element": "C" 
			},
			{
				"x": -1.7356307737,
				"y": 1.5598033317,
				"z": -0.4498010251,
				"element": "C" 
			},
			{
				"x": 3.6367552439,
				"y": -4.2016264307,
				"z": 0.7527429312,
				"element": "H" 
			},
			{
				"x": 4.1073688719,
				"y": -2.8076976788,
				"z": 1.7686853761,
				"element": "H" 
			},
			{
				"x": 3.6160811533,
				"y": -4.3439415051,
				"z": 2.5311219532,
				"element": "H" 
			},
			{
				"x": -0.1577999372,
				"y": -2.4465488072,
				"z": 3.11529166,
				"element": "H" 
			},
			{
				"x": -1.6271843705,
				"y": -2.3738361409,
				"z": 2.1220212065,
				"element": "H" 
			},
			{
				"x": -0.5839616906,
				"y": -3.8095674221,
				"z": 2.0949990107,
				"element": "H" 
			},
			{
				"x": -1.4335739975,
				"y": -1.0033762215,
				"z": 0.2005444653,
				"element": "H" 
			},
			{
				"x": 2.2501894263,
				"y": -0.6483837116,
				"z": -1.9635493102,
				"element": "H" 
			},
			{
				"x": 3.3531032507,
				"y": -2.1572515554,
				"z": -0.3379943135,
				"element": "H" 
			},
			{
				"x": -2.0850789074,
				"y": 0.9346408942,
				"z": -3.7652743349,
				"element": "H" 
			},
			{
				"x": -5.2972113823,
				"y": 1.8062826362,
				"z": -3.6973152721,
				"element": "H" 
			},
			{
				"x": -4.720989212,
				"y": 3.4721731937,
				"z": -3.7503888438,
				"element": "H" 
			},
			{
				"x": -3.919028734,
				"y": 2.2251738608,
				"z": -4.7192680583,
				"element": "H" 
			},
			{
				"x": -4.5699116047,
				"y": 3.2973179209,
				"z": -1.1704810478,
				"element": "H" 
			},
			{
				"x": -3.0430498884,
				"y": 2.8139400371,
				"z": 0.7142358536,
				"element": "H" 
			},
			{
				"x": -1.0614433556,
				"y": 1.3639355713,
				"z": 0.3770127935,
				"element": "H" 
			}
		],
		 "valence_orbital": [ 
			{
				"type": "occ",
				"energy": -0.25255,
				"method": "rhf"
			},
			{
				"type": "occ",
				"energy": -0.25029,
				"method": "rhf"
			},
			{
				"type": "occ",
				"energy": -0.24268,
				"method": "rhf"
			},
			{
				"type": "occ",
				"energy": -0.23692,
				"method": "rhf"
			},
			{
				"type": "occ",
				"energy": -0.22033,
				"method": "rhf"
			},
			{
				"type": "unocc",
				"energy": -0.05199,
				"method": "rhf"
			},
			{
				"type": "unocc",
				"energy": -0.00506,
				"method": "rhf"
			},
			{
				"type": "unocc",
				"energy": -0.0006,
				"method": "rhf"
			},
			{
				"type": "unocc",
				"energy": 0.00348,
				"method": "rhf"
			},
			{
				"type": "unocc",
				"energy": 0.06493,
				"method": "rhf"
			}
		],
		"cosmo_sigma_profile": { 
			"-0.025": 0.0,
			"-0.024": 0.0,
			"-0.023": 0.0,
			"-0.022": 0.0,
			"-0.021": 0.0,
			"-0.02": 0.0,
			"-0.019": 0.0,
			"-0.018": 0.0,
			"-0.017": 0.0,
			"-0.016": 0.0,
			"-0.015": 0.0,
			"-0.014": 0.0,
			"-0.013": 0.0,
			"-0.012": 0.0,
			"-0.011": 0.0,
			"-0.01": 0.0,
			"-0.009": 0.0,
			"-0.008": 0.0,
			"-0.007": 1.25715962807,
			"-0.006": 12.4185810334,
			"-0.005": 21.9650444266,
			"-0.004": 33.0167055571,
			"-0.003": 29.0063450702,
			"-0.002": 27.0153805373,
			"-0.001": 25.9704836312,
			"0.0": 29.857169849,
			"0.001": 21.1776420119,
			"0.002": 18.9805198042,
			"0.003": 18.3381846601,
			"0.004": 22.7403567898,
			"0.005": 12.4800947094,
			"0.006": 4.08708481456,
			"0.007": 3.26980067423,
			"0.008": 3.52815548935,
			"0.009": 2.03736538259,
			"0.01": 1.8363406165,
			"0.011": 2.45488029761,
			"0.012": 3.70605393069,
			"0.013": 3.06627253745,
			"0.014": 0.0914152948102,
			"0.015": 0.0,
			"0.016": 0.0,
			"0.017": 0.0,
			"0.018": 0.0,
			"0.019": 0.0,
			"0.02": 0.0,
			"0.021": 0.0,
			"0.022": 0.0,
			"0.023": 0.0,
			"0.024": 0.0,
			"0.025": 0.0
		}
	}
}
