{
	 "smiles": "CC1=C(Cl)C=C(C(=O)CC(=O)C2=CC=CC=C2)C(O)=C1", 
	 "Tm": 395.15, 
	 "num_atms": 33, 
	 "gaussian": { 
		 "optdone": 1, 
		 "sigma_profile": "yes", 
		 "theory": "DFT", 
		 "functional": "B3LYP", 
		 "basiset": "6-31G**", 
		 "properties": { 
			 "R2extent": 8639.302, 
			 "electric_dipole_moment_norm": 1.72995795903, 
			 "electric_quadrupole_moment_norm": 17.6569192755, 
			 "total_energy": -1303.42310168, 
			 "HOMO_LUMO_gap": 0.145, 
			 "cosmo_polarized_energy": -10.61, 
			 "cosmo_cavitation_energy": 38.7, 
			 "cosmo_dispersion_energy": -27.79, 
			 "cosmo_repulsion_energy": 2.1, 
			 "cosmo_total_nonelectrostatic_energy": 13.0, 
			 "SMD_solvation_energy": 7.25 
		},
		"coords": [
			{
				"x": 4.2680949768,
				"y": -1.2876764071,
				"z": 4.4462945097,
				"element": "C" 
			},
			{
				"x": 3.1533436335,
				"y": -1.1067177235,
				"z": 3.4521370624,
				"element": "C" 
			},
			{
				"x": 3.1033201642,
				"y": -1.8483637078,
				"z": 2.2479898575,
				"element": "C" 
			},
			{
				"x": 4.377778719,
				"y": -3.0114878824,
				"z": 1.8889300126,
				"element": "Cl" 
			},
			{
				"x": 2.0776209692,
				"y": -1.6884384982,
				"z": 1.3377006488,
				"element": "C" 
			},
			{
				"x": 1.0362529206,
				"y": -0.7653500596,
				"z": 1.5837943998,
				"element": "C" 
			},
			{
				"x": -0.0800883023,
				"y": -0.5742426786,
				"z": 0.6564036879,
				"element": "C" 
			},
			{
				"x": -0.962525714,
				"y": 0.2745133982,
				"z": 0.8760778073,
				"element": "O" 
			},
			{
				"x": -0.2027729154,
				"y": -1.4298883399,
				"z": -0.6039554907,
				"element": "C" 
			},
			{
				"x": 0.7563407755,
				"y": -1.0174187049,
				"z": -1.7382147452,
				"element": "C" 
			},
			{
				"x": 1.7771661924,
				"y": -1.6648811148,
				"z": -1.9179260453,
				"element": "O" 
			},
			{
				"x": 0.410994201,
				"y": 0.1482093258,
				"z": -2.6023086447,
				"element": "C" 
			},
			{
				"x": -0.6957548753,
				"y": 0.9783216162,
				"z": -2.3584629342,
				"element": "C" 
			},
			{
				"x": -0.9580907097,
				"y": 2.0561176599,
				"z": -3.2042952705,
				"element": "C" 
			},
			{
				"x": -0.1288311422,
				"y": 2.3083268003,
				"z": -4.2985118896,
				"element": "C" 
			},
			{
				"x": 0.9758967649,
				"y": 1.4862786865,
				"z": -4.54576062,
				"element": "C" 
			},
			{
				"x": 1.246691703,
				"y": 0.4158544172,
				"z": -3.7010869027,
				"element": "C" 
			},
			{
				"x": 1.0783547821,
				"y": 0.0000580114,
				"z": 2.7847166102,
				"element": "C" 
			},
			{
				"x": 0.1441381785,
				"y": 0.9052136611,
				"z": 3.0940260223,
				"element": "O" 
			},
			{
				"x": 2.1322553097,
				"y": -0.1931412028,
				"z": 3.6911091287,
				"element": "C" 
			},
			{
				"x": 4.1326673936,
				"y": -0.6305790005,
				"z": 5.3079141409,
				"element": "H" 
			},
			{
				"x": 5.239485115,
				"y": -1.0697394774,
				"z": 3.9898523257,
				"element": "H" 
			},
			{
				"x": 4.3136299077,
				"y": -2.3231038564,
				"z": 4.8002764737,
				"element": "H" 
			},
			{
				"x": 2.096856892,
				"y": -2.2538258501,
				"z": 0.4133277512,
				"element": "H" 
			},
			{
				"x": -1.2413748406,
				"y": -1.3530077923,
				"z": -0.9305006375,
				"element": "H" 
			},
			{
				"x": 0.0220838382,
				"y": -2.47390894,
				"z": -0.3787571687,
				"element": "H" 
			},
			{
				"x": -1.3353316562,
				"y": 0.8063397871,
				"z": -1.4995237738,
				"element": "H" 
			},
			{
				"x": -1.8106279517,
				"y": 2.6991544138,
				"z": -3.0074378985,
				"element": "H" 
			},
			{
				"x": -0.3404475328,
				"y": 3.1455198812,
				"z": -4.9576814956,
				"element": "H" 
			},
			{
				"x": 1.6224734903,
				"y": 1.6842204168,
				"z": -5.3955556544,
				"element": "H" 
			},
			{
				"x": 2.0997732529,
				"y": -0.232906278,
				"z": -3.8683518119,
				"element": "H" 
			},
			{
				"x": -0.5014614592,
				"y": 0.9087643528,
				"z": 2.3404222412,
				"element": "H" 
			},
			{
				"x": 2.1304879194,
				"y": 0.4010850858,
				"z": 4.5990583035,
				"element": "H" 
			}
		],
		 "valence_orbital": [ 
			{
				"type": "occ",
				"energy": -0.26818,
				"method": "rhf"
			},
			{
				"type": "occ",
				"energy": -0.26653,
				"method": "rhf"
			},
			{
				"type": "occ",
				"energy": -0.26432,
				"method": "rhf"
			},
			{
				"type": "occ",
				"energy": -0.26142,
				"method": "rhf"
			},
			{
				"type": "occ",
				"energy": -0.22689,
				"method": "rhf"
			},
			{
				"type": "unocc",
				"energy": -0.08189,
				"method": "rhf"
			},
			{
				"type": "unocc",
				"energy": -0.06059,
				"method": "rhf"
			},
			{
				"type": "unocc",
				"energy": -0.01441,
				"method": "rhf"
			},
			{
				"type": "unocc",
				"energy": -0.00696,
				"method": "rhf"
			},
			{
				"type": "unocc",
				"energy": 0.02043,
				"method": "rhf"
			}
		],
		"cosmo_sigma_profile": { 
			"-0.025": 0.0,
			"-0.024": 0.0,
			"-0.023": 0.0,
			"-0.022": 0.0,
			"-0.021": 0.0,
			"-0.02": 0.0,
			"-0.019": 0.0,
			"-0.018": 0.0,
			"-0.017": 0.0,
			"-0.016": 0.0,
			"-0.015": 0.0,
			"-0.014": 0.0,
			"-0.013": 0.0,
			"-0.012": 0.0,
			"-0.011": 0.0,
			"-0.01": 0.0,
			"-0.009": 0.0,
			"-0.008": 1.20159108333,
			"-0.007": 9.33463727187,
			"-0.006": 16.5365527968,
			"-0.005": 23.0827682448,
			"-0.004": 25.7049763189,
			"-0.003": 21.9356614774,
			"-0.002": 23.2926478882,
			"-0.001": 24.7406451018,
			"0.0": 24.3231802836,
			"0.001": 28.7555402395,
			"0.002": 30.8552593079,
			"0.003": 25.9067066178,
			"0.004": 21.115716719,
			"0.005": 9.30693688787,
			"0.006": 3.83346110043,
			"0.007": 3.8061012083,
			"0.008": 4.22576967068,
			"0.009": 4.87741585993,
			"0.01": 4.71903189983,
			"0.011": 4.49038796611,
			"0.012": 0.285439645761,
			"0.013": 0.0,
			"0.014": 0.0,
			"0.015": 0.0,
			"0.016": 0.0,
			"0.017": 0.0,
			"0.018": 0.0,
			"0.019": 0.0,
			"0.02": 0.0,
			"0.021": 0.0,
			"0.022": 0.0,
			"0.023": 0.0,
			"0.024": 0.0,
			"0.025": 0.0
		}
	}
}
