{
	 "smiles": "OC(=O)CC1=NN(C=C1)C1=CC=C(F)C=C1", 
	 "Tm": 371.15, 
	 "num_atms": 25, 
	 "gaussian": { 
		 "optdone": 1, 
		 "sigma_profile": "yes", 
		 "theory": "DFT", 
		 "functional": "B3LYP", 
		 "basiset": "6-31G**", 
		 "properties": { 
			 "R2extent": 5827.2461, 
			 "electric_dipole_moment_norm": 0.989707173865, 
			 "electric_quadrupole_moment_norm": 12.1359809484, 
			 "total_energy": -784.374440854, 
			 "HOMO_LUMO_gap": 0.1978, 
			 "cosmo_polarized_energy": -13.21, 
			 "cosmo_cavitation_energy": 31.0, 
			 "cosmo_dispersion_energy": -22.54, 
			 "cosmo_repulsion_energy": 1.72, 
			 "cosmo_total_nonelectrostatic_energy": 10.18, 
			 "SMD_solvation_energy": 6.49 
		},
		"coords": [
			{
				"x": -2.5989856322,
				"y": -2.9708287441,
				"z": 1.9837223014,
				"element": "O" 
			},
			{
				"x": -2.1465003477,
				"y": -2.5595612324,
				"z": 0.7750746692,
				"element": "C" 
			},
			{
				"x": -1.982959792,
				"y": -3.3209295118,
				"z": -0.1521147849,
				"element": "O" 
			},
			{
				"x": -1.9445311673,
				"y": -1.0560363602,
				"z": 0.7564625504,
				"element": "C" 
			},
			{
				"x": -0.981927969,
				"y": -0.5665994504,
				"z": -0.2845616519,
				"element": "C" 
			},
			{
				"x": -0.0986949396,
				"y": 0.3730713194,
				"z": 0.0480457431,
				"element": "N" 
			},
			{
				"x": 0.5881804999,
				"y": 0.6366279605,
				"z": -1.093036777,
				"element": "N" 
			},
			{
				"x": 0.1485034113,
				"y": -0.1339030097,
				"z": -2.1349031101,
				"element": "C" 
			},
			{
				"x": -0.8706800882,
				"y": -0.9225457408,
				"z": -1.6523528485,
				"element": "C" 
			},
			{
				"x": 1.6327834506,
				"y": 1.5958051339,
				"z": -1.08834941,
				"element": "C" 
			},
			{
				"x": 2.0482860708,
				"y": 2.2002146442,
				"z": -2.2805146757,
				"element": "C" 
			},
			{
				"x": 3.0901325947,
				"y": 3.1263662516,
				"z": -2.2682929459,
				"element": "C" 
			},
			{
				"x": 3.690230956,
				"y": 3.4504688001,
				"z": -1.057700712,
				"element": "C" 
			},
			{
				"x": 4.6941264559,
				"y": 4.3519532337,
				"z": -1.0428685623,
				"element": "F" 
			},
			{
				"x": 3.2783141117,
				"y": 2.8738197661,
				"z": 0.139079037,
				"element": "C" 
			},
			{
				"x": 2.2477220134,
				"y": 1.938131797,
				"z": 0.1223883126,
				"element": "C" 
			},
			{
				"x": -2.7472683782,
				"y": -3.9284538824,
				"z": 1.9044472176,
				"element": "H" 
			},
			{
				"x": -2.9426321203,
				"y": -0.6222423661,
				"z": 0.5946274802,
				"element": "H" 
			},
			{
				"x": -1.6234472087,
				"y": -0.716660735,
				"z": 1.7439093518,
				"element": "H" 
			},
			{
				"x": 0.607820642,
				"y": -0.0883580789,
				"z": -3.1101011616,
				"element": "H" 
			},
			{
				"x": -1.4321957758,
				"y": -1.6748362201,
				"z": -2.1821253826,
				"element": "H" 
			},
			{
				"x": 1.5523218964,
				"y": 1.9693300201,
				"z": -3.2167359821,
				"element": "H" 
			},
			{
				"x": 3.4267173417,
				"y": 3.6061182698,
				"z": -3.1806066436,
				"element": "H" 
			},
			{
				"x": 3.7682898614,
				"y": 3.153403995,
				"z": 1.0652991051,
				"element": "H" 
			},
			{
				"x": 1.9046941131,
				"y": 1.4680441401,
				"z": 1.0354088798,
				"element": "H" 
			}
		],
		 "valence_orbital": [ 
			{
				"type": "occ",
				"energy": -0.28436,
				"method": "rhf"
			},
			{
				"type": "occ",
				"energy": -0.28038,
				"method": "rhf"
			},
			{
				"type": "occ",
				"energy": -0.26879,
				"method": "rhf"
			},
			{
				"type": "occ",
				"energy": -0.25021,
				"method": "rhf"
			},
			{
				"type": "occ",
				"energy": -0.22142,
				"method": "rhf"
			},
			{
				"type": "unocc",
				"energy": -0.02362,
				"method": "rhf"
			},
			{
				"type": "unocc",
				"energy": -0.01877,
				"method": "rhf"
			},
			{
				"type": "unocc",
				"energy": 0.00632,
				"method": "rhf"
			},
			{
				"type": "unocc",
				"energy": 0.03814,
				"method": "rhf"
			},
			{
				"type": "unocc",
				"energy": 0.0609,
				"method": "rhf"
			}
		],
		"cosmo_sigma_profile": { 
			"-0.025": 0.0,
			"-0.024": 0.0,
			"-0.023": 0.0,
			"-0.022": 0.0,
			"-0.021": 0.0,
			"-0.02": 0.0,
			"-0.019": 0.111298316165,
			"-0.018": 0.707977604972,
			"-0.017": 0.849090037015,
			"-0.016": 0.982262447807,
			"-0.015": 0.893376346313,
			"-0.014": 0.815785619973,
			"-0.013": 0.142061535298,
			"-0.012": 0.787425454611,
			"-0.011": 1.21747565635,
			"-0.01": 1.82075472272,
			"-0.009": 3.07882876489,
			"-0.008": 6.62622498942,
			"-0.007": 10.6180745148,
			"-0.006": 12.326619674,
			"-0.005": 12.8934810486,
			"-0.004": 13.4918578403,
			"-0.003": 13.9771869411,
			"-0.002": 11.4587752149,
			"-0.001": 13.8728053901,
			"0.0": 15.345274236,
			"0.001": 20.5089340822,
			"0.002": 20.8514422925,
			"0.003": 24.4131422966,
			"0.004": 19.3602255787,
			"0.005": 10.5743197091,
			"0.006": 5.01550746721,
			"0.007": 5.3464505049,
			"0.008": 3.54733680723,
			"0.009": 5.79940402859,
			"0.01": 3.77006428587,
			"0.011": 4.61700581195,
			"0.012": 2.30513575612,
			"0.013": 0.597805990526,
			"0.014": 0.0181236912651,
			"0.015": 0.0,
			"0.016": 0.0,
			"0.017": 0.0,
			"0.018": 0.0,
			"0.019": 0.0,
			"0.02": 0.0,
			"0.021": 0.0,
			"0.022": 0.0,
			"0.023": 0.0,
			"0.024": 0.0,
			"0.025": 0.0
		}
	}
}
