{
	 "smiles": "COC1=CC(OC)=C(C=C1)C(=O)C(C)Br", 
	 "Tm": 340.15, 
	 "num_atms": 28, 
	 "gaussian": { 
		 "optdone": 1, 
		 "sigma_profile": "yes", 
		 "theory": "DFT", 
		 "functional": "B3LYP", 
		 "basiset": "6-31G**", 
		 "properties": { 
			 "R2extent": 5616.8189, 
			 "electric_dipole_moment_norm": 6.02118681491, 
			 "electric_quadrupole_moment_norm": 11.0906439425, 
			 "total_energy": -3224.0627647, 
			 "HOMO_LUMO_gap": 0.16711, 
			 "cosmo_polarized_energy": -12.79, 
			 "cosmo_cavitation_energy": 33.36, 
			 "cosmo_dispersion_energy": -23.8, 
			 "cosmo_repulsion_energy": 1.87, 
			 "cosmo_total_nonelectrostatic_energy": 11.43, 
			 "SMD_solvation_energy": 6.71 
		},
		"coords": [
			{
				"x": -2.9305852455,
				"y": 3.6722109293,
				"z": -0.767761921,
				"element": "C" 
			},
			{
				"x": -2.0276217279,
				"y": 3.3888914575,
				"z": -1.8269781205,
				"element": "O" 
			},
			{
				"x": -1.2091193087,
				"y": 2.3106521478,
				"z": -1.7231291369,
				"element": "C" 
			},
			{
				"x": -1.1834925618,
				"y": 1.4524920069,
				"z": -0.618463396,
				"element": "C" 
			},
			{
				"x": -0.3059427989,
				"y": 0.3584233742,
				"z": -0.5976647564,
				"element": "C" 
			},
			{
				"x": -0.2386789989,
				"y": -0.4760493925,
				"z": 0.4749052751,
				"element": "O" 
			},
			{
				"x": -1.1816422978,
				"y": -0.3490035903,
				"z": 1.5299908013,
				"element": "C" 
			},
			{
				"x": 0.5572795991,
				"y": 0.1032143896,
				"z": -1.6909294423,
				"element": "C" 
			},
			{
				"x": 0.5057272711,
				"y": 1.0042364918,
				"z": -2.7744527391,
				"element": "C" 
			},
			{
				"x": -0.3518912205,
				"y": 2.0854201856,
				"z": -2.811341122,
				"element": "C" 
			},
			{
				"x": 1.5363980209,
				"y": -1.0155670934,
				"z": -1.8326306966,
				"element": "C" 
			},
			{
				"x": 2.3376772594,
				"y": -1.0149109995,
				"z": -2.7590051527,
				"element": "O" 
			},
			{
				"x": 1.5815646023,
				"y": -2.194412891,
				"z": -0.8516824891,
				"element": "C" 
			},
			{
				"x": 2.8336440487,
				"y": -3.0376097811,
				"z": -0.9916002296,
				"element": "C" 
			},
			{
				"x": -0.0362245639,
				"y": -3.3220356474,
				"z": -1.2479785588,
				"element": "Br" 
			},
			{
				"x": -2.400049585,
				"y": 3.8808024535,
				"z": 0.1698335207,
				"element": "H" 
			},
			{
				"x": -3.636842598,
				"y": 2.847764017,
				"z": -0.6088128457,
				"element": "H" 
			},
			{
				"x": -3.4811789599,
				"y": 4.5626939567,
				"z": -1.0735807698,
				"element": "H" 
			},
			{
				"x": -1.8328841143,
				"y": 1.6350798643,
				"z": 0.2246968712,
				"element": "H" 
			},
			{
				"x": -1.0636502595,
				"y": 0.6013400378,
				"z": 2.0651756003,
				"element": "H" 
			},
			{
				"x": -2.2094899928,
				"y": -0.4365026499,
				"z": 1.1594367133,
				"element": "H" 
			},
			{
				"x": -0.9742125443,
				"y": -1.17365602,
				"z": 2.2127473895,
				"element": "H" 
			},
			{
				"x": 1.1768160753,
				"y": 0.8070983353,
				"z": -3.6028956751,
				"element": "H" 
			},
			{
				"x": -0.3857074817,
				"y": 2.7620171446,
				"z": -3.657674248,
				"element": "H" 
			},
			{
				"x": 1.4021737419,
				"y": -1.8674380366,
				"z": 0.1682261918,
				"element": "H" 
			},
			{
				"x": 2.963227872,
				"y": -3.3813657182,
				"z": -2.0181440583,
				"element": "H" 
			},
			{
				"x": 3.7064243489,
				"y": -2.4281507518,
				"z": -0.7304341938,
				"element": "H" 
			},
			{
				"x": 2.7925814197,
				"y": -3.8973342202,
				"z": -0.3193528115,
				"element": "H" 
			}
		],
		 "valence_orbital": [ 
			{
				"type": "occ",
				"energy": -0.2744,
				"method": "rhf"
			},
			{
				"type": "occ",
				"energy": -0.26552,
				"method": "rhf"
			},
			{
				"type": "occ",
				"energy": -0.24787,
				"method": "rhf"
			},
			{
				"type": "occ",
				"energy": -0.24427,
				"method": "rhf"
			},
			{
				"type": "occ",
				"energy": -0.2224,
				"method": "rhf"
			},
			{
				"type": "unocc",
				"energy": -0.05529,
				"method": "rhf"
			},
			{
				"type": "unocc",
				"energy": 0.00076,
				"method": "rhf"
			},
			{
				"type": "unocc",
				"energy": 0.002,
				"method": "rhf"
			},
			{
				"type": "unocc",
				"energy": 0.06347,
				"method": "rhf"
			},
			{
				"type": "unocc",
				"energy": 0.07484,
				"method": "rhf"
			}
		],
		"cosmo_sigma_profile": { 
			"-0.025": 0.0,
			"-0.024": 0.0,
			"-0.023": 0.0,
			"-0.022": 0.0,
			"-0.021": 0.0,
			"-0.02": 0.0,
			"-0.019": 0.0,
			"-0.018": 0.0,
			"-0.017": 0.0,
			"-0.016": 0.0,
			"-0.015": 0.0,
			"-0.014": 0.0,
			"-0.013": 0.0,
			"-0.012": 0.0,
			"-0.011": 0.0,
			"-0.01": 0.0,
			"-0.009": 0.0,
			"-0.008": 0.931883255052,
			"-0.007": 5.03463412063,
			"-0.006": 19.5774810478,
			"-0.005": 24.3094309045,
			"-0.004": 25.8468447816,
			"-0.003": 23.9060685875,
			"-0.002": 16.3871421546,
			"-0.001": 16.7007949518,
			"0.0": 15.3412439194,
			"0.001": 16.2441775074,
			"0.002": 18.4578185906,
			"0.003": 22.5303306482,
			"0.004": 17.6896473836,
			"0.005": 15.4464258037,
			"0.006": 10.7806961522,
			"0.007": 3.54148582941,
			"0.008": 2.80984092931,
			"0.009": 3.30927040507,
			"0.01": 2.67395636561,
			"0.011": 2.74249234418,
			"0.012": 3.17846713622,
			"0.013": 0.172889077502,
			"0.014": 0.0,
			"0.015": 0.0,
			"0.016": 0.0,
			"0.017": 0.0,
			"0.018": 0.0,
			"0.019": 0.0,
			"0.02": 0.0,
			"0.021": 0.0,
			"0.022": 0.0,
			"0.023": 0.0,
			"0.024": 0.0,
			"0.025": 0.0
		}
	}
}
