{
	 "smiles": "NC1=CC(=CC=C1)S(=O)(=O)N1CCCCCC1", 
	 "Tm": 348.15, 
	 "num_atms": 35, 
	 "gaussian": { 
		 "optdone": 1, 
		 "sigma_profile": "yes", 
		 "theory": "DFT", 
		 "functional": "B3LYP", 
		 "basiset": "6-31G**", 
		 "properties": { 
			 "R2extent": 4368.7209, 
			 "electric_dipole_moment_norm": 6.40159836369, 
			 "electric_quadrupole_moment_norm": 24.4799765662, 
			 "total_energy": -1126.20125551, 
			 "HOMO_LUMO_gap": 0.18885, 
			 "cosmo_polarized_energy": -17.09, 
			 "cosmo_cavitation_energy": 36.32, 
			 "cosmo_dispersion_energy": -25.75, 
			 "cosmo_repulsion_energy": 1.95, 
			 "cosmo_total_nonelectrostatic_energy": 12.52, 
			 "SMD_solvation_energy": 4.09 
		},
		"coords": [
			{
				"x": 0.9866600067,
				"y": -1.568137354,
				"z": 3.9422152963,
				"element": "N" 
			},
			{
				"x": 0.7613405062,
				"y": -1.7518983164,
				"z": 2.5824981976,
				"element": "C" 
			},
			{
				"x": 1.4497783033,
				"y": -0.9761698919,
				"z": 1.6328777961,
				"element": "C" 
			},
			{
				"x": 1.2608568921,
				"y": -1.220830391,
				"z": 0.2752156569,
				"element": "C" 
			},
			{
				"x": 0.4124079815,
				"y": -2.2297958259,
				"z": -0.1859518581,
				"element": "C" 
			},
			{
				"x": -0.2718097175,
				"y": -2.992567107,
				"z": 0.7620721913,
				"element": "C" 
			},
			{
				"x": -0.1099021941,
				"y": -2.7582762653,
				"z": 2.125213335,
				"element": "C" 
			},
			{
				"x": 2.1207697671,
				"y": -0.178694846,
				"z": -0.9187996133,
				"element": "S" 
			},
			{
				"x": 3.2481690948,
				"y": 0.4379110472,
				"z": -0.2107038805,
				"element": "O" 
			},
			{
				"x": 2.3142723479,
				"y": -0.9933379829,
				"z": -2.1226859184,
				"element": "O" 
			},
			{
				"x": 1.0771797464,
				"y": 1.0593551445,
				"z": -1.3283853232,
				"element": "N" 
			},
			{
				"x": 1.0923769173,
				"y": 2.3309287396,
				"z": -0.5977668922,
				"element": "C" 
			},
			{
				"x": 0.0710100625,
				"y": 2.4624153452,
				"z": 0.5492022513,
				"element": "C" 
			},
			{
				"x": -1.2975980076,
				"y": 1.7909812801,
				"z": 0.3162380153,
				"element": "C" 
			},
			{
				"x": -1.8695088384,
				"y": 1.8731675902,
				"z": -1.1134766306,
				"element": "C" 
			},
			{
				"x": -1.3283280775,
				"y": 0.7893373557,
				"z": -2.0630717809,
				"element": "C" 
			},
			{
				"x": 0.1476788176,
				"y": 0.9292446007,
				"z": -2.4578279734,
				"element": "C" 
			},
			{
				"x": 0.2589941114,
				"y": -1.8950617361,
				"z": 4.5613133735,
				"element": "H" 
			},
			{
				"x": 1.3571767466,
				"y": -0.668852645,
				"z": 4.2136230016,
				"element": "H" 
			},
			{
				"x": 2.1525329828,
				"y": -0.2109505964,
				"z": 1.9467887673,
				"element": "H" 
			},
			{
				"x": 0.3180650316,
				"y": -2.4255415479,
				"z": -1.2472970197,
				"element": "H" 
			},
			{
				"x": -0.9362419556,
				"y": -3.7871220284,
				"z": 0.4348128776,
				"element": "H" 
			},
			{
				"x": -0.6449254852,
				"y": -3.3686827084,
				"z": 2.8483265214,
				"element": "H" 
			},
			{
				"x": 0.9000000685,
				"y": 3.1039146816,
				"z": -1.3515774931,
				"element": "H" 
			},
			{
				"x": 2.103484448,
				"y": 2.5019411404,
				"z": -0.2234227228,
				"element": "H" 
			},
			{
				"x": 0.5018523525,
				"y": 2.0544411792,
				"z": 1.4712423825,
				"element": "H" 
			},
			{
				"x": -0.0668646742,
				"y": 3.5369433916,
				"z": 0.7294142817,
				"element": "H" 
			},
			{
				"x": -1.2282023824,
				"y": 0.7320687958,
				"z": 0.5937337657,
				"element": "H" 
			},
			{
				"x": -2.0122038066,
				"y": 2.2374968189,
				"z": 1.0183368788,
				"element": "H" 
			},
			{
				"x": -2.9582805609,
				"y": 1.7539051887,
				"z": -1.058013156,
				"element": "H" 
			},
			{
				"x": -1.7006733442,
				"y": 2.8725453647,
				"z": -1.5401399176,
				"element": "H" 
			},
			{
				"x": -1.4841618379,
				"y": -0.192211127,
				"z": -1.5974911153,
				"element": "H" 
			},
			{
				"x": -1.9145864203,
				"y": 0.7907723086,
				"z": -2.9919248682,
				"element": "H" 
			},
			{
				"x": 0.2784250066,
				"y": 1.8245398724,
				"z": -3.082567813,
				"element": "H" 
			},
			{
				"x": 0.466056111,
				"y": 0.0764205242,
				"z": -3.0596206139,
				"element": "H" 
			}
		],
		 "valence_orbital": [ 
			{
				"type": "occ",
				"energy": -0.29298,
				"method": "rhf"
			},
			{
				"type": "occ",
				"energy": -0.28925,
				"method": "rhf"
			},
			{
				"type": "occ",
				"energy": -0.26877,
				"method": "rhf"
			},
			{
				"type": "occ",
				"energy": -0.23542,
				"method": "rhf"
			},
			{
				"type": "occ",
				"energy": -0.21537,
				"method": "rhf"
			},
			{
				"type": "unocc",
				"energy": -0.02652,
				"method": "rhf"
			},
			{
				"type": "unocc",
				"energy": -0.00112,
				"method": "rhf"
			},
			{
				"type": "unocc",
				"energy": 0.06252,
				"method": "rhf"
			},
			{
				"type": "unocc",
				"energy": 0.07055,
				"method": "rhf"
			},
			{
				"type": "unocc",
				"energy": 0.07714,
				"method": "rhf"
			}
		],
		"cosmo_sigma_profile": { 
			"-0.025": 0.0,
			"-0.024": 0.0,
			"-0.023": 0.0,
			"-0.022": 0.0,
			"-0.021": 0.0,
			"-0.02": 0.0,
			"-0.019": 0.0,
			"-0.018": 0.0,
			"-0.017": 0.0,
			"-0.016": 0.0,
			"-0.015": 0.0,
			"-0.014": 0.00868195037494,
			"-0.013": 1.53057952148,
			"-0.012": 3.02520222783,
			"-0.011": 2.88200035827,
			"-0.01": 3.15854673423,
			"-0.009": 3.45982535643,
			"-0.008": 3.01926604769,
			"-0.007": 3.88123412355,
			"-0.006": 6.59751103477,
			"-0.005": 11.5669082717,
			"-0.004": 17.577061325,
			"-0.003": 27.6493333392,
			"-0.002": 31.3563008789,
			"-0.001": 29.9682246652,
			"0.0": 30.6941745737,
			"0.001": 22.9501175974,
			"0.002": 11.2860908693,
			"0.003": 14.0541626789,
			"0.004": 13.4854594216,
			"0.005": 8.00088298866,
			"0.006": 4.34461098693,
			"0.007": 3.5734957146,
			"0.008": 4.14821054714,
			"0.009": 4.41288272309,
			"0.01": 5.69244579731,
			"0.011": 8.29243425836,
			"0.012": 6.63342128313,
			"0.013": 0.837244240468,
			"0.014": 0.165223198803,
			"0.015": 0.0,
			"0.016": 0.0,
			"0.017": 0.0,
			"0.018": 0.0,
			"0.019": 0.0,
			"0.02": 0.0,
			"0.021": 0.0,
			"0.022": 0.0,
			"0.023": 0.0,
			"0.024": 0.0,
			"0.025": 0.0
		}
	}
}
