{
	 "smiles": "ClC1=NC=C(CN2CCNCC2)C=C1", 
	 "Tm": 363.15, 
	 "num_atms": 28, 
	 "gaussian": { 
		 "optdone": 1, 
		 "sigma_profile": "yes", 
		 "theory": "DFT", 
		 "functional": "B3LYP", 
		 "basiset": "6-31G**", 
		 "properties": { 
			 "R2extent": 5029.0444, 
			 "electric_dipole_moment_norm": 2.6445815151, 
			 "electric_quadrupole_moment_norm": 21.834425719, 
			 "total_energy": -1013.9219462, 
			 "HOMO_LUMO_gap": 0.16022, 
			 "cosmo_polarized_energy": -10.92, 
			 "cosmo_cavitation_energy": 30.93, 
			 "cosmo_dispersion_energy": -22.5, 
			 "cosmo_repulsion_energy": 1.77, 
			 "cosmo_total_nonelectrostatic_energy": 10.21, 
			 "SMD_solvation_energy": -1.35 
		},
		"coords": [
			{
				"x": -2.5623581549,
				"y": 4.5060229729,
				"z": 2.3128699849,
				"element": "Cl" 
			},
			{
				"x": -2.5625716237,
				"y": 2.9606676222,
				"z": 1.461889092,
				"element": "C" 
			},
			{
				"x": -2.0271548606,
				"y": 2.9445004757,
				"z": 0.2562331343,
				"element": "N" 
			},
			{
				"x": -2.0192705388,
				"y": 1.7720811715,
				"z": -0.3945488787,
				"element": "C" 
			},
			{
				"x": -2.5262081278,
				"y": 0.5762104082,
				"z": 0.1232431883,
				"element": "C" 
			},
			{
				"x": -2.4594313162,
				"y": -0.7254634858,
				"z": -0.6737728277,
				"element": "C" 
			},
			{
				"x": -1.3135989276,
				"y": -1.6098290505,
				"z": -0.5049839507,
				"element": "N" 
			},
			{
				"x": -1.1765342705,
				"y": -2.3553471371,
				"z": 0.7440273552,
				"element": "C" 
			},
			{
				"x": -0.2470036603,
				"y": -1.6855033053,
				"z": 1.7695549471,
				"element": "C" 
			},
			{
				"x": 1.0451615082,
				"y": -1.435440148,
				"z": 1.1253279309,
				"element": "N" 
			},
			{
				"x": 0.9022688313,
				"y": -0.5295948061,
				"z": -0.0184499152,
				"element": "C" 
			},
			{
				"x": -0.0220438469,
				"y": -1.1963161874,
				"z": -1.050056275,
				"element": "C" 
			},
			{
				"x": -3.1070539443,
				"y": 0.6452123082,
				"z": 1.3973220199,
				"element": "C" 
			},
			{
				"x": -3.1300230743,
				"y": 1.8498115907,
				"z": 2.0925591536,
				"element": "C" 
			},
			{
				"x": -1.5850587171,
				"y": 1.7942358681,
				"z": -1.3932672543,
				"element": "H" 
			},
			{
				"x": -3.3583024388,
				"y": -1.3120133819,
				"z": -0.4444452657,
				"element": "H" 
			},
			{
				"x": -2.5178649881,
				"y": -0.4736642687,
				"z": -1.7401469374,
				"element": "H" 
			},
			{
				"x": -2.1702435991,
				"y": -2.5213960711,
				"z": 1.1743935635,
				"element": "H" 
			},
			{
				"x": -0.7493897189,
				"y": -3.3408040464,
				"z": 0.5070380863,
				"element": "H" 
			},
			{
				"x": -0.7191224026,
				"y": -0.7638412452,
				"z": 2.1553390971,
				"element": "H" 
			},
			{
				"x": -0.0941048335,
				"y": -2.3615476712,
				"z": 2.6192646102,
				"element": "H" 
			},
			{
				"x": 1.6983455699,
				"y": -1.0444130867,
				"z": 1.7978262059,
				"element": "H" 
			},
			{
				"x": 1.8898634692,
				"y": -0.3658695059,
				"z": -0.4654518801,
				"element": "H" 
			},
			{
				"x": 0.4952176241,
				"y": 0.4578231926,
				"z": 0.2643468439,
				"element": "H" 
			},
			{
				"x": -0.188878724,
				"y": -0.5312753271,
				"z": -1.9040998305,
				"element": "H" 
			},
			{
				"x": 0.4924108722,
				"y": -2.0937867805,
				"z": -1.4235519824,
				"element": "H" 
			},
			{
				"x": -3.5477066868,
				"y": -0.2424696882,
				"z": 1.8448079304,
				"element": "H" 
			},
			{
				"x": -3.5734434202,
				"y": 1.9366095833,
				"z": 3.0774318546,
				"element": "H" 
			}
		],
		 "valence_orbital": [ 
			{
				"type": "occ",
				"energy": -0.29857,
				"method": "rhf"
			},
			{
				"type": "occ",
				"energy": -0.2752,
				"method": "rhf"
			},
			{
				"type": "occ",
				"energy": -0.25763,
				"method": "rhf"
			},
			{
				"type": "occ",
				"energy": -0.22795,
				"method": "rhf"
			},
			{
				"type": "occ",
				"energy": -0.19902,
				"method": "rhf"
			},
			{
				"type": "unocc",
				"energy": -0.0388,
				"method": "rhf"
			},
			{
				"type": "unocc",
				"energy": -0.02637,
				"method": "rhf"
			},
			{
				"type": "unocc",
				"energy": 0.03322,
				"method": "rhf"
			},
			{
				"type": "unocc",
				"energy": 0.07458,
				"method": "rhf"
			},
			{
				"type": "unocc",
				"energy": 0.09499,
				"method": "rhf"
			}
		],
		"cosmo_sigma_profile": { 
			"-0.025": 0.0,
			"-0.024": 0.0,
			"-0.023": 0.0,
			"-0.022": 0.0,
			"-0.021": 0.0,
			"-0.02": 0.0,
			"-0.019": 0.0,
			"-0.018": 0.0,
			"-0.017": 0.0,
			"-0.016": 0.0,
			"-0.015": 0.0,
			"-0.014": 0.0,
			"-0.013": 0.0,
			"-0.012": 0.0,
			"-0.011": 0.0,
			"-0.01": 0.649272841671,
			"-0.009": 1.53404243894,
			"-0.008": 2.53434102069,
			"-0.007": 7.15047210184,
			"-0.006": 12.7523324853,
			"-0.005": 12.8618467518,
			"-0.004": 15.2909817574,
			"-0.003": 18.3482538592,
			"-0.002": 25.4816459665,
			"-0.001": 28.900841602,
			"0.0": 30.0685691403,
			"0.001": 21.411317098,
			"0.002": 11.6275300371,
			"0.003": 9.36489825739,
			"0.004": 11.1590009421,
			"0.005": 9.87186496984,
			"0.006": 4.26084571561,
			"0.007": 3.58438128799,
			"0.008": 3.26200576034,
			"0.009": 2.59421207096,
			"0.01": 2.32985842513,
			"0.011": 2.18025330535,
			"0.012": 1.68794297509,
			"0.013": 1.84354223197,
			"0.014": 1.92453678544,
			"0.015": 1.23336510996,
			"0.016": 0.249674732862,
			"0.017": 0.504076261065,
			"0.018": 0.310925419566,
			"0.019": 0.16581042559,
			"0.02": 0.0,
			"0.021": 0.0,
			"0.022": 0.0,
			"0.023": 0.0,
			"0.024": 0.0,
			"0.025": 0.0
		}
	}
}
