{
	 "smiles": "CCC1=CC=C(C=C1)N1C(=O)C=CC1=O", 
	 "Tm": 339.15, 
	 "num_atms": 26, 
	 "gaussian": { 
		 "optdone": 1, 
		 "sigma_profile": "yes", 
		 "theory": "DFT", 
		 "functional": "B3LYP", 
		 "basiset": "6-31G**", 
		 "properties": { 
			 "R2extent": 3995.8312, 
			 "electric_dipole_moment_norm": 0.873990789425, 
			 "electric_quadrupole_moment_norm": 19.4499154433, 
			 "total_energy": -669.11381479, 
			 "HOMO_LUMO_gap": 0.13078, 
			 "cosmo_polarized_energy": -10.61, 
			 "cosmo_cavitation_energy": 30.6, 
			 "cosmo_dispersion_energy": -21.84, 
			 "cosmo_repulsion_energy": 1.71, 
			 "cosmo_total_nonelectrostatic_energy": 10.47, 
			 "SMD_solvation_energy": 6.76 
		},
		"coords": [
			{
				"x": 0.3960964679,
				"y": 3.9575725637,
				"z": -2.6034859473,
				"element": "C" 
			},
			{
				"x": 1.6670662589,
				"y": 3.2977701585,
				"z": -2.0381501056,
				"element": "C" 
			},
			{
				"x": 1.3784796171,
				"y": 2.0208849281,
				"z": -1.2781400184,
				"element": "C" 
			},
			{
				"x": 1.3342361911,
				"y": 0.7838363253,
				"z": -1.934075129,
				"element": "C" 
			},
			{
				"x": 1.0402927218,
				"y": -0.3934797324,
				"z": -1.2499093571,
				"element": "C" 
			},
			{
				"x": 0.7653879041,
				"y": -0.3465625397,
				"z": 0.1210916871,
				"element": "C" 
			},
			{
				"x": 0.7976618403,
				"y": 0.878353307,
				"z": 0.7959718224,
				"element": "C" 
			},
			{
				"x": 1.1104918502,
				"y": 2.0419837975,
				"z": 0.0965398928,
				"element": "C" 
			},
			{
				"x": 0.4575065494,
				"y": -1.5472882839,
				"z": 0.8305993089,
				"element": "N" 
			},
			{
				"x": 0.9054295492,
				"y": -1.8614723497,
				"z": 2.1315767028,
				"element": "C" 
			},
			{
				"x": 1.6072683885,
				"y": -1.1714479465,
				"z": 2.8395049277,
				"element": "O" 
			},
			{
				"x": 0.336972612,
				"y": -3.2108148954,
				"z": 2.4572375134,
				"element": "C" 
			},
			{
				"x": -0.386526036,
				"y": -3.6373317626,
				"z": 1.4199654892,
				"element": "C" 
			},
			{
				"x": -0.3418219759,
				"y": -2.6005924948,
				"z": 0.3369234282,
				"element": "C" 
			},
			{
				"x": -0.879179605,
				"y": -2.6507497681,
				"z": -0.7486956432,
				"element": "O" 
			},
			{
				"x": -0.1230686337,
				"y": 3.2827561237,
				"z": -3.2917293202,
				"element": "H" 
			},
			{
				"x": 0.6402812217,
				"y": 4.8762283653,
				"z": -3.1472462493,
				"element": "H" 
			},
			{
				"x": -0.3031089135,
				"y": 4.2132341073,
				"z": -1.8007409147,
				"element": "H" 
			},
			{
				"x": 2.1792420676,
				"y": 4.0078753531,
				"z": -1.3780343002,
				"element": "H" 
			},
			{
				"x": 2.3589380422,
				"y": 3.0840540385,
				"z": -2.8616710008,
				"element": "H" 
			},
			{
				"x": 1.5438768096,
				"y": 0.7355563603,
				"z": -2.9998645783,
				"element": "H" 
			},
			{
				"x": 1.0128155969,
				"y": -1.3394285423,
				"z": -1.7759921954,
				"element": "H" 
			},
			{
				"x": 0.6002600751,
				"y": 0.9162235815,
				"z": 1.859884908,
				"element": "H" 
			},
			{
				"x": 1.1439880348,
				"y": 2.9866126347,
				"z": 0.6338178758,
				"element": "H" 
			},
			{
				"x": 0.5327350637,
				"y": -3.690791687,
				"z": 3.4069609853,
				"element": "H" 
			},
			{
				"x": -0.942121698,
				"y": -4.5575816421,
				"z": 1.296960218,
				"element": "H" 
			}
		],
		 "valence_orbital": [ 
			{
				"type": "occ",
				"energy": -0.30125,
				"method": "rhf"
			},
			{
				"type": "occ",
				"energy": -0.2983,
				"method": "rhf"
			},
			{
				"type": "occ",
				"energy": -0.27246,
				"method": "rhf"
			},
			{
				"type": "occ",
				"energy": -0.25071,
				"method": "rhf"
			},
			{
				"type": "occ",
				"energy": -0.22981,
				"method": "rhf"
			},
			{
				"type": "unocc",
				"energy": -0.09903,
				"method": "rhf"
			},
			{
				"type": "unocc",
				"energy": -0.01002,
				"method": "rhf"
			},
			{
				"type": "unocc",
				"energy": -0.00207,
				"method": "rhf"
			},
			{
				"type": "unocc",
				"energy": 0.06027,
				"method": "rhf"
			},
			{
				"type": "unocc",
				"energy": 0.06295,
				"method": "rhf"
			}
		],
		"cosmo_sigma_profile": { 
			"-0.025": 0.0,
			"-0.024": 0.0,
			"-0.023": 0.0,
			"-0.022": 0.0,
			"-0.021": 0.0,
			"-0.02": 0.0,
			"-0.019": 0.0,
			"-0.018": 0.0,
			"-0.017": 0.0,
			"-0.016": 0.0,
			"-0.015": 0.0,
			"-0.014": 0.0,
			"-0.013": 0.0,
			"-0.012": 0.0,
			"-0.011": 0.0,
			"-0.01": 1.89249128467,
			"-0.009": 3.88684045067,
			"-0.008": 3.14546814806,
			"-0.007": 3.60823179266,
			"-0.006": 7.72806170227,
			"-0.005": 16.5004360701,
			"-0.004": 21.036352481,
			"-0.003": 25.1106911142,
			"-0.002": 23.0395514581,
			"-0.001": 23.3891584353,
			"0.0": 22.1384476717,
			"0.001": 17.6456367992,
			"0.002": 10.4205123537,
			"0.003": 9.02958672931,
			"0.004": 11.107048452,
			"0.005": 12.9971558652,
			"0.006": 4.16459159912,
			"0.007": 3.79362749986,
			"0.008": 3.70693115109,
			"0.009": 4.73671014886,
			"0.01": 7.57201773765,
			"0.011": 6.95203971828,
			"0.012": 0.925205416963,
			"0.013": 0.0,
			"0.014": 0.0,
			"0.015": 0.0,
			"0.016": 0.0,
			"0.017": 0.0,
			"0.018": 0.0,
			"0.019": 0.0,
			"0.02": 0.0,
			"0.021": 0.0,
			"0.022": 0.0,
			"0.023": 0.0,
			"0.024": 0.0,
			"0.025": 0.0
		}
	}
}
