{
	 "smiles": "COC1=C(C=CC(C=O)=C1OC(F)F)[N+]([O-])=O", 
	 "Tm": 369.15, 
	 "num_atms": 24, 
	 "gaussian": { 
		 "optdone": 1, 
		 "sigma_profile": "yes", 
		 "theory": "DFT", 
		 "functional": "B3LYP", 
		 "basiset": "6-31G**", 
		 "properties": { 
			 "R2extent": 4795.5276, 
			 "electric_dipole_moment_norm": 1.61816407079, 
			 "electric_quadrupole_moment_norm": 17.368391256, 
			 "total_energy": -977.576401433, 
			 "HOMO_LUMO_gap": 0.16104, 
			 "cosmo_polarized_energy": -11.72, 
			 "cosmo_cavitation_energy": 30.73, 
			 "cosmo_dispersion_energy": -21.16, 
			 "cosmo_repulsion_energy": 1.6, 
			 "cosmo_total_nonelectrostatic_energy": 11.17, 
			 "SMD_solvation_energy": 10.41 
		},
		"coords": [
			{
				"x": 1.3637731445,
				"y": 1.623233484,
				"z": -2.7707048194,
				"element": "C" 
			},
			{
				"x": 0.7929548543,
				"y": 0.29717332,
				"z": -2.8237296035,
				"element": "O" 
			},
			{
				"x": 0.5406041102,
				"y": -0.2886349025,
				"z": -1.6226039017,
				"element": "C" 
			},
			{
				"x": 1.3762321265,
				"y": -1.264527235,
				"z": -1.0563282985,
				"element": "C" 
			},
			{
				"x": 1.031665378,
				"y": -1.9431300641,
				"z": 0.1163036042,
				"element": "C" 
			},
			{
				"x": -0.149608718,
				"y": -1.6243110209,
				"z": 0.7662642396,
				"element": "C" 
			},
			{
				"x": -1.0160365434,
				"y": -0.6569605184,
				"z": 0.2351872488,
				"element": "C" 
			},
			{
				"x": -2.2972601437,
				"y": -0.358509468,
				"z": 0.9414531519,
				"element": "C" 
			},
			{
				"x": -2.6025518913,
				"y": -0.8955301416,
				"z": 1.9883423647,
				"element": "O" 
			},
			{
				"x": -0.6659604,
				"y": -0.0063490619,
				"z": -0.9535331121,
				"element": "C" 
			},
			{
				"x": -1.4837294922,
				"y": 0.9897662554,
				"z": -1.4612512446,
				"element": "O" 
			},
			{
				"x": -2.2305072067,
				"y": 0.6564610475,
				"z": -2.5850526997,
				"element": "C" 
			},
			{
				"x": -3.2862326549,
				"y": -0.1141680587,
				"z": -2.2099285008,
				"element": "F" 
			},
			{
				"x": -2.7055993055,
				"y": 1.8107526011,
				"z": -3.0743327696,
				"element": "F" 
			},
			{
				"x": 2.6601372303,
				"y": -1.6129402715,
				"z": -1.6850457188,
				"element": "N" 
			},
			{
				"x": 3.2801416437,
				"y": -0.7232807141,
				"z": -2.2622962005,
				"element": "O" 
			},
			{
				"x": 3.0381605693,
				"y": -2.776477075,
				"z": -1.5643071914,
				"element": "O" 
			},
			{
				"x": 0.6991106249,
				"y": 2.3067771743,
				"z": -2.2342956738,
				"element": "H" 
			},
			{
				"x": 1.4618840187,
				"y": 1.9408409221,
				"z": -3.8090324615,
				"element": "H" 
			},
			{
				"x": 2.348828051,
				"y": 1.5839842387,
				"z": -2.3013880608,
				"element": "H" 
			},
			{
				"x": 1.7042019337,
				"y": -2.7042003655,
				"z": 0.4928071783,
				"element": "H" 
			},
			{
				"x": -0.4408605832,
				"y": -2.1183207083,
				"z": 1.6867651248,
				"element": "H" 
			},
			{
				"x": -2.9573354576,
				"y": 0.3769201569,
				"z": 0.4516467364,
				"element": "H" 
			},
			{
				"x": -1.6477112885,
				"y": 0.1249304057,
				"z": -3.3417393921,
				"element": "H" 
			}
		],
		 "valence_orbital": [ 
			{
				"type": "occ",
				"energy": -0.31649,
				"method": "rhf"
			},
			{
				"type": "occ",
				"energy": -0.30604,
				"method": "rhf"
			},
			{
				"type": "occ",
				"energy": -0.29067,
				"method": "rhf"
			},
			{
				"type": "occ",
				"energy": -0.28174,
				"method": "rhf"
			},
			{
				"type": "occ",
				"energy": -0.27443,
				"method": "rhf"
			},
			{
				"type": "unocc",
				"energy": -0.11339,
				"method": "rhf"
			},
			{
				"type": "unocc",
				"energy": -0.06408,
				"method": "rhf"
			},
			{
				"type": "unocc",
				"energy": -0.04557,
				"method": "rhf"
			},
			{
				"type": "unocc",
				"energy": 0.01544,
				"method": "rhf"
			},
			{
				"type": "unocc",
				"energy": 0.04644,
				"method": "rhf"
			}
		],
		"cosmo_sigma_profile": { 
			"-0.025": 0.0,
			"-0.024": 0.0,
			"-0.023": 0.0,
			"-0.022": 0.0,
			"-0.021": 0.0,
			"-0.02": 0.0,
			"-0.019": 0.0,
			"-0.018": 0.0,
			"-0.017": 0.0,
			"-0.016": 0.0,
			"-0.015": 0.0,
			"-0.014": 0.0,
			"-0.013": 0.0,
			"-0.012": 0.0,
			"-0.011": 0.329633446214,
			"-0.01": 2.15433467349,
			"-0.009": 2.32871968936,
			"-0.008": 4.42961070632,
			"-0.007": 9.51801886097,
			"-0.006": 10.6404117701,
			"-0.005": 15.2527748149,
			"-0.004": 23.1638202007,
			"-0.003": 24.8074000244,
			"-0.002": 18.8692238709,
			"-0.001": 16.0951813228,
			"0.0": 14.4491300742,
			"0.001": 10.274804435,
			"0.002": 11.8154305345,
			"0.003": 23.1974002171,
			"0.004": 11.0303956816,
			"0.005": 6.85747331629,
			"0.006": 8.9789993199,
			"0.007": 11.1223731692,
			"0.008": 8.37482732699,
			"0.009": 5.94131553552,
			"0.01": 4.17044238914,
			"0.011": 2.47442087286,
			"0.012": 0.583453874506,
			"0.013": 0.0,
			"0.014": 0.0,
			"0.015": 0.0,
			"0.016": 0.0,
			"0.017": 0.0,
			"0.018": 0.0,
			"0.019": 0.0,
			"0.02": 0.0,
			"0.021": 0.0,
			"0.022": 0.0,
			"0.023": 0.0,
			"0.024": 0.0,
			"0.025": 0.0
		}
	}
}
