{
	 "smiles": "FC1=CC=CC(F)=C1CBr", 
	 "Tm": 326.15, 
	 "num_atms": 15, 
	 "gaussian": { 
		 "optdone": 1, 
		 "sigma_profile": "yes", 
		 "theory": "DFT", 
		 "functional": "B3LYP", 
		 "basiset": "6-31G**", 
		 "properties": { 
			 "R2extent": 2208.6613, 
			 "electric_dipole_moment_norm": 3.04666582349, 
			 "electric_quadrupole_moment_norm": 4.31204640281, 
			 "total_energy": -3040.83519897, 
			 "HOMO_LUMO_gap": 0.21092, 
			 "cosmo_polarized_energy": -5.63, 
			 "cosmo_cavitation_energy": 22.45, 
			 "cosmo_dispersion_energy": -16.41, 
			 "cosmo_repulsion_energy": 1.3, 
			 "cosmo_total_nonelectrostatic_energy": 7.33, 
			 "SMD_solvation_energy": 3.56 
		},
		"coords": [
			{
				"x": 2.0578453084,
				"y": 0.529331317,
				"z": 1.7113430985,
				"element": "F" 
			},
			{
				"x": 1.3317594982,
				"y": -0.5041046118,
				"z": 1.2415554092,
				"element": "C" 
			},
			{
				"x": 1.965479488,
				"y": -1.7153451664,
				"z": 0.9976323562,
				"element": "C" 
			},
			{
				"x": 1.2023739737,
				"y": -2.7802325854,
				"z": 0.515754082,
				"element": "C" 
			},
			{
				"x": -0.1672088368,
				"y": -2.6332304114,
				"z": 0.2895618006,
				"element": "C" 
			},
			{
				"x": -0.7523988508,
				"y": -1.4010874833,
				"z": 0.5495320294,
				"element": "C" 
			},
			{
				"x": -2.0747350123,
				"y": -1.2492482028,
				"z": 0.3390871128,
				"element": "F" 
			},
			{
				"x": -0.0370094496,
				"y": -0.3008991719,
				"z": 1.0347169109,
				"element": "C" 
			},
			{
				"x": -0.6906731506,
				"y": 1.0059122817,
				"z": 1.3094815535,
				"element": "C" 
			},
			{
				"x": -0.6755064959,
				"y": 2.210243833,
				"z": -0.2932571447,
				"element": "Br" 
			},
			{
				"x": 3.0293572923,
				"y": -1.8071236481,
				"z": 1.1827906534,
				"element": "H" 
			},
			{
				"x": 1.6791740299,
				"y": -3.7346241245,
				"z": 0.3168429425,
				"element": "H" 
			},
			{
				"x": -0.7797243116,
				"y": -3.4465114278,
				"z": -0.0818374496,
				"element": "H" 
			},
			{
				"x": -0.1685156485,
				"y": 1.5704780359,
				"z": 2.076878496,
				"element": "H" 
			},
			{
				"x": -1.7434178344,
				"y": 0.8928413658,
				"z": 1.5528181492,
				"element": "H" 
			}
		],
		 "valence_orbital": [ 
			{
				"type": "occ",
				"energy": -0.35964,
				"method": "rhf"
			},
			{
				"type": "occ",
				"energy": -0.27795,
				"method": "rhf"
			},
			{
				"type": "occ",
				"energy": -0.27052,
				"method": "rhf"
			},
			{
				"type": "occ",
				"energy": -0.25952,
				"method": "rhf"
			},
			{
				"type": "occ",
				"energy": -0.258,
				"method": "rhf"
			},
			{
				"type": "unocc",
				"energy": -0.04708,
				"method": "rhf"
			},
			{
				"type": "unocc",
				"energy": -0.01095,
				"method": "rhf"
			},
			{
				"type": "unocc",
				"energy": 0.01914,
				"method": "rhf"
			},
			{
				"type": "unocc",
				"energy": 0.06986,
				"method": "rhf"
			},
			{
				"type": "unocc",
				"energy": 0.1142,
				"method": "rhf"
			}
		],
		"cosmo_sigma_profile": { 
			"-0.025": 0.0,
			"-0.024": 0.0,
			"-0.023": 0.0,
			"-0.022": 0.0,
			"-0.021": 0.0,
			"-0.02": 0.0,
			"-0.019": 0.0,
			"-0.018": 0.0,
			"-0.017": 0.0,
			"-0.016": 0.0,
			"-0.015": 0.0,
			"-0.014": 0.0,
			"-0.013": 0.0,
			"-0.012": 0.0,
			"-0.011": 0.0,
			"-0.01": 0.0,
			"-0.009": 0.03256690084,
			"-0.008": 4.23051191601,
			"-0.007": 9.81184075528,
			"-0.006": 8.87854169401,
			"-0.005": 11.1916612781,
			"-0.004": 8.54967990471,
			"-0.003": 7.70468072402,
			"-0.002": 9.32342925114,
			"-0.001": 11.0776970815,
			"0.0": 17.7517358408,
			"0.001": 18.9120646757,
			"0.002": 17.360638273,
			"0.003": 23.4902351392,
			"0.004": 15.9034017616,
			"0.005": 8.1352402596,
			"0.006": 10.5748158008,
			"0.007": 0.831007381543,
			"0.008": 0.0,
			"0.009": 0.0,
			"0.01": 0.0,
			"0.011": 0.0,
			"0.012": 0.0,
			"0.013": 0.0,
			"0.014": 0.0,
			"0.015": 0.0,
			"0.016": 0.0,
			"0.017": 0.0,
			"0.018": 0.0,
			"0.019": 0.0,
			"0.02": 0.0,
			"0.021": 0.0,
			"0.022": 0.0,
			"0.023": 0.0,
			"0.024": 0.0,
			"0.025": 0.0
		}
	}
}
