{
	 "smiles": "COC(=O)NC(CC1=CC=CC=C1)C(O)=O", 
	 "Tm": 349.15, 
	 "num_atms": 29, 
	 "gaussian": { 
		 "optdone": 1, 
		 "sigma_profile": "yes", 
		 "theory": "DFT", 
		 "functional": "B3LYP", 
		 "basiset": "6-31G**", 
		 "properties": { 
			 "R2extent": 4720.1681, 
			 "electric_dipole_moment_norm": 6.08490413236, 
			 "electric_quadrupole_moment_norm": 12.8580064042, 
			 "total_energy": -782.683937726, 
			 "HOMO_LUMO_gap": 0.22613, 
			 "cosmo_polarized_energy": -16.42, 
			 "cosmo_cavitation_energy": 33.16, 
			 "cosmo_dispersion_energy": -23.0, 
			 "cosmo_repulsion_energy": 1.8, 
			 "cosmo_total_nonelectrostatic_energy": 11.96, 
			 "SMD_solvation_energy": 7.73 
		},
		"coords": [
			{
				"x": 1.7062373593,
				"y": 4.2264310975,
				"z": 0.2583861468,
				"element": "C" 
			},
			{
				"x": 0.8957834482,
				"y": 3.1007734775,
				"z": 0.6267240936,
				"element": "O" 
			},
			{
				"x": -0.1698996969,
				"y": 3.4144875905,
				"z": 1.4241817776,
				"element": "C" 
			},
			{
				"x": -0.4231555806,
				"y": 4.5406611971,
				"z": 1.8051366558,
				"element": "O" 
			},
			{
				"x": -0.8882723196,
				"y": 2.2983502842,
				"z": 1.742103117,
				"element": "N" 
			},
			{
				"x": -0.6991801812,
				"y": 0.9844706882,
				"z": 1.1665382678,
				"element": "C" 
			},
			{
				"x": 0.4850036418,
				"y": 0.2134701669,
				"z": 1.8332457976,
				"element": "C" 
			},
			{
				"x": 0.9829510973,
				"y": -0.9760407113,
				"z": 1.0377222754,
				"element": "C" 
			},
			{
				"x": 1.6676199933,
				"y": -0.7740880179,
				"z": -0.1736763862,
				"element": "C" 
			},
			{
				"x": 2.1325352137,
				"y": -1.8553650296,
				"z": -0.9205539246,
				"element": "C" 
			},
			{
				"x": 1.9229282607,
				"y": -3.1619802914,
				"z": -0.4704026692,
				"element": "C" 
			},
			{
				"x": 1.2459506747,
				"y": -3.3784449412,
				"z": 0.7296145999,
				"element": "C" 
			},
			{
				"x": 0.7786007558,
				"y": -2.2935221979,
				"z": 1.4770643763,
				"element": "C" 
			},
			{
				"x": -2.0333158686,
				"y": 0.2343131819,
				"z": 1.312425123,
				"element": "C" 
			},
			{
				"x": -2.0784678986,
				"y": -1.0049565908,
				"z": 0.7895028776,
				"element": "O" 
			},
			{
				"x": -2.9988416243,
				"y": 0.7108662866,
				"z": 1.8614122225,
				"element": "O" 
			},
			{
				"x": 2.5104732638,
				"y": 3.8205526993,
				"z": -0.356135229,
				"element": "H" 
			},
			{
				"x": 1.1224838663,
				"y": 4.9549894506,
				"z": -0.3094352629,
				"element": "H" 
			},
			{
				"x": 2.1131860111,
				"y": 4.7175621736,
				"z": 1.1454673282,
				"element": "H" 
			},
			{
				"x": -1.7758327764,
				"y": 2.4545104985,
				"z": 2.2043079852,
				"element": "H" 
			},
			{
				"x": -0.4808051061,
				"y": 1.072592433,
				"z": 0.0940502443,
				"element": "H" 
			},
			{
				"x": 1.2926712447,
				"y": 0.9430078689,
				"z": 1.9344004694,
				"element": "H" 
			},
			{
				"x": 0.1919534021,
				"y": -0.0881562678,
				"z": 2.844203163,
				"element": "H" 
			},
			{
				"x": 1.8444474094,
				"y": 0.2414262915,
				"z": -0.5198793314,
				"element": "H" 
			},
			{
				"x": 2.663343349,
				"y": -1.6794027858,
				"z": -1.8517289672,
				"element": "H" 
			},
			{
				"x": 2.2868842811,
				"y": -4.0040733983,
				"z": -1.0514516772,
				"element": "H" 
			},
			{
				"x": 1.0814594564,
				"y": -4.3899354928,
				"z": 1.0891588835,
				"element": "H" 
			},
			{
				"x": 0.255469423,
				"y": -2.4690110181,
				"z": 2.41364185,
				"element": "H" 
			},
			{
				"x": -1.2066110995,
				"y": -1.277588643,
				"z": 0.4557761932,
				"element": "H" 
			}
		],
		 "valence_orbital": [ 
			{
				"type": "occ",
				"energy": -0.28802,
				"method": "rhf"
			},
			{
				"type": "occ",
				"energy": -0.27251,
				"method": "rhf"
			},
			{
				"type": "occ",
				"energy": -0.27227,
				"method": "rhf"
			},
			{
				"type": "occ",
				"energy": -0.26786,
				"method": "rhf"
			},
			{
				"type": "occ",
				"energy": -0.2553,
				"method": "rhf"
			},
			{
				"type": "unocc",
				"energy": -0.02917,
				"method": "rhf"
			},
			{
				"type": "unocc",
				"energy": -0.0233,
				"method": "rhf"
			},
			{
				"type": "unocc",
				"energy": 0.00046,
				"method": "rhf"
			},
			{
				"type": "unocc",
				"energy": 0.05056,
				"method": "rhf"
			},
			{
				"type": "unocc",
				"energy": 0.07483,
				"method": "rhf"
			}
		],
		"cosmo_sigma_profile": { 
			"-0.025": 0.0,
			"-0.024": 0.0,
			"-0.023": 0.0,
			"-0.022": 0.0,
			"-0.021": 0.0,
			"-0.02": 0.0,
			"-0.019": 0.0,
			"-0.018": 0.0,
			"-0.017": 0.0,
			"-0.016": 0.0,
			"-0.015": 0.0,
			"-0.014": 0.0,
			"-0.013": 0.267741941736,
			"-0.012": 0.913472597709,
			"-0.011": 1.02926117946,
			"-0.01": 2.35334076832,
			"-0.009": 2.02416181677,
			"-0.008": 2.47434703633,
			"-0.007": 6.79869022059,
			"-0.006": 17.0119390604,
			"-0.005": 20.8747674915,
			"-0.004": 24.7770116083,
			"-0.003": 25.1595801405,
			"-0.002": 22.5191471556,
			"-0.001": 19.7719168515,
			"0.0": 13.7621828464,
			"0.001": 14.0706084662,
			"0.002": 13.760194661,
			"0.003": 13.8629583104,
			"0.004": 11.9216628987,
			"0.005": 8.40095124711,
			"0.006": 4.04302044418,
			"0.007": 4.43749853624,
			"0.008": 3.23298910257,
			"0.009": 5.97698153548,
			"0.01": 6.48259207638,
			"0.011": 5.57206136406,
			"0.012": 3.93017826599,
			"0.013": 6.31438139485,
			"0.014": 1.23045736567,
			"0.015": 0.0,
			"0.016": 0.0,
			"0.017": 0.0,
			"0.018": 0.0,
			"0.019": 0.0,
			"0.02": 0.0,
			"0.021": 0.0,
			"0.022": 0.0,
			"0.023": 0.0,
			"0.024": 0.0,
			"0.025": 0.0
		}
	}
}
