{
	 "smiles": "CC1=C(C(C)=NN1)S(Cl)(=O)=O", 
	 "Tm": 335.65, 
	 "num_atms": 18, 
	 "gaussian": { 
		 "optdone": 1, 
		 "sigma_profile": "yes", 
		 "theory": "DFT", 
		 "functional": "B3LYP", 
		 "basiset": "6-31G**", 
		 "properties": { 
			 "R2extent": 2371.4808, 
			 "electric_dipole_moment_norm": 5.30494072163, 
			 "electric_quadrupole_moment_norm": 11.2719023483, 
			 "total_energy": -1313.00680558, 
			 "HOMO_LUMO_gap": 0.19439, 
			 "cosmo_polarized_energy": -14.31, 
			 "cosmo_cavitation_energy": 25.39, 
			 "cosmo_dispersion_energy": -18.82, 
			 "cosmo_repulsion_energy": 1.48, 
			 "cosmo_total_nonelectrostatic_energy": 8.05, 
			 "SMD_solvation_energy": 2.35 
		},
		"coords": [
			{
				"x": -2.1497023509,
				"y": -0.9361552306,
				"z": -0.6685268738,
				"element": "C" 
			},
			{
				"x": -0.9842925753,
				"y": -0.5457523938,
				"z": 0.1790955515,
				"element": "C" 
			},
			{
				"x": 0.0372280081,
				"y": 0.3947681453,
				"z": 0.023016617,
				"element": "C" 
			},
			{
				"x": 0.8624392824,
				"y": 0.3117291523,
				"z": 1.1875090282,
				"element": "C" 
			},
			{
				"x": 2.0825114883,
				"y": 1.0981892268,
				"z": 1.5433202879,
				"element": "C" 
			},
			{
				"x": 0.3918087506,
				"y": -0.6281831581,
				"z": 1.9959331188,
				"element": "N" 
			},
			{
				"x": -0.7107764471,
				"y": -1.1193393329,
				"z": 1.3670330235,
				"element": "N" 
			},
			{
				"x": 0.221986081,
				"y": 1.4585265422,
				"z": -1.3372407392,
				"element": "S" 
			},
			{
				"x": -0.8098927043,
				"y": 3.2264488922,
				"z": -0.6848539486,
				"element": "Cl" 
			},
			{
				"x": 1.6180231002,
				"y": 1.8545746429,
				"z": -1.4720879753,
				"element": "O" 
			},
			{
				"x": -0.5559188964,
				"y": 0.9509198616,
				"z": -2.463216227,
				"element": "O" 
			},
			{
				"x": -1.8156889247,
				"y": -1.2711638474,
				"z": -1.6532610231,
				"element": "H" 
			},
			{
				"x": -2.81645629,
				"y": -0.0843368645,
				"z": -0.8303560742,
				"element": "H" 
			},
			{
				"x": -2.7202244623,
				"y": -1.7389960789,
				"z": -0.1935175111,
				"element": "H" 
			},
			{
				"x": 2.8632461368,
				"y": 0.9736355149,
				"z": 0.7883461901,
				"element": "H" 
			},
			{
				"x": 2.4558456746,
				"y": 0.7619887387,
				"z": 2.5121467987,
				"element": "H" 
			},
			{
				"x": 1.8586920737,
				"y": 2.1682254375,
				"z": 1.599692672,
				"element": "H" 
			},
			{
				"x": -1.2293279446,
				"y": -1.8648792482,
				"z": 1.8083670846,
				"element": "H" 
			}
		],
		 "valence_orbital": [ 
			{
				"type": "occ",
				"energy": -0.3307,
				"method": "rhf"
			},
			{
				"type": "occ",
				"energy": -0.31137,
				"method": "rhf"
			},
			{
				"type": "occ",
				"energy": -0.30827,
				"method": "rhf"
			},
			{
				"type": "occ",
				"energy": -0.28458,
				"method": "rhf"
			},
			{
				"type": "occ",
				"energy": -0.27532,
				"method": "rhf"
			},
			{
				"type": "unocc",
				"energy": -0.08093,
				"method": "rhf"
			},
			{
				"type": "unocc",
				"energy": -0.01519,
				"method": "rhf"
			},
			{
				"type": "unocc",
				"energy": 0.00959,
				"method": "rhf"
			},
			{
				"type": "unocc",
				"energy": 0.05252,
				"method": "rhf"
			},
			{
				"type": "unocc",
				"energy": 0.06921,
				"method": "rhf"
			}
		],
		"cosmo_sigma_profile": { 
			"-0.025": 0.0,
			"-0.024": 0.0,
			"-0.023": 0.0,
			"-0.022": 0.0,
			"-0.021": 0.0,
			"-0.02": 0.0,
			"-0.019": 0.0,
			"-0.018": 0.678129829034,
			"-0.017": 1.53774708442,
			"-0.016": 1.57813202454,
			"-0.015": 1.32965939248,
			"-0.014": 1.26193139278,
			"-0.013": 1.2673810881,
			"-0.012": 0.982509878423,
			"-0.011": 1.54505850769,
			"-0.01": 0.479588537107,
			"-0.009": 1.14389925695,
			"-0.008": 2.01723711796,
			"-0.007": 2.13800606129,
			"-0.006": 6.07509807181,
			"-0.005": 11.4952041602,
			"-0.004": 14.8269590759,
			"-0.003": 17.2801165692,
			"-0.002": 17.144844231,
			"-0.001": 17.0914481046,
			"0.0": 14.3390317191,
			"0.001": 10.1795541489,
			"0.002": 10.5286443426,
			"0.003": 13.2072860386,
			"0.004": 17.0289549202,
			"0.005": 6.05135456063,
			"0.006": 6.43850187901,
			"0.007": 5.23537398768,
			"0.008": 8.30092747108,
			"0.009": 7.41677302195,
			"0.01": 1.77306678694,
			"0.011": 1.52527590838,
			"0.012": 0.611146422859,
			"0.013": 1.05709913572,
			"0.014": 0.902498081604,
			"0.015": 0.128715790137,
			"0.016": 0.0,
			"0.017": 0.0,
			"0.018": 0.0,
			"0.019": 0.0,
			"0.02": 0.0,
			"0.021": 0.0,
			"0.022": 0.0,
			"0.023": 0.0,
			"0.024": 0.0,
			"0.025": 0.0
		}
	}
}
