{
	 "smiles": "NC1=NN2C(NC(=O)C=C2C(F)(F)F)=C1N=NC1=CC=C(O)C=C1", 
	 "Tm": 541.15, 
	 "num_atms": 33, 
	 "gaussian": { 
		 "optdone": 1, 
		 "sigma_profile": "yes", 
		 "theory": "DFT", 
		 "functional": "B3LYP", 
		 "basiset": "6-31G**", 
		 "properties": { 
			 "R2extent": 12035.59, 
			 "electric_dipole_moment_norm": 3.94422093702, 
			 "electric_quadrupole_moment_norm": 15.7281654839, 
			 "total_energy": -1279.2359532, 
			 "HOMO_LUMO_gap": 0.12855, 
			 "cosmo_polarized_energy": -20.79, 
			 "cosmo_cavitation_energy": 41.12, 
			 "cosmo_dispersion_energy": -29.47, 
			 "cosmo_repulsion_energy": 2.16, 
			 "cosmo_total_nonelectrostatic_energy": 13.82, 
			 "SMD_solvation_energy": 7.38 
		},
		"coords": [
			{
				"x": 2.9967384706,
				"y": -0.6021381778,
				"z": -0.2652478963,
				"element": "N" 
			},
			{
				"x": 2.2320946224,
				"y": 0.1987320597,
				"z": 0.5121090855,
				"element": "C" 
			},
			{
				"x": 2.7327245246,
				"y": 0.9646065805,
				"z": 1.4764379464,
				"element": "N" 
			},
			{
				"x": 1.6135992043,
				"y": 1.5735031996,
				"z": 2.0315075325,
				"element": "N" 
			},
			{
				"x": 0.4495637151,
				"y": 1.1942883564,
				"z": 1.4193465805,
				"element": "C" 
			},
			{
				"x": -0.7303187514,
				"y": 1.7142011108,
				"z": 1.8543029939,
				"element": "N" 
			},
			{
				"x": -0.8442480169,
				"y": 2.6370361278,
				"z": 2.9149900951,
				"element": "C" 
			},
			{
				"x": -1.9357257934,
				"y": 3.0646611694,
				"z": 3.2549481837,
				"element": "O" 
			},
			{
				"x": 0.4416723806,
				"y": 2.9921186138,
				"z": 3.5163021686,
				"element": "C" 
			},
			{
				"x": 1.6132181656,
				"y": 2.466651387,
				"z": 3.0730637936,
				"element": "C" 
			},
			{
				"x": 2.9533431278,
				"y": 2.8266458155,
				"z": 3.6862294205,
				"element": "C" 
			},
			{
				"x": 3.7673451211,
				"y": 3.391632295,
				"z": 2.7811789598,
				"element": "F" 
			},
			{
				"x": 3.5648951611,
				"y": 1.7448078889,
				"z": 4.1917607102,
				"element": "F" 
			},
			{
				"x": 2.7782773565,
				"y": 3.7085473425,
				"z": 4.6903232323,
				"element": "F" 
			},
			{
				"x": 0.7878268745,
				"y": 0.2964520693,
				"z": 0.4108675676,
				"element": "C" 
			},
			{
				"x": -0.1293008781,
				"y": -0.2766585026,
				"z": -0.4301343158,
				"element": "N" 
			},
			{
				"x": 0.356333596,
				"y": -1.0512616565,
				"z": -1.3192007935,
				"element": "N" 
			},
			{
				"x": -0.5879644775,
				"y": -1.6375865136,
				"z": -2.1859813581,
				"element": "C" 
			},
			{
				"x": -1.9769892949,
				"y": -1.4282428733,
				"z": -2.1234634564,
				"element": "C" 
			},
			{
				"x": -2.8212597787,
				"y": -2.0561656346,
				"z": -3.0281858623,
				"element": "C" 
			},
			{
				"x": -2.2948947633,
				"y": -2.9065588267,
				"z": -4.0140103462,
				"element": "C" 
			},
			{
				"x": -3.07908903,
				"y": -3.5464818165,
				"z": -4.9253594869,
				"element": "O" 
			},
			{
				"x": -0.9132229912,
				"y": -3.1224164396,
				"z": -4.0848537957,
				"element": "C" 
			},
			{
				"x": -0.0743594582,
				"y": -2.4910492965,
				"z": -3.1764074102,
				"element": "C" 
			},
			{
				"x": 3.9982253583,
				"y": -0.4960713753,
				"z": -0.2405282063,
				"element": "H" 
			},
			{
				"x": 2.5317576605,
				"y": -1.0353229983,
				"z": -1.0511849097,
				"element": "H" 
			},
			{
				"x": -1.5850840638,
				"y": 1.4260029028,
				"z": 1.3932621858,
				"element": "H" 
			},
			{
				"x": 0.4286381213,
				"y": 3.695523336,
				"z": 4.3354912194,
				"element": "H" 
			},
			{
				"x": -2.3754224591,
				"y": -0.7709445127,
				"z": -1.3595263766,
				"element": "H" 
			},
			{
				"x": -3.895657325,
				"y": -1.8907925923,
				"z": -2.9751673792,
				"element": "H" 
			},
			{
				"x": -4.0047931411,
				"y": -3.3179423025,
				"z": -4.7689677511,
				"element": "H" 
			},
			{
				"x": -0.523447674,
				"y": -3.7827016007,
				"z": -4.8519957511,
				"element": "H" 
			},
			{
				"x": 0.999024436,
				"y": -2.6483751355,
				"z": -3.2168065799,
				"element": "H" 
			}
		],
		 "valence_orbital": [ 
			{
				"type": "occ",
				"energy": -0.26721,
				"method": "rhf"
			},
			{
				"type": "occ",
				"energy": -0.26177,
				"method": "rhf"
			},
			{
				"type": "occ",
				"energy": -0.23996,
				"method": "rhf"
			},
			{
				"type": "occ",
				"energy": -0.2211,
				"method": "rhf"
			},
			{
				"type": "occ",
				"energy": -0.20823,
				"method": "rhf"
			},
			{
				"type": "unocc",
				"energy": -0.07968,
				"method": "rhf"
			},
			{
				"type": "unocc",
				"energy": -0.06079,
				"method": "rhf"
			},
			{
				"type": "unocc",
				"energy": -0.01351,
				"method": "rhf"
			},
			{
				"type": "unocc",
				"energy": 0.00386,
				"method": "rhf"
			},
			{
				"type": "unocc",
				"energy": 0.03062,
				"method": "rhf"
			}
		],
		"cosmo_sigma_profile": { 
			"-0.025": 0.0,
			"-0.024": 0.0,
			"-0.023": 0.0,
			"-0.022": 0.0,
			"-0.021": 0.0,
			"-0.02": 0.0,
			"-0.019": 0.0231371903594,
			"-0.018": 0.964055515823,
			"-0.017": 0.859953418041,
			"-0.016": 1.90492850967,
			"-0.015": 1.73752228756,
			"-0.014": 3.33297540086,
			"-0.013": 2.78596182948,
			"-0.012": 2.10158636459,
			"-0.011": 3.35359897983,
			"-0.01": 3.72469208498,
			"-0.009": 4.0834628434,
			"-0.008": 5.45201085747,
			"-0.007": 7.66093582932,
			"-0.006": 10.7013795449,
			"-0.005": 15.3628404822,
			"-0.004": 19.4000733119,
			"-0.003": 19.3111169109,
			"-0.002": 18.7249525054,
			"-0.001": 17.0777137218,
			"0.0": 18.0573877611,
			"0.001": 29.2752347495,
			"0.002": 41.0360818067,
			"0.003": 28.1931100872,
			"0.004": 23.2274909027,
			"0.005": 11.6858065873,
			"0.006": 5.43708478882,
			"0.007": 3.7792903548,
			"0.008": 5.77397102613,
			"0.009": 5.42048313112,
			"0.01": 4.72252931746,
			"0.011": 5.7082379406,
			"0.012": 5.72894316257,
			"0.013": 4.09056214124,
			"0.014": 0.18703523132,
			"0.015": 0.0,
			"0.016": 0.0,
			"0.017": 0.0,
			"0.018": 0.0,
			"0.019": 0.0,
			"0.02": 0.0,
			"0.021": 0.0,
			"0.022": 0.0,
			"0.023": 0.0,
			"0.024": 0.0,
			"0.025": 0.0
		}
	}
}
