{
	 "smiles": "COC(=O)C1=CC=C(Cl)C=C1[N+]([O-])=O", 
	 "Tm": 317.15, 
	 "num_atms": 20, 
	 "gaussian": { 
		 "optdone": 1, 
		 "sigma_profile": "yes", 
		 "theory": "DFT", 
		 "functional": "B3LYP", 
		 "basiset": "6-31G**", 
		 "properties": { 
			 "R2extent": 3763.5345, 
			 "electric_dipole_moment_norm": 2.74192364044, 
			 "electric_quadrupole_moment_norm": 11.6315808719, 
			 "total_energy": -1124.20145111, 
			 "HOMO_LUMO_gap": 0.17392, 
			 "cosmo_polarized_energy": -10.68, 
			 "cosmo_cavitation_energy": 27.92, 
			 "cosmo_dispersion_energy": -19.94, 
			 "cosmo_repulsion_energy": 1.58, 
			 "cosmo_total_nonelectrostatic_energy": 9.56, 
			 "SMD_solvation_energy": 8.25 
		},
		"coords": [
			{
				"x": 3.2485534192,
				"y": 1.4981055628,
				"z": -0.0538334728,
				"element": "C" 
			},
			{
				"x": 1.8365399104,
				"y": 1.3509987941,
				"z": 0.1878108251,
				"element": "O" 
			},
			{
				"x": 1.273983916,
				"y": 0.2519421521,
				"z": -0.3372772897,
				"element": "C" 
			},
			{
				"x": 1.8338100837,
				"y": -0.5281850846,
				"z": -1.0763261208,
				"element": "O" 
			},
			{
				"x": -0.1847686396,
				"y": 0.1545409694,
				"z": 0.0073881544,
				"element": "C" 
			},
			{
				"x": -1.0667760709,
				"y": -0.1436789073,
				"z": -1.0365395711,
				"element": "C" 
			},
			{
				"x": -2.4447022327,
				"y": -0.1835256927,
				"z": -0.8354412015,
				"element": "C" 
			},
			{
				"x": -2.9560083986,
				"y": 0.0820595568,
				"z": 0.4355257653,
				"element": "C" 
			},
			{
				"x": -4.6836297841,
				"y": 0.043712606,
				"z": 0.7018960939,
				"element": "Cl" 
			},
			{
				"x": -2.1077198059,
				"y": 0.3634824082,
				"z": 1.5041054647,
				"element": "C" 
			},
			{
				"x": -0.7352562592,
				"y": 0.3804382995,
				"z": 1.2756914277,
				"element": "C" 
			},
			{
				"x": 0.1243795394,
				"y": 0.5557411684,
				"z": 2.4629040973,
				"element": "N" 
			},
			{
				"x": -0.3086469795,
				"y": 1.2609719277,
				"z": 3.3710934862,
				"element": "O" 
			},
			{
				"x": 1.1910278451,
				"y": -0.0521075541,
				"z": 2.4788365717,
				"element": "O" 
			},
			{
				"x": 3.523787612,
				"y": 2.4486013995,
				"z": 0.4013134667,
				"element": "H" 
			},
			{
				"x": 3.7960630554,
				"y": 0.6760584275,
				"z": 0.4129767115,
				"element": "H" 
			},
			{
				"x": 3.4541181303,
				"y": 1.5061919707,
				"z": -1.126464524,
				"element": "H" 
			},
			{
				"x": -0.6523541674,
				"y": -0.3386448601,
				"z": -2.0197131598,
				"element": "H" 
			},
			{
				"x": -3.1167443228,
				"y": -0.4131842753,
				"z": -1.6544343471,
				"element": "H" 
			},
			{
				"x": -2.4890568507,
				"y": 0.5506811314,
				"z": 2.4995876221,
				"element": "H" 
			}
		],
		 "valence_orbital": [ 
			{
				"type": "occ",
				"energy": -0.31534,
				"method": "rhf"
			},
			{
				"type": "occ",
				"energy": -0.30916,
				"method": "rhf"
			},
			{
				"type": "occ",
				"energy": -0.29651,
				"method": "rhf"
			},
			{
				"type": "occ",
				"energy": -0.29126,
				"method": "rhf"
			},
			{
				"type": "occ",
				"energy": -0.27408,
				"method": "rhf"
			},
			{
				"type": "unocc",
				"energy": -0.10016,
				"method": "rhf"
			},
			{
				"type": "unocc",
				"energy": -0.05892,
				"method": "rhf"
			},
			{
				"type": "unocc",
				"energy": -0.03026,
				"method": "rhf"
			},
			{
				"type": "unocc",
				"energy": 0.00654,
				"method": "rhf"
			},
			{
				"type": "unocc",
				"energy": 0.01632,
				"method": "rhf"
			}
		],
		"cosmo_sigma_profile": { 
			"-0.025": 0.0,
			"-0.024": 0.0,
			"-0.023": 0.0,
			"-0.022": 0.0,
			"-0.021": 0.0,
			"-0.02": 0.0,
			"-0.019": 0.0,
			"-0.018": 0.0,
			"-0.017": 0.0,
			"-0.016": 0.0,
			"-0.015": 0.0,
			"-0.014": 0.0,
			"-0.013": 0.0,
			"-0.012": 0.0,
			"-0.011": 0.0,
			"-0.01": 0.195107052042,
			"-0.009": 3.66306929782,
			"-0.008": 6.30625833454,
			"-0.007": 8.59960789967,
			"-0.006": 11.3637598201,
			"-0.005": 12.8810277907,
			"-0.004": 15.7369850253,
			"-0.003": 15.6743503232,
			"-0.002": 20.8807724262,
			"-0.001": 22.5872294637,
			"0.0": 15.4372755622,
			"0.001": 11.4777916789,
			"0.002": 12.9083130589,
			"0.003": 16.9658800915,
			"0.004": 9.51192347119,
			"0.005": 4.85319259523,
			"0.006": 8.51162590066,
			"0.007": 10.3531679294,
			"0.008": 5.3906605251,
			"0.009": 5.15895728575,
			"0.01": 2.54677164424,
			"0.011": 4.76188381938,
			"0.012": 0.731078875243,
			"0.013": 0.0,
			"0.014": 0.0,
			"0.015": 0.0,
			"0.016": 0.0,
			"0.017": 0.0,
			"0.018": 0.0,
			"0.019": 0.0,
			"0.02": 0.0,
			"0.021": 0.0,
			"0.022": 0.0,
			"0.023": 0.0,
			"0.024": 0.0,
			"0.025": 0.0
		}
	}
}
