{
	 "smiles": "[O-][N+](=O)C1=CC(=C(Cl)N=C1)[N+]([O-])=O", 
	 "Tm": 337.65, 
	 "num_atms": 15, 
	 "gaussian": { 
		 "optdone": 1, 
		 "sigma_profile": "yes", 
		 "theory": "DFT", 
		 "functional": "B3LYP", 
		 "basiset": "6-31G**", 
		 "properties": { 
			 "R2extent": 4336.7779, 
			 "electric_dipole_moment_norm": 1.46405645041, 
			 "electric_quadrupole_moment_norm": 13.4028616754, 
			 "total_energy": -1116.84513631, 
			 "HOMO_LUMO_gap": 0.18024, 
			 "cosmo_polarized_energy": -11.71, 
			 "cosmo_cavitation_energy": 23.86, 
			 "cosmo_dispersion_energy": -17.62, 
			 "cosmo_repulsion_energy": 1.39, 
			 "cosmo_total_nonelectrostatic_energy": 7.64, 
			 "SMD_solvation_energy": 7.19 
		},
		"coords": [
			{
				"x": -2.3328638561,
				"y": 0.8526651414,
				"z": -1.4686830659,
				"element": "O" 
			},
			{
				"x": -2.2255963034,
				"y": -0.3378385685,
				"z": -1.1879089471,
				"element": "N" 
			},
			{
				"x": -3.1334447519,
				"y": -1.0708210656,
				"z": -0.8042111145,
				"element": "O" 
			},
			{
				"x": -0.8927860529,
				"y": -0.9412982433,
				"z": -1.3207075704,
				"element": "C" 
			},
			{
				"x": 0.1721220701,
				"y": -0.1706502805,
				"z": -1.7637310127,
				"element": "C" 
			},
			{
				"x": 1.4159374181,
				"y": -0.7811122036,
				"z": -1.8563766699,
				"element": "C" 
			},
			{
				"x": 1.5320230941,
				"y": -2.1516186392,
				"z": -1.5443563316,
				"element": "C" 
			},
			{
				"x": 3.0130119939,
				"y": -3.0292918784,
				"z": -1.7379631355,
				"element": "Cl" 
			},
			{
				"x": 0.4934130886,
				"y": -2.8688325041,
				"z": -1.1329025715,
				"element": "N" 
			},
			{
				"x": -0.6979533725,
				"y": -2.284804278,
				"z": -1.0041731683,
				"element": "C" 
			},
			{
				"x": 2.5412603727,
				"y": 0.0740150681,
				"z": -2.2843366221,
				"element": "N" 
			},
			{
				"x": 3.6460340676,
				"y": -0.1558850417,
				"z": -1.8109307941,
				"element": "O" 
			},
			{
				"x": 2.2636183034,
				"y": 0.9803279589,
				"z": -3.066538852,
				"element": "O" 
			},
			{
				"x": 0.0433732103,
				"y": 0.8713499469,
				"z": -2.0281288859,
				"element": "H" 
			},
			{
				"x": -1.5224492818,
				"y": -2.8931054124,
				"z": -0.6477512586,
				"element": "H" 
			}
		],
		 "valence_orbital": [ 
			{
				"type": "occ",
				"energy": -0.33508,
				"method": "rhf"
			},
			{
				"type": "occ",
				"energy": -0.32633,
				"method": "rhf"
			},
			{
				"type": "occ",
				"energy": -0.32125,
				"method": "rhf"
			},
			{
				"type": "occ",
				"energy": -0.31639,
				"method": "rhf"
			},
			{
				"type": "occ",
				"energy": -0.31034,
				"method": "rhf"
			},
			{
				"type": "unocc",
				"energy": -0.1301,
				"method": "rhf"
			},
			{
				"type": "unocc",
				"energy": -0.11878,
				"method": "rhf"
			},
			{
				"type": "unocc",
				"energy": -0.07311,
				"method": "rhf"
			},
			{
				"type": "unocc",
				"energy": -0.03742,
				"method": "rhf"
			},
			{
				"type": "unocc",
				"energy": -0.00284,
				"method": "rhf"
			}
		],
		"cosmo_sigma_profile": { 
			"-0.025": 0.0,
			"-0.024": 0.0,
			"-0.023": 0.0,
			"-0.022": 0.0,
			"-0.021": 0.0,
			"-0.02": 0.0,
			"-0.019": 0.0,
			"-0.018": 0.0,
			"-0.017": 0.0,
			"-0.016": 0.0,
			"-0.015": 0.0,
			"-0.014": 0.0,
			"-0.013": 0.0,
			"-0.012": 0.00355773192739,
			"-0.011": 0.715992501866,
			"-0.01": 4.08660292784,
			"-0.009": 5.31971602426,
			"-0.008": 8.73777997771,
			"-0.007": 10.3669671486,
			"-0.006": 14.6993824612,
			"-0.005": 12.0319168194,
			"-0.004": 10.1421595188,
			"-0.003": 7.62417583442,
			"-0.002": 8.50241668701,
			"-0.001": 8.34615047605,
			"0.0": 8.33903522453,
			"0.001": 10.670166634,
			"0.002": 11.8225245176,
			"0.003": 8.16800387604,
			"0.004": 8.99451270443,
			"0.005": 10.0310562039,
			"0.006": 20.7088708931,
			"0.007": 13.2263449842,
			"0.008": 8.35947287007,
			"0.009": 3.16370942524,
			"0.01": 0.742690388349,
			"0.011": 0.785599508915,
			"0.012": 0.117759561421,
			"0.013": 0.0,
			"0.014": 0.0,
			"0.015": 0.0,
			"0.016": 0.0,
			"0.017": 0.0,
			"0.018": 0.0,
			"0.019": 0.0,
			"0.02": 0.0,
			"0.021": 0.0,
			"0.022": 0.0,
			"0.023": 0.0,
			"0.024": 0.0,
			"0.025": 0.0
		}
	}
}
