{
	 "smiles": "OC(CNC1CC1)C1=CC=C(F)C=C1", 
	 "Tm": 358.15, 
	 "num_atms": 28, 
	 "gaussian": { 
		 "optdone": 1, 
		 "sigma_profile": "yes", 
		 "theory": "DFT", 
		 "functional": "B3LYP", 
		 "basiset": "6-31G**", 
		 "properties": { 
			 "R2extent": 4213.2961, 
			 "electric_dipole_moment_norm": 2.84295544988, 
			 "electric_quadrupole_moment_norm": 8.32822041495, 
			 "total_energy": -657.377535644, 
			 "HOMO_LUMO_gap": 0.22513, 
			 "cosmo_polarized_energy": -8.19, 
			 "cosmo_cavitation_energy": 31.29, 
			 "cosmo_dispersion_energy": -21.95, 
			 "cosmo_repulsion_energy": 1.72, 
			 "cosmo_total_nonelectrostatic_energy": 11.06, 
			 "SMD_solvation_energy": 4.87 
		},
		"coords": [
			{
				"x": 1.0816832346,
				"y": 0.7555572978,
				"z": -0.8482103622,
				"element": "O" 
			},
			{
				"x": -0.216395883,
				"y": 0.3183482051,
				"z": -1.2052172955,
				"element": "C" 
			},
			{
				"x": -0.3263343403,
				"y": -1.192242052,
				"z": -0.9006983912,
				"element": "C" 
			},
			{
				"x": 0.0936505614,
				"y": -1.4187162316,
				"z": 0.4848374963,
				"element": "N" 
			},
			{
				"x": 0.335071018,
				"y": -2.798079615,
				"z": 0.8293834836,
				"element": "C" 
			},
			{
				"x": 1.2616765179,
				"y": -3.0740265135,
				"z": 1.9832860401,
				"element": "C" 
			},
			{
				"x": 1.7127649387,
				"y": -3.3518466858,
				"z": 0.5686469389,
				"element": "C" 
			},
			{
				"x": -1.3171561315,
				"y": 1.125830804,
				"z": -0.5126557997,
				"element": "C" 
			},
			{
				"x": -2.6649205066,
				"y": 0.928296424,
				"z": -0.8491227629,
				"element": "C" 
			},
			{
				"x": -3.6790460617,
				"y": 1.6516987182,
				"z": -0.2235339806,
				"element": "C" 
			},
			{
				"x": -3.3298710156,
				"y": 2.5843441704,
				"z": 0.7481060581,
				"element": "C" 
			},
			{
				"x": -4.3068707382,
				"y": 3.2889092672,
				"z": 1.3598644391,
				"element": "F" 
			},
			{
				"x": -2.0062065761,
				"y": 2.8139397871,
				"z": 1.0995784291,
				"element": "C" 
			},
			{
				"x": -1.0041011167,
				"y": 2.0808252684,
				"z": 0.4602487933,
				"element": "C" 
			},
			{
				"x": 1.3136633447,
				"y": 0.1986808395,
				"z": -0.0819232835,
				"element": "H" 
			},
			{
				"x": -0.3181571176,
				"y": 0.4566873001,
				"z": -2.289950677,
				"element": "H" 
			},
			{
				"x": -1.3392125867,
				"y": -1.5649613093,
				"z": -1.1223454059,
				"element": "H" 
			},
			{
				"x": 0.3743756496,
				"y": -1.7295556664,
				"z": -1.548136155,
				"element": "H" 
			},
			{
				"x": -0.5924672313,
				"y": -1.0153109389,
				"z": 1.1200792821,
				"element": "H" 
			},
			{
				"x": -0.498660804,
				"y": -3.4937311039,
				"z": 0.6944328691,
				"element": "H" 
			},
			{
				"x": 1.6908798946,
				"y": -2.2110270952,
				"z": 2.4823617222,
				"element": "H" 
			},
			{
				"x": 1.0374006133,
				"y": -3.9133154023,
				"z": 2.6341944585,
				"element": "H" 
			},
			{
				"x": 1.8002692169,
				"y": -4.3837084124,
				"z": 0.2430652879,
				"element": "H" 
			},
			{
				"x": 2.4396853026,
				"y": -2.6724777865,
				"z": 0.1345974776,
				"element": "H" 
			},
			{
				"x": -2.9318994489,
				"y": 0.2060909614,
				"z": -1.6172005372,
				"element": "H" 
			},
			{
				"x": -4.7237118333,
				"y": 1.5085086112,
				"z": -0.4785204864,
				"element": "H" 
			},
			{
				"x": -1.7735021964,
				"y": 3.5582486232,
				"z": 1.8538702168,
				"element": "H" 
			},
			{
				"x": 0.0391932958,
				"y": 2.2576325352,
				"z": 0.6963621445,
				"element": "H" 
			}
		],
		 "valence_orbital": [ 
			{
				"type": "occ",
				"energy": -0.29291,
				"method": "rhf"
			},
			{
				"type": "occ",
				"energy": -0.26791,
				"method": "rhf"
			},
			{
				"type": "occ",
				"energy": -0.25768,
				"method": "rhf"
			},
			{
				"type": "occ",
				"energy": -0.24362,
				"method": "rhf"
			},
			{
				"type": "occ",
				"energy": -0.23507,
				"method": "rhf"
			},
			{
				"type": "unocc",
				"energy": -0.00994,
				"method": "rhf"
			},
			{
				"type": "unocc",
				"energy": 0.00361,
				"method": "rhf"
			},
			{
				"type": "unocc",
				"energy": 0.08533,
				"method": "rhf"
			},
			{
				"type": "unocc",
				"energy": 0.09274,
				"method": "rhf"
			},
			{
				"type": "unocc",
				"energy": 0.10021,
				"method": "rhf"
			}
		],
		"cosmo_sigma_profile": { 
			"-0.025": 0.0,
			"-0.024": 0.0,
			"-0.023": 0.0,
			"-0.022": 0.0,
			"-0.021": 0.0,
			"-0.02": 0.0,
			"-0.019": 0.0,
			"-0.018": 0.0,
			"-0.017": 0.0,
			"-0.016": 0.0,
			"-0.015": 0.0,
			"-0.014": 0.0,
			"-0.013": 0.0,
			"-0.012": 0.0,
			"-0.011": 0.0,
			"-0.01": 0.112450628942,
			"-0.009": 1.13877425147,
			"-0.008": 0.940048886176,
			"-0.007": 3.30928624869,
			"-0.006": 8.75463221531,
			"-0.005": 12.9140377663,
			"-0.004": 23.2453964452,
			"-0.003": 27.1036616286,
			"-0.002": 23.578696317,
			"-0.001": 19.9540801161,
			"0.0": 20.1186603481,
			"0.001": 21.009921997,
			"0.002": 19.391412315,
			"0.003": 16.240514708,
			"0.004": 21.4490576383,
			"0.005": 14.1395848823,
			"0.006": 1.97861345144,
			"0.007": 1.36089265457,
			"0.008": 1.08828960653,
			"0.009": 1.07138299765,
			"0.01": 1.20327579495,
			"0.011": 0.842226981507,
			"0.012": 1.50358705843,
			"0.013": 1.26640861021,
			"0.014": 1.97535406996,
			"0.015": 0.837680369322,
			"0.016": 0.0,
			"0.017": 0.0,
			"0.018": 0.0,
			"0.019": 0.0,
			"0.02": 0.0,
			"0.021": 0.0,
			"0.022": 0.0,
			"0.023": 0.0,
			"0.024": 0.0,
			"0.025": 0.0
		}
	}
}
