{
	 "smiles": "COC(=O)C1CN(CC#N)CCO1", 
	 "Tm": 353.15, 
	 "num_atms": 25, 
	 "gaussian": { 
		 "optdone": 1, 
		 "sigma_profile": "yes", 
		 "theory": "DFT", 
		 "functional": "B3LYP", 
		 "basiset": "6-31G**", 
		 "properties": { 
			 "R2extent": 2811.0474, 
			 "electric_dipole_moment_norm": 2.13519393499, 
			 "electric_quadrupole_moment_norm": 19.0574661458, 
			 "total_energy": -647.214083995, 
			 "HOMO_LUMO_gap": 0.24836, 
			 "cosmo_polarized_energy": -16.26, 
			 "cosmo_cavitation_energy": 28.52, 
			 "cosmo_dispersion_energy": -19.78, 
			 "cosmo_repulsion_energy": 1.59, 
			 "cosmo_total_nonelectrostatic_energy": 10.33, 
			 "SMD_solvation_energy": 5.48 
		},
		"coords": [
			{
				"x": 4.0202242515,
				"y": 1.6396072372,
				"z": 0.5185751337,
				"element": "C" 
			},
			{
				"x": 2.9772584281,
				"y": 0.6822923652,
				"z": 0.7782668946,
				"element": "O" 
			},
			{
				"x": 1.7730247643,
				"y": 1.2038641042,
				"z": 1.0901179743,
				"element": "C" 
			},
			{
				"x": 1.5503662782,
				"y": 2.3885997544,
				"z": 1.1862195708,
				"element": "O" 
			},
			{
				"x": 0.7616038037,
				"y": 0.0715679911,
				"z": 1.3394384554,
				"element": "C" 
			},
			{
				"x": 0.6223944283,
				"y": -0.8537180866,
				"z": 0.1214451106,
				"element": "C" 
			},
			{
				"x": -0.0761999477,
				"y": -0.1422431954,
				"z": -0.9525360329,
				"element": "N" 
			},
			{
				"x": -0.1789802875,
				"y": -0.936614252,
				"z": -2.1710876098,
				"element": "C" 
			},
			{
				"x": 1.1379523035,
				"y": -1.1890779554,
				"z": -2.777640673,
				"element": "C" 
			},
			{
				"x": 2.1733005848,
				"y": -1.4029683136,
				"z": -3.2551445552,
				"element": "N" 
			},
			{
				"x": -1.3967698266,
				"y": 0.2963857661,
				"z": -0.4879629685,
				"element": "C" 
			},
			{
				"x": -1.2259299422,
				"y": 1.2108311084,
				"z": 0.7214641696,
				"element": "C" 
			},
			{
				"x": -0.4910202483,
				"y": 0.5638414856,
				"z": 1.7631629022,
				"element": "O" 
			},
			{
				"x": 3.7484481431,
				"y": 2.2791691954,
				"z": -0.3242937942,
				"element": "H" 
			},
			{
				"x": 4.1931452706,
				"y": 2.2641725756,
				"z": 1.3982977043,
				"element": "H" 
			},
			{
				"x": 4.9065778228,
				"y": 1.0516301241,
				"z": 0.2828063962,
				"element": "H" 
			},
			{
				"x": 1.1541332306,
				"y": -0.5193289123,
				"z": 2.1751982333,
				"element": "H" 
			},
			{
				"x": 1.6133807989,
				"y": -1.1565566484,
				"z": -0.2243517766,
				"element": "H" 
			},
			{
				"x": 0.0682715302,
				"y": -1.7591736753,
				"z": 0.43401477,
				"element": "H" 
			},
			{
				"x": -0.6737975089,
				"y": -1.9152629099,
				"z": -2.0141266441,
				"element": "H" 
			},
			{
				"x": -0.7857788489,
				"y": -0.3868205955,
				"z": -2.8998961191,
				"element": "H" 
			},
			{
				"x": -2.0371749345,
				"y": -0.5659241739,
				"z": -0.2189021493,
				"element": "H" 
			},
			{
				"x": -1.8955094349,
				"y": 0.8495826344,
				"z": -1.2923825308,
				"element": "H" 
			},
			{
				"x": -0.7218972387,
				"y": 2.1365291998,
				"z": 0.4258788922,
				"element": "H" 
			},
			{
				"x": -2.1999234204,
				"y": 1.4561151768,
				"z": 1.1532386464,
				"element": "H" 
			}
		],
		 "valence_orbital": [ 
			{
				"type": "occ",
				"energy": -0.31885,
				"method": "rhf"
			},
			{
				"type": "occ",
				"energy": -0.30663,
				"method": "rhf"
			},
			{
				"type": "occ",
				"energy": -0.28601,
				"method": "rhf"
			},
			{
				"type": "occ",
				"energy": -0.2649,
				"method": "rhf"
			},
			{
				"type": "occ",
				"energy": -0.24382,
				"method": "rhf"
			},
			{
				"type": "unocc",
				"energy": 0.00454,
				"method": "rhf"
			},
			{
				"type": "unocc",
				"energy": 0.01542,
				"method": "rhf"
			},
			{
				"type": "unocc",
				"energy": 0.0334,
				"method": "rhf"
			},
			{
				"type": "unocc",
				"energy": 0.08177,
				"method": "rhf"
			},
			{
				"type": "unocc",
				"energy": 0.09924,
				"method": "rhf"
			}
		],
		"cosmo_sigma_profile": { 
			"-0.025": 0.0,
			"-0.024": 0.0,
			"-0.023": 0.0,
			"-0.022": 0.0,
			"-0.021": 0.0,
			"-0.02": 0.0,
			"-0.019": 0.0,
			"-0.018": 0.0,
			"-0.017": 0.0,
			"-0.016": 0.0,
			"-0.015": 0.0,
			"-0.014": 0.0,
			"-0.013": 0.0,
			"-0.012": 0.0,
			"-0.011": 0.0,
			"-0.01": 0.0430392558143,
			"-0.009": 2.95986406031,
			"-0.008": 6.1706211066,
			"-0.007": 11.297728602,
			"-0.006": 17.7330362968,
			"-0.005": 21.6338244377,
			"-0.004": 26.8841343207,
			"-0.003": 22.2409596716,
			"-0.002": 12.5240816478,
			"-0.001": 8.16122957825,
			"0.0": 7.95423429151,
			"0.001": 7.13359002516,
			"0.002": 8.06335390106,
			"0.003": 7.44831442175,
			"0.004": 7.04283969274,
			"0.005": 7.14035438731,
			"0.006": 5.91608336941,
			"0.007": 7.51645054998,
			"0.008": 6.14136757955,
			"0.009": 5.88419289037,
			"0.01": 7.56880041446,
			"0.011": 8.83940448132,
			"0.012": 6.57810451618,
			"0.013": 1.86585757565,
			"0.014": 0.0168443199157,
			"0.015": 0.0,
			"0.016": 0.0,
			"0.017": 0.0,
			"0.018": 0.0,
			"0.019": 0.0,
			"0.02": 0.0,
			"0.021": 0.0,
			"0.022": 0.0,
			"0.023": 0.0,
			"0.024": 0.0,
			"0.025": 0.0
		}
	}
}
