{
	 "smiles": "ClCC1=NC(=NO1)C1=COC=C1", 
	 "Tm": 324.15, 
	 "num_atms": 17, 
	 "gaussian": { 
		 "optdone": 1, 
		 "sigma_profile": "yes", 
		 "theory": "DFT", 
		 "functional": "B3LYP", 
		 "basiset": "6-31G**", 
		 "properties": { 
			 "R2extent": 3853.2717, 
			 "electric_dipole_moment_norm": 2.27503552939, 
			 "electric_quadrupole_moment_norm": 8.53912797831, 
			 "total_energy": -989.828728629, 
			 "HOMO_LUMO_gap": 0.17867, 
			 "cosmo_polarized_energy": -9.5, 
			 "cosmo_cavitation_energy": 24.83, 
			 "cosmo_dispersion_energy": -18.46, 
			 "cosmo_repulsion_energy": 1.48, 
			 "cosmo_total_nonelectrostatic_energy": 7.84, 
			 "SMD_solvation_energy": 3.57 
		},
		"coords": [
			{
				"x": 1.3080832274,
				"y": -4.8820325249,
				"z": 0.6321071915,
				"element": "Cl" 
			},
			{
				"x": 1.244529818,
				"y": -4.1304055457,
				"z": -1.0204354532,
				"element": "C" 
			},
			{
				"x": 0.526365525,
				"y": -2.8291674263,
				"z": -1.0056352679,
				"element": "C" 
			},
			{
				"x": 1.041119148,
				"y": -1.6363332059,
				"z": -1.0039109575,
				"element": "N" 
			},
			{
				"x": -0.0848124779,
				"y": -0.8327325408,
				"z": -0.9896214428,
				"element": "C" 
			},
			{
				"x": -1.2228207672,
				"y": -1.4969199044,
				"z": -0.984288666,
				"element": "N" 
			},
			{
				"x": -0.8153265462,
				"y": -2.8380077333,
				"z": -0.99755623,
				"element": "O" 
			},
			{
				"x": -0.006506572,
				"y": 0.618340182,
				"z": -0.9838129389,
				"element": "C" 
			},
			{
				"x": -1.0453627623,
				"y": 1.5100327526,
				"z": -0.9791573609,
				"element": "C" 
			},
			{
				"x": -0.5737471373,
				"y": 2.7793923879,
				"z": -0.9735119604,
				"element": "O" 
			},
			{
				"x": 0.7926197864,
				"y": 2.7036922414,
				"z": -0.9743207652,
				"element": "C" 
			},
			{
				"x": 1.1969253338,
				"y": 1.4078787294,
				"z": -0.9805722236,
				"element": "C" 
			},
			{
				"x": 2.2710366615,
				"y": -3.9698917678,
				"z": -1.3440063394,
				"element": "H" 
			},
			{
				"x": 0.7430150034,
				"y": -4.8464412779,
				"z": -1.6712404412,
				"element": "H" 
			},
			{
				"x": -2.1171699186,
				"y": 1.3905824572,
				"z": -0.9785832608,
				"element": "H" 
			},
			{
				"x": 1.3139241261,
				"y": 3.6477205281,
				"z": -0.9695014901,
				"element": "H" 
			},
			{
				"x": 2.2087275522,
				"y": 1.0321926485,
				"z": -0.9813523935,
				"element": "H" 
			}
		],
		 "valence_orbital": [ 
			{
				"type": "occ",
				"energy": -0.31524,
				"method": "rhf"
			},
			{
				"type": "occ",
				"energy": -0.31141,
				"method": "rhf"
			},
			{
				"type": "occ",
				"energy": -0.30811,
				"method": "rhf"
			},
			{
				"type": "occ",
				"energy": -0.27554,
				"method": "rhf"
			},
			{
				"type": "occ",
				"energy": -0.23813,
				"method": "rhf"
			},
			{
				"type": "unocc",
				"energy": -0.05946,
				"method": "rhf"
			},
			{
				"type": "unocc",
				"energy": -0.02232,
				"method": "rhf"
			},
			{
				"type": "unocc",
				"energy": 0.01787,
				"method": "rhf"
			},
			{
				"type": "unocc",
				"energy": 0.0395,
				"method": "rhf"
			},
			{
				"type": "unocc",
				"energy": 0.07621,
				"method": "rhf"
			}
		],
		"cosmo_sigma_profile": { 
			"-0.025": 0.0,
			"-0.024": 0.0,
			"-0.023": 0.0,
			"-0.022": 0.0,
			"-0.021": 0.0,
			"-0.02": 0.0,
			"-0.019": 0.0,
			"-0.018": 0.0,
			"-0.017": 0.0,
			"-0.016": 0.0,
			"-0.015": 0.0,
			"-0.014": 0.0,
			"-0.013": 0.0,
			"-0.012": 0.0,
			"-0.011": 0.313578463029,
			"-0.01": 5.79792048666,
			"-0.009": 7.45088609821,
			"-0.008": 8.27252959321,
			"-0.007": 8.88225536577,
			"-0.006": 6.9801245689,
			"-0.005": 7.6447057329,
			"-0.004": 6.98216295257,
			"-0.003": 7.67040024014,
			"-0.002": 11.1502522208,
			"-0.001": 11.5398562587,
			"0.0": 14.4495082659,
			"0.001": 20.8292281944,
			"0.002": 17.2640735096,
			"0.003": 15.0959396648,
			"0.004": 13.9442020637,
			"0.005": 15.5546722797,
			"0.006": 8.05766921041,
			"0.007": 4.69116045423,
			"0.008": 2.69568254189,
			"0.009": 2.48895737721,
			"0.01": 1.65801710749,
			"0.011": 1.81672944702,
			"0.012": 1.67004841252,
			"0.013": 0.103861669275,
			"0.014": 0.0,
			"0.015": 0.0,
			"0.016": 0.0,
			"0.017": 0.0,
			"0.018": 0.0,
			"0.019": 0.0,
			"0.02": 0.0,
			"0.021": 0.0,
			"0.022": 0.0,
			"0.023": 0.0,
			"0.024": 0.0,
			"0.025": 0.0
		}
	}
}
