{
	 "smiles": "CC1=NC(=CS1)C1=CC=C(C=C1)C1=CC=CC=C1", 
	 "Tm": 389.15, 
	 "num_atms": 31, 
	 "gaussian": { 
		 "optdone": 1, 
		 "sigma_profile": "yes", 
		 "theory": "DFT", 
		 "functional": "B3LYP", 
		 "basiset": "6-31G**", 
		 "properties": { 
			 "R2extent": 8439.2933, 
			 "electric_dipole_moment_norm": 0.918877864572, 
			 "electric_quadrupole_moment_norm": 14.8581375334, 
			 "total_energy": -1070.49137138, 
			 "HOMO_LUMO_gap": 0.16304, 
			 "cosmo_polarized_energy": -8.84, 
			 "cosmo_cavitation_energy": 36.72, 
			 "cosmo_dispersion_energy": -27.43, 
			 "cosmo_repulsion_energy": 2.04, 
			 "cosmo_total_nonelectrostatic_energy": 11.33, 
			 "SMD_solvation_energy": 4.65 
		},
		"coords": [
			{
				"x": 1.0819475973,
				"y": 1.9996699783,
				"z": -6.0757022062,
				"element": "C" 
			},
			{
				"x": 0.1685019929,
				"y": 2.012563705,
				"z": -4.8880807747,
				"element": "C" 
			},
			{
				"x": 0.4447200275,
				"y": 1.4676223035,
				"z": -3.7434305315,
				"element": "N" 
			},
			{
				"x": -0.5778436287,
				"y": 1.6256435,
				"z": -2.8186243494,
				"element": "C" 
			},
			{
				"x": -1.6634121897,
				"y": 2.3193434524,
				"z": -3.2935554029,
				"element": "C" 
			},
			{
				"x": -1.4147159487,
				"y": 2.7920620617,
				"z": -4.9395825472,
				"element": "S" 
			},
			{
				"x": -0.4127255896,
				"y": 1.0599729874,
				"z": -1.4670178965,
				"element": "C" 
			},
			{
				"x": -1.4183025044,
				"y": 1.1532674009,
				"z": -0.4901152139,
				"element": "C" 
			},
			{
				"x": -1.2377782071,
				"y": 0.6136101829,
				"z": 0.7778082134,
				"element": "C" 
			},
			{
				"x": -0.045123066,
				"y": -0.0442076291,
				"z": 1.1281154034,
				"element": "C" 
			},
			{
				"x": 0.9571429095,
				"y": -0.13615325,
				"z": 0.1478742133,
				"element": "C" 
			},
			{
				"x": 0.7796022186,
				"y": 0.4026188139,
				"z": -1.1221418533,
				"element": "C" 
			},
			{
				"x": 0.1453244823,
				"y": -0.6198453976,
				"z": 2.4823824188,
				"element": "C" 
			},
			{
				"x": -0.3598186211,
				"y": 0.0296227716,
				"z": 3.6223926757,
				"element": "C" 
			},
			{
				"x": -0.1813116231,
				"y": -0.5115577606,
				"z": 4.8946684355,
				"element": "C" 
			},
			{
				"x": 0.5082832118,
				"y": -1.7146592003,
				"z": 5.0572986404,
				"element": "C" 
			},
			{
				"x": 1.0167921751,
				"y": -2.3713242316,
				"z": 3.9349113718,
				"element": "C" 
			},
			{
				"x": 0.8365976369,
				"y": -1.830740018,
				"z": 2.6626530826,
				"element": "C" 
			},
			{
				"x": 1.9970509443,
				"y": 1.471070246,
				"z": -5.8028669264,
				"element": "H" 
			},
			{
				"x": 1.3422496864,
				"y": 3.0147805277,
				"z": -6.3935834493,
				"element": "H" 
			},
			{
				"x": 0.6226704288,
				"y": 1.4911780306,
				"z": -6.9300417715,
				"element": "H" 
			},
			{
				"x": -2.5779648644,
				"y": 2.5789728726,
				"z": -2.7815340379,
				"element": "H" 
			},
			{
				"x": -2.3603136215,
				"y": 1.6416433509,
				"z": -0.7214641582,
				"element": "H" 
			},
			{
				"x": -2.0447466693,
				"y": 0.6778932222,
				"z": 1.5016607973,
				"element": "H" 
			},
			{
				"x": 1.9009641677,
				"y": -0.6143403875,
				"z": 0.393040778,
				"element": "H" 
			},
			{
				"x": 1.5663742704,
				"y": 0.3304641522,
				"z": -1.8643528673,
				"element": "H" 
			},
			{
				"x": -0.8732808321,
				"y": 0.9800858174,
				"z": 3.5107258197,
				"element": "H" 
			},
			{
				"x": -0.5736334336,
				"y": 0.0127495113,
				"z": 5.7616423986,
				"element": "H" 
			},
			{
				"x": 0.6480363163,
				"y": -2.1361471861,
				"z": 6.0485338667,
				"element": "H" 
			},
			{
				"x": 1.5475712048,
				"y": -3.3124831791,
				"z": 4.048614939,
				"element": "H" 
			},
			{
				"x": 1.2123415287,
				"y": -2.3640766488,
				"z": 1.794470932,
				"element": "H" 
			}
		],
		 "valence_orbital": [ 
			{
				"type": "occ",
				"energy": -0.27158,
				"method": "rhf"
			},
			{
				"type": "occ",
				"energy": -0.24878,
				"method": "rhf"
			},
			{
				"type": "occ",
				"energy": -0.24801,
				"method": "rhf"
			},
			{
				"type": "occ",
				"energy": -0.24491,
				"method": "rhf"
			},
			{
				"type": "occ",
				"energy": -0.20571,
				"method": "rhf"
			},
			{
				"type": "unocc",
				"energy": -0.04267,
				"method": "rhf"
			},
			{
				"type": "unocc",
				"energy": -0.01608,
				"method": "rhf"
			},
			{
				"type": "unocc",
				"energy": -0.00072,
				"method": "rhf"
			},
			{
				"type": "unocc",
				"energy": 0.00472,
				"method": "rhf"
			},
			{
				"type": "unocc",
				"energy": 0.0177,
				"method": "rhf"
			}
		],
		"cosmo_sigma_profile": { 
			"-0.025": 0.0,
			"-0.024": 0.0,
			"-0.023": 0.0,
			"-0.022": 0.0,
			"-0.021": 0.0,
			"-0.02": 0.0,
			"-0.019": 0.0,
			"-0.018": 0.0,
			"-0.017": 0.0,
			"-0.016": 0.0,
			"-0.015": 0.0,
			"-0.014": 0.0,
			"-0.013": 0.0,
			"-0.012": 0.0,
			"-0.011": 0.0,
			"-0.01": 0.179564280124,
			"-0.009": 2.31249190054,
			"-0.008": 2.34123597689,
			"-0.007": 2.69248071378,
			"-0.006": 10.7850881796,
			"-0.005": 26.3572700395,
			"-0.004": 27.0845238956,
			"-0.003": 24.4340738849,
			"-0.002": 22.0964642663,
			"-0.001": 20.851514716,
			"0.0": 16.5640811408,
			"0.001": 19.1453122427,
			"0.002": 26.6534473844,
			"0.003": 31.8091794592,
			"0.004": 24.720300463,
			"0.005": 22.3672402832,
			"0.006": 9.6307331747,
			"0.007": 1.54022013798,
			"0.008": 1.66028413187,
			"0.009": 1.44797613677,
			"0.01": 1.22408286047,
			"0.011": 1.18395681711,
			"0.012": 0.0788576125589,
			"0.013": 0.0,
			"0.014": 0.0,
			"0.015": 0.0,
			"0.016": 0.0,
			"0.017": 0.0,
			"0.018": 0.0,
			"0.019": 0.0,
			"0.02": 0.0,
			"0.021": 0.0,
			"0.022": 0.0,
			"0.023": 0.0,
			"0.024": 0.0,
			"0.025": 0.0
		}
	}
}
