{
	 "smiles": "BrC1=CC(C=O)=C(OCC2=CC=CC=C2)C=C1", 
	 "Tm": 335.15, 
	 "num_atms": 28, 
	 "gaussian": { 
		 "optdone": 1, 
		 "sigma_profile": "yes", 
		 "theory": "DFT", 
		 "functional": "B3LYP", 
		 "basiset": "6-31G**", 
		 "properties": { 
			 "R2extent": 10059.5571, 
			 "electric_dipole_moment_norm": 5.6732362995, 
			 "electric_quadrupole_moment_norm": 19.6465291986, 
			 "total_energy": -3261.9522365, 
			 "HOMO_LUMO_gap": 0.16571, 
			 "cosmo_polarized_energy": -10.7, 
			 "cosmo_cavitation_energy": 35.18, 
			 "cosmo_dispersion_energy": -25.12, 
			 "cosmo_repulsion_energy": 1.96, 
			 "cosmo_total_nonelectrostatic_energy": 12.03, 
			 "SMD_solvation_energy": 5.98 
		},
		"coords": [
			{
				"x": -3.0923050878,
				"y": 4.6967978173,
				"z": 3.1322545339,
				"element": "Br" 
			},
			{
				"x": -2.5587120057,
				"y": 3.0493476157,
				"z": 2.3242405111,
				"element": "C" 
			},
			{
				"x": -3.4632253378,
				"y": 2.0049069589,
				"z": 2.2095639861,
				"element": "C" 
			},
			{
				"x": -3.0718638447,
				"y": 0.7959246295,
				"z": 1.6191973142,
				"element": "C" 
			},
			{
				"x": -4.0657537804,
				"y": -0.3009284087,
				"z": 1.5263810745,
				"element": "C" 
			},
			{
				"x": -5.2134878809,
				"y": -0.2008578788,
				"z": 1.924190124,
				"element": "O" 
			},
			{
				"x": -1.7510776444,
				"y": 0.6465919929,
				"z": 1.1381528938,
				"element": "C" 
			},
			{
				"x": -1.4442145182,
				"y": -0.5594318101,
				"z": 0.5833186384,
				"element": "O" 
			},
			{
				"x": -0.0919233397,
				"y": -0.852218648,
				"z": 0.2155216181,
				"element": "C" 
			},
			{
				"x": 0.345916729,
				"y": -0.2200888172,
				"z": -1.0904986481,
				"element": "C" 
			},
			{
				"x": 1.6841930677,
				"y": 0.1462068033,
				"z": -1.2749941231,
				"element": "C" 
			},
			{
				"x": 2.1133542403,
				"y": 0.6729189235,
				"z": -2.494593052,
				"element": "C" 
			},
			{
				"x": 1.203767459,
				"y": 0.8467731777,
				"z": -3.5386842813,
				"element": "C" 
			},
			{
				"x": -0.1341362344,
				"y": 0.4880329006,
				"z": -3.3584539497,
				"element": "C" 
			},
			{
				"x": -0.5607370669,
				"y": -0.0469485389,
				"z": -2.1430224773,
				"element": "C" 
			},
			{
				"x": -0.8491733606,
				"y": 1.7129507459,
				"z": 1.2544260036,
				"element": "C" 
			},
			{
				"x": -1.2542894133,
				"y": 2.9075641921,
				"z": 1.8476484295,
				"element": "C" 
			},
			{
				"x": -4.4825124354,
				"y": 2.0867706455,
				"z": 2.5698635237,
				"element": "H" 
			},
			{
				"x": -3.700995536,
				"y": -1.2378142909,
				"z": 1.0674335988,
				"element": "H" 
			},
			{
				"x": -0.0801284355,
				"y": -1.9438726802,
				"z": 0.1312337755,
				"element": "H" 
			},
			{
				"x": 0.5892256896,
				"y": -0.5776312215,
				"z": 1.0308167252,
				"element": "H" 
			},
			{
				"x": 2.3957873913,
				"y": 0.0189177796,
				"z": -0.4618955294,
				"element": "H" 
			},
			{
				"x": 3.1543681481,
				"y": 0.9541617293,
				"z": -2.6248535462,
				"element": "H" 
			},
			{
				"x": 1.5341001737,
				"y": 1.2624790498,
				"z": -4.4860629517,
				"element": "H" 
			},
			{
				"x": -0.8471154874,
				"y": 0.6238710517,
				"z": -4.1665502418,
				"element": "H" 
			},
			{
				"x": -1.600823495,
				"y": -0.3243524914,
				"z": -2.0019448485,
				"element": "H" 
			},
			{
				"x": 0.1575766647,
				"y": 1.6343241699,
				"z": 0.8647715342,
				"element": "H" 
			},
			{
				"x": -0.5536146594,
				"y": 3.7308046026,
				"z": 1.9318393645,
				"element": "H" 
			}
		],
		 "valence_orbital": [ 
			{
				"type": "occ",
				"energy": -0.27201,
				"method": "rhf"
			},
			{
				"type": "occ",
				"energy": -0.26411,
				"method": "rhf"
			},
			{
				"type": "occ",
				"energy": -0.25875,
				"method": "rhf"
			},
			{
				"type": "occ",
				"energy": -0.25169,
				"method": "rhf"
			},
			{
				"type": "occ",
				"energy": -0.23229,
				"method": "rhf"
			},
			{
				"type": "unocc",
				"energy": -0.06658,
				"method": "rhf"
			},
			{
				"type": "unocc",
				"energy": -0.01944,
				"method": "rhf"
			},
			{
				"type": "unocc",
				"energy": -0.01673,
				"method": "rhf"
			},
			{
				"type": "unocc",
				"energy": -0.01127,
				"method": "rhf"
			},
			{
				"type": "unocc",
				"energy": 0.00625,
				"method": "rhf"
			}
		],
		"cosmo_sigma_profile": { 
			"-0.025": 0.0,
			"-0.024": 0.0,
			"-0.023": 0.0,
			"-0.022": 0.0,
			"-0.021": 0.0,
			"-0.02": 0.0,
			"-0.019": 0.0,
			"-0.018": 0.0,
			"-0.017": 0.0,
			"-0.016": 0.0,
			"-0.015": 0.0,
			"-0.014": 0.0,
			"-0.013": 0.0,
			"-0.012": 0.0,
			"-0.011": 0.0,
			"-0.01": 0.0,
			"-0.009": 0.000261363462825,
			"-0.008": 2.14775246903,
			"-0.007": 8.69173410875,
			"-0.006": 16.5326319928,
			"-0.005": 19.2855761542,
			"-0.004": 24.3010939581,
			"-0.003": 20.5284229593,
			"-0.002": 18.8990011294,
			"-0.001": 20.6410116845,
			"0.0": 22.1821913479,
			"0.001": 27.6813189747,
			"0.002": 27.6079987425,
			"0.003": 19.1918666443,
			"0.004": 21.661576449,
			"0.005": 15.8856996784,
			"0.006": 5.05748411025,
			"0.007": 1.92117053573,
			"0.008": 1.31320984891,
			"0.009": 2.35100860967,
			"0.01": 2.36674578033,
			"0.011": 4.34212955482,
			"0.012": 2.46614535587,
			"0.013": 0.70640638804,
			"0.014": 0.0,
			"0.015": 0.0,
			"0.016": 0.0,
			"0.017": 0.0,
			"0.018": 0.0,
			"0.019": 0.0,
			"0.02": 0.0,
			"0.021": 0.0,
			"0.022": 0.0,
			"0.023": 0.0,
			"0.024": 0.0,
			"0.025": 0.0
		}
	}
}
