{
	 "smiles": "FC1=CC=C(CNC(=O)CCl)C=C1", 
	 "Tm": 366.65, 
	 "num_atms": 22, 
	 "gaussian": { 
		 "optdone": 1, 
		 "sigma_profile": "yes", 
		 "theory": "DFT", 
		 "functional": "B3LYP", 
		 "basiset": "6-31G**", 
		 "properties": { 
			 "R2extent": 4114.1237, 
			 "electric_dipole_moment_norm": 3.05171916958, 
			 "electric_quadrupole_moment_norm": 19.1996019146, 
			 "total_energy": -1038.39367999, 
			 "HOMO_LUMO_gap": 0.22251, 
			 "cosmo_polarized_energy": -12.97, 
			 "cosmo_cavitation_energy": 28.52, 
			 "cosmo_dispersion_energy": -20.0, 
			 "cosmo_repulsion_energy": 1.59, 
			 "cosmo_total_nonelectrostatic_energy": 10.11, 
			 "SMD_solvation_energy": 5.59 
		},
		"coords": [
			{
				"x": -3.0766507145,
				"y": 0.4773166211,
				"z": 1.5942949101,
				"element": "F" 
			},
			{
				"x": -1.7754190428,
				"y": 0.6400453569,
				"z": 1.279672705,
				"element": "C" 
			},
			{
				"x": -0.8136206321,
				"y": 0.456120068,
				"z": 2.266417336,
				"element": "C" 
			},
			{
				"x": 0.5295089359,
				"y": 0.6206272298,
				"z": 1.9281506358,
				"element": "C" 
			},
			{
				"x": 0.911418574,
				"y": 0.9701314071,
				"z": 0.6261175608,
				"element": "C" 
			},
			{
				"x": 2.3858087895,
				"y": 1.1961794266,
				"z": 0.3116705712,
				"element": "C" 
			},
			{
				"x": 2.783498912,
				"y": 0.9192489997,
				"z": -1.063362153,
				"element": "N" 
			},
			{
				"x": 2.9845811963,
				"y": -0.2977980706,
				"z": -1.6553610448,
				"element": "C" 
			},
			{
				"x": 3.2479346539,
				"y": -0.4073190048,
				"z": -2.8438035909,
				"element": "O" 
			},
			{
				"x": 2.8514625739,
				"y": -1.5378602709,
				"z": -0.7703239778,
				"element": "C" 
			},
			{
				"x": 4.2837711561,
				"y": -1.7414705394,
				"z": 0.3323508179,
				"element": "Cl" 
			},
			{
				"x": -0.0846833447,
				"y": 1.1438104078,
				"z": -0.3427792385,
				"element": "C" 
			},
			{
				"x": -1.4326839511,
				"y": 0.9790995757,
				"z": -0.0243710165,
				"element": "C" 
			},
			{
				"x": -1.1194420761,
				"y": 0.1815153447,
				"z": 3.2701000643,
				"element": "H" 
			},
			{
				"x": 1.2902659197,
				"y": 0.4726308382,
				"z": 2.6907555309,
				"element": "H" 
			},
			{
				"x": 2.6445097858,
				"y": 2.2441445423,
				"z": 0.5023233563,
				"element": "H" 
			},
			{
				"x": 3.0015272121,
				"y": 0.6063167274,
				"z": 0.9974885176,
				"element": "H" 
			},
			{
				"x": 2.8937825262,
				"y": 1.694226044,
				"z": -1.7030872908,
				"element": "H" 
			},
			{
				"x": 2.8299117567,
				"y": -2.4059876099,
				"z": -1.42474403,
				"element": "H" 
			},
			{
				"x": 1.9643132749,
				"y": -1.5099611964,
				"z": -0.1359562177,
				"element": "H" 
			},
			{
				"x": 0.1944283302,
				"y": 1.3997371127,
				"z": -1.3604018914,
				"element": "H" 
			},
			{
				"x": -2.2125238359,
				"y": 1.10734699,
				"z": -0.7672515547,
				"element": "H" 
			}
		],
		 "valence_orbital": [ 
			{
				"type": "occ",
				"energy": -0.30778,
				"method": "rhf"
			},
			{
				"type": "occ",
				"energy": -0.2728,
				"method": "rhf"
			},
			{
				"type": "occ",
				"energy": -0.2678,
				"method": "rhf"
			},
			{
				"type": "occ",
				"energy": -0.25981,
				"method": "rhf"
			},
			{
				"type": "occ",
				"energy": -0.24987,
				"method": "rhf"
			},
			{
				"type": "unocc",
				"energy": -0.02736,
				"method": "rhf"
			},
			{
				"type": "unocc",
				"energy": -0.02073,
				"method": "rhf"
			},
			{
				"type": "unocc",
				"energy": -0.01336,
				"method": "rhf"
			},
			{
				"type": "unocc",
				"energy": 0.05037,
				"method": "rhf"
			},
			{
				"type": "unocc",
				"energy": 0.07106,
				"method": "rhf"
			}
		],
		"cosmo_sigma_profile": { 
			"-0.025": 0.0,
			"-0.024": 0.0,
			"-0.023": 0.0,
			"-0.022": 0.0,
			"-0.021": 0.0,
			"-0.02": 0.0,
			"-0.019": 0.0,
			"-0.018": 0.0,
			"-0.017": 0.0,
			"-0.016": 0.0,
			"-0.015": 0.13088664742,
			"-0.014": 1.05540339125,
			"-0.013": 1.38947614553,
			"-0.012": 1.44426419588,
			"-0.011": 0.760588547526,
			"-0.01": 1.12760308315,
			"-0.009": 1.41605284883,
			"-0.008": 4.01461937445,
			"-0.007": 10.0624397964,
			"-0.006": 15.9577354178,
			"-0.005": 16.1103903262,
			"-0.004": 15.9857022925,
			"-0.003": 11.5937086282,
			"-0.002": 11.7961512894,
			"-0.001": 12.1609371037,
			"0.0": 10.8620753807,
			"0.001": 18.7587579383,
			"0.002": 18.4950082967,
			"0.003": 17.5513123397,
			"0.004": 23.0756655863,
			"0.005": 14.4070040726,
			"0.006": 4.19210607037,
			"0.007": 0.64301400532,
			"0.008": 1.07958138275,
			"0.009": 1.88452869216,
			"0.01": 1.31702926825,
			"0.011": 1.42789986903,
			"0.012": 3.09184080128,
			"0.013": 5.81658306133,
			"0.014": 1.8197616019,
			"0.015": 0.0,
			"0.016": 0.0,
			"0.017": 0.0,
			"0.018": 0.0,
			"0.019": 0.0,
			"0.02": 0.0,
			"0.021": 0.0,
			"0.022": 0.0,
			"0.023": 0.0,
			"0.024": 0.0,
			"0.025": 0.0
		}
	}
}
