{
	 "smiles": "FC1=C(Cl)C=CC(Cl)=C1", 
	 "Tm": 277.15, 
	 "num_atms": 12, 
	 "gaussian": { 
		 "optdone": 1, 
		 "sigma_profile": "yes", 
		 "theory": "DFT", 
		 "functional": "B3LYP", 
		 "basiset": "6-31G**", 
		 "properties": { 
			 "R2extent": 2521.2489, 
			 "electric_dipole_moment_norm": 1.19671992128, 
			 "electric_quadrupole_moment_norm": 5.45339095151, 
			 "total_energy": -1250.66057595, 
			 "HOMO_LUMO_gap": 0.21647, 
			 "cosmo_polarized_energy": -3.69, 
			 "cosmo_cavitation_energy": 20.58, 
			 "cosmo_dispersion_energy": -15.54, 
			 "cosmo_repulsion_energy": 1.26, 
			 "cosmo_total_nonelectrostatic_energy": 6.3, 
			 "SMD_solvation_energy": 3.53 
		},
		"coords": [
			{
				"x": -1.4354630217,
				"y": -0.7954796557,
				"z": -1.0952446917,
				"element": "F" 
			},
			{
				"x": -1.2106148365,
				"y": -0.1319941022,
				"z": 0.0464961723,
				"element": "C" 
			},
			{
				"x": -0.0200486981,
				"y": -0.3384759508,
				"z": 0.7469642579,
				"element": "C" 
			},
			{
				"x": 1.1652513748,
				"y": -1.4583214534,
				"z": 0.1304121039,
				"element": "Cl" 
			},
			{
				"x": 0.1991640222,
				"y": 0.3599390254,
				"z": 1.9342035341,
				"element": "C" 
			},
			{
				"x": -0.7571159138,
				"y": 1.252838386,
				"z": 2.4163011746,
				"element": "C" 
			},
			{
				"x": -1.9379013864,
				"y": 1.4407396089,
				"z": 1.6972828071,
				"element": "C" 
			},
			{
				"x": -3.1471746235,
				"y": 2.560504056,
				"z": 2.2935008136,
				"element": "Cl" 
			},
			{
				"x": -2.1775541099,
				"y": 0.7533025906,
				"z": 0.5087416386,
				"element": "C" 
			},
			{
				"x": 1.123135495,
				"y": 0.2003978056,
				"z": 2.4788977315,
				"element": "H" 
			},
			{
				"x": -0.58692852,
				"y": 1.7954749943,
				"z": 3.3386308537,
				"element": "H" 
			},
			{
				"x": -3.0900497823,
				"y": 0.8903746952,
				"z": -0.0585863956,
				"element": "H" 
			}
		],
		 "valence_orbital": [ 
			{
				"type": "occ",
				"energy": -0.32852,
				"method": "rhf"
			},
			{
				"type": "occ",
				"energy": -0.32501,
				"method": "rhf"
			},
			{
				"type": "occ",
				"energy": -0.3249,
				"method": "rhf"
			},
			{
				"type": "occ",
				"energy": -0.27646,
				"method": "rhf"
			},
			{
				"type": "occ",
				"energy": -0.25223,
				"method": "rhf"
			},
			{
				"type": "unocc",
				"energy": -0.03576,
				"method": "rhf"
			},
			{
				"type": "unocc",
				"energy": -0.02481,
				"method": "rhf"
			},
			{
				"type": "unocc",
				"energy": 0.00362,
				"method": "rhf"
			},
			{
				"type": "unocc",
				"energy": 0.02932,
				"method": "rhf"
			},
			{
				"type": "unocc",
				"energy": 0.12189,
				"method": "rhf"
			}
		],
		"cosmo_sigma_profile": { 
			"-0.025": 0.0,
			"-0.024": 0.0,
			"-0.023": 0.0,
			"-0.022": 0.0,
			"-0.021": 0.0,
			"-0.02": 0.0,
			"-0.019": 0.0,
			"-0.018": 0.0,
			"-0.017": 0.0,
			"-0.016": 0.0,
			"-0.015": 0.0,
			"-0.014": 0.0,
			"-0.013": 0.0,
			"-0.012": 0.0,
			"-0.011": 0.0,
			"-0.01": 0.0458759858794,
			"-0.009": 1.88184179718,
			"-0.008": 4.98897709338,
			"-0.007": 5.85751040872,
			"-0.006": 4.6543067518,
			"-0.005": 4.57755779372,
			"-0.004": 5.37616594872,
			"-0.003": 6.1852066865,
			"-0.002": 11.676927026,
			"-0.001": 16.4197758086,
			"0.0": 21.8858532474,
			"0.001": 23.4966906048,
			"0.002": 15.7275413822,
			"0.003": 23.1727887851,
			"0.004": 21.8121284868,
			"0.005": 3.10788723124,
			"0.006": 0.0,
			"0.007": 0.0,
			"0.008": 0.0,
			"0.009": 0.0,
			"0.01": 0.0,
			"0.011": 0.0,
			"0.012": 0.0,
			"0.013": 0.0,
			"0.014": 0.0,
			"0.015": 0.0,
			"0.016": 0.0,
			"0.017": 0.0,
			"0.018": 0.0,
			"0.019": 0.0,
			"0.02": 0.0,
			"0.021": 0.0,
			"0.022": 0.0,
			"0.023": 0.0,
			"0.024": 0.0,
			"0.025": 0.0
		}
	}
}
