{
	 "smiles": "NC(=N)NC(CC1=CC=CC=C1)C(O)=O", 
	 "Tm": 525.15, 
	 "num_atms": 28, 
	 "gaussian": { 
		 "optdone": 1, 
		 "sigma_profile": "yes", 
		 "theory": "DFT", 
		 "functional": "B3LYP", 
		 "basiset": "6-31G**", 
		 "properties": { 
			 "R2extent": 3172.5434, 
			 "electric_dipole_moment_norm": 3.86703359825, 
			 "electric_quadrupole_moment_norm": 21.1643614813, 
			 "total_energy": -703.608860714, 
			 "HOMO_LUMO_gap": 0.20497, 
			 "cosmo_polarized_energy": -20.98, 
			 "cosmo_cavitation_energy": 30.85, 
			 "cosmo_dispersion_energy": -21.57, 
			 "cosmo_repulsion_energy": 1.72, 
			 "cosmo_total_nonelectrostatic_energy": 11.0, 
			 "SMD_solvation_energy": 4.61 
		},
		"coords": [
			{
				"x": -1.4500206809,
				"y": -1.2035846937,
				"z": 1.4360238985,
				"element": "N" 
			},
			{
				"x": -1.0811551472,
				"y": -2.3229361379,
				"z": 0.691730413,
				"element": "C" 
			},
			{
				"x": -1.3202336299,
				"y": -3.5569202004,
				"z": 0.9471089692,
				"element": "N" 
			},
			{
				"x": -0.3775856411,
				"y": -2.0230689214,
				"z": -0.4819832422,
				"element": "N" 
			},
			{
				"x": -0.6520486411,
				"y": -0.8621359171,
				"z": -1.3291054488,
				"element": "C" 
			},
			{
				"x": 0.4178186049,
				"y": 0.2631344766,
				"z": -1.2215058396,
				"element": "C" 
			},
			{
				"x": 0.7205917131,
				"y": 0.8317933197,
				"z": 0.1493016876,
				"element": "C" 
			},
			{
				"x": 0.1012236315,
				"y": 2.0035420847,
				"z": 0.611209974,
				"element": "C" 
			},
			{
				"x": 0.4039817964,
				"y": 2.5241064495,
				"z": 1.8706066515,
				"element": "C" 
			},
			{
				"x": 1.3329365519,
				"y": 1.8827500193,
				"z": 2.6929073838,
				"element": "C" 
			},
			{
				"x": 1.9593352242,
				"y": 0.7179303079,
				"z": 2.245297452,
				"element": "C" 
			},
			{
				"x": 1.6578708925,
				"y": 0.2004832376,
				"z": 0.9837161222,
				"element": "C" 
			},
			{
				"x": -2.1247881255,
				"y": -0.4227353085,
				"z": -1.2664416648,
				"element": "C" 
			},
			{
				"x": -2.2846155489,
				"y": 0.9235758079,
				"z": -1.2366079719,
				"element": "O" 
			},
			{
				"x": -3.0585498056,
				"y": -1.1859350732,
				"z": -1.330074153,
				"element": "O" 
			},
			{
				"x": -1.890071525,
				"y": -1.4258071154,
				"z": 2.3177980259,
				"element": "H" 
			},
			{
				"x": -0.742146296,
				"y": -0.4836959722,
				"z": 1.5198217402,
				"element": "H" 
			},
			{
				"x": -1.7192850268,
				"y": -3.6670487495,
				"z": 1.8792967599,
				"element": "H" 
			},
			{
				"x": -0.250230988,
				"y": -2.8859987598,
				"z": -0.9939635342,
				"element": "H" 
			},
			{
				"x": -0.5680583379,
				"y": -1.2255221274,
				"z": -2.3620194753,
				"element": "H" 
			},
			{
				"x": 1.3403372919,
				"y": -0.1702633793,
				"z": -1.6229372511,
				"element": "H" 
			},
			{
				"x": 0.1242754617,
				"y": 1.0682854046,
				"z": -1.9015027464,
				"element": "H" 
			},
			{
				"x": -0.62737107,
				"y": 2.5002508313,
				"z": -0.0210476431,
				"element": "H" 
			},
			{
				"x": -0.0842053109,
				"y": 3.4341986677,
				"z": 2.2080888101,
				"element": "H" 
			},
			{
				"x": 1.570421871,
				"y": 2.290016835,
				"z": 3.6715011581,
				"element": "H" 
			},
			{
				"x": 2.6877230069,
				"y": 0.2138294258,
				"z": 2.8742392824,
				"element": "H" 
			},
			{
				"x": 2.1469301024,
				"y": -0.7061017285,
				"z": 0.6394047939,
				"element": "H" 
			},
			{
				"x": -3.2455803737,
				"y": 1.0716572167,
				"z": -1.2457641519,
				"element": "H" 
			}
		],
		 "valence_orbital": [ 
			{
				"type": "occ",
				"energy": -0.26546,
				"method": "rhf"
			},
			{
				"type": "occ",
				"energy": -0.25645,
				"method": "rhf"
			},
			{
				"type": "occ",
				"energy": -0.24905,
				"method": "rhf"
			},
			{
				"type": "occ",
				"energy": -0.24697,
				"method": "rhf"
			},
			{
				"type": "occ",
				"energy": -0.21601,
				"method": "rhf"
			},
			{
				"type": "unocc",
				"energy": -0.01104,
				"method": "rhf"
			},
			{
				"type": "unocc",
				"energy": -0.00756,
				"method": "rhf"
			},
			{
				"type": "unocc",
				"energy": 0.00437,
				"method": "rhf"
			},
			{
				"type": "unocc",
				"energy": 0.05992,
				"method": "rhf"
			},
			{
				"type": "unocc",
				"energy": 0.07615,
				"method": "rhf"
			}
		],
		"cosmo_sigma_profile": { 
			"-0.025": 0.0,
			"-0.024": 0.0,
			"-0.023": 0.0,
			"-0.022": 0.0,
			"-0.021": 0.0,
			"-0.02": 0.0,
			"-0.019": 0.0803438373281,
			"-0.018": 0.610359424201,
			"-0.017": 0.859808506303,
			"-0.016": 1.37461426119,
			"-0.015": 0.625037657631,
			"-0.014": 0.271409691049,
			"-0.013": 2.41024827893,
			"-0.012": 4.1834043173,
			"-0.011": 4.41671148702,
			"-0.01": 4.16653064222,
			"-0.009": 3.57777926256,
			"-0.008": 6.62378052478,
			"-0.007": 5.2119322784,
			"-0.006": 7.30389320715,
			"-0.005": 14.0278506667,
			"-0.004": 18.630520031,
			"-0.003": 20.6824418762,
			"-0.002": 14.2078865595,
			"-0.001": 13.8516136056,
			"0.0": 11.6605072801,
			"0.001": 12.7725893613,
			"0.002": 14.5461762527,
			"0.003": 12.526209374,
			"0.004": 13.3464257672,
			"0.005": 10.448307,
			"0.006": 7.96155184928,
			"0.007": 3.78215393781,
			"0.008": 2.51656001373,
			"0.009": 3.25380581673,
			"0.01": 5.25283763995,
			"0.011": 5.18968231254,
			"0.012": 6.4745630884,
			"0.013": 2.89471212635,
			"0.014": 1.28151588492,
			"0.015": 1.52542010592,
			"0.016": 0.879839205749,
			"0.017": 1.24470847855,
			"0.018": 1.33197984594,
			"0.019": 0.851810568547,
			"0.02": 0.0299649312259,
			"0.021": 0.0,
			"0.022": 0.0,
			"0.023": 0.0,
			"0.024": 0.0,
			"0.025": 0.0
		}
	}
}
