{
	 "smiles": "CS(=O)(=O)NC1=CC=C(C=C1)C(=O)CCl", 
	 "Tm": 429.15, 
	 "num_atms": 25, 
	 "gaussian": { 
		 "optdone": 1, 
		 "sigma_profile": "yes", 
		 "theory": "DFT", 
		 "functional": "B3LYP", 
		 "basiset": "6-31G**", 
		 "properties": { 
			 "R2extent": 6949.3319, 
			 "electric_dipole_moment_norm": 3.55001441406, 
			 "electric_quadrupole_moment_norm": 36.2388953136, 
			 "total_energy": -1487.71969574, 
			 "HOMO_LUMO_gap": 0.18003, 
			 "cosmo_polarized_energy": -24.01, 
			 "cosmo_cavitation_energy": 32.62, 
			 "cosmo_dispersion_energy": -24.29, 
			 "cosmo_repulsion_energy": 1.86, 
			 "cosmo_total_nonelectrostatic_energy": 10.19, 
			 "SMD_solvation_energy": 5.43 
		},
		"coords": [
			{
				"x": 2.2773358158,
				"y": -2.4654277609,
				"z": 0.4827988424,
				"element": "C" 
			},
			{
				"x": 2.4799121682,
				"y": -1.2998836798,
				"z": -0.8790339071,
				"element": "S" 
			},
			{
				"x": 3.2771896658,
				"y": -0.1814425349,
				"z": -0.3814198643,
				"element": "O" 
			},
			{
				"x": 2.8436350631,
				"y": -2.0385283952,
				"z": -2.085214904,
				"element": "O" 
			},
			{
				"x": 0.9110598183,
				"y": -0.7472001351,
				"z": -1.2001220665,
				"element": "N" 
			},
			{
				"x": 0.0541291774,
				"y": -0.0658699979,
				"z": -0.3165135663,
				"element": "C" 
			},
			{
				"x": -1.3346126752,
				"y": -0.228624368,
				"z": -0.4763222602,
				"element": "C" 
			},
			{
				"x": -2.2170658247,
				"y": 0.4445349477,
				"z": 0.3524565139,
				"element": "C" 
			},
			{
				"x": -1.7483192619,
				"y": 1.2876587751,
				"z": 1.3742795968,
				"element": "C" 
			},
			{
				"x": -0.361627359,
				"y": 1.4424944687,
				"z": 1.5250836369,
				"element": "C" 
			},
			{
				"x": 0.537784194,
				"y": 0.7860932078,
				"z": 0.690036493,
				"element": "C" 
			},
			{
				"x": -2.7639298157,
				"y": 1.9681786177,
				"z": 2.2329457699,
				"element": "C" 
			},
			{
				"x": -3.956419391,
				"y": 1.7961702218,
				"z": 2.0668472947,
				"element": "O" 
			},
			{
				"x": -2.2250775513,
				"y": 2.893860484,
				"z": 3.3318403647,
				"element": "C" 
			},
			{
				"x": -3.5162569354,
				"y": 3.6503568578,
				"z": 4.3122514326,
				"element": "Cl" 
			},
			{
				"x": 1.7960130854,
				"y": -1.954088466,
				"z": 1.3178730239,
				"element": "H" 
			},
			{
				"x": 1.6798527452,
				"y": -3.3104342777,
				"z": 0.139180015,
				"element": "H" 
			},
			{
				"x": 3.2781998152,
				"y": -2.7943899341,
				"z": 0.7677614418,
				"element": "H" 
			},
			{
				"x": 0.4789742843,
				"y": -1.2902688184,
				"z": -1.9386819763,
				"element": "H" 
			},
			{
				"x": -1.7132084255,
				"y": -0.8861383224,
				"z": -1.2548478173,
				"element": "H" 
			},
			{
				"x": -3.2889873357,
				"y": 0.3264936574,
				"z": 0.2357081893,
				"element": "H" 
			},
			{
				"x": 0.0427614649,
				"y": 2.0948662947,
				"z": 2.2924973432,
				"element": "H" 
			},
			{
				"x": 1.6035099159,
				"y": 0.9474611296,
				"z": 0.7953853435,
				"element": "H" 
			},
			{
				"x": -1.6326283473,
				"y": 3.6968498663,
				"z": 2.8854767365,
				"element": "H" 
			},
			{
				"x": -1.578324291,
				"y": 2.3326781618,
				"z": 4.0111343239,
				"element": "H" 
			}
		],
		 "valence_orbital": [ 
			{
				"type": "occ",
				"energy": -0.30129,
				"method": "rhf"
			},
			{
				"type": "occ",
				"energy": -0.30016,
				"method": "rhf"
			},
			{
				"type": "occ",
				"energy": -0.28174,
				"method": "rhf"
			},
			{
				"type": "occ",
				"energy": -0.26705,
				"method": "rhf"
			},
			{
				"type": "occ",
				"energy": -0.24986,
				"method": "rhf"
			},
			{
				"type": "unocc",
				"energy": -0.06983,
				"method": "rhf"
			},
			{
				"type": "unocc",
				"energy": -0.03133,
				"method": "rhf"
			},
			{
				"type": "unocc",
				"energy": 0.01715,
				"method": "rhf"
			},
			{
				"type": "unocc",
				"energy": 0.02199,
				"method": "rhf"
			},
			{
				"type": "unocc",
				"energy": 0.04377,
				"method": "rhf"
			}
		],
		"cosmo_sigma_profile": { 
			"-0.025": 0.0,
			"-0.024": 0.0,
			"-0.023": 0.0,
			"-0.022": 0.0,
			"-0.021": 0.0,
			"-0.02": 0.0,
			"-0.019": 0.0,
			"-0.018": 0.0,
			"-0.017": 0.0103954734957,
			"-0.016": 0.92478011391,
			"-0.015": 1.45526594438,
			"-0.014": 1.2716700106,
			"-0.013": 0.97250074389,
			"-0.012": 1.58195586355,
			"-0.011": 1.34211127177,
			"-0.01": 2.56975465072,
			"-0.009": 13.9289721821,
			"-0.008": 13.3303835835,
			"-0.007": 11.7335757416,
			"-0.006": 13.9735982445,
			"-0.005": 16.9651355162,
			"-0.004": 14.3599595521,
			"-0.003": 9.36489390217,
			"-0.002": 8.5670395177,
			"-0.001": 9.76470176227,
			"0.0": 12.0293364738,
			"0.001": 13.1277869061,
			"0.002": 19.0377566786,
			"0.003": 18.5803776348,
			"0.004": 10.1965584561,
			"0.005": 9.62022570448,
			"0.006": 10.872525396,
			"0.007": 6.35435809268,
			"0.008": 5.43581990028,
			"0.009": 6.38274457221,
			"0.01": 11.8646815936,
			"0.011": 12.4610379031,
			"0.012": 3.04489417902,
			"0.013": 1.45926325948,
			"0.014": 0.0979171805016,
			"0.015": 0.0,
			"0.016": 0.0,
			"0.017": 0.0,
			"0.018": 0.0,
			"0.019": 0.0,
			"0.02": 0.0,
			"0.021": 0.0,
			"0.022": 0.0,
			"0.023": 0.0,
			"0.024": 0.0,
			"0.025": 0.0
		}
	}
}
