{
	 "smiles": "CC1(NC(=O)NC1=O)C1=CC=C(C=C1)C#N", 
	 "Tm": 483.15, 
	 "num_atms": 25, 
	 "gaussian": { 
		 "optdone": 1, 
		 "sigma_profile": "yes", 
		 "theory": "DFT", 
		 "functional": "B3LYP", 
		 "basiset": "6-31G**", 
		 "properties": { 
			 "R2extent": 4444.1523, 
			 "electric_dipole_moment_norm": 4.27352974952, 
			 "electric_quadrupole_moment_norm": 23.8176363177, 
			 "total_energy": -739.323590125, 
			 "HOMO_LUMO_gap": 0.20469, 
			 "cosmo_polarized_energy": -21.54, 
			 "cosmo_cavitation_energy": 30.78, 
			 "cosmo_dispersion_energy": -21.32, 
			 "cosmo_repulsion_energy": 1.66, 
			 "cosmo_total_nonelectrostatic_energy": 11.12, 
			 "SMD_solvation_energy": 8.39 
		},
		"coords": [
			{
				"x": -0.1134670158,
				"y": -2.0190726749,
				"z": -0.5623909975,
				"element": "C" 
			},
			{
				"x": 1.0292525408,
				"y": -1.1169454174,
				"z": -0.0498288931,
				"element": "C" 
			},
			{
				"x": 1.6813633076,
				"y": -1.6907049765,
				"z": 1.1255576638,
				"element": "N" 
			},
			{
				"x": 2.9648283335,
				"y": -2.1294922559,
				"z": 0.8858535051,
				"element": "C" 
			},
			{
				"x": 3.6999932522,
				"y": -2.7464448035,
				"z": 1.6244895965,
				"element": "O" 
			},
			{
				"x": 3.2654309625,
				"y": -1.7096660674,
				"z": -0.4266967595,
				"element": "N" 
			},
			{
				"x": 2.1969380836,
				"y": -1.1398936882,
				"z": -1.078358615,
				"element": "C" 
			},
			{
				"x": 2.155003275,
				"y": -0.7527191864,
				"z": -2.2262639952,
				"element": "O" 
			},
			{
				"x": 0.5462620085,
				"y": 0.3206175308,
				"z": 0.1747933341,
				"element": "C" 
			},
			{
				"x": 0.5941870488,
				"y": 0.9138548037,
				"z": 1.4414396609,
				"element": "C" 
			},
			{
				"x": 0.1212071823,
				"y": 2.2082726965,
				"z": 1.64112027,
				"element": "C" 
			},
			{
				"x": -0.4020800946,
				"y": 2.9372356416,
				"z": 0.562668029,
				"element": "C" 
			},
			{
				"x": -0.4361767556,
				"y": 2.3546166002,
				"z": -0.7156595546,
				"element": "C" 
			},
			{
				"x": 0.0315397845,
				"y": 1.0590930551,
				"z": -0.9028024261,
				"element": "C" 
			},
			{
				"x": -0.8933113435,
				"y": 4.2696994676,
				"z": 0.7625550388,
				"element": "C" 
			},
			{
				"x": -1.29381202,
				"y": 5.349600561,
				"z": 0.9256469131,
				"element": "N" 
			},
			{
				"x": -0.9322340553,
				"y": -2.0362078783,
				"z": 0.1633431091,
				"element": "H" 
			},
			{
				"x": -0.5009545258,
				"y": -1.6435580301,
				"z": -1.5112427644,
				"element": "H" 
			},
			{
				"x": 0.2468402036,
				"y": -3.0407563141,
				"z": -0.7144452562,
				"element": "H" 
			},
			{
				"x": 1.1675896792,
				"y": -2.1100179478,
				"z": 1.8866739171,
				"element": "H" 
			},
			{
				"x": 4.1642825777,
				"y": -1.8824024318,
				"z": -0.8545378605,
				"element": "H" 
			},
			{
				"x": 1.0154609078,
				"y": 0.3655082387,
				"z": 2.2762218867,
				"element": "H" 
			},
			{
				"x": 0.1585874922,
				"y": 2.6589443741,
				"z": 2.6271757781,
				"element": "H" 
			},
			{
				"x": -0.8262928373,
				"y": 2.9219146738,
				"z": -1.5539213856,
				"element": "H" 
			},
			{
				"x": 0.0291620083,
				"y": 0.6293240294,
				"z": -1.8977901947,
				"element": "H" 
			}
		],
		 "valence_orbital": [ 
			{
				"type": "occ",
				"energy": -0.30385,
				"method": "rhf"
			},
			{
				"type": "occ",
				"energy": -0.2889,
				"method": "rhf"
			},
			{
				"type": "occ",
				"energy": -0.28269,
				"method": "rhf"
			},
			{
				"type": "occ",
				"energy": -0.27863,
				"method": "rhf"
			},
			{
				"type": "occ",
				"energy": -0.26597,
				"method": "rhf"
			},
			{
				"type": "unocc",
				"energy": -0.06128,
				"method": "rhf"
			},
			{
				"type": "unocc",
				"energy": -0.03145,
				"method": "rhf"
			},
			{
				"type": "unocc",
				"energy": -0.02242,
				"method": "rhf"
			},
			{
				"type": "unocc",
				"energy": 0.03314,
				"method": "rhf"
			},
			{
				"type": "unocc",
				"energy": 0.04154,
				"method": "rhf"
			}
		],
		"cosmo_sigma_profile": { 
			"-0.025": 0.0,
			"-0.024": 0.0,
			"-0.023": 0.0,
			"-0.022": 0.0,
			"-0.021": 0.0,
			"-0.02": 0.0,
			"-0.019": 0.0,
			"-0.018": 0.0,
			"-0.017": 0.787700830907,
			"-0.016": 1.5454737594,
			"-0.015": 2.34091515855,
			"-0.014": 1.8978931206,
			"-0.013": 1.9718176776,
			"-0.012": 1.94832302275,
			"-0.011": 2.45844044992,
			"-0.01": 1.97864143153,
			"-0.009": 2.43477238594,
			"-0.008": 5.74830267173,
			"-0.007": 9.65347306647,
			"-0.006": 15.458557145,
			"-0.005": 14.7942271082,
			"-0.004": 15.5572450329,
			"-0.003": 14.8246416713,
			"-0.002": 18.0953894655,
			"-0.001": 19.1803556178,
			"0.0": 14.327236717,
			"0.001": 13.2673782362,
			"0.002": 16.3261829779,
			"0.003": 6.78122719257,
			"0.004": 5.562246825,
			"0.005": 4.77078355003,
			"0.006": 4.48570172664,
			"0.007": 5.91214947016,
			"0.008": 5.92560514708,
			"0.009": 6.50311406132,
			"0.01": 6.78030240552,
			"0.011": 8.97667573514,
			"0.012": 10.7879036339,
			"0.013": 5.57615437505,
			"0.014": 0.195976581342,
			"0.015": 0.0,
			"0.016": 0.0,
			"0.017": 0.0,
			"0.018": 0.0,
			"0.019": 0.0,
			"0.02": 0.0,
			"0.021": 0.0,
			"0.022": 0.0,
			"0.023": 0.0,
			"0.024": 0.0,
			"0.025": 0.0
		}
	}
}
