{
	 "smiles": "CC(C)OC1=CC=C(C=CC(O)=O)C=C1", 
	 "Tm": 430.15, 
	 "num_atms": 29, 
	 "gaussian": { 
		 "optdone": 1, 
		 "sigma_profile": "yes", 
		 "theory": "DFT", 
		 "functional": "B3LYP", 
		 "basiset": "6-31G**", 
		 "properties": { 
			 "R2extent": 4959.6822, 
			 "electric_dipole_moment_norm": 2.0333398978, 
			 "electric_quadrupole_moment_norm": 8.52390281855, 
			 "total_energy": -691.382013045, 
			 "HOMO_LUMO_gap": 0.16097, 
			 "cosmo_polarized_energy": -10.84, 
			 "cosmo_cavitation_energy": 32.61, 
			 "cosmo_dispersion_energy": -23.37, 
			 "cosmo_repulsion_energy": 1.83, 
			 "cosmo_total_nonelectrostatic_energy": 11.07, 
			 "SMD_solvation_energy": 6.88 
		},
		"coords": [
			{
				"x": 3.9856179543,
				"y": -2.5309298527,
				"z": -0.809270725,
				"element": "C" 
			},
			{
				"x": 2.6100173718,
				"y": -3.0917736162,
				"z": -1.1679082515,
				"element": "C" 
			},
			{
				"x": 2.1482710854,
				"y": -2.6715926729,
				"z": -2.5626379412,
				"element": "C" 
			},
			{
				"x": 1.6178764491,
				"y": -2.7965853461,
				"z": -0.1478229817,
				"element": "O" 
			},
			{
				"x": 1.2807663329,
				"y": -1.4906524579,
				"z": 0.1122716274,
				"element": "C" 
			},
			{
				"x": 0.2176082547,
				"y": -0.8810560034,
				"z": -0.5683998615,
				"element": "C" 
			},
			{
				"x": -0.1814914381,
				"y": 0.4134001261,
				"z": -0.2550335609,
				"element": "C" 
			},
			{
				"x": 0.471942879,
				"y": 1.1410790796,
				"z": 0.7626560153,
				"element": "C" 
			},
			{
				"x": 0.1507252684,
				"y": 2.5020565908,
				"z": 1.1884250889,
				"element": "C" 
			},
			{
				"x": -0.7397105572,
				"y": 3.4581046841,
				"z": 0.8229343061,
				"element": "C" 
			},
			{
				"x": -1.7782558802,
				"y": 3.4605906853,
				"z": -0.2171745744,
				"element": "C" 
			},
			{
				"x": -2.4301493778,
				"y": 4.6569002386,
				"z": -0.2174672464,
				"element": "O" 
			},
			{
				"x": -2.0882494426,
				"y": 2.5842226009,
				"z": -1.0081403911,
				"element": "O" 
			},
			{
				"x": 1.528388968,
				"y": 0.5030471126,
				"z": 1.4500044376,
				"element": "C" 
			},
			{
				"x": 1.929695207,
				"y": -0.7892553407,
				"z": 1.1369211344,
				"element": "C" 
			},
			{
				"x": 4.2918477801,
				"y": -2.8627124035,
				"z": 0.1869877359,
				"element": "H" 
			},
			{
				"x": 3.9894065434,
				"y": -1.4366718136,
				"z": -0.8282044951,
				"element": "H" 
			},
			{
				"x": 4.7305450446,
				"y": -2.882496534,
				"z": -1.5306067423,
				"element": "H" 
			},
			{
				"x": 2.6546760649,
				"y": -4.1851012902,
				"z": -1.1272942115,
				"element": "H" 
			},
			{
				"x": 2.860703812,
				"y": -3.0298872966,
				"z": -3.3129891713,
				"element": "H" 
			},
			{
				"x": 2.0833957826,
				"y": -1.5829969531,
				"z": -2.6532804527,
				"element": "H" 
			},
			{
				"x": 1.1677863812,
				"y": -3.0987426984,
				"z": -2.791381101,
				"element": "H" 
			},
			{
				"x": -0.3036197259,
				"y": -1.4423952332,
				"z": -1.3365831301,
				"element": "H" 
			},
			{
				"x": -1.002379332,
				"y": 0.8743899805,
				"z": -0.7882592567,
				"element": "H" 
			},
			{
				"x": 0.7947792979,
				"y": 2.8247568134,
				"z": 2.006926275,
				"element": "H" 
			},
			{
				"x": -0.6987066536,
				"y": 4.3915760612,
				"z": 1.3753080404,
				"element": "H" 
			},
			{
				"x": -3.0961925491,
				"y": 4.5897769221,
				"z": -0.9210587789,
				"element": "H" 
			},
			{
				"x": 2.0386719865,
				"y": 1.0360807284,
				"z": 2.2485119473,
				"element": "H" 
			},
			{
				"x": 2.7303324924,
				"y": -1.2732321111,
				"z": 1.6857662649,
				"element": "H" 
			}
		],
		 "valence_orbital": [ 
			{
				"type": "occ",
				"energy": -0.29149,
				"method": "rhf"
			},
			{
				"type": "occ",
				"energy": -0.27354,
				"method": "rhf"
			},
			{
				"type": "occ",
				"energy": -0.26479,
				"method": "rhf"
			},
			{
				"type": "occ",
				"energy": -0.25424,
				"method": "rhf"
			},
			{
				"type": "occ",
				"energy": -0.22558,
				"method": "rhf"
			},
			{
				"type": "unocc",
				"energy": -0.06461,
				"method": "rhf"
			},
			{
				"type": "unocc",
				"energy": -0.00366,
				"method": "rhf"
			},
			{
				"type": "unocc",
				"energy": 0.02042,
				"method": "rhf"
			},
			{
				"type": "unocc",
				"energy": 0.08313,
				"method": "rhf"
			},
			{
				"type": "unocc",
				"energy": 0.08832,
				"method": "rhf"
			}
		],
		"cosmo_sigma_profile": { 
			"-0.025": 0.0,
			"-0.024": 0.0,
			"-0.023": 0.0,
			"-0.022": 0.0,
			"-0.021": 0.0,
			"-0.02": 0.0,
			"-0.019": 0.0,
			"-0.018": 0.324489290185,
			"-0.017": 0.919778376692,
			"-0.016": 0.887470996875,
			"-0.015": 1.23431179533,
			"-0.014": 0.324252291335,
			"-0.013": 0.505273943795,
			"-0.012": 0.152883736031,
			"-0.011": 1.00863248401,
			"-0.01": 1.13839596385,
			"-0.009": 0.654023275363,
			"-0.008": 1.11047499031,
			"-0.007": 4.77658862964,
			"-0.006": 10.0693789614,
			"-0.005": 10.2369086194,
			"-0.004": 18.1426407052,
			"-0.003": 23.7325788413,
			"-0.002": 22.9939172158,
			"-0.001": 24.8741299717,
			"0.0": 26.0130450241,
			"0.001": 19.5548501081,
			"0.002": 17.944621114,
			"0.003": 21.1095121381,
			"0.004": 16.9898772704,
			"0.005": 4.98364719404,
			"0.006": 4.36468792425,
			"0.007": 4.95502045362,
			"0.008": 3.5942255169,
			"0.009": 4.50498814834,
			"0.01": 3.24769797591,
			"0.011": 4.28078562869,
			"0.012": 3.13532896227,
			"0.013": 0.16137203401,
			"0.014": 0.0,
			"0.015": 0.0,
			"0.016": 0.0,
			"0.017": 0.0,
			"0.018": 0.0,
			"0.019": 0.0,
			"0.02": 0.0,
			"0.021": 0.0,
			"0.022": 0.0,
			"0.023": 0.0,
			"0.024": 0.0,
			"0.025": 0.0
		}
	}
}
