{
	 "smiles": "OC1=C(C=C(C=C1)S(=O)(=O)N1CCOCC1)[N+]([O-])=O", 
	 "Tm": 491.15, 
	 "num_atms": 31, 
	 "gaussian": { 
		 "optdone": 1, 
		 "sigma_profile": "yes", 
		 "theory": "DFT", 
		 "functional": "B3LYP", 
		 "basiset": "6-31G**", 
		 "properties": { 
			 "R2extent": 6079.8969, 
			 "electric_dipole_moment_norm": 5.90339438798, 
			 "electric_quadrupole_moment_norm": 25.0648209166, 
			 "total_energy": -1347.11483351, 
			 "HOMO_LUMO_gap": 0.16078, 
			 "cosmo_polarized_energy": -25.31, 
			 "cosmo_cavitation_energy": 36.17, 
			 "cosmo_dispersion_energy": -26.18, 
			 "cosmo_repulsion_energy": 1.98, 
			 "cosmo_total_nonelectrostatic_energy": 11.97, 
			 "SMD_solvation_energy": 7.18 
		},
		"coords": [
			{
				"x": 3.5006704182,
				"y": -1.2287757715,
				"z": -2.6562928567,
				"element": "O" 
			},
			{
				"x": 2.34660841,
				"y": -0.7681133898,
				"z": -2.1410473152,
				"element": "C" 
			},
			{
				"x": 1.3147361551,
				"y": -1.6565570202,
				"z": -1.7689706918,
				"element": "C" 
			},
			{
				"x": 0.1300112809,
				"y": -1.1813180583,
				"z": -1.2046387083,
				"element": "C" 
			},
			{
				"x": -0.042993286,
				"y": 0.1815080212,
				"z": -1.0104431182,
				"element": "C" 
			},
			{
				"x": 0.960737359,
				"y": 1.0851115477,
				"z": -1.3793258344,
				"element": "C" 
			},
			{
				"x": 2.1379784966,
				"y": 0.6087143788,
				"z": -1.9320216911,
				"element": "C" 
			},
			{
				"x": -1.5724421211,
				"y": 0.7979568184,
				"z": -0.3082999048,
				"element": "S" 
			},
			{
				"x": -2.5488795152,
				"y": -0.2951760438,
				"z": -0.3855745465,
				"element": "O" 
			},
			{
				"x": -1.8487173319,
				"y": 2.1092741699,
				"z": -0.9041977763,
				"element": "O" 
			},
			{
				"x": -1.128102761,
				"y": 1.0918763232,
				"z": 1.2931812341,
				"element": "N" 
			},
			{
				"x": -1.6693226153,
				"y": 2.2931007524,
				"z": 1.9458481834,
				"element": "C" 
			},
			{
				"x": -0.7143466033,
				"y": 2.6719577617,
				"z": 3.0894469167,
				"element": "C" 
			},
			{
				"x": -0.1658143135,
				"y": 1.5351156333,
				"z": 3.7568509665,
				"element": "O" 
			},
			{
				"x": -0.9757100893,
				"y": 0.3822049029,
				"z": 3.6328073064,
				"element": "C" 
			},
			{
				"x": -1.0345967522,
				"y": -0.0951996705,
				"z": 2.171896347,
				"element": "C" 
			},
			{
				"x": 1.425551138,
				"y": -3.1103335955,
				"z": -1.95688309,
				"element": "N" 
			},
			{
				"x": 2.2518761326,
				"y": -3.5305770646,
				"z": -2.7601336176,
				"element": "O" 
			},
			{
				"x": 0.6605672134,
				"y": -3.8152123781,
				"z": -1.2958481673,
				"element": "O" 
			},
			{
				"x": 4.0984576537,
				"y": -0.4836479143,
				"z": -2.8104050342,
				"element": "H" 
			},
			{
				"x": -0.6452734623,
				"y": -1.8886761909,
				"z": -0.9382762882,
				"element": "H" 
			},
			{
				"x": 0.8078003168,
				"y": 2.1499832163,
				"z": -1.242849604,
				"element": "H" 
			},
			{
				"x": 2.9228346735,
				"y": 1.3047618655,
				"z": -2.2184475328,
				"element": "H" 
			},
			{
				"x": -1.7223263467,
				"y": 3.1001998058,
				"z": 1.2147373145,
				"element": "H" 
			},
			{
				"x": -2.688217184,
				"y": 2.1206401163,
				"z": 2.320591906,
				"element": "H" 
			},
			{
				"x": 0.1397558181,
				"y": 3.2337805364,
				"z": 2.6982081617,
				"element": "H" 
			},
			{
				"x": -1.2516032748,
				"y": 3.3134808123,
				"z": 3.8052256995,
				"element": "H" 
			},
			{
				"x": -1.9901397927,
				"y": 0.5637710658,
				"z": 4.0197047266,
				"element": "H" 
			},
			{
				"x": -0.5219795591,
				"y": -0.3940185409,
				"z": 4.2542717262,
				"element": "H" 
			},
			{
				"x": -1.8894021652,
				"y": -0.7697415882,
				"z": 2.0329298915,
				"element": "H" 
			},
			{
				"x": -0.1188178923,
				"y": -0.6394905014,
				"z": 1.9171553971,
				"element": "H" 
			}
		],
		 "valence_orbital": [ 
			{
				"type": "occ",
				"energy": -0.3032,
				"method": "rhf"
			},
			{
				"type": "occ",
				"energy": -0.28775,
				"method": "rhf"
			},
			{
				"type": "occ",
				"energy": -0.2764,
				"method": "rhf"
			},
			{
				"type": "occ",
				"energy": -0.26619,
				"method": "rhf"
			},
			{
				"type": "occ",
				"energy": -0.25343,
				"method": "rhf"
			},
			{
				"type": "unocc",
				"energy": -0.09265,
				"method": "rhf"
			},
			{
				"type": "unocc",
				"energy": -0.04795,
				"method": "rhf"
			},
			{
				"type": "unocc",
				"energy": -0.0217,
				"method": "rhf"
			},
			{
				"type": "unocc",
				"energy": 0.03511,
				"method": "rhf"
			},
			{
				"type": "unocc",
				"energy": 0.04324,
				"method": "rhf"
			}
		],
		"cosmo_sigma_profile": { 
			"-0.025": 0.0,
			"-0.024": 0.0,
			"-0.023": 0.0,
			"-0.022": 0.0,
			"-0.021": 0.0,
			"-0.02": 0.65362115582,
			"-0.019": 1.42984337521,
			"-0.018": 1.3850612078,
			"-0.017": 1.04716937972,
			"-0.016": 1.80204227769,
			"-0.015": 0.674199755826,
			"-0.014": 0.3959508213,
			"-0.013": 0.931412224484,
			"-0.012": 1.4759025578,
			"-0.011": 1.14453387897,
			"-0.01": 1.30508949117,
			"-0.009": 3.13384414899,
			"-0.008": 4.18883268937,
			"-0.007": 5.36969765874,
			"-0.006": 14.0460350973,
			"-0.005": 32.23448718,
			"-0.004": 27.8820637474,
			"-0.003": 19.6493470357,
			"-0.002": 22.4084209614,
			"-0.001": 17.4314577037,
			"0.0": 13.930808964,
			"0.001": 10.1039431994,
			"0.002": 8.33324100486,
			"0.003": 8.5792953561,
			"0.004": 7.27091487245,
			"0.005": 7.360169394,
			"0.006": 8.19916615202,
			"0.007": 11.8536864579,
			"0.008": 14.0788181979,
			"0.009": 12.0782423082,
			"0.01": 11.1097126684,
			"0.011": 9.96315161954,
			"0.012": 4.13225536839,
			"0.013": 1.42345267709,
			"0.014": 0.000535219400001,
			"0.015": 0.0,
			"0.016": 0.0,
			"0.017": 0.0,
			"0.018": 0.0,
			"0.019": 0.0,
			"0.02": 0.0,
			"0.021": 0.0,
			"0.022": 0.0,
			"0.023": 0.0,
			"0.024": 0.0,
			"0.025": 0.0
		}
	}
}
