{
	 "smiles": "CCC12CCC3C(CCC4=CC(CCC34)=N/O)C1CCC2(OC(C)=O)C#C", 
	 "Tm": 489.15, 
	 "num_atms": 58, 
	 "gaussian": { 
		 "optdone": 1, 
		 "sigma_profile": "yes", 
		 "theory": "DFT", 
		 "functional": "B3LYP", 
		 "basiset": "6-31G**", 
		 "properties": { 
			 "R2extent": 11208.0541, 
			 "electric_dipole_moment_norm": 2.6711242764, 
			 "electric_quadrupole_moment_norm": 14.4787059601, 
			 "total_energy": -1175.43546875, 
			 "HOMO_LUMO_gap": 0.18897, 
			 "cosmo_polarized_energy": -15.89, 
			 "cosmo_cavitation_energy": 52.9, 
			 "cosmo_dispersion_energy": -35.01, 
			 "cosmo_repulsion_energy": 2.62, 
			 "cosmo_total_nonelectrostatic_energy": 20.51, 
			 "SMD_solvation_energy": 9.52 
		},
		"coords": [
			{
				"x": -1.1867721476,
				"y": 2.6453717893,
				"z": 3.4568658474,
				"element": "C" 
			},
			{
				"x": -0.9450800796,
				"y": 2.7930510791,
				"z": 1.9470281135,
				"element": "C" 
			},
			{
				"x": -0.8982799953,
				"y": 1.5206102501,
				"z": 1.0306852389,
				"element": "C" 
			},
			{
				"x": 0.099985111,
				"y": 0.5103222954,
				"z": 1.6609970952,
				"element": "C" 
			},
			{
				"x": 0.932255112,
				"y": -0.3642687417,
				"z": 0.7045801437,
				"element": "C" 
			},
			{
				"x": 1.5293956701,
				"y": 0.5022247603,
				"z": -0.411188701,
				"element": "C" 
			},
			{
				"x": 0.3499582472,
				"y": 1.0611667836,
				"z": -1.2419279089,
				"element": "C" 
			},
			{
				"x": 0.8650342904,
				"y": 1.6744173243,
				"z": -2.5537144743,
				"element": "C" 
			},
			{
				"x": 1.429352064,
				"y": 0.556738192,
				"z": -3.4671402719,
				"element": "C" 
			},
			{
				"x": 2.0060088911,
				"y": -0.5840278758,
				"z": -2.6559430228,
				"element": "C" 
			},
			{
				"x": 1.9749591013,
				"y": -1.8649234767,
				"z": -3.0752618136,
				"element": "C" 
			},
			{
				"x": 2.5166388984,
				"y": -2.9590701565,
				"z": -2.2759102159,
				"element": "C" 
			},
			{
				"x": 2.8870056596,
				"y": -2.6604999219,
				"z": -0.8407442708,
				"element": "C" 
			},
			{
				"x": 3.5006341958,
				"y": -1.2568143343,
				"z": -0.7187815835,
				"element": "C" 
			},
			{
				"x": 2.6202819331,
				"y": -0.1540007759,
				"z": -1.3418861428,
				"element": "C" 
			},
			{
				"x": 2.6785664228,
				"y": -4.1773680963,
				"z": -2.6674317968,
				"element": "N" 
			},
			{
				"x": 2.2722394197,
				"y": -4.36234344,
				"z": -4.0087681468,
				"element": "O" 
			},
			{
				"x": -0.5109448239,
				"y": 2.0329066597,
				"z": -0.4099608716,
				"element": "C" 
			},
			{
				"x": -1.8649866825,
				"y": 2.3715992186,
				"z": -1.114878225,
				"element": "C" 
			},
			{
				"x": -3.0010747355,
				"y": 1.9604980581,
				"z": -0.1576096357,
				"element": "C" 
			},
			{
				"x": -2.3431353118,
				"y": 0.9296052968,
				"z": 0.7869073911,
				"element": "C" 
			},
			{
				"x": -3.0033654429,
				"y": 0.8084432591,
				"z": 2.0809075828,
				"element": "O" 
			},
			{
				"x": -4.3122467211,
				"y": 0.4428768292,
				"z": 2.1381405477,
				"element": "C" 
			},
			{
				"x": -4.7447142801,
				"y": 0.2866609106,
				"z": 3.5785646763,
				"element": "C" 
			},
			{
				"x": -5.0228609101,
				"y": 0.27208473,
				"z": 1.1753697276,
				"element": "O" 
			},
			{
				"x": -2.3280794849,
				"y": -0.4035790824,
				"z": 0.1625430771,
				"element": "C" 
			},
			{
				"x": -2.3631302263,
				"y": -1.495814656,
				"z": -0.3518269345,
				"element": "C" 
			},
			{
				"x": -0.9961453767,
				"y": 3.6068093159,
				"z": 3.9467182888,
				"element": "H" 
			},
			{
				"x": -0.5136717134,
				"y": 1.9124368434,
				"z": 3.9114710479,
				"element": "H" 
			},
			{
				"x": -2.2082822827,
				"y": 2.3447930441,
				"z": 3.6862338461,
				"element": "H" 
			},
			{
				"x": 0.0379774545,
				"y": 3.2637064399,
				"z": 1.8177252167,
				"element": "H" 
			},
			{
				"x": -1.6639618439,
				"y": 3.5143242516,
				"z": 1.5422107789,
				"element": "H" 
			},
			{
				"x": 0.8160504178,
				"y": 1.088417779,
				"z": 2.25852082,
				"element": "H" 
			},
			{
				"x": -0.4394725639,
				"y": -0.1231972555,
				"z": 2.3743542883,
				"element": "H" 
			},
			{
				"x": 1.7152429975,
				"y": -0.8486454117,
				"z": 1.2986097641,
				"element": "H" 
			},
			{
				"x": 0.317085527,
				"y": -1.1586841901,
				"z": 0.2732698321,
				"element": "H" 
			},
			{
				"x": 2.028844433,
				"y": 1.3542325047,
				"z": 0.0780097954,
				"element": "H" 
			},
			{
				"x": -0.2821700502,
				"y": 0.2055197999,
				"z": -1.5162302864,
				"element": "H" 
			},
			{
				"x": 0.0725453614,
				"y": 2.2139879034,
				"z": -3.0828009695,
				"element": "H" 
			},
			{
				"x": 1.640780037,
				"y": 2.4181353002,
				"z": -2.3255058547,
				"element": "H" 
			},
			{
				"x": 2.2105746835,
				"y": 0.9730037454,
				"z": -4.1196263991,
				"element": "H" 
			},
			{
				"x": 0.6463089049,
				"y": 0.1731021289,
				"z": -4.1306029345,
				"element": "H" 
			},
			{
				"x": 1.5443499567,
				"y": -2.118673482,
				"z": -4.0384218653,
				"element": "H" 
			},
			{
				"x": 1.9813319272,
				"y": -2.7273761018,
				"z": -0.2257224055,
				"element": "H" 
			},
			{
				"x": 3.5762451736,
				"y": -3.4279554129,
				"z": -0.47756921,
				"element": "H" 
			},
			{
				"x": 3.7223011161,
				"y": -1.026808039,
				"z": 0.3291695561,
				"element": "H" 
			},
			{
				"x": 4.4636077324,
				"y": -1.2571854926,
				"z": -1.2441432875,
				"element": "H" 
			},
			{
				"x": 3.2965178055,
				"y": 0.6756702637,
				"z": -1.5963344073,
				"element": "H" 
			},
			{
				"x": 2.4451256314,
				"y": -5.3036273922,
				"z": -4.1353357319,
				"element": "H" 
			},
			{
				"x": 0.0815394566,
				"y": 2.9486285983,
				"z": -0.2888360151,
				"element": "H" 
			},
			{
				"x": -1.9375677044,
				"y": 3.4296128137,
				"z": -1.3827596363,
				"element": "H" 
			},
			{
				"x": -1.9485652331,
				"y": 1.8070457885,
				"z": -2.0489021459,
				"element": "H" 
			},
			{
				"x": -3.3471228454,
				"y": 2.8038722646,
				"z": 0.4469761436,
				"element": "H" 
			},
			{
				"x": -3.8696992471,
				"y": 1.5433348001,
				"z": -0.6641252881,
				"element": "H" 
			},
			{
				"x": -4.1314449398,
				"y": -0.4717094419,
				"z": 4.0738188114,
				"element": "H" 
			},
			{
				"x": -5.7942468638,
				"y": -0.0044197717,
				"z": 3.6086152244,
				"element": "H" 
			},
			{
				"x": -4.604490236,
				"y": 1.2261291476,
				"z": 4.1217000752,
				"element": "H" 
			},
			{
				"x": -2.3902318908,
				"y": -2.4572476201,
				"z": -0.8109024774,
				"element": "H" 
			}
		],
		 "valence_orbital": [ 
			{
				"type": "occ",
				"energy": -0.27157,
				"method": "rhf"
			},
			{
				"type": "occ",
				"energy": -0.26668,
				"method": "rhf"
			},
			{
				"type": "occ",
				"energy": -0.25511,
				"method": "rhf"
			},
			{
				"type": "occ",
				"energy": -0.25482,
				"method": "rhf"
			},
			{
				"type": "occ",
				"energy": -0.21102,
				"method": "rhf"
			},
			{
				"type": "unocc",
				"energy": -0.02205,
				"method": "rhf"
			},
			{
				"type": "unocc",
				"energy": 0.0095,
				"method": "rhf"
			},
			{
				"type": "unocc",
				"energy": 0.02792,
				"method": "rhf"
			},
			{
				"type": "unocc",
				"energy": 0.04736,
				"method": "rhf"
			},
			{
				"type": "unocc",
				"energy": 0.07277,
				"method": "rhf"
			}
		],
		"cosmo_sigma_profile": { 
			"-0.025": 0.0,
			"-0.024": 0.0,
			"-0.023": 0.0,
			"-0.022": 0.0,
			"-0.021": 0.0,
			"-0.02": 0.0,
			"-0.019": 0.0,
			"-0.018": 0.0,
			"-0.017": 0.265099237858,
			"-0.016": 0.808603394659,
			"-0.015": 1.08584063719,
			"-0.014": 0.746533625809,
			"-0.013": 0.809932504897,
			"-0.012": 1.14473714038,
			"-0.011": 1.84703204607,
			"-0.01": 1.92731011822,
			"-0.009": 1.06743355644,
			"-0.008": 1.83935676198,
			"-0.007": 2.48447459551,
			"-0.006": 5.91706535377,
			"-0.005": 9.50159090612,
			"-0.004": 17.5756101871,
			"-0.003": 45.0584262468,
			"-0.002": 74.4535068722,
			"-0.001": 60.9084970707,
			"0.0": 46.3598202602,
			"0.001": 31.1096537793,
			"0.002": 21.1251378608,
			"0.003": 13.1502076695,
			"0.004": 12.5252500146,
			"0.005": 12.0315342143,
			"0.006": 8.2909826237,
			"0.007": 6.78414775644,
			"0.008": 6.71000079908,
			"0.009": 5.15488000882,
			"0.01": 5.79663970793,
			"0.011": 6.44888308366,
			"0.012": 4.35632622434,
			"0.013": 2.11505102359,
			"0.014": 0.827697352182,
			"0.015": 0.440697989795,
			"0.016": 0.0166625459992,
			"0.017": 0.0,
			"0.018": 0.0,
			"0.019": 0.0,
			"0.02": 0.0,
			"0.021": 0.0,
			"0.022": 0.0,
			"0.023": 0.0,
			"0.024": 0.0,
			"0.025": 0.0
		}
	}
}
