{
	 "smiles": "CNC1=CC=NC=C1", 
	 "Tm": 399.15, 
	 "num_atms": 16, 
	 "gaussian": { 
		 "optdone": 1, 
		 "sigma_profile": "yes", 
		 "theory": "DFT", 
		 "functional": "B3LYP", 
		 "basiset": "6-31G**", 
		 "properties": { 
			 "R2extent": 1076.1951, 
			 "electric_dipole_moment_norm": 4.35871831735, 
			 "electric_quadrupole_moment_norm": 7.08957726455, 
			 "total_energy": -342.957443567, 
			 "HOMO_LUMO_gap": 0.21535, 
			 "cosmo_polarized_energy": -10.46, 
			 "cosmo_cavitation_energy": 19.34, 
			 "cosmo_dispersion_energy": -14.63, 
			 "cosmo_repulsion_energy": 1.21, 
			 "cosmo_total_nonelectrostatic_energy": 5.92, 
			 "SMD_solvation_energy": 1.43 
		},
		"coords": [
			{
				"x": -0.8996289359,
				"y": -0.2807935961,
				"z": -2.1558769704,
				"element": "C" 
			},
			{
				"x": -0.3769689115,
				"y": -0.8410755245,
				"z": -0.9259231059,
				"element": "N" 
			},
			{
				"x": -0.1315250138,
				"y": -0.0872471811,
				"z": 0.1984218061,
				"element": "C" 
			},
			{
				"x": -0.577232096,
				"y": 1.2412248342,
				"z": 0.3374361612,
				"element": "C" 
			},
			{
				"x": -0.310235785,
				"y": 1.917869455,
				"z": 1.5252992595,
				"element": "C" 
			},
			{
				"x": 0.3537756738,
				"y": 1.4057522423,
				"z": 2.5686777013,
				"element": "N" 
			},
			{
				"x": 0.7779894985,
				"y": 0.1396403057,
				"z": 2.4230550761,
				"element": "C" 
			},
			{
				"x": 0.570744736,
				"y": -0.6362832332,
				"z": 1.2918348159,
				"element": "C" 
			},
			{
				"x": -0.2704270616,
				"y": 0.5245667273,
				"z": -2.5635418175,
				"element": "H" 
			},
			{
				"x": -1.9083094343,
				"y": 0.1201452134,
				"z": -2.0047046742,
				"element": "H" 
			},
			{
				"x": -0.9686696074,
				"y": -1.0749142037,
				"z": -2.9021527903,
				"element": "H" 
			},
			{
				"x": 0.160230971,
				"y": -1.6900901971,
				"z": -1.0103098393,
				"element": "H" 
			},
			{
				"x": -1.119509725,
				"y": 1.7408884871,
				"z": -0.4571435744,
				"element": "H" 
			},
			{
				"x": -0.6544515081,
				"y": 2.9455946815,
				"z": 1.6371426325,
				"element": "H" 
			},
			{
				"x": 1.3207838125,
				"y": -0.2822457549,
				"z": 3.2680130552,
				"element": "H" 
			},
			{
				"x": 0.9427333868,
				"y": -1.657032256,
				"z": 1.2508722642,
				"element": "H" 
			}
		],
		 "valence_orbital": [ 
			{
				"type": "occ",
				"energy": -0.34728,
				"method": "rhf"
			},
			{
				"type": "occ",
				"energy": -0.31871,
				"method": "rhf"
			},
			{
				"type": "occ",
				"energy": -0.24998,
				"method": "rhf"
			},
			{
				"type": "occ",
				"energy": -0.23932,
				"method": "rhf"
			},
			{
				"type": "occ",
				"energy": -0.21317,
				"method": "rhf"
			},
			{
				"type": "unocc",
				"energy": 0.00218,
				"method": "rhf"
			},
			{
				"type": "unocc",
				"energy": 0.00792,
				"method": "rhf"
			},
			{
				"type": "unocc",
				"energy": 0.07386,
				"method": "rhf"
			},
			{
				"type": "unocc",
				"energy": 0.09965,
				"method": "rhf"
			},
			{
				"type": "unocc",
				"energy": 0.11815,
				"method": "rhf"
			}
		],
		"cosmo_sigma_profile": { 
			"-0.025": 0.0,
			"-0.024": 0.0,
			"-0.023": 0.0,
			"-0.022": 0.0,
			"-0.021": 0.0,
			"-0.02": 0.0,
			"-0.019": 0.0,
			"-0.018": 0.0,
			"-0.017": 0.0,
			"-0.016": 0.0,
			"-0.015": 0.0,
			"-0.014": 0.259869234963,
			"-0.013": 1.57167643413,
			"-0.012": 0.976315952609,
			"-0.011": 1.67289116339,
			"-0.01": 1.5198507867,
			"-0.009": 1.08048595366,
			"-0.008": 2.08441636716,
			"-0.007": 2.13862088034,
			"-0.006": 5.65246963886,
			"-0.005": 12.8281820736,
			"-0.004": 15.4066601111,
			"-0.003": 12.6366748377,
			"-0.002": 14.7839332098,
			"-0.001": 10.1346370181,
			"0.0": 6.74282903627,
			"0.001": 7.11258252352,
			"0.002": 7.25030521038,
			"0.003": 7.06735630738,
			"0.004": 13.8746841632,
			"0.005": 10.299229502,
			"0.006": 2.4868008515,
			"0.007": 3.05292521706,
			"0.008": 1.65505938881,
			"0.009": 1.8032353989,
			"0.01": 1.2870962958,
			"0.011": 1.25104988014,
			"0.012": 1.0648204656,
			"0.013": 1.13538110793,
			"0.014": 0.85125847016,
			"0.015": 0.992621328775,
			"0.016": 1.02065150009,
			"0.017": 1.05994438096,
			"0.018": 0.666800691232,
			"0.019": 0.139401414246,
			"0.02": 0.0,
			"0.021": 0.0,
			"0.022": 0.0,
			"0.023": 0.0,
			"0.024": 0.0,
			"0.025": 0.0
		}
	}
}
