{
	 "smiles": "OC(=O)C1=CON=C1C1=CC=C(Cl)C=C1", 
	 "Tm": 456.15, 
	 "num_atms": 21, 
	 "gaussian": { 
		 "optdone": 1, 
		 "sigma_profile": "yes", 
		 "theory": "DFT", 
		 "functional": "B3LYP", 
		 "basiset": "6-31G**", 
		 "properties": { 
			 "R2extent": 5441.8428, 
			 "electric_dipole_moment_norm": 3.57756659477, 
			 "electric_quadrupole_moment_norm": 14.0276765457, 
			 "total_energy": -1125.25689169, 
			 "HOMO_LUMO_gap": 0.18908, 
			 "cosmo_polarized_energy": -11.42, 
			 "cosmo_cavitation_energy": 28.48, 
			 "cosmo_dispersion_energy": -21.23, 
			 "cosmo_repulsion_energy": 1.64, 
			 "cosmo_total_nonelectrostatic_energy": 8.88, 
			 "SMD_solvation_energy": 6.3 
		},
		"coords": [
			{
				"x": -0.0900781069,
				"y": 3.3493850354,
				"z": 3.4134962425,
				"element": "O" 
			},
			{
				"x": 0.4887848,
				"y": 2.4323621561,
				"z": 2.5944059461,
				"element": "C" 
			},
			{
				"x": 0.9509898437,
				"y": 1.3937342751,
				"z": 3.0227089252,
				"element": "O" 
			},
			{
				"x": 0.4630384293,
				"y": 2.8872230859,
				"z": 1.1969360337,
				"element": "C" 
			},
			{
				"x": -0.0098483886,
				"y": 4.1090540726,
				"z": 0.8026261507,
				"element": "C" 
			},
			{
				"x": 0.0577952448,
				"y": 4.2382839287,
				"z": -0.517707262,
				"element": "O" 
			},
			{
				"x": 0.5942059687,
				"y": 3.0656752992,
				"z": -1.0628813109,
				"element": "N" 
			},
			{
				"x": 0.8336697126,
				"y": 2.2518053102,
				"z": -0.0512479055,
				"element": "C" 
			},
			{
				"x": 1.3775192103,
				"y": 0.9141163479,
				"z": -0.3701018127,
				"element": "C" 
			},
			{
				"x": 2.1529548213,
				"y": 0.1768553098,
				"z": 0.536498267,
				"element": "C" 
			},
			{
				"x": 2.6823409439,
				"y": -1.0609050344,
				"z": 0.1741889242,
				"element": "C" 
			},
			{
				"x": 2.4362313582,
				"y": -1.5655519503,
				"z": -1.1007466119,
				"element": "C" 
			},
			{
				"x": 3.0973096265,
				"y": -3.1271335876,
				"z": -1.5570161999,
				"element": "Cl" 
			},
			{
				"x": 1.6669210757,
				"y": -0.8514040519,
				"z": -2.0206884243,
				"element": "C" 
			},
			{
				"x": 1.142957104,
				"y": 0.3824258575,
				"z": -1.65160765,
				"element": "C" 
			},
			{
				"x": -0.0235333799,
				"y": 2.9841758632,
				"z": 4.3112116211,
				"element": "H" 
			},
			{
				"x": -0.4106846517,
				"y": 4.9433572929,
				"z": 1.3591890324,
				"element": "H" 
			},
			{
				"x": 2.3295015465,
				"y": 0.5583700708,
				"z": 1.5330215174,
				"element": "H" 
			},
			{
				"x": 3.2806847264,
				"y": -1.6282754917,
				"z": 0.8781243134,
				"element": "H" 
			},
			{
				"x": 1.4787867006,
				"y": -1.2593260777,
				"z": -3.0074486018,
				"element": "H" 
			},
			{
				"x": 0.5435534146,
				"y": 0.9455722883,
				"z": -2.3579611948,
				"element": "H" 
			}
		],
		 "valence_orbital": [ 
			{
				"type": "occ",
				"energy": -0.31344,
				"method": "rhf"
			},
			{
				"type": "occ",
				"energy": -0.29703,
				"method": "rhf"
			},
			{
				"type": "occ",
				"energy": -0.28963,
				"method": "rhf"
			},
			{
				"type": "occ",
				"energy": -0.26565,
				"method": "rhf"
			},
			{
				"type": "occ",
				"energy": -0.24378,
				"method": "rhf"
			},
			{
				"type": "unocc",
				"energy": -0.0547,
				"method": "rhf"
			},
			{
				"type": "unocc",
				"energy": -0.05098,
				"method": "rhf"
			},
			{
				"type": "unocc",
				"energy": -0.01529,
				"method": "rhf"
			},
			{
				"type": "unocc",
				"energy": 0.01524,
				"method": "rhf"
			},
			{
				"type": "unocc",
				"energy": 0.02963,
				"method": "rhf"
			}
		],
		"cosmo_sigma_profile": { 
			"-0.025": 0.0,
			"-0.024": 0.0,
			"-0.023": 0.0,
			"-0.022": 0.0,
			"-0.021": 0.0,
			"-0.02": 0.0,
			"-0.019": 0.411728200659,
			"-0.018": 0.997502374418,
			"-0.017": 0.924235263379,
			"-0.016": 0.72568459095,
			"-0.015": 0.471834299764,
			"-0.014": 0.286180237373,
			"-0.013": 1.03219583768,
			"-0.012": 2.40406803052,
			"-0.011": 2.07601544429,
			"-0.01": 1.75495959322,
			"-0.009": 1.78210707334,
			"-0.008": 3.00442498549,
			"-0.007": 6.53306838226,
			"-0.006": 7.94995180232,
			"-0.005": 7.71743412744,
			"-0.004": 10.6374586666,
			"-0.003": 16.5415798963,
			"-0.002": 19.4392831752,
			"-0.001": 16.2085411153,
			"0.0": 15.4038362164,
			"0.001": 18.6059397706,
			"0.002": 23.0389543733,
			"0.003": 20.8917111058,
			"0.004": 16.3768225234,
			"0.005": 10.1411404326,
			"0.006": 7.94778146047,
			"0.007": 4.18671415995,
			"0.008": 3.69845268428,
			"0.009": 3.40955414777,
			"0.01": 3.42795928131,
			"0.011": 3.23678696197,
			"0.012": 1.07415686008,
			"0.013": 0.0828147845788,
			"0.014": 0.0,
			"0.015": 0.0,
			"0.016": 0.0,
			"0.017": 0.0,
			"0.018": 0.0,
			"0.019": 0.0,
			"0.02": 0.0,
			"0.021": 0.0,
			"0.022": 0.0,
			"0.023": 0.0,
			"0.024": 0.0,
			"0.025": 0.0
		}
	}
}
