{
	 "smiles": "COC(=O)C1=NNC2=C1C=CC=C2", 
	 "Tm": 433.15, 
	 "num_atms": 21, 
	 "gaussian": { 
		 "optdone": 1, 
		 "sigma_profile": "yes", 
		 "theory": "DFT", 
		 "functional": "B3LYP", 
		 "basiset": "6-31G**", 
		 "properties": { 
			 "R2extent": 3285.1694, 
			 "electric_dipole_moment_norm": 2.50561994923, 
			 "electric_quadrupole_moment_norm": 7.19724025443, 
			 "total_energy": -607.724158059, 
			 "HOMO_LUMO_gap": 0.18142, 
			 "cosmo_polarized_energy": -13.75, 
			 "cosmo_cavitation_energy": 25.82, 
			 "cosmo_dispersion_energy": -19.36, 
			 "cosmo_repulsion_energy": 1.53, 
			 "cosmo_total_nonelectrostatic_energy": 7.99, 
			 "SMD_solvation_energy": 4.94 
		},
		"coords": [
			{
				"x": 2.1668610976,
				"y": 0.3815683637,
				"z": -5.1079196231,
				"element": "C" 
			},
			{
				"x": 1.2332779115,
				"y": -0.2026803048,
				"z": -4.1876572889,
				"element": "O" 
			},
			{
				"x": 1.1436400669,
				"y": 0.4191947629,
				"z": -2.9967339658,
				"element": "C" 
			},
			{
				"x": 1.7937831781,
				"y": 1.4051165816,
				"z": -2.6959509849,
				"element": "O" 
			},
			{
				"x": 0.1740076354,
				"y": -0.2131432384,
				"z": -2.0824036395,
				"element": "C" 
			},
			{
				"x": -0.5345890259,
				"y": -1.2888514053,
				"z": -2.4120655217,
				"element": "N" 
			},
			{
				"x": -1.2972247527,
				"y": -1.568202198,
				"z": -1.3384774227,
				"element": "N" 
			},
			{
				"x": -1.106722752,
				"y": -0.6928144776,
				"z": -0.2967034416,
				"element": "C" 
			},
			{
				"x": -0.1329381349,
				"y": 0.2274272004,
				"z": -0.7511428099,
				"element": "C" 
			},
			{
				"x": 0.2910523643,
				"y": 1.2693763609,
				"z": 0.0934790102,
				"element": "C" 
			},
			{
				"x": -0.2723060284,
				"y": 1.3525133589,
				"z": 1.357089115,
				"element": "C" 
			},
			{
				"x": -1.2454894913,
				"y": 0.4221703611,
				"z": 1.7939615076,
				"element": "C" 
			},
			{
				"x": -1.6804889574,
				"y": -0.6137233256,
				"z": 0.9811982074,
				"element": "C" 
			},
			{
				"x": 3.1780956294,
				"y": 0.3708461728,
				"z": -4.6928148708,
				"element": "H" 
			},
			{
				"x": 1.89207102,
				"y": 1.4150938224,
				"z": -5.3344811853,
				"element": "H" 
			},
			{
				"x": 2.115284358,
				"y": -0.2337930005,
				"z": -6.0059589085,
				"element": "H" 
			},
			{
				"x": -1.9191003605,
				"y": -2.3605434762,
				"z": -1.3812010826,
				"element": "H" 
			},
			{
				"x": 1.0367702428,
				"y": 1.9751280246,
				"z": -0.2529765579,
				"element": "H" 
			},
			{
				"x": 0.0353803437,
				"y": 2.1462198957,
				"z": 2.0311009611,
				"element": "H" 
			},
			{
				"x": -1.6619051011,
				"y": 0.5229946149,
				"z": 2.7919810455,
				"element": "H" 
			},
			{
				"x": -2.4270592435,
				"y": -1.3256980937,
				"z": 1.3190774566,
				"element": "H" 
			}
		],
		 "valence_orbital": [ 
			{
				"type": "occ",
				"energy": -0.2972,
				"method": "rhf"
			},
			{
				"type": "occ",
				"energy": -0.29256,
				"method": "rhf"
			},
			{
				"type": "occ",
				"energy": -0.271,
				"method": "rhf"
			},
			{
				"type": "occ",
				"energy": -0.24806,
				"method": "rhf"
			},
			{
				"type": "occ",
				"energy": -0.22861,
				"method": "rhf"
			},
			{
				"type": "unocc",
				"energy": -0.04719,
				"method": "rhf"
			},
			{
				"type": "unocc",
				"energy": -0.00208,
				"method": "rhf"
			},
			{
				"type": "unocc",
				"energy": 0.01454,
				"method": "rhf"
			},
			{
				"type": "unocc",
				"energy": 0.07694,
				"method": "rhf"
			},
			{
				"type": "unocc",
				"energy": 0.09719,
				"method": "rhf"
			}
		],
		"cosmo_sigma_profile": { 
			"-0.025": 0.0,
			"-0.024": 0.0,
			"-0.023": 0.0,
			"-0.022": 0.0,
			"-0.021": 0.0,
			"-0.02": 0.0,
			"-0.019": 0.0,
			"-0.018": 0.0830798052209,
			"-0.017": 1.57118939527,
			"-0.016": 1.66388135375,
			"-0.015": 1.43325613665,
			"-0.014": 0.624221884303,
			"-0.013": 0.704200115019,
			"-0.012": 1.31120989011,
			"-0.011": 1.38844141462,
			"-0.01": 0.907855881584,
			"-0.009": 1.06727205455,
			"-0.008": 1.62436622279,
			"-0.007": 4.14877597128,
			"-0.006": 11.1529839913,
			"-0.005": 13.9057762249,
			"-0.004": 16.874004125,
			"-0.003": 16.6895465927,
			"-0.002": 12.504342247,
			"-0.001": 9.9612446966,
			"0.0": 11.4266123102,
			"0.001": 16.6156609841,
			"0.002": 14.4419111489,
			"0.003": 14.3054203527,
			"0.004": 13.9536378096,
			"0.005": 9.72052401335,
			"0.006": 3.50230540805,
			"0.007": 2.97337169613,
			"0.008": 3.06888644515,
			"0.009": 3.98917205654,
			"0.01": 3.15489066396,
			"0.011": 4.47140399084,
			"0.012": 4.20517409928,
			"0.013": 1.49262438197,
			"0.014": 1.51643994816,
			"0.015": 0.558598860317,
			"0.016": 0.0,
			"0.017": 0.0,
			"0.018": 0.0,
			"0.019": 0.0,
			"0.02": 0.0,
			"0.021": 0.0,
			"0.022": 0.0,
			"0.023": 0.0,
			"0.024": 0.0,
			"0.025": 0.0
		}
	}
}
