{
	 "smiles": "CC(=O)C1=C2C=CC=CC2=CC=C1", 
	 "Tm": 307.15, 
	 "num_atms": 23, 
	 "gaussian": { 
		 "optdone": 1, 
		 "sigma_profile": "yes", 
		 "theory": "DFT", 
		 "functional": "B3LYP", 
		 "basiset": "6-31G**", 
		 "properties": { 
			 "R2extent": 2511.3231, 
			 "electric_dipole_moment_norm": 2.80539878627, 
			 "electric_quadrupole_moment_norm": 8.44478193916, 
			 "total_energy": -538.538906234, 
			 "HOMO_LUMO_gap": 0.15452, 
			 "cosmo_polarized_energy": -8.39, 
			 "cosmo_cavitation_energy": 26.21, 
			 "cosmo_dispersion_energy": -19.59, 
			 "cosmo_repulsion_energy": 1.5, 
			 "cosmo_total_nonelectrostatic_energy": 8.13, 
			 "SMD_solvation_energy": 4.85 
		},
		"coords": [
			{
				"x": -2.2353362846,
				"y": -0.353336726,
				"z": -2.1135634085,
				"element": "C" 
			},
			{
				"x": -1.2811891727,
				"y": -0.9559627196,
				"z": -1.0841292934,
				"element": "C" 
			},
			{
				"x": -1.5030738149,
				"y": -2.0937245997,
				"z": -0.6897428109,
				"element": "O" 
			},
			{
				"x": -0.120600624,
				"y": -0.1339235091,
				"z": -0.6032458418,
				"element": "C" 
			},
			{
				"x": 0.8380297971,
				"y": -0.6146323625,
				"z": 0.3678010262,
				"element": "C" 
			},
			{
				"x": 0.7931353337,
				"y": -1.9037119032,
				"z": 0.9711632507,
				"element": "C" 
			},
			{
				"x": 1.7446098409,
				"y": -2.2921621995,
				"z": 1.8909866156,
				"element": "C" 
			},
			{
				"x": 2.796016329,
				"y": -1.426581298,
				"z": 2.2669027291,
				"element": "C" 
			},
			{
				"x": 2.8732771105,
				"y": -0.173758859,
				"z": 1.7062221895,
				"element": "C" 
			},
			{
				"x": 1.9114559855,
				"y": 0.2617169737,
				"z": 0.7551774369,
				"element": "C" 
			},
			{
				"x": 2.0095350654,
				"y": 1.5591993055,
				"z": 0.1882512529,
				"element": "C" 
			},
			{
				"x": 1.0884985015,
				"y": 1.9968274429,
				"z": -0.7327555189,
				"element": "C" 
			},
			{
				"x": 0.0330080082,
				"y": 1.1472032016,
				"z": -1.1196967402,
				"element": "C" 
			},
			{
				"x": -2.9995831875,
				"y": -1.1004504654,
				"z": -2.3283082111,
				"element": "H" 
			},
			{
				"x": -2.7173378916,
				"y": 0.5545363492,
				"z": -1.7362877174,
				"element": "H" 
			},
			{
				"x": -1.7171549285,
				"y": -0.0931807008,
				"z": -3.0423894355,
				"element": "H" 
			},
			{
				"x": -0.0053825605,
				"y": -2.574702887,
				"z": 0.6924907547,
				"element": "H" 
			},
			{
				"x": 1.682446295,
				"y": -3.2825232718,
				"z": 2.3333816659,
				"element": "H" 
			},
			{
				"x": 3.5357374398,
				"y": -1.7509141213,
				"z": 2.9930766024,
				"element": "H" 
			},
			{
				"x": 3.6740080657,
				"y": 0.5079682326,
				"z": 1.9813448214,
				"element": "H" 
			},
			{
				"x": 2.8299707205,
				"y": 2.2018240417,
				"z": 0.4978215719,
				"element": "H" 
			},
			{
				"x": 1.1657682483,
				"y": 2.9897610537,
				"z": -1.1649322724,
				"element": "H" 
			},
			{
				"x": -0.6769382768,
				"y": 1.520929022,
				"z": -1.8476686672,
				"element": "H" 
			}
		],
		 "valence_orbital": [ 
			{
				"type": "occ",
				"energy": -0.33027,
				"method": "rhf"
			},
			{
				"type": "occ",
				"energy": -0.28456,
				"method": "rhf"
			},
			{
				"type": "occ",
				"energy": -0.24878,
				"method": "rhf"
			},
			{
				"type": "occ",
				"energy": -0.24173,
				"method": "rhf"
			},
			{
				"type": "occ",
				"energy": -0.22228,
				"method": "rhf"
			},
			{
				"type": "unocc",
				"energy": -0.06776,
				"method": "rhf"
			},
			{
				"type": "unocc",
				"energy": -0.01375,
				"method": "rhf"
			},
			{
				"type": "unocc",
				"energy": -0.00438,
				"method": "rhf"
			},
			{
				"type": "unocc",
				"energy": 0.05115,
				"method": "rhf"
			},
			{
				"type": "unocc",
				"energy": 0.0886,
				"method": "rhf"
			}
		],
		"cosmo_sigma_profile": { 
			"-0.025": 0.0,
			"-0.024": 0.0,
			"-0.023": 0.0,
			"-0.022": 0.0,
			"-0.021": 0.0,
			"-0.02": 0.0,
			"-0.019": 0.0,
			"-0.018": 0.0,
			"-0.017": 0.0,
			"-0.016": 0.0,
			"-0.015": 0.0,
			"-0.014": 0.0,
			"-0.013": 0.0,
			"-0.012": 0.0,
			"-0.011": 0.0,
			"-0.01": 0.0,
			"-0.009": 0.0,
			"-0.008": 0.0,
			"-0.007": 4.27767250562,
			"-0.006": 17.0466518821,
			"-0.005": 18.110508744,
			"-0.004": 17.2086678617,
			"-0.003": 15.8368464902,
			"-0.002": 14.0722829617,
			"-0.001": 15.8194083262,
			"0.0": 12.7146756207,
			"0.001": 11.5959470033,
			"0.002": 15.4012660475,
			"0.003": 25.0571944248,
			"0.004": 18.2609717108,
			"0.005": 9.58479733039,
			"0.006": 2.74933024875,
			"0.007": 1.26103686274,
			"0.008": 1.21372366117,
			"0.009": 2.11316582707,
			"0.01": 2.05146292155,
			"0.011": 2.0837540692,
			"0.012": 2.19939692358,
			"0.013": 1.38794599473,
			"0.014": 0.142788077328,
			"0.015": 0.0,
			"0.016": 0.0,
			"0.017": 0.0,
			"0.018": 0.0,
			"0.019": 0.0,
			"0.02": 0.0,
			"0.021": 0.0,
			"0.022": 0.0,
			"0.023": 0.0,
			"0.024": 0.0,
			"0.025": 0.0
		}
	}
}
