{
	 "smiles": "CCOC(=O)C1=C(C)N(O)C2=C1C1=NON=C1C=C2", 
	 "Tm": 503.15, 
	 "num_atms": 30, 
	 "gaussian": { 
		 "optdone": 1, 
		 "sigma_profile": "yes", 
		 "theory": "DFT", 
		 "functional": "B3LYP", 
		 "basiset": "6-31G**", 
		 "properties": { 
			 "R2extent": 5120.2987, 
			 "electric_dipole_moment_norm": 5.31303626658, 
			 "electric_quadrupole_moment_norm": 23.537716796, 
			 "total_energy": -928.930832315, 
			 "HOMO_LUMO_gap": 0.14983, 
			 "cosmo_polarized_energy": -18.88, 
			 "cosmo_cavitation_energy": 34.86, 
			 "cosmo_dispersion_energy": -24.97, 
			 "cosmo_repulsion_energy": 1.9, 
			 "cosmo_total_nonelectrostatic_energy": 11.79, 
			 "SMD_solvation_energy": 7.33 
		},
		"coords": [
			{
				"x": 4.043083208,
				"y": -1.308289459,
				"z": 1.2179783966,
				"element": "C" 
			},
			{
				"x": 3.6494167696,
				"y": -0.4343971377,
				"z": 0.0364416284,
				"element": "C" 
			},
			{
				"x": 2.2148940588,
				"y": -0.40077916,
				"z": -0.1350700417,
				"element": "O" 
			},
			{
				"x": 1.5252020954,
				"y": 0.4987645609,
				"z": 0.5864533647,
				"element": "C" 
			},
			{
				"x": 2.0414170341,
				"y": 1.2810903357,
				"z": 1.3705563119,
				"element": "O" 
			},
			{
				"x": 0.0823128519,
				"y": 0.4144930716,
				"z": 0.3026029002,
				"element": "C" 
			},
			{
				"x": -0.8704362513,
				"y": 1.2122492686,
				"z": 0.9419490248,
				"element": "C" 
			},
			{
				"x": -0.757940527,
				"y": 2.2664342826,
				"z": 1.9904150749,
				"element": "C" 
			},
			{
				"x": -2.0872596108,
				"y": 0.8672868678,
				"z": 0.4172153137,
				"element": "N" 
			},
			{
				"x": -3.2920291976,
				"y": 1.3637855353,
				"z": 0.875294745,
				"element": "O" 
			},
			{
				"x": -1.9866621523,
				"y": -0.1423338406,
				"z": -0.5137206892,
				"element": "C" 
			},
			{
				"x": -0.6179276362,
				"y": -0.4438554127,
				"z": -0.6179451328,
				"element": "C" 
			},
			{
				"x": -0.3064070493,
				"y": -1.4736727769,
				"z": -1.5718336118,
				"element": "C" 
			},
			{
				"x": 0.8310270005,
				"y": -2.0214342579,
				"z": -1.9624271853,
				"element": "N" 
			},
			{
				"x": 0.4687532511,
				"y": -2.9520696296,
				"z": -2.9053154822,
				"element": "O" 
			},
			{
				"x": -0.8787541804,
				"y": -3.0045352861,
				"z": -3.1199183206,
				"element": "N" 
			},
			{
				"x": -1.3859933914,
				"y": -2.0979063421,
				"z": -2.3068327419,
				"element": "C" 
			},
			{
				"x": -2.763015217,
				"y": -1.7439068717,
				"z": -2.1326504056,
				"element": "C" 
			},
			{
				"x": -3.0530268775,
				"y": -0.7611955417,
				"z": -1.2305102263,
				"element": "C" 
			},
			{
				"x": 3.6343055372,
				"y": -2.3165068073,
				"z": 1.105571894,
				"element": "H" 
			},
			{
				"x": 5.1341643165,
				"y": -1.3831350662,
				"z": 1.2769313834,
				"element": "H" 
			},
			{
				"x": 3.6776128525,
				"y": -0.8778678266,
				"z": 2.1536442143,
				"element": "H" 
			},
			{
				"x": 4.0140609137,
				"y": 0.5881314041,
				"z": 0.161686448,
				"element": "H" 
			},
			{
				"x": 4.0187735279,
				"y": -0.8444314889,
				"z": -0.9057082949,
				"element": "H" 
			},
			{
				"x": -1.444820433,
				"y": 2.0629671674,
				"z": 2.8182212498,
				"element": "H" 
			},
			{
				"x": -1.0137628333,
				"y": 3.2548958988,
				"z": 1.5880126395,
				"element": "H" 
			},
			{
				"x": 0.2677442519,
				"y": 2.2994873536,
				"z": 2.352394779,
				"element": "H" 
			},
			{
				"x": -3.4660499306,
				"y": 2.1580430692,
				"z": 0.3424650791,
				"element": "H" 
			},
			{
				"x": -3.5308286841,
				"y": -2.2522920956,
				"z": -2.7031387284,
				"element": "H" 
			},
			{
				"x": -4.0730536972,
				"y": -0.4469198149,
				"z": -1.0384635864,
				"element": "H" 
			}
		],
		 "valence_orbital": [ 
			{
				"type": "occ",
				"energy": -0.29147,
				"method": "rhf"
			},
			{
				"type": "occ",
				"energy": -0.28616,
				"method": "rhf"
			},
			{
				"type": "occ",
				"energy": -0.2682,
				"method": "rhf"
			},
			{
				"type": "occ",
				"energy": -0.25232,
				"method": "rhf"
			},
			{
				"type": "occ",
				"energy": -0.22227,
				"method": "rhf"
			},
			{
				"type": "unocc",
				"energy": -0.07244,
				"method": "rhf"
			},
			{
				"type": "unocc",
				"energy": -0.02969,
				"method": "rhf"
			},
			{
				"type": "unocc",
				"energy": 0.01155,
				"method": "rhf"
			},
			{
				"type": "unocc",
				"energy": 0.02075,
				"method": "rhf"
			},
			{
				"type": "unocc",
				"energy": 0.02778,
				"method": "rhf"
			}
		],
		"cosmo_sigma_profile": { 
			"-0.025": 0.0,
			"-0.024": 0.0,
			"-0.023": 0.0,
			"-0.022": 0.0,
			"-0.021": 0.0,
			"-0.02": 0.297862885273,
			"-0.019": 1.66562515899,
			"-0.018": 0.758803304642,
			"-0.017": 1.17760683868,
			"-0.016": 1.13321657458,
			"-0.015": 1.01869664323,
			"-0.014": 1.08791223822,
			"-0.013": 0.899557441623,
			"-0.012": 0.832588371906,
			"-0.011": 1.10119399757,
			"-0.01": 1.03406746735,
			"-0.009": 1.15578607669,
			"-0.008": 4.43564016167,
			"-0.007": 4.53279379313,
			"-0.006": 9.33386979741,
			"-0.005": 11.3271290881,
			"-0.004": 16.0201848481,
			"-0.003": 19.5598950897,
			"-0.002": 25.9269241604,
			"-0.001": 30.1289594817,
			"0.0": 31.796874364,
			"0.001": 22.979886555,
			"0.002": 15.211140192,
			"0.003": 10.2254614127,
			"0.004": 7.2282857622,
			"0.005": 9.62062335405,
			"0.006": 11.9906301429,
			"0.007": 9.14410304589,
			"0.008": 5.94600193556,
			"0.009": 6.1370489589,
			"0.01": 6.58498032962,
			"0.011": 4.33431001772,
			"0.012": 3.38903749231,
			"0.013": 0.659042257226,
			"0.014": 0.0,
			"0.015": 0.0,
			"0.016": 0.0,
			"0.017": 0.0,
			"0.018": 0.0,
			"0.019": 0.0,
			"0.02": 0.0,
			"0.021": 0.0,
			"0.022": 0.0,
			"0.023": 0.0,
			"0.024": 0.0,
			"0.025": 0.0
		}
	}
}
