{
	 "smiles": "CC1=CC(=CN=C1)C(O)=O", 
	 "Tm": 485.65, 
	 "num_atms": 17, 
	 "gaussian": { 
		 "optdone": 1, 
		 "sigma_profile": "yes", 
		 "theory": "DFT", 
		 "functional": "B3LYP", 
		 "basiset": "6-31G**", 
		 "properties": { 
			 "R2extent": 1918.3235, 
			 "electric_dipole_moment_norm": 3.67066447118, 
			 "electric_quadrupole_moment_norm": 10.3591546431, 
			 "total_energy": -476.18006741, 
			 "HOMO_LUMO_gap": 0.20051, 
			 "cosmo_polarized_energy": -10.92, 
			 "cosmo_cavitation_energy": 21.69, 
			 "cosmo_dispersion_energy": -16.04, 
			 "cosmo_repulsion_energy": 1.3, 
			 "cosmo_total_nonelectrostatic_energy": 6.94, 
			 "SMD_solvation_energy": 3.74 
		},
		"coords": [
			{
				"x": 0.5596588949,
				"y": -1.0170255464,
				"z": -1.8499518661,
				"element": "C" 
			},
			{
				"x": 0.4088266026,
				"y": 0.1346923995,
				"z": -0.8876988542,
				"element": "C" 
			},
			{
				"x": -0.6677301855,
				"y": 0.2172039362,
				"z": -0.0002692652,
				"element": "C" 
			},
			{
				"x": -0.7581557042,
				"y": 1.3066934612,
				"z": 0.8703563081,
				"element": "C" 
			},
			{
				"x": 0.2436093392,
				"y": 2.2870314761,
				"z": 0.821924749,
				"element": "C" 
			},
			{
				"x": 1.2795300985,
				"y": 2.2294607564,
				"z": -0.0160776646,
				"element": "N" 
			},
			{
				"x": 1.3454790425,
				"y": 1.1761036974,
				"z": -0.8413601773,
				"element": "C" 
			},
			{
				"x": -1.8671294683,
				"y": 1.4733456377,
				"z": 1.8444644181,
				"element": "C" 
			},
			{
				"x": -2.7703589767,
				"y": 0.4617174458,
				"z": 1.7935925744,
				"element": "O" 
			},
			{
				"x": -1.979838661,
				"y": 2.4043537872,
				"z": 2.6160335666,
				"element": "O" 
			},
			{
				"x": 1.4574016192,
				"y": -0.9051657531,
				"z": -2.4638998451,
				"element": "H" 
			},
			{
				"x": 0.6341533437,
				"y": -1.9723912356,
				"z": -1.3187100982,
				"element": "H" 
			},
			{
				"x": -0.3008622712,
				"y": -1.087532853,
				"z": -2.5244471143,
				"element": "H" 
			},
			{
				"x": -1.4314305331,
				"y": -0.5541034264,
				"z": 0.0189661633,
				"element": "H" 
			},
			{
				"x": 0.1871562812,
				"y": 3.1402645335,
				"z": 1.4927266193,
				"element": "H" 
			},
			{
				"x": 2.2020806648,
				"y": 1.1550477695,
				"z": -1.5149012334,
				"element": "H" 
			},
			{
				"x": -3.4412900868,
				"y": 0.672403914,
				"z": 2.4637517194,
				"element": "H" 
			}
		],
		 "valence_orbital": [ 
			{
				"type": "occ",
				"energy": -0.3259,
				"method": "rhf"
			},
			{
				"type": "occ",
				"energy": -0.29284,
				"method": "rhf"
			},
			{
				"type": "occ",
				"energy": -0.28606,
				"method": "rhf"
			},
			{
				"type": "occ",
				"energy": -0.26417,
				"method": "rhf"
			},
			{
				"type": "occ",
				"energy": -0.25858,
				"method": "rhf"
			},
			{
				"type": "unocc",
				"energy": -0.05807,
				"method": "rhf"
			},
			{
				"type": "unocc",
				"energy": -0.02825,
				"method": "rhf"
			},
			{
				"type": "unocc",
				"energy": 0.04666,
				"method": "rhf"
			},
			{
				"type": "unocc",
				"energy": 0.07326,
				"method": "rhf"
			},
			{
				"type": "unocc",
				"energy": 0.09807,
				"method": "rhf"
			}
		],
		"cosmo_sigma_profile": { 
			"-0.025": 0.0,
			"-0.024": 0.0,
			"-0.023": 0.0,
			"-0.022": 0.0,
			"-0.021": 0.0,
			"-0.02": 0.0,
			"-0.019": 0.0955442602518,
			"-0.018": 0.939242469665,
			"-0.017": 0.738900306334,
			"-0.016": 1.11655610959,
			"-0.015": 0.814408690605,
			"-0.014": 0.523302788844,
			"-0.013": 0.573396438803,
			"-0.012": 0.659124758374,
			"-0.011": 0.582422600507,
			"-0.01": 0.927364690198,
			"-0.009": 0.556875364884,
			"-0.008": 0.805319237141,
			"-0.007": 2.82936236794,
			"-0.006": 7.02202703647,
			"-0.005": 10.5913233848,
			"-0.004": 13.4455182042,
			"-0.003": 13.0576941725,
			"-0.002": 13.7720902897,
			"-0.001": 20.2747187302,
			"0.0": 19.0390056595,
			"0.001": 15.4051751631,
			"0.002": 5.58743957793,
			"0.003": 4.89336699848,
			"0.004": 5.89592736571,
			"0.005": 3.90322245607,
			"0.006": 3.61838824042,
			"0.007": 4.19230719992,
			"0.008": 3.46789089457,
			"0.009": 2.74660814816,
			"0.01": 2.89761221734,
			"0.011": 5.07254058734,
			"0.012": 3.82834554434,
			"0.013": 0.576708195574,
			"0.014": 0.924080653877,
			"0.015": 0.876700174092,
			"0.016": 0.675399775028,
			"0.017": 0.125881477498,
			"0.018": 0.0,
			"0.019": 0.0,
			"0.02": 0.0,
			"0.021": 0.0,
			"0.022": 0.0,
			"0.023": 0.0,
			"0.024": 0.0,
			"0.025": 0.0
		}
	}
}
