{
	 "smiles": "CC1(NC(=O)NC1=O)C1=CC=C(C=C1)S(C)(=O)=O", 
	 "Tm": 502.15, 
	 "num_atms": 30, 
	 "gaussian": { 
		 "optdone": 1, 
		 "sigma_profile": "yes", 
		 "theory": "DFT", 
		 "functional": "B3LYP", 
		 "basiset": "6-31G**", 
		 "properties": { 
			 "R2extent": 6490.5169, 
			 "electric_dipole_moment_norm": 3.18272887472, 
			 "electric_quadrupole_moment_norm": 29.0400433955, 
			 "total_energy": -1234.96833825, 
			 "HOMO_LUMO_gap": 0.21867, 
			 "cosmo_polarized_energy": -27.06, 
			 "cosmo_cavitation_energy": 35.72, 
			 "cosmo_dispersion_energy": -25.63, 
			 "cosmo_repulsion_energy": 1.94, 
			 "cosmo_total_nonelectrostatic_energy": 12.03, 
			 "SMD_solvation_energy": 7.54 
		},
		"coords": [
			{
				"x": 0.2929667909,
				"y": -1.2003917906,
				"z": -3.1651508922,
				"element": "C" 
			},
			{
				"x": 0.4934314576,
				"y": -0.0711552349,
				"z": -2.1319484256,
				"element": "C" 
			},
			{
				"x": 1.7886263983,
				"y": 0.5851660129,
				"z": -2.2994499147,
				"element": "N" 
			},
			{
				"x": 1.6978046116,
				"y": 1.8732239037,
				"z": -2.7772737738,
				"element": "C" 
			},
			{
				"x": 2.5916891711,
				"y": 2.6143491088,
				"z": -3.1219183292,
				"element": "O" 
			},
			{
				"x": 0.3192439367,
				"y": 2.1723555719,
				"z": -2.7877265578,
				"element": "N" 
			},
			{
				"x": -0.4770595227,
				"y": 1.0996361854,
				"z": -2.4612809304,
				"element": "C" 
			},
			{
				"x": -1.6885952921,
				"y": 1.058396308,
				"z": -2.4509843556,
				"element": "O" 
			},
			{
				"x": 0.2552794298,
				"y": -0.5737128976,
				"z": -0.7029340238,
				"element": "C" 
			},
			{
				"x": 1.2716481265,
				"y": -0.532893507,
				"z": 0.2584283055,
				"element": "C" 
			},
			{
				"x": 1.0537871852,
				"y": -1.0240831173,
				"z": 1.5459924414,
				"element": "C" 
			},
			{
				"x": -0.1964952711,
				"y": -1.5465016153,
				"z": 1.8719346118,
				"element": "C" 
			},
			{
				"x": -1.2259755005,
				"y": -1.592887063,
				"z": 0.9299768081,
				"element": "C" 
			},
			{
				"x": -0.9966013955,
				"y": -1.1058059715,
				"z": -0.3542439967,
				"element": "C" 
			},
			{
				"x": -0.4841456245,
				"y": -2.181312319,
				"z": 3.5324852272,
				"element": "S" 
			},
			{
				"x": -1.128457844,
				"y": -0.7487373692,
				"z": 4.429933687,
				"element": "C" 
			},
			{
				"x": -1.5651760152,
				"y": -3.1758614071,
				"z": 3.4541116225,
				"element": "O" 
			},
			{
				"x": 0.8229547587,
				"y": -2.5181869869,
				"z": 4.1177364376,
				"element": "O" 
			},
			{
				"x": 0.9882761901,
				"y": -2.0207374572,
				"z": -2.9631065134,
				"element": "H" 
			},
			{
				"x": -0.7250641232,
				"y": -1.5906305525,
				"z": -3.1135712722,
				"element": "H" 
			},
			{
				"x": 0.4707170854,
				"y": -0.825973669,
				"z": -4.1775740533,
				"element": "H" 
			},
			{
				"x": 2.6447258284,
				"y": 0.0745514492,
				"z": -2.4589635327,
				"element": "H" 
			},
			{
				"x": -0.0338564386,
				"y": 3.0730070945,
				"z": -3.0790067907,
				"element": "H" 
			},
			{
				"x": 2.2371219036,
				"y": -0.1109741569,
				"z": 0.0033481081,
				"element": "H" 
			},
			{
				"x": 1.8470340979,
				"y": -1.0199461274,
				"z": 2.2861001818,
				"element": "H" 
			},
			{
				"x": -2.1852037164,
				"y": -2.0229776276,
				"z": 1.1981647764,
				"element": "H" 
			},
			{
				"x": -1.8001102872,
				"y": -1.1150972631,
				"z": -1.0816302577,
				"element": "H" 
			},
			{
				"x": -2.0545009021,
				"y": -0.4158894388,
				"z": 3.9592561128,
				"element": "H" 
			},
			{
				"x": -1.3212087278,
				"y": -1.0898629151,
				"z": 5.4492345297,
				"element": "H" 
			},
			{
				"x": -0.378156311,
				"y": 0.0430328526,
				"z": 4.42956077,
				"element": "H" 
			}
		],
		 "valence_orbital": [ 
			{
				"type": "occ",
				"energy": -0.29124,
				"method": "rhf"
			},
			{
				"type": "occ",
				"energy": -0.28829,
				"method": "rhf"
			},
			{
				"type": "occ",
				"energy": -0.28218,
				"method": "rhf"
			},
			{
				"type": "occ",
				"energy": -0.27755,
				"method": "rhf"
			},
			{
				"type": "occ",
				"energy": -0.27057,
				"method": "rhf"
			},
			{
				"type": "unocc",
				"energy": -0.0519,
				"method": "rhf"
			},
			{
				"type": "unocc",
				"energy": -0.03008,
				"method": "rhf"
			},
			{
				"type": "unocc",
				"energy": -0.02004,
				"method": "rhf"
			},
			{
				"type": "unocc",
				"energy": 0.04294,
				"method": "rhf"
			},
			{
				"type": "unocc",
				"energy": 0.0575,
				"method": "rhf"
			}
		],
		"cosmo_sigma_profile": { 
			"-0.025": 0.0,
			"-0.024": 0.0,
			"-0.023": 0.0,
			"-0.022": 0.0,
			"-0.021": 0.0,
			"-0.02": 0.0,
			"-0.019": 0.0,
			"-0.018": 0.0,
			"-0.017": 0.907404899451,
			"-0.016": 1.30473313893,
			"-0.015": 2.04551026423,
			"-0.014": 2.59614621059,
			"-0.013": 1.26742343363,
			"-0.012": 2.64360252881,
			"-0.011": 1.81735975893,
			"-0.01": 2.19857517348,
			"-0.009": 4.29172909498,
			"-0.008": 9.89525675309,
			"-0.007": 12.2214946751,
			"-0.006": 20.6635682401,
			"-0.005": 20.0357311167,
			"-0.004": 20.4648883032,
			"-0.003": 18.4250195465,
			"-0.002": 17.8615163263,
			"-0.001": 16.8053071678,
			"0.0": 11.7640129746,
			"0.001": 12.5955396068,
			"0.002": 16.8674495205,
			"0.003": 9.53871699413,
			"0.004": 5.6808690867,
			"0.005": 5.11493297855,
			"0.006": 4.5526348519,
			"0.007": 5.3081268064,
			"0.008": 4.94172967863,
			"0.009": 5.51436052608,
			"0.01": 9.52556535304,
			"0.011": 14.5201567485,
			"0.012": 17.2794297255,
			"0.013": 5.29028192873,
			"0.014": 0.120070750982,
			"0.015": 0.0,
			"0.016": 0.0,
			"0.017": 0.0,
			"0.018": 0.0,
			"0.019": 0.0,
			"0.02": 0.0,
			"0.021": 0.0,
			"0.022": 0.0,
			"0.023": 0.0,
			"0.024": 0.0,
			"0.025": 0.0
		}
	}
}
