{
	 "smiles": "CC1=C(Cl)C(N)=NC=C1Cl", 
	 "Tm": 397.15, 
	 "num_atms": 16, 
	 "gaussian": { 
		 "optdone": 1, 
		 "sigma_profile": "yes", 
		 "theory": "DFT", 
		 "functional": "B3LYP", 
		 "basiset": "6-31G**", 
		 "properties": { 
			 "R2extent": 2298.8668, 
			 "electric_dipole_moment_norm": 1.86380478055, 
			 "electric_quadrupole_moment_norm": 5.47975221155, 
			 "total_energy": -1262.15465434, 
			 "HOMO_LUMO_gap": 0.18587, 
			 "cosmo_polarized_energy": -6.91, 
			 "cosmo_cavitation_energy": 23.02, 
			 "cosmo_dispersion_energy": -17.69, 
			 "cosmo_repulsion_energy": 1.43, 
			 "cosmo_total_nonelectrostatic_energy": 6.76, 
			 "SMD_solvation_energy": 2.13 
		},
		"coords": [
			{
				"x": 1.2328635749,
				"y": 1.7565010438,
				"z": -1.8325859949,
				"element": "C" 
			},
			{
				"x": 0.2725721964,
				"y": 0.7666774545,
				"z": -1.2315372933,
				"element": "C" 
			},
			{
				"x": 0.7117425901,
				"y": -0.472596439,
				"z": -0.7598008697,
				"element": "C" 
			},
			{
				"x": 2.4211777847,
				"y": -0.8950243947,
				"z": -0.8609749949,
				"element": "Cl" 
			},
			{
				"x": -0.1805398414,
				"y": -1.4098735597,
				"z": -0.1931222641,
				"element": "C" 
			},
			{
				"x": 0.2254185117,
				"y": -2.6490618845,
				"z": 0.2289872064,
				"element": "N" 
			},
			{
				"x": -1.4879530787,
				"y": -1.1313983554,
				"z": -0.0804274844,
				"element": "N" 
			},
			{
				"x": -1.9330668968,
				"y": 0.0415774014,
				"z": -0.5270561532,
				"element": "C" 
			},
			{
				"x": -1.1085605377,
				"y": 1.0048549815,
				"z": -1.1010724149,
				"element": "C" 
			},
			{
				"x": -1.8429418188,
				"y": 2.5103894564,
				"z": -1.6421871871,
				"element": "Cl" 
			},
			{
				"x": 2.0132907113,
				"y": 2.0193903056,
				"z": -1.111350254,
				"element": "H" 
			},
			{
				"x": 1.7361632942,
				"y": 1.3217540445,
				"z": -2.7021458921,
				"element": "H" 
			},
			{
				"x": 0.7217457968,
				"y": 2.6664448177,
				"z": -2.1427701767,
				"element": "H" 
			},
			{
				"x": 1.2003012106,
				"y": -2.7923301976,
				"z": 0.4397810557,
				"element": "H" 
			},
			{
				"x": -0.445748563,
				"y": -3.1431836463,
				"z": 0.7975281247,
				"element": "H" 
			},
			{
				"x": -2.9979649342,
				"y": 0.2332789719,
				"z": -0.4222654075,
				"element": "H" 
			}
		],
		 "valence_orbital": [ 
			{
				"type": "occ",
				"energy": -0.31751,
				"method": "rhf"
			},
			{
				"type": "occ",
				"energy": -0.30845,
				"method": "rhf"
			},
			{
				"type": "occ",
				"energy": -0.27341,
				"method": "rhf"
			},
			{
				"type": "occ",
				"energy": -0.27209,
				"method": "rhf"
			},
			{
				"type": "occ",
				"energy": -0.21909,
				"method": "rhf"
			},
			{
				"type": "unocc",
				"energy": -0.03322,
				"method": "rhf"
			},
			{
				"type": "unocc",
				"energy": -0.00528,
				"method": "rhf"
			},
			{
				"type": "unocc",
				"energy": 0.00862,
				"method": "rhf"
			},
			{
				"type": "unocc",
				"energy": 0.04891,
				"method": "rhf"
			},
			{
				"type": "unocc",
				"energy": 0.08822,
				"method": "rhf"
			}
		],
		"cosmo_sigma_profile": { 
			"-0.025": 0.0,
			"-0.024": 0.0,
			"-0.023": 0.0,
			"-0.022": 0.0,
			"-0.021": 0.0,
			"-0.02": 0.0,
			"-0.019": 0.0,
			"-0.018": 0.0,
			"-0.017": 0.0,
			"-0.016": 0.0,
			"-0.015": 0.0,
			"-0.014": 0.191394062823,
			"-0.013": 1.35888817188,
			"-0.012": 2.06564381222,
			"-0.011": 1.90309896867,
			"-0.01": 2.52103697007,
			"-0.009": 1.81218450297,
			"-0.008": 1.9158320216,
			"-0.007": 3.11026989118,
			"-0.006": 3.41135769933,
			"-0.005": 7.75854112209,
			"-0.004": 7.7128913417,
			"-0.003": 9.76601737397,
			"-0.002": 14.754270432,
			"-0.001": 20.9054879397,
			"0.0": 19.7133042906,
			"0.001": 23.4524424895,
			"0.002": 16.7219482671,
			"0.003": 13.9601189602,
			"0.004": 14.6793523524,
			"0.005": 7.2880803884,
			"0.006": 2.52293305416,
			"0.007": 2.30019215406,
			"0.008": 1.47293297503,
			"0.009": 1.73299309484,
			"0.01": 1.6569608813,
			"0.011": 0.857415771228,
			"0.012": 1.23846499907,
			"0.013": 0.581565854794,
			"0.014": 0.701465309043,
			"0.015": 0.0533976309709,
			"0.016": 0.0,
			"0.017": 0.0,
			"0.018": 0.0,
			"0.019": 0.0,
			"0.02": 0.0,
			"0.021": 0.0,
			"0.022": 0.0,
			"0.023": 0.0,
			"0.024": 0.0,
			"0.025": 0.0
		}
	}
}
