{
	 "smiles": "NS(=O)(=O)C1=NC=CN=C1", 
	 "Tm": 440.15, 
	 "num_atms": 15, 
	 "gaussian": { 
		 "optdone": 1, 
		 "sigma_profile": "yes", 
		 "theory": "DFT", 
		 "functional": "B3LYP", 
		 "basiset": "6-31G**", 
		 "properties": { 
			 "R2extent": 1709.5144, 
			 "electric_dipole_moment_norm": 3.70046242651, 
			 "electric_quadrupole_moment_norm": 12.5081839801, 
			 "total_energy": -868.233098626, 
			 "HOMO_LUMO_gap": 0.19158, 
			 "cosmo_polarized_energy": -16.57, 
			 "cosmo_cavitation_energy": 21.35, 
			 "cosmo_dispersion_energy": -16.57, 
			 "cosmo_repulsion_energy": 1.3, 
			 "cosmo_total_nonelectrostatic_energy": 6.08, 
			 "SMD_solvation_energy": 0.8 
		},
		"coords": [
			{
				"x": 0.9617259245,
				"y": 1.6050616963,
				"z": -0.6555911465,
				"element": "N" 
			},
			{
				"x": -0.6363763885,
				"y": 1.3405589425,
				"z": -0.1921668729,
				"element": "S" 
			},
			{
				"x": -1.5401827644,
				"y": 1.9079501803,
				"z": -1.1917394245,
				"element": "O" 
			},
			{
				"x": -0.7247549868,
				"y": 1.6925076313,
				"z": 1.2276899204,
				"element": "O" 
			},
			{
				"x": -0.762859727,
				"y": -0.4626074057,
				"z": -0.2946928131,
				"element": "C" 
			},
			{
				"x": -0.5636186988,
				"y": -1.0000916435,
				"z": -1.4926711907,
				"element": "N" 
			},
			{
				"x": -0.6920590421,
				"y": -2.3272214181,
				"z": -1.5617012788,
				"element": "C" 
			},
			{
				"x": -1.0235433091,
				"y": -3.0889201333,
				"z": -0.4354587282,
				"element": "C" 
			},
			{
				"x": -1.2234007174,
				"y": -2.5370884537,
				"z": 0.7650812472,
				"element": "N" 
			},
			{
				"x": -1.0900525126,
				"y": -1.2066057421,
				"z": 0.8400102884,
				"element": "C" 
			},
			{
				"x": 1.0122837888,
				"y": 1.9457672464,
				"z": -1.6115232851,
				"element": "H" 
			},
			{
				"x": 1.3988999238,
				"y": 2.2399551244,
				"z": 0.0067345921,
				"element": "H" 
			},
			{
				"x": -0.5300349577,
				"y": -2.7930512377,
				"z": -2.5306607793,
				"element": "H" 
			},
			{
				"x": -1.1289940411,
				"y": -4.1690968316,
				"z": -0.5071686761,
				"element": "H" 
			},
			{
				"x": -1.2414324918,
				"y": -0.7257179554,
				"z": 1.8010581472,
				"element": "H" 
			}
		],
		 "valence_orbital": [ 
			{
				"type": "occ",
				"energy": -0.32798,
				"method": "rhf"
			},
			{
				"type": "occ",
				"energy": -0.32078,
				"method": "rhf"
			},
			{
				"type": "occ",
				"energy": -0.30414,
				"method": "rhf"
			},
			{
				"type": "occ",
				"energy": -0.29012,
				"method": "rhf"
			},
			{
				"type": "occ",
				"energy": -0.26938,
				"method": "rhf"
			},
			{
				"type": "unocc",
				"energy": -0.0778,
				"method": "rhf"
			},
			{
				"type": "unocc",
				"energy": -0.05263,
				"method": "rhf"
			},
			{
				"type": "unocc",
				"energy": 0.04759,
				"method": "rhf"
			},
			{
				"type": "unocc",
				"energy": 0.07264,
				"method": "rhf"
			},
			{
				"type": "unocc",
				"energy": 0.07844,
				"method": "rhf"
			}
		],
		"cosmo_sigma_profile": { 
			"-0.025": 0.0,
			"-0.024": 0.0,
			"-0.023": 0.0,
			"-0.022": 0.0,
			"-0.021": 0.0,
			"-0.02": 0.0,
			"-0.019": 0.0,
			"-0.018": 0.0,
			"-0.017": 0.0,
			"-0.016": 0.342154454194,
			"-0.015": 2.5452541213,
			"-0.014": 2.2859523175,
			"-0.013": 2.42898003637,
			"-0.012": 2.64244401562,
			"-0.011": 1.90372072373,
			"-0.01": 1.62340192229,
			"-0.009": 6.61507744912,
			"-0.008": 7.80951264051,
			"-0.007": 6.38936722926,
			"-0.006": 6.33233488567,
			"-0.005": 7.75304394369,
			"-0.004": 9.51844093983,
			"-0.003": 12.9459963648,
			"-0.002": 11.4359623517,
			"-0.001": 7.59288601261,
			"0.0": 6.77604316039,
			"0.001": 6.03090622149,
			"0.002": 4.70491722607,
			"0.003": 5.01817768894,
			"0.004": 4.63754282405,
			"0.005": 5.09095658323,
			"0.006": 5.43734067174,
			"0.007": 5.62686911139,
			"0.008": 5.45472141401,
			"0.009": 7.80884141036,
			"0.01": 13.1055388896,
			"0.011": 9.27232126386,
			"0.012": 1.47201714178,
			"0.013": 0.591527195048,
			"0.014": 0.442311775908,
			"0.015": 0.0,
			"0.016": 0.0,
			"0.017": 0.0,
			"0.018": 0.0,
			"0.019": 0.0,
			"0.02": 0.0,
			"0.021": 0.0,
			"0.022": 0.0,
			"0.023": 0.0,
			"0.024": 0.0,
			"0.025": 0.0
		}
	}
}
