{
	 "smiles": "CCC(=O)C1=CC=C(O)C=C1", 
	 "Tm": 422.65, 
	 "num_atms": 21, 
	 "gaussian": { 
		 "optdone": 1, 
		 "sigma_profile": "yes", 
		 "theory": "DFT", 
		 "functional": "B3LYP", 
		 "basiset": "6-31G**", 
		 "properties": { 
			 "R2extent": 2412.0349, 
			 "electric_dipole_moment_norm": 4.29361857877, 
			 "electric_quadrupole_moment_norm": 6.97417365571, 
			 "total_energy": -499.435568209, 
			 "HOMO_LUMO_gap": 0.18719, 
			 "cosmo_polarized_energy": -12.99, 
			 "cosmo_cavitation_energy": 24.78, 
			 "cosmo_dispersion_energy": -18.09, 
			 "cosmo_repulsion_energy": 1.46, 
			 "cosmo_total_nonelectrostatic_energy": 8.15, 
			 "SMD_solvation_energy": 5.23 
		},
		"coords": [
			{
				"x": 1.0057255052,
				"y": -2.1274082112,
				"z": 0.9995906277,
				"element": "C" 
			},
			{
				"x": 1.881814838,
				"y": -1.2776777418,
				"z": 0.0592595033,
				"element": "C" 
			},
			{
				"x": 1.0396742318,
				"y": -0.5148855157,
				"z": -0.959705014,
				"element": "C" 
			},
			{
				"x": 0.8609109622,
				"y": -0.9894690896,
				"z": -2.0745018472,
				"element": "O" 
			},
			{
				"x": 0.4056444349,
				"y": 0.7825004363,
				"z": -0.5767146118,
				"element": "C" 
			},
			{
				"x": -0.4139694041,
				"y": 1.4252557786,
				"z": -1.5241535208,
				"element": "C" 
			},
			{
				"x": -1.0347510951,
				"y": 2.6306788188,
				"z": -1.2408293721,
				"element": "C" 
			},
			{
				"x": -0.8481309009,
				"y": 3.2276913388,
				"z": 0.015277285,
				"element": "C" 
			},
			{
				"x": -1.4793697376,
				"y": 4.4110247813,
				"z": 0.2443680097,
				"element": "O" 
			},
			{
				"x": -0.0382065569,
				"y": 2.6049570214,
				"z": 0.9726576014,
				"element": "C" 
			},
			{
				"x": 0.5812853099,
				"y": 1.3941184494,
				"z": 0.6737686657,
				"element": "C" 
			},
			{
				"x": 1.6292785668,
				"y": -2.7054125881,
				"z": 1.6884039058,
				"element": "H" 
			},
			{
				"x": 0.3965643841,
				"y": -2.8295592934,
				"z": 0.4226414686,
				"element": "H" 
			},
			{
				"x": 0.329268712,
				"y": -1.5062955684,
				"z": 1.5949437475,
				"element": "H" 
			},
			{
				"x": 2.5435105419,
				"y": -1.9300676603,
				"z": -0.5165843075,
				"element": "H" 
			},
			{
				"x": 2.5100000538,
				"y": -0.5956197682,
				"z": 0.6426161518,
				"element": "H" 
			},
			{
				"x": -0.5445214129,
				"y": 0.9459264315,
				"z": -2.4885638004,
				"element": "H" 
			},
			{
				"x": -1.6663348821,
				"y": 3.1300007425,
				"z": -1.9681253196,
				"element": "H" 
			},
			{
				"x": -1.2734146016,
				"y": 4.7178133838,
				"z": 1.137283459,
				"element": "H" 
			},
			{
				"x": 0.1072971681,
				"y": 3.06804139,
				"z": 1.9463577053,
				"element": "H" 
			},
			{
				"x": 1.2051238823,
				"y": 0.9306868643,
				"z": 1.4308096627,
				"element": "H" 
			}
		],
		 "valence_orbital": [ 
			{
				"type": "occ",
				"energy": -0.34433,
				"method": "rhf"
			},
			{
				"type": "occ",
				"energy": -0.32838,
				"method": "rhf"
			},
			{
				"type": "occ",
				"energy": -0.26286,
				"method": "rhf"
			},
			{
				"type": "occ",
				"energy": -0.23839,
				"method": "rhf"
			},
			{
				"type": "occ",
				"energy": -0.23289,
				"method": "rhf"
			},
			{
				"type": "unocc",
				"energy": -0.0457,
				"method": "rhf"
			},
			{
				"type": "unocc",
				"energy": -0.01174,
				"method": "rhf"
			},
			{
				"type": "unocc",
				"energy": 0.04939,
				"method": "rhf"
			},
			{
				"type": "unocc",
				"energy": 0.05998,
				"method": "rhf"
			},
			{
				"type": "unocc",
				"energy": 0.08548,
				"method": "rhf"
			}
		],
		"cosmo_sigma_profile": { 
			"-0.025": 0.0,
			"-0.024": 0.0,
			"-0.023": 0.0,
			"-0.022": 0.0,
			"-0.021": 0.0,
			"-0.02": 0.0,
			"-0.019": 0.148283763854,
			"-0.018": 1.03031390286,
			"-0.017": 1.23132210644,
			"-0.016": 0.993930059856,
			"-0.015": 1.08707940725,
			"-0.014": 0.88188656609,
			"-0.013": 0.599489098852,
			"-0.012": 0.974045250547,
			"-0.011": 1.30780157807,
			"-0.01": 1.3543376004,
			"-0.009": 0.890410386873,
			"-0.008": 1.12018488768,
			"-0.007": 4.69292440629,
			"-0.006": 6.58416451511,
			"-0.005": 8.85517660314,
			"-0.004": 11.906017308,
			"-0.003": 16.7867111024,
			"-0.002": 16.8750609153,
			"-0.001": 20.7237364797,
			"0.0": 13.8062858369,
			"0.001": 13.1204475333,
			"0.002": 12.377151503,
			"0.003": 14.0621269869,
			"0.004": 14.414283159,
			"0.005": 3.71781179595,
			"0.006": 3.65483128807,
			"0.007": 2.68997665816,
			"0.008": 2.79333743105,
			"0.009": 3.04169575501,
			"0.01": 3.30152628103,
			"0.011": 3.4326084309,
			"0.012": 3.85118713152,
			"0.013": 3.0023730472,
			"0.014": 1.01734143864,
			"0.015": 0.0103271956199,
			"0.016": 0.0,
			"0.017": 0.0,
			"0.018": 0.0,
			"0.019": 0.0,
			"0.02": 0.0,
			"0.021": 0.0,
			"0.022": 0.0,
			"0.023": 0.0,
			"0.024": 0.0,
			"0.025": 0.0
		}
	}
}
