{
	 "smiles": "OC(=O)C1=CNC(Br)=C1", 
	 "Tm": 393.15, 
	 "num_atms": 13, 
	 "gaussian": { 
		 "optdone": 1, 
		 "sigma_profile": "yes", 
		 "theory": "DFT", 
		 "functional": "B3LYP", 
		 "basiset": "6-31G**", 
		 "properties": { 
			 "R2extent": 3729.9505, 
			 "electric_dipole_moment_norm": 6.15991400427, 
			 "electric_quadrupole_moment_norm": 16.5496491924, 
			 "total_energy": -2969.53545781, 
			 "HOMO_LUMO_gap": 0.20838, 
			 "cosmo_polarized_energy": -20.12, 
			 "cosmo_cavitation_energy": 20.5, 
			 "cosmo_dispersion_energy": -15.79, 
			 "cosmo_repulsion_energy": 1.31, 
			 "cosmo_total_nonelectrostatic_energy": 6.02, 
			 "SMD_solvation_energy": 3.81 
		},
		"coords": [
			{
				"x": -2.0372994711,
				"y": -0.0646187535,
				"z": -2.9312677728,
				"element": "O" 
			},
			{
				"x": -1.3006423016,
				"y": 1.0758114534,
				"z": -2.7956231397,
				"element": "C" 
			},
			{
				"x": -1.3837574217,
				"y": 1.9431922884,
				"z": -3.6337758196,
				"element": "O" 
			},
			{
				"x": -0.4284484841,
				"y": 1.181492973,
				"z": -1.6068423003,
				"element": "C" 
			},
			{
				"x": -0.2291385904,
				"y": 0.2805950506,
				"z": -0.5703538687,
				"element": "C" 
			},
			{
				"x": 0.6745092362,
				"y": 0.8338107424,
				"z": 0.2944974398,
				"element": "N" 
			},
			{
				"x": 1.0533437031,
				"y": 2.0724756282,
				"z": -0.1751004584,
				"element": "C" 
			},
			{
				"x": 2.2926565832,
				"y": 3.1070565469,
				"z": 0.7838586485,
				"element": "Br" 
			},
			{
				"x": 0.393092119,
				"y": 2.3230949277,
				"z": -1.3481520338,
				"element": "C" 
			},
			{
				"x": -1.8757758698,
				"y": -0.6696675797,
				"z": -2.1954858048,
				"element": "H" 
			},
			{
				"x": -0.644137406,
				"y": -0.6970814939,
				"z": -0.3692963456,
				"element": "H" 
			},
			{
				"x": 1.0185291068,
				"y": 0.4145011406,
				"z": 1.1445392362,
				"element": "H" 
			},
			{
				"x": 0.4647687964,
				"y": 3.201637076,
				"z": -1.9692977809,
				"element": "H" 
			}
		],
		 "valence_orbital": [ 
			{
				"type": "occ",
				"energy": -0.31237,
				"method": "rhf"
			},
			{
				"type": "occ",
				"energy": -0.31194,
				"method": "rhf"
			},
			{
				"type": "occ",
				"energy": -0.27295,
				"method": "rhf"
			},
			{
				"type": "occ",
				"energy": -0.26927,
				"method": "rhf"
			},
			{
				"type": "occ",
				"energy": -0.23557,
				"method": "rhf"
			},
			{
				"type": "unocc",
				"energy": -0.02719,
				"method": "rhf"
			},
			{
				"type": "unocc",
				"energy": -0.00521,
				"method": "rhf"
			},
			{
				"type": "unocc",
				"energy": 0.0178,
				"method": "rhf"
			},
			{
				"type": "unocc",
				"energy": 0.05159,
				"method": "rhf"
			},
			{
				"type": "unocc",
				"energy": 0.06203,
				"method": "rhf"
			}
		],
		"cosmo_sigma_profile": { 
			"-0.025": 0.0,
			"-0.024": 0.0,
			"-0.023": 0.0,
			"-0.022": 0.0,
			"-0.021": 0.0,
			"-0.02": 0.0,
			"-0.019": 0.757387696398,
			"-0.018": 1.04699098669,
			"-0.017": 2.77538327599,
			"-0.016": 2.55370044593,
			"-0.015": 2.27410682959,
			"-0.014": 1.57098591204,
			"-0.013": 2.38664829628,
			"-0.012": 2.38820440943,
			"-0.011": 3.10858663377,
			"-0.01": 3.38590200273,
			"-0.009": 2.52996311474,
			"-0.008": 2.91592418243,
			"-0.007": 3.25403274751,
			"-0.006": 4.32480618525,
			"-0.005": 4.42385689984,
			"-0.004": 4.37598685949,
			"-0.003": 5.99983908764,
			"-0.002": 7.12971372222,
			"-0.001": 8.66218038041,
			"0.0": 7.65882073798,
			"0.001": 11.6348915792,
			"0.002": 16.4814992296,
			"0.003": 19.8314715515,
			"0.004": 13.9594772616,
			"0.005": 2.58247008342,
			"0.006": 2.80969759942,
			"0.007": 2.24533343438,
			"0.008": 2.93466213762,
			"0.009": 2.68837369951,
			"0.01": 3.65475181338,
			"0.011": 5.25215529807,
			"0.012": 6.10593292079,
			"0.013": 3.41158646326,
			"0.014": 0.788547418931,
			"0.015": 0.0,
			"0.016": 0.0,
			"0.017": 0.0,
			"0.018": 0.0,
			"0.019": 0.0,
			"0.02": 0.0,
			"0.021": 0.0,
			"0.022": 0.0,
			"0.023": 0.0,
			"0.024": 0.0,
			"0.025": 0.0
		}
	}
}
