{
	 "smiles": "CC(C)C(C(O)=O)C1=CC=CC=C1", 
	 "Tm": 333.15, 
	 "num_atms": 27, 
	 "gaussian": { 
		 "optdone": 1, 
		 "sigma_profile": "yes", 
		 "theory": "DFT", 
		 "functional": "B3LYP", 
		 "basiset": "6-31G**", 
		 "properties": { 
			 "R2extent": 2647.7276, 
			 "electric_dipole_moment_norm": 4.48710122016, 
			 "electric_quadrupole_moment_norm": 12.7018408709, 
			 "total_energy": -578.077258416, 
			 "HOMO_LUMO_gap": 0.23215, 
			 "cosmo_polarized_energy": -11.78, 
			 "cosmo_cavitation_energy": 28.89, 
			 "cosmo_dispersion_energy": -20.28, 
			 "cosmo_repulsion_energy": 1.61, 
			 "cosmo_total_nonelectrostatic_energy": 10.22, 
			 "SMD_solvation_energy": 5.94 
		},
		"coords": [
			{
				"x": 0.697833484,
				"y": -1.2171010361,
				"z": 1.7223520107,
				"element": "C" 
			},
			{
				"x": 0.7718444114,
				"y": 0.2568752876,
				"z": 1.302434921,
				"element": "C" 
			},
			{
				"x": -0.0804433441,
				"y": 1.1388351509,
				"z": 2.2247089502,
				"element": "C" 
			},
			{
				"x": 0.4434258725,
				"y": 0.4310718606,
				"z": -0.2115709638,
				"element": "C" 
			},
			{
				"x": 0.8905865307,
				"y": 1.8202871406,
				"z": -0.7111699631,
				"element": "C" 
			},
			{
				"x": 0.3682689437,
				"y": 2.2247513309,
				"z": -1.8950371029,
				"element": "O" 
			},
			{
				"x": 1.7067916291,
				"y": 2.5069585588,
				"z": -0.1458651017,
				"element": "O" 
			},
			{
				"x": -0.9782312996,
				"y": 0.0628215646,
				"z": -0.6167564767,
				"element": "C" 
			},
			{
				"x": -1.2453194661,
				"y": -1.1925658703,
				"z": -1.1856036112,
				"element": "C" 
			},
			{
				"x": -2.5434941229,
				"y": -1.5648343616,
				"z": -1.537164527,
				"element": "C" 
			},
			{
				"x": -3.6043703847,
				"y": -0.6815325032,
				"z": -1.3322401822,
				"element": "C" 
			},
			{
				"x": -3.3563933414,
				"y": 0.5750444309,
				"z": -0.7771352642,
				"element": "C" 
			},
			{
				"x": -2.0577659446,
				"y": 0.9437871819,
				"z": -0.422774454,
				"element": "C" 
			},
			{
				"x": -0.3215588749,
				"y": -1.6098294065,
				"z": 1.6404280387,
				"element": "H" 
			},
			{
				"x": 1.3507232183,
				"y": -1.8470002754,
				"z": 1.1069799813,
				"element": "H" 
			},
			{
				"x": 1.0139437215,
				"y": -1.3317967972,
				"z": 2.7643073999,
				"element": "H" 
			},
			{
				"x": 1.8099952391,
				"y": 0.5932958695,
				"z": 1.3983955626,
				"element": "H" 
			},
			{
				"x": -1.1354044746,
				"y": 0.8454977537,
				"z": 2.2065297153,
				"element": "H" 
			},
			{
				"x": 0.269081533,
				"y": 1.042687552,
				"z": 3.2579654688,
				"element": "H" 
			},
			{
				"x": -0.0036076662,
				"y": 2.1943627094,
				"z": 1.9487651354,
				"element": "H" 
			},
			{
				"x": 1.1126363776,
				"y": -0.2595838196,
				"z": -0.7472946258,
				"element": "H" 
			},
			{
				"x": -0.3095703226,
				"y": 1.5922760706,
				"z": -2.1816220494,
				"element": "H" 
			},
			{
				"x": -0.4247338108,
				"y": -1.8857039899,
				"z": -1.3524800862,
				"element": "H" 
			},
			{
				"x": -2.7237642462,
				"y": -2.5423676422,
				"z": -1.9750330664,
				"element": "H" 
			},
			{
				"x": -4.6150758059,
				"y": -0.9669402588,
				"z": -1.6086150331,
				"element": "H" 
			},
			{
				"x": -4.1738937427,
				"y": 1.272609813,
				"z": -0.6196822736,
				"element": "H" 
			},
			{
				"x": -1.8807041136,
				"y": 1.9279936859,
				"z": 0.0008775972,
				"element": "H" 
			}
		],
		 "valence_orbital": [ 
			{
				"type": "occ",
				"energy": -0.32194,
				"method": "rhf"
			},
			{
				"type": "occ",
				"energy": -0.3097,
				"method": "rhf"
			},
			{
				"type": "occ",
				"energy": -0.27387,
				"method": "rhf"
			},
			{
				"type": "occ",
				"energy": -0.26613,
				"method": "rhf"
			},
			{
				"type": "occ",
				"energy": -0.25438,
				"method": "rhf"
			},
			{
				"type": "unocc",
				"energy": -0.02223,
				"method": "rhf"
			},
			{
				"type": "unocc",
				"energy": -0.01855,
				"method": "rhf"
			},
			{
				"type": "unocc",
				"energy": 0.00967,
				"method": "rhf"
			},
			{
				"type": "unocc",
				"energy": 0.07546,
				"method": "rhf"
			},
			{
				"type": "unocc",
				"energy": 0.08934,
				"method": "rhf"
			}
		],
		"cosmo_sigma_profile": { 
			"-0.025": 0.0,
			"-0.024": 0.0,
			"-0.023": 0.0,
			"-0.022": 0.0,
			"-0.021": 0.0,
			"-0.02": 0.0,
			"-0.019": 0.0,
			"-0.018": 0.0,
			"-0.017": 0.0,
			"-0.016": 0.0515641649991,
			"-0.015": 0.34848709837,
			"-0.014": 0.632079924942,
			"-0.013": 0.828209850642,
			"-0.012": 0.461301984776,
			"-0.011": 1.28794284714,
			"-0.01": 0.767543835279,
			"-0.009": 1.10698352928,
			"-0.008": 1.43772320243,
			"-0.007": 4.46242002117,
			"-0.006": 12.5903663503,
			"-0.005": 14.2545039441,
			"-0.004": 14.8740747889,
			"-0.003": 17.8343950879,
			"-0.002": 21.020414086,
			"-0.001": 22.9366685687,
			"0.0": 20.5891746545,
			"0.001": 24.0956963492,
			"0.002": 12.7880372464,
			"0.003": 8.91462633923,
			"0.004": 9.04552936284,
			"0.005": 8.57640818992,
			"0.006": 2.96940769909,
			"0.007": 2.11259681319,
			"0.008": 3.19467070899,
			"0.009": 3.0350471214,
			"0.01": 4.79512786085,
			"0.011": 4.77876509307,
			"0.012": 5.26445675414,
			"0.013": 1.81161508139,
			"0.014": 0.107414782771,
			"0.015": 0.0,
			"0.016": 0.0,
			"0.017": 0.0,
			"0.018": 0.0,
			"0.019": 0.0,
			"0.02": 0.0,
			"0.021": 0.0,
			"0.022": 0.0,
			"0.023": 0.0,
			"0.024": 0.0,
			"0.025": 0.0
		}
	}
}
