{
	 "smiles": "CC(=O)NC1=CC=C(CC(O)=O)C=C1", 
	 "Tm": 446.15, 
	 "num_atms": 25, 
	 "gaussian": { 
		 "optdone": 1, 
		 "sigma_profile": "yes", 
		 "theory": "DFT", 
		 "functional": "B3LYP", 
		 "basiset": "6-31G**", 
		 "properties": { 
			 "R2extent": 4305.1339, 
			 "electric_dipole_moment_norm": 4.23114813496, 
			 "electric_quadrupole_moment_norm": 13.7462206188, 
			 "total_energy": -668.150898946, 
			 "HOMO_LUMO_gap": 0.20523, 
			 "cosmo_polarized_energy": -17.62, 
			 "cosmo_cavitation_energy": 29.81, 
			 "cosmo_dispersion_energy": -21.39, 
			 "cosmo_repulsion_energy": 1.71, 
			 "cosmo_total_nonelectrostatic_energy": 10.13, 
			 "SMD_solvation_energy": 7.07 
		},
		"coords": [
			{
				"x": -0.5935731644,
				"y": 0.2963116568,
				"z": 3.8802308162,
				"element": "C" 
			},
			{
				"x": -0.6453637941,
				"y": -1.2133447764,
				"z": 3.7441111666,
				"element": "C" 
			},
			{
				"x": -0.6883497621,
				"y": -1.9501387107,
				"z": 4.7189091859,
				"element": "O" 
			},
			{
				"x": -0.6607288013,
				"y": -1.770149457,
				"z": 2.4742341814,
				"element": "N" 
			},
			{
				"x": -0.6561308836,
				"y": -1.1877919365,
				"z": 1.187592192,
				"element": "C" 
			},
			{
				"x": -1.4622582072,
				"y": -1.7563289161,
				"z": 0.1911252705,
				"element": "C" 
			},
			{
				"x": -1.4579720736,
				"y": -1.2387639481,
				"z": -1.1017010208,
				"element": "C" 
			},
			{
				"x": -0.6647502641,
				"y": -0.1361341594,
				"z": -1.4378423539,
				"element": "C" 
			},
			{
				"x": -0.6695219687,
				"y": 0.4078839494,
				"z": -2.8486316452,
				"element": "C" 
			},
			{
				"x": -1.1048304199,
				"y": 1.8616368104,
				"z": -2.9618727615,
				"element": "C" 
			},
			{
				"x": -1.6972525703,
				"y": 2.0999236577,
				"z": -4.1566267011,
				"element": "O" 
			},
			{
				"x": -0.9269669451,
				"y": 2.7296289832,
				"z": -2.1376088478,
				"element": "O" 
			},
			{
				"x": 0.1444599058,
				"y": 0.4227057195,
				"z": -0.4405334182,
				"element": "C" 
			},
			{
				"x": 0.1640730649,
				"y": -0.100758976,
				"z": 0.8497951417,
				"element": "C" 
			},
			{
				"x": 0.4461191895,
				"y": 0.6405828513,
				"z": 3.8865786879,
				"element": "H" 
			},
			{
				"x": -1.0337784593,
				"y": 0.5479449521,
				"z": 4.8457402065,
				"element": "H" 
			},
			{
				"x": -1.1194555871,
				"y": 0.8180989385,
				"z": 3.0778696884,
				"element": "H" 
			},
			{
				"x": -0.8203066707,
				"y": -2.7695432137,
				"z": 2.5174155305,
				"element": "H" 
			},
			{
				"x": -2.1017180815,
				"y": -2.5996621855,
				"z": 0.4375009734,
				"element": "H" 
			},
			{
				"x": -2.0919095525,
				"y": -1.6960810995,
				"z": -1.8571928564,
				"element": "H" 
			},
			{
				"x": -1.3014188874,
				"y": -0.197806587,
				"z": -3.5026845778,
				"element": "H" 
			},
			{
				"x": 0.34119581,
				"y": 0.3689484021,
				"z": -3.2804093521,
				"element": "H" 
			},
			{
				"x": -1.9027796774,
				"y": 3.0503325724,
				"z": -4.1718172557,
				"element": "H" 
			},
			{
				"x": 0.7719511645,
				"y": 1.275564141,
				"z": -0.675882402,
				"element": "H" 
			},
			{
				"x": 0.8361666355,
				"y": 0.3221413315,
				"z": 1.5869001515,
				"element": "H" 
			}
		],
		 "valence_orbital": [ 
			{
				"type": "occ",
				"energy": -0.29543,
				"method": "rhf"
			},
			{
				"type": "occ",
				"energy": -0.28363,
				"method": "rhf"
			},
			{
				"type": "occ",
				"energy": -0.25978,
				"method": "rhf"
			},
			{
				"type": "occ",
				"energy": -0.25056,
				"method": "rhf"
			},
			{
				"type": "occ",
				"energy": -0.22411,
				"method": "rhf"
			},
			{
				"type": "unocc",
				"energy": -0.01888,
				"method": "rhf"
			},
			{
				"type": "unocc",
				"energy": -0.01136,
				"method": "rhf"
			},
			{
				"type": "unocc",
				"energy": 0.00394,
				"method": "rhf"
			},
			{
				"type": "unocc",
				"energy": 0.03442,
				"method": "rhf"
			},
			{
				"type": "unocc",
				"energy": 0.07306,
				"method": "rhf"
			}
		],
		"cosmo_sigma_profile": { 
			"-0.025": 0.0,
			"-0.024": 0.0,
			"-0.023": 0.0,
			"-0.022": 0.0,
			"-0.021": 0.0,
			"-0.02": 0.0,
			"-0.019": 0.0485842930383,
			"-0.018": 0.774181954959,
			"-0.017": 0.781794132565,
			"-0.016": 0.934198464944,
			"-0.015": 0.642549754381,
			"-0.014": 1.51944945617,
			"-0.013": 1.23835368913,
			"-0.012": 1.66177622006,
			"-0.011": 2.07115073912,
			"-0.01": 1.97886983223,
			"-0.009": 1.92995994929,
			"-0.008": 3.14179833503,
			"-0.007": 9.66458090334,
			"-0.006": 13.9462971928,
			"-0.005": 16.9592602559,
			"-0.004": 17.3672803904,
			"-0.003": 17.9089852404,
			"-0.002": 18.7639657477,
			"-0.001": 15.1885555197,
			"0.0": 11.6299779778,
			"0.001": 9.98349237284,
			"0.002": 11.4267165472,
			"0.003": 11.5141811114,
			"0.004": 10.1888976842,
			"0.005": 11.5891476439,
			"0.006": 4.65913101695,
			"0.007": 4.33906655379,
			"0.008": 4.87494443921,
			"0.009": 5.26121077303,
			"0.01": 3.49655827436,
			"0.011": 5.28558270345,
			"0.012": 5.61744754258,
			"0.013": 4.90122835205,
			"0.014": 4.34767593275,
			"0.015": 0.562846584563,
			"0.016": 0.0,
			"0.017": 0.0,
			"0.018": 0.0,
			"0.019": 0.0,
			"0.02": 0.0,
			"0.021": 0.0,
			"0.022": 0.0,
			"0.023": 0.0,
			"0.024": 0.0,
			"0.025": 0.0
		}
	}
}
