{
	 "smiles": "NS(=O)(=O)C1=CC(C(O)=O)=C(Cl)C=C1Cl", 
	 "Tm": 505.15, 
	 "num_atms": 20, 
	 "gaussian": { 
		 "optdone": 1, 
		 "sigma_profile": "yes", 
		 "theory": "DFT", 
		 "functional": "B3LYP", 
		 "basiset": "6-31G**", 
		 "properties": { 
			 "R2extent": 6256.1632, 
			 "electric_dipole_moment_norm": 5.50678740919, 
			 "electric_quadrupole_moment_norm": 27.8352324366, 
			 "total_energy": -1943.90139129, 
			 "HOMO_LUMO_gap": 0.19906, 
			 "cosmo_polarized_energy": -21.16, 
			 "cosmo_cavitation_energy": 29.8, 
			 "cosmo_dispersion_energy": -22.74, 
			 "cosmo_repulsion_energy": 1.72, 
			 "cosmo_total_nonelectrostatic_energy": 8.77, 
			 "SMD_solvation_energy": 5.43 
		},
		"coords": [
			{
				"x": 0.7087108728,
				"y": 0.242120818,
				"z": 3.7354296582,
				"element": "N" 
			},
			{
				"x": -0.5750818906,
				"y": -0.8384925619,
				"z": 3.6058700717,
				"element": "S" 
			},
			{
				"x": -1.7739131094,
				"y": -0.217003056,
				"z": 4.1643682916,
				"element": "O" 
			},
			{
				"x": -0.0889081047,
				"y": -2.1409984762,
				"z": 4.0604680191,
				"element": "O" 
			},
			{
				"x": -0.8014170308,
				"y": -0.9754929615,
				"z": 1.8173254783,
				"element": "C" 
			},
			{
				"x": -0.6552668672,
				"y": -2.2398787601,
				"z": 1.2614967627,
				"element": "C" 
			},
			{
				"x": -0.8571211099,
				"y": -2.4964245007,
				"z": -0.1043808149,
				"element": "C" 
			},
			{
				"x": -0.6371839048,
				"y": -3.9467885613,
				"z": -0.5023441458,
				"element": "C" 
			},
			{
				"x": -1.0148320326,
				"y": -4.3625689113,
				"z": -1.7221496284,
				"element": "O" 
			},
			{
				"x": -0.1437584129,
				"y": -4.7256780714,
				"z": 0.2793026504,
				"element": "O" 
			},
			{
				"x": -1.2102276409,
				"y": -1.3970318434,
				"z": -0.9031344118,
				"element": "C" 
			},
			{
				"x": -1.4827376017,
				"y": -1.5206547972,
				"z": -2.6435606679,
				"element": "Cl" 
			},
			{
				"x": -1.3543086201,
				"y": -0.1158417458,
				"z": -0.3716312957,
				"element": "C" 
			},
			{
				"x": -1.1573332083,
				"y": 0.0992209614,
				"z": 0.9894786478,
				"element": "C" 
			},
			{
				"x": -1.350068687,
				"y": 1.7237218173,
				"z": 1.5865243585,
				"element": "Cl" 
			},
			{
				"x": 0.4072806091,
				"y": 1.107067699,
				"z": 4.1744689003,
				"element": "H" 
			},
			{
				"x": 1.4773058716,
				"y": -0.2007682917,
				"z": 4.2314342468,
				"element": "H" 
			},
			{
				"x": -0.3688728022,
				"y": -3.072697008,
				"z": 1.8938028171,
				"element": "H" 
			},
			{
				"x": -1.3914086727,
				"y": -3.6430743806,
				"z": -2.2535249142,
				"element": "H" 
			},
			{
				"x": -1.6191576577,
				"y": 0.7131626315,
				"z": -1.0160440237,
				"element": "H" 
			}
		],
		 "valence_orbital": [ 
			{
				"type": "occ",
				"energy": -0.3231,
				"method": "rhf"
			},
			{
				"type": "occ",
				"energy": -0.31371,
				"method": "rhf"
			},
			{
				"type": "occ",
				"energy": -0.29504,
				"method": "rhf"
			},
			{
				"type": "occ",
				"energy": -0.29025,
				"method": "rhf"
			},
			{
				"type": "occ",
				"energy": -0.28573,
				"method": "rhf"
			},
			{
				"type": "unocc",
				"energy": -0.08667,
				"method": "rhf"
			},
			{
				"type": "unocc",
				"energy": -0.06267,
				"method": "rhf"
			},
			{
				"type": "unocc",
				"energy": -0.0294,
				"method": "rhf"
			},
			{
				"type": "unocc",
				"energy": 0.00718,
				"method": "rhf"
			},
			{
				"type": "unocc",
				"energy": 0.01239,
				"method": "rhf"
			}
		],
		"cosmo_sigma_profile": { 
			"-0.025": 0.0,
			"-0.024": 0.0,
			"-0.023": 0.0,
			"-0.022": 0.0,
			"-0.021": 0.0,
			"-0.02": 0.0,
			"-0.019": 0.0,
			"-0.018": 0.0,
			"-0.017": 0.0,
			"-0.016": 0.466831030148,
			"-0.015": 2.14208996804,
			"-0.014": 2.19124405294,
			"-0.013": 3.13004264626,
			"-0.012": 4.11870560474,
			"-0.011": 3.00933204838,
			"-0.01": 3.87440575194,
			"-0.009": 4.69523611891,
			"-0.008": 5.45241240176,
			"-0.007": 5.56705634981,
			"-0.006": 6.98837812294,
			"-0.005": 9.14164847408,
			"-0.004": 13.3367828426,
			"-0.003": 21.5969297485,
			"-0.002": 25.3083125033,
			"-0.001": 16.6341182432,
			"0.0": 11.2616338741,
			"0.001": 15.8733225904,
			"0.002": 13.5544948429,
			"0.003": 7.70897956146,
			"0.004": 5.46099013547,
			"0.005": 5.72911103473,
			"0.006": 6.24220338708,
			"0.007": 6.60205847409,
			"0.008": 7.64179728048,
			"0.009": 10.130489658,
			"0.01": 15.2492847515,
			"0.011": 8.69197174614,
			"0.012": 1.93353822919,
			"0.013": 0.220125940091,
			"0.014": 0.0,
			"0.015": 0.0,
			"0.016": 0.0,
			"0.017": 0.0,
			"0.018": 0.0,
			"0.019": 0.0,
			"0.02": 0.0,
			"0.021": 0.0,
			"0.022": 0.0,
			"0.023": 0.0,
			"0.024": 0.0,
			"0.025": 0.0
		}
	}
}
