{
	 "smiles": "COC(=O)C1(CC1)S(=O)(=O)C1=CC=CC=C1", 
	 "Tm": 347.65, 
	 "num_atms": 28, 
	 "gaussian": { 
		 "optdone": 1, 
		 "sigma_profile": "yes", 
		 "theory": "DFT", 
		 "functional": "B3LYP", 
		 "basiset": "6-31G**", 
		 "properties": { 
			 "R2extent": 3890.1941, 
			 "electric_dipole_moment_norm": 4.74124412048, 
			 "electric_quadrupole_moment_norm": 21.2538734324, 
			 "total_energy": -1125.39360276, 
			 "HOMO_LUMO_gap": 0.22915, 
			 "cosmo_polarized_energy": -15.58, 
			 "cosmo_cavitation_energy": 32.96, 
			 "cosmo_dispersion_energy": -22.98, 
			 "cosmo_repulsion_energy": 1.73, 
			 "cosmo_total_nonelectrostatic_energy": 11.71, 
			 "SMD_solvation_energy": 6.38 
		},
		"coords": [
			{
				"x": -1.8697573645,
				"y": 1.658053001,
				"z": -1.0656577402,
				"element": "C" 
			},
			{
				"x": -0.8386116738,
				"y": 0.8523362738,
				"z": -0.46550614,
				"element": "O" 
			},
			{
				"x": -1.1028381464,
				"y": 0.4063893211,
				"z": 0.7713536944,
				"element": "C" 
			},
			{
				"x": -2.138582268,
				"y": 0.6281154808,
				"z": 1.3651487956,
				"element": "O" 
			},
			{
				"x": 0.002896692,
				"y": -0.423781255,
				"z": 1.3532338315,
				"element": "C" 
			},
			{
				"x": 0.1124656963,
				"y": -0.3916401249,
				"z": 2.8764711176,
				"element": "C" 
			},
			{
				"x": -0.4408413633,
				"y": -1.602826199,
				"z": 2.2155286552,
				"element": "C" 
			},
			{
				"x": 1.6038265536,
				"y": -0.5738544039,
				"z": 0.4988278375,
				"element": "S" 
			},
			{
				"x": 2.0926221592,
				"y": 0.7726751517,
				"z": 0.174616044,
				"element": "O" 
			},
			{
				"x": 2.4012104095,
				"y": -1.478739151,
				"z": 1.3484702543,
				"element": "O" 
			},
			{
				"x": 1.2799731836,
				"y": -1.4475825989,
				"z": -1.0417524784,
				"element": "C" 
			},
			{
				"x": 1.1766948524,
				"y": -0.7215608427,
				"z": -2.2292674243,
				"element": "C" 
			},
			{
				"x": 0.9666093587,
				"y": -1.4096292501,
				"z": -3.4243329547,
				"element": "C" 
			},
			{
				"x": 0.8614140826,
				"y": -2.8027463049,
				"z": -3.4229389307,
				"element": "C" 
			},
			{
				"x": 0.9799423499,
				"y": -3.5179383686,
				"z": -2.2287719998,
				"element": "C" 
			},
			{
				"x": 1.1983998304,
				"y": -2.842148449,
				"z": -1.0281286967,
				"element": "C" 
			},
			{
				"x": -2.800394059,
				"y": 1.0915407828,
				"z": -1.1437973643,
				"element": "H" 
			},
			{
				"x": -2.0462098853,
				"y": 2.5550382784,
				"z": -0.4681785867,
				"element": "H" 
			},
			{
				"x": -1.4940615082,
				"y": 1.9223461261,
				"z": -2.0533597144,
				"element": "H" 
			},
			{
				"x": 1.114911866,
				"y": -0.4562571522,
				"z": 3.2841785783,
				"element": "H" 
			},
			{
				"x": -0.5718566009,
				"y": 0.2947407285,
				"z": 3.3621299575,
				"element": "H" 
			},
			{
				"x": 0.1891105692,
				"y": -2.4845868805,
				"z": 2.1858238273,
				"element": "H" 
			},
			{
				"x": -1.5121407965,
				"y": -1.7693241063,
				"z": 2.24641965,
				"element": "H" 
			},
			{
				"x": 1.2733475703,
				"y": 0.3573020821,
				"z": -2.2036853808,
				"element": "H" 
			},
			{
				"x": 0.8909273338,
				"y": -0.8587699693,
				"z": -4.357066546,
				"element": "H" 
			},
			{
				"x": 0.697526045,
				"y": -3.3334798984,
				"z": -4.3562986733,
				"element": "H" 
			},
			{
				"x": 0.9151553435,
				"y": -4.601775665,
				"z": -2.2329907076,
				"element": "H" 
			},
			{
				"x": 1.3310597699,
				"y": -3.3844966065,
				"z": -0.0987689052,
				"element": "H" 
			}
		],
		 "valence_orbital": [ 
			{
				"type": "occ",
				"energy": -0.30268,
				"method": "rhf"
			},
			{
				"type": "occ",
				"energy": -0.29037,
				"method": "rhf"
			},
			{
				"type": "occ",
				"energy": -0.27962,
				"method": "rhf"
			},
			{
				"type": "occ",
				"energy": -0.27175,
				"method": "rhf"
			},
			{
				"type": "occ",
				"energy": -0.27018,
				"method": "rhf"
			},
			{
				"type": "unocc",
				"energy": -0.04103,
				"method": "rhf"
			},
			{
				"type": "unocc",
				"energy": -0.02091,
				"method": "rhf"
			},
			{
				"type": "unocc",
				"energy": -0.00506,
				"method": "rhf"
			},
			{
				"type": "unocc",
				"energy": 0.04792,
				"method": "rhf"
			},
			{
				"type": "unocc",
				"energy": 0.07796,
				"method": "rhf"
			}
		],
		"cosmo_sigma_profile": { 
			"-0.025": 0.0,
			"-0.024": 0.0,
			"-0.023": 0.0,
			"-0.022": 0.0,
			"-0.021": 0.0,
			"-0.02": 0.0,
			"-0.019": 0.0,
			"-0.018": 0.0,
			"-0.017": 0.0,
			"-0.016": 0.0,
			"-0.015": 0.0,
			"-0.014": 0.0,
			"-0.013": 0.0,
			"-0.012": 0.0,
			"-0.011": 0.0,
			"-0.01": 0.0,
			"-0.009": 0.0,
			"-0.008": 0.272721614865,
			"-0.007": 10.8599132693,
			"-0.006": 23.7289077296,
			"-0.005": 23.8432114073,
			"-0.004": 26.0391888896,
			"-0.003": 23.1592784658,
			"-0.002": 19.4873627726,
			"-0.001": 15.9047929033,
			"0.0": 15.3318019338,
			"0.001": 15.3139919763,
			"0.002": 14.8828460984,
			"0.003": 17.8252466717,
			"0.004": 7.98792676012,
			"0.005": 4.23336701054,
			"0.006": 3.7753075477,
			"0.007": 3.81286159388,
			"0.008": 4.62279601754,
			"0.009": 5.85104364384,
			"0.01": 8.55858067093,
			"0.011": 12.1424217183,
			"0.012": 5.10413720403,
			"0.013": 0.00136653962041,
			"0.014": 0.0,
			"0.015": 0.0,
			"0.016": 0.0,
			"0.017": 0.0,
			"0.018": 0.0,
			"0.019": 0.0,
			"0.02": 0.0,
			"0.021": 0.0,
			"0.022": 0.0,
			"0.023": 0.0,
			"0.024": 0.0,
			"0.025": 0.0
		}
	}
}
