{
	 "smiles": "NC(=O)C1=NC=CC(OC2=CC(O)=CC=C2)=C1", 
	 "Tm": 398.15, 
	 "num_atms": 27, 
	 "gaussian": { 
		 "optdone": 1, 
		 "sigma_profile": "yes", 
		 "theory": "DFT", 
		 "functional": "B3LYP", 
		 "basiset": "6-31G**", 
		 "properties": { 
			 "R2extent": 4739.6819, 
			 "electric_dipole_moment_norm": 2.4635693333, 
			 "electric_quadrupole_moment_norm": 8.09279189711, 
			 "total_energy": -798.486310351, 
			 "HOMO_LUMO_gap": 0.18793, 
			 "cosmo_polarized_energy": -17.72, 
			 "cosmo_cavitation_energy": 32.73, 
			 "cosmo_dispersion_energy": -23.49, 
			 "cosmo_repulsion_energy": 1.85, 
			 "cosmo_total_nonelectrostatic_energy": 11.09, 
			 "SMD_solvation_energy": 6.12 
		},
		"coords": [
			{
				"x": -2.2305535974,
				"y": -1.9570726212,
				"z": -3.6394397263,
				"element": "N" 
			},
			{
				"x": -1.7102479169,
				"y": -1.0416820932,
				"z": -2.7849701498,
				"element": "C" 
			},
			{
				"x": -1.9289663442,
				"y": 0.1641809426,
				"z": -2.8388497608,
				"element": "O" 
			},
			{
				"x": -0.8107154428,
				"y": -1.6406616825,
				"z": -1.7239378322,
				"element": "C" 
			},
			{
				"x": -0.6386429755,
				"y": -2.9713169755,
				"z": -1.7342427989,
				"element": "N" 
			},
			{
				"x": 0.1588633233,
				"y": -3.4858332341,
				"z": -0.7888575621,
				"element": "C" 
			},
			{
				"x": 0.7999961582,
				"y": -2.7241590643,
				"z": 0.1819663946,
				"element": "C" 
			},
			{
				"x": 0.6057538585,
				"y": -1.3371664002,
				"z": 0.1742314034,
				"element": "C" 
			},
			{
				"x": 1.2592410767,
				"y": -0.6281271404,
				"z": 1.1394308347,
				"element": "O" 
			},
			{
				"x": 1.07199836,
				"y": 0.7505631483,
				"z": 1.2349231036,
				"element": "C" 
			},
			{
				"x": -0.0404950474,
				"y": 1.2362243254,
				"z": 1.9215770255,
				"element": "C" 
			},
			{
				"x": -0.1859888524,
				"y": 2.6180279757,
				"z": 2.082391029,
				"element": "C" 
			},
			{
				"x": -1.2433979545,
				"y": 3.1709157141,
				"z": 2.7416239942,
				"element": "O" 
			},
			{
				"x": 0.7781633937,
				"y": 3.492561301,
				"z": 1.5641445944,
				"element": "C" 
			},
			{
				"x": 1.8796798144,
				"y": 2.9778359456,
				"z": 0.8872890524,
				"element": "C" 
			},
			{
				"x": 2.0410683868,
				"y": 1.6000882943,
				"z": 0.7116040803,
				"element": "C" 
			},
			{
				"x": -0.2185240686,
				"y": -0.7766056402,
				"z": -0.8030115717,
				"element": "C" 
			},
			{
				"x": -2.8402028963,
				"y": -1.6461736136,
				"z": -4.3780042752,
				"element": "H" 
			},
			{
				"x": -1.9943563967,
				"y": -2.9308371731,
				"z": -3.5164599543,
				"element": "H" 
			},
			{
				"x": 0.293019164,
				"y": -4.5655019699,
				"z": -0.8060180341,
				"element": "H" 
			},
			{
				"x": 1.438140367,
				"y": -3.178014819,
				"z": 0.931794133,
				"element": "H" 
			},
			{
				"x": -0.769979275,
				"y": 0.5399560821,
				"z": 2.3259271414,
				"element": "H" 
			},
			{
				"x": -1.8475910167,
				"y": 2.4726844849,
				"z": 3.025362251,
				"element": "H" 
			},
			{
				"x": 0.6445782245,
				"y": 4.5597482,
				"z": 1.7026650126,
				"element": "H" 
			},
			{
				"x": 2.6252196166,
				"y": 3.6584142756,
				"z": 0.4875010662,
				"element": "H" 
			},
			{
				"x": 2.8963638829,
				"y": 1.1856369234,
				"z": 0.1903327567,
				"element": "H" 
			},
			{
				"x": -0.4146238423,
				"y": 0.2852148141,
				"z": -0.8764722075,
				"element": "H" 
			}
		],
		 "valence_orbital": [ 
			{
				"type": "occ",
				"energy": -0.26384,
				"method": "rhf"
			},
			{
				"type": "occ",
				"energy": -0.25912,
				"method": "rhf"
			},
			{
				"type": "occ",
				"energy": -0.25143,
				"method": "rhf"
			},
			{
				"type": "occ",
				"energy": -0.24334,
				"method": "rhf"
			},
			{
				"type": "occ",
				"energy": -0.23171,
				"method": "rhf"
			},
			{
				"type": "unocc",
				"energy": -0.04378,
				"method": "rhf"
			},
			{
				"type": "unocc",
				"energy": -0.01803,
				"method": "rhf"
			},
			{
				"type": "unocc",
				"energy": -0.01081,
				"method": "rhf"
			},
			{
				"type": "unocc",
				"energy": 0.00327,
				"method": "rhf"
			},
			{
				"type": "unocc",
				"energy": 0.0634,
				"method": "rhf"
			}
		],
		"cosmo_sigma_profile": { 
			"-0.025": 0.0,
			"-0.024": 0.0,
			"-0.023": 0.0,
			"-0.022": 0.0,
			"-0.021": 0.0,
			"-0.02": 0.0,
			"-0.019": 0.00884912771904,
			"-0.018": 0.69585826256,
			"-0.017": 1.5123188794,
			"-0.016": 1.04080306344,
			"-0.015": 0.823748883461,
			"-0.014": 2.35314077415,
			"-0.013": 2.51384822251,
			"-0.012": 2.28828552299,
			"-0.011": 2.53784686488,
			"-0.01": 2.76215957756,
			"-0.009": 2.78062459986,
			"-0.008": 4.73860471777,
			"-0.007": 8.50734761298,
			"-0.006": 12.6279582997,
			"-0.005": 11.8421688377,
			"-0.004": 13.190354023,
			"-0.003": 11.6475525575,
			"-0.002": 13.2213282296,
			"-0.001": 15.3228740476,
			"0.0": 22.3775181219,
			"0.001": 24.8816380278,
			"0.002": 21.132983651,
			"0.003": 20.4641160284,
			"0.004": 16.1684650597,
			"0.005": 8.90786631981,
			"0.006": 6.02851235734,
			"0.007": 5.92799077817,
			"0.008": 5.23139608459,
			"0.009": 3.76352629878,
			"0.01": 2.80779195059,
			"0.011": 3.30648845083,
			"0.012": 1.70357281139,
			"0.013": 4.66097984574,
			"0.014": 3.93052561429,
			"0.015": 0.508236952465,
			"0.016": 0.0,
			"0.017": 0.0,
			"0.018": 0.0,
			"0.019": 0.0,
			"0.02": 0.0,
			"0.021": 0.0,
			"0.022": 0.0,
			"0.023": 0.0,
			"0.024": 0.0,
			"0.025": 0.0
		}
	}
}
