{
	 "smiles": "CC(C)(C)OC(=O)C1(CC1)S(=O)(=O)C1=CC=C(Cl)C=C1", 
	 "Tm": 383.15, 
	 "num_atms": 37, 
	 "gaussian": { 
		 "optdone": 1, 
		 "sigma_profile": "yes", 
		 "theory": "DFT", 
		 "functional": "B3LYP", 
		 "basiset": "6-31G**", 
		 "properties": { 
			 "R2extent": 9367.6943, 
			 "electric_dipole_moment_norm": 5.56655559211, 
			 "electric_quadrupole_moment_norm": 17.544345633, 
			 "total_energy": -1702.94148056, 
			 "HOMO_LUMO_gap": 0.21671, 
			 "cosmo_polarized_energy": -15.09, 
			 "cosmo_cavitation_energy": 42.54, 
			 "cosmo_dispersion_energy": -29.0, 
			 "cosmo_repulsion_energy": 2.19, 
			 "cosmo_total_nonelectrostatic_energy": 15.73, 
			 "SMD_solvation_energy": 6.95 
		},
		"coords": [
			{
				"x": 3.1787739243,
				"y": -0.8510046192,
				"z": 1.3719317926,
				"element": "C" 
			},
			{
				"x": 2.380261438,
				"y": -0.024751953,
				"z": 0.3619848532,
				"element": "C" 
			},
			{
				"x": 3.1841156103,
				"y": 0.1987664916,
				"z": -0.9218955732,
				"element": "C" 
			},
			{
				"x": 1.8954515264,
				"y": 1.2861010223,
				"z": 0.9876641069,
				"element": "C" 
			},
			{
				"x": 1.2195588772,
				"y": -0.9038503242,
				"z": 0.0773625563,
				"element": "O" 
			},
			{
				"x": 0.2521938707,
				"y": -0.5435708396,
				"z": -0.782454523,
				"element": "C" 
			},
			{
				"x": 0.2076004712,
				"y": 0.501252332,
				"z": -1.4004631652,
				"element": "O" 
			},
			{
				"x": -0.8051368888,
				"y": -1.6079210802,
				"z": -0.8643820416,
				"element": "C" 
			},
			{
				"x": -1.2493736297,
				"y": -2.3212995209,
				"z": 0.4086368176,
				"element": "C" 
			},
			{
				"x": -0.448195628,
				"y": -3.0669838452,
				"z": -0.6007669105,
				"element": "C" 
			},
			{
				"x": -2.0611783337,
				"y": -1.3801638657,
				"z": -2.1654614629,
				"element": "S" 
			},
			{
				"x": -1.3770347353,
				"y": -1.1615993418,
				"z": -3.4447425646,
				"element": "O" 
			},
			{
				"x": -2.9897507567,
				"y": -2.5143204191,
				"z": -1.9920919638,
				"element": "O" 
			},
			{
				"x": -2.980173908,
				"y": 0.1073633162,
				"z": -1.7407289962,
				"element": "C" 
			},
			{
				"x": -2.5645506553,
				"y": 1.345754119,
				"z": -2.2341389017,
				"element": "C" 
			},
			{
				"x": -3.3120016318,
				"y": 2.483156517,
				"z": -1.9359666199,
				"element": "C" 
			},
			{
				"x": -4.4612458936,
				"y": 2.359001178,
				"z": -1.1527581145,
				"element": "C" 
			},
			{
				"x": -5.3988941472,
				"y": 3.7925477718,
				"z": -0.7744472225,
				"element": "Cl" 
			},
			{
				"x": -4.8873876799,
				"y": 1.1205580904,
				"z": -0.6704587802,
				"element": "C" 
			},
			{
				"x": -4.1403964759,
				"y": -0.016622072,
				"z": -0.9733853875,
				"element": "C" 
			},
			{
				"x": 3.4829845948,
				"y": -1.8073093837,
				"z": 0.9368527182,
				"element": "H" 
			},
			{
				"x": 4.078877137,
				"y": -0.3059526234,
				"z": 1.670713825,
				"element": "H" 
			},
			{
				"x": 2.5834229072,
				"y": -1.0514940171,
				"z": 2.2674426717,
				"element": "H" 
			},
			{
				"x": 4.1033708809,
				"y": 0.7431617053,
				"z": -0.6832083481,
				"element": "H" 
			},
			{
				"x": 3.4644346141,
				"y": -0.7600587194,
				"z": -1.3685476666,
				"element": "H" 
			},
			{
				"x": 2.6150710385,
				"y": 0.7754034185,
				"z": -1.6512864039,
				"element": "H" 
			},
			{
				"x": 1.2785572425,
				"y": 1.0842253933,
				"z": 1.868986707,
				"element": "H" 
			},
			{
				"x": 2.7601854772,
				"y": 1.8754866332,
				"z": 1.3087413495,
				"element": "H" 
			},
			{
				"x": 1.3161724155,
				"y": 1.874736386,
				"z": 0.276154211,
				"element": "H" 
			},
			{
				"x": -2.3047543578,
				"y": -2.560228703,
				"z": 0.4799390507,
				"element": "H" 
			},
			{
				"x": -0.7687291046,
				"y": -1.9902821206,
				"z": 1.3223323621,
				"element": "H" 
			},
			{
				"x": -0.9696311019,
				"y": -3.7991052178,
				"z": -1.2073563964,
				"element": "H" 
			},
			{
				"x": 0.5997609532,
				"y": -3.2592008664,
				"z": -0.4049180827,
				"element": "H" 
			},
			{
				"x": -1.666924725,
				"y": 1.4113818374,
				"z": -2.8355098322,
				"element": "H" 
			},
			{
				"x": -3.0103366286,
				"y": 3.4555970077,
				"z": -2.3081820374,
				"element": "H" 
			},
			{
				"x": -5.7928030005,
				"y": 1.0483243429,
				"z": -0.078674061,
				"element": "H" 
			},
			{
				"x": -4.4664936965,
				"y": -0.9957980302,
				"z": -0.6414179662,
				"element": "H" 
			}
		],
		 "valence_orbital": [ 
			{
				"type": "occ",
				"energy": -0.29575,
				"method": "rhf"
			},
			{
				"type": "occ",
				"energy": -0.28894,
				"method": "rhf"
			},
			{
				"type": "occ",
				"energy": -0.28171,
				"method": "rhf"
			},
			{
				"type": "occ",
				"energy": -0.2738,
				"method": "rhf"
			},
			{
				"type": "occ",
				"energy": -0.26157,
				"method": "rhf"
			},
			{
				"type": "unocc",
				"energy": -0.04486,
				"method": "rhf"
			},
			{
				"type": "unocc",
				"energy": -0.0258,
				"method": "rhf"
			},
			{
				"type": "unocc",
				"energy": -0.0078,
				"method": "rhf"
			},
			{
				"type": "unocc",
				"energy": 0.02031,
				"method": "rhf"
			},
			{
				"type": "unocc",
				"energy": 0.04942,
				"method": "rhf"
			}
		],
		"cosmo_sigma_profile": { 
			"-0.025": 0.0,
			"-0.024": 0.0,
			"-0.023": 0.0,
			"-0.022": 0.0,
			"-0.021": 0.0,
			"-0.02": 0.0,
			"-0.019": 0.0,
			"-0.018": 0.0,
			"-0.017": 0.0,
			"-0.016": 0.0,
			"-0.015": 0.0,
			"-0.014": 0.0,
			"-0.013": 0.0,
			"-0.012": 0.0,
			"-0.011": 0.0,
			"-0.01": 0.0,
			"-0.009": 0.174771144389,
			"-0.008": 4.443104206,
			"-0.007": 8.68378938448,
			"-0.006": 11.5817899569,
			"-0.005": 16.3641474783,
			"-0.004": 25.6156477403,
			"-0.003": 32.0246397497,
			"-0.002": 34.8238234531,
			"-0.001": 35.0222718513,
			"0.0": 45.1321535846,
			"0.001": 34.7957713587,
			"0.002": 17.4017342604,
			"0.003": 14.0944885156,
			"0.004": 14.9420003806,
			"0.005": 5.29349872179,
			"0.006": 3.37363454149,
			"0.007": 4.88692257517,
			"0.008": 5.37490731096,
			"0.009": 5.28225316294,
			"0.01": 7.48525399787,
			"0.011": 8.90629742368,
			"0.012": 3.36226514137,
			"0.013": 0.00726591833066,
			"0.014": 0.0,
			"0.015": 0.0,
			"0.016": 0.0,
			"0.017": 0.0,
			"0.018": 0.0,
			"0.019": 0.0,
			"0.02": 0.0,
			"0.021": 0.0,
			"0.022": 0.0,
			"0.023": 0.0,
			"0.024": 0.0,
			"0.025": 0.0
		}
	}
}
