{
	 "smiles": "COCCOC(=O)C1=C(C)NC(C)=C(C1C1=CC=CC(=C1)[N+]([O-])=O)C(=O)OC(C)C", 
	 "Tm": 398.15, 
	 "num_atms": 56, 
	 "gaussian": { 
		 "optdone": 1, 
		 "sigma_profile": "yes", 
		 "theory": "DFT", 
		 "functional": "B3LYP", 
		 "basiset": "6-31G**", 
		 "properties": { 
			 "R2extent": 13097.0045, 
			 "electric_dipole_moment_norm": 6.05284876236, 
			 "electric_quadrupole_moment_norm": 32.2782158026, 
			 "total_energy": -1451.89361979, 
			 "HOMO_LUMO_gap": 0.13595, 
			 "cosmo_polarized_energy": -22.84, 
			 "cosmo_cavitation_energy": 59.25, 
			 "cosmo_dispersion_energy": -36.98, 
			 "cosmo_repulsion_energy": 2.86, 
			 "cosmo_total_nonelectrostatic_energy": 25.12, 
			 "SMD_solvation_energy": 14.41 
		},
		"coords": [
			{
				"x": -0.5644946953,
				"y": 2.6831392509,
				"z": 3.2923779151,
				"element": "C" 
			},
			{
				"x": 0.0853948299,
				"y": 2.3286602721,
				"z": 4.501092231,
				"element": "O" 
			},
			{
				"x": 1.2355028631,
				"y": 1.520996837,
				"z": 4.3523598657,
				"element": "C" 
			},
			{
				"x": 0.9569749119,
				"y": 0.0435461526,
				"z": 4.1160249344,
				"element": "C" 
			},
			{
				"x": 0.5918028902,
				"y": -0.1533345071,
				"z": 2.7350191047,
				"element": "O" 
			},
			{
				"x": 0.3876813717,
				"y": -1.4452333462,
				"z": 2.3590549437,
				"element": "C" 
			},
			{
				"x": 0.4884404977,
				"y": -2.3722575218,
				"z": 3.1485599562,
				"element": "O" 
			},
			{
				"x": 0.0477812159,
				"y": -1.5461872591,
				"z": 0.9303794866,
				"element": "C" 
			},
			{
				"x": -0.1754493722,
				"y": -2.7664875232,
				"z": 0.3668396578,
				"element": "C" 
			},
			{
				"x": -0.0576767809,
				"y": -4.1092112471,
				"z": 1.0385463347,
				"element": "C" 
			},
			{
				"x": -0.5877974176,
				"y": -2.8190538275,
				"z": -0.9565365727,
				"element": "N" 
			},
			{
				"x": -1.0903962005,
				"y": -1.7320942043,
				"z": -1.6571512476,
				"element": "C" 
			},
			{
				"x": -1.8267638852,
				"y": -2.1157444461,
				"z": -2.9162616035,
				"element": "C" 
			},
			{
				"x": -0.9076145404,
				"y": -0.4858985908,
				"z": -1.135759994,
				"element": "C" 
			},
			{
				"x": 0.0083893412,
				"y": -0.2887105733,
				"z": 0.074550386,
				"element": "C" 
			},
			{
				"x": 1.407920808,
				"y": 0.1711862287,
				"z": -0.3668700379,
				"element": "C" 
			},
			{
				"x": 1.7154821967,
				"y": 1.5391855791,
				"z": -0.4325520153,
				"element": "C" 
			},
			{
				"x": 2.9730468979,
				"y": 1.9784734926,
				"z": -0.8533363817,
				"element": "C" 
			},
			{
				"x": 3.9545501166,
				"y": 1.062407903,
				"z": -1.2239393181,
				"element": "C" 
			},
			{
				"x": 3.6371418345,
				"y": -0.2929062537,
				"z": -1.160349891,
				"element": "C" 
			},
			{
				"x": 2.3909196034,
				"y": -0.7501649947,
				"z": -0.7378165509,
				"element": "C" 
			},
			{
				"x": 4.6559344171,
				"y": -1.2799970017,
				"z": -1.5519318852,
				"element": "N" 
			},
			{
				"x": 4.3506346279,
				"y": -2.4725382096,
				"z": -1.5028149679,
				"element": "O" 
			},
			{
				"x": 5.7558296399,
				"y": -0.8578054933,
				"z": -1.9095431234,
				"element": "O" 
			},
			{
				"x": -1.529437074,
				"y": 0.7492806098,
				"z": -1.6410810235,
				"element": "C" 
			},
			{
				"x": -1.3565932547,
				"y": 1.8422714523,
				"z": -1.117431376,
				"element": "O" 
			},
			{
				"x": -2.3370921381,
				"y": 0.5814451783,
				"z": -2.7193053874,
				"element": "O" 
			},
			{
				"x": -2.9848797598,
				"y": 1.7746170662,
				"z": -3.2515302843,
				"element": "C" 
			},
			{
				"x": -2.0227652403,
				"y": 2.5078277713,
				"z": -4.1809219432,
				"element": "C" 
			},
			{
				"x": -4.2501947233,
				"y": 1.2902541273,
				"z": -3.9460556779,
				"element": "C" 
			},
			{
				"x": -1.3089607119,
				"y": 3.4422164533,
				"z": 3.5463275901,
				"element": "H" 
			},
			{
				"x": -1.0699532607,
				"y": 1.8317039799,
				"z": 2.8206876859,
				"element": "H" 
			},
			{
				"x": 0.1422926043,
				"y": 3.1108191966,
				"z": 2.5647808595,
				"element": "H" 
			},
			{
				"x": 1.889071406,
				"y": 1.9015197887,
				"z": 3.5507753336,
				"element": "H" 
			},
			{
				"x": 1.7803618711,
				"y": 1.6049859418,
				"z": 5.2997816886,
				"element": "H" 
			},
			{
				"x": 1.8484091498,
				"y": -0.5542336228,
				"z": 4.3353880102,
				"element": "H" 
			},
			{
				"x": 0.1480629107,
				"y": -0.3062990741,
				"z": 4.7649298411,
				"element": "H" 
			},
			{
				"x": -0.0962994044,
				"y": -4.9154220585,
				"z": 0.2981891893,
				"element": "H" 
			},
			{
				"x": 0.8684594098,
				"y": -4.1849689571,
				"z": 1.6075178527,
				"element": "H" 
			},
			{
				"x": -0.8699487158,
				"y": -4.2560953545,
				"z": 1.7565576448,
				"element": "H" 
			},
			{
				"x": -0.7384148259,
				"y": -3.7338249624,
				"z": -1.3537324538,
				"element": "H" 
			},
			{
				"x": -2.9097710807,
				"y": -2.0645628847,
				"z": -2.7682242045,
				"element": "H" 
			},
			{
				"x": -1.5692222132,
				"y": -3.1385621003,
				"z": -3.2105700289,
				"element": "H" 
			},
			{
				"x": -1.5849383836,
				"y": -1.4434696463,
				"z": -3.7374336278,
				"element": "H" 
			},
			{
				"x": -0.4097802931,
				"y": 0.5274049274,
				"z": 0.664762887,
				"element": "H" 
			},
			{
				"x": 0.9483888136,
				"y": 2.2587711978,
				"z": -0.1671330974,
				"element": "H" 
			},
			{
				"x": 3.1890702628,
				"y": 3.0418956855,
				"z": -0.8913503272,
				"element": "H" 
			},
			{
				"x": 4.9391451235,
				"y": 1.368787432,
				"z": -1.5532992153,
				"element": "H" 
			},
			{
				"x": 2.2126449341,
				"y": -1.8167306781,
				"z": -0.697936507,
				"element": "H" 
			},
			{
				"x": -3.2326217621,
				"y": 2.416460743,
				"z": -2.4018300931,
				"element": "H" 
			},
			{
				"x": -1.7192081065,
				"y": 1.8615794195,
				"z": -5.0112732936,
				"element": "H" 
			},
			{
				"x": -1.1325600771,
				"y": 2.8270945277,
				"z": -3.6347197854,
				"element": "H" 
			},
			{
				"x": -2.506533355,
				"y": 3.3973177782,
				"z": -4.5976540565,
				"element": "H" 
			},
			{
				"x": -4.8093187105,
				"y": 2.1435753273,
				"z": -4.3421534188,
				"element": "H" 
			},
			{
				"x": -4.8961988739,
				"y": 0.7506619246,
				"z": -3.2477349798,
				"element": "H" 
			},
			{
				"x": -4.0086496924,
				"y": 0.6239080936,
				"z": -4.780669028,
				"element": "H" 
			}
		],
		 "valence_orbital": [ 
			{
				"type": "occ",
				"energy": -0.26834,
				"method": "rhf"
			},
			{
				"type": "occ",
				"energy": -0.26227,
				"method": "rhf"
			},
			{
				"type": "occ",
				"energy": -0.25404,
				"method": "rhf"
			},
			{
				"type": "occ",
				"energy": -0.25117,
				"method": "rhf"
			},
			{
				"type": "occ",
				"energy": -0.21579,
				"method": "rhf"
			},
			{
				"type": "unocc",
				"energy": -0.07984,
				"method": "rhf"
			},
			{
				"type": "unocc",
				"energy": -0.05783,
				"method": "rhf"
			},
			{
				"type": "unocc",
				"energy": -0.01375,
				"method": "rhf"
			},
			{
				"type": "unocc",
				"energy": -0.0059,
				"method": "rhf"
			},
			{
				"type": "unocc",
				"energy": 0.01324,
				"method": "rhf"
			}
		],
		"cosmo_sigma_profile": { 
			"-0.025": 0.0,
			"-0.024": 0.0,
			"-0.023": 0.0,
			"-0.022": 0.0,
			"-0.021": 0.0,
			"-0.02": 0.0,
			"-0.019": 0.0,
			"-0.018": 0.0,
			"-0.017": 0.0,
			"-0.016": 0.321788591189,
			"-0.015": 1.29235921698,
			"-0.014": 1.51723289806,
			"-0.013": 1.58299466024,
			"-0.012": 1.26797649898,
			"-0.011": 1.66899612962,
			"-0.01": 1.22911522421,
			"-0.009": 1.72888152004,
			"-0.008": 1.69613893608,
			"-0.007": 4.6969799834,
			"-0.006": 12.1557987499,
			"-0.005": 23.3593267722,
			"-0.004": 41.3474048825,
			"-0.003": 48.5685738182,
			"-0.002": 51.1218717245,
			"-0.001": 51.892989094,
			"0.0": 51.6708773349,
			"0.001": 32.5529099568,
			"0.002": 29.1313040393,
			"0.003": 21.9842218827,
			"0.004": 12.0923896433,
			"0.005": 9.73340553599,
			"0.006": 8.51784734556,
			"0.007": 11.7487313644,
			"0.008": 12.4651661415,
			"0.009": 8.79015249214,
			"0.01": 7.21333968365,
			"0.011": 4.37565576645,
			"0.012": 5.78505280327,
			"0.013": 5.14303774905,
			"0.014": 0.46663094286,
			"0.015": 0.0,
			"0.016": 0.0,
			"0.017": 0.0,
			"0.018": 0.0,
			"0.019": 0.0,
			"0.02": 0.0,
			"0.021": 0.0,
			"0.022": 0.0,
			"0.023": 0.0,
			"0.024": 0.0,
			"0.025": 0.0
		}
	}
}
