{
	 "smiles": "CC1=CC2=C(NN=C2)C(=C1)C(O)=O", 
	 "Tm": 560.15, 
	 "num_atms": 21, 
	 "gaussian": { 
		 "optdone": 1, 
		 "sigma_profile": "yes", 
		 "theory": "DFT", 
		 "functional": "B3LYP", 
		 "basiset": "6-31G**", 
		 "properties": { 
			 "R2extent": 2371.9527, 
			 "electric_dipole_moment_norm": 3.59469601636, 
			 "electric_quadrupole_moment_norm": 11.7157411328, 
			 "total_energy": -607.728308586, 
			 "HOMO_LUMO_gap": 0.17528, 
			 "cosmo_polarized_energy": -16.05, 
			 "cosmo_cavitation_energy": 25.44, 
			 "cosmo_dispersion_energy": -18.89, 
			 "cosmo_repulsion_energy": 1.48, 
			 "cosmo_total_nonelectrostatic_energy": 8.02, 
			 "SMD_solvation_energy": 4.52 
		},
		"coords": [
			{
				"x": -2.9975790312,
				"y": -0.5544080429,
				"z": 2.2430901545,
				"element": "C" 
			},
			{
				"x": -1.7725761617,
				"y": -0.3075546349,
				"z": 1.3928357932,
				"element": "C" 
			},
			{
				"x": -0.4904227766,
				"y": -0.494976037,
				"z": 1.9011181966,
				"element": "C" 
			},
			{
				"x": 0.6258978184,
				"y": -0.2395566732,
				"z": 1.0858325515,
				"element": "C" 
			},
			{
				"x": 0.4400345411,
				"y": 0.181716228,
				"z": -0.2514804099,
				"element": "C" 
			},
			{
				"x": 1.7006903935,
				"y": 0.3521520671,
				"z": -0.7698644062,
				"element": "N" 
			},
			{
				"x": 2.675351218,
				"y": 0.1124557925,
				"z": 0.1558094579,
				"element": "N" 
			},
			{
				"x": 2.0478191253,
				"y": -0.2622395189,
				"z": 1.2529517149,
				"element": "C" 
			},
			{
				"x": -0.8506001688,
				"y": 0.3437198091,
				"z": -0.8004916001,
				"element": "C" 
			},
			{
				"x": -1.9271563493,
				"y": 0.117496634,
				"z": 0.0519631485,
				"element": "C" 
			},
			{
				"x": -1.100237069,
				"y": 0.746872922,
				"z": -2.2134598596,
				"element": "C" 
			},
			{
				"x": -0.1022425004,
				"y": 0.427084231,
				"z": -3.0986810478,
				"element": "O" 
			},
			{
				"x": -2.0881881076,
				"y": 1.3220747426,
				"z": -2.5979897494,
				"element": "O" 
			},
			{
				"x": -2.7234998055,
				"y": -0.8670459071,
				"z": 3.254159824,
				"element": "H" 
			},
			{
				"x": -3.6119861917,
				"y": 0.3490449548,
				"z": 2.3268013827,
				"element": "H" 
			},
			{
				"x": -3.6326033777,
				"y": -1.3364062721,
				"z": 1.8115131767,
				"element": "H" 
			},
			{
				"x": -0.354417556,
				"y": -0.827485607,
				"z": 2.926749834,
				"element": "H" 
			},
			{
				"x": 1.9514559374,
				"y": 0.8511287088,
				"z": -1.6104077001,
				"element": "H" 
			},
			{
				"x": 2.6173061033,
				"y": -0.5286278755,
				"z": 2.1334913326,
				"element": "H" 
			},
			{
				"x": -2.9236050454,
				"y": 0.2663817257,
				"z": -0.3541809681,
				"element": "H" 
			},
			{
				"x": 0.4549590038,
				"y": -0.2720272469,
				"z": -2.7241608257,
				"element": "H" 
			}
		],
		 "valence_orbital": [ 
			{
				"type": "occ",
				"energy": -0.30975,
				"method": "rhf"
			},
			{
				"type": "occ",
				"energy": -0.30512,
				"method": "rhf"
			},
			{
				"type": "occ",
				"energy": -0.28099,
				"method": "rhf"
			},
			{
				"type": "occ",
				"energy": -0.25536,
				"method": "rhf"
			},
			{
				"type": "occ",
				"energy": -0.23914,
				"method": "rhf"
			},
			{
				"type": "unocc",
				"energy": -0.06386,
				"method": "rhf"
			},
			{
				"type": "unocc",
				"energy": -0.00933,
				"method": "rhf"
			},
			{
				"type": "unocc",
				"energy": 0.0122,
				"method": "rhf"
			},
			{
				"type": "unocc",
				"energy": 0.04949,
				"method": "rhf"
			},
			{
				"type": "unocc",
				"energy": 0.06661,
				"method": "rhf"
			}
		],
		"cosmo_sigma_profile": { 
			"-0.025": 0.0,
			"-0.024": 0.0,
			"-0.023": 0.0,
			"-0.022": 0.0,
			"-0.021": 0.0,
			"-0.02": 0.0,
			"-0.019": 0.0,
			"-0.018": 0.285780403718,
			"-0.017": 0.839179772195,
			"-0.016": 2.36208901371,
			"-0.015": 2.2242095525,
			"-0.014": 2.07526035743,
			"-0.013": 1.87488802693,
			"-0.012": 1.65381299204,
			"-0.011": 1.78726756251,
			"-0.01": 1.95334058755,
			"-0.009": 1.79364732367,
			"-0.008": 2.95861178659,
			"-0.007": 4.82899744702,
			"-0.006": 7.27094660613,
			"-0.005": 10.9629894277,
			"-0.004": 12.6427564255,
			"-0.003": 13.1378261491,
			"-0.002": 13.421883774,
			"-0.001": 14.5085007818,
			"0.0": 16.0868535645,
			"0.001": 12.7435703076,
			"0.002": 16.9316050785,
			"0.003": 14.0278444001,
			"0.004": 5.09549574178,
			"0.005": 3.83310598832,
			"0.006": 4.02400221051,
			"0.007": 3.30313812722,
			"0.008": 3.93555764191,
			"0.009": 5.12611451121,
			"0.01": 5.95539144605,
			"0.011": 6.86688322491,
			"0.012": 5.46965843235,
			"0.013": 1.98457056474,
			"0.014": 1.07984499463,
			"0.015": 0.508086845531,
			"0.016": 0.0,
			"0.017": 0.0,
			"0.018": 0.0,
			"0.019": 0.0,
			"0.02": 0.0,
			"0.021": 0.0,
			"0.022": 0.0,
			"0.023": 0.0,
			"0.024": 0.0,
			"0.025": 0.0
		}
	}
}
