{
	 "smiles": "OC(=O)C(CC1=CSC=C1)NC(=O)OCC1C2=C(C=CC=C2)C2=C1C=CC=C2", 
	 "Tm": 461.15, 
	 "num_atms": 47, 
	 "gaussian": { 
		 "optdone": 1, 
		 "sigma_profile": "yes", 
		 "theory": "DFT", 
		 "functional": "B3LYP", 
		 "basiset": "6-31G**", 
		 "properties": { 
			 "R2extent": 14252.4948, 
			 "electric_dipole_moment_norm": 1.36160836513, 
			 "electric_quadrupole_moment_norm": 24.4921025868, 
			 "total_energy": -1603.66135479, 
			 "HOMO_LUMO_gap": 0.18419, 
			 "cosmo_polarized_energy": -20.09, 
			 "cosmo_cavitation_energy": 52.66, 
			 "cosmo_dispersion_energy": -35.58, 
			 "cosmo_repulsion_energy": 2.61, 
			 "cosmo_total_nonelectrostatic_energy": 19.7, 
			 "SMD_solvation_energy": 9.69 
		},
		"coords": [
			{
				"x": -1.0115175535,
				"y": 0.4873776179,
				"z": -3.8488679442,
				"element": "O" 
			},
			{
				"x": -1.6176620643,
				"y": -0.0447034715,
				"z": -2.7678566956,
				"element": "C" 
			},
			{
				"x": -1.368671142,
				"y": -1.1579333639,
				"z": -2.3585297453,
				"element": "O" 
			},
			{
				"x": -2.6553668611,
				"y": 0.9212246975,
				"z": -2.1759111142,
				"element": "C" 
			},
			{
				"x": -3.3071316122,
				"y": 0.3570828815,
				"z": -0.8897391317,
				"element": "C" 
			},
			{
				"x": -4.406442105,
				"y": -0.643493541,
				"z": -1.1641289289,
				"element": "C" 
			},
			{
				"x": -4.2210170357,
				"y": -1.9903995801,
				"z": -1.3453674977,
				"element": "C" 
			},
			{
				"x": -5.7103730444,
				"y": -2.8192898834,
				"z": -1.6565773709,
				"element": "S" 
			},
			{
				"x": -6.6105560477,
				"y": -1.341051299,
				"z": -1.5470695905,
				"element": "C" 
			},
			{
				"x": -5.7910078369,
				"y": -0.2799397233,
				"z": -1.2838983273,
				"element": "C" 
			},
			{
				"x": -2.1196785964,
				"y": 2.2701606794,
				"z": -2.0300328853,
				"element": "N" 
			},
			{
				"x": -1.0291466393,
				"y": 2.6659168554,
				"z": -1.2984656683,
				"element": "C" 
			},
			{
				"x": -0.5776930665,
				"y": 3.7950781114,
				"z": -1.3263033061,
				"element": "O" 
			},
			{
				"x": -0.5379799902,
				"y": 1.658554702,
				"z": -0.5282884205,
				"element": "O" 
			},
			{
				"x": 0.555163428,
				"y": 2.0567940541,
				"z": 0.3353492367,
				"element": "C" 
			},
			{
				"x": 0.7831797864,
				"y": 0.9754599385,
				"z": 1.396159451,
				"element": "C" 
			},
			{
				"x": 1.5013785438,
				"y": -0.276929253,
				"z": 0.9091762573,
				"element": "C" 
			},
			{
				"x": 2.7075719097,
				"y": -0.4538501768,
				"z": 1.6201778838,
				"element": "C" 
			},
			{
				"x": 3.5419609079,
				"y": -1.5391375575,
				"z": 1.3456451761,
				"element": "C" 
			},
			{
				"x": 3.1610846877,
				"y": -2.447256704,
				"z": 0.3552590348,
				"element": "C" 
			},
			{
				"x": 1.9629350382,
				"y": -2.2739370493,
				"z": -0.345201032,
				"element": "C" 
			},
			{
				"x": 1.1227988327,
				"y": -1.1872010565,
				"z": -0.0720530037,
				"element": "C" 
			},
			{
				"x": 2.8433865898,
				"y": 0.6338533595,
				"z": 2.5973945593,
				"element": "C" 
			},
			{
				"x": 1.7216148415,
				"y": 1.4796889385,
				"z": 2.4863402991,
				"element": "C" 
			},
			{
				"x": 1.5921164499,
				"y": 2.5929058858,
				"z": 3.3097366486,
				"element": "C" 
			},
			{
				"x": 2.5931008835,
				"y": 2.8617231771,
				"z": 4.250864191,
				"element": "C" 
			},
			{
				"x": 3.7069678785,
				"y": 2.0227222171,
				"z": 4.361433648,
				"element": "C" 
			},
			{
				"x": 3.8404887425,
				"y": 0.902735084,
				"z": 3.5374779407,
				"element": "C" 
			},
			{
				"x": -0.3754554811,
				"y": -0.1771350792,
				"z": -4.1634555175,
				"element": "H" 
			},
			{
				"x": -3.4362289337,
				"y": 1.0075782773,
				"z": -2.9402476496,
				"element": "H" 
			},
			{
				"x": -2.5317611539,
				"y": -0.0806046026,
				"z": -0.2592771123,
				"element": "H" 
			},
			{
				"x": -3.7244767505,
				"y": 1.2115587397,
				"z": -0.3486900051,
				"element": "H" 
			},
			{
				"x": -3.2850804326,
				"y": -2.5297316373,
				"z": -1.3313555938,
				"element": "H" 
			},
			{
				"x": -7.6844173787,
				"y": -1.3461122441,
				"z": -1.6713501901,
				"element": "H" 
			},
			{
				"x": -6.1539949383,
				"y": 0.735820493,
				"z": -1.1634291569,
				"element": "H" 
			},
			{
				"x": -2.3970440584,
				"y": 2.9648825366,
				"z": -2.7062285106,
				"element": "H" 
			},
			{
				"x": 0.292112786,
				"y": 3.0094485044,
				"z": 0.7998820966,
				"element": "H" 
			},
			{
				"x": 1.4534931694,
				"y": 2.2132258192,
				"z": -0.2690101613,
				"element": "H" 
			},
			{
				"x": -0.19717747,
				"y": 0.7204318147,
				"z": 1.8234587474,
				"element": "H" 
			},
			{
				"x": 4.4704677583,
				"y": -1.6799145062,
				"z": 1.8922674611,
				"element": "H" 
			},
			{
				"x": 3.7989576395,
				"y": -3.2975980632,
				"z": 0.1306258634,
				"element": "H" 
			},
			{
				"x": 1.6755359917,
				"y": -2.9905866896,
				"z": -1.1093105663,
				"element": "H" 
			},
			{
				"x": 0.194163218,
				"y": -1.0712965987,
				"z": -0.6193987415,
				"element": "H" 
			},
			{
				"x": 0.7279253896,
				"y": 3.2480734086,
				"z": 3.23318383,
				"element": "H" 
			},
			{
				"x": 2.5031738798,
				"y": 3.7273956428,
				"z": 4.9005532269,
				"element": "H" 
			},
			{
				"x": 4.4753216588,
				"y": 2.2441431568,
				"z": 5.0967749206,
				"element": "H" 
			},
			{
				"x": 4.7072801813,
				"y": 0.2542654872,
				"z": 3.6302833946,
				"element": "H" 
			}
		],
		 "valence_orbital": [ 
			{
				"type": "occ",
				"energy": -0.24906,
				"method": "rhf"
			},
			{
				"type": "occ",
				"energy": -0.24569,
				"method": "rhf"
			},
			{
				"type": "occ",
				"energy": -0.24218,
				"method": "rhf"
			},
			{
				"type": "occ",
				"energy": -0.23042,
				"method": "rhf"
			},
			{
				"type": "occ",
				"energy": -0.21344,
				"method": "rhf"
			},
			{
				"type": "unocc",
				"energy": -0.02925,
				"method": "rhf"
			},
			{
				"type": "unocc",
				"energy": -0.01377,
				"method": "rhf"
			},
			{
				"type": "unocc",
				"energy": -0.01147,
				"method": "rhf"
			},
			{
				"type": "unocc",
				"energy": -0.01051,
				"method": "rhf"
			},
			{
				"type": "unocc",
				"energy": 0.00961,
				"method": "rhf"
			}
		],
		"cosmo_sigma_profile": { 
			"-0.025": 0.0,
			"-0.024": 0.0,
			"-0.023": 0.0,
			"-0.022": 0.0,
			"-0.021": 0.0,
			"-0.02": 0.0,
			"-0.019": 0.134881885709,
			"-0.018": 1.2015510063,
			"-0.017": 0.570272200843,
			"-0.016": 0.92668462646,
			"-0.015": 1.59468438942,
			"-0.014": 2.55131837402,
			"-0.013": 1.83600508115,
			"-0.012": 1.47882580173,
			"-0.011": 1.88328971837,
			"-0.01": 1.849349759,
			"-0.009": 2.32858311627,
			"-0.008": 4.30961993332,
			"-0.007": 6.81138064488,
			"-0.006": 20.1832875987,
			"-0.005": 30.915358539,
			"-0.004": 29.2532806791,
			"-0.003": 30.678828528,
			"-0.002": 27.2662341736,
			"-0.001": 25.8888543107,
			"0.0": 27.0098635029,
			"0.001": 28.0979739747,
			"0.002": 31.7026402214,
			"0.003": 33.5450022883,
			"0.004": 33.2489974809,
			"0.005": 33.5754655024,
			"0.006": 18.4394676329,
			"0.007": 4.39204874905,
			"0.008": 3.11164632007,
			"0.009": 3.51288904682,
			"0.01": 2.30044506233,
			"0.011": 2.35498713398,
			"0.012": 3.39717147813,
			"0.013": 5.37652649189,
			"0.014": 0.410369508518,
			"0.015": 0.0,
			"0.016": 0.0,
			"0.017": 0.0,
			"0.018": 0.0,
			"0.019": 0.0,
			"0.02": 0.0,
			"0.021": 0.0,
			"0.022": 0.0,
			"0.023": 0.0,
			"0.024": 0.0,
			"0.025": 0.0
		}
	}
}
