{
	 "smiles": "OC(CCN1C(=O)C2=C(C=CC=C2)C1=O)C(O)=O", 
	 "Tm": 431.15, 
	 "num_atms": 29, 
	 "gaussian": { 
		 "optdone": 1, 
		 "sigma_profile": "yes", 
		 "theory": "DFT", 
		 "functional": "B3LYP", 
		 "basiset": "6-31G**", 
		 "properties": { 
			 "R2extent": 6798.7657, 
			 "electric_dipole_moment_norm": 5.43969500156, 
			 "electric_quadrupole_moment_norm": 20.1341677648, 
			 "total_energy": -894.815268494, 
			 "HOMO_LUMO_gap": 0.17966, 
			 "cosmo_polarized_energy": -22.37, 
			 "cosmo_cavitation_energy": 34.35, 
			 "cosmo_dispersion_energy": -24.34, 
			 "cosmo_repulsion_energy": 1.87, 
			 "cosmo_total_nonelectrostatic_energy": 11.88, 
			 "SMD_solvation_energy": 7.94 
		},
		"coords": [
			{
				"x": -1.3583301721,
				"y": 5.3034654959,
				"z": 1.5712904204,
				"element": "O" 
			},
			{
				"x": -0.6795378979,
				"y": 4.5985166008,
				"z": 0.519347681,
				"element": "C" 
			},
			{
				"x": -0.5890534862,
				"y": 3.0973982412,
				"z": 0.8165263704,
				"element": "C" 
			},
			{
				"x": -0.0942374502,
				"y": 2.243351254,
				"z": -0.362648183,
				"element": "C" 
			},
			{
				"x": -0.2188672787,
				"y": 0.8186748826,
				"z": -0.082931934,
				"element": "N" 
			},
			{
				"x": -1.1928626446,
				"y": -0.01104144,
				"z": -0.6671293073,
				"element": "C" 
			},
			{
				"x": -2.0527821188,
				"y": 0.3551405441,
				"z": -1.4436574127,
				"element": "O" 
			},
			{
				"x": -0.9275480055,
				"y": -1.3795929844,
				"z": -0.1317119674,
				"element": "C" 
			},
			{
				"x": 0.167273101,
				"y": -1.3073881328,
				"z": 0.7327663331,
				"element": "C" 
			},
			{
				"x": 0.6511516506,
				"y": -2.4313064583,
				"z": 1.386208466,
				"element": "C" 
			},
			{
				"x": -0.00138124,
				"y": -3.6479237027,
				"z": 1.1448583982,
				"element": "C" 
			},
			{
				"x": -1.0993334816,
				"y": -3.7203022161,
				"z": 0.277844876,
				"element": "C" 
			},
			{
				"x": -1.5808928153,
				"y": -2.5785319519,
				"z": -0.3768561666,
				"element": "C" 
			},
			{
				"x": 0.6336597482,
				"y": 0.110853701,
				"z": 0.779559654,
				"element": "C" 
			},
			{
				"x": 1.5447882877,
				"y": 0.5988689156,
				"z": 1.4197006538,
				"element": "O" 
			},
			{
				"x": 0.6853982546,
				"y": 5.2620304789,
				"z": 0.240631035,
				"element": "C" 
			},
			{
				"x": 0.8604891524,
				"y": 6.4301746034,
				"z": 0.8768281568,
				"element": "O" 
			},
			{
				"x": 1.5096846228,
				"y": 4.7937448314,
				"z": -0.5097030162,
				"element": "O" 
			},
			{
				"x": -1.1700762188,
				"y": 4.8502925936,
				"z": 2.4054649366,
				"element": "H" 
			},
			{
				"x": -1.28712342,
				"y": 4.7551633834,
				"z": -0.3810523773,
				"element": "H" 
			},
			{
				"x": 0.0721721083,
				"y": 2.9287234131,
				"z": 1.6759649716,
				"element": "H" 
			},
			{
				"x": -1.5963115461,
				"y": 2.7666988735,
				"z": 1.0952311659,
				"element": "H" 
			},
			{
				"x": -0.6951942828,
				"y": 2.4335267649,
				"z": -1.2557665011,
				"element": "H" 
			},
			{
				"x": 0.9468530323,
				"y": 2.4773655727,
				"z": -0.585580301,
				"element": "H" 
			},
			{
				"x": 1.5030062585,
				"y": -2.3635073844,
				"z": 2.0551170243,
				"element": "H" 
			},
			{
				"x": 0.3484567998,
				"y": -4.550678833,
				"z": 1.6366249526,
				"element": "H" 
			},
			{
				"x": -1.5834296068,
				"y": -4.6779605335,
				"z": 0.1113699242,
				"element": "H" 
			},
			{
				"x": -2.4301602366,
				"y": -2.622816249,
				"z": -1.0509811781,
				"element": "H" 
			},
			{
				"x": 0.0452888859,
				"y": 6.5759597361,
				"z": 1.3982833248,
				"element": "H" 
			}
		],
		 "valence_orbital": [ 
			{
				"type": "occ",
				"energy": -0.28822,
				"method": "rhf"
			},
			{
				"type": "occ",
				"energy": -0.28088,
				"method": "rhf"
			},
			{
				"type": "occ",
				"energy": -0.27103,
				"method": "rhf"
			},
			{
				"type": "occ",
				"energy": -0.26981,
				"method": "rhf"
			},
			{
				"type": "occ",
				"energy": -0.26454,
				"method": "rhf"
			},
			{
				"type": "unocc",
				"energy": -0.08488,
				"method": "rhf"
			},
			{
				"type": "unocc",
				"energy": -0.04379,
				"method": "rhf"
			},
			{
				"type": "unocc",
				"energy": 0.0043,
				"method": "rhf"
			},
			{
				"type": "unocc",
				"energy": 0.02494,
				"method": "rhf"
			},
			{
				"type": "unocc",
				"energy": 0.04536,
				"method": "rhf"
			}
		],
		"cosmo_sigma_profile": { 
			"-0.025": 0.0,
			"-0.024": 0.0,
			"-0.023": 0.0,
			"-0.022": 0.0,
			"-0.021": 0.0,
			"-0.02": 0.0,
			"-0.019": 0.0,
			"-0.018": 0.0673103256177,
			"-0.017": 1.01734476158,
			"-0.016": 1.34952698371,
			"-0.015": 1.33529643368,
			"-0.014": 1.43942305735,
			"-0.013": 2.07981794972,
			"-0.012": 1.40554916715,
			"-0.011": 2.68354327468,
			"-0.01": 2.33354322047,
			"-0.009": 1.97600779482,
			"-0.008": 7.19919102073,
			"-0.007": 14.4811393128,
			"-0.006": 15.3351984329,
			"-0.005": 20.0365533464,
			"-0.004": 17.3290338237,
			"-0.003": 19.0650418564,
			"-0.002": 15.3394181642,
			"-0.001": 15.7204921683,
			"0.0": 15.668707229,
			"0.001": 17.2360994934,
			"0.002": 17.5161198949,
			"0.003": 9.48601999065,
			"0.004": 6.64083134882,
			"0.005": 6.51608163483,
			"0.006": 5.41068766145,
			"0.007": 5.86492347812,
			"0.008": 6.92734035619,
			"0.009": 7.78161455248,
			"0.01": 11.5569756907,
			"0.011": 13.9130840842,
			"0.012": 7.49906252938,
			"0.013": 1.43431205583,
			"0.014": 0.0366888910205,
			"0.015": 0.0,
			"0.016": 0.0,
			"0.017": 0.0,
			"0.018": 0.0,
			"0.019": 0.0,
			"0.02": 0.0,
			"0.021": 0.0,
			"0.022": 0.0,
			"0.023": 0.0,
			"0.024": 0.0,
			"0.025": 0.0
		}
	}
}
