{
	 "smiles": "CS(=O)(=O)C1=CC(NC(=O)CCl)=C(F)C=C1", 
	 "Tm": 400.15, 
	 "num_atms": 25, 
	 "gaussian": { 
		 "optdone": 1, 
		 "sigma_profile": "yes", 
		 "theory": "DFT", 
		 "functional": "B3LYP", 
		 "basiset": "6-31G**", 
		 "properties": { 
			 "R2extent": 6997.1511, 
			 "electric_dipole_moment_norm": 2.88384517615, 
			 "electric_quadrupole_moment_norm": 25.0824729339, 
			 "total_energy": -1586.96594255, 
			 "HOMO_LUMO_gap": 0.21426, 
			 "cosmo_polarized_energy": -21.56, 
			 "cosmo_cavitation_energy": 33.56, 
			 "cosmo_dispersion_energy": -24.39, 
			 "cosmo_repulsion_energy": 1.87, 
			 "cosmo_total_nonelectrostatic_energy": 11.05, 
			 "SMD_solvation_energy": 6.22 
		},
		"coords": [
			{
				"x": -2.2914428705,
				"y": -4.5532585533,
				"z": -0.7309444814,
				"element": "C" 
			},
			{
				"x": -1.141254614,
				"y": -4.157891804,
				"z": -2.0695812595,
				"element": "S" 
			},
			{
				"x": 0.193633408,
				"y": -4.6179769721,
				"z": -1.6562563702,
				"element": "O" 
			},
			{
				"x": -1.7533525632,
				"y": -4.612496461,
				"z": -3.3269643222,
				"element": "O" 
			},
			{
				"x": -1.1136934154,
				"y": -2.3586886121,
				"z": -2.0925887122,
				"element": "C" 
			},
			{
				"x": -0.1551491954,
				"y": -1.6898028659,
				"z": -1.3320000175,
				"element": "C" 
			},
			{
				"x": -0.112504033,
				"y": -0.294056755,
				"z": -1.3381619505,
				"element": "C" 
			},
			{
				"x": 0.8757611371,
				"y": 0.4010320493,
				"z": -0.6041950453,
				"element": "N" 
			},
			{
				"x": 0.586853927,
				"y": 1.3908437685,
				"z": 0.2969892668,
				"element": "C" 
			},
			{
				"x": -0.5336372203,
				"y": 1.7964776057,
				"z": 0.5490855545,
				"element": "O" 
			},
			{
				"x": 1.7669832951,
				"y": 2.049145444,
				"z": 1.0153374587,
				"element": "C" 
			},
			{
				"x": 3.3938237068,
				"y": 1.2750569816,
				"z": 0.7940406832,
				"element": "Cl" 
			},
			{
				"x": -1.0442682383,
				"y": 0.3943079567,
				"z": -2.1299491466,
				"element": "C" 
			},
			{
				"x": -0.9817327077,
				"y": 1.7282223551,
				"z": -2.2010835197,
				"element": "F" 
			},
			{
				"x": -2.0105617051,
				"y": -0.2720366611,
				"z": -2.8759374108,
				"element": "C" 
			},
			{
				"x": -2.0462211279,
				"y": -1.6643813019,
				"z": -2.8653993072,
				"element": "C" 
			},
			{
				"x": -3.2733487209,
				"y": -4.1409502097,
				"z": -0.966840798,
				"element": "H" 
			},
			{
				"x": -2.3382690151,
				"y": -5.643192423,
				"z": -0.682520088,
				"element": "H" 
			},
			{
				"x": -1.9071571086,
				"y": -4.1470871899,
				"z": 0.2056244538,
				"element": "H" 
			},
			{
				"x": 0.5649264036,
				"y": -2.2552901789,
				"z": -0.7492108494,
				"element": "H" 
			},
			{
				"x": 1.8267456147,
				"y": 0.0567137882,
				"z": -0.6380828486,
				"element": "H" 
			},
			{
				"x": 1.8523661654,
				"y": 3.0787380968,
				"z": 0.6647009069,
				"element": "H" 
			},
			{
				"x": 1.5514896861,
				"y": 2.0558662697,
				"z": 2.0831917627,
				"element": "H" 
			},
			{
				"x": -2.7001217359,
				"y": 0.3117618945,
				"z": -3.4754734783,
				"element": "H" 
			},
			{
				"x": -2.7651690724,
				"y": -2.2086562224,
				"z": -3.4677804813,
				"element": "H" 
			}
		],
		 "valence_orbital": [ 
			{
				"type": "occ",
				"energy": -0.30214,
				"method": "rhf"
			},
			{
				"type": "occ",
				"energy": -0.29614,
				"method": "rhf"
			},
			{
				"type": "occ",
				"energy": -0.2821,
				"method": "rhf"
			},
			{
				"type": "occ",
				"energy": -0.27599,
				"method": "rhf"
			},
			{
				"type": "occ",
				"energy": -0.26077,
				"method": "rhf"
			},
			{
				"type": "unocc",
				"energy": -0.04651,
				"method": "rhf"
			},
			{
				"type": "unocc",
				"energy": -0.04467,
				"method": "rhf"
			},
			{
				"type": "unocc",
				"energy": -0.00025,
				"method": "rhf"
			},
			{
				"type": "unocc",
				"energy": 0.00844,
				"method": "rhf"
			},
			{
				"type": "unocc",
				"energy": 0.05402,
				"method": "rhf"
			}
		],
		"cosmo_sigma_profile": { 
			"-0.025": 0.0,
			"-0.024": 0.0,
			"-0.023": 0.0,
			"-0.022": 0.0,
			"-0.021": 0.0,
			"-0.02": 0.0,
			"-0.019": 0.0,
			"-0.018": 0.0,
			"-0.017": 0.0,
			"-0.016": 0.0,
			"-0.015": 0.183428714065,
			"-0.014": 0.79907481726,
			"-0.013": 1.09975252015,
			"-0.012": 0.767971475076,
			"-0.011": 1.09671507136,
			"-0.01": 2.06425850298,
			"-0.009": 10.3828293199,
			"-0.008": 15.3849299841,
			"-0.007": 15.4255835247,
			"-0.006": 16.0335430909,
			"-0.005": 14.7476363867,
			"-0.004": 15.5249139066,
			"-0.003": 12.4992674433,
			"-0.002": 12.9543835217,
			"-0.001": 15.3830273394,
			"0.0": 19.1390578401,
			"0.001": 17.2465428715,
			"0.002": 10.6541920796,
			"0.003": 14.6994652454,
			"0.004": 11.3219378358,
			"0.005": 10.4664741028,
			"0.006": 5.3440378317,
			"0.007": 3.92709005129,
			"0.008": 5.14868256113,
			"0.009": 4.60949172644,
			"0.01": 7.10127238352,
			"0.011": 11.9523214304,
			"0.012": 12.6248848159,
			"0.013": 2.05296619524,
			"0.014": 0.0214212360436,
			"0.015": 0.0,
			"0.016": 0.0,
			"0.017": 0.0,
			"0.018": 0.0,
			"0.019": 0.0,
			"0.02": 0.0,
			"0.021": 0.0,
			"0.022": 0.0,
			"0.023": 0.0,
			"0.024": 0.0,
			"0.025": 0.0
		}
	}
}
