{
	 "smiles": "OC(C1=CC=C(Cl)C=C1)C1=CC=C(Cl)C=C1", 
	 "Tm": 365.15, 
	 "num_atms": 26, 
	 "gaussian": { 
		 "optdone": 1, 
		 "sigma_profile": "yes", 
		 "theory": "DFT", 
		 "functional": "B3LYP", 
		 "basiset": "6-31G**", 
		 "properties": { 
			 "R2extent": 6540.8801, 
			 "electric_dipole_moment_norm": 2.68881930408, 
			 "electric_quadrupole_moment_norm": 16.8550676335, 
			 "total_energy": -1497.01570584, 
			 "HOMO_LUMO_gap": 0.21111, 
			 "cosmo_polarized_energy": -9.9, 
			 "cosmo_cavitation_energy": 34.04, 
			 "cosmo_dispersion_energy": -24.47, 
			 "cosmo_repulsion_energy": 1.93, 
			 "cosmo_total_nonelectrostatic_energy": 11.5, 
			 "SMD_solvation_energy": 5.09 
		},
		"coords": [
			{
				"x": 0.681544271,
				"y": -0.1805307453,
				"z": 3.0187789557,
				"element": "O" 
			},
			{
				"x": 0.3671379466,
				"y": 0.7411014881,
				"z": 1.9789586054,
				"element": "C" 
			},
			{
				"x": -0.8560404881,
				"y": 0.2104586696,
				"z": 1.2384626548,
				"element": "C" 
			},
			{
				"x": -1.4675484585,
				"y": -0.9891267022,
				"z": 1.6129657771,
				"element": "C" 
			},
			{
				"x": -2.5963187307,
				"y": -1.4570727892,
				"z": 0.936326533,
				"element": "C" 
			},
			{
				"x": -3.1156878793,
				"y": -0.7129259777,
				"z": -0.1194640812,
				"element": "C" 
			},
			{
				"x": -4.5384459556,
				"y": -1.2941749623,
				"z": -0.9762084789,
				"element": "Cl" 
			},
			{
				"x": -2.5247675545,
				"y": 0.4895778641,
				"z": -0.5091526328,
				"element": "C" 
			},
			{
				"x": -1.3979455652,
				"y": 0.9414053002,
				"z": 0.1733200904,
				"element": "C" 
			},
			{
				"x": 1.5608207874,
				"y": 0.9575614993,
				"z": 1.0565787062,
				"element": "C" 
			},
			{
				"x": 2.0199784796,
				"y": 2.2437566193,
				"z": 0.7595951142,
				"element": "C" 
			},
			{
				"x": 3.1170615479,
				"y": 2.4413414697,
				"z": -0.0825390186,
				"element": "C" 
			},
			{
				"x": 3.7614831544,
				"y": 1.3307585249,
				"z": -0.6215042913,
				"element": "C" 
			},
			{
				"x": 5.1470584285,
				"y": 1.5622798799,
				"z": -1.6777863042,
				"element": "Cl" 
			},
			{
				"x": 3.3284378339,
				"y": 0.0341873124,
				"z": -0.3329431469,
				"element": "C" 
			},
			{
				"x": 2.2301506631,
				"y": -0.1434492112,
				"z": 0.5036105418,
				"element": "C" 
			},
			{
				"x": 1.5038992941,
				"y": 0.1144029206,
				"z": 3.4300724415,
				"element": "H" 
			},
			{
				"x": 0.0973559895,
				"y": 1.7188208743,
				"z": 2.4125055417,
				"element": "H" 
			},
			{
				"x": -1.0602285282,
				"y": -1.5562707373,
				"z": 2.4410445946,
				"element": "H" 
			},
			{
				"x": -3.0680161724,
				"y": -2.3888998069,
				"z": 1.2286236402,
				"element": "H" 
			},
			{
				"x": -2.9396420766,
				"y": 1.058541815,
				"z": -1.3337703478,
				"element": "H" 
			},
			{
				"x": -0.9319182145,
				"y": 1.8728367802,
				"z": -0.1369362154,
				"element": "H" 
			},
			{
				"x": 1.5216157329,
				"y": 3.1080661613,
				"z": 1.192096669,
				"element": "H" 
			},
			{
				"x": 3.4704822686,
				"y": 3.4408080044,
				"z": -0.3105935537,
				"element": "H" 
			},
			{
				"x": 3.8451163771,
				"y": -0.817803963,
				"z": -0.7610098245,
				"element": "H" 
			},
			{
				"x": 1.8852168491,
				"y": -1.1462502881,
				"z": 0.7365680296,
				"element": "H" 
			}
		],
		 "valence_orbital": [ 
			{
				"type": "occ",
				"energy": -0.29392,
				"method": "rhf"
			},
			{
				"type": "occ",
				"energy": -0.27153,
				"method": "rhf"
			},
			{
				"type": "occ",
				"energy": -0.26103,
				"method": "rhf"
			},
			{
				"type": "occ",
				"energy": -0.25161,
				"method": "rhf"
			},
			{
				"type": "occ",
				"energy": -0.2385,
				"method": "rhf"
			},
			{
				"type": "unocc",
				"energy": -0.02739,
				"method": "rhf"
			},
			{
				"type": "unocc",
				"energy": -0.02504,
				"method": "rhf"
			},
			{
				"type": "unocc",
				"energy": -0.01399,
				"method": "rhf"
			},
			{
				"type": "unocc",
				"energy": -0.00599,
				"method": "rhf"
			},
			{
				"type": "unocc",
				"energy": 0.02507,
				"method": "rhf"
			}
		],
		"cosmo_sigma_profile": { 
			"-0.025": 0.0,
			"-0.024": 0.0,
			"-0.023": 0.0,
			"-0.022": 0.0,
			"-0.021": 0.0,
			"-0.02": 0.0,
			"-0.019": 0.0,
			"-0.018": 0.0,
			"-0.017": 0.00712952437949,
			"-0.016": 0.855714020075,
			"-0.015": 0.890979848102,
			"-0.014": 0.790206778616,
			"-0.013": 0.431562781179,
			"-0.012": 1.00226692137,
			"-0.011": 1.04462362002,
			"-0.01": 0.640945611049,
			"-0.009": 0.72678777255,
			"-0.008": 1.05333861068,
			"-0.007": 9.65014236311,
			"-0.006": 16.3241143443,
			"-0.005": 19.0161879763,
			"-0.004": 14.6645672062,
			"-0.003": 12.5661476253,
			"-0.002": 15.1307678941,
			"-0.001": 15.2443936193,
			"0.0": 18.3758691374,
			"0.001": 22.0779491042,
			"0.002": 29.4691068913,
			"0.003": 35.0188995704,
			"0.004": 34.9319987554,
			"0.005": 18.6162248776,
			"0.006": 1.57222189093,
			"0.007": 1.14230352603,
			"0.008": 1.40308221429,
			"0.009": 1.574233416,
			"0.01": 1.11690452514,
			"0.011": 1.03755517,
			"0.012": 0.419389420705,
			"0.013": 0.0352578879719,
			"0.014": 0.0,
			"0.015": 0.0,
			"0.016": 0.0,
			"0.017": 0.0,
			"0.018": 0.0,
			"0.019": 0.0,
			"0.02": 0.0,
			"0.021": 0.0,
			"0.022": 0.0,
			"0.023": 0.0,
			"0.024": 0.0,
			"0.025": 0.0
		}
	}
}
