{
	 "smiles": "[O-][N+](=O)C1=CC=CC2=C1C=CN2", 
	 "Tm": 478.15, 
	 "num_atms": 18, 
	 "gaussian": { 
		 "optdone": 1, 
		 "sigma_profile": "yes", 
		 "theory": "DFT", 
		 "functional": "B3LYP", 
		 "basiset": "6-31G**", 
		 "properties": { 
			 "R2extent": 2615.4248, 
			 "electric_dipole_moment_norm": 6.826343218, 
			 "electric_quadrupole_moment_norm": 10.3817131573, 
			 "total_energy": -568.321038594, 
			 "HOMO_LUMO_gap": 0.14683, 
			 "cosmo_polarized_energy": -14.38, 
			 "cosmo_cavitation_energy": 22.64, 
			 "cosmo_dispersion_energy": -17.19, 
			 "cosmo_repulsion_energy": 1.34, 
			 "cosmo_total_nonelectrostatic_energy": 6.79, 
			 "SMD_solvation_energy": 6.03 
		},
		"coords": [
			{
				"x": -0.413778246,
				"y": 3.2929944423,
				"z": -2.3667887079,
				"element": "O" 
			},
			{
				"x": -0.7500097421,
				"y": 2.2905396163,
				"z": -1.7326133383,
				"element": "N" 
			},
			{
				"x": -1.6785537378,
				"y": 2.2646969018,
				"z": -0.9203080893,
				"element": "O" 
			},
			{
				"x": -0.0054767697,
				"y": 1.0520507404,
				"z": -1.9540117115,
				"element": "C" 
			},
			{
				"x": 1.0426259064,
				"y": 1.0701067398,
				"z": -2.8680756218,
				"element": "C" 
			},
			{
				"x": 1.7877995932,
				"y": -0.0909172405,
				"z": -3.1164140398,
				"element": "C" 
			},
			{
				"x": 1.4973380199,
				"y": -1.282819441,
				"z": -2.4568472207,
				"element": "C" 
			},
			{
				"x": 0.4430564905,
				"y": -1.2838067146,
				"z": -1.5429707489,
				"element": "C" 
			},
			{
				"x": -0.3449805298,
				"y": -0.1267087504,
				"z": -1.256673745,
				"element": "C" 
			},
			{
				"x": -1.3187397007,
				"y": -0.5141024622,
				"z": -0.2813161166,
				"element": "C" 
			},
			{
				"x": -1.1042219717,
				"y": -1.8426534175,
				"z": -0.0118935593,
				"element": "C" 
			},
			{
				"x": -0.0493657401,
				"y": -2.3109892799,
				"z": -0.7657496802,
				"element": "N" 
			},
			{
				"x": 1.2652031115,
				"y": 1.998408293,
				"z": -3.3783430081,
				"element": "H" 
			},
			{
				"x": 2.6013072748,
				"y": -0.0566855888,
				"z": -3.8334135763,
				"element": "H" 
			},
			{
				"x": 2.0745627164,
				"y": -2.1826947836,
				"z": -2.6491976578,
				"element": "H" 
			},
			{
				"x": -2.072474349,
				"y": 0.1185066225,
				"z": 0.1551238255,
				"element": "H" 
			},
			{
				"x": -1.6278916794,
				"y": -2.5009998485,
				"z": 0.6665010148,
				"element": "H" 
			},
			{
				"x": 0.3058993536,
				"y": -3.253025829,
				"z": -0.7525080187,
				"element": "H" 
			}
		],
		 "valence_orbital": [ 
			{
				"type": "occ",
				"energy": -0.29319,
				"method": "rhf"
			},
			{
				"type": "occ",
				"energy": -0.29271,
				"method": "rhf"
			},
			{
				"type": "occ",
				"energy": -0.27555,
				"method": "rhf"
			},
			{
				"type": "occ",
				"energy": -0.24462,
				"method": "rhf"
			},
			{
				"type": "occ",
				"energy": -0.22657,
				"method": "rhf"
			},
			{
				"type": "unocc",
				"energy": -0.07974,
				"method": "rhf"
			},
			{
				"type": "unocc",
				"energy": -0.00848,
				"method": "rhf"
			},
			{
				"type": "unocc",
				"energy": 0.01621,
				"method": "rhf"
			},
			{
				"type": "unocc",
				"energy": 0.05578,
				"method": "rhf"
			},
			{
				"type": "unocc",
				"energy": 0.0632,
				"method": "rhf"
			}
		],
		"cosmo_sigma_profile": { 
			"-0.025": 0.0,
			"-0.024": 0.0,
			"-0.023": 0.0,
			"-0.022": 0.0,
			"-0.021": 0.0,
			"-0.02": 0.0,
			"-0.019": 0.0,
			"-0.018": 0.0,
			"-0.017": 0.456480882868,
			"-0.016": 1.53598530817,
			"-0.015": 1.89362105396,
			"-0.014": 1.22858146757,
			"-0.013": 1.07567141632,
			"-0.012": 1.45046296483,
			"-0.011": 1.39401360905,
			"-0.01": 1.39239731954,
			"-0.009": 3.52355830989,
			"-0.008": 4.60696705638,
			"-0.007": 5.95299084936,
			"-0.006": 7.24493363958,
			"-0.005": 8.87431510127,
			"-0.004": 9.28453127802,
			"-0.003": 8.61159522511,
			"-0.002": 8.90690125527,
			"-0.001": 8.08766042037,
			"0.0": 10.0044798042,
			"0.001": 12.1021388277,
			"0.002": 19.086213563,
			"0.003": 18.4021487997,
			"0.004": 11.755670554,
			"0.005": 7.14865441665,
			"0.006": 4.15193347319,
			"0.007": 3.98439682913,
			"0.008": 7.27368153558,
			"0.009": 6.06586760916,
			"0.01": 4.26347519458,
			"0.011": 2.57457520785,
			"0.012": 0.0156124537321,
			"0.013": 0.0,
			"0.014": 0.0,
			"0.015": 0.0,
			"0.016": 0.0,
			"0.017": 0.0,
			"0.018": 0.0,
			"0.019": 0.0,
			"0.02": 0.0,
			"0.021": 0.0,
			"0.022": 0.0,
			"0.023": 0.0,
			"0.024": 0.0,
			"0.025": 0.0
		}
	}
}
