{
	 "smiles": "CC1=NC=C(C(O)=O)C(=N1)C1=CC=CC=C1", 
	 "Tm": 483.15, 
	 "num_atms": 26, 
	 "gaussian": { 
		 "optdone": 1, 
		 "sigma_profile": "yes", 
		 "theory": "DFT", 
		 "functional": "B3LYP", 
		 "basiset": "6-31G**", 
		 "properties": { 
			 "R2extent": 4551.1927, 
			 "electric_dipole_moment_norm": 4.67441556133, 
			 "electric_quadrupole_moment_norm": 24.7870324073, 
			 "total_energy": -723.26842035, 
			 "HOMO_LUMO_gap": 0.18342, 
			 "cosmo_polarized_energy": -13.78, 
			 "cosmo_cavitation_energy": 30.53, 
			 "cosmo_dispersion_energy": -22.12, 
			 "cosmo_repulsion_energy": 1.72, 
			 "cosmo_total_nonelectrostatic_energy": 10.13, 
			 "SMD_solvation_energy": 3.76 
		},
		"coords": [
			{
				"x": -0.6815276217,
				"y": -2.6609237663,
				"z": 2.3356120934,
				"element": "C" 
			},
			{
				"x": -1.4177395573,
				"y": -1.7172939649,
				"z": 1.4269882917,
				"element": "C" 
			},
			{
				"x": -2.7371280763,
				"y": -1.9354084184,
				"z": 1.2607131131,
				"element": "N" 
			},
			{
				"x": -3.3809910172,
				"y": -1.0518478797,
				"z": 0.5062550275,
				"element": "C" 
			},
			{
				"x": -2.7614039209,
				"y": 0.04424283,
				"z": -0.1177232083,
				"element": "C" 
			},
			{
				"x": -3.6905897924,
				"y": 1.0022841915,
				"z": -0.8114461196,
				"element": "C" 
			},
			{
				"x": -3.2987428133,
				"y": 2.2889913409,
				"z": -0.9491288355,
				"element": "O" 
			},
			{
				"x": -4.7914716721,
				"y": 0.6641182941,
				"z": -1.1828926412,
				"element": "O" 
			},
			{
				"x": -1.3611859233,
				"y": 0.1214685589,
				"z": 0.0339122092,
				"element": "C" 
			},
			{
				"x": -0.7150769917,
				"y": -0.7469912263,
				"z": 0.835146552,
				"element": "N" 
			},
			{
				"x": -0.4805837865,
				"y": 1.1043882956,
				"z": -0.6580792659,
				"element": "C" 
			},
			{
				"x": -0.6468914636,
				"y": 1.4144794012,
				"z": -2.0196477827,
				"element": "C" 
			},
			{
				"x": 0.2283400635,
				"y": 2.2961018966,
				"z": -2.6541886435,
				"element": "C" 
			},
			{
				"x": 1.2752215318,
				"y": 2.8801416195,
				"z": -1.9393814625,
				"element": "C" 
			},
			{
				"x": 1.4550222352,
				"y": 2.5696205416,
				"z": -0.5885324364,
				"element": "C" 
			},
			{
				"x": 0.5918416406,
				"y": 1.679906969,
				"z": 0.0456594065,
				"element": "C" 
			},
			{
				"x": -0.7125293862,
				"y": -3.675380226,
				"z": 1.9236069522,
				"element": "H" 
			},
			{
				"x": -1.1708771087,
				"y": -2.7011698783,
				"z": 3.3135425326,
				"element": "H" 
			},
			{
				"x": 0.3570623806,
				"y": -2.3501329669,
				"z": 2.4506691709,
				"element": "H" 
			},
			{
				"x": -4.4529496079,
				"y": -1.1831551772,
				"z": 0.379807046,
				"element": "H" 
			},
			{
				"x": -2.3839242238,
				"y": 2.4094347612,
				"z": -0.6501331207,
				"element": "H" 
			},
			{
				"x": -1.4441473054,
				"y": 0.9469214965,
				"z": -2.5889009827,
				"element": "H" 
			},
			{
				"x": 0.0948182773,
				"y": 2.5187414331,
				"z": -3.7083371772,
				"element": "H" 
			},
			{
				"x": 1.9529813053,
				"y": 3.5694762237,
				"z": -2.4342145017,
				"element": "H" 
			},
			{
				"x": 2.2723512842,
				"y": 3.0173204267,
				"z": -0.031109523,
				"element": "H" 
			},
			{
				"x": 0.7365215498,
				"y": 1.4128652236,
				"z": 1.0868033058,
				"element": "H" 
			}
		],
		 "valence_orbital": [ 
			{
				"type": "occ",
				"energy": -0.29205,
				"method": "rhf"
			},
			{
				"type": "occ",
				"energy": -0.27524,
				"method": "rhf"
			},
			{
				"type": "occ",
				"energy": -0.27302,
				"method": "rhf"
			},
			{
				"type": "occ",
				"energy": -0.26499,
				"method": "rhf"
			},
			{
				"type": "occ",
				"energy": -0.2581,
				"method": "rhf"
			},
			{
				"type": "unocc",
				"energy": -0.07468,
				"method": "rhf"
			},
			{
				"type": "unocc",
				"energy": -0.05373,
				"method": "rhf"
			},
			{
				"type": "unocc",
				"energy": -0.0236,
				"method": "rhf"
			},
			{
				"type": "unocc",
				"energy": -0.00918,
				"method": "rhf"
			},
			{
				"type": "unocc",
				"energy": 0.02972,
				"method": "rhf"
			}
		],
		"cosmo_sigma_profile": { 
			"-0.025": 0.0,
			"-0.024": 0.0,
			"-0.023": 0.0,
			"-0.022": 0.0,
			"-0.021": 0.0,
			"-0.02": 0.0,
			"-0.019": 0.0,
			"-0.018": 0.0,
			"-0.017": 0.0,
			"-0.016": 0.0,
			"-0.015": 0.0353731067431,
			"-0.014": 0.996478957218,
			"-0.013": 1.12609222419,
			"-0.012": 0.830701468019,
			"-0.011": 0.753243390008,
			"-0.01": 0.61149991801,
			"-0.009": 0.800835886377,
			"-0.008": 2.88000846794,
			"-0.007": 6.98688901072,
			"-0.006": 13.8491895781,
			"-0.005": 20.1348435674,
			"-0.004": 21.3655870423,
			"-0.003": 22.1435050114,
			"-0.002": 21.1273861339,
			"-0.001": 20.5719719801,
			"0.0": 13.3841697554,
			"0.001": 14.6311991279,
			"0.002": 12.606851099,
			"0.003": 13.7511778168,
			"0.004": 10.8955941251,
			"0.005": 5.86074839624,
			"0.006": 4.07937301846,
			"0.007": 4.98422377447,
			"0.008": 4.97365295858,
			"0.009": 4.68353076284,
			"0.01": 7.40605459159,
			"0.011": 6.74724690295,
			"0.012": 4.24209100727,
			"0.013": 1.70782480515,
			"0.014": 0.495723636204,
			"0.015": 0.480825258619,
			"0.016": 0.0,
			"0.017": 0.0,
			"0.018": 0.0,
			"0.019": 0.0,
			"0.02": 0.0,
			"0.021": 0.0,
			"0.022": 0.0,
			"0.023": 0.0,
			"0.024": 0.0,
			"0.025": 0.0
		}
	}
}
