{
	 "smiles": "CC1=C2NC(=O)C(C=C3/C(=O)N(N=C3C3=CC=CC=C3)C3=CC=CC=C3)=C(O)C2=CC=C1", 
	 "Tm": 386.15, 
	 "num_atms": 51, 
	 "gaussian": { 
		 "optdone": 1, 
		 "sigma_profile": "yes", 
		 "theory": "DFT", 
		 "functional": "B3LYP", 
		 "basiset": "6-31G**", 
		 "properties": { 
			 "R2extent": 17235.1298, 
			 "electric_dipole_moment_norm": 4.00739632804, 
			 "electric_quadrupole_moment_norm": 31.4170723033, 
			 "total_energy": -1392.17951213, 
			 "HOMO_LUMO_gap": 0.11425, 
			 "cosmo_polarized_energy": -17.05, 
			 "cosmo_cavitation_energy": 54.82, 
			 "cosmo_dispersion_energy": -39.27, 
			 "cosmo_repulsion_energy": 2.85, 
			 "cosmo_total_nonelectrostatic_energy": 18.41, 
			 "SMD_solvation_energy": 9.13 
		},
		"coords": [
			{
				"x": 0.3624716734,
				"y": -0.0042367594,
				"z": -6.7132441015,
				"element": "C" 
			},
			{
				"x": -0.344081104,
				"y": -0.8424963143,
				"z": -5.6762603798,
				"element": "C" 
			},
			{
				"x": -0.1863652799,
				"y": -0.5684846773,
				"z": -4.2975311707,
				"element": "C" 
			},
			{
				"x": 0.6166429669,
				"y": 0.4697717713,
				"z": -3.8748048694,
				"element": "N" 
			},
			{
				"x": 0.8295847639,
				"y": 0.8545309199,
				"z": -2.5580016267,
				"element": "C" 
			},
			{
				"x": 1.5363115053,
				"y": 1.8335164418,
				"z": -2.3296974364,
				"element": "O" 
			},
			{
				"x": 0.1652806405,
				"y": 0.0346772504,
				"z": -1.512787804,
				"element": "C" 
			},
			{
				"x": 0.3191992847,
				"y": 0.5983962356,
				"z": -0.2131011109,
				"element": "C" 
			},
			{
				"x": 0.0845912744,
				"y": 0.2057149646,
				"z": 1.0896449698,
				"element": "C" 
			},
			{
				"x": -0.1230086628,
				"y": -1.1231785667,
				"z": 1.6563317511,
				"element": "C" 
			},
			{
				"x": -0.298044312,
				"y": -2.2232306582,
				"z": 1.0662643242,
				"element": "O" 
			},
			{
				"x": -0.0237722586,
				"y": -0.9648876451,
				"z": 3.0142205121,
				"element": "N" 
			},
			{
				"x": 0.1976366713,
				"y": 0.364238426,
				"z": 3.3716507317,
				"element": "N" 
			},
			{
				"x": 0.2675483995,
				"y": 1.0550711863,
				"z": 2.2638778446,
				"element": "C" 
			},
			{
				"x": 0.5086116396,
				"y": 2.5079354436,
				"z": 2.320765661,
				"element": "C" 
			},
			{
				"x": 1.3563640938,
				"y": 3.0279522309,
				"z": 3.3143672294,
				"element": "C" 
			},
			{
				"x": 1.5824613768,
				"y": 4.3985104689,
				"z": 3.4034779311,
				"element": "C" 
			},
			{
				"x": 0.9678104401,
				"y": 5.2732057065,
				"z": 2.502964051,
				"element": "C" 
			},
			{
				"x": 0.1181102278,
				"y": 4.76810689,
				"z": 1.5184774843,
				"element": "C" 
			},
			{
				"x": -0.1139803881,
				"y": 3.3955728406,
				"z": 1.4275615346,
				"element": "C" 
			},
			{
				"x": -0.1533387036,
				"y": -1.9335394049,
				"z": 4.0482981291,
				"element": "C" 
			},
			{
				"x": -0.2136981548,
				"y": -1.4904281481,
				"z": 5.3777548626,
				"element": "C" 
			},
			{
				"x": -0.3375774453,
				"y": -2.4180663834,
				"z": 6.4090536789,
				"element": "C" 
			},
			{
				"x": -0.4037169271,
				"y": -3.7851922128,
				"z": 6.1340343045,
				"element": "C" 
			},
			{
				"x": -0.3417144445,
				"y": -4.216692361,
				"z": 4.8090039002,
				"element": "C" 
			},
			{
				"x": -0.2146811916,
				"y": -3.3052725315,
				"z": 3.7607615637,
				"element": "C" 
			},
			{
				"x": -0.6514397997,
				"y": -1.0539377425,
				"z": -1.9085002183,
				"element": "C" 
			},
			{
				"x": -1.3248332502,
				"y": -1.812591562,
				"z": -1.0916208366,
				"element": "O" 
			},
			{
				"x": -0.8419561089,
				"y": -1.3498833658,
				"z": -3.3218557577,
				"element": "C" 
			},
			{
				"x": -1.6643990197,
				"y": -2.4178678448,
				"z": -3.7327522197,
				"element": "C" 
			},
			{
				"x": -1.8290148701,
				"y": -2.6918880312,
				"z": -5.0783943493,
				"element": "C" 
			},
			{
				"x": -1.1691061278,
				"y": -1.9039548686,
				"z": -6.0350017411,
				"element": "C" 
			},
			{
				"x": 0.1285365748,
				"y": -0.3571384718,
				"z": -7.7200792072,
				"element": "H" 
			},
			{
				"x": 1.4534717183,
				"y": -0.0436161157,
				"z": -6.5986020854,
				"element": "H" 
			},
			{
				"x": 0.0652078895,
				"y": 1.0512444955,
				"z": -6.6602826761,
				"element": "H" 
			},
			{
				"x": 1.0890750073,
				"y": 1.0549971086,
				"z": -4.5501223185,
				"element": "H" 
			},
			{
				"x": 0.7508583234,
				"y": 1.5950917655,
				"z": -0.2932359601,
				"element": "H" 
			},
			{
				"x": 1.8342073616,
				"y": 2.3416255846,
				"z": 4.0053175806,
				"element": "H" 
			},
			{
				"x": 2.2446048571,
				"y": 4.7858451597,
				"z": 4.1725013368,
				"element": "H" 
			},
			{
				"x": 1.1495714541,
				"y": 6.3419148424,
				"z": 2.5703519809,
				"element": "H" 
			},
			{
				"x": -0.3721887083,
				"y": 5.4421655122,
				"z": 0.8223505181,
				"element": "H" 
			},
			{
				"x": -0.8025359324,
				"y": 3.0167031071,
				"z": 0.6796047512,
				"element": "H" 
			},
			{
				"x": -0.1610803014,
				"y": -0.4295303343,
				"z": 5.5834382392,
				"element": "H" 
			},
			{
				"x": -0.3841186552,
				"y": -2.0646517618,
				"z": 7.4351639473,
				"element": "H" 
			},
			{
				"x": -0.5014252131,
				"y": -4.504077501,
				"z": 6.9419771597,
				"element": "H" 
			},
			{
				"x": -0.389010842,
				"y": -5.2772403452,
				"z": 4.5788342211,
				"element": "H" 
			},
			{
				"x": -0.1664676223,
				"y": -3.6455384305,
				"z": 2.7365465286,
				"element": "H" 
			},
			{
				"x": -0.8753109813,
				"y": -1.9668297233,
				"z": -0.1372806361,
				"element": "H" 
			},
			{
				"x": -2.1551443775,
				"y": -3.0098885819,
				"z": -2.969839746,
				"element": "H" 
			},
			{
				"x": -2.462019095,
				"y": -3.5134082796,
				"z": -5.397495963,
				"element": "H" 
			},
			{
				"x": -1.3004283666,
				"y": -2.1249397291,
				"z": -7.091204513,
				"element": "H" 
			}
		],
		 "valence_orbital": [ 
			{
				"type": "occ",
				"energy": -0.25085,
				"method": "rhf"
			},
			{
				"type": "occ",
				"energy": -0.24657,
				"method": "rhf"
			},
			{
				"type": "occ",
				"energy": -0.23442,
				"method": "rhf"
			},
			{
				"type": "occ",
				"energy": -0.2244,
				"method": "rhf"
			},
			{
				"type": "occ",
				"energy": -0.211,
				"method": "rhf"
			},
			{
				"type": "unocc",
				"energy": -0.09675,
				"method": "rhf"
			},
			{
				"type": "unocc",
				"energy": -0.03823,
				"method": "rhf"
			},
			{
				"type": "unocc",
				"energy": -0.02803,
				"method": "rhf"
			},
			{
				"type": "unocc",
				"energy": -0.0121,
				"method": "rhf"
			},
			{
				"type": "unocc",
				"energy": -0.00395,
				"method": "rhf"
			}
		],
		"cosmo_sigma_profile": { 
			"-0.025": 0.0,
			"-0.024": 0.0,
			"-0.023": 0.0,
			"-0.022": 0.0,
			"-0.021": 0.0,
			"-0.02": 0.0,
			"-0.019": 0.0,
			"-0.018": 0.0,
			"-0.017": 0.0,
			"-0.016": 0.0,
			"-0.015": 0.0,
			"-0.014": 0.279539438089,
			"-0.013": 1.05176479488,
			"-0.012": 1.22985015172,
			"-0.011": 1.05859646431,
			"-0.01": 1.187705344,
			"-0.009": 1.75396928203,
			"-0.008": 1.19841249375,
			"-0.007": 4.66465898267,
			"-0.006": 21.872825571,
			"-0.005": 30.78165978,
			"-0.004": 34.7299852288,
			"-0.003": 35.2417647303,
			"-0.002": 36.1468349424,
			"-0.001": 40.6340568084,
			"0.0": 39.0440504225,
			"0.001": 32.3842482979,
			"0.002": 34.1565843985,
			"0.003": 32.6551880342,
			"0.004": 35.2412110806,
			"0.005": 22.9464755463,
			"0.006": 8.8262611916,
			"0.007": 5.92325608718,
			"0.008": 4.16293867543,
			"0.009": 3.11726670168,
			"0.01": 1.54326390896,
			"0.011": 1.54223438592,
			"0.012": 2.46854153481,
			"0.013": 5.04826321168,
			"0.014": 1.23192028928,
			"0.015": 0.0,
			"0.016": 0.0,
			"0.017": 0.0,
			"0.018": 0.0,
			"0.019": 0.0,
			"0.02": 0.0,
			"0.021": 0.0,
			"0.022": 0.0,
			"0.023": 0.0,
			"0.024": 0.0,
			"0.025": 0.0
		}
	}
}
