{
	 "smiles": "O=P(C1CCCCC1)(C1CCCCC1)C1CCCCC1", 
	 "Tm": 429.15, 
	 "num_atms": 53, 
	 "gaussian": { 
		 "optdone": 1, 
		 "sigma_profile": "yes", 
		 "theory": "DFT", 
		 "functional": "B3LYP", 
		 "basiset": "6-31G**", 
		 "properties": { 
			 "R2extent": 7021.428, 
			 "electric_dipole_moment_norm": 3.3456963072, 
			 "electric_quadrupole_moment_norm": 7.27814144545, 
			 "total_energy": -1122.43413848, 
			 "HOMO_LUMO_gap": 0.29234, 
			 "cosmo_polarized_energy": -11.79, 
			 "cosmo_cavitation_energy": 45.5, 
			 "cosmo_dispersion_energy": -32.15, 
			 "cosmo_repulsion_energy": 2.43, 
			 "cosmo_total_nonelectrostatic_energy": 15.79, 
			 "SMD_solvation_energy": 5.55 
		},
		"coords": [
			{
				"x": 0.5302926114,
				"y": -0.6715294936,
				"z": -1.9852443598,
				"element": "O" 
			},
			{
				"x": -0.1895440784,
				"y": 0.1948968567,
				"z": -0.9742455254,
				"element": "P" 
			},
			{
				"x": 1.0165248644,
				"y": 1.0550733828,
				"z": 0.205117675,
				"element": "C" 
			},
			{
				"x": 0.4729983558,
				"y": 1.5740093218,
				"z": 1.5606975508,
				"element": "C" 
			},
			{
				"x": 0.6238927644,
				"y": 0.5936082709,
				"z": 2.7345633553,
				"element": "C" 
			},
			{
				"x": 2.0676868796,
				"y": 0.083615779,
				"z": 2.8558045819,
				"element": "C" 
			},
			{
				"x": 2.537367079,
				"y": -0.583941022,
				"z": 1.5552087568,
				"element": "C" 
			},
			{
				"x": 2.3894164172,
				"y": 0.3463589658,
				"z": 0.3419989203,
				"element": "C" 
			},
			{
				"x": -0.937782234,
				"y": 1.7233298614,
				"z": -1.779654913,
				"element": "C" 
			},
			{
				"x": -2.2717252474,
				"y": 1.5304241301,
				"z": -2.5497144257,
				"element": "C" 
			},
			{
				"x": -2.460066032,
				"y": 2.610122804,
				"z": -3.6266724401,
				"element": "C" 
			},
			{
				"x": -1.4001487523,
				"y": 2.47958958,
				"z": -4.7420697819,
				"element": "C" 
			},
			{
				"x": -0.0685103866,
				"y": 1.92505267,
				"z": -4.1900295606,
				"element": "C" 
			},
			{
				"x": 0.148597055,
				"y": 2.3381827805,
				"z": -2.7283433074,
				"element": "C" 
			},
			{
				"x": -1.4618098006,
				"y": -0.7494284581,
				"z": 0.0364607905,
				"element": "C" 
			},
			{
				"x": -0.8521632892,
				"y": -2.0558923089,
				"z": 0.6171437033,
				"element": "C" 
			},
			{
				"x": -0.6849350318,
				"y": -3.1794927407,
				"z": -0.4210947234,
				"element": "C" 
			},
			{
				"x": -2.0020779724,
				"y": -3.4892596893,
				"z": -1.1454293714,
				"element": "C" 
			},
			{
				"x": -2.6081088143,
				"y": -2.2147992829,
				"z": -1.7499164347,
				"element": "C" 
			},
			{
				"x": -2.7844554597,
				"y": -1.1309699207,
				"z": -0.6745347656,
				"element": "C" 
			},
			{
				"x": 1.2206670409,
				"y": 1.9502091098,
				"z": -0.3918691319,
				"element": "H" 
			},
			{
				"x": 1.0411341038,
				"y": 2.480864465,
				"z": 1.8118929524,
				"element": "H" 
			},
			{
				"x": -0.5708448961,
				"y": 1.9001718591,
				"z": 1.4665294501,
				"element": "H" 
			},
			{
				"x": 0.3208707523,
				"y": 1.0964179662,
				"z": 3.6610703169,
				"element": "H" 
			},
			{
				"x": -0.0544298765,
				"y": -0.2587170475,
				"z": 2.6132461753,
				"element": "H" 
			},
			{
				"x": 2.7291472884,
				"y": 0.9311619342,
				"z": 3.0875814184,
				"element": "H" 
			},
			{
				"x": 2.1527733907,
				"y": -0.615812696,
				"z": 3.6959974316,
				"element": "H" 
			},
			{
				"x": 1.9755007488,
				"y": -1.5110904106,
				"z": 1.39405482,
				"element": "H" 
			},
			{
				"x": 3.5881924055,
				"y": -0.8849143295,
				"z": 1.6447158303,
				"element": "H" 
			},
			{
				"x": 3.1492923965,
				"y": 1.1354533065,
				"z": 0.4320821141,
				"element": "H" 
			},
			{
				"x": 2.6058307968,
				"y": -0.1952672783,
				"z": -0.5842278538,
				"element": "H" 
			},
			{
				"x": -1.1211091758,
				"y": 2.433353837,
				"z": -0.9614952338,
				"element": "H" 
			},
			{
				"x": -2.3021227858,
				"y": 0.5468889323,
				"z": -3.0326998473,
				"element": "H" 
			},
			{
				"x": -3.1108195415,
				"y": 1.5662035705,
				"z": -1.8491198553,
				"element": "H" 
			},
			{
				"x": -3.4698173582,
				"y": 2.5447743485,
				"z": -4.0475549197,
				"element": "H" 
			},
			{
				"x": -2.3914775818,
				"y": 3.5987429395,
				"z": -3.1538960227,
				"element": "H" 
			},
			{
				"x": -1.2404339804,
				"y": 3.4591285498,
				"z": -5.2087045047,
				"element": "H" 
			},
			{
				"x": -1.7711983545,
				"y": 1.8184724058,
				"z": -5.5342838674,
				"element": "H" 
			},
			{
				"x": 0.7711410609,
				"y": 2.2721540311,
				"z": -4.8023967891,
				"element": "H" 
			},
			{
				"x": -0.0518723926,
				"y": 0.8313692219,
				"z": -4.2366285436,
				"element": "H" 
			},
			{
				"x": 1.1576010457,
				"y": 2.0438280497,
				"z": -2.4274038297,
				"element": "H" 
			},
			{
				"x": 0.1094292019,
				"y": 3.4319941561,
				"z": -2.6451866598,
				"element": "H" 
			},
			{
				"x": -1.711036606,
				"y": -0.0812117972,
				"z": 0.8719429392,
				"element": "H" 
			},
			{
				"x": -1.5322343402,
				"y": -2.3966219736,
				"z": 1.4118850966,
				"element": "H" 
			},
			{
				"x": 0.105720414,
				"y": -1.8617311132,
				"z": 1.1021123373,
				"element": "H" 
			},
			{
				"x": 0.0688792367,
				"y": -2.8737237338,
				"z": -1.1529469777,
				"element": "H" 
			},
			{
				"x": -0.3111149436,
				"y": -4.0783694361,
				"z": 0.0849841133,
				"element": "H" 
			},
			{
				"x": -2.7206317804,
				"y": -3.9269203308,
				"z": -0.4362602908,
				"element": "H" 
			},
			{
				"x": -1.8361994776,
				"y": -4.2407079104,
				"z": -1.9264401344,
				"element": "H" 
			},
			{
				"x": -1.9493907852,
				"y": -1.8461122977,
				"z": -2.5455124198,
				"element": "H" 
			},
			{
				"x": -3.5799920115,
				"y": -2.4339091472,
				"z": -2.2090857957,
				"element": "H" 
			},
			{
				"x": -3.2895747094,
				"y": -0.2564459952,
				"z": -1.0829669224,
				"element": "H" 
			},
			{
				"x": -3.4524282135,
				"y": -1.524984673,
				"z": 0.1060388791,
				"element": "H" 
			}
		],
		 "valence_orbital": [ 
			{
				"type": "occ",
				"energy": -0.29645,
				"method": "rhf"
			},
			{
				"type": "occ",
				"energy": -0.29421,
				"method": "rhf"
			},
			{
				"type": "occ",
				"energy": -0.28768,
				"method": "rhf"
			},
			{
				"type": "occ",
				"energy": -0.23702,
				"method": "rhf"
			},
			{
				"type": "occ",
				"energy": -0.23523,
				"method": "rhf"
			},
			{
				"type": "unocc",
				"energy": 0.05711,
				"method": "rhf"
			},
			{
				"type": "unocc",
				"energy": 0.07159,
				"method": "rhf"
			},
			{
				"type": "unocc",
				"energy": 0.07412,
				"method": "rhf"
			},
			{
				"type": "unocc",
				"energy": 0.08133,
				"method": "rhf"
			},
			{
				"type": "unocc",
				"energy": 0.08944,
				"method": "rhf"
			}
		],
		"cosmo_sigma_profile": { 
			"-0.025": 0.0,
			"-0.024": 0.0,
			"-0.023": 0.0,
			"-0.022": 0.0,
			"-0.021": 0.0,
			"-0.02": 0.0,
			"-0.019": 0.0,
			"-0.018": 0.0,
			"-0.017": 0.0,
			"-0.016": 0.0,
			"-0.015": 0.0,
			"-0.014": 0.0,
			"-0.013": 0.0,
			"-0.012": 0.0,
			"-0.011": 0.0,
			"-0.01": 0.0,
			"-0.009": 0.0,
			"-0.008": 0.282390839654,
			"-0.007": 0.818556715689,
			"-0.006": 1.0450366408,
			"-0.005": 3.19897289793,
			"-0.004": 12.4410610948,
			"-0.003": 25.8753184129,
			"-0.002": 64.7553649361,
			"-0.001": 69.6517412463,
			"0.0": 70.8597863636,
			"0.001": 49.9529967477,
			"0.002": 17.2558733766,
			"0.003": 3.07117058319,
			"0.004": 2.53037886528,
			"0.005": 2.42357145732,
			"0.006": 1.8491247225,
			"0.007": 2.19294804765,
			"0.008": 1.73653512937,
			"0.009": 2.24939435156,
			"0.01": 2.12874804648,
			"0.011": 2.34707417258,
			"0.012": 1.07634791376,
			"0.013": 1.54139917778,
			"0.014": 1.41335427215,
			"0.015": 1.52161979693,
			"0.016": 1.83918787033,
			"0.017": 2.02796665083,
			"0.018": 0.0980009412041,
			"0.019": 0.0,
			"0.02": 0.0,
			"0.021": 0.0,
			"0.022": 0.0,
			"0.023": 0.0,
			"0.024": 0.0,
			"0.025": 0.0
		}
	}
}
