{
	 "smiles": "OC(=O)C1=C(Br)C=CC(=C1)S(=O)(=O)N1CCCC1", 
	 "Tm": 490.15, 
	 "num_atms": 30, 
	 "gaussian": { 
		 "optdone": 1, 
		 "sigma_profile": "yes", 
		 "theory": "DFT", 
		 "functional": "B3LYP", 
		 "basiset": "6-31G**", 
		 "properties": { 
			 "R2extent": 9091.6057, 
			 "electric_dipole_moment_norm": 4.61193862058, 
			 "electric_quadrupole_moment_norm": 17.1158255761, 
			 "total_energy": -3751.57723191, 
			 "HOMO_LUMO_gap": 0.17478, 
			 "cosmo_polarized_energy": -17.29, 
			 "cosmo_cavitation_energy": 37.11, 
			 "cosmo_dispersion_energy": -27.21, 
			 "cosmo_repulsion_energy": 2.08, 
			 "cosmo_total_nonelectrostatic_energy": 11.97, 
			 "SMD_solvation_energy": 4.74 
		},
		"coords": [
			{
				"x": 2.372706915,
				"y": -0.822663957,
				"z": 3.6537678331,
				"element": "O" 
			},
			{
				"x": 1.1707530018,
				"y": -1.2811832973,
				"z": 4.090567585,
				"element": "C" 
			},
			{
				"x": 1.0424332322,
				"y": -1.795205927,
				"z": 5.1795659474,
				"element": "O" 
			},
			{
				"x": 0.0921866435,
				"y": -1.0564364531,
				"z": 3.0792839221,
				"element": "C" 
			},
			{
				"x": -1.1999547973,
				"y": -1.6091097592,
				"z": 3.1837172538,
				"element": "C" 
			},
			{
				"x": -1.7447471068,
				"y": -2.7693983059,
				"z": 4.5885994962,
				"element": "Br" 
			},
			{
				"x": -2.1720678388,
				"y": -1.3281327567,
				"z": 2.2178956391,
				"element": "C" 
			},
			{
				"x": -1.8806055859,
				"y": -0.5057143579,
				"z": 1.1357158367,
				"element": "C" 
			},
			{
				"x": -0.5983166756,
				"y": 0.0337938907,
				"z": 1.0177649855,
				"element": "C" 
			},
			{
				"x": 0.3721788415,
				"y": -0.2301707466,
				"z": 1.9763693023,
				"element": "C" 
			},
			{
				"x": -0.1926044187,
				"y": 1.0679783573,
				"z": -0.3988380416,
				"element": "S" 
			},
			{
				"x": 0.9531434023,
				"y": 1.8913538737,
				"z": -0.0015076255,
				"element": "O" 
			},
			{
				"x": -1.4536468533,
				"y": 1.6515040158,
				"z": -0.8670953578,
				"element": "O" 
			},
			{
				"x": 0.3262086322,
				"y": 0.0032731118,
				"z": -1.5591896071,
				"element": "N" 
			},
			{
				"x": -0.4947882497,
				"y": -0.3617713248,
				"z": -2.7345401158,
				"element": "C" 
			},
			{
				"x": 0.5629339651,
				"y": -0.6034620606,
				"z": -3.8214815796,
				"element": "C" 
			},
			{
				"x": 1.774540272,
				"y": -1.1255482312,
				"z": -3.030542185,
				"element": "C" 
			},
			{
				"x": 1.7665586762,
				"y": -0.2738732869,
				"z": -1.7513595015,
				"element": "C" 
			},
			{
				"x": 2.9926766037,
				"y": -0.9830609696,
				"z": 4.3838809513,
				"element": "H" 
			},
			{
				"x": -3.1611784107,
				"y": -1.7569387892,
				"z": 2.32711681,
				"element": "H" 
			},
			{
				"x": -2.6416021449,
				"y": -0.2673926303,
				"z": 0.4005851647,
				"element": "H" 
			},
			{
				"x": 1.3504192945,
				"y": 0.2246215725,
				"z": 1.8887248181,
				"element": "H" 
			},
			{
				"x": -1.1947986178,
				"y": 0.4385977196,
				"z": -2.9778903883,
				"element": "H" 
			},
			{
				"x": -1.0699133441,
				"y": -1.275104929,
				"z": -2.5295120471,
				"element": "H" 
			},
			{
				"x": 0.8126418034,
				"y": 0.3438028535,
				"z": -4.3119652557,
				"element": "H" 
			},
			{
				"x": 0.2166822856,
				"y": -1.3011968824,
				"z": -4.5887147177,
				"element": "H" 
			},
			{
				"x": 1.6320832005,
				"y": -2.182303253,
				"z": -2.7782917021,
				"element": "H" 
			},
			{
				"x": 2.7182842952,
				"y": -1.034751683,
				"z": -3.5747695093,
				"element": "H" 
			},
			{
				"x": 2.3247189736,
				"y": 0.6600058415,
				"z": -1.8756238208,
				"element": "H" 
			},
			{
				"x": 2.1830740053,
				"y": -0.8073116359,
				"z": -0.8903340903,
				"element": "H" 
			}
		],
		 "valence_orbital": [ 
			{
				"type": "occ",
				"energy": -0.30375,
				"method": "rhf"
			},
			{
				"type": "occ",
				"energy": -0.28698,
				"method": "rhf"
			},
			{
				"type": "occ",
				"energy": -0.2696,
				"method": "rhf"
			},
			{
				"type": "occ",
				"energy": -0.2687,
				"method": "rhf"
			},
			{
				"type": "occ",
				"energy": -0.24545,
				"method": "rhf"
			},
			{
				"type": "unocc",
				"energy": -0.07067,
				"method": "rhf"
			},
			{
				"type": "unocc",
				"energy": -0.04477,
				"method": "rhf"
			},
			{
				"type": "unocc",
				"energy": -0.00216,
				"method": "rhf"
			},
			{
				"type": "unocc",
				"energy": 0.02817,
				"method": "rhf"
			},
			{
				"type": "unocc",
				"energy": 0.06131,
				"method": "rhf"
			}
		],
		"cosmo_sigma_profile": { 
			"-0.025": 0.0,
			"-0.024": 0.0,
			"-0.023": 0.0,
			"-0.022": 0.0,
			"-0.021": 0.0,
			"-0.02": 0.0,
			"-0.019": 0.158515040686,
			"-0.018": 0.850670425274,
			"-0.017": 1.10771306552,
			"-0.016": 0.792124587965,
			"-0.015": 0.914919753597,
			"-0.014": 0.593806998941,
			"-0.013": 0.36943960231,
			"-0.012": 0.776691087533,
			"-0.011": 1.16673660247,
			"-0.01": 0.482188088987,
			"-0.009": 0.766917619881,
			"-0.008": 4.04436376656,
			"-0.007": 5.23591010609,
			"-0.006": 4.614735048,
			"-0.005": 11.0473259561,
			"-0.004": 29.9428574392,
			"-0.003": 38.5170584785,
			"-0.002": 32.7945424479,
			"-0.001": 30.5537412497,
			"0.0": 28.8699405408,
			"0.001": 15.092763133,
			"0.002": 11.1982079567,
			"0.003": 13.0002902202,
			"0.004": 10.6082892065,
			"0.005": 7.09798633171,
			"0.006": 5.3197085703,
			"0.007": 5.5659099678,
			"0.008": 5.36565162622,
			"0.009": 5.2551393839,
			"0.01": 9.75570655855,
			"0.011": 12.2809346755,
			"0.012": 3.86020111163,
			"0.013": 0.0,
			"0.014": 0.0,
			"0.015": 0.0,
			"0.016": 0.0,
			"0.017": 0.0,
			"0.018": 0.0,
			"0.019": 0.0,
			"0.02": 0.0,
			"0.021": 0.0,
			"0.022": 0.0,
			"0.023": 0.0,
			"0.024": 0.0,
			"0.025": 0.0
		}
	}
}
