{
	 "smiles": "CC(=O)C1=CC(F)=C(C=C1)C#N", 
	 "Tm": 336.15, 
	 "num_atms": 18, 
	 "gaussian": { 
		 "optdone": 1, 
		 "sigma_profile": "yes", 
		 "theory": "DFT", 
		 "functional": "B3LYP", 
		 "basiset": "6-31G**", 
		 "properties": { 
			 "R2extent": 2854.7348, 
			 "electric_dipole_moment_norm": 4.77707740046, 
			 "electric_quadrupole_moment_norm": 23.563661043, 
			 "total_energy": -576.365347766, 
			 "HOMO_LUMO_gap": 0.17724, 
			 "cosmo_polarized_energy": -12.31, 
			 "cosmo_cavitation_energy": 24.57, 
			 "cosmo_dispersion_energy": -17.09, 
			 "cosmo_repulsion_energy": 1.33, 
			 "cosmo_total_nonelectrostatic_energy": 8.81, 
			 "SMD_solvation_energy": 6.84 
		},
		"coords": [
			{
				"x": 0.4020859858,
				"y": -2.0727064402,
				"z": 1.5180014895,
				"element": "C" 
			},
			{
				"x": 0.2099176593,
				"y": -1.4687832742,
				"z": 0.1404324108,
				"element": "C" 
			},
			{
				"x": 0.5728017783,
				"y": -2.0576727413,
				"z": -0.8639530739,
				"element": "O" 
			},
			{
				"x": -0.4428952202,
				"y": -0.1151216024,
				"z": 0.0239354665,
				"element": "C" 
			},
			{
				"x": -0.6047893037,
				"y": 0.4134783901,
				"z": -1.2638848351,
				"element": "C" 
			},
			{
				"x": -1.1986480782,
				"y": 1.6526125257,
				"z": -1.4198761973,
				"element": "C" 
			},
			{
				"x": -1.356343764,
				"y": 2.1635613545,
				"z": -2.6481662445,
				"element": "F" 
			},
			{
				"x": -1.6466807099,
				"y": 2.4005978474,
				"z": -0.3185272991,
				"element": "C" 
			},
			{
				"x": -1.4802161301,
				"y": 1.8626869191,
				"z": 0.9688562507,
				"element": "C" 
			},
			{
				"x": -0.8841448063,
				"y": 0.6172350823,
				"z": 1.137044279,
				"element": "C" 
			},
			{
				"x": -2.2570666118,
				"y": 3.6794147165,
				"z": -0.5131074282,
				"element": "C" 
			},
			{
				"x": -2.7556755891,
				"y": 4.720778768,
				"z": -0.6507745666,
				"element": "N" 
			},
			{
				"x": 1.0243240369,
				"y": -1.4262610916,
				"z": 2.1468034577,
				"element": "H" 
			},
			{
				"x": -0.5589475391,
				"y": -2.1997147398,
				"z": 2.0286276305,
				"element": "H" 
			},
			{
				"x": 0.8847143408,
				"y": -3.0439565513,
				"z": 1.4087894057,
				"element": "H" 
			},
			{
				"x": -0.264654275,
				"y": -0.1507064102,
				"z": -2.1245427242,
				"element": "H" 
			},
			{
				"x": -1.8231598428,
				"y": 2.4332447713,
				"z": 1.8249545055,
				"element": "H" 
			},
			{
				"x": -0.765521931,
				"y": 0.221012476,
				"z": 2.138987473,
				"element": "H" 
			}
		],
		 "valence_orbital": [ 
			{
				"type": "occ",
				"energy": -0.35464,
				"method": "rhf"
			},
			{
				"type": "occ",
				"energy": -0.34341,
				"method": "rhf"
			},
			{
				"type": "occ",
				"energy": -0.28719,
				"method": "rhf"
			},
			{
				"type": "occ",
				"energy": -0.27784,
				"method": "rhf"
			},
			{
				"type": "occ",
				"energy": -0.27215,
				"method": "rhf"
			},
			{
				"type": "unocc",
				"energy": -0.09491,
				"method": "rhf"
			},
			{
				"type": "unocc",
				"energy": -0.03577,
				"method": "rhf"
			},
			{
				"type": "unocc",
				"energy": -0.00879,
				"method": "rhf"
			},
			{
				"type": "unocc",
				"energy": 0.02152,
				"method": "rhf"
			},
			{
				"type": "unocc",
				"energy": 0.06722,
				"method": "rhf"
			}
		],
		"cosmo_sigma_profile": { 
			"-0.025": 0.0,
			"-0.024": 0.0,
			"-0.023": 0.0,
			"-0.022": 0.0,
			"-0.021": 0.0,
			"-0.02": 0.0,
			"-0.019": 0.0,
			"-0.018": 0.0,
			"-0.017": 0.0,
			"-0.016": 0.0,
			"-0.015": 0.0,
			"-0.014": 0.0,
			"-0.013": 0.0,
			"-0.012": 0.0,
			"-0.011": 0.0,
			"-0.01": 0.0461380639306,
			"-0.009": 2.22044270521,
			"-0.008": 5.26189214651,
			"-0.007": 12.1436514955,
			"-0.006": 11.0568246014,
			"-0.005": 9.46353251397,
			"-0.004": 12.7696807968,
			"-0.003": 15.0936405751,
			"-0.002": 22.0556832589,
			"-0.001": 19.0043181624,
			"0.0": 15.3809410407,
			"0.001": 9.37239068368,
			"0.002": 9.66786065232,
			"0.003": 12.0706000987,
			"0.004": 4.22352168659,
			"0.005": 4.15855783744,
			"0.006": 3.89797741784,
			"0.007": 4.93989964112,
			"0.008": 5.07656089273,
			"0.009": 4.92378193197,
			"0.01": 5.52525599662,
			"0.011": 6.00698528281,
			"0.012": 3.85732123202,
			"0.013": 0.459033964774,
			"0.014": 0.0,
			"0.015": 0.0,
			"0.016": 0.0,
			"0.017": 0.0,
			"0.018": 0.0,
			"0.019": 0.0,
			"0.02": 0.0,
			"0.021": 0.0,
			"0.022": 0.0,
			"0.023": 0.0,
			"0.024": 0.0,
			"0.025": 0.0
		}
	}
}
