{
	 "smiles": "CC(C)(C)C(=O)NCC(O)=O", 
	 "Tm": 406.15, 
	 "num_atms": 24, 
	 "gaussian": { 
		 "optdone": 1, 
		 "sigma_profile": "yes", 
		 "theory": "DFT", 
		 "functional": "B3LYP", 
		 "basiset": "6-31G**", 
		 "properties": { 
			 "R2extent": 2825.5623, 
			 "electric_dipole_moment_norm": 3.92766225126, 
			 "electric_quadrupole_moment_norm": 12.7709263395, 
			 "total_energy": -555.042849611, 
			 "HOMO_LUMO_gap": 0.25152, 
			 "cosmo_polarized_energy": -15.74, 
			 "cosmo_cavitation_energy": 27.18, 
			 "cosmo_dispersion_energy": -18.85, 
			 "cosmo_repulsion_energy": 1.55, 
			 "cosmo_total_nonelectrostatic_energy": 9.87, 
			 "SMD_solvation_energy": 6.35 
		},
		"coords": [
			{
				"x": -1.611915358,
				"y": 0.8366412697,
				"z": -0.8477306908,
				"element": "C" 
			},
			{
				"x": -0.4614050612,
				"y": -0.1855721515,
				"z": -0.8357215541,
				"element": "C" 
			},
			{
				"x": -0.3579038397,
				"y": -0.8696094521,
				"z": -2.2164755002,
				"element": "C" 
			},
			{
				"x": -0.7246882636,
				"y": -1.251175505,
				"z": 0.2501860623,
				"element": "C" 
			},
			{
				"x": 0.9269500017,
				"y": 0.4239823374,
				"z": -0.5344599238,
				"element": "C" 
			},
			{
				"x": 1.9246162822,
				"y": -0.2869632397,
				"z": -0.4709843029,
				"element": "O" 
			},
			{
				"x": 1.0011144851,
				"y": 1.7844588618,
				"z": -0.3692722833,
				"element": "N" 
			},
			{
				"x": 2.2347135834,
				"y": 2.4200509401,
				"z": 0.0281885517,
				"element": "C" 
			},
			{
				"x": 2.2478810613,
				"y": 3.0267100019,
				"z": 1.4236445157,
				"element": "C" 
			},
			{
				"x": 1.1298074634,
				"y": 2.7550896232,
				"z": 2.1364296336,
				"element": "O" 
			},
			{
				"x": 3.1622797455,
				"y": 3.6913676507,
				"z": 1.8537424042,
				"element": "O" 
			},
			{
				"x": -1.4755166824,
				"y": 1.6021602494,
				"z": -1.6203598854,
				"element": "H" 
			},
			{
				"x": -2.5553278127,
				"y": 0.3263608725,
				"z": -1.0662679432,
				"element": "H" 
			},
			{
				"x": -1.7338256898,
				"y": 1.3305026075,
				"z": 0.1237126318,
				"element": "H" 
			},
			{
				"x": 0.4745240669,
				"y": -1.5765682728,
				"z": -2.2268156596,
				"element": "H" 
			},
			{
				"x": -0.1923459855,
				"y": -0.1350081078,
				"z": -3.0124192445,
				"element": "H" 
			},
			{
				"x": -1.2838019936,
				"y": -1.409661546,
				"z": -2.44176866,
				"element": "H" 
			},
			{
				"x": -1.6523879912,
				"y": -1.7913908106,
				"z": 0.0329663196,
				"element": "H" 
			},
			{
				"x": -0.8232832838,
				"y": -0.7926570778,
				"z": 1.2403819104,
				"element": "H" 
			},
			{
				"x": 0.1004251754,
				"y": -1.965514899,
				"z": 0.2868906563,
				"element": "H" 
			},
			{
				"x": 0.1494749547,
				"y": 2.3187716122,
				"z": -0.3117160888,
				"element": "H" 
			},
			{
				"x": 3.0132329128,
				"y": 1.651483133,
				"z": -0.0092626146,
				"element": "H" 
			},
			{
				"x": 2.5282395642,
				"y": 3.2161944881,
				"z": -0.6656176157,
				"element": "H" 
			},
			{
				"x": 1.2580426647,
				"y": 3.1793474148,
				"z": 3.0019292811,
				"element": "H" 
			}
		],
		 "valence_orbital": [ 
			{
				"type": "occ",
				"energy": -0.33206,
				"method": "rhf"
			},
			{
				"type": "occ",
				"energy": -0.32502,
				"method": "rhf"
			},
			{
				"type": "occ",
				"energy": -0.29333,
				"method": "rhf"
			},
			{
				"type": "occ",
				"energy": -0.25442,
				"method": "rhf"
			},
			{
				"type": "occ",
				"energy": -0.24889,
				"method": "rhf"
			},
			{
				"type": "unocc",
				"energy": 0.00263,
				"method": "rhf"
			},
			{
				"type": "unocc",
				"energy": 0.02503,
				"method": "rhf"
			},
			{
				"type": "unocc",
				"energy": 0.06133,
				"method": "rhf"
			},
			{
				"type": "unocc",
				"energy": 0.07849,
				"method": "rhf"
			},
			{
				"type": "unocc",
				"energy": 0.11548,
				"method": "rhf"
			}
		],
		"cosmo_sigma_profile": { 
			"-0.025": 0.0,
			"-0.024": 0.0,
			"-0.023": 0.0,
			"-0.022": 0.0,
			"-0.021": 0.0,
			"-0.02": 0.0,
			"-0.019": 0.19450639438,
			"-0.018": 0.743146878863,
			"-0.017": 0.894972632684,
			"-0.016": 1.21634741907,
			"-0.015": 0.558570926418,
			"-0.014": 0.414022584816,
			"-0.013": 1.04099994877,
			"-0.012": 2.06609918436,
			"-0.011": 2.20742662361,
			"-0.01": 1.79337232693,
			"-0.009": 1.3743984995,
			"-0.008": 2.86993157288,
			"-0.007": 5.97045643699,
			"-0.006": 6.00747304423,
			"-0.005": 6.6225870408,
			"-0.004": 11.7774822412,
			"-0.003": 25.6824604545,
			"-0.002": 18.766165582,
			"-0.001": 18.6841074792,
			"0.0": 22.2695624827,
			"0.001": 20.231136053,
			"0.002": 7.86532453667,
			"0.003": 4.31771122544,
			"0.004": 5.5753144018,
			"0.005": 5.05457003161,
			"0.006": 4.17944651229,
			"0.007": 4.47791202059,
			"0.008": 3.14757067619,
			"0.009": 2.90640333924,
			"0.01": 3.71563620863,
			"0.011": 6.1069155974,
			"0.012": 5.86932853539,
			"0.013": 3.21636157971,
			"0.014": 3.41317384189,
			"0.015": 0.278740324107,
			"0.016": 0.0,
			"0.017": 0.0,
			"0.018": 0.0,
			"0.019": 0.0,
			"0.02": 0.0,
			"0.021": 0.0,
			"0.022": 0.0,
			"0.023": 0.0,
			"0.024": 0.0,
			"0.025": 0.0
		}
	}
}
