{
	 "smiles": "OC1C2CC3CC(C2)CC1C3", 
	 "Tm": 574.15, 
	 "num_atms": 27, 
	 "gaussian": { 
		 "optdone": 1, 
		 "sigma_profile": "yes", 
		 "theory": "DFT", 
		 "functional": "B3LYP", 
		 "basiset": "6-31G**", 
		 "properties": { 
			 "R2extent": 1579.9408, 
			 "electric_dipole_moment_norm": 1.34914294647, 
			 "electric_quadrupole_moment_norm": 5.51982860332, 
			 "total_energy": -465.954027122, 
			 "HOMO_LUMO_gap": 0.32304, 
			 "cosmo_polarized_energy": -5.18, 
			 "cosmo_cavitation_energy": 24.4, 
			 "cosmo_dispersion_energy": -19.16, 
			 "cosmo_repulsion_energy": 1.5, 
			 "cosmo_total_nonelectrostatic_energy": 6.74, 
			 "SMD_solvation_energy": 2.74 
		},
		"coords": [
			{
				"x": 1.8857028635,
				"y": -0.608741004,
				"z": -1.0412901224,
				"element": "O" 
			},
			{
				"x": 0.700140458,
				"y": 0.1848129837,
				"z": -0.9985655061,
				"element": "C" 
			},
			{
				"x": -0.420422001,
				"y": -0.4687698935,
				"z": -0.1591133756,
				"element": "C" 
			},
			{
				"x": -1.6633871242,
				"y": 0.4457274701,
				"z": -0.1876586059,
				"element": "C" 
			},
			{
				"x": -1.3064516162,
				"y": 1.8195378448,
				"z": 0.418137468,
				"element": "C" 
			},
			{
				"x": -0.8303520159,
				"y": 1.6295765536,
				"z": 1.8743375955,
				"element": "C" 
			},
			{
				"x": 0.4140050294,
				"y": 0.71658894,
				"z": 1.9022390885,
				"element": "C" 
			},
			{
				"x": 0.0589967047,
				"y": -0.657337288,
				"z": 1.294866214,
				"element": "C" 
			},
			{
				"x": 1.5440130674,
				"y": 1.3584024743,
				"z": 1.0695502854,
				"element": "C" 
			},
			{
				"x": 1.0704429584,
				"y": 1.5480362002,
				"z": -0.3869970808,
				"element": "C" 
			},
			{
				"x": -0.1748057867,
				"y": 2.4591835143,
				"z": -0.4139061908,
				"element": "C" 
			},
			{
				"x": 1.6443008631,
				"y": -1.4818780276,
				"z": -1.3772330527,
				"element": "H" 
			},
			{
				"x": 0.3262188727,
				"y": 0.3471811415,
				"z": -2.0245860061,
				"element": "H" 
			},
			{
				"x": -0.6723361082,
				"y": -1.4453481214,
				"z": -0.5997749427,
				"element": "H" 
			},
			{
				"x": -2.4807155801,
				"y": -0.0194420888,
				"z": 0.3783105249,
				"element": "H" 
			},
			{
				"x": -2.0214358992,
				"y": 0.5696767587,
				"z": -1.2185730898,
				"element": "H" 
			},
			{
				"x": -2.1903999244,
				"y": 2.4696998907,
				"z": 0.3991020144,
				"element": "H" 
			},
			{
				"x": -1.635599883,
				"y": 1.190213693,
				"z": 2.4783602045,
				"element": "H" 
			},
			{
				"x": -0.5926943474,
				"y": 2.6040393481,
				"z": 2.3214204124,
				"element": "H" 
			},
			{
				"x": 0.74971674,
				"y": 0.5836371443,
				"z": 2.9386443646,
				"element": "H" 
			},
			{
				"x": -0.7279001549,
				"y": -1.1446412971,
				"z": 1.8854362558,
				"element": "H" 
			},
			{
				"x": 0.935798582,
				"y": -1.3137511749,
				"z": 1.313967107,
				"element": "H" 
			},
			{
				"x": 1.82287429,
				"y": 2.3312632579,
				"z": 1.4954114588,
				"element": "H" 
			},
			{
				"x": 2.4368932484,
				"y": 0.7254743233,
				"z": 1.0879943438,
				"element": "H" 
			},
			{
				"x": 1.8758238279,
				"y": 1.9880714609,
				"z": -0.9873504351,
				"element": "H" 
			},
			{
				"x": 0.0814213294,
				"y": 3.4465455049,
				"z": -0.0089221959,
				"element": "H" 
			},
			{
				"x": -0.5101483938,
				"y": 2.6178403911,
				"z": -1.4476067339,
				"element": "H" 
			}
		],
		 "valence_orbital": [ 
			{
				"type": "occ",
				"energy": -0.30892,
				"method": "rhf"
			},
			{
				"type": "occ",
				"energy": -0.28184,
				"method": "rhf"
			},
			{
				"type": "occ",
				"energy": -0.27851,
				"method": "rhf"
			},
			{
				"type": "occ",
				"energy": -0.27385,
				"method": "rhf"
			},
			{
				"type": "occ",
				"energy": -0.25544,
				"method": "rhf"
			},
			{
				"type": "unocc",
				"energy": 0.0676,
				"method": "rhf"
			},
			{
				"type": "unocc",
				"energy": 0.08825,
				"method": "rhf"
			},
			{
				"type": "unocc",
				"energy": 0.12481,
				"method": "rhf"
			},
			{
				"type": "unocc",
				"energy": 0.12757,
				"method": "rhf"
			},
			{
				"type": "unocc",
				"energy": 0.13347,
				"method": "rhf"
			}
		],
		"cosmo_sigma_profile": { 
			"-0.025": 0.0,
			"-0.024": 0.0,
			"-0.023": 0.0,
			"-0.022": 0.0,
			"-0.021": 0.0,
			"-0.02": 0.0,
			"-0.019": 0.0,
			"-0.018": 0.0,
			"-0.017": 0.0,
			"-0.016": 0.0,
			"-0.015": 0.419569938672,
			"-0.014": 0.81645295473,
			"-0.013": 1.1558184927,
			"-0.012": 0.604681931501,
			"-0.011": 0.981114873271,
			"-0.01": 1.06577605428,
			"-0.009": 0.518268644284,
			"-0.008": 0.55442635446,
			"-0.007": 1.39572100116,
			"-0.006": 1.31588781615,
			"-0.005": 1.15681849254,
			"-0.004": 1.39685246238,
			"-0.003": 2.97912283567,
			"-0.002": 28.0146467854,
			"-0.001": 41.3414273979,
			"0.0": 38.2937198478,
			"0.001": 33.2672598277,
			"0.002": 12.9096240556,
			"0.003": 1.65925571795,
			"0.004": 1.80630535609,
			"0.005": 0.986766886032,
			"0.006": 1.54906297346,
			"0.007": 1.48200373274,
			"0.008": 1.56857749763,
			"0.009": 1.09568124452,
			"0.01": 1.9864906403,
			"0.011": 1.13538159035,
			"0.012": 1.03985355386,
			"0.013": 1.33074640451,
			"0.014": 1.35083656592,
			"0.015": 0.563349517377,
			"0.016": 0.0,
			"0.017": 0.0,
			"0.018": 0.0,
			"0.019": 0.0,
			"0.02": 0.0,
			"0.021": 0.0,
			"0.022": 0.0,
			"0.023": 0.0,
			"0.024": 0.0,
			"0.025": 0.0
		}
	}
}
