{
	 "smiles": "COC(=O)NC1=C(F)C=C(N)C=C1", 
	 "Tm": 346.15, 
	 "num_atms": 22, 
	 "gaussian": { 
		 "optdone": 1, 
		 "sigma_profile": "yes", 
		 "theory": "DFT", 
		 "functional": "B3LYP", 
		 "basiset": "6-31G**", 
		 "properties": { 
			 "R2extent": 4046.5462, 
			 "electric_dipole_moment_norm": 4.71220695004, 
			 "electric_quadrupole_moment_norm": 12.087327303, 
			 "total_energy": -670.076259837, 
			 "HOMO_LUMO_gap": 0.20125, 
			 "cosmo_polarized_energy": -15.6, 
			 "cosmo_cavitation_energy": 27.22, 
			 "cosmo_dispersion_energy": -19.55, 
			 "cosmo_repulsion_energy": 1.57, 
			 "cosmo_total_nonelectrostatic_energy": 9.23, 
			 "SMD_solvation_energy": 6.93 
		},
		"coords": [
			{
				"x": 2.8353093822,
				"y": -2.9085651315,
				"z": 3.7739983565,
				"element": "C" 
			},
			{
				"x": 2.3767769597,
				"y": -2.177547745,
				"z": 2.6304952183,
				"element": "O" 
			},
			{
				"x": 3.1089694318,
				"y": -2.3750065248,
				"z": 1.5097253844,
				"element": "C" 
			},
			{
				"x": 4.1032839504,
				"y": -3.0742581117,
				"z": 1.4453499066,
				"element": "O" 
			},
			{
				"x": 2.6064220608,
				"y": -1.6651259488,
				"z": 0.4461968869,
				"element": "N" 
			},
			{
				"x": 1.3836680202,
				"y": -0.9470765455,
				"z": 0.3976121134,
				"element": "C" 
			},
			{
				"x": 0.1550470526,
				"y": -1.5773667631,
				"z": 0.6261772514,
				"element": "C" 
			},
			{
				"x": 0.1425976217,
				"y": -2.8895129499,
				"z": 0.9263823488,
				"element": "F" 
			},
			{
				"x": -1.0543340292,
				"y": -0.9042454546,
				"z": 0.5606252318,
				"element": "C" 
			},
			{
				"x": -1.073919069,
				"y": 0.4593752488,
				"z": 0.2212165352,
				"element": "C" 
			},
			{
				"x": -2.2835365196,
				"y": 1.1357748719,
				"z": 0.0843536983,
				"element": "N" 
			},
			{
				"x": 0.1485259552,
				"y": 1.1074734173,
				"z": -0.032425142,
				"element": "C" 
			},
			{
				"x": 1.3488623372,
				"y": 0.4113261231,
				"z": 0.0672046156,
				"element": "C" 
			},
			{
				"x": 3.8605354391,
				"y": -2.6287323904,
				"z": 4.0294046373,
				"element": "H" 
			},
			{
				"x": 2.1544646609,
				"y": -2.6418221351,
				"z": 4.5828530605,
				"element": "H" 
			},
			{
				"x": 2.8006415577,
				"y": -3.9848923883,
				"z": 3.5866106661,
				"element": "H" 
			},
			{
				"x": 3.1378088324,
				"y": -1.7937643002,
				"z": -0.4027763134,
				"element": "H" 
			},
			{
				"x": -1.9706728148,
				"y": -1.4527492621,
				"z": 0.7538484922,
				"element": "H" 
			},
			{
				"x": -2.231374158,
				"y": 2.1404368935,
				"z": 0.1771654298,
				"element": "H" 
			},
			{
				"x": -3.0632251925,
				"y": 0.7448230798,
				"z": 0.5940577716,
				"element": "H" 
			},
			{
				"x": 0.1534860792,
				"y": 2.1603243154,
				"z": -0.3001535921,
				"element": "H" 
			},
			{
				"x": 2.289662442,
				"y": 0.9242317013,
				"z": -0.1096225573,
				"element": "H" 
			}
		],
		 "valence_orbital": [ 
			{
				"type": "occ",
				"energy": -0.28774,
				"method": "rhf"
			},
			{
				"type": "occ",
				"energy": -0.26698,
				"method": "rhf"
			},
			{
				"type": "occ",
				"energy": -0.25977,
				"method": "rhf"
			},
			{
				"type": "occ",
				"energy": -0.24891,
				"method": "rhf"
			},
			{
				"type": "occ",
				"energy": -0.20619,
				"method": "rhf"
			},
			{
				"type": "unocc",
				"energy": -0.00494,
				"method": "rhf"
			},
			{
				"type": "unocc",
				"energy": 0.00782,
				"method": "rhf"
			},
			{
				"type": "unocc",
				"energy": 0.06328,
				"method": "rhf"
			},
			{
				"type": "unocc",
				"energy": 0.07362,
				"method": "rhf"
			},
			{
				"type": "unocc",
				"energy": 0.092,
				"method": "rhf"
			}
		],
		"cosmo_sigma_profile": { 
			"-0.025": 0.0,
			"-0.024": 0.0,
			"-0.023": 0.0,
			"-0.022": 0.0,
			"-0.021": 0.0,
			"-0.02": 0.0,
			"-0.019": 0.0,
			"-0.018": 0.0,
			"-0.017": 0.0,
			"-0.016": 0.0,
			"-0.015": 0.379359233467,
			"-0.014": 0.933745936593,
			"-0.013": 2.17444324716,
			"-0.012": 4.23352191056,
			"-0.011": 3.19196722231,
			"-0.01": 4.27895917124,
			"-0.009": 3.75755667536,
			"-0.008": 4.59412994724,
			"-0.007": 5.90133671372,
			"-0.006": 10.7880952993,
			"-0.005": 12.3239824294,
			"-0.004": 14.8733080079,
			"-0.003": 14.1604300772,
			"-0.002": 10.4108383513,
			"-0.001": 9.46550040758,
			"0.0": 9.51921441044,
			"0.001": 11.4837355848,
			"0.002": 12.6978761797,
			"0.003": 13.6735244773,
			"0.004": 19.9170979009,
			"0.005": 14.440538146,
			"0.006": 6.49531166513,
			"0.007": 4.44022044196,
			"0.008": 3.434759556,
			"0.009": 2.35427887422,
			"0.01": 2.6796982787,
			"0.011": 1.73297565148,
			"0.012": 3.034845693,
			"0.013": 6.75018517384,
			"0.014": 1.88459156528,
			"0.015": 0.0,
			"0.016": 0.0,
			"0.017": 0.0,
			"0.018": 0.0,
			"0.019": 0.0,
			"0.02": 0.0,
			"0.021": 0.0,
			"0.022": 0.0,
			"0.023": 0.0,
			"0.024": 0.0,
			"0.025": 0.0
		}
	}
}
