{
	 "smiles": "COCCNC(C)(C)CO", 
	 "Tm": 318.15, 
	 "num_atms": 27, 
	 "gaussian": { 
		 "optdone": 1, 
		 "sigma_profile": "yes", 
		 "theory": "DFT", 
		 "functional": "B3LYP", 
		 "basiset": "6-31G**", 
		 "properties": { 
			 "R2extent": 2673.6246, 
			 "electric_dipole_moment_norm": 3.3220330492, 
			 "electric_quadrupole_moment_norm": 7.90186967622, 
			 "total_energy": -482.164794289, 
			 "HOMO_LUMO_gap": 0.30018, 
			 "cosmo_polarized_energy": -9.98, 
			 "cosmo_cavitation_energy": 27.92, 
			 "cosmo_dispersion_energy": -19.8, 
			 "cosmo_repulsion_energy": 1.63, 
			 "cosmo_total_nonelectrostatic_energy": 9.75, 
			 "SMD_solvation_energy": 4.91 
		},
		"coords": [
			{
				"x": 0.5294777057,
				"y": -0.6313818759,
				"z": 3.4321877766,
				"element": "C" 
			},
			{
				"x": 1.5695829469,
				"y": 0.0266747776,
				"z": 2.7366225822,
				"element": "O" 
			},
			{
				"x": 1.5029019412,
				"y": -0.094822424,
				"z": 1.3279503559,
				"element": "C" 
			},
			{
				"x": 0.5329434792,
				"y": 0.9054028977,
				"z": 0.6864153792,
				"element": "C" 
			},
			{
				"x": 0.5869215651,
				"y": 0.7629484409,
				"z": -0.7695691915,
				"element": "N" 
			},
			{
				"x": -0.2785804263,
				"y": 1.6364275186,
				"z": -1.6067628036,
				"element": "C" 
			},
			{
				"x": -0.0664877265,
				"y": 3.1100364167,
				"z": -1.2308421807,
				"element": "C" 
			},
			{
				"x": -1.7683828794,
				"y": 1.2626867911,
				"z": -1.5155014994,
				"element": "C" 
			},
			{
				"x": 0.2337476916,
				"y": 1.3965059032,
				"z": -3.047353625,
				"element": "C" 
			},
			{
				"x": 1.6204997866,
				"y": 1.6333208246,
				"z": -3.1526343553,
				"element": "O" 
			},
			{
				"x": 0.492464061,
				"y": -1.7041924997,
				"z": 3.184594299,
				"element": "H" 
			},
			{
				"x": 0.7423256404,
				"y": -0.5254195412,
				"z": 4.4988583927,
				"element": "H" 
			},
			{
				"x": -0.4611090201,
				"y": -0.1976410071,
				"z": 3.2314123435,
				"element": "H" 
			},
			{
				"x": 2.5108213754,
				"y": 0.0974584452,
				"z": 0.9468152791,
				"element": "H" 
			},
			{
				"x": 1.2310884069,
				"y": -1.1263721928,
				"z": 1.0412200999,
				"element": "H" 
			},
			{
				"x": 0.8585221295,
				"y": 1.9110322698,
				"z": 0.9651889427,
				"element": "H" 
			},
			{
				"x": -0.4792283195,
				"y": 0.7662646299,
				"z": 1.1029785465,
				"element": "H" 
			},
			{
				"x": 0.3619992866,
				"y": -0.2033801246,
				"z": -1.0066771348,
				"element": "H" 
			},
			{
				"x": -0.4242871078,
				"y": 3.3331416941,
				"z": -0.221581043,
				"element": "H" 
			},
			{
				"x": -0.6211491887,
				"y": 3.7487137081,
				"z": -1.9251262683,
				"element": "H" 
			},
			{
				"x": 0.9911858307,
				"y": 3.3746744023,
				"z": -1.3010638225,
				"element": "H" 
			},
			{
				"x": -2.1532835631,
				"y": 1.3997302405,
				"z": -0.4998337491,
				"element": "H" 
			},
			{
				"x": -2.3723311781,
				"y": 1.8872669691,
				"z": -2.1830452182,
				"element": "H" 
			},
			{
				"x": -1.9307082693,
				"y": 0.2164543624,
				"z": -1.8013710862,
				"element": "H" 
			},
			{
				"x": -0.2770907336,
				"y": 2.0674973214,
				"z": -3.7470460843,
				"element": "H" 
			},
			{
				"x": -0.021155489,
				"y": 0.3609531781,
				"z": -3.3431498924,
				"element": "H" 
			},
			{
				"x": 1.9797120548,
				"y": 1.260818874,
				"z": -2.3275860429,
				"element": "H" 
			}
		],
		 "valence_orbital": [ 
			{
				"type": "occ",
				"energy": -0.31476,
				"method": "rhf"
			},
			{
				"type": "occ",
				"energy": -0.30648,
				"method": "rhf"
			},
			{
				"type": "occ",
				"energy": -0.26028,
				"method": "rhf"
			},
			{
				"type": "occ",
				"energy": -0.25134,
				"method": "rhf"
			},
			{
				"type": "occ",
				"energy": -0.23494,
				"method": "rhf"
			},
			{
				"type": "unocc",
				"energy": 0.06524,
				"method": "rhf"
			},
			{
				"type": "unocc",
				"energy": 0.08411,
				"method": "rhf"
			},
			{
				"type": "unocc",
				"energy": 0.10088,
				"method": "rhf"
			},
			{
				"type": "unocc",
				"energy": 0.11278,
				"method": "rhf"
			},
			{
				"type": "unocc",
				"energy": 0.12015,
				"method": "rhf"
			}
		],
		"cosmo_sigma_profile": { 
			"-0.025": 0.0,
			"-0.024": 0.0,
			"-0.023": 0.0,
			"-0.022": 0.0,
			"-0.021": 0.0,
			"-0.02": 0.0,
			"-0.019": 0.0,
			"-0.018": 0.0,
			"-0.017": 0.0,
			"-0.016": 0.0,
			"-0.015": 0.0,
			"-0.014": 0.0,
			"-0.013": 0.0,
			"-0.012": 0.0,
			"-0.011": 0.0,
			"-0.01": 0.576434411602,
			"-0.009": 1.28764758256,
			"-0.008": 2.61142608632,
			"-0.007": 2.31538214043,
			"-0.006": 2.90528259174,
			"-0.005": 5.06689074295,
			"-0.004": 15.6757693997,
			"-0.003": 37.9924636323,
			"-0.002": 33.7844038763,
			"-0.001": 26.3160341781,
			"0.0": 19.2298279787,
			"0.001": 18.4576235535,
			"0.002": 8.04260375409,
			"0.003": 5.81969514035,
			"0.004": 4.62570005312,
			"0.005": 3.00092366388,
			"0.006": 2.87088351313,
			"0.007": 2.8274874617,
			"0.008": 2.20439162429,
			"0.009": 2.90720056714,
			"0.01": 2.62291016781,
			"0.011": 2.60541470784,
			"0.012": 2.0781449896,
			"0.013": 3.36581533837,
			"0.014": 2.68599140305,
			"0.015": 2.26381257114,
			"0.016": 0.390430602441,
			"0.017": 0.0,
			"0.018": 0.0,
			"0.019": 0.0,
			"0.02": 0.0,
			"0.021": 0.0,
			"0.022": 0.0,
			"0.023": 0.0,
			"0.024": 0.0,
			"0.025": 0.0
		}
	}
}
