{
	 "smiles": "CCN(CC1=CC=C(Cl)N=C1)C(NC)=CN(=O)=O", 
	 "Tm": 356.65, 
	 "num_atms": 33, 
	 "gaussian": { 
		 "optdone": 1, 
		 "sigma_profile": "yes", 
		 "theory": "DFT", 
		 "functional": "B3LYP", 
		 "basiset": "6-31G**", 
		 "properties": { 
			 "R2extent": 7242.8249, 
			 "electric_dipole_moment_norm": 8.77946337483, 
			 "electric_quadrupole_moment_norm": 33.3808730427, 
			 "total_energy": -1257.73007302, 
			 "HOMO_LUMO_gap": 0.17287, 
			 "cosmo_polarized_energy": -26.78, 
			 "cosmo_cavitation_energy": 37.86, 
			 "cosmo_dispersion_energy": -26.46, 
			 "cosmo_repulsion_energy": 2.08, 
			 "cosmo_total_nonelectrostatic_energy": 13.48, 
			 "SMD_solvation_energy": 6.96 
		},
		"coords": [
			{
				"x": -1.0487164562,
				"y": -0.0249654071,
				"z": -2.7930705314,
				"element": "C" 
			},
			{
				"x": -1.4193580954,
				"y": 1.0188887308,
				"z": -1.7365328691,
				"element": "C" 
			},
			{
				"x": -1.0660903682,
				"y": 0.6459401657,
				"z": -0.3587456226,
				"element": "N" 
			},
			{
				"x": 0.3291983515,
				"y": 0.2902050802,
				"z": -0.1052414194,
				"element": "C" 
			},
			{
				"x": 0.6910544067,
				"y": -1.1809646273,
				"z": -0.2422570306,
				"element": "C" 
			},
			{
				"x": 2.0348329314,
				"y": -1.5618091328,
				"z": -0.3654649797,
				"element": "C" 
			},
			{
				"x": 2.3712254677,
				"y": -2.9064224264,
				"z": -0.4560878628,
				"element": "C" 
			},
			{
				"x": 1.321771199,
				"y": -3.8310351112,
				"z": -0.4236249818,
				"element": "C" 
			},
			{
				"x": 1.7049363556,
				"y": -5.5457974456,
				"z": -0.5468053058,
				"element": "Cl" 
			},
			{
				"x": 0.0483684337,
				"y": -3.5099543531,
				"z": -0.3109549013,
				"element": "N" 
			},
			{
				"x": -0.2562047288,
				"y": -2.2061958991,
				"z": -0.2180953707,
				"element": "C" 
			},
			{
				"x": -1.8927749381,
				"y": 0.9551212169,
				"z": 0.7154824829,
				"element": "C" 
			},
			{
				"x": -2.8597950301,
				"y": 1.8821613326,
				"z": 0.4802197035,
				"element": "N" 
			},
			{
				"x": -4.1199887879,
				"y": 2.009337579,
				"z": 1.1968958551,
				"element": "C" 
			},
			{
				"x": -1.7260436336,
				"y": 0.2566787758,
				"z": 1.9028831201,
				"element": "C" 
			},
			{
				"x": -2.0395979469,
				"y": 0.7458212159,
				"z": 3.189803939,
				"element": "N" 
			},
			{
				"x": -1.9277370585,
				"y": -0.056969557,
				"z": 4.1310031758,
				"element": "O" 
			},
			{
				"x": -2.3618093754,
				"y": 1.9407842662,
				"z": 3.3473840181,
				"element": "O" 
			},
			{
				"x": -1.5485067868,
				"y": -0.9782507839,
				"z": -2.6040914552,
				"element": "H" 
			},
			{
				"x": 0.0276808326,
				"y": -0.2084275841,
				"z": -2.8421202625,
				"element": "H" 
			},
			{
				"x": -1.3662672183,
				"y": 0.3398432662,
				"z": -3.775144932,
				"element": "H" 
			},
			{
				"x": -0.9421950971,
				"y": 1.9781713897,
				"z": -1.998380383,
				"element": "H" 
			},
			{
				"x": -2.4993044008,
				"y": 1.1753025087,
				"z": -1.7633634182,
				"element": "H" 
			},
			{
				"x": 0.5717458631,
				"y": 0.6203059068,
				"z": 0.9106443383,
				"element": "H" 
			},
			{
				"x": 0.9634718666,
				"y": 0.8745467359,
				"z": -0.7869808667,
				"element": "H" 
			},
			{
				"x": 2.8180982085,
				"y": -0.8075379646,
				"z": -0.3916306056,
				"element": "H" 
			},
			{
				"x": 3.3990555803,
				"y": -3.2348346872,
				"z": -0.5530755481,
				"element": "H" 
			},
			{
				"x": -1.3138091772,
				"y": -1.9731552247,
				"z": -0.1290207032,
				"element": "H" 
			},
			{
				"x": -2.6359670587,
				"y": 2.6192568975,
				"z": -0.1713744126,
				"element": "H" 
			},
			{
				"x": -4.8753614927,
				"y": 2.3885302082,
				"z": 0.501982076,
				"element": "H" 
			},
			{
				"x": -4.4290578232,
				"y": 1.020334474,
				"z": 1.5427438382,
				"element": "H" 
			},
			{
				"x": -4.0380303168,
				"y": 2.6616106763,
				"z": 2.0689076524,
				"element": "H" 
			},
			{
				"x": -1.241123706,
				"y": -0.7056202223,
				"z": 1.9316132625,
				"element": "H" 
			}
		],
		 "valence_orbital": [ 
			{
				"type": "occ",
				"energy": -0.26575,
				"method": "rhf"
			},
			{
				"type": "occ",
				"energy": -0.2632,
				"method": "rhf"
			},
			{
				"type": "occ",
				"energy": -0.25807,
				"method": "rhf"
			},
			{
				"type": "occ",
				"energy": -0.246,
				"method": "rhf"
			},
			{
				"type": "occ",
				"energy": -0.22044,
				"method": "rhf"
			},
			{
				"type": "unocc",
				"energy": -0.04757,
				"method": "rhf"
			},
			{
				"type": "unocc",
				"energy": -0.044,
				"method": "rhf"
			},
			{
				"type": "unocc",
				"energy": -0.03185,
				"method": "rhf"
			},
			{
				"type": "unocc",
				"energy": 0.02975,
				"method": "rhf"
			},
			{
				"type": "unocc",
				"energy": 0.04398,
				"method": "rhf"
			}
		],
		"cosmo_sigma_profile": { 
			"-0.025": 0.0,
			"-0.024": 0.0,
			"-0.023": 0.0,
			"-0.022": 0.0,
			"-0.021": 0.0,
			"-0.02": 0.0,
			"-0.019": 0.0,
			"-0.018": 0.0,
			"-0.017": 0.0,
			"-0.016": 0.0,
			"-0.015": 0.4245668691,
			"-0.014": 1.23904825707,
			"-0.013": 1.57257326131,
			"-0.012": 1.07459381426,
			"-0.011": 1.48561879634,
			"-0.01": 1.54201657467,
			"-0.009": 1.23156489731,
			"-0.008": 6.61373485416,
			"-0.007": 10.8666170247,
			"-0.006": 15.8080091001,
			"-0.005": 22.7554224599,
			"-0.004": 25.3827634687,
			"-0.003": 26.4841557918,
			"-0.002": 25.0958258848,
			"-0.001": 22.5114090239,
			"0.0": 26.6923056454,
			"0.001": 16.6842756981,
			"0.002": 11.56708008,
			"0.003": 9.73923409703,
			"0.004": 12.8407342053,
			"0.005": 9.08021443417,
			"0.006": 5.68086721039,
			"0.007": 3.41634991738,
			"0.008": 5.18143018549,
			"0.009": 4.52090984729,
			"0.01": 5.59690865208,
			"0.011": 9.18181480719,
			"0.012": 8.49214242934,
			"0.013": 4.97426052435,
			"0.014": 3.72626382271,
			"0.015": 0.37357318076,
			"0.016": 0.0,
			"0.017": 0.0,
			"0.018": 0.0,
			"0.019": 0.0,
			"0.02": 0.0,
			"0.021": 0.0,
			"0.022": 0.0,
			"0.023": 0.0,
			"0.024": 0.0,
			"0.025": 0.0
		}
	}
}
