{
	 "smiles": "OC1=C(Br)C2=C(C=C1[N+]([O-])=O)C1(OC(=O)C3=C1C=CC=C3)C1=CC(=C(O)C(Br)=C1O2)[N+]([O-])=O", 
	 "Tm": 548.15, 
	 "num_atms": 41, 
	 "gaussian": { 
		 "optdone": 1, 
		 "sigma_profile": "yes", 
		 "theory": "DFT", 
		 "functional": "B3LYP", 
		 "basiset": "6-31G**", 
		 "properties": { 
			 "R2extent": 18984.3286, 
			 "electric_dipole_moment_norm": 4.57866532736, 
			 "electric_quadrupole_moment_norm": 24.6739003013, 
			 "total_energy": -6696.08007388, 
			 "HOMO_LUMO_gap": 0.13753, 
			 "cosmo_polarized_energy": -23.02, 
			 "cosmo_cavitation_energy": 52.3, 
			 "cosmo_dispersion_energy": -36.27, 
			 "cosmo_repulsion_energy": 2.68, 
			 "cosmo_total_nonelectrostatic_energy": 18.71, 
			 "SMD_solvation_energy": 12.58 
		},
		"coords": [
			{
				"x": 5.8078028206,
				"y": 0.7611208223,
				"z": -1.3998506211,
				"element": "O" 
			},
			{
				"x": 4.4937003333,
				"y": 0.5944485507,
				"z": -1.3272338826,
				"element": "C" 
			},
			{
				"x": 3.8273659546,
				"y": 0.9196461204,
				"z": -0.1314406413,
				"element": "C" 
			},
			{
				"x": 4.8322674865,
				"y": 1.577939241,
				"z": 1.3251317322,
				"element": "Br" 
			},
			{
				"x": 2.4435786574,
				"y": 0.7504850584,
				"z": -0.0257816291,
				"element": "C" 
			},
			{
				"x": 1.6708251547,
				"y": 0.2584372152,
				"z": -1.0953824713,
				"element": "C" 
			},
			{
				"x": 2.3242345404,
				"y": -0.0684171113,
				"z": -2.2730863147,
				"element": "C" 
			},
			{
				"x": 3.7043572361,
				"y": 0.0876962616,
				"z": -2.3954148778,
				"element": "C" 
			},
			{
				"x": 4.3186764932,
				"y": -0.2832326401,
				"z": -3.6525793642,
				"element": "N" 
			},
			{
				"x": 3.6169946944,
				"y": -0.7307328211,
				"z": -4.5499611991,
				"element": "O" 
			},
			{
				"x": 5.5571139363,
				"y": -0.132097297,
				"z": -3.7719046458,
				"element": "O" 
			},
			{
				"x": 0.1592854438,
				"y": 0.1959852089,
				"z": -0.9903233634,
				"element": "C" 
			},
			{
				"x": -0.3834501255,
				"y": 1.3603340804,
				"z": -1.7111777092,
				"element": "O" 
			},
			{
				"x": -1.2115522198,
				"y": 0.9792618703,
				"z": -2.7466777147,
				"element": "C" 
			},
			{
				"x": -1.7601017766,
				"y": 1.7747569353,
				"z": -3.463837893,
				"element": "O" 
			},
			{
				"x": -1.2553184675,
				"y": -0.5011689624,
				"z": -2.7579114525,
				"element": "C" 
			},
			{
				"x": -0.4539831668,
				"y": -0.9832492822,
				"z": -1.7305837581,
				"element": "C" 
			},
			{
				"x": -0.3167556222,
				"y": -2.3521975473,
				"z": -1.5164184186,
				"element": "C" 
			},
			{
				"x": -1.0109150439,
				"y": -3.2168655665,
				"z": -2.3680337683,
				"element": "C" 
			},
			{
				"x": -1.8198412624,
				"y": -2.7260303805,
				"z": -3.4051374299,
				"element": "C" 
			},
			{
				"x": -1.9520925757,
				"y": -1.3536349296,
				"z": -3.6132514107,
				"element": "C" 
			},
			{
				"x": -0.2885652912,
				"y": 0.3044566083,
				"z": 0.454478209,
				"element": "C" 
			},
			{
				"x": -1.5938193795,
				"y": 0.0235561561,
				"z": 0.8261463865,
				"element": "C" 
			},
			{
				"x": -2.0252894894,
				"y": 0.2216220753,
				"z": 2.1371313461,
				"element": "C" 
			},
			{
				"x": -1.1526365445,
				"y": 0.725483032,
				"z": 3.1398925398,
				"element": "C" 
			},
			{
				"x": -1.5202473199,
				"y": 0.9308489243,
				"z": 4.3979117254,
				"element": "O" 
			},
			{
				"x": 0.1732048997,
				"y": 1.0037691773,
				"z": 2.7598764966,
				"element": "C" 
			},
			{
				"x": 1.3789311598,
				"y": 1.6553837736,
				"z": 4.0584555023,
				"element": "Br" 
			},
			{
				"x": 0.5887395723,
				"y": 0.7935097834,
				"z": 1.4416493974,
				"element": "C" 
			},
			{
				"x": 1.8917463474,
				"y": 1.0787833622,
				"z": 1.1736834507,
				"element": "O" 
			},
			{
				"x": -3.4001699218,
				"y": -0.1025202399,
				"z": 2.4534055716,
				"element": "N" 
			},
			{
				"x": -3.796306736,
				"y": 0.0862973358,
				"z": 3.627399579,
				"element": "O" 
			},
			{
				"x": -4.1250358062,
				"y": -0.548744374,
				"z": 1.5740008847,
				"element": "O" 
			},
			{
				"x": 6.0714526314,
				"y": 0.4767913892,
				"z": -2.3118900554,
				"element": "H" 
			},
			{
				"x": 1.7774993229,
				"y": -0.4469336147,
				"z": -3.1273689848,
				"element": "H" 
			},
			{
				"x": 0.3063692997,
				"y": -2.7419740502,
				"z": -0.7171626852,
				"element": "H" 
			},
			{
				"x": -0.92270164,
				"y": -4.2896137184,
				"z": -2.224574945,
				"element": "H" 
			},
			{
				"x": -2.3453328375,
				"y": -3.4247581434,
				"z": -4.0485056408,
				"element": "H" 
			},
			{
				"x": -2.5708166055,
				"y": -0.9484986655,
				"z": -4.4073995363,
				"element": "H" 
			},
			{
				"x": -2.3102421146,
				"y": -0.3505632849,
				"z": 0.1058964559,
				"element": "H" 
			},
			{
				"x": -2.4763720381,
				"y": 0.6754196468,
				"z": 4.4506311357,
				"element": "H" 
			}
		],
		 "valence_orbital": [ 
			{
				"type": "occ",
				"energy": -0.2915,
				"method": "rhf"
			},
			{
				"type": "occ",
				"energy": -0.29004,
				"method": "rhf"
			},
			{
				"type": "occ",
				"energy": -0.27208,
				"method": "rhf"
			},
			{
				"type": "occ",
				"energy": -0.25932,
				"method": "rhf"
			},
			{
				"type": "occ",
				"energy": -0.2591,
				"method": "rhf"
			},
			{
				"type": "unocc",
				"energy": -0.12157,
				"method": "rhf"
			},
			{
				"type": "unocc",
				"energy": -0.11348,
				"method": "rhf"
			},
			{
				"type": "unocc",
				"energy": -0.07076,
				"method": "rhf"
			},
			{
				"type": "unocc",
				"energy": -0.05986,
				"method": "rhf"
			},
			{
				"type": "unocc",
				"energy": -0.04791,
				"method": "rhf"
			}
		],
		"cosmo_sigma_profile": { 
			"-0.025": 0.0,
			"-0.024": 0.0,
			"-0.023": 0.0,
			"-0.022": 0.0,
			"-0.021": 0.0,
			"-0.02": 0.0,
			"-0.019": 0.0,
			"-0.018": 0.0,
			"-0.017": 0.0,
			"-0.016": 0.0,
			"-0.015": 0.0,
			"-0.014": 0.0,
			"-0.013": 0.0,
			"-0.012": 0.137391390695,
			"-0.011": 0.617801522315,
			"-0.01": 1.631804117,
			"-0.009": 5.95292891314,
			"-0.008": 13.0409152178,
			"-0.007": 20.2897369505,
			"-0.006": 24.6459608486,
			"-0.005": 24.2290527454,
			"-0.004": 31.8235042881,
			"-0.003": 34.8046931713,
			"-0.002": 31.048376748,
			"-0.001": 28.1988318013,
			"0.0": 24.6073414821,
			"0.001": 24.082495942,
			"0.002": 26.4506912611,
			"0.003": 26.3496783296,
			"0.004": 21.2110573375,
			"0.005": 15.6590896638,
			"0.006": 19.281631679,
			"0.007": 17.0514327725,
			"0.008": 15.251479498,
			"0.009": 12.0502130586,
			"0.01": 3.50064420392,
			"0.011": 5.91214325573,
			"0.012": 2.42449817354,
			"0.013": 0.143253980763,
			"0.014": 0.0,
			"0.015": 0.0,
			"0.016": 0.0,
			"0.017": 0.0,
			"0.018": 0.0,
			"0.019": 0.0,
			"0.02": 0.0,
			"0.021": 0.0,
			"0.022": 0.0,
			"0.023": 0.0,
			"0.024": 0.0,
			"0.025": 0.0
		}
	}
}
