{
	 "smiles": "ClCC1=CC=C(OC2=C(C=CC=C2)C#N)C=C1", 
	 "Tm": 328.15, 
	 "num_atms": 27, 
	 "gaussian": { 
		 "optdone": 1, 
		 "sigma_profile": "yes", 
		 "theory": "DFT", 
		 "functional": "B3LYP", 
		 "basiset": "6-31G**", 
		 "properties": { 
			 "R2extent": 7225.766, 
			 "electric_dipole_moment_norm": 6.63636434955, 
			 "electric_quadrupole_moment_norm": 12.0822846825, 
			 "total_energy": -1129.66297823, 
			 "HOMO_LUMO_gap": 0.1865, 
			 "cosmo_polarized_energy": -14.94, 
			 "cosmo_cavitation_energy": 35.0, 
			 "cosmo_dispersion_energy": -24.26, 
			 "cosmo_repulsion_energy": 1.91, 
			 "cosmo_total_nonelectrostatic_energy": 12.65, 
			 "SMD_solvation_energy": 7.09 
		},
		"coords": [
			{
				"x": 4.8279326692,
				"y": 2.6567470495,
				"z": 3.1535790601,
				"element": "Cl" 
			},
			{
				"x": 4.6223891711,
				"y": 0.8341911654,
				"z": 3.0287716988,
				"element": "C" 
			},
			{
				"x": 3.3719729679,
				"y": 0.4461026122,
				"z": 2.3002208694,
				"element": "C" 
			},
			{
				"x": 3.3788001487,
				"y": 0.2789752589,
				"z": 0.9085248099,
				"element": "C" 
			},
			{
				"x": 2.221945138,
				"y": -0.0808258657,
				"z": 0.2218071831,
				"element": "C" 
			},
			{
				"x": 1.0414437938,
				"y": -0.2858052315,
				"z": 0.9405639196,
				"element": "C" 
			},
			{
				"x": -0.1588070539,
				"y": -0.5705020348,
				"z": 0.3096066787,
				"element": "O" 
			},
			{
				"x": -0.2584497922,
				"y": -1.5869847827,
				"z": -0.6004348989,
				"element": "C" 
			},
			{
				"x": -1.3093176262,
				"y": -1.4840209504,
				"z": -1.53594331,
				"element": "C" 
			},
			{
				"x": -1.514290939,
				"y": -2.5208183975,
				"z": -2.4619030994,
				"element": "C" 
			},
			{
				"x": -0.6867745978,
				"y": -3.6387553839,
				"z": -2.463637,
				"element": "C" 
			},
			{
				"x": 0.349598803,
				"y": -3.7295887025,
				"z": -1.5306535047,
				"element": "C" 
			},
			{
				"x": 0.5665328936,
				"y": -2.7145312248,
				"z": -0.599689007,
				"element": "C" 
			},
			{
				"x": -2.1607619955,
				"y": -0.3331610011,
				"z": -1.5438789081,
				"element": "C" 
			},
			{
				"x": -2.8691341955,
				"y": 0.5887065194,
				"z": -1.580705488,
				"element": "N" 
			},
			{
				"x": 1.0081277424,
				"y": -0.1201320221,
				"z": 2.3247830129,
				"element": "C" 
			},
			{
				"x": 2.1719189242,
				"y": 0.2484792181,
				"z": 2.9955647381,
				"element": "C" 
			},
			{
				"x": 4.6242425495,
				"y": 0.4740850167,
				"z": 4.0576276008,
				"element": "H" 
			},
			{
				"x": 5.5191260896,
				"y": 0.479143007,
				"z": 2.5207359651,
				"element": "H" 
			},
			{
				"x": 4.2975446281,
				"y": 0.4451302047,
				"z": 0.3525480962,
				"element": "H" 
			},
			{
				"x": 2.2293447807,
				"y": -0.1957696196,
				"z": -0.8567813256,
				"element": "H" 
			},
			{
				"x": -2.3264906782,
				"y": -2.4292706956,
				"z": -3.1751413085,
				"element": "H" 
			},
			{
				"x": -0.8491606044,
				"y": -4.4337281321,
				"z": -3.1836929748,
				"element": "H" 
			},
			{
				"x": 0.9946115521,
				"y": -4.6031711733,
				"z": -1.5192394187,
				"element": "H" 
			},
			{
				"x": 1.3646825165,
				"y": -2.7946259265,
				"z": 0.1289784977,
				"element": "H" 
			},
			{
				"x": 0.0738318252,
				"y": -0.2756335504,
				"z": 2.8532329547,
				"element": "H" 
			},
			{
				"x": 2.1467412891,
				"y": 0.3831646426,
				"z": 4.073455159,
				"element": "H" 
			}
		],
		 "valence_orbital": [ 
			{
				"type": "occ",
				"energy": -0.29731,
				"method": "rhf"
			},
			{
				"type": "occ",
				"energy": -0.277,
				"method": "rhf"
			},
			{
				"type": "occ",
				"energy": -0.2713,
				"method": "rhf"
			},
			{
				"type": "occ",
				"energy": -0.26557,
				"method": "rhf"
			},
			{
				"type": "occ",
				"energy": -0.2403,
				"method": "rhf"
			},
			{
				"type": "unocc",
				"energy": -0.0538,
				"method": "rhf"
			},
			{
				"type": "unocc",
				"energy": -0.03937,
				"method": "rhf"
			},
			{
				"type": "unocc",
				"energy": -0.02376,
				"method": "rhf"
			},
			{
				"type": "unocc",
				"energy": -0.018,
				"method": "rhf"
			},
			{
				"type": "unocc",
				"energy": 0.03475,
				"method": "rhf"
			}
		],
		"cosmo_sigma_profile": { 
			"-0.025": 0.0,
			"-0.024": 0.0,
			"-0.023": 0.0,
			"-0.022": 0.0,
			"-0.021": 0.0,
			"-0.02": 0.0,
			"-0.019": 0.0,
			"-0.018": 0.0,
			"-0.017": 0.0,
			"-0.016": 0.0,
			"-0.015": 0.0,
			"-0.014": 0.0,
			"-0.013": 0.0,
			"-0.012": 0.0,
			"-0.011": 0.0,
			"-0.01": 0.0,
			"-0.009": 0.0420473406557,
			"-0.008": 5.63695206956,
			"-0.007": 20.2592596241,
			"-0.006": 20.8614823754,
			"-0.005": 21.2052474365,
			"-0.004": 16.5556640286,
			"-0.003": 15.1120342542,
			"-0.002": 15.7411635235,
			"-0.001": 17.3790650827,
			"0.0": 19.0585727373,
			"0.001": 21.7377651282,
			"0.002": 23.4282581743,
			"0.003": 22.3781062762,
			"0.004": 12.0708456307,
			"0.005": 10.4155905969,
			"0.006": 12.4282802955,
			"0.007": 12.782768104,
			"0.008": 3.50910847293,
			"0.009": 3.55402604676,
			"0.01": 3.32365296854,
			"0.011": 2.72719841377,
			"0.012": 2.53979313622,
			"0.013": 1.63753519357,
			"0.014": 0.0839299899407,
			"0.015": 0.0,
			"0.016": 0.0,
			"0.017": 0.0,
			"0.018": 0.0,
			"0.019": 0.0,
			"0.02": 0.0,
			"0.021": 0.0,
			"0.022": 0.0,
			"0.023": 0.0,
			"0.024": 0.0,
			"0.025": 0.0
		}
	}
}
