{
	 "smiles": "CCOC(=O)CC(C)C", 
	 "Tm": 173.95, 
	 "num_atms": 23, 
	 "gaussian": { 
		 "optdone": 1, 
		 "sigma_profile": "yes", 
		 "theory": "DFT", 
		 "functional": "B3LYP", 
		 "basiset": "6-31G**", 
		 "properties": { 
			 "R2extent": 1852.2957, 
			 "electric_dipole_moment_norm": 1.83405625323, 
			 "electric_quadrupole_moment_norm": 7.29062938092, 
			 "total_energy": -425.660539967, 
			 "HOMO_LUMO_gap": 0.27677, 
			 "cosmo_polarized_energy": -6.14, 
			 "cosmo_cavitation_energy": 25.48, 
			 "cosmo_dispersion_energy": -17.69, 
			 "cosmo_repulsion_energy": 1.48, 
			 "cosmo_total_nonelectrostatic_energy": 9.27, 
			 "SMD_solvation_energy": 5.5 
		},
		"coords": [
			{
				"x": -3.3735339376,
				"y": -0.4825432689,
				"z": -1.3439256073,
				"element": "C" 
			},
			{
				"x": -2.729218031,
				"y": -1.8420401909,
				"z": -1.1171727798,
				"element": "C" 
			},
			{
				"x": -1.2874028133,
				"y": -1.7396032528,
				"z": -1.0471826891,
				"element": "O" 
			},
			{
				"x": -0.7584534183,
				"y": -1.4328299201,
				"z": 0.1630987266,
				"element": "C" 
			},
			{
				"x": -1.4226585477,
				"y": -1.2530959556,
				"z": 1.1625205767,
				"element": "O" 
			},
			{
				"x": 0.7498441061,
				"y": -1.3289148624,
				"z": 0.07951409,
				"element": "C" 
			},
			{
				"x": 1.2271343035,
				"y": -0.0532205227,
				"z": -0.6577885489,
				"element": "C" 
			},
			{
				"x": 2.750038852,
				"y": -0.0908035265,
				"z": -0.8440887896,
				"element": "C" 
			},
			{
				"x": 0.7912725612,
				"y": 1.2221096154,
				"z": 0.0775633461,
				"element": "C" 
			},
			{
				"x": -2.9698186844,
				"y": -0.0041525094,
				"z": -2.241290467,
				"element": "H" 
			},
			{
				"x": -3.2020637709,
				"y": 0.1709099535,
				"z": -0.4850317162,
				"element": "H" 
			},
			{
				"x": -4.4546293096,
				"y": -0.5997407917,
				"z": -1.4742836916,
				"element": "H" 
			},
			{
				"x": -3.0948507293,
				"y": -2.3006749251,
				"z": -0.1952564932,
				"element": "H" 
			},
			{
				"x": -2.9138832877,
				"y": -2.5166326991,
				"z": -1.9568683125,
				"element": "H" 
			},
			{
				"x": 1.1300600126,
				"y": -2.2116369735,
				"z": -0.4464290558,
				"element": "H" 
			},
			{
				"x": 1.1356618044,
				"y": -1.3398397594,
				"z": 1.103223494,
				"element": "H" 
			},
			{
				"x": 0.7593981057,
				"y": -0.0590766899,
				"z": -1.6509881596,
				"element": "H" 
			},
			{
				"x": 3.0994425005,
				"y": 0.7935117182,
				"z": -1.3875183112,
				"element": "H" 
			},
			{
				"x": 3.2637434059,
				"y": -0.1089636154,
				"z": 0.124696687,
				"element": "H" 
			},
			{
				"x": 3.0645114905,
				"y": -0.9765986284,
				"z": -1.4065305627,
				"element": "H" 
			},
			{
				"x": 1.2455138112,
				"y": 1.2714940932,
				"z": 1.0743489752,
				"element": "H" 
			},
			{
				"x": 1.101718628,
				"y": 2.1148038922,
				"z": -0.4756372504,
				"element": "H" 
			},
			{
				"x": -0.2940270519,
				"y": 1.2686388192,
				"z": 0.2095265393,
				"element": "H" 
			}
		],
		 "valence_orbital": [ 
			{
				"type": "occ",
				"energy": -0.33549,
				"method": "rhf"
			},
			{
				"type": "occ",
				"energy": -0.33006,
				"method": "rhf"
			},
			{
				"type": "occ",
				"energy": -0.32673,
				"method": "rhf"
			},
			{
				"type": "occ",
				"energy": -0.29316,
				"method": "rhf"
			},
			{
				"type": "occ",
				"energy": -0.2624,
				"method": "rhf"
			},
			{
				"type": "unocc",
				"energy": 0.01437,
				"method": "rhf"
			},
			{
				"type": "unocc",
				"energy": 0.08425,
				"method": "rhf"
			},
			{
				"type": "unocc",
				"energy": 0.1091,
				"method": "rhf"
			},
			{
				"type": "unocc",
				"energy": 0.12562,
				"method": "rhf"
			},
			{
				"type": "unocc",
				"energy": 0.13057,
				"method": "rhf"
			}
		],
		"cosmo_sigma_profile": { 
			"-0.025": 0.0,
			"-0.024": 0.0,
			"-0.023": 0.0,
			"-0.022": 0.0,
			"-0.021": 0.0,
			"-0.02": 0.0,
			"-0.019": 0.0,
			"-0.018": 0.0,
			"-0.017": 0.0,
			"-0.016": 0.0,
			"-0.015": 0.0,
			"-0.014": 0.0,
			"-0.013": 0.0,
			"-0.012": 0.0,
			"-0.011": 0.0,
			"-0.01": 0.0,
			"-0.009": 0.0,
			"-0.008": 0.0,
			"-0.007": 0.0,
			"-0.006": 1.03376123713,
			"-0.005": 5.79932524193,
			"-0.004": 14.7146984629,
			"-0.003": 28.0507477159,
			"-0.002": 33.6700420416,
			"-0.001": 27.4392757332,
			"0.0": 25.2076624814,
			"0.001": 21.919219416,
			"0.002": 9.11100363165,
			"0.003": 3.34674811279,
			"0.004": 4.09160654987,
			"0.005": 3.21976109019,
			"0.006": 2.12839944813,
			"0.007": 2.91581271292,
			"0.008": 2.60637954157,
			"0.009": 1.94798333509,
			"0.01": 1.55230348111,
			"0.011": 2.43230441287,
			"0.012": 4.19070939012,
			"0.013": 1.91985300395,
			"0.014": 0.172864230689,
			"0.015": 0.0,
			"0.016": 0.0,
			"0.017": 0.0,
			"0.018": 0.0,
			"0.019": 0.0,
			"0.02": 0.0,
			"0.021": 0.0,
			"0.022": 0.0,
			"0.023": 0.0,
			"0.024": 0.0,
			"0.025": 0.0
		}
	}
}
