{
	 "smiles": "NC(=O)C(=N/NC1=CC(Cl)=C(Cl)C=C1Cl)C1=NC2=C(S1)C=CC=C2", 
	 "Tm": 509.15, 
	 "num_atms": 33, 
	 "gaussian": { 
		 "optdone": 1, 
		 "sigma_profile": "yes", 
		 "theory": "DFT", 
		 "functional": "B3LYP", 
		 "basiset": "6-31G**", 
		 "properties": { 
			 "R2extent": 16953.8065, 
			 "electric_dipole_moment_norm": 3.58264547227, 
			 "electric_quadrupole_moment_norm": 7.95372033202, 
			 "total_energy": -2650.01297732, 
			 "HOMO_LUMO_gap": 0.13244, 
			 "cosmo_polarized_energy": -11.82, 
			 "cosmo_cavitation_energy": 45.33, 
			 "cosmo_dispersion_energy": -33.69, 
			 "cosmo_repulsion_energy": 2.49, 
			 "cosmo_total_nonelectrostatic_energy": 14.14, 
			 "SMD_solvation_energy": 5.63 
		},
		"coords": [
			{
				"x": 2.2862032775,
				"y": 0.5710017849,
				"z": 1.9635985011,
				"element": "N" 
			},
			{
				"x": 1.4598641718,
				"y": 1.1921704743,
				"z": 1.102382552,
				"element": "C" 
			},
			{
				"x": 1.1104202108,
				"y": 2.379180093,
				"z": 1.2580114087,
				"element": "O" 
			},
			{
				"x": 0.9578148653,
				"y": 0.4016747093,
				"z": -0.0723879134,
				"element": "C" 
			},
			{
				"x": 0.1589606741,
				"y": 0.9081199816,
				"z": -0.9836726856,
				"element": "N" 
			},
			{
				"x": -0.2301018152,
				"y": 2.1639447329,
				"z": -0.9136213575,
				"element": "N" 
			},
			{
				"x": -1.1241387668,
				"y": 2.7363824167,
				"z": -1.8228889393,
				"element": "C" 
			},
			{
				"x": -1.9023365577,
				"y": 3.7951912532,
				"z": -1.3269853898,
				"element": "C" 
			},
			{
				"x": -2.8075895625,
				"y": 4.4813157746,
				"z": -2.127818281,
				"element": "C" 
			},
			{
				"x": -3.7327171011,
				"y": 5.7809564214,
				"z": -1.4249247076,
				"element": "Cl" 
			},
			{
				"x": -2.9675000034,
				"y": 4.1048196563,
				"z": -3.4680865312,
				"element": "C" 
			},
			{
				"x": -4.095896087,
				"y": 4.9106771644,
				"z": -4.5237329848,
				"element": "Cl" 
			},
			{
				"x": -2.194941088,
				"y": 3.062534,
				"z": -3.9770746912,
				"element": "C" 
			},
			{
				"x": -1.2718415947,
				"y": 2.386574555,
				"z": -3.1807411864,
				"element": "C" 
			},
			{
				"x": -0.2928124802,
				"y": 1.1698374977,
				"z": -3.9628400842,
				"element": "Cl" 
			},
			{
				"x": 1.2992900971,
				"y": -1.0052998966,
				"z": -0.2875132676,
				"element": "C" 
			},
			{
				"x": 2.0705252213,
				"y": -1.7197856316,
				"z": 0.4872090842,
				"element": "N" 
			},
			{
				"x": 2.2040196713,
				"y": -3.0177846435,
				"z": 0.0268153813,
				"element": "C" 
			},
			{
				"x": 1.492673669,
				"y": -3.3008914978,
				"z": -1.1635797277,
				"element": "C" 
			},
			{
				"x": 0.6392461817,
				"y": -1.8661860559,
				"z": -1.6983621979,
				"element": "S" 
			},
			{
				"x": 1.5334747109,
				"y": -4.5701262143,
				"z": -1.7453854563,
				"element": "C" 
			},
			{
				"x": 2.2952966474,
				"y": -5.5558925003,
				"z": -1.1219528185,
				"element": "C" 
			},
			{
				"x": 3.0052363119,
				"y": -5.2839881302,
				"z": 0.0605909851,
				"element": "C" 
			},
			{
				"x": 2.9663940882,
				"y": -4.0221867687,
				"z": 0.6412845888,
				"element": "C" 
			},
			{
				"x": 2.6119783169,
				"y": 1.101206453,
				"z": 2.7575531569,
				"element": "H" 
			},
			{
				"x": 2.5312349344,
				"y": -0.4065907518,
				"z": 1.8117702813,
				"element": "H" 
			},
			{
				"x": 0.0878473358,
				"y": 2.6832991735,
				"z": -0.0772615796,
				"element": "H" 
			},
			{
				"x": -1.8035229708,
				"y": 4.0748253235,
				"z": -0.2836787703,
				"element": "H" 
			},
			{
				"x": -2.2987091334,
				"y": 2.7829564477,
				"z": -5.0183192927,
				"element": "H" 
			},
			{
				"x": 0.9875355019,
				"y": -4.7855593012,
				"z": -2.6583030625,
				"element": "H" 
			},
			{
				"x": 2.3401840476,
				"y": -6.5492949251,
				"z": -1.5579907651,
				"element": "H" 
			},
			{
				"x": 3.5911093903,
				"y": -6.0712027276,
				"z": 0.5251566558,
				"element": "H" 
			},
			{
				"x": 3.5095978357,
				"y": -3.7990788681,
				"z": 1.5538490952,
				"element": "H" 
			}
		],
		 "valence_orbital": [ 
			{
				"type": "occ",
				"energy": -0.2653,
				"method": "rhf"
			},
			{
				"type": "occ",
				"energy": -0.26325,
				"method": "rhf"
			},
			{
				"type": "occ",
				"energy": -0.25147,
				"method": "rhf"
			},
			{
				"type": "occ",
				"energy": -0.24038,
				"method": "rhf"
			},
			{
				"type": "occ",
				"energy": -0.21596,
				"method": "rhf"
			},
			{
				"type": "unocc",
				"energy": -0.08352,
				"method": "rhf"
			},
			{
				"type": "unocc",
				"energy": -0.03833,
				"method": "rhf"
			},
			{
				"type": "unocc",
				"energy": -0.02768,
				"method": "rhf"
			},
			{
				"type": "unocc",
				"energy": -0.01638,
				"method": "rhf"
			},
			{
				"type": "unocc",
				"energy": -0.0108,
				"method": "rhf"
			}
		],
		"cosmo_sigma_profile": { 
			"-0.025": 0.0,
			"-0.024": 0.0,
			"-0.023": 0.0,
			"-0.022": 0.0,
			"-0.021": 0.0,
			"-0.02": 0.0,
			"-0.019": 0.0,
			"-0.018": 0.0,
			"-0.017": 0.0,
			"-0.016": 0.0,
			"-0.015": 0.158975846218,
			"-0.014": 1.50548145371,
			"-0.013": 0.574464877754,
			"-0.012": 1.27858002982,
			"-0.011": 2.22729521962,
			"-0.01": 3.10069256945,
			"-0.009": 4.40123112289,
			"-0.008": 4.73383777613,
			"-0.007": 7.86127145607,
			"-0.006": 12.9408485521,
			"-0.005": 14.4844190056,
			"-0.004": 14.5474551212,
			"-0.003": 20.0385023763,
			"-0.002": 23.7470777026,
			"-0.001": 38.1990927071,
			"0.0": 46.4336967037,
			"0.001": 33.7535336315,
			"0.002": 36.6367727188,
			"0.003": 44.9350887989,
			"0.004": 37.7481211454,
			"0.005": 11.6853862182,
			"0.006": 2.01858542257,
			"0.007": 1.86535596239,
			"0.008": 1.4811144732,
			"0.009": 0.985041387139,
			"0.01": 1.92727553723,
			"0.011": 1.3512392206,
			"0.012": 1.68443933934,
			"0.013": 2.06443724205,
			"0.014": 0.393618384413,
			"0.015": 0.0,
			"0.016": 0.0,
			"0.017": 0.0,
			"0.018": 0.0,
			"0.019": 0.0,
			"0.02": 0.0,
			"0.021": 0.0,
			"0.022": 0.0,
			"0.023": 0.0,
			"0.024": 0.0,
			"0.025": 0.0
		}
	}
}
