{
	 "smiles": "[O-][N+](=O)C1=CC=C(O1)C=O", 
	 "Tm": 308.95, 
	 "num_atms": 13, 
	 "gaussian": { 
		 "optdone": 1, 
		 "sigma_profile": "yes", 
		 "theory": "DFT", 
		 "functional": "B3LYP", 
		 "basiset": "6-31G**", 
		 "properties": { 
			 "R2extent": 1609.9826, 
			 "electric_dipole_moment_norm": 2.2535415816, 
			 "electric_quadrupole_moment_norm": 16.7117049567, 
			 "total_energy": -547.832647421, 
			 "HOMO_LUMO_gap": 0.16475, 
			 "cosmo_polarized_energy": -11.23, 
			 "cosmo_cavitation_energy": 19.86, 
			 "cosmo_dispersion_energy": -14.32, 
			 "cosmo_repulsion_energy": 1.17, 
			 "cosmo_total_nonelectrostatic_energy": 6.72, 
			 "SMD_solvation_energy": 7.9 
		},
		"coords": [
			{
				"x": 1.4463239527,
				"y": 1.6653100368,
				"z": 1.802824925,
				"element": "O" 
			},
			{
				"x": 0.470322175,
				"y": 0.9206877678,
				"z": 1.8033740301,
				"element": "N" 
			},
			{
				"x": -0.2250379587,
				"y": 0.6183882735,
				"z": 2.7756183885,
				"element": "O" 
			},
			{
				"x": 0.0776425013,
				"y": 0.3276811864,
				"z": 0.5555579427,
				"element": "C" 
			},
			{
				"x": -0.9551771771,
				"y": -0.5276568661,
				"z": 0.2700394658,
				"element": "C" 
			},
			{
				"x": -0.8515335273,
				"y": -0.7757898339,
				"z": -1.1215423494,
				"element": "C" 
			},
			{
				"x": 0.232409094,
				"y": -0.0535668034,
				"z": -1.5686758369,
				"element": "C" 
			},
			{
				"x": 0.8078066393,
				"y": 0.6292869558,
				"z": -0.5321728393,
				"element": "O" 
			},
			{
				"x": 0.8393494218,
				"y": 0.0982534383,
				"z": -2.8932861952,
				"element": "C" 
			},
			{
				"x": 0.4033705465,
				"y": -0.465913313,
				"z": -3.8782675787,
				"element": "O" 
			},
			{
				"x": -1.6742051411,
				"y": -0.9101270986,
				"z": 0.9774468323,
				"element": "H" 
			},
			{
				"x": -1.4817241246,
				"y": -1.4013346357,
				"z": -1.7363727141,
				"element": "H" 
			},
			{
				"x": 1.723053598,
				"y": 0.7658808921,
				"z": -2.9237440708,
				"element": "H" 
			}
		],
		 "valence_orbital": [ 
			{
				"type": "occ",
				"energy": -0.32733,
				"method": "rhf"
			},
			{
				"type": "occ",
				"energy": -0.32415,
				"method": "rhf"
			},
			{
				"type": "occ",
				"energy": -0.31145,
				"method": "rhf"
			},
			{
				"type": "occ",
				"energy": -0.28686,
				"method": "rhf"
			},
			{
				"type": "occ",
				"energy": -0.28514,
				"method": "rhf"
			},
			{
				"type": "unocc",
				"energy": -0.12039,
				"method": "rhf"
			},
			{
				"type": "unocc",
				"energy": -0.06851,
				"method": "rhf"
			},
			{
				"type": "unocc",
				"energy": 0.0222,
				"method": "rhf"
			},
			{
				"type": "unocc",
				"energy": 0.06157,
				"method": "rhf"
			},
			{
				"type": "unocc",
				"energy": 0.08469,
				"method": "rhf"
			}
		],
		"cosmo_sigma_profile": { 
			"-0.025": 0.0,
			"-0.024": 0.0,
			"-0.023": 0.0,
			"-0.022": 0.0,
			"-0.021": 0.0,
			"-0.02": 0.0,
			"-0.019": 0.0,
			"-0.018": 0.0,
			"-0.017": 0.0,
			"-0.016": 0.0,
			"-0.015": 0.0,
			"-0.014": 0.0,
			"-0.013": 0.0,
			"-0.012": 0.0,
			"-0.011": 0.58928124731,
			"-0.01": 2.82961029586,
			"-0.009": 4.01251746304,
			"-0.008": 10.0703093228,
			"-0.007": 7.65478588187,
			"-0.006": 9.650561261,
			"-0.005": 9.63193002349,
			"-0.004": 10.7642696925,
			"-0.003": 11.8030211722,
			"-0.002": 11.2040884128,
			"-0.001": 10.1219926376,
			"0.0": 5.85022641284,
			"0.001": 4.10596556837,
			"0.002": 4.58248100362,
			"0.003": 3.99792211322,
			"0.004": 4.25607930115,
			"0.005": 5.02990734565,
			"0.006": 7.62444536934,
			"0.007": 13.5122388405,
			"0.008": 9.27632094292,
			"0.009": 6.42940527395,
			"0.01": 4.69884037005,
			"0.011": 2.63042375061,
			"0.012": 0.472890668316,
			"0.013": 0.0,
			"0.014": 0.0,
			"0.015": 0.0,
			"0.016": 0.0,
			"0.017": 0.0,
			"0.018": 0.0,
			"0.019": 0.0,
			"0.02": 0.0,
			"0.021": 0.0,
			"0.022": 0.0,
			"0.023": 0.0,
			"0.024": 0.0,
			"0.025": 0.0
		}
	}
}
