{
	 "smiles": "COC1=CC=C2NCCCC2=C1", 
	 "Tm": 315.65, 
	 "num_atms": 25, 
	 "gaussian": { 
		 "optdone": 1, 
		 "sigma_profile": "yes", 
		 "theory": "DFT", 
		 "functional": "B3LYP", 
		 "basiset": "6-31G**", 
		 "properties": { 
			 "R2extent": 2697.1471, 
			 "electric_dipole_moment_norm": 2.03549385654, 
			 "electric_quadrupole_moment_norm": 9.75645369743, 
			 "total_energy": -518.867734573, 
			 "HOMO_LUMO_gap": 0.17896, 
			 "cosmo_polarized_energy": -8.18, 
			 "cosmo_cavitation_energy": 26.65, 
			 "cosmo_dispersion_energy": -20.26, 
			 "cosmo_repulsion_energy": 1.62, 
			 "cosmo_total_nonelectrostatic_energy": 8.01, 
			 "SMD_solvation_energy": 3.7 
		},
		"coords": [
			{
				"x": -4.074185792,
				"y": -2.3973528121,
				"z": 0.8447703174,
				"element": "C" 
			},
			{
				"x": -3.5176109251,
				"y": -1.2250290189,
				"z": 1.4062232428,
				"element": "O" 
			},
			{
				"x": -2.238038194,
				"y": -0.8840325338,
				"z": 1.0399636088,
				"element": "C" 
			},
			{
				"x": -1.7278017087,
				"y": 0.288196146,
				"z": 1.6149572546,
				"element": "C" 
			},
			{
				"x": -0.4422274621,
				"y": 0.7102805807,
				"z": 1.3133286068,
				"element": "C" 
			},
			{
				"x": 0.3753302253,
				"y": -0.0155285317,
				"z": 0.4254785561,
				"element": "C" 
			},
			{
				"x": 1.6802327005,
				"y": 0.4189517916,
				"z": 0.168787561,
				"element": "N" 
			},
			{
				"x": 2.5247587141,
				"y": -0.2638918058,
				"z": -0.8063079636,
				"element": "C" 
			},
			{
				"x": 1.7018615623,
				"y": -1.010021454,
				"z": -1.8622657653,
				"element": "C" 
			},
			{
				"x": 0.7028466154,
				"y": -1.9459157182,
				"z": -1.1675260444,
				"element": "C" 
			},
			{
				"x": -0.1410216816,
				"y": -1.1829374304,
				"z": -0.1663818501,
				"element": "C" 
			},
			{
				"x": -1.4407683679,
				"y": -1.6050980112,
				"z": 0.1504534458,
				"element": "C" 
			},
			{
				"x": -4.1486608585,
				"y": -2.3321229198,
				"z": -0.2497363564,
				"element": "H" 
			},
			{
				"x": -3.4918709576,
				"y": -3.2922093887,
				"z": 1.1050741365,
				"element": "H" 
			},
			{
				"x": -5.0776373104,
				"y": -2.4905604422,
				"z": 1.2646400531,
				"element": "H" 
			},
			{
				"x": -2.3553017032,
				"y": 0.8503776641,
				"z": 2.2990551837,
				"element": "H" 
			},
			{
				"x": -0.0515702965,
				"y": 1.6144758958,
				"z": 1.7747673723,
				"element": "H" 
			},
			{
				"x": 1.8177572659,
				"y": 1.414623989,
				"z": 0.249584283,
				"element": "H" 
			},
			{
				"x": 3.1816915856,
				"y": 0.4750481532,
				"z": -1.2768831689,
				"element": "H" 
			},
			{
				"x": 3.1796079503,
				"y": -0.985821101,
				"z": -0.2934129788,
				"element": "H" 
			},
			{
				"x": 1.1595696389,
				"y": -0.2875209488,
				"z": -2.4844463943,
				"element": "H" 
			},
			{
				"x": 2.3715251209,
				"y": -1.5750888003,
				"z": -2.5197796993,
				"element": "H" 
			},
			{
				"x": 1.2577308908,
				"y": -2.7523349108,
				"z": -0.6654400406,
				"element": "H" 
			},
			{
				"x": 0.0560854613,
				"y": -2.4334139772,
				"z": -1.9060429355,
				"element": "H" 
			},
			{
				"x": -1.8170024735,
				"y": -2.5041744153,
				"z": -0.3266604246,
				"element": "H" 
			}
		],
		 "valence_orbital": [ 
			{
				"type": "occ",
				"energy": -0.31234,
				"method": "rhf"
			},
			{
				"type": "occ",
				"energy": -0.30636,
				"method": "rhf"
			},
			{
				"type": "occ",
				"energy": -0.25433,
				"method": "rhf"
			},
			{
				"type": "occ",
				"energy": -0.23132,
				"method": "rhf"
			},
			{
				"type": "occ",
				"energy": -0.16918,
				"method": "rhf"
			},
			{
				"type": "unocc",
				"energy": 0.00978,
				"method": "rhf"
			},
			{
				"type": "unocc",
				"energy": 0.03875,
				"method": "rhf"
			},
			{
				"type": "unocc",
				"energy": 0.08372,
				"method": "rhf"
			},
			{
				"type": "unocc",
				"energy": 0.10606,
				"method": "rhf"
			},
			{
				"type": "unocc",
				"energy": 0.11255,
				"method": "rhf"
			}
		],
		"cosmo_sigma_profile": { 
			"-0.025": 0.0,
			"-0.024": 0.0,
			"-0.023": 0.0,
			"-0.022": 0.0,
			"-0.021": 0.0,
			"-0.02": 0.0,
			"-0.019": 0.0,
			"-0.018": 0.0,
			"-0.017": 0.0,
			"-0.016": 0.0,
			"-0.015": 0.0,
			"-0.014": 0.0,
			"-0.013": 0.0144237752768,
			"-0.012": 0.764985738768,
			"-0.011": 1.27530141471,
			"-0.01": 1.24902875202,
			"-0.009": 1.45244998906,
			"-0.008": 1.12518923807,
			"-0.007": 1.75862217777,
			"-0.006": 3.41288007193,
			"-0.005": 11.484445971,
			"-0.004": 18.1056206619,
			"-0.003": 26.3189507314,
			"-0.002": 27.6567361861,
			"-0.001": 21.9074403327,
			"0.0": 18.1962124745,
			"0.001": 10.0012550554,
			"0.002": 7.15190278862,
			"0.003": 7.33014918125,
			"0.004": 6.95769289085,
			"0.005": 9.94737155341,
			"0.006": 10.594918675,
			"0.007": 10.7972566201,
			"0.008": 4.18233787371,
			"0.009": 1.95030370395,
			"0.01": 1.88659509881,
			"0.011": 2.61249590048,
			"0.012": 0.930748346361,
			"0.013": 0.0931227028303,
			"0.014": 0.0,
			"0.015": 0.0,
			"0.016": 0.0,
			"0.017": 0.0,
			"0.018": 0.0,
			"0.019": 0.0,
			"0.02": 0.0,
			"0.021": 0.0,
			"0.022": 0.0,
			"0.023": 0.0,
			"0.024": 0.0,
			"0.025": 0.0
		}
	}
}
