{
	 "smiles": "OC(=O)C1=CN(CC2=CC=CC=C2)N=C1", 
	 "Tm": 423.15, 
	 "num_atms": 25, 
	 "gaussian": { 
		 "optdone": 1, 
		 "sigma_profile": "yes", 
		 "theory": "DFT", 
		 "functional": "B3LYP", 
		 "basiset": "6-31G**", 
		 "properties": { 
			 "R2extent": 4221.1667, 
			 "electric_dipole_moment_norm": 4.40501265605, 
			 "electric_quadrupole_moment_norm": 24.3636156135, 
			 "total_energy": -685.135190471, 
			 "HOMO_LUMO_gap": 0.23156, 
			 "cosmo_polarized_energy": -18.39, 
			 "cosmo_cavitation_energy": 30.31, 
			 "cosmo_dispersion_energy": -21.59, 
			 "cosmo_repulsion_energy": 1.69, 
			 "cosmo_total_nonelectrostatic_energy": 10.41, 
			 "SMD_solvation_energy": 5.78 
		},
		"coords": [
			{
				"x": -2.7238869185,
				"y": -1.5646418385,
				"z": -4.2051223673,
				"element": "O" 
			},
			{
				"x": -2.549217994,
				"y": -1.7590002197,
				"z": -2.8681299759,
				"element": "C" 
			},
			{
				"x": -2.8864915873,
				"y": -2.80528066,
				"z": -2.3621747861,
				"element": "O" 
			},
			{
				"x": -1.9432498384,
				"y": -0.6477984663,
				"z": -2.1108996638,
				"element": "C" 
			},
			{
				"x": -1.6611966994,
				"y": -0.7039818248,
				"z": -0.7514821956,
				"element": "C" 
			},
			{
				"x": -1.1396381014,
				"y": 0.4906198682,
				"z": -0.4065729693,
				"element": "N" 
			},
			{
				"x": -0.6156664329,
				"y": 0.9036097724,
				"z": 0.8966065127,
				"element": "C" 
			},
			{
				"x": 0.8266070463,
				"y": 0.4929125749,
				"z": 1.1277713281,
				"element": "C" 
			},
			{
				"x": 1.1651351238,
				"y": -0.3150290926,
				"z": 2.2175310772,
				"element": "C" 
			},
			{
				"x": 2.4944525944,
				"y": -0.6798422259,
				"z": 2.4442066438,
				"element": "C" 
			},
			{
				"x": 3.4945974976,
				"y": -0.2421092011,
				"z": 1.576497096,
				"element": "C" 
			},
			{
				"x": 3.1621657491,
				"y": 0.5634204236,
				"z": 0.4834135638,
				"element": "C" 
			},
			{
				"x": 1.8366764281,
				"y": 0.932017749,
				"z": 0.2607115926,
				"element": "C" 
			},
			{
				"x": -1.0477012939,
				"y": 1.3417373645,
				"z": -1.4613565126,
				"element": "N" 
			},
			{
				"x": -1.5340167227,
				"y": 0.6569630457,
				"z": -2.490916455,
				"element": "C" 
			},
			{
				"x": -2.3878603929,
				"y": -0.6979712195,
				"z": -4.4711440474,
				"element": "H" 
			},
			{
				"x": -1.8051423086,
				"y": -1.5095197085,
				"z": -0.0472951886,
				"element": "H" 
			},
			{
				"x": -1.2629729586,
				"y": 0.4774243897,
				"z": 1.6677693014,
				"element": "H" 
			},
			{
				"x": -0.7265803077,
				"y": 1.9905401431,
				"z": 0.925119169,
				"element": "H" 
			},
			{
				"x": 0.3875959892,
				"y": -0.6603643697,
				"z": 2.8949791752,
				"element": "H" 
			},
			{
				"x": 2.7447000689,
				"y": -1.307798074,
				"z": 3.2943161563,
				"element": "H" 
			},
			{
				"x": 4.5285341332,
				"y": -0.5264852047,
				"z": 1.748974873,
				"element": "H" 
			},
			{
				"x": 3.9381756117,
				"y": 0.9067054855,
				"z": -0.1946853891,
				"element": "H" 
			},
			{
				"x": 1.5745631966,
				"y": 1.5543319879,
				"z": -0.5902523045,
				"element": "H" 
			},
			{
				"x": -1.5818818825,
				"y": 1.1387393006,
				"z": -3.460464634,
				"element": "H" 
			}
		],
		 "valence_orbital": [ 
			{
				"type": "occ",
				"energy": -0.27575,
				"method": "rhf"
			},
			{
				"type": "occ",
				"energy": -0.26632,
				"method": "rhf"
			},
			{
				"type": "occ",
				"energy": -0.26305,
				"method": "rhf"
			},
			{
				"type": "occ",
				"energy": -0.26076,
				"method": "rhf"
			},
			{
				"type": "occ",
				"energy": -0.25649,
				"method": "rhf"
			},
			{
				"type": "unocc",
				"energy": -0.02493,
				"method": "rhf"
			},
			{
				"type": "unocc",
				"energy": -0.0192,
				"method": "rhf"
			},
			{
				"type": "unocc",
				"energy": -0.01163,
				"method": "rhf"
			},
			{
				"type": "unocc",
				"energy": 0.00624,
				"method": "rhf"
			},
			{
				"type": "unocc",
				"energy": 0.05747,
				"method": "rhf"
			}
		],
		"cosmo_sigma_profile": { 
			"-0.025": 0.0,
			"-0.024": 0.0,
			"-0.023": 0.0,
			"-0.022": 0.0,
			"-0.021": 0.0,
			"-0.02": 0.0,
			"-0.019": 0.21550712824,
			"-0.018": 1.215864948,
			"-0.017": 1.18884470598,
			"-0.016": 1.50000468057,
			"-0.015": 0.498283234861,
			"-0.014": 0.954212246605,
			"-0.013": 1.17679130365,
			"-0.012": 1.39698009452,
			"-0.011": 1.34461917351,
			"-0.01": 2.70424918363,
			"-0.009": 4.00934436743,
			"-0.008": 5.59286259824,
			"-0.007": 7.45733633302,
			"-0.006": 12.7154502462,
			"-0.005": 14.1633432584,
			"-0.004": 17.1592913224,
			"-0.003": 15.2848992226,
			"-0.002": 13.9456115445,
			"-0.001": 13.5797935357,
			"0.0": 12.846501854,
			"0.001": 16.0998449381,
			"0.002": 18.281548906,
			"0.003": 12.9451202761,
			"0.004": 12.2486592639,
			"0.005": 13.7446043898,
			"0.006": 7.96547520923,
			"0.007": 2.85418549212,
			"0.008": 2.75958506069,
			"0.009": 5.18120291188,
			"0.01": 4.49253981486,
			"0.011": 6.05311232119,
			"0.012": 6.48759806768,
			"0.013": 3.7054894717,
			"0.014": 1.08601671267,
			"0.015": 0.0,
			"0.016": 0.0,
			"0.017": 0.0,
			"0.018": 0.0,
			"0.019": 0.0,
			"0.02": 0.0,
			"0.021": 0.0,
			"0.022": 0.0,
			"0.023": 0.0,
			"0.024": 0.0,
			"0.025": 0.0
		}
	}
}
