{
	 "smiles": "CC(Cl)(Cl)C(=O)OCCOC1=CC(Cl)=C(Cl)C=C1Cl", 
	 "Tm": 322.65, 
	 "num_atms": 28, 
	 "gaussian": { 
		 "optdone": 1, 
		 "sigma_profile": "yes", 
		 "theory": "DFT", 
		 "functional": "B3LYP", 
		 "basiset": "6-31G**", 
		 "properties": { 
			 "R2extent": 11268.0168, 
			 "electric_dipole_moment_norm": 2.59890244526, 
			 "electric_quadrupole_moment_norm": 25.0885327718, 
			 "total_energy": -2951.21018332, 
			 "HOMO_LUMO_gap": 0.19537, 
			 "cosmo_polarized_energy": -14.22, 
			 "cosmo_cavitation_energy": 42.33, 
			 "cosmo_dispersion_energy": -29.04, 
			 "cosmo_repulsion_energy": 2.3, 
			 "cosmo_total_nonelectrostatic_energy": 15.58, 
			 "SMD_solvation_energy": 6.91 
		},
		"coords": [
			{
				"x": 2.8307295251,
				"y": 2.0931875324,
				"z": -1.3819100473,
				"element": "C" 
			},
			{
				"x": 3.8159355014,
				"y": 1.2359132912,
				"z": -0.5969208558,
				"element": "C" 
			},
			{
				"x": 4.9075968172,
				"y": 0.3655343848,
				"z": -1.7257513316,
				"element": "Cl" 
			},
			{
				"x": 4.8142140979,
				"y": 2.3063825138,
				"z": 0.4970976234,
				"element": "Cl" 
			},
			{
				"x": 3.1235019153,
				"y": 0.2051841143,
				"z": 0.3296414273,
				"element": "C" 
			},
			{
				"x": 3.4100343099,
				"y": -0.9601011858,
				"z": 0.4282200891,
				"element": "O" 
			},
			{
				"x": 2.1407384279,
				"y": 0.8140369734,
				"z": 1.0178630125,
				"element": "O" 
			},
			{
				"x": 1.4214910557,
				"y": -0.0221529912,
				"z": 1.9455514952,
				"element": "C" 
			},
			{
				"x": 0.3501905797,
				"y": 0.8415228701,
				"z": 2.5867577403,
				"element": "C" 
			},
			{
				"x": -0.6194857524,
				"y": 1.3093269257,
				"z": 1.6516463849,
				"element": "O" 
			},
			{
				"x": -1.6255279723,
				"y": 0.4985070506,
				"z": 1.2379844601,
				"element": "C" 
			},
			{
				"x": -1.8689947377,
				"y": -0.7913935902,
				"z": 1.7184024202,
				"element": "C" 
			},
			{
				"x": -2.9490733339,
				"y": -1.5427368453,
				"z": 1.2453056389,
				"element": "C" 
			},
			{
				"x": -3.1860348698,
				"y": -3.1439858035,
				"z": 1.8961462125,
				"element": "Cl" 
			},
			{
				"x": -3.8046816552,
				"y": -1.0132225168,
				"z": 0.2761462448,
				"element": "C" 
			},
			{
				"x": -5.1629820769,
				"y": -1.9104223621,
				"z": -0.3494248748,
				"element": "Cl" 
			},
			{
				"x": -3.5658338585,
				"y": 0.2747239355,
				"z": -0.2116515514,
				"element": "C" 
			},
			{
				"x": -2.4939869542,
				"y": 1.0209412223,
				"z": 0.2580159591,
				"element": "C" 
			},
			{
				"x": -2.2236802389,
				"y": 2.6266215525,
				"z": -0.3710700659,
				"element": "Cl" 
			},
			{
				"x": 2.1699635476,
				"y": 2.6229854252,
				"z": -0.6946221297,
				"element": "H" 
			},
			{
				"x": 2.2296440499,
				"y": 1.4516709079,
				"z": -2.0327878136,
				"element": "H" 
			},
			{
				"x": 3.3750619386,
				"y": 2.8107872707,
				"z": -1.9975199536,
				"element": "H" 
			},
			{
				"x": 2.1111600351,
				"y": -0.3987719819,
				"z": 2.7086223905,
				"element": "H" 
			},
			{
				"x": 1.0065253116,
				"y": -0.8800149432,
				"z": 1.4098698921,
				"element": "H" 
			},
			{
				"x": -0.1215869042,
				"y": 0.3000172457,
				"z": 3.4155503774,
				"element": "H" 
			},
			{
				"x": 0.8043820916,
				"y": 1.7491994272,
				"z": 2.9904879172,
				"element": "H" 
			},
			{
				"x": -1.2306679602,
				"y": -1.2384207934,
				"z": 2.4685527207,
				"element": "H" 
			},
			{
				"x": -4.2235328903,
				"y": 0.6940803701,
				"z": -0.9632033824,
				"element": "H" 
			}
		],
		 "valence_orbital": [ 
			{
				"type": "occ",
				"energy": -0.31481,
				"method": "rhf"
			},
			{
				"type": "occ",
				"energy": -0.30825,
				"method": "rhf"
			},
			{
				"type": "occ",
				"energy": -0.2973,
				"method": "rhf"
			},
			{
				"type": "occ",
				"energy": -0.27095,
				"method": "rhf"
			},
			{
				"type": "occ",
				"energy": -0.24289,
				"method": "rhf"
			},
			{
				"type": "unocc",
				"energy": -0.04752,
				"method": "rhf"
			},
			{
				"type": "unocc",
				"energy": -0.04314,
				"method": "rhf"
			},
			{
				"type": "unocc",
				"energy": -0.02857,
				"method": "rhf"
			},
			{
				"type": "unocc",
				"energy": -0.01665,
				"method": "rhf"
			},
			{
				"type": "unocc",
				"energy": -0.00581,
				"method": "rhf"
			}
		],
		"cosmo_sigma_profile": { 
			"-0.025": 0.0,
			"-0.024": 0.0,
			"-0.023": 0.0,
			"-0.022": 0.0,
			"-0.021": 0.0,
			"-0.02": 0.0,
			"-0.019": 0.0,
			"-0.018": 0.0,
			"-0.017": 0.0,
			"-0.016": 0.0,
			"-0.015": 0.0,
			"-0.014": 0.0,
			"-0.013": 0.0,
			"-0.012": 0.359802923001,
			"-0.011": 1.59196863184,
			"-0.01": 2.20537257582,
			"-0.009": 4.69987117499,
			"-0.008": 11.3422491832,
			"-0.007": 13.9766404778,
			"-0.006": 13.8924023352,
			"-0.005": 14.8542709432,
			"-0.004": 12.2709486039,
			"-0.003": 18.8526418537,
			"-0.002": 22.2589427633,
			"-0.001": 24.8489305436,
			"0.0": 37.4923121953,
			"0.001": 31.5753924867,
			"0.002": 26.0920922515,
			"0.003": 35.9664118463,
			"0.004": 42.5121198709,
			"0.005": 11.4885552114,
			"0.006": 4.38610134827,
			"0.007": 3.15616385547,
			"0.008": 4.59373925941,
			"0.009": 3.66240138713,
			"0.01": 4.77033881495,
			"0.011": 1.965771185,
			"0.012": 0.187540160916,
			"0.013": 0.0,
			"0.014": 0.0,
			"0.015": 0.0,
			"0.016": 0.0,
			"0.017": 0.0,
			"0.018": 0.0,
			"0.019": 0.0,
			"0.02": 0.0,
			"0.021": 0.0,
			"0.022": 0.0,
			"0.023": 0.0,
			"0.024": 0.0,
			"0.025": 0.0
		}
	}
}
