{
	 "smiles": "OC(=O)C1=CN=C(C=C1)N1C=CC=C1", 
	 "Tm": 533.15, 
	 "num_atms": 22, 
	 "gaussian": { 
		 "optdone": 1, 
		 "sigma_profile": "yes", 
		 "theory": "DFT", 
		 "functional": "B3LYP", 
		 "basiset": "6-31G**", 
		 "properties": { 
			 "R2extent": 3675.9332, 
			 "electric_dipole_moment_norm": 3.11374794259, 
			 "electric_quadrupole_moment_norm": 23.1178187416, 
			 "total_energy": -645.827612121, 
			 "HOMO_LUMO_gap": 0.15885, 
			 "cosmo_polarized_energy": -16.03, 
			 "cosmo_cavitation_energy": 26.99, 
			 "cosmo_dispersion_energy": -20.15, 
			 "cosmo_repulsion_energy": 1.54, 
			 "cosmo_total_nonelectrostatic_energy": 8.38, 
			 "SMD_solvation_energy": 5.58 
		},
		"coords": [
			{
				"x": 3.1865359817,
				"y": -0.7942948898,
				"z": 2.8813032273,
				"element": "O" 
			},
			{
				"x": 3.3395451323,
				"y": -0.7748288895,
				"z": 1.5305095259,
				"element": "C" 
			},
			{
				"x": 4.4249195814,
				"y": -0.9886404715,
				"z": 1.0425591994,
				"element": "O" 
			},
			{
				"x": 2.1254071626,
				"y": -0.485346303,
				"z": 0.7107335822,
				"element": "C" 
			},
			{
				"x": 0.8112763455,
				"y": -0.5806463615,
				"z": 1.1786991138,
				"element": "C" 
			},
			{
				"x": -0.2676725925,
				"y": -0.3329439084,
				"z": 0.4372835158,
				"element": "N" 
			},
			{
				"x": -0.0890216416,
				"y": 0.0234100728,
				"z": -0.8408066768,
				"element": "C" 
			},
			{
				"x": 1.1883815328,
				"y": 0.1193761585,
				"z": -1.4289670156,
				"element": "C" 
			},
			{
				"x": 2.2935550291,
				"y": -0.1433926496,
				"z": -0.6407885641,
				"element": "C" 
			},
			{
				"x": -1.2550255555,
				"y": 0.2890390517,
				"z": -1.5683228386,
				"element": "N" 
			},
			{
				"x": -2.5465601893,
				"y": 0.1540504769,
				"z": -1.0641021397,
				"element": "C" 
			},
			{
				"x": -3.4275399158,
				"y": 0.4981048217,
				"z": -2.0525121935,
				"element": "C" 
			},
			{
				"x": -2.6635532492,
				"y": 0.861100614,
				"z": -3.2092060095,
				"element": "C" 
			},
			{
				"x": -1.3400750808,
				"y": 0.7249300785,
				"z": -2.8893702915,
				"element": "C" 
			},
			{
				"x": 2.3177692754,
				"y": -0.4530866813,
				"z": 3.134051199,
				"element": "H" 
			},
			{
				"x": 0.5976240313,
				"y": -0.9004987167,
				"z": 2.1992920742,
				"element": "H" 
			},
			{
				"x": 1.3113876519,
				"y": 0.3829918668,
				"z": -2.4714711093,
				"element": "H" 
			},
			{
				"x": 3.2991767199,
				"y": -0.0939028798,
				"z": -1.04465552,
				"element": "H" 
			},
			{
				"x": -2.6903729907,
				"y": -0.1773969956,
				"z": -0.0499629162,
				"element": "H" 
			},
			{
				"x": -4.5048200319,
				"y": 0.4923093685,
				"z": -1.964809783,
				"element": "H" 
			},
			{
				"x": -3.0483242207,
				"y": 1.1866263001,
				"z": -4.1655156435,
				"element": "H" 
			},
			{
				"x": -0.4597129758,
				"y": 0.9094399371,
				"z": -3.4823407363,
				"element": "H" 
			}
		],
		 "valence_orbital": [ 
			{
				"type": "occ",
				"energy": -0.30446,
				"method": "rhf"
			},
			{
				"type": "occ",
				"energy": -0.29467,
				"method": "rhf"
			},
			{
				"type": "occ",
				"energy": -0.27604,
				"method": "rhf"
			},
			{
				"type": "occ",
				"energy": -0.23952,
				"method": "rhf"
			},
			{
				"type": "occ",
				"energy": -0.22509,
				"method": "rhf"
			},
			{
				"type": "unocc",
				"energy": -0.06624,
				"method": "rhf"
			},
			{
				"type": "unocc",
				"energy": -0.04747,
				"method": "rhf"
			},
			{
				"type": "unocc",
				"energy": 0.01076,
				"method": "rhf"
			},
			{
				"type": "unocc",
				"energy": 0.05224,
				"method": "rhf"
			},
			{
				"type": "unocc",
				"energy": 0.06463,
				"method": "rhf"
			}
		],
		"cosmo_sigma_profile": { 
			"-0.025": 0.0,
			"-0.024": 0.0,
			"-0.023": 0.0,
			"-0.022": 0.0,
			"-0.021": 0.0,
			"-0.02": 0.0,
			"-0.019": 0.686479494163,
			"-0.018": 1.06590610215,
			"-0.017": 1.25071514318,
			"-0.016": 1.16888765936,
			"-0.015": 1.12240849667,
			"-0.014": 0.353023910378,
			"-0.013": 1.11502479442,
			"-0.012": 1.90008290962,
			"-0.011": 1.92467239281,
			"-0.01": 2.55364404436,
			"-0.009": 2.92227069211,
			"-0.008": 4.80980856504,
			"-0.007": 6.84133213077,
			"-0.006": 10.5143271783,
			"-0.005": 8.61171899395,
			"-0.004": 12.0576760652,
			"-0.003": 11.0707559694,
			"-0.002": 14.3200334262,
			"-0.001": 19.0043024417,
			"0.0": 17.6328911645,
			"0.001": 13.5258618206,
			"0.002": 10.7862396853,
			"0.003": 10.9087158828,
			"0.004": 9.33718541128,
			"0.005": 9.93263166394,
			"0.006": 9.2282402835,
			"0.007": 7.90930976552,
			"0.008": 4.78389343968,
			"0.009": 4.69620962894,
			"0.01": 5.17777570085,
			"0.011": 5.42309342968,
			"0.012": 4.08191634136,
			"0.013": 1.21574966057,
			"0.014": 0.003954556746,
			"0.015": 0.0,
			"0.016": 0.0,
			"0.017": 0.0,
			"0.018": 0.0,
			"0.019": 0.0,
			"0.02": 0.0,
			"0.021": 0.0,
			"0.022": 0.0,
			"0.023": 0.0,
			"0.024": 0.0,
			"0.025": 0.0
		}
	}
}
