{
	 "smiles": "OC(=O)CC(Br)C(O)=O", 
	 "Tm": 436.15, 
	 "num_atms": 14, 
	 "gaussian": { 
		 "optdone": 1, 
		 "sigma_profile": "yes", 
		 "theory": "DFT", 
		 "functional": "B3LYP", 
		 "basiset": "6-31G**", 
		 "properties": { 
			 "R2extent": 2268.7228, 
			 "electric_dipole_moment_norm": 3.25448204635, 
			 "electric_quadrupole_moment_norm": 10.4835035837, 
			 "total_energy": -3027.76315083, 
			 "HOMO_LUMO_gap": 0.23012, 
			 "cosmo_polarized_energy": -15.78, 
			 "cosmo_cavitation_energy": 21.68, 
			 "cosmo_dispersion_energy": -15.8, 
			 "cosmo_repulsion_energy": 1.35, 
			 "cosmo_total_nonelectrostatic_energy": 7.22, 
			 "SMD_solvation_energy": 5.1 
		},
		"coords": [
			{
				"x": -3.8780062968,
				"y": -0.2624290557,
				"z": 1.679917737,
				"element": "O" 
			},
			{
				"x": -3.161835269,
				"y": -0.326765273,
				"z": 0.5376637029,
				"element": "C" 
			},
			{
				"x": -3.5833018552,
				"y": -0.8137262412,
				"z": -0.4865675841,
				"element": "O" 
			},
			{
				"x": -1.8040841677,
				"y": 0.3317590936,
				"z": 0.6996838199,
				"element": "C" 
			},
			{
				"x": -0.7897787814,
				"y": -0.2086591686,
				"z": -0.2991117811,
				"element": "C" 
			},
			{
				"x": -0.2426475655,
				"y": -2.055950528,
				"z": 0.2077955077,
				"element": "Br" 
			},
			{
				"x": 0.47670429,
				"y": 0.6196787616,
				"z": -0.4128246226,
				"element": "C" 
			},
			{
				"x": 0.9533315646,
				"y": 0.9940780992,
				"z": 0.7941088569,
				"element": "O" 
			},
			{
				"x": 0.9931601032,
				"y": 0.9282429519,
				"z": -1.4610596137,
				"element": "O" 
			},
			{
				"x": -4.7412662532,
				"y": -0.6664575419,
				"z": 1.4865704771,
				"element": "H" 
			},
			{
				"x": -1.9504622694,
				"y": 1.4052009527,
				"z": 0.5099851404,
				"element": "H" 
			},
			{
				"x": -1.4498871522,
				"y": 0.2390950355,
				"z": 1.7271971137,
				"element": "H" 
			},
			{
				"x": -1.2255580903,
				"y": -0.3161779009,
				"z": -1.2894709311,
				"element": "H" 
			},
			{
				"x": 1.7648317428,
				"y": 1.5016108149,
				"z": 0.6247121771,
				"element": "H" 
			}
		],
		 "valence_orbital": [ 
			{
				"type": "occ",
				"energy": -0.3338,
				"method": "rhf"
			},
			{
				"type": "occ",
				"energy": -0.30346,
				"method": "rhf"
			},
			{
				"type": "occ",
				"energy": -0.29257,
				"method": "rhf"
			},
			{
				"type": "occ",
				"energy": -0.28575,
				"method": "rhf"
			},
			{
				"type": "occ",
				"energy": -0.28009,
				"method": "rhf"
			},
			{
				"type": "unocc",
				"energy": -0.04997,
				"method": "rhf"
			},
			{
				"type": "unocc",
				"energy": -0.00583,
				"method": "rhf"
			},
			{
				"type": "unocc",
				"energy": 0.02804,
				"method": "rhf"
			},
			{
				"type": "unocc",
				"energy": 0.0607,
				"method": "rhf"
			},
			{
				"type": "unocc",
				"energy": 0.06951,
				"method": "rhf"
			}
		],
		"cosmo_sigma_profile": { 
			"-0.025": 0.0,
			"-0.024": 0.0,
			"-0.023": 0.0,
			"-0.022": 0.0,
			"-0.021": 0.0,
			"-0.02": 0.0224696988527,
			"-0.019": 0.991213627452,
			"-0.018": 1.89067615433,
			"-0.017": 1.8924869777,
			"-0.016": 2.15028878129,
			"-0.015": 1.19568096874,
			"-0.014": 0.891663422132,
			"-0.013": 1.48161631374,
			"-0.012": 2.13651943377,
			"-0.011": 1.69781976175,
			"-0.01": 3.25726929022,
			"-0.009": 4.28203127876,
			"-0.008": 4.99170223566,
			"-0.007": 5.65489616176,
			"-0.006": 5.69781297519,
			"-0.005": 5.22810450881,
			"-0.004": 8.20168055387,
			"-0.003": 7.31939444121,
			"-0.002": 8.70971230107,
			"-0.001": 7.35261123557,
			"0.0": 8.68859555864,
			"0.001": 9.36797779165,
			"0.002": 8.93372652905,
			"0.003": 11.7626158085,
			"0.004": 11.0956550257,
			"0.005": 11.073001027,
			"0.006": 6.82654564005,
			"0.007": 4.75286551851,
			"0.008": 5.82318671937,
			"0.009": 4.26709776704,
			"0.01": 6.36242888055,
			"0.011": 8.98596281128,
			"0.012": 1.40120679776,
			"0.013": 0.0,
			"0.014": 0.0,
			"0.015": 0.0,
			"0.016": 0.0,
			"0.017": 0.0,
			"0.018": 0.0,
			"0.019": 0.0,
			"0.02": 0.0,
			"0.021": 0.0,
			"0.022": 0.0,
			"0.023": 0.0,
			"0.024": 0.0,
			"0.025": 0.0
		}
	}
}
