{
	 "smiles": "CC1=CC=CN2C=C(CC(N)=S)N=C12", 
	 "Tm": 427.15, 
	 "num_atms": 25, 
	 "gaussian": { 
		 "optdone": 1, 
		 "sigma_profile": "yes", 
		 "theory": "DFT", 
		 "functional": "B3LYP", 
		 "basiset": "6-31G**", 
		 "properties": { 
			 "R2extent": 4129.8844, 
			 "electric_dipole_moment_norm": 7.30243325269, 
			 "electric_quadrupole_moment_norm": 24.7212653473, 
			 "total_energy": -950.157112426, 
			 "HOMO_LUMO_gap": 0.15004, 
			 "cosmo_polarized_energy": -16.2, 
			 "cosmo_cavitation_energy": 30.46, 
			 "cosmo_dispersion_energy": -22.6, 
			 "cosmo_repulsion_energy": 1.74, 
			 "cosmo_total_nonelectrostatic_energy": 9.59, 
			 "SMD_solvation_energy": 3.8 
		},
		"coords": [
			{
				"x": -1.3761931317,
				"y": 2.0020983816,
				"z": 2.8885438623,
				"element": "C" 
			},
			{
				"x": -0.9302940701,
				"y": 2.1395133634,
				"z": 1.4597761047,
				"element": "C" 
			},
			{
				"x": -1.1682220544,
				"y": 3.2572432053,
				"z": 0.6897286415,
				"element": "C" 
			},
			{
				"x": -0.7248863826,
				"y": 3.3369511936,
				"z": -0.6601530622,
				"element": "C" 
			},
			{
				"x": -0.0458615767,
				"y": 2.2977304309,
				"z": -1.2287910849,
				"element": "C" 
			},
			{
				"x": 0.1999169517,
				"y": 1.175757503,
				"z": -0.4742237235,
				"element": "N" 
			},
			{
				"x": 0.8489487902,
				"y": -0.0039121717,
				"z": -0.784191098,
				"element": "C" 
			},
			{
				"x": 0.8020652376,
				"y": -0.7720076706,
				"z": 0.3608948791,
				"element": "C" 
			},
			{
				"x": 1.3832517999,
				"y": -2.1439420252,
				"z": 0.5576567569,
				"element": "C" 
			},
			{
				"x": 0.40738672,
				"y": -3.2219812302,
				"z": 1.0390080318,
				"element": "C" 
			},
			{
				"x": -0.4602916225,
				"y": -2.809968839,
				"z": 1.9721626609,
				"element": "N" 
			},
			{
				"x": 0.4964659411,
				"y": -4.792272167,
				"z": 0.4844762561,
				"element": "S" 
			},
			{
				"x": 0.1449672757,
				"y": -0.1126263401,
				"z": 1.3685635062,
				"element": "N" 
			},
			{
				"x": -0.2219223607,
				"y": 1.0635108356,
				"z": 0.8579748146,
				"element": "C" 
			},
			{
				"x": -2.0734054118,
				"y": 1.1645346418,
				"z": 3.0020559868,
				"element": "H" 
			},
			{
				"x": -1.870341036,
				"y": 2.9130283293,
				"z": 3.2347466721,
				"element": "H" 
			},
			{
				"x": -0.524822932,
				"y": 1.7923288976,
				"z": 3.5444729799,
				"element": "H" 
			},
			{
				"x": -1.7048286973,
				"y": 4.097099753,
				"z": 1.1206191183,
				"element": "H" 
			},
			{
				"x": -0.9212776487,
				"y": 4.2242591971,
				"z": -1.2508279,
				"element": "H" 
			},
			{
				"x": 0.3209219454,
				"y": 2.2879696227,
				"z": -2.2476432669,
				"element": "H" 
			},
			{
				"x": 1.2718953112,
				"y": -0.1861396254,
				"z": -1.759581419,
				"element": "H" 
			},
			{
				"x": 2.1774943015,
				"y": -2.0882224964,
				"z": 1.3159156957,
				"element": "H" 
			},
			{
				"x": 1.8469292952,
				"y": -2.497358212,
				"z": -0.3628041018,
				"element": "H" 
			},
			{
				"x": -0.5178621016,
				"y": -1.8194237757,
				"z": 2.2081217682,
				"element": "H" 
			},
			{
				"x": -1.1291345434,
				"y": -3.4732708017,
				"z": 2.3351979212,
				"element": "H" 
			}
		],
		 "valence_orbital": [ 
			{
				"type": "occ",
				"energy": -0.29076,
				"method": "rhf"
			},
			{
				"type": "occ",
				"energy": -0.25142,
				"method": "rhf"
			},
			{
				"type": "occ",
				"energy": -0.22252,
				"method": "rhf"
			},
			{
				"type": "occ",
				"energy": -0.2146,
				"method": "rhf"
			},
			{
				"type": "occ",
				"energy": -0.19232,
				"method": "rhf"
			},
			{
				"type": "unocc",
				"energy": -0.04228,
				"method": "rhf"
			},
			{
				"type": "unocc",
				"energy": -0.01422,
				"method": "rhf"
			},
			{
				"type": "unocc",
				"energy": -0.00755,
				"method": "rhf"
			},
			{
				"type": "unocc",
				"energy": 0.0502,
				"method": "rhf"
			},
			{
				"type": "unocc",
				"energy": 0.07909,
				"method": "rhf"
			}
		],
		"cosmo_sigma_profile": { 
			"-0.025": 0.0,
			"-0.024": 0.0,
			"-0.023": 0.0,
			"-0.022": 0.0,
			"-0.021": 0.0,
			"-0.02": 0.0,
			"-0.019": 0.0,
			"-0.018": 0.0,
			"-0.017": 0.0,
			"-0.016": 0.0,
			"-0.015": 0.21145937155,
			"-0.014": 1.26254995635,
			"-0.013": 1.11260838972,
			"-0.012": 0.771235563325,
			"-0.011": 0.998137812513,
			"-0.01": 2.82645769552,
			"-0.009": 5.99535844623,
			"-0.008": 5.15043221765,
			"-0.007": 8.15779342047,
			"-0.006": 13.4126028499,
			"-0.005": 13.6677637001,
			"-0.004": 14.90580678,
			"-0.003": 15.3073376212,
			"-0.002": 14.4235659388,
			"-0.001": 16.3405278279,
			"0.0": 22.9332283883,
			"0.001": 18.2193564748,
			"0.002": 17.3483297724,
			"0.003": 17.9791123498,
			"0.004": 10.1683004542,
			"0.005": 4.89549402879,
			"0.006": 5.82889241844,
			"0.007": 3.97346406868,
			"0.008": 4.931603368,
			"0.009": 6.30817082034,
			"0.01": 7.84283894901,
			"0.011": 5.20911567253,
			"0.012": 4.12930155576,
			"0.013": 1.36743621874,
			"0.014": 0.0,
			"0.015": 0.0,
			"0.016": 0.0,
			"0.017": 0.0,
			"0.018": 0.0,
			"0.019": 0.0,
			"0.02": 0.0,
			"0.021": 0.0,
			"0.022": 0.0,
			"0.023": 0.0,
			"0.024": 0.0,
			"0.025": 0.0
		}
	}
}
