{
	 "smiles": "CC(=O)C1=CC=C(S1)C1=C(Cl)C=CC=C1", 
	 "Tm": 328.15, 
	 "num_atms": 24, 
	 "gaussian": { 
		 "optdone": 1, 
		 "sigma_profile": "yes", 
		 "theory": "DFT", 
		 "functional": "B3LYP", 
		 "basiset": "6-31G**", 
		 "properties": { 
			 "R2extent": 5196.7026, 
			 "electric_dipole_moment_norm": 3.15245521142, 
			 "electric_quadrupole_moment_norm": 17.5817302303, 
			 "total_energy": -1396.29991513, 
			 "HOMO_LUMO_gap": 0.15956, 
			 "cosmo_polarized_energy": -10.37, 
			 "cosmo_cavitation_energy": 31.74, 
			 "cosmo_dispersion_energy": -23.47, 
			 "cosmo_repulsion_energy": 1.78, 
			 "cosmo_total_nonelectrostatic_energy": 10.05, 
			 "SMD_solvation_energy": 5.45 
		},
		"coords": [
			{
				"x": -0.0128887017,
				"y": -5.1643789784,
				"z": -1.2815444594,
				"element": "C" 
			},
			{
				"x": -0.0335395075,
				"y": -3.9977321447,
				"z": -0.3078062416,
				"element": "C" 
			},
			{
				"x": -0.1799039331,
				"y": -4.169392682,
				"z": 0.8956331113,
				"element": "O" 
			},
			{
				"x": 0.1306735721,
				"y": -2.6436180484,
				"z": -0.8618397941,
				"element": "C" 
			},
			{
				"x": 0.3009102897,
				"y": -2.2280953565,
				"z": -2.1669377096,
				"element": "C" 
			},
			{
				"x": 0.431408297,
				"y": -0.8248755554,
				"z": -2.2960283173,
				"element": "C" 
			},
			{
				"x": 0.3565613352,
				"y": -0.1597819358,
				"z": -1.0870020278,
				"element": "C" 
			},
			{
				"x": 0.1327189893,
				"y": -1.2847804998,
				"z": 0.2300613161,
				"element": "S" 
			},
			{
				"x": 0.3942320334,
				"y": 1.2873656509,
				"z": -0.8133714033,
				"element": "C" 
			},
			{
				"x": 1.3006637307,
				"y": 2.1840325024,
				"z": -1.4167970448,
				"element": "C" 
			},
			{
				"x": 2.5308746758,
				"y": 1.6318432242,
				"z": -2.5481652917,
				"element": "Cl" 
			},
			{
				"x": 1.2885321237,
				"y": 3.5467984761,
				"z": -1.1182463242,
				"element": "C" 
			},
			{
				"x": 0.3716106911,
				"y": 4.0534117005,
				"z": -0.1997643175,
				"element": "C" 
			},
			{
				"x": -0.5321841524,
				"y": 3.1912522148,
				"z": 0.4213428875,
				"element": "C" 
			},
			{
				"x": -0.5164609221,
				"y": 1.8351450563,
				"z": 0.1137064918,
				"element": "C" 
			},
			{
				"x": -0.808551422,
				"y": -5.0646586641,
				"z": -2.0276973445,
				"element": "H" 
			},
			{
				"x": 0.9403021941,
				"y": -5.2049707695,
				"z": -1.8196254882,
				"element": "H" 
			},
			{
				"x": -0.1535641523,
				"y": -6.0893845931,
				"z": -0.7215991802,
				"element": "H" 
			},
			{
				"x": 0.3257277275,
				"y": -2.9109115662,
				"z": -3.008735444,
				"element": "H" 
			},
			{
				"x": 0.5575364283,
				"y": -0.3168717129,
				"z": -3.2431847249,
				"element": "H" 
			},
			{
				"x": 2.0065944588,
				"y": 4.1990708901,
				"z": -1.6025513085,
				"element": "H" 
			},
			{
				"x": 0.3690631697,
				"y": 5.1150849087,
				"z": 0.0269782145,
				"element": "H" 
			},
			{
				"x": -1.2533263865,
				"y": 3.5726744177,
				"z": 1.1373676009,
				"element": "H" 
			},
			{
				"x": -1.2361905389,
				"y": 1.1703734652,
				"z": 0.5807067994,
				"element": "H" 
			}
		],
		 "valence_orbital": [ 
			{
				"type": "occ",
				"energy": -0.28381,
				"method": "rhf"
			},
			{
				"type": "occ",
				"energy": -0.26175,
				"method": "rhf"
			},
			{
				"type": "occ",
				"energy": -0.25793,
				"method": "rhf"
			},
			{
				"type": "occ",
				"energy": -0.25179,
				"method": "rhf"
			},
			{
				"type": "occ",
				"energy": -0.23079,
				"method": "rhf"
			},
			{
				"type": "unocc",
				"energy": -0.07123,
				"method": "rhf"
			},
			{
				"type": "unocc",
				"energy": -0.02383,
				"method": "rhf"
			},
			{
				"type": "unocc",
				"energy": -0.02245,
				"method": "rhf"
			},
			{
				"type": "unocc",
				"energy": 0.0226,
				"method": "rhf"
			},
			{
				"type": "unocc",
				"energy": 0.03001,
				"method": "rhf"
			}
		],
		"cosmo_sigma_profile": { 
			"-0.025": 0.0,
			"-0.024": 0.0,
			"-0.023": 0.0,
			"-0.022": 0.0,
			"-0.021": 0.0,
			"-0.02": 0.0,
			"-0.019": 0.0,
			"-0.018": 0.0,
			"-0.017": 0.0,
			"-0.016": 0.0,
			"-0.015": 0.0,
			"-0.014": 0.0,
			"-0.013": 0.0,
			"-0.012": 0.0,
			"-0.011": 0.0,
			"-0.01": 0.0,
			"-0.009": 0.0,
			"-0.008": 1.1367191553,
			"-0.007": 8.8684500665,
			"-0.006": 19.1304628371,
			"-0.005": 19.0617479759,
			"-0.004": 16.7914772095,
			"-0.003": 15.1671079011,
			"-0.002": 18.2551693664,
			"-0.001": 18.9102728045,
			"0.0": 18.2839311536,
			"0.001": 24.1902916986,
			"0.002": 30.3656383801,
			"0.003": 29.0844343368,
			"0.004": 14.5582690774,
			"0.005": 6.61843274376,
			"0.006": 1.66417672171,
			"0.007": 1.83516295951,
			"0.008": 1.70775341363,
			"0.009": 2.11744907904,
			"0.01": 1.93935618102,
			"0.011": 2.81199935066,
			"0.012": 4.73416628037,
			"0.013": 1.54371733945,
			"0.014": 0.130082903049,
			"0.015": 0.0,
			"0.016": 0.0,
			"0.017": 0.0,
			"0.018": 0.0,
			"0.019": 0.0,
			"0.02": 0.0,
			"0.021": 0.0,
			"0.022": 0.0,
			"0.023": 0.0,
			"0.024": 0.0,
			"0.025": 0.0
		}
	}
}
