{
	 "smiles": "CC1=CN2C(S1)=NC(C)=C2CO", 
	 "Tm": 423.15, 
	 "num_atms": 22, 
	 "gaussian": { 
		 "optdone": 1, 
		 "sigma_profile": "yes", 
		 "theory": "DFT", 
		 "functional": "B3LYP", 
		 "basiset": "6-31G**", 
		 "properties": { 
			 "R2extent": 2584.7327, 
			 "electric_dipole_moment_norm": 4.50433883939, 
			 "electric_quadrupole_moment_norm": 12.0201679701, 
			 "total_energy": -893.769153811, 
			 "HOMO_LUMO_gap": 0.20185, 
			 "cosmo_polarized_energy": -13.35, 
			 "cosmo_cavitation_energy": 27.09, 
			 "cosmo_dispersion_energy": -20.48, 
			 "cosmo_repulsion_energy": 1.61, 
			 "cosmo_total_nonelectrostatic_energy": 8.22, 
			 "SMD_solvation_energy": 2.98 
		},
		"coords": [
			{
				"x": -0.4640217947,
				"y": -4.1711200866,
				"z": -0.4461145336,
				"element": "C" 
			},
			{
				"x": -0.2688850496,
				"y": -2.7233590227,
				"z": -0.1232353203,
				"element": "C" 
			},
			{
				"x": 0.1956866458,
				"y": -1.7475858329,
				"z": -0.9374432372,
				"element": "C" 
			},
			{
				"x": 0.2508301515,
				"y": -0.5035391237,
				"z": -0.3176630438,
				"element": "N" 
			},
			{
				"x": -0.1414340218,
				"y": -0.4914814051,
				"z": 0.9999641972,
				"element": "C" 
			},
			{
				"x": -0.6447861272,
				"y": -2.0958010138,
				"z": 1.5024948334,
				"element": "S" 
			},
			{
				"x": -0.0333755964,
				"y": 0.6858582458,
				"z": 1.5672374316,
				"element": "N" 
			},
			{
				"x": 0.4677960277,
				"y": 1.4987768123,
				"z": 0.5621496452,
				"element": "C" 
			},
			{
				"x": 0.7210277314,
				"y": 2.9500998731,
				"z": 0.8280466039,
				"element": "C" 
			},
			{
				"x": 0.6546829033,
				"y": 0.7952658157,
				"z": -0.616194411,
				"element": "C" 
			},
			{
				"x": 1.0816206279,
				"y": 1.1920099334,
				"z": -1.9829370323,
				"element": "C" 
			},
			{
				"x": 2.1115308036,
				"y": 0.3038437134,
				"z": -2.432094016,
				"element": "O" 
			},
			{
				"x": -0.1661671702,
				"y": -4.3642207662,
				"z": -1.4805386199,
				"element": "H" 
			},
			{
				"x": 0.1375516531,
				"y": -4.8163141496,
				"z": 0.2041247539,
				"element": "H" 
			},
			{
				"x": -1.5112467636,
				"y": -4.4746763664,
				"z": -0.3344111107,
				"element": "H" 
			},
			{
				"x": 0.5371789105,
				"y": -1.8502906633,
				"z": -1.9571360276,
				"element": "H" 
			},
			{
				"x": 1.3169671319,
				"y": 3.0699545554,
				"z": 1.7382577444,
				"element": "H" 
			},
			{
				"x": 1.2565526231,
				"y": 3.4266426411,
				"z": 0.0022461771,
				"element": "H" 
			},
			{
				"x": -0.217578125,
				"y": 3.4949073812,
				"z": 0.9824793659,
				"element": "H" 
			},
			{
				"x": 0.2265620437,
				"y": 1.1556979841,
				"z": -2.6803193396,
				"element": "H" 
			},
			{
				"x": 1.427508973,
				"y": 2.2348013444,
				"z": -1.9516166626,
				"element": "H" 
			},
			{
				"x": 2.300698422,
				"y": 0.5178301303,
				"z": -3.354997398,
				"element": "H" 
			}
		],
		 "valence_orbital": [ 
			{
				"type": "occ",
				"energy": -0.30575,
				"method": "rhf"
			},
			{
				"type": "occ",
				"energy": -0.2801,
				"method": "rhf"
			},
			{
				"type": "occ",
				"energy": -0.26516,
				"method": "rhf"
			},
			{
				"type": "occ",
				"energy": -0.21533,
				"method": "rhf"
			},
			{
				"type": "occ",
				"energy": -0.20413,
				"method": "rhf"
			},
			{
				"type": "unocc",
				"energy": -0.00228,
				"method": "rhf"
			},
			{
				"type": "unocc",
				"energy": 0.01629,
				"method": "rhf"
			},
			{
				"type": "unocc",
				"energy": 0.04339,
				"method": "rhf"
			},
			{
				"type": "unocc",
				"energy": 0.06229,
				"method": "rhf"
			},
			{
				"type": "unocc",
				"energy": 0.07971,
				"method": "rhf"
			}
		],
		"cosmo_sigma_profile": { 
			"-0.025": 0.0,
			"-0.024": 0.0,
			"-0.023": 0.0,
			"-0.022": 0.0,
			"-0.021": 0.0,
			"-0.02": 0.0,
			"-0.019": 0.0,
			"-0.018": 0.0,
			"-0.017": 0.0,
			"-0.016": 0.945730955102,
			"-0.015": 0.86299154809,
			"-0.014": 1.03639538999,
			"-0.013": 1.05226684662,
			"-0.012": 0.725646711606,
			"-0.011": 1.28337695402,
			"-0.01": 0.373718193056,
			"-0.009": 0.851420115846,
			"-0.008": 1.74612433025,
			"-0.007": 3.14724352098,
			"-0.006": 6.85261624146,
			"-0.005": 15.3788239433,
			"-0.004": 21.2364962657,
			"-0.003": 17.3865415561,
			"-0.002": 18.0922484821,
			"-0.001": 18.7652948623,
			"0.0": 19.7685504202,
			"0.001": 15.2025014521,
			"0.002": 16.0370261207,
			"0.003": 13.3187780942,
			"0.004": 9.19558531785,
			"0.005": 7.30848098222,
			"0.006": 3.2548333008,
			"0.007": 3.09045771645,
			"0.008": 3.50940764834,
			"0.009": 2.82752884945,
			"0.01": 1.96829407702,
			"0.011": 1.81821668928,
			"0.012": 2.52245226945,
			"0.013": 2.44090810123,
			"0.014": 1.57859716344,
			"0.015": 1.16087373843,
			"0.016": 0.803276991038,
			"0.017": 1.20524905413,
			"0.018": 0.212289681231,
			"0.019": 0.0,
			"0.02": 0.0,
			"0.021": 0.0,
			"0.022": 0.0,
			"0.023": 0.0,
			"0.024": 0.0,
			"0.025": 0.0
		}
	}
}
