{
	 "smiles": "COC1=CC=C(Br)C(OC)=C1C(O)=O", 
	 "Tm": 420.15, 
	 "num_atms": 23, 
	 "gaussian": { 
		 "optdone": 1, 
		 "sigma_profile": "yes", 
		 "theory": "DFT", 
		 "functional": "B3LYP", 
		 "basiset": "6-31G**", 
		 "properties": { 
			 "R2extent": 4201.0952, 
			 "electric_dipole_moment_norm": 3.89737010431, 
			 "electric_quadrupole_moment_norm": 20.1350056213, 
			 "total_energy": -3220.65354567, 
			 "HOMO_LUMO_gap": 0.19271, 
			 "cosmo_polarized_energy": -12.97, 
			 "cosmo_cavitation_energy": 28.97, 
			 "cosmo_dispersion_energy": -21.36, 
			 "cosmo_repulsion_energy": 1.67, 
			 "cosmo_total_nonelectrostatic_energy": 9.28, 
			 "SMD_solvation_energy": 6.35 
		},
		"coords": [
			{
				"x": -2.291360721,
				"y": -2.8600577417,
				"z": 1.9721477328,
				"element": "C" 
			},
			{
				"x": -2.0099774803,
				"y": -2.9151996078,
				"z": 0.5668844897,
				"element": "O" 
			},
			{
				"x": -0.9745577455,
				"y": -2.1436648114,
				"z": 0.1286942639,
				"element": "C" 
			},
			{
				"x": 0.3102374719,
				"y": -2.6960581091,
				"z": 0.1450857385,
				"element": "C" 
			},
			{
				"x": 1.3926104729,
				"y": -2.0042337411,
				"z": -0.3853001545,
				"element": "C" 
			},
			{
				"x": 1.195153399,
				"y": -0.7488049922,
				"z": -0.9549876348,
				"element": "C" 
			},
			{
				"x": 2.6750889281,
				"y": 0.1709465629,
				"z": -1.7271189336,
				"element": "Br" 
			},
			{
				"x": -0.0827088551,
				"y": -0.1826835978,
				"z": -0.9872218139,
				"element": "C" 
			},
			{
				"x": -0.2793974635,
				"y": 1.0255806738,
				"z": -1.6311129634,
				"element": "O" 
			},
			{
				"x": -0.0797266893,
				"y": 2.1995732281,
				"z": -0.8151994094,
				"element": "C" 
			},
			{
				"x": -1.1878568437,
				"y": -0.8596780604,
				"z": -0.4252186753,
				"element": "C" 
			},
			{
				"x": -2.5741866113,
				"y": -0.2514627602,
				"z": -0.4077756693,
				"element": "C" 
			},
			{
				"x": -2.866060199,
				"y": 0.6175843273,
				"z": -1.3954791938,
				"element": "O" 
			},
			{
				"x": -3.3980374922,
				"y": -0.5154378597,
				"z": 0.4377407977,
				"element": "O" 
			},
			{
				"x": -1.4049512262,
				"y": -3.1321341377,
				"z": 2.5597399815,
				"element": "H" 
			},
			{
				"x": -2.6464064403,
				"y": -1.8649245719,
				"z": 2.2488084885,
				"element": "H" 
			},
			{
				"x": -3.0806180101,
				"y": -3.5925332457,
				"z": 2.1477692793,
				"element": "H" 
			},
			{
				"x": 0.4377131322,
				"y": -3.6915632803,
				"z": 0.5568364899,
				"element": "H" 
			},
			{
				"x": 2.3852343065,
				"y": -2.4398140145,
				"z": -0.3772311083,
				"element": "H" 
			},
			{
				"x": -0.2486010005,
				"y": 3.0533288722,
				"z": -1.4722327109,
				"element": "H" 
			},
			{
				"x": -0.795548016,
				"y": 2.2210361828,
				"z": 0.0130009367,
				"element": "H" 
			},
			{
				"x": 0.9437470386,
				"y": 2.2253729921,
				"z": -0.4328225285,
				"element": "H" 
			},
			{
				"x": -2.052289955,
				"y": 0.8166276923,
				"z": -1.8991074027,
				"element": "H" 
			}
		],
		 "valence_orbital": [ 
			{
				"type": "occ",
				"energy": -0.30059,
				"method": "rhf"
			},
			{
				"type": "occ",
				"energy": -0.28172,
				"method": "rhf"
			},
			{
				"type": "occ",
				"energy": -0.27715,
				"method": "rhf"
			},
			{
				"type": "occ",
				"energy": -0.26584,
				"method": "rhf"
			},
			{
				"type": "occ",
				"energy": -0.24801,
				"method": "rhf"
			},
			{
				"type": "unocc",
				"energy": -0.0553,
				"method": "rhf"
			},
			{
				"type": "unocc",
				"energy": -0.02722,
				"method": "rhf"
			},
			{
				"type": "unocc",
				"energy": -0.00954,
				"method": "rhf"
			},
			{
				"type": "unocc",
				"energy": 0.03891,
				"method": "rhf"
			},
			{
				"type": "unocc",
				"energy": 0.07679,
				"method": "rhf"
			}
		],
		"cosmo_sigma_profile": { 
			"-0.025": 0.0,
			"-0.024": 0.0,
			"-0.023": 0.0,
			"-0.022": 0.0,
			"-0.021": 0.0,
			"-0.02": 0.0,
			"-0.019": 0.0,
			"-0.018": 0.0,
			"-0.017": 0.0,
			"-0.016": 0.0,
			"-0.015": 0.0,
			"-0.014": 0.0,
			"-0.013": 0.0,
			"-0.012": 0.0,
			"-0.011": 0.836803729723,
			"-0.01": 0.751315131649,
			"-0.009": 1.56756532846,
			"-0.008": 3.40402430547,
			"-0.007": 8.77770755352,
			"-0.006": 12.8129295399,
			"-0.005": 17.8798720427,
			"-0.004": 22.4846037376,
			"-0.003": 21.3819451213,
			"-0.002": 16.1073702094,
			"-0.001": 15.444565507,
			"0.0": 18.3851023438,
			"0.001": 17.7358741656,
			"0.002": 13.6416515704,
			"0.003": 10.6121047758,
			"0.004": 10.1434248396,
			"0.005": 5.45143848114,
			"0.006": 4.58749155648,
			"0.007": 5.04745710257,
			"0.008": 3.91347429956,
			"0.009": 5.61166298557,
			"0.01": 6.04425977666,
			"0.011": 7.10272610133,
			"0.012": 3.02675191784,
			"0.013": 1.57121273911,
			"0.014": 0.0857683240083,
			"0.015": 0.0,
			"0.016": 0.0,
			"0.017": 0.0,
			"0.018": 0.0,
			"0.019": 0.0,
			"0.02": 0.0,
			"0.021": 0.0,
			"0.022": 0.0,
			"0.023": 0.0,
			"0.024": 0.0,
			"0.025": 0.0
		}
	}
}
