{
	 "smiles": "CCOC(=O)CC1=CC=C(Br)C=C1", 
	 "Tm": 303.15, 
	 "num_atms": 24, 
	 "gaussian": { 
		 "optdone": 1, 
		 "sigma_profile": "yes", 
		 "theory": "DFT", 
		 "functional": "B3LYP", 
		 "basiset": "6-31G**", 
		 "properties": { 
			 "R2extent": 7962.7245, 
			 "electric_dipole_moment_norm": 3.01674092192, 
			 "electric_quadrupole_moment_norm": 7.30000633356, 
			 "total_energy": -3109.56540001, 
			 "HOMO_LUMO_gap": 0.21866, 
			 "cosmo_polarized_energy": -8.26, 
			 "cosmo_cavitation_energy": 30.78, 
			 "cosmo_dispersion_energy": -22.52, 
			 "cosmo_repulsion_energy": 1.84, 
			 "cosmo_total_nonelectrostatic_energy": 10.09, 
			 "SMD_solvation_energy": 5.06 
		},
		"coords": [
			{
				"x": 1.6517067012,
				"y": -3.1688447474,
				"z": -0.6360246874,
				"element": "C" 
			},
			{
				"x": 0.3590890091,
				"y": -2.3803016955,
				"z": -0.7206155309,
				"element": "C" 
			},
			{
				"x": 0.4352961927,
				"y": -1.3134493453,
				"z": 0.2569800036,
				"element": "O" 
			},
			{
				"x": -0.6358441766,
				"y": -0.4997660731,
				"z": 0.3226315015,
				"element": "C" 
			},
			{
				"x": -1.6259486321,
				"y": -0.6264787003,
				"z": -0.3673994208,
				"element": "O" 
			},
			{
				"x": -0.441252253,
				"y": 0.6005242986,
				"z": 1.3563531054,
				"element": "C" 
			},
			{
				"x": -0.2505426331,
				"y": 1.9637239026,
				"z": 0.7111559137,
				"element": "C" 
			},
			{
				"x": -1.2303205717,
				"y": 2.5004196314,
				"z": -0.1358547685,
				"element": "C" 
			},
			{
				"x": -1.0628893581,
				"y": 3.755759422,
				"z": -0.7178389405,
				"element": "C" 
			},
			{
				"x": 0.0964026069,
				"y": 4.4828393572,
				"z": -0.4490052325,
				"element": "C" 
			},
			{
				"x": 0.3302347086,
				"y": 6.2086497994,
				"z": -1.2402384001,
				"element": "Br" 
			},
			{
				"x": 1.0861571785,
				"y": 3.9718769072,
				"z": 0.3860909421,
				"element": "C" 
			},
			{
				"x": 0.9050156332,
				"y": 2.7117275065,
				"z": 0.9593534533,
				"element": "C" 
			},
			{
				"x": 2.5135843401,
				"y": -2.5324700891,
				"z": -0.8561313712,
				"element": "H" 
			},
			{
				"x": 1.6341973248,
				"y": -3.9874972293,
				"z": -1.3621250632,
				"element": "H" 
			},
			{
				"x": 1.7849863273,
				"y": -3.5970299048,
				"z": 0.3616225598,
				"element": "H" 
			},
			{
				"x": -0.5171778672,
				"y": -2.9974299026,
				"z": -0.4989810798,
				"element": "H" 
			},
			{
				"x": 0.2081823071,
				"y": -1.938098007,
				"z": -1.7102238979,
				"element": "H" 
			},
			{
				"x": 0.4115677622,
				"y": 0.358824754,
				"z": 1.9933575435,
				"element": "H" 
			},
			{
				"x": -1.3435937222,
				"y": 0.6069074341,
				"z": 1.9784992191,
				"element": "H" 
			},
			{
				"x": -2.122415738,
				"y": 1.9212313994,
				"z": -0.3519549458,
				"element": "H" 
			},
			{
				"x": -1.8239239275,
				"y": 4.1652427002,
				"z": -1.3724053029,
				"element": "H" 
			},
			{
				"x": 1.9841821483,
				"y": 4.5453701948,
				"z": 0.5856246599,
				"element": "H" 
			},
			{
				"x": 1.6775066397,
				"y": 2.3112683869,
				"z": 1.6105297396,
				"element": "H" 
			}
		],
		 "valence_orbital": [ 
			{
				"type": "occ",
				"energy": -0.30469,
				"method": "rhf"
			},
			{
				"type": "occ",
				"energy": -0.28494,
				"method": "rhf"
			},
			{
				"type": "occ",
				"energy": -0.27561,
				"method": "rhf"
			},
			{
				"type": "occ",
				"energy": -0.26203,
				"method": "rhf"
			},
			{
				"type": "occ",
				"energy": -0.23752,
				"method": "rhf"
			},
			{
				"type": "unocc",
				"energy": -0.01886,
				"method": "rhf"
			},
			{
				"type": "unocc",
				"energy": -0.01346,
				"method": "rhf"
			},
			{
				"type": "unocc",
				"energy": 0.00866,
				"method": "rhf"
			},
			{
				"type": "unocc",
				"energy": 0.01328,
				"method": "rhf"
			},
			{
				"type": "unocc",
				"energy": 0.09722,
				"method": "rhf"
			}
		],
		"cosmo_sigma_profile": { 
			"-0.025": 0.0,
			"-0.024": 0.0,
			"-0.023": 0.0,
			"-0.022": 0.0,
			"-0.021": 0.0,
			"-0.02": 0.0,
			"-0.019": 0.0,
			"-0.018": 0.0,
			"-0.017": 0.0,
			"-0.016": 0.0,
			"-0.015": 0.0,
			"-0.014": 0.0,
			"-0.013": 0.0,
			"-0.012": 0.0,
			"-0.011": 0.0,
			"-0.01": 0.0,
			"-0.009": 0.0,
			"-0.008": 0.0495910720913,
			"-0.007": 6.17295570646,
			"-0.006": 11.0953718288,
			"-0.005": 17.3818077373,
			"-0.004": 22.9100955118,
			"-0.003": 26.3354532012,
			"-0.002": 19.7275206631,
			"-0.001": 18.0732423407,
			"0.0": 18.9350833125,
			"0.001": 16.3452789545,
			"0.002": 18.4249443238,
			"0.003": 21.7740489659,
			"0.004": 21.5526998901,
			"0.005": 10.2552790439,
			"0.006": 3.30214290318,
			"0.007": 2.58656068681,
			"0.008": 2.50377597373,
			"0.009": 1.89614504002,
			"0.01": 1.6365817703,
			"0.011": 2.79533298688,
			"0.012": 3.67344431812,
			"0.013": 0.171844103743,
			"0.014": 0.0,
			"0.015": 0.0,
			"0.016": 0.0,
			"0.017": 0.0,
			"0.018": 0.0,
			"0.019": 0.0,
			"0.02": 0.0,
			"0.021": 0.0,
			"0.022": 0.0,
			"0.023": 0.0,
			"0.024": 0.0,
			"0.025": 0.0
		}
	}
}
