{
	 "smiles": "CC(=O)NC1=CC=C(C=C1)N=NC1=CC=C(N)C=C1", 
	 "Tm": 485.15, 
	 "num_atms": 33, 
	 "gaussian": { 
		 "optdone": 1, 
		 "sigma_profile": "yes", 
		 "theory": "DFT", 
		 "functional": "B3LYP", 
		 "basiset": "6-31G**", 
		 "properties": { 
			 "R2extent": 6932.1924, 
			 "electric_dipole_moment_norm": 4.95669820849, 
			 "electric_quadrupole_moment_norm": 37.4157571826, 
			 "total_energy": -836.113346378, 
			 "HOMO_LUMO_gap": 0.12618, 
			 "cosmo_polarized_energy": -22.85, 
			 "cosmo_cavitation_energy": 37.91, 
			 "cosmo_dispersion_energy": -26.36, 
			 "cosmo_repulsion_energy": 2.06, 
			 "cosmo_total_nonelectrostatic_energy": 13.61, 
			 "SMD_solvation_energy": 5.26 
		},
		"coords": [
			{
				"x": 3.3116309084,
				"y": -0.9161890681,
				"z": -1.6711482593,
				"element": "C" 
			},
			{
				"x": 4.101053649,
				"y": -0.8939067028,
				"z": -0.3758395203,
				"element": "C" 
			},
			{
				"x": 5.3125980841,
				"y": -1.0567454567,
				"z": -0.3547536186,
				"element": "O" 
			},
			{
				"x": 3.4217297017,
				"y": -0.6988878623,
				"z": 0.8165244265,
				"element": "N" 
			},
			{
				"x": 2.0514201147,
				"y": -0.5153270602,
				"z": 1.1025552113,
				"element": "C" 
			},
			{
				"x": 1.5158006722,
				"y": -1.1303418115,
				"z": 2.2461457383,
				"element": "C" 
			},
			{
				"x": 0.1874006672,
				"y": -0.9309319257,
				"z": 2.6028209059,
				"element": "C" 
			},
			{
				"x": -0.6609943569,
				"y": -0.1697514755,
				"z": 1.7863322935,
				"element": "C" 
			},
			{
				"x": -0.1242683067,
				"y": 0.464930389,
				"z": 0.6556681818,
				"element": "C" 
			},
			{
				"x": 1.2204855381,
				"y": 0.3144994298,
				"z": 0.3325815579,
				"element": "C" 
			},
			{
				"x": -1.9765331203,
				"y": 0.1090711639,
				"z": 2.2747270363,
				"element": "N" 
			},
			{
				"x": -3.0176596755,
				"y": 0.0493489772,
				"z": 1.5782275826,
				"element": "N" 
			},
			{
				"x": -3.0960746177,
				"y": -0.5196643795,
				"z": 0.2735958108,
				"element": "C" 
			},
			{
				"x": -2.4065000922,
				"y": -1.6639458992,
				"z": -0.1688404343,
				"element": "C" 
			},
			{
				"x": -2.6778349454,
				"y": -2.211694603,
				"z": -1.4139662105,
				"element": "C" 
			},
			{
				"x": -3.6285347322,
				"y": -1.6246206983,
				"z": -2.2739357656,
				"element": "C" 
			},
			{
				"x": -3.9167820131,
				"y": -2.1953775822,
				"z": -3.5040451136,
				"element": "N" 
			},
			{
				"x": -4.330603364,
				"y": -0.490403327,
				"z": -1.821949958,
				"element": "C" 
			},
			{
				"x": -4.0879213268,
				"y": 0.0262186521,
				"z": -0.5580884869,
				"element": "C" 
			},
			{
				"x": 2.3064966109,
				"y": -1.3269491948,
				"z": -1.5540154184,
				"element": "H" 
			},
			{
				"x": 3.8820279193,
				"y": -1.5108114217,
				"z": -2.3856363936,
				"element": "H" 
			},
			{
				"x": 3.2207113966,
				"y": 0.0972864898,
				"z": -2.0762950345,
				"element": "H" 
			},
			{
				"x": 4.0378598099,
				"y": -0.8212473362,
				"z": 1.6113933116,
				"element": "H" 
			},
			{
				"x": 2.1540904155,
				"y": -1.7587830272,
				"z": 2.8614412103,
				"element": "H" 
			},
			{
				"x": -0.2150667312,
				"y": -1.3763899194,
				"z": 3.5071713609,
				"element": "H" 
			},
			{
				"x": -0.755571128,
				"y": 1.1054013612,
				"z": 0.0490539142,
				"element": "H" 
			},
			{
				"x": 1.6304471657,
				"y": 0.8621166041,
				"z": -0.5078261614,
				"element": "H" 
			},
			{
				"x": -1.674956731,
				"y": -2.1414838999,
				"z": 0.4721501195,
				"element": "H" 
			},
			{
				"x": -2.1562592619,
				"y": -3.1112009832,
				"z": -1.7316957092,
				"element": "H" 
			},
			{
				"x": -4.3614234378,
				"y": -1.5985079824,
				"z": -4.1860353901,
				"element": "H" 
			},
			{
				"x": -3.2098473527,
				"y": -2.7971681374,
				"z": -3.9004979779,
				"element": "H" 
			},
			{
				"x": -5.0877026451,
				"y": -0.0393770918,
				"z": -2.4582570082,
				"element": "H" 
			},
			{
				"x": -4.655018815,
				"y": 0.875533779,
				"z": -0.1897622011,
				"element": "H" 
			}
		],
		 "valence_orbital": [ 
			{
				"type": "occ",
				"energy": -0.26017,
				"method": "rhf"
			},
			{
				"type": "occ",
				"energy": -0.2536,
				"method": "rhf"
			},
			{
				"type": "occ",
				"energy": -0.23748,
				"method": "rhf"
			},
			{
				"type": "occ",
				"energy": -0.22519,
				"method": "rhf"
			},
			{
				"type": "occ",
				"energy": -0.19389,
				"method": "rhf"
			},
			{
				"type": "unocc",
				"energy": -0.06771,
				"method": "rhf"
			},
			{
				"type": "unocc",
				"energy": -0.01969,
				"method": "rhf"
			},
			{
				"type": "unocc",
				"energy": -0.01057,
				"method": "rhf"
			},
			{
				"type": "unocc",
				"energy": -0.00254,
				"method": "rhf"
			},
			{
				"type": "unocc",
				"energy": 0.02578,
				"method": "rhf"
			}
		],
		"cosmo_sigma_profile": { 
			"-0.025": 0.0,
			"-0.024": 0.0,
			"-0.023": 0.0,
			"-0.022": 0.0,
			"-0.021": 0.0,
			"-0.02": 0.0,
			"-0.019": 0.0,
			"-0.018": 0.0,
			"-0.017": 0.0,
			"-0.016": 0.0,
			"-0.015": 0.00343134065756,
			"-0.014": 0.67718429437,
			"-0.013": 3.41707998758,
			"-0.012": 4.02122530868,
			"-0.011": 4.37529726351,
			"-0.01": 4.24849633797,
			"-0.009": 4.17532298426,
			"-0.008": 5.93847151241,
			"-0.007": 9.39309109531,
			"-0.006": 17.062614563,
			"-0.005": 18.759568674,
			"-0.004": 22.460959633,
			"-0.003": 18.8333618491,
			"-0.002": 20.4863565061,
			"-0.001": 18.8516517841,
			"0.0": 16.6640129911,
			"0.001": 16.2067299981,
			"0.002": 17.3320371111,
			"0.003": 17.8165283116,
			"0.004": 22.5618679567,
			"0.005": 14.8501132298,
			"0.006": 3.85232956427,
			"0.007": 4.31817482103,
			"0.008": 3.10990876714,
			"0.009": 3.93275085993,
			"0.01": 3.67204452743,
			"0.011": 4.1587883554,
			"0.012": 5.33379688431,
			"0.013": 7.88608970233,
			"0.014": 5.99490490139,
			"0.015": 1.66381266482,
			"0.016": 0.00622325143063,
			"0.017": 0.0,
			"0.018": 0.0,
			"0.019": 0.0,
			"0.02": 0.0,
			"0.021": 0.0,
			"0.022": 0.0,
			"0.023": 0.0,
			"0.024": 0.0,
			"0.025": 0.0
		}
	}
}
