{
	 "smiles": "COC(=O)C1=NC=C(C=C1)S(Cl)(=O)=O", 
	 "Tm": 393.15, 
	 "num_atms": 20, 
	 "gaussian": { 
		 "optdone": 1, 
		 "sigma_profile": "yes", 
		 "theory": "DFT", 
		 "functional": "B3LYP", 
		 "basiset": "6-31G**", 
		 "properties": { 
			 "R2extent": 5889.6217, 
			 "electric_dipole_moment_norm": 5.31423351576, 
			 "electric_quadrupole_moment_norm": 16.5157597879, 
			 "total_energy": -1484.30868808, 
			 "HOMO_LUMO_gap": 0.18266, 
			 "cosmo_polarized_energy": -14.93, 
			 "cosmo_cavitation_energy": 29.31, 
			 "cosmo_dispersion_energy": -21.85, 
			 "cosmo_repulsion_energy": 1.68, 
			 "cosmo_total_nonelectrostatic_energy": 9.14, 
			 "SMD_solvation_energy": 4.24 
		},
		"coords": [
			{
				"x": -2.4698262231,
				"y": 1.5597165825,
				"z": -2.5030525852,
				"element": "C" 
			},
			{
				"x": -1.7863822772,
				"y": 1.2843073077,
				"z": -1.2669460506,
				"element": "O" 
			},
			{
				"x": -0.9973208024,
				"y": 0.1877296274,
				"z": -1.281173474,
				"element": "C" 
			},
			{
				"x": -0.8503312742,
				"y": -0.5324217111,
				"z": -2.2390758507,
				"element": "O" 
			},
			{
				"x": -0.3255544154,
				"y": -0.0142057352,
				"z": 0.0578716556,
				"element": "C" 
			},
			{
				"x": 0.4762561378,
				"y": -1.0861249888,
				"z": 0.134246802,
				"element": "N" 
			},
			{
				"x": 1.105413255,
				"y": -1.3195125157,
				"z": 1.28396623,
				"element": "C" 
			},
			{
				"x": 0.9498421206,
				"y": -0.4804531344,
				"z": 2.3929133391,
				"element": "C" 
			},
			{
				"x": 0.1130017553,
				"y": 0.6306632304,
				"z": 2.3292990032,
				"element": "C" 
			},
			{
				"x": -0.5436975738,
				"y": 0.8676393504,
				"z": 1.1252878702,
				"element": "C" 
			},
			{
				"x": 1.8028089885,
				"y": -0.8577391851,
				"z": 3.9184727751,
				"element": "S" 
			},
			{
				"x": 3.6054678006,
				"y": 0.240783474,
				"z": 3.6558878534,
				"element": "Cl" 
			},
			{
				"x": 1.0933641296,
				"y": -0.22776442,
				"z": 5.024157997,
				"element": "O" 
			},
			{
				"x": 2.1715533563,
				"y": -2.2662859639,
				"z": 3.9208407829,
				"element": "O" 
			},
			{
				"x": -3.0527340718,
				"y": 2.4620207946,
				"z": -2.3216099567,
				"element": "H" 
			},
			{
				"x": -1.7496231769,
				"y": 1.7198734001,
				"z": -3.3088048964,
				"element": "H" 
			},
			{
				"x": -3.1219309226,
				"y": 0.7253431795,
				"z": -2.771676829,
				"element": "H" 
			},
			{
				"x": 1.7435914847,
				"y": -2.1972781937,
				"z": 1.3372168683,
				"element": "H" 
			},
			{
				"x": -0.0218811039,
				"y": 1.2746680418,
				"z": 3.1914598021,
				"element": "H" 
			},
			{
				"x": -1.2115171872,
				"y": 1.7112408594,
				"z": 1.0071186636,
				"element": "H" 
			}
		],
		 "valence_orbital": [ 
			{
				"type": "occ",
				"energy": -0.32466,
				"method": "rhf"
			},
			{
				"type": "occ",
				"energy": -0.32113,
				"method": "rhf"
			},
			{
				"type": "occ",
				"energy": -0.30704,
				"method": "rhf"
			},
			{
				"type": "occ",
				"energy": -0.2958,
				"method": "rhf"
			},
			{
				"type": "occ",
				"energy": -0.29291,
				"method": "rhf"
			},
			{
				"type": "unocc",
				"energy": -0.11025,
				"method": "rhf"
			},
			{
				"type": "unocc",
				"energy": -0.07741,
				"method": "rhf"
			},
			{
				"type": "unocc",
				"energy": -0.06292,
				"method": "rhf"
			},
			{
				"type": "unocc",
				"energy": 0.00716,
				"method": "rhf"
			},
			{
				"type": "unocc",
				"energy": 0.05093,
				"method": "rhf"
			}
		],
		"cosmo_sigma_profile": { 
			"-0.025": 0.0,
			"-0.024": 0.0,
			"-0.023": 0.0,
			"-0.022": 0.0,
			"-0.021": 0.0,
			"-0.02": 0.0,
			"-0.019": 0.0,
			"-0.018": 0.0,
			"-0.017": 0.0,
			"-0.016": 0.0,
			"-0.015": 0.0,
			"-0.014": 0.0,
			"-0.013": 0.0,
			"-0.012": 0.0,
			"-0.011": 0.14998291466,
			"-0.01": 1.76098457797,
			"-0.009": 4.43532806265,
			"-0.008": 6.0804914071,
			"-0.007": 7.86862147203,
			"-0.006": 13.0687293769,
			"-0.005": 16.3420919231,
			"-0.004": 23.5186165676,
			"-0.003": 21.7827992291,
			"-0.002": 19.7655945744,
			"-0.001": 14.3643111948,
			"0.0": 10.1134145318,
			"0.001": 11.4070701226,
			"0.002": 14.3563502813,
			"0.003": 16.8951007897,
			"0.004": 8.07688207402,
			"0.005": 4.73109011311,
			"0.006": 5.0326602345,
			"0.007": 10.7957432403,
			"0.008": 9.81387564705,
			"0.009": 3.62585988218,
			"0.01": 3.38379700079,
			"0.011": 4.67722293939,
			"0.012": 2.12782876581,
			"0.013": 1.43325488521,
			"0.014": 1.14453103125,
			"0.015": 1.38486782044,
			"0.016": 0.42810240244,
			"0.017": 0.0,
			"0.018": 0.0,
			"0.019": 0.0,
			"0.02": 0.0,
			"0.021": 0.0,
			"0.022": 0.0,
			"0.023": 0.0,
			"0.024": 0.0,
			"0.025": 0.0
		}
	}
}
