{
	 "smiles": "CC1=CC=C(C=C1)C1=CC(=NC(N)=C1)C1=CC=CC=C1", 
	 "Tm": 384.15, 
	 "num_atms": 36, 
	 "gaussian": { 
		 "optdone": 1, 
		 "sigma_profile": "yes", 
		 "theory": "DFT", 
		 "functional": "B3LYP", 
		 "basiset": "6-31G**", 
		 "properties": { 
			 "R2extent": 8108.956, 
			 "electric_dipole_moment_norm": 2.31443361106, 
			 "electric_quadrupole_moment_norm": 14.0881725898, 
			 "total_energy": -805.095643889, 
			 "HOMO_LUMO_gap": 0.16509, 
			 "cosmo_polarized_energy": -12.36, 
			 "cosmo_cavitation_energy": 39.84, 
			 "cosmo_dispersion_energy": -28.86, 
			 "cosmo_repulsion_energy": 2.2, 
			 "cosmo_total_nonelectrostatic_energy": 13.18, 
			 "SMD_solvation_energy": 5.36 
		},
		"coords": [
			{
				"x": 0.861253606,
				"y": 6.7517456762,
				"z": 0.9601123163,
				"element": "C" 
			},
			{
				"x": 0.7023234741,
				"y": 5.3336936215,
				"z": 0.4656265843,
				"element": "C" 
			},
			{
				"x": 1.6892834015,
				"y": 4.7266237468,
				"z": -0.3222058055,
				"element": "C" 
			},
			{
				"x": 1.5309620813,
				"y": 3.4296598183,
				"z": -0.8050564347,
				"element": "C" 
			},
			{
				"x": 0.3772946566,
				"y": 2.6848214367,
				"z": -0.5123599708,
				"element": "C" 
			},
			{
				"x": -0.6093164295,
				"y": 3.2904896569,
				"z": 0.2822060063,
				"element": "C" 
			},
			{
				"x": -0.4477508894,
				"y": 4.5891148143,
				"z": 0.7594234658,
				"element": "C" 
			},
			{
				"x": 0.207921541,
				"y": 1.3010640709,
				"z": -1.0231676644,
				"element": "C" 
			},
			{
				"x": -0.4042136062,
				"y": 0.3088488892,
				"z": -0.2378709718,
				"element": "C" 
			},
			{
				"x": -0.5456802912,
				"y": -0.9851651536,
				"z": -0.7492995473,
				"element": "C" 
			},
			{
				"x": -0.1270081367,
				"y": -1.3164984007,
				"z": -1.9859359964,
				"element": "N" 
			},
			{
				"x": 0.4468960363,
				"y": -0.3741838133,
				"z": -2.7420195661,
				"element": "C" 
			},
			{
				"x": 0.8021048832,
				"y": -0.7564580175,
				"z": -4.0247112361,
				"element": "N" 
			},
			{
				"x": 0.6429129131,
				"y": 0.9482437076,
				"z": -2.3003807892,
				"element": "C" 
			},
			{
				"x": -1.1782464969,
				"y": -2.0765040955,
				"z": 0.0426168946,
				"element": "C" 
			},
			{
				"x": -1.2527378579,
				"y": -2.031105801,
				"z": 1.4444940345,
				"element": "C" 
			},
			{
				"x": -1.8597066616,
				"y": -3.0616542616,
				"z": 2.1612313233,
				"element": "C" 
			},
			{
				"x": -2.4028200386,
				"y": -4.1592398093,
				"z": 1.4910905279,
				"element": "C" 
			},
			{
				"x": -2.3256920593,
				"y": -4.2206704309,
				"z": 0.0976574207,
				"element": "C" 
			},
			{
				"x": -1.716276261,
				"y": -3.193084278,
				"z": -0.618558572,
				"element": "C" 
			},
			{
				"x": 0.4483915082,
				"y": 7.470862062,
				"z": 0.241185755,
				"element": "H" 
			},
			{
				"x": 0.3388061111,
				"y": 6.9064296969,
				"z": 1.9090172199,
				"element": "H" 
			},
			{
				"x": 1.9146027215,
				"y": 7.0091117833,
				"z": 1.1068931844,
				"element": "H" 
			},
			{
				"x": 2.5998693327,
				"y": 5.274255653,
				"z": -0.553426863,
				"element": "H" 
			},
			{
				"x": 2.3247644954,
				"y": 2.9762919732,
				"z": -1.3915436839,
				"element": "H" 
			},
			{
				"x": -1.521568597,
				"y": 2.7467284447,
				"z": 0.5090026205,
				"element": "H" 
			},
			{
				"x": -1.2317543825,
				"y": 5.0348103355,
				"z": 1.3670132383,
				"element": "H" 
			},
			{
				"x": -0.7543592263,
				"y": 0.5504022935,
				"z": 0.7577328499,
				"element": "H" 
			},
			{
				"x": 1.5545009046,
				"y": -0.2470027167,
				"z": -4.4635461735,
				"element": "H" 
			},
			{
				"x": 0.8395930149,
				"y": -1.7580031021,
				"z": -4.153400808,
				"element": "H" 
			},
			{
				"x": 1.0830946093,
				"y": 1.6869498276,
				"z": -2.9626504762,
				"element": "H" 
			},
			{
				"x": -0.8117036781,
				"y": -1.1997498331,
				"z": 1.9853884071,
				"element": "H" 
			},
			{
				"x": -1.9004020098,
				"y": -3.0103263711,
				"z": 3.2457223065,
				"element": "H" 
			},
			{
				"x": -2.8764544873,
				"y": -4.9615284515,
				"z": 2.0498334361,
				"element": "H" 
			},
			{
				"x": -2.7429433125,
				"y": -5.0722190058,
				"z": -0.4328909512,
				"element": "H" 
			},
			{
				"x": -1.6451408688,
				"y": -3.2341539665,
				"z": -1.6995220815,
				"element": "H" 
			}
		],
		 "valence_orbital": [ 
			{
				"type": "occ",
				"energy": -0.24961,
				"method": "rhf"
			},
			{
				"type": "occ",
				"energy": -0.24294,
				"method": "rhf"
			},
			{
				"type": "occ",
				"energy": -0.23866,
				"method": "rhf"
			},
			{
				"type": "occ",
				"energy": -0.22719,
				"method": "rhf"
			},
			{
				"type": "occ",
				"energy": -0.20396,
				"method": "rhf"
			},
			{
				"type": "unocc",
				"energy": -0.03887,
				"method": "rhf"
			},
			{
				"type": "unocc",
				"energy": -0.01656,
				"method": "rhf"
			},
			{
				"type": "unocc",
				"energy": -0.00323,
				"method": "rhf"
			},
			{
				"type": "unocc",
				"energy": 0.00761,
				"method": "rhf"
			},
			{
				"type": "unocc",
				"energy": 0.03003,
				"method": "rhf"
			}
		],
		"cosmo_sigma_profile": { 
			"-0.025": 0.0,
			"-0.024": 0.0,
			"-0.023": 0.0,
			"-0.022": 0.0,
			"-0.021": 0.0,
			"-0.02": 0.0,
			"-0.019": 0.0,
			"-0.018": 0.0,
			"-0.017": 0.0,
			"-0.016": 0.0,
			"-0.015": 0.0,
			"-0.014": 0.0,
			"-0.013": 1.02482289683,
			"-0.012": 2.2392808058,
			"-0.011": 2.60667373811,
			"-0.01": 1.50386164634,
			"-0.009": 2.9615033995,
			"-0.008": 3.30986996721,
			"-0.007": 3.59463091727,
			"-0.006": 10.1860488243,
			"-0.005": 21.696714952,
			"-0.004": 28.3829584221,
			"-0.003": 26.2928711699,
			"-0.002": 21.6332715065,
			"-0.001": 21.6964898085,
			"0.0": 23.0832451816,
			"0.001": 17.6836011473,
			"0.002": 21.5933863384,
			"0.003": 30.544019294,
			"0.004": 27.1304301335,
			"0.005": 23.361476333,
			"0.006": 14.5783370384,
			"0.007": 2.61894491316,
			"0.008": 2.78538718376,
			"0.009": 2.44971189395,
			"0.01": 1.77093584607,
			"0.011": 1.60941066395,
			"0.012": 1.07779950893,
			"0.013": 0.717546363483,
			"0.014": 0.0656337262062,
			"0.015": 0.0,
			"0.016": 0.0,
			"0.017": 0.0,
			"0.018": 0.0,
			"0.019": 0.0,
			"0.02": 0.0,
			"0.021": 0.0,
			"0.022": 0.0,
			"0.023": 0.0,
			"0.024": 0.0,
			"0.025": 0.0
		}
	}
}
