{
	 "smiles": "CC1=C2C(CC2=NNC2=CC=C(C=C2[N+]([O-])=O)[N+]([O-])=O)=CC=C1", 
	 "Tm": 501.15, 
	 "num_atms": 35, 
	 "gaussian": { 
		 "optdone": 1, 
		 "sigma_profile": "yes", 
		 "theory": "DFT", 
		 "functional": "B3LYP", 
		 "basiset": "6-31G**", 
		 "properties": { 
			 "R2extent": 11125.7898, 
			 "electric_dipole_moment_norm": 8.46162778489, 
			 "electric_quadrupole_moment_norm": 29.9676852953, 
			 "total_energy": -1098.45585358, 
			 "HOMO_LUMO_gap": 0.13018, 
			 "cosmo_polarized_energy": -21.65, 
			 "cosmo_cavitation_energy": 42.21, 
			 "cosmo_dispersion_energy": -28.92, 
			 "cosmo_repulsion_energy": 2.18, 
			 "cosmo_total_nonelectrostatic_energy": 15.47, 
			 "SMD_solvation_energy": 10.85 
		},
		"coords": [
			{
				"x": -2.5515382581,
				"y": 0.6335770476,
				"z": -0.6337573177,
				"element": "C" 
			},
			{
				"x": -2.0200911521,
				"y": 1.183333452,
				"z": -1.9296921894,
				"element": "C" 
			},
			{
				"x": -0.6558917574,
				"y": 1.35687227,
				"z": -2.175893496,
				"element": "C" 
			},
			{
				"x": -0.1306997123,
				"y": 1.8558367476,
				"z": -3.3761455242,
				"element": "C" 
			},
			{
				"x": 1.3272872843,
				"y": 1.7098594716,
				"z": -2.9231385394,
				"element": "C" 
			},
			{
				"x": 0.6790773631,
				"y": 1.165943033,
				"z": -1.6119270942,
				"element": "C" 
			},
			{
				"x": 1.0686414441,
				"y": 0.7139125308,
				"z": -0.480933572,
				"element": "N" 
			},
			{
				"x": 2.4099090451,
				"y": 0.6340773258,
				"z": -0.2549380695,
				"element": "N" 
			},
			{
				"x": 2.905810524,
				"y": 0.1845880351,
				"z": 0.9397423019,
				"element": "C" 
			},
			{
				"x": 4.2338403565,
				"y": 0.5280805017,
				"z": 1.2887791794,
				"element": "C" 
			},
			{
				"x": 4.7737754444,
				"y": 0.1853951982,
				"z": 2.5128515039,
				"element": "C" 
			},
			{
				"x": 3.9826628533,
				"y": -0.4995991234,
				"z": 3.4415223885,
				"element": "C" 
			},
			{
				"x": 2.6805511281,
				"y": -0.8742683956,
				"z": 3.1338231859,
				"element": "C" 
			},
			{
				"x": 2.1633517035,
				"y": -0.5727518577,
				"z": 1.8810914453,
				"element": "C" 
			},
			{
				"x": 0.8608621063,
				"y": -1.18156903,
				"z": 1.5657295726,
				"element": "N" 
			},
			{
				"x": 0.7744261283,
				"y": -1.8035575647,
				"z": 0.5112448953,
				"element": "O" 
			},
			{
				"x": -0.0244759225,
				"y": -1.0856072514,
				"z": 2.4131399212,
				"element": "O" 
			},
			{
				"x": 4.5343534047,
				"y": -0.837408621,
				"z": 4.7489644285,
				"element": "N" 
			},
			{
				"x": 3.8064696464,
				"y": -1.4369932221,
				"z": 5.5415549271,
				"element": "O" 
			},
			{
				"x": 5.697810512,
				"y": -0.5000907315,
				"z": 4.9795078788,
				"element": "O" 
			},
			{
				"x": -0.9434771339,
				"y": 2.2365469722,
				"z": -4.4290731991,
				"element": "C" 
			},
			{
				"x": -2.3229772569,
				"y": 2.0824325867,
				"z": -4.2062331061,
				"element": "C" 
			},
			{
				"x": -2.8389866335,
				"y": 1.5714238176,
				"z": -3.00373539,
				"element": "C" 
			},
			{
				"x": -1.9550761027,
				"y": -0.2181842042,
				"z": -0.2914623138,
				"element": "H" 
			},
			{
				"x": -3.593619233,
				"y": 0.3177699819,
				"z": -0.7320861596,
				"element": "H" 
			},
			{
				"x": -2.5037780066,
				"y": 1.3895495215,
				"z": 0.1595436923,
				"element": "H" 
			},
			{
				"x": 1.9314372164,
				"y": 0.9839974844,
				"z": -3.479907425,
				"element": "H" 
			},
			{
				"x": 1.8952999377,
				"y": 2.6425659491,
				"z": -2.8190834374,
				"element": "H" 
			},
			{
				"x": 3.0547376278,
				"y": 1.0917999587,
				"z": -0.8924412517,
				"element": "H" 
			},
			{
				"x": 4.8257263489,
				"y": 1.1033034871,
				"z": 0.5823492104,
				"element": "H" 
			},
			{
				"x": 5.7872002114,
				"y": 0.4579907312,
				"z": 2.7790870076,
				"element": "H" 
			},
			{
				"x": 2.0842864721,
				"y": -1.4234754942,
				"z": 3.8509236699,
				"element": "H" 
			},
			{
				"x": -0.5660645957,
				"y": 2.6229236917,
				"z": -5.3707492216,
				"element": "H" 
			},
			{
				"x": -3.0199424153,
				"y": 2.3597226309,
				"z": -4.992370272,
				"element": "H" 
			},
			{
				"x": -3.9164985781,
				"y": 1.4670030692,
				"z": -2.90328763,
				"element": "H" 
			}
		],
		 "valence_orbital": [ 
			{
				"type": "occ",
				"energy": -0.28884,
				"method": "rhf"
			},
			{
				"type": "occ",
				"energy": -0.2798,
				"method": "rhf"
			},
			{
				"type": "occ",
				"energy": -0.27021,
				"method": "rhf"
			},
			{
				"type": "occ",
				"energy": -0.25729,
				"method": "rhf"
			},
			{
				"type": "occ",
				"energy": -0.22222,
				"method": "rhf"
			},
			{
				"type": "unocc",
				"energy": -0.09204,
				"method": "rhf"
			},
			{
				"type": "unocc",
				"energy": -0.07927,
				"method": "rhf"
			},
			{
				"type": "unocc",
				"energy": -0.04975,
				"method": "rhf"
			},
			{
				"type": "unocc",
				"energy": -0.03161,
				"method": "rhf"
			},
			{
				"type": "unocc",
				"energy": -0.01482,
				"method": "rhf"
			}
		],
		"cosmo_sigma_profile": { 
			"-0.025": 0.0,
			"-0.024": 0.0,
			"-0.023": 0.0,
			"-0.022": 0.0,
			"-0.021": 0.0,
			"-0.02": 0.0,
			"-0.019": 0.0,
			"-0.018": 0.0,
			"-0.017": 0.0488991289757,
			"-0.016": 1.11737070275,
			"-0.015": 1.49513113979,
			"-0.014": 1.45368077143,
			"-0.013": 1.62236803644,
			"-0.012": 1.55185114148,
			"-0.011": 1.90459865806,
			"-0.01": 1.74065942521,
			"-0.009": 3.1554829148,
			"-0.008": 5.83756530664,
			"-0.007": 7.39556774478,
			"-0.006": 15.4353435161,
			"-0.005": 20.126869688,
			"-0.004": 22.4003056887,
			"-0.003": 20.594141199,
			"-0.002": 28.6412663849,
			"-0.001": 32.6321034263,
			"0.0": 27.5652186421,
			"0.001": 20.7706082898,
			"0.002": 16.6020477782,
			"0.003": 16.7620938541,
			"0.004": 17.7584256606,
			"0.005": 14.3810930298,
			"0.006": 8.43942378827,
			"0.007": 15.6732278284,
			"0.008": 19.2953826171,
			"0.009": 8.45115640762,
			"0.01": 5.07682636534,
			"0.011": 0.670143143349,
			"0.012": 0.0,
			"0.013": 0.0,
			"0.014": 0.0,
			"0.015": 0.0,
			"0.016": 0.0,
			"0.017": 0.0,
			"0.018": 0.0,
			"0.019": 0.0,
			"0.02": 0.0,
			"0.021": 0.0,
			"0.022": 0.0,
			"0.023": 0.0,
			"0.024": 0.0,
			"0.025": 0.0
		}
	}
}
