{
	 "smiles": "NC1=NN2C(NC(=O)C=C2C(F)(F)F)=C1N=NC1=CC=C(C=C1)S(O)(=O)=O", 
	 "Tm": 565.15, 
	 "num_atms": 36, 
	 "gaussian": { 
		 "optdone": 1, 
		 "sigma_profile": "yes", 
		 "theory": "DFT", 
		 "functional": "B3LYP", 
		 "basiset": "6-31G**", 
		 "properties": { 
			 "R2extent": 19222.0133, 
			 "electric_dipole_moment_norm": 5.45033158808, 
			 "electric_quadrupole_moment_norm": 25.2426136852, 
			 "total_energy": -1827.80339764, 
			 "HOMO_LUMO_gap": 0.12958, 
			 "cosmo_polarized_energy": -25.97, 
			 "cosmo_cavitation_energy": 46.21, 
			 "cosmo_dispersion_energy": -33.4, 
			 "cosmo_repulsion_energy": 2.4, 
			 "cosmo_total_nonelectrostatic_energy": 15.21, 
			 "SMD_solvation_energy": 6.96 
		},
		"coords": [
			{
				"x": 1.9663788162,
				"y": -1.7125640188,
				"z": 3.0896564308,
				"element": "N" 
			},
			{
				"x": 0.8234967581,
				"y": -1.0425644215,
				"z": 3.3998467464,
				"element": "C" 
			},
			{
				"x": 0.377177214,
				"y": -0.9370493045,
				"z": 4.6443883334,
				"element": "N" 
			},
			{
				"x": -0.8216388728,
				"y": -0.2412420012,
				"z": 4.5084138905,
				"element": "N" 
			},
			{
				"x": -1.1028396468,
				"y": 0.0803130575,
				"z": 3.2134265982,
				"element": "C" 
			},
			{
				"x": -2.2300517784,
				"y": 0.7647859776,
				"z": 2.9109534558,
				"element": "N" 
			},
			{
				"x": -3.1707841818,
				"y": 1.1878130193,
				"z": 3.8765909116,
				"element": "C" 
			},
			{
				"x": -4.1699907245,
				"y": 1.8041560824,
				"z": 3.5501390491,
				"element": "O" 
			},
			{
				"x": -2.8055647977,
				"y": 0.8084588074,
				"z": 5.2447319571,
				"element": "C" 
			},
			{
				"x": -1.6700340738,
				"y": 0.1209312133,
				"z": 5.5279748073,
				"element": "C" 
			},
			{
				"x": -1.279570864,
				"y": -0.2761144269,
				"z": 6.9395396808,
				"element": "C" 
			},
			{
				"x": -0.1060568823,
				"y": 0.2724840196,
				"z": 7.2894204029,
				"element": "F" 
			},
			{
				"x": -2.2130347853,
				"y": 0.1502163182,
				"z": 7.8113307367,
				"element": "F" 
			},
			{
				"x": -1.1795300745,
				"y": -1.6081846896,
				"z": 7.0586366572,
				"element": "F" 
			},
			{
				"x": -0.0520106183,
				"y": -0.4197228625,
				"z": 2.4338511344,
				"element": "C" 
			},
			{
				"x": 0.162719735,
				"y": -0.3527352078,
				"z": 1.0907062892,
				"element": "N" 
			},
			{
				"x": -0.7510828028,
				"y": 0.2524265038,
				"z": 0.4321712494,
				"element": "N" 
			},
			{
				"x": -0.5283543668,
				"y": 0.3219640318,
				"z": -0.9606024674,
				"element": "C" 
			},
			{
				"x": -1.5031112082,
				"y": 1.0109329867,
				"z": -1.6993727365,
				"element": "C" 
			},
			{
				"x": -1.3864444694,
				"y": 1.1386791978,
				"z": -3.0797380774,
				"element": "C" 
			},
			{
				"x": -0.2808307876,
				"y": 0.572127893,
				"z": -3.7157335228,
				"element": "C" 
			},
			{
				"x": 0.6976364518,
				"y": -0.1276012066,
				"z": -2.9994648163,
				"element": "C" 
			},
			{
				"x": 0.5728903361,
				"y": -0.2527218604,
				"z": -1.6232582458,
				"element": "C" 
			},
			{
				"x": -0.1163336053,
				"y": 0.7329995808,
				"z": -5.4824148167,
				"element": "S" 
			},
			{
				"x": 0.72722803,
				"y": 2.1460373525,
				"z": -5.5758234765,
				"element": "O" 
			},
			{
				"x": 0.77435996,
				"y": -0.3092733867,
				"z": -5.9958893162,
				"element": "O" 
			},
			{
				"x": -1.434797396,
				"y": 0.9602393286,
				"z": -6.0576472611,
				"element": "O" 
			},
			{
				"x": 2.6078450003,
				"y": -1.9030990391,
				"z": 3.8445850867,
				"element": "H" 
			},
			{
				"x": 2.3679210114,
				"y": -1.5253320961,
				"z": 2.1840442256,
				"element": "H" 
			},
			{
				"x": -2.3784347225,
				"y": 0.9717753495,
				"z": 1.9262711424,
				"element": "H" 
			},
			{
				"x": -3.4821844325,
				"y": 1.0993446678,
				"z": 6.0349436124,
				"element": "H" 
			},
			{
				"x": -2.3503369714,
				"y": 1.4376321988,
				"z": -1.1725943392,
				"element": "H" 
			},
			{
				"x": -2.1410910459,
				"y": 1.6562002913,
				"z": -3.6610492683,
				"element": "H" 
			},
			{
				"x": 1.5312054391,
				"y": -0.5785220679,
				"z": -3.5268874606,
				"element": "H" 
			},
			{
				"x": 1.3107818567,
				"y": -0.7954453259,
				"z": -1.0452549534,
				"element": "H" 
			},
			{
				"x": 1.4641684996,
				"y": 1.9803540379,
				"z": -6.1883916397,
				"element": "H" 
			}
		],
		 "valence_orbital": [ 
			{
				"type": "occ",
				"energy": -0.28787,
				"method": "rhf"
			},
			{
				"type": "occ",
				"energy": -0.28245,
				"method": "rhf"
			},
			{
				"type": "occ",
				"energy": -0.26035,
				"method": "rhf"
			},
			{
				"type": "occ",
				"energy": -0.24014,
				"method": "rhf"
			},
			{
				"type": "occ",
				"energy": -0.23525,
				"method": "rhf"
			},
			{
				"type": "unocc",
				"energy": -0.10567,
				"method": "rhf"
			},
			{
				"type": "unocc",
				"energy": -0.07545,
				"method": "rhf"
			},
			{
				"type": "unocc",
				"energy": -0.03165,
				"method": "rhf"
			},
			{
				"type": "unocc",
				"energy": -0.02559,
				"method": "rhf"
			},
			{
				"type": "unocc",
				"energy": -0.00184,
				"method": "rhf"
			}
		],
		"cosmo_sigma_profile": { 
			"-0.025": 0.0,
			"-0.024": 0.0,
			"-0.023": 0.0,
			"-0.022": 0.0,
			"-0.021": 0.0,
			"-0.02": 0.406877962452,
			"-0.019": 1.1824705007,
			"-0.018": 0.540741433568,
			"-0.017": 0.914654019733,
			"-0.016": 0.76887507472,
			"-0.015": 1.06647287695,
			"-0.014": 2.27865909184,
			"-0.013": 3.44054685731,
			"-0.012": 3.04326718085,
			"-0.011": 3.56663993591,
			"-0.01": 4.28004230368,
			"-0.009": 4.14360590287,
			"-0.008": 7.34329876893,
			"-0.007": 12.0855440137,
			"-0.006": 15.9309760439,
			"-0.005": 17.5083236553,
			"-0.004": 21.9003528096,
			"-0.003": 20.7212098605,
			"-0.002": 21.3213067227,
			"-0.001": 20.3380488004,
			"0.0": 25.0975815563,
			"0.001": 46.1100350573,
			"0.002": 41.3283585437,
			"0.003": 12.5835795821,
			"0.004": 9.25079889587,
			"0.005": 8.2050765666,
			"0.006": 6.91882338429,
			"0.007": 8.84055675934,
			"0.008": 9.75946312954,
			"0.009": 12.3801141985,
			"0.01": 13.7315394519,
			"0.011": 7.05174703261,
			"0.012": 5.91271856305,
			"0.013": 2.42311215394,
			"0.014": 0.0152659373028,
			"0.015": 0.0,
			"0.016": 0.0,
			"0.017": 0.0,
			"0.018": 0.0,
			"0.019": 0.0,
			"0.02": 0.0,
			"0.021": 0.0,
			"0.022": 0.0,
			"0.023": 0.0,
			"0.024": 0.0,
			"0.025": 0.0
		}
	}
}
