{
	 "smiles": "O=C(CCC(=O)C1=CC=CC=C1)C1=CC=CC=C1", 
	 "Tm": 418.15, 
	 "num_atms": 32, 
	 "gaussian": { 
		 "optdone": 1, 
		 "sigma_profile": "yes", 
		 "theory": "DFT", 
		 "functional": "B3LYP", 
		 "basiset": "6-31G**", 
		 "properties": { 
			 "R2extent": 7311.5318, 
			 "electric_dipole_moment_norm": 2.28896359517, 
			 "electric_quadrupole_moment_norm": 17.2900939442, 
			 "total_energy": -768.596972985, 
			 "HOMO_LUMO_gap": 0.19233, 
			 "cosmo_polarized_energy": -13.77, 
			 "cosmo_cavitation_energy": 36.45, 
			 "cosmo_dispersion_energy": -26.03, 
			 "cosmo_repulsion_energy": 1.99, 
			 "cosmo_total_nonelectrostatic_energy": 12.42, 
			 "SMD_solvation_energy": 6.74 
		},
		"coords": [
			{
				"x": 0.7241043631,
				"y": 1.2759519844,
				"z": 1.8446204421,
				"element": "O" 
			},
			{
				"x": 1.0598420651,
				"y": 0.102583102,
				"z": 1.7717876208,
				"element": "C" 
			},
			{
				"x": 1.0164294355,
				"y": -0.6356974909,
				"z": 0.4350822168,
				"element": "C" 
			},
			{
				"x": 0.3407886537,
				"y": 0.1894540073,
				"z": -0.6550926379,
				"element": "C" 
			},
			{
				"x": -1.178866186,
				"y": 0.2124440318,
				"z": -0.5005452389,
				"element": "C" 
			},
			{
				"x": -1.7303375308,
				"y": -0.5023312649,
				"z": 0.3239465535,
				"element": "O" 
			},
			{
				"x": -1.98418384,
				"y": 1.1029307984,
				"z": -1.397823803,
				"element": "C" 
			},
			{
				"x": -3.3796568693,
				"y": 1.1071764703,
				"z": -1.2415656898,
				"element": "C" 
			},
			{
				"x": -4.1787058812,
				"y": 1.9082687449,
				"z": -2.0511259502,
				"element": "C" 
			},
			{
				"x": -3.5931508371,
				"y": 2.7155283181,
				"z": -3.0314024158,
				"element": "C" 
			},
			{
				"x": -2.2068588161,
				"y": 2.7181522415,
				"z": -3.1963825398,
				"element": "C" 
			},
			{
				"x": -1.4052025315,
				"y": 1.917023333,
				"z": -2.3832354653,
				"element": "C" 
			},
			{
				"x": 1.5504251247,
				"y": -0.6268151755,
				"z": 2.985839921,
				"element": "C" 
			},
			{
				"x": 1.5845942862,
				"y": 0.0704981006,
				"z": 4.2041933857,
				"element": "C" 
			},
			{
				"x": 2.0369456879,
				"y": -0.5531441876,
				"z": 5.362660288,
				"element": "C" 
			},
			{
				"x": 2.4646188277,
				"y": -1.8838032606,
				"z": 5.3186845524,
				"element": "C" 
			},
			{
				"x": 2.436367084,
				"y": -2.5861703432,
				"z": 4.1124887338,
				"element": "C" 
			},
			{
				"x": 1.9805156449,
				"y": -1.9620334721,
				"z": 2.9513073823,
				"element": "C" 
			},
			{
				"x": 0.4871967038,
				"y": -1.5840270226,
				"z": 0.568334042,
				"element": "H" 
			},
			{
				"x": 2.0474658166,
				"y": -0.8797014003,
				"z": 0.147045125,
				"element": "H" 
			},
			{
				"x": 0.7170026655,
				"y": 1.216682761,
				"z": -0.6338419024,
				"element": "H" 
			},
			{
				"x": 0.5763615097,
				"y": -0.2196720318,
				"z": -1.6463731666,
				"element": "H" 
			},
			{
				"x": -3.8094076508,
				"y": 0.4715278973,
				"z": -0.4747299675,
				"element": "H" 
			},
			{
				"x": -5.2570767576,
				"y": 1.9065111696,
				"z": -1.9210552307,
				"element": "H" 
			},
			{
				"x": -4.2161471252,
				"y": 3.3415436528,
				"z": -3.6640500386,
				"element": "H" 
			},
			{
				"x": -1.7498245118,
				"y": 3.3451701463,
				"z": -3.9563311233,
				"element": "H" 
			},
			{
				"x": -0.329088037,
				"y": 1.9319385502,
				"z": -2.5205373348,
				"element": "H" 
			},
			{
				"x": 1.2483793075,
				"y": 1.1018423638,
				"z": 4.2116702285,
				"element": "H" 
			},
			{
				"x": 2.0573259464,
				"y": -0.0061741321,
				"z": 6.3008557373,
				"element": "H" 
			},
			{
				"x": 2.8179260165,
				"y": -2.3718264976,
				"z": 6.2227149838,
				"element": "H" 
			},
			{
				"x": 2.7670827767,
				"y": -3.6200283373,
				"z": 4.0761730447,
				"element": "H" 
			},
			{
				"x": 1.9610346587,
				"y": -2.5214030567,
				"z": 2.021888247,
				"element": "H" 
			}
		],
		 "valence_orbital": [ 
			{
				"type": "occ",
				"energy": -0.25845,
				"method": "rhf"
			},
			{
				"type": "occ",
				"energy": -0.25533,
				"method": "rhf"
			},
			{
				"type": "occ",
				"energy": -0.2548,
				"method": "rhf"
			},
			{
				"type": "occ",
				"energy": -0.24904,
				"method": "rhf"
			},
			{
				"type": "occ",
				"energy": -0.24583,
				"method": "rhf"
			},
			{
				"type": "unocc",
				"energy": -0.0535,
				"method": "rhf"
			},
			{
				"type": "unocc",
				"energy": -0.05026,
				"method": "rhf"
			},
			{
				"type": "unocc",
				"energy": -0.00665,
				"method": "rhf"
			},
			{
				"type": "unocc",
				"energy": -0.0064,
				"method": "rhf"
			},
			{
				"type": "unocc",
				"energy": 0.04192,
				"method": "rhf"
			}
		],
		"cosmo_sigma_profile": { 
			"-0.025": 0.0,
			"-0.024": 0.0,
			"-0.023": 0.0,
			"-0.022": 0.0,
			"-0.021": 0.0,
			"-0.02": 0.0,
			"-0.019": 0.0,
			"-0.018": 0.0,
			"-0.017": 0.0,
			"-0.016": 0.0,
			"-0.015": 0.0,
			"-0.014": 0.0,
			"-0.013": 0.0,
			"-0.012": 0.0,
			"-0.011": 0.0,
			"-0.01": 0.0,
			"-0.009": 0.0,
			"-0.008": 0.0,
			"-0.007": 4.48892595563,
			"-0.006": 26.2883974835,
			"-0.005": 29.9564429638,
			"-0.004": 29.2012181233,
			"-0.003": 20.6479119521,
			"-0.002": 20.0044081793,
			"-0.001": 14.1387648682,
			"0.0": 15.2470025033,
			"0.001": 18.8228485188,
			"0.002": 22.3466473771,
			"0.003": 22.3501513087,
			"0.004": 27.8516238571,
			"0.005": 9.09137278651,
			"0.006": 5.21313706389,
			"0.007": 3.38370659689,
			"0.008": 3.60567790499,
			"0.009": 3.56985324886,
			"0.01": 4.37424967563,
			"0.011": 4.79918202848,
			"0.012": 5.84040733218,
			"0.013": 0.154132740807,
			"0.014": 0.0,
			"0.015": 0.0,
			"0.016": 0.0,
			"0.017": 0.0,
			"0.018": 0.0,
			"0.019": 0.0,
			"0.02": 0.0,
			"0.021": 0.0,
			"0.022": 0.0,
			"0.023": 0.0,
			"0.024": 0.0,
			"0.025": 0.0
		}
	}
}
