{
	 "smiles": "ClC1=NC(Cl)=C(Br)C=C1", 
	 "Tm": 343.15, 
	 "num_atms": 11, 
	 "gaussian": { 
		 "optdone": 1, 
		 "sigma_profile": "yes", 
		 "theory": "DFT", 
		 "functional": "B3LYP", 
		 "basiset": "6-31G**", 
		 "properties": { 
			 "R2extent": 5693.9724, 
			 "electric_dipole_moment_norm": 3.17052752393, 
			 "electric_quadrupole_moment_norm": 6.11323885269, 
			 "total_energy": -3738.26647188, 
			 "HOMO_LUMO_gap": 0.2019, 
			 "cosmo_polarized_energy": -6.24, 
			 "cosmo_cavitation_energy": 21.72, 
			 "cosmo_dispersion_energy": -17.0, 
			 "cosmo_repulsion_energy": 1.4, 
			 "cosmo_total_nonelectrostatic_energy": 6.12, 
			 "SMD_solvation_energy": 0.83 
		},
		"coords": [
			{
				"x": -0.8579229833,
				"y": 2.3619703371,
				"z": -0.8919805257,
				"element": "Cl" 
			},
			{
				"x": -0.6506908152,
				"y": 0.7085081957,
				"z": -1.4351932837,
				"element": "C" 
			},
			{
				"x": -1.3652671961,
				"y": 0.3297009903,
				"z": -2.4800070788,
				"element": "N" 
			},
			{
				"x": -1.2408558449,
				"y": -0.9115126044,
				"z": -2.9253671643,
				"element": "C" 
			},
			{
				"x": -2.2177698586,
				"y": -1.334435271,
				"z": -4.3083294551,
				"element": "Cl" 
			},
			{
				"x": -0.3780964967,
				"y": -1.8453641305,
				"z": -2.3315125527,
				"element": "C" 
			},
			{
				"x": -0.1939811052,
				"y": -3.6216988773,
				"z": -2.9617901368,
				"element": "Br" 
			},
			{
				"x": 0.3693075473,
				"y": -1.4279531434,
				"z": -1.2284704504,
				"element": "C" 
			},
			{
				"x": 0.240984156,
				"y": -0.125401236,
				"z": -0.7583855719,
				"element": "C" 
			},
			{
				"x": 1.0455435731,
				"y": -2.1246828922,
				"z": -0.7460648987,
				"element": "H" 
			},
			{
				"x": 0.8056490235,
				"y": 0.2304686315,
				"z": 0.0944011183,
				"element": "H" 
			}
		],
		 "valence_orbital": [ 
			{
				"type": "occ",
				"energy": -0.32527,
				"method": "rhf"
			},
			{
				"type": "occ",
				"energy": -0.314,
				"method": "rhf"
			},
			{
				"type": "occ",
				"energy": -0.30323,
				"method": "rhf"
			},
			{
				"type": "occ",
				"energy": -0.29451,
				"method": "rhf"
			},
			{
				"type": "occ",
				"energy": -0.26133,
				"method": "rhf"
			},
			{
				"type": "unocc",
				"energy": -0.05943,
				"method": "rhf"
			},
			{
				"type": "unocc",
				"energy": -0.04948,
				"method": "rhf"
			},
			{
				"type": "unocc",
				"energy": -0.02235,
				"method": "rhf"
			},
			{
				"type": "unocc",
				"energy": 0.01673,
				"method": "rhf"
			},
			{
				"type": "unocc",
				"energy": 0.0426,
				"method": "rhf"
			}
		],
		"cosmo_sigma_profile": { 
			"-0.025": 0.0,
			"-0.024": 0.0,
			"-0.023": 0.0,
			"-0.022": 0.0,
			"-0.021": 0.0,
			"-0.02": 0.0,
			"-0.019": 0.0,
			"-0.018": 0.0,
			"-0.017": 0.0,
			"-0.016": 0.0,
			"-0.015": 0.0,
			"-0.014": 0.0,
			"-0.013": 0.0,
			"-0.012": 0.0,
			"-0.011": 0.0,
			"-0.01": 1.16424615067,
			"-0.009": 4.64057609677,
			"-0.008": 4.51121558074,
			"-0.007": 3.0410282573,
			"-0.006": 3.97832349546,
			"-0.005": 4.65137050487,
			"-0.004": 6.5449752773,
			"-0.003": 14.3297322761,
			"-0.002": 20.7768611014,
			"-0.001": 18.4817437225,
			"0.0": 15.277898352,
			"0.001": 12.2608589044,
			"0.002": 17.5467168281,
			"0.003": 26.8592029138,
			"0.004": 16.7483672885,
			"0.005": 3.9594715514,
			"0.006": 2.51475815925,
			"0.007": 1.83994168292,
			"0.008": 1.36206161507,
			"0.009": 0.9371048747,
			"0.01": 1.02584110248,
			"0.011": 0.843289519106,
			"0.012": 0.374509471157,
			"0.013": 0.0,
			"0.014": 0.0,
			"0.015": 0.0,
			"0.016": 0.0,
			"0.017": 0.0,
			"0.018": 0.0,
			"0.019": 0.0,
			"0.02": 0.0,
			"0.021": 0.0,
			"0.022": 0.0,
			"0.023": 0.0,
			"0.024": 0.0,
			"0.025": 0.0
		}
	}
}
