{
	 "smiles": "COC1=CC(=CC=C1)N=C(/C)C1=C(O)C2=CC=CC=C2N(C2=CC=CC=C2)C1=O", 
	 "Tm": 451.15, 
	 "num_atms": 49, 
	 "gaussian": { 
		 "optdone": 1, 
		 "sigma_profile": "yes", 
		 "theory": "DFT", 
		 "functional": "B3LYP", 
		 "basiset": "6-31G**", 
		 "properties": { 
			 "R2extent": 15432.8031, 
			 "electric_dipole_moment_norm": 2.39161171598, 
			 "electric_quadrupole_moment_norm": 13.2198609248, 
			 "total_energy": -1261.80495906, 
			 "HOMO_LUMO_gap": 0.14796, 
			 "cosmo_polarized_energy": -14.79, 
			 "cosmo_cavitation_energy": 52.33, 
			 "cosmo_dispersion_energy": -36.69, 
			 "cosmo_repulsion_energy": 2.72, 
			 "cosmo_total_nonelectrostatic_energy": 18.36, 
			 "SMD_solvation_energy": 9.82 
		},
		"coords": [
			{
				"x": -0.7006260823,
				"y": 3.9882386548,
				"z": -6.1538184728,
				"element": "C" 
			},
			{
				"x": -2.0813085931,
				"y": 3.677042631,
				"z": -6.0553964984,
				"element": "O" 
			},
			{
				"x": -2.5169450943,
				"y": 3.0058252733,
				"z": -4.9500794839,
				"element": "C" 
			},
			{
				"x": -1.6887988375,
				"y": 2.5916601941,
				"z": -3.9039432109,
				"element": "C" 
			},
			{
				"x": -2.2342626271,
				"y": 1.8919224566,
				"z": -2.8131843599,
				"element": "C" 
			},
			{
				"x": -3.6102440696,
				"y": 1.6368131424,
				"z": -2.7624962107,
				"element": "C" 
			},
			{
				"x": -4.426356423,
				"y": 2.0648620783,
				"z": -3.813512644,
				"element": "C" 
			},
			{
				"x": -3.8949763175,
				"y": 2.7400621483,
				"z": -4.9050696323,
				"element": "C" 
			},
			{
				"x": -1.3686919858,
				"y": 1.5694471963,
				"z": -1.7453216354,
				"element": "N" 
			},
			{
				"x": -1.1912464327,
				"y": 0.3777940693,
				"z": -1.230074597,
				"element": "C" 
			},
			{
				"x": -1.8137259291,
				"y": -0.8605867889,
				"z": -1.8229294854,
				"element": "C" 
			},
			{
				"x": -0.2997261677,
				"y": 0.3035878896,
				"z": -0.0684202714,
				"element": "C" 
			},
			{
				"x": 0.339484798,
				"y": 1.4704801797,
				"z": 0.3888976144,
				"element": "C" 
			},
			{
				"x": 0.1583063632,
				"y": 2.6371632897,
				"z": -0.1813213026,
				"element": "O" 
			},
			{
				"x": 1.2443306076,
				"y": 1.4289047749,
				"z": 1.5201700528,
				"element": "C" 
			},
			{
				"x": 1.8923923161,
				"y": 2.5944921257,
				"z": 1.9702552812,
				"element": "C" 
			},
			{
				"x": 2.7589725018,
				"y": 2.5509152579,
				"z": 3.0492448459,
				"element": "C" 
			},
			{
				"x": 2.9866487571,
				"y": 1.3260084823,
				"z": 3.6948810766,
				"element": "C" 
			},
			{
				"x": 2.3590186288,
				"y": 0.1630360522,
				"z": 3.2709763011,
				"element": "C" 
			},
			{
				"x": 1.4750179757,
				"y": 0.1974311389,
				"z": 2.1738385975,
				"element": "C" 
			},
			{
				"x": 0.8232049657,
				"y": -0.9463640184,
				"z": 1.7199473603,
				"element": "N" 
			},
			{
				"x": 1.0347438308,
				"y": -2.2094988499,
				"z": 2.3874083063,
				"element": "C" 
			},
			{
				"x": 2.0625682014,
				"y": -3.0532213552,
				"z": 1.9637448806,
				"element": "C" 
			},
			{
				"x": 2.2755058489,
				"y": -4.2665614989,
				"z": 2.6190792564,
				"element": "C" 
			},
			{
				"x": 1.4633038516,
				"y": -4.6344626839,
				"z": 3.6936295158,
				"element": "C" 
			},
			{
				"x": 0.4350487012,
				"y": -3.7873317428,
				"z": 4.1121683783,
				"element": "C" 
			},
			{
				"x": 0.2186871726,
				"y": -2.5732283845,
				"z": 3.4597496387,
				"element": "C" 
			},
			{
				"x": -0.0778995172,
				"y": -0.9665570158,
				"z": 0.625256752,
				"element": "C" 
			},
			{
				"x": -0.6125771474,
				"y": -2.0352435693,
				"z": 0.3346518228,
				"element": "O" 
			},
			{
				"x": -0.0806349082,
				"y": 3.0824753219,
				"z": -6.1657586694,
				"element": "H" 
			},
			{
				"x": -0.3712320329,
				"y": 4.6359485208,
				"z": -5.3311926104,
				"element": "H" 
			},
			{
				"x": -0.5780835539,
				"y": 4.5188805248,
				"z": -7.0992841482,
				"element": "H" 
			},
			{
				"x": -0.6239006516,
				"y": 2.7887236443,
				"z": -3.9088386737,
				"element": "H" 
			},
			{
				"x": -4.0341051597,
				"y": 1.131529453,
				"z": -1.9015007944,
				"element": "H" 
			},
			{
				"x": -5.4942702216,
				"y": 1.8699321271,
				"z": -3.7743384813,
				"element": "H" 
			},
			{
				"x": -4.5176136253,
				"y": 3.0782686004,
				"z": -5.7262283477,
				"element": "H" 
			},
			{
				"x": -1.0526186801,
				"y": -1.6298245986,
				"z": -1.9602228271,
				"element": "H" 
			},
			{
				"x": -2.2986254485,
				"y": -0.6280242683,
				"z": -2.7707166707,
				"element": "H" 
			},
			{
				"x": -2.5411353322,
				"y": -1.2986020677,
				"z": -1.1346475443,
				"element": "H" 
			},
			{
				"x": -0.5396002154,
				"y": 2.4340190763,
				"z": -0.9753827306,
				"element": "H" 
			},
			{
				"x": 1.6905956278,
				"y": 3.5214796829,
				"z": 1.4458801314,
				"element": "H" 
			},
			{
				"x": 3.2559852649,
				"y": 3.4526836708,
				"z": 3.3919569998,
				"element": "H" 
			},
			{
				"x": 3.6643776141,
				"y": 1.2786313021,
				"z": 4.5426131437,
				"element": "H" 
			},
			{
				"x": 2.5453725399,
				"y": -0.7731819609,
				"z": 3.7812766823,
				"element": "H" 
			},
			{
				"x": 2.6829774267,
				"y": -2.7571311346,
				"z": 1.1238158649,
				"element": "H" 
			},
			{
				"x": 3.0737186422,
				"y": -4.9243312904,
				"z": 2.2880973317,
				"element": "H" 
			},
			{
				"x": 1.6296121684,
				"y": -5.579644283,
				"z": 4.2020592178,
				"element": "H" 
			},
			{
				"x": -0.2013737579,
				"y": -4.0719220649,
				"z": 4.9448317966,
				"element": "H" 
			},
			{
				"x": -0.5803949933,
				"y": -1.9079413836,
				"z": 3.7709484537,
				"element": "H" 
			}
		],
		 "valence_orbital": [ 
			{
				"type": "occ",
				"energy": -0.24466,
				"method": "rhf"
			},
			{
				"type": "occ",
				"energy": -0.23949,
				"method": "rhf"
			},
			{
				"type": "occ",
				"energy": -0.22852,
				"method": "rhf"
			},
			{
				"type": "occ",
				"energy": -0.2194,
				"method": "rhf"
			},
			{
				"type": "occ",
				"energy": -0.20883,
				"method": "rhf"
			},
			{
				"type": "unocc",
				"energy": -0.06087,
				"method": "rhf"
			},
			{
				"type": "unocc",
				"energy": -0.0172,
				"method": "rhf"
			},
			{
				"type": "unocc",
				"energy": -0.01081,
				"method": "rhf"
			},
			{
				"type": "unocc",
				"energy": -0.00794,
				"method": "rhf"
			},
			{
				"type": "unocc",
				"energy": 0.0005,
				"method": "rhf"
			}
		],
		"cosmo_sigma_profile": { 
			"-0.025": 0.0,
			"-0.024": 0.0,
			"-0.023": 0.0,
			"-0.022": 0.0,
			"-0.021": 0.0,
			"-0.02": 0.0,
			"-0.019": 0.0,
			"-0.018": 0.0,
			"-0.017": 0.0,
			"-0.016": 0.0,
			"-0.015": 0.0,
			"-0.014": 0.0,
			"-0.013": 0.0,
			"-0.012": 0.0,
			"-0.011": 0.0,
			"-0.01": 0.0,
			"-0.009": 0.0,
			"-0.008": 0.0,
			"-0.007": 3.56085702596,
			"-0.006": 24.2385546021,
			"-0.005": 34.9139485566,
			"-0.004": 40.202998923,
			"-0.003": 36.8492083692,
			"-0.002": 32.2372856338,
			"-0.001": 34.8118808572,
			"0.0": 37.466636812,
			"0.001": 32.8916242233,
			"0.002": 27.8100553001,
			"0.003": 30.0896257671,
			"0.004": 29.9970088863,
			"0.005": 18.1868428533,
			"0.006": 7.67464802066,
			"0.007": 5.13628250806,
			"0.008": 4.30900977376,
			"0.009": 5.97632379925,
			"0.01": 3.52890161527,
			"0.011": 2.43991767407,
			"0.012": 1.8847232333,
			"0.013": 2.57972590975,
			"0.014": 2.43621516343,
			"0.015": 0.247959009579,
			"0.016": 0.0,
			"0.017": 0.0,
			"0.018": 0.0,
			"0.019": 0.0,
			"0.02": 0.0,
			"0.021": 0.0,
			"0.022": 0.0,
			"0.023": 0.0,
			"0.024": 0.0,
			"0.025": 0.0
		}
	}
}
