{
	 "smiles": "NNC1=NN=C(C=C1)N1C=CC=N1", 
	 "Tm": 468.15, 
	 "num_atms": 21, 
	 "gaussian": { 
		 "optdone": 1, 
		 "sigma_profile": "yes", 
		 "theory": "DFT", 
		 "functional": "B3LYP", 
		 "basiset": "6-31G**", 
		 "properties": { 
			 "R2extent": 3588.3878, 
			 "electric_dipole_moment_norm": 1.55512081203, 
			 "electric_quadrupole_moment_norm": 10.8984021801, 
			 "total_energy": -599.98225975, 
			 "HOMO_LUMO_gap": 0.16454, 
			 "cosmo_polarized_energy": -14.19, 
			 "cosmo_cavitation_energy": 25.95, 
			 "cosmo_dispersion_energy": -19.57, 
			 "cosmo_repulsion_energy": 1.53, 
			 "cosmo_total_nonelectrostatic_energy": 7.91, 
			 "SMD_solvation_energy": 3.37 
		},
		"coords": [
			{
				"x": 2.1843398542,
				"y": 2.9278943317,
				"z": -0.0628131819,
				"element": "N" 
			},
			{
				"x": 1.0726646205,
				"y": 2.9805830974,
				"z": 0.8070554376,
				"element": "N" 
			},
			{
				"x": 0.2087394584,
				"y": 1.9084617885,
				"z": 0.9199557407,
				"element": "C" 
			},
			{
				"x": 0.6014560432,
				"y": 0.7504851823,
				"z": 0.3772205669,
				"element": "N" 
			},
			{
				"x": -0.1752486636,
				"y": -0.3308730574,
				"z": 0.4915335543,
				"element": "N" 
			},
			{
				"x": -1.3297701805,
				"y": -0.2527846285,
				"z": 1.1318561105,
				"element": "C" 
			},
			{
				"x": -1.8176653363,
				"y": 0.9343507714,
				"z": 1.7197510222,
				"element": "C" 
			},
			{
				"x": -1.023750249,
				"y": 2.0454106624,
				"z": 1.6084580549,
				"element": "C" 
			},
			{
				"x": -2.0827375783,
				"y": -1.4449082691,
				"z": 1.2015117724,
				"element": "N" 
			},
			{
				"x": -1.7503592375,
				"y": -2.6686190481,
				"z": 0.6887735362,
				"element": "C" 
			},
			{
				"x": -2.788130734,
				"y": -3.5172702105,
				"z": 1.0032702179,
				"element": "C" 
			},
			{
				"x": -3.7109075618,
				"y": -2.7100445815,
				"z": 1.7131800943,
				"element": "C" 
			},
			{
				"x": -3.2865584119,
				"y": -1.4572698693,
				"z": 1.8342058052,
				"element": "N" 
			},
			{
				"x": 2.9216915823,
				"y": 2.4210633614,
				"z": 0.4246638651,
				"element": "H" 
			},
			{
				"x": 1.9366868371,
				"y": 2.3339826855,
				"z": -0.8565103128,
				"element": "H" 
			},
			{
				"x": 0.6557110363,
				"y": 3.89999295,
				"z": 0.8488635443,
				"element": "H" 
			},
			{
				"x": -2.7746274798,
				"y": 0.9343188465,
				"z": 2.2256632873,
				"element": "H" 
			},
			{
				"x": -1.3187505093,
				"y": 2.9997283392,
				"z": 2.0353656388,
				"element": "H" 
			},
			{
				"x": -0.8212839391,
				"y": -2.8073618358,
				"z": 0.1601011995,
				"element": "H" 
			},
			{
				"x": -2.8698800762,
				"y": -4.5654326025,
				"z": 0.757970691,
				"element": "H" 
			},
			{
				"x": -4.6645194744,
				"y": -2.9924079138,
				"z": 2.1393233556,
				"element": "H" 
			}
		],
		 "valence_orbital": [ 
			{
				"type": "occ",
				"energy": -0.28097,
				"method": "rhf"
			},
			{
				"type": "occ",
				"energy": -0.26761,
				"method": "rhf"
			},
			{
				"type": "occ",
				"energy": -0.24995,
				"method": "rhf"
			},
			{
				"type": "occ",
				"energy": -0.23898,
				"method": "rhf"
			},
			{
				"type": "occ",
				"energy": -0.21688,
				"method": "rhf"
			},
			{
				"type": "unocc",
				"energy": -0.05234,
				"method": "rhf"
			},
			{
				"type": "unocc",
				"energy": -0.02678,
				"method": "rhf"
			},
			{
				"type": "unocc",
				"energy": 0.03858,
				"method": "rhf"
			},
			{
				"type": "unocc",
				"energy": 0.0711,
				"method": "rhf"
			},
			{
				"type": "unocc",
				"energy": 0.08197,
				"method": "rhf"
			}
		],
		"cosmo_sigma_profile": { 
			"-0.025": 0.0,
			"-0.024": 0.0,
			"-0.023": 0.0,
			"-0.022": 0.0,
			"-0.021": 0.0,
			"-0.02": 0.0,
			"-0.019": 0.0,
			"-0.018": 0.0,
			"-0.017": 0.0,
			"-0.016": 0.0,
			"-0.015": 0.116964997993,
			"-0.014": 1.24171269979,
			"-0.013": 1.72442094246,
			"-0.012": 1.3945024033,
			"-0.011": 2.32512863425,
			"-0.01": 2.98438263293,
			"-0.009": 4.77636347181,
			"-0.008": 7.85573911287,
			"-0.007": 9.7462630381,
			"-0.006": 9.10458861901,
			"-0.005": 8.61773655927,
			"-0.004": 11.4871038801,
			"-0.003": 8.95353183904,
			"-0.002": 12.2963810676,
			"-0.001": 17.7535466622,
			"0.0": 16.1885551214,
			"0.001": 14.8397390891,
			"0.002": 10.4387981312,
			"0.003": 11.1746769218,
			"0.004": 12.1991284983,
			"0.005": 7.79485448403,
			"0.006": 5.38946479218,
			"0.007": 4.14203129922,
			"0.008": 4.48492131076,
			"0.009": 3.55418601635,
			"0.01": 2.89499252543,
			"0.011": 4.706310053,
			"0.012": 3.56463853586,
			"0.013": 2.68167583141,
			"0.014": 2.03107178986,
			"0.015": 0.369542610984,
			"0.016": 1.08897077559,
			"0.017": 0.175936809859,
			"0.018": 0.0,
			"0.019": 0.0,
			"0.02": 0.0,
			"0.021": 0.0,
			"0.022": 0.0,
			"0.023": 0.0,
			"0.024": 0.0,
			"0.025": 0.0
		}
	}
}
