{
	 "smiles": "CC1CCN(CC1)S(=O)(=O)C1=CC=C(N)C=C1", 
	 "Tm": 382.15, 
	 "num_atms": 35, 
	 "gaussian": { 
		 "optdone": 1, 
		 "sigma_profile": "yes", 
		 "theory": "DFT", 
		 "functional": "B3LYP", 
		 "basiset": "6-31G**", 
		 "properties": { 
			 "R2extent": 5418.2051, 
			 "electric_dipole_moment_norm": 7.78736213233, 
			 "electric_quadrupole_moment_norm": 26.4325574039, 
			 "total_energy": -1126.20459805, 
			 "HOMO_LUMO_gap": 0.20025, 
			 "cosmo_polarized_energy": -19.71, 
			 "cosmo_cavitation_energy": 37.05, 
			 "cosmo_dispersion_energy": -26.38, 
			 "cosmo_repulsion_energy": 2.02, 
			 "cosmo_total_nonelectrostatic_energy": 12.69, 
			 "SMD_solvation_energy": 3.85 
		},
		"coords": [
			{
				"x": 2.1954597646,
				"y": 1.2201164146,
				"z": 3.0827391941,
				"element": "C" 
			},
			{
				"x": 2.3293621551,
				"y": 2.1006060644,
				"z": 1.833856186,
				"element": "C" 
			},
			{
				"x": 2.8715880731,
				"y": 1.2841536462,
				"z": 0.6351251013,
				"element": "C" 
			},
			{
				"x": 2.4916256788,
				"y": 1.9190870849,
				"z": -0.7044052631,
				"element": "C" 
			},
			{
				"x": 1.0212904736,
				"y": 1.990971201,
				"z": -0.8620636259,
				"element": "N" 
			},
			{
				"x": 0.22032131,
				"y": 2.0158351159,
				"z": 0.3779036326,
				"element": "C" 
			},
			{
				"x": 0.9893419264,
				"y": 2.7881445712,
				"z": 1.4521590193,
				"element": "C" 
			},
			{
				"x": 0.3209080866,
				"y": 1.2525138513,
				"z": -2.1997435257,
				"element": "S" 
			},
			{
				"x": 1.2444339524,
				"y": 1.4729319213,
				"z": -3.3170821171,
				"element": "O" 
			},
			{
				"x": -1.0688801108,
				"y": 1.7181464562,
				"z": -2.2274034167,
				"element": "O" 
			},
			{
				"x": 0.2781207223,
				"y": -0.5091900577,
				"z": -1.8882886673,
				"element": "C" 
			},
			{
				"x": 1.3464000302,
				"y": -1.3183331892,
				"z": -2.2926132961,
				"element": "C" 
			},
			{
				"x": 1.3320466413,
				"y": -2.679094489,
				"z": -2.0153301161,
				"element": "C" 
			},
			{
				"x": 0.2468713078,
				"y": -3.2617653992,
				"z": -1.3305772325,
				"element": "C" 
			},
			{
				"x": 0.2088217976,
				"y": -4.6274564661,
				"z": -1.1007746996,
				"element": "N" 
			},
			{
				"x": -0.8276896456,
				"y": -2.4377711474,
				"z": -0.9421966139,
				"element": "C" 
			},
			{
				"x": -0.8132461214,
				"y": -1.0766583694,
				"z": -1.2202595923,
				"element": "C" 
			},
			{
				"x": 3.1398034013,
				"y": 0.7159368509,
				"z": 3.3167700155,
				"element": "H" 
			},
			{
				"x": 1.9054665339,
				"y": 1.8113615802,
				"z": 3.9579776258,
				"element": "H" 
			},
			{
				"x": 1.4345487402,
				"y": 0.4435107768,
				"z": 2.9369535243,
				"element": "H" 
			},
			{
				"x": 3.0548490593,
				"y": 2.8936176993,
				"z": 2.0576202964,
				"element": "H" 
			},
			{
				"x": 2.468745768,
				"y": 0.26343115,
				"z": 0.666474469,
				"element": "H" 
			},
			{
				"x": 3.9616131252,
				"y": 1.1906430284,
				"z": 0.7018204059,
				"element": "H" 
			},
			{
				"x": 2.900718164,
				"y": 2.9359019202,
				"z": -0.7720599821,
				"element": "H" 
			},
			{
				"x": 2.9108383513,
				"y": 1.3638722155,
				"z": -1.5451298153,
				"element": "H" 
			},
			{
				"x": -0.7323165,
				"y": 2.4993525136,
				"z": 0.1552107679,
				"element": "H" 
			},
			{
				"x": 0.0013980551,
				"y": 0.9961094129,
				"z": 0.7359034967,
				"element": "H" 
			},
			{
				"x": 0.3502636274,
				"y": 2.8961208666,
				"z": 2.3357470087,
				"element": "H" 
			},
			{
				"x": 1.17585313,
				"y": 3.8001098488,
				"z": 1.0758185441,
				"element": "H" 
			},
			{
				"x": 2.1691535901,
				"y": -0.8811557573,
				"z": -2.8478527231,
				"element": "H" 
			},
			{
				"x": 2.1560254542,
				"y": -3.3069458046,
				"z": -2.3445230337,
				"element": "H" 
			},
			{
				"x": -0.4135510194,
				"y": -4.9492977749,
				"z": -0.3743796957,
				"element": "H" 
			},
			{
				"x": 1.091294665,
				"y": -5.1167765372,
				"z": -1.1202702469,
				"element": "H" 
			},
			{
				"x": -1.6829725004,
				"y": -2.8771590542,
				"z": -0.4353280476,
				"element": "H" 
			},
			{
				"x": -1.6571076873,
				"y": -0.4524701439,
				"z": -0.9472975772,
				"element": "H" 
			}
		],
		 "valence_orbital": [ 
			{
				"type": "occ",
				"energy": -0.28564,
				"method": "rhf"
			},
			{
				"type": "occ",
				"energy": -0.28384,
				"method": "rhf"
			},
			{
				"type": "occ",
				"energy": -0.26415,
				"method": "rhf"
			},
			{
				"type": "occ",
				"energy": -0.24352,
				"method": "rhf"
			},
			{
				"type": "occ",
				"energy": -0.21535,
				"method": "rhf"
			},
			{
				"type": "unocc",
				"energy": -0.0151,
				"method": "rhf"
			},
			{
				"type": "unocc",
				"energy": -0.01449,
				"method": "rhf"
			},
			{
				"type": "unocc",
				"energy": 0.06111,
				"method": "rhf"
			},
			{
				"type": "unocc",
				"energy": 0.06979,
				"method": "rhf"
			},
			{
				"type": "unocc",
				"energy": 0.08097,
				"method": "rhf"
			}
		],
		"cosmo_sigma_profile": { 
			"-0.025": 0.0,
			"-0.024": 0.0,
			"-0.023": 0.0,
			"-0.022": 0.0,
			"-0.021": 0.0,
			"-0.02": 0.0,
			"-0.019": 0.0,
			"-0.018": 0.0,
			"-0.017": 0.0,
			"-0.016": 0.0,
			"-0.015": 0.0,
			"-0.014": 0.142719868245,
			"-0.013": 2.20037803426,
			"-0.012": 3.1542965406,
			"-0.011": 3.27128058125,
			"-0.01": 3.11288763684,
			"-0.009": 2.79668623091,
			"-0.008": 3.54812470132,
			"-0.007": 4.22068437918,
			"-0.006": 7.03175973841,
			"-0.005": 10.2734270394,
			"-0.004": 17.8088572772,
			"-0.003": 33.7990108097,
			"-0.002": 38.9065069763,
			"-0.001": 28.7446944043,
			"0.0": 24.1372519658,
			"0.001": 15.6763415384,
			"0.002": 12.681175247,
			"0.003": 11.7687871585,
			"0.004": 15.6528214819,
			"0.005": 7.85806377677,
			"0.006": 4.65149513084,
			"0.007": 4.92691483721,
			"0.008": 5.71516689435,
			"0.009": 4.65230903703,
			"0.01": 4.69687270613,
			"0.011": 8.38257879273,
			"0.012": 8.28088939297,
			"0.013": 1.87048939242,
			"0.014": 0.0,
			"0.015": 0.0,
			"0.016": 0.0,
			"0.017": 0.0,
			"0.018": 0.0,
			"0.019": 0.0,
			"0.02": 0.0,
			"0.021": 0.0,
			"0.022": 0.0,
			"0.023": 0.0,
			"0.024": 0.0,
			"0.025": 0.0
		}
	}
}
