{
	 "smiles": "CC(NC(=O)CCl)C1=CC=CC=C1", 
	 "Tm": 349.15, 
	 "num_atms": 25, 
	 "gaussian": { 
		 "optdone": 1, 
		 "sigma_profile": "yes", 
		 "theory": "DFT", 
		 "functional": "B3LYP", 
		 "basiset": "6-31G**", 
		 "properties": { 
			 "R2extent": 3456.1758, 
			 "electric_dipole_moment_norm": 4.08662314754, 
			 "electric_quadrupole_moment_norm": 16.2079247444, 
			 "total_energy": -978.481621309, 
			 "HOMO_LUMO_gap": 0.22909, 
			 "cosmo_polarized_energy": -12.05, 
			 "cosmo_cavitation_energy": 30.24, 
			 "cosmo_dispersion_energy": -20.77, 
			 "cosmo_repulsion_energy": 1.68, 
			 "cosmo_total_nonelectrostatic_energy": 11.15, 
			 "SMD_solvation_energy": 5.54 
		},
		"coords": [
			{
				"x": 0.8072415312,
				"y": 2.5587262308,
				"z": 1.1401889999,
				"element": "C" 
			},
			{
				"x": 0.2544120871,
				"y": 1.1298289177,
				"z": 1.2659123139,
				"element": "C" 
			},
			{
				"x": -0.9931594163,
				"y": 1.1890566686,
				"z": 2.0313959484,
				"element": "N" 
			},
			{
				"x": -1.6556273577,
				"y": 0.177117717,
				"z": 2.6678083264,
				"element": "C" 
			},
			{
				"x": -2.7405363885,
				"y": 0.3460460658,
				"z": 3.2068037189,
				"element": "O" 
			},
			{
				"x": -0.9942474086,
				"y": -1.2017370847,
				"z": 2.6754201366,
				"element": "C" 
			},
			{
				"x": 0.4140822997,
				"y": -1.2740298511,
				"z": 3.8256141469,
				"element": "Cl" 
			},
			{
				"x": 0.1012055656,
				"y": 0.4760564764,
				"z": -0.1075655954,
				"element": "C" 
			},
			{
				"x": 1.1607751234,
				"y": -0.2722455461,
				"z": -0.6368149578,
				"element": "C" 
			},
			{
				"x": 1.0704595533,
				"y": -0.8362744354,
				"z": -1.9104063921,
				"element": "C" 
			},
			{
				"x": -0.0864165944,
				"y": -0.6612910349,
				"z": -2.6716236757,
				"element": "C" 
			},
			{
				"x": -1.1501413413,
				"y": 0.0780925078,
				"z": -2.1503108248,
				"element": "C" 
			},
			{
				"x": -1.0570101622,
				"y": 0.6420575114,
				"z": -0.8772143815,
				"element": "C" 
			},
			{
				"x": 0.9711464711,
				"y": 2.9978904492,
				"z": 2.1290532586,
				"element": "H" 
			},
			{
				"x": 1.7561387929,
				"y": 2.5506701169,
				"z": 0.5988338706,
				"element": "H" 
			},
			{
				"x": 0.111374513,
				"y": 3.1942203685,
				"z": 0.5807253144,
				"element": "H" 
			},
			{
				"x": 0.9767751287,
				"y": 0.5424892375,
				"z": 1.8424749496,
				"element": "H" 
			},
			{
				"x": -1.4877624782,
				"y": 2.0713062241,
				"z": 2.0691282164,
				"element": "H" 
			},
			{
				"x": -0.616809641,
				"y": -1.4940079403,
				"z": 1.6945307405,
				"element": "H" 
			},
			{
				"x": -1.7315865039,
				"y": -1.9158968095,
				"z": 3.0341309537,
				"element": "H" 
			},
			{
				"x": 2.0624711901,
				"y": -0.4166693112,
				"z": -0.0454866969,
				"element": "H" 
			},
			{
				"x": 1.8996342192,
				"y": -1.4177434802,
				"z": -2.3033305342,
				"element": "H" 
			},
			{
				"x": -0.1614414788,
				"y": -1.1032084767,
				"z": -3.6608840238,
				"element": "H" 
			},
			{
				"x": -2.0564001636,
				"y": 0.213377771,
				"z": -2.7338640428,
				"element": "H" 
			},
			{
				"x": -1.8942775408,
				"y": 1.2035677075,
				"z": -0.4726197698,
				"element": "H" 
			}
		],
		 "valence_orbital": [ 
			{
				"type": "occ",
				"energy": -0.30347,
				"method": "rhf"
			},
			{
				"type": "occ",
				"energy": -0.26538,
				"method": "rhf"
			},
			{
				"type": "occ",
				"energy": -0.26004,
				"method": "rhf"
			},
			{
				"type": "occ",
				"energy": -0.25387,
				"method": "rhf"
			},
			{
				"type": "occ",
				"energy": -0.24995,
				"method": "rhf"
			},
			{
				"type": "unocc",
				"energy": -0.02086,
				"method": "rhf"
			},
			{
				"type": "unocc",
				"energy": -0.01339,
				"method": "rhf"
			},
			{
				"type": "unocc",
				"energy": -0.01097,
				"method": "rhf"
			},
			{
				"type": "unocc",
				"energy": 0.05571,
				"method": "rhf"
			},
			{
				"type": "unocc",
				"energy": 0.079,
				"method": "rhf"
			}
		],
		"cosmo_sigma_profile": { 
			"-0.025": 0.0,
			"-0.024": 0.0,
			"-0.023": 0.0,
			"-0.022": 0.0,
			"-0.021": 0.0,
			"-0.02": 0.0,
			"-0.019": 0.0,
			"-0.018": 0.0,
			"-0.017": 0.0,
			"-0.016": 0.0,
			"-0.015": 0.0,
			"-0.014": 0.205229307541,
			"-0.013": 0.621518109707,
			"-0.012": 1.04510081099,
			"-0.011": 1.19820422738,
			"-0.01": 0.889154970251,
			"-0.009": 1.17295131152,
			"-0.008": 3.01505687965,
			"-0.007": 3.63396491948,
			"-0.006": 10.5241340527,
			"-0.005": 19.6114469004,
			"-0.004": 24.6875392369,
			"-0.003": 21.9518364667,
			"-0.002": 17.9262400414,
			"-0.001": 18.7928071055,
			"0.0": 15.941447,
			"0.001": 14.0864433084,
			"0.002": 15.3680714396,
			"0.003": 12.5556853566,
			"0.004": 14.6643320879,
			"0.005": 15.8868230607,
			"0.006": 9.89030978501,
			"0.007": 1.80619013111,
			"0.008": 1.48067882792,
			"0.009": 0.719696847046,
			"0.01": 0.890768074132,
			"0.011": 1.70270305393,
			"0.012": 3.03626985328,
			"0.013": 5.92022255296,
			"0.014": 2.24813235159,
			"0.015": 0.0336725549207,
			"0.016": 0.0,
			"0.017": 0.0,
			"0.018": 0.0,
			"0.019": 0.0,
			"0.02": 0.0,
			"0.021": 0.0,
			"0.022": 0.0,
			"0.023": 0.0,
			"0.024": 0.0,
			"0.025": 0.0
		}
	}
}
