{
	 "smiles": "NC1=NC(=CN=N1)C1=CC=C(Cl)S1", 
	 "Tm": 533.15, 
	 "num_atms": 18, 
	 "gaussian": { 
		 "optdone": 1, 
		 "sigma_profile": "yes", 
		 "theory": "DFT", 
		 "functional": "B3LYP", 
		 "basiset": "6-31G**", 
		 "properties": { 
			 "R2extent": 5319.7136, 
			 "electric_dipole_moment_norm": 3.62022658959, 
			 "electric_quadrupole_moment_norm": 13.1103926524, 
			 "total_energy": -1347.09552127, 
			 "HOMO_LUMO_gap": 0.14808, 
			 "cosmo_polarized_energy": -12.49, 
			 "cosmo_cavitation_energy": 26.8, 
			 "cosmo_dispersion_energy": -20.75, 
			 "cosmo_repulsion_energy": 1.6, 
			 "cosmo_total_nonelectrostatic_energy": 7.64, 
			 "SMD_solvation_energy": 1.19 
		},
		"coords": [
			{
				"x": 0.485758624,
				"y": -1.4470573189,
				"z": 3.0025015281,
				"element": "N" 
			},
			{
				"x": 0.6548140431,
				"y": -1.6073778387,
				"z": 1.6632704695,
				"element": "C" 
			},
			{
				"x": -0.3572297737,
				"y": -1.2373781668,
				"z": 0.8595082661,
				"element": "N" 
			},
			{
				"x": -0.125067711,
				"y": -1.3725724995,
				"z": -0.449866114,
				"element": "C" 
			},
			{
				"x": 1.1160185159,
				"y": -1.8769901026,
				"z": -0.8889529508,
				"element": "C" 
			},
			{
				"x": 2.0638415718,
				"y": -2.2396454927,
				"z": -0.0273819644,
				"element": "N" 
			},
			{
				"x": 1.8507096581,
				"y": -2.1144347792,
				"z": 1.2734898968,
				"element": "N" 
			},
			{
				"x": -1.1986106042,
				"y": -0.9824589129,
				"z": -1.3597881907,
				"element": "C" 
			},
			{
				"x": -2.4249639524,
				"y": -0.4638775338,
				"z": -1.0085166538,
				"element": "C" 
			},
			{
				"x": -3.2653583051,
				"y": -0.1774604869,
				"z": -2.1158567255,
				"element": "C" 
			},
			{
				"x": -2.6614119748,
				"y": -0.4852901484,
				"z": -3.3070402038,
				"element": "C" 
			},
			{
				"x": -3.3312448831,
				"y": -0.2928728877,
				"z": -4.8878587661,
				"element": "Cl" 
			},
			{
				"x": -1.0591916659,
				"y": -1.1292675826,
				"z": -3.1023573062,
				"element": "S" 
			},
			{
				"x": 1.1637982328,
				"y": -1.8779458239,
				"z": 3.6103864029,
				"element": "H" 
			},
			{
				"x": -0.442603936,
				"y": -1.2655274944,
				"z": 3.3468709546,
				"element": "H" 
			},
			{
				"x": 1.3573631796,
				"y": -2.0026774813,
				"z": -1.9400981031,
				"element": "H" 
			},
			{
				"x": -2.6945272921,
				"y": -0.2993417116,
				"z": 0.027084872,
				"element": "H" 
			},
			{
				"x": -4.263993727,
				"y": 0.2346762618,
				"z": -2.0445954114,
				"element": "H" 
			}
		],
		 "valence_orbital": [ 
			{
				"type": "occ",
				"energy": -0.31905,
				"method": "rhf"
			},
			{
				"type": "occ",
				"energy": -0.27745,
				"method": "rhf"
			},
			{
				"type": "occ",
				"energy": -0.25082,
				"method": "rhf"
			},
			{
				"type": "occ",
				"energy": -0.23301,
				"method": "rhf"
			},
			{
				"type": "occ",
				"energy": -0.22957,
				"method": "rhf"
			},
			{
				"type": "unocc",
				"energy": -0.08149,
				"method": "rhf"
			},
			{
				"type": "unocc",
				"energy": -0.03486,
				"method": "rhf"
			},
			{
				"type": "unocc",
				"energy": -0.00192,
				"method": "rhf"
			},
			{
				"type": "unocc",
				"energy": 0.00654,
				"method": "rhf"
			},
			{
				"type": "unocc",
				"energy": 0.01577,
				"method": "rhf"
			}
		],
		"cosmo_sigma_profile": { 
			"-0.025": 0.0,
			"-0.024": 0.0,
			"-0.023": 0.0,
			"-0.022": 0.0,
			"-0.021": 0.0,
			"-0.02": 0.0,
			"-0.019": 0.0,
			"-0.018": 0.0,
			"-0.017": 0.0,
			"-0.016": 0.0,
			"-0.015": 0.107113468802,
			"-0.014": 1.89148337299,
			"-0.013": 2.10996728406,
			"-0.012": 2.24681381105,
			"-0.011": 2.03802519555,
			"-0.01": 2.06610324706,
			"-0.009": 2.23754759922,
			"-0.008": 6.1001086373,
			"-0.007": 7.00018202824,
			"-0.006": 6.50198750191,
			"-0.005": 5.87464880242,
			"-0.004": 9.5880809921,
			"-0.003": 11.8732099508,
			"-0.002": 16.7295357901,
			"-0.001": 18.3968691774,
			"0.0": 23.2950918867,
			"0.001": 24.8036575853,
			"0.002": 24.7154392004,
			"0.003": 16.4669135934,
			"0.004": 5.98937408038,
			"0.005": 3.85534349858,
			"0.006": 3.39715807417,
			"0.007": 4.21899704874,
			"0.008": 4.2363598826,
			"0.009": 1.59358711493,
			"0.01": 1.71767339986,
			"0.011": 2.3387468435,
			"0.012": 1.95053507263,
			"0.013": 3.18280874748,
			"0.014": 2.52421182507,
			"0.015": 1.5015895888,
			"0.016": 0.177314120389,
			"0.017": 0.0,
			"0.018": 0.0,
			"0.019": 0.0,
			"0.02": 0.0,
			"0.021": 0.0,
			"0.022": 0.0,
			"0.023": 0.0,
			"0.024": 0.0,
			"0.025": 0.0
		}
	}
}
