{
	 "smiles": "CC1=NN=C(S)N1C1=CC=CC=C1", 
	 "Tm": 498.15, 
	 "num_atms": 22, 
	 "gaussian": { 
		 "optdone": 1, 
		 "sigma_profile": "yes", 
		 "theory": "DFT", 
		 "functional": "B3LYP", 
		 "basiset": "6-31G**", 
		 "properties": { 
			 "R2extent": 3186.7995, 
			 "electric_dipole_moment_norm": 7.03303263251, 
			 "electric_quadrupole_moment_norm": 22.0954559824, 
			 "total_energy": -910.797441639, 
			 "HOMO_LUMO_gap": 0.19827, 
			 "cosmo_polarized_energy": -17.31, 
			 "cosmo_cavitation_energy": 28.24, 
			 "cosmo_dispersion_energy": -20.09, 
			 "cosmo_repulsion_energy": 1.56, 
			 "cosmo_total_nonelectrostatic_energy": 9.72, 
			 "SMD_solvation_energy": 2.65 
		},
		"coords": [
			{
				"x": -1.1744499297,
				"y": -2.7145293656,
				"z": -2.0369570238,
				"element": "C" 
			},
			{
				"x": -1.2746258938,
				"y": -2.7561379856,
				"z": -0.5499488089,
				"element": "C" 
			},
			{
				"x": -1.7801733844,
				"y": -3.7416323988,
				"z": 0.1540772798,
				"element": "N" 
			},
			{
				"x": -1.6798289202,
				"y": -3.4104482803,
				"z": 1.4907820225,
				"element": "N" 
			},
			{
				"x": -1.1302821685,
				"y": -2.2237619911,
				"z": 1.5600239795,
				"element": "C" 
			},
			{
				"x": -0.9046334471,
				"y": -1.3290844851,
				"z": 3.0666442973,
				"element": "S" 
			},
			{
				"x": -0.8508187301,
				"y": -1.7432585609,
				"z": 0.2906932293,
				"element": "N" 
			},
			{
				"x": -0.2545706729,
				"y": -0.4953616315,
				"z": -0.0762481715,
				"element": "C" 
			},
			{
				"x": 1.0828909366,
				"y": -0.4599916984,
				"z": -0.4826425426,
				"element": "C" 
			},
			{
				"x": 1.658424649,
				"y": 0.7563369201,
				"z": -0.8524234825,
				"element": "C" 
			},
			{
				"x": 0.904027673,
				"y": 1.9304644908,
				"z": -0.8082056594,
				"element": "C" 
			},
			{
				"x": -0.4298874211,
				"y": 1.8894065984,
				"z": -0.3954709039,
				"element": "C" 
			},
			{
				"x": -1.0151616602,
				"y": 0.6769617028,
				"z": -0.0311490098,
				"element": "C" 
			},
			{
				"x": -1.6969009251,
				"y": -1.8463375786,
				"z": -2.4526448669,
				"element": "H" 
			},
			{
				"x": -1.63054604,
				"y": -3.6236832622,
				"z": -2.4312155011,
				"element": "H" 
			},
			{
				"x": -0.1343318944,
				"y": -2.6679375362,
				"z": -2.3766182842,
				"element": "H" 
			},
			{
				"x": 0.349003452,
				"y": -0.9014633111,
				"z": 2.8070772035,
				"element": "H" 
			},
			{
				"x": 1.6603115817,
				"y": -1.3791651273,
				"z": -0.5021208093,
				"element": "H" 
			},
			{
				"x": 2.6961575955,
				"y": 0.7855238588,
				"z": -1.1703628596,
				"element": "H" 
			},
			{
				"x": 1.3548065601,
				"y": 2.8761302622,
				"z": -1.0937031765,
				"element": "H" 
			},
			{
				"x": -1.0178491719,
				"y": 2.80139051,
				"z": -0.3594256446,
				"element": "H" 
			},
			{
				"x": -2.0503621885,
				"y": 0.6291788695,
				"z": 0.2899387326,
				"element": "H" 
			}
		],
		 "valence_orbital": [ 
			{
				"type": "occ",
				"energy": -0.29048,
				"method": "rhf"
			},
			{
				"type": "occ",
				"energy": -0.27917,
				"method": "rhf"
			},
			{
				"type": "occ",
				"energy": -0.27593,
				"method": "rhf"
			},
			{
				"type": "occ",
				"energy": -0.24649,
				"method": "rhf"
			},
			{
				"type": "occ",
				"energy": -0.23384,
				"method": "rhf"
			},
			{
				"type": "unocc",
				"energy": -0.03557,
				"method": "rhf"
			},
			{
				"type": "unocc",
				"energy": -0.03022,
				"method": "rhf"
			},
			{
				"type": "unocc",
				"energy": 0.00291,
				"method": "rhf"
			},
			{
				"type": "unocc",
				"energy": 0.03198,
				"method": "rhf"
			},
			{
				"type": "unocc",
				"energy": 0.04971,
				"method": "rhf"
			}
		],
		"cosmo_sigma_profile": { 
			"-0.025": 0.0,
			"-0.024": 0.0,
			"-0.023": 0.0,
			"-0.022": 0.0,
			"-0.021": 0.0,
			"-0.02": 0.0,
			"-0.019": 0.0,
			"-0.018": 0.0,
			"-0.017": 0.0,
			"-0.016": 0.0,
			"-0.015": 0.0,
			"-0.014": 0.0,
			"-0.013": 0.0,
			"-0.012": 0.276146737164,
			"-0.011": 1.57241683019,
			"-0.01": 1.618512052,
			"-0.009": 2.3388502196,
			"-0.008": 1.74388259025,
			"-0.007": 7.59203207006,
			"-0.006": 19.5090423849,
			"-0.005": 20.6382769629,
			"-0.004": 19.5914710319,
			"-0.003": 16.5519549838,
			"-0.002": 17.2550153352,
			"-0.001": 16.3441958002,
			"0.0": 12.4465960936,
			"0.001": 11.2241802465,
			"0.002": 14.2797362322,
			"0.003": 14.9769513956,
			"0.004": 12.3317924377,
			"0.005": 4.38226729497,
			"0.006": 4.84964709858,
			"0.007": 3.65165717474,
			"0.008": 3.12799161102,
			"0.009": 2.42575859973,
			"0.01": 2.07481634067,
			"0.011": 2.28922568316,
			"0.012": 2.67833394968,
			"0.013": 3.24836273817,
			"0.014": 3.64560543173,
			"0.015": 2.78050250666,
			"0.016": 2.15646133095,
			"0.017": 1.05632806119,
			"0.018": 0.0,
			"0.019": 0.0,
			"0.02": 0.0,
			"0.021": 0.0,
			"0.022": 0.0,
			"0.023": 0.0,
			"0.024": 0.0,
			"0.025": 0.0
		}
	}
}
