{
	 "smiles": "NC1=CC=C(CN2CCOCC2)C=C1", 
	 "Tm": 372.65, 
	 "num_atms": 30, 
	 "gaussian": { 
		 "optdone": 1, 
		 "sigma_profile": "yes", 
		 "theory": "DFT", 
		 "functional": "B3LYP", 
		 "basiset": "6-31G**", 
		 "properties": { 
			 "R2extent": 4159.6076, 
			 "electric_dipole_moment_norm": 2.0175753691, 
			 "electric_quadrupole_moment_norm": 15.784458736, 
			 "total_energy": -613.521778811, 
			 "HOMO_LUMO_gap": 0.20015, 
			 "cosmo_polarized_energy": -11.73, 
			 "cosmo_cavitation_energy": 31.17, 
			 "cosmo_dispersion_energy": -22.81, 
			 "cosmo_repulsion_energy": 1.8, 
			 "cosmo_total_nonelectrostatic_energy": 10.16, 
			 "SMD_solvation_energy": 2.31 
		},
		"coords": [
			{
				"x": 4.9606108871,
				"y": 0.3668703523,
				"z": 2.0329240959,
				"element": "N" 
			},
			{
				"x": 3.923650123,
				"y": -0.0335883229,
				"z": 1.1866345743,
				"element": "C" 
			},
			{
				"x": 4.0296730021,
				"y": 0.1203105643,
				"z": -0.2060687285,
				"element": "C" 
			},
			{
				"x": 3.01778485,
				"y": -0.334833788,
				"z": -1.0468868823,
				"element": "C" 
			},
			{
				"x": 1.8643292914,
				"y": -0.9545197223,
				"z": -0.545548765,
				"element": "C" 
			},
			{
				"x": 0.7489716808,
				"y": -1.4195734645,
				"z": -1.4699906688,
				"element": "C" 
			},
			{
				"x": -0.3217955674,
				"y": -0.4581543636,
				"z": -1.7769249805,
				"element": "N" 
			},
			{
				"x": -1.128908147,
				"y": -0.064231877,
				"z": -0.6234157577,
				"element": "C" 
			},
			{
				"x": -2.3147311536,
				"y": 0.7752880913,
				"z": -1.097823907,
				"element": "C" 
			},
			{
				"x": -1.8803219333,
				"y": 1.9201157902,
				"z": -1.8197509532,
				"element": "O" 
			},
			{
				"x": -1.1011350573,
				"y": 1.5372476585,
				"z": -2.945311504,
				"element": "C" 
			},
			{
				"x": 0.118918897,
				"y": 0.7192952335,
				"z": -2.5229599989,
				"element": "C" 
			},
			{
				"x": 1.7743924988,
				"y": -1.1123827797,
				"z": 0.844722153,
				"element": "C" 
			},
			{
				"x": 2.7768959118,
				"y": -0.663044264,
				"z": 1.6997703971,
				"element": "C" 
			},
			{
				"x": 5.5545293152,
				"y": 1.0974544946,
				"z": 1.6651074261,
				"element": "H" 
			},
			{
				"x": 4.6851987575,
				"y": 0.5542446465,
				"z": 2.9872921842,
				"element": "H" 
			},
			{
				"x": 4.9161646137,
				"y": 0.5892580757,
				"z": -0.6268777777,
				"element": "H" 
			},
			{
				"x": 3.1335641994,
				"y": -0.2118463537,
				"z": -2.1214105091,
				"element": "H" 
			},
			{
				"x": 1.1804148683,
				"y": -1.7303241908,
				"z": -2.4298350439,
				"element": "H" 
			},
			{
				"x": 0.2656139301,
				"y": -2.3045715253,
				"z": -1.0373720923,
				"element": "H" 
			},
			{
				"x": -0.5524737439,
				"y": 0.5176283358,
				"z": 0.1185705896,
				"element": "H" 
			},
			{
				"x": -1.4990259809,
				"y": -0.9679923758,
				"z": -0.1224785587,
				"element": "H" 
			},
			{
				"x": -2.8929590489,
				"y": 1.1447322426,
				"z": -0.2453443306,
				"element": "H" 
			},
			{
				"x": -2.9716208642,
				"y": 0.1552326831,
				"z": -1.7299196858,
				"element": "H" 
			},
			{
				"x": -0.7935342816,
				"y": 2.462879313,
				"z": -3.4414401122,
				"element": "H" 
			},
			{
				"x": -1.7127567598,
				"y": 0.9455388588,
				"z": -3.6462569454,
				"element": "H" 
			},
			{
				"x": 0.7964892363,
				"y": 1.3646811751,
				"z": -1.9349405517,
				"element": "H" 
			},
			{
				"x": 0.6649576537,
				"y": 0.3907384284,
				"z": -3.4166057545,
				"element": "H" 
			},
			{
				"x": 0.9039351132,
				"y": -1.6062387003,
				"z": 1.2707908478,
				"element": "H" 
			},
			{
				"x": 2.6810677086,
				"y": -0.8083142158,
				"z": 2.7733512399,
				"element": "H" 
			}
		],
		 "valence_orbital": [ 
			{
				"type": "occ",
				"energy": -0.2942,
				"method": "rhf"
			},
			{
				"type": "occ",
				"energy": -0.24675,
				"method": "rhf"
			},
			{
				"type": "occ",
				"energy": -0.24455,
				"method": "rhf"
			},
			{
				"type": "occ",
				"energy": -0.20767,
				"method": "rhf"
			},
			{
				"type": "occ",
				"energy": -0.19719,
				"method": "rhf"
			},
			{
				"type": "unocc",
				"energy": 0.00296,
				"method": "rhf"
			},
			{
				"type": "unocc",
				"energy": 0.01558,
				"method": "rhf"
			},
			{
				"type": "unocc",
				"energy": 0.08084,
				"method": "rhf"
			},
			{
				"type": "unocc",
				"energy": 0.08965,
				"method": "rhf"
			},
			{
				"type": "unocc",
				"energy": 0.11109,
				"method": "rhf"
			}
		],
		"cosmo_sigma_profile": { 
			"-0.025": 0.0,
			"-0.024": 0.0,
			"-0.023": 0.0,
			"-0.022": 0.0,
			"-0.021": 0.0,
			"-0.02": 0.0,
			"-0.019": 0.0,
			"-0.018": 0.0,
			"-0.017": 0.0,
			"-0.016": 0.0,
			"-0.015": 0.0,
			"-0.014": 0.0,
			"-0.013": 0.0618392792008,
			"-0.012": 2.06663794036,
			"-0.011": 2.5666420838,
			"-0.01": 2.55388252672,
			"-0.009": 3.32920688588,
			"-0.008": 3.46667077278,
			"-0.007": 2.58130518234,
			"-0.006": 3.71037398524,
			"-0.005": 10.3247365142,
			"-0.004": 27.1851711593,
			"-0.003": 28.5991901028,
			"-0.002": 28.0248641499,
			"-0.001": 20.5821372077,
			"0.0": 16.8220535039,
			"0.001": 11.6850256626,
			"0.002": 10.6391351026,
			"0.003": 9.94723882678,
			"0.004": 8.73739176339,
			"0.005": 9.77994440731,
			"0.006": 10.7341547025,
			"0.007": 9.49480790018,
			"0.008": 3.46544674343,
			"0.009": 3.19769780003,
			"0.01": 2.82940658985,
			"0.011": 2.31732841572,
			"0.012": 2.4108134455,
			"0.013": 3.11261027182,
			"0.014": 1.99491322705,
			"0.015": 0.638822209488,
			"0.016": 0.13744432748,
			"0.017": 0.0,
			"0.018": 0.0,
			"0.019": 0.0,
			"0.02": 0.0,
			"0.021": 0.0,
			"0.022": 0.0,
			"0.023": 0.0,
			"0.024": 0.0,
			"0.025": 0.0
		}
	}
}
