{
	 "smiles": "CC(C)C1=CC(=NN1C)C(O)=O", 
	 "Tm": 361.15, 
	 "num_atms": 24, 
	 "gaussian": { 
		 "optdone": 1, 
		 "sigma_profile": "yes", 
		 "theory": "DFT", 
		 "functional": "B3LYP", 
		 "basiset": "6-31G**", 
		 "properties": { 
			 "R2extent": 3970.3176, 
			 "electric_dipole_moment_norm": 4.73393164822, 
			 "electric_quadrupole_moment_norm": 21.4306563882, 
			 "total_energy": -572.040829052, 
			 "HOMO_LUMO_gap": 0.22286, 
			 "cosmo_polarized_energy": -15.54, 
			 "cosmo_cavitation_energy": 27.79, 
			 "cosmo_dispersion_energy": -19.67, 
			 "cosmo_repulsion_energy": 1.59, 
			 "cosmo_total_nonelectrostatic_energy": 9.71, 
			 "SMD_solvation_energy": 5.29 
		},
		"coords": [
			{
				"x": -1.5403026106,
				"y": -0.6399372216,
				"z": 1.1540821682,
				"element": "C" 
			},
			{
				"x": -0.3706532773,
				"y": 0.0095037819,
				"z": 0.3831657909,
				"element": "C" 
			},
			{
				"x": 0.1782701265,
				"y": 1.2254226316,
				"z": 1.1460658465,
				"element": "C" 
			},
			{
				"x": 0.7175613493,
				"y": -0.992629787,
				"z": 0.0915955919,
				"element": "C" 
			},
			{
				"x": 1.87238279,
				"y": -1.3174110595,
				"z": 0.7796655929,
				"element": "C" 
			},
			{
				"x": 2.4642939736,
				"y": -2.3639538183,
				"z": 0.0344218591,
				"element": "C" 
			},
			{
				"x": 1.7354025685,
				"y": -2.6724608449,
				"z": -1.0444272998,
				"element": "N" 
			},
			{
				"x": 0.6851633612,
				"y": -1.8384385623,
				"z": -0.9919388138,
				"element": "N" 
			},
			{
				"x": -0.3028615425,
				"y": -1.894759866,
				"z": -2.0569339548,
				"element": "C" 
			},
			{
				"x": 3.7175143921,
				"y": -3.0918796691,
				"z": 0.3081809522,
				"element": "C" 
			},
			{
				"x": 4.3140243205,
				"y": -2.6303581376,
				"z": 1.443025218,
				"element": "O" 
			},
			{
				"x": 4.1925478899,
				"y": -3.9867748836,
				"z": -0.35700721,
				"element": "O" 
			},
			{
				"x": -1.9592054175,
				"y": -1.4957111333,
				"z": 0.6154904035,
				"element": "H" 
			},
			{
				"x": -1.2013618693,
				"y": -0.9973809539,
				"z": 2.1318133758,
				"element": "H" 
			},
			{
				"x": -2.3451785032,
				"y": 0.0851557477,
				"z": 1.3146472116,
				"element": "H" 
			},
			{
				"x": -0.7629733086,
				"y": 0.3701235054,
				"z": -0.5778955459,
				"element": "H" 
			},
			{
				"x": -0.6130445724,
				"y": 1.965094623,
				"z": 1.3028305405,
				"element": "H" 
			},
			{
				"x": 0.9946534646,
				"y": 1.7054643765,
				"z": 0.5989985797,
				"element": "H" 
			},
			{
				"x": 0.5570517076,
				"y": 0.9332478213,
				"z": 2.1312250879,
				"element": "H" 
			},
			{
				"x": 2.2487795652,
				"y": -0.8709777583,
				"z": 1.6863097087,
				"element": "H" 
			},
			{
				"x": -1.2956699166,
				"y": -2.1267687168,
				"z": -1.6609908522,
				"element": "H" 
			},
			{
				"x": 0.0107504407,
				"y": -2.6857507743,
				"z": -2.7364167672,
				"element": "H" 
			},
			{
				"x": -0.3472794878,
				"y": -0.9457869154,
				"z": -2.6002149944,
				"element": "H" 
			},
			{
				"x": 5.1214345561,
				"y": -3.1607323853,
				"z": 1.5426075108,
				"element": "H" 
			}
		],
		 "valence_orbital": [ 
			{
				"type": "occ",
				"energy": -0.30613,
				"method": "rhf"
			},
			{
				"type": "occ",
				"energy": -0.29106,
				"method": "rhf"
			},
			{
				"type": "occ",
				"energy": -0.26282,
				"method": "rhf"
			},
			{
				"type": "occ",
				"energy": -0.25367,
				"method": "rhf"
			},
			{
				"type": "occ",
				"energy": -0.24309,
				"method": "rhf"
			},
			{
				"type": "unocc",
				"energy": -0.02023,
				"method": "rhf"
			},
			{
				"type": "unocc",
				"energy": 0.0264,
				"method": "rhf"
			},
			{
				"type": "unocc",
				"energy": 0.06829,
				"method": "rhf"
			},
			{
				"type": "unocc",
				"energy": 0.09001,
				"method": "rhf"
			},
			{
				"type": "unocc",
				"energy": 0.10135,
				"method": "rhf"
			}
		],
		"cosmo_sigma_profile": { 
			"-0.025": 0.0,
			"-0.024": 0.0,
			"-0.023": 0.0,
			"-0.022": 0.0,
			"-0.021": 0.0,
			"-0.02": 0.0,
			"-0.019": 0.0,
			"-0.018": 0.422461549092,
			"-0.017": 1.33144197568,
			"-0.016": 0.40191373733,
			"-0.015": 0.644668123323,
			"-0.014": 1.0936376661,
			"-0.013": 0.863587508861,
			"-0.012": 0.353675307615,
			"-0.011": 0.232079825721,
			"-0.01": 1.29086388559,
			"-0.009": 0.365224579425,
			"-0.008": 0.61763199158,
			"-0.007": 4.3912033228,
			"-0.006": 11.3383144214,
			"-0.005": 12.9413366865,
			"-0.004": 16.2855907276,
			"-0.003": 24.3389669662,
			"-0.002": 21.3879873017,
			"-0.001": 18.2704165416,
			"0.0": 20.2479965815,
			"0.001": 17.7404772591,
			"0.002": 9.01009040861,
			"0.003": 9.51483405655,
			"0.004": 6.91079100087,
			"0.005": 4.47762492609,
			"0.006": 3.45958785394,
			"0.007": 4.21084728204,
			"0.008": 3.56384095821,
			"0.009": 2.69740171119,
			"0.01": 3.00848146822,
			"0.011": 3.31024543207,
			"0.012": 6.93460967137,
			"0.013": 2.48107935267,
			"0.014": 1.92802679373,
			"0.015": 1.97188540434,
			"0.016": 0.381080396536,
			"0.017": 0.0,
			"0.018": 0.0,
			"0.019": 0.0,
			"0.02": 0.0,
			"0.021": 0.0,
			"0.022": 0.0,
			"0.023": 0.0,
			"0.024": 0.0,
			"0.025": 0.0
		}
	}
}
