{
	 "smiles": "O=C1OC(=O)C2CCC12", 
	 "Tm": 347.65, 
	 "num_atms": 15, 
	 "gaussian": { 
		 "optdone": 1, 
		 "sigma_profile": "yes", 
		 "theory": "DFT", 
		 "functional": "B3LYP", 
		 "basiset": "6-31G**", 
		 "properties": { 
			 "R2extent": 1576.5121, 
			 "electric_dipole_moment_norm": 4.77979405728, 
			 "electric_quadrupole_moment_norm": 11.3625655356, 
			 "total_energy": -457.910411062, 
			 "HOMO_LUMO_gap": 0.24886, 
			 "cosmo_polarized_energy": -12.21, 
			 "cosmo_cavitation_energy": 18.85, 
			 "cosmo_dispersion_energy": -14.28, 
			 "cosmo_repulsion_energy": 1.2, 
			 "cosmo_total_nonelectrostatic_energy": 5.77, 
			 "SMD_solvation_energy": 4.82 
		},
		"coords": [
			{
				"x": 1.6005894814,
				"y": 1.1638225263,
				"z": -3.5203213216,
				"element": "O" 
			},
			{
				"x": 0.9618568713,
				"y": 1.0768724968,
				"z": -2.5113130398,
				"element": "C" 
			},
			{
				"x": 1.476012462,
				"y": 1.4999486247,
				"z": -1.2866735162,
				"element": "O" 
			},
			{
				"x": 0.558464009,
				"y": 1.3327323382,
				"z": -0.2504006709,
				"element": "C" 
			},
			{
				"x": 0.8167706106,
				"y": 1.662077957,
				"z": 0.8713646603,
				"element": "O" 
			},
			{
				"x": -0.6969403089,
				"y": 0.6821889638,
				"z": -0.7938690448,
				"element": "C" 
			},
			{
				"x": -0.7421185599,
				"y": -0.8733718804,
				"z": -0.6207683727,
				"element": "C" 
			},
			{
				"x": -0.4749436439,
				"y": -1.0435664665,
				"z": -2.1442022804,
				"element": "C" 
			},
			{
				"x": -0.4288326565,
				"y": 0.5133177011,
				"z": -2.3027581755,
				"element": "C" 
			},
			{
				"x": -1.5816236912,
				"y": 1.226497824,
				"z": -0.4596546097,
				"element": "H" 
			},
			{
				"x": -1.7176481741,
				"y": -1.2367838557,
				"z": -0.2922308167,
				"element": "H" 
			},
			{
				"x": 0.0190695119,
				"y": -1.2823932468,
				"z": 0.0477733946,
				"element": "H" 
			},
			{
				"x": 0.449062025,
				"y": -1.5600376396,
				"z": -2.4145856821,
				"element": "H" 
			},
			{
				"x": -1.2978980673,
				"y": -1.5024798701,
				"z": -2.6954192783,
				"element": "H" 
			},
			{
				"x": -1.1239198694,
				"y": 0.9415745273,
				"z": -3.0267412462,
				"element": "H" 
			}
		],
		 "valence_orbital": [ 
			{
				"type": "occ",
				"energy": -0.36265,
				"method": "rhf"
			},
			{
				"type": "occ",
				"energy": -0.34202,
				"method": "rhf"
			},
			{
				"type": "occ",
				"energy": -0.3303,
				"method": "rhf"
			},
			{
				"type": "occ",
				"energy": -0.30095,
				"method": "rhf"
			},
			{
				"type": "occ",
				"energy": -0.27953,
				"method": "rhf"
			},
			{
				"type": "unocc",
				"energy": -0.03067,
				"method": "rhf"
			},
			{
				"type": "unocc",
				"energy": -0.01251,
				"method": "rhf"
			},
			{
				"type": "unocc",
				"energy": 0.06276,
				"method": "rhf"
			},
			{
				"type": "unocc",
				"energy": 0.07962,
				"method": "rhf"
			},
			{
				"type": "unocc",
				"energy": 0.09686,
				"method": "rhf"
			}
		],
		"cosmo_sigma_profile": { 
			"-0.025": 0.0,
			"-0.024": 0.0,
			"-0.023": 0.0,
			"-0.022": 0.0,
			"-0.021": 0.0,
			"-0.02": 0.0,
			"-0.019": 0.0,
			"-0.018": 0.0,
			"-0.017": 0.0,
			"-0.016": 0.0,
			"-0.015": 0.0,
			"-0.014": 0.0,
			"-0.013": 0.0,
			"-0.012": 2.87961521301e-05,
			"-0.011": 0.251396506251,
			"-0.01": 1.13284701548,
			"-0.009": 1.29330881616,
			"-0.008": 6.44171916828,
			"-0.007": 9.10743660436,
			"-0.006": 11.6608932297,
			"-0.005": 17.9428709504,
			"-0.004": 11.5912659577,
			"-0.003": 9.58171315797,
			"-0.002": 10.4986674114,
			"-0.001": 10.1597774163,
			"0.0": 3.74800613911,
			"0.001": 2.87082455722,
			"0.002": 3.11663524669,
			"0.003": 2.86656027767,
			"0.004": 3.18734528039,
			"0.005": 4.144983235,
			"0.006": 3.88761825612,
			"0.007": 6.45478511152,
			"0.008": 6.37973344308,
			"0.009": 5.82497134086,
			"0.01": 11.5280744145,
			"0.011": 5.93027709017,
			"0.012": 0.156945083498,
			"0.013": 0.0,
			"0.014": 0.0,
			"0.015": 0.0,
			"0.016": 0.0,
			"0.017": 0.0,
			"0.018": 0.0,
			"0.019": 0.0,
			"0.02": 0.0,
			"0.021": 0.0,
			"0.022": 0.0,
			"0.023": 0.0,
			"0.024": 0.0,
			"0.025": 0.0
		}
	}
}
