{
	 "smiles": "COCCOC1=CC=C(C=C1)C(N)=S", 
	 "Tm": 415.15, 
	 "num_atms": 27, 
	 "gaussian": { 
		 "optdone": 1, 
		 "sigma_profile": "yes", 
		 "theory": "DFT", 
		 "functional": "B3LYP", 
		 "basiset": "6-31G**", 
		 "properties": { 
			 "R2extent": 7111.1064, 
			 "electric_dipole_moment_norm": 5.14014913597, 
			 "electric_quadrupole_moment_norm": 30.4993498026, 
			 "total_energy": -992.267710531, 
			 "HOMO_LUMO_gap": 0.14843, 
			 "cosmo_polarized_energy": -18.66, 
			 "cosmo_cavitation_energy": 32.63, 
			 "cosmo_dispersion_energy": -24.38, 
			 "cosmo_repulsion_energy": 1.9, 
			 "cosmo_total_nonelectrostatic_energy": 10.16, 
			 "SMD_solvation_energy": 5.4 
		},
		"coords": [
			{
				"x": -3.463027797,
				"y": 1.976575558,
				"z": 0.7650110438,
				"element": "C" 
			},
			{
				"x": -3.4490145818,
				"y": 0.6501265888,
				"z": 1.2603868023,
				"element": "O" 
			},
			{
				"x": -2.8681300356,
				"y": -0.294580903,
				"z": 0.3832478091,
				"element": "C" 
			},
			{
				"x": -1.3470124971,
				"y": -0.3414200302,
				"z": 0.537213367,
				"element": "C" 
			},
			{
				"x": -0.8778478539,
				"y": -1.336143028,
				"z": -0.3707464226,
				"element": "O" 
			},
			{
				"x": 0.4539387143,
				"y": -1.6035118227,
				"z": -0.4285036066,
				"element": "C" 
			},
			{
				"x": 1.4307778231,
				"y": -0.9584828294,
				"z": 0.3435019234,
				"element": "C" 
			},
			{
				"x": 2.7685655407,
				"y": -1.3160270199,
				"z": 0.2035540509,
				"element": "C" 
			},
			{
				"x": 3.1722584054,
				"y": -2.3021056653,
				"z": -0.7075440882,
				"element": "C" 
			},
			{
				"x": 2.1748041095,
				"y": -2.9452101258,
				"z": -1.4691776883,
				"element": "C" 
			},
			{
				"x": 0.8371123419,
				"y": -2.6071295154,
				"z": -1.3319714851,
				"element": "C" 
			},
			{
				"x": 4.6074237947,
				"y": -2.6523532301,
				"z": -0.8487316745,
				"element": "C" 
			},
			{
				"x": 4.9610954886,
				"y": -3.1732526709,
				"z": -2.0494042555,
				"element": "N" 
			},
			{
				"x": 5.7365680522,
				"y": -2.4659339962,
				"z": 0.3703592832,
				"element": "S" 
			},
			{
				"x": -4.0043706012,
				"y": 2.0443347695,
				"z": -0.190901918,
				"element": "H" 
			},
			{
				"x": -2.4538623853,
				"y": 2.389551643,
				"z": 0.6200902284,
				"element": "H" 
			},
			{
				"x": -3.9815905106,
				"y": 2.5869705814,
				"z": 1.507960266,
				"element": "H" 
			},
			{
				"x": -3.2831201848,
				"y": -1.2732447234,
				"z": 0.6438662955,
				"element": "H" 
			},
			{
				"x": -3.1266906676,
				"y": -0.087536175,
				"z": -0.666230537,
				"element": "H" 
			},
			{
				"x": -0.8952904959,
				"y": 0.6314382527,
				"z": 0.3016167385,
				"element": "H" 
			},
			{
				"x": -1.0862427407,
				"y": -0.6010462168,
				"z": 1.5710185549,
				"element": "H" 
			},
			{
				"x": 1.1598121589,
				"y": -0.1848498318,
				"z": 1.0518083116,
				"element": "H" 
			},
			{
				"x": 3.5275100382,
				"y": -0.8269093895,
				"z": 0.8044408402,
				"element": "H" 
			},
			{
				"x": 2.4401258956,
				"y": -3.7539635352,
				"z": -2.1437596289,
				"element": "H" 
			},
			{
				"x": 0.0660525397,
				"y": -3.1137530337,
				"z": -1.9027431876,
				"element": "H" 
			},
			{
				"x": 5.9355001237,
				"y": -3.3922234453,
				"z": -2.196300558,
				"element": "H" 
			},
			{
				"x": 4.367455325,
				"y": -3.068320206,
				"z": -2.8587604648,
				"element": "H" 
			}
		],
		 "valence_orbital": [ 
			{
				"type": "occ",
				"energy": -0.26709,
				"method": "rhf"
			},
			{
				"type": "occ",
				"energy": -0.26481,
				"method": "rhf"
			},
			{
				"type": "occ",
				"energy": -0.2419,
				"method": "rhf"
			},
			{
				"type": "occ",
				"energy": -0.21967,
				"method": "rhf"
			},
			{
				"type": "occ",
				"energy": -0.20151,
				"method": "rhf"
			},
			{
				"type": "unocc",
				"energy": -0.05308,
				"method": "rhf"
			},
			{
				"type": "unocc",
				"energy": -0.01433,
				"method": "rhf"
			},
			{
				"type": "unocc",
				"energy": 0.03232,
				"method": "rhf"
			},
			{
				"type": "unocc",
				"energy": 0.07002,
				"method": "rhf"
			},
			{
				"type": "unocc",
				"energy": 0.07553,
				"method": "rhf"
			}
		],
		"cosmo_sigma_profile": { 
			"-0.025": 0.0,
			"-0.024": 0.0,
			"-0.023": 0.0,
			"-0.022": 0.0,
			"-0.021": 0.0,
			"-0.02": 0.0,
			"-0.019": 0.0,
			"-0.018": 0.0,
			"-0.017": 0.0,
			"-0.016": 0.139931064157,
			"-0.015": 1.18056508175,
			"-0.014": 2.68801560796,
			"-0.013": 2.3523533567,
			"-0.012": 2.39730117336,
			"-0.011": 2.28377243985,
			"-0.01": 2.40303578536,
			"-0.009": 2.44340343885,
			"-0.008": 1.88934198752,
			"-0.007": 4.89171873499,
			"-0.006": 11.9286929353,
			"-0.005": 20.775679437,
			"-0.004": 23.5820792448,
			"-0.003": 21.071117425,
			"-0.002": 18.7500365795,
			"-0.001": 13.289307641,
			"0.0": 12.782893914,
			"0.001": 11.7940626917,
			"0.002": 14.855736821,
			"0.003": 18.7661799157,
			"0.004": 15.7037225253,
			"0.005": 8.1159073261,
			"0.006": 6.56471871261,
			"0.007": 6.82877647352,
			"0.008": 7.93656358022,
			"0.009": 8.16313113036,
			"0.01": 6.67742532196,
			"0.011": 4.90897719555,
			"0.012": 4.08831070754,
			"0.013": 1.62646369078,
			"0.014": 0.050336196631,
			"0.015": 0.0,
			"0.016": 0.0,
			"0.017": 0.0,
			"0.018": 0.0,
			"0.019": 0.0,
			"0.02": 0.0,
			"0.021": 0.0,
			"0.022": 0.0,
			"0.023": 0.0,
			"0.024": 0.0,
			"0.025": 0.0
		}
	}
}
