{
	 "smiles": "COC1=CC=C2SC3=C(C=CC=C3)N(CC(C)CN3CCC(O)CC3)C2=C1", 
	 "Tm": 411.15, 
	 "num_atms": 55, 
	 "gaussian": { 
		 "optdone": 1, 
		 "sigma_profile": "yes", 
		 "theory": "DFT", 
		 "functional": "B3LYP", 
		 "basiset": "6-31G**", 
		 "properties": { 
			 "R2extent": 15920.7353, 
			 "electric_dipole_moment_norm": 1.19510190779, 
			 "electric_quadrupole_moment_norm": 35.0092046245, 
			 "total_energy": -1513.32827164, 
			 "HOMO_LUMO_gap": 0.17428, 
			 "cosmo_polarized_energy": -14.88, 
			 "cosmo_cavitation_energy": 54.84, 
			 "cosmo_dispersion_energy": -37.62, 
			 "cosmo_repulsion_energy": 2.78, 
			 "cosmo_total_nonelectrostatic_energy": 20.0, 
			 "SMD_solvation_energy": 7.85 
		},
		"coords": [
			{
				"x": -0.2833925516,
				"y": -6.9398035276,
				"z": 2.5226009406,
				"element": "C" 
			},
			{
				"x": -0.1517243379,
				"y": -5.605525612,
				"z": 2.0610462187,
				"element": "O" 
			},
			{
				"x": -1.0866182143,
				"y": -4.6917370401,
				"z": 2.4595288296,
				"element": "C" 
			},
			{
				"x": -2.1784768504,
				"y": -4.9792657187,
				"z": 3.2824261451,
				"element": "C" 
			},
			{
				"x": -3.0455580662,
				"y": -3.9398518981,
				"z": 3.633194603,
				"element": "C" 
			},
			{
				"x": -2.8637794587,
				"y": -2.6507230811,
				"z": 3.1449431065,
				"element": "C" 
			},
			{
				"x": -4.0442687252,
				"y": -1.3626177779,
				"z": 3.4963817013,
				"element": "S" 
			},
			{
				"x": -2.8923419799,
				"y": -0.0089347425,
				"z": 3.626798126,
				"element": "C" 
			},
			{
				"x": -1.796191145,
				"y": 0.0310109187,
				"z": 2.7415741912,
				"element": "C" 
			},
			{
				"x": -0.9321493882,
				"y": 1.1369537031,
				"z": 2.8023520807,
				"element": "C" 
			},
			{
				"x": -1.1722119074,
				"y": 2.1776586578,
				"z": 3.7016912105,
				"element": "C" 
			},
			{
				"x": -2.2553739207,
				"y": 2.1249818624,
				"z": 4.5777351053,
				"element": "C" 
			},
			{
				"x": -3.1051737781,
				"y": 1.0182808443,
				"z": 4.5468040294,
				"element": "C" 
			},
			{
				"x": -1.5958996062,
				"y": -1.035529184,
				"z": 1.8287638277,
				"element": "N" 
			},
			{
				"x": -0.7820166426,
				"y": -0.7948312401,
				"z": 0.632535776,
				"element": "C" 
			},
			{
				"x": -1.4261547927,
				"y": 0.2143095525,
				"z": -0.3403786124,
				"element": "C" 
			},
			{
				"x": -2.64532137,
				"y": -0.3922147047,
				"z": -1.0460131404,
				"element": "C" 
			},
			{
				"x": -0.3720310598,
				"y": 0.6891613737,
				"z": -1.3609995887,
				"element": "C" 
			},
			{
				"x": 0.6767499043,
				"y": 1.5148811459,
				"z": -0.7611267642,
				"element": "N" 
			},
			{
				"x": 0.2229352996,
				"y": 2.8967063447,
				"z": -0.5293784611,
				"element": "C" 
			},
			{
				"x": 1.4110882136,
				"y": 3.8401810244,
				"z": -0.3307671279,
				"element": "C" 
			},
			{
				"x": 2.2672147713,
				"y": 3.9499307565,
				"z": -1.611131169,
				"element": "C" 
			},
			{
				"x": 3.6306231393,
				"y": 4.2419968591,
				"z": -1.3014092948,
				"element": "O" 
			},
			{
				"x": 2.2525359903,
				"y": 2.6172328764,
				"z": -2.3821805398,
				"element": "C" 
			},
			{
				"x": 1.9952098838,
				"y": 1.4449884741,
				"z": -1.4276446678,
				"element": "C" 
			},
			{
				"x": -1.7644468551,
				"y": -2.3570058992,
				"z": 2.307802641,
				"element": "C" 
			},
			{
				"x": -0.8702242976,
				"y": -3.3853069009,
				"z": 1.9975221494,
				"element": "C" 
			},
			{
				"x": -1.2197636271,
				"y": -7.3980053607,
				"z": 2.1784307104,
				"element": "H" 
			},
			{
				"x": -0.2398671705,
				"y": -6.9962496327,
				"z": 3.6180548881,
				"element": "H" 
			},
			{
				"x": 0.5598867569,
				"y": -7.4896822257,
				"z": 2.101500943,
				"element": "H" 
			},
			{
				"x": -2.3598980117,
				"y": -5.9781889801,
				"z": 3.6584543279,
				"element": "H" 
			},
			{
				"x": -3.8893977346,
				"y": -4.1439258564,
				"z": 4.2854951482,
				"element": "H" 
			},
			{
				"x": -0.0760386868,
				"y": 1.1927059088,
				"z": 2.1396322276,
				"element": "H" 
			},
			{
				"x": -0.4947684491,
				"y": 3.0266072824,
				"z": 3.7215857695,
				"element": "H" 
			},
			{
				"x": -2.436915192,
				"y": 2.9305112631,
				"z": 5.2825151054,
				"element": "H" 
			},
			{
				"x": -3.9478621413,
				"y": 0.9503164256,
				"z": 5.2284048257,
				"element": "H" 
			},
			{
				"x": -0.6909504691,
				"y": -1.7488903497,
				"z": 0.1088372055,
				"element": "H" 
			},
			{
				"x": 0.2346253188,
				"y": -0.4685246745,
				"z": 0.8861737289,
				"element": "H" 
			},
			{
				"x": -1.7654321135,
				"y": 1.0841700612,
				"z": 0.2326007166,
				"element": "H" 
			},
			{
				"x": -2.351392082,
				"y": -1.224929887,
				"z": -1.6977866724,
				"element": "H" 
			},
			{
				"x": -3.3650149021,
				"y": -0.7745501373,
				"z": -0.3167978019,
				"element": "H" 
			},
			{
				"x": -3.1548066802,
				"y": 0.3524812054,
				"z": -1.6667754034,
				"element": "H" 
			},
			{
				"x": -0.8911589369,
				"y": 1.2183749755,
				"z": -2.1838065856,
				"element": "H" 
			},
			{
				"x": 0.0966027714,
				"y": -0.1962587329,
				"z": -1.8090762771,
				"element": "H" 
			},
			{
				"x": -0.429853683,
				"y": 2.9263229503,
				"z": 0.3499929939,
				"element": "H" 
			},
			{
				"x": -0.3872850361,
				"y": 3.2633843411,
				"z": -1.3794258424,
				"element": "H" 
			},
			{
				"x": 2.0490558439,
				"y": 3.4523274935,
				"z": 0.4723484825,
				"element": "H" 
			},
			{
				"x": 1.0536608299,
				"y": 4.8270551046,
				"z": -0.0143061242,
				"element": "H" 
			},
			{
				"x": 1.8540863353,
				"y": 4.7416566576,
				"z": -2.257050159,
				"element": "H" 
			},
			{
				"x": 3.647121049,
				"y": 5.0352792996,
				"z": -0.7498648162,
				"element": "H" 
			},
			{
				"x": 3.2140286427,
				"y": 2.5043820003,
				"z": -2.8932003079,
				"element": "H" 
			},
			{
				"x": 1.4739468884,
				"y": 2.6437021735,
				"z": -3.153533885,
				"element": "H" 
			},
			{
				"x": 2.0644374057,
				"y": 0.4909258832,
				"z": -1.9579783691,
				"element": "H" 
			},
			{
				"x": 2.787208645,
				"y": 1.4345448719,
				"z": -0.6673447039,
				"element": "H" 
			},
			{
				"x": 0.0193421745,
				"y": -3.2063691271,
				"z": 1.406548559,
				"element": "H" 
			}
		],
		 "valence_orbital": [ 
			{
				"type": "occ",
				"energy": -0.24763,
				"method": "rhf"
			},
			{
				"type": "occ",
				"energy": -0.23256,
				"method": "rhf"
			},
			{
				"type": "occ",
				"energy": -0.21179,
				"method": "rhf"
			},
			{
				"type": "occ",
				"energy": -0.20422,
				"method": "rhf"
			},
			{
				"type": "occ",
				"energy": -0.17895,
				"method": "rhf"
			},
			{
				"type": "unocc",
				"energy": -0.00467,
				"method": "rhf"
			},
			{
				"type": "unocc",
				"energy": 0.00085,
				"method": "rhf"
			},
			{
				"type": "unocc",
				"energy": 0.00343,
				"method": "rhf"
			},
			{
				"type": "unocc",
				"energy": 0.02129,
				"method": "rhf"
			},
			{
				"type": "unocc",
				"energy": 0.04705,
				"method": "rhf"
			}
		],
		"cosmo_sigma_profile": { 
			"-0.025": 0.0,
			"-0.024": 0.0,
			"-0.023": 0.0,
			"-0.022": 0.0,
			"-0.021": 0.0,
			"-0.02": 0.0,
			"-0.019": 0.0,
			"-0.018": 0.0,
			"-0.017": 0.0,
			"-0.016": 0.00588819338315,
			"-0.015": 0.593332384531,
			"-0.014": 0.892067384099,
			"-0.013": 1.18703893264,
			"-0.012": 0.7890566235,
			"-0.011": 0.746420828282,
			"-0.01": 0.839503191707,
			"-0.009": 0.758103049782,
			"-0.008": 0.623067228592,
			"-0.007": 2.72300896173,
			"-0.006": 13.5964483363,
			"-0.005": 22.6196586383,
			"-0.004": 31.2155725737,
			"-0.003": 43.8883370185,
			"-0.002": 53.7767944666,
			"-0.001": 48.8459504577,
			"0.0": 37.5097309117,
			"0.001": 31.0004588464,
			"0.002": 24.5390615249,
			"0.003": 23.3552724913,
			"0.004": 30.3876894938,
			"0.005": 26.5470464716,
			"0.006": 12.7455443365,
			"0.007": 5.19541301702,
			"0.008": 4.89229714814,
			"0.009": 3.21870022719,
			"0.01": 3.06767993316,
			"0.011": 1.32243613837,
			"0.012": 0.926856586814,
			"0.013": 1.42430969297,
			"0.014": 2.23184631121,
			"0.015": 0.486504923548,
			"0.016": 0.0,
			"0.017": 0.0,
			"0.018": 0.0,
			"0.019": 0.0,
			"0.02": 0.0,
			"0.021": 0.0,
			"0.022": 0.0,
			"0.023": 0.0,
			"0.024": 0.0,
			"0.025": 0.0
		}
	}
}
