{
	 "smiles": "NC1=NNC(=C1)C1=C(Cl)C(Cl)=CC=C1", 
	 "Tm": 384.15, 
	 "num_atms": 21, 
	 "gaussian": { 
		 "optdone": 1, 
		 "sigma_profile": "yes", 
		 "theory": "DFT", 
		 "functional": "B3LYP", 
		 "basiset": "6-31G**", 
		 "properties": { 
			 "R2extent": 4032.9726, 
			 "electric_dipole_moment_norm": 3.58573382448, 
			 "electric_quadrupole_moment_norm": 10.2962306282, 
			 "total_energy": -1431.79375798, 
			 "HOMO_LUMO_gap": 0.16035, 
			 "cosmo_polarized_energy": -13.03, 
			 "cosmo_cavitation_energy": 28.83, 
			 "cosmo_dispersion_energy": -21.78, 
			 "cosmo_repulsion_energy": 1.71, 
			 "cosmo_total_nonelectrostatic_energy": 8.76, 
			 "SMD_solvation_energy": 3.18 
		},
		"coords": [
			{
				"x": 1.451334625,
				"y": -3.1733490716,
				"z": 3.2174919997,
				"element": "N" 
			},
			{
				"x": 0.8348396829,
				"y": -2.3705850334,
				"z": 2.2572290536,
				"element": "C" 
			},
			{
				"x": 0.1492386436,
				"y": -2.9173634039,
				"z": 1.2502296923,
				"element": "N" 
			},
			{
				"x": -0.2173738939,
				"y": -1.8639593236,
				"z": 0.4825764726,
				"element": "N" 
			},
			{
				"x": 0.1912140101,
				"y": -0.6635492495,
				"z": 0.9778451058,
				"element": "C" 
			},
			{
				"x": 0.888673161,
				"y": -0.9613745528,
				"z": 2.1462708602,
				"element": "C" 
			},
			{
				"x": -0.116950592,
				"y": 0.6567383701,
				"z": 0.4077225571,
				"element": "C" 
			},
			{
				"x": -0.2543376018,
				"y": 0.9409561713,
				"z": -0.9695621208,
				"element": "C" 
			},
			{
				"x": -0.0441363574,
				"y": -0.3169936757,
				"z": -2.1729132692,
				"element": "Cl" 
			},
			{
				"x": -0.5343533359,
				"y": 2.247559462,
				"z": -1.4001958813,
				"element": "C" 
			},
			{
				"x": -0.7082873951,
				"y": 2.6250790849,
				"z": -3.0986306171,
				"element": "Cl" 
			},
			{
				"x": -0.6744295439,
				"y": 3.2865674441,
				"z": -0.481070632,
				"element": "C" 
			},
			{
				"x": -0.5368788764,
				"y": 3.0185924868,
				"z": 0.8782201074,
				"element": "C" 
			},
			{
				"x": -0.2707425814,
				"y": 1.7259645583,
				"z": 1.310807293,
				"element": "C" 
			},
			{
				"x": 1.114687057,
				"y": -4.1279656102,
				"z": 3.1760328986,
				"element": "H" 
			},
			{
				"x": 1.3824794012,
				"y": -2.8061765071,
				"z": 4.1580143961,
				"element": "H" 
			},
			{
				"x": -0.7444633298,
				"y": -2.0310588997,
				"z": -0.3582415139,
				"element": "H" 
			},
			{
				"x": 1.4054112525,
				"y": -0.2665447655,
				"z": 2.7907019007,
				"element": "H" 
			},
			{
				"x": -0.8920021698,
				"y": 4.2857884082,
				"z": -0.8401127651,
				"element": "H" 
			},
			{
				"x": -0.6516593994,
				"y": 3.8204840976,
				"z": 1.60054006,
				"element": "H" 
			},
			{
				"x": -0.1958627566,
				"y": 1.5137900095,
				"z": 2.3712444023,
				"element": "H" 
			}
		],
		 "valence_orbital": [ 
			{
				"type": "occ",
				"energy": -0.29061,
				"method": "rhf"
			},
			{
				"type": "occ",
				"energy": -0.2809,
				"method": "rhf"
			},
			{
				"type": "occ",
				"energy": -0.25713,
				"method": "rhf"
			},
			{
				"type": "occ",
				"energy": -0.23176,
				"method": "rhf"
			},
			{
				"type": "occ",
				"energy": -0.20582,
				"method": "rhf"
			},
			{
				"type": "unocc",
				"energy": -0.04547,
				"method": "rhf"
			},
			{
				"type": "unocc",
				"energy": -0.02918,
				"method": "rhf"
			},
			{
				"type": "unocc",
				"energy": -0.00428,
				"method": "rhf"
			},
			{
				"type": "unocc",
				"energy": 0.04037,
				"method": "rhf"
			},
			{
				"type": "unocc",
				"energy": 0.05717,
				"method": "rhf"
			}
		],
		"cosmo_sigma_profile": { 
			"-0.025": 0.0,
			"-0.024": 0.0,
			"-0.023": 0.0,
			"-0.022": 0.0,
			"-0.021": 0.0,
			"-0.02": 0.0,
			"-0.019": 0.0,
			"-0.018": 0.0,
			"-0.017": 0.0,
			"-0.016": 0.0,
			"-0.015": 0.0676331292018,
			"-0.014": 0.841538644663,
			"-0.013": 1.04244785995,
			"-0.012": 2.3015992039,
			"-0.011": 3.67682688542,
			"-0.01": 3.7855345346,
			"-0.009": 3.29376955261,
			"-0.008": 5.13212816374,
			"-0.007": 9.87804494396,
			"-0.006": 12.6020214975,
			"-0.005": 10.6282741534,
			"-0.004": 8.45426793398,
			"-0.003": 9.70757526609,
			"-0.002": 11.1306730907,
			"-0.001": 13.8483239286,
			"0.0": 19.5633228606,
			"0.001": 24.6871983405,
			"0.002": 21.5248603359,
			"0.003": 20.0363283079,
			"0.004": 18.2959145092,
			"0.005": 10.6170767848,
			"0.006": 4.70640707706,
			"0.007": 3.23702995291,
			"0.008": 2.13062746053,
			"0.009": 1.92057036959,
			"0.01": 1.86682520416,
			"0.011": 2.3055219089,
			"0.012": 2.18612930528,
			"0.013": 1.28064308697,
			"0.014": 1.94600025825,
			"0.015": 1.74954572892,
			"0.016": 0.922364158702,
			"0.017": 0.0829336214827,
			"0.018": 0.0,
			"0.019": 0.0,
			"0.02": 0.0,
			"0.021": 0.0,
			"0.022": 0.0,
			"0.023": 0.0,
			"0.024": 0.0,
			"0.025": 0.0
		}
	}
}
