{
	 "smiles": "C=CCN1C(=O)N(CC=C)C(=O)N(CC=C)C1=O", 
	 "Tm": 295.35, 
	 "num_atms": 33, 
	 "gaussian": { 
		 "optdone": 1, 
		 "sigma_profile": "yes", 
		 "theory": "DFT", 
		 "functional": "B3LYP", 
		 "basiset": "6-31G**", 
		 "properties": { 
			 "R2extent": 4670.0528, 
			 "electric_dipole_moment_norm": 0.240395757034, 
			 "electric_quadrupole_moment_norm": 5.96623774417, 
			 "total_energy": -856.241370288, 
			 "HOMO_LUMO_gap": 0.25262, 
			 "cosmo_polarized_energy": -13.4, 
			 "cosmo_cavitation_energy": 37.85, 
			 "cosmo_dispersion_energy": -24.47, 
			 "cosmo_repulsion_energy": 1.89, 
			 "cosmo_total_nonelectrostatic_energy": 15.27, 
			 "SMD_solvation_energy": 9.85 
		},
		"coords": [
			{
				"x": -1.7115261594,
				"y": 3.7592199718,
				"z": -0.4932574288,
				"element": "C" 
			},
			{
				"x": -1.8254880734,
				"y": 2.8061751944,
				"z": 0.4305639042,
				"element": "C" 
			},
			{
				"x": -0.8168344344,
				"y": 2.5858626111,
				"z": 1.5268604738,
				"element": "C" 
			},
			{
				"x": -0.130542081,
				"y": 1.2773460148,
				"z": 1.4045137947,
				"element": "N" 
			},
			{
				"x": -0.7940123538,
				"y": 0.15661203,
				"z": 1.89894787,
				"element": "C" 
			},
			{
				"x": -1.8757670874,
				"y": 0.2370063548,
				"z": 2.4538521719,
				"element": "O" 
			},
			{
				"x": -0.1323880714,
				"y": -1.0587657753,
				"z": 1.7191138985,
				"element": "N" 
			},
			{
				"x": -0.7999023495,
				"y": -2.2768276362,
				"z": 2.1993156919,
				"element": "C" 
			},
			{
				"x": -1.6900132403,
				"y": -2.9439112723,
				"z": 1.1818246559,
				"element": "C" 
			},
			{
				"x": -1.9019068481,
				"y": -2.5517179273,
				"z": -0.0716121707,
				"element": "C" 
			},
			{
				"x": 1.1185282153,
				"y": -1.1992092945,
				"z": 1.1123263941,
				"element": "C" 
			},
			{
				"x": 1.6744512316,
				"y": -2.2772041142,
				"z": 1.0112653667,
				"element": "O" 
			},
			{
				"x": 1.6859452882,
				"y": -0.014329245,
				"z": 0.6436491342,
				"element": "N" 
			},
			{
				"x": 2.9873415707,
				"y": -0.1041452873,
				"z": -0.0613694276,
				"element": "C" 
			},
			{
				"x": 2.8202828105,
				"y": -0.1981533296,
				"z": -1.5549881496,
				"element": "C" 
			},
			{
				"x": 3.1649866241,
				"y": -1.2696368183,
				"z": -2.2676400883,
				"element": "C" 
			},
			{
				"x": 1.0903101651,
				"y": 1.2420595646,
				"z": 0.7324185801,
				"element": "C" 
			},
			{
				"x": 1.6144276265,
				"y": 2.2406498428,
				"z": 0.2694906772,
				"element": "O" 
			},
			{
				"x": -2.4668648137,
				"y": 3.9010567278,
				"z": -1.2606851159,
				"element": "H" 
			},
			{
				"x": -0.8578721386,
				"y": 4.4319620913,
				"z": -0.5148439711,
				"element": "H" 
			},
			{
				"x": -2.6828278839,
				"y": 2.1357934473,
				"z": 0.4348301497,
				"element": "H" 
			},
			{
				"x": -0.0387387699,
				"y": 3.3474789786,
				"z": 1.5007524499,
				"element": "H" 
			},
			{
				"x": -1.3032087117,
				"y": 2.5858121317,
				"z": 2.5045485314,
				"element": "H" 
			},
			{
				"x": -0.0131397549,
				"y": -2.9670173521,
				"z": 2.5138688092,
				"element": "H" 
			},
			{
				"x": -1.3866061055,
				"y": -1.9928872306,
				"z": 3.0763896927,
				"element": "H" 
			},
			{
				"x": -2.1880838197,
				"y": -3.8364434187,
				"z": 1.5593151598,
				"element": "H" 
			},
			{
				"x": -2.5642982818,
				"y": -3.1053906553,
				"z": -0.7288181741,
				"element": "H" 
			},
			{
				"x": -1.4260613906,
				"y": -1.6703695328,
				"z": -0.4917803547,
				"element": "H" 
			},
			{
				"x": 3.4922768852,
				"y": -0.9854432602,
				"z": 0.3316899129,
				"element": "H" 
			},
			{
				"x": 3.5450727233,
				"y": 0.7947383637,
				"z": 0.2092720844,
				"element": "H" 
			},
			{
				"x": 2.3993013413,
				"y": 0.6803714755,
				"z": -2.0402057723,
				"element": "H" 
			},
			{
				"x": 3.0447537112,
				"y": -1.2981621607,
				"z": -3.3466778339,
				"element": "H" 
			},
			{
				"x": 3.5790041762,
				"y": -2.1575304898,
				"z": -1.7965309159,
				"element": "H" 
			}
		],
		 "valence_orbital": [ 
			{
				"type": "occ",
				"energy": -0.28262,
				"method": "rhf"
			},
			{
				"type": "occ",
				"energy": -0.27302,
				"method": "rhf"
			},
			{
				"type": "occ",
				"energy": -0.27093,
				"method": "rhf"
			},
			{
				"type": "occ",
				"energy": -0.26779,
				"method": "rhf"
			},
			{
				"type": "occ",
				"energy": -0.26253,
				"method": "rhf"
			},
			{
				"type": "unocc",
				"energy": -0.00991,
				"method": "rhf"
			},
			{
				"type": "unocc",
				"energy": -0.00936,
				"method": "rhf"
			},
			{
				"type": "unocc",
				"energy": 0.00413,
				"method": "rhf"
			},
			{
				"type": "unocc",
				"energy": 0.00981,
				"method": "rhf"
			},
			{
				"type": "unocc",
				"energy": 0.01597,
				"method": "rhf"
			}
		],
		"cosmo_sigma_profile": { 
			"-0.025": 0.0,
			"-0.024": 0.0,
			"-0.023": 0.0,
			"-0.022": 0.0,
			"-0.021": 0.0,
			"-0.02": 0.0,
			"-0.019": 0.0,
			"-0.018": 0.0,
			"-0.017": 0.0,
			"-0.016": 0.0,
			"-0.015": 0.0,
			"-0.014": 0.0,
			"-0.013": 0.0,
			"-0.012": 0.0,
			"-0.011": 0.00182508815814,
			"-0.01": 0.769039272869,
			"-0.009": 1.57150681408,
			"-0.008": 1.78192069703,
			"-0.007": 3.67088437777,
			"-0.006": 16.6453540393,
			"-0.005": 30.5478645919,
			"-0.004": 34.896396911,
			"-0.003": 31.9585599673,
			"-0.002": 21.4852376317,
			"-0.001": 22.1409805845,
			"0.0": 16.4842046338,
			"0.001": 15.2946149827,
			"0.002": 15.0274636305,
			"0.003": 14.4482688572,
			"0.004": 13.3455579966,
			"0.005": 15.5690848864,
			"0.006": 8.86973743495,
			"0.007": 7.78704943427,
			"0.008": 4.65291083776,
			"0.009": 4.6954821037,
			"0.01": 6.06396141809,
			"0.011": 9.97567814174,
			"0.012": 3.34491282564,
			"0.013": 0.0,
			"0.014": 0.0,
			"0.015": 0.0,
			"0.016": 0.0,
			"0.017": 0.0,
			"0.018": 0.0,
			"0.019": 0.0,
			"0.02": 0.0,
			"0.021": 0.0,
			"0.022": 0.0,
			"0.023": 0.0,
			"0.024": 0.0,
			"0.025": 0.0
		}
	}
}
