{
	 "smiles": "CC1=CC=C(C=C1)C1=CSC(=N1)C(=NNC1=CC=C(F)C=C1)C#N", 
	 "Tm": 469.15, 
	 "num_atms": 37, 
	 "gaussian": { 
		 "optdone": 1, 
		 "sigma_profile": "yes", 
		 "theory": "DFT", 
		 "functional": "B3LYP", 
		 "basiset": "6-31G**", 
		 "properties": { 
			 "R2extent": 13648.5138, 
			 "electric_dipole_moment_norm": 1.61858185768, 
			 "electric_quadrupole_moment_norm": 17.0222044295, 
			 "total_energy": -1410.72905771, 
			 "HOMO_LUMO_gap": 0.12068, 
			 "cosmo_polarized_energy": -15.6, 
			 "cosmo_cavitation_energy": 46.3, 
			 "cosmo_dispersion_energy": -32.74, 
			 "cosmo_repulsion_energy": 2.4, 
			 "cosmo_total_nonelectrostatic_energy": 15.96, 
			 "SMD_solvation_energy": 7.56 
		},
		"coords": [
			{
				"x": -2.4134526111,
				"y": -1.879287254,
				"z": 6.1828749065,
				"element": "C" 
			},
			{
				"x": -2.134978442,
				"y": -2.0818902348,
				"z": 4.7127970066,
				"element": "C" 
			},
			{
				"x": -1.3309994778,
				"y": -1.1873545438,
				"z": 3.9951348513,
				"element": "C" 
			},
			{
				"x": -1.048923218,
				"y": -1.3876965364,
				"z": 2.6461610741,
				"element": "C" 
			},
			{
				"x": -1.5679939116,
				"y": -2.4979361446,
				"z": 1.962140928,
				"element": "C" 
			},
			{
				"x": -2.3778113335,
				"y": -3.3953265288,
				"z": 2.6773274829,
				"element": "C" 
			},
			{
				"x": -2.6546898724,
				"y": -3.187978298,
				"z": 4.0247772477,
				"element": "C" 
			},
			{
				"x": -1.2596999346,
				"y": -2.6903437294,
				"z": 0.5317954322,
				"element": "C" 
			},
			{
				"x": -1.6987413469,
				"y": -3.7198269057,
				"z": -0.2717473255,
				"element": "C" 
			},
			{
				"x": -1.0949028427,
				"y": -3.5512308692,
				"z": -1.8800930199,
				"element": "S" 
			},
			{
				"x": -0.2721304437,
				"y": -2.0767034956,
				"z": -1.3642796346,
				"element": "C" 
			},
			{
				"x": -0.4539590048,
				"y": -1.7738216947,
				"z": -0.1106334595,
				"element": "N" 
			},
			{
				"x": 0.5321886629,
				"y": -1.3020918072,
				"z": -2.3083602277,
				"element": "C" 
			},
			{
				"x": 1.1369177077,
				"y": -0.2118098499,
				"z": -1.9053913257,
				"element": "N" 
			},
			{
				"x": 1.8628588041,
				"y": 0.4934359316,
				"z": -2.7440696672,
				"element": "N" 
			},
			{
				"x": 2.5228067033,
				"y": 1.6663097147,
				"z": -2.3388979821,
				"element": "C" 
			},
			{
				"x": 3.2783579244,
				"y": 2.3658535351,
				"z": -3.2890880279,
				"element": "C" 
			},
			{
				"x": 3.9476803669,
				"y": 3.5326833486,
				"z": -2.9276770402,
				"element": "C" 
			},
			{
				"x": 3.8512777005,
				"y": 3.9845103168,
				"z": -1.6167029536,
				"element": "C" 
			},
			{
				"x": 4.4976292657,
				"y": 5.1139772601,
				"z": -1.261678685,
				"element": "F" 
			},
			{
				"x": 3.1048404781,
				"y": 3.3011537025,
				"z": -0.6610539503,
				"element": "C" 
			},
			{
				"x": 2.4355896332,
				"y": 2.1352413387,
				"z": -1.0206018209,
				"element": "C" 
			},
			{
				"x": 0.6543724255,
				"y": -1.7408532361,
				"z": -3.6703051134,
				"element": "C" 
			},
			{
				"x": 0.8324338552,
				"y": -1.9879100052,
				"z": -4.7955334759,
				"element": "N" 
			},
			{
				"x": -2.3333159216,
				"y": -0.8249923412,
				"z": 6.4637445128,
				"element": "H" 
			},
			{
				"x": -1.6993710577,
				"y": -2.4367136645,
				"z": 6.8024963127,
				"element": "H" 
			},
			{
				"x": -3.4153776455,
				"y": -2.22724591,
				"z": 6.4532035131,
				"element": "H" 
			},
			{
				"x": -0.9193031024,
				"y": -0.3169989237,
				"z": 4.5006258852,
				"element": "H" 
			},
			{
				"x": -0.4264014381,
				"y": -0.6861348795,
				"z": 2.1024601921,
				"element": "H" 
			},
			{
				"x": -2.8021170176,
				"y": -4.2637698664,
				"z": 2.1820174525,
				"element": "H" 
			},
			{
				"x": -3.2876143166,
				"y": -3.896931593,
				"z": 4.5531519534,
				"element": "H" 
			},
			{
				"x": -2.3330847275,
				"y": -4.5552683301,
				"z": -0.0162311604,
				"element": "H" 
			},
			{
				"x": 1.9600523275,
				"y": 0.1958318752,
				"z": -3.715483199,
				"element": "H" 
			},
			{
				"x": 3.3444744447,
				"y": 2.0004178334,
				"z": -4.3105352211,
				"element": "H" 
			},
			{
				"x": 4.5377148302,
				"y": 4.0891668622,
				"z": -3.6471971543,
				"element": "H" 
			},
			{
				"x": 3.0540115479,
				"y": 3.685595895,
				"z": 0.3517481934,
				"element": "H" 
			},
			{
				"x": 1.8474609883,
				"y": 1.583039028,
				"z": -0.2978965002,
				"element": "H" 
			}
		],
		 "valence_orbital": [ 
			{
				"type": "occ",
				"energy": -0.27513,
				"method": "rhf"
			},
			{
				"type": "occ",
				"energy": -0.2701,
				"method": "rhf"
			},
			{
				"type": "occ",
				"energy": -0.24972,
				"method": "rhf"
			},
			{
				"type": "occ",
				"energy": -0.22868,
				"method": "rhf"
			},
			{
				"type": "occ",
				"energy": -0.20553,
				"method": "rhf"
			},
			{
				"type": "unocc",
				"energy": -0.08485,
				"method": "rhf"
			},
			{
				"type": "unocc",
				"energy": -0.0363,
				"method": "rhf"
			},
			{
				"type": "unocc",
				"energy": -0.02438,
				"method": "rhf"
			},
			{
				"type": "unocc",
				"energy": -0.0106,
				"method": "rhf"
			},
			{
				"type": "unocc",
				"energy": -0.00419,
				"method": "rhf"
			}
		],
		"cosmo_sigma_profile": { 
			"-0.025": 0.0,
			"-0.024": 0.0,
			"-0.023": 0.0,
			"-0.022": 0.0,
			"-0.021": 0.0,
			"-0.02": 0.0,
			"-0.019": 0.0,
			"-0.018": 0.0,
			"-0.017": 0.0,
			"-0.016": 0.0517067802548,
			"-0.015": 1.02539948239,
			"-0.014": 1.24185086184,
			"-0.013": 1.04748502596,
			"-0.012": 1.57464636256,
			"-0.011": 1.55571129148,
			"-0.01": 1.98764296874,
			"-0.009": 4.95542433135,
			"-0.008": 6.5572049441,
			"-0.007": 9.92516321977,
			"-0.006": 11.6834665169,
			"-0.005": 16.2292111847,
			"-0.004": 26.1966702647,
			"-0.003": 24.2107187902,
			"-0.002": 23.4746745872,
			"-0.001": 27.9482764296,
			"0.0": 37.3739171308,
			"0.001": 34.8738465467,
			"0.002": 35.4339488365,
			"0.003": 33.4251572771,
			"0.004": 24.3352327649,
			"0.005": 18.054129203,
			"0.006": 9.40353141438,
			"0.007": 4.5899394988,
			"0.008": 4.38665979456,
			"0.009": 4.01672464617,
			"0.01": 4.05844807078,
			"0.011": 3.47167994727,
			"0.012": 2.11459325336,
			"0.013": 0.824870876661,
			"0.014": 0.0122863401091,
			"0.015": 0.0,
			"0.016": 0.0,
			"0.017": 0.0,
			"0.018": 0.0,
			"0.019": 0.0,
			"0.02": 0.0,
			"0.021": 0.0,
			"0.022": 0.0,
			"0.023": 0.0,
			"0.024": 0.0,
			"0.025": 0.0
		}
	}
}
