{
	 "smiles": "OC(=O)C1=CC(OC(F)F)=CC(OC(F)F)=C1", 
	 "Tm": 353.15, 
	 "num_atms": 23, 
	 "gaussian": { 
		 "optdone": 1, 
		 "sigma_profile": "yes", 
		 "theory": "DFT", 
		 "functional": "B3LYP", 
		 "basiset": "6-31G**", 
		 "properties": { 
			 "R2extent": 5585.1106, 
			 "electric_dipole_moment_norm": 3.34466717178, 
			 "electric_quadrupole_moment_norm": 18.0828595731, 
			 "total_energy": -1046.81774946, 
			 "HOMO_LUMO_gap": 0.19543, 
			 "cosmo_polarized_energy": -17.53, 
			 "cosmo_cavitation_energy": 30.74, 
			 "cosmo_dispersion_energy": -21.62, 
			 "cosmo_repulsion_energy": 1.6, 
			 "cosmo_total_nonelectrostatic_energy": 10.72, 
			 "SMD_solvation_energy": 9.02 
		},
		"coords": [
			{
				"x": -0.3863877563,
				"y": 0.9268163305,
				"z": 3.8318143502,
				"element": "O" 
			},
			{
				"x": 0.7631863093,
				"y": 1.2177221611,
				"z": 3.1712271992,
				"element": "C" 
			},
			{
				"x": 1.709431243,
				"y": 1.6741801089,
				"z": 3.7654711927,
				"element": "O" 
			},
			{
				"x": 0.7813267578,
				"y": 0.9426751762,
				"z": 1.6921372324,
				"element": "C" 
			},
			{
				"x": 2.0316494681,
				"y": 0.8041797202,
				"z": 1.0838366799,
				"element": "C" 
			},
			{
				"x": 2.1001466484,
				"y": 0.55999557,
				"z": -0.2848517342,
				"element": "C" 
			},
			{
				"x": 3.3681791163,
				"y": 0.4066759719,
				"z": -0.8080826371,
				"element": "O" 
			},
			{
				"x": 3.5887431223,
				"y": 0.7593057061,
				"z": -2.1216706566,
				"element": "C" 
			},
			{
				"x": 3.1266716096,
				"y": -0.2110132923,
				"z": -2.9638194059,
				"element": "F" 
			},
			{
				"x": 4.9172823089,
				"y": 0.8365609109,
				"z": -2.2787862572,
				"element": "F" 
			},
			{
				"x": 0.9438420801,
				"y": 0.4613442774,
				"z": -1.0683896177,
				"element": "C" 
			},
			{
				"x": -0.2948109086,
				"y": 0.6193086597,
				"z": -0.441181846,
				"element": "C" 
			},
			{
				"x": -1.4946462901,
				"y": 0.5723266596,
				"z": -1.1232313835,
				"element": "O" 
			},
			{
				"x": -1.5670771859,
				"y": -0.1700583538,
				"z": -2.2825420109,
				"element": "C" 
			},
			{
				"x": -0.999702328,
				"y": 0.5060060934,
				"z": -3.3215766592,
				"element": "F" 
			},
			{
				"x": -2.8707486191,
				"y": -0.3229122442,
				"z": -2.5553724162,
				"element": "F" 
			},
			{
				"x": -0.3887687249,
				"y": 0.8602457194,
				"z": 0.929302048,
				"element": "C" 
			},
			{
				"x": -0.9857812123,
				"y": 0.4228037507,
				"z": 3.2641239584,
				"element": "H" 
			},
			{
				"x": 2.9359529622,
				"y": 0.8950294037,
				"z": 1.6729239422,
				"element": "H" 
			},
			{
				"x": 3.1116260457,
				"y": 1.7086147695,
				"z": -2.3928663707,
				"element": "H" 
			},
			{
				"x": 1.0087900647,
				"y": 0.2762617077,
				"z": -2.1311538546,
				"element": "H" 
			},
			{
				"x": -1.0745876765,
				"y": -1.145751376,
				"z": -2.1931835566,
				"element": "H" 
			},
			{
				"x": -1.3762170347,
				"y": 1.0145825695,
				"z": 1.3520718035,
				"element": "H" 
			}
		],
		 "valence_orbital": [ 
			{
				"type": "occ",
				"energy": -0.35176,
				"method": "rhf"
			},
			{
				"type": "occ",
				"energy": -0.32732,
				"method": "rhf"
			},
			{
				"type": "occ",
				"energy": -0.29162,
				"method": "rhf"
			},
			{
				"type": "occ",
				"energy": -0.28122,
				"method": "rhf"
			},
			{
				"type": "occ",
				"energy": -0.26375,
				"method": "rhf"
			},
			{
				"type": "unocc",
				"energy": -0.06832,
				"method": "rhf"
			},
			{
				"type": "unocc",
				"energy": -0.03444,
				"method": "rhf"
			},
			{
				"type": "unocc",
				"energy": 0.0326,
				"method": "rhf"
			},
			{
				"type": "unocc",
				"energy": 0.04908,
				"method": "rhf"
			},
			{
				"type": "unocc",
				"energy": 0.08434,
				"method": "rhf"
			}
		],
		"cosmo_sigma_profile": { 
			"-0.025": 0.0,
			"-0.024": 0.0,
			"-0.023": 0.0,
			"-0.022": 0.0,
			"-0.021": 0.0,
			"-0.02": 0.00348813020912,
			"-0.019": 0.447832929673,
			"-0.018": 0.988497221627,
			"-0.017": 1.2515679642,
			"-0.016": 0.909965204312,
			"-0.015": 0.911856815171,
			"-0.014": 0.868876261963,
			"-0.013": 1.56696614968,
			"-0.012": 1.26498774895,
			"-0.011": 5.05050774381,
			"-0.01": 8.12095153558,
			"-0.009": 6.15629987109,
			"-0.008": 5.7543146818,
			"-0.007": 4.83227491863,
			"-0.006": 5.87817039482,
			"-0.005": 7.18606783582,
			"-0.004": 8.23219866318,
			"-0.003": 8.61948584049,
			"-0.002": 10.9337628403,
			"-0.001": 13.0581143624,
			"0.0": 23.0456383396,
			"0.001": 17.9813800473,
			"0.002": 19.2956157235,
			"0.003": 41.3818072141,
			"0.004": 15.6623950137,
			"0.005": 6.53720367936,
			"0.006": 5.51884344801,
			"0.007": 4.52614796609,
			"0.008": 3.0537378877,
			"0.009": 3.9746787076,
			"0.01": 5.00976363172,
			"0.011": 5.6751609504,
			"0.012": 2.82482391886,
			"0.013": 0.539423907282,
			"0.014": 0.0,
			"0.015": 0.0,
			"0.016": 0.0,
			"0.017": 0.0,
			"0.018": 0.0,
			"0.019": 0.0,
			"0.02": 0.0,
			"0.021": 0.0,
			"0.022": 0.0,
			"0.023": 0.0,
			"0.024": 0.0,
			"0.025": 0.0
		}
	}
}
