{
	 "smiles": "NS(=O)(=O)C1=CC(=CC(Br)=C1)C#N", 
	 "Tm": 473.15, 
	 "num_atms": 18, 
	 "gaussian": { 
		 "optdone": 1, 
		 "sigma_profile": "yes", 
		 "theory": "DFT", 
		 "functional": "B3LYP", 
		 "basiset": "6-31G**", 
		 "properties": { 
			 "R2extent": 4483.2493, 
			 "electric_dipole_moment_norm": 4.62884055677, 
			 "electric_quadrupole_moment_norm": 23.328902094, 
			 "total_energy": -3499.20491098, 
			 "HOMO_LUMO_gap": 0.1957, 
			 "cosmo_polarized_energy": -21.93, 
			 "cosmo_cavitation_energy": 28.21, 
			 "cosmo_dispersion_energy": -20.76, 
			 "cosmo_repulsion_energy": 1.62, 
			 "cosmo_total_nonelectrostatic_energy": 9.06, 
			 "SMD_solvation_energy": 4.82 
		},
		"coords": [
			{
				"x": 1.7210698384,
				"y": -0.294838403,
				"z": -3.1058694276,
				"element": "N" 
			},
			{
				"x": 1.9735670891,
				"y": -1.3761573166,
				"z": -1.8573331603,
				"element": "S" 
			},
			{
				"x": 1.5127584441,
				"y": -2.6711819521,
				"z": -2.34822155,
				"element": "O" 
			},
			{
				"x": 3.3290992558,
				"y": -1.125999404,
				"z": -1.3769085459,
				"element": "O" 
			},
			{
				"x": 0.8527885691,
				"y": -0.8993569782,
				"z": -0.519700242,
				"element": "C" 
			},
			{
				"x": -0.4310026215,
				"y": -1.4375051726,
				"z": -0.4843799834,
				"element": "C" 
			},
			{
				"x": -1.2978287014,
				"y": -1.0414957652,
				"z": 0.545747458,
				"element": "C" 
			},
			{
				"x": -0.8726047963,
				"y": -0.1271142188,
				"z": 1.5240872749,
				"element": "C" 
			},
			{
				"x": 0.4239531123,
				"y": 0.37752601,
				"z": 1.4652426171,
				"element": "C" 
			},
			{
				"x": 1.0097235246,
				"y": 1.6003786408,
				"z": 2.8001959102,
				"element": "Br" 
			},
			{
				"x": 1.3020896828,
				"y": -0.0014333094,
				"z": 0.4501799809,
				"element": "C" 
			},
			{
				"x": -2.6290884284,
				"y": -1.5739015457,
				"z": 0.6060799284,
				"element": "C" 
			},
			{
				"x": -3.7101104932,
				"y": -1.9992633037,
				"z": 0.6517822789,
				"element": "N" 
			},
			{
				"x": 0.8122960567,
				"y": -0.3721337647,
				"z": -3.5491042512,
				"element": "H" 
			},
			{
				"x": 2.0140608687,
				"y": 0.6546056705,
				"z": -2.9034775723,
				"element": "H" 
			},
			{
				"x": -0.743698384,
				"y": -2.1643285427,
				"z": -1.2252018331,
				"element": "H" 
			},
			{
				"x": -1.5456329753,
				"y": 0.1726912669,
				"z": 2.318067525,
				"element": "H" 
			},
			{
				"x": 2.3195599583,
				"y": 0.3703080886,
				"z": 0.4207135925,
				"element": "H" 
			}
		],
		 "valence_orbital": [ 
			{
				"type": "occ",
				"energy": -0.32565,
				"method": "rhf"
			},
			{
				"type": "occ",
				"energy": -0.32542,
				"method": "rhf"
			},
			{
				"type": "occ",
				"energy": -0.31576,
				"method": "rhf"
			},
			{
				"type": "occ",
				"energy": -0.29664,
				"method": "rhf"
			},
			{
				"type": "occ",
				"energy": -0.28204,
				"method": "rhf"
			},
			{
				"type": "unocc",
				"energy": -0.08634,
				"method": "rhf"
			},
			{
				"type": "unocc",
				"energy": -0.06903,
				"method": "rhf"
			},
			{
				"type": "unocc",
				"energy": -0.0282,
				"method": "rhf"
			},
			{
				"type": "unocc",
				"energy": 0.013,
				"method": "rhf"
			},
			{
				"type": "unocc",
				"energy": 0.0315,
				"method": "rhf"
			}
		],
		"cosmo_sigma_profile": { 
			"-0.025": 0.0,
			"-0.024": 0.0,
			"-0.023": 0.0,
			"-0.022": 0.0,
			"-0.021": 0.0,
			"-0.02": 0.0,
			"-0.019": 0.0,
			"-0.018": 0.0,
			"-0.017": 0.0,
			"-0.016": 1.32860880978,
			"-0.015": 3.41557170641,
			"-0.014": 2.42119678242,
			"-0.013": 3.02910057906,
			"-0.012": 3.2553675125,
			"-0.011": 3.14525078602,
			"-0.01": 3.41269264792,
			"-0.009": 5.41736130445,
			"-0.008": 7.33150367566,
			"-0.007": 7.08649545583,
			"-0.006": 6.26953523068,
			"-0.005": 8.40024874623,
			"-0.004": 10.6561943019,
			"-0.003": 13.7338272201,
			"-0.002": 21.8278184564,
			"-0.001": 18.1004750098,
			"0.0": 9.44571717624,
			"0.001": 8.40487343441,
			"0.002": 10.4666508503,
			"0.003": 14.7571446411,
			"0.004": 8.49309307251,
			"0.005": 5.19284906796,
			"0.006": 6.96876004787,
			"0.007": 7.70587000894,
			"0.008": 7.42062596361,
			"0.009": 8.68109663584,
			"0.01": 11.440789366,
			"0.011": 10.9037049005,
			"0.012": 2.34379141069,
			"0.013": 0.168604096895,
			"0.014": 0.0,
			"0.015": 0.0,
			"0.016": 0.0,
			"0.017": 0.0,
			"0.018": 0.0,
			"0.019": 0.0,
			"0.02": 0.0,
			"0.021": 0.0,
			"0.022": 0.0,
			"0.023": 0.0,
			"0.024": 0.0,
			"0.025": 0.0
		}
	}
}
