{
	 "smiles": "CC1=CC(SC2=CC(=C(O)C(C)=C2)C(C)(C)C)=CC(=C1O)C(C)(C)C", 
	 "Tm": 399.15, 
	 "num_atms": 55, 
	 "gaussian": { 
		 "optdone": 1, 
		 "sigma_profile": "yes", 
		 "theory": "DFT", 
		 "functional": "B3LYP", 
		 "basiset": "6-31G**", 
		 "properties": { 
			 "R2extent": 12486.9751, 
			 "electric_dipole_moment_norm": 3.39387000635, 
			 "electric_quadrupole_moment_norm": 18.0863423964, 
			 "total_energy": -1405.08602351, 
			 "HOMO_LUMO_gap": 0.18671, 
			 "cosmo_polarized_energy": -13.14, 
			 "cosmo_cavitation_energy": 54.77, 
			 "cosmo_dispersion_energy": -35.78, 
			 "cosmo_repulsion_energy": 2.7, 
			 "cosmo_total_nonelectrostatic_energy": 21.69, 
			 "SMD_solvation_energy": 9.25 
		},
		"coords": [
			{
				"x": -2.0571576142,
				"y": 1.1153266715,
				"z": -5.4519817584,
				"element": "C" 
			},
			{
				"x": -0.9898941617,
				"y": 1.389240039,
				"z": -4.4221995304,
				"element": "C" 
			},
			{
				"x": -1.2428003399,
				"y": 2.1796746015,
				"z": -3.3014762501,
				"element": "C" 
			},
			{
				"x": -0.240232339,
				"y": 2.4264892742,
				"z": -2.3612683702,
				"element": "C" 
			},
			{
				"x": -0.5852877852,
				"y": 3.5285805644,
				"z": -0.98677273,
				"element": "S" 
			},
			{
				"x": -0.1276501648,
				"y": 2.5476301967,
				"z": 0.4461354511,
				"element": "C" 
			},
			{
				"x": -0.5813922383,
				"y": 1.2344346882,
				"z": 0.621340582,
				"element": "C" 
			},
			{
				"x": -0.276739986,
				"y": 0.4795418408,
				"z": 1.7590120683,
				"element": "C" 
			},
			{
				"x": 0.4978361504,
				"y": 1.1190471339,
				"z": 2.7557059985,
				"element": "C" 
			},
			{
				"x": 0.8093025853,
				"y": 0.4097428938,
				"z": 3.8917429977,
				"element": "O" 
			},
			{
				"x": 0.9540167218,
				"y": 2.4407809619,
				"z": 2.6125656356,
				"element": "C" 
			},
			{
				"x": 1.7847922681,
				"y": 3.0816787127,
				"z": 3.7015153712,
				"element": "C" 
			},
			{
				"x": 0.6429035049,
				"y": 3.141371851,
				"z": 1.4443597332,
				"element": "C" 
			},
			{
				"x": -0.775565514,
				"y": -0.9728865565,
				"z": 1.9199114793,
				"element": "C" 
			},
			{
				"x": 0.4308802647,
				"y": -1.9347183331,
				"z": 2.0566557501,
				"element": "C" 
			},
			{
				"x": -1.5986072355,
				"y": -1.4356516047,
				"z": 0.7004160642,
				"element": "C" 
			},
			{
				"x": -1.6880437433,
				"y": -1.0880195664,
				"z": 3.1661624072,
				"element": "C" 
			},
			{
				"x": 1.0270001381,
				"y": 1.8669310939,
				"z": -2.5491542645,
				"element": "C" 
			},
			{
				"x": 1.3276309874,
				"y": 1.0440852871,
				"z": -3.6427866775,
				"element": "C" 
			},
			{
				"x": 0.2888292407,
				"y": 0.8250712861,
				"z": -4.5794328039,
				"element": "C" 
			},
			{
				"x": 0.4245110582,
				"y": 0.0538275593,
				"z": -5.7082537221,
				"element": "O" 
			},
			{
				"x": 2.7350744738,
				"y": 0.4237824566,
				"z": -3.8098045077,
				"element": "C" 
			},
			{
				"x": 2.6492532429,
				"y": -1.1261233442,
				"z": -3.7943358042,
				"element": "C" 
			},
			{
				"x": 3.4034345238,
				"y": 0.9308922434,
				"z": -5.1158199107,
				"element": "C" 
			},
			{
				"x": 3.6812845374,
				"y": 0.8172802689,
				"z": -2.6561485778,
				"element": "C" 
			},
			{
				"x": -1.7516528252,
				"y": 1.466448878,
				"z": -6.4437528347,
				"element": "H" 
			},
			{
				"x": -2.9927799647,
				"y": 1.6123345096,
				"z": -5.1831243885,
				"element": "H" 
			},
			{
				"x": -2.2505081528,
				"y": 0.0414929412,
				"z": -5.5496762717,
				"element": "H" 
			},
			{
				"x": -2.2325093819,
				"y": 2.6038715497,
				"z": -3.15942832,
				"element": "H" 
			},
			{
				"x": -1.1832138674,
				"y": 0.7974898708,
				"z": -0.1644792315,
				"element": "H" 
			},
			{
				"x": 1.3205402654,
				"y": 0.9716755009,
				"z": 4.4865093638,
				"element": "H" 
			},
			{
				"x": 1.2408808116,
				"y": 3.1484874363,
				"z": 4.654371988,
				"element": "H" 
			},
			{
				"x": 2.0643620938,
				"y": 4.1006900574,
				"z": 3.4249772741,
				"element": "H" 
			},
			{
				"x": 2.718902861,
				"y": 2.53401355,
				"z": 3.8902574844,
				"element": "H" 
			},
			{
				"x": 1.0099468104,
				"y": 4.1555711156,
				"z": 1.3152373653,
				"element": "H" 
			},
			{
				"x": 1.043633894,
				"y": -1.6944026063,
				"z": 2.926295354,
				"element": "H" 
			},
			{
				"x": 1.064639322,
				"y": -1.8875708836,
				"z": 1.1641776424,
				"element": "H" 
			},
			{
				"x": 0.0755500026,
				"y": -2.9664004363,
				"z": 2.1612860201,
				"element": "H" 
			},
			{
				"x": -1.9233398682,
				"y": -2.4691562941,
				"z": 0.858306107,
				"element": "H" 
			},
			{
				"x": -2.4977579727,
				"y": -0.8280690044,
				"z": 0.5546886359,
				"element": "H" 
			},
			{
				"x": -1.0142888936,
				"y": -1.4120527302,
				"z": -0.2253215412,
				"element": "H" 
			},
			{
				"x": -2.0486927159,
				"y": -2.1179129453,
				"z": 3.2703823241,
				"element": "H" 
			},
			{
				"x": -2.5619196099,
				"y": -0.4352385475,
				"z": 3.0655815288,
				"element": "H" 
			},
			{
				"x": -1.1599389324,
				"y": -0.8166271887,
				"z": 4.0809207575,
				"element": "H" 
			},
			{
				"x": 1.7885644236,
				"y": 2.0798088537,
				"z": -1.8108050398,
				"element": "H" 
			},
			{
				"x": 1.3160450977,
				"y": -0.3044177787,
				"z": -5.7570649691,
				"element": "H" 
			},
			{
				"x": 1.9997205895,
				"y": -1.5480835649,
				"z": -4.5677132631,
				"element": "H" 
			},
			{
				"x": 3.644796546,
				"y": -1.5626672598,
				"z": -3.9298788285,
				"element": "H" 
			},
			{
				"x": 2.2544715107,
				"y": -1.4717193224,
				"z": -2.8340094084,
				"element": "H" 
			},
			{
				"x": 3.5306977802,
				"y": 2.0170209937,
				"z": -5.0764756755,
				"element": "H" 
			},
			{
				"x": 2.8329883607,
				"y": 0.7176135161,
				"z": -6.0252764683,
				"element": "H" 
			},
			{
				"x": 4.3927249944,
				"y": 0.4762341675,
				"z": -5.2368480478,
				"element": "H" 
			},
			{
				"x": 3.8360423465,
				"y": 1.8992732455,
				"z": -2.605437124,
				"element": "H" 
			},
			{
				"x": 3.3065636363,
				"y": 0.4769083923,
				"z": -1.6861853274,
				"element": "H" 
			},
			{
				"x": 4.6590522624,
				"y": 0.3511737639,
				"z": -2.8154037369,
				"element": "H" 
			}
		],
		 "valence_orbital": [ 
			{
				"type": "occ",
				"energy": -0.24959,
				"method": "rhf"
			},
			{
				"type": "occ",
				"energy": -0.23973,
				"method": "rhf"
			},
			{
				"type": "occ",
				"energy": -0.23676,
				"method": "rhf"
			},
			{
				"type": "occ",
				"energy": -0.21806,
				"method": "rhf"
			},
			{
				"type": "occ",
				"energy": -0.18813,
				"method": "rhf"
			},
			{
				"type": "unocc",
				"energy": -0.00142,
				"method": "rhf"
			},
			{
				"type": "unocc",
				"energy": 0.00047,
				"method": "rhf"
			},
			{
				"type": "unocc",
				"energy": 0.00252,
				"method": "rhf"
			},
			{
				"type": "unocc",
				"energy": 0.01189,
				"method": "rhf"
			},
			{
				"type": "unocc",
				"energy": 0.06099,
				"method": "rhf"
			}
		],
		"cosmo_sigma_profile": { 
			"-0.025": 0.0,
			"-0.024": 0.0,
			"-0.023": 0.0,
			"-0.022": 0.0,
			"-0.021": 0.0,
			"-0.02": 0.0,
			"-0.019": 0.0,
			"-0.018": 0.0,
			"-0.017": 0.0,
			"-0.016": 0.253339049582,
			"-0.015": 1.09291616795,
			"-0.014": 1.52041121711,
			"-0.013": 1.30101557031,
			"-0.012": 1.45526248832,
			"-0.011": 1.66111641424,
			"-0.01": 2.38713170292,
			"-0.009": 2.37902859409,
			"-0.008": 2.26335375829,
			"-0.007": 2.47576472838,
			"-0.006": 4.29611403913,
			"-0.005": 11.0478512946,
			"-0.004": 18.9653125459,
			"-0.003": 42.3208353175,
			"-0.002": 50.627300334,
			"-0.001": 47.1781645398,
			"0.0": 54.6526991445,
			"0.001": 50.6858541449,
			"0.002": 33.7239679119,
			"0.003": 23.4959993691,
			"0.004": 24.6965216797,
			"0.005": 24.6906060994,
			"0.006": 11.0786504396,
			"0.007": 5.70708838121,
			"0.008": 4.22312545925,
			"0.009": 3.70747192202,
			"0.01": 1.70820719049,
			"0.011": 0.0902397218621,
			"0.012": 0.0,
			"0.013": 0.0,
			"0.014": 0.0,
			"0.015": 0.0,
			"0.016": 0.0,
			"0.017": 0.0,
			"0.018": 0.0,
			"0.019": 0.0,
			"0.02": 0.0,
			"0.021": 0.0,
			"0.022": 0.0,
			"0.023": 0.0,
			"0.024": 0.0,
			"0.025": 0.0
		}
	}
}
