{
	 "smiles": "CC(C)C1=NC(=CS1)C(O)=O", 
	 "Tm": 330.15, 
	 "num_atms": 20, 
	 "gaussian": { 
		 "optdone": 1, 
		 "sigma_profile": "yes", 
		 "theory": "DFT", 
		 "functional": "B3LYP", 
		 "basiset": "6-31G**", 
		 "properties": { 
			 "R2extent": 3171.3211, 
			 "electric_dipole_moment_norm": 5.56658910016, 
			 "electric_quadrupole_moment_norm": 22.9062836711, 
			 "total_energy": -875.559225889, 
			 "HOMO_LUMO_gap": 0.20622, 
			 "cosmo_polarized_energy": -17.87, 
			 "cosmo_cavitation_energy": 25.79, 
			 "cosmo_dispersion_energy": -19.02, 
			 "cosmo_repulsion_energy": 1.51, 
			 "cosmo_total_nonelectrostatic_energy": 8.28, 
			 "SMD_solvation_energy": 4.13 
		},
		"coords": [
			{
				"x": -0.463305981,
				"y": 0.6029228526,
				"z": 1.7500969715,
				"element": "C" 
			},
			{
				"x": -0.5810648304,
				"y": 0.8809083992,
				"z": 0.242901553,
				"element": "C" 
			},
			{
				"x": 0.1548367665,
				"y": 2.177035173,
				"z": -0.1540029524,
				"element": "C" 
			},
			{
				"x": -0.1168930293,
				"y": -0.2796279465,
				"z": -0.602247306,
				"element": "C" 
			},
			{
				"x": -0.7390992945,
				"y": -0.7065136651,
				"z": -1.6585547548,
				"element": "N" 
			},
			{
				"x": -0.0610243669,
				"y": -1.735323332,
				"z": -2.2740717479,
				"element": "C" 
			},
			{
				"x": 1.1108128667,
				"y": -2.1149997257,
				"z": -1.6682992216,
				"element": "C" 
			},
			{
				"x": 1.3927260046,
				"y": -1.1539442089,
				"z": -0.2621269836,
				"element": "S" 
			},
			{
				"x": -0.6677479622,
				"y": -2.3918850575,
				"z": -3.4747715808,
				"element": "C" 
			},
			{
				"x": 0.2188721042,
				"y": -3.0027980975,
				"z": -4.3117301473,
				"element": "O" 
			},
			{
				"x": -1.8495243216,
				"y": -2.4228951934,
				"z": -3.6994353667,
				"element": "O" 
			},
			{
				"x": -0.8808304319,
				"y": 1.439071974,
				"z": 2.3191866258,
				"element": "H" 
			},
			{
				"x": -1.0019063967,
				"y": -0.3057080531,
				"z": 2.0343442795,
				"element": "H" 
			},
			{
				"x": 0.5828267394,
				"y": 0.4886421094,
				"z": 2.0573974215,
				"element": "H" 
			},
			{
				"x": -1.6396586449,
				"y": 0.9967919812,
				"z": -0.0153205899,
				"element": "H" 
			},
			{
				"x": 0.0395407739,
				"y": 2.3824058657,
				"z": -1.2218346079,
				"element": "H" 
			},
			{
				"x": 1.2254492712,
				"y": 2.1070885592,
				"z": 0.0678605798,
				"element": "H" 
			},
			{
				"x": -0.2505829132,
				"y": 3.0265930487,
				"z": 0.4049090087,
				"element": "H" 
			},
			{
				"x": 1.7746362667,
				"y": -2.9289960827,
				"z": -1.926479868,
				"element": "H" 
			},
			{
				"x": 1.1190373794,
				"y": -2.7178686007,
				"z": -4.1003213128,
				"element": "H" 
			}
		],
		 "valence_orbital": [ 
			{
				"type": "occ",
				"energy": -0.31759,
				"method": "rhf"
			},
			{
				"type": "occ",
				"energy": -0.301,
				"method": "rhf"
			},
			{
				"type": "occ",
				"energy": -0.28587,
				"method": "rhf"
			},
			{
				"type": "occ",
				"energy": -0.27422,
				"method": "rhf"
			},
			{
				"type": "occ",
				"energy": -0.26072,
				"method": "rhf"
			},
			{
				"type": "unocc",
				"energy": -0.0545,
				"method": "rhf"
			},
			{
				"type": "unocc",
				"energy": -0.01186,
				"method": "rhf"
			},
			{
				"type": "unocc",
				"energy": 0.00262,
				"method": "rhf"
			},
			{
				"type": "unocc",
				"energy": 0.05203,
				"method": "rhf"
			},
			{
				"type": "unocc",
				"energy": 0.07738,
				"method": "rhf"
			}
		],
		"cosmo_sigma_profile": { 
			"-0.025": 0.0,
			"-0.024": 0.0,
			"-0.023": 0.0,
			"-0.022": 0.0,
			"-0.021": 0.0,
			"-0.02": 0.0,
			"-0.019": 0.23825366214,
			"-0.018": 1.07461210714,
			"-0.017": 1.13801349017,
			"-0.016": 0.863058737713,
			"-0.015": 1.41192856305,
			"-0.014": 0.511754024977,
			"-0.013": 1.80167308671,
			"-0.012": 1.32497687404,
			"-0.011": 2.5828050028,
			"-0.01": 2.01630396734,
			"-0.009": 1.99899773783,
			"-0.008": 2.36364724562,
			"-0.007": 1.81027462668,
			"-0.006": 2.78762397736,
			"-0.005": 5.71177966811,
			"-0.004": 15.5586801281,
			"-0.003": 20.5890287303,
			"-0.002": 20.6013912983,
			"-0.001": 22.687010673,
			"0.0": 28.699401481,
			"0.001": 15.4630170346,
			"0.002": 7.33044010869,
			"0.003": 4.01172545835,
			"0.004": 2.76701181007,
			"0.005": 3.16187324128,
			"0.006": 2.52416948791,
			"0.007": 3.31677673798,
			"0.008": 3.60987230078,
			"0.009": 4.28156343918,
			"0.01": 6.12556638264,
			"0.011": 6.61808078099,
			"0.012": 5.51506062313,
			"0.013": 3.09764262075,
			"0.014": 1.76291398349,
			"0.015": 0.869256359535,
			"0.016": 0.00192617424805,
			"0.017": 0.0,
			"0.018": 0.0,
			"0.019": 0.0,
			"0.02": 0.0,
			"0.021": 0.0,
			"0.022": 0.0,
			"0.023": 0.0,
			"0.024": 0.0,
			"0.025": 0.0
		}
	}
}
