{
	 "smiles": "COC(=O)C1=C(N)SC2=C1CCC2", 
	 "Tm": 423.15, 
	 "num_atms": 24, 
	 "gaussian": { 
		 "optdone": 1, 
		 "sigma_profile": "yes", 
		 "theory": "DFT", 
		 "functional": "B3LYP", 
		 "basiset": "6-31G**", 
		 "properties": { 
			 "R2extent": 3417.4153, 
			 "electric_dipole_moment_norm": 0.864244323094, 
			 "electric_quadrupole_moment_norm": 6.50913177928, 
			 "total_energy": -952.981895596, 
			 "HOMO_LUMO_gap": 0.17109, 
			 "cosmo_polarized_energy": -8.75, 
			 "cosmo_cavitation_energy": 28.23, 
			 "cosmo_dispersion_energy": -21.64, 
			 "cosmo_repulsion_energy": 1.69, 
			 "cosmo_total_nonelectrostatic_energy": 8.28, 
			 "SMD_solvation_energy": 5.14 
		},
		"coords": [
			{
				"x": -0.8187570519,
				"y": -1.9755349299,
				"z": -2.9500407317,
				"element": "C" 
			},
			{
				"x": -0.213791083,
				"y": -1.2608791749,
				"z": -1.8641437846,
				"element": "O" 
			},
			{
				"x": 0.3163053348,
				"y": -2.034901424,
				"z": -0.8841919654,
				"element": "C" 
			},
			{
				"x": 0.2748969629,
				"y": -3.2642958211,
				"z": -0.9353936131,
				"element": "O" 
			},
			{
				"x": 0.9189273351,
				"y": -1.2623200471,
				"z": 0.1885944341,
				"element": "C" 
			},
			{
				"x": 1.5216475223,
				"y": -1.9108520567,
				"z": 1.270778209,
				"element": "C" 
			},
			{
				"x": 1.5520293828,
				"y": -3.2506216418,
				"z": 1.5034336108,
				"element": "N" 
			},
			{
				"x": 2.2260709218,
				"y": -0.7681307368,
				"z": 2.4093705265,
				"element": "S" 
			},
			{
				"x": 1.7225166065,
				"y": 0.5793963836,
				"z": 1.4019287452,
				"element": "C" 
			},
			{
				"x": 1.0510048283,
				"y": 0.1699629266,
				"z": 0.2979606556,
				"element": "C" 
			},
			{
				"x": 0.5698269904,
				"y": 1.3576954569,
				"z": -0.4980039483,
				"element": "C" 
			},
			{
				"x": 1.3424765992,
				"y": 2.5442767911,
				"z": 0.155475499,
				"element": "C" 
			},
			{
				"x": 1.8031476533,
				"y": 2.0686440111,
				"z": 1.5698194184,
				"element": "C" 
			},
			{
				"x": -1.6377155854,
				"y": -2.6052932619,
				"z": -2.5927937283,
				"element": "H" 
			},
			{
				"x": -0.0855290316,
				"y": -2.6097017264,
				"z": -3.4553464845,
				"element": "H" 
			},
			{
				"x": -1.1944658547,
				"y": -1.2111184336,
				"z": -3.6307276017,
				"element": "H" 
			},
			{
				"x": 1.2269815175,
				"y": -3.8071742412,
				"z": 0.7165419858,
				"element": "H" 
			},
			{
				"x": 2.2667487225,
				"y": -3.6325511141,
				"z": 2.1026242974,
				"element": "H" 
			},
			{
				"x": -0.5180080115,
				"y": 1.4727985464,
				"z": -0.3986853801,
				"element": "H" 
			},
			{
				"x": 0.7734169851,
				"y": 1.2680989559,
				"z": -1.5690375803,
				"element": "H" 
			},
			{
				"x": 2.2283020348,
				"y": 2.7691850716,
				"z": -0.4469631119,
				"element": "H" 
			},
			{
				"x": 0.7425102101,
				"y": 3.4574107901,
				"z": 0.203960871,
				"element": "H" 
			},
			{
				"x": 2.8048731113,
				"y": 2.4374452343,
				"z": 1.8194739363,
				"element": "H" 
			},
			{
				"x": 1.1273838995,
				"y": 2.4252604419,
				"z": 2.3604657408,
				"element": "H" 
			}
		],
		 "valence_orbital": [ 
			{
				"type": "occ",
				"energy": -0.29578,
				"method": "rhf"
			},
			{
				"type": "occ",
				"energy": -0.29173,
				"method": "rhf"
			},
			{
				"type": "occ",
				"energy": -0.26849,
				"method": "rhf"
			},
			{
				"type": "occ",
				"energy": -0.24424,
				"method": "rhf"
			},
			{
				"type": "occ",
				"energy": -0.18708,
				"method": "rhf"
			},
			{
				"type": "unocc",
				"energy": -0.01599,
				"method": "rhf"
			},
			{
				"type": "unocc",
				"energy": 0.01688,
				"method": "rhf"
			},
			{
				"type": "unocc",
				"energy": 0.0261,
				"method": "rhf"
			},
			{
				"type": "unocc",
				"energy": 0.08689,
				"method": "rhf"
			},
			{
				"type": "unocc",
				"energy": 0.09789,
				"method": "rhf"
			}
		],
		"cosmo_sigma_profile": { 
			"-0.025": 0.0,
			"-0.024": 0.0,
			"-0.023": 0.0,
			"-0.022": 0.0,
			"-0.021": 0.0,
			"-0.02": 0.0,
			"-0.019": 0.0,
			"-0.018": 0.0,
			"-0.017": 0.0,
			"-0.016": 0.0,
			"-0.015": 0.300531880191,
			"-0.014": 1.55852236481,
			"-0.013": 1.37419625157,
			"-0.012": 1.10030371131,
			"-0.011": 1.2946486229,
			"-0.01": 1.67900636931,
			"-0.009": 2.34435339556,
			"-0.008": 1.53175098978,
			"-0.007": 1.64537182167,
			"-0.006": 4.36062460655,
			"-0.005": 7.35221328597,
			"-0.004": 11.9177625054,
			"-0.003": 24.6403426476,
			"-0.002": 23.213039745,
			"-0.001": 23.7715291893,
			"0.0": 21.0731627337,
			"0.001": 16.9462241058,
			"0.002": 15.1174736333,
			"0.003": 16.6819041757,
			"0.004": 15.6629508969,
			"0.005": 12.6386698737,
			"0.006": 4.87801838605,
			"0.007": 2.38353996339,
			"0.008": 2.97499923969,
			"0.009": 1.83292944527,
			"0.01": 1.75317259552,
			"0.011": 1.76911825996,
			"0.012": 2.27265238359,
			"0.013": 1.12771469246,
			"0.014": 0.0,
			"0.015": 0.0,
			"0.016": 0.0,
			"0.017": 0.0,
			"0.018": 0.0,
			"0.019": 0.0,
			"0.02": 0.0,
			"0.021": 0.0,
			"0.022": 0.0,
			"0.023": 0.0,
			"0.024": 0.0,
			"0.025": 0.0
		}
	}
}
