{
	 "smiles": "CC1=C(C)C2=C(S1)N=CN=C2SCC(O)=O", 
	 "Tm": 489.15, 
	 "num_atms": 26, 
	 "gaussian": { 
		 "optdone": 1, 
		 "sigma_profile": "yes", 
		 "theory": "DFT", 
		 "functional": "B3LYP", 
		 "basiset": "6-31G**", 
		 "properties": { 
			 "R2extent": 5160.3163, 
			 "electric_dipole_moment_norm": 6.7912386985, 
			 "electric_quadrupole_moment_norm": 22.2445300249, 
			 "total_energy": -1443.43933332, 
			 "HOMO_LUMO_gap": 0.17097, 
			 "cosmo_polarized_energy": -14.69, 
			 "cosmo_cavitation_energy": 32.37, 
			 "cosmo_dispersion_energy": -24.79, 
			 "cosmo_repulsion_energy": 1.81, 
			 "cosmo_total_nonelectrostatic_energy": 9.39, 
			 "SMD_solvation_energy": 4.55 
		},
		"coords": [
			{
				"x": 1.1975289801,
				"y": -4.0249057134,
				"z": 1.2201245274,
				"element": "C" 
			},
			{
				"x": 0.6925854737,
				"y": -2.6141047606,
				"z": 1.2932540819,
				"element": "C" 
			},
			{
				"x": 0.6671317259,
				"y": -1.645808734,
				"z": 0.3238175498,
				"element": "C" 
			},
			{
				"x": 1.1853826766,
				"y": -1.8366254008,
				"z": -1.078098483,
				"element": "C" 
			},
			{
				"x": 0.0891645507,
				"y": -0.4090273426,
				"z": 0.8200061164,
				"element": "C" 
			},
			{
				"x": -0.3063073335,
				"y": -0.4984395725,
				"z": 2.1777291167,
				"element": "C" 
			},
			{
				"x": 0.0188321742,
				"y": -2.0787744916,
				"z": 2.834284282,
				"element": "S" 
			},
			{
				"x": -0.8694122153,
				"y": 0.4744073947,
				"z": 2.9002367912,
				"element": "N" 
			},
			{
				"x": -1.0366030194,
				"y": 1.6103487274,
				"z": 2.2415226055,
				"element": "C" 
			},
			{
				"x": -0.7082411586,
				"y": 1.8448198819,
				"z": 0.9567303086,
				"element": "N" 
			},
			{
				"x": -0.1673668533,
				"y": 0.8552701012,
				"z": 0.2326694222,
				"element": "C" 
			},
			{
				"x": 0.215010744,
				"y": 1.1849606924,
				"z": -1.4703898181,
				"element": "S" 
			},
			{
				"x": -0.7518514621,
				"y": 2.7104035966,
				"z": -1.823047573,
				"element": "C" 
			},
			{
				"x": -0.0744483988,
				"y": 4.0322482772,
				"z": -1.4353747223,
				"element": "C" 
			},
			{
				"x": 0.0624072987,
				"y": 4.2448276044,
				"z": -0.1236380111,
				"element": "O" 
			},
			{
				"x": 0.2818514023,
				"y": 4.8291592553,
				"z": -2.271309139,
				"element": "O" 
			},
			{
				"x": 1.6477692289,
				"y": -4.237845085,
				"z": 0.2495058073,
				"element": "H" 
			},
			{
				"x": 1.9551936144,
				"y": -4.2147892171,
				"z": 1.9884661213,
				"element": "H" 
			},
			{
				"x": 0.3861563783,
				"y": -4.7450612081,
				"z": 1.3767054565,
				"element": "H" 
			},
			{
				"x": 1.6097978302,
				"y": -2.8323644102,
				"z": -1.2141615614,
				"element": "H" 
			},
			{
				"x": 0.3905865673,
				"y": -1.7111794914,
				"z": -1.8198000727,
				"element": "H" 
			},
			{
				"x": 1.970144225,
				"y": -1.1110743224,
				"z": -1.3165602817,
				"element": "H" 
			},
			{
				"x": -1.4761401114,
				"y": 2.444213708,
				"z": 2.7826184424,
				"element": "H" 
			},
			{
				"x": -1.727496191,
				"y": 2.6112036658,
				"z": -1.3393743278,
				"element": "H" 
			},
			{
				"x": -0.8781851801,
				"y": 2.7040602732,
				"z": -2.9059404044,
				"element": "H" 
			},
			{
				"x": -0.2946909468,
				"y": 3.4633765714,
				"z": 0.3754237651,
				"element": "H" 
			}
		],
		 "valence_orbital": [ 
			{
				"type": "occ",
				"energy": -0.28968,
				"method": "rhf"
			},
			{
				"type": "occ",
				"energy": -0.28363,
				"method": "rhf"
			},
			{
				"type": "occ",
				"energy": -0.27641,
				"method": "rhf"
			},
			{
				"type": "occ",
				"energy": -0.25645,
				"method": "rhf"
			},
			{
				"type": "occ",
				"energy": -0.23565,
				"method": "rhf"
			},
			{
				"type": "unocc",
				"energy": -0.06468,
				"method": "rhf"
			},
			{
				"type": "unocc",
				"energy": -0.05408,
				"method": "rhf"
			},
			{
				"type": "unocc",
				"energy": -0.01022,
				"method": "rhf"
			},
			{
				"type": "unocc",
				"energy": -0.00035,
				"method": "rhf"
			},
			{
				"type": "unocc",
				"energy": 0.01262,
				"method": "rhf"
			}
		],
		"cosmo_sigma_profile": { 
			"-0.025": 0.0,
			"-0.024": 0.0,
			"-0.023": 0.0,
			"-0.022": 0.0,
			"-0.021": 0.0,
			"-0.02": 0.0,
			"-0.019": 0.0,
			"-0.018": 0.0,
			"-0.017": 0.0,
			"-0.016": 0.0,
			"-0.015": 0.0,
			"-0.014": 0.0,
			"-0.013": 0.0,
			"-0.012": 0.0,
			"-0.011": 0.0,
			"-0.01": 0.0,
			"-0.009": 2.19521111751,
			"-0.008": 7.36266399164,
			"-0.007": 7.8946249452,
			"-0.006": 10.2442295607,
			"-0.005": 16.7781140533,
			"-0.004": 19.9372341286,
			"-0.003": 22.785134314,
			"-0.002": 26.437223026,
			"-0.001": 31.2547539427,
			"0.0": 22.5507978311,
			"0.001": 19.6674141309,
			"0.002": 16.0442135009,
			"0.003": 11.3410584557,
			"0.004": 7.05430487594,
			"0.005": 4.06991127232,
			"0.006": 3.5954973341,
			"0.007": 3.69514950707,
			"0.008": 3.21391841551,
			"0.009": 3.90456272207,
			"0.01": 5.25020967352,
			"0.011": 6.61176739806,
			"0.012": 7.09066176489,
			"0.013": 3.63610074614,
			"0.014": 0.439062174196,
			"0.015": 0.0,
			"0.016": 0.0,
			"0.017": 0.0,
			"0.018": 0.0,
			"0.019": 0.0,
			"0.02": 0.0,
			"0.021": 0.0,
			"0.022": 0.0,
			"0.023": 0.0,
			"0.024": 0.0,
			"0.025": 0.0
		}
	}
}
