{
	 "smiles": "CN(C)C1=CC=C(C=C1)N=C1SC(=CC(=C1)C1=CC=CC=C1)C1=CC=CC=C1", 
	 "Tm": 421.15, 
	 "num_atms": 50, 
	 "gaussian": { 
		 "optdone": 1, 
		 "sigma_profile": "yes", 
		 "theory": "DFT", 
		 "functional": "B3LYP", 
		 "basiset": "6-31G**", 
		 "properties": { 
			 "R2extent": 17267.1127, 
			 "electric_dipole_moment_norm": 2.08504439521, 
			 "electric_quadrupole_moment_norm": 28.9672670121, 
			 "total_energy": -1473.58580632, 
			 "HOMO_LUMO_gap": 0.10218, 
			 "cosmo_polarized_energy": -13.59, 
			 "cosmo_cavitation_energy": 54.51, 
			 "cosmo_dispersion_energy": -39.39, 
			 "cosmo_repulsion_energy": 2.91, 
			 "cosmo_total_nonelectrostatic_energy": 18.03, 
			 "SMD_solvation_energy": 6.88 
		},
		"coords": [
			{
				"x": 2.5231120764,
				"y": -5.8537828701,
				"z": 2.9926582186,
				"element": "C" 
			},
			{
				"x": 1.2419225049,
				"y": -5.2583362877,
				"z": 2.6545700019,
				"element": "N" 
			},
			{
				"x": 0.1896251043,
				"y": -6.1347415353,
				"z": 2.1704340198,
				"element": "C" 
			},
			{
				"x": 1.1816954215,
				"y": -3.8994602343,
				"z": 2.3588432994,
				"element": "C" 
			},
			{
				"x": 0.0180102588,
				"y": -3.3123350967,
				"z": 1.8152147853,
				"element": "C" 
			},
			{
				"x": -0.0456466119,
				"y": -1.9519344607,
				"z": 1.5310053556,
				"element": "C" 
			},
			{
				"x": 1.0461496356,
				"y": -1.0973034289,
				"z": 1.7777150227,
				"element": "C" 
			},
			{
				"x": 2.1936851004,
				"y": -1.6798279576,
				"z": 2.3506770793,
				"element": "C" 
			},
			{
				"x": 2.2761205024,
				"y": -3.0384861922,
				"z": 2.6126963504,
				"element": "C" 
			},
			{
				"x": 1.0748334187,
				"y": 0.2819275724,
				"z": 1.5822623776,
				"element": "N" 
			},
			{
				"x": 0.500029089,
				"y": 0.9700421391,
				"z": 0.6604991606,
				"element": "C" 
			},
			{
				"x": -0.4866598956,
				"y": 0.2358108354,
				"z": -0.6918564838,
				"element": "S" 
			},
			{
				"x": -0.8172568419,
				"y": 1.591620857,
				"z": -1.7740122522,
				"element": "C" 
			},
			{
				"x": -0.46412605,
				"y": 2.8699191021,
				"z": -1.4848731856,
				"element": "C" 
			},
			{
				"x": 0.2197590848,
				"y": 3.2937961836,
				"z": -0.2838376381,
				"element": "C" 
			},
			{
				"x": 0.6442522604,
				"y": 2.4087279279,
				"z": 0.6670308682,
				"element": "C" 
			},
			{
				"x": 0.4862842835,
				"y": 4.7467407063,
				"z": -0.1061472109,
				"element": "C" 
			},
			{
				"x": 0.3611688736,
				"y": 5.3522071426,
				"z": 1.1563064058,
				"element": "C" 
			},
			{
				"x": 0.6210987309,
				"y": 6.7108002994,
				"z": 1.3270898307,
				"element": "C" 
			},
			{
				"x": 1.0096264953,
				"y": 7.495329744,
				"z": 0.2392172383,
				"element": "C" 
			},
			{
				"x": 1.1350241875,
				"y": 6.9085888696,
				"z": -1.0212280897,
				"element": "C" 
			},
			{
				"x": 0.872518464,
				"y": 5.5500676859,
				"z": -1.1932242068,
				"element": "C" 
			},
			{
				"x": -1.5533850127,
				"y": 1.2280087411,
				"z": -3.0080527312,
				"element": "C" 
			},
			{
				"x": -2.5661105941,
				"y": 2.0712865211,
				"z": -3.5006886945,
				"element": "C" 
			},
			{
				"x": -3.2493524143,
				"y": 1.7538770045,
				"z": -4.67251773,
				"element": "C" 
			},
			{
				"x": -2.9434290416,
				"y": 0.5835868774,
				"z": -5.3707924232,
				"element": "C" 
			},
			{
				"x": -1.9484912863,
				"y": -0.2671711393,
				"z": -4.8862564407,
				"element": "C" 
			},
			{
				"x": -1.2604978951,
				"y": 0.0486093206,
				"z": -3.7157057089,
				"element": "C" 
			},
			{
				"x": 2.9456820991,
				"y": -5.3938009172,
				"z": 3.8930549691,
				"element": "H" 
			},
			{
				"x": 2.3791156826,
				"y": -6.9143476691,
				"z": 3.2059933713,
				"element": "H" 
			},
			{
				"x": 3.2677622235,
				"y": -5.7630893243,
				"z": 2.1856040448,
				"element": "H" 
			},
			{
				"x": -0.7841332541,
				"y": -5.8448565603,
				"z": 2.5814306915,
				"element": "H" 
			},
			{
				"x": 0.1042802985,
				"y": -6.1400092869,
				"z": 1.0719228482,
				"element": "H" 
			},
			{
				"x": 0.3925612257,
				"y": -7.1545339089,
				"z": 2.5018956831,
				"element": "H" 
			},
			{
				"x": -0.8562313939,
				"y": -3.9181299295,
				"z": 1.6103826763,
				"element": "H" 
			},
			{
				"x": -0.9780379917,
				"y": -1.5513175106,
				"z": 1.1491817756,
				"element": "H" 
			},
			{
				"x": 3.0360943531,
				"y": -1.0315967691,
				"z": 2.5714712651,
				"element": "H" 
			},
			{
				"x": 3.1962169211,
				"y": -3.4294836393,
				"z": 3.0295502012,
				"element": "H" 
			},
			{
				"x": -0.7240019065,
				"y": 3.6348436599,
				"z": -2.2094576992,
				"element": "H" 
			},
			{
				"x": 1.206630919,
				"y": 2.7705625755,
				"z": 1.5219391068,
				"element": "H" 
			},
			{
				"x": 0.0339488577,
				"y": 4.7550288868,
				"z": 2.0019594213,
				"element": "H" 
			},
			{
				"x": 0.5099162607,
				"y": 7.1592801069,
				"z": 2.3102458895,
				"element": "H" 
			},
			{
				"x": 1.2099437119,
				"y": 8.5545061124,
				"z": 0.3720813421,
				"element": "H" 
			},
			{
				"x": 1.4441539564,
				"y": 7.5078243786,
				"z": -1.8729972667,
				"element": "H" 
			},
			{
				"x": 0.9983621958,
				"y": 5.1022394111,
				"z": -2.1745483135,
				"element": "H" 
			},
			{
				"x": -2.8316950372,
				"y": 2.9649007671,
				"z": -2.9447270813,
				"element": "H" 
			},
			{
				"x": -4.0318231196,
				"y": 2.4153084614,
				"z": -5.0333395444,
				"element": "H" 
			},
			{
				"x": -3.4799248113,
				"y": 0.3346759335,
				"z": -6.2817109521,
				"element": "H" 
			},
			{
				"x": -1.7010684543,
				"y": -1.1780833062,
				"z": -5.4236516431,
				"element": "H" 
			},
			{
				"x": -0.4760125856,
				"y": -0.610089799,
				"z": -3.3568080043,
				"element": "H" 
			}
		],
		 "valence_orbital": [ 
			{
				"type": "occ",
				"energy": -0.24079,
				"method": "rhf"
			},
			{
				"type": "occ",
				"energy": -0.23771,
				"method": "rhf"
			},
			{
				"type": "occ",
				"energy": -0.23614,
				"method": "rhf"
			},
			{
				"type": "occ",
				"energy": -0.20823,
				"method": "rhf"
			},
			{
				"type": "occ",
				"energy": -0.16679,
				"method": "rhf"
			},
			{
				"type": "unocc",
				"energy": -0.06461,
				"method": "rhf"
			},
			{
				"type": "unocc",
				"energy": -0.02324,
				"method": "rhf"
			},
			{
				"type": "unocc",
				"energy": -0.00865,
				"method": "rhf"
			},
			{
				"type": "unocc",
				"energy": -0.00407,
				"method": "rhf"
			},
			{
				"type": "unocc",
				"energy": 0.00569,
				"method": "rhf"
			}
		],
		"cosmo_sigma_profile": { 
			"-0.025": 0.0,
			"-0.024": 0.0,
			"-0.023": 0.0,
			"-0.022": 0.0,
			"-0.021": 0.0,
			"-0.02": 0.0,
			"-0.019": 0.0,
			"-0.018": 0.0,
			"-0.017": 0.0,
			"-0.016": 0.0,
			"-0.015": 0.0,
			"-0.014": 0.0,
			"-0.013": 0.0,
			"-0.012": 0.0,
			"-0.011": 0.0,
			"-0.01": 0.0,
			"-0.009": 0.0,
			"-0.008": 0.0,
			"-0.007": 2.09034834483,
			"-0.006": 23.2243613646,
			"-0.005": 35.1176360424,
			"-0.004": 40.2514145079,
			"-0.003": 39.9056867057,
			"-0.002": 37.212344086,
			"-0.001": 35.5472334771,
			"0.0": 27.5088095515,
			"0.001": 32.0459528411,
			"0.002": 37.2810854015,
			"0.003": 34.2969132872,
			"0.004": 31.9308112068,
			"0.005": 31.2356706282,
			"0.006": 16.0155795213,
			"0.007": 6.20241129126,
			"0.008": 2.17280971267,
			"0.009": 1.50514847296,
			"0.01": 1.10954805076,
			"0.011": 1.03438491568,
			"0.012": 0.766784482995,
			"0.013": 1.08630913502,
			"0.014": 0.381248988382,
			"0.015": 0.0320378762123,
			"0.016": 0.0,
			"0.017": 0.0,
			"0.018": 0.0,
			"0.019": 0.0,
			"0.02": 0.0,
			"0.021": 0.0,
			"0.022": 0.0,
			"0.023": 0.0,
			"0.024": 0.0,
			"0.025": 0.0
		}
	}
}
