{
	 "smiles": "CC(C)(C)C", 
	 "Tm": 256.45, 
	 "num_atms": 17, 
	 "gaussian": { 
		 "optdone": 1, 
		 "sigma_profile": "yes", 
		 "theory": "DFT", 
		 "functional": "B3LYP", 
		 "basiset": "6-31G**", 
		 "properties": { 
			 "R2extent": 766.4036, 
			 "electric_dipole_moment_norm": 0.0, 
			 "electric_quadrupole_moment_norm": 0.000141421356237, 
			 "total_energy": -197.786128062, 
			 "HOMO_LUMO_gap": 0.39051, 
			 "cosmo_polarized_energy": -0.56, 
			 "cosmo_cavitation_energy": 18.07, 
			 "cosmo_dispersion_energy": -13.06, 
			 "cosmo_repulsion_energy": 1.13, 
			 "cosmo_total_nonelectrostatic_energy": 6.15, 
			 "SMD_solvation_energy": 3.48 
		},
		"coords": [
			{
				"x": 0.9510138835,
				"y": 0.9069597846,
				"z": 1.8365015191,
				"element": "C" 
			},
			{
				"x": 1.1779332415,
				"y": 0.5974975621,
				"z": 0.3446049969,
				"element": "C" 
			},
			{
				"x": 0.7743061994,
				"y": 1.8204543431,
				"z": -0.5006748943,
				"element": "C" 
			},
			{
				"x": 0.320444145,
				"y": -0.6150877967,
				"z": -0.0644722707,
				"element": "C" 
			},
			{
				"x": 2.6660024251,
				"y": 0.2776749923,
				"z": 0.1070586279,
				"element": "C" 
			},
			{
				"x": -0.1013264457,
				"y": 1.1390302823,
				"z": 2.0371048495,
				"element": "H" 
			},
			{
				"x": 1.2299287148,
				"y": 0.0531956093,
				"z": 2.4648363162,
				"element": "H" 
			},
			{
				"x": 1.5494406465,
				"y": 1.7672432426,
				"z": 2.1579210199,
				"element": "H" 
			},
			{
				"x": -0.2820054599,
				"y": 2.0729555595,
				"z": -0.3524970579,
				"element": "H" 
			},
			{
				"x": 0.9250125012,
				"y": 1.6301062935,
				"z": -1.5695854085,
				"element": "H" 
			},
			{
				"x": 1.3687231149,
				"y": 2.701259442,
				"z": -0.231667502,
				"element": "H" 
			},
			{
				"x": 0.5853374649,
				"y": -1.5029563866,
				"z": 0.5212208876,
				"element": "H" 
			},
			{
				"x": -0.7460432506,
				"y": -0.41723129,
				"z": 0.0935662645,
				"element": "H" 
			},
			{
				"x": 0.4608781074,
				"y": -0.8600734826,
				"z": -1.1236081363,
				"element": "H" 
			},
			{
				"x": 3.3028289163,
				"y": 1.1239304071,
				"z": 0.3895669282,
				"element": "H" 
			},
			{
				"x": 2.983502225,
				"y": -0.5901306901,
				"z": 0.6966507307,
				"element": "H" 
			},
			{
				"x": 2.8590235709,
				"y": 0.0526721276,
				"z": -0.9482268709,
				"element": "H" 
			}
		],
		 "valence_orbital": [ 
			{
				"type": "occ",
				"energy": -0.35768,
				"method": "rhf"
			},
			{
				"type": "occ",
				"energy": -0.35767,
				"method": "rhf"
			},
			{
				"type": "occ",
				"energy": -0.31466,
				"method": "rhf"
			},
			{
				"type": "occ",
				"energy": -0.31466,
				"method": "rhf"
			},
			{
				"type": "occ",
				"energy": -0.31465,
				"method": "rhf"
			},
			{
				"type": "unocc",
				"energy": 0.07586,
				"method": "rhf"
			},
			{
				"type": "unocc",
				"energy": 0.13978,
				"method": "rhf"
			},
			{
				"type": "unocc",
				"energy": 0.13978,
				"method": "rhf"
			},
			{
				"type": "unocc",
				"energy": 0.13978,
				"method": "rhf"
			},
			{
				"type": "unocc",
				"energy": 0.16484,
				"method": "rhf"
			}
		],
		"cosmo_sigma_profile": { 
			"-0.025": 0.0,
			"-0.024": 0.0,
			"-0.023": 0.0,
			"-0.022": 0.0,
			"-0.021": 0.0,
			"-0.02": 0.0,
			"-0.019": 0.0,
			"-0.018": 0.0,
			"-0.017": 0.0,
			"-0.016": 0.0,
			"-0.015": 0.0,
			"-0.014": 0.0,
			"-0.013": 0.0,
			"-0.012": 0.0,
			"-0.011": 0.0,
			"-0.01": 0.0,
			"-0.009": 0.0,
			"-0.008": 0.0,
			"-0.007": 0.0,
			"-0.006": 0.0,
			"-0.005": 0.0,
			"-0.004": 0.0,
			"-0.003": 2.48003720299,
			"-0.002": 23.7391133348,
			"-0.001": 31.0258690227,
			"0.0": 25.7267125047,
			"0.001": 25.0808171718,
			"0.002": 27.8540025718,
			"0.003": 2.28082517131,
			"0.004": 0.0,
			"0.005": 0.0,
			"0.006": 0.0,
			"0.007": 0.0,
			"0.008": 0.0,
			"0.009": 0.0,
			"0.01": 0.0,
			"0.011": 0.0,
			"0.012": 0.0,
			"0.013": 0.0,
			"0.014": 0.0,
			"0.015": 0.0,
			"0.016": 0.0,
			"0.017": 0.0,
			"0.018": 0.0,
			"0.019": 0.0,
			"0.02": 0.0,
			"0.021": 0.0,
			"0.022": 0.0,
			"0.023": 0.0,
			"0.024": 0.0,
			"0.025": 0.0
		}
	}
}
