{
	 "smiles": "BrC(C(=O)C(=O)C(Br)C1=CC=CC=C1)C1=CC=CC=C1", 
	 "Tm": 397.15, 
	 "num_atms": 32, 
	 "gaussian": { 
		 "optdone": 1, 
		 "sigma_profile": "yes", 
		 "theory": "DFT", 
		 "functional": "B3LYP", 
		 "basiset": "6-31G**", 
		 "properties": { 
			 "R2extent": 9096.2051, 
			 "electric_dipole_moment_norm": 4.00228163052, 
			 "electric_quadrupole_moment_norm": 10.9085461749, 
			 "total_energy": -5910.17144303, 
			 "HOMO_LUMO_gap": 0.14099, 
			 "cosmo_polarized_energy": -12.4, 
			 "cosmo_cavitation_energy": 42.08, 
			 "cosmo_dispersion_energy": -27.48, 
			 "cosmo_repulsion_energy": 2.18, 
			 "cosmo_total_nonelectrostatic_energy": 16.78, 
			 "SMD_solvation_energy": 5.55 
		},
		"coords": [
			{
				"x": 0.9452867474,
				"y": -2.0590405062,
				"z": 3.6588754697,
				"element": "Br" 
			},
			{
				"x": 1.251378683,
				"y": -1.576546152,
				"z": 1.7590357609,
				"element": "C" 
			},
			{
				"x": 1.0248871315,
				"y": -0.0811174044,
				"z": 1.5594572076,
				"element": "C" 
			},
			{
				"x": 0.249707896,
				"y": 0.6067961096,
				"z": 2.1852203391,
				"element": "O" 
			},
			{
				"x": 1.8779903254,
				"y": 0.5433830897,
				"z": 0.4152415293,
				"element": "C" 
			},
			{
				"x": 2.7753348078,
				"y": -0.0925414261,
				"z": -0.090873065,
				"element": "O" 
			},
			{
				"x": 1.4494234135,
				"y": 1.9523320876,
				"z": 0.0171752476,
				"element": "C" 
			},
			{
				"x": 3.0175158542,
				"y": 2.9749784597,
				"z": -0.6402376069,
				"element": "Br" 
			},
			{
				"x": 0.3389084561,
				"y": 1.8838185481,
				"z": -1.0058593137,
				"element": "C" 
			},
			{
				"x": 0.5167363623,
				"y": 1.1994832935,
				"z": -2.2174022306,
				"element": "C" 
			},
			{
				"x": -0.5244836247,
				"y": 1.1290717673,
				"z": -3.1399080344,
				"element": "C" 
			},
			{
				"x": -1.753225029,
				"y": 1.7336953512,
				"z": -2.8605478196,
				"element": "C" 
			},
			{
				"x": -1.9373317724,
				"y": 2.4092888696,
				"z": -1.6533277215,
				"element": "C" 
			},
			{
				"x": -0.8962113864,
				"y": 2.4823088206,
				"z": -0.7273829521,
				"element": "C" 
			},
			{
				"x": 0.3671463736,
				"y": -2.3616397456,
				"z": 0.8174713395,
				"element": "C" 
			},
			{
				"x": 0.9478218927,
				"y": -3.2367911065,
				"z": -0.1088980931,
				"element": "C" 
			},
			{
				"x": 0.1456649634,
				"y": -3.9519400251,
				"z": -0.9986955539,
				"element": "C" 
			},
			{
				"x": -1.2406660064,
				"y": -3.7935151299,
				"z": -0.9725567234,
				"element": "C" 
			},
			{
				"x": -1.8241495257,
				"y": -2.9161249879,
				"z": -0.0543424666,
				"element": "C" 
			},
			{
				"x": -1.0261808153,
				"y": -2.200141261,
				"z": 0.8349120684,
				"element": "C" 
			},
			{
				"x": 2.2971250268,
				"y": -1.8048852466,
				"z": 1.5652164747,
				"element": "H" 
			},
			{
				"x": 1.1072483115,
				"y": 2.4818005242,
				"z": 0.9036329386,
				"element": "H" 
			},
			{
				"x": 1.4747389543,
				"y": 0.7372783122,
				"z": -2.4353799572,
				"element": "H" 
			},
			{
				"x": -0.3776442927,
				"y": 0.6017276882,
				"z": -4.0777629605,
				"element": "H" 
			},
			{
				"x": -2.5631800551,
				"y": 1.6780642661,
				"z": -3.5819873184,
				"element": "H" 
			},
			{
				"x": -2.8898995046,
				"y": 2.8809423253,
				"z": -1.4308955309,
				"element": "H" 
			},
			{
				"x": -1.0410700122,
				"y": 3.0037575612,
				"z": 0.214415065,
				"element": "H" 
			},
			{
				"x": 2.0272002292,
				"y": -3.3560732929,
				"z": -0.1327564598,
				"element": "H" 
			},
			{
				"x": 0.6045576271,
				"y": -4.6322784758,
				"z": -1.7099456862,
				"element": "H" 
			},
			{
				"x": -1.8652321595,
				"y": -4.3512602677,
				"z": -1.6642465616,
				"element": "H" 
			},
			{
				"x": -2.9024189885,
				"y": -2.7894725251,
				"z": -0.0314982518,
				"element": "H" 
			},
			{
				"x": -1.4776798834,
				"y": -1.5238595216,
				"z": 1.5544508671,
				"element": "H" 
			}
		],
		 "valence_orbital": [ 
			{
				"type": "occ",
				"energy": -0.26745,
				"method": "rhf"
			},
			{
				"type": "occ",
				"energy": -0.26494,
				"method": "rhf"
			},
			{
				"type": "occ",
				"energy": -0.26266,
				"method": "rhf"
			},
			{
				"type": "occ",
				"energy": -0.25748,
				"method": "rhf"
			},
			{
				"type": "occ",
				"energy": -0.25087,
				"method": "rhf"
			},
			{
				"type": "unocc",
				"energy": -0.10988,
				"method": "rhf"
			},
			{
				"type": "unocc",
				"energy": -0.04896,
				"method": "rhf"
			},
			{
				"type": "unocc",
				"energy": -0.03217,
				"method": "rhf"
			},
			{
				"type": "unocc",
				"energy": -0.01709,
				"method": "rhf"
			},
			{
				"type": "unocc",
				"energy": -0.0135,
				"method": "rhf"
			}
		],
		"cosmo_sigma_profile": { 
			"-0.025": 0.0,
			"-0.024": 0.0,
			"-0.023": 0.0,
			"-0.022": 0.0,
			"-0.021": 0.0,
			"-0.02": 0.0,
			"-0.019": 0.0,
			"-0.018": 0.0,
			"-0.017": 0.0,
			"-0.016": 0.0,
			"-0.015": 0.0,
			"-0.014": 0.0,
			"-0.013": 0.0,
			"-0.012": 0.0,
			"-0.011": 0.0,
			"-0.01": 1.23690099086,
			"-0.009": 4.32549577568,
			"-0.008": 5.5098169876,
			"-0.007": 9.35467333511,
			"-0.006": 22.1303388192,
			"-0.005": 22.8397929772,
			"-0.004": 26.2124341746,
			"-0.003": 20.0878995667,
			"-0.002": 21.8887044613,
			"-0.001": 19.8528709325,
			"0.0": 21.3613172178,
			"0.001": 22.9143767112,
			"0.002": 27.1390351138,
			"0.003": 28.0652072062,
			"0.004": 40.5620697518,
			"0.005": 25.1760501453,
			"0.006": 6.88398939761,
			"0.007": 5.31880618416,
			"0.008": 5.11380694272,
			"0.009": 5.18752763101,
			"0.01": 2.38397320638,
			"0.011": 0.0627794931831,
			"0.012": 0.0,
			"0.013": 0.0,
			"0.014": 0.0,
			"0.015": 0.0,
			"0.016": 0.0,
			"0.017": 0.0,
			"0.018": 0.0,
			"0.019": 0.0,
			"0.02": 0.0,
			"0.021": 0.0,
			"0.022": 0.0,
			"0.023": 0.0,
			"0.024": 0.0,
			"0.025": 0.0
		}
	}
}
