{
	 "smiles": "C[C@@H]1[C@@H]2CC[C@@H]3C([C@@H]2O)([C@H](O)C[C@@H]2C(C)(C)C[C@@H](O)C[C@@]32C)C1=O", 
	 "Tm": 650.15, 
	 "num_atms": 56, 
	 "gaussian": { 
		 "optdone": 1, 
		 "sigma_profile": "yes", 
		 "theory": "DFT", 
		 "functional": "B3LYP", 
		 "basiset": "6-31G**", 
		 "properties": { 
			 "R2extent": 7872.4916, 
			 "electric_dipole_moment_norm": 2.84753254064, 
			 "electric_quadrupole_moment_norm": 14.1913803744, 
			 "total_energy": -1082.29973547, 
			 "HOMO_LUMO_gap": 0.21875, 
			 "cosmo_polarized_energy": -17.53, 
			 "cosmo_cavitation_energy": 46.36, 
			 "cosmo_dispersion_energy": -32.6, 
			 "cosmo_repulsion_energy": 2.38, 
			 "cosmo_total_nonelectrostatic_energy": 16.15, 
			 "SMD_solvation_energy": 7.31 
		},
		"coords": [
			{
				"x": 2.2878481068,
				"y": -0.0322660013,
				"z": 4.2209089801,
				"element": "C" 
			},
			{
				"x": 2.4775697513,
				"y": -0.8556891,
				"z": 2.9471444828,
				"element": "C" 
			},
			{
				"x": 3.5938153062,
				"y": -0.4813799492,
				"z": 1.9324790304,
				"element": "C" 
			},
			{
				"x": 3.7032492517,
				"y": 1.0290655419,
				"z": 1.5883577219,
				"element": "C" 
			},
			{
				"x": 2.8838702457,
				"y": 1.4231307601,
				"z": 0.3380634936,
				"element": "C" 
			},
			{
				"x": 1.4986806528,
				"y": 0.7443693156,
				"z": 0.3012628215,
				"element": "C" 
			},
			{
				"x": 1.6319451724,
				"y": -0.8164419176,
				"z": 0.5963553415,
				"element": "C" 
			},
			{
				"x": 3.1310958969,
				"y": -1.2324422501,
				"z": 0.671624199,
				"element": "C" 
			},
			{
				"x": 3.2773878624,
				"y": -2.6299263297,
				"z": 0.8844490166,
				"element": "O" 
			},
			{
				"x": 0.7892611427,
				"y": -1.7758339196,
				"z": -0.2704044368,
				"element": "C" 
			},
			{
				"x": 1.6591429639,
				"y": -2.2709384574,
				"z": -1.3220045975,
				"element": "O" 
			},
			{
				"x": -0.5252841341,
				"y": -1.2018597851,
				"z": -0.8469135096,
				"element": "C" 
			},
			{
				"x": -0.7351903558,
				"y": 0.3207076903,
				"z": -0.7195453483,
				"element": "C" 
			},
			{
				"x": -2.0128921704,
				"y": 0.8164994532,
				"z": -1.4957949255,
				"element": "C" 
			},
			{
				"x": -3.2686049709,
				"y": 0.1908811289,
				"z": -0.8446998324,
				"element": "C" 
			},
			{
				"x": -2.0514160273,
				"y": 0.4504952119,
				"z": -2.9977934697,
				"element": "C" 
			},
			{
				"x": -2.1311795187,
				"y": 2.3504034325,
				"z": -1.3337991675,
				"element": "C" 
			},
			{
				"x": -0.8657444143,
				"y": 3.1051781261,
				"z": -1.7157468843,
				"element": "C" 
			},
			{
				"x": -1.1357683071,
				"y": 4.4927013689,
				"z": -1.5059141027,
				"element": "O" 
			},
			{
				"x": 0.3059511336,
				"y": 2.6367517413,
				"z": -0.8502271645,
				"element": "C" 
			},
			{
				"x": 0.6002198164,
				"y": 1.1140579994,
				"z": -0.9329214054,
				"element": "C" 
			},
			{
				"x": 1.3170718293,
				"y": 0.8045954837,
				"z": -2.266572444,
				"element": "C" 
			},
			{
				"x": 1.2224343622,
				"y": -0.9521265379,
				"z": 2.0756691911,
				"element": "C" 
			},
			{
				"x": 0.0851729467,
				"y": -1.0998298322,
				"z": 2.4781463392,
				"element": "O" 
			},
			{
				"x": 1.4432500434,
				"y": -0.4322449296,
				"z": 4.7887673689,
				"element": "H" 
			},
			{
				"x": 3.1800456047,
				"y": -0.0718981004,
				"z": 4.8539533081,
				"element": "H" 
			},
			{
				"x": 2.0687373126,
				"y": 1.0188764493,
				"z": 4.0100452293,
				"element": "H" 
			},
			{
				"x": 2.6710254556,
				"y": -1.8973026768,
				"z": 3.2389896164,
				"element": "H" 
			},
			{
				"x": 4.5605840283,
				"y": -0.8630183065,
				"z": 2.2730803692,
				"element": "H" 
			},
			{
				"x": 4.7536117855,
				"y": 1.2850597413,
				"z": 1.4109231652,
				"element": "H" 
			},
			{
				"x": 3.3893203081,
				"y": 1.6350852622,
				"z": 2.4445391755,
				"element": "H" 
			},
			{
				"x": 2.7612757356,
				"y": 2.5103575262,
				"z": 0.3185304016,
				"element": "H" 
			},
			{
				"x": 3.4538432279,
				"y": 1.1675183142,
				"z": -0.5603505907,
				"element": "H" 
			},
			{
				"x": 0.9438132726,
				"y": 1.1642904477,
				"z": 1.1514931473,
				"element": "H" 
			},
			{
				"x": 3.6893128051,
				"y": -0.9301612081,
				"z": -0.220244327,
				"element": "H" 
			},
			{
				"x": 2.966695343,
				"y": -3.0343892066,
				"z": 0.0590597311,
				"element": "H" 
			},
			{
				"x": 0.534346313,
				"y": -2.6312279557,
				"z": 0.3662126697,
				"element": "H" 
			},
			{
				"x": 1.1414347054,
				"y": -2.8861079731,
				"z": -1.8579870569,
				"element": "H" 
			},
			{
				"x": -1.3608077987,
				"y": -1.7074637967,
				"z": -0.3561924654,
				"element": "H" 
			},
			{
				"x": -0.562915348,
				"y": -1.494570153,
				"z": -1.9025823621,
				"element": "H" 
			},
			{
				"x": -0.9867555927,
				"y": 0.4998318944,
				"z": 0.335733674,
				"element": "H" 
			},
			{
				"x": -4.1751412317,
				"y": 0.6386025514,
				"z": -1.2671074087,
				"element": "H" 
			},
			{
				"x": -3.2851471352,
				"y": 0.3618903891,
				"z": 0.2371773449,
				"element": "H" 
			},
			{
				"x": -3.3299468378,
				"y": -0.8881687763,
				"z": -1.0168376985,
				"element": "H" 
			},
			{
				"x": -1.2464476083,
				"y": 0.9050324333,
				"z": -3.5782940384,
				"element": "H" 
			},
			{
				"x": -2.9967682636,
				"y": 0.7966232416,
				"z": -3.4305131249,
				"element": "H" 
			},
			{
				"x": -2.0056084504,
				"y": -0.6309564032,
				"z": -3.1582929338,
				"element": "H" 
			},
			{
				"x": -2.3538998774,
				"y": 2.5939274395,
				"z": -0.2861507838,
				"element": "H" 
			},
			{
				"x": -2.9729729632,
				"y": 2.7253762738,
				"z": -1.9278842591,
				"element": "H" 
			},
			{
				"x": -0.63806663,
				"y": 2.9341957177,
				"z": -2.7795730384,
				"element": "H" 
			},
			{
				"x": -0.3366503212,
				"y": 4.9860693728,
				"z": -1.7329476552,
				"element": "H" 
			},
			{
				"x": 1.2060260401,
				"y": 3.2029174209,
				"z": -1.1246210625,
				"element": "H" 
			},
			{
				"x": 0.0611181585,
				"y": 2.9149668816,
				"z": 0.1838060902,
				"element": "H" 
			},
			{
				"x": 1.5934930857,
				"y": -0.2475474899,
				"z": -2.35347567,
				"element": "H" 
			},
			{
				"x": 2.2337309432,
				"y": 1.3972826585,
				"z": -2.3507634166,
				"element": "H" 
			},
			{
				"x": 0.7000273477,
				"y": 1.0631497865,
				"z": -3.1293167289,
				"element": "H" 
			}
		],
		 "valence_orbital": [ 
			{
				"type": "occ",
				"energy": -0.27866,
				"method": "rhf"
			},
			{
				"type": "occ",
				"energy": -0.27501,
				"method": "rhf"
			},
			{
				"type": "occ",
				"energy": -0.26357,
				"method": "rhf"
			},
			{
				"type": "occ",
				"energy": -0.2525,
				"method": "rhf"
			},
			{
				"type": "occ",
				"energy": -0.22883,
				"method": "rhf"
			},
			{
				"type": "unocc",
				"energy": -0.01008,
				"method": "rhf"
			},
			{
				"type": "unocc",
				"energy": 0.05626,
				"method": "rhf"
			},
			{
				"type": "unocc",
				"energy": 0.07069,
				"method": "rhf"
			},
			{
				"type": "unocc",
				"energy": 0.07807,
				"method": "rhf"
			},
			{
				"type": "unocc",
				"energy": 0.08288,
				"method": "rhf"
			}
		],
		"cosmo_sigma_profile": { 
			"-0.025": 0.0,
			"-0.024": 0.0,
			"-0.023": 0.0,
			"-0.022": 0.0,
			"-0.021": 0.0,
			"-0.02": 0.0,
			"-0.019": 0.0,
			"-0.018": 0.0,
			"-0.017": 0.0,
			"-0.016": 0.495048888437,
			"-0.015": 1.16498796417,
			"-0.014": 2.43277020527,
			"-0.013": 2.05109252671,
			"-0.012": 1.44347627713,
			"-0.011": 1.61741703661,
			"-0.01": 1.86839353534,
			"-0.009": 2.35001481312,
			"-0.008": 3.30829570282,
			"-0.007": 2.23709946584,
			"-0.006": 3.06055602477,
			"-0.005": 7.20224981518,
			"-0.004": 16.4835604582,
			"-0.003": 39.7682574617,
			"-0.002": 59.1081072811,
			"-0.001": 47.8483484752,
			"0.0": 40.6803243516,
			"0.001": 35.0374929459,
			"0.002": 20.3409850048,
			"0.003": 7.68957212186,
			"0.004": 5.88216624993,
			"0.005": 5.80845038253,
			"0.006": 6.41758443931,
			"0.007": 4.52426116902,
			"0.008": 5.29657087662,
			"0.009": 5.43138511749,
			"0.01": 4.83191639944,
			"0.011": 4.2806342036,
			"0.012": 6.92222781895,
			"0.013": 3.67014330437,
			"0.014": 3.24957306998,
			"0.015": 1.72690936813,
			"0.016": 0.0,
			"0.017": 0.0,
			"0.018": 0.0,
			"0.019": 0.0,
			"0.02": 0.0,
			"0.021": 0.0,
			"0.022": 0.0,
			"0.023": 0.0,
			"0.024": 0.0,
			"0.025": 0.0
		}
	}
}
