{
	 "smiles": "OC1=C2C(=O)C3=C(C=CC=C3)C(=O)C2=CC2=CC=CC=C12", 
	 "Tm": 594.15, 
	 "num_atms": 31, 
	 "gaussian": { 
		 "optdone": 1, 
		 "sigma_profile": "yes", 
		 "theory": "DFT", 
		 "functional": "B3LYP", 
		 "basiset": "6-31G**", 
		 "properties": { 
			 "R2extent": 6653.2319, 
			 "electric_dipole_moment_norm": 0.207825022555, 
			 "electric_quadrupole_moment_norm": 24.1741255486, 
			 "total_energy": -917.659521404, 
			 "HOMO_LUMO_gap": 0.11791, 
			 "cosmo_polarized_energy": -9.98, 
			 "cosmo_cavitation_energy": 34.84, 
			 "cosmo_dispersion_energy": -26.33, 
			 "cosmo_repulsion_energy": 1.89, 
			 "cosmo_total_nonelectrostatic_energy": 10.39, 
			 "SMD_solvation_energy": 6.3 
		},
		"coords": [
			{
				"x": 0.2482737183,
				"y": -3.3835295746,
				"z": -1.2360630702,
				"element": "O" 
			},
			{
				"x": -0.0776096716,
				"y": -2.0933858746,
				"z": -1.251129486,
				"element": "C" 
			},
			{
				"x": 0.6141774062,
				"y": -1.144467792,
				"z": -0.4784249774,
				"element": "C" 
			},
			{
				"x": 1.7179923322,
				"y": -1.5849851869,
				"z": 0.361936906,
				"element": "C" 
			},
			{
				"x": 2.0643073031,
				"y": -2.7875069293,
				"z": 0.4117464586,
				"element": "O" 
			},
			{
				"x": 2.4388379217,
				"y": -0.5720757895,
				"z": 1.1721188207,
				"element": "C" 
			},
			{
				"x": 2.0661261963,
				"y": 0.7869309056,
				"z": 1.1314643064,
				"element": "C" 
			},
			{
				"x": 2.7648231387,
				"y": 1.7194795435,
				"z": 1.9068526901,
				"element": "C" 
			},
			{
				"x": 3.8220377454,
				"y": 1.3081201586,
				"z": 2.7139884689,
				"element": "C" 
			},
			{
				"x": 4.191783129,
				"y": -0.0419201675,
				"z": 2.7539585419,
				"element": "C" 
			},
			{
				"x": 3.5037913188,
				"y": -0.9778289982,
				"z": 1.9869116481,
				"element": "C" 
			},
			{
				"x": 0.9372667717,
				"y": 1.2589057761,
				"z": 0.2761975043,
				"element": "C" 
			},
			{
				"x": 0.6194886816,
				"y": 2.4443000685,
				"z": 0.2468325788,
				"element": "O" 
			},
			{
				"x": 0.2193869446,
				"y": 0.2346566646,
				"z": -0.5335709257,
				"element": "C" 
			},
			{
				"x": -0.824785684,
				"y": 0.6320753849,
				"z": -1.332316261,
				"element": "C" 
			},
			{
				"x": -1.5411051538,
				"y": -0.3103189203,
				"z": -2.124300291,
				"element": "C" 
			},
			{
				"x": -2.6214560149,
				"y": 0.079323542,
				"z": -2.9549730858,
				"element": "C" 
			},
			{
				"x": -3.3002551741,
				"y": -0.853228855,
				"z": -3.7133834698,
				"element": "C" 
			},
			{
				"x": -2.9282652958,
				"y": -2.2152773146,
				"z": -3.6740153291,
				"element": "C" 
			},
			{
				"x": -1.8800796331,
				"y": -2.6282849315,
				"z": -2.8751014416,
				"element": "C" 
			},
			{
				"x": -1.1714296466,
				"y": -1.6897968429,
				"z": -2.090374077,
				"element": "C" 
			},
			{
				"x": 1.0221692152,
				"y": -3.4620482151,
				"z": -0.6006098961,
				"element": "H" 
			},
			{
				"x": 2.4573453643,
				"y": 2.7585129723,
				"z": 1.8568163387,
				"element": "H" 
			},
			{
				"x": 4.3607394175,
				"y": 2.0360249596,
				"z": 3.3135976127,
				"element": "H" 
			},
			{
				"x": 5.0167857406,
				"y": -0.3604795607,
				"z": 3.3843036047,
				"element": "H" 
			},
			{
				"x": 3.7711893445,
				"y": -2.0287567394,
				"z": 2.0008562717,
				"element": "H" 
			},
			{
				"x": -1.0968347308,
				"y": 1.6823877952,
				"z": -1.3502573093,
				"element": "H" 
			},
			{
				"x": -2.9061921845,
				"y": 1.1272674454,
				"z": -2.9840346941,
				"element": "H" 
			},
			{
				"x": -4.1261696245,
				"y": -0.5398677812,
				"z": -4.345296504,
				"element": "H" 
			},
			{
				"x": -3.4702241554,
				"y": -2.9389403528,
				"z": -4.2753312907,
				"element": "H" 
			},
			{
				"x": -1.5833147203,
				"y": -3.6701853903,
				"z": -2.8346996428,
				"element": "H" 
			}
		],
		 "valence_orbital": [ 
			{
				"type": "occ",
				"energy": -0.27286,
				"method": "rhf"
			},
			{
				"type": "occ",
				"energy": -0.26815,
				"method": "rhf"
			},
			{
				"type": "occ",
				"energy": -0.26081,
				"method": "rhf"
			},
			{
				"type": "occ",
				"energy": -0.25672,
				"method": "rhf"
			},
			{
				"type": "occ",
				"energy": -0.21927,
				"method": "rhf"
			},
			{
				"type": "unocc",
				"energy": -0.10136,
				"method": "rhf"
			},
			{
				"type": "unocc",
				"energy": -0.06946,
				"method": "rhf"
			},
			{
				"type": "unocc",
				"energy": -0.02842,
				"method": "rhf"
			},
			{
				"type": "unocc",
				"energy": -0.02554,
				"method": "rhf"
			},
			{
				"type": "unocc",
				"energy": 0.01886,
				"method": "rhf"
			}
		],
		"cosmo_sigma_profile": { 
			"-0.025": 0.0,
			"-0.024": 0.0,
			"-0.023": 0.0,
			"-0.022": 0.0,
			"-0.021": 0.0,
			"-0.02": 0.0,
			"-0.019": 0.0,
			"-0.018": 0.0,
			"-0.017": 0.0,
			"-0.016": 0.0,
			"-0.015": 0.0,
			"-0.014": 0.0,
			"-0.013": 0.0,
			"-0.012": 0.0,
			"-0.011": 0.0,
			"-0.01": 0.0,
			"-0.009": 0.0,
			"-0.008": 0.424365014177,
			"-0.007": 10.5350894126,
			"-0.006": 18.2434696643,
			"-0.005": 19.9437036587,
			"-0.004": 17.6046721027,
			"-0.003": 18.3344051704,
			"-0.002": 19.4242973034,
			"-0.001": 20.1270302238,
			"0.0": 26.036714984,
			"0.001": 34.2685035472,
			"0.002": 36.6137929095,
			"0.003": 19.2108283639,
			"0.004": 7.56928143157,
			"0.005": 4.86374255685,
			"0.006": 4.85844142302,
			"0.007": 5.00410583756,
			"0.008": 4.18245849918,
			"0.009": 4.01107268626,
			"0.01": 4.50212514445,
			"0.011": 4.19415486608,
			"0.012": 2.26902426545,
			"0.013": 0.0,
			"0.014": 0.0,
			"0.015": 0.0,
			"0.016": 0.0,
			"0.017": 0.0,
			"0.018": 0.0,
			"0.019": 0.0,
			"0.02": 0.0,
			"0.021": 0.0,
			"0.022": 0.0,
			"0.023": 0.0,
			"0.024": 0.0,
			"0.025": 0.0
		}
	}
}
