{
	 "smiles": "CNS(=O)(=O)C1=CC=C(C=C1)S(N)(=O)=O", 
	 "Tm": 428.15, 
	 "num_atms": 25, 
	 "gaussian": { 
		 "optdone": 1, 
		 "sigma_profile": "yes", 
		 "theory": "DFT", 
		 "functional": "B3LYP", 
		 "basiset": "6-31G**", 
		 "properties": { 
			 "R2extent": 6545.0045, 
			 "electric_dipole_moment_norm": 2.18186476666, 
			 "electric_quadrupole_moment_norm": 31.2509253881, 
			 "total_energy": -1479.39910193, 
			 "HOMO_LUMO_gap": 0.20467, 
			 "cosmo_polarized_energy": -26.62, 
			 "cosmo_cavitation_energy": 32.33, 
			 "cosmo_dispersion_energy": -24.17, 
			 "cosmo_repulsion_energy": 1.81, 
			 "cosmo_total_nonelectrostatic_energy": 9.97, 
			 "SMD_solvation_energy": 4.24 
		},
		"coords": [
			{
				"x": -0.007444822,
				"y": -4.0925294211,
				"z": -3.5129752584,
				"element": "C" 
			},
			{
				"x": 1.1912928031,
				"y": -4.0650598027,
				"z": -2.664225619,
				"element": "N" 
			},
			{
				"x": 2.2958031526,
				"y": -2.8136083206,
				"z": -2.9152000762,
				"element": "S" 
			},
			{
				"x": 2.2222459153,
				"y": -2.311362794,
				"z": -4.2920812408,
				"element": "O" 
			},
			{
				"x": 3.5537456521,
				"y": -3.300625146,
				"z": -2.3425561933,
				"element": "O" 
			},
			{
				"x": 1.6414808542,
				"y": -1.5200021166,
				"z": -1.8502257669,
				"element": "C" 
			},
			{
				"x": 1.0647907607,
				"y": -0.3895313007,
				"z": -2.4285800427,
				"element": "C" 
			},
			{
				"x": 0.5770454761,
				"y": 0.6233026497,
				"z": -1.6008896741,
				"element": "C" 
			},
			{
				"x": 0.6864443472,
				"y": 0.4827641796,
				"z": -0.217011648,
				"element": "C" 
			},
			{
				"x": 1.258544248,
				"y": -0.6552119012,
				"z": 0.3612759744,
				"element": "C" 
			},
			{
				"x": 1.7445427695,
				"y": -1.6654332403,
				"z": -0.4639196913,
				"element": "C" 
			},
			{
				"x": 0.0869058438,
				"y": 1.806813412,
				"z": 0.8532017393,
				"element": "S" 
			},
			{
				"x": 1.3783406897,
				"y": 2.8460911036,
				"z": 1.1006695285,
				"element": "N" 
			},
			{
				"x": -0.8952573218,
				"y": 2.567692662,
				"z": 0.0849976824,
				"element": "O" 
			},
			{
				"x": -0.1986346682,
				"y": 1.2094494107,
				"z": 2.155274093,
				"element": "O" 
			},
			{
				"x": -0.6089221511,
				"y": -3.2015796543,
				"z": -3.3152173509,
				"element": "H" 
			},
			{
				"x": -0.5980064056,
				"y": -4.9647836656,
				"z": -3.2240222028,
				"element": "H" 
			},
			{
				"x": 0.2176272317,
				"y": -4.1370608424,
				"z": -4.5837981434,
				"element": "H" 
			},
			{
				"x": 1.7245050347,
				"y": -4.9317553273,
				"z": -2.6613420319,
				"element": "H" 
			},
			{
				"x": 1.0081546343,
				"y": -0.3098415816,
				"z": -3.5084401403,
				"element": "H" 
			},
			{
				"x": 0.1004823561,
				"y": 1.503390922,
				"z": -2.0190478371,
				"element": "H" 
			},
			{
				"x": 1.3001255522,
				"y": -0.7492295434,
				"z": 1.4410610349,
				"element": "H" 
			},
			{
				"x": 2.1983738249,
				"y": -2.5556962551,
				"z": -0.0426767703,
				"element": "H" 
			},
			{
				"x": 2.1385848094,
				"y": 2.4321261757,
				"z": 1.6298910857,
				"element": "H" 
			},
			{
				"x": 1.6785294132,
				"y": 3.3294803975,
				"z": 0.2606385492,
				"element": "H" 
			}
		],
		 "valence_orbital": [ 
			{
				"type": "occ",
				"energy": -0.31429,
				"method": "rhf"
			},
			{
				"type": "occ",
				"energy": -0.31166,
				"method": "rhf"
			},
			{
				"type": "occ",
				"energy": -0.29673,
				"method": "rhf"
			},
			{
				"type": "occ",
				"energy": -0.29244,
				"method": "rhf"
			},
			{
				"type": "occ",
				"energy": -0.27544,
				"method": "rhf"
			},
			{
				"type": "unocc",
				"energy": -0.07077,
				"method": "rhf"
			},
			{
				"type": "unocc",
				"energy": -0.04281,
				"method": "rhf"
			},
			{
				"type": "unocc",
				"energy": 0.03662,
				"method": "rhf"
			},
			{
				"type": "unocc",
				"energy": 0.05078,
				"method": "rhf"
			},
			{
				"type": "unocc",
				"energy": 0.05601,
				"method": "rhf"
			}
		],
		"cosmo_sigma_profile": { 
			"-0.025": 0.0,
			"-0.024": 0.0,
			"-0.023": 0.0,
			"-0.022": 0.0,
			"-0.021": 0.0,
			"-0.02": 0.0,
			"-0.019": 0.0,
			"-0.018": 0.0,
			"-0.017": 0.0,
			"-0.016": 0.66769543266,
			"-0.015": 3.45735610166,
			"-0.014": 3.66955453074,
			"-0.013": 4.53966089187,
			"-0.012": 3.59741719356,
			"-0.011": 3.69737177436,
			"-0.01": 3.38270340552,
			"-0.009": 4.0366816001,
			"-0.008": 8.26371881799,
			"-0.007": 11.6079399579,
			"-0.006": 11.5564823348,
			"-0.005": 12.6198025731,
			"-0.004": 13.2090815835,
			"-0.003": 17.0751274951,
			"-0.002": 15.0040189443,
			"-0.001": 13.3547496292,
			"0.0": 18.5915959072,
			"0.001": 13.9490144227,
			"0.002": 6.23167126731,
			"0.003": 6.10954728502,
			"0.004": 5.545338275,
			"0.005": 7.42784272178,
			"0.006": 6.21343436454,
			"0.007": 8.35531418123,
			"0.008": 8.01865845508,
			"0.009": 8.54074908787,
			"0.01": 16.4145998616,
			"0.011": 18.4199319568,
			"0.012": 3.7667936493,
			"0.013": 0.0,
			"0.014": 0.0,
			"0.015": 0.0,
			"0.016": 0.0,
			"0.017": 0.0,
			"0.018": 0.0,
			"0.019": 0.0,
			"0.02": 0.0,
			"0.021": 0.0,
			"0.022": 0.0,
			"0.023": 0.0,
			"0.024": 0.0,
			"0.025": 0.0
		}
	}
}
