{
	 "smiles": "OC1CCC2=C1C=CC(Br)=C2", 
	 "Tm": 343.15, 
	 "num_atms": 20, 
	 "gaussian": { 
		 "optdone": 1, 
		 "sigma_profile": "yes", 
		 "theory": "DFT", 
		 "functional": "B3LYP", 
		 "basiset": "6-31G**", 
		 "properties": { 
			 "R2extent": 4066.7348, 
			 "electric_dipole_moment_norm": 3.38452118622, 
			 "electric_quadrupole_moment_norm": 5.24102317778, 
			 "total_energy": -2995.00824508, 
			 "HOMO_LUMO_gap": 0.21758, 
			 "cosmo_polarized_energy": -8.4, 
			 "cosmo_cavitation_energy": 25.23, 
			 "cosmo_dispersion_energy": -19.3, 
			 "cosmo_repulsion_energy": 1.56, 
			 "cosmo_total_nonelectrostatic_energy": 7.5, 
			 "SMD_solvation_energy": 2.61 
		},
		"coords": [
			{
				"x": -1.6040484424,
				"y": -0.5991633298,
				"z": -2.5615097403,
				"element": "O" 
			},
			{
				"x": -1.668344798,
				"y": -0.2116342381,
				"z": -1.1953644106,
				"element": "C" 
			},
			{
				"x": -1.2901583204,
				"y": 1.2660580335,
				"z": -0.9212404517,
				"element": "C" 
			},
			{
				"x": -0.63992116,
				"y": 1.2643050242,
				"z": 0.4847268169,
				"element": "C" 
			},
			{
				"x": -0.0696550734,
				"y": -0.1364593688,
				"z": 0.5852643341,
				"element": "C" 
			},
			{
				"x": -0.645821268,
				"y": -0.9695376694,
				"z": -0.3796821667,
				"element": "C" 
			},
			{
				"x": -0.2724359676,
				"y": -2.3059881619,
				"z": -0.486709877,
				"element": "C" 
			},
			{
				"x": 0.6902858984,
				"y": -2.8154897962,
				"z": 0.3884945304,
				"element": "C" 
			},
			{
				"x": 1.2509817975,
				"y": -1.9754142743,
				"z": 1.3531463428,
				"element": "C" 
			},
			{
				"x": 2.5717413398,
				"y": -2.6847003519,
				"z": 2.5458987187,
				"element": "Br" 
			},
			{
				"x": 0.8863887473,
				"y": -0.6329850814,
				"z": 1.4694150888,
				"element": "C" 
			},
			{
				"x": -2.3676726947,
				"y": -0.2200604489,
				"z": -3.0147986711,
				"element": "H" 
			},
			{
				"x": -2.6767228279,
				"y": -0.4212052929,
				"z": -0.796177181,
				"element": "H" 
			},
			{
				"x": -0.5462381211,
				"y": 1.5475771837,
				"z": -1.6745925875,
				"element": "H" 
			},
			{
				"x": -2.1385169837,
				"y": 1.9524707398,
				"z": -1.0046861686,
				"element": "H" 
			},
			{
				"x": -1.3949205296,
				"y": 1.4273564887,
				"z": 1.2661671003,
				"element": "H" 
			},
			{
				"x": 0.1158548077,
				"y": 2.0468516359,
				"z": 0.607715368,
				"element": "H" 
			},
			{
				"x": -0.7105239768,
				"y": -2.9401781505,
				"z": -1.2512005885,
				"element": "H" 
			},
			{
				"x": 1.0077053214,
				"y": -3.8498564884,
				"z": 0.3223766504,
				"element": "H" 
			},
			{
				"x": 1.3487222513,
				"y": -0.0024464532,
				"z": 2.2213568928,
				"element": "H" 
			}
		],
		 "valence_orbital": [ 
			{
				"type": "occ",
				"energy": -0.30258,
				"method": "rhf"
			},
			{
				"type": "occ",
				"energy": -0.28141,
				"method": "rhf"
			},
			{
				"type": "occ",
				"energy": -0.2732,
				"method": "rhf"
			},
			{
				"type": "occ",
				"energy": -0.2527,
				"method": "rhf"
			},
			{
				"type": "occ",
				"energy": -0.23131,
				"method": "rhf"
			},
			{
				"type": "unocc",
				"energy": -0.01373,
				"method": "rhf"
			},
			{
				"type": "unocc",
				"energy": -0.0066,
				"method": "rhf"
			},
			{
				"type": "unocc",
				"energy": 0.01255,
				"method": "rhf"
			},
			{
				"type": "unocc",
				"energy": 0.07396,
				"method": "rhf"
			},
			{
				"type": "unocc",
				"energy": 0.09854,
				"method": "rhf"
			}
		],
		"cosmo_sigma_profile": { 
			"-0.025": 0.0,
			"-0.024": 0.0,
			"-0.023": 0.0,
			"-0.022": 0.0,
			"-0.021": 0.0,
			"-0.02": 0.0,
			"-0.019": 0.0,
			"-0.018": 0.0,
			"-0.017": 0.0,
			"-0.016": 0.459752308607,
			"-0.015": 1.17421067431,
			"-0.014": 0.724051758541,
			"-0.013": 0.955686716821,
			"-0.012": 1.08891690008,
			"-0.011": 1.02838922836,
			"-0.01": 0.654056267266,
			"-0.009": 0.541330148152,
			"-0.008": 1.10630968992,
			"-0.007": 2.53489450846,
			"-0.006": 5.91829943189,
			"-0.005": 7.3712090664,
			"-0.004": 17.8324713207,
			"-0.003": 19.9348015225,
			"-0.002": 18.816861898,
			"-0.001": 16.3428582065,
			"0.0": 15.8697346161,
			"0.001": 12.4381623859,
			"0.002": 13.386660216,
			"0.003": 16.633329982,
			"0.004": 21.5409113176,
			"0.005": 13.9216413135,
			"0.006": 1.88163889506,
			"0.007": 1.45466665371,
			"0.008": 1.64327118151,
			"0.009": 1.32277963844,
			"0.01": 1.16926537852,
			"0.011": 1.49879204255,
			"0.012": 1.26725764154,
			"0.013": 1.29812908577,
			"0.014": 1.02978119457,
			"0.015": 0.052734690745,
			"0.016": 0.0,
			"0.017": 0.0,
			"0.018": 0.0,
			"0.019": 0.0,
			"0.02": 0.0,
			"0.021": 0.0,
			"0.022": 0.0,
			"0.023": 0.0,
			"0.024": 0.0,
			"0.025": 0.0
		}
	}
}
