{
	 "smiles": "CCOC1=NC(CC)=NC(OP(=S)(OC)OC)=C1", 
	 "Tm": 269.8, 
	 "num_atms": 35, 
	 "gaussian": { 
		 "optdone": 1, 
		 "sigma_profile": "yes", 
		 "theory": "DFT", 
		 "functional": "B3LYP", 
		 "basiset": "6-31G**", 
		 "properties": { 
			 "R2extent": 7279.9982, 
			 "electric_dipole_moment_norm": 3.00689007614, 
			 "electric_quadrupole_moment_norm": 14.4376679724, 
			 "total_energy": -1541.32995581, 
			 "HOMO_LUMO_gap": 0.21162, 
			 "cosmo_polarized_energy": -11.84, 
			 "cosmo_cavitation_energy": 42.17, 
			 "cosmo_dispersion_energy": -29.09, 
			 "cosmo_repulsion_energy": 2.26, 
			 "cosmo_total_nonelectrostatic_energy": 15.33, 
			 "SMD_solvation_energy": 8.08 
		},
		"coords": [
			{
				"x": 0.1180702423,
				"y": -5.1222035547,
				"z": 3.0191077062,
				"element": "C" 
			},
			{
				"x": -0.5221765043,
				"y": -3.9057162986,
				"z": 2.3773214549,
				"element": "C" 
			},
			{
				"x": 0.5166927401,
				"y": -2.9131948918,
				"z": 2.2250707584,
				"element": "O" 
			},
			{
				"x": 0.1899514308,
				"y": -1.7385399021,
				"z": 1.669807559,
				"element": "C" 
			},
			{
				"x": -1.0700947912,
				"y": -1.514724579,
				"z": 1.2840427981,
				"element": "N" 
			},
			{
				"x": -1.3304321661,
				"y": -0.3178044574,
				"z": 0.7401889949,
				"element": "C" 
			},
			{
				"x": -2.7363727718,
				"y": -0.0701446611,
				"z": 0.2541039503,
				"element": "C" 
			},
			{
				"x": -2.8569525393,
				"y": -0.283014735,
				"z": -1.2661216712,
				"element": "C" 
			},
			{
				"x": -0.4382795348,
				"y": 0.6661345102,
				"z": 0.5579225864,
				"element": "N" 
			},
			{
				"x": 0.8119979812,
				"y": 0.4051442924,
				"z": 0.9422206623,
				"element": "C" 
			},
			{
				"x": 1.7587503759,
				"y": 1.3751450912,
				"z": 0.790448233,
				"element": "O" 
			},
			{
				"x": 1.6154148032,
				"y": 2.6806405512,
				"z": -0.2292468419,
				"element": "P" 
			},
			{
				"x": 1.4301581769,
				"y": 2.2608912943,
				"z": -2.1089709793,
				"element": "S" 
			},
			{
				"x": 2.9455106721,
				"y": 3.4458193335,
				"z": 0.2450758063,
				"element": "O" 
			},
			{
				"x": 4.2424509059,
				"y": 2.91349804,
				"z": -0.076335351,
				"element": "C" 
			},
			{
				"x": 0.5508005989,
				"y": 3.6500050944,
				"z": 0.4655160192,
				"element": "O" 
			},
			{
				"x": -0.7496459624,
				"y": 3.9047127031,
				"z": -0.1035146028,
				"element": "C" 
			},
			{
				"x": 1.2103139845,
				"y": -0.7918267389,
				"z": 1.5170870932,
				"element": "C" 
			},
			{
				"x": 0.5385013211,
				"y": -4.8723386765,
				"z": 3.9973985802,
				"element": "H" 
			},
			{
				"x": -0.6330304074,
				"y": -5.9062070075,
				"z": 3.1562463252,
				"element": "H" 
			},
			{
				"x": 0.9202097307,
				"y": -5.5191221447,
				"z": 2.3904320608,
				"element": "H" 
			},
			{
				"x": -0.9462921345,
				"y": -4.1350779899,
				"z": 1.3947025809,
				"element": "H" 
			},
			{
				"x": -1.3265995056,
				"y": -3.4918086346,
				"z": 2.9934798156,
				"element": "H" 
			},
			{
				"x": -3.4092553021,
				"y": -0.7491268706,
				"z": 0.7845068809,
				"element": "H" 
			},
			{
				"x": -3.0180537899,
				"y": 0.9581269353,
				"z": 0.5042999844,
				"element": "H" 
			},
			{
				"x": -3.8785396231,
				"y": -0.0804507942,
				"z": -1.6021531882,
				"element": "H" 
			},
			{
				"x": -2.6094099926,
				"y": -1.3147599728,
				"z": -1.5346554052,
				"element": "H" 
			},
			{
				"x": -2.1767495231,
				"y": 0.3816756645,
				"z": -1.8064625729,
				"element": "H" 
			},
			{
				"x": 4.4149618741,
				"y": 1.9790862683,
				"z": 0.4653320131,
				"element": "H" 
			},
			{
				"x": 4.9640253424,
				"y": 3.6657581579,
				"z": 0.2437504027,
				"element": "H" 
			},
			{
				"x": 4.3334615041,
				"y": 2.7441695822,
				"z": -1.1530909768,
				"element": "H" 
			},
			{
				"x": -0.6556895233,
				"y": 4.2527635941,
				"z": -1.1346820361,
				"element": "H" 
			},
			{
				"x": -1.3497340979,
				"y": 2.994506629,
				"z": -0.0653171209,
				"element": "H" 
			},
			{
				"x": -1.1899734152,
				"y": 4.6844525185,
				"z": 0.5189839138,
				"element": "H" 
			},
			{
				"x": 2.2293099005,
				"y": -0.9837683505,
				"z": 1.8235045664,
				"element": "H" 
			}
		],
		 "valence_orbital": [ 
			{
				"type": "occ",
				"energy": -0.284,
				"method": "rhf"
			},
			{
				"type": "occ",
				"energy": -0.27007,
				"method": "rhf"
			},
			{
				"type": "occ",
				"energy": -0.25587,
				"method": "rhf"
			},
			{
				"type": "occ",
				"energy": -0.24191,
				"method": "rhf"
			},
			{
				"type": "occ",
				"energy": -0.23703,
				"method": "rhf"
			},
			{
				"type": "unocc",
				"energy": -0.02541,
				"method": "rhf"
			},
			{
				"type": "unocc",
				"energy": -0.01716,
				"method": "rhf"
			},
			{
				"type": "unocc",
				"energy": 0.04118,
				"method": "rhf"
			},
			{
				"type": "unocc",
				"energy": 0.05842,
				"method": "rhf"
			},
			{
				"type": "unocc",
				"energy": 0.06591,
				"method": "rhf"
			}
		],
		"cosmo_sigma_profile": { 
			"-0.025": 0.0,
			"-0.024": 0.0,
			"-0.023": 0.0,
			"-0.022": 0.0,
			"-0.021": 0.0,
			"-0.02": 0.0,
			"-0.019": 0.0,
			"-0.018": 0.0,
			"-0.017": 0.0,
			"-0.016": 0.0,
			"-0.015": 0.0,
			"-0.014": 0.0,
			"-0.013": 0.0,
			"-0.012": 0.0,
			"-0.011": 0.0,
			"-0.01": 0.0,
			"-0.009": 0.226036269233,
			"-0.008": 1.39509106485,
			"-0.007": 4.94255307501,
			"-0.006": 9.19957139497,
			"-0.005": 18.1702743186,
			"-0.004": 35.8130696409,
			"-0.003": 34.0614457165,
			"-0.002": 33.6027383417,
			"-0.001": 37.3775731052,
			"0.0": 35.7174956857,
			"0.001": 25.1217462527,
			"0.002": 14.28601413,
			"0.003": 13.9972619967,
			"0.004": 12.4436142047,
			"0.005": 12.5187983276,
			"0.006": 12.9570612,
			"0.007": 12.8997039012,
			"0.008": 10.5821331978,
			"0.009": 6.69565640959,
			"0.01": 2.13859975542,
			"0.011": 0.441581884752,
			"0.012": 0.0,
			"0.013": 0.0,
			"0.014": 0.0,
			"0.015": 0.0,
			"0.016": 0.0,
			"0.017": 0.0,
			"0.018": 0.0,
			"0.019": 0.0,
			"0.02": 0.0,
			"0.021": 0.0,
			"0.022": 0.0,
			"0.023": 0.0,
			"0.024": 0.0,
			"0.025": 0.0
		}
	}
}
