{
	 "smiles": "CC1=CC(=C(O)C(CC2=CC(C)=CC(=C2O)C(C)(C)C)=C1)C(C)(C)C", 
	 "Tm": 396.15, 
	 "num_atms": 57, 
	 "gaussian": { 
		 "optdone": 1, 
		 "sigma_profile": "yes", 
		 "theory": "DFT", 
		 "functional": "B3LYP", 
		 "basiset": "6-31G**", 
		 "properties": { 
			 "R2extent": 10883.4214, 
			 "electric_dipole_moment_norm": 3.84470807995, 
			 "electric_quadrupole_moment_norm": 11.0826142115, 
			 "total_energy": -1046.22468391, 
			 "HOMO_LUMO_gap": 0.18659, 
			 "cosmo_polarized_energy": -9.94, 
			 "cosmo_cavitation_energy": 53.83, 
			 "cosmo_dispersion_energy": -36.04, 
			 "cosmo_repulsion_energy": 2.74, 
			 "cosmo_total_nonelectrostatic_energy": 20.53, 
			 "SMD_solvation_energy": 9.22 
		},
		"coords": [
			{
				"x": 1.4287295399,
				"y": 3.7381359308,
				"z": -3.5347004397,
				"element": "C" 
			},
			{
				"x": 1.2035351483,
				"y": 2.3149260555,
				"z": -3.0781265899,
				"element": "C" 
			},
			{
				"x": 0.3074235867,
				"y": 1.4779096049,
				"z": -3.7554975935,
				"element": "C" 
			},
			{
				"x": 0.0470308849,
				"y": 0.1586448598,
				"z": -3.3713291004,
				"element": "C" 
			},
			{
				"x": 0.7352879547,
				"y": -0.329316986,
				"z": -2.2308891051,
				"element": "C" 
			},
			{
				"x": 0.5007702264,
				"y": -1.6232403935,
				"z": -1.8531229943,
				"element": "O" 
			},
			{
				"x": 1.6512969185,
				"y": 0.4801549081,
				"z": -1.533010806,
				"element": "C" 
			},
			{
				"x": 2.4245980546,
				"y": -0.036623931,
				"z": -0.3243866052,
				"element": "C" 
			},
			{
				"x": 1.6656376378,
				"y": 0.0292431736,
				"z": 0.9969199028,
				"element": "C" 
			},
			{
				"x": 1.5798003857,
				"y": 1.2322706231,
				"z": 1.6992016617,
				"element": "C" 
			},
			{
				"x": 0.8874931972,
				"y": 1.3293313203,
				"z": 2.9064484114,
				"element": "C" 
			},
			{
				"x": 0.7734664906,
				"y": 2.6474955751,
				"z": 3.6369788957,
				"element": "C" 
			},
			{
				"x": 0.2831803791,
				"y": 0.1738601806,
				"z": 3.4118204206,
				"element": "C" 
			},
			{
				"x": 0.3354504336,
				"y": -1.0675886733,
				"z": 2.7613042586,
				"element": "C" 
			},
			{
				"x": 1.0381429615,
				"y": -1.1025793277,
				"z": 1.5375781577,
				"element": "C" 
			},
			{
				"x": 1.1808259292,
				"y": -2.2609730779,
				"z": 0.78106934,
				"element": "O" 
			},
			{
				"x": -0.3392293715,
				"y": -2.321307062,
				"z": 3.3678597988,
				"element": "C" 
			},
			{
				"x": -1.016247494,
				"y": -2.0153555981,
				"z": 4.7205738738,
				"element": "C" 
			},
			{
				"x": 0.7146999813,
				"y": -3.4264879918,
				"z": 3.6449730183,
				"element": "C" 
			},
			{
				"x": -1.46212911,
				"y": -2.8460195029,
				"z": 2.4324333956,
				"element": "C" 
			},
			{
				"x": 1.8674875234,
				"y": 1.7911747628,
				"z": -1.9725166195,
				"element": "C" 
			},
			{
				"x": -0.9468441515,
				"y": -0.726289735,
				"z": -4.1562898486,
				"element": "C" 
			},
			{
				"x": -2.1120868905,
				"y": -1.1655375868,
				"z": -3.2350737235,
				"element": "C" 
			},
			{
				"x": -0.2207385783,
				"y": -1.9724153054,
				"z": -4.7214362155,
				"element": "C" 
			},
			{
				"x": -1.5682664429,
				"y": 0.0230283459,
				"z": -5.3531089151,
				"element": "C" 
			},
			{
				"x": 2.3115065276,
				"y": 4.1746261842,
				"z": -3.0576089684,
				"element": "H" 
			},
			{
				"x": 1.5733159316,
				"y": 3.7958780218,
				"z": -4.6193213634,
				"element": "H" 
			},
			{
				"x": 0.5736012203,
				"y": 4.3816643877,
				"z": -3.2911567016,
				"element": "H" 
			},
			{
				"x": -0.2015523503,
				"y": 1.884011464,
				"z": -4.622331502,
				"element": "H" 
			},
			{
				"x": 0.8636759187,
				"y": -1.81766833,
				"z": -0.9705618254,
				"element": "H" 
			},
			{
				"x": 2.772013821,
				"y": -1.0590928209,
				"z": -0.5012271376,
				"element": "H" 
			},
			{
				"x": 3.3264955268,
				"y": 0.5751574836,
				"z": -0.2222853759,
				"element": "H" 
			},
			{
				"x": 2.0657945942,
				"y": 2.1129720123,
				"z": 1.2854517798,
				"element": "H" 
			},
			{
				"x": 1.6820629089,
				"y": 3.2474153695,
				"z": 3.5243053846,
				"element": "H" 
			},
			{
				"x": 0.59910277,
				"y": 2.4993556609,
				"z": 4.7070421757,
				"element": "H" 
			},
			{
				"x": -0.0598468432,
				"y": 3.2480749584,
				"z": 3.2508034025,
				"element": "H" 
			},
			{
				"x": -0.2441981382,
				"y": 0.2535591136,
				"z": 4.3549107449,
				"element": "H" 
			},
			{
				"x": 0.6138422578,
				"y": -2.9567846566,
				"z": 1.1304756228,
				"element": "H" 
			},
			{
				"x": -1.4707742054,
				"y": -2.9308056596,
				"z": 5.1125497777,
				"element": "H" 
			},
			{
				"x": -1.8103285595,
				"y": -1.269020347,
				"z": 4.6222884199,
				"element": "H" 
			},
			{
				"x": -0.297436706,
				"y": -1.6591825443,
				"z": 5.4645494414,
				"element": "H" 
			},
			{
				"x": 0.229453176,
				"y": -4.317119684,
				"z": 4.0588760473,
				"element": "H" 
			},
			{
				"x": 1.2764089129,
				"y": -3.7382912256,
				"z": 2.7597737551,
				"element": "H" 
			},
			{
				"x": 1.4498349581,
				"y": -3.0713567347,
				"z": 4.3736527321,
				"element": "H" 
			},
			{
				"x": -1.1286116512,
				"y": -3.1324929464,
				"z": 1.4284382681,
				"element": "H" 
			},
			{
				"x": -2.228747982,
				"y": -2.0781106643,
				"z": 2.29260817,
				"element": "H" 
			},
			{
				"x": -1.938261158,
				"y": -3.7291149753,
				"z": 2.8716654063,
				"element": "H" 
			},
			{
				"x": 2.5869342514,
				"y": 2.4086975257,
				"z": -1.437950137,
				"element": "H" 
			},
			{
				"x": -2.6578316039,
				"y": -0.2919875136,
				"z": -2.8613996178,
				"element": "H" 
			},
			{
				"x": -1.7509750615,
				"y": -1.7376283637,
				"z": -2.3802152152,
				"element": "H" 
			},
			{
				"x": -2.8191289458,
				"y": -1.7884614979,
				"z": -3.7958913378,
				"element": "H" 
			},
			{
				"x": 0.5799106802,
				"y": -1.67285463,
				"z": -5.406765103,
				"element": "H" 
			},
			{
				"x": -0.9272933469,
				"y": -2.5952134018,
				"z": -5.283082368,
				"element": "H" 
			},
			{
				"x": 0.2162073662,
				"y": -2.5776763511,
				"z": -3.9268539006,
				"element": "H" 
			},
			{
				"x": -2.261974417,
				"y": -0.6450949181,
				"z": -5.8740755445,
				"element": "H" 
			},
			{
				"x": -2.1360821843,
				"y": 0.905116151,
				"z": -5.0385928484,
				"element": "H" 
			},
			{
				"x": -0.8122328632,
				"y": 0.3412887635,
				"z": -6.0786447602,
				"element": "H" 
			}
		],
		 "valence_orbital": [ 
			{
				"type": "occ",
				"energy": -0.29064,
				"method": "rhf"
			},
			{
				"type": "occ",
				"energy": -0.24235,
				"method": "rhf"
			},
			{
				"type": "occ",
				"energy": -0.22346,
				"method": "rhf"
			},
			{
				"type": "occ",
				"energy": -0.21908,
				"method": "rhf"
			},
			{
				"type": "occ",
				"energy": -0.1929,
				"method": "rhf"
			},
			{
				"type": "unocc",
				"energy": -0.00631,
				"method": "rhf"
			},
			{
				"type": "unocc",
				"energy": 0.00664,
				"method": "rhf"
			},
			{
				"type": "unocc",
				"energy": 0.02049,
				"method": "rhf"
			},
			{
				"type": "unocc",
				"energy": 0.02855,
				"method": "rhf"
			},
			{
				"type": "unocc",
				"energy": 0.05012,
				"method": "rhf"
			}
		],
		"cosmo_sigma_profile": { 
			"-0.025": 0.0,
			"-0.024": 0.0,
			"-0.023": 0.0,
			"-0.022": 0.0,
			"-0.021": 0.0,
			"-0.02": 0.0,
			"-0.019": 0.0,
			"-0.018": 0.0,
			"-0.017": 0.0,
			"-0.016": 0.0396831390986,
			"-0.015": 0.556054907536,
			"-0.014": 0.916615437334,
			"-0.013": 0.783301623418,
			"-0.012": 0.405735404767,
			"-0.011": 0.938765833075,
			"-0.01": 0.869849218141,
			"-0.009": 0.917992921541,
			"-0.008": 0.793584348466,
			"-0.007": 1.04072226432,
			"-0.006": 1.1714212474,
			"-0.005": 6.96882781103,
			"-0.004": 24.3678413994,
			"-0.003": 47.4011345166,
			"-0.002": 54.9321348537,
			"-0.001": 54.6808892967,
			"0.0": 56.8952019555,
			"0.001": 49.8463248134,
			"0.002": 33.1214216003,
			"0.003": 19.9016537683,
			"0.004": 16.6152042801,
			"0.005": 17.0902216813,
			"0.006": 16.0643424012,
			"0.007": 9.69693322136,
			"0.008": 3.34602466433,
			"0.009": 0.264693649713,
			"0.01": 0.0,
			"0.011": 0.0,
			"0.012": 0.0,
			"0.013": 0.0,
			"0.014": 0.0,
			"0.015": 0.0,
			"0.016": 0.0,
			"0.017": 0.0,
			"0.018": 0.0,
			"0.019": 0.0,
			"0.02": 0.0,
			"0.021": 0.0,
			"0.022": 0.0,
			"0.023": 0.0,
			"0.024": 0.0,
			"0.025": 0.0
		}
	}
}
