{
	 "smiles": "CCCCCCCCCN", 
	 "Tm": 272.15, 
	 "num_atms": 31, 
	 "gaussian": { 
		 "optdone": 1, 
		 "sigma_profile": "yes", 
		 "theory": "DFT", 
		 "functional": "B3LYP", 
		 "basiset": "6-31G**", 
		 "properties": { 
			 "R2extent": 3763.094, 
			 "electric_dipole_moment_norm": 1.42241711534, 
			 "electric_quadrupole_moment_norm": 7.68699171393, 
			 "total_energy": -410.388724537, 
			 "HOMO_LUMO_gap": 0.30786, 
			 "cosmo_polarized_energy": -5.06, 
			 "cosmo_cavitation_energy": 31.47, 
			 "cosmo_dispersion_energy": -22.36, 
			 "cosmo_repulsion_energy": 1.9, 
			 "cosmo_total_nonelectrostatic_energy": 11.02, 
			 "SMD_solvation_energy": 3.12 
		},
		"coords": [
			{
				"x": 1.8513107364,
				"y": -3.4222426046,
				"z": -3.3875451138,
				"element": "C" 
			},
			{
				"x": 1.7039576127,
				"y": -1.9763175141,
				"z": -2.9021232212,
				"element": "C" 
			},
			{
				"x": 2.9525603733,
				"y": -1.460633788,
				"z": -2.172330896,
				"element": "C" 
			},
			{
				"x": 2.881839755,
				"y": 0.0094917049,
				"z": -1.7274045761,
				"element": "C" 
			},
			{
				"x": 1.8401339748,
				"y": 0.3046060213,
				"z": -0.6383298374,
				"element": "C" 
			},
			{
				"x": 1.8581067163,
				"y": 1.7690037841,
				"z": -0.1764657327,
				"element": "C" 
			},
			{
				"x": 0.8842861777,
				"y": 2.0982983501,
				"z": 0.9673708447,
				"element": "C" 
			},
			{
				"x": -0.6024577198,
				"y": 1.9924465643,
				"z": 0.6006637671,
				"element": "C" 
			},
			{
				"x": -1.5570165484,
				"y": 2.4002348469,
				"z": 1.7393140604,
				"element": "C" 
			},
			{
				"x": -1.5302769011,
				"y": 1.5810483897,
				"z": 2.9548179533,
				"element": "N" 
			},
			{
				"x": 0.9502272825,
				"y": -3.7657028943,
				"z": -3.9063381266,
				"element": "H" 
			},
			{
				"x": 2.0323953771,
				"y": -4.1049162221,
				"z": -2.5492613905,
				"element": "H" 
			},
			{
				"x": 2.6938136897,
				"y": -3.5234379206,
				"z": -4.0814070565,
				"element": "H" 
			},
			{
				"x": 0.8292505503,
				"y": -1.9053342615,
				"z": -2.2435422575,
				"element": "H" 
			},
			{
				"x": 1.4930266558,
				"y": -1.3217189238,
				"z": -3.7592619744,
				"element": "H" 
			},
			{
				"x": 3.8206800901,
				"y": -1.5867164998,
				"z": -2.8338615902,
				"element": "H" 
			},
			{
				"x": 3.1474186494,
				"y": -2.0960719921,
				"z": -1.2960710418,
				"element": "H" 
			},
			{
				"x": 3.8708840089,
				"y": 0.3138655626,
				"z": -1.3584526913,
				"element": "H" 
			},
			{
				"x": 2.6793774554,
				"y": 0.6429885588,
				"z": -2.6031861958,
				"element": "H" 
			},
			{
				"x": 0.8397325967,
				"y": 0.0451178082,
				"z": -1.0046171872,
				"element": "H" 
			},
			{
				"x": 2.0282876825,
				"y": -0.3488521411,
				"z": 0.2266192816,
				"element": "H" 
			},
			{
				"x": 2.8773155087,
				"y": 2.0226492807,
				"z": 0.1458216322,
				"element": "H" 
			},
			{
				"x": 1.6419732633,
				"y": 2.4222378467,
				"z": -1.0341096024,
				"element": "H" 
			},
			{
				"x": 1.0851973815,
				"y": 3.120747621,
				"z": 1.3173028518,
				"element": "H" 
			},
			{
				"x": 1.1003189106,
				"y": 1.4376923035,
				"z": 1.8191132699,
				"element": "H" 
			},
			{
				"x": -0.8439326156,
				"y": 0.9663295719,
				"z": 0.2902558245,
				"element": "H" 
			},
			{
				"x": -0.8038353407,
				"y": 2.6311830054,
				"z": -0.2716627553,
				"element": "H" 
			},
			{
				"x": -2.5863682933,
				"y": 2.395118269,
				"z": 1.3598044956,
				"element": "H" 
			},
			{
				"x": -1.3465095998,
				"y": 3.4366658674,
				"z": 2.0350633633,
				"element": "H" 
			},
			{
				"x": -1.701739567,
				"y": 0.6057193628,
				"z": 2.7180827149,
				"element": "H" 
			},
			{
				"x": -0.6068578633,
				"y": 1.6119000428,
				"z": 3.3796411876,
				"element": "H" 
			}
		],
		 "valence_orbital": [ 
			{
				"type": "occ",
				"energy": -0.31723,
				"method": "rhf"
			},
			{
				"type": "occ",
				"energy": -0.3159,
				"method": "rhf"
			},
			{
				"type": "occ",
				"energy": -0.30468,
				"method": "rhf"
			},
			{
				"type": "occ",
				"energy": -0.30403,
				"method": "rhf"
			},
			{
				"type": "occ",
				"energy": -0.22747,
				"method": "rhf"
			},
			{
				"type": "unocc",
				"energy": 0.08039,
				"method": "rhf"
			},
			{
				"type": "unocc",
				"energy": 0.09125,
				"method": "rhf"
			},
			{
				"type": "unocc",
				"energy": 0.10306,
				"method": "rhf"
			},
			{
				"type": "unocc",
				"energy": 0.10761,
				"method": "rhf"
			},
			{
				"type": "unocc",
				"energy": 0.11458,
				"method": "rhf"
			}
		],
		"cosmo_sigma_profile": { 
			"-0.025": 0.0,
			"-0.024": 0.0,
			"-0.023": 0.0,
			"-0.022": 0.0,
			"-0.021": 0.0,
			"-0.02": 0.0,
			"-0.019": 0.0,
			"-0.018": 0.0,
			"-0.017": 0.0,
			"-0.016": 0.0,
			"-0.015": 0.0,
			"-0.014": 0.0,
			"-0.013": 0.0,
			"-0.012": 0.0,
			"-0.011": 0.0,
			"-0.01": 0.0,
			"-0.009": 1.13323262183,
			"-0.008": 2.6406792268,
			"-0.007": 2.29844178965,
			"-0.006": 3.25462898794,
			"-0.005": 3.13802068742,
			"-0.004": 3.22725441085,
			"-0.003": 7.0285523214,
			"-0.002": 33.0563820596,
			"-0.001": 50.0577124196,
			"0.0": 54.6592086897,
			"0.001": 45.9923250031,
			"0.002": 18.9232045968,
			"0.003": 1.72127261285,
			"0.004": 1.36763466558,
			"0.005": 0.631486387678,
			"0.006": 0.964809477468,
			"0.007": 0.899103173957,
			"0.008": 1.38648928426,
			"0.009": 0.780703038203,
			"0.01": 0.354348919689,
			"0.011": 0.565617418482,
			"0.012": 0.594259965532,
			"0.013": 0.94484395479,
			"0.014": 0.443596954576,
			"0.015": 0.758746393057,
			"0.016": 1.1928317083,
			"0.017": 0.207619894185,
			"0.018": 0.481001315117,
			"0.019": 0.684447132168,
			"0.02": 0.719475316953,
			"0.021": 0.00253966245913,
			"0.022": 0.0,
			"0.023": 0.0,
			"0.024": 0.0,
			"0.025": 0.0
		}
	}
}
