{
	 "smiles": "OC(=O)C1=C2OCOCC2=CC(F)=C1", 
	 "Tm": 454.15, 
	 "num_atms": 21, 
	 "gaussian": { 
		 "optdone": 1, 
		 "sigma_profile": "yes", 
		 "theory": "DFT", 
		 "functional": "B3LYP", 
		 "basiset": "6-31G**", 
		 "properties": { 
			 "R2extent": 2811.1544, 
			 "electric_dipole_moment_norm": 6.20638266626, 
			 "electric_quadrupole_moment_norm": 13.2977725458, 
			 "total_energy": -747.897241423, 
			 "HOMO_LUMO_gap": 0.18791, 
			 "cosmo_polarized_energy": -14.93, 
			 "cosmo_cavitation_energy": 25.39, 
			 "cosmo_dispersion_energy": -19.26, 
			 "cosmo_repulsion_energy": 1.47, 
			 "cosmo_total_nonelectrostatic_energy": 7.6, 
			 "SMD_solvation_energy": 6.39 
		},
		"coords": [
			{
				"x": -2.2852428279,
				"y": 1.1516413677,
				"z": -1.8477596192,
				"element": "O" 
			},
			{
				"x": -2.4026000781,
				"y": -0.0289445867,
				"z": -1.2148526289,
				"element": "C" 
			},
			{
				"x": -3.4652178405,
				"y": -0.6086138689,
				"z": -1.1761847337,
				"element": "O" 
			},
			{
				"x": -1.1679774902,
				"y": -0.6053239585,
				"z": -0.5601507336,
				"element": "C" 
			},
			{
				"x": 0.1083966544,
				"y": -0.0098524471,
				"z": -0.5558384133,
				"element": "C" 
			},
			{
				"x": 0.2774119853,
				"y": 1.2060259269,
				"z": -1.1890517449,
				"element": "O" 
			},
			{
				"x": 1.6463669652,
				"y": 1.5453789328,
				"z": -1.4592429345,
				"element": "C" 
			},
			{
				"x": 2.4306790553,
				"y": 1.4337930717,
				"z": -0.3218561666,
				"element": "O" 
			},
			{
				"x": 2.541125844,
				"y": 0.0727166875,
				"z": 0.0972607455,
				"element": "C" 
			},
			{
				"x": 1.1949142996,
				"y": -0.6208442233,
				"z": 0.0865560006,
				"element": "C" 
			},
			{
				"x": 1.0086737911,
				"y": -1.8532014144,
				"z": 0.7143103492,
				"element": "C" 
			},
			{
				"x": -0.2493404038,
				"y": -2.4425065634,
				"z": 0.700433251,
				"element": "C" 
			},
			{
				"x": -0.4170431348,
				"y": -3.6312946301,
				"z": 1.3129499447,
				"element": "F" 
			},
			{
				"x": -1.3317137743,
				"y": -1.8373871004,
				"z": 0.0827794002,
				"element": "C" 
			},
			{
				"x": -1.3686545114,
				"y": 1.4779094951,
				"z": -1.784742977,
				"element": "H" 
			},
			{
				"x": 1.6396146858,
				"y": 2.5892440928,
				"z": -1.7713865445,
				"element": "H" 
			},
			{
				"x": 2.0051017798,
				"y": 0.8899971845,
				"z": -2.2689326494,
				"element": "H" 
			},
			{
				"x": 2.9547787597,
				"y": 0.1034700436,
				"z": 1.1088497961,
				"element": "H" 
			},
			{
				"x": 3.2605547212,
				"y": -0.4606498638,
				"z": -0.54484046,
				"element": "H" 
			},
			{
				"x": 1.8276522588,
				"y": -2.3525084867,
				"z": 1.223461832,
				"element": "H" 
			},
			{
				"x": -2.3111807392,
				"y": -2.3005496598,
				"z": 0.0810382864,
				"element": "H" 
			}
		],
		 "valence_orbital": [ 
			{
				"type": "occ",
				"energy": -0.31025,
				"method": "rhf"
			},
			{
				"type": "occ",
				"energy": -0.30537,
				"method": "rhf"
			},
			{
				"type": "occ",
				"energy": -0.27485,
				"method": "rhf"
			},
			{
				"type": "occ",
				"energy": -0.27084,
				"method": "rhf"
			},
			{
				"type": "occ",
				"energy": -0.24742,
				"method": "rhf"
			},
			{
				"type": "unocc",
				"energy": -0.05951,
				"method": "rhf"
			},
			{
				"type": "unocc",
				"energy": -0.01678,
				"method": "rhf"
			},
			{
				"type": "unocc",
				"energy": 0.04849,
				"method": "rhf"
			},
			{
				"type": "unocc",
				"energy": 0.07158,
				"method": "rhf"
			},
			{
				"type": "unocc",
				"energy": 0.08015,
				"method": "rhf"
			}
		],
		"cosmo_sigma_profile": { 
			"-0.025": 0.0,
			"-0.024": 0.0,
			"-0.023": 0.0,
			"-0.022": 0.0,
			"-0.021": 0.0,
			"-0.02": 0.0,
			"-0.019": 0.0,
			"-0.018": 0.0,
			"-0.017": 0.0,
			"-0.016": 0.0,
			"-0.015": 0.0,
			"-0.014": 0.0,
			"-0.013": 0.0,
			"-0.012": 0.0,
			"-0.011": 0.0565865157416,
			"-0.01": 0.43636725769,
			"-0.009": 2.56379018336,
			"-0.008": 10.0088755202,
			"-0.007": 15.0223250164,
			"-0.006": 16.5647445849,
			"-0.005": 12.51380768,
			"-0.004": 10.7354325939,
			"-0.003": 9.44879130048,
			"-0.002": 8.5056524688,
			"-0.001": 9.92835953082,
			"0.0": 19.3575200292,
			"0.001": 19.1918519997,
			"0.002": 8.00531532847,
			"0.003": 8.14532778331,
			"0.004": 13.7895462086,
			"0.005": 4.97905738727,
			"0.006": 3.00825718021,
			"0.007": 3.46741896321,
			"0.008": 4.06714180642,
			"0.009": 4.29346361865,
			"0.01": 5.18923011108,
			"0.011": 6.94981619139,
			"0.012": 4.96116879416,
			"0.013": 2.06994544369,
			"0.014": 0.226225106422,
			"0.015": 0.0,
			"0.016": 0.0,
			"0.017": 0.0,
			"0.018": 0.0,
			"0.019": 0.0,
			"0.02": 0.0,
			"0.021": 0.0,
			"0.022": 0.0,
			"0.023": 0.0,
			"0.024": 0.0,
			"0.025": 0.0
		}
	}
}
