{
	 "smiles": "ClC1=CC(C=O)=CC(Cl)=C1", 
	 "Tm": 338.65, 
	 "num_atms": 14, 
	 "gaussian": { 
		 "optdone": 1, 
		 "sigma_profile": "yes", 
		 "theory": "DFT", 
		 "functional": "B3LYP", 
		 "basiset": "6-31G**", 
		 "properties": { 
			 "R2extent": 3106.3857, 
			 "electric_dipole_moment_norm": 1.80673458482, 
			 "electric_quadrupole_moment_norm": 5.05339943404, 
			 "total_energy": -1264.75339213, 
			 "HOMO_LUMO_gap": 0.183, 
			 "cosmo_polarized_energy": -7.13, 
			 "cosmo_cavitation_energy": 22.87, 
			 "cosmo_dispersion_energy": -16.93, 
			 "cosmo_repulsion_energy": 1.37, 
			 "cosmo_total_nonelectrostatic_energy": 7.32, 
			 "SMD_solvation_energy": 4.47 
		},
		"coords": [
			{
				"x": -2.6507384707,
				"y": 3.0797159314,
				"z": 0.1947221612,
				"element": "Cl" 
			},
			{
				"x": -1.119123225,
				"y": 2.2341084269,
				"z": 0.0841862488,
				"element": "C" 
			},
			{
				"x": -1.0376580668,
				"y": 1.0475809069,
				"z": -0.6413680595,
				"element": "C" 
			},
			{
				"x": 0.1917825759,
				"y": 0.3851606321,
				"z": -0.7197705637,
				"element": "C" 
			},
			{
				"x": 0.292438372,
				"y": -0.8819661021,
				"z": -1.4908685688,
				"element": "C" 
			},
			{
				"x": 1.3145682794,
				"y": -1.5250660708,
				"z": -1.6140546603,
				"element": "O" 
			},
			{
				"x": 1.3286609581,
				"y": 0.8993150779,
				"z": -0.0819531462,
				"element": "C" 
			},
			{
				"x": 1.2144897887,
				"y": 2.0843906577,
				"z": 0.6336491021,
				"element": "C" 
			},
			{
				"x": 2.6192953329,
				"y": 2.7517602005,
				"z": 1.4419249768,
				"element": "Cl" 
			},
			{
				"x": -0.0027402151,
				"y": 2.767060322,
				"z": 0.7281885279,
				"element": "C" 
			},
			{
				"x": -1.9152078629,
				"y": 0.6450628415,
				"z": -1.1372674921,
				"element": "H" 
			},
			{
				"x": -0.6580723291,
				"y": -1.2139496616,
				"z": -1.9623213273,
				"element": "H" 
			},
			{
				"x": 2.2688032809,
				"y": 0.3655727719,
				"z": -0.1590412729,
				"element": "H" 
			},
			{
				"x": -0.0763984183,
				"y": 3.6902540657,
				"z": 1.289874074,
				"element": "H" 
			}
		],
		 "valence_orbital": [ 
			{
				"type": "occ",
				"energy": -0.33507,
				"method": "rhf"
			},
			{
				"type": "occ",
				"energy": -0.32822,
				"method": "rhf"
			},
			{
				"type": "occ",
				"energy": -0.28078,
				"method": "rhf"
			},
			{
				"type": "occ",
				"energy": -0.27416,
				"method": "rhf"
			},
			{
				"type": "occ",
				"energy": -0.2684,
				"method": "rhf"
			},
			{
				"type": "unocc",
				"energy": -0.0854,
				"method": "rhf"
			},
			{
				"type": "unocc",
				"energy": -0.0402,
				"method": "rhf"
			},
			{
				"type": "unocc",
				"energy": -0.00477,
				"method": "rhf"
			},
			{
				"type": "unocc",
				"energy": 0.01477,
				"method": "rhf"
			},
			{
				"type": "unocc",
				"energy": 0.0355,
				"method": "rhf"
			}
		],
		"cosmo_sigma_profile": { 
			"-0.025": 0.0,
			"-0.024": 0.0,
			"-0.023": 0.0,
			"-0.022": 0.0,
			"-0.021": 0.0,
			"-0.02": 0.0,
			"-0.019": 0.0,
			"-0.018": 0.0,
			"-0.017": 0.0,
			"-0.016": 0.0,
			"-0.015": 0.0,
			"-0.014": 0.0,
			"-0.013": 0.0,
			"-0.012": 0.0,
			"-0.011": 0.0,
			"-0.01": 0.676014922736,
			"-0.009": 4.30129018967,
			"-0.008": 5.30040064629,
			"-0.007": 7.53583361347,
			"-0.006": 6.22577347962,
			"-0.005": 6.64829324974,
			"-0.004": 8.11315824127,
			"-0.003": 9.69255377855,
			"-0.002": 12.3710663425,
			"-0.001": 19.5931529794,
			"0.0": 30.8853238097,
			"0.001": 13.6334420851,
			"0.002": 12.3636323726,
			"0.003": 16.251617065,
			"0.004": 18.3207440566,
			"0.005": 1.54846207793,
			"0.006": 1.35095591371,
			"0.007": 2.06662193706,
			"0.008": 1.80203171588,
			"0.009": 2.0630013868,
			"0.01": 3.63913859615,
			"0.011": 3.50791511152,
			"0.012": 1.17489858468,
			"0.013": 0.0594005982648,
			"0.014": 0.0,
			"0.015": 0.0,
			"0.016": 0.0,
			"0.017": 0.0,
			"0.018": 0.0,
			"0.019": 0.0,
			"0.02": 0.0,
			"0.021": 0.0,
			"0.022": 0.0,
			"0.023": 0.0,
			"0.024": 0.0,
			"0.025": 0.0
		}
	}
}
