{
	 "smiles": "CN(C)C1=CC=C(C=C1)[N+]([O-])=CC(=O)C1=CC=C(C=C1)C(=O)C=[N+](/[O-])C1=CC=C(C=C1)N(C)C", 
	 "Tm": 406.15, 
	 "num_atms": 60, 
	 "gaussian": { 
		 "optdone": 1, 
		 "sigma_profile": "yes", 
		 "theory": "DFT", 
		 "functional": "B3LYP", 
		 "basiset": "6-31G**", 
		 "properties": { 
			 "R2extent": 35682.5905, 
			 "electric_dipole_moment_norm": 9.7946714728, 
			 "electric_quadrupole_moment_norm": 102.859977064, 
			 "total_energy": -1526.16157312, 
			 "HOMO_LUMO_gap": 0.12293, 
			 "cosmo_polarized_energy": -29.25, 
			 "cosmo_cavitation_energy": 64.36, 
			 "cosmo_dispersion_energy": -45.74, 
			 "cosmo_repulsion_energy": 3.34, 
			 "cosmo_total_nonelectrostatic_energy": 21.95, 
			 "SMD_solvation_energy": 13.26 
		},
		"coords": [
			{
				"x": -2.1916260754,
				"y": -4.993832509,
				"z": 8.0724601426,
				"element": "C" 
			},
			{
				"x": -2.6528521413,
				"y": -4.0757118701,
				"z": 7.0439286989,
				"element": "N" 
			},
			{
				"x": -3.9938400715,
				"y": -3.5209854365,
				"z": 7.1371253279,
				"element": "C" 
			},
			{
				"x": -1.9165047905,
				"y": -3.9066173434,
				"z": 5.889817532,
				"element": "C" 
			},
			{
				"x": -0.6640245342,
				"y": -4.5454004938,
				"z": 5.7144903649,
				"element": "C" 
			},
			{
				"x": 0.0872883868,
				"y": -4.3528576792,
				"z": 4.5629948023,
				"element": "C" 
			},
			{
				"x": -0.3861328902,
				"y": -3.5212998359,
				"z": 3.5453323489,
				"element": "C" 
			},
			{
				"x": -1.6363072342,
				"y": -2.9137118528,
				"z": 3.6764980907,
				"element": "C" 
			},
			{
				"x": -2.3862315516,
				"y": -3.0931094658,
				"z": 4.8277760929,
				"element": "C" 
			},
			{
				"x": 0.3472578434,
				"y": -3.2864218643,
				"z": 2.3079010241,
				"element": "N" 
			},
			{
				"x": -0.3669932254,
				"y": -3.0408085442,
				"z": 1.2885422896,
				"element": "O" 
			},
			{
				"x": 1.6741012099,
				"y": -3.3362616819,
				"z": 2.3247129878,
				"element": "C" 
			},
			{
				"x": 2.6288618017,
				"y": -3.3596638124,
				"z": 1.198407227,
				"element": "C" 
			},
			{
				"x": 3.7049045464,
				"y": -3.9104774078,
				"z": 1.4431874625,
				"element": "O" 
			},
			{
				"x": 2.4017733231,
				"y": -2.7389347682,
				"z": -0.1430708587,
				"element": "C" 
			},
			{
				"x": 3.1971551471,
				"y": -3.2023383923,
				"z": -1.2052598231,
				"element": "C" 
			},
			{
				"x": 3.0993338806,
				"y": -2.6209945063,
				"z": -2.4605519634,
				"element": "C" 
			},
			{
				"x": 2.2506307142,
				"y": -1.5204098153,
				"z": -2.6703221042,
				"element": "C" 
			},
			{
				"x": 1.4758280842,
				"y": -1.0420130647,
				"z": -1.6053749063,
				"element": "C" 
			},
			{
				"x": 1.5375578475,
				"y": -1.6571101391,
				"z": -0.3577429988,
				"element": "C" 
			},
			{
				"x": 2.134589082,
				"y": -1.007408901,
				"z": -4.070231403,
				"element": "C" 
			},
			{
				"x": 2.4146142242,
				"y": -1.7459246713,
				"z": -5.017497649,
				"element": "O" 
			},
			{
				"x": 1.6499081287,
				"y": 0.334194785,
				"z": -4.4523216261,
				"element": "C" 
			},
			{
				"x": 1.7205121578,
				"y": 1.4803766638,
				"z": -3.7856555779,
				"element": "N" 
			},
			{
				"x": 2.0526554987,
				"y": 1.6035551533,
				"z": -2.5674052763,
				"element": "O" 
			},
			{
				"x": 1.3900598957,
				"y": 2.7218750592,
				"z": -4.4740328683,
				"element": "C" 
			},
			{
				"x": 0.8985078954,
				"y": 3.7746134074,
				"z": -3.6997922161,
				"element": "C" 
			},
			{
				"x": 0.5621796407,
				"y": 4.9822593779,
				"z": -4.2901243894,
				"element": "C" 
			},
			{
				"x": 0.7226022837,
				"y": 5.1872480625,
				"z": -5.683907563,
				"element": "C" 
			},
			{
				"x": 1.2624891552,
				"y": 4.1177842257,
				"z": -6.4403740199,
				"element": "C" 
			},
			{
				"x": 1.5875275668,
				"y": 2.9067021614,
				"z": -5.8444831216,
				"element": "C" 
			},
			{
				"x": 0.3746089171,
				"y": 6.3824195731,
				"z": -6.2782119672,
				"element": "N" 
			},
			{
				"x": 0.6418593858,
				"y": 6.5964976325,
				"z": -7.6910952477,
				"element": "C" 
			},
			{
				"x": -0.0443870464,
				"y": 7.5067318159,
				"z": -5.4566460051,
				"element": "C" 
			},
			{
				"x": -2.1452208962,
				"y": -6.0342843659,
				"z": 7.7187276992,
				"element": "H" 
			},
			{
				"x": -1.1956789836,
				"y": -4.7146498669,
				"z": 8.4368113037,
				"element": "H" 
			},
			{
				"x": -2.8762744921,
				"y": -4.954887496,
				"z": 8.920322955,
				"element": "H" 
			},
			{
				"x": -4.6724599415,
				"y": -3.9351681939,
				"z": 6.3776079423,
				"element": "H" 
			},
			{
				"x": -4.4072110623,
				"y": -3.7478614907,
				"z": 8.1203141902,
				"element": "H" 
			},
			{
				"x": -3.9839533259,
				"y": -2.4299642386,
				"z": 7.0244213423,
				"element": "H" 
			},
			{
				"x": -0.2787093321,
				"y": -5.2149606948,
				"z": 6.472569145,
				"element": "H" 
			},
			{
				"x": 1.0232064979,
				"y": -4.8891252752,
				"z": 4.4520877583,
				"element": "H" 
			},
			{
				"x": -2.0046632163,
				"y": -2.3050547212,
				"z": 2.8598141178,
				"element": "H" 
			},
			{
				"x": -3.3469502974,
				"y": -2.599512921,
				"z": 4.8997207758,
				"element": "H" 
			},
			{
				"x": 2.1277541873,
				"y": -3.5417686839,
				"z": 3.2827730598,
				"element": "H" 
			},
			{
				"x": 3.8824940364,
				"y": -4.0222530146,
				"z": -1.0205927729,
				"element": "H" 
			},
			{
				"x": 3.6737855837,
				"y": -3.0000127182,
				"z": -3.2986442519,
				"element": "H" 
			},
			{
				"x": 0.8344901715,
				"y": -0.1815761555,
				"z": -1.7450584064,
				"element": "H" 
			},
			{
				"x": 0.9026486526,
				"y": -1.3029147147,
				"z": 0.4438811378,
				"element": "H" 
			},
			{
				"x": 1.3335957759,
				"y": 0.4044897719,
				"z": -5.4823102035,
				"element": "H" 
			},
			{
				"x": 0.790308881,
				"y": 3.6259676421,
				"z": -2.6324068823,
				"element": "H" 
			},
			{
				"x": 0.1750980199,
				"y": 5.7737504772,
				"z": -3.6612327624,
				"element": "H" 
			},
			{
				"x": 1.4506573869,
				"y": 4.2351789137,
				"z": -7.4997502565,
				"element": "H" 
			},
			{
				"x": 2.0327890942,
				"y": 2.1266683865,
				"z": -6.4520244515,
				"element": "H" 
			},
			{
				"x": 0.1412805478,
				"y": 5.8413918092,
				"z": -8.3090251482,
				"element": "H" 
			},
			{
				"x": 1.7161717786,
				"y": 6.5704022756,
				"z": -7.9256440812,
				"element": "H" 
			},
			{
				"x": 0.2549901176,
				"y": 7.5728195683,
				"z": -7.9847758649,
				"element": "H" 
			},
			{
				"x": -0.942947359,
				"y": 7.2647786466,
				"z": -4.8759586383,
				"element": "H" 
			},
			{
				"x": -0.2859233519,
				"y": 8.3513360401,
				"z": -6.1026377168,
				"element": "H" 
			},
			{
				"x": 0.738414471,
				"y": 7.8271471571,
				"z": -4.7541627977,
				"element": "H" 
			}
		],
		 "valence_orbital": [ 
			{
				"type": "occ",
				"energy": -0.2313,
				"method": "rhf"
			},
			{
				"type": "occ",
				"energy": -0.22731,
				"method": "rhf"
			},
			{
				"type": "occ",
				"energy": -0.22281,
				"method": "rhf"
			},
			{
				"type": "occ",
				"energy": -0.20362,
				"method": "rhf"
			},
			{
				"type": "occ",
				"energy": -0.20341,
				"method": "rhf"
			},
			{
				"type": "unocc",
				"energy": -0.08048,
				"method": "rhf"
			},
			{
				"type": "unocc",
				"energy": -0.0656,
				"method": "rhf"
			},
			{
				"type": "unocc",
				"energy": -0.02378,
				"method": "rhf"
			},
			{
				"type": "unocc",
				"energy": -0.01272,
				"method": "rhf"
			},
			{
				"type": "unocc",
				"energy": -0.01169,
				"method": "rhf"
			}
		],
		"cosmo_sigma_profile": { 
			"-0.025": 0.0,
			"-0.024": 0.0,
			"-0.023": 0.0,
			"-0.022": 0.0,
			"-0.021": 0.0,
			"-0.02": 0.0,
			"-0.019": 0.0,
			"-0.018": 0.0,
			"-0.017": 0.0,
			"-0.016": 0.0,
			"-0.015": 0.0,
			"-0.014": 0.0,
			"-0.013": 0.0,
			"-0.012": 0.0,
			"-0.011": 0.0,
			"-0.01": 0.353225636146,
			"-0.009": 3.16332211928,
			"-0.008": 5.17462322642,
			"-0.007": 11.140346481,
			"-0.006": 25.9300743161,
			"-0.005": 41.7352286686,
			"-0.004": 50.19310391,
			"-0.003": 46.9953906644,
			"-0.002": 60.1270710108,
			"-0.001": 40.4466434888,
			"0.0": 27.1705959609,
			"0.001": 26.3955275183,
			"0.002": 26.8812432218,
			"0.003": 36.8644659676,
			"0.004": 32.0774293649,
			"0.005": 14.1034971594,
			"0.006": 5.97290748388,
			"0.007": 8.08902977361,
			"0.008": 6.37672498448,
			"0.009": 7.57021035784,
			"0.01": 8.97694592525,
			"0.011": 13.0403477497,
			"0.012": 12.3939800221,
			"0.013": 2.40238737668,
			"0.014": 0.0,
			"0.015": 0.0,
			"0.016": 0.0,
			"0.017": 0.0,
			"0.018": 0.0,
			"0.019": 0.0,
			"0.02": 0.0,
			"0.021": 0.0,
			"0.022": 0.0,
			"0.023": 0.0,
			"0.024": 0.0,
			"0.025": 0.0
		}
	}
}
