{
	 "smiles": "CS(=O)(=O)C1=C(COCC(F)(F)F)C(Cl)=C(C=C1)C(=O)C1C(=O)CCCC1=O", 
	 "Tm": 396.15, 
	 "num_atms": 44, 
	 "gaussian": { 
		 "optdone": 1, 
		 "sigma_profile": "yes", 
		 "theory": "DFT", 
		 "functional": "B3LYP", 
		 "basiset": "6-31G**", 
		 "properties": { 
			 "R2extent": 13337.1815, 
			 "electric_dipole_moment_norm": 6.42119305503, 
			 "electric_quadrupole_moment_norm": 23.2320866743, 
			 "total_energy": -2266.5975886, 
			 "HOMO_LUMO_gap": 0.17503, 
			 "cosmo_polarized_energy": -26.06, 
			 "cosmo_cavitation_energy": 50.19, 
			 "cosmo_dispersion_energy": -34.05, 
			 "cosmo_repulsion_energy": 2.45, 
			 "cosmo_total_nonelectrostatic_energy": 18.6, 
			 "SMD_solvation_energy": 10.28 
		},
		"coords": [
			{
				"x": -2.7386483128,
				"y": -2.3024874671,
				"z": -1.8024693088,
				"element": "C" 
			},
			{
				"x": -1.0504660824,
				"y": -2.8944603142,
				"z": -2.0251344882,
				"element": "S" 
			},
			{
				"x": -0.8318269852,
				"y": -3.0925031358,
				"z": -3.4661316085,
				"element": "O" 
			},
			{
				"x": -0.8167977184,
				"y": -4.0120079344,
				"z": -1.093318815,
				"element": "O" 
			},
			{
				"x": -0.0251766748,
				"y": -1.4545989998,
				"z": -1.545808002,
				"element": "C" 
			},
			{
				"x": 0.3270395843,
				"y": -1.1428567574,
				"z": -0.2165211139,
				"element": "C" 
			},
			{
				"x": -0.0296482951,
				"y": -2.0691439394,
				"z": 0.9266843746,
				"element": "C" 
			},
			{
				"x": -1.4363799346,
				"y": -1.9785018196,
				"z": 1.1699018021,
				"element": "O" 
			},
			{
				"x": -1.8888749783,
				"y": -3.0147732856,
				"z": 2.0104240619,
				"element": "C" 
			},
			{
				"x": -3.3415403464,
				"y": -2.746844845,
				"z": 2.3536302217,
				"element": "C" 
			},
			{
				"x": -4.1163741223,
				"y": -2.6875275266,
				"z": 1.24782651,
				"element": "F" 
			},
			{
				"x": -3.4982405982,
				"y": -1.5911137523,
				"z": 3.0216345575,
				"element": "F" 
			},
			{
				"x": -3.8112357781,
				"y": -3.7455159585,
				"z": 3.1303773229,
				"element": "F" 
			},
			{
				"x": 1.0524450607,
				"y": 0.0472689195,
				"z": -0.0131436126,
				"element": "C" 
			},
			{
				"x": 1.5169393816,
				"y": 0.4654114569,
				"z": 1.6357020193,
				"element": "Cl" 
			},
			{
				"x": 1.4535957797,
				"y": 0.8832678369,
				"z": -1.0719317414,
				"element": "C" 
			},
			{
				"x": 1.1271518593,
				"y": 0.4837378585,
				"z": -2.3740418014,
				"element": "C" 
			},
			{
				"x": 0.384104988,
				"y": -0.6624200226,
				"z": -2.6155009996,
				"element": "C" 
			},
			{
				"x": 2.2306655031,
				"y": 2.1849194463,
				"z": -1.0149244747,
				"element": "C" 
			},
			{
				"x": 2.9279562593,
				"y": 2.4777660555,
				"z": -1.9684775258,
				"element": "O" 
			},
			{
				"x": 2.1204480757,
				"y": 3.2135790404,
				"z": 0.1187696346,
				"element": "C" 
			},
			{
				"x": 0.7113787144,
				"y": 3.4418585208,
				"z": 0.6841064317,
				"element": "C" 
			},
			{
				"x": -0.2686780903,
				"y": 3.0118886898,
				"z": 0.1109504462,
				"element": "O" 
			},
			{
				"x": 0.6258227096,
				"y": 4.3099633413,
				"z": 1.929011822,
				"element": "C" 
			},
			{
				"x": 1.6961445066,
				"y": 3.9631708247,
				"z": 2.9766471176,
				"element": "C" 
			},
			{
				"x": 3.1133956166,
				"y": 3.9880339435,
				"z": 2.3786570235,
				"element": "C" 
			},
			{
				"x": 3.2494778278,
				"y": 3.0802921642,
				"z": 1.1663772721,
				"element": "C" 
			},
			{
				"x": 4.1914698484,
				"y": 2.3405478326,
				"z": 0.9916681881,
				"element": "O" 
			},
			{
				"x": -3.3839960737,
				"y": -3.1251618187,
				"z": -2.1187047185,
				"element": "H" 
			},
			{
				"x": -2.8946665068,
				"y": -2.0628033621,
				"z": -0.7524213923,
				"element": "H" 
			},
			{
				"x": -2.8886540958,
				"y": -1.4344090951,
				"z": -2.4456772147,
				"element": "H" 
			},
			{
				"x": 0.2339237834,
				"y": -3.0933697817,
				"z": 0.6481406433,
				"element": "H" 
			},
			{
				"x": 0.5176819598,
				"y": -1.7960534148,
				"z": 1.8325955025,
				"element": "H" 
			},
			{
				"x": -1.8182185674,
				"y": -3.9935106044,
				"z": 1.5171929959,
				"element": "H" 
			},
			{
				"x": -1.3289163015,
				"y": -3.0517357911,
				"z": 2.9562485899,
				"element": "H" 
			},
			{
				"x": 1.4660802369,
				"y": 1.1055017258,
				"z": -3.1941977779,
				"element": "H" 
			},
			{
				"x": 0.1280533707,
				"y": -0.9588136014,
				"z": -3.6258764084,
				"element": "H" 
			},
			{
				"x": 2.3680283399,
				"y": 4.1640783478,
				"z": -0.3834095288,
				"element": "H" 
			},
			{
				"x": 0.7603270185,
				"y": 5.3526959644,
				"z": 1.6029023942,
				"element": "H" 
			},
			{
				"x": -0.38791033,
				"y": 4.2236415487,
				"z": 2.3275556237,
				"element": "H" 
			},
			{
				"x": 1.6379942953,
				"y": 4.6721203841,
				"z": 3.8080077724,
				"element": "H" 
			},
			{
				"x": 1.4909143521,
				"y": 2.9717865136,
				"z": 3.3954717784,
				"element": "H" 
			},
			{
				"x": 3.3529382342,
				"y": 5.0110604431,
				"z": 2.0516170368,
				"element": "H" 
			},
			{
				"x": 3.873072486,
				"y": 3.6896223696,
				"z": 3.1049893895,
				"element": "H" 
			}
		],
		 "valence_orbital": [ 
			{
				"type": "occ",
				"energy": -0.2879,
				"method": "rhf"
			},
			{
				"type": "occ",
				"energy": -0.27928,
				"method": "rhf"
			},
			{
				"type": "occ",
				"energy": -0.27477,
				"method": "rhf"
			},
			{
				"type": "occ",
				"energy": -0.26448,
				"method": "rhf"
			},
			{
				"type": "occ",
				"energy": -0.2622,
				"method": "rhf"
			},
			{
				"type": "unocc",
				"energy": -0.08717,
				"method": "rhf"
			},
			{
				"type": "unocc",
				"energy": -0.04871,
				"method": "rhf"
			},
			{
				"type": "unocc",
				"energy": -0.04275,
				"method": "rhf"
			},
			{
				"type": "unocc",
				"energy": -0.0328,
				"method": "rhf"
			},
			{
				"type": "unocc",
				"energy": -0.01604,
				"method": "rhf"
			}
		],
		"cosmo_sigma_profile": { 
			"-0.025": 0.0,
			"-0.024": 0.0,
			"-0.023": 0.0,
			"-0.022": 0.0,
			"-0.021": 0.0,
			"-0.02": 0.0,
			"-0.019": 0.0,
			"-0.018": 0.0,
			"-0.017": 0.0,
			"-0.016": 0.0,
			"-0.015": 0.0,
			"-0.014": 0.0,
			"-0.013": 0.000141421321637,
			"-0.012": 1.47445217098,
			"-0.011": 2.68635173592,
			"-0.01": 2.9287505229,
			"-0.009": 5.38525728218,
			"-0.008": 11.9086476594,
			"-0.007": 18.620187549,
			"-0.006": 19.7844910413,
			"-0.005": 31.0318991157,
			"-0.004": 32.7882220755,
			"-0.003": 28.4072830307,
			"-0.002": 25.9272847295,
			"-0.001": 24.1214910372,
			"0.0": 22.632490094,
			"0.001": 20.7887647681,
			"0.002": 28.8938134681,
			"0.003": 32.6134716977,
			"0.004": 9.7128765966,
			"0.005": 7.54854238854,
			"0.006": 8.60615807982,
			"0.007": 8.56845134281,
			"0.008": 10.5012314703,
			"0.009": 10.6480960571,
			"0.01": 14.9454130494,
			"0.011": 14.4311945968,
			"0.012": 5.57611425718,
			"0.013": 0.000820135972718,
			"0.014": 0.0,
			"0.015": 0.0,
			"0.016": 0.0,
			"0.017": 0.0,
			"0.018": 0.0,
			"0.019": 0.0,
			"0.02": 0.0,
			"0.021": 0.0,
			"0.022": 0.0,
			"0.023": 0.0,
			"0.024": 0.0,
			"0.025": 0.0
		}
	}
}
