{
	 "smiles": "CC(C)(C)OC(=O)N1CCN(CC1)C1=NN=C(Cl)C=C1", 
	 "Tm": 436.15, 
	 "num_atms": 39, 
	 "gaussian": { 
		 "optdone": 1, 
		 "sigma_profile": "yes", 
		 "theory": "DFT", 
		 "functional": "B3LYP", 
		 "basiset": "6-31G**", 
		 "properties": { 
			 "R2extent": 11922.7117, 
			 "electric_dipole_moment_norm": 3.56309942325, 
			 "electric_quadrupole_moment_norm": 40.3837756519, 
			 "total_energy": -1336.47289085, 
			 "HOMO_LUMO_gap": 0.1647, 
			 "cosmo_polarized_energy": -17.06, 
			 "cosmo_cavitation_energy": 42.34, 
			 "cosmo_dispersion_energy": -30.26, 
			 "cosmo_repulsion_energy": 2.33, 
			 "cosmo_total_nonelectrostatic_energy": 14.41, 
			 "SMD_solvation_energy": 4.85 
		},
		"coords": [
			{
				"x": -2.4103343878,
				"y": -2.3000970727,
				"z": -3.0167763791,
				"element": "C" 
			},
			{
				"x": -1.7751134584,
				"y": -0.9246258945,
				"z": -3.2453569218,
				"element": "C" 
			},
			{
				"x": -2.8230180664,
				"y": 0.1846092551,
				"z": -3.3840815126,
				"element": "C" 
			},
			{
				"x": -0.8459445483,
				"y": -0.9499148199,
				"z": -4.4617049008,
				"element": "C" 
			},
			{
				"x": -0.849462109,
				"y": -0.6078720308,
				"z": -2.1442291913,
				"element": "O" 
			},
			{
				"x": -1.2943768298,
				"y": -0.4974540913,
				"z": -0.8706336291,
				"element": "C" 
			},
			{
				"x": -2.452336265,
				"y": -0.6323772476,
				"z": -0.4978347789,
				"element": "O" 
			},
			{
				"x": -0.2472699411,
				"y": -0.2090856556,
				"z": -0.0322375032,
				"element": "N" 
			},
			{
				"x": -0.5114475631,
				"y": -0.0048630434,
				"z": 1.3848479516,
				"element": "C" 
			},
			{
				"x": 0.1108657864,
				"y": 1.3056461069,
				"z": 1.8690288071,
				"element": "C" 
			},
			{
				"x": 1.5243565665,
				"y": 1.3659656251,
				"z": 1.4945648032,
				"element": "N" 
			},
			{
				"x": 2.0535140486,
				"y": 0.2807341818,
				"z": 0.6666668491,
				"element": "C" 
			},
			{
				"x": 1.1250938089,
				"y": -0.0054415073,
				"z": -0.5139771435,
				"element": "C" 
			},
			{
				"x": 2.3162078472,
				"y": 2.4094626929,
				"z": 1.8991658072,
				"element": "C" 
			},
			{
				"x": 3.6179803222,
				"y": 2.3647260913,
				"z": 1.5430634018,
				"element": "N" 
			},
			{
				"x": 4.4491748268,
				"y": 3.3429098732,
				"z": 1.8914444366,
				"element": "N" 
			},
			{
				"x": 4.0031773601,
				"y": 4.3615355493,
				"z": 2.5997280024,
				"element": "C" 
			},
			{
				"x": 5.1720097436,
				"y": 5.6014859302,
				"z": 3.0219015302,
				"element": "Cl" 
			},
			{
				"x": 2.6703663303,
				"y": 4.4941289502,
				"z": 3.0186265011,
				"element": "C" 
			},
			{
				"x": 1.7982131693,
				"y": 3.4936906852,
				"z": 2.6590944241,
				"element": "C" 
			},
			{
				"x": -3.0076453562,
				"y": -2.5778591812,
				"z": -3.8912693448,
				"element": "H" 
			},
			{
				"x": -1.6335355963,
				"y": -3.0595590833,
				"z": -2.8819689768,
				"element": "H" 
			},
			{
				"x": -3.0543983587,
				"y": -2.2915745502,
				"z": -2.1373278166,
				"element": "H" 
			},
			{
				"x": -3.4717990728,
				"y": 0.2201297951,
				"z": -2.508781489,
				"element": "H" 
			},
			{
				"x": -2.3336070514,
				"y": 1.1563833621,
				"z": -3.5047648574,
				"element": "H" 
			},
			{
				"x": -3.4357538347,
				"y": 0.0012816145,
				"z": -4.2726881926,
				"element": "H" 
			},
			{
				"x": -0.3575179591,
				"y": 0.0196634107,
				"z": -4.5957310452,
				"element": "H" 
			},
			{
				"x": -1.4179460881,
				"y": -1.1774530351,
				"z": -5.3660450714,
				"element": "H" 
			},
			{
				"x": -0.0712948145,
				"y": -1.7128114422,
				"z": -4.3410787885,
				"element": "H" 
			},
			{
				"x": -0.1246463358,
				"y": -0.8445552981,
				"z": 1.9780824444,
				"element": "H" 
			},
			{
				"x": -1.5929297931,
				"y": 0.0216561332,
				"z": 1.5185262357,
				"element": "H" 
			},
			{
				"x": -0.0035571231,
				"y": 1.3690687172,
				"z": 2.9607974596,
				"element": "H" 
			},
			{
				"x": -0.4380296895,
				"y": 2.1512225659,
				"z": 1.4289072883,
				"element": "H" 
			},
			{
				"x": 3.0347758631,
				"y": 0.5838576597,
				"z": 0.3048258389,
				"element": "H" 
			},
			{
				"x": 2.1959777531,
				"y": -0.6263981646,
				"z": 1.2701278961,
				"element": "H" 
			},
			{
				"x": 1.1537696544,
				"y": 0.8319537442,
				"z": -1.2208526509,
				"element": "H" 
			},
			{
				"x": 1.4783737035,
				"y": -0.8945985132,
				"z": -1.0478337552,
				"element": "H" 
			},
			{
				"x": 2.3499538995,
				"y": 5.3533070106,
				"z": 3.5968145988,
				"element": "H" 
			},
			{
				"x": 0.7548535586,
				"y": 3.5438216765,
				"z": 2.9446596725,
				"element": "H" 
			}
		],
		 "valence_orbital": [ 
			{
				"type": "occ",
				"energy": -0.29207,
				"method": "rhf"
			},
			{
				"type": "occ",
				"energy": -0.26657,
				"method": "rhf"
			},
			{
				"type": "occ",
				"energy": -0.24452,
				"method": "rhf"
			},
			{
				"type": "occ",
				"energy": -0.2373,
				"method": "rhf"
			},
			{
				"type": "occ",
				"energy": -0.21884,
				"method": "rhf"
			},
			{
				"type": "unocc",
				"energy": -0.05414,
				"method": "rhf"
			},
			{
				"type": "unocc",
				"energy": -0.01256,
				"method": "rhf"
			},
			{
				"type": "unocc",
				"energy": 0.03333,
				"method": "rhf"
			},
			{
				"type": "unocc",
				"energy": 0.04736,
				"method": "rhf"
			},
			{
				"type": "unocc",
				"energy": 0.07142,
				"method": "rhf"
			}
		],
		"cosmo_sigma_profile": { 
			"-0.025": 0.0,
			"-0.024": 0.0,
			"-0.023": 0.0,
			"-0.022": 0.0,
			"-0.021": 0.0,
			"-0.02": 0.0,
			"-0.019": 0.0,
			"-0.018": 0.0,
			"-0.017": 0.0,
			"-0.016": 0.0,
			"-0.015": 0.0,
			"-0.014": 0.0,
			"-0.013": 0.0,
			"-0.012": 0.0,
			"-0.011": 0.0,
			"-0.01": 0.0,
			"-0.009": 2.26265756389,
			"-0.008": 4.89841290608,
			"-0.007": 5.45222973787,
			"-0.006": 10.147429666,
			"-0.005": 25.2203370491,
			"-0.004": 30.6765578974,
			"-0.003": 29.7863319834,
			"-0.002": 28.3521246786,
			"-0.001": 36.1751427338,
			"0.0": 41.4871458717,
			"0.001": 30.1216422513,
			"0.002": 14.0109686125,
			"0.003": 11.0880094908,
			"0.004": 14.7878981452,
			"0.005": 11.6592061081,
			"0.006": 6.8481343898,
			"0.007": 4.4499360823,
			"0.008": 4.39285274127,
			"0.009": 2.95872853188,
			"0.01": 3.389152432,
			"0.011": 4.10163139288,
			"0.012": 3.78215548067,
			"0.013": 5.73515031389,
			"0.014": 2.7282834896,
			"0.015": 0.719822898352,
			"0.016": 0.0310347245637,
			"0.017": 0.0,
			"0.018": 0.0,
			"0.019": 0.0,
			"0.02": 0.0,
			"0.021": 0.0,
			"0.022": 0.0,
			"0.023": 0.0,
			"0.024": 0.0,
			"0.025": 0.0
		}
	}
}
