{
	 "smiles": "CC1=NNC(SCC(O)=O)=N1", 
	 "Tm": 502.15, 
	 "num_atms": 18, 
	 "gaussian": { 
		 "optdone": 1, 
		 "sigma_profile": "yes", 
		 "theory": "DFT", 
		 "functional": "B3LYP", 
		 "basiset": "6-31G**", 
		 "properties": { 
			 "R2extent": 2618.2648, 
			 "electric_dipole_moment_norm": 4.08106444325, 
			 "electric_quadrupole_moment_norm": 11.7280618778, 
			 "total_energy": -907.644698271, 
			 "HOMO_LUMO_gap": 0.19019, 
			 "cosmo_polarized_energy": -15.59, 
			 "cosmo_cavitation_energy": 24.37, 
			 "cosmo_dispersion_energy": -18.71, 
			 "cosmo_repulsion_energy": 1.48, 
			 "cosmo_total_nonelectrostatic_energy": 7.14, 
			 "SMD_solvation_energy": 2.07 
		},
		"coords": [
			{
				"x": -0.5999263857,
				"y": 3.9312685244,
				"z": -1.6719633112,
				"element": "C" 
			},
			{
				"x": -0.0765183833,
				"y": 2.6883599161,
				"z": -1.0298248988,
				"element": "C" 
			},
			{
				"x": 1.2216680857,
				"y": 2.4727732757,
				"z": -0.8457437112,
				"element": "N" 
			},
			{
				"x": 1.2377852276,
				"y": 1.2497247904,
				"z": -0.2544460645,
				"element": "N" 
			},
			{
				"x": -0.0295058169,
				"y": 0.8053942323,
				"z": -0.0923094898,
				"element": "C" 
			},
			{
				"x": -0.5077864123,
				"y": -0.7585739861,
				"z": 0.5817821499,
				"element": "S" 
			},
			{
				"x": 0.7189101246,
				"y": -0.9604214224,
				"z": 1.9426076354,
				"element": "C" 
			},
			{
				"x": 2.0498682143,
				"y": -1.4954735283,
				"z": 1.4559068783,
				"element": "C" 
			},
			{
				"x": 2.2494631187,
				"y": -2.7708724631,
				"z": 1.8226597361,
				"element": "O" 
			},
			{
				"x": 2.860851253,
				"y": -0.8652980255,
				"z": 0.8021072528,
				"element": "O" 
			},
			{
				"x": -0.8912861042,
				"y": 1.6869973802,
				"z": -0.570177787,
				"element": "N" 
			},
			{
				"x": -1.272016569,
				"y": 4.4655199212,
				"z": -0.9929805925,
				"element": "H" 
			},
			{
				"x": 0.2285404867,
				"y": 4.5883203706,
				"z": -1.9427158579,
				"element": "H" 
			},
			{
				"x": -1.1716992901,
				"y": 3.6891362332,
				"z": -2.573520275,
				"element": "H" 
			},
			{
				"x": 2.0999259479,
				"y": 0.7703445694,
				"z": -0.0067602607,
				"element": "H" 
			},
			{
				"x": 0.2660001577,
				"y": -1.6558210671,
				"z": 2.6502386754,
				"element": "H" 
			},
			{
				"x": 0.8729747979,
				"y": 0.0051867903,
				"z": 2.4289511504,
				"element": "H" 
			},
			{
				"x": 3.1082515472,
				"y": -3.0424655111,
				"z": 1.4540887703,
				"element": "H" 
			}
		],
		 "valence_orbital": [ 
			{
				"type": "occ",
				"energy": -0.31548,
				"method": "rhf"
			},
			{
				"type": "occ",
				"energy": -0.29983,
				"method": "rhf"
			},
			{
				"type": "occ",
				"energy": -0.27635,
				"method": "rhf"
			},
			{
				"type": "occ",
				"energy": -0.26826,
				"method": "rhf"
			},
			{
				"type": "occ",
				"energy": -0.23401,
				"method": "rhf"
			},
			{
				"type": "unocc",
				"energy": -0.04382,
				"method": "rhf"
			},
			{
				"type": "unocc",
				"energy": 0.00117,
				"method": "rhf"
			},
			{
				"type": "unocc",
				"energy": 0.03382,
				"method": "rhf"
			},
			{
				"type": "unocc",
				"energy": 0.05293,
				"method": "rhf"
			},
			{
				"type": "unocc",
				"energy": 0.05772,
				"method": "rhf"
			}
		],
		"cosmo_sigma_profile": { 
			"-0.025": 0.0,
			"-0.024": 0.0,
			"-0.023": 0.0,
			"-0.022": 0.0,
			"-0.021": 0.0,
			"-0.02": 0.0179782371042,
			"-0.019": 0.862056892969,
			"-0.018": 0.947665426661,
			"-0.017": 1.09225045499,
			"-0.016": 0.707558367186,
			"-0.015": 0.987431695518,
			"-0.014": 0.518253764496,
			"-0.013": 0.564930352607,
			"-0.012": 0.991410566736,
			"-0.011": 0.873077120801,
			"-0.01": 1.6657414784,
			"-0.009": 6.20101565879,
			"-0.008": 6.47009523909,
			"-0.007": 6.87834475676,
			"-0.006": 6.57249802128,
			"-0.005": 9.70269386286,
			"-0.004": 10.6545094944,
			"-0.003": 11.1175817228,
			"-0.002": 12.4837641045,
			"-0.001": 16.5685406802,
			"0.0": 15.6995934273,
			"0.001": 10.2694900435,
			"0.002": 10.6545571198,
			"0.003": 8.69992493057,
			"0.004": 8.85980791422,
			"0.005": 8.12653708287,
			"0.006": 7.88171302399,
			"0.007": 5.66695426351,
			"0.008": 4.73145393118,
			"0.009": 4.09907887293,
			"0.01": 4.07911093169,
			"0.011": 2.82099224167,
			"0.012": 2.22040387274,
			"0.013": 1.81436298159,
			"0.014": 2.01704608962,
			"0.015": 1.67675416639,
			"0.016": 0.92657819941,
			"0.017": 0.0768329329338,
			"0.018": 0.0,
			"0.019": 0.0,
			"0.02": 0.0,
			"0.021": 0.0,
			"0.022": 0.0,
			"0.023": 0.0,
			"0.024": 0.0,
			"0.025": 0.0
		}
	}
}
