{
	 "smiles": "CC1=CC(NN=C2C(=O)NN=C2C(F)(F)F)=CC=C1", 
	 "Tm": 428.15, 
	 "num_atms": 28, 
	 "gaussian": { 
		 "optdone": 1, 
		 "sigma_profile": "yes", 
		 "theory": "DFT", 
		 "functional": "B3LYP", 
		 "basiset": "6-31G**", 
		 "properties": { 
			 "R2extent": 7590.1877, 
			 "electric_dipole_moment_norm": 4.03954030305, 
			 "electric_quadrupole_moment_norm": 8.72288510013, 
			 "total_energy": -1018.30668748, 
			 "HOMO_LUMO_gap": 0.12312, 
			 "cosmo_polarized_energy": -12.11, 
			 "cosmo_cavitation_energy": 35.32, 
			 "cosmo_dispersion_energy": -24.88, 
			 "cosmo_repulsion_energy": 1.86, 
			 "cosmo_total_nonelectrostatic_energy": 12.3, 
			 "SMD_solvation_energy": 6.39 
		},
		"coords": [
			{
				"x": -0.7692208823,
				"y": 3.7509871621,
				"z": 3.4213845375,
				"element": "C" 
			},
			{
				"x": -0.3150529021,
				"y": 2.8682870519,
				"z": 2.2827519144,
				"element": "C" 
			},
			{
				"x": -1.0438646143,
				"y": 1.7296396859,
				"z": 1.9293000606,
				"element": "C" 
			},
			{
				"x": -0.6374235292,
				"y": 0.927052475,
				"z": 0.8553596015,
				"element": "C" 
			},
			{
				"x": -1.4171326875,
				"y": -0.2032654333,
				"z": 0.5575385265,
				"element": "N" 
			},
			{
				"x": -1.1143512918,
				"y": -1.0112095564,
				"z": -0.423702088,
				"element": "N" 
			},
			{
				"x": -1.9113094893,
				"y": -2.0409168035,
				"z": -0.6181833013,
				"element": "C" 
			},
			{
				"x": -3.1160796496,
				"y": -2.3874259446,
				"z": 0.1531779382,
				"element": "C" 
			},
			{
				"x": -3.6143233549,
				"y": -1.7951712455,
				"z": 1.1191095666,
				"element": "O" 
			},
			{
				"x": -3.5545180434,
				"y": -3.5371132121,
				"z": -0.4664098692,
				"element": "N" 
			},
			{
				"x": -2.7704745286,
				"y": -3.9427092893,
				"z": -1.5236437232,
				"element": "N" 
			},
			{
				"x": -1.8036381667,
				"y": -3.0711927532,
				"z": -1.6207104252,
				"element": "C" 
			},
			{
				"x": -0.7461568761,
				"y": -3.1964938586,
				"z": -2.6757775373,
				"element": "C" 
			},
			{
				"x": -0.9379241743,
				"y": -4.2723606363,
				"z": -3.4517042453,
				"element": "F" 
			},
			{
				"x": 0.479246127,
				"y": -3.295454798,
				"z": -2.1153208181,
				"element": "F" 
			},
			{
				"x": -0.7306263457,
				"y": -2.1031908574,
				"z": -3.4694854322,
				"element": "F" 
			},
			{
				"x": 0.5071751025,
				"y": 1.2463040249,
				"z": 0.1153884448,
				"element": "C" 
			},
			{
				"x": 1.232892718,
				"y": 2.3790858799,
				"z": 0.4717507382,
				"element": "C" 
			},
			{
				"x": 0.8325896436,
				"y": 3.1828448689,
				"z": 1.5414844525,
				"element": "C" 
			},
			{
				"x": -1.3367597673,
				"y": 4.6126592719,
				"z": 3.0490918899,
				"element": "H" 
			},
			{
				"x": 0.0829009585,
				"y": 4.1433722277,
				"z": 3.9845998278,
				"element": "H" 
			},
			{
				"x": -1.4154135278,
				"y": 3.2089836456,
				"z": 4.1175089738,
				"element": "H" 
			},
			{
				"x": -1.9349380342,
				"y": 1.4608040948,
				"z": 2.4921568118,
				"element": "H" 
			},
			{
				"x": -2.2542730326,
				"y": -0.4171381972,
				"z": 1.1166757014,
				"element": "H" 
			},
			{
				"x": -4.3667248069,
				"y": -4.0819351855,
				"z": -0.2201017476,
				"element": "H" 
			},
			{
				"x": 0.8085587039,
				"y": 0.6129012742,
				"z": -0.7098546657,
				"element": "H" 
			},
			{
				"x": 2.1254959879,
				"y": 2.6364871767,
				"z": -0.0907885269,
				"element": "H" 
			},
			{
				"x": 1.4159464634,
				"y": 4.0608689313,
				"z": 1.8050033946,
				"element": "H" 
			}
		],
		 "valence_orbital": [ 
			{
				"type": "occ",
				"energy": -0.30781,
				"method": "rhf"
			},
			{
				"type": "occ",
				"energy": -0.26475,
				"method": "rhf"
			},
			{
				"type": "occ",
				"energy": -0.26442,
				"method": "rhf"
			},
			{
				"type": "occ",
				"energy": -0.25789,
				"method": "rhf"
			},
			{
				"type": "occ",
				"energy": -0.22265,
				"method": "rhf"
			},
			{
				"type": "unocc",
				"energy": -0.09953,
				"method": "rhf"
			},
			{
				"type": "unocc",
				"energy": -0.01521,
				"method": "rhf"
			},
			{
				"type": "unocc",
				"energy": 0.00036,
				"method": "rhf"
			},
			{
				"type": "unocc",
				"energy": 0.01073,
				"method": "rhf"
			},
			{
				"type": "unocc",
				"energy": 0.08226,
				"method": "rhf"
			}
		],
		"cosmo_sigma_profile": { 
			"-0.025": 0.0,
			"-0.024": 0.0,
			"-0.023": 0.0,
			"-0.022": 0.0,
			"-0.021": 0.0,
			"-0.02": 0.0,
			"-0.019": 0.0,
			"-0.018": 0.00725190676419,
			"-0.017": 1.29885186575,
			"-0.016": 1.20712186794,
			"-0.015": 1.02470919944,
			"-0.014": 0.86721546648,
			"-0.013": 0.801056989808,
			"-0.012": 1.54130416454,
			"-0.011": 2.36600513461,
			"-0.01": 1.37478638308,
			"-0.009": 1.90392253072,
			"-0.008": 1.91098145905,
			"-0.007": 3.67717225115,
			"-0.006": 8.27799550709,
			"-0.005": 13.5523923224,
			"-0.004": 18.6438838854,
			"-0.003": 18.9658858566,
			"-0.002": 22.0022389708,
			"-0.001": 24.7709326983,
			"0.0": 23.7774180144,
			"0.001": 20.1187236593,
			"0.002": 34.2278749899,
			"0.003": 32.3917192889,
			"0.004": 18.2187829763,
			"0.005": 8.84447037099,
			"0.006": 3.16332185211,
			"0.007": 1.6282809326,
			"0.008": 2.48450008517,
			"0.009": 3.05795201605,
			"0.01": 2.58239464564,
			"0.011": 3.46724179314,
			"0.012": 3.39193144419,
			"0.013": 1.96534041282,
			"0.014": 0.0490792716903,
			"0.015": 0.0,
			"0.016": 0.0,
			"0.017": 0.0,
			"0.018": 0.0,
			"0.019": 0.0,
			"0.02": 0.0,
			"0.021": 0.0,
			"0.022": 0.0,
			"0.023": 0.0,
			"0.024": 0.0,
			"0.025": 0.0
		}
	}
}
