{
	 "smiles": "CCCN1C=CN=C1S", 
	 "Tm": 393.15, 
	 "num_atms": 19, 
	 "gaussian": { 
		 "optdone": 1, 
		 "sigma_profile": "yes", 
		 "theory": "DFT", 
		 "functional": "B3LYP", 
		 "basiset": "6-31G**", 
		 "properties": { 
			 "R2extent": 1970.5038, 
			 "electric_dipole_moment_norm": 3.16535365165, 
			 "electric_quadrupole_moment_norm": 7.22368241204, 
			 "total_energy": -742.350193911, 
			 "HOMO_LUMO_gap": 0.2189, 
			 "cosmo_polarized_energy": -9.29, 
			 "cosmo_cavitation_energy": 23.82, 
			 "cosmo_dispersion_energy": -17.66, 
			 "cosmo_repulsion_energy": 1.41, 
			 "cosmo_total_nonelectrostatic_energy": 7.58, 
			 "SMD_solvation_energy": 2.33 
		},
		"coords": [
			{
				"x": 0.5432548655,
				"y": -2.2879365302,
				"z": 0.80382914,
				"element": "C" 
			},
			{
				"x": -0.2881045018,
				"y": -1.0170890282,
				"z": 0.6062510807,
				"element": "C" 
			},
			{
				"x": 0.0901846624,
				"y": -0.2773386519,
				"z": -0.6842643401,
				"element": "C" 
			},
			{
				"x": -0.6902799535,
				"y": 0.935639,
				"z": -0.9067665743,
				"element": "N" 
			},
			{
				"x": -1.9092439344,
				"y": 1.0197786518,
				"z": -1.5664554723,
				"element": "C" 
			},
			{
				"x": -2.2877968528,
				"y": 2.332869543,
				"z": -1.4858654077,
				"element": "C" 
			},
			{
				"x": -1.3527426573,
				"y": 3.069580683,
				"z": -0.7890428651,
				"element": "N" 
			},
			{
				"x": -0.4201849755,
				"y": 2.2020521332,
				"z": -0.4591691046,
				"element": "C" 
			},
			{
				"x": 1.0542032352,
				"y": 2.5747099115,
				"z": 0.4600768503,
				"element": "S" 
			},
			{
				"x": 0.2584122372,
				"y": -2.8022328485,
				"z": 1.7262194948,
				"element": "H" 
			},
			{
				"x": 0.4032780751,
				"y": -2.9910844969,
				"z": -0.0251520116,
				"element": "H" 
			},
			{
				"x": 1.6128669278,
				"y": -2.0590362567,
				"z": 0.8685358759,
				"element": "H" 
			},
			{
				"x": -1.3560978629,
				"y": -1.2634181158,
				"z": 0.5716208892,
				"element": "H" 
			},
			{
				"x": -0.1511778472,
				"y": -0.3400209054,
				"z": 1.4573848191,
				"element": "H" 
			},
			{
				"x": 1.1501468222,
				"y": -0.0001153402,
				"z": -0.6697576551,
				"element": "H" 
			},
			{
				"x": -0.0547600192,
				"y": -0.9275143361,
				"z": -1.5535531178,
				"element": "H" 
			},
			{
				"x": -2.3627036781,
				"y": 0.1524098107,
				"z": -2.0214926502,
				"element": "H" 
			},
			{
				"x": -3.1756965517,
				"y": 2.7976794381,
				"z": -1.8914059854,
				"element": "H" 
			},
			{
				"x": 0.836742009,
				"y": 3.9007673384,
				"z": 0.4018070343,
				"element": "H" 
			}
		],
		 "valence_orbital": [ 
			{
				"type": "occ",
				"energy": -0.34935,
				"method": "rhf"
			},
			{
				"type": "occ",
				"energy": -0.28986,
				"method": "rhf"
			},
			{
				"type": "occ",
				"energy": -0.26596,
				"method": "rhf"
			},
			{
				"type": "occ",
				"energy": -0.2643,
				"method": "rhf"
			},
			{
				"type": "occ",
				"energy": -0.20497,
				"method": "rhf"
			},
			{
				"type": "unocc",
				"energy": 0.01393,
				"method": "rhf"
			},
			{
				"type": "unocc",
				"energy": 0.031,
				"method": "rhf"
			},
			{
				"type": "unocc",
				"energy": 0.06754,
				"method": "rhf"
			},
			{
				"type": "unocc",
				"energy": 0.07189,
				"method": "rhf"
			},
			{
				"type": "unocc",
				"energy": 0.09079,
				"method": "rhf"
			}
		],
		"cosmo_sigma_profile": { 
			"-0.025": 0.0,
			"-0.024": 0.0,
			"-0.023": 0.0,
			"-0.022": 0.0,
			"-0.021": 0.0,
			"-0.02": 0.0,
			"-0.019": 0.0,
			"-0.018": 0.0,
			"-0.017": 0.0,
			"-0.016": 0.0,
			"-0.015": 0.0,
			"-0.014": 0.0,
			"-0.013": 0.0,
			"-0.012": 0.212188301777,
			"-0.011": 1.24627161203,
			"-0.01": 1.22335678772,
			"-0.009": 1.75905592654,
			"-0.008": 2.89438316752,
			"-0.007": 4.71279959242,
			"-0.006": 7.79628815511,
			"-0.005": 8.54675401493,
			"-0.004": 12.8571586911,
			"-0.003": 20.604510149,
			"-0.002": 18.988142487,
			"-0.001": 19.7037715551,
			"0.0": 18.4165134814,
			"0.001": 12.4124112543,
			"0.002": 8.68776044783,
			"0.003": 9.09577765653,
			"0.004": 8.41846432339,
			"0.005": 7.40365706193,
			"0.006": 8.24402675879,
			"0.007": 4.30002614815,
			"0.008": 2.61508247225,
			"0.009": 1.43467247877,
			"0.01": 1.59297829059,
			"0.011": 1.45917976497,
			"0.012": 1.07803011606,
			"0.013": 0.435449942509,
			"0.014": 1.51508810303,
			"0.015": 0.893876180733,
			"0.016": 0.954706305926,
			"0.017": 0.77605297493,
			"0.018": 0.177634591732,
			"0.019": 0.0,
			"0.02": 0.0,
			"0.021": 0.0,
			"0.022": 0.0,
			"0.023": 0.0,
			"0.024": 0.0,
			"0.025": 0.0
		}
	}
}
