{
	 "smiles": "FC1=CC(=CC=C1)P(C1=CC=CC(F)=C1)C1=CC=CC(F)=C1", 
	 "Tm": 334.65, 
	 "num_atms": 34, 
	 "gaussian": { 
		 "optdone": 1, 
		 "sigma_profile": "yes", 
		 "theory": "DFT", 
		 "functional": "B3LYP", 
		 "basiset": "6-31G**", 
		 "properties": { 
			 "R2extent": 7629.4797, 
			 "electric_dipole_moment_norm": 1.45917893694, 
			 "electric_quadrupole_moment_norm": 13.5367889113, 
			 "total_energy": -1333.99811623, 
			 "HOMO_LUMO_gap": 0.19123, 
			 "cosmo_polarized_energy": -7.65, 
			 "cosmo_cavitation_energy": 41.68, 
			 "cosmo_dispersion_energy": -28.22, 
			 "cosmo_repulsion_energy": 2.19, 
			 "cosmo_total_nonelectrostatic_energy": 15.65, 
			 "SMD_solvation_energy": 8.62 
		},
		"coords": [
			{
				"x": 2.8571977609,
				"y": 4.670105223,
				"z": 0.1808698208,
				"element": "F" 
			},
			{
				"x": 1.8979592539,
				"y": 3.7702544812,
				"z": 0.4825153016,
				"element": "C" 
			},
			{
				"x": 1.3656809342,
				"y": 2.9914132034,
				"z": -0.5369700972,
				"element": "C" 
			},
			{
				"x": 0.3700845725,
				"y": 2.0480091315,
				"z": -0.2359880284,
				"element": "C" 
			},
			{
				"x": -0.0764870479,
				"y": 1.9297735388,
				"z": 1.0896170506,
				"element": "C" 
			},
			{
				"x": 0.4691091047,
				"y": 2.7327777132,
				"z": 2.0942630917,
				"element": "C" 
			},
			{
				"x": 1.4669253675,
				"y": 3.6624224788,
				"z": 1.8002221098,
				"element": "C" 
			},
			{
				"x": -0.2854630457,
				"y": 1.059971466,
				"z": -1.6613390264,
				"element": "P" 
			},
			{
				"x": 0.8085515815,
				"y": -0.4360302465,
				"z": -1.645272268,
				"element": "C" 
			},
			{
				"x": 0.8211343372,
				"y": -1.2265002641,
				"z": -2.8073213943,
				"element": "C" 
			},
			{
				"x": 1.6226163218,
				"y": -2.366056675,
				"z": -2.8842232828,
				"element": "C" 
			},
			{
				"x": 2.4405252718,
				"y": -2.7298934747,
				"z": -1.8133754789,
				"element": "C" 
			},
			{
				"x": 2.4275646502,
				"y": -1.9318957631,
				"z": -0.6752366347,
				"element": "C" 
			},
			{
				"x": 3.2159015727,
				"y": -2.270277401,
				"z": 0.3668514228,
				"element": "F" 
			},
			{
				"x": 1.6294970337,
				"y": -0.7983812301,
				"z": -0.5676783499,
				"element": "C" 
			},
			{
				"x": -1.8778837782,
				"y": 0.3968796282,
				"z": -0.9820164757,
				"element": "C" 
			},
			{
				"x": -3.0210462127,
				"y": 1.1983720694,
				"z": -1.1456796359,
				"element": "C" 
			},
			{
				"x": -4.2634866914,
				"y": 0.7703177589,
				"z": -0.6774227155,
				"element": "C" 
			},
			{
				"x": -4.396072431,
				"y": -0.4719170786,
				"z": -0.0544812795,
				"element": "C" 
			},
			{
				"x": -3.2599514987,
				"y": -1.2596467233,
				"z": 0.088491196,
				"element": "C" 
			},
			{
				"x": -3.3734025635,
				"y": -2.4647044064,
				"z": 0.6863941692,
				"element": "F" 
			},
			{
				"x": -2.0076075138,
				"y": -0.8519166295,
				"z": -0.3579294673,
				"element": "C" 
			},
			{
				"x": 1.7253102149,
				"y": 3.131328912,
				"z": -1.5517201763,
				"element": "H" 
			},
			{
				"x": -0.8526383619,
				"y": 1.2138973995,
				"z": 1.3376575932,
				"element": "H" 
			},
			{
				"x": 0.1152120156,
				"y": 2.6331718834,
				"z": 3.1162963337,
				"element": "H" 
			},
			{
				"x": 1.9045770346,
				"y": 4.2977493011,
				"z": 2.5625061028,
				"element": "H" 
			},
			{
				"x": 0.2051463637,
				"y": -0.9434567803,
				"z": -3.6562144293,
				"element": "H" 
			},
			{
				"x": 1.6203142322,
				"y": -2.9703652994,
				"z": -3.7865241658,
				"element": "H" 
			},
			{
				"x": 3.0819010232,
				"y": -3.6037050342,
				"z": -1.8497153142,
				"element": "H" 
			},
			{
				"x": 1.6613901914,
				"y": -0.2159782453,
				"z": 0.346349377,
				"element": "H" 
			},
			{
				"x": -2.9369834139,
				"y": 2.1583961351,
				"z": -1.6472293035,
				"element": "H" 
			},
			{
				"x": -5.1380063377,
				"y": 1.4010953296,
				"z": -0.806872952,
				"element": "H" 
			},
			{
				"x": -5.3513298681,
				"y": -0.8350370343,
				"z": 0.3086618626,
				"element": "H" 
			},
			{
				"x": -1.1578400732,
				"y": -1.5101733671,
				"z": -0.2161849559,
				"element": "H" 
			}
		],
		 "valence_orbital": [ 
			{
				"type": "occ",
				"energy": -0.26758,
				"method": "rhf"
			},
			{
				"type": "occ",
				"energy": -0.25484,
				"method": "rhf"
			},
			{
				"type": "occ",
				"energy": -0.25171,
				"method": "rhf"
			},
			{
				"type": "occ",
				"energy": -0.24853,
				"method": "rhf"
			},
			{
				"type": "occ",
				"energy": -0.2255,
				"method": "rhf"
			},
			{
				"type": "unocc",
				"energy": -0.03427,
				"method": "rhf"
			},
			{
				"type": "unocc",
				"energy": -0.03315,
				"method": "rhf"
			},
			{
				"type": "unocc",
				"energy": -0.01458,
				"method": "rhf"
			},
			{
				"type": "unocc",
				"energy": -0.01423,
				"method": "rhf"
			},
			{
				"type": "unocc",
				"energy": -0.00259,
				"method": "rhf"
			}
		],
		"cosmo_sigma_profile": { 
			"-0.025": 0.0,
			"-0.024": 0.0,
			"-0.023": 0.0,
			"-0.022": 0.0,
			"-0.021": 0.0,
			"-0.02": 0.0,
			"-0.019": 0.0,
			"-0.018": 0.0,
			"-0.017": 0.0,
			"-0.016": 0.0,
			"-0.015": 0.0,
			"-0.014": 0.0,
			"-0.013": 0.0,
			"-0.012": 0.0,
			"-0.011": 0.0,
			"-0.01": 0.0,
			"-0.009": 0.0,
			"-0.008": 1.11012093949,
			"-0.007": 8.84988466104,
			"-0.006": 17.5035074336,
			"-0.005": 22.996768274,
			"-0.004": 21.5897914888,
			"-0.003": 20.3346804282,
			"-0.002": 22.0796072328,
			"-0.001": 20.1639370513,
			"0.0": 29.2916647381,
			"0.001": 40.1795009231,
			"0.002": 35.7184411229,
			"0.003": 34.6530702569,
			"0.004": 44.800201848,
			"0.005": 12.6113142174,
			"0.006": 0.516573008513,
			"0.007": 0.344586669972,
			"0.008": 1.23378577453,
			"0.009": 0.75281804956,
			"0.01": 0.45840818483,
			"0.011": 0.548802923596,
			"0.012": 0.674482118072,
			"0.013": 0.116715808384,
			"0.014": 0.0,
			"0.015": 0.0,
			"0.016": 0.0,
			"0.017": 0.0,
			"0.018": 0.0,
			"0.019": 0.0,
			"0.02": 0.0,
			"0.021": 0.0,
			"0.022": 0.0,
			"0.023": 0.0,
			"0.024": 0.0,
			"0.025": 0.0
		}
	}
}
