{
	 "smiles": "CN(CCCN1C(=O)C=CC1=O)C1=CC=CC=C1", 
	 "Tm": 358.15, 
	 "num_atms": 34, 
	 "gaussian": { 
		 "optdone": 1, 
		 "sigma_profile": "yes", 
		 "theory": "DFT", 
		 "functional": "B3LYP", 
		 "basiset": "6-31G**", 
		 "properties": { 
			 "R2extent": 4291.6407, 
			 "electric_dipole_moment_norm": 0.913238835136, 
			 "electric_quadrupole_moment_norm": 11.0242881176, 
			 "total_energy": -803.07929833, 
			 "HOMO_LUMO_gap": 0.09869, 
			 "cosmo_polarized_energy": -11.78, 
			 "cosmo_cavitation_energy": 35.92, 
			 "cosmo_dispersion_energy": -24.32, 
			 "cosmo_repulsion_energy": 1.86, 
			 "cosmo_total_nonelectrostatic_energy": 13.45, 
			 "SMD_solvation_energy": 7.25 
		},
		"coords": [
			{
				"x": 0.8715888551,
				"y": 0.1897636888,
				"z": 2.3663873821,
				"element": "C" 
			},
			{
				"x": 0.0601086599,
				"y": -0.1111421105,
				"z": 1.1954755264,
				"element": "N" 
			},
			{
				"x": -0.4146934561,
				"y": -1.5039954914,
				"z": 1.170213417,
				"element": "C" 
			},
			{
				"x": 0.6574858236,
				"y": -2.5454172804,
				"z": 0.8148729215,
				"element": "C" 
			},
			{
				"x": 1.095063737,
				"y": -2.6082967879,
				"z": -0.6556565715,
				"element": "C" 
			},
			{
				"x": 1.7068784888,
				"y": -1.3884120408,
				"z": -1.1718712671,
				"element": "N" 
			},
			{
				"x": 1.2194160706,
				"y": -0.6747826297,
				"z": -2.2699725474,
				"element": "C" 
			},
			{
				"x": 0.2481018692,
				"y": -0.9756394359,
				"z": -2.9370217413,
				"element": "O" 
			},
			{
				"x": 2.1309309436,
				"y": 0.5065206264,
				"z": -2.4409238673,
				"element": "C" 
			},
			{
				"x": 3.0704222694,
				"y": 0.458780817,
				"z": -1.4923653775,
				"element": "C" 
			},
			{
				"x": 2.8358076247,
				"y": -0.7603508559,
				"z": -0.6446181838,
				"element": "C" 
			},
			{
				"x": 3.4900328323,
				"y": -1.1467995361,
				"z": 0.3051293131,
				"element": "O" 
			},
			{
				"x": -0.8267962665,
				"y": 0.8958094056,
				"z": 0.749161523,
				"element": "C" 
			},
			{
				"x": -1.5289235472,
				"y": 0.7407501265,
				"z": -0.4659656352,
				"element": "C" 
			},
			{
				"x": -2.376036043,
				"y": 1.73955381,
				"z": -0.9355709214,
				"element": "C" 
			},
			{
				"x": -2.5467070923,
				"y": 2.9307112986,
				"z": -0.2248201938,
				"element": "C" 
			},
			{
				"x": -1.8506694599,
				"y": 3.0996431429,
				"z": 0.9698574842,
				"element": "C" 
			},
			{
				"x": -1.0073441506,
				"y": 2.0994454061,
				"z": 1.4581147452,
				"element": "C" 
			},
			{
				"x": 1.640952836,
				"y": -0.5756424489,
				"z": 2.481307924,
				"element": "H" 
			},
			{
				"x": 1.3843658116,
				"y": 1.1452994035,
				"z": 2.2339258609,
				"element": "H" 
			},
			{
				"x": 0.2855697514,
				"y": 0.2335987981,
				"z": 3.301281151,
				"element": "H" 
			},
			{
				"x": -0.8312247249,
				"y": -1.7654677646,
				"z": 2.1592743385,
				"element": "H" 
			},
			{
				"x": -1.2433129932,
				"y": -1.5791285413,
				"z": 0.4637075449,
				"element": "H" 
			},
			{
				"x": 0.2477624285,
				"y": -3.5343138332,
				"z": 1.0580577444,
				"element": "H" 
			},
			{
				"x": 1.5428616081,
				"y": -2.4203777465,
				"z": 1.4435898958,
				"element": "H" 
			},
			{
				"x": 1.8054238463,
				"y": -3.4340277672,
				"z": -0.7785359243,
				"element": "H" 
			},
			{
				"x": 0.2420923583,
				"y": -2.8038106634,
				"z": -1.3119865902,
				"element": "H" 
			},
			{
				"x": 1.979479824,
				"y": 1.2351166313,
				"z": -3.2261202912,
				"element": "H" 
			},
			{
				"x": 3.8909261674,
				"y": 1.1374668599,
				"z": -1.3007080938,
				"element": "H" 
			},
			{
				"x": -1.3865780227,
				"y": -0.1492450369,
				"z": -1.068687958,
				"element": "H" 
			},
			{
				"x": -2.8952470286,
				"y": 1.5875379424,
				"z": -1.8779882988,
				"element": "H" 
			},
			{
				"x": -3.2040755655,
				"y": 3.7096113944,
				"z": -0.5987192309,
				"element": "H" 
			},
			{
				"x": -1.9680705434,
				"y": 4.0148368037,
				"z": 1.5443709809,
				"element": "H" 
			},
			{
				"x": -0.5035929116,
				"y": 2.2603038153,
				"z": 2.4034049406,
				"element": "H" 
			}
		],
		 "valence_orbital": [ 
			{
				"type": "occ",
				"energy": -0.281,
				"method": "rhf"
			},
			{
				"type": "occ",
				"energy": -0.26872,
				"method": "rhf"
			},
			{
				"type": "occ",
				"energy": -0.26558,
				"method": "rhf"
			},
			{
				"type": "occ",
				"energy": -0.24009,
				"method": "rhf"
			},
			{
				"type": "occ",
				"energy": -0.19192,
				"method": "rhf"
			},
			{
				"type": "unocc",
				"energy": -0.09323,
				"method": "rhf"
			},
			{
				"type": "unocc",
				"energy": 0.00726,
				"method": "rhf"
			},
			{
				"type": "unocc",
				"energy": 0.01787,
				"method": "rhf"
			},
			{
				"type": "unocc",
				"energy": 0.0529,
				"method": "rhf"
			},
			{
				"type": "unocc",
				"energy": 0.0681,
				"method": "rhf"
			}
		],
		"cosmo_sigma_profile": { 
			"-0.025": 0.0,
			"-0.024": 0.0,
			"-0.023": 0.0,
			"-0.022": 0.0,
			"-0.021": 0.0,
			"-0.02": 0.0,
			"-0.019": 0.0,
			"-0.018": 0.0,
			"-0.017": 0.0,
			"-0.016": 0.0,
			"-0.015": 0.0,
			"-0.014": 0.0,
			"-0.013": 0.0,
			"-0.012": 0.0,
			"-0.011": 0.0,
			"-0.01": 0.806238237325,
			"-0.009": 3.93008810318,
			"-0.008": 2.95277971601,
			"-0.007": 3.63016896703,
			"-0.006": 4.35481869004,
			"-0.005": 20.2675099167,
			"-0.004": 30.2291091728,
			"-0.003": 36.7082377891,
			"-0.002": 33.4184261396,
			"-0.001": 26.1181607059,
			"0.0": 16.4806227836,
			"0.001": 14.7660414047,
			"0.002": 12.9251846357,
			"0.003": 13.0129105075,
			"0.004": 11.229106323,
			"0.005": 11.2102037339,
			"0.006": 10.2060182005,
			"0.007": 9.63745966525,
			"0.008": 4.19951451749,
			"0.009": 3.16490839667,
			"0.01": 4.38263246003,
			"0.011": 8.04707524592,
			"0.012": 3.11949153555,
			"0.013": 0.208800842489,
			"0.014": 0.0,
			"0.015": 0.0,
			"0.016": 0.0,
			"0.017": 0.0,
			"0.018": 0.0,
			"0.019": 0.0,
			"0.02": 0.0,
			"0.021": 0.0,
			"0.022": 0.0,
			"0.023": 0.0,
			"0.024": 0.0,
			"0.025": 0.0
		}
	}
}
