{
	 "smiles": "COC1=CC=C(C=C1)C1=NN=C2SC(NN12)C1=CC=C(Cl)C=C1", 
	 "Tm": 433.15, 
	 "num_atms": 36, 
	 "gaussian": { 
		 "optdone": 1, 
		 "sigma_profile": "yes", 
		 "theory": "DFT", 
		 "functional": "B3LYP", 
		 "basiset": "6-31G**", 
		 "properties": { 
			 "R2extent": 14560.7055, 
			 "electric_dipole_moment_norm": 7.09341244395, 
			 "electric_quadrupole_moment_norm": 23.5490572348, 
			 "total_energy": -1770.06011872, 
			 "HOMO_LUMO_gap": 0.16066, 
			 "cosmo_polarized_energy": -24.27, 
			 "cosmo_cavitation_energy": 44.27, 
			 "cosmo_dispersion_energy": -32.42, 
			 "cosmo_repulsion_energy": 2.4, 
			 "cosmo_total_nonelectrostatic_energy": 14.24, 
			 "SMD_solvation_energy": 4.62 
		},
		"coords": [
			{
				"x": -1.6645850635,
				"y": -3.330327216,
				"z": -3.7506125017,
				"element": "C" 
			},
			{
				"x": -0.2803918428,
				"y": -3.0150063596,
				"z": -3.7473837043,
				"element": "O" 
			},
			{
				"x": 0.1688932077,
				"y": -2.079533609,
				"z": -2.866204885,
				"element": "C" 
			},
			{
				"x": -0.6358784858,
				"y": -1.4001806917,
				"z": -1.9445107098,
				"element": "C" 
			},
			{
				"x": -0.0613231914,
				"y": -0.459903123,
				"z": -1.0858102169,
				"element": "C" 
			},
			{
				"x": 1.3129459681,
				"y": -0.1900279365,
				"z": -1.1218162237,
				"element": "C" 
			},
			{
				"x": 2.1084926271,
				"y": -0.8741823995,
				"z": -2.0625734407,
				"element": "C" 
			},
			{
				"x": 1.5461792726,
				"y": -1.8024797115,
				"z": -2.9213508257,
				"element": "C" 
			},
			{
				"x": 1.9428280112,
				"y": 0.7927578289,
				"z": -0.241804793,
				"element": "C" 
			},
			{
				"x": 3.0917068496,
				"y": 1.4182016556,
				"z": -0.464988967,
				"element": "N" 
			},
			{
				"x": 3.3711864467,
				"y": 2.2548760811,
				"z": 0.6008585324,
				"element": "N" 
			},
			{
				"x": 2.3827735216,
				"y": 2.1030490898,
				"z": 1.4464874616,
				"element": "C" 
			},
			{
				"x": 1.8587775509,
				"y": 2.8323621393,
				"z": 2.9648969638,
				"element": "S" 
			},
			{
				"x": 0.6610153387,
				"y": 1.3950454713,
				"z": 3.145743432,
				"element": "C" 
			},
			{
				"x": 0.2885500322,
				"y": 1.0321598144,
				"z": 1.7476201528,
				"element": "N" 
			},
			{
				"x": 1.4806558652,
				"y": 1.191267763,
				"z": 0.9910050369,
				"element": "N" 
			},
			{
				"x": -0.5477943262,
				"y": 1.7356408023,
				"z": 3.9727023156,
				"element": "C" 
			},
			{
				"x": -1.5805277158,
				"y": 2.5280610954,
				"z": 3.4528101723,
				"element": "C" 
			},
			{
				"x": -2.6889360702,
				"y": 2.8469069969,
				"z": 4.2325003506,
				"element": "C" 
			},
			{
				"x": -2.7589211391,
				"y": 2.3750165443,
				"z": 5.5451053327,
				"element": "C" 
			},
			{
				"x": -4.1542040308,
				"y": 2.7747339323,
				"z": 6.5309999775,
				"element": "Cl" 
			},
			{
				"x": -1.7417547606,
				"y": 1.5890944508,
				"z": 6.0842434782,
				"element": "C" 
			},
			{
				"x": -0.6404786902,
				"y": 1.2716174749,
				"z": 5.2894616638,
				"element": "C" 
			},
			{
				"x": -2.2781173017,
				"y": -2.4543649877,
				"z": -3.9968259426,
				"element": "H" 
			},
			{
				"x": -1.7982639345,
				"y": -4.0901373342,
				"z": -4.5218037696,
				"element": "H" 
			},
			{
				"x": -1.9891131746,
				"y": -3.7363977592,
				"z": -2.7839163265,
				"element": "H" 
			},
			{
				"x": -1.7030022008,
				"y": -1.5800576688,
				"z": -1.8944836894,
				"element": "H" 
			},
			{
				"x": -0.7083581511,
				"y": 0.0930577796,
				"z": -0.4111772191,
				"element": "H" 
			},
			{
				"x": 3.170300174,
				"y": -0.6569812838,
				"z": -2.1025736923,
				"element": "H" 
			},
			{
				"x": 2.151311035,
				"y": -2.3359990204,
				"z": -3.6468428746,
				"element": "H" 
			},
			{
				"x": 1.2328194561,
				"y": 0.5884434239,
				"z": 3.6226975685,
				"element": "H" 
			},
			{
				"x": 0.0510345298,
				"y": 0.039149921,
				"z": 1.732005197,
				"element": "H" 
			},
			{
				"x": -1.5130433979,
				"y": 2.8854757371,
				"z": 2.4310814595,
				"element": "H" 
			},
			{
				"x": -3.4909807151,
				"y": 3.4566310139,
				"z": 3.831813066,
				"element": "H" 
			},
			{
				"x": -1.8128136372,
				"y": 1.2292425542,
				"z": 7.1043926033,
				"element": "H" 
			},
			{
				"x": 0.1535179426,
				"y": 0.655687531,
				"z": 5.7037550173,
				"element": "H" 
			}
		],
		 "valence_orbital": [ 
			{
				"type": "occ",
				"energy": -0.26328,
				"method": "rhf"
			},
			{
				"type": "occ",
				"energy": -0.26078,
				"method": "rhf"
			},
			{
				"type": "occ",
				"energy": -0.25087,
				"method": "rhf"
			},
			{
				"type": "occ",
				"energy": -0.23946,
				"method": "rhf"
			},
			{
				"type": "occ",
				"energy": -0.21026,
				"method": "rhf"
			},
			{
				"type": "unocc",
				"energy": -0.0496,
				"method": "rhf"
			},
			{
				"type": "unocc",
				"energy": -0.03307,
				"method": "rhf"
			},
			{
				"type": "unocc",
				"energy": -0.02663,
				"method": "rhf"
			},
			{
				"type": "unocc",
				"energy": -0.01416,
				"method": "rhf"
			},
			{
				"type": "unocc",
				"energy": -0.00589,
				"method": "rhf"
			}
		],
		"cosmo_sigma_profile": { 
			"-0.025": 0.0,
			"-0.024": 0.0,
			"-0.023": 0.0,
			"-0.022": 0.0,
			"-0.021": 0.0,
			"-0.02": 0.0,
			"-0.019": 0.0,
			"-0.018": 0.0,
			"-0.017": 0.0,
			"-0.016": 0.579384329998,
			"-0.015": 1.61836725329,
			"-0.014": 1.25404490642,
			"-0.013": 1.50327706063,
			"-0.012": 1.34474541173,
			"-0.011": 1.86498347273,
			"-0.01": 1.95614576602,
			"-0.009": 4.69383463881,
			"-0.008": 6.35710887484,
			"-0.007": 10.9923511566,
			"-0.006": 21.3608661369,
			"-0.005": 22.3224566099,
			"-0.004": 21.3415232692,
			"-0.003": 22.8718456469,
			"-0.002": 20.2253093289,
			"-0.001": 20.3422831853,
			"0.0": 24.4372592257,
			"0.001": 31.9001862526,
			"0.002": 33.1262222799,
			"0.003": 32.9526231865,
			"0.004": 28.9626979899,
			"0.005": 11.9830301864,
			"0.006": 6.11549348513,
			"0.007": 3.5161076901,
			"0.008": 2.44347058719,
			"0.009": 4.0414474262,
			"0.01": 3.53753142507,
			"0.011": 1.85009681716,
			"0.012": 2.70070675799,
			"0.013": 3.72017528849,
			"0.014": 3.29750938822,
			"0.015": 2.47140750096,
			"0.016": 1.94210952894,
			"0.017": 0.373995676436,
			"0.018": 0.0,
			"0.019": 0.0,
			"0.02": 0.0,
			"0.021": 0.0,
			"0.022": 0.0,
			"0.023": 0.0,
			"0.024": 0.0,
			"0.025": 0.0
		}
	}
}
