{
	 "smiles": "CCCCCCOCCO", 
	 "Tm": 229.65, 
	 "num_atms": 28, 
	 "gaussian": { 
		 "optdone": 1, 
		 "sigma_profile": "yes", 
		 "theory": "DFT", 
		 "functional": "B3LYP", 
		 "basiset": "6-31G**", 
		 "properties": { 
			 "R2extent": 2936.2029, 
			 "electric_dipole_moment_norm": 2.41183405316, 
			 "electric_quadrupole_moment_norm": 11.1687897818, 
			 "total_energy": -466.142940034, 
			 "HOMO_LUMO_gap": 0.33323, 
			 "cosmo_polarized_energy": -6.49, 
			 "cosmo_cavitation_energy": 29.4, 
			 "cosmo_dispersion_energy": -20.93, 
			 "cosmo_repulsion_energy": 1.78, 
			 "cosmo_total_nonelectrostatic_energy": 10.25, 
			 "SMD_solvation_energy": 4.64 
		},
		"coords": [
			{
				"x": 0.5656397623,
				"y": 0.6270360745,
				"z": -4.2684973224,
				"element": "C" 
			},
			{
				"x": -0.1589258638,
				"y": -0.2808204299,
				"z": -3.2696859261,
				"element": "C" 
			},
			{
				"x": 0.7148672135,
				"y": -0.6874996619,
				"z": -2.0757500617,
				"element": "C" 
			},
			{
				"x": -0.0145299115,
				"y": -1.595825901,
				"z": -1.0763610256,
				"element": "C" 
			},
			{
				"x": 0.849058701,
				"y": -2.0802228995,
				"z": 0.0992991027,
				"element": "C" 
			},
			{
				"x": 1.2784358878,
				"y": -0.973300688,
				"z": 1.0688305856,
				"element": "C" 
			},
			{
				"x": 0.1897584492,
				"y": -0.2328436483,
				"z": 1.612079683,
				"element": "O" 
			},
			{
				"x": -0.5685351952,
				"y": -0.9117949122,
				"z": 2.6064404438,
				"element": "C" 
			},
			{
				"x": -1.4340938922,
				"y": 0.1446445656,
				"z": 3.2779858153,
				"element": "C" 
			},
			{
				"x": -0.6417152664,
				"y": 1.1691890337,
				"z": 3.8474240969,
				"element": "O" 
			},
			{
				"x": -0.0833778399,
				"y": 0.8982329016,
				"z": -5.1076329913,
				"element": "H" 
			},
			{
				"x": 1.4534256473,
				"y": 0.1339367631,
				"z": -4.6810612032,
				"element": "H" 
			},
			{
				"x": 0.8971327693,
				"y": 1.5563678371,
				"z": -3.7912176809,
				"element": "H" 
			},
			{
				"x": -1.0600774153,
				"y": 0.2268502279,
				"z": -2.899932237,
				"element": "H" 
			},
			{
				"x": -0.5107120402,
				"y": -1.1853003417,
				"z": -3.7846849243,
				"element": "H" 
			},
			{
				"x": 1.6156997604,
				"y": -1.1999187945,
				"z": -2.4446128431,
				"element": "H" 
			},
			{
				"x": 1.0662889176,
				"y": 0.2214526786,
				"z": -1.5693944815,
				"element": "H" 
			},
			{
				"x": -0.8889727529,
				"y": -1.066202147,
				"z": -0.6780752481,
				"element": "H" 
			},
			{
				"x": -0.4008059224,
				"y": -2.4735643123,
				"z": -1.6112240514,
				"element": "H" 
			},
			{
				"x": 0.3050018835,
				"y": -2.8550487424,
				"z": 0.6541244343,
				"element": "H" 
			},
			{
				"x": 1.7609210926,
				"y": -2.5643818101,
				"z": -0.2773727068,
				"element": "H" 
			},
			{
				"x": 1.8819133663,
				"y": -1.4037809581,
				"z": 1.8840716558,
				"element": "H" 
			},
			{
				"x": 1.9006213976,
				"y": -0.2339143751,
				"z": 0.5544331315,
				"element": "H" 
			},
			{
				"x": 0.1061547324,
				"y": -1.3701886893,
				"z": 3.3468307515,
				"element": "H" 
			},
			{
				"x": -1.1953815113,
				"y": -1.7050913657,
				"z": 2.1713218241,
				"element": "H" 
			},
			{
				"x": -2.1457627109,
				"y": 0.5466288838,
				"z": 2.5382328104,
				"element": "H" 
			},
			{
				"x": -2.0142803388,
				"y": -0.3111197351,
				"z": 4.0874616293,
				"element": "H" 
			},
			{
				"x": -0.01754892,
				"y": 1.4213804462,
				"z": 3.1512667394,
				"element": "H" 
			}
		],
		 "valence_orbital": [ 
			{
				"type": "occ",
				"energy": -0.32037,
				"method": "rhf"
			},
			{
				"type": "occ",
				"energy": -0.31811,
				"method": "rhf"
			},
			{
				"type": "occ",
				"energy": -0.30655,
				"method": "rhf"
			},
			{
				"type": "occ",
				"energy": -0.26291,
				"method": "rhf"
			},
			{
				"type": "occ",
				"energy": -0.25696,
				"method": "rhf"
			},
			{
				"type": "unocc",
				"energy": 0.07627,
				"method": "rhf"
			},
			{
				"type": "unocc",
				"energy": 0.0977,
				"method": "rhf"
			},
			{
				"type": "unocc",
				"energy": 0.10516,
				"method": "rhf"
			},
			{
				"type": "unocc",
				"energy": 0.11076,
				"method": "rhf"
			},
			{
				"type": "unocc",
				"energy": 0.12048,
				"method": "rhf"
			}
		],
		"cosmo_sigma_profile": { 
			"-0.025": 0.0,
			"-0.024": 0.0,
			"-0.023": 0.0,
			"-0.022": 0.0,
			"-0.021": 0.0,
			"-0.02": 0.0,
			"-0.019": 0.0,
			"-0.018": 0.0,
			"-0.017": 0.0,
			"-0.016": 0.0,
			"-0.015": 0.0,
			"-0.014": 0.0,
			"-0.013": 0.0,
			"-0.012": 0.237685885465,
			"-0.011": 0.653920694308,
			"-0.01": 0.600179918982,
			"-0.009": 0.474795729005,
			"-0.008": 0.811882658746,
			"-0.007": 0.452019919112,
			"-0.006": 0.552285812719,
			"-0.005": 3.08698139633,
			"-0.004": 12.7166495606,
			"-0.003": 26.875866961,
			"-0.002": 36.3105619856,
			"-0.001": 36.1284925899,
			"0.0": 35.5668929601,
			"0.001": 28.2236294227,
			"0.002": 14.9856016343,
			"0.003": 4.10014936863,
			"0.004": 2.22217183342,
			"0.005": 2.73048980955,
			"0.006": 2.31019556659,
			"0.007": 1.98431258461,
			"0.008": 1.75320443111,
			"0.009": 2.06273285765,
			"0.01": 2.14348896881,
			"0.011": 1.65572297669,
			"0.012": 1.35277368484,
			"0.013": 2.04360032241,
			"0.014": 2.4415936683,
			"0.015": 1.23122800139,
			"0.016": 0.0,
			"0.017": 0.0,
			"0.018": 0.0,
			"0.019": 0.0,
			"0.02": 0.0,
			"0.021": 0.0,
			"0.022": 0.0,
			"0.023": 0.0,
			"0.024": 0.0,
			"0.025": 0.0
		}
	}
}
