{
	 "smiles": "CC1=NN(C(C)=C1NC(=O)CCCl)C1=CC=CC=C1", 
	 "Tm": 393.15, 
	 "num_atms": 35, 
	 "gaussian": { 
		 "optdone": 1, 
		 "sigma_profile": "yes", 
		 "theory": "DFT", 
		 "functional": "B3LYP", 
		 "basiset": "6-31G**", 
		 "properties": { 
			 "R2extent": 9237.8258, 
			 "electric_dipole_moment_norm": 4.55295852606, 
			 "electric_quadrupole_moment_norm": 14.2722984859, 
			 "total_energy": -1242.81920385, 
			 "HOMO_LUMO_gap": 0.19638, 
			 "cosmo_polarized_energy": -18.87, 
			 "cosmo_cavitation_energy": 40.63, 
			 "cosmo_dispersion_energy": -28.69, 
			 "cosmo_repulsion_energy": 2.26, 
			 "cosmo_total_nonelectrostatic_energy": 14.19, 
			 "SMD_solvation_energy": 6.33 
		},
		"coords": [
			{
				"x": 2.435069458,
				"y": -0.4936811145,
				"z": -1.0758491265,
				"element": "C" 
			},
			{
				"x": 1.5085855886,
				"y": -0.1090945363,
				"z": 0.0322992165,
				"element": "C" 
			},
			{
				"x": 1.7292036457,
				"y": -0.5054703703,
				"z": 1.2794989557,
				"element": "N" 
			},
			{
				"x": 0.7158479115,
				"y": 0.0238928178,
				"z": 2.0272502167,
				"element": "N" 
			},
			{
				"x": -0.1750697019,
				"y": 0.7330499416,
				"z": 1.2612598774,
				"element": "C" 
			},
			{
				"x": -1.4442428767,
				"y": 1.3568361933,
				"z": 1.7453534564,
				"element": "C" 
			},
			{
				"x": 0.3221676612,
				"y": 0.672019109,
				"z": -0.0310089512,
				"element": "C" 
			},
			{
				"x": -0.255192524,
				"y": 1.2987770037,
				"z": -1.1589136553,
				"element": "N" 
			},
			{
				"x": -0.5817631875,
				"y": 0.6510949704,
				"z": -2.3262730164,
				"element": "C" 
			},
			{
				"x": -0.4419241046,
				"y": -0.5523440923,
				"z": -2.4933313034,
				"element": "O" 
			},
			{
				"x": -1.11126687,
				"y": 1.5714611973,
				"z": -3.4296347262,
				"element": "C" 
			},
			{
				"x": -1.9409702048,
				"y": 0.7767030086,
				"z": -4.4286507056,
				"element": "C" 
			},
			{
				"x": -2.4808453279,
				"y": 1.8320173161,
				"z": -5.80465304,
				"element": "Cl" 
			},
			{
				"x": 0.6750416308,
				"y": -0.2674183535,
				"z": 3.417427824,
				"element": "C" 
			},
			{
				"x": 0.2673449729,
				"y": 0.696449206,
				"z": 4.3462980822,
				"element": "C" 
			},
			{
				"x": 0.2335030362,
				"y": 0.3769622504,
				"z": 5.7044726913,
				"element": "C" 
			},
			{
				"x": 0.6246709053,
				"y": -0.8881612891,
				"z": 6.1429393329,
				"element": "C" 
			},
			{
				"x": 1.0539821634,
				"y": -1.8378382108,
				"z": 5.2119208245,
				"element": "C" 
			},
			{
				"x": 1.076577484,
				"y": -1.5366617782,
				"z": 3.8525119793,
				"element": "C" 
			},
			{
				"x": 2.8084677535,
				"y": 0.391031877,
				"z": -1.6046444013,
				"element": "H" 
			},
			{
				"x": 3.2879404925,
				"y": -1.0418813642,
				"z": -0.6704121355,
				"element": "H" 
			},
			{
				"x": 1.9136283747,
				"y": -1.1162698757,
				"z": -1.808920478,
				"element": "H" 
			},
			{
				"x": -2.137294934,
				"y": 1.4479433285,
				"z": 0.904102526,
				"element": "H" 
			},
			{
				"x": -1.2971674251,
				"y": 2.3607348625,
				"z": 2.1624457393,
				"element": "H" 
			},
			{
				"x": -1.9216772992,
				"y": 0.7476866353,
				"z": 2.5176735282,
				"element": "H" 
			},
			{
				"x": -0.4152536655,
				"y": 2.2957404903,
				"z": -1.1179595756,
				"element": "H" 
			},
			{
				"x": -1.7009642524,
				"y": 2.3941638248,
				"z": -3.0101245683,
				"element": "H" 
			},
			{
				"x": -0.2549475556,
				"y": 2.025158022,
				"z": -3.9436942443,
				"element": "H" 
			},
			{
				"x": -1.3629279545,
				"y": -0.0422664899,
				"z": -4.8521512485,
				"element": "H" 
			},
			{
				"x": -2.8447068193,
				"y": 0.3711246693,
				"z": -3.9733620482,
				"element": "H" 
			},
			{
				"x": 0.0055363818,
				"y": 1.6952008305,
				"z": 4.0170743716,
				"element": "H" 
			},
			{
				"x": -0.0840687287,
				"y": 1.1292255986,
				"z": 6.4205631678,
				"element": "H" 
			},
			{
				"x": 0.6025430966,
				"y": -1.1305598347,
				"z": 7.2010745479,
				"element": "H" 
			},
			{
				"x": 1.366524578,
				"y": -2.8233931747,
				"z": 5.5443656143,
				"element": "H" 
			},
			{
				"x": 1.4073482971,
				"y": -2.2607326689,
				"z": 3.1177512724,
				"element": "H" 
			}
		],
		 "valence_orbital": [ 
			{
				"type": "occ",
				"energy": -0.27089,
				"method": "rhf"
			},
			{
				"type": "occ",
				"energy": -0.26069,
				"method": "rhf"
			},
			{
				"type": "occ",
				"energy": -0.25874,
				"method": "rhf"
			},
			{
				"type": "occ",
				"energy": -0.23589,
				"method": "rhf"
			},
			{
				"type": "occ",
				"energy": -0.21951,
				"method": "rhf"
			},
			{
				"type": "unocc",
				"energy": -0.02313,
				"method": "rhf"
			},
			{
				"type": "unocc",
				"energy": -0.01005,
				"method": "rhf"
			},
			{
				"type": "unocc",
				"energy": 0.00848,
				"method": "rhf"
			},
			{
				"type": "unocc",
				"energy": 0.02423,
				"method": "rhf"
			},
			{
				"type": "unocc",
				"energy": 0.03478,
				"method": "rhf"
			}
		],
		"cosmo_sigma_profile": { 
			"-0.025": 0.0,
			"-0.024": 0.0,
			"-0.023": 0.0,
			"-0.022": 0.0,
			"-0.021": 0.0,
			"-0.02": 0.0,
			"-0.019": 0.0,
			"-0.018": 0.0,
			"-0.017": 0.0,
			"-0.016": 0.0,
			"-0.015": 0.766567574312,
			"-0.014": 1.24549842133,
			"-0.013": 0.951550016473,
			"-0.012": 1.42234498608,
			"-0.011": 1.8934523363,
			"-0.01": 1.40539530542,
			"-0.009": 1.31405955146,
			"-0.008": 2.05682843534,
			"-0.007": 8.2490578474,
			"-0.006": 20.0594000022,
			"-0.005": 23.2002521738,
			"-0.004": 28.2018753301,
			"-0.003": 23.5040277503,
			"-0.002": 24.6187684853,
			"-0.001": 23.3604403201,
			"0.0": 23.2948028201,
			"0.001": 19.9098712489,
			"0.002": 16.783598912,
			"0.003": 18.3203140815,
			"0.004": 20.5072572801,
			"0.005": 18.6969408154,
			"0.006": 14.5002803918,
			"0.007": 7.67256308068,
			"0.008": 4.05620533154,
			"0.009": 3.26269761358,
			"0.01": 2.28041454965,
			"0.011": 3.61535152115,
			"0.012": 3.2451474215,
			"0.013": 3.81613564131,
			"0.014": 1.8630642052,
			"0.015": 0.478404909652,
			"0.016": 0.0,
			"0.017": 0.0,
			"0.018": 0.0,
			"0.019": 0.0,
			"0.02": 0.0,
			"0.021": 0.0,
			"0.022": 0.0,
			"0.023": 0.0,
			"0.024": 0.0,
			"0.025": 0.0
		}
	}
}
