{
	 "smiles": "CCCCCCN1C=C(C(=O)NC1=O)S(Cl)(=O)=O", 
	 "Tm": 431.15, 
	 "num_atms": 33, 
	 "gaussian": { 
		 "optdone": 1, 
		 "sigma_profile": "yes", 
		 "theory": "DFT", 
		 "functional": "B3LYP", 
		 "basiset": "6-31G**", 
		 "properties": { 
			 "R2extent": 10342.1226, 
			 "electric_dipole_moment_norm": 6.66084401934, 
			 "electric_quadrupole_moment_norm": 32.2612783645, 
			 "total_energy": -1658.85387661, 
			 "HOMO_LUMO_gap": 0.18812, 
			 "cosmo_polarized_energy": -21.01, 
			 "cosmo_cavitation_energy": 38.99, 
			 "cosmo_dispersion_energy": -27.56, 
			 "cosmo_repulsion_energy": 2.12, 
			 "cosmo_total_nonelectrostatic_energy": 13.55, 
			 "SMD_solvation_energy": 6.35 
		},
		"coords": [
			{
				"x": 1.3126533686,
				"y": -3.3272915811,
				"z": 0.1183944263,
				"element": "C" 
			},
			{
				"x": 2.316568818,
				"y": -2.2029132834,
				"z": -0.1734652986,
				"element": "C" 
			},
			{
				"x": 1.8231920594,
				"y": -0.7729493292,
				"z": 0.1393995751,
				"element": "C" 
			},
			{
				"x": 1.1194931419,
				"y": -0.0282118516,
				"z": -1.0119641691,
				"element": "C" 
			},
			{
				"x": -0.1976278646,
				"y": -0.6187165344,
				"z": -1.5424485191,
				"element": "C" 
			},
			{
				"x": -1.3598481987,
				"y": -0.6714730409,
				"z": -0.5418360184,
				"element": "C" 
			},
			{
				"x": -1.807461258,
				"y": 0.6683635968,
				"z": -0.0921395271,
				"element": "N" 
			},
			{
				"x": -2.4959872862,
				"y": 1.4769467565,
				"z": -0.9367931785,
				"element": "C" 
			},
			{
				"x": -2.9375038391,
				"y": 2.7172593607,
				"z": -0.587426557,
				"element": "C" 
			},
			{
				"x": -2.663948656,
				"y": 3.2683263134,
				"z": 0.7406175262,
				"element": "C" 
			},
			{
				"x": -2.9666606214,
				"y": 4.3647686291,
				"z": 1.1634619916,
				"element": "O" 
			},
			{
				"x": -1.9564553888,
				"y": 2.3470603046,
				"z": 1.5398307387,
				"element": "N" 
			},
			{
				"x": -1.5082502006,
				"y": 1.0766644878,
				"z": 1.2282245256,
				"element": "C" 
			},
			{
				"x": -0.9103420541,
				"y": 0.3702243049,
				"z": 2.0168827597,
				"element": "O" 
			},
			{
				"x": -3.8850778661,
				"y": 3.6206270151,
				"z": -1.7755491888,
				"element": "S" 
			},
			{
				"x": -2.5763465391,
				"y": 5.2153956121,
				"z": -2.245014357,
				"element": "Cl" 
			},
			{
				"x": -5.0635099007,
				"y": 4.2054551417,
				"z": -1.1592837569,
				"element": "O" 
			},
			{
				"x": -3.9727512086,
				"y": 2.7964603032,
				"z": -2.97924031,
				"element": "O" 
			},
			{
				"x": 1.7589218839,
				"y": -4.3093859266,
				"z": -0.070466959,
				"element": "H" 
			},
			{
				"x": 0.4104923357,
				"y": -3.2602588162,
				"z": -0.4982419994,
				"element": "H" 
			},
			{
				"x": 0.9969606755,
				"y": -3.3045767825,
				"z": 1.1675712577,
				"element": "H" 
			},
			{
				"x": 2.6437639949,
				"y": -2.2585275906,
				"z": -1.2211652286,
				"element": "H" 
			},
			{
				"x": 3.2149237741,
				"y": -2.3954477997,
				"z": 0.4255318419,
				"element": "H" 
			},
			{
				"x": 1.1812443424,
				"y": -0.7852397206,
				"z": 1.028491218,
				"element": "H" 
			},
			{
				"x": 2.6904969625,
				"y": -0.1605441437,
				"z": 0.4150747789,
				"element": "H" 
			},
			{
				"x": 1.8125845626,
				"y": 0.0389236443,
				"z": -1.8605477591,
				"element": "H" 
			},
			{
				"x": 0.9407617487,
				"y": 1.0088428163,
				"z": -0.6974219993,
				"element": "H" 
			},
			{
				"x": -0.0388793817,
				"y": -1.641946761,
				"z": -1.9007617658,
				"element": "H" 
			},
			{
				"x": -0.514290957,
				"y": -0.0445391659,
				"z": -2.4237188051,
				"element": "H" 
			},
			{
				"x": -1.0883243917,
				"y": -1.2138086416,
				"z": 0.3628327445,
				"element": "H" 
			},
			{
				"x": -2.2258657589,
				"y": -1.1685887118,
				"z": -0.9897091087,
				"element": "H" 
			},
			{
				"x": -2.694025211,
				"y": 1.0843931533,
				"z": -1.928615509,
				"element": "H" 
			},
			{
				"x": -1.7402010859,
				"y": 2.6590082408,
				"z": 2.4800966303,
				"element": "H" 
			}
		],
		 "valence_orbital": [ 
			{
				"type": "occ",
				"energy": -0.32147,
				"method": "rhf"
			},
			{
				"type": "occ",
				"energy": -0.31525,
				"method": "rhf"
			},
			{
				"type": "occ",
				"energy": -0.31103,
				"method": "rhf"
			},
			{
				"type": "occ",
				"energy": -0.29128,
				"method": "rhf"
			},
			{
				"type": "occ",
				"energy": -0.28,
				"method": "rhf"
			},
			{
				"type": "unocc",
				"energy": -0.09188,
				"method": "rhf"
			},
			{
				"type": "unocc",
				"energy": -0.06901,
				"method": "rhf"
			},
			{
				"type": "unocc",
				"energy": -0.02606,
				"method": "rhf"
			},
			{
				"type": "unocc",
				"energy": 0.03857,
				"method": "rhf"
			},
			{
				"type": "unocc",
				"energy": 0.05136,
				"method": "rhf"
			}
		],
		"cosmo_sigma_profile": { 
			"-0.025": 0.0,
			"-0.024": 0.0,
			"-0.023": 0.0,
			"-0.022": 0.0,
			"-0.021": 0.0,
			"-0.02": 0.0,
			"-0.019": 0.0,
			"-0.018": 0.00639292707697,
			"-0.017": 0.617853972306,
			"-0.016": 1.46340777917,
			"-0.015": 0.407353515783,
			"-0.014": 0.575835767695,
			"-0.013": 0.93003313053,
			"-0.012": 2.14573793975,
			"-0.011": 2.71080022408,
			"-0.01": 3.01231319216,
			"-0.009": 3.65840912841,
			"-0.008": 5.20735851938,
			"-0.007": 9.11155459388,
			"-0.006": 11.279269972,
			"-0.005": 15.220997145,
			"-0.004": 17.92590641,
			"-0.003": 18.1533588135,
			"-0.002": 29.0417947191,
			"-0.001": 31.211205873,
			"0.0": 28.3463138603,
			"0.001": 25.8457011741,
			"0.002": 17.4858136876,
			"0.003": 16.315263757,
			"0.004": 9.75523755017,
			"0.005": 5.38150801198,
			"0.006": 6.63213718138,
			"0.007": 9.47550693544,
			"0.008": 12.6031087508,
			"0.009": 8.37261104648,
			"0.01": 6.09118092503,
			"0.011": 8.70193425379,
			"0.012": 2.19705434516,
			"0.013": 0.0,
			"0.014": 0.0,
			"0.015": 0.0,
			"0.016": 0.0,
			"0.017": 0.0,
			"0.018": 0.0,
			"0.019": 0.0,
			"0.02": 0.0,
			"0.021": 0.0,
			"0.022": 0.0,
			"0.023": 0.0,
			"0.024": 0.0,
			"0.025": 0.0
		}
	}
}
