{
	 "smiles": "CCC1N=C2C(CCCC2=NO)=[N+]1[O-]", 
	 "Tm": 539.15, 
	 "num_atms": 27, 
	 "gaussian": { 
		 "optdone": 1, 
		 "sigma_profile": "yes", 
		 "theory": "DFT", 
		 "functional": "B3LYP", 
		 "basiset": "6-31G**", 
		 "properties": { 
			 "R2extent": 3251.6615, 
			 "electric_dipole_moment_norm": 2.26258426362, 
			 "electric_quadrupole_moment_norm": 6.65716456609, 
			 "total_energy": -665.373657717, 
			 "HOMO_LUMO_gap": 0.14336, 
			 "cosmo_polarized_energy": -16.02, 
			 "cosmo_cavitation_energy": 29.8, 
			 "cosmo_dispersion_energy": -21.62, 
			 "cosmo_repulsion_energy": 1.75, 
			 "cosmo_total_nonelectrostatic_energy": 9.93, 
			 "SMD_solvation_energy": 2.95 
		},
		"coords": [
			{
				"x": 2.6855291131,
				"y": 2.0479670873,
				"z": 2.3519328712,
				"element": "C" 
			},
			{
				"x": 2.3538186893,
				"y": 0.9126123381,
				"z": 1.3822617755,
				"element": "C" 
			},
			{
				"x": 0.8455377468,
				"y": 0.68518628,
				"z": 1.2423692437,
				"element": "C" 
			},
			{
				"x": 0.1568950692,
				"y": 1.743827546,
				"z": 0.5478717137,
				"element": "N" 
			},
			{
				"x": -0.4002284304,
				"y": 1.1891702787,
				"z": -0.4910073115,
				"element": "C" 
			},
			{
				"x": -0.1596231797,
				"y": -0.2438783554,
				"z": -0.5921872263,
				"element": "C" 
			},
			{
				"x": -0.6282189793,
				"y": -1.1631360884,
				"z": -1.6650900308,
				"element": "C" 
			},
			{
				"x": -1.0463182084,
				"y": -0.3321664709,
				"z": -2.8933871698,
				"element": "C" 
			},
			{
				"x": -1.9278247356,
				"y": 0.8647379744,
				"z": -2.4855333596,
				"element": "C" 
			},
			{
				"x": -1.2090712535,
				"y": 1.8241389482,
				"z": -1.5509167651,
				"element": "C" 
			},
			{
				"x": -1.3655520387,
				"y": 3.0777691829,
				"z": -1.7997558391,
				"element": "N" 
			},
			{
				"x": -0.7103024184,
				"y": 3.919299664,
				"z": -0.9161714544,
				"element": "O" 
			},
			{
				"x": 0.5893488101,
				"y": -0.5769077383,
				"z": 0.4446226447,
				"element": "N" 
			},
			{
				"x": 1.0595980532,
				"y": -1.7016687963,
				"z": 0.7654147346,
				"element": "O" 
			},
			{
				"x": 3.7677040485,
				"y": 2.1996526625,
				"z": 2.4077066408,
				"element": "H" 
			},
			{
				"x": 2.327703797,
				"y": 1.8241265486,
				"z": 3.3630639838,
				"element": "H" 
			},
			{
				"x": 2.2221731371,
				"y": 2.9837178079,
				"z": 2.0283803699,
				"element": "H" 
			},
			{
				"x": 2.7849604562,
				"y": -0.0389840395,
				"z": 1.7113789825,
				"element": "H" 
			},
			{
				"x": 2.7559632276,
				"y": 1.1288707267,
				"z": 0.3857884518,
				"element": "H" 
			},
			{
				"x": 0.3912322074,
				"y": 0.5214490867,
				"z": 2.2278840401,
				"element": "H" 
			},
			{
				"x": 0.1600562211,
				"y": -1.8871273901,
				"z": -1.9012211336,
				"element": "H" 
			},
			{
				"x": -1.4828715528,
				"y": -1.7527806159,
				"z": -1.3014237839,
				"element": "H" 
			},
			{
				"x": -0.1518167865,
				"y": 0.0367072674,
				"z": -3.4099023849,
				"element": "H" 
			},
			{
				"x": -1.5877838132,
				"y": -0.9641280249,
				"z": -3.6042991282,
				"element": "H" 
			},
			{
				"x": -2.2667602946,
				"y": 1.4258747646,
				"z": -3.3597425226,
				"element": "H" 
			},
			{
				"x": -2.8282283287,
				"y": 0.4841073098,
				"z": -1.9804540888,
				"element": "H" 
			},
			{
				"x": -0.9176205564,
				"y": 4.7921620461,
				"z": -1.2783832534,
				"element": "H" 
			}
		],
		 "valence_orbital": [ 
			{
				"type": "occ",
				"energy": -0.30408,
				"method": "rhf"
			},
			{
				"type": "occ",
				"energy": -0.2748,
				"method": "rhf"
			},
			{
				"type": "occ",
				"energy": -0.25358,
				"method": "rhf"
			},
			{
				"type": "occ",
				"energy": -0.23807,
				"method": "rhf"
			},
			{
				"type": "occ",
				"energy": -0.2163,
				"method": "rhf"
			},
			{
				"type": "unocc",
				"energy": -0.07294,
				"method": "rhf"
			},
			{
				"type": "unocc",
				"energy": -0.00683,
				"method": "rhf"
			},
			{
				"type": "unocc",
				"energy": 0.07077,
				"method": "rhf"
			},
			{
				"type": "unocc",
				"energy": 0.07539,
				"method": "rhf"
			},
			{
				"type": "unocc",
				"energy": 0.10185,
				"method": "rhf"
			}
		],
		"cosmo_sigma_profile": { 
			"-0.025": 0.0,
			"-0.024": 0.0,
			"-0.023": 0.0,
			"-0.022": 0.0,
			"-0.021": 0.0,
			"-0.02": 0.0,
			"-0.019": 0.0,
			"-0.018": 0.598336179703,
			"-0.017": 0.919920828149,
			"-0.016": 1.16567436848,
			"-0.015": 0.770661834732,
			"-0.014": 0.839531607192,
			"-0.013": 0.549611460475,
			"-0.012": 0.359110835769,
			"-0.011": 0.797850108165,
			"-0.01": 0.695429035276,
			"-0.009": 1.28467052519,
			"-0.008": 3.219208621,
			"-0.007": 2.57048581014,
			"-0.006": 5.66485190204,
			"-0.005": 17.045129604,
			"-0.004": 26.8242533931,
			"-0.003": 29.5155991593,
			"-0.002": 27.4651801098,
			"-0.001": 19.4480938822,
			"0.0": 15.8350429049,
			"0.001": 9.57800445395,
			"0.002": 7.02541135535,
			"0.003": 5.98167784882,
			"0.004": 6.50827471494,
			"0.005": 5.74706408686,
			"0.006": 4.92701818624,
			"0.007": 4.40723460903,
			"0.008": 3.34497408282,
			"0.009": 4.46378425291,
			"0.01": 3.33258423614,
			"0.011": 4.53343524742,
			"0.012": 7.92945907783,
			"0.013": 5.65565356174,
			"0.014": 1.32006923716,
			"0.015": 0.915286571584,
			"0.016": 1.24920725257,
			"0.017": 0.761442233556,
			"0.018": 0.116615692339,
			"0.019": 0.0,
			"0.02": 0.0,
			"0.021": 0.0,
			"0.022": 0.0,
			"0.023": 0.0,
			"0.024": 0.0,
			"0.025": 0.0
		}
	}
}
