{
	 "smiles": "CNC1=C(C=C(Cl)N=C1)C(O)=O", 
	 "Tm": 553.15, 
	 "num_atms": 19, 
	 "gaussian": { 
		 "optdone": 1, 
		 "sigma_profile": "yes", 
		 "theory": "DFT", 
		 "functional": "B3LYP", 
		 "basiset": "6-31G**", 
		 "properties": { 
			 "R2extent": 3056.9164, 
			 "electric_dipole_moment_norm": 5.72465408387, 
			 "electric_quadrupole_moment_norm": 18.2239006763, 
			 "total_energy": -991.110371321, 
			 "HOMO_LUMO_gap": 0.18889, 
			 "cosmo_polarized_energy": -16.58, 
			 "cosmo_cavitation_energy": 25.25, 
			 "cosmo_dispersion_energy": -18.66, 
			 "cosmo_repulsion_energy": 1.49, 
			 "cosmo_total_nonelectrostatic_energy": 8.07, 
			 "SMD_solvation_energy": 3.99 
		},
		"coords": [
			{
				"x": 0.3207942005,
				"y": 2.1096296226,
				"z": 1.7710151879,
				"element": "C" 
			},
			{
				"x": -1.037576687,
				"y": 1.5247679169,
				"z": 1.686019423,
				"element": "N" 
			},
			{
				"x": -1.2284522309,
				"y": 0.6294502575,
				"z": 0.5771429167,
				"element": "C" 
			},
			{
				"x": -1.0091548412,
				"y": -0.7535468223,
				"z": 0.7293839607,
				"element": "C" 
			},
			{
				"x": -1.1874273712,
				"y": -1.575818023,
				"z": -0.3823396067,
				"element": "C" 
			},
			{
				"x": -1.5976498893,
				"y": -0.9876389037,
				"z": -1.579263969,
				"element": "C" 
			},
			{
				"x": -1.8280495309,
				"y": -2.0095039016,
				"z": -2.9893727792,
				"element": "Cl" 
			},
			{
				"x": -1.8365946215,
				"y": 0.3044530877,
				"z": -1.7352419549,
				"element": "N" 
			},
			{
				"x": -1.6443345678,
				"y": 1.0932524986,
				"z": -0.6737291936,
				"element": "C" 
			},
			{
				"x": -0.6351665893,
				"y": -1.4295059323,
				"z": 2.0377920954,
				"element": "C" 
			},
			{
				"x": -0.6926752832,
				"y": -0.6675781542,
				"z": 3.1348405132,
				"element": "O" 
			},
			{
				"x": -0.3247617906,
				"y": -2.5992537885,
				"z": 2.0724356879,
				"element": "O" 
			},
			{
				"x": 0.6115583118,
				"y": 2.6442554956,
				"z": 0.8578325166,
				"element": "H" 
			},
			{
				"x": 0.3530726295,
				"y": 2.798514882,
				"z": 2.6184959658,
				"element": "H" 
			},
			{
				"x": 1.0419981308,
				"y": 1.3095921537,
				"z": 1.9530034516,
				"element": "H" 
			},
			{
				"x": -1.7288099215,
				"y": 2.2693914861,
				"z": 1.6503068636,
				"element": "H" 
			},
			{
				"x": -1.020358886,
				"y": -2.6416312119,
				"z": -0.2887840574,
				"element": "H" 
			},
			{
				"x": -1.8391460389,
				"y": 2.1551971779,
				"z": -0.8219602571,
				"element": "H" 
			},
			{
				"x": -0.9730650233,
				"y": 0.2523721588,
				"z": 2.8717232356,
				"element": "H" 
			}
		],
		 "valence_orbital": [ 
			{
				"type": "occ",
				"energy": -0.31434,
				"method": "rhf"
			},
			{
				"type": "occ",
				"energy": -0.30376,
				"method": "rhf"
			},
			{
				"type": "occ",
				"energy": -0.28457,
				"method": "rhf"
			},
			{
				"type": "occ",
				"energy": -0.27751,
				"method": "rhf"
			},
			{
				"type": "occ",
				"energy": -0.26561,
				"method": "rhf"
			},
			{
				"type": "unocc",
				"energy": -0.07672,
				"method": "rhf"
			},
			{
				"type": "unocc",
				"energy": -0.04287,
				"method": "rhf"
			},
			{
				"type": "unocc",
				"energy": 0.0266,
				"method": "rhf"
			},
			{
				"type": "unocc",
				"energy": 0.03708,
				"method": "rhf"
			},
			{
				"type": "unocc",
				"energy": 0.05305,
				"method": "rhf"
			}
		],
		"cosmo_sigma_profile": { 
			"-0.025": 0.0,
			"-0.024": 0.0,
			"-0.023": 0.0,
			"-0.022": 0.0,
			"-0.021": 0.0,
			"-0.02": 0.0,
			"-0.019": 0.0,
			"-0.018": 0.0,
			"-0.017": 0.0,
			"-0.016": 0.0,
			"-0.015": 0.0,
			"-0.014": 1.01590450292,
			"-0.013": 1.98094331989,
			"-0.012": 1.95245106364,
			"-0.011": 1.59391687329,
			"-0.01": 1.86403813378,
			"-0.009": 2.67835221955,
			"-0.008": 3.59617579231,
			"-0.007": 5.10636735622,
			"-0.006": 9.68952028556,
			"-0.005": 13.1629851348,
			"-0.004": 14.4182155692,
			"-0.003": 17.0589200745,
			"-0.002": 24.1960966595,
			"-0.001": 15.8258302499,
			"0.0": 9.64789394724,
			"0.001": 7.69128221221,
			"0.002": 9.0939308446,
			"0.003": 8.42206212752,
			"0.004": 12.4748494259,
			"0.005": 7.04164409306,
			"0.006": 3.38689850839,
			"0.007": 3.68233530069,
			"0.008": 4.44130139096,
			"0.009": 3.98416278969,
			"0.01": 5.27483032128,
			"0.011": 8.00454759729,
			"0.012": 4.29073221625,
			"0.013": 2.47772655802,
			"0.014": 0.28041140491,
			"0.015": 0.0,
			"0.016": 0.0,
			"0.017": 0.0,
			"0.018": 0.0,
			"0.019": 0.0,
			"0.02": 0.0,
			"0.021": 0.0,
			"0.022": 0.0,
			"0.023": 0.0,
			"0.024": 0.0,
			"0.025": 0.0
		}
	}
}
