{
	 "smiles": "ClC1=CC=CC2=C1OC1=C2C=C(Cl)C(Cl)=C1Cl", 
	 "Tm": 463.15, 
	 "num_atms": 21, 
	 "gaussian": { 
		 "optdone": 1, 
		 "sigma_profile": "yes", 
		 "theory": "DFT", 
		 "functional": "B3LYP", 
		 "basiset": "6-31G**", 
		 "properties": { 
			 "R2extent": 9715.5927, 
			 "electric_dipole_moment_norm": 3.7901413694, 
			 "electric_quadrupole_moment_norm": 5.04366085497, 
			 "total_energy": -2375.6736744, 
			 "HOMO_LUMO_gap": 0.17694, 
			 "cosmo_polarized_energy": -6.63, 
			 "cosmo_cavitation_energy": 33.18, 
			 "cosmo_dispersion_energy": -24.89, 
			 "cosmo_repulsion_energy": 1.91, 
			 "cosmo_total_nonelectrostatic_energy": 10.19, 
			 "SMD_solvation_energy": 4.51 
		},
		"coords": [
			{
				"x": 2.4834713718,
				"y": 0.4070933548,
				"z": -2.1701946281,
				"element": "Cl" 
			},
			{
				"x": 1.3469590417,
				"y": -0.1967554685,
				"z": -0.9951498548,
				"element": "C" 
			},
			{
				"x": 1.1204017663,
				"y": -1.5636577527,
				"z": -0.8328206595,
				"element": "C" 
			},
			{
				"x": 0.2006333977,
				"y": -2.0307919313,
				"z": 0.1193135436,
				"element": "C" 
			},
			{
				"x": -0.5145079495,
				"y": -1.1534822,
				"z": 0.9311924931,
				"element": "C" 
			},
			{
				"x": -0.2946329851,
				"y": 0.2193555938,
				"z": 0.7763483272,
				"element": "C" 
			},
			{
				"x": 0.6303736877,
				"y": 0.6745671167,
				"z": -0.1820634279,
				"element": "C" 
			},
			{
				"x": 0.7221314864,
				"y": 2.0444410791,
				"z": -0.2006375638,
				"element": "O" 
			},
			{
				"x": -0.1517712106,
				"y": 2.4863535667,
				"z": 0.7552419533,
				"element": "C" 
			},
			{
				"x": -0.8126329283,
				"y": 1.4260611661,
				"z": 1.397515496,
				"element": "C" 
			},
			{
				"x": -1.740625058,
				"y": 1.7028712602,
				"z": 2.4014911105,
				"element": "C" 
			},
			{
				"x": -1.9833041896,
				"y": 3.0321941028,
				"z": 2.7367582883,
				"element": "C" 
			},
			{
				"x": -3.1488702693,
				"y": 3.3605570876,
				"z": 3.9968577312,
				"element": "Cl" 
			},
			{
				"x": -1.3144833832,
				"y": 4.0960442,
				"z": 2.086192673,
				"element": "C" 
			},
			{
				"x": -1.6397031691,
				"y": 5.7430063591,
				"z": 2.5277308336,
				"element": "Cl" 
			},
			{
				"x": -0.3784076464,
				"y": 3.8208997122,
				"z": 1.0736619663,
				"element": "C" 
			},
			{
				"x": 0.4837196004,
				"y": 5.0638170097,
				"z": 0.2276348259,
				"element": "Cl" 
			},
			{
				"x": 1.6673857999,
				"y": -2.2630044411,
				"z": -1.4554295611,
				"element": "H" 
			},
			{
				"x": 0.0498661356,
				"y": -3.1009865722,
				"z": 0.2180622142,
				"element": "H" 
			},
			{
				"x": -1.222823282,
				"y": -1.5266278746,
				"z": 1.6636695486,
				"element": "H" 
			},
			{
				"x": -2.2713802164,
				"y": 0.9138446318,
				"z": 2.9209246905,
				"element": "H" 
			}
		],
		 "valence_orbital": [ 
			{
				"type": "occ",
				"energy": -0.31195,
				"method": "rhf"
			},
			{
				"type": "occ",
				"energy": -0.29008,
				"method": "rhf"
			},
			{
				"type": "occ",
				"energy": -0.26936,
				"method": "rhf"
			},
			{
				"type": "occ",
				"energy": -0.24685,
				"method": "rhf"
			},
			{
				"type": "occ",
				"energy": -0.24288,
				"method": "rhf"
			},
			{
				"type": "unocc",
				"energy": -0.06594,
				"method": "rhf"
			},
			{
				"type": "unocc",
				"energy": -0.03199,
				"method": "rhf"
			},
			{
				"type": "unocc",
				"energy": -0.02386,
				"method": "rhf"
			},
			{
				"type": "unocc",
				"energy": -0.01599,
				"method": "rhf"
			},
			{
				"type": "unocc",
				"energy": 0.00367,
				"method": "rhf"
			}
		],
		"cosmo_sigma_profile": { 
			"-0.025": 0.0,
			"-0.024": 0.0,
			"-0.023": 0.0,
			"-0.022": 0.0,
			"-0.021": 0.0,
			"-0.02": 0.0,
			"-0.019": 0.0,
			"-0.018": 0.0,
			"-0.017": 0.0,
			"-0.016": 0.0,
			"-0.015": 0.0,
			"-0.014": 0.0,
			"-0.013": 0.0,
			"-0.012": 0.0,
			"-0.011": 0.0,
			"-0.01": 0.0,
			"-0.009": 1.7393023778,
			"-0.008": 5.29383646604,
			"-0.007": 8.21711295679,
			"-0.006": 8.35676030564,
			"-0.005": 6.89924053791,
			"-0.004": 8.96508243197,
			"-0.003": 14.9501919576,
			"-0.002": 23.878790029,
			"-0.001": 33.1591327624,
			"0.0": 33.4783096501,
			"0.001": 29.2667853072,
			"0.002": 28.9831974336,
			"0.003": 38.5933848096,
			"0.004": 26.7075462184,
			"0.005": 5.85411256393,
			"0.006": 2.41529280947,
			"0.007": 1.22418939938,
			"0.008": 0.00281208021971,
			"0.009": 0.0,
			"0.01": 0.0,
			"0.011": 0.0,
			"0.012": 0.0,
			"0.013": 0.0,
			"0.014": 0.0,
			"0.015": 0.0,
			"0.016": 0.0,
			"0.017": 0.0,
			"0.018": 0.0,
			"0.019": 0.0,
			"0.02": 0.0,
			"0.021": 0.0,
			"0.022": 0.0,
			"0.023": 0.0,
			"0.024": 0.0,
			"0.025": 0.0
		}
	}
}
