{
	 "smiles": "OC(=O)C(=CC1=CC=CC=C1)C1=CC=CS1", 
	 "Tm": 443.15, 
	 "num_atms": 26, 
	 "gaussian": { 
		 "optdone": 1, 
		 "sigma_profile": "yes", 
		 "theory": "DFT", 
		 "functional": "B3LYP", 
		 "basiset": "6-31G**", 
		 "properties": { 
			 "R2extent": 5378.9735, 
			 "electric_dipole_moment_norm": 2.26306262176, 
			 "electric_quadrupole_moment_norm": 8.72912398354, 
			 "total_energy": -1050.03121415, 
			 "HOMO_LUMO_gap": 0.15935, 
			 "cosmo_polarized_energy": -11.75, 
			 "cosmo_cavitation_energy": 32.61, 
			 "cosmo_dispersion_energy": -23.17, 
			 "cosmo_repulsion_energy": 1.78, 
			 "cosmo_total_nonelectrostatic_energy": 11.22, 
			 "SMD_solvation_energy": 6.65 
		},
		"coords": [
			{
				"x": 2.9234087539,
				"y": -0.3485541525,
				"z": 4.2048940153,
				"element": "O" 
			},
			{
				"x": 2.5907084453,
				"y": -1.1715395916,
				"z": 3.1820863298,
				"element": "C" 
			},
			{
				"x": 3.00733015,
				"y": -2.3135321136,
				"z": 3.1149885125,
				"element": "O" 
			},
			{
				"x": 1.6808637969,
				"y": -0.518087302,
				"z": 2.1895547463,
				"element": "C" 
			},
			{
				"x": 1.2882023352,
				"y": -1.3083302012,
				"z": 1.1591228799,
				"element": "C" 
			},
			{
				"x": 0.4191208937,
				"y": -1.0635120798,
				"z": 0.0093430126,
				"element": "C" 
			},
			{
				"x": 0.1064767167,
				"y": -2.1771951659,
				"z": -0.7981257842,
				"element": "C" 
			},
			{
				"x": -0.7171647431,
				"y": -2.0544038202,
				"z": -1.9133586476,
				"element": "C" 
			},
			{
				"x": -1.2428549438,
				"y": -0.8069274735,
				"z": -2.2545441426,
				"element": "C" 
			},
			{
				"x": -0.9354479385,
				"y": 0.3105896451,
				"z": -1.4731210739,
				"element": "C" 
			},
			{
				"x": -0.1164230483,
				"y": 0.1900322448,
				"z": -0.3542388004,
				"element": "C" 
			},
			{
				"x": 1.2801261052,
				"y": 0.8875257161,
				"z": 2.4188783471,
				"element": "C" 
			},
			{
				"x": 1.9356444273,
				"y": 2.0370657526,
				"z": 2.0552920892,
				"element": "C" 
			},
			{
				"x": 1.2648577286,
				"y": 3.2296865925,
				"z": 2.464642876,
				"element": "C" 
			},
			{
				"x": 0.1063875678,
				"y": 2.9771885922,
				"z": 3.1459962752,
				"element": "C" 
			},
			{
				"x": -0.1836300012,
				"y": 1.2752239929,
				"z": 3.2999153124,
				"element": "S" 
			},
			{
				"x": 3.5008439573,
				"y": -0.873985522,
				"z": 4.7829883727,
				"element": "H" 
			},
			{
				"x": 1.6938166318,
				"y": -2.3177316348,
				"z": 1.2054669923,
				"element": "H" 
			},
			{
				"x": 0.5171905583,
				"y": -3.1485976367,
				"z": -0.5358252878,
				"element": "H" 
			},
			{
				"x": -0.945863125,
				"y": -2.9283436799,
				"z": -2.5161325883,
				"element": "H" 
			},
			{
				"x": -1.8841515319,
				"y": -0.7040935472,
				"z": -3.1252104799,
				"element": "H" 
			},
			{
				"x": -1.3361616168,
				"y": 1.2845369628,
				"z": -1.7389041104,
				"element": "H" 
			},
			{
				"x": 0.1207804603,
				"y": 1.0681074428,
				"z": 0.2318155698,
				"element": "H" 
			},
			{
				"x": 2.8713656954,
				"y": 2.0255496748,
				"z": 1.5077154891,
				"element": "H" 
			},
			{
				"x": 1.6323756018,
				"y": 4.2289775728,
				"z": 2.2602634523,
				"element": "H" 
			},
			{
				"x": -0.5929028769,
				"y": 3.6863497314,
				"z": 3.5671966424,
				"element": "H" 
			}
		],
		 "valence_orbital": [ 
			{
				"type": "occ",
				"energy": -0.27878,
				"method": "rhf"
			},
			{
				"type": "occ",
				"energy": -0.25959,
				"method": "rhf"
			},
			{
				"type": "occ",
				"energy": -0.25014,
				"method": "rhf"
			},
			{
				"type": "occ",
				"energy": -0.23582,
				"method": "rhf"
			},
			{
				"type": "occ",
				"energy": -0.22787,
				"method": "rhf"
			},
			{
				"type": "unocc",
				"energy": -0.06852,
				"method": "rhf"
			},
			{
				"type": "unocc",
				"energy": -0.01427,
				"method": "rhf"
			},
			{
				"type": "unocc",
				"energy": -0.00794,
				"method": "rhf"
			},
			{
				"type": "unocc",
				"energy": 0.02055,
				"method": "rhf"
			},
			{
				"type": "unocc",
				"energy": 0.03134,
				"method": "rhf"
			}
		],
		"cosmo_sigma_profile": { 
			"-0.025": 0.0,
			"-0.024": 0.0,
			"-0.023": 0.0,
			"-0.022": 0.0,
			"-0.021": 0.0,
			"-0.02": 0.0,
			"-0.019": 0.00726187643651,
			"-0.018": 0.601584251637,
			"-0.017": 1.08239181216,
			"-0.016": 0.880221220797,
			"-0.015": 0.696993167342,
			"-0.014": 0.570137285836,
			"-0.013": 0.298514768639,
			"-0.012": 0.759885135148,
			"-0.011": 1.39572809436,
			"-0.01": 0.818196725648,
			"-0.009": 0.273991310018,
			"-0.008": 2.6761089116,
			"-0.007": 8.06434382744,
			"-0.006": 15.40804775,
			"-0.005": 15.1681911271,
			"-0.004": 18.6092173845,
			"-0.003": 16.0551133098,
			"-0.002": 17.0853219093,
			"-0.001": 16.4184582341,
			"0.0": 20.3808909018,
			"0.001": 22.1725445233,
			"0.002": 22.0918071806,
			"0.003": 22.1541618058,
			"0.004": 21.8554712102,
			"0.005": 12.2414102825,
			"0.006": 4.8253936541,
			"0.007": 2.93524541589,
			"0.008": 3.76205041493,
			"0.009": 3.72841824751,
			"0.01": 2.86961570844,
			"0.011": 2.83949839172,
			"0.012": 5.06986134805,
			"0.013": 0.438997638295,
			"0.014": 0.0,
			"0.015": 0.0,
			"0.016": 0.0,
			"0.017": 0.0,
			"0.018": 0.0,
			"0.019": 0.0,
			"0.02": 0.0,
			"0.021": 0.0,
			"0.022": 0.0,
			"0.023": 0.0,
			"0.024": 0.0,
			"0.025": 0.0
		}
	}
}
