{
	 "smiles": "CC1=NC(=NC(N)=C1)N1CCOCC1", 
	 "Tm": 376.15, 
	 "num_atms": 28, 
	 "gaussian": { 
		 "optdone": 1, 
		 "sigma_profile": "yes", 
		 "theory": "DFT", 
		 "functional": "B3LYP", 
		 "basiset": "6-31G**", 
		 "properties": { 
			 "R2extent": 3680.1913, 
			 "electric_dipole_moment_norm": 2.8471054933, 
			 "electric_quadrupole_moment_norm": 12.0726965588, 
			 "total_energy": -645.635201494, 
			 "HOMO_LUMO_gap": 0.19626, 
			 "cosmo_polarized_energy": -12.64, 
			 "cosmo_cavitation_energy": 30.04, 
			 "cosmo_dispersion_energy": -22.6, 
			 "cosmo_repulsion_energy": 1.82, 
			 "cosmo_total_nonelectrostatic_energy": 9.26, 
			 "SMD_solvation_energy": 2.39 
		},
		"coords": [
			{
				"x": 1.2126474693,
				"y": -3.4355148811,
				"z": 1.9536555722,
				"element": "C" 
			},
			{
				"x": 0.2179628481,
				"y": -2.8948950802,
				"z": 0.958793313,
				"element": "C" 
			},
			{
				"x": 0.271498892,
				"y": -1.5716519772,
				"z": 0.7327169775,
				"element": "N" 
			},
			{
				"x": -0.6118128068,
				"y": -1.0865580355,
				"z": -0.1612388994,
				"element": "C" 
			},
			{
				"x": -1.5425514511,
				"y": -1.7933287456,
				"z": -0.8358530776,
				"element": "N" 
			},
			{
				"x": -1.5788644858,
				"y": -3.1067346149,
				"z": -0.5893045187,
				"element": "C" 
			},
			{
				"x": -2.497317251,
				"y": -3.8351140977,
				"z": -1.3045440519,
				"element": "N" 
			},
			{
				"x": -0.6975755471,
				"y": -3.7238241338,
				"z": 0.3220754,
				"element": "C" 
			},
			{
				"x": -0.5721301493,
				"y": 0.2589103867,
				"z": -0.4111308014,
				"element": "N" 
			},
			{
				"x": -1.4963054078,
				"y": 0.882462464,
				"z": -1.3567551516,
				"element": "C" 
			},
			{
				"x": -1.5653711894,
				"y": 2.3806559264,
				"z": -1.0777685011,
				"element": "C" 
			},
			{
				"x": -0.303277944,
				"y": 3.0314562386,
				"z": -1.1807761998,
				"element": "O" 
			},
			{
				"x": 0.8086017884,
				"y": 2.237466478,
				"z": -0.7641908715,
				"element": "C" 
			},
			{
				"x": 0.4287042588,
				"y": 1.1247746249,
				"z": 0.2077379728,
				"element": "C" 
			},
			{
				"x": 1.1055652059,
				"y": -4.5140227012,
				"z": 2.0939280345,
				"element": "H" 
			},
			{
				"x": 2.2328839835,
				"y": -3.2224505703,
				"z": 1.6179691874,
				"element": "H" 
			},
			{
				"x": 1.0852811154,
				"y": -2.9376392346,
				"z": 2.9204329384,
				"element": "H" 
			},
			{
				"x": -3.215124804,
				"y": -3.2942322096,
				"z": -1.7638794386,
				"element": "H" 
			},
			{
				"x": -2.7740106906,
				"y": -4.7365461669,
				"z": -0.9489494315,
				"element": "H" 
			},
			{
				"x": -0.7276514438,
				"y": -4.7915095162,
				"z": 0.5083993386,
				"element": "H" 
			},
			{
				"x": -1.1783430377,
				"y": 0.7060583878,
				"z": -2.3949452733,
				"element": "H" 
			},
			{
				"x": -2.487445448,
				"y": 0.4342876072,
				"z": -1.247811384,
				"element": "H" 
			},
			{
				"x": -1.9994108727,
				"y": 2.5437928214,
				"z": -0.0783478979,
				"element": "H" 
			},
			{
				"x": -2.2251350291,
				"y": 2.8614913733,
				"z": -1.8071564393,
				"element": "H" 
			},
			{
				"x": 1.5278315656,
				"y": 2.9145177533,
				"z": -0.2896592399,
				"element": "H" 
			},
			{
				"x": 1.2961460687,
				"y": 1.7942440635,
				"z": -1.6461559857,
				"element": "H" 
			},
			{
				"x": 1.3042291037,
				"y": 0.5242519599,
				"z": 0.4597229382,
				"element": "H" 
			},
			{
				"x": 0.0528752587,
				"y": 1.5560518799,
				"z": 1.1476354904,
				"element": "H" 
			}
		],
		 "valence_orbital": [ 
			{
				"type": "occ",
				"energy": -0.27891,
				"method": "rhf"
			},
			{
				"type": "occ",
				"energy": -0.24575,
				"method": "rhf"
			},
			{
				"type": "occ",
				"energy": -0.2348,
				"method": "rhf"
			},
			{
				"type": "occ",
				"energy": -0.23241,
				"method": "rhf"
			},
			{
				"type": "occ",
				"energy": -0.19704,
				"method": "rhf"
			},
			{
				"type": "unocc",
				"energy": -0.00078,
				"method": "rhf"
			},
			{
				"type": "unocc",
				"energy": 0.02407,
				"method": "rhf"
			},
			{
				"type": "unocc",
				"energy": 0.08492,
				"method": "rhf"
			},
			{
				"type": "unocc",
				"energy": 0.09456,
				"method": "rhf"
			},
			{
				"type": "unocc",
				"energy": 0.11619,
				"method": "rhf"
			}
		],
		"cosmo_sigma_profile": { 
			"-0.025": 0.0,
			"-0.024": 0.0,
			"-0.023": 0.0,
			"-0.022": 0.0,
			"-0.021": 0.0,
			"-0.02": 0.0,
			"-0.019": 0.0,
			"-0.018": 0.0,
			"-0.017": 0.0,
			"-0.016": 0.0,
			"-0.015": 0.0,
			"-0.014": 0.306274575985,
			"-0.013": 1.6543143591,
			"-0.012": 2.43275866983,
			"-0.011": 1.99657321571,
			"-0.01": 2.62436079992,
			"-0.009": 2.91222005233,
			"-0.008": 2.1035768124,
			"-0.007": 1.95692040515,
			"-0.006": 3.33801999813,
			"-0.005": 12.217611962,
			"-0.004": 28.9438252125,
			"-0.003": 28.2502121452,
			"-0.002": 19.7263194387,
			"-0.001": 17.1993902178,
			"0.0": 15.9632040516,
			"0.001": 9.62745992076,
			"0.002": 13.2686173776,
			"0.003": 14.992754592,
			"0.004": 10.5287672802,
			"0.005": 8.93523152191,
			"0.006": 5.45559538458,
			"0.007": 5.55328389077,
			"0.008": 5.84012952218,
			"0.009": 4.98059141495,
			"0.01": 4.26011884793,
			"0.011": 3.93677454617,
			"0.012": 3.13529747364,
			"0.013": 2.33613889937,
			"0.014": 1.04371823464,
			"0.015": 0.0,
			"0.016": 0.0,
			"0.017": 0.0,
			"0.018": 0.0,
			"0.019": 0.0,
			"0.02": 0.0,
			"0.021": 0.0,
			"0.022": 0.0,
			"0.023": 0.0,
			"0.024": 0.0,
			"0.025": 0.0
		}
	}
}
