{
	 "smiles": "CC(=O)COC1=C(C=CC(F)=C1F)[N+]([O-])=O", 
	 "Tm": 315.65, 
	 "num_atms": 23, 
	 "gaussian": { 
		 "optdone": 1, 
		 "sigma_profile": "yes", 
		 "theory": "DFT", 
		 "functional": "B3LYP", 
		 "basiset": "6-31G**", 
		 "properties": { 
			 "R2extent": 3576.252, 
			 "electric_dipole_moment_norm": 4.72181368332, 
			 "electric_quadrupole_moment_norm": 23.143186757, 
			 "total_energy": -902.349442284, 
			 "HOMO_LUMO_gap": 0.168, 
			 "cosmo_polarized_energy": -15.15, 
			 "cosmo_cavitation_energy": 29.51, 
			 "cosmo_dispersion_energy": -20.62, 
			 "cosmo_repulsion_energy": 1.59, 
			 "cosmo_total_nonelectrostatic_energy": 10.48, 
			 "SMD_solvation_energy": 9.21 
		},
		"coords": [
			{
				"x": -2.8212365597,
				"y": -1.2339059509,
				"z": -2.2615370098,
				"element": "C" 
			},
			{
				"x": -1.7539816219,
				"y": -1.0165805666,
				"z": -1.2091378211,
				"element": "C" 
			},
			{
				"x": -0.6111204271,
				"y": -1.4026308803,
				"z": -1.3292964359,
				"element": "O" 
			},
			{
				"x": -2.2073866092,
				"y": -0.248638232,
				"z": 0.0339046682,
				"element": "C" 
			},
			{
				"x": -1.1635734675,
				"y": -0.0043428282,
				"z": 0.9676030082,
				"element": "O" 
			},
			{
				"x": -0.0557748295,
				"y": 0.6959491741,
				"z": 0.6608284837,
				"element": "C" 
			},
			{
				"x": 1.0758720009,
				"y": 0.5986391841,
				"z": 1.5078156201,
				"element": "C" 
			},
			{
				"x": 2.2571843711,
				"y": 1.2912777163,
				"z": 1.2400993796,
				"element": "C" 
			},
			{
				"x": 2.3590170102,
				"y": 2.1303785104,
				"z": 0.1393885494,
				"element": "C" 
			},
			{
				"x": 1.2551600201,
				"y": 2.2470269447,
				"z": -0.6953347227,
				"element": "C" 
			},
			{
				"x": 1.2949430647,
				"y": 3.0400571669,
				"z": -1.77306779,
				"element": "F" 
			},
			{
				"x": 0.0753790905,
				"y": 1.5559918195,
				"z": -0.4411657644,
				"element": "C" 
			},
			{
				"x": -0.9477515759,
				"y": 1.7240286924,
				"z": -1.3096426098,
				"element": "F" 
			},
			{
				"x": 1.0651110371,
				"y": -0.2376018685,
				"z": 2.7148421704,
				"element": "N" 
			},
			{
				"x": 2.158908479,
				"y": -0.6381380432,
				"z": 3.1207878759,
				"element": "O" 
			},
			{
				"x": -0.0090462178,
				"y": -0.4638595549,
				"z": 3.2637726302,
				"element": "O" 
			},
			{
				"x": -2.9739072055,
				"y": -0.297786779,
				"z": -2.8121885919,
				"element": "H" 
			},
			{
				"x": -3.7826934746,
				"y": -1.5131364476,
				"z": -1.8176989446,
				"element": "H" 
			},
			{
				"x": -2.4924636649,
				"y": -2.0036930579,
				"z": -2.9607513882,
				"element": "H" 
			},
			{
				"x": -2.9227785269,
				"y": -0.8674720575,
				"z": 0.5863206252,
				"element": "H" 
			},
			{
				"x": -2.720440113,
				"y": 0.6731419526,
				"z": -0.2584334607,
				"element": "H" 
			},
			{
				"x": 3.0890583414,
				"y": 1.1512616716,
				"z": 1.9180174182,
				"element": "H" 
			},
			{
				"x": 3.2623208785,
				"y": 2.6856334342,
				"z": -0.0817258899,
				"element": "H" 
			}
		],
		 "valence_orbital": [ 
			{
				"type": "occ",
				"energy": -0.30053,
				"method": "rhf"
			},
			{
				"type": "occ",
				"energy": -0.28802,
				"method": "rhf"
			},
			{
				"type": "occ",
				"energy": -0.27859,
				"method": "rhf"
			},
			{
				"type": "occ",
				"energy": -0.26726,
				"method": "rhf"
			},
			{
				"type": "occ",
				"energy": -0.24828,
				"method": "rhf"
			},
			{
				"type": "unocc",
				"energy": -0.08028,
				"method": "rhf"
			},
			{
				"type": "unocc",
				"energy": -0.03452,
				"method": "rhf"
			},
			{
				"type": "unocc",
				"energy": -0.02378,
				"method": "rhf"
			},
			{
				"type": "unocc",
				"energy": -0.00143,
				"method": "rhf"
			},
			{
				"type": "unocc",
				"energy": 0.03199,
				"method": "rhf"
			}
		],
		"cosmo_sigma_profile": { 
			"-0.025": 0.0,
			"-0.024": 0.0,
			"-0.023": 0.0,
			"-0.022": 0.0,
			"-0.021": 0.0,
			"-0.02": 0.0,
			"-0.019": 0.0,
			"-0.018": 0.0,
			"-0.017": 0.0,
			"-0.016": 0.0,
			"-0.015": 0.0,
			"-0.014": 0.0,
			"-0.013": 0.0,
			"-0.012": 0.0,
			"-0.011": 0.0,
			"-0.01": 1.06535796121,
			"-0.009": 5.60825885876,
			"-0.008": 9.22764843714,
			"-0.007": 11.9162189316,
			"-0.006": 13.8968251547,
			"-0.005": 13.3088518825,
			"-0.004": 11.8434926147,
			"-0.003": 18.1880751626,
			"-0.002": 19.9881526778,
			"-0.001": 18.2797138873,
			"0.0": 13.4356622905,
			"0.001": 12.7306598529,
			"0.002": 13.6581652429,
			"0.003": 16.3838951123,
			"0.004": 5.12874476725,
			"0.005": 6.14775834307,
			"0.006": 5.01891730079,
			"0.007": 7.87009565906,
			"0.008": 11.3128818776,
			"0.009": 8.68872089171,
			"0.01": 7.05435763504,
			"0.011": 4.41462460876,
			"0.012": 1.27436361016,
			"0.013": 0.107443182708,
			"0.014": 0.0,
			"0.015": 0.0,
			"0.016": 0.0,
			"0.017": 0.0,
			"0.018": 0.0,
			"0.019": 0.0,
			"0.02": 0.0,
			"0.021": 0.0,
			"0.022": 0.0,
			"0.023": 0.0,
			"0.024": 0.0,
			"0.025": 0.0
		}
	}
}
