{
	 "smiles": "ClC(Cl)(Cl)C=O", 
	 "Tm": 215.65, 
	 "num_atms": 7, 
	 "gaussian": { 
		 "optdone": 1, 
		 "sigma_profile": "yes", 
		 "theory": "DFT", 
		 "functional": "B3LYP", 
		 "basiset": "6-31G**", 
		 "properties": { 
			 "R2extent": 2233.1953, 
			 "electric_dipole_moment_norm": 1.43729811452, 
			 "electric_quadrupole_moment_norm": 5.71997585135, 
			 "total_energy": -1532.57520389, 
			 "HOMO_LUMO_gap": 0.22172, 
			 "cosmo_polarized_energy": -4.74, 
			 "cosmo_cavitation_energy": 17.0, 
			 "cosmo_dispersion_energy": -12.79, 
			 "cosmo_repulsion_energy": 1.11, 
			 "cosmo_total_nonelectrostatic_energy": 5.32, 
			 "SMD_solvation_energy": 3.15 
		},
		"coords": [
			{
				"x": 1.346641761,
				"y": -2.0890900532,
				"z": 2.9689980453,
				"element": "Cl" 
			},
			{
				"x": 0.8786290175,
				"y": -0.6267249543,
				"z": 2.0248398081,
				"element": "C" 
			},
			{
				"x": 1.3227821019,
				"y": 0.861308013,
				"z": 2.9399603867,
				"element": "Cl" 
			},
			{
				"x": 1.6276215183,
				"y": -0.6364433335,
				"z": 0.4221830692,
				"element": "Cl" 
			},
			{
				"x": -0.6728239812,
				"y": -0.6400866565,
				"z": 1.9430418438,
				"element": "C" 
			},
			{
				"x": -1.2875471685,
				"y": -0.6550223099,
				"z": 0.9152119676,
				"element": "O" 
			},
			{
				"x": -1.135403249,
				"y": -0.6340407055,
				"z": 2.9478648793,
				"element": "H" 
			}
		],
		 "valence_orbital": [ 
			{
				"type": "occ",
				"energy": -0.35895,
				"method": "rhf"
			},
			{
				"type": "occ",
				"energy": -0.3414,
				"method": "rhf"
			},
			{
				"type": "occ",
				"energy": -0.3371,
				"method": "rhf"
			},
			{
				"type": "occ",
				"energy": -0.32427,
				"method": "rhf"
			},
			{
				"type": "occ",
				"energy": -0.30148,
				"method": "rhf"
			},
			{
				"type": "unocc",
				"energy": -0.07976,
				"method": "rhf"
			},
			{
				"type": "unocc",
				"energy": -0.05716,
				"method": "rhf"
			},
			{
				"type": "unocc",
				"energy": -0.00704,
				"method": "rhf"
			},
			{
				"type": "unocc",
				"energy": 0.01073,
				"method": "rhf"
			},
			{
				"type": "unocc",
				"energy": 0.10264,
				"method": "rhf"
			}
		],
		"cosmo_sigma_profile": { 
			"-0.025": 0.0,
			"-0.024": 0.0,
			"-0.023": 0.0,
			"-0.022": 0.0,
			"-0.021": 0.0,
			"-0.02": 0.0,
			"-0.019": 0.0,
			"-0.018": 0.0,
			"-0.017": 0.0,
			"-0.016": 0.0,
			"-0.015": 0.0,
			"-0.014": 0.0,
			"-0.013": 0.0,
			"-0.012": 0.0,
			"-0.011": 1.03528835271,
			"-0.01": 3.14964187009,
			"-0.009": 2.3013758973,
			"-0.008": 1.68215931659,
			"-0.007": 1.54230929897,
			"-0.006": 3.09030489762,
			"-0.005": 6.94870363964,
			"-0.004": 7.9997835892,
			"-0.003": 8.81790308046,
			"-0.002": 8.08584225653,
			"-0.001": 10.3659157323,
			"0.0": 13.5531545052,
			"0.001": 19.6516372507,
			"0.002": 29.0173553649,
			"0.003": 8.04302130988,
			"0.004": 2.34986867359,
			"0.005": 2.30946482904,
			"0.006": 2.45919526904,
			"0.007": 3.11564145866,
			"0.008": 4.53219277778,
			"0.009": 2.97114820347,
			"0.01": 0.172311814364,
			"0.011": 0.0,
			"0.012": 0.0,
			"0.013": 0.0,
			"0.014": 0.0,
			"0.015": 0.0,
			"0.016": 0.0,
			"0.017": 0.0,
			"0.018": 0.0,
			"0.019": 0.0,
			"0.02": 0.0,
			"0.021": 0.0,
			"0.022": 0.0,
			"0.023": 0.0,
			"0.024": 0.0,
			"0.025": 0.0
		}
	}
}
