{
	 "smiles": "CC1(C)C(=O)NC2=C1C=C(Br)C=C2", 
	 "Tm": 430.15, 
	 "num_atms": 23, 
	 "gaussian": { 
		 "optdone": 1, 
		 "sigma_profile": "yes", 
		 "theory": "DFT", 
		 "functional": "B3LYP", 
		 "basiset": "6-31G**", 
		 "properties": { 
			 "R2extent": 3946.2037, 
			 "electric_dipole_moment_norm": 1.31817695322, 
			 "electric_quadrupole_moment_norm": 17.9493181809, 
			 "total_energy": -3088.50219175, 
			 "HOMO_LUMO_gap": 0.19622, 
			 "cosmo_polarized_energy": -11.51, 
			 "cosmo_cavitation_energy": 28.72, 
			 "cosmo_dispersion_energy": -20.84, 
			 "cosmo_repulsion_energy": 1.65, 
			 "cosmo_total_nonelectrostatic_energy": 9.53, 
			 "SMD_solvation_energy": 4.26 
		},
		"coords": [
			{
				"x": 2.7600158639,
				"y": 1.631012657,
				"z": 0.9946511939,
				"element": "C" 
			},
			{
				"x": 1.4708723428,
				"y": 1.2650691754,
				"z": 1.7573779302,
				"element": "C" 
			},
			{
				"x": 1.8018252368,
				"y": 0.430114212,
				"z": 3.0107153107,
				"element": "C" 
			},
			{
				"x": 0.762582047,
				"y": 2.5718681277,
				"z": 2.1991552124,
				"element": "C" 
			},
			{
				"x": 1.2103725278,
				"y": 3.435712254,
				"z": 2.9274712553,
				"element": "O" 
			},
			{
				"x": -0.4912180901,
				"y": 2.5809102147,
				"z": 1.6089838556,
				"element": "N" 
			},
			{
				"x": -0.7174857923,
				"y": 1.4447298781,
				"z": 0.8243705015,
				"element": "C" 
			},
			{
				"x": 0.4193121756,
				"y": 0.6188354862,
				"z": 0.8725070372,
				"element": "C" 
			},
			{
				"x": 0.4363829787,
				"y": -0.5757217978,
				"z": 0.1688736108,
				"element": "C" 
			},
			{
				"x": -0.6960590848,
				"y": -0.9252388917,
				"z": -0.577657243,
				"element": "C" 
			},
			{
				"x": -0.6940553026,
				"y": -2.5699390444,
				"z": -1.5568643309,
				"element": "Br" 
			},
			{
				"x": -1.8220613315,
				"y": -0.1061495312,
				"z": -0.6247421842,
				"element": "C" 
			},
			{
				"x": -1.8431053705,
				"y": 1.1009893136,
				"z": 0.0846166711,
				"element": "C" 
			},
			{
				"x": 3.409041035,
				"y": 2.2324572035,
				"z": 1.6374596062,
				"element": "H" 
			},
			{
				"x": 3.2986568472,
				"y": 0.7251115228,
				"z": 0.6993230437,
				"element": "H" 
			},
			{
				"x": 2.5396203356,
				"y": 2.2064407971,
				"z": 0.0907425851,
				"element": "H" 
			},
			{
				"x": 0.8946972381,
				"y": 0.1445032007,
				"z": 3.5513531347,
				"element": "H" 
			},
			{
				"x": 2.4360094963,
				"y": 1.0137972528,
				"z": 3.6839871957,
				"element": "H" 
			},
			{
				"x": 2.3339196458,
				"y": -0.4843526095,
				"z": 2.7303281463,
				"element": "H" 
			},
			{
				"x": -1.1438623381,
				"y": 3.3381204025,
				"z": 1.7502569052,
				"element": "H" 
			},
			{
				"x": 1.3001627502,
				"y": -1.2314652174,
				"z": 0.1887828161,
				"element": "H" 
			},
			{
				"x": -2.6827941854,
				"y": -0.4048278093,
				"z": -1.2118357938,
				"element": "H" 
			},
			{
				"x": -2.7187290255,
				"y": 1.7418232032,
				"z": 0.0503435403,
				"element": "H" 
			}
		],
		 "valence_orbital": [ 
			{
				"type": "occ",
				"energy": -0.28785,
				"method": "rhf"
			},
			{
				"type": "occ",
				"energy": -0.2873,
				"method": "rhf"
			},
			{
				"type": "occ",
				"energy": -0.26623,
				"method": "rhf"
			},
			{
				"type": "occ",
				"energy": -0.2598,
				"method": "rhf"
			},
			{
				"type": "occ",
				"energy": -0.22033,
				"method": "rhf"
			},
			{
				"type": "unocc",
				"energy": -0.02411,
				"method": "rhf"
			},
			{
				"type": "unocc",
				"energy": -0.01659,
				"method": "rhf"
			},
			{
				"type": "unocc",
				"energy": 0.00574,
				"method": "rhf"
			},
			{
				"type": "unocc",
				"energy": 0.02649,
				"method": "rhf"
			},
			{
				"type": "unocc",
				"energy": 0.08181,
				"method": "rhf"
			}
		],
		"cosmo_sigma_profile": { 
			"-0.025": 0.0,
			"-0.024": 0.0,
			"-0.023": 0.0,
			"-0.022": 0.0,
			"-0.021": 0.0,
			"-0.02": 0.0,
			"-0.019": 0.0,
			"-0.018": 0.0,
			"-0.017": 0.0,
			"-0.016": 0.636970443537,
			"-0.015": 1.33679008905,
			"-0.014": 1.55702321625,
			"-0.013": 1.31709949777,
			"-0.012": 1.08711599658,
			"-0.011": 0.97136624218,
			"-0.01": 0.927200020083,
			"-0.009": 1.13627362491,
			"-0.008": 1.70993654643,
			"-0.007": 4.92116230033,
			"-0.006": 8.03969993463,
			"-0.005": 10.717739123,
			"-0.004": 16.6368133247,
			"-0.003": 17.7940965724,
			"-0.002": 18.3796309533,
			"-0.001": 19.1823235913,
			"0.0": 25.0149747074,
			"0.001": 17.4956540554,
			"0.002": 14.5619947782,
			"0.003": 19.5005087619,
			"0.004": 17.5391423996,
			"0.005": 11.3981984645,
			"0.006": 2.1369791195,
			"0.007": 0.916103247145,
			"0.008": 1.2476308594,
			"0.009": 1.82557325068,
			"0.01": 1.3912195775,
			"0.011": 1.94680719069,
			"0.012": 3.40294167659,
			"0.013": 5.2262032831,
			"0.014": 0.996701922879,
			"0.015": 0.0,
			"0.016": 0.0,
			"0.017": 0.0,
			"0.018": 0.0,
			"0.019": 0.0,
			"0.02": 0.0,
			"0.021": 0.0,
			"0.022": 0.0,
			"0.023": 0.0,
			"0.024": 0.0,
			"0.025": 0.0
		}
	}
}
