{
	 "smiles": "FC(F)(F)C1=CC=C(C=C1)C1=NC(C=O)=CS1", 
	 "Tm": 377.15, 
	 "num_atms": 23, 
	 "gaussian": { 
		 "optdone": 1, 
		 "sigma_profile": "yes", 
		 "theory": "DFT", 
		 "functional": "B3LYP", 
		 "basiset": "6-31G**", 
		 "properties": { 
			 "R2extent": 6858.1175, 
			 "electric_dipole_moment_norm": 4.38307558, 
			 "electric_quadrupole_moment_norm": 14.5891953729, 
			 "total_energy": -1250.45949591, 
			 "HOMO_LUMO_gap": 0.16878, 
			 "cosmo_polarized_energy": -13.32, 
			 "cosmo_cavitation_energy": 31.94, 
			 "cosmo_dispersion_energy": -23.17, 
			 "cosmo_repulsion_energy": 1.67, 
			 "cosmo_total_nonelectrostatic_energy": 10.44, 
			 "SMD_solvation_energy": 6.41 
		},
		"coords": [
			{
				"x": 1.1364474819,
				"y": -5.324792836,
				"z": 0.8552365733,
				"element": "F" 
			},
			{
				"x": 1.622596105,
				"y": -4.4074673028,
				"z": 1.718991576,
				"element": "C" 
			},
			{
				"x": 2.9602178701,
				"y": -4.5834179333,
				"z": 1.7930264104,
				"element": "F" 
			},
			{
				"x": 1.1175298416,
				"y": -4.7076225933,
				"z": 2.9378087402,
				"element": "F" 
			},
			{
				"x": 1.26452409,
				"y": -3.0051603842,
				"z": 1.3044013875,
				"element": "C" 
			},
			{
				"x": 2.1154637468,
				"y": -1.9438934071,
				"z": 1.6220774164,
				"element": "C" 
			},
			{
				"x": 1.7572207384,
				"y": -0.6424678967,
				"z": 1.2851892266,
				"element": "C" 
			},
			{
				"x": 0.5443600189,
				"y": -0.3841153702,
				"z": 0.6282669605,
				"element": "C" 
			},
			{
				"x": -0.304489155,
				"y": -1.4595698245,
				"z": 0.3112911916,
				"element": "C" 
			},
			{
				"x": 0.0541872403,
				"y": -2.7590862508,
				"z": 0.6478795847,
				"element": "C" 
			},
			{
				"x": 0.1294254492,
				"y": 0.9751798249,
				"z": 0.2545337023,
				"element": "C" 
			},
			{
				"x": -0.9827994376,
				"y": 1.255402515,
				"z": -0.3601190633,
				"element": "N" 
			},
			{
				"x": -1.1181570606,
				"y": 2.6046315079,
				"z": -0.5849627034,
				"element": "C" 
			},
			{
				"x": -2.3036387037,
				"y": 3.1636556595,
				"z": -1.2697230027,
				"element": "C" 
			},
			{
				"x": -3.2367768685,
				"y": 2.5094391402,
				"z": -1.6838208987,
				"element": "O" 
			},
			{
				"x": -0.0811413724,
				"y": 3.3858597174,
				"z": -0.130907401,
				"element": "C" 
			},
			{
				"x": 1.1245039587,
				"y": 2.4096140152,
				"z": 0.6123689918,
				"element": "S" 
			},
			{
				"x": 3.0573345923,
				"y": -2.1377918125,
				"z": 2.1230129865,
				"element": "H" 
			},
			{
				"x": 2.4318028156,
				"y": 0.1712942913,
				"z": 1.5354351351,
				"element": "H" 
			},
			{
				"x": -1.2377228511,
				"y": -1.2540711958,
				"z": -0.200495436,
				"element": "H" 
			},
			{
				"x": -0.5999760999,
				"y": -3.5862857615,
				"z": 0.394564258,
				"element": "H" 
			},
			{
				"x": -2.2732509763,
				"y": 4.2702990391,
				"z": -1.3800496662,
				"element": "H" 
			},
			{
				"x": 0.0234385763,
				"y": 4.4601668583,
				"z": -0.1988059697,
				"element": "H" 
			}
		],
		 "valence_orbital": [ 
			{
				"type": "occ",
				"energy": -0.29948,
				"method": "rhf"
			},
			{
				"type": "occ",
				"energy": -0.29606,
				"method": "rhf"
			},
			{
				"type": "occ",
				"energy": -0.27875,
				"method": "rhf"
			},
			{
				"type": "occ",
				"energy": -0.26205,
				"method": "rhf"
			},
			{
				"type": "occ",
				"energy": -0.24993,
				"method": "rhf"
			},
			{
				"type": "unocc",
				"energy": -0.08115,
				"method": "rhf"
			},
			{
				"type": "unocc",
				"energy": -0.06269,
				"method": "rhf"
			},
			{
				"type": "unocc",
				"energy": -0.02744,
				"method": "rhf"
			},
			{
				"type": "unocc",
				"energy": -0.00457,
				"method": "rhf"
			},
			{
				"type": "unocc",
				"energy": 0.00932,
				"method": "rhf"
			}
		],
		"cosmo_sigma_profile": { 
			"-0.025": 0.0,
			"-0.024": 0.0,
			"-0.023": 0.0,
			"-0.022": 0.0,
			"-0.021": 0.0,
			"-0.02": 0.0,
			"-0.019": 0.0,
			"-0.018": 0.0,
			"-0.017": 0.0,
			"-0.016": 0.0,
			"-0.015": 0.0,
			"-0.014": 0.0,
			"-0.013": 0.0,
			"-0.012": 0.105248070228,
			"-0.011": 1.92822445717,
			"-0.01": 3.05738102879,
			"-0.009": 2.85151550926,
			"-0.008": 6.13696071255,
			"-0.007": 9.89741248346,
			"-0.006": 12.5695266655,
			"-0.005": 10.4548002816,
			"-0.004": 11.8231668702,
			"-0.003": 13.9741930401,
			"-0.002": 17.75011639,
			"-0.001": 21.8843512516,
			"0.0": 25.873768569,
			"0.001": 25.7241131888,
			"0.002": 35.5177667067,
			"0.003": 28.8692827977,
			"0.004": 3.69477671253,
			"0.005": 2.91839767762,
			"0.006": 1.75434985408,
			"0.007": 2.3841659792,
			"0.008": 3.37159094884,
			"0.009": 2.67481174267,
			"0.01": 2.81497058082,
			"0.011": 5.35841316333,
			"0.012": 4.20446466483,
			"0.013": 1.79789440445,
			"0.014": 1.12115387049,
			"0.015": 0.1019756056,
			"0.016": 0.0,
			"0.017": 0.0,
			"0.018": 0.0,
			"0.019": 0.0,
			"0.02": 0.0,
			"0.021": 0.0,
			"0.022": 0.0,
			"0.023": 0.0,
			"0.024": 0.0,
			"0.025": 0.0
		}
	}
}
