{
	 "smiles": "OC(=O)C=CC1=CC=C(C=C1)C1=CC=CC=C1", 
	 "Tm": 499.15, 
	 "num_atms": 29, 
	 "gaussian": { 
		 "optdone": 1, 
		 "sigma_profile": "yes", 
		 "theory": "DFT", 
		 "functional": "B3LYP", 
		 "basiset": "6-31G**", 
		 "properties": { 
			 "R2extent": 7189.4445, 
			 "electric_dipole_moment_norm": 3.44217077002, 
			 "electric_quadrupole_moment_norm": 16.853619133, 
			 "total_energy": -729.288978157, 
			 "HOMO_LUMO_gap": 0.1519, 
			 "cosmo_polarized_energy": -12.33, 
			 "cosmo_cavitation_energy": 34.26, 
			 "cosmo_dispersion_energy": -24.86, 
			 "cosmo_repulsion_energy": 1.9, 
			 "cosmo_total_nonelectrostatic_energy": 11.31, 
			 "SMD_solvation_energy": 6.94 
		},
		"coords": [
			{
				"x": -3.8577171619,
				"y": 4.7409477028,
				"z": -0.1278067599,
				"element": "O" 
			},
			{
				"x": -4.1218177139,
				"y": 3.7167457165,
				"z": -0.9855587249,
				"element": "C" 
			},
			{
				"x": -5.0900786797,
				"y": 3.7301284478,
				"z": -1.7229134069,
				"element": "O" 
			},
			{
				"x": -3.1417479382,
				"y": 2.62159585,
				"z": -0.9297944333,
				"element": "C" 
			},
			{
				"x": -2.0719207198,
				"y": 2.6120410773,
				"z": -0.1104088332,
				"element": "C" 
			},
			{
				"x": -1.055039197,
				"y": 1.5682026471,
				"z": 0.0060427187,
				"element": "C" 
			},
			{
				"x": -1.0646643044,
				"y": 0.3843095629,
				"z": -0.7572321611,
				"element": "C" 
			},
			{
				"x": -0.0714588563,
				"y": -0.5724479226,
				"z": -0.6036081957,
				"element": "C" 
			},
			{
				"x": 0.979189558,
				"y": -0.3970539235,
				"z": 0.3183904403,
				"element": "C" 
			},
			{
				"x": 0.9893284916,
				"y": 0.7834594811,
				"z": 1.0800226889,
				"element": "C" 
			},
			{
				"x": -0.0050386785,
				"y": 1.7429362951,
				"z": 0.9256574024,
				"element": "C" 
			},
			{
				"x": 2.0373101384,
				"y": -1.4238897758,
				"z": 0.4779168279,
				"element": "C" 
			},
			{
				"x": 3.3714875025,
				"y": -1.0538872685,
				"z": 0.7221589507,
				"element": "C" 
			},
			{
				"x": 4.3659475801,
				"y": -2.0188551579,
				"z": 0.8727060591,
				"element": "C" 
			},
			{
				"x": 4.0488574501,
				"y": -3.3756772605,
				"z": 0.7828314145,
				"element": "C" 
			},
			{
				"x": 2.728167502,
				"y": -3.7586566186,
				"z": 0.5407737745,
				"element": "C" 
			},
			{
				"x": 1.7336474255,
				"y": -2.7937712829,
				"z": 0.3896467955,
				"element": "C" 
			},
			{
				"x": -4.5720128452,
				"y": 5.38336841,
				"z": -0.2673046333,
				"element": "H" 
			},
			{
				"x": -3.3619444208,
				"y": 1.8120736638,
				"z": -1.6172964751,
				"element": "H" 
			},
			{
				"x": -1.936069871,
				"y": 3.4707489656,
				"z": 0.543542941,
				"element": "H" 
			},
			{
				"x": -1.8514066773,
				"y": 0.2147846594,
				"z": -1.4856374971,
				"element": "H" 
			},
			{
				"x": -0.0903623989,
				"y": -1.4622033414,
				"z": -1.2254921912,
				"element": "H" 
			},
			{
				"x": 1.7698508503,
				"y": 0.9374426115,
				"z": 1.8187506097,
				"element": "H" 
			},
			{
				"x": 0.0209801602,
				"y": 2.6436328405,
				"z": 1.5336619952,
				"element": "H" 
			},
			{
				"x": 3.6343898045,
				"y": -0.0011482078,
				"z": 0.7663847843,
				"element": "H" 
			},
			{
				"x": 5.3918907816,
				"y": -1.7098606725,
				"z": 1.0516883735,
				"element": "H" 
			},
			{
				"x": 4.8237551638,
				"y": -4.1275342353,
				"z": 0.9001252916,
				"element": "H" 
			},
			{
				"x": 2.4691304821,
				"y": -4.8117375828,
				"z": 0.477733889,
				"element": "H" 
			},
			{
				"x": 0.7054465721,
				"y": -3.1040946814,
				"z": 0.2289183548,
				"element": "H" 
			}
		],
		 "valence_orbital": [ 
			{
				"type": "occ",
				"energy": -0.26828,
				"method": "rhf"
			},
			{
				"type": "occ",
				"energy": -0.26472,
				"method": "rhf"
			},
			{
				"type": "occ",
				"energy": -0.26327,
				"method": "rhf"
			},
			{
				"type": "occ",
				"energy": -0.25708,
				"method": "rhf"
			},
			{
				"type": "occ",
				"energy": -0.22367,
				"method": "rhf"
			},
			{
				"type": "unocc",
				"energy": -0.07177,
				"method": "rhf"
			},
			{
				"type": "unocc",
				"energy": -0.01591,
				"method": "rhf"
			},
			{
				"type": "unocc",
				"energy": -0.01287,
				"method": "rhf"
			},
			{
				"type": "unocc",
				"energy": -0.00725,
				"method": "rhf"
			},
			{
				"type": "unocc",
				"energy": 0.03428,
				"method": "rhf"
			}
		],
		"cosmo_sigma_profile": { 
			"-0.025": 0.0,
			"-0.024": 0.0,
			"-0.023": 0.0,
			"-0.022": 0.0,
			"-0.021": 0.0,
			"-0.02": 0.0,
			"-0.019": 0.0,
			"-0.018": 0.302250649549,
			"-0.017": 0.898333085327,
			"-0.016": 0.907072570239,
			"-0.015": 0.767046013139,
			"-0.014": 1.10087146617,
			"-0.013": 0.502687514814,
			"-0.012": 0.192810369479,
			"-0.011": 0.484742214245,
			"-0.01": 1.0879404134,
			"-0.009": 0.968863856288,
			"-0.008": 2.71733738003,
			"-0.007": 5.79342687943,
			"-0.006": 17.0761373507,
			"-0.005": 21.2055263158,
			"-0.004": 20.6653359298,
			"-0.003": 16.9479430911,
			"-0.002": 15.8316314278,
			"-0.001": 18.1791527914,
			"0.0": 16.699684375,
			"0.001": 20.8048116071,
			"0.002": 25.3730887736,
			"0.003": 23.6876663369,
			"0.004": 22.9825714412,
			"0.005": 13.1969452138,
			"0.006": 6.55536395797,
			"0.007": 2.65227949705,
			"0.008": 3.2524425753,
			"0.009": 1.62324000317,
			"0.01": 1.30854843107,
			"0.011": 2.70172404478,
			"0.012": 5.27127916695,
			"0.013": 2.81522841795,
			"0.014": 0.270552751537,
			"0.015": 0.0,
			"0.016": 0.0,
			"0.017": 0.0,
			"0.018": 0.0,
			"0.019": 0.0,
			"0.02": 0.0,
			"0.021": 0.0,
			"0.022": 0.0,
			"0.023": 0.0,
			"0.024": 0.0,
			"0.025": 0.0
		}
	}
}
