{
	 "smiles": "CC(N1N=CC=C1N)C1=CC=NC=C1", 
	 "Tm": 553.15, 
	 "num_atms": 26, 
	 "gaussian": { 
		 "optdone": 1, 
		 "sigma_profile": "yes", 
		 "theory": "DFT", 
		 "functional": "B3LYP", 
		 "basiset": "6-31G**", 
		 "properties": { 
			 "R2extent": 2825.9663, 
			 "electric_dipole_moment_norm": 2.84371893478, 
			 "electric_quadrupole_moment_norm": 14.9514340413, 
			 "total_energy": -607.277146697, 
			 "HOMO_LUMO_gap": 0.18508, 
			 "cosmo_polarized_energy": -14.33, 
			 "cosmo_cavitation_energy": 29.52, 
			 "cosmo_dispersion_energy": -20.7, 
			 "cosmo_repulsion_energy": 1.64, 
			 "cosmo_total_nonelectrostatic_energy": 10.46, 
			 "SMD_solvation_energy": 3.46 
		},
		"coords": [
			{
				"x": 2.0290725907,
				"y": 0.5986376595,
				"z": -0.9796478541,
				"element": "C" 
			},
			{
				"x": 0.7944060307,
				"y": -0.2798349205,
				"z": -0.7362931782,
				"element": "C" 
			},
			{
				"x": -0.2188892729,
				"y": -0.0511574481,
				"z": -1.7646061267,
				"element": "N" 
			},
			{
				"x": -0.3900647096,
				"y": 1.1725846886,
				"z": -2.3423235335,
				"element": "N" 
			},
			{
				"x": -1.4058224033,
				"y": 1.0014019174,
				"z": -3.1840194936,
				"element": "C" 
			},
			{
				"x": -1.9248466731,
				"y": -0.3103990999,
				"z": -3.1433832525,
				"element": "C" 
			},
			{
				"x": -1.1402790169,
				"y": -0.9597555332,
				"z": -2.2018457483,
				"element": "C" 
			},
			{
				"x": -1.1157780802,
				"y": -2.282243278,
				"z": -1.7404147005,
				"element": "N" 
			},
			{
				"x": 0.2286674983,
				"y": -0.0826822887,
				"z": 0.6668832209,
				"element": "C" 
			},
			{
				"x": -0.6199669546,
				"y": 0.9871759259,
				"z": 0.9726901264,
				"element": "C" 
			},
			{
				"x": -1.0791425304,
				"y": 1.1276326189,
				"z": 2.2818138451,
				"element": "C" 
			},
			{
				"x": -0.7601087566,
				"y": 0.2950785485,
				"z": 3.2831109141,
				"element": "N" 
			},
			{
				"x": 0.0510909906,
				"y": -0.7252421434,
				"z": 2.9820460409,
				"element": "C" 
			},
			{
				"x": 0.5650075686,
				"y": -0.9571327611,
				"z": 1.7046332831,
				"element": "C" 
			},
			{
				"x": 1.769564499,
				"y": 1.6561097459,
				"z": -0.9129554377,
				"element": "H" 
			},
			{
				"x": 2.790020541,
				"y": 0.3703234814,
				"z": -0.2282768126,
				"element": "H" 
			},
			{
				"x": 2.4410341977,
				"y": 0.4074425335,
				"z": -1.973826463,
				"element": "H" 
			},
			{
				"x": 1.0827287586,
				"y": -1.3320670314,
				"z": -0.8410612624,
				"element": "H" 
			},
			{
				"x": -1.7389010549,
				"y": 1.8332057305,
				"z": -3.7912266152,
				"element": "H" 
			},
			{
				"x": -2.7501251073,
				"y": -0.7256173899,
				"z": -3.7028048922,
				"element": "H" 
			},
			{
				"x": -1.8055386463,
				"y": -2.8524413458,
				"z": -2.2139195618,
				"element": "H" 
			},
			{
				"x": -1.2517997816,
				"y": -2.3568467666,
				"z": -0.7363043928,
				"element": "H" 
			},
			{
				"x": -0.9171279649,
				"y": 1.6886415846,
				"z": 0.1992960311,
				"element": "H" 
			},
			{
				"x": -1.7407665902,
				"y": 1.952820011,
				"z": 2.5401150675,
				"element": "H" 
			},
			{
				"x": 0.3016118461,
				"y": -1.3977679444,
				"z": 3.8011740032,
				"element": "H" 
			},
			{
				"x": 1.2187530216,
				"y": -1.8075664948,
				"z": 1.526546793,
				"element": "H" 
			}
		],
		 "valence_orbital": [ 
			{
				"type": "occ",
				"energy": -0.2775,
				"method": "rhf"
			},
			{
				"type": "occ",
				"energy": -0.26389,
				"method": "rhf"
			},
			{
				"type": "occ",
				"energy": -0.25524,
				"method": "rhf"
			},
			{
				"type": "occ",
				"energy": -0.24122,
				"method": "rhf"
			},
			{
				"type": "occ",
				"energy": -0.21241,
				"method": "rhf"
			},
			{
				"type": "unocc",
				"energy": -0.02733,
				"method": "rhf"
			},
			{
				"type": "unocc",
				"energy": -0.01379,
				"method": "rhf"
			},
			{
				"type": "unocc",
				"energy": 0.03088,
				"method": "rhf"
			},
			{
				"type": "unocc",
				"energy": 0.07033,
				"method": "rhf"
			},
			{
				"type": "unocc",
				"energy": 0.08122,
				"method": "rhf"
			}
		],
		"cosmo_sigma_profile": { 
			"-0.025": 0.0,
			"-0.024": 0.0,
			"-0.023": 0.0,
			"-0.022": 0.0,
			"-0.021": 0.0,
			"-0.02": 0.0,
			"-0.019": 0.0,
			"-0.018": 0.0,
			"-0.017": 0.0,
			"-0.016": 0.0,
			"-0.015": 0.0,
			"-0.014": 0.0,
			"-0.013": 0.734197958717,
			"-0.012": 2.12910597094,
			"-0.011": 2.26401404117,
			"-0.01": 2.96950853857,
			"-0.009": 2.69591076416,
			"-0.008": 2.78459025232,
			"-0.007": 8.13251366168,
			"-0.006": 14.0937614946,
			"-0.005": 15.8407973877,
			"-0.004": 16.9653203013,
			"-0.003": 15.316340323,
			"-0.002": 15.8128633274,
			"-0.001": 16.6211665026,
			"0.0": 18.1479007281,
			"0.001": 13.340010921,
			"0.002": 17.0241576775,
			"0.003": 14.6732829292,
			"0.004": 8.96345950981,
			"0.005": 9.98095677879,
			"0.006": 7.52580173418,
			"0.007": 5.49169937934,
			"0.008": 4.45612335382,
			"0.009": 3.47748867138,
			"0.01": 2.66613527533,
			"0.011": 2.62449383562,
			"0.012": 2.86025955065,
			"0.013": 2.03847446465,
			"0.014": 2.09371727182,
			"0.015": 1.66531564977,
			"0.016": 0.793979789289,
			"0.017": 0.449586917369,
			"0.018": 0.0024218492847,
			"0.019": 0.0,
			"0.02": 0.0,
			"0.021": 0.0,
			"0.022": 0.0,
			"0.023": 0.0,
			"0.024": 0.0,
			"0.025": 0.0
		}
	}
}
