{
	 "smiles": "NNC(=O)NC1CCCC1", 
	 "Tm": 398.15, 
	 "num_atms": 23, 
	 "gaussian": { 
		 "optdone": 1, 
		 "sigma_profile": "yes", 
		 "theory": "DFT", 
		 "functional": "B3LYP", 
		 "basiset": "6-31G**", 
		 "properties": { 
			 "R2extent": 2710.4059, 
			 "electric_dipole_moment_norm": 3.37725855688, 
			 "electric_quadrupole_moment_norm": 10.0200421875, 
			 "total_energy": -475.946056386, 
			 "HOMO_LUMO_gap": 0.29759, 
			 "cosmo_polarized_energy": -12.81, 
			 "cosmo_cavitation_energy": 24.7, 
			 "cosmo_dispersion_energy": -18.3, 
			 "cosmo_repulsion_energy": 1.52, 
			 "cosmo_total_nonelectrostatic_energy": 7.92, 
			 "SMD_solvation_energy": 4.38 
		},
		"coords": [
			{
				"x": -1.4771655352,
				"y": 4.863814893,
				"z": 1.1586507741,
				"element": "N" 
			},
			{
				"x": -0.7277678933,
				"y": 3.6615050603,
				"z": 1.0872727343,
				"element": "N" 
			},
			{
				"x": -0.6102610906,
				"y": 3.0506447018,
				"z": -0.1595109424,
				"element": "C" 
			},
			{
				"x": -1.2976986771,
				"y": 3.3946095595,
				"z": -1.1173782881,
				"element": "O" 
			},
			{
				"x": 0.3321541188,
				"y": 2.0501938528,
				"z": -0.2460330542,
				"element": "N" 
			},
			{
				"x": 0.9961402851,
				"y": 1.3575852929,
				"z": 0.860767808,
				"element": "C" 
			},
			{
				"x": 1.9685385981,
				"y": 0.3046247412,
				"z": 0.2957202285,
				"element": "C" 
			},
			{
				"x": 1.1017633195,
				"y": -0.9562808017,
				"z": 0.0256363623,
				"element": "C" 
			},
			{
				"x": -0.2026682424,
				"y": -0.7620379898,
				"z": 0.8551695469,
				"element": "C" 
			},
			{
				"x": 0.0362701399,
				"y": 0.4986674472,
				"z": 1.7127815547,
				"element": "C" 
			},
			{
				"x": -2.44266062,
				"y": 4.5973388648,
				"z": 1.3451270542,
				"element": "H" 
			},
			{
				"x": -1.4892246293,
				"y": 5.2576945612,
				"z": 0.2158644465,
				"element": "H" 
			},
			{
				"x": 0.1046815263,
				"y": 3.7008817574,
				"z": 1.6606076553,
				"element": "H" 
			},
			{
				"x": 0.3076960286,
				"y": 1.5910761232,
				"z": -1.1455269574,
				"element": "H" 
			},
			{
				"x": 1.5336501771,
				"y": 2.0970265567,
				"z": 1.4686339053,
				"element": "H" 
			},
			{
				"x": 2.7228338417,
				"y": 0.0882297044,
				"z": 1.0589422847,
				"element": "H" 
			},
			{
				"x": 2.5019730314,
				"y": 0.6682661993,
				"z": -0.5881033496,
				"element": "H" 
			},
			{
				"x": 0.8736037227,
				"y": -1.0614197435,
				"z": -1.040103689,
				"element": "H" 
			},
			{
				"x": 1.6385428797,
				"y": -1.8644362747,
				"z": 0.3149437234,
				"element": "H" 
			},
			{
				"x": -1.0551281352,
				"y": -0.6017512432,
				"z": 0.1876074741,
				"element": "H" 
			},
			{
				"x": -0.4418273061,
				"y": -1.6354248466,
				"z": 1.4683897051,
				"element": "H" 
			},
			{
				"x": 0.5431475801,
				"y": 0.2353467299,
				"z": 2.6499270052,
				"element": "H" 
			},
			{
				"x": -0.88129312,
				"y": 1.0327448539,
				"z": 1.9716140183,
				"element": "H" 
			}
		],
		 "valence_orbital": [ 
			{
				"type": "occ",
				"energy": -0.32494,
				"method": "rhf"
			},
			{
				"type": "occ",
				"energy": -0.27912,
				"method": "rhf"
			},
			{
				"type": "occ",
				"energy": -0.25757,
				"method": "rhf"
			},
			{
				"type": "occ",
				"energy": -0.24418,
				"method": "rhf"
			},
			{
				"type": "occ",
				"energy": -0.24086,
				"method": "rhf"
			},
			{
				"type": "unocc",
				"energy": 0.05673,
				"method": "rhf"
			},
			{
				"type": "unocc",
				"energy": 0.06064,
				"method": "rhf"
			},
			{
				"type": "unocc",
				"energy": 0.0765,
				"method": "rhf"
			},
			{
				"type": "unocc",
				"energy": 0.0997,
				"method": "rhf"
			},
			{
				"type": "unocc",
				"energy": 0.1039,
				"method": "rhf"
			}
		],
		"cosmo_sigma_profile": { 
			"-0.025": 0.0,
			"-0.024": 0.0,
			"-0.023": 0.0,
			"-0.022": 0.0,
			"-0.021": 0.0,
			"-0.02": 0.0,
			"-0.019": 0.0,
			"-0.018": 0.0,
			"-0.017": 0.0,
			"-0.016": 0.0,
			"-0.015": 0.0,
			"-0.014": 0.0,
			"-0.013": 0.634021295074,
			"-0.012": 1.90312016494,
			"-0.011": 2.78385135382,
			"-0.01": 3.44807952615,
			"-0.009": 3.8557568051,
			"-0.008": 4.23186236135,
			"-0.007": 4.10098945887,
			"-0.006": 5.99767735856,
			"-0.005": 3.99079723536,
			"-0.004": 8.29297842168,
			"-0.003": 20.2293893344,
			"-0.002": 20.8090006834,
			"-0.001": 22.9130225323,
			"0.0": 21.2209608115,
			"0.001": 18.1325751507,
			"0.002": 6.6223605581,
			"0.003": 4.29321416509,
			"0.004": 5.80112797707,
			"0.005": 4.16355148154,
			"0.006": 2.62335174201,
			"0.007": 2.57285599307,
			"0.008": 1.35261356852,
			"0.009": 1.6601749064,
			"0.01": 2.08512151525,
			"0.011": 1.94081472949,
			"0.012": 2.19007438516,
			"0.013": 2.36829331991,
			"0.014": 5.62184830094,
			"0.015": 3.79399213408,
			"0.016": 0.666778844003,
			"0.017": 0.77028154212,
			"0.018": 0.0026930050473,
			"0.019": 0.0,
			"0.02": 0.0,
			"0.021": 0.0,
			"0.022": 0.0,
			"0.023": 0.0,
			"0.024": 0.0,
			"0.025": 0.0
		}
	}
}
