{
	 "smiles": "OC(=O)CCOC1=CC(Cl)=CC=C1", 
	 "Tm": 359.15, 
	 "num_atms": 22, 
	 "gaussian": { 
		 "optdone": 1, 
		 "sigma_profile": "yes", 
		 "theory": "DFT", 
		 "functional": "B3LYP", 
		 "basiset": "6-31G**", 
		 "properties": { 
			 "R2extent": 4255.2138, 
			 "electric_dipole_moment_norm": 3.82168011482, 
			 "electric_quadrupole_moment_norm": 11.4559770627, 
			 "total_energy": -1034.250452, 
			 "HOMO_LUMO_gap": 0.21638, 
			 "cosmo_polarized_energy": -13.33, 
			 "cosmo_cavitation_energy": 28.55, 
			 "cosmo_dispersion_energy": -20.62, 
			 "cosmo_repulsion_energy": 1.67, 
			 "cosmo_total_nonelectrostatic_energy": 9.61, 
			 "SMD_solvation_energy": 6.02 
		},
		"coords": [
			{
				"x": -1.0229072689,
				"y": -2.1534633915,
				"z": 3.066921732,
				"element": "O" 
			},
			{
				"x": -0.1202445793,
				"y": -2.1642127708,
				"z": 2.0549969305,
				"element": "C" 
			},
			{
				"x": 0.1743894882,
				"y": -3.1690866855,
				"z": 1.4508929988,
				"element": "O" 
			},
			{
				"x": 0.4732296946,
				"y": -0.7892781161,
				"z": 1.8167936864,
				"element": "C" 
			},
			{
				"x": -0.582246196,
				"y": 0.3107071474,
				"z": 1.6607094979,
				"element": "C" 
			},
			{
				"x": -1.4672718374,
				"y": 0.0635324133,
				"z": 0.5707724756,
				"element": "O" 
			},
			{
				"x": -1.0822602363,
				"y": 0.3600522811,
				"z": -0.7070728944,
				"element": "C" 
			},
			{
				"x": -2.0244295704,
				"y": 0.0302943624,
				"z": -1.6930663987,
				"element": "C" 
			},
			{
				"x": -1.7401770526,
				"y": 0.3103069623,
				"z": -3.0227054009,
				"element": "C" 
			},
			{
				"x": -2.9288929824,
				"y": -0.1039512521,
				"z": -4.25133985,
				"element": "Cl" 
			},
			{
				"x": -0.5401589062,
				"y": 0.911367544,
				"z": -3.4103099833,
				"element": "C" 
			},
			{
				"x": 0.3829523846,
				"y": 1.2290931585,
				"z": -2.4178096105,
				"element": "C" 
			},
			{
				"x": 0.1294353636,
				"y": 0.9607861269,
				"z": -1.0697178796,
				"element": "C" 
			},
			{
				"x": -1.3519944799,
				"y": -3.0644956665,
				"z": 3.1462579292,
				"element": "H" 
			},
			{
				"x": 1.1033641742,
				"y": -0.5393650934,
				"z": 2.680126966,
				"element": "H" 
			},
			{
				"x": 1.1157686371,
				"y": -0.8624060814,
				"z": 0.9378765661,
				"element": "H" 
			},
			{
				"x": -0.1039571302,
				"y": 1.2922061949,
				"z": 1.561744173,
				"element": "H" 
			},
			{
				"x": -1.2257646463,
				"y": 0.3336948114,
				"z": 2.5420354122,
				"element": "H" 
			},
			{
				"x": -2.9574904073,
				"y": -0.434761361,
				"z": -1.3989544544,
				"element": "H" 
			},
			{
				"x": -0.3408329918,
				"y": 1.118031228,
				"z": -4.4549820981,
				"element": "H" 
			},
			{
				"x": 1.3243248088,
				"y": 1.6941173286,
				"z": -2.695407032,
				"element": "H" 
			},
			{
				"x": 0.8747637339,
				"y": 1.2206308596,
				"z": -0.3282627658,
				"element": "H" 
			}
		],
		 "valence_orbital": [ 
			{
				"type": "occ",
				"energy": -0.31451,
				"method": "rhf"
			},
			{
				"type": "occ",
				"energy": -0.30983,
				"method": "rhf"
			},
			{
				"type": "occ",
				"energy": -0.27979,
				"method": "rhf"
			},
			{
				"type": "occ",
				"energy": -0.25003,
				"method": "rhf"
			},
			{
				"type": "occ",
				"energy": -0.2308,
				"method": "rhf"
			},
			{
				"type": "unocc",
				"energy": -0.01442,
				"method": "rhf"
			},
			{
				"type": "unocc",
				"energy": -0.00047,
				"method": "rhf"
			},
			{
				"type": "unocc",
				"energy": 0.0012,
				"method": "rhf"
			},
			{
				"type": "unocc",
				"energy": 0.03077,
				"method": "rhf"
			},
			{
				"type": "unocc",
				"energy": 0.06757,
				"method": "rhf"
			}
		],
		"cosmo_sigma_profile": { 
			"-0.025": 0.0,
			"-0.024": 0.0,
			"-0.023": 0.0,
			"-0.022": 0.0,
			"-0.021": 0.0,
			"-0.02": 0.0,
			"-0.019": 0.0,
			"-0.018": 0.699974859121,
			"-0.017": 1.32338297106,
			"-0.016": 0.588481619165,
			"-0.015": 0.427306570316,
			"-0.014": 0.647877656278,
			"-0.013": 1.40330244407,
			"-0.012": 0.289553055468,
			"-0.011": 0.58608215262,
			"-0.01": 1.31201619612,
			"-0.009": 0.929499805639,
			"-0.008": 3.77309045582,
			"-0.007": 11.3496684728,
			"-0.006": 16.2289521732,
			"-0.005": 14.6408713731,
			"-0.004": 13.8076487145,
			"-0.003": 10.9987531453,
			"-0.002": 11.5583782102,
			"-0.001": 10.3739324811,
			"0.0": 11.4430711726,
			"0.001": 13.9614592439,
			"0.002": 20.8438588857,
			"0.003": 22.294374704,
			"0.004": 21.1044330858,
			"0.005": 13.7326644537,
			"0.006": 3.36108081423,
			"0.007": 3.72164906303,
			"0.008": 3.63320752187,
			"0.009": 3.10056387336,
			"0.01": 2.31333954892,
			"0.011": 3.95801412308,
			"0.012": 4.44358104394,
			"0.013": 0.664165415117,
			"0.014": 0.0,
			"0.015": 0.0,
			"0.016": 0.0,
			"0.017": 0.0,
			"0.018": 0.0,
			"0.019": 0.0,
			"0.02": 0.0,
			"0.021": 0.0,
			"0.022": 0.0,
			"0.023": 0.0,
			"0.024": 0.0,
			"0.025": 0.0
		}
	}
}
