{
	 "smiles": "CC(C)CC(C)OC(C)=O", 
	 "Tm": 209.15, 
	 "num_atms": 26, 
	 "gaussian": { 
		 "optdone": 1, 
		 "sigma_profile": "yes", 
		 "theory": "DFT", 
		 "functional": "B3LYP", 
		 "basiset": "6-31G**", 
		 "properties": { 
			 "R2extent": 2226.8405, 
			 "electric_dipole_moment_norm": 1.88030467212, 
			 "electric_quadrupole_moment_norm": 8.76939706422, 
			 "total_energy": -464.980502031, 
			 "HOMO_LUMO_gap": 0.28241, 
			 "cosmo_polarized_energy": -6.25, 
			 "cosmo_cavitation_energy": 28.04, 
			 "cosmo_dispersion_energy": -19.22, 
			 "cosmo_repulsion_energy": 1.6, 
			 "cosmo_total_nonelectrostatic_energy": 10.42, 
			 "SMD_solvation_energy": 6.14 
		},
		"coords": [
			{
				"x": -0.1600725967,
				"y": -1.1001137894,
				"z": -1.7363379027,
				"element": "C" 
			},
			{
				"x": 0.4916509041,
				"y": -1.3549311956,
				"z": -0.3684242673,
				"element": "C" 
			},
			{
				"x": 1.4814033785,
				"y": -2.5265192221,
				"z": -0.4506526493,
				"element": "C" 
			},
			{
				"x": -0.5463941985,
				"y": -1.6153267928,
				"z": 0.7410369429,
				"element": "C" 
			},
			{
				"x": -1.4923229232,
				"y": -0.4568268013,
				"z": 1.0531884189,
				"element": "C" 
			},
			{
				"x": -2.5075063536,
				"y": -0.7873238964,
				"z": 2.1432200287,
				"element": "C" 
			},
			{
				"x": -0.6561416639,
				"y": 0.6518550938,
				"z": 1.5012838419,
				"element": "O" 
			},
			{
				"x": -1.1181099337,
				"y": 1.9045316557,
				"z": 1.2842768419,
				"element": "C" 
			},
			{
				"x": -0.1389811121,
				"y": 2.9317169162,
				"z": 1.8052691291,
				"element": "C" 
			},
			{
				"x": -2.1735291881,
				"y": 2.1582117204,
				"z": 0.7435535479,
				"element": "O" 
			},
			{
				"x": -0.8123433756,
				"y": -0.2212664282,
				"z": -1.7291642155,
				"element": "H" 
			},
			{
				"x": 0.6025419425,
				"y": -0.933976503,
				"z": -2.5048114572,
				"element": "H" 
			},
			{
				"x": -0.7626896543,
				"y": -1.9617629037,
				"z": -2.0502506109,
				"element": "H" 
			},
			{
				"x": 1.0542542347,
				"y": -0.4555918695,
				"z": -0.0850184255,
				"element": "H" 
			},
			{
				"x": 2.2523051043,
				"y": -2.3408131932,
				"z": -1.2062243551,
				"element": "H" 
			},
			{
				"x": 1.9848947048,
				"y": -2.6940818342,
				"z": 0.5078190102,
				"element": "H" 
			},
			{
				"x": 0.9681255397,
				"y": -3.4569259434,
				"z": -0.7239825605,
				"element": "H" 
			},
			{
				"x": -0.0238613999,
				"y": -1.8889261253,
				"z": 1.6672899145,
				"element": "H" 
			},
			{
				"x": -1.1626081505,
				"y": -2.4823019148,
				"z": 0.4642656235,
				"element": "H" 
			},
			{
				"x": -2.0216079391,
				"y": -0.1238723667,
				"z": 0.1568102619,
				"element": "H" 
			},
			{
				"x": -3.1557876202,
				"y": 0.0714923744,
				"z": 2.3334220955,
				"element": "H" 
			},
			{
				"x": -2.0010802553,
				"y": -1.0634179412,
				"z": 3.0738749769,
				"element": "H" 
			},
			{
				"x": -3.1371658817,
				"y": -1.6270932708,
				"z": 1.8316587364,
				"element": "H" 
			},
			{
				"x": -0.5271913399,
				"y": 3.9319132959,
				"z": 1.6155752518,
				"element": "H" 
			},
			{
				"x": 0.0172601899,
				"y": 2.7893533519,
				"z": 2.8787232478,
				"element": "H" 
			},
			{
				"x": 0.8319575879,
				"y": 2.8083975832,
				"z": 1.3164985742,
				"element": "H" 
			}
		],
		 "valence_orbital": [ 
			{
				"type": "occ",
				"energy": -0.32375,
				"method": "rhf"
			},
			{
				"type": "occ",
				"energy": -0.32103,
				"method": "rhf"
			},
			{
				"type": "occ",
				"energy": -0.31581,
				"method": "rhf"
			},
			{
				"type": "occ",
				"energy": -0.2903,
				"method": "rhf"
			},
			{
				"type": "occ",
				"energy": -0.26548,
				"method": "rhf"
			},
			{
				"type": "unocc",
				"energy": 0.01693,
				"method": "rhf"
			},
			{
				"type": "unocc",
				"energy": 0.08272,
				"method": "rhf"
			},
			{
				"type": "unocc",
				"energy": 0.10889,
				"method": "rhf"
			},
			{
				"type": "unocc",
				"energy": 0.11212,
				"method": "rhf"
			},
			{
				"type": "unocc",
				"energy": 0.11516,
				"method": "rhf"
			}
		],
		"cosmo_sigma_profile": { 
			"-0.025": 0.0,
			"-0.024": 0.0,
			"-0.023": 0.0,
			"-0.022": 0.0,
			"-0.021": 0.0,
			"-0.02": 0.0,
			"-0.019": 0.0,
			"-0.018": 0.0,
			"-0.017": 0.0,
			"-0.016": 0.0,
			"-0.015": 0.0,
			"-0.014": 0.0,
			"-0.013": 0.0,
			"-0.012": 0.0,
			"-0.011": 0.0,
			"-0.01": 0.0,
			"-0.009": 0.0,
			"-0.008": 0.0,
			"-0.007": 0.479164893469,
			"-0.006": 3.67505230723,
			"-0.005": 6.03478449387,
			"-0.004": 11.5807218681,
			"-0.003": 24.6977898538,
			"-0.002": 37.9941032211,
			"-0.001": 32.6385810674,
			"0.0": 31.78458908,
			"0.001": 24.7570318464,
			"0.002": 13.3315404377,
			"0.003": 3.53578305384,
			"0.004": 3.97131254186,
			"0.005": 2.35710497019,
			"0.006": 2.68512633956,
			"0.007": 2.67671177837,
			"0.008": 1.93840636937,
			"0.009": 2.13050691948,
			"0.01": 1.73877273068,
			"0.011": 2.0574124823,
			"0.012": 4.69651195033,
			"0.013": 2.13037340116,
			"0.014": 0.152316254893,
			"0.015": 0.0,
			"0.016": 0.0,
			"0.017": 0.0,
			"0.018": 0.0,
			"0.019": 0.0,
			"0.02": 0.0,
			"0.021": 0.0,
			"0.022": 0.0,
			"0.023": 0.0,
			"0.024": 0.0,
			"0.025": 0.0
		}
	}
}
