{
	 "smiles": "CCC1=CC(C#N)=C(N)S1", 
	 "Tm": 335.15, 
	 "num_atms": 18, 
	 "gaussian": { 
		 "optdone": 1, 
		 "sigma_profile": "yes", 
		 "theory": "DFT", 
		 "functional": "B3LYP", 
		 "basiset": "6-31G**", 
		 "properties": { 
			 "R2extent": 3008.3548, 
			 "electric_dipole_moment_norm": 4.30082711347, 
			 "electric_quadrupole_moment_norm": 27.7000162321, 
			 "total_energy": -779.236655808, 
			 "HOMO_LUMO_gap": 0.18483, 
			 "cosmo_polarized_energy": -12.55, 
			 "cosmo_cavitation_energy": 24.39, 
			 "cosmo_dispersion_energy": -17.75, 
			 "cosmo_repulsion_energy": 1.42, 
			 "cosmo_total_nonelectrostatic_energy": 8.06, 
			 "SMD_solvation_energy": 5.18 
		},
		"coords": [
			{
				"x": -0.479258359,
				"y": -2.263532886,
				"z": -0.6258847191,
				"element": "C" 
			},
			{
				"x": 0.0698192893,
				"y": -1.0031259662,
				"z": 0.0655273328,
				"element": "C" 
			},
			{
				"x": -0.611891169,
				"y": 0.2724641124,
				"z": -0.3398251556,
				"element": "C" 
			},
			{
				"x": -0.1166538551,
				"y": 1.322805396,
				"z": -1.0452911444,
				"element": "C" 
			},
			{
				"x": -1.0700151975,
				"y": 2.3776870333,
				"z": -1.2841580831,
				"element": "C" 
			},
			{
				"x": -0.8258961354,
				"y": 3.5701205296,
				"z": -2.0135490389,
				"element": "C" 
			},
			{
				"x": -0.6789022768,
				"y": 4.5613270706,
				"z": -2.6106056687,
				"element": "N" 
			},
			{
				"x": -2.3145487268,
				"y": 2.1086580463,
				"z": -0.7330496596,
				"element": "C" 
			},
			{
				"x": -3.4179829288,
				"y": 2.9280749787,
				"z": -0.7105855922,
				"element": "N" 
			},
			{
				"x": -2.3087601154,
				"y": 0.5649521759,
				"z": 0.0831012934,
				"element": "S" 
			},
			{
				"x": 0.0740151912,
				"y": -3.1513336457,
				"z": -0.3034146095,
				"element": "H" 
			},
			{
				"x": -1.5355186264,
				"y": -2.4223503987,
				"z": -0.3854850033,
				"element": "H" 
			},
			{
				"x": -0.3931492149,
				"y": -2.1805827077,
				"z": -1.7134335309,
				"element": "H" 
			},
			{
				"x": 0.0117062913,
				"y": -1.1322310393,
				"z": 1.1544638221,
				"element": "H" 
			},
			{
				"x": 1.1340052845,
				"y": -0.8887425747,
				"z": -0.1707685672,
				"element": "H" 
			},
			{
				"x": 0.9038095665,
				"y": 1.3646231213,
				"z": -1.4086944758,
				"element": "H" 
			},
			{
				"x": -3.3663686336,
				"y": 3.7242382022,
				"z": -1.3341261902,
				"element": "H" 
			},
			{
				"x": -4.3242103839,
				"y": 2.4821485521,
				"z": -0.6994210097,
				"element": "H" 
			}
		],
		 "valence_orbital": [ 
			{
				"type": "occ",
				"energy": -0.3441,
				"method": "rhf"
			},
			{
				"type": "occ",
				"energy": -0.32258,
				"method": "rhf"
			},
			{
				"type": "occ",
				"energy": -0.31811,
				"method": "rhf"
			},
			{
				"type": "occ",
				"energy": -0.25891,
				"method": "rhf"
			},
			{
				"type": "occ",
				"energy": -0.20839,
				"method": "rhf"
			},
			{
				"type": "unocc",
				"energy": -0.02356,
				"method": "rhf"
			},
			{
				"type": "unocc",
				"energy": -0.00345,
				"method": "rhf"
			},
			{
				"type": "unocc",
				"energy": 0.01716,
				"method": "rhf"
			},
			{
				"type": "unocc",
				"energy": 0.0452,
				"method": "rhf"
			},
			{
				"type": "unocc",
				"energy": 0.06002,
				"method": "rhf"
			}
		],
		"cosmo_sigma_profile": { 
			"-0.025": 0.0,
			"-0.024": 0.0,
			"-0.023": 0.0,
			"-0.022": 0.0,
			"-0.021": 0.0,
			"-0.02": 0.0,
			"-0.019": 0.0,
			"-0.018": 0.0,
			"-0.017": 0.0,
			"-0.016": 0.0,
			"-0.015": 0.772560125366,
			"-0.014": 1.81237751272,
			"-0.013": 2.72495421068,
			"-0.012": 2.98531684912,
			"-0.011": 1.81500518707,
			"-0.01": 2.57395180665,
			"-0.009": 2.11270477699,
			"-0.008": 2.39919254278,
			"-0.007": 3.98190876019,
			"-0.006": 4.15208502057,
			"-0.005": 6.62332439416,
			"-0.004": 11.6263321011,
			"-0.003": 15.2868872987,
			"-0.002": 15.2216663856,
			"-0.001": 18.3744956793,
			"0.0": 15.7401492878,
			"0.001": 17.3329722318,
			"0.002": 15.9194825876,
			"0.003": 12.5774090585,
			"0.004": 10.5523194217,
			"0.005": 5.26932781857,
			"0.006": 2.80937671262,
			"0.007": 3.40071891628,
			"0.008": 2.16699499592,
			"0.009": 4.12625362938,
			"0.01": 3.95300513278,
			"0.011": 3.49488214228,
			"0.012": 2.87698661032,
			"0.013": 2.58876342728,
			"0.014": 1.18571559732,
			"0.015": 0.0,
			"0.016": 0.0,
			"0.017": 0.0,
			"0.018": 0.0,
			"0.019": 0.0,
			"0.02": 0.0,
			"0.021": 0.0,
			"0.022": 0.0,
			"0.023": 0.0,
			"0.024": 0.0,
			"0.025": 0.0
		}
	}
}
