{
	 "smiles": "ClC1=CC=C(C=C1)C(=O)C1=CN=CC=C1", 
	 "Tm": 361.15, 
	 "num_atms": 23, 
	 "gaussian": { 
		 "optdone": 1, 
		 "sigma_profile": "yes", 
		 "theory": "DFT", 
		 "functional": "B3LYP", 
		 "basiset": "6-31G**", 
		 "properties": { 
			 "R2extent": 5647.5999, 
			 "electric_dipole_moment_norm": 1.51553671681, 
			 "electric_quadrupole_moment_norm": 10.7886298606, 
			 "total_energy": -1052.25992804, 
			 "HOMO_LUMO_gap": 0.17503, 
			 "cosmo_polarized_energy": -9.94, 
			 "cosmo_cavitation_energy": 29.83, 
			 "cosmo_dispersion_energy": -21.9, 
			 "cosmo_repulsion_energy": 1.69, 
			 "cosmo_total_nonelectrostatic_energy": 9.63, 
			 "SMD_solvation_energy": 3.74 
		},
		"coords": [
			{
				"x": -0.3117218872,
				"y": 2.6619528333,
				"z": 4.7934581634,
				"element": "Cl" 
			},
			{
				"x": 0.2088604055,
				"y": 1.9660067097,
				"z": 3.2703814439,
				"element": "C" 
			},
			{
				"x": -0.5352929874,
				"y": 2.2106110853,
				"z": 2.1167538007,
				"element": "C" 
			},
			{
				"x": -0.1092907426,
				"y": 1.6648441585,
				"z": 0.9065396721,
				"element": "C" 
			},
			{
				"x": 1.045906506,
				"y": 0.8706349077,
				"z": 0.8450552628,
				"element": "C" 
			},
			{
				"x": 1.7607264829,
				"y": 0.618856025,
				"z": 2.0276489714,
				"element": "C" 
			},
			{
				"x": 1.3578326126,
				"y": 1.1710431545,
				"z": 3.2376850363,
				"element": "C" 
			},
			{
				"x": 1.5184201509,
				"y": 0.1992497203,
				"z": -0.4076207396,
				"element": "C" 
			},
			{
				"x": 2.1806117724,
				"y": -0.8306594872,
				"z": -0.3379393684,
				"element": "O" 
			},
			{
				"x": 1.1930263951,
				"y": 0.7718732625,
				"z": -1.7549502346,
				"element": "C" 
			},
			{
				"x": 1.0301323643,
				"y": 2.1433563781,
				"z": -2.0040699871,
				"element": "C" 
			},
			{
				"x": 0.8059663622,
				"y": 2.6603134123,
				"z": -3.2179361947,
				"element": "N" 
			},
			{
				"x": 0.7310041064,
				"y": 1.8060975278,
				"z": -4.245094999,
				"element": "C" 
			},
			{
				"x": 0.9001312657,
				"y": 0.423771607,
				"z": -4.1177931534,
				"element": "C" 
			},
			{
				"x": 1.1465886522,
				"y": -0.0979626502,
				"z": -2.8544917702,
				"element": "C" 
			},
			{
				"x": -1.4340603598,
				"y": 2.8148187167,
				"z": 2.1668488159,
				"element": "H" 
			},
			{
				"x": -0.7003786384,
				"y": 1.8405009239,
				"z": 0.0144008134,
				"element": "H" 
			},
			{
				"x": 2.6365242614,
				"y": -0.0190929537,
				"z": 1.9764360888,
				"element": "H" 
			},
			{
				"x": 1.9177614109,
				"y": 0.9886024066,
				"z": 4.1480968571,
				"element": "H" 
			},
			{
				"x": 1.1109016243,
				"y": 2.8621992123,
				"z": -1.1921761548,
				"element": "H" 
			},
			{
				"x": 0.5321614149,
				"y": 2.2476897094,
				"z": -5.2201137643,
				"element": "H" 
			},
			{
				"x": 0.8435345063,
				"y": -0.2180767103,
				"z": -4.9912149245,
				"element": "H" 
			},
			{
				"x": 1.3071543213,
				"y": -1.1588299493,
				"z": -2.691803635,
				"element": "H" 
			}
		],
		 "valence_orbital": [ 
			{
				"type": "occ",
				"energy": -0.28049,
				"method": "rhf"
			},
			{
				"type": "occ",
				"energy": -0.27724,
				"method": "rhf"
			},
			{
				"type": "occ",
				"energy": -0.27267,
				"method": "rhf"
			},
			{
				"type": "occ",
				"energy": -0.26062,
				"method": "rhf"
			},
			{
				"type": "occ",
				"energy": -0.25461,
				"method": "rhf"
			},
			{
				"type": "unocc",
				"energy": -0.07958,
				"method": "rhf"
			},
			{
				"type": "unocc",
				"energy": -0.03568,
				"method": "rhf"
			},
			{
				"type": "unocc",
				"energy": -0.03144,
				"method": "rhf"
			},
			{
				"type": "unocc",
				"energy": -0.02385,
				"method": "rhf"
			},
			{
				"type": "unocc",
				"energy": 0.02126,
				"method": "rhf"
			}
		],
		"cosmo_sigma_profile": { 
			"-0.025": 0.0,
			"-0.024": 0.0,
			"-0.023": 0.0,
			"-0.022": 0.0,
			"-0.021": 0.0,
			"-0.02": 0.0,
			"-0.019": 0.0,
			"-0.018": 0.0,
			"-0.017": 0.0,
			"-0.016": 0.0,
			"-0.015": 0.0,
			"-0.014": 0.0,
			"-0.013": 0.0,
			"-0.012": 0.0,
			"-0.011": 0.0,
			"-0.01": 0.0,
			"-0.009": 0.0,
			"-0.008": 3.13373953837,
			"-0.007": 13.1579599368,
			"-0.006": 16.8363710407,
			"-0.005": 15.774295832,
			"-0.004": 15.2528622144,
			"-0.003": 14.8541873149,
			"-0.002": 14.4878277745,
			"-0.001": 16.8091102646,
			"0.0": 22.3806201006,
			"0.001": 28.480137949,
			"0.002": 25.7099187381,
			"0.003": 12.1249448861,
			"0.004": 14.2131185945,
			"0.005": 4.70759526546,
			"0.006": 2.5796976126,
			"0.007": 3.10850425595,
			"0.008": 2.69507852579,
			"0.009": 3.61270820838,
			"0.01": 2.33339543457,
			"0.011": 4.32645508522,
			"0.012": 3.58332977583,
			"0.013": 0.675727019762,
			"0.014": 0.973665073359,
			"0.015": 0.846585020702,
			"0.016": 0.576407930409,
			"0.017": 0.0203031694303,
			"0.018": 0.0,
			"0.019": 0.0,
			"0.02": 0.0,
			"0.021": 0.0,
			"0.022": 0.0,
			"0.023": 0.0,
			"0.024": 0.0,
			"0.025": 0.0
		}
	}
}
