{
	 "smiles": "FC1=CC=C(C=C1)C(=O)NC1=C2CCCNC2=CC=C1", 
	 "Tm": 430.15, 
	 "num_atms": 35, 
	 "gaussian": { 
		 "optdone": 1, 
		 "sigma_profile": "yes", 
		 "theory": "DFT", 
		 "functional": "B3LYP", 
		 "basiset": "6-31G**", 
		 "properties": { 
			 "R2extent": 7993.246, 
			 "electric_dipole_moment_norm": 4.45764009875, 
			 "electric_quadrupole_moment_norm": 13.5602126104, 
			 "total_energy": -903.334499884, 
			 "HOMO_LUMO_gap": 0.14943, 
			 "cosmo_polarized_energy": -15.7, 
			 "cosmo_cavitation_energy": 38.05, 
			 "cosmo_dispersion_energy": -27.83, 
			 "cosmo_repulsion_energy": 2.07, 
			 "cosmo_total_nonelectrostatic_energy": 12.29, 
			 "SMD_solvation_energy": 5.59 
		},
		"coords": [
			{
				"x": -3.0439597487,
				"y": 1.2965685968,
				"z": -4.956637028,
				"element": "F" 
			},
			{
				"x": -2.506410589,
				"y": 1.2293684033,
				"z": -3.7233473025,
				"element": "C" 
			},
			{
				"x": -1.1221747572,
				"y": 1.2330167513,
				"z": -3.5923508338,
				"element": "C" 
			},
			{
				"x": -0.5723876449,
				"y": 1.1585840546,
				"z": -2.3132790445,
				"element": "C" 
			},
			{
				"x": -1.3959326966,
				"y": 1.0795943648,
				"z": -1.1801490243,
				"element": "C" 
			},
			{
				"x": -2.7882780039,
				"y": 1.1030935074,
				"z": -1.3501046219,
				"element": "C" 
			},
			{
				"x": -3.3526108089,
				"y": 1.1691124679,
				"z": -2.6198253536,
				"element": "C" 
			},
			{
				"x": -0.8817206286,
				"y": 1.015143558,
				"z": 0.2335519923,
				"element": "C" 
			},
			{
				"x": -1.5757781214,
				"y": 1.3937971856,
				"z": 1.1711334757,
				"element": "O" 
			},
			{
				"x": 0.3870932787,
				"y": 0.4912381911,
				"z": 0.3618598878,
				"element": "N" 
			},
			{
				"x": 1.1689549707,
				"y": 0.3090759602,
				"z": 1.5270873297,
				"element": "C" 
			},
			{
				"x": 2.4401644325,
				"y": -0.2887349958,
				"z": 1.3585036383,
				"element": "C" 
			},
			{
				"x": 2.9475166783,
				"y": -0.6925940175,
				"z": -0.0174317361,
				"element": "C" 
			},
			{
				"x": 4.4488415995,
				"y": -1.0219355493,
				"z": -0.0295950152,
				"element": "C" 
			},
			{
				"x": 4.8211699225,
				"y": -1.8585766352,
				"z": 1.1922912306,
				"element": "C" 
			},
			{
				"x": 4.5046651907,
				"y": -1.0903784508,
				"z": 2.3860088944,
				"element": "N" 
			},
			{
				"x": 3.2359354211,
				"y": -0.514081805,
				"z": 2.5010600864,
				"element": "C" 
			},
			{
				"x": 2.7731783708,
				"y": -0.1211497528,
				"z": 3.7689076649,
				"element": "C" 
			},
			{
				"x": 1.5292330178,
				"y": 0.4798360417,
				"z": 3.8990707547,
				"element": "C" 
			},
			{
				"x": 0.7101186233,
				"y": 0.6994390939,
				"z": 2.7925328575,
				"element": "C" 
			},
			{
				"x": -0.49981908,
				"y": 1.3064483144,
				"z": -4.4773876574,
				"element": "H" 
			},
			{
				"x": 0.5081234935,
				"y": 1.2043498231,
				"z": -2.210809372,
				"element": "H" 
			},
			{
				"x": -3.4131975945,
				"y": 1.0720641806,
				"z": -0.464397103,
				"element": "H" 
			},
			{
				"x": -4.4270105083,
				"y": 1.178167174,
				"z": -2.7677744761,
				"element": "H" 
			},
			{
				"x": 0.7691345713,
				"y": 0.0893735213,
				"z": -0.4788081114,
				"element": "H" 
			},
			{
				"x": 2.7713749118,
				"y": 0.1151395,
				"z": -0.7421824907,
				"element": "H" 
			},
			{
				"x": 2.3848511702,
				"y": -1.5643815264,
				"z": -0.3869648352,
				"element": "H" 
			},
			{
				"x": 5.0322312741,
				"y": -0.0950453021,
				"z": -0.0033472185,
				"element": "H" 
			},
			{
				"x": 4.7112688449,
				"y": -1.5529183729,
				"z": -0.9504528518,
				"element": "H" 
			},
			{
				"x": 5.8933526547,
				"y": -2.0805476784,
				"z": 1.1961425744,
				"element": "H" 
			},
			{
				"x": 4.2835585172,
				"y": -2.8232711237,
				"z": 1.1571719321,
				"element": "H" 
			},
			{
				"x": 4.8480179093,
				"y": -1.4872190539,
				"z": 3.2498528609,
				"element": "H" 
			},
			{
				"x": 3.4006873951,
				"y": -0.2910704664,
				"z": 4.6403850542,
				"element": "H" 
			},
			{
				"x": 1.1793736772,
				"y": 0.7782381688,
				"z": 4.8833374403,
				"element": "H" 
			},
			{
				"x": -0.2651657434,
				"y": 1.1506558712,
				"z": 2.8907464017,
				"element": "H" 
			}
		],
		 "valence_orbital": [ 
			{
				"type": "occ",
				"energy": -0.27105,
				"method": "rhf"
			},
			{
				"type": "occ",
				"energy": -0.25975,
				"method": "rhf"
			},
			{
				"type": "occ",
				"energy": -0.24762,
				"method": "rhf"
			},
			{
				"type": "occ",
				"energy": -0.21513,
				"method": "rhf"
			},
			{
				"type": "occ",
				"energy": -0.19012,
				"method": "rhf"
			},
			{
				"type": "unocc",
				"energy": -0.04069,
				"method": "rhf"
			},
			{
				"type": "unocc",
				"energy": -0.02151,
				"method": "rhf"
			},
			{
				"type": "unocc",
				"energy": 0.01033,
				"method": "rhf"
			},
			{
				"type": "unocc",
				"energy": 0.0226,
				"method": "rhf"
			},
			{
				"type": "unocc",
				"energy": 0.05916,
				"method": "rhf"
			}
		],
		"cosmo_sigma_profile": { 
			"-0.025": 0.0,
			"-0.024": 0.0,
			"-0.023": 0.0,
			"-0.022": 0.0,
			"-0.021": 0.0,
			"-0.02": 0.0,
			"-0.019": 0.0,
			"-0.018": 0.0,
			"-0.017": 0.0,
			"-0.016": 0.0,
			"-0.015": 0.0,
			"-0.014": 0.0,
			"-0.013": 0.0368992032241,
			"-0.012": 1.94235407423,
			"-0.011": 3.23989831159,
			"-0.01": 2.91203876479,
			"-0.009": 3.79961264481,
			"-0.008": 4.8216649135,
			"-0.007": 8.02543928113,
			"-0.006": 11.4150985269,
			"-0.005": 14.2542302596,
			"-0.004": 16.6482436865,
			"-0.003": 25.7024934007,
			"-0.002": 29.0193225259,
			"-0.001": 25.5816632143,
			"0.0": 23.7748898178,
			"0.001": 19.8734516721,
			"0.002": 20.7323401468,
			"0.003": 22.5001523583,
			"0.004": 18.2434814645,
			"0.005": 12.7058285095,
			"0.006": 11.4662485164,
			"0.007": 9.12211487365,
			"0.008": 3.87768582963,
			"0.009": 2.44765576257,
			"0.01": 2.05398753264,
			"0.011": 2.94317486799,
			"0.012": 3.36825993852,
			"0.013": 2.48151992828,
			"0.014": 0.207438748321,
			"0.015": 0.0,
			"0.016": 0.0,
			"0.017": 0.0,
			"0.018": 0.0,
			"0.019": 0.0,
			"0.02": 0.0,
			"0.021": 0.0,
			"0.022": 0.0,
			"0.023": 0.0,
			"0.024": 0.0,
			"0.025": 0.0
		}
	}
}
