{
	 "smiles": "CCOC(=O)C1=CC2=CC3=C(C=CC=C3)C=C2C=C(C(=O)OCC)C1=O", 
	 "Tm": 434.15, 
	 "num_atms": 44, 
	 "gaussian": { 
		 "optdone": 1, 
		 "sigma_profile": "yes", 
		 "theory": "DFT", 
		 "functional": "B3LYP", 
		 "basiset": "6-31G**", 
		 "properties": { 
			 "R2extent": 12324.8049, 
			 "electric_dipole_moment_norm": 3.51202265084, 
			 "electric_quadrupole_moment_norm": 34.3322241771, 
			 "total_energy": -1187.21689789, 
			 "HOMO_LUMO_gap": 0.1431, 
			 "cosmo_polarized_energy": -19.44, 
			 "cosmo_cavitation_energy": 49.19, 
			 "cosmo_dispersion_energy": -33.67, 
			 "cosmo_repulsion_energy": 2.54, 
			 "cosmo_total_nonelectrostatic_energy": 18.05, 
			 "SMD_solvation_energy": 10.45 
		},
		"coords": [
			{
				"x": -3.9567538971,
				"y": -4.3265463833,
				"z": -2.6686326273,
				"element": "C" 
			},
			{
				"x": -2.4429350977,
				"y": -4.3803907679,
				"z": -2.5943006046,
				"element": "C" 
			},
			{
				"x": -1.9881312762,
				"y": -3.0825821466,
				"z": -2.1495858416,
				"element": "O" 
			},
			{
				"x": -0.659296894,
				"y": -2.9239851457,
				"z": -2.0626404934,
				"element": "C" 
			},
			{
				"x": 0.1419020646,
				"y": -3.8137785928,
				"z": -2.283887998,
				"element": "O" 
			},
			{
				"x": -0.2765825151,
				"y": -1.5491982914,
				"z": -1.5844859951,
				"element": "C" 
			},
			{
				"x": 0.9897343476,
				"y": -1.4326615129,
				"z": -1.1138711442,
				"element": "C" 
			},
			{
				"x": 1.7173597136,
				"y": -0.3056397561,
				"z": -0.5632746494,
				"element": "C" 
			},
			{
				"x": 3.0926604247,
				"y": -0.4729930897,
				"z": -0.4223860154,
				"element": "C" 
			},
			{
				"x": 3.9379517861,
				"y": 0.5223237403,
				"z": 0.112397918,
				"element": "C" 
			},
			{
				"x": 3.347623949,
				"y": 1.7475558371,
				"z": 0.5641101784,
				"element": "C" 
			},
			{
				"x": 4.1854967897,
				"y": 2.755743309,
				"z": 1.1155381601,
				"element": "C" 
			},
			{
				"x": 5.5436748059,
				"y": 2.5588850282,
				"z": 1.2119079534,
				"element": "C" 
			},
			{
				"x": 6.1283639754,
				"y": 1.3453317508,
				"z": 0.7645554663,
				"element": "C" 
			},
			{
				"x": 5.3447981145,
				"y": 0.3496349706,
				"z": 0.2285400321,
				"element": "C" 
			},
			{
				"x": 1.9492279011,
				"y": 1.8999120107,
				"z": 0.4527736068,
				"element": "C" 
			},
			{
				"x": 1.1220676811,
				"y": 0.9297224009,
				"z": -0.1075167455,
				"element": "C" 
			},
			{
				"x": -0.2956241146,
				"y": 1.2338732933,
				"z": -0.1287834869,
				"element": "C" 
			},
			{
				"x": -1.33696961,
				"y": 0.6492699451,
				"z": -0.7712682171,
				"element": "C" 
			},
			{
				"x": -2.6827169692,
				"y": 1.2693249404,
				"z": -0.5085993907,
				"element": "C" 
			},
			{
				"x": -2.8346942539,
				"y": 2.3663860994,
				"z": -0.00171953,
				"element": "O" 
			},
			{
				"x": -3.69183987,
				"y": 0.4464322521,
				"z": -0.8344273158,
				"element": "O" 
			},
			{
				"x": -5.0327481423,
				"y": 0.9436107946,
				"z": -0.6139973737,
				"element": "C" 
			},
			{
				"x": -5.4924769989,
				"y": 0.6827849086,
				"z": 0.8127908721,
				"element": "C" 
			},
			{
				"x": -1.2302771466,
				"y": -0.4246833782,
				"z": -1.7988974453,
				"element": "C" 
			},
			{
				"x": -1.9007812136,
				"y": -0.3706998973,
				"z": -2.8190169805,
				"element": "O" 
			},
			{
				"x": -4.2825443484,
				"y": -3.5523397426,
				"z": -3.3685205409,
				"element": "H" 
			},
			{
				"x": -4.3887932915,
				"y": -4.1076765072,
				"z": -1.6879109696,
				"element": "H" 
			},
			{
				"x": -4.3458065961,
				"y": -5.2910510484,
				"z": -3.0098643718,
				"element": "H" 
			},
			{
				"x": -2.0887107661,
				"y": -5.1399327126,
				"z": -1.8895648194,
				"element": "H" 
			},
			{
				"x": -1.9894208035,
				"y": -4.5968754042,
				"z": -3.5664846736,
				"element": "H" 
			},
			{
				"x": 1.5757937371,
				"y": -2.3458571586,
				"z": -1.2008953041,
				"element": "H" 
			},
			{
				"x": 3.5384771537,
				"y": -1.4105602027,
				"z": -0.744394217,
				"element": "H" 
			},
			{
				"x": 3.7352403447,
				"y": 3.6835757557,
				"z": 1.4577651263,
				"element": "H" 
			},
			{
				"x": 6.1771032595,
				"y": 3.3340560721,
				"z": 1.6326727062,
				"element": "H" 
			},
			{
				"x": 7.2020934303,
				"y": 1.2066494991,
				"z": 0.8484553469,
				"element": "H" 
			},
			{
				"x": 5.789789517,
				"y": -0.5805528163,
				"z": -0.1141641435,
				"element": "H" 
			},
			{
				"x": 1.4996424374,
				"y": 2.8204172455,
				"z": 0.8161382503,
				"element": "H" 
			},
			{
				"x": -0.5737928921,
				"y": 2.1145209183,
				"z": 0.4473570989,
				"element": "H" 
			},
			{
				"x": -5.6421894171,
				"y": 0.3990880391,
				"z": -1.3387064288,
				"element": "H" 
			},
			{
				"x": -5.0558846103,
				"y": 2.010574314,
				"z": -0.847272796,
				"element": "H" 
			},
			{
				"x": -5.4216329135,
				"y": -0.3814579108,
				"z": 1.0562131449,
				"element": "H" 
			},
			{
				"x": -4.8852603033,
				"y": 1.250525777,
				"z": 1.5218543268,
				"element": "H" 
			},
			{
				"x": -6.5364374921,
				"y": 0.9929635637,
				"z": 0.9283999319,
				"element": "H" 
			}
		],
		 "valence_orbital": [ 
			{
				"type": "occ",
				"energy": -0.27529,
				"method": "rhf"
			},
			{
				"type": "occ",
				"energy": -0.26824,
				"method": "rhf"
			},
			{
				"type": "occ",
				"energy": -0.24612,
				"method": "rhf"
			},
			{
				"type": "occ",
				"energy": -0.24324,
				"method": "rhf"
			},
			{
				"type": "occ",
				"energy": -0.22591,
				"method": "rhf"
			},
			{
				"type": "unocc",
				"energy": -0.08281,
				"method": "rhf"
			},
			{
				"type": "unocc",
				"energy": -0.07908,
				"method": "rhf"
			},
			{
				"type": "unocc",
				"energy": -0.03493,
				"method": "rhf"
			},
			{
				"type": "unocc",
				"energy": -0.00477,
				"method": "rhf"
			},
			{
				"type": "unocc",
				"energy": 0.00367,
				"method": "rhf"
			}
		],
		"cosmo_sigma_profile": { 
			"-0.025": 0.0,
			"-0.024": 0.0,
			"-0.023": 0.0,
			"-0.022": 0.0,
			"-0.021": 0.0,
			"-0.02": 0.0,
			"-0.019": 0.0,
			"-0.018": 0.0,
			"-0.017": 0.0,
			"-0.016": 0.0,
			"-0.015": 0.0,
			"-0.014": 0.0,
			"-0.013": 0.0,
			"-0.012": 0.0,
			"-0.011": 0.0,
			"-0.01": 0.0,
			"-0.009": 1.39567292667,
			"-0.008": 6.37876915261,
			"-0.007": 12.2508989763,
			"-0.006": 15.235023809,
			"-0.005": 24.6449925433,
			"-0.004": 35.6766917773,
			"-0.003": 34.188416235,
			"-0.002": 36.2842594045,
			"-0.001": 37.631590569,
			"0.0": 42.9578204056,
			"0.001": 33.9587566665,
			"0.002": 24.6162678722,
			"0.003": 17.5815751773,
			"0.004": 10.6071770673,
			"0.005": 6.51573765595,
			"0.006": 5.82881400457,
			"0.007": 4.8638156609,
			"0.008": 5.28751910053,
			"0.009": 5.39887861945,
			"0.01": 7.29940393847,
			"0.011": 9.84005705475,
			"0.012": 12.9528075622,
			"0.013": 1.06178886564,
			"0.014": 0.0,
			"0.015": 0.0,
			"0.016": 0.0,
			"0.017": 0.0,
			"0.018": 0.0,
			"0.019": 0.0,
			"0.02": 0.0,
			"0.021": 0.0,
			"0.022": 0.0,
			"0.023": 0.0,
			"0.024": 0.0,
			"0.025": 0.0
		}
	}
}
