{
	 "smiles": "O=C(CCN1CCOCC1)C1=CC2=C(O1)C=CC=C2", 
	 "Tm": 327.15, 
	 "num_atms": 36, 
	 "gaussian": { 
		 "optdone": 1, 
		 "sigma_profile": "yes", 
		 "theory": "DFT", 
		 "functional": "B3LYP", 
		 "basiset": "6-31G**", 
		 "properties": { 
			 "R2extent": 7531.4123, 
			 "electric_dipole_moment_norm": 3.41714032928, 
			 "electric_quadrupole_moment_norm": 16.0491740582, 
			 "total_energy": -862.230989499, 
			 "HOMO_LUMO_gap": 0.14098, 
			 "cosmo_polarized_energy": -14.64, 
			 "cosmo_cavitation_energy": 38.24, 
			 "cosmo_dispersion_energy": -27.5, 
			 "cosmo_repulsion_energy": 2.12, 
			 "cosmo_total_nonelectrostatic_energy": 12.86, 
			 "SMD_solvation_energy": 4.45 
		},
		"coords": [
			{
				"x": -2.7771194606,
				"y": -1.6753062653,
				"z": -1.5515308062,
				"element": "O" 
			},
			{
				"x": -1.7755412261,
				"y": -1.805677777,
				"z": -0.8619903313,
				"element": "C" 
			},
			{
				"x": -1.8485893904,
				"y": -1.7782535436,
				"z": 0.6616701692,
				"element": "C" 
			},
			{
				"x": -2.9162901205,
				"y": -0.7911273799,
				"z": 1.2025308391,
				"element": "C" 
			},
			{
				"x": -2.5413726105,
				"y": 0.6127750393,
				"z": 1.3003632127,
				"element": "N" 
			},
			{
				"x": -1.5403052754,
				"y": 0.9196611508,
				"z": 2.317768361,
				"element": "C" 
			},
			{
				"x": -1.4296472715,
				"y": 2.4364254028,
				"z": 2.4765425667,
				"element": "C" 
			},
			{
				"x": -1.1034564122,
				"y": 3.0593348419,
				"z": 1.2423199705,
				"element": "O" 
			},
			{
				"x": -2.0855724389,
				"y": 2.7689257313,
				"z": 0.2545821898,
				"element": "C" 
			},
			{
				"x": -2.2190658261,
				"y": 1.2632376181,
				"z": 0.032208913,
				"element": "C" 
			},
			{
				"x": -0.4579316667,
				"y": -2.0420238613,
				"z": -1.4798201332,
				"element": "C" 
			},
			{
				"x": 0.796729416,
				"y": -2.2164565592,
				"z": -0.9563453977,
				"element": "C" 
			},
			{
				"x": 1.6809212934,
				"y": -2.4212017611,
				"z": -2.0664409658,
				"element": "C" 
			},
			{
				"x": 0.8576044887,
				"y": -2.3514198606,
				"z": -3.209686293,
				"element": "C" 
			},
			{
				"x": -0.4358385015,
				"y": -2.1229109872,
				"z": -2.8555202152,
				"element": "O" 
			},
			{
				"x": 1.3352774376,
				"y": -2.500024442,
				"z": -4.5088829657,
				"element": "C" 
			},
			{
				"x": 2.7020431759,
				"y": -2.7280096783,
				"z": -4.6418783152,
				"element": "C" 
			},
			{
				"x": 3.5520875726,
				"y": -2.8032045697,
				"z": -3.5176427849,
				"element": "C" 
			},
			{
				"x": 3.0588270719,
				"y": -2.6523478692,
				"z": -2.2282416517,
				"element": "C" 
			},
			{
				"x": -0.8688158587,
				"y": -1.5897783535,
				"z": 1.1093624106,
				"element": "H" 
			},
			{
				"x": -2.1385949911,
				"y": -2.7930040777,
				"z": 0.9673868543,
				"element": "H" 
			},
			{
				"x": -3.7942741934,
				"y": -0.8707207213,
				"z": 0.5532496032,
				"element": "H" 
			},
			{
				"x": -3.2153269264,
				"y": -1.1194562198,
				"z": 2.2043973513,
				"element": "H" 
			},
			{
				"x": -0.5370658012,
				"y": 0.5223700021,
				"z": 2.0684000987,
				"element": "H" 
			},
			{
				"x": -1.848350672,
				"y": 0.4712635323,
				"z": 3.2704812281,
				"element": "H" 
			},
			{
				"x": -0.6314155372,
				"y": 2.6955512367,
				"z": 3.1787748381,
				"element": "H" 
			},
			{
				"x": -2.3839684816,
				"y": 2.8307522011,
				"z": 2.8622920977,
				"element": "H" 
			},
			{
				"x": -3.0617226107,
				"y": 3.18073964,
				"z": 0.5581360181,
				"element": "H" 
			},
			{
				"x": -1.761781266,
				"y": 3.2685098129,
				"z": -0.663132498,
				"element": "H" 
			},
			{
				"x": -3.0157063654,
				"y": 1.057144303,
				"z": -0.6903992648,
				"element": "H" 
			},
			{
				"x": -1.271910577,
				"y": 0.8895933656,
				"z": -0.4037578908,
				"element": "H" 
			},
			{
				"x": 1.0608368161,
				"y": -2.2025710514,
				"z": 0.0909012266,
				"element": "H" 
			},
			{
				"x": 0.6707962201,
				"y": -2.4395595736,
				"z": -5.3634817693,
				"element": "H" 
			},
			{
				"x": 3.1248229803,
				"y": -2.8507823163,
				"z": -5.6344166653,
				"element": "H" 
			},
			{
				"x": 4.6121934919,
				"y": -2.9822998943,
				"z": -3.668963209,
				"element": "H" 
			},
			{
				"x": 3.7185235165,
				"y": -2.7106471157,
				"z": -1.3678367916,
				"element": "H" 
			}
		],
		 "valence_orbital": [ 
			{
				"type": "occ",
				"energy": -0.25656,
				"method": "rhf"
			},
			{
				"type": "occ",
				"energy": -0.24981,
				"method": "rhf"
			},
			{
				"type": "occ",
				"energy": -0.24785,
				"method": "rhf"
			},
			{
				"type": "occ",
				"energy": -0.2358,
				"method": "rhf"
			},
			{
				"type": "occ",
				"energy": -0.20969,
				"method": "rhf"
			},
			{
				"type": "unocc",
				"energy": -0.06871,
				"method": "rhf"
			},
			{
				"type": "unocc",
				"energy": -0.00211,
				"method": "rhf"
			},
			{
				"type": "unocc",
				"energy": 0.01161,
				"method": "rhf"
			},
			{
				"type": "unocc",
				"energy": 0.07269,
				"method": "rhf"
			},
			{
				"type": "unocc",
				"energy": 0.07936,
				"method": "rhf"
			}
		],
		"cosmo_sigma_profile": { 
			"-0.025": 0.0,
			"-0.024": 0.0,
			"-0.023": 0.0,
			"-0.022": 0.0,
			"-0.021": 0.0,
			"-0.02": 0.0,
			"-0.019": 0.0,
			"-0.018": 0.0,
			"-0.017": 0.0,
			"-0.016": 0.0,
			"-0.015": 0.0,
			"-0.014": 0.0,
			"-0.013": 0.0,
			"-0.012": 0.0,
			"-0.011": 0.0,
			"-0.01": 0.0200151526416,
			"-0.009": 1.45570765759,
			"-0.008": 2.34931407983,
			"-0.007": 5.9164809229,
			"-0.006": 13.8458861408,
			"-0.005": 20.4223390391,
			"-0.004": 31.9286894459,
			"-0.003": 33.7377441003,
			"-0.002": 34.1516312413,
			"-0.001": 25.2442883259,
			"0.0": 19.8341020915,
			"0.001": 18.977332139,
			"0.002": 17.7622650638,
			"0.003": 14.9864506471,
			"0.004": 14.9616594599,
			"0.005": 8.24356620035,
			"0.006": 4.09919204462,
			"0.007": 3.7774859393,
			"0.008": 3.93674692575,
			"0.009": 4.75118286595,
			"0.01": 3.7656630654,
			"0.011": 4.75607074422,
			"0.012": 5.84161921504,
			"0.013": 5.60783070807,
			"0.014": 1.54351032475,
			"0.015": 0.0,
			"0.016": 0.0,
			"0.017": 0.0,
			"0.018": 0.0,
			"0.019": 0.0,
			"0.02": 0.0,
			"0.021": 0.0,
			"0.022": 0.0,
			"0.023": 0.0,
			"0.024": 0.0,
			"0.025": 0.0
		}
	}
}
