{
	 "smiles": "COC(=O)C1=CC2=CC=CC=C2C=C1", 
	 "Tm": 350.15, 
	 "num_atms": 24, 
	 "gaussian": { 
		 "optdone": 1, 
		 "sigma_profile": "yes", 
		 "theory": "DFT", 
		 "functional": "B3LYP", 
		 "basiset": "6-31G**", 
		 "properties": { 
			 "R2extent": 3673.9199, 
			 "electric_dipole_moment_norm": 2.18184371805, 
			 "electric_quadrupole_moment_norm": 14.4490617751, 
			 "total_energy": -613.775790066, 
			 "HOMO_LUMO_gap": 0.16588, 
			 "cosmo_polarized_energy": -8.23, 
			 "cosmo_cavitation_energy": 28.3, 
			 "cosmo_dispersion_energy": -20.92, 
			 "cosmo_repulsion_energy": 1.62, 
			 "cosmo_total_nonelectrostatic_energy": 8.99, 
			 "SMD_solvation_energy": 6.14 
		},
		"coords": [
			{
				"x": -2.7495628154,
				"y": -0.1499300796,
				"z": 2.7759170376,
				"element": "C" 
			},
			{
				"x": -1.8059182036,
				"y": -0.0556394455,
				"z": 1.6989182364,
				"element": "O" 
			},
			{
				"x": -2.2069678848,
				"y": -0.6143748141,
				"z": 0.5325252429,
				"element": "C" 
			},
			{
				"x": -3.2862677993,
				"y": -1.1588101698,
				"z": 0.3973216538,
				"element": "O" 
			},
			{
				"x": -1.1891939643,
				"y": -0.4862734329,
				"z": -0.5466246764,
				"element": "C" 
			},
			{
				"x": 0.0263507379,
				"y": 0.1416133892,
				"z": -0.3480167619,
				"element": "C" 
			},
			{
				"x": 0.9711348875,
				"y": 0.2443966909,
				"z": -1.4004335876,
				"element": "C" 
			},
			{
				"x": 2.2282096672,
				"y": 0.8848045542,
				"z": -1.2231589374,
				"element": "C" 
			},
			{
				"x": 3.1270198316,
				"y": 0.9705905879,
				"z": -2.2619827681,
				"element": "C" 
			},
			{
				"x": 2.808784845,
				"y": 0.4187042994,
				"z": -3.5277624809,
				"element": "C" 
			},
			{
				"x": 1.5993739498,
				"y": -0.20810221,
				"z": -3.7317924675,
				"element": "C" 
			},
			{
				"x": 0.6495933579,
				"y": -0.3138931452,
				"z": -2.6814964206,
				"element": "C" 
			},
			{
				"x": -0.6095362871,
				"y": -0.9536300483,
				"z": -2.8537717411,
				"element": "C" 
			},
			{
				"x": -1.5061624079,
				"y": -1.0392808849,
				"z": -1.817810546,
				"element": "C" 
			},
			{
				"x": -3.6848764526,
				"y": 0.3516385156,
				"z": 2.5145996791,
				"element": "H" 
			},
			{
				"x": -2.96616029,
				"y": -1.1956318475,
				"z": 3.0088583232,
				"element": "H" 
			},
			{
				"x": -2.2761796402,
				"y": 0.3415132535,
				"z": 3.6260077047,
				"element": "H" 
			},
			{
				"x": 0.2646551965,
				"y": 0.5622954946,
				"z": 0.6231035018,
				"element": "H" 
			},
			{
				"x": 2.4670167131,
				"y": 1.3063162035,
				"z": -0.2501645424,
				"element": "H" 
			},
			{
				"x": 4.0844748624,
				"y": 1.4618891072,
				"z": -2.1158934929,
				"element": "H" 
			},
			{
				"x": 3.5262416191,
				"y": 0.4926297311,
				"z": -4.3399435711,
				"element": "H" 
			},
			{
				"x": 1.355330158,
				"y": -0.6313824213,
				"z": -4.702698668,
				"element": "H" 
			},
			{
				"x": -0.8524691827,
				"y": -1.3765055467,
				"z": -3.8250825612,
				"element": "H" 
			},
			{
				"x": -2.4682908984,
				"y": -1.5246377812,
				"z": -1.9387181565,
				"element": "H" 
			}
		],
		 "valence_orbital": [ 
			{
				"type": "occ",
				"energy": -0.29981,
				"method": "rhf"
			},
			{
				"type": "occ",
				"energy": -0.28999,
				"method": "rhf"
			},
			{
				"type": "occ",
				"energy": -0.2714,
				"method": "rhf"
			},
			{
				"type": "occ",
				"energy": -0.24919,
				"method": "rhf"
			},
			{
				"type": "occ",
				"energy": -0.22241,
				"method": "rhf"
			},
			{
				"type": "unocc",
				"energy": -0.05653,
				"method": "rhf"
			},
			{
				"type": "unocc",
				"energy": -0.02787,
				"method": "rhf"
			},
			{
				"type": "unocc",
				"energy": 0.02041,
				"method": "rhf"
			},
			{
				"type": "unocc",
				"energy": 0.04396,
				"method": "rhf"
			},
			{
				"type": "unocc",
				"energy": 0.09387,
				"method": "rhf"
			}
		],
		"cosmo_sigma_profile": { 
			"-0.025": 0.0,
			"-0.024": 0.0,
			"-0.023": 0.0,
			"-0.022": 0.0,
			"-0.021": 0.0,
			"-0.02": 0.0,
			"-0.019": 0.0,
			"-0.018": 0.0,
			"-0.017": 0.0,
			"-0.016": 0.0,
			"-0.015": 0.0,
			"-0.014": 0.0,
			"-0.013": 0.0,
			"-0.012": 0.0,
			"-0.011": 0.0,
			"-0.01": 0.0,
			"-0.009": 0.0,
			"-0.008": 0.0,
			"-0.007": 3.25773075181,
			"-0.006": 16.8890714948,
			"-0.005": 19.7739716472,
			"-0.004": 20.4440659072,
			"-0.003": 19.0807015838,
			"-0.002": 16.1482198819,
			"-0.001": 12.9051790463,
			"0.0": 12.2832871009,
			"0.001": 16.2893677197,
			"0.002": 19.8544675663,
			"0.003": 27.5205937271,
			"0.004": 18.2765566853,
			"0.005": 7.18817650432,
			"0.006": 2.84540039998,
			"0.007": 1.53157978627,
			"0.008": 1.65834199571,
			"0.009": 1.48238230549,
			"0.01": 1.69542953079,
			"0.011": 3.02548405718,
			"0.012": 4.29073138214,
			"0.013": 0.320300715774,
			"0.014": 0.0,
			"0.015": 0.0,
			"0.016": 0.0,
			"0.017": 0.0,
			"0.018": 0.0,
			"0.019": 0.0,
			"0.02": 0.0,
			"0.021": 0.0,
			"0.022": 0.0,
			"0.023": 0.0,
			"0.024": 0.0,
			"0.025": 0.0
		}
	}
}
