{
	 "smiles": "CN(C)C(=O)N1CCC(CC1)C(O)=O", 
	 "Tm": 420.15, 
	 "num_atms": 30, 
	 "gaussian": { 
		 "optdone": 1, 
		 "sigma_profile": "yes", 
		 "theory": "DFT", 
		 "functional": "B3LYP", 
		 "basiset": "6-31G**", 
		 "properties": { 
			 "R2extent": 3423.5398, 
			 "electric_dipole_moment_norm": 2.06498292003, 
			 "electric_quadrupole_moment_norm": 24.4434208083, 
			 "total_energy": -687.801090546, 
			 "HOMO_LUMO_gap": 0.23081, 
			 "cosmo_polarized_energy": -18.36, 
			 "cosmo_cavitation_energy": 30.66, 
			 "cosmo_dispersion_energy": -22.1, 
			 "cosmo_repulsion_energy": 1.73, 
			 "cosmo_total_nonelectrostatic_energy": 10.29, 
			 "SMD_solvation_energy": 5.48 
		},
		"coords": [
			{
				"x": 1.9807969197,
				"y": -2.652221846,
				"z": -2.7570102463,
				"element": "C" 
			},
			{
				"x": 1.7261436369,
				"y": -1.5326028015,
				"z": -1.8611625332,
				"element": "N" 
			},
			{
				"x": 2.7286367877,
				"y": -0.4735473237,
				"z": -1.9019722117,
				"element": "C" 
			},
			{
				"x": 0.9656931851,
				"y": -1.7978629285,
				"z": -0.7313730773,
				"element": "C" 
			},
			{
				"x": 0.6345363273,
				"y": -2.9421689533,
				"z": -0.4210427882,
				"element": "O" 
			},
			{
				"x": 0.6082117782,
				"y": -0.6808276375,
				"z": 0.0352487102,
				"element": "N" 
			},
			{
				"x": -0.0151273415,
				"y": -0.9851591753,
				"z": 1.3270228456,
				"element": "C" 
			},
			{
				"x": -1.5299861047,
				"y": -1.2012706328,
				"z": 1.2013547271,
				"element": "C" 
			},
			{
				"x": -2.2214495632,
				"y": 0.0156044919,
				"z": 0.5316952719,
				"element": "C" 
			},
			{
				"x": -1.4995006132,
				"y": 0.3838408755,
				"z": -0.7773404929,
				"element": "C" 
			},
			{
				"x": 0.0242729983,
				"y": 0.5130129683,
				"z": -0.6018259105,
				"element": "C" 
			},
			{
				"x": -2.3036552052,
				"y": 1.2124144558,
				"z": 1.4838027179,
				"element": "C" 
			},
			{
				"x": -3.0686182836,
				"y": 1.0237099983,
				"z": 2.5943426343,
				"element": "O" 
			},
			{
				"x": -1.7522625225,
				"y": 2.2737174358,
				"z": 1.3172297229,
				"element": "O" 
			},
			{
				"x": 2.8912311961,
				"y": -3.2023079392,
				"z": -2.4778561647,
				"element": "H" 
			},
			{
				"x": 2.1026479174,
				"y": -2.276926785,
				"z": -3.778889721,
				"element": "H" 
			},
			{
				"x": 1.1412356468,
				"y": -3.3445836226,
				"z": -2.718651822,
				"element": "H" 
			},
			{
				"x": 2.6007075313,
				"y": 0.1706383015,
				"z": -2.7814513378,
				"element": "H" 
			},
			{
				"x": 3.7357162392,
				"y": -0.9111018752,
				"z": -1.9493431251,
				"element": "H" 
			},
			{
				"x": 2.6688983446,
				"y": 0.1368840178,
				"z": -1.0018187406,
				"element": "H" 
			},
			{
				"x": 0.4550880854,
				"y": -1.8814915742,
				"z": 1.7317254171,
				"element": "H" 
			},
			{
				"x": 0.198052966,
				"y": -0.1467606363,
				"z": 2.0028135171,
				"element": "H" 
			},
			{
				"x": -1.9560369434,
				"y": -1.4090332575,
				"z": 2.1912977345,
				"element": "H" 
			},
			{
				"x": -1.6946335484,
				"y": -2.0906427895,
				"z": 0.5859637479,
				"element": "H" 
			},
			{
				"x": -3.2598403854,
				"y": -0.2622305103,
				"z": 0.2974128139,
				"element": "H" 
			},
			{
				"x": -1.8956848697,
				"y": 1.3254253866,
				"z": -1.169937364,
				"element": "H" 
			},
			{
				"x": -1.7074870524,
				"y": -0.3988070346,
				"z": -1.5168794032,
				"element": "H" 
			},
			{
				"x": 0.4863986641,
				"y": 0.6713810708,
				"z": -1.5757663885,
				"element": "H" 
			},
			{
				"x": 0.2463656197,
				"y": 1.3834397859,
				"z": 0.0227441992,
				"element": "H" 
			},
			{
				"x": -3.4613514107,
				"y": 0.1392785348,
				"z": 2.5839672673,
				"element": "H" 
			}
		],
		 "valence_orbital": [ 
			{
				"type": "occ",
				"energy": -0.31672,
				"method": "rhf"
			},
			{
				"type": "occ",
				"energy": -0.27182,
				"method": "rhf"
			},
			{
				"type": "occ",
				"energy": -0.26573,
				"method": "rhf"
			},
			{
				"type": "occ",
				"energy": -0.23199,
				"method": "rhf"
			},
			{
				"type": "occ",
				"energy": -0.22656,
				"method": "rhf"
			},
			{
				"type": "unocc",
				"energy": 0.00425,
				"method": "rhf"
			},
			{
				"type": "unocc",
				"energy": 0.03973,
				"method": "rhf"
			},
			{
				"type": "unocc",
				"energy": 0.04818,
				"method": "rhf"
			},
			{
				"type": "unocc",
				"energy": 0.08545,
				"method": "rhf"
			},
			{
				"type": "unocc",
				"energy": 0.10084,
				"method": "rhf"
			}
		],
		"cosmo_sigma_profile": { 
			"-0.025": 0.0,
			"-0.024": 0.0,
			"-0.023": 0.0,
			"-0.022": 0.0,
			"-0.021": 0.0,
			"-0.02": 0.0,
			"-0.019": 0.138436560804,
			"-0.018": 0.839266156798,
			"-0.017": 1.36696739445,
			"-0.016": 0.716255049306,
			"-0.015": 1.31124417673,
			"-0.014": 0.78435771566,
			"-0.013": 1.0286424842,
			"-0.012": 1.27973192946,
			"-0.011": 1.10174776459,
			"-0.01": 1.24195809213,
			"-0.009": 1.09340725341,
			"-0.008": 1.69499482695,
			"-0.007": 2.36316331821,
			"-0.006": 3.8380041429,
			"-0.005": 7.96101346593,
			"-0.004": 27.7476426363,
			"-0.003": 35.0484699137,
			"-0.002": 34.3299035311,
			"-0.001": 26.4062372529,
			"0.0": 11.8528125619,
			"0.001": 8.07284380357,
			"0.002": 7.12391892766,
			"0.003": 4.93538524821,
			"0.004": 5.92496168407,
			"0.005": 5.24662026514,
			"0.006": 4.74480150817,
			"0.007": 4.62355898626,
			"0.008": 3.39577200647,
			"0.009": 4.65237708993,
			"0.01": 5.40501549742,
			"0.011": 6.9964100862,
			"0.012": 5.96127691139,
			"0.013": 3.38572695961,
			"0.014": 4.0522562755,
			"0.015": 1.87515954295,
			"0.016": 0.0,
			"0.017": 0.0,
			"0.018": 0.0,
			"0.019": 0.0,
			"0.02": 0.0,
			"0.021": 0.0,
			"0.022": 0.0,
			"0.023": 0.0,
			"0.024": 0.0,
			"0.025": 0.0
		}
	}
}
