{
	 "smiles": "COC1=C(N)C=C(CN2CCCC2)C=C1", 
	 "Tm": 320.15, 
	 "num_atms": 33, 
	 "gaussian": { 
		 "optdone": 1, 
		 "sigma_profile": "yes", 
		 "theory": "DFT", 
		 "functional": "B3LYP", 
		 "basiset": "6-31G**", 
		 "properties": { 
			 "R2extent": 4733.2398, 
			 "electric_dipole_moment_norm": 2.28738543757, 
			 "electric_quadrupole_moment_norm": 11.0887023614, 
			 "total_energy": -652.835754872, 
			 "HOMO_LUMO_gap": 0.20014, 
			 "cosmo_polarized_energy": -9.57, 
			 "cosmo_cavitation_energy": 33.83, 
			 "cosmo_dispersion_energy": -24.63, 
			 "cosmo_repulsion_energy": 1.96, 
			 "cosmo_total_nonelectrostatic_energy": 11.16, 
			 "SMD_solvation_energy": 3.14 
		},
		"coords": [
			{
				"x": 4.7295588359,
				"y": 2.7512043399,
				"z": 0.8384650449,
				"element": "C" 
			},
			{
				"x": 4.1739860678,
				"y": 1.4724570075,
				"z": 0.5894542491,
				"element": "O" 
			},
			{
				"x": 2.8101577516,
				"y": 1.3289416665,
				"z": 0.6950047801,
				"element": "C" 
			},
			{
				"x": 2.3372975919,
				"y": 0.0219137031,
				"z": 0.4272110673,
				"element": "C" 
			},
			{
				"x": 3.2570921645,
				"y": -0.9930857272,
				"z": 0.1634347226,
				"element": "N" 
			},
			{
				"x": 0.9615931552,
				"y": -0.2130334209,
				"z": 0.4966448196,
				"element": "C" 
			},
			{
				"x": 0.049016999,
				"y": 0.8013804513,
				"z": 0.8244626436,
				"element": "C" 
			},
			{
				"x": -1.4464360264,
				"y": 0.5142166734,
				"z": 0.8590396143,
				"element": "C" 
			},
			{
				"x": -2.1895366409,
				"y": 0.6911029939,
				"z": -0.3909716731,
				"element": "N" 
			},
			{
				"x": -2.2396707848,
				"y": 2.0421863863,
				"z": -0.9465505299,
				"element": "C" 
			},
			{
				"x": -2.9658806757,
				"y": 1.8453556335,
				"z": -2.2932179712,
				"element": "C" 
			},
			{
				"x": -2.7006666686,
				"y": 0.356177411,
				"z": -2.6634809125,
				"element": "C" 
			},
			{
				"x": -1.8258478819,
				"y": -0.1745136295,
				"z": -1.5103692748,
				"element": "C" 
			},
			{
				"x": 0.544291164,
				"y": 2.0783454558,
				"z": 1.0962687524,
				"element": "C" 
			},
			{
				"x": 1.9182656571,
				"y": 2.3429159938,
				"z": 1.030159875,
				"element": "C" 
			},
			{
				"x": 4.3451349146,
				"y": 3.5038481106,
				"z": 0.1373320924,
				"element": "H" 
			},
			{
				"x": 5.8073003756,
				"y": 2.6484923179,
				"z": 0.6997463929,
				"element": "H" 
			},
			{
				"x": 4.5288188379,
				"y": 3.0853188649,
				"z": 1.8646905915,
				"element": "H" 
			},
			{
				"x": 2.9027856894,
				"y": -1.7508929075,
				"z": -0.4030468107,
				"element": "H" 
			},
			{
				"x": 4.1571837406,
				"y": -0.6554038845,
				"z": -0.1486769896,
				"element": "H" 
			},
			{
				"x": 0.5977712875,
				"y": -1.2213361919,
				"z": 0.3079038059,
				"element": "H" 
			},
			{
				"x": -1.9182726741,
				"y": 1.1623243386,
				"z": 1.6081103856,
				"element": "H" 
			},
			{
				"x": -1.6089902674,
				"y": -0.5202274631,
				"z": 1.1874960048,
				"element": "H" 
			},
			{
				"x": -2.7701081223,
				"y": 2.7166230195,
				"z": -0.263421946,
				"element": "H" 
			},
			{
				"x": -1.2330726952,
				"y": 2.4666333975,
				"z": -1.1153808746,
				"element": "H" 
			},
			{
				"x": -2.5937301776,
				"y": 2.5385553639,
				"z": -3.0531269361,
				"element": "H" 
			},
			{
				"x": -4.0386850735,
				"y": 2.026426087,
				"z": -2.1830784476,
				"element": "H" 
			},
			{
				"x": -3.642378666,
				"y": -0.1972980693,
				"z": -2.7158186022,
				"element": "H" 
			},
			{
				"x": -2.2015205662,
				"y": 0.2459631103,
				"z": -3.6305727884,
				"element": "H" 
			},
			{
				"x": -0.7558581619,
				"y": -0.0940308739,
				"z": -1.7775020194,
				"element": "H" 
			},
			{
				"x": -2.0254645393,
				"y": -1.2244016278,
				"z": -1.2632195072,
				"element": "H" 
			},
			{
				"x": -0.137848738,
				"y": 2.8775579217,
				"z": 1.3729948811,
				"element": "H" 
			},
			{
				"x": 2.2805141272,
				"y": 3.3420835478,
				"z": 1.2441155608,
				"element": "H" 
			}
		],
		 "valence_orbital": [ 
			{
				"type": "occ",
				"energy": -0.30986,
				"method": "rhf"
			},
			{
				"type": "occ",
				"energy": -0.2954,
				"method": "rhf"
			},
			{
				"type": "occ",
				"energy": -0.22296,
				"method": "rhf"
			},
			{
				"type": "occ",
				"energy": -0.19721,
				"method": "rhf"
			},
			{
				"type": "occ",
				"energy": -0.18506,
				"method": "rhf"
			},
			{
				"type": "unocc",
				"energy": 0.01508,
				"method": "rhf"
			},
			{
				"type": "unocc",
				"energy": 0.02404,
				"method": "rhf"
			},
			{
				"type": "unocc",
				"energy": 0.0884,
				"method": "rhf"
			},
			{
				"type": "unocc",
				"energy": 0.09233,
				"method": "rhf"
			},
			{
				"type": "unocc",
				"energy": 0.10151,
				"method": "rhf"
			}
		],
		"cosmo_sigma_profile": { 
			"-0.025": 0.0,
			"-0.024": 0.0,
			"-0.023": 0.0,
			"-0.022": 0.0,
			"-0.021": 0.0,
			"-0.02": 0.0,
			"-0.019": 0.0,
			"-0.018": 0.0,
			"-0.017": 0.0,
			"-0.016": 0.0,
			"-0.015": 0.0,
			"-0.014": 0.0,
			"-0.013": 0.0233089748099,
			"-0.012": 1.00187505252,
			"-0.011": 1.44936772732,
			"-0.01": 1.71957560364,
			"-0.009": 2.65237220276,
			"-0.008": 2.79879268797,
			"-0.007": 1.6038631228,
			"-0.006": 4.82975700898,
			"-0.005": 12.117598472,
			"-0.004": 16.9558232364,
			"-0.003": 29.3219011772,
			"-0.002": 30.1254688849,
			"-0.001": 29.5341406083,
			"0.0": 32.4209271046,
			"0.001": 22.8217723467,
			"0.002": 11.7107382126,
			"0.003": 9.30247550333,
			"0.004": 11.0902378811,
			"0.005": 9.40930180055,
			"0.006": 10.1278749309,
			"0.007": 8.88078491331,
			"0.008": 4.46840957532,
			"0.009": 1.71596112393,
			"0.01": 1.30302415893,
			"0.011": 1.47076841457,
			"0.012": 1.43928466487,
			"0.013": 1.02704765551,
			"0.014": 1.16805366975,
			"0.015": 1.02468920867,
			"0.016": 0.321798291059,
			"0.017": 0.0759269677094,
			"0.018": 0.0,
			"0.019": 0.0,
			"0.02": 0.0,
			"0.021": 0.0,
			"0.022": 0.0,
			"0.023": 0.0,
			"0.024": 0.0,
			"0.025": 0.0
		}
	}
}
