{
	 "smiles": "COC1=C(OC)C=C2C(N)=NC(=NC2=C1)N1CCN(CC1)C(=O)C1COC2=C(O1)C=CC=C2", 
	 "Tm": 553.15, 
	 "num_atms": 58, 
	 "gaussian": { 
		 "optdone": 1, 
		 "sigma_profile": "yes", 
		 "theory": "DFT", 
		 "functional": "B3LYP", 
		 "basiset": "6-31G**", 
		 "properties": { 
			 "R2extent": 25328.102, 
			 "electric_dipole_moment_norm": 3.63381809809, 
			 "electric_quadrupole_moment_norm": 20.820290985, 
			 "total_energy": -1541.37953104, 
			 "HOMO_LUMO_gap": 0.15866, 
			 "cosmo_polarized_energy": -25.95, 
			 "cosmo_cavitation_energy": 59.54, 
			 "cosmo_dispersion_energy": -42.38, 
			 "cosmo_repulsion_energy": 3.16, 
			 "cosmo_total_nonelectrostatic_energy": 20.32, 
			 "SMD_solvation_energy": 8.29 
		},
		"coords": [
			{
				"x": -1.1687585115,
				"y": 7.7568081266,
				"z": -0.3884462788,
				"element": "C" 
			},
			{
				"x": -1.7257567445,
				"y": 7.1763513697,
				"z": -1.5604687098,
				"element": "O" 
			},
			{
				"x": -1.9071997476,
				"y": 5.8284328231,
				"z": -1.5819986031,
				"element": "C" 
			},
			{
				"x": -2.5009942008,
				"y": 5.3148230211,
				"z": -2.780944909,
				"element": "C" 
			},
			{
				"x": -2.8835919104,
				"y": 6.1556496139,
				"z": -3.797998333,
				"element": "O" 
			},
			{
				"x": -1.8186015425,
				"y": 6.7535514785,
				"z": -4.5414418107,
				"element": "C" 
			},
			{
				"x": -2.7511069387,
				"y": 3.9660109822,
				"z": -2.8858475761,
				"element": "C" 
			},
			{
				"x": -2.4359478272,
				"y": 3.0771833703,
				"z": -1.8310064073,
				"element": "C" 
			},
			{
				"x": -2.6882030812,
				"y": 1.6640705942,
				"z": -1.834923998,
				"element": "C" 
			},
			{
				"x": -3.2895603861,
				"y": 1.0554444378,
				"z": -2.9082205377,
				"element": "N" 
			},
			{
				"x": -2.3282397565,
				"y": 0.8816477483,
				"z": -0.8315347983,
				"element": "N" 
			},
			{
				"x": -1.7027044414,
				"y": 1.4733798131,
				"z": 0.2265043788,
				"element": "C" 
			},
			{
				"x": -1.4486394934,
				"y": 2.7692134436,
				"z": 0.3794835332,
				"element": "N" 
			},
			{
				"x": -1.813657851,
				"y": 3.5765422804,
				"z": -0.6536177128,
				"element": "C" 
			},
			{
				"x": -1.5660264425,
				"y": 4.9705836483,
				"z": -0.5528403003,
				"element": "C" 
			},
			{
				"x": -1.3043621873,
				"y": 0.6417062479,
				"z": 1.2436604717,
				"element": "N" 
			},
			{
				"x": -0.6465241552,
				"y": 1.2065677261,
				"z": 2.4238152581,
				"element": "C" 
			},
			{
				"x": -0.2073139769,
				"y": 0.0755741182,
				"z": 3.3577289551,
				"element": "C" 
			},
			{
				"x": 0.4850878193,
				"y": -0.9777982299,
				"z": 2.6085578665,
				"element": "N" 
			},
			{
				"x": -0.2854920038,
				"y": -1.5881830657,
				"z": 1.5076127477,
				"element": "C" 
			},
			{
				"x": -1.5701592888,
				"y": -0.7858398128,
				"z": 1.252755807,
				"element": "C" 
			},
			{
				"x": 1.8265538878,
				"y": -1.1351949004,
				"z": 2.8225598363,
				"element": "C" 
			},
			{
				"x": 2.4610852043,
				"y": -0.4416762236,
				"z": 3.6146733965,
				"element": "O" 
			},
			{
				"x": 2.5977883323,
				"y": -2.195325527,
				"z": 1.9940945246,
				"element": "C" 
			},
			{
				"x": 3.894523055,
				"y": -2.5891416215,
				"z": 2.6987026661,
				"element": "C" 
			},
			{
				"x": 3.6262974944,
				"y": -3.3146346051,
				"z": 3.8968665699,
				"element": "O" 
			},
			{
				"x": 2.6768474641,
				"y": -4.291325861,
				"z": 3.764451028,
				"element": "C" 
			},
			{
				"x": 1.8011447176,
				"y": -4.3240281694,
				"z": 2.6678572033,
				"element": "C" 
			},
			{
				"x": 1.8497132723,
				"y": -3.3706987693,
				"z": 1.6721417875,
				"element": "O" 
			},
			{
				"x": 0.8575214149,
				"y": -5.3455314083,
				"z": 2.5560879101,
				"element": "C" 
			},
			{
				"x": 0.7690072513,
				"y": -6.3255198729,
				"z": 3.5441598347,
				"element": "C" 
			},
			{
				"x": 1.6224492973,
				"y": -6.2797368218,
				"z": 4.6502667601,
				"element": "C" 
			},
			{
				"x": 2.5757594465,
				"y": -5.2684468014,
				"z": 4.7567355789,
				"element": "C" 
			},
			{
				"x": -0.1556789306,
				"y": 7.3824450293,
				"z": -0.1966200943,
				"element": "H" 
			},
			{
				"x": -1.1300541921,
				"y": 8.8307707362,
				"z": -0.5754195649,
				"element": "H" 
			},
			{
				"x": -1.795715537,
				"y": 7.561205893,
				"z": 0.4897190279,
				"element": "H" 
			},
			{
				"x": -1.201305714,
				"y": 7.3998717873,
				"z": -3.9104173997,
				"element": "H" 
			},
			{
				"x": -2.2915738268,
				"y": 7.3527412885,
				"z": -5.3224620783,
				"element": "H" 
			},
			{
				"x": -1.187281331,
				"y": 5.9855859686,
				"z": -5.0076573654,
				"element": "H" 
			},
			{
				"x": -3.1910301172,
				"y": 3.6166974959,
				"z": -3.814899721,
				"element": "H" 
			},
			{
				"x": -3.5833985792,
				"y": 0.1043004056,
				"z": -2.73783099,
				"element": "H" 
			},
			{
				"x": -3.9058057535,
				"y": 1.6048046065,
				"z": -3.4862150208,
				"element": "H" 
			},
			{
				"x": -1.1056409738,
				"y": 5.3234204308,
				"z": 0.3610232208,
				"element": "H" 
			},
			{
				"x": 0.2213398285,
				"y": 1.7943027721,
				"z": 2.1077589931,
				"element": "H" 
			},
			{
				"x": -1.3176260118,
				"y": 1.89550872,
				"z": 2.9545294191,
				"element": "H" 
			},
			{
				"x": -1.0670561921,
				"y": -0.3608056483,
				"z": 3.8794951081,
				"element": "H" 
			},
			{
				"x": 0.4862064684,
				"y": 0.4573857865,
				"z": 4.1052920795,
				"element": "H" 
			},
			{
				"x": 0.3201402288,
				"y": -1.5975073916,
				"z": 0.5970551837,
				"element": "H" 
			},
			{
				"x": -0.5489168999,
				"y": -2.6251808986,
				"z": 1.7398313408,
				"element": "H" 
			},
			{
				"x": -1.9848726714,
				"y": -1.0613952167,
				"z": 0.2844905646,
				"element": "H" 
			},
			{
				"x": -2.3252636645,
				"y": -1.0333013595,
				"z": 2.0134079045,
				"element": "H" 
			},
			{
				"x": 2.8446225826,
				"y": -1.7390962246,
				"z": 1.0270441214,
				"element": "H" 
			},
			{
				"x": 4.4500751887,
				"y": -1.7013495833,
				"z": 2.9946784087,
				"element": "H" 
			},
			{
				"x": 4.4941770411,
				"y": -3.206199178,
				"z": 2.0162283656,
				"element": "H" 
			},
			{
				"x": 0.2069032555,
				"y": -5.3547803273,
				"z": 1.6869478796,
				"element": "H" 
			},
			{
				"x": 0.0325715104,
				"y": -7.1176146453,
				"z": 3.4512897424,
				"element": "H" 
			},
			{
				"x": 1.5536224708,
				"y": -7.0358067401,
				"z": 5.4262665006,
				"element": "H" 
			},
			{
				"x": 3.2594236505,
				"y": -5.2152628602,
				"z": 5.5979382347,
				"element": "H" 
			}
		],
		 "valence_orbital": [ 
			{
				"type": "occ",
				"energy": -0.23518,
				"method": "rhf"
			},
			{
				"type": "occ",
				"energy": -0.22965,
				"method": "rhf"
			},
			{
				"type": "occ",
				"energy": -0.22643,
				"method": "rhf"
			},
			{
				"type": "occ",
				"energy": -0.20791,
				"method": "rhf"
			},
			{
				"type": "occ",
				"energy": -0.18995,
				"method": "rhf"
			},
			{
				"type": "unocc",
				"energy": -0.03129,
				"method": "rhf"
			},
			{
				"type": "unocc",
				"energy": 0.00144,
				"method": "rhf"
			},
			{
				"type": "unocc",
				"energy": 0.00255,
				"method": "rhf"
			},
			{
				"type": "unocc",
				"energy": 0.01641,
				"method": "rhf"
			},
			{
				"type": "unocc",
				"energy": 0.01792,
				"method": "rhf"
			}
		],
		"cosmo_sigma_profile": { 
			"-0.025": 0.0,
			"-0.024": 0.0,
			"-0.023": 0.0,
			"-0.022": 0.0,
			"-0.021": 0.0,
			"-0.02": 0.0,
			"-0.019": 0.0,
			"-0.018": 0.0,
			"-0.017": 0.0,
			"-0.016": 0.0,
			"-0.015": 0.0085102107746,
			"-0.014": 0.981507265824,
			"-0.013": 2.35732590661,
			"-0.012": 2.48372051851,
			"-0.011": 2.63525044557,
			"-0.01": 2.57761981133,
			"-0.009": 4.66662993367,
			"-0.008": 6.66873295827,
			"-0.007": 6.61170417126,
			"-0.006": 24.0672461388,
			"-0.005": 37.6664255083,
			"-0.004": 46.8649604088,
			"-0.003": 43.6301646009,
			"-0.002": 33.3929102062,
			"-0.001": 26.11395924,
			"0.0": 24.5921195796,
			"0.001": 27.2219045223,
			"0.002": 29.2129375697,
			"0.003": 31.5761856868,
			"0.004": 27.3744413308,
			"0.005": 20.9552896246,
			"0.006": 15.3031293333,
			"0.007": 9.93350992917,
			"0.008": 9.25919979426,
			"0.009": 8.73430088944,
			"0.01": 7.9772997599,
			"0.011": 7.16328730617,
			"0.012": 5.31686344823,
			"0.013": 5.28894435526,
			"0.014": 1.11628616185,
			"0.015": 0.0,
			"0.016": 0.0,
			"0.017": 0.0,
			"0.018": 0.0,
			"0.019": 0.0,
			"0.02": 0.0,
			"0.021": 0.0,
			"0.022": 0.0,
			"0.023": 0.0,
			"0.024": 0.0,
			"0.025": 0.0
		}
	}
}
