{
	 "smiles": "ClC(C1=CC=CC=C1)(C1=CC=CC=C1)C1=CC=CC=C1", 
	 "Tm": 386.15, 
	 "num_atms": 35, 
	 "gaussian": { 
		 "optdone": 1, 
		 "sigma_profile": "yes", 
		 "theory": "DFT", 
		 "functional": "B3LYP", 
		 "basiset": "6-31G**", 
		 "properties": { 
			 "R2extent": 5836.3804, 
			 "electric_dipole_moment_norm": 2.32015752482, 
			 "electric_quadrupole_moment_norm": 8.39239540537, 
			 "total_energy": -1193.25302319, 
			 "HOMO_LUMO_gap": 0.20471, 
			 "cosmo_polarized_energy": -7.62, 
			 "cosmo_cavitation_energy": 38.77, 
			 "cosmo_dispersion_energy": -26.86, 
			 "cosmo_repulsion_energy": 2.07, 
			 "cosmo_total_nonelectrostatic_energy": 13.97, 
			 "SMD_solvation_energy": 6.2 
		},
		"coords": [
			{
				"x": -1.6352190442,
				"y": -0.8755044881,
				"z": -1.9592582952,
				"element": "Cl" 
			},
			{
				"x": -0.3199540022,
				"y": -0.8947478124,
				"z": -0.583488445,
				"element": "C" 
			},
			{
				"x": 0.0785640132,
				"y": -2.3635131552,
				"z": -0.3919275792,
				"element": "C" 
			},
			{
				"x": 0.2132519457,
				"y": -2.9161848855,
				"z": 0.8880131625,
				"element": "C" 
			},
			{
				"x": 0.6398570176,
				"y": -4.2373319964,
				"z": 1.0545427206,
				"element": "C" 
			},
			{
				"x": 0.9389499255,
				"y": -5.0255662254,
				"z": -0.0539934458,
				"element": "C" 
			},
			{
				"x": 0.815692071,
				"y": -4.4809625767,
				"z": -1.335564504,
				"element": "C" 
			},
			{
				"x": 0.3942551814,
				"y": -3.1647570971,
				"z": -1.5020264571,
				"element": "C" 
			},
			{
				"x": -0.9928994532,
				"y": -0.3017282583,
				"z": 0.6607642036,
				"element": "C" 
			},
			{
				"x": -0.3356068056,
				"y": 0.6432346417,
				"z": 1.4587588999,
				"element": "C" 
			},
			{
				"x": -0.9309275428,
				"y": 1.1301886878,
				"z": 2.6265142338,
				"element": "C" 
			},
			{
				"x": -2.19041229,
				"y": 0.6803226701,
				"z": 3.0150032581,
				"element": "C" 
			},
			{
				"x": -2.8514388919,
				"y": -0.2688386434,
				"z": 2.2298989385,
				"element": "C" 
			},
			{
				"x": -2.2580390751,
				"y": -0.7564884499,
				"z": 1.068974089,
				"element": "C" 
			},
			{
				"x": 0.8428499647,
				"y": -0.0321452439,
				"z": -1.0900199308,
				"element": "C" 
			},
			{
				"x": 2.1713299256,
				"y": -0.4530217323,
				"z": -0.9491935292,
				"element": "C" 
			},
			{
				"x": 3.227807598,
				"y": 0.3680384716,
				"z": -1.3552126879,
				"element": "C" 
			},
			{
				"x": 2.9735231379,
				"y": 1.6213263123,
				"z": -1.9067896197,
				"element": "C" 
			},
			{
				"x": 1.6514416488,
				"y": 2.0543023925,
				"z": -2.0440764394,
				"element": "C" 
			},
			{
				"x": 0.599264469,
				"y": 1.2388127815,
				"z": -1.6370776723,
				"element": "C" 
			},
			{
				"x": -0.0118919859,
				"y": -2.3174392058,
				"z": 1.7625529298,
				"element": "H" 
			},
			{
				"x": 0.7332729419,
				"y": -4.6451540187,
				"z": 2.0570107555,
				"element": "H" 
			},
			{
				"x": 1.2645240892,
				"y": -6.0537562342,
				"z": 0.075188941,
				"element": "H" 
			},
			{
				"x": 1.046058191,
				"y": -5.0842028342,
				"z": -2.2090673369,
				"element": "H" 
			},
			{
				"x": 0.2966787049,
				"y": -2.7530512592,
				"z": -2.5005073748,
				"element": "H" 
			},
			{
				"x": 0.646134543,
				"y": 1.0028218484,
				"z": 1.1743676337,
				"element": "H" 
			},
			{
				"x": -0.4033292625,
				"y": 1.8654531625,
				"z": 3.2273598342,
				"element": "H" 
			},
			{
				"x": -2.6553959676,
				"y": 1.063079517,
				"z": 3.9189661024,
				"element": "H" 
			},
			{
				"x": -3.8340428798,
				"y": -0.6288591614,
				"z": 2.5211864265,
				"element": "H" 
			},
			{
				"x": -2.7811472313,
				"y": -1.4886566219,
				"z": 0.4637471631,
				"element": "H" 
			},
			{
				"x": 2.3889213113,
				"y": -1.4235649142,
				"z": -0.519432449,
				"element": "H" 
			},
			{
				"x": 4.2497485842,
				"y": 0.0184553791,
				"z": -1.2393837023,
				"element": "H" 
			},
			{
				"x": 3.7940245475,
				"y": 2.2566365654,
				"z": -2.2277578668,
				"element": "H" 
			},
			{
				"x": 1.4385620198,
				"y": 3.0296798585,
				"z": -2.4722048828,
				"element": "H" 
			},
			{
				"x": -0.423107399,
				"y": 1.5814225258,
				"z": -1.752667074,
				"element": "H" 
			}
		],
		 "valence_orbital": [ 
			{
				"type": "occ",
				"energy": -0.25331,
				"method": "rhf"
			},
			{
				"type": "occ",
				"energy": -0.25329,
				"method": "rhf"
			},
			{
				"type": "occ",
				"energy": -0.24474,
				"method": "rhf"
			},
			{
				"type": "occ",
				"energy": -0.24471,
				"method": "rhf"
			},
			{
				"type": "occ",
				"energy": -0.24322,
				"method": "rhf"
			},
			{
				"type": "unocc",
				"energy": -0.03851,
				"method": "rhf"
			},
			{
				"type": "unocc",
				"energy": -0.01393,
				"method": "rhf"
			},
			{
				"type": "unocc",
				"energy": -0.00945,
				"method": "rhf"
			},
			{
				"type": "unocc",
				"energy": -0.00943,
				"method": "rhf"
			},
			{
				"type": "unocc",
				"energy": 0.00501,
				"method": "rhf"
			}
		],
		"cosmo_sigma_profile": { 
			"-0.025": 0.0,
			"-0.024": 0.0,
			"-0.023": 0.0,
			"-0.022": 0.0,
			"-0.021": 0.0,
			"-0.02": 0.0,
			"-0.019": 0.0,
			"-0.018": 0.0,
			"-0.017": 0.0,
			"-0.016": 0.0,
			"-0.015": 0.0,
			"-0.014": 0.0,
			"-0.013": 0.0,
			"-0.012": 0.0,
			"-0.011": 0.0,
			"-0.01": 0.0,
			"-0.009": 0.0,
			"-0.008": 0.0,
			"-0.007": 0.293536479402,
			"-0.006": 14.3110264861,
			"-0.005": 26.7127679236,
			"-0.004": 30.7925360726,
			"-0.003": 26.0949703781,
			"-0.002": 20.0045766417,
			"-0.001": 24.8517683845,
			"0.0": 22.2568680897,
			"0.001": 24.0145535266,
			"0.002": 27.4600046603,
			"0.003": 25.7019435315,
			"0.004": 28.9135901585,
			"0.005": 31.0797025445,
			"0.006": 8.53218130892,
			"0.007": 1.50676454798,
			"0.008": 0.0,
			"0.009": 0.0,
			"0.01": 0.0,
			"0.011": 0.0,
			"0.012": 0.0,
			"0.013": 0.0,
			"0.014": 0.0,
			"0.015": 0.0,
			"0.016": 0.0,
			"0.017": 0.0,
			"0.018": 0.0,
			"0.019": 0.0,
			"0.02": 0.0,
			"0.021": 0.0,
			"0.022": 0.0,
			"0.023": 0.0,
			"0.024": 0.0,
			"0.025": 0.0
		}
	}
}
