{
	 "smiles": "CC(=O)OC1=CC=CC=C1C1=CC=CC=C1", 
	 "Tm": 338.15, 
	 "num_atms": 28, 
	 "gaussian": { 
		 "optdone": 1, 
		 "sigma_profile": "yes", 
		 "theory": "DFT", 
		 "functional": "B3LYP", 
		 "basiset": "6-31G**", 
		 "properties": { 
			 "R2extent": 3442.1967, 
			 "electric_dipole_moment_norm": 1.54919174733, 
			 "electric_quadrupole_moment_norm": 12.8594363687, 
			 "total_energy": -691.184900169, 
			 "HOMO_LUMO_gap": 0.2016, 
			 "cosmo_polarized_energy": -10.01, 
			 "cosmo_cavitation_energy": 32.52, 
			 "cosmo_dispersion_energy": -22.28, 
			 "cosmo_repulsion_energy": 1.76, 
			 "cosmo_total_nonelectrostatic_energy": 11.99, 
			 "SMD_solvation_energy": 6.58 
		},
		"coords": [
			{
				"x": 0.286155243,
				"y": -3.2377661963,
				"z": -0.8605050055,
				"element": "C" 
			},
			{
				"x": 0.2879537211,
				"y": -1.7947901385,
				"z": -1.2967362399,
				"element": "C" 
			},
			{
				"x": 1.1848983165,
				"y": -1.2156562574,
				"z": -1.8536245547,
				"element": "O" 
			},
			{
				"x": -0.9045948744,
				"y": -1.20164489,
				"z": -0.9505719594,
				"element": "O" 
			},
			{
				"x": -1.0446070403,
				"y": 0.1693206388,
				"z": -1.1971141317,
				"element": "C" 
			},
			{
				"x": -1.7079222392,
				"y": 0.5546317378,
				"z": -2.3574929896,
				"element": "C" 
			},
			{
				"x": -1.9101721914,
				"y": 1.9082777105,
				"z": -2.6236120036,
				"element": "C" 
			},
			{
				"x": -1.4372408268,
				"y": 2.8649703218,
				"z": -1.7248851728,
				"element": "C" 
			},
			{
				"x": -0.7745138238,
				"y": 2.463747096,
				"z": -0.5661601213,
				"element": "C" 
			},
			{
				"x": -0.5628403546,
				"y": 1.1069746437,
				"z": -0.2685724191,
				"element": "C" 
			},
			{
				"x": 0.14645341,
				"y": 0.7144176704,
				"z": 0.9786244581,
				"element": "C" 
			},
			{
				"x": 1.3434569654,
				"y": 1.3554935079,
				"z": 1.3369061521,
				"element": "C" 
			},
			{
				"x": 2.0042883816,
				"y": 1.0273487819,
				"z": 2.5205037532,
				"element": "C" 
			},
			{
				"x": 1.4800726505,
				"y": 0.0516895664,
				"z": 3.369687712,
				"element": "C" 
			},
			{
				"x": 0.2902408858,
				"y": -0.5934702052,
				"z": 3.0253293522,
				"element": "C" 
			},
			{
				"x": -0.3707367334,
				"y": -0.2672482959,
				"z": 1.8414929568,
				"element": "C" 
			},
			{
				"x": 1.1471812246,
				"y": -3.7477654766,
				"z": -1.2913208566,
				"element": "H" 
			},
			{
				"x": 0.346070921,
				"y": -3.279891008,
				"z": 0.2319116651,
				"element": "H" 
			},
			{
				"x": -0.641626782,
				"y": -3.7315611068,
				"z": -1.1601222172,
				"element": "H" 
			},
			{
				"x": -2.0548577054,
				"y": -0.2133791346,
				"z": -3.0409845031,
				"element": "H" 
			},
			{
				"x": -2.4305294181,
				"y": 2.2100713051,
				"z": -3.5274844572,
				"element": "H" 
			},
			{
				"x": -1.5916156434,
				"y": 3.9220640978,
				"z": -1.9193784792,
				"element": "H" 
			},
			{
				"x": -0.426072857,
				"y": 3.2092504753,
				"z": 0.1423628418,
				"element": "H" 
			},
			{
				"x": 1.7665572417,
				"y": 2.1005448239,
				"z": 0.6696613408,
				"element": "H" 
			},
			{
				"x": 2.9331311033,
				"y": 1.5299736268,
				"z": 2.7749210544,
				"element": "H" 
			},
			{
				"x": 1.9942036975,
				"y": -0.2048229297,
				"z": 4.2914967781,
				"element": "H" 
			},
			{
				"x": -0.1301787301,
				"y": -1.3479148199,
				"z": 3.6846273656,
				"element": "H" 
			},
			{
				"x": -1.300154542,
				"y": -0.7650655449,
				"z": 1.586039681,
				"element": "H" 
			}
		],
		 "valence_orbital": [ 
			{
				"type": "occ",
				"energy": -0.27388,
				"method": "rhf"
			},
			{
				"type": "occ",
				"energy": -0.27152,
				"method": "rhf"
			},
			{
				"type": "occ",
				"energy": -0.25031,
				"method": "rhf"
			},
			{
				"type": "occ",
				"energy": -0.24905,
				"method": "rhf"
			},
			{
				"type": "occ",
				"energy": -0.2282,
				"method": "rhf"
			},
			{
				"type": "unocc",
				"energy": -0.0266,
				"method": "rhf"
			},
			{
				"type": "unocc",
				"energy": -0.00436,
				"method": "rhf"
			},
			{
				"type": "unocc",
				"energy": -0.00113,
				"method": "rhf"
			},
			{
				"type": "unocc",
				"energy": 0.01164,
				"method": "rhf"
			},
			{
				"type": "unocc",
				"energy": 0.0217,
				"method": "rhf"
			}
		],
		"cosmo_sigma_profile": { 
			"-0.025": 0.0,
			"-0.024": 0.0,
			"-0.023": 0.0,
			"-0.022": 0.0,
			"-0.021": 0.0,
			"-0.02": 0.0,
			"-0.019": 0.0,
			"-0.018": 0.0,
			"-0.017": 0.0,
			"-0.016": 0.0,
			"-0.015": 0.0,
			"-0.014": 0.0,
			"-0.013": 0.0,
			"-0.012": 0.0,
			"-0.011": 0.0,
			"-0.01": 0.0,
			"-0.009": 0.0,
			"-0.008": 0.0,
			"-0.007": 2.43666580264,
			"-0.006": 15.444597366,
			"-0.005": 23.5159322601,
			"-0.004": 28.1260704091,
			"-0.003": 25.8479358,
			"-0.002": 23.2197122677,
			"-0.001": 16.4043754203,
			"0.0": 15.3465474119,
			"0.001": 14.331055493,
			"0.002": 17.1888212084,
			"0.003": 17.5613594876,
			"0.004": 18.4999326704,
			"0.005": 17.9040537203,
			"0.006": 6.23075488036,
			"0.007": 2.55727190093,
			"0.008": 2.3343170572,
			"0.009": 2.52724527203,
			"0.01": 2.77204587732,
			"0.011": 4.47451682481,
			"0.012": 3.25346370451,
			"0.013": 0.188404664349,
			"0.014": 0.0,
			"0.015": 0.0,
			"0.016": 0.0,
			"0.017": 0.0,
			"0.018": 0.0,
			"0.019": 0.0,
			"0.02": 0.0,
			"0.021": 0.0,
			"0.022": 0.0,
			"0.023": 0.0,
			"0.024": 0.0,
			"0.025": 0.0
		}
	}
}
