{
	 "smiles": "NC(CC(F)(F)F)C(O)=O", 
	 "Tm": 530.15, 
	 "num_atms": 16, 
	 "gaussian": { 
		 "optdone": 1, 
		 "sigma_profile": "yes", 
		 "theory": "DFT", 
		 "functional": "B3LYP", 
		 "basiset": "6-31G**", 
		 "properties": { 
			 "R2extent": 1822.0545, 
			 "electric_dipole_moment_norm": 6.05955659846, 
			 "electric_quadrupole_moment_norm": 17.9926306434, 
			 "total_energy": -660.777434187, 
			 "HOMO_LUMO_gap": 0.26897, 
			 "cosmo_polarized_energy": -17.4, 
			 "cosmo_cavitation_energy": 21.14, 
			 "cosmo_dispersion_energy": -15.06, 
			 "cosmo_repulsion_energy": 1.2, 
			 "cosmo_total_nonelectrostatic_energy": 7.28, 
			 "SMD_solvation_energy": 5.45 
		},
		"coords": [
			{
				"x": 2.3996953986,
				"y": -0.2846779269,
				"z": -1.0134786194,
				"element": "N" 
			},
			{
				"x": 1.4586141928,
				"y": -1.0015677449,
				"z": -0.1360714316,
				"element": "C" 
			},
			{
				"x": 0.3578721907,
				"y": -0.009007985,
				"z": 0.2846247679,
				"element": "C" 
			},
			{
				"x": -0.6578000307,
				"y": -0.5361814365,
				"z": 1.2812708681,
				"element": "C" 
			},
			{
				"x": -1.4142457005,
				"y": 0.489184813,
				"z": 1.7392581343,
				"element": "F" 
			},
			{
				"x": -0.0583928101,
				"y": -1.1033092562,
				"z": 2.350096308,
				"element": "F" 
			},
			{
				"x": -1.4917779948,
				"y": -1.4401712984,
				"z": 0.7424263819,
				"element": "F" 
			},
			{
				"x": 0.8780582531,
				"y": -2.1903876259,
				"z": -0.936683616,
				"element": "C" 
			},
			{
				"x": 0.8460429809,
				"y": -1.9707113808,
				"z": -2.2629093778,
				"element": "O" 
			},
			{
				"x": 0.4826554677,
				"y": -3.2049569155,
				"z": -0.4203406692,
				"element": "O" 
			},
			{
				"x": 2.5961054804,
				"y": 0.6508069745,
				"z": -0.6684365485,
				"element": "H" 
			},
			{
				"x": 3.2878435109,
				"y": -0.7776860913,
				"z": -1.0635908392,
				"element": "H" 
			},
			{
				"x": 1.9167752997,
				"y": -1.4224433192,
				"z": 0.7662282572,
				"element": "H" 
			},
			{
				"x": -0.1878459989,
				"y": 0.3514357234,
				"z": -0.5925371086,
				"element": "H" 
			},
			{
				"x": 0.8304632094,
				"y": 0.8572846361,
				"z": 0.7605584038,
				"element": "H" 
			},
			{
				"x": 1.3337365511,
				"y": -1.1275111662,
				"z": -2.400114911,
				"element": "H" 
			}
		],
		 "valence_orbital": [ 
			{
				"type": "occ",
				"energy": -0.37693,
				"method": "rhf"
			},
			{
				"type": "occ",
				"energy": -0.37012,
				"method": "rhf"
			},
			{
				"type": "occ",
				"energy": -0.31004,
				"method": "rhf"
			},
			{
				"type": "occ",
				"energy": -0.30282,
				"method": "rhf"
			},
			{
				"type": "occ",
				"energy": -0.26488,
				"method": "rhf"
			},
			{
				"type": "unocc",
				"energy": 0.00409,
				"method": "rhf"
			},
			{
				"type": "unocc",
				"energy": 0.04493,
				"method": "rhf"
			},
			{
				"type": "unocc",
				"energy": 0.08316,
				"method": "rhf"
			},
			{
				"type": "unocc",
				"energy": 0.1003,
				"method": "rhf"
			},
			{
				"type": "unocc",
				"energy": 0.12276,
				"method": "rhf"
			}
		],
		"cosmo_sigma_profile": { 
			"-0.025": 0.0,
			"-0.024": 0.0,
			"-0.023": 0.0,
			"-0.022": 0.0,
			"-0.021": 0.0,
			"-0.02": 0.0,
			"-0.019": 0.0,
			"-0.018": 0.0,
			"-0.017": 0.0,
			"-0.016": 0.0,
			"-0.015": 0.0,
			"-0.014": 0.0,
			"-0.013": 1.00358937884,
			"-0.012": 4.02008965739,
			"-0.011": 5.0339652315,
			"-0.01": 4.19972446786,
			"-0.009": 4.7595717346,
			"-0.008": 7.39412662677,
			"-0.007": 8.05157562717,
			"-0.006": 9.52857585492,
			"-0.005": 7.75330624926,
			"-0.004": 5.7873543674,
			"-0.003": 4.75969080055,
			"-0.002": 4.52322785988,
			"-0.001": 4.92108145678,
			"0.0": 4.80601884441,
			"0.001": 6.34780550654,
			"0.002": 14.5802933591,
			"0.003": 27.1615841172,
			"0.004": 6.39539823859,
			"0.005": 3.70305860141,
			"0.006": 3.4505559344,
			"0.007": 3.82639634738,
			"0.008": 3.09615107279,
			"0.009": 3.70861349004,
			"0.01": 5.40350172111,
			"0.011": 5.27450917386,
			"0.012": 4.89842590007,
			"0.013": 1.83956066277,
			"0.014": 0.0654562984049,
			"0.015": 0.0,
			"0.016": 0.0,
			"0.017": 0.0,
			"0.018": 0.0,
			"0.019": 0.0,
			"0.02": 0.0,
			"0.021": 0.0,
			"0.022": 0.0,
			"0.023": 0.0,
			"0.024": 0.0,
			"0.025": 0.0
		}
	}
}
