{
	 "smiles": "CC(C)C(=O)N1CCC(CC1)C(O)=O", 
	 "Tm": 376.15, 
	 "num_atms": 31, 
	 "gaussian": { 
		 "optdone": 1, 
		 "sigma_profile": "yes", 
		 "theory": "DFT", 
		 "functional": "B3LYP", 
		 "basiset": "6-31G**", 
		 "properties": { 
			 "R2extent": 4361.5445, 
			 "electric_dipole_moment_norm": 2.87185967798, 
			 "electric_quadrupole_moment_norm": 28.542844987, 
			 "total_energy": -671.763224658, 
			 "HOMO_LUMO_gap": 0.23631, 
			 "cosmo_polarized_energy": -19.87, 
			 "cosmo_cavitation_energy": 32.36, 
			 "cosmo_dispersion_energy": -22.58, 
			 "cosmo_repulsion_energy": 1.79, 
			 "cosmo_total_nonelectrostatic_energy": 11.57, 
			 "SMD_solvation_energy": 5.98 
		},
		"coords": [
			{
				"x": 0.0475947596,
				"y": 0.3308768892,
				"z": -1.9432515801,
				"element": "C" 
			},
			{
				"x": 0.1419801365,
				"y": -1.1849410879,
				"z": -1.6716870947,
				"element": "C" 
			},
			{
				"x": -0.4321512637,
				"y": -1.9962788133,
				"z": -2.840892675,
				"element": "C" 
			},
			{
				"x": -0.6430710111,
				"y": -1.4937965128,
				"z": -0.3898355485,
				"element": "C" 
			},
			{
				"x": -1.8657550171,
				"y": -1.6239910815,
				"z": -0.4320665507,
				"element": "O" 
			},
			{
				"x": 0.0478196133,
				"y": -1.574004364,
				"z": 0.7998446181,
				"element": "N" 
			},
			{
				"x": 1.501982616,
				"y": -1.3740115367,
				"z": 0.9355160629,
				"element": "C" 
			},
			{
				"x": 1.9665816526,
				"y": -1.7133395321,
				"z": 2.3543878468,
				"element": "C" 
			},
			{
				"x": 1.2440651257,
				"y": -0.8837798226,
				"z": 3.4316761948,
				"element": "C" 
			},
			{
				"x": -0.264456461,
				"y": -0.6836590305,
				"z": 3.0731260075,
				"element": "C" 
			},
			{
				"x": -0.7303144776,
				"y": -1.7083192399,
				"z": 2.0354461209,
				"element": "C" 
			},
			{
				"x": 1.936103896,
				"y": 0.4623343085,
				"z": 3.6541641519,
				"element": "C" 
			},
			{
				"x": 1.3608200368,
				"y": 1.2642247912,
				"z": 4.5905745582,
				"element": "O" 
			},
			{
				"x": 2.9200034504,
				"y": 0.8399975575,
				"z": 3.0668244865,
				"element": "O" 
			},
			{
				"x": -1.0005191082,
				"y": 0.6269795515,
				"z": -2.0498417033,
				"element": "H" 
			},
			{
				"x": 0.575003894,
				"y": 0.5876266732,
				"z": -2.8674784314,
				"element": "H" 
			},
			{
				"x": 0.4859375675,
				"y": 0.9204793728,
				"z": -1.130906988,
				"element": "H" 
			},
			{
				"x": 1.1976358907,
				"y": -1.4452499143,
				"z": -1.5504643176,
				"element": "H" 
			},
			{
				"x": -1.4999654362,
				"y": -1.7941840945,
				"z": -2.9500616437,
				"element": "H" 
			},
			{
				"x": -0.31098114,
				"y": -3.0719856302,
				"z": -2.6774942304,
				"element": "H" 
			},
			{
				"x": 0.0780330939,
				"y": -1.7342749021,
				"z": -3.7734904899,
				"element": "H" 
			},
			{
				"x": 1.7806598243,
				"y": -0.3370109296,
				"z": 0.7068852341,
				"element": "H" 
			},
			{
				"x": 2.0368518472,
				"y": -2.0185437445,
				"z": 0.2313263463,
				"element": "H" 
			},
			{
				"x": 3.0420284111,
				"y": -1.5337400123,
				"z": 2.418652582,
				"element": "H" 
			},
			{
				"x": 1.7972101243,
				"y": -2.7780467574,
				"z": 2.5450306078,
				"element": "H" 
			},
			{
				"x": 1.3102852983,
				"y": -1.4269472394,
				"z": 4.3847489609,
				"element": "H" 
			},
			{
				"x": -0.4272776993,
				"y": 0.3173231465,
				"z": 2.657051063,
				"element": "H" 
			},
			{
				"x": -0.8951989222,
				"y": -0.7646029036,
				"z": 3.966580889,
				"element": "H" 
			},
			{
				"x": -1.7748250547,
				"y": -1.5516396561,
				"z": 1.7657395839,
				"element": "H" 
			},
			{
				"x": -0.645729244,
				"y": -2.7270962721,
				"z": 2.4386667888,
				"element": "H" 
			},
			{
				"x": 0.5854475968,
				"y": 0.831500787,
				"z": 4.9755291499,
				"element": "H" 
			}
		],
		 "valence_orbital": [ 
			{
				"type": "occ",
				"energy": -0.32855,
				"method": "rhf"
			},
			{
				"type": "occ",
				"energy": -0.32281,
				"method": "rhf"
			},
			{
				"type": "occ",
				"energy": -0.27834,
				"method": "rhf"
			},
			{
				"type": "occ",
				"energy": -0.24086,
				"method": "rhf"
			},
			{
				"type": "occ",
				"energy": -0.23565,
				"method": "rhf"
			},
			{
				"type": "unocc",
				"energy": 0.00066,
				"method": "rhf"
			},
			{
				"type": "unocc",
				"energy": 0.02584,
				"method": "rhf"
			},
			{
				"type": "unocc",
				"energy": 0.04475,
				"method": "rhf"
			},
			{
				"type": "unocc",
				"energy": 0.07058,
				"method": "rhf"
			},
			{
				"type": "unocc",
				"energy": 0.08749,
				"method": "rhf"
			}
		],
		"cosmo_sigma_profile": { 
			"-0.025": 0.0,
			"-0.024": 0.0,
			"-0.023": 0.0,
			"-0.022": 0.0,
			"-0.021": 0.0,
			"-0.02": 0.0,
			"-0.019": 0.0501381508596,
			"-0.018": 0.741301325077,
			"-0.017": 0.919561311617,
			"-0.016": 1.24320174903,
			"-0.015": 1.16288980055,
			"-0.014": 0.943503422875,
			"-0.013": 0.782229811003,
			"-0.012": 1.3669841137,
			"-0.011": 1.09656269016,
			"-0.01": 1.34913561022,
			"-0.009": 1.06393578114,
			"-0.008": 1.35329099207,
			"-0.007": 3.69256553292,
			"-0.006": 10.965806991,
			"-0.005": 16.492083824,
			"-0.004": 20.5733936136,
			"-0.003": 28.6151140999,
			"-0.002": 26.7288343734,
			"-0.001": 25.0309160139,
			"0.0": 19.8995081561,
			"0.001": 18.5124525597,
			"0.002": 8.66190369083,
			"0.003": 4.56534985698,
			"0.004": 4.02080590768,
			"0.005": 4.32363233467,
			"0.006": 4.18293576779,
			"0.007": 4.49318443685,
			"0.008": 4.6235154213,
			"0.009": 4.37988273139,
			"0.01": 6.00980255333,
			"0.011": 6.79716263612,
			"0.012": 6.20727184294,
			"0.013": 3.60289383412,
			"0.014": 4.36661796636,
			"0.015": 2.06249487967,
			"0.016": 0.0,
			"0.017": 0.0,
			"0.018": 0.0,
			"0.019": 0.0,
			"0.02": 0.0,
			"0.021": 0.0,
			"0.022": 0.0,
			"0.023": 0.0,
			"0.024": 0.0,
			"0.025": 0.0
		}
	}
}
