{
	 "smiles": "ClCC(=O)C(Cl)(Cl)Cl", 
	 "Tm": 338.15, 
	 "num_atms": 10, 
	 "gaussian": { 
		 "optdone": 1, 
		 "sigma_profile": "yes", 
		 "theory": "DFT", 
		 "functional": "B3LYP", 
		 "basiset": "6-31G**", 
		 "properties": { 
			 "R2extent": 3023.9046, 
			 "electric_dipole_moment_norm": 1.79580188217, 
			 "electric_quadrupole_moment_norm": 7.19071701084, 
			 "total_energy": -2031.47632196, 
			 "HOMO_LUMO_gap": 0.19952, 
			 "cosmo_polarized_energy": -6.3, 
			 "cosmo_cavitation_energy": 21.29, 
			 "cosmo_dispersion_energy": -15.87, 
			 "cosmo_repulsion_energy": 1.32, 
			 "cosmo_total_nonelectrostatic_energy": 6.74, 
			 "SMD_solvation_energy": 3.2 
		},
		"coords": [
			{
				"x": 2.1375940386,
				"y": -0.2636882299,
				"z": 3.5351353834,
				"element": "Cl" 
			},
			{
				"x": 2.2810877259,
				"y": 0.217387051,
				"z": 1.8038785118,
				"element": "C" 
			},
			{
				"x": 1.0323028861,
				"y": -0.052940067,
				"z": 0.9671900322,
				"element": "C" 
			},
			{
				"x": 0.4646244837,
				"y": 0.8473921194,
				"z": 0.4062051662,
				"element": "O" 
			},
			{
				"x": 0.492812575,
				"y": -1.5236586917,
				"z": 0.7949924505,
				"element": "C" 
			},
			{
				"x": -0.2806953416,
				"y": -1.6848839047,
				"z": -0.8067945826,
				"element": "Cl" 
			},
			{
				"x": 1.8136164275,
				"y": -2.73619561,
				"z": 0.9379134851,
				"element": "Cl" 
			},
			{
				"x": -0.7310319291,
				"y": -1.7897603485,
				"z": 2.087902548,
				"element": "Cl" 
			},
			{
				"x": 3.1403502442,
				"y": -0.3125365139,
				"z": 1.3903067429,
				"element": "H" 
			},
			{
				"x": 2.4461388897,
				"y": 1.2928841952,
				"z": 1.7693702625,
				"element": "H" 
			}
		],
		 "valence_orbital": [ 
			{
				"type": "occ",
				"energy": -0.33553,
				"method": "rhf"
			},
			{
				"type": "occ",
				"energy": -0.33248,
				"method": "rhf"
			},
			{
				"type": "occ",
				"energy": -0.32019,
				"method": "rhf"
			},
			{
				"type": "occ",
				"energy": -0.31807,
				"method": "rhf"
			},
			{
				"type": "occ",
				"energy": -0.29296,
				"method": "rhf"
			},
			{
				"type": "unocc",
				"energy": -0.09344,
				"method": "rhf"
			},
			{
				"type": "unocc",
				"energy": -0.05403,
				"method": "rhf"
			},
			{
				"type": "unocc",
				"energy": -0.01347,
				"method": "rhf"
			},
			{
				"type": "unocc",
				"energy": -0.00356,
				"method": "rhf"
			},
			{
				"type": "unocc",
				"energy": 0.03084,
				"method": "rhf"
			}
		],
		"cosmo_sigma_profile": { 
			"-0.025": 0.0,
			"-0.024": 0.0,
			"-0.023": 0.0,
			"-0.022": 0.0,
			"-0.021": 0.0,
			"-0.02": 0.0,
			"-0.019": 0.0,
			"-0.018": 0.0,
			"-0.017": 0.0,
			"-0.016": 0.0,
			"-0.015": 0.0,
			"-0.014": 0.0,
			"-0.013": 0.0,
			"-0.012": 0.224748073202,
			"-0.011": 1.14286607412,
			"-0.01": 3.38682473139,
			"-0.009": 4.51173977614,
			"-0.008": 4.36527500579,
			"-0.007": 3.92666996066,
			"-0.006": 3.66804257205,
			"-0.005": 5.68382786042,
			"-0.004": 7.60244651969,
			"-0.003": 9.58728198957,
			"-0.002": 11.074007605,
			"-0.001": 12.351269719,
			"0.0": 15.1992580771,
			"0.001": 18.0681509683,
			"0.002": 30.9822666194,
			"0.003": 15.6631559992,
			"0.004": 13.3900906597,
			"0.005": 7.0532869493,
			"0.006": 2.24695882994,
			"0.007": 3.0256468313,
			"0.008": 4.43441359778,
			"0.009": 1.24716693398,
			"0.01": 0.0,
			"0.011": 0.0,
			"0.012": 0.0,
			"0.013": 0.0,
			"0.014": 0.0,
			"0.015": 0.0,
			"0.016": 0.0,
			"0.017": 0.0,
			"0.018": 0.0,
			"0.019": 0.0,
			"0.02": 0.0,
			"0.021": 0.0,
			"0.022": 0.0,
			"0.023": 0.0,
			"0.024": 0.0,
			"0.025": 0.0
		}
	}
}
