{
	 "smiles": "COC(=O)C(CCSC)NC(=O)C1=CC=C(C=C1)C(F)(F)F", 
	 "Tm": 368.15, 
	 "num_atms": 38, 
	 "gaussian": { 
		 "optdone": 1, 
		 "sigma_profile": "yes", 
		 "theory": "DFT", 
		 "functional": "B3LYP", 
		 "basiset": "6-31G**", 
		 "properties": { 
			 "R2extent": 9570.8207, 
			 "electric_dipole_moment_norm": 3.61373961846, 
			 "electric_quadrupole_moment_norm": 20.2511523751, 
			 "total_energy": -1521.2874941, 
			 "HOMO_LUMO_gap": 0.17919, 
			 "cosmo_polarized_energy": -15.94, 
			 "cosmo_cavitation_energy": 44.0, 
			 "cosmo_dispersion_energy": -29.47, 
			 "cosmo_repulsion_energy": 2.19, 
			 "cosmo_total_nonelectrostatic_energy": 16.72, 
			 "SMD_solvation_energy": 9.91 
		},
		"coords": [
			{
				"x": 0.3795061677,
				"y": -0.5481916903,
				"z": -4.6619674885,
				"element": "C" 
			},
			{
				"x": -0.3532440031,
				"y": -1.0638531868,
				"z": -3.5350527069,
				"element": "O" 
			},
			{
				"x": -0.0452673234,
				"y": -0.5261482258,
				"z": -2.3451593479,
				"element": "C" 
			},
			{
				"x": 0.7750504093,
				"y": 0.3586440785,
				"z": -2.1938911051,
				"element": "O" 
			},
			{
				"x": -0.9461110645,
				"y": -1.1118046263,
				"z": -1.244508678,
				"element": "C" 
			},
			{
				"x": -0.2438520185,
				"y": -1.197810903,
				"z": 0.1197600112,
				"element": "C" 
			},
			{
				"x": 0.5922192589,
				"y": -2.4749180509,
				"z": 0.2899286975,
				"element": "C" 
			},
			{
				"x": 1.8984679335,
				"y": -2.7856068607,
				"z": -0.9625392079,
				"element": "S" 
			},
			{
				"x": 3.0732454603,
				"y": -1.4365428485,
				"z": -0.5899962754,
				"element": "C" 
			},
			{
				"x": -2.2311211979,
				"y": -0.3879200951,
				"z": -1.2652312043,
				"element": "N" 
			},
			{
				"x": -2.8381539376,
				"y": 0.5413827037,
				"z": -0.4423087643,
				"element": "C" 
			},
			{
				"x": -4.0601624619,
				"y": 0.6554675907,
				"z": -0.4813560011,
				"element": "O" 
			},
			{
				"x": -2.0388401609,
				"y": 1.4375890646,
				"z": 0.461267115,
				"element": "C" 
			},
			{
				"x": -0.8249726708,
				"y": 2.0308861714,
				"z": 0.0919010294,
				"element": "C" 
			},
			{
				"x": -0.1997418873,
				"y": 2.9358512187,
				"z": 0.9497363072,
				"element": "C" 
			},
			{
				"x": -0.7787445606,
				"y": 3.2483977744,
				"z": 2.1809732135,
				"element": "C" 
			},
			{
				"x": -1.9983848228,
				"y": 2.6710311033,
				"z": 2.5496928795,
				"element": "C" 
			},
			{
				"x": -2.6306798957,
				"y": 1.7846573451,
				"z": 1.6852146438,
				"element": "C" 
			},
			{
				"x": -0.0659376383,
				"y": 4.1689341163,
				"z": 3.13521453,
				"element": "C" 
			},
			{
				"x": 0.7534505817,
				"y": 3.4812716082,
				"z": 3.9661213521,
				"element": "F" 
			},
			{
				"x": -0.9302161521,
				"y": 4.8530540263,
				"z": 3.9162654724,
				"element": "F" 
			},
			{
				"x": 0.7016506267,
				"y": 5.0722900951,
				"z": 2.4874532054,
				"element": "F" 
			},
			{
				"x": 1.4463018956,
				"y": -0.7505317799,
				"z": -4.541970638,
				"element": "H" 
			},
			{
				"x": -0.0144245116,
				"y": -1.0720857612,
				"z": -5.5321329086,
				"element": "H" 
			},
			{
				"x": 0.2270152874,
				"y": 0.5293167966,
				"z": -4.757195907,
				"element": "H" 
			},
			{
				"x": -1.1918988951,
				"y": -2.1287264088,
				"z": -1.5663549452,
				"element": "H" 
			},
			{
				"x": -1.0055563508,
				"y": -1.1946683576,
				"z": 0.9070910351,
				"element": "H" 
			},
			{
				"x": 0.3776922005,
				"y": -0.3148476636,
				"z": 0.2781002872,
				"element": "H" 
			},
			{
				"x": 1.0538686065,
				"y": -2.4813897967,
				"z": 1.2828520614,
				"element": "H" 
			},
			{
				"x": -0.0507201418,
				"y": -3.3598320283,
				"z": 0.2295591193,
				"element": "H" 
			},
			{
				"x": 3.9591354851,
				"y": -1.6219749358,
				"z": -1.2015099388,
				"element": "H" 
			},
			{
				"x": 3.365282014,
				"y": -1.4575954668,
				"z": 0.4634936272,
				"element": "H" 
			},
			{
				"x": 2.6539911242,
				"y": -0.4643694787,
				"z": -0.8562612622,
				"element": "H" 
			},
			{
				"x": -2.9355566662,
				"y": -0.8213576842,
				"z": -1.8495093646,
				"element": "H" 
			},
			{
				"x": -0.3625736344,
				"y": 1.797179721,
				"z": -0.8598637433,
				"element": "H" 
			},
			{
				"x": 0.7324034663,
				"y": 3.4061756454,
				"z": 0.6560741355,
				"element": "H" 
			},
			{
				"x": -2.4546794698,
				"y": 2.9314138253,
				"z": 3.4985624006,
				"element": "H" 
			},
			{
				"x": -3.5953410528,
				"y": 1.3580329643,
				"z": 1.9370483638,
				"element": "H" 
			}
		],
		 "valence_orbital": [ 
			{
				"type": "occ",
				"energy": -0.27629,
				"method": "rhf"
			},
			{
				"type": "occ",
				"energy": -0.26972,
				"method": "rhf"
			},
			{
				"type": "occ",
				"energy": -0.26163,
				"method": "rhf"
			},
			{
				"type": "occ",
				"energy": -0.25093,
				"method": "rhf"
			},
			{
				"type": "occ",
				"energy": -0.23038,
				"method": "rhf"
			},
			{
				"type": "unocc",
				"energy": -0.05119,
				"method": "rhf"
			},
			{
				"type": "unocc",
				"energy": -0.01963,
				"method": "rhf"
			},
			{
				"type": "unocc",
				"energy": -0.0108,
				"method": "rhf"
			},
			{
				"type": "unocc",
				"energy": 0.03382,
				"method": "rhf"
			},
			{
				"type": "unocc",
				"energy": 0.03564,
				"method": "rhf"
			}
		],
		"cosmo_sigma_profile": { 
			"-0.025": 0.0,
			"-0.024": 0.0,
			"-0.023": 0.0,
			"-0.022": 0.0,
			"-0.021": 0.0,
			"-0.02": 0.0,
			"-0.019": 0.0,
			"-0.018": 0.0,
			"-0.017": 0.0,
			"-0.016": 0.0,
			"-0.015": 0.0,
			"-0.014": 0.435378238626,
			"-0.013": 1.35282619727,
			"-0.012": 0.730801053838,
			"-0.011": 1.14024036065,
			"-0.01": 1.07965480559,
			"-0.009": 1.2260705772,
			"-0.008": 2.71438954386,
			"-0.007": 8.08282686134,
			"-0.006": 18.3030213291,
			"-0.005": 27.1985152042,
			"-0.004": 28.5055977934,
			"-0.003": 27.904332096,
			"-0.002": 27.1862110213,
			"-0.001": 24.3039458458,
			"0.0": 24.5652853937,
			"0.001": 23.6206781935,
			"0.002": 34.8541485696,
			"0.003": 37.6329065752,
			"0.004": 10.6707399588,
			"0.005": 6.70061102344,
			"0.006": 8.88198552376,
			"0.007": 6.55923515112,
			"0.008": 5.72039887741,
			"0.009": 3.67694700212,
			"0.01": 3.58853207949,
			"0.011": 4.05983171466,
			"0.012": 2.82690603907,
			"0.013": 5.27523892038,
			"0.014": 1.67408544066,
			"0.015": 0.0,
			"0.016": 0.0,
			"0.017": 0.0,
			"0.018": 0.0,
			"0.019": 0.0,
			"0.02": 0.0,
			"0.021": 0.0,
			"0.022": 0.0,
			"0.023": 0.0,
			"0.024": 0.0,
			"0.025": 0.0
		}
	}
}
