{
	 "smiles": "ClC1=C(Cl)C=C(C=C1)C(=O)C1CC1", 
	 "Tm": 303.15, 
	 "num_atms": 21, 
	 "gaussian": { 
		 "optdone": 1, 
		 "sigma_profile": "yes", 
		 "theory": "DFT", 
		 "functional": "B3LYP", 
		 "basiset": "6-31G**", 
		 "properties": { 
			 "R2extent": 4593.0282, 
			 "electric_dipole_moment_norm": 1.61641314644, 
			 "electric_quadrupole_moment_norm": 12.7599597633, 
			 "total_energy": -1381.46522254, 
			 "HOMO_LUMO_gap": 0.1868, 
			 "cosmo_polarized_energy": -7.66, 
			 "cosmo_cavitation_energy": 28.73, 
			 "cosmo_dispersion_energy": -21.28, 
			 "cosmo_repulsion_energy": 1.68, 
			 "cosmo_total_nonelectrostatic_energy": 9.13, 
			 "SMD_solvation_energy": 4.46 
		},
		"coords": [
			{
				"x": -3.5473023092,
				"y": 2.0901013094,
				"z": 2.943494836,
				"element": "Cl" 
			},
			{
				"x": -2.5526408618,
				"y": 1.433716701,
				"z": 1.672143388,
				"element": "C" 
			},
			{
				"x": -1.2380194959,
				"y": 1.0130596534,
				"z": 1.9136137036,
				"element": "C" 
			},
			{
				"x": -0.5223014046,
				"y": 1.1242923888,
				"z": 3.5036480052,
				"element": "Cl" 
			},
			{
				"x": -0.4717258422,
				"y": 0.4917403087,
				"z": 0.8700006166,
				"element": "C" 
			},
			{
				"x": -1.0010301619,
				"y": 0.3834726965,
				"z": -0.420962242,
				"element": "C" 
			},
			{
				"x": -2.3189350417,
				"y": 0.809310677,
				"z": -0.6501455388,
				"element": "C" 
			},
			{
				"x": -3.0862719443,
				"y": 1.3276555332,
				"z": 0.3827246991,
				"element": "C" 
			},
			{
				"x": -0.2358034456,
				"y": -0.1658214908,
				"z": -1.5935716317,
				"element": "C" 
			},
			{
				"x": -0.7733182059,
				"y": -0.2098332423,
				"z": -2.695430514,
				"element": "O" 
			},
			{
				"x": 1.162562799,
				"y": -0.6525453979,
				"z": -1.4185463723,
				"element": "C" 
			},
			{
				"x": 2.1098691333,
				"y": -0.4504291088,
				"z": -2.5979499992,
				"element": "C" 
			},
			{
				"x": 1.597431364,
				"y": -1.8161044773,
				"z": -2.3047348627,
				"element": "C" 
			},
			{
				"x": 0.5397520062,
				"y": 0.1785711208,
				"z": 1.095376639,
				"element": "H" 
			},
			{
				"x": -2.7192102196,
				"y": 0.7221908352,
				"z": -1.6538584141,
				"element": "H" 
			},
			{
				"x": -4.1046646191,
				"y": 1.6565671508,
				"z": 0.2078637569,
				"element": "H" 
			},
			{
				"x": 1.6041840477,
				"y": -0.6069879305,
				"z": -0.4309382491,
				"element": "H" 
			},
			{
				"x": 3.1416165645,
				"y": -0.2102033082,
				"z": -2.3620658471,
				"element": "H" 
			},
			{
				"x": 1.6867348667,
				"y": 0.0696464075,
				"z": -3.4509044828,
				"element": "H" 
			},
			{
				"x": 2.2648026041,
				"y": -2.5474235091,
				"z": -1.8601875779,
				"element": "H" 
			},
			{
				"x": 0.8299701664,
				"y": -2.2132763173,
				"z": -2.9606699129,
				"element": "H" 
			}
		],
		 "valence_orbital": [ 
			{
				"type": "occ",
				"energy": -0.31625,
				"method": "rhf"
			},
			{
				"type": "occ",
				"energy": -0.29923,
				"method": "rhf"
			},
			{
				"type": "occ",
				"energy": -0.27291,
				"method": "rhf"
			},
			{
				"type": "occ",
				"energy": -0.26111,
				"method": "rhf"
			},
			{
				"type": "occ",
				"energy": -0.25773,
				"method": "rhf"
			},
			{
				"type": "unocc",
				"energy": -0.07093,
				"method": "rhf"
			},
			{
				"type": "unocc",
				"energy": -0.03139,
				"method": "rhf"
			},
			{
				"type": "unocc",
				"energy": -0.00422,
				"method": "rhf"
			},
			{
				"type": "unocc",
				"energy": 0.0201,
				"method": "rhf"
			},
			{
				"type": "unocc",
				"energy": 0.05457,
				"method": "rhf"
			}
		],
		"cosmo_sigma_profile": { 
			"-0.025": 0.0,
			"-0.024": 0.0,
			"-0.023": 0.0,
			"-0.022": 0.0,
			"-0.021": 0.0,
			"-0.02": 0.0,
			"-0.019": 0.0,
			"-0.018": 0.0,
			"-0.017": 0.0,
			"-0.016": 0.0,
			"-0.015": 0.0,
			"-0.014": 0.0,
			"-0.013": 0.0,
			"-0.012": 0.0,
			"-0.011": 0.167824102159,
			"-0.01": 1.07605953601,
			"-0.009": 2.07600828911,
			"-0.008": 3.60410468217,
			"-0.007": 3.84928423662,
			"-0.006": 8.31286627598,
			"-0.005": 12.5673730377,
			"-0.004": 11.2564096138,
			"-0.003": 15.6856619942,
			"-0.002": 17.8691583963,
			"-0.001": 23.6448349447,
			"0.0": 31.8891158054,
			"0.001": 28.1901605187,
			"0.002": 19.7835652337,
			"0.003": 20.0573456225,
			"0.004": 15.6555848524,
			"0.005": 5.66540645173,
			"0.006": 1.06083393577,
			"0.007": 0.988273459676,
			"0.008": 1.99222965757,
			"0.009": 1.76931798967,
			"0.01": 1.51123156994,
			"0.011": 2.32532076294,
			"0.012": 3.46343195037,
			"0.013": 0.341089025809,
			"0.014": 0.0,
			"0.015": 0.0,
			"0.016": 0.0,
			"0.017": 0.0,
			"0.018": 0.0,
			"0.019": 0.0,
			"0.02": 0.0,
			"0.021": 0.0,
			"0.022": 0.0,
			"0.023": 0.0,
			"0.024": 0.0,
			"0.025": 0.0
		}
	}
}
