{
	 "smiles": "NC1=NC(=CS1)C1=CC2=C(NC(=O)CC2)C=C1", 
	 "Tm": 522.15, 
	 "num_atms": 28, 
	 "gaussian": { 
		 "optdone": 1, 
		 "sigma_profile": "yes", 
		 "theory": "DFT", 
		 "functional": "B3LYP", 
		 "basiset": "6-31G**", 
		 "properties": { 
			 "R2extent": 7207.2554, 
			 "electric_dipole_moment_norm": 4.45762393434, 
			 "electric_quadrupole_moment_norm": 19.2943747429, 
			 "total_energy": -1101.60564016, 
			 "HOMO_LUMO_gap": 0.16175, 
			 "cosmo_polarized_energy": -18.71, 
			 "cosmo_cavitation_energy": 33.53, 
			 "cosmo_dispersion_energy": -25.61, 
			 "cosmo_repulsion_energy": 1.93, 
			 "cosmo_total_nonelectrostatic_energy": 9.86, 
			 "SMD_solvation_energy": 4.43 
		},
		"coords": [
			{
				"x": -5.8355692599,
				"y": 2.0153847588,
				"z": -1.3584431237,
				"element": "N" 
			},
			{
				"x": -4.5137619817,
				"y": 2.4010301633,
				"z": -1.3674930473,
				"element": "C" 
			},
			{
				"x": -3.5367795965,
				"y": 1.6595166591,
				"z": -0.9416291386,
				"element": "N" 
			},
			{
				"x": -2.3056698809,
				"y": 2.2730092327,
				"z": -1.1434503106,
				"element": "C" 
			},
			{
				"x": -2.3665181997,
				"y": 3.5094604813,
				"z": -1.7285160992,
				"element": "C" 
			},
			{
				"x": -4.0203415848,
				"y": 3.9475578408,
				"z": -2.0719332004,
				"element": "S" 
			},
			{
				"x": -1.0858769639,
				"y": 1.563882196,
				"z": -0.7166139547,
				"element": "C" 
			},
			{
				"x": -1.1833621794,
				"y": 0.2718892146,
				"z": -0.1721671147,
				"element": "C" 
			},
			{
				"x": -0.0606890008,
				"y": -0.4404116568,
				"z": 0.2390362884,
				"element": "C" 
			},
			{
				"x": 1.2058902162,
				"y": 0.1597042835,
				"z": 0.12337347,
				"element": "C" 
			},
			{
				"x": 2.3414894954,
				"y": -0.5520845356,
				"z": 0.5439131591,
				"element": "N" 
			},
			{
				"x": 2.3383622504,
				"y": -1.6556665226,
				"z": 1.376731868,
				"element": "C" 
			},
			{
				"x": 3.3781150754,
				"y": -2.1912382475,
				"z": 1.7262947868,
				"element": "O" 
			},
			{
				"x": 0.9545275249,
				"y": -2.0928434662,
				"z": 1.8355913296,
				"element": "C" 
			},
			{
				"x": -0.1247807255,
				"y": -1.854769267,
				"z": 0.7689435117,
				"element": "C" 
			},
			{
				"x": 1.3249265921,
				"y": 1.4454764502,
				"z": -0.4170601703,
				"element": "C" 
			},
			{
				"x": 0.192205331,
				"y": 2.1339867391,
				"z": -0.8348370891,
				"element": "C" 
			},
			{
				"x": -6.5240814309,
				"y": 2.7483191367,
				"z": -1.2645146179,
				"element": "H" 
			},
			{
				"x": -6.0068866656,
				"y": 1.2144218289,
				"z": -0.7645385399,
				"element": "H" 
			},
			{
				"x": -1.5659238149,
				"y": 4.1878064089,
				"z": -1.980648687,
				"element": "H" 
			},
			{
				"x": -2.1674619802,
				"y": -0.1760074245,
				"z": -0.0828145557,
				"element": "H" 
			},
			{
				"x": 3.2606914344,
				"y": -0.1974590501,
				"z": 0.3123378662,
				"element": "H" 
			},
			{
				"x": 1.0227823619,
				"y": -3.1418435226,
				"z": 2.1306300599,
				"element": "H" 
			},
			{
				"x": 0.7203581672,
				"y": -1.5138219259,
				"z": 2.7396744577,
				"element": "H" 
			},
			{
				"x": -1.1181042705,
				"y": -2.0689780013,
				"z": 1.1751595401,
				"element": "H" 
			},
			{
				"x": 0.0310634106,
				"y": -2.559558495,
				"z": -0.0609914704,
				"element": "H" 
			},
			{
				"x": 2.305516964,
				"y": 1.9068671626,
				"z": -0.5015265597,
				"element": "H" 
			},
			{
				"x": 0.3110787115,
				"y": 3.1313695587,
				"z": -1.2463086583,
				"element": "H" 
			}
		],
		 "valence_orbital": [ 
			{
				"type": "occ",
				"energy": -0.27544,
				"method": "rhf"
			},
			{
				"type": "occ",
				"energy": -0.24996,
				"method": "rhf"
			},
			{
				"type": "occ",
				"energy": -0.24886,
				"method": "rhf"
			},
			{
				"type": "occ",
				"energy": -0.2318,
				"method": "rhf"
			},
			{
				"type": "occ",
				"energy": -0.19413,
				"method": "rhf"
			},
			{
				"type": "unocc",
				"energy": -0.03238,
				"method": "rhf"
			},
			{
				"type": "unocc",
				"energy": -0.00525,
				"method": "rhf"
			},
			{
				"type": "unocc",
				"energy": 0.0055,
				"method": "rhf"
			},
			{
				"type": "unocc",
				"energy": 0.01068,
				"method": "rhf"
			},
			{
				"type": "unocc",
				"energy": 0.03315,
				"method": "rhf"
			}
		],
		"cosmo_sigma_profile": { 
			"-0.025": 0.0,
			"-0.024": 0.0,
			"-0.023": 0.0,
			"-0.022": 0.0,
			"-0.021": 0.0,
			"-0.02": 0.0,
			"-0.019": 0.0,
			"-0.018": 0.0,
			"-0.017": 0.0,
			"-0.016": 0.0,
			"-0.015": 0.321629050033,
			"-0.014": 3.1407776996,
			"-0.013": 4.00657166831,
			"-0.012": 3.76769010295,
			"-0.011": 3.78674177959,
			"-0.01": 3.83403315025,
			"-0.009": 3.40362142435,
			"-0.008": 6.80872508266,
			"-0.007": 5.32970021175,
			"-0.006": 9.23818051138,
			"-0.005": 15.7844606461,
			"-0.004": 18.5468187182,
			"-0.003": 18.075870565,
			"-0.002": 17.6165354991,
			"-0.001": 14.5903120836,
			"0.0": 11.7512957627,
			"0.001": 14.8183101604,
			"0.002": 16.1931317101,
			"0.003": 18.7131145053,
			"0.004": 24.5047390522,
			"0.005": 18.4792704181,
			"0.006": 6.62903637038,
			"0.007": 3.7503962825,
			"0.008": 3.35307601146,
			"0.009": 3.36078552254,
			"0.01": 3.73834187491,
			"0.011": 3.2922406603,
			"0.012": 3.50885876983,
			"0.013": 5.24597012697,
			"0.014": 3.42129488597,
			"0.015": 0.426670286463,
			"0.016": 0.0,
			"0.017": 0.0,
			"0.018": 0.0,
			"0.019": 0.0,
			"0.02": 0.0,
			"0.021": 0.0,
			"0.022": 0.0,
			"0.023": 0.0,
			"0.024": 0.0,
			"0.025": 0.0
		}
	}
}
