{
	 "smiles": "CCCCCCCCC#N", 
	 "Tm": 239.05, 
	 "num_atms": 27, 
	 "gaussian": { 
		 "optdone": 1, 
		 "sigma_profile": "yes", 
		 "theory": "DFT", 
		 "functional": "B3LYP", 
		 "basiset": "6-31G**", 
		 "properties": { 
			 "R2extent": 2975.3104, 
			 "electric_dipole_moment_norm": 3.82017097, 
			 "electric_quadrupole_moment_norm": 15.9585890354, 
			 "total_energy": -407.957456951, 
			 "HOMO_LUMO_gap": 0.3329, 
			 "cosmo_polarized_energy": -7.96, 
			 "cosmo_cavitation_energy": 28.24, 
			 "cosmo_dispersion_energy": -19.37, 
			 "cosmo_repulsion_energy": 1.59, 
			 "cosmo_total_nonelectrostatic_energy": 10.47, 
			 "SMD_solvation_energy": 5.21 
		},
		"coords": [
			{
				"x": 2.4003627901,
				"y": 0.8342693671,
				"z": -2.9013355647,
				"element": "C" 
			},
			{
				"x": 1.94802374,
				"y": 1.5623033756,
				"z": -1.6298675251,
				"element": "C" 
			},
			{
				"x": 0.5024312335,
				"y": 2.0880513111,
				"z": -1.6778185492,
				"element": "C" 
			},
			{
				"x": -0.6090982573,
				"y": 1.0225097355,
				"z": -1.7186788109,
				"element": "C" 
			},
			{
				"x": -0.680074491,
				"y": 0.1532747751,
				"z": -0.4500243341,
				"element": "C" 
			},
			{
				"x": -1.9807852425,
				"y": -0.658988019,
				"z": -0.2654934329,
				"element": "C" 
			},
			{
				"x": -2.0609171669,
				"y": -2.0646720998,
				"z": -0.8862460431,
				"element": "C" 
			},
			{
				"x": -2.0711395599,
				"y": -2.1538278782,
				"z": -2.4337957764,
				"element": "C" 
			},
			{
				"x": -0.7406375393,
				"y": -2.1610365356,
				"z": -3.0472092074,
				"element": "C" 
			},
			{
				"x": 0.316120159,
				"y": -2.1984893009,
				"z": -3.5270345353,
				"element": "N" 
			},
			{
				"x": 3.4542782725,
				"y": 0.5445251119,
				"z": -2.8305655967,
				"element": "H" 
			},
			{
				"x": 2.2953234901,
				"y": 1.4816871589,
				"z": -3.7803630413,
				"element": "H" 
			},
			{
				"x": 1.8238347968,
				"y": -0.0763965509,
				"z": -3.088570316,
				"element": "H" 
			},
			{
				"x": 2.613763039,
				"y": 2.4169525065,
				"z": -1.4515148568,
				"element": "H" 
			},
			{
				"x": 2.0753626008,
				"y": 0.9019424262,
				"z": -0.7620452917,
				"element": "H" 
			},
			{
				"x": 0.3962351357,
				"y": 2.7380365846,
				"z": -2.5572746329,
				"element": "H" 
			},
			{
				"x": 0.3305883737,
				"y": 2.7315824135,
				"z": -0.8033061411,
				"element": "H" 
			},
			{
				"x": -1.5702903779,
				"y": 1.5424958887,
				"z": -1.8366164839,
				"element": "H" 
			},
			{
				"x": -0.4866272758,
				"y": 0.3970700528,
				"z": -2.6094493646,
				"element": "H" 
			},
			{
				"x": 0.183836927,
				"y": -0.5215598958,
				"z": -0.3998325926,
				"element": "H" 
			},
			{
				"x": -0.5857357673,
				"y": 0.8233386612,
				"z": 0.4152743667,
				"element": "H" 
			},
			{
				"x": -2.1469475039,
				"y": -0.7973488198,
				"z": 0.8102318271,
				"element": "H" 
			},
			{
				"x": -2.8336149968,
				"y": -0.0624983403,
				"z": -0.6201847939,
				"element": "H" 
			},
			{
				"x": -2.9939533336,
				"y": -2.5257913086,
				"z": -0.542066881,
				"element": "H" 
			},
			{
				"x": -1.2491806742,
				"y": -2.6921408698,
				"z": -0.5003034703,
				"element": "H" 
			},
			{
				"x": -2.5662691204,
				"y": -3.0814016875,
				"z": -2.7448052123,
				"element": "H" 
			},
			{
				"x": -2.6520892515,
				"y": -1.3298880625,
				"z": -2.86490374,
				"element": "H" 
			}
		],
		 "valence_orbital": [ 
			{
				"type": "occ",
				"energy": -0.32363,
				"method": "rhf"
			},
			{
				"type": "occ",
				"energy": -0.31502,
				"method": "rhf"
			},
			{
				"type": "occ",
				"energy": -0.30772,
				"method": "rhf"
			},
			{
				"type": "occ",
				"energy": -0.30537,
				"method": "rhf"
			},
			{
				"type": "occ",
				"energy": -0.303,
				"method": "rhf"
			},
			{
				"type": "unocc",
				"energy": 0.0299,
				"method": "rhf"
			},
			{
				"type": "unocc",
				"energy": 0.03725,
				"method": "rhf"
			},
			{
				"type": "unocc",
				"energy": 0.07722,
				"method": "rhf"
			},
			{
				"type": "unocc",
				"energy": 0.09842,
				"method": "rhf"
			},
			{
				"type": "unocc",
				"energy": 0.10329,
				"method": "rhf"
			}
		],
		"cosmo_sigma_profile": { 
			"-0.025": 0.0,
			"-0.024": 0.0,
			"-0.023": 0.0,
			"-0.022": 0.0,
			"-0.021": 0.0,
			"-0.02": 0.0,
			"-0.019": 0.0,
			"-0.018": 0.0,
			"-0.017": 0.0,
			"-0.016": 0.0,
			"-0.015": 0.0,
			"-0.014": 0.0,
			"-0.013": 0.0,
			"-0.012": 0.0,
			"-0.011": 0.0,
			"-0.01": 0.0,
			"-0.009": 0.0,
			"-0.008": 1.75668900946,
			"-0.007": 4.68119080171,
			"-0.006": 5.52165975587,
			"-0.005": 6.87819314293,
			"-0.004": 13.3080108488,
			"-0.003": 12.5671353716,
			"-0.002": 30.1982525654,
			"-0.001": 34.0588904736,
			"0.0": 31.344976914,
			"0.001": 30.0277937342,
			"0.002": 14.2833071725,
			"0.003": 6.86741062716,
			"0.004": 3.76070248902,
			"0.005": 2.9434874949,
			"0.006": 3.12479810222,
			"0.007": 2.2554466979,
			"0.008": 3.31495031644,
			"0.009": 2.83704276133,
			"0.01": 2.96672658279,
			"0.011": 2.18854508454,
			"0.012": 2.18577344897,
			"0.013": 1.4928526349,
			"0.014": 0.306194946826,
			"0.015": 0.0,
			"0.016": 0.0,
			"0.017": 0.0,
			"0.018": 0.0,
			"0.019": 0.0,
			"0.02": 0.0,
			"0.021": 0.0,
			"0.022": 0.0,
			"0.023": 0.0,
			"0.024": 0.0,
			"0.025": 0.0
		}
	}
}
