{
	 "smiles": "OC(=O)C1CCCN(C1)C1=NC=CS1", 
	 "Tm": 395.15, 
	 "num_atms": 26, 
	 "gaussian": { 
		 "optdone": 1, 
		 "sigma_profile": "yes", 
		 "theory": "DFT", 
		 "functional": "B3LYP", 
		 "basiset": "6-31G**", 
		 "properties": { 
			 "R2extent": 4123.0135, 
			 "electric_dipole_moment_norm": 3.6000322693, 
			 "electric_quadrupole_moment_norm": 20.9874338977, 
			 "total_energy": -1008.32864424, 
			 "HOMO_LUMO_gap": 0.19686, 
			 "cosmo_polarized_energy": -17.83, 
			 "cosmo_cavitation_energy": 29.81, 
			 "cosmo_dispersion_energy": -22.5, 
			 "cosmo_repulsion_energy": 1.72, 
			 "cosmo_total_nonelectrostatic_energy": 9.03, 
			 "SMD_solvation_energy": 3.76 
		},
		"coords": [
			{
				"x": -2.0973451129,
				"y": 3.4478605361,
				"z": 1.6418818788,
				"element": "O" 
			},
			{
				"x": -1.6640068684,
				"y": 2.2136074377,
				"z": 2.0140134604,
				"element": "C" 
			},
			{
				"x": -1.5753179795,
				"y": 1.9341228917,
				"z": 3.1840407373,
				"element": "O" 
			},
			{
				"x": -1.3274004527,
				"y": 1.2597822607,
				"z": 0.8707145321,
				"element": "C" 
			},
			{
				"x": -2.5691445475,
				"y": 0.924051958,
				"z": 0.0124751124,
				"element": "C" 
			},
			{
				"x": -2.1994029457,
				"y": -0.0836580723,
				"z": -1.0831617501,
				"element": "C" 
			},
			{
				"x": -1.537187707,
				"y": -1.3307695308,
				"z": -0.4950809762,
				"element": "C" 
			},
			{
				"x": -0.3925588766,
				"y": -0.9535914588,
				"z": 0.3424491328,
				"element": "N" 
			},
			{
				"x": -0.6911606167,
				"y": -0.0229201913,
				"z": 1.4262862947,
				"element": "C" 
			},
			{
				"x": 0.6233127169,
				"y": -1.872871388,
				"z": 0.4722500495,
				"element": "C" 
			},
			{
				"x": 0.7678057177,
				"y": -2.9137506343,
				"z": -0.3058072828,
				"element": "N" 
			},
			{
				"x": 1.9114381677,
				"y": -3.6109167256,
				"z": 0.0154128693,
				"element": "C" 
			},
			{
				"x": 2.6567677663,
				"y": -3.1316089347,
				"z": 1.0454057494,
				"element": "C" 
			},
			{
				"x": 1.9014167273,
				"y": -1.6950204956,
				"z": 1.6973162442,
				"element": "S" 
			},
			{
				"x": -2.0953252836,
				"y": 3.5301278686,
				"z": 0.6776675357,
				"element": "H" 
			},
			{
				"x": -0.5880356602,
				"y": 1.7547291099,
				"z": 0.2232162282,
				"element": "H" 
			},
			{
				"x": -2.9967337769,
				"y": 1.8298566541,
				"z": -0.4345830113,
				"element": "H" 
			},
			{
				"x": -3.3453711868,
				"y": 0.5004960706,
				"z": 0.6635879862,
				"element": "H" 
			},
			{
				"x": -3.0947803148,
				"y": -0.3809485071,
				"z": -1.6401773419,
				"element": "H" 
			},
			{
				"x": -1.5112294457,
				"y": 0.3844609426,
				"z": -1.7978193374,
				"element": "H" 
			},
			{
				"x": -2.2683479084,
				"y": -1.8992581146,
				"z": 0.1045000864,
				"element": "H" 
			},
			{
				"x": -1.1703722365,
				"y": -1.9943512191,
				"z": -1.2775016344,
				"element": "H" 
			},
			{
				"x": 0.2289097229,
				"y": 0.2359176329,
				"z": 1.953842356,
				"element": "H" 
			},
			{
				"x": -1.3684044787,
				"y": -0.4728135962,
				"z": 2.1681216135,
				"element": "H" 
			},
			{
				"x": 2.1569323483,
				"y": -4.4986166405,
				"z": -0.5568566568,
				"element": "H" 
			},
			{
				"x": 3.5722422315,
				"y": -3.5179178541,
				"z": 1.4682061241,
				"element": "H" 
			}
		],
		 "valence_orbital": [ 
			{
				"type": "occ",
				"energy": -0.2949,
				"method": "rhf"
			},
			{
				"type": "occ",
				"energy": -0.278,
				"method": "rhf"
			},
			{
				"type": "occ",
				"energy": -0.26963,
				"method": "rhf"
			},
			{
				"type": "occ",
				"energy": -0.2673,
				"method": "rhf"
			},
			{
				"type": "occ",
				"energy": -0.19997,
				"method": "rhf"
			},
			{
				"type": "unocc",
				"energy": -0.00311,
				"method": "rhf"
			},
			{
				"type": "unocc",
				"energy": 0.00282,
				"method": "rhf"
			},
			{
				"type": "unocc",
				"energy": 0.02017,
				"method": "rhf"
			},
			{
				"type": "unocc",
				"energy": 0.03749,
				"method": "rhf"
			},
			{
				"type": "unocc",
				"energy": 0.06449,
				"method": "rhf"
			}
		],
		"cosmo_sigma_profile": { 
			"-0.025": 0.0,
			"-0.024": 0.0,
			"-0.023": 0.0,
			"-0.022": 0.0,
			"-0.021": 0.0,
			"-0.02": 0.0,
			"-0.019": 0.460035429367,
			"-0.018": 0.865768109204,
			"-0.017": 1.16883796614,
			"-0.016": 1.27159366107,
			"-0.015": 1.2367778429,
			"-0.014": 0.681410548873,
			"-0.013": 0.29986470849,
			"-0.012": 1.62842684125,
			"-0.011": 1.36174911753,
			"-0.01": 1.29487932637,
			"-0.009": 1.66609463236,
			"-0.008": 3.0176309823,
			"-0.007": 6.68517399432,
			"-0.006": 8.61053138547,
			"-0.005": 14.2194848368,
			"-0.004": 22.8715528443,
			"-0.003": 23.85446244,
			"-0.002": 21.0315395851,
			"-0.001": 15.5174978668,
			"0.0": 9.99964424299,
			"0.001": 9.92833912913,
			"0.002": 10.7020165289,
			"0.003": 10.662153308,
			"0.004": 13.6366544338,
			"0.005": 13.3590816572,
			"0.006": 6.7921963047,
			"0.007": 2.74114894464,
			"0.008": 4.96754776706,
			"0.009": 5.9948772833,
			"0.01": 5.29843883252,
			"0.011": 6.60050935082,
			"0.012": 6.15458984665,
			"0.013": 2.18989356551,
			"0.014": 0.323739504992,
			"0.015": 0.0,
			"0.016": 0.0,
			"0.017": 0.0,
			"0.018": 0.0,
			"0.019": 0.0,
			"0.02": 0.0,
			"0.021": 0.0,
			"0.022": 0.0,
			"0.023": 0.0,
			"0.024": 0.0,
			"0.025": 0.0
		}
	}
}
