{
	 "smiles": "CC1=CC=C(C=C1)S(=O)(=O)OC1CCS(=O)(=O)C1", 
	 "Tm": 354.15, 
	 "num_atms": 32, 
	 "gaussian": { 
		 "optdone": 1, 
		 "sigma_profile": "yes", 
		 "theory": "DFT", 
		 "functional": "B3LYP", 
		 "basiset": "6-31G**", 
		 "properties": { 
			 "R2extent": 7770.054, 
			 "electric_dipole_moment_norm": 8.83510637231, 
			 "electric_quadrupole_moment_norm": 18.010350875, 
			 "total_energy": -1599.97039205, 
			 "HOMO_LUMO_gap": 0.22211, 
			 "cosmo_polarized_energy": -21.17, 
			 "cosmo_cavitation_energy": 37.64, 
			 "cosmo_dispersion_energy": -28.03, 
			 "cosmo_repulsion_energy": 2.07, 
			 "cosmo_total_nonelectrostatic_energy": 11.69, 
			 "SMD_solvation_energy": 4.39 
		},
		"coords": [
			{
				"x": -5.9822630309,
				"y": 2.0790397669,
				"z": 0.8995098568,
				"element": "C" 
			},
			{
				"x": -4.7341373869,
				"y": 1.3587507869,
				"z": 0.4514401214,
				"element": "C" 
			},
			{
				"x": -3.630226518,
				"y": 2.073645022,
				"z": -0.0371626822,
				"element": "C" 
			},
			{
				"x": -2.4637525287,
				"y": 1.4205391606,
				"z": -0.4270549021,
				"element": "C" 
			},
			{
				"x": -2.4066321855,
				"y": 0.0297469173,
				"z": -0.3257609393,
				"element": "C" 
			},
			{
				"x": -3.4912524082,
				"y": -0.7129253289,
				"z": 0.1438540005,
				"element": "C" 
			},
			{
				"x": -4.6471666001,
				"y": -0.0394513077,
				"z": 0.5300900659,
				"element": "C" 
			},
			{
				"x": -0.9307958364,
				"y": -0.8195194512,
				"z": -0.8370147534,
				"element": "S" 
			},
			{
				"x": -1.2548840728,
				"y": -2.1955151775,
				"z": -1.2066693675,
				"element": "O" 
			},
			{
				"x": -0.1528834291,
				"y": 0.0205858476,
				"z": -1.7512069197,
				"element": "O" 
			},
			{
				"x": -0.1740382174,
				"y": -0.8411520845,
				"z": 0.6340850045,
				"element": "O" 
			},
			{
				"x": 1.2273056932,
				"y": -1.1950775806,
				"z": 0.7348713069,
				"element": "C" 
			},
			{
				"x": 2.1673892146,
				"y": -0.0059740058,
				"z": 0.4558839235,
				"element": "C" 
			},
			{
				"x": 3.6101731275,
				"y": -0.5398296108,
				"z": 0.5209605837,
				"element": "C" 
			},
			{
				"x": 3.5115646085,
				"y": -2.3413494046,
				"z": 0.1307614182,
				"element": "S" 
			},
			{
				"x": 4.2269229801,
				"y": -2.6478684573,
				"z": -1.1148746603,
				"element": "O" 
			},
			{
				"x": 3.7861119622,
				"y": -3.0921117361,
				"z": 1.3672275193,
				"element": "O" 
			},
			{
				"x": 1.7024852138,
				"y": -2.3527638823,
				"z": -0.1491239245,
				"element": "C" 
			},
			{
				"x": -6.1158709523,
				"y": 3.0218177038,
				"z": 0.3617968934,
				"element": "H" 
			},
			{
				"x": -5.9307792985,
				"y": 2.3169407153,
				"z": 1.9692371083,
				"element": "H" 
			},
			{
				"x": -6.8751799764,
				"y": 1.4667594699,
				"z": 0.7450731367,
				"element": "H" 
			},
			{
				"x": -3.6876427005,
				"y": 3.1554691478,
				"z": -0.11983817,
				"element": "H" 
			},
			{
				"x": -1.6166949063,
				"y": 1.9719308399,
				"z": -0.8199551729,
				"element": "H" 
			},
			{
				"x": -3.4302699979,
				"y": -1.7946225452,
				"z": 0.1884214908,
				"element": "H" 
			},
			{
				"x": -5.4988493289,
				"y": -0.6089016633,
				"z": 0.8917785435,
				"element": "H" 
			},
			{
				"x": 1.3165195703,
				"y": -1.5002672022,
				"z": 1.7819984645,
				"element": "H" 
			},
			{
				"x": 1.9471675145,
				"y": 0.3858371699,
				"z": -0.5394692053,
				"element": "H" 
			},
			{
				"x": 2.004119087,
				"y": 0.7940708708,
				"z": 1.1825653184,
				"element": "H" 
			},
			{
				"x": 4.280616421,
				"y": -0.0782777672,
				"z": -0.2051478286,
				"element": "H" 
			},
			{
				"x": 4.0482735471,
				"y": -0.4835400376,
				"z": 1.5194866052,
				"element": "H" 
			},
			{
				"x": 1.3144593665,
				"y": -3.3307879146,
				"z": 0.1346695254,
				"element": "H" 
			},
			{
				"x": 1.5345110686,
				"y": -2.1667982612,
				"z": -1.2115323608,
				"element": "H" 
			}
		],
		 "valence_orbital": [ 
			{
				"type": "occ",
				"energy": -0.30127,
				"method": "rhf"
			},
			{
				"type": "occ",
				"energy": -0.29523,
				"method": "rhf"
			},
			{
				"type": "occ",
				"energy": -0.28217,
				"method": "rhf"
			},
			{
				"type": "occ",
				"energy": -0.28119,
				"method": "rhf"
			},
			{
				"type": "occ",
				"energy": -0.2758,
				"method": "rhf"
			},
			{
				"type": "unocc",
				"energy": -0.05369,
				"method": "rhf"
			},
			{
				"type": "unocc",
				"energy": -0.03164,
				"method": "rhf"
			},
			{
				"type": "unocc",
				"energy": 0.02656,
				"method": "rhf"
			},
			{
				"type": "unocc",
				"energy": 0.04937,
				"method": "rhf"
			},
			{
				"type": "unocc",
				"energy": 0.05405,
				"method": "rhf"
			}
		],
		"cosmo_sigma_profile": { 
			"-0.025": 0.0,
			"-0.024": 0.0,
			"-0.023": 0.0,
			"-0.022": 0.0,
			"-0.021": 0.0,
			"-0.02": 0.0,
			"-0.019": 0.0,
			"-0.018": 0.0,
			"-0.017": 0.0,
			"-0.016": 0.0,
			"-0.015": 0.0,
			"-0.014": 0.0,
			"-0.013": 0.0,
			"-0.012": 0.0,
			"-0.011": 0.0,
			"-0.01": 0.400005455049,
			"-0.009": 3.55795777541,
			"-0.008": 11.3169950255,
			"-0.007": 18.083298898,
			"-0.006": 22.8468106718,
			"-0.005": 23.7207399762,
			"-0.004": 21.8301222507,
			"-0.003": 20.225917929,
			"-0.002": 18.7302262657,
			"-0.001": 21.0302030049,
			"0.0": 16.4657837056,
			"0.001": 14.6452744757,
			"0.002": 17.6276269225,
			"0.003": 16.0669665483,
			"0.004": 6.11175360552,
			"0.005": 5.5478574269,
			"0.006": 6.24356392621,
			"0.007": 6.574151763,
			"0.008": 5.31780071663,
			"0.009": 10.1720493395,
			"0.01": 11.629414632,
			"0.011": 12.8815426456,
			"0.012": 7.26970230546,
			"0.013": 0.300197774773,
			"0.014": 0.0,
			"0.015": 0.0,
			"0.016": 0.0,
			"0.017": 0.0,
			"0.018": 0.0,
			"0.019": 0.0,
			"0.02": 0.0,
			"0.021": 0.0,
			"0.022": 0.0,
			"0.023": 0.0,
			"0.024": 0.0,
			"0.025": 0.0
		}
	}
}
