{
	 "smiles": "CC(O)C1=CC=C(C=C1)S(=O)(=O)NC1=CC=C(C=C1)C(O)=O", 
	 "Tm": 473.15, 
	 "num_atms": 37, 
	 "gaussian": { 
		 "optdone": 1, 
		 "sigma_profile": "yes", 
		 "theory": "DFT", 
		 "functional": "B3LYP", 
		 "basiset": "6-31G**", 
		 "properties": { 
			 "R2extent": 9722.5252, 
			 "electric_dipole_moment_norm": 4.13685689383, 
			 "electric_quadrupole_moment_norm": 35.9773256321, 
			 "total_energy": -1409.63387779, 
			 "HOMO_LUMO_gap": 0.18528, 
			 "cosmo_polarized_energy": -28.96, 
			 "cosmo_cavitation_energy": 43.27, 
			 "cosmo_dispersion_energy": -30.28, 
			 "cosmo_repulsion_energy": 2.29, 
			 "cosmo_total_nonelectrostatic_energy": 15.28, 
			 "SMD_solvation_energy": 7.68 
		},
		"coords": [
			{
				"x": 1.2180603554,
				"y": 5.1907183727,
				"z": -0.8598361168,
				"element": "C" 
			},
			{
				"x": 1.8282165098,
				"y": 3.9671212662,
				"z": -0.1729993391,
				"element": "C" 
			},
			{
				"x": 3.1624127342,
				"y": 3.8607586163,
				"z": -0.6592705894,
				"element": "O" 
			},
			{
				"x": 1.0164345268,
				"y": 2.7068532798,
				"z": -0.4447357957,
				"element": "C" 
			},
			{
				"x": 1.3005049723,
				"y": 1.9093152984,
				"z": -1.5616242127,
				"element": "C" 
			},
			{
				"x": 0.540278441,
				"y": 0.7753498701,
				"z": -1.8380559557,
				"element": "C" 
			},
			{
				"x": -0.5147461645,
				"y": 0.4392257187,
				"z": -0.9852985865,
				"element": "C" 
			},
			{
				"x": -0.8207035415,
				"y": 1.2222051514,
				"z": 0.130676045,
				"element": "C" 
			},
			{
				"x": -0.0467265997,
				"y": 2.3504816143,
				"z": 0.3946238821,
				"element": "C" 
			},
			{
				"x": -1.4715004032,
				"y": -1.0380737803,
				"z": -1.3204316239,
				"element": "S" 
			},
			{
				"x": -2.772110913,
				"y": -0.8863177924,
				"z": -0.6707349724,
				"element": "O" 
			},
			{
				"x": -1.3273585064,
				"y": -1.3691488216,
				"z": -2.7366312504,
				"element": "O" 
			},
			{
				"x": -0.6621817969,
				"y": -2.3174647585,
				"z": -0.5363759767,
				"element": "N" 
			},
			{
				"x": -0.4539962266,
				"y": -2.4205371964,
				"z": 0.8558343243,
				"element": "C" 
			},
			{
				"x": 0.8067835684,
				"y": -2.8236901272,
				"z": 1.3278609721,
				"element": "C" 
			},
			{
				"x": 1.0265084927,
				"y": -2.990520718,
				"z": 2.687710421,
				"element": "C" 
			},
			{
				"x": 0.0084579661,
				"y": -2.7260885199,
				"z": 3.6145672876,
				"element": "C" 
			},
			{
				"x": -1.2501851862,
				"y": -2.3353139655,
				"z": 3.1346880709,
				"element": "C" 
			},
			{
				"x": -1.4929767336,
				"y": -2.1924075149,
				"z": 1.7721723494,
				"element": "C" 
			},
			{
				"x": 0.325486587,
				"y": -2.9173397189,
				"z": 5.0642853961,
				"element": "C" 
			},
			{
				"x": -0.5270855547,
				"y": -2.3545704959,
				"z": 5.9632652103,
				"element": "O" 
			},
			{
				"x": 1.2895069371,
				"y": -3.5336648427,
				"z": 5.4560056383,
				"element": "O" 
			},
			{
				"x": 1.1964737719,
				"y": 5.0408370857,
				"z": -1.9431830591,
				"element": "H" 
			},
			{
				"x": 1.8227621568,
				"y": 6.0752654091,
				"z": -0.6421009437,
				"element": "H" 
			},
			{
				"x": 0.1960648916,
				"y": 5.3635117686,
				"z": -0.5116204679,
				"element": "H" 
			},
			{
				"x": 1.8322223019,
				"y": 4.1435768278,
				"z": 0.9150765148,
				"element": "H" 
			},
			{
				"x": 3.5926747641,
				"y": 3.128148269,
				"z": -0.1983249995,
				"element": "H" 
			},
			{
				"x": 2.1238984636,
				"y": 2.1899350947,
				"z": -2.2102664642,
				"element": "H" 
			},
			{
				"x": 0.7419868519,
				"y": 0.1683394864,
				"z": -2.7143535392,
				"element": "H" 
			},
			{
				"x": -1.6569129249,
				"y": 0.9561970602,
				"z": 0.7668652723,
				"element": "H" 
			},
			{
				"x": -0.2758779305,
				"y": 2.963549567,
				"z": 1.2628695979,
				"element": "H" 
			},
			{
				"x": 0.1003841519,
				"y": -2.6467176325,
				"z": -1.1191036494,
				"element": "H" 
			},
			{
				"x": 1.6118924877,
				"y": -3.008255585,
				"z": 0.621265773,
				"element": "H" 
			},
			{
				"x": 1.9918879887,
				"y": -3.3150715751,
				"z": 3.0604672482,
				"element": "H" 
			},
			{
				"x": -2.0856247065,
				"y": -2.1889998714,
				"z": 3.8157207563,
				"element": "H" 
			},
			{
				"x": -2.4781237397,
				"y": -1.9288900571,
				"z": 1.4086947906,
				"element": "H" 
			},
			{
				"x": -1.1542879929,
				"y": -1.772016783,
				"z": 5.5139979921,
				"element": "H" 
			}
		],
		 "valence_orbital": [ 
			{
				"type": "occ",
				"energy": -0.283,
				"method": "rhf"
			},
			{
				"type": "occ",
				"energy": -0.28016,
				"method": "rhf"
			},
			{
				"type": "occ",
				"energy": -0.27727,
				"method": "rhf"
			},
			{
				"type": "occ",
				"energy": -0.27369,
				"method": "rhf"
			},
			{
				"type": "occ",
				"energy": -0.24714,
				"method": "rhf"
			},
			{
				"type": "unocc",
				"energy": -0.06186,
				"method": "rhf"
			},
			{
				"type": "unocc",
				"energy": -0.0471,
				"method": "rhf"
			},
			{
				"type": "unocc",
				"energy": -0.03478,
				"method": "rhf"
			},
			{
				"type": "unocc",
				"energy": -0.02914,
				"method": "rhf"
			},
			{
				"type": "unocc",
				"energy": 0.03391,
				"method": "rhf"
			}
		],
		"cosmo_sigma_profile": { 
			"-0.025": 0.0,
			"-0.024": 0.0,
			"-0.023": 0.0,
			"-0.022": 0.0,
			"-0.021": 0.0,
			"-0.02": 0.0,
			"-0.019": 0.439265529376,
			"-0.018": 0.868518644121,
			"-0.017": 1.02934155108,
			"-0.016": 1.98565333602,
			"-0.015": 2.80208796075,
			"-0.014": 3.40134402515,
			"-0.013": 3.35756101306,
			"-0.012": 3.85944736526,
			"-0.011": 3.1989426133,
			"-0.01": 2.45259763308,
			"-0.009": 4.20638496765,
			"-0.008": 5.13883206122,
			"-0.007": 10.2962771515,
			"-0.006": 16.2159708826,
			"-0.005": 17.5099115459,
			"-0.004": 19.1069828105,
			"-0.003": 21.5081468005,
			"-0.002": 21.87682434,
			"-0.001": 22.2146118271,
			"0.0": 25.6578953226,
			"0.001": 24.522935865,
			"0.002": 29.0699760053,
			"0.003": 22.3703284894,
			"0.004": 7.89532538363,
			"0.005": 7.55290737682,
			"0.006": 6.36785664328,
			"0.007": 7.29538226474,
			"0.008": 7.24342761826,
			"0.009": 9.34321106063,
			"0.01": 12.6985061273,
			"0.011": 11.8201924605,
			"0.012": 6.63057608521,
			"0.013": 3.45102157981,
			"0.014": 1.17558072317,
			"0.015": 0.0,
			"0.016": 0.0,
			"0.017": 0.0,
			"0.018": 0.0,
			"0.019": 0.0,
			"0.02": 0.0,
			"0.021": 0.0,
			"0.022": 0.0,
			"0.023": 0.0,
			"0.024": 0.0,
			"0.025": 0.0
		}
	}
}
