{
	 "smiles": "OC(=O)CN1C(=O)C2=C(C=C(C=C2)[N+]([O-])=O)C1=O", 
	 "Tm": 471.15, 
	 "num_atms": 24, 
	 "gaussian": { 
		 "optdone": 1, 
		 "sigma_profile": "yes", 
		 "theory": "DFT", 
		 "functional": "B3LYP", 
		 "basiset": "6-31G**", 
		 "properties": { 
			 "R2extent": 5477.3468, 
			 "electric_dipole_moment_norm": 4.12049902318, 
			 "electric_quadrupole_moment_norm": 30.795326618, 
			 "total_energy": -945.457941575, 
			 "HOMO_LUMO_gap": 0.13722, 
			 "cosmo_polarized_energy": -20.58, 
			 "cosmo_cavitation_energy": 31.0, 
			 "cosmo_dispersion_energy": -22.37, 
			 "cosmo_repulsion_energy": 1.69, 
			 "cosmo_total_nonelectrostatic_energy": 10.32, 
			 "SMD_solvation_energy": 9.8 
		},
		"coords": [
			{
				"x": 3.2489467318,
				"y": 1.3039158946,
				"z": 1.9419491209,
				"element": "O" 
			},
			{
				"x": 2.1752702269,
				"y": 1.7055379192,
				"z": 2.6388807855,
				"element": "C" 
			},
			{
				"x": 2.1699607742,
				"y": 1.752970408,
				"z": 3.8432962095,
				"element": "O" 
			},
			{
				"x": 0.955964699,
				"y": 2.1610890571,
				"z": 1.8103799776,
				"element": "C" 
			},
			{
				"x": 0.450585945,
				"y": 1.1699987684,
				"z": 0.8628743689,
				"element": "N" 
			},
			{
				"x": -0.845447767,
				"y": 0.6038280597,
				"z": 0.9571063064,
				"element": "C" 
			},
			{
				"x": -1.6399488662,
				"y": 0.8167670085,
				"z": 1.8431396704,
				"element": "O" 
			},
			{
				"x": -0.9900679516,
				"y": -0.2556968631,
				"z": -0.2577481405,
				"element": "C" 
			},
			{
				"x": 0.1797766575,
				"y": -0.1438522086,
				"z": -1.0144139391,
				"element": "C" 
			},
			{
				"x": 0.3462966762,
				"y": -0.8240947221,
				"z": -2.2093634273,
				"element": "C" 
			},
			{
				"x": -0.730039508,
				"y": -1.6217908443,
				"z": -2.6090357213,
				"element": "C" 
			},
			{
				"x": -1.9087432467,
				"y": -1.7487817286,
				"z": -1.869993371,
				"element": "C" 
			},
			{
				"x": -2.0501462486,
				"y": -1.052887412,
				"z": -0.6640448637,
				"element": "C" 
			},
			{
				"x": -0.6143009158,
				"y": -2.3700474404,
				"z": -3.8801726674,
				"element": "N" 
			},
			{
				"x": 0.4295442673,
				"y": -2.2403727394,
				"z": -4.5138516837,
				"element": "O" 
			},
			{
				"x": -1.5678652522,
				"y": -3.0679360628,
				"z": -4.2149004043,
				"element": "O" 
			},
			{
				"x": 1.1096540873,
				"y": 0.770453851,
				"z": -0.2954203061,
				"element": "C" 
			},
			{
				"x": 2.2389293902,
				"y": 1.1174128466,
				"z": -0.6155977535,
				"element": "O" 
			},
			{
				"x": 3.089617927,
				"y": 1.3570821361,
				"z": 0.9751750606,
				"element": "H" 
			},
			{
				"x": 1.2200367923,
				"y": 3.072517642,
				"z": 1.260393997,
				"element": "H" 
			},
			{
				"x": 0.1452171373,
				"y": 2.3790771651,
				"z": 2.5041220454,
				"element": "H" 
			},
			{
				"x": 1.2444214785,
				"y": -0.7541385412,
				"z": -2.81015672,
				"element": "H" 
			},
			{
				"x": -2.6942108671,
				"y": -2.389526082,
				"z": -2.2511008983,
				"element": "H" 
			},
			{
				"x": -2.9530521672,
				"y": -1.1325261118,
				"z": -0.0685176459,
				"element": "H" 
			}
		],
		 "valence_orbital": [ 
			{
				"type": "occ",
				"energy": -0.31991,
				"method": "rhf"
			},
			{
				"type": "occ",
				"energy": -0.31931,
				"method": "rhf"
			},
			{
				"type": "occ",
				"energy": -0.31756,
				"method": "rhf"
			},
			{
				"type": "occ",
				"energy": -0.31174,
				"method": "rhf"
			},
			{
				"type": "occ",
				"energy": -0.27365,
				"method": "rhf"
			},
			{
				"type": "unocc",
				"energy": -0.13643,
				"method": "rhf"
			},
			{
				"type": "unocc",
				"energy": -0.10434,
				"method": "rhf"
			},
			{
				"type": "unocc",
				"energy": -0.06841,
				"method": "rhf"
			},
			{
				"type": "unocc",
				"energy": -0.00533,
				"method": "rhf"
			},
			{
				"type": "unocc",
				"energy": 0.00287,
				"method": "rhf"
			}
		],
		"cosmo_sigma_profile": { 
			"-0.025": 0.0,
			"-0.024": 0.0,
			"-0.023": 0.0,
			"-0.022": 0.0,
			"-0.021": 0.0,
			"-0.02": 0.0,
			"-0.019": 0.0,
			"-0.018": 0.0,
			"-0.017": 0.0,
			"-0.016": 0.0,
			"-0.015": 0.0,
			"-0.014": 0.0,
			"-0.013": 0.0,
			"-0.012": 0.00915743509204,
			"-0.011": 0.802851810858,
			"-0.01": 3.18767703627,
			"-0.009": 9.12891853513,
			"-0.008": 14.7027260961,
			"-0.007": 12.9249309246,
			"-0.006": 16.5296980603,
			"-0.005": 15.1520493178,
			"-0.004": 16.887417368,
			"-0.003": 23.355136397,
			"-0.002": 16.7014527693,
			"-0.001": 11.1695903968,
			"0.0": 7.0579497838,
			"0.001": 6.3480482854,
			"0.002": 6.66051811081,
			"0.003": 7.30947582711,
			"0.004": 7.23781736243,
			"0.005": 7.99353842529,
			"0.006": 9.47652554104,
			"0.007": 13.8286128605,
			"0.008": 11.7087287058,
			"0.009": 12.0373967666,
			"0.01": 9.66492141677,
			"0.011": 6.11197673405,
			"0.012": 4.06144086953,
			"0.013": 0.492046899752,
			"0.014": 0.0,
			"0.015": 0.0,
			"0.016": 0.0,
			"0.017": 0.0,
			"0.018": 0.0,
			"0.019": 0.0,
			"0.02": 0.0,
			"0.021": 0.0,
			"0.022": 0.0,
			"0.023": 0.0,
			"0.024": 0.0,
			"0.025": 0.0
		}
	}
}
