{
	 "smiles": "CCC1(C)CCNC(=O)CC1", 
	 "Tm": 350.15, 
	 "num_atms": 28, 
	 "gaussian": { 
		 "optdone": 1, 
		 "sigma_profile": "yes", 
		 "theory": "DFT", 
		 "functional": "B3LYP", 
		 "basiset": "6-31G**", 
		 "properties": { 
			 "R2extent": 2384.9959, 
			 "electric_dipole_moment_norm": 4.07680181638, 
			 "electric_quadrupole_moment_norm": 21.0179034735, 
			 "total_energy": -483.202872507, 
			 "HOMO_LUMO_gap": 0.26702, 
			 "cosmo_polarized_energy": -10.81, 
			 "cosmo_cavitation_energy": 27.02, 
			 "cosmo_dispersion_energy": -19.91, 
			 "cosmo_repulsion_energy": 1.58, 
			 "cosmo_total_nonelectrostatic_energy": 8.7, 
			 "SMD_solvation_energy": 4.24 
		},
		"coords": [
			{
				"x": 0.9686926013,
				"y": -1.892966145,
				"z": -0.2835802508,
				"element": "C" 
			},
			{
				"x": 0.3101288394,
				"y": -0.9739865253,
				"z": 0.7533270786,
				"element": "C" 
			},
			{
				"x": -0.2509096785,
				"y": 0.4009120837,
				"z": 0.287761697,
				"element": "C" 
			},
			{
				"x": -0.6776617594,
				"y": 1.1502272372,
				"z": 1.569310814,
				"element": "C" 
			},
			{
				"x": -1.4884503677,
				"y": 0.1792093295,
				"z": -0.6174549256,
				"element": "C" 
			},
			{
				"x": -2.028157311,
				"y": 1.4279987319,
				"z": -1.3261465544,
				"element": "C" 
			},
			{
				"x": -1.3118219244,
				"y": 1.804448265,
				"z": -2.5435201052,
				"element": "N" 
			},
			{
				"x": 0.0164989289,
				"y": 1.7439185102,
				"z": -2.8811213005,
				"element": "C" 
			},
			{
				"x": 0.3984389775,
				"y": 2.2130209166,
				"z": -3.9488516789,
				"element": "O" 
			},
			{
				"x": 1.0015601014,
				"y": 1.0418797965,
				"z": -1.9485106564,
				"element": "C" 
			},
			{
				"x": 0.823858096,
				"y": 1.259590886,
				"z": -0.4344177854,
				"element": "C" 
			},
			{
				"x": 1.8822098741,
				"y": -1.457125823,
				"z": -0.6991588795,
				"element": "H" 
			},
			{
				"x": 0.3011835179,
				"y": -2.1351769599,
				"z": -1.1172264048,
				"element": "H" 
			},
			{
				"x": 1.2501582595,
				"y": -2.8408892674,
				"z": 0.1870478209,
				"element": "H" 
			},
			{
				"x": -0.5138864152,
				"y": -1.5211428999,
				"z": 1.23202658,
				"element": "H" 
			},
			{
				"x": 1.0400549653,
				"y": -0.7814866616,
				"z": 1.5511123959,
				"element": "H" 
			},
			{
				"x": 0.1937732254,
				"y": 1.3714970585,
				"z": 2.1957419737,
				"element": "H" 
			},
			{
				"x": -1.1665128053,
				"y": 2.1038891802,
				"z": 1.3447351982,
				"element": "H" 
			},
			{
				"x": -1.3729829476,
				"y": 0.5495149212,
				"z": 2.1667136677,
				"element": "H" 
			},
			{
				"x": -2.2953168587,
				"y": -0.2293128983,
				"z": 0.0040353383,
				"element": "H" 
			},
			{
				"x": -1.2807757537,
				"y": -0.5778928838,
				"z": -1.3817015941,
				"element": "H" 
			},
			{
				"x": -2.0734954561,
				"y": 2.2728034605,
				"z": -0.6230746019,
				"element": "H" 
			},
			{
				"x": -3.0612604164,
				"y": 1.2309865317,
				"z": -1.632051666,
				"element": "H" 
			},
			{
				"x": -1.8424057041,
				"y": 2.3143859082,
				"z": -3.2382859162,
				"element": "H" 
			},
			{
				"x": 0.9883892533,
				"y": -0.0234350432,
				"z": -2.2016861784,
				"element": "H" 
			},
			{
				"x": 1.9786514195,
				"y": 1.4148927107,
				"z": -2.2652182168,
				"element": "H" 
			},
			{
				"x": 1.7891863851,
				"y": 1.0881829073,
				"z": 0.057956121,
				"element": "H" 
			},
			{
				"x": 0.6010529536,
				"y": 2.3216566724,
				"z": -0.2690619701,
				"element": "H" 
			}
		],
		 "valence_orbital": [ 
			{
				"type": "occ",
				"energy": -0.31534,
				"method": "rhf"
			},
			{
				"type": "occ",
				"energy": -0.31231,
				"method": "rhf"
			},
			{
				"type": "occ",
				"energy": -0.30656,
				"method": "rhf"
			},
			{
				"type": "occ",
				"energy": -0.23904,
				"method": "rhf"
			},
			{
				"type": "occ",
				"energy": -0.23212,
				"method": "rhf"
			},
			{
				"type": "unocc",
				"energy": 0.0349,
				"method": "rhf"
			},
			{
				"type": "unocc",
				"energy": 0.06778,
				"method": "rhf"
			},
			{
				"type": "unocc",
				"energy": 0.08761,
				"method": "rhf"
			},
			{
				"type": "unocc",
				"energy": 0.09904,
				"method": "rhf"
			},
			{
				"type": "unocc",
				"energy": 0.11273,
				"method": "rhf"
			}
		],
		"cosmo_sigma_profile": { 
			"-0.025": 0.0,
			"-0.024": 0.0,
			"-0.023": 0.0,
			"-0.022": 0.0,
			"-0.021": 0.0,
			"-0.02": 0.0,
			"-0.019": 0.0,
			"-0.018": 0.0,
			"-0.017": 0.0,
			"-0.016": 0.0,
			"-0.015": 0.0,
			"-0.014": 0.0,
			"-0.013": 0.314256739711,
			"-0.012": 1.1832489623,
			"-0.011": 0.947008953234,
			"-0.01": 1.09064654434,
			"-0.009": 1.11522358647,
			"-0.008": 1.20711448748,
			"-0.007": 0.895781368397,
			"-0.006": 1.6977477615,
			"-0.005": 4.28590188854,
			"-0.004": 11.7295923041,
			"-0.003": 26.7381403258,
			"-0.002": 39.9945005834,
			"-0.001": 30.5848387664,
			"0.0": 25.0114064577,
			"0.001": 21.7015367048,
			"0.002": 10.5053390337,
			"0.003": 2.47744778093,
			"0.004": 2.39248875936,
			"0.005": 2.24467166531,
			"0.006": 1.35961116543,
			"0.007": 1.14799638911,
			"0.008": 0.740732033075,
			"0.009": 1.21747211275,
			"0.01": 1.37681887566,
			"0.011": 1.56860984031,
			"0.012": 1.5173600192,
			"0.013": 1.66789407379,
			"0.014": 4.57477473377,
			"0.015": 5.09256770679,
			"0.016": 1.28692976051,
			"0.017": 0.0,
			"0.018": 0.0,
			"0.019": 0.0,
			"0.02": 0.0,
			"0.021": 0.0,
			"0.022": 0.0,
			"0.023": 0.0,
			"0.024": 0.0,
			"0.025": 0.0
		}
	}
}
