{
	 "smiles": "CC1=CC=C(NO)C=C1", 
	 "Tm": 369.15, 
	 "num_atms": 18, 
	 "gaussian": { 
		 "optdone": 1, 
		 "sigma_profile": "yes", 
		 "theory": "DFT", 
		 "functional": "B3LYP", 
		 "basiset": "6-31G**", 
		 "properties": { 
			 "R2extent": 1781.7085, 
			 "electric_dipole_moment_norm": 0.770832206125, 
			 "electric_quadrupole_moment_norm": 8.58268472333, 
			 "total_energy": -402.088432264, 
			 "HOMO_LUMO_gap": 0.20593, 
			 "cosmo_polarized_energy": -8.71, 
			 "cosmo_cavitation_energy": 21.57, 
			 "cosmo_dispersion_energy": -16.08, 
			 "cosmo_repulsion_energy": 1.33, 
			 "cosmo_total_nonelectrostatic_energy": 6.82, 
			 "SMD_solvation_energy": 4.57 
		},
		"coords": [
			{
				"x": -0.0332243002,
				"y": 1.3666421317,
				"z": 3.6973673199,
				"element": "C" 
			},
			{
				"x": 0.0039259969,
				"y": 1.2648362417,
				"z": 2.1901979019,
				"element": "C" 
			},
			{
				"x": -0.7218515763,
				"y": 0.2740072499,
				"z": 1.5132061479,
				"element": "C" 
			},
			{
				"x": -0.6685295059,
				"y": 0.152557231,
				"z": 0.1280482545,
				"element": "C" 
			},
			{
				"x": 0.114999541,
				"y": 1.0366820813,
				"z": -0.628655865,
				"element": "C" 
			},
			{
				"x": 0.0692041151,
				"y": 0.9455865036,
				"z": -2.0426110691,
				"element": "N" 
			},
			{
				"x": 1.2415292022,
				"y": 1.4773637134,
				"z": -2.6643385609,
				"element": "O" 
			},
			{
				"x": 0.8444897711,
				"y": 2.031771531,
				"z": 0.0285063273,
				"element": "C" 
			},
			{
				"x": 0.7827098437,
				"y": 2.1343756136,
				"z": 1.4184682226,
				"element": "C" 
			},
			{
				"x": 0.2743117477,
				"y": 2.3600525071,
				"z": 4.0375886123,
				"element": "H" 
			},
			{
				"x": 0.6399192221,
				"y": 0.638469744,
				"z": 4.1679996219,
				"element": "H" 
			},
			{
				"x": -1.0378921075,
				"y": 1.1750246863,
				"z": 4.0888611263,
				"element": "H" 
			},
			{
				"x": -1.3376713664,
				"y": -0.4203739277,
				"z": 2.0802355612,
				"element": "H" 
			},
			{
				"x": -1.2457786499,
				"y": -0.622231163,
				"z": -0.3717829532,
				"element": "H" 
			},
			{
				"x": 0.0182421121,
				"y": -0.0258149284,
				"z": -2.3415300087,
				"element": "H" 
			},
			{
				"x": 0.8849353548,
				"y": 2.1913127845,
				"z": -3.2110732056,
				"element": "H" 
			},
			{
				"x": 1.4632160995,
				"y": 2.7057604582,
				"z": -0.5512554899,
				"element": "H" 
			},
			{
				"x": 1.3596645001,
				"y": 2.9126775417,
				"z": 1.9127680566,
				"element": "H" 
			}
		],
		 "valence_orbital": [ 
			{
				"type": "occ",
				"energy": -0.331,
				"method": "rhf"
			},
			{
				"type": "occ",
				"energy": -0.30105,
				"method": "rhf"
			},
			{
				"type": "occ",
				"energy": -0.28556,
				"method": "rhf"
			},
			{
				"type": "occ",
				"energy": -0.24241,
				"method": "rhf"
			},
			{
				"type": "occ",
				"energy": -0.20059,
				"method": "rhf"
			},
			{
				"type": "unocc",
				"energy": 0.00534,
				"method": "rhf"
			},
			{
				"type": "unocc",
				"energy": 0.01584,
				"method": "rhf"
			},
			{
				"type": "unocc",
				"energy": 0.07201,
				"method": "rhf"
			},
			{
				"type": "unocc",
				"energy": 0.09713,
				"method": "rhf"
			},
			{
				"type": "unocc",
				"energy": 0.10535,
				"method": "rhf"
			}
		],
		"cosmo_sigma_profile": { 
			"-0.025": 0.0,
			"-0.024": 0.0,
			"-0.023": 0.0,
			"-0.022": 0.0,
			"-0.021": 0.0,
			"-0.02": 0.0,
			"-0.019": 0.0,
			"-0.018": 0.0,
			"-0.017": 0.239999866529,
			"-0.016": 0.926947913961,
			"-0.015": 1.22515727303,
			"-0.014": 0.758174581035,
			"-0.013": 1.38901407536,
			"-0.012": 1.53253713831,
			"-0.011": 2.08828623145,
			"-0.01": 1.96320874888,
			"-0.009": 1.69742103287,
			"-0.008": 2.3685810652,
			"-0.007": 2.30825991233,
			"-0.006": 3.02696186335,
			"-0.005": 5.83992219251,
			"-0.004": 12.7014802047,
			"-0.003": 16.6164816459,
			"-0.002": 13.2309627658,
			"-0.001": 13.2802745384,
			"0.0": 14.0945642362,
			"0.001": 11.3631873578,
			"0.002": 7.49745911589,
			"0.003": 8.17973074136,
			"0.004": 7.50762046465,
			"0.005": 10.3132439339,
			"0.006": 11.4472262969,
			"0.007": 8.11569505939,
			"0.008": 2.22674473747,
			"0.009": 1.73417874159,
			"0.01": 1.8929369844,
			"0.011": 1.82472114598,
			"0.012": 2.53811352085,
			"0.013": 0.171741393021,
			"0.014": 0.0,
			"0.015": 0.0,
			"0.016": 0.0,
			"0.017": 0.0,
			"0.018": 0.0,
			"0.019": 0.0,
			"0.02": 0.0,
			"0.021": 0.0,
			"0.022": 0.0,
			"0.023": 0.0,
			"0.024": 0.0,
			"0.025": 0.0
		}
	}
}
