{
	 "smiles": "CC1=C(NN=C2C(=O)NC(=S)NC2=O)C=CC=C1", 
	 "Tm": 515.15, 
	 "num_atms": 28, 
	 "gaussian": { 
		 "optdone": 1, 
		 "sigma_profile": "yes", 
		 "theory": "DFT", 
		 "functional": "B3LYP", 
		 "basiset": "6-31G**", 
		 "properties": { 
			 "R2extent": 6942.985, 
			 "electric_dipole_moment_norm": 5.10901434232, 
			 "electric_quadrupole_moment_norm": 5.32096473584, 
			 "total_energy": -1192.86026461, 
			 "HOMO_LUMO_gap": 0.12755, 
			 "cosmo_polarized_energy": -18.22, 
			 "cosmo_cavitation_energy": 35.06, 
			 "cosmo_dispersion_energy": -25.94, 
			 "cosmo_repulsion_energy": 1.92, 
			 "cosmo_total_nonelectrostatic_energy": 11.05, 
			 "SMD_solvation_energy": 5.89 
		},
		"coords": [
			{
				"x": -1.3656431932,
				"y": -1.8690577772,
				"z": 1.8389482412,
				"element": "C" 
			},
			{
				"x": 0.1315599989,
				"y": -1.9486276278,
				"z": 2.0140293713,
				"element": "C" 
			},
			{
				"x": 1.0712535569,
				"y": -1.231887573,
				"z": 1.2350203151,
				"element": "C" 
			},
			{
				"x": 0.7357521708,
				"y": -0.3467767633,
				"z": 0.1896885943,
				"element": "N" 
			},
			{
				"x": -0.4793551944,
				"y": -0.0913078834,
				"z": -0.1779951622,
				"element": "N" 
			},
			{
				"x": -0.717543773,
				"y": 0.75346025,
				"z": -1.1717390454,
				"element": "C" 
			},
			{
				"x": -2.1383401209,
				"y": 0.9641338696,
				"z": -1.4996155628,
				"element": "C" 
			},
			{
				"x": -3.0914816857,
				"y": 0.4432405754,
				"z": -0.9513287068,
				"element": "O" 
			},
			{
				"x": -2.347793144,
				"y": 1.8695524772,
				"z": -2.5622612707,
				"element": "N" 
			},
			{
				"x": -1.4128537808,
				"y": 2.5487877879,
				"z": -3.295427195,
				"element": "C" 
			},
			{
				"x": -1.7982760136,
				"y": 3.5931987246,
				"z": -4.5297362211,
				"element": "S" 
			},
			{
				"x": -0.1090700335,
				"y": 2.2967044072,
				"z": -2.9261462854,
				"element": "N" 
			},
			{
				"x": 0.3267188181,
				"y": 1.4469577816,
				"z": -1.9149070552,
				"element": "C" 
			},
			{
				"x": 1.5397463813,
				"y": 1.3219260723,
				"z": -1.6987609187,
				"element": "O" 
			},
			{
				"x": 2.4513641408,
				"y": -1.3617491592,
				"z": 1.4625886588,
				"element": "C" 
			},
			{
				"x": 2.9311896597,
				"y": -2.1996267168,
				"z": 2.4608327885,
				"element": "C" 
			},
			{
				"x": 2.0257446713,
				"y": -2.9172469387,
				"z": 3.2424081972,
				"element": "C" 
			},
			{
				"x": 0.6574856534,
				"y": -2.7826787117,
				"z": 3.0103286011,
				"element": "C" 
			},
			{
				"x": -1.8552097833,
				"y": -2.5198231465,
				"z": 2.5683391777,
				"element": "H" 
			},
			{
				"x": -1.7429321712,
				"y": -0.8510316716,
				"z": 1.9691680293,
				"element": "H" 
			},
			{
				"x": -1.6803293895,
				"y": -2.1687448241,
				"z": 0.8355146802,
				"element": "H" 
			},
			{
				"x": 1.4919759281,
				"y": 0.1318054682,
				"z": -0.3212600426,
				"element": "H" 
			},
			{
				"x": -3.316879315,
				"y": 2.0324294506,
				"z": -2.8081581143,
				"element": "H" 
			},
			{
				"x": 0.610551876,
				"y": 2.7828971627,
				"z": -3.4479301307,
				"element": "H" 
			},
			{
				"x": 3.1447729319,
				"y": -0.7961735119,
				"z": 0.8452466497,
				"element": "H" 
			},
			{
				"x": 4.0003810377,
				"y": -2.2891708153,
				"z": 2.6241974696,
				"element": "H" 
			},
			{
				"x": 2.3795531656,
				"y": -3.5777380957,
				"z": 4.0279237215,
				"element": "H" 
			},
			{
				"x": -0.0425423925,
				"y": -3.3442528111,
				"z": 3.6227312154,
				"element": "H" 
			}
		],
		 "valence_orbital": [ 
			{
				"type": "occ",
				"energy": -0.28134,
				"method": "rhf"
			},
			{
				"type": "occ",
				"energy": -0.26423,
				"method": "rhf"
			},
			{
				"type": "occ",
				"energy": -0.25183,
				"method": "rhf"
			},
			{
				"type": "occ",
				"energy": -0.23311,
				"method": "rhf"
			},
			{
				"type": "occ",
				"energy": -0.23119,
				"method": "rhf"
			},
			{
				"type": "unocc",
				"energy": -0.10364,
				"method": "rhf"
			},
			{
				"type": "unocc",
				"energy": -0.03348,
				"method": "rhf"
			},
			{
				"type": "unocc",
				"energy": -0.01877,
				"method": "rhf"
			},
			{
				"type": "unocc",
				"energy": -0.01371,
				"method": "rhf"
			},
			{
				"type": "unocc",
				"energy": -0.00049,
				"method": "rhf"
			}
		],
		"cosmo_sigma_profile": { 
			"-0.025": 0.0,
			"-0.024": 0.0,
			"-0.023": 0.0,
			"-0.022": 0.0,
			"-0.021": 0.0,
			"-0.02": 0.0,
			"-0.019": 0.0,
			"-0.018": 0.0,
			"-0.017": 0.085788395319,
			"-0.016": 1.51945209034,
			"-0.015": 1.394362287,
			"-0.014": 2.03071942292,
			"-0.013": 0.633458178005,
			"-0.012": 1.97410722244,
			"-0.011": 3.15601614838,
			"-0.01": 2.74867436758,
			"-0.009": 3.5304669829,
			"-0.008": 4.35664700128,
			"-0.007": 6.24341593497,
			"-0.006": 15.9203900341,
			"-0.005": 18.2752619908,
			"-0.004": 20.4466757718,
			"-0.003": 20.7082509936,
			"-0.002": 22.0030394178,
			"-0.001": 16.7778922157,
			"0.0": 18.7334281041,
			"0.001": 14.7032081777,
			"0.002": 15.0662749849,
			"0.003": 15.526253253,
			"0.004": 15.7450204773,
			"0.005": 8.88671653455,
			"0.006": 7.3258546464,
			"0.007": 9.10208702797,
			"0.008": 9.10471999315,
			"0.009": 9.55027266573,
			"0.01": 7.42150687465,
			"0.011": 6.36759724433,
			"0.012": 4.66163481063,
			"0.013": 0.140486636776,
			"0.014": 0.0,
			"0.015": 0.0,
			"0.016": 0.0,
			"0.017": 0.0,
			"0.018": 0.0,
			"0.019": 0.0,
			"0.02": 0.0,
			"0.021": 0.0,
			"0.022": 0.0,
			"0.023": 0.0,
			"0.024": 0.0,
			"0.025": 0.0
		}
	}
}
