{
	 "smiles": "CC1=CC=C(C=C1)[Si](C)(C1=CC=C(C)C=C1)C1=CC=C(C)C=C1", 
	 "Tm": 365.15, 
	 "num_atms": 47, 
	 "gaussian": { 
		 "optdone": 1, 
		 "sigma_profile": "yes", 
		 "theory": "DFT", 
		 "functional": "B3LYP", 
		 "basiset": "6-31G**", 
		 "properties": { 
			 "R2extent": 9683.0792, 
			 "electric_dipole_moment_norm": 0.454681965774, 
			 "electric_quadrupole_moment_norm": 5.65790769013, 
			 "total_energy": -1142.36336204, 
			 "HOMO_LUMO_gap": 0.22159, 
			 "cosmo_polarized_energy": -7.54, 
			 "cosmo_cavitation_energy": 51.09, 
			 "cosmo_dispersion_energy": -32.54, 
			 "cosmo_repulsion_energy": 2.6, 
			 "cosmo_total_nonelectrostatic_energy": 21.15, 
			 "SMD_solvation_energy": 9.36 
		},
		"coords": [
			{
				"x": -5.597506201,
				"y": 1.8227793995,
				"z": 1.4577473919,
				"element": "C" 
			},
			{
				"x": -4.1681589349,
				"y": 1.4987039934,
				"z": 1.0925629828,
				"element": "C" 
			},
			{
				"x": -3.6105217568,
				"y": 0.2487129506,
				"z": 1.3850679582,
				"element": "C" 
			},
			{
				"x": -2.2804535625,
				"y": -0.0381471939,
				"z": 1.0724268322,
				"element": "C" 
			},
			{
				"x": -1.4507571424,
				"y": 0.9112661461,
				"z": 0.451004714,
				"element": "C" 
			},
			{
				"x": -2.0228681778,
				"y": 2.164989849,
				"z": 0.1584021218,
				"element": "C" 
			},
			{
				"x": -3.3504425653,
				"y": 2.4523718332,
				"z": 0.4694673353,
				"element": "C" 
			},
			{
				"x": 0.3486644316,
				"y": 0.5374196786,
				"z": 0.0034912682,
				"element": "Si" 
			},
			{
				"x": 1.4474438691,
				"y": 1.9638177031,
				"z": 0.5908628918,
				"element": "C" 
			},
			{
				"x": 0.5146262055,
				"y": 0.3529924256,
				"z": -1.8717391053,
				"element": "C" 
			},
			{
				"x": -0.6045398878,
				"y": 0.244796913,
				"z": -2.7152363149,
				"element": "C" 
			},
			{
				"x": -0.4655487436,
				"y": 0.104186712,
				"z": -4.0973400829,
				"element": "C" 
			},
			{
				"x": 0.7988435884,
				"y": 0.0636141123,
				"z": -4.6960471805,
				"element": "C" 
			},
			{
				"x": 0.9533742588,
				"y": -0.1157277373,
				"z": -6.1878516891,
				"element": "C" 
			},
			{
				"x": 1.9224940968,
				"y": 0.1739219645,
				"z": -3.8642592756,
				"element": "C" 
			},
			{
				"x": 1.7824531829,
				"y": 0.3148561125,
				"z": -2.485062309,
				"element": "C" 
			},
			{
				"x": 0.8963185039,
				"y": -1.0618644743,
				"z": 0.8524493221,
				"element": "C" 
			},
			{
				"x": 1.0885024227,
				"y": -1.1091934598,
				"z": 2.2474732727,
				"element": "C" 
			},
			{
				"x": 1.4872835619,
				"y": -2.2792245925,
				"z": 2.8903975406,
				"element": "C" 
			},
			{
				"x": 1.7122800821,
				"y": -3.4593533012,
				"z": 2.1668242222,
				"element": "C" 
			},
			{
				"x": 2.1194856514,
				"y": -4.7331088974,
				"z": 2.8691423568,
				"element": "C" 
			},
			{
				"x": 1.5277213462,
				"y": -3.4223467088,
				"z": 0.7800679469,
				"element": "C" 
			},
			{
				"x": 1.127439977,
				"y": -2.2493755012,
				"z": 0.1370245191,
				"element": "C" 
			},
			{
				"x": -6.0714691602,
				"y": 2.4552194502,
				"z": 0.7002369647,
				"element": "H" 
			},
			{
				"x": -6.1987246278,
				"y": 0.915411731,
				"z": 1.5671322293,
				"element": "H" 
			},
			{
				"x": -5.6495828976,
				"y": 2.3660106998,
				"z": 2.4098716703,
				"element": "H" 
			},
			{
				"x": -4.224842382,
				"y": -0.5108271126,
				"z": 1.8637099121,
				"element": "H" 
			},
			{
				"x": -1.8827000944,
				"y": -1.0189237263,
				"z": 1.3191299396,
				"element": "H" 
			},
			{
				"x": -1.426217284,
				"y": 2.9340349961,
				"z": -0.3277900585,
				"element": "H" 
			},
			{
				"x": -3.7602193501,
				"y": 3.4303439823,
				"z": 0.2259584169,
				"element": "H" 
			},
			{
				"x": 1.4211580135,
				"y": 2.0609501033,
				"z": 1.6813068002,
				"element": "H" 
			},
			{
				"x": 1.121034209,
				"y": 2.9179226643,
				"z": 0.1638627856,
				"element": "H" 
			},
			{
				"x": 2.4904583606,
				"y": 1.8073235432,
				"z": 0.2961906183,
				"element": "H" 
			},
			{
				"x": -1.6034865118,
				"y": 0.2791706363,
				"z": -2.2887552597,
				"element": "H" 
			},
			{
				"x": -1.3538104619,
				"y": 0.027928572,
				"z": -4.7206622531,
				"element": "H" 
			},
			{
				"x": 0.0455828157,
				"y": 0.1780838164,
				"z": -6.7228462086,
				"element": "H" 
			},
			{
				"x": 1.1579879811,
				"y": -1.1635813702,
				"z": -6.4417763677,
				"element": "H" 
			},
			{
				"x": 1.7855631471,
				"y": 0.4782929789,
				"z": -6.5791904838,
				"element": "H" 
			},
			{
				"x": 2.9172602209,
				"y": 0.1527044782,
				"z": -4.304317991,
				"element": "H" 
			},
			{
				"x": 2.6818920044,
				"y": 0.3975501186,
				"z": -1.8784370549,
				"element": "H" 
			},
			{
				"x": 0.9256462641,
				"y": -0.2170075637,
				"z": 2.8486049816,
				"element": "H" 
			},
			{
				"x": 1.630210501,
				"y": -2.27817514,
				"z": 3.9689391885,
				"element": "H" 
			},
			{
				"x": 1.2507907488,
				"y": -5.236321027,
				"z": 3.3123518304,
				"element": "H" 
			},
			{
				"x": 2.8253058971,
				"y": -4.5347336253,
				"z": 3.6822436894,
				"element": "H" 
			},
			{
				"x": 2.5881762679,
				"y": -5.4394850869,
				"z": 2.177823226,
				"element": "H" 
			},
			{
				"x": 1.7022421165,
				"y": -4.3222596005,
				"z": 0.1943619194,
				"element": "H" 
			},
			{
				"x": 1.0015100158,
				"y": -2.2590214451,
				"z": -0.9423252144,
				"element": "H" 
			}
		],
		 "valence_orbital": [ 
			{
				"type": "occ",
				"energy": -0.24156,
				"method": "rhf"
			},
			{
				"type": "occ",
				"energy": -0.24154,
				"method": "rhf"
			},
			{
				"type": "occ",
				"energy": -0.23473,
				"method": "rhf"
			},
			{
				"type": "occ",
				"energy": -0.23459,
				"method": "rhf"
			},
			{
				"type": "occ",
				"energy": -0.22962,
				"method": "rhf"
			},
			{
				"type": "unocc",
				"energy": -0.00803,
				"method": "rhf"
			},
			{
				"type": "unocc",
				"energy": -0.00509,
				"method": "rhf"
			},
			{
				"type": "unocc",
				"energy": -0.00473,
				"method": "rhf"
			},
			{
				"type": "unocc",
				"energy": 0.00017,
				"method": "rhf"
			},
			{
				"type": "unocc",
				"energy": 0.00951,
				"method": "rhf"
			}
		],
		"cosmo_sigma_profile": { 
			"-0.025": 0.0,
			"-0.024": 0.0,
			"-0.023": 0.0,
			"-0.022": 0.0,
			"-0.021": 0.0,
			"-0.02": 0.0,
			"-0.019": 0.0,
			"-0.018": 0.0,
			"-0.017": 0.0,
			"-0.016": 0.0,
			"-0.015": 0.0,
			"-0.014": 0.0,
			"-0.013": 0.0,
			"-0.012": 0.0,
			"-0.011": 0.0,
			"-0.01": 0.0,
			"-0.009": 0.0,
			"-0.008": 0.0,
			"-0.007": 0.0,
			"-0.006": 0.355931031422,
			"-0.005": 16.8994851088,
			"-0.004": 46.2040659548,
			"-0.003": 46.4458498004,
			"-0.002": 40.8358326828,
			"-0.001": 40.7840766162,
			"0.0": 45.2486057262,
			"0.001": 40.5449572753,
			"0.002": 30.4373823167,
			"0.003": 23.9679522804,
			"0.004": 21.3386588424,
			"0.005": 20.6690363296,
			"0.006": 20.7154478308,
			"0.007": 5.99913991016,
			"0.008": 0.0,
			"0.009": 0.0,
			"0.01": 0.0,
			"0.011": 0.0,
			"0.012": 0.0,
			"0.013": 0.0,
			"0.014": 0.0,
			"0.015": 0.0,
			"0.016": 0.0,
			"0.017": 0.0,
			"0.018": 0.0,
			"0.019": 0.0,
			"0.02": 0.0,
			"0.021": 0.0,
			"0.022": 0.0,
			"0.023": 0.0,
			"0.024": 0.0,
			"0.025": 0.0
		}
	}
}
