{
	 "smiles": "COC(=O)C1=C(C)C2=C(S1)N=C(CCl)NC2=O", 
	 "Tm": 550.15, 
	 "num_atms": 26, 
	 "gaussian": { 
		 "optdone": 1, 
		 "sigma_profile": "yes", 
		 "theory": "DFT", 
		 "functional": "B3LYP", 
		 "basiset": "6-31G**", 
		 "properties": { 
			 "R2extent": 6854.4771, 
			 "electric_dipole_moment_norm": 3.11443045355, 
			 "electric_quadrupole_moment_norm": 14.2285935559, 
			 "total_energy": -1580.07995273, 
			 "HOMO_LUMO_gap": 0.15694, 
			 "cosmo_polarized_energy": -14.88, 
			 "cosmo_cavitation_energy": 34.09, 
			 "cosmo_dispersion_energy": -25.69, 
			 "cosmo_repulsion_energy": 1.96, 
			 "cosmo_total_nonelectrostatic_energy": 10.35, 
			 "SMD_solvation_energy": 5.61 
		},
		"coords": [
			{
				"x": 4.843206688,
				"y": -1.2798784082,
				"z": 1.1509172602,
				"element": "C" 
			},
			{
				"x": 3.4087867582,
				"y": -1.3118574325,
				"z": 1.0940921188,
				"element": "O" 
			},
			{
				"x": 2.8439551108,
				"y": -0.4722787467,
				"z": 0.1913692109,
				"element": "C" 
			},
			{
				"x": 3.4866411416,
				"y": 0.2657696566,
				"z": -0.5317683952,
				"element": "O" 
			},
			{
				"x": 1.3790099463,
				"y": -0.5762331473,
				"z": 0.2082429868,
				"element": "C" 
			},
			{
				"x": 0.5002562884,
				"y": 0.1404439727,
				"z": -0.5841010515,
				"element": "C" 
			},
			{
				"x": 0.9048791706,
				"y": 1.1633606242,
				"z": -1.6107314802,
				"element": "C" 
			},
			{
				"x": -0.8553050759,
				"y": -0.2257249784,
				"z": -0.2935468125,
				"element": "C" 
			},
			{
				"x": -0.9674989365,
				"y": -1.2007533985,
				"z": 0.7045227542,
				"element": "C" 
			},
			{
				"x": 0.5813729622,
				"y": -1.6915693203,
				"z": 1.3079603255,
				"element": "S" 
			},
			{
				"x": -2.1209616692,
				"y": -1.7386672791,
				"z": 1.1959624125,
				"element": "N" 
			},
			{
				"x": -3.2140505964,
				"y": -1.2867745529,
				"z": 0.6493004538,
				"element": "C" 
			},
			{
				"x": -4.5183193884,
				"y": -1.9091553327,
				"z": 1.0747582442,
				"element": "C" 
			},
			{
				"x": -5.8600424682,
				"y": -0.7027318295,
				"z": 1.2551200344,
				"element": "Cl" 
			},
			{
				"x": -3.2293548097,
				"y": -0.3402434068,
				"z": -0.3313657026,
				"element": "N" 
			},
			{
				"x": -2.0834273171,
				"y": 0.2866105816,
				"z": -0.8867093434,
				"element": "C" 
			},
			{
				"x": -2.225630546,
				"y": 1.1383880029,
				"z": -1.7515735393,
				"element": "O" 
			},
			{
				"x": 5.122260491,
				"y": -2.0023962051,
				"z": 1.9174127235,
				"element": "H" 
			},
			{
				"x": 5.1949566419,
				"y": -0.2803277173,
				"z": 1.4182707205,
				"element": "H" 
			},
			{
				"x": 5.272353049,
				"y": -1.5585708454,
				"z": 0.1852407107,
				"element": "H" 
			},
			{
				"x": 1.4925802335,
				"y": 1.9603641627,
				"z": -1.1465709104,
				"element": "H" 
			},
			{
				"x": 0.0229280141,
				"y": 1.5862673679,
				"z": -2.0892256382,
				"element": "H" 
			},
			{
				"x": 1.5550365099,
				"y": 0.712039534,
				"z": -2.3657342094,
				"element": "H" 
			},
			{
				"x": -4.8604156494,
				"y": -2.6356969169,
				"z": 0.3336283825,
				"element": "H" 
			},
			{
				"x": -4.3699291038,
				"y": -2.4038975682,
				"z": 2.0322007283,
				"element": "H" 
			},
			{
				"x": -4.1162874448,
				"y": 0.0127131832,
				"z": -0.6756719842,
				"element": "H" 
			}
		],
		 "valence_orbital": [ 
			{
				"type": "occ",
				"energy": -0.30405,
				"method": "rhf"
			},
			{
				"type": "occ",
				"energy": -0.28092,
				"method": "rhf"
			},
			{
				"type": "occ",
				"energy": -0.27324,
				"method": "rhf"
			},
			{
				"type": "occ",
				"energy": -0.26736,
				"method": "rhf"
			},
			{
				"type": "occ",
				"energy": -0.23441,
				"method": "rhf"
			},
			{
				"type": "unocc",
				"energy": -0.07747,
				"method": "rhf"
			},
			{
				"type": "unocc",
				"energy": -0.03257,
				"method": "rhf"
			},
			{
				"type": "unocc",
				"energy": -0.01739,
				"method": "rhf"
			},
			{
				"type": "unocc",
				"energy": 0.01178,
				"method": "rhf"
			},
			{
				"type": "unocc",
				"energy": 0.01638,
				"method": "rhf"
			}
		],
		"cosmo_sigma_profile": { 
			"-0.025": 0.0,
			"-0.024": 0.0,
			"-0.023": 0.0,
			"-0.022": 0.0,
			"-0.021": 0.0,
			"-0.02": 0.0,
			"-0.019": 0.0,
			"-0.018": 0.0,
			"-0.017": 0.0,
			"-0.016": 0.0,
			"-0.015": 0.273978252892,
			"-0.014": 0.993161411009,
			"-0.013": 1.12782632644,
			"-0.012": 0.85655006229,
			"-0.011": 1.10398703761,
			"-0.01": 4.39021878298,
			"-0.009": 4.92419651733,
			"-0.008": 4.59054299239,
			"-0.007": 6.53111371861,
			"-0.006": 9.25094147117,
			"-0.005": 13.5061072843,
			"-0.004": 18.8173340775,
			"-0.003": 20.6243907622,
			"-0.002": 19.1398467929,
			"-0.001": 28.702528967,
			"0.0": 27.3820721147,
			"0.001": 20.5089148347,
			"0.002": 18.6489634139,
			"0.003": 14.6387239988,
			"0.004": 12.7086311799,
			"0.005": 12.7581187367,
			"0.006": 5.36241044772,
			"0.007": 3.58297502423,
			"0.008": 3.40723386495,
			"0.009": 4.54828116992,
			"0.01": 4.58171905753,
			"0.011": 6.13281487455,
			"0.012": 7.00081435205,
			"0.013": 0.977165652778,
			"0.014": 0.0,
			"0.015": 0.0,
			"0.016": 0.0,
			"0.017": 0.0,
			"0.018": 0.0,
			"0.019": 0.0,
			"0.02": 0.0,
			"0.021": 0.0,
			"0.022": 0.0,
			"0.023": 0.0,
			"0.024": 0.0,
			"0.025": 0.0
		}
	}
}
