{
	 "smiles": "CC1=NC(COC2=C(C=CC=C2)C(O)=O)=NO1", 
	 "Tm": 363.15, 
	 "num_atms": 27, 
	 "gaussian": { 
		 "optdone": 1, 
		 "sigma_profile": "yes", 
		 "theory": "DFT", 
		 "functional": "B3LYP", 
		 "basiset": "6-31G**", 
		 "properties": { 
			 "R2extent": 4411.1884, 
			 "electric_dipole_moment_norm": 3.35425775694, 
			 "electric_quadrupole_moment_norm": 14.6889902982, 
			 "total_energy": -835.555478496, 
			 "HOMO_LUMO_gap": 0.19499, 
			 "cosmo_polarized_energy": -17.81, 
			 "cosmo_cavitation_energy": 32.57, 
			 "cosmo_dispersion_energy": -22.78, 
			 "cosmo_repulsion_energy": 1.79, 
			 "cosmo_total_nonelectrostatic_energy": 11.58, 
			 "SMD_solvation_energy": 5.37 
		},
		"coords": [
			{
				"x": -1.1678824946,
				"y": 2.7985007425,
				"z": -2.1381398307,
				"element": "C" 
			},
			{
				"x": -0.835059353,
				"y": 1.3888292609,
				"z": -2.4761833613,
				"element": "C" 
			},
			{
				"x": -0.0225948279,
				"y": 0.5761802401,
				"z": -1.8666561964,
				"element": "N" 
			},
			{
				"x": -0.1475271168,
				"y": -0.5734441948,
				"z": -2.6152864004,
				"element": "C" 
			},
			{
				"x": 0.5818867874,
				"y": -1.8459480275,
				"z": -2.3044623857,
				"element": "C" 
			},
			{
				"x": 0.0793699041,
				"y": -2.4635189887,
				"z": -1.116839104,
				"element": "O" 
			},
			{
				"x": 0.5838310044,
				"y": -2.07128571,
				"z": 0.0943230016,
				"element": "C" 
			},
			{
				"x": -0.3007353977,
				"y": -1.6424096597,
				"z": 1.1055453044,
				"element": "C" 
			},
			{
				"x": 0.2128808406,
				"y": -1.3817196319,
				"z": 2.3873178923,
				"element": "C" 
			},
			{
				"x": 1.5713785789,
				"y": -1.5049350957,
				"z": 2.6582731053,
				"element": "C" 
			},
			{
				"x": 2.4396622669,
				"y": -1.9177651719,
				"z": 1.6449048819,
				"element": "C" 
			},
			{
				"x": 1.9478858895,
				"y": -2.2098679604,
				"z": 0.3754759511,
				"element": "C" 
			},
			{
				"x": -1.7468241457,
				"y": -1.4170225429,
				"z": 0.8286074126,
				"element": "C" 
			},
			{
				"x": -2.4874469153,
				"y": -1.4187739497,
				"z": 1.9730198103,
				"element": "O" 
			},
			{
				"x": -2.2613432476,
				"y": -1.2216731588,
				"z": -0.2525689367,
				"element": "O" 
			},
			{
				"x": -0.9637113772,
				"y": -0.4854712348,
				"z": -3.6332503171,
				"element": "N" 
			},
			{
				"x": -1.4324636406,
				"y": 0.8360295701,
				"z": -3.5488293478,
				"element": "O" 
			},
			{
				"x": -2.2207076377,
				"y": 2.8830577339,
				"z": -1.8507381996,
				"element": "H" 
			},
			{
				"x": -1.0030485754,
				"y": 3.4534613601,
				"z": -2.9986853745,
				"element": "H" 
			},
			{
				"x": -0.543066925,
				"y": 3.123885686,
				"z": -1.3064060827,
				"element": "H" 
			},
			{
				"x": 0.4167455033,
				"y": -2.558959222,
				"z": -3.1136972782,
				"element": "H" 
			},
			{
				"x": 1.6547670795,
				"y": -1.6408175427,
				"z": -2.2181516482,
				"element": "H" 
			},
			{
				"x": -0.47263346,
				"y": -1.0648517135,
				"z": 3.1644516253,
				"element": "H" 
			},
			{
				"x": 1.9503239376,
				"y": -1.2868321012,
				"z": 3.6516391397,
				"element": "H" 
			},
			{
				"x": 3.5009526398,
				"y": -2.031426675,
				"z": 1.8468217433,
				"element": "H" 
			},
			{
				"x": 2.6143055749,
				"y": -2.5752566414,
				"z": -0.3992525045,
				"element": "H" 
			},
			{
				"x": -3.3955448924,
				"y": -1.226665371,
				"z": 1.6870671,
				"element": "H" 
			}
		],
		 "valence_orbital": [ 
			{
				"type": "occ",
				"energy": -0.29288,
				"method": "rhf"
			},
			{
				"type": "occ",
				"energy": -0.28141,
				"method": "rhf"
			},
			{
				"type": "occ",
				"energy": -0.2665,
				"method": "rhf"
			},
			{
				"type": "occ",
				"energy": -0.25893,
				"method": "rhf"
			},
			{
				"type": "occ",
				"energy": -0.23768,
				"method": "rhf"
			},
			{
				"type": "unocc",
				"energy": -0.04269,
				"method": "rhf"
			},
			{
				"type": "unocc",
				"energy": -0.02009,
				"method": "rhf"
			},
			{
				"type": "unocc",
				"energy": -0.007,
				"method": "rhf"
			},
			{
				"type": "unocc",
				"energy": 0.03821,
				"method": "rhf"
			},
			{
				"type": "unocc",
				"energy": 0.05467,
				"method": "rhf"
			}
		],
		"cosmo_sigma_profile": { 
			"-0.025": 0.0,
			"-0.024": 0.0,
			"-0.023": 0.0,
			"-0.022": 0.0,
			"-0.021": 0.0,
			"-0.02": 0.0,
			"-0.019": 0.00963722516442,
			"-0.018": 0.555943757084,
			"-0.017": 0.772133548119,
			"-0.016": 1.22442286846,
			"-0.015": 0.213218959872,
			"-0.014": 0.838792928048,
			"-0.013": 0.330457800323,
			"-0.012": 1.3260849176,
			"-0.011": 0.693814689647,
			"-0.01": 0.774086553718,
			"-0.009": 0.760223997696,
			"-0.008": 5.57558166068,
			"-0.007": 15.3257116318,
			"-0.006": 17.5424755004,
			"-0.005": 20.7403274537,
			"-0.004": 17.8012716359,
			"-0.003": 17.6287453341,
			"-0.002": 15.8600096032,
			"-0.001": 13.1031294027,
			"0.0": 11.6256909619,
			"0.001": 13.3038075472,
			"0.002": 13.618354638,
			"0.003": 17.1272981853,
			"0.004": 13.9206502081,
			"0.005": 9.31751359321,
			"0.006": 11.7763773389,
			"0.007": 8.86046364509,
			"0.008": 7.27482325173,
			"0.009": 5.33058295786,
			"0.01": 5.18390433383,
			"0.011": 5.0741497883,
			"0.012": 5.16348030633,
			"0.013": 1.63394272414,
			"0.014": 0.296857669856,
			"0.015": 0.0,
			"0.016": 0.0,
			"0.017": 0.0,
			"0.018": 0.0,
			"0.019": 0.0,
			"0.02": 0.0,
			"0.021": 0.0,
			"0.022": 0.0,
			"0.023": 0.0,
			"0.024": 0.0,
			"0.025": 0.0
		}
	}
}
