{
	 "smiles": "CC1=CC(Br)=CN=C1NC(=O)C(C)(C)C", 
	 "Tm": 400.15, 
	 "num_atms": 30, 
	 "gaussian": { 
		 "optdone": 1, 
		 "sigma_profile": "yes", 
		 "theory": "DFT", 
		 "functional": "B3LYP", 
		 "basiset": "6-31G**", 
		 "properties": { 
			 "R2extent": 8040.4919, 
			 "electric_dipole_moment_norm": 5.40861268072, 
			 "electric_quadrupole_moment_norm": 7.28968677585, 
			 "total_energy": -3184.36912605, 
			 "HOMO_LUMO_gap": 0.19493, 
			 "cosmo_polarized_energy": -17.72, 
			 "cosmo_cavitation_energy": 35.06, 
			 "cosmo_dispersion_energy": -24.79, 
			 "cosmo_repulsion_energy": 1.94, 
			 "cosmo_total_nonelectrostatic_energy": 12.2, 
			 "SMD_solvation_energy": 4.48 
		},
		"coords": [
			{
				"x": -2.7324706645,
				"y": -0.9213970077,
				"z": 0.4363196933,
				"element": "C" 
			},
			{
				"x": -1.7697331787,
				"y": -1.5512089106,
				"z": -0.5399909731,
				"element": "C" 
			},
			{
				"x": -1.9271928942,
				"y": -2.8720594595,
				"z": -0.9480941723,
				"element": "C" 
			},
			{
				"x": -1.0233258848,
				"y": -3.42995219,
				"z": -1.8514362333,
				"element": "C" 
			},
			{
				"x": -1.2159905485,
				"y": -5.2378990023,
				"z": -2.4275930423,
				"element": "Br" 
			},
			{
				"x": 0.0219976974,
				"y": -2.6462130727,
				"z": -2.3262728798,
				"element": "C" 
			},
			{
				"x": 0.1926766223,
				"y": -1.3776438509,
				"z": -1.9489917705,
				"element": "N" 
			},
			{
				"x": -0.6674351789,
				"y": -0.839613578,
				"z": -1.0866103091,
				"element": "C" 
			},
			{
				"x": -0.4859928253,
				"y": 0.4936915901,
				"z": -0.691683621,
				"element": "N" 
			},
			{
				"x": 0.4956733153,
				"y": 1.4172260495,
				"z": -1.0641076859,
				"element": "C" 
			},
			{
				"x": 1.3963312236,
				"y": 1.1747331611,
				"z": -1.8401294008,
				"element": "O" 
			},
			{
				"x": 0.3280145933,
				"y": 2.8056292812,
				"z": -0.3849481725,
				"element": "C" 
			},
			{
				"x": 1.4665843672,
				"y": 3.7120873788,
				"z": -0.8799120744,
				"element": "C" 
			},
			{
				"x": 0.4205885326,
				"y": 2.6617674905,
				"z": 1.1515020207,
				"element": "C" 
			},
			{
				"x": -1.030323178,
				"y": 3.4298976897,
				"z": -0.7787960712,
				"element": "C" 
			},
			{
				"x": -3.5045518097,
				"y": -1.6348266267,
				"z": 0.7335997898,
				"element": "H" 
			},
			{
				"x": -2.2277112108,
				"y": -0.5885483835,
				"z": 1.352765202,
				"element": "H" 
			},
			{
				"x": -3.2435851929,
				"y": -0.051035702,
				"z": 0.004268397,
				"element": "H" 
			},
			{
				"x": -2.7512554497,
				"y": -3.4641968305,
				"z": -0.5635485148,
				"element": "H" 
			},
			{
				"x": 0.7447351121,
				"y": -3.0489930824,
				"z": -3.0312467304,
				"element": "H" 
			},
			{
				"x": -1.1712518908,
				"y": 0.8365350449,
				"z": -0.0379554869,
				"element": "H" 
			},
			{
				"x": 1.379794641,
				"y": 4.7023869278,
				"z": -0.4206583934,
				"element": "H" 
			},
			{
				"x": 2.4424142516,
				"y": 3.2919323544,
				"z": -0.625296857,
				"element": "H" 
			},
			{
				"x": 1.4349213609,
				"y": 3.8253602015,
				"z": -1.9660655956,
				"element": "H" 
			},
			{
				"x": -0.3979050689,
				"y": 2.068028695,
				"z": 1.5740281608,
				"element": "H" 
			},
			{
				"x": 1.3629053713,
				"y": 2.1902469887,
				"z": 1.4477591969,
				"element": "H" 
			},
			{
				"x": 0.3765549852,
				"y": 3.6504797893,
				"z": 1.6205740235,
				"element": "H" 
			},
			{
				"x": -1.1280114739,
				"y": 3.5087302037,
				"z": -1.8661319327,
				"element": "H" 
			},
			{
				"x": -1.1114400285,
				"y": 4.4383292995,
				"z": -0.3592551564,
				"element": "H" 
			},
			{
				"x": -1.8867155956,
				"y": 2.8562255511,
				"z": -0.4066914104,
				"element": "H" 
			}
		],
		 "valence_orbital": [ 
			{
				"type": "occ",
				"energy": -0.29365,
				"method": "rhf"
			},
			{
				"type": "occ",
				"energy": -0.28174,
				"method": "rhf"
			},
			{
				"type": "occ",
				"energy": -0.27345,
				"method": "rhf"
			},
			{
				"type": "occ",
				"energy": -0.23364,
				"method": "rhf"
			},
			{
				"type": "occ",
				"energy": -0.22553,
				"method": "rhf"
			},
			{
				"type": "unocc",
				"energy": -0.0306,
				"method": "rhf"
			},
			{
				"type": "unocc",
				"energy": -0.02398,
				"method": "rhf"
			},
			{
				"type": "unocc",
				"energy": 0.00657,
				"method": "rhf"
			},
			{
				"type": "unocc",
				"energy": 0.03758,
				"method": "rhf"
			},
			{
				"type": "unocc",
				"energy": 0.04189,
				"method": "rhf"
			}
		],
		"cosmo_sigma_profile": { 
			"-0.025": 0.0,
			"-0.024": 0.0,
			"-0.023": 0.0,
			"-0.022": 0.0,
			"-0.021": 0.0,
			"-0.02": 0.0,
			"-0.019": 0.0,
			"-0.018": 0.0,
			"-0.017": 0.0,
			"-0.016": 0.0,
			"-0.015": 0.0,
			"-0.014": 0.0,
			"-0.013": 0.091827725306,
			"-0.012": 1.30690905518,
			"-0.011": 1.54854756896,
			"-0.01": 1.9929288982,
			"-0.009": 1.32913588747,
			"-0.008": 4.48729937381,
			"-0.007": 6.52308766063,
			"-0.006": 9.22560799501,
			"-0.005": 9.55998218691,
			"-0.004": 16.9820109536,
			"-0.003": 29.3540248038,
			"-0.002": 28.3531244664,
			"-0.001": 29.7518094861,
			"0.0": 34.6689819928,
			"0.001": 32.2438438689,
			"0.002": 15.9067346984,
			"0.003": 8.73659028483,
			"0.004": 14.6520591326,
			"0.005": 6.40171338167,
			"0.006": 1.89632181984,
			"0.007": 1.91456443128,
			"0.008": 1.98771411576,
			"0.009": 1.87859236529,
			"0.01": 2.49809373703,
			"0.011": 1.7760057167,
			"0.012": 2.71969423141,
			"0.013": 4.13094700691,
			"0.014": 2.11976583313,
			"0.015": 1.61108382681,
			"0.016": 0.954036278257,
			"0.017": 1.1783106374,
			"0.018": 0.702575033447,
			"0.019": 0.896336393378,
			"0.02": 0.181283863817,
			"0.021": 0.0,
			"0.022": 0.0,
			"0.023": 0.0,
			"0.024": 0.0,
			"0.025": 0.0
		}
	}
}
