{
	 "smiles": "COC(=O)C1=C(F)C=C(CBr)C=C1", 
	 "Tm": 348.15, 
	 "num_atms": 21, 
	 "gaussian": { 
		 "optdone": 1, 
		 "sigma_profile": "yes", 
		 "theory": "DFT", 
		 "functional": "B3LYP", 
		 "basiset": "6-31G**", 
		 "properties": { 
			 "R2extent": 5284.5836, 
			 "electric_dipole_moment_norm": 1.80627992294, 
			 "electric_quadrupole_moment_norm": 12.1971837959, 
			 "total_energy": -3169.47738284, 
			 "HOMO_LUMO_gap": 0.19106, 
			 "cosmo_polarized_energy": -10.16, 
			 "cosmo_cavitation_energy": 28.66, 
			 "cosmo_dispersion_energy": -20.92, 
			 "cosmo_repulsion_energy": 1.65, 
			 "cosmo_total_nonelectrostatic_energy": 9.39, 
			 "SMD_solvation_energy": 5.71 
		},
		"coords": [
			{
				"x": -1.7530577334,
				"y": 4.4663433425,
				"z": -1.3931083277,
				"element": "C" 
			},
			{
				"x": -1.2538159162,
				"y": 3.2223769201,
				"z": -0.8745844236,
				"element": "O" 
			},
			{
				"x": -0.3291289704,
				"y": 2.6158736881,
				"z": -1.6404492232,
				"element": "C" 
			},
			{
				"x": 0.0664059452,
				"y": 3.0711338688,
				"z": -2.6971182596,
				"element": "O" 
			},
			{
				"x": 0.1707752791,
				"y": 1.327924462,
				"z": -1.0718946788,
				"element": "C" 
			},
			{
				"x": -0.2510333391,
				"y": 0.7366364001,
				"z": 0.1279900658,
				"element": "C" 
			},
			{
				"x": -1.18728106,
				"y": 1.3148263244,
				"z": 0.8955050913,
				"element": "F" 
			},
			{
				"x": 0.2731690365,
				"y": -0.4717449086,
				"z": 0.5730618675,
				"element": "C" 
			},
			{
				"x": 1.2484491973,
				"y": -1.1328399392,
				"z": -0.1791668949,
				"element": "C" 
			},
			{
				"x": 1.8040400844,
				"y": -2.4398301283,
				"z": 0.288956064,
				"element": "C" 
			},
			{
				"x": 3.4146327208,
				"y": -2.1913617715,
				"z": 1.4502746328,
				"element": "Br" 
			},
			{
				"x": 1.685817921,
				"y": -0.557074576,
				"z": -1.381881928,
				"element": "C" 
			},
			{
				"x": 1.1522764238,
				"y": 0.6490892414,
				"z": -1.8135524312,
				"element": "C" 
			},
			{
				"x": -2.4831618072,
				"y": 4.8132019393,
				"z": -0.6623891859,
				"element": "H" 
			},
			{
				"x": -2.2237750767,
				"y": 4.3159137927,
				"z": -2.3677735994,
				"element": "H" 
			},
			{
				"x": -0.9421292756,
				"y": 5.1907667428,
				"z": -1.5018841458,
				"element": "H" 
			},
			{
				"x": -0.0894160273,
				"y": -0.8782834999,
				"z": 1.5115560635,
				"element": "H" 
			},
			{
				"x": 1.1038903371,
				"y": -2.9966944959,
				"z": 0.9087099814,
				"element": "H" 
			},
			{
				"x": 2.1537873073,
				"y": -3.0618287441,
				"z": -0.5327670026,
				"element": "H" 
			},
			{
				"x": 2.4466371657,
				"y": -1.0568012555,
				"z": -1.9738444414,
				"element": "H" 
			},
			{
				"x": 1.4764177875,
				"y": 1.1057725968,
				"z": -2.7421392242,
				"element": "H" 
			}
		],
		 "valence_orbital": [ 
			{
				"type": "occ",
				"energy": -0.28372,
				"method": "rhf"
			},
			{
				"type": "occ",
				"energy": -0.28164,
				"method": "rhf"
			},
			{
				"type": "occ",
				"energy": -0.27914,
				"method": "rhf"
			},
			{
				"type": "occ",
				"energy": -0.26732,
				"method": "rhf"
			},
			{
				"type": "occ",
				"energy": -0.25926,
				"method": "rhf"
			},
			{
				"type": "unocc",
				"energy": -0.0682,
				"method": "rhf"
			},
			{
				"type": "unocc",
				"energy": -0.01665,
				"method": "rhf"
			},
			{
				"type": "unocc",
				"energy": -0.00361,
				"method": "rhf"
			},
			{
				"type": "unocc",
				"energy": 0.05345,
				"method": "rhf"
			},
			{
				"type": "unocc",
				"energy": 0.08157,
				"method": "rhf"
			}
		],
		"cosmo_sigma_profile": { 
			"-0.025": 0.0,
			"-0.024": 0.0,
			"-0.023": 0.0,
			"-0.022": 0.0,
			"-0.021": 0.0,
			"-0.02": 0.0,
			"-0.019": 0.0,
			"-0.018": 0.0,
			"-0.017": 0.0,
			"-0.016": 0.0,
			"-0.015": 0.0,
			"-0.014": 0.0,
			"-0.013": 0.0,
			"-0.012": 0.0,
			"-0.011": 0.0,
			"-0.01": 0.0,
			"-0.009": 1.5244636896,
			"-0.008": 8.21868366702,
			"-0.007": 8.91488553134,
			"-0.006": 13.350182224,
			"-0.005": 15.708431152,
			"-0.004": 15.3445105377,
			"-0.003": 18.0803324582,
			"-0.002": 12.4835283023,
			"-0.001": 16.3268975622,
			"0.0": 17.3254921228,
			"0.001": 16.1792795266,
			"0.002": 17.0141259552,
			"0.003": 14.2892825142,
			"0.004": 14.1963172075,
			"0.005": 11.571739185,
			"0.006": 14.2652754018,
			"0.007": 3.81789009955,
			"0.008": 3.57458817834,
			"0.009": 1.85776240704,
			"0.01": 1.97775034226,
			"0.011": 3.28724613172,
			"0.012": 3.11731215575,
			"0.013": 0.0286374579123,
			"0.014": 0.0,
			"0.015": 0.0,
			"0.016": 0.0,
			"0.017": 0.0,
			"0.018": 0.0,
			"0.019": 0.0,
			"0.02": 0.0,
			"0.021": 0.0,
			"0.022": 0.0,
			"0.023": 0.0,
			"0.024": 0.0,
			"0.025": 0.0
		}
	}
}
