{
	 "smiles": "FC1=CC=C(C=C1)N1C=CC=C1", 
	 "Tm": 324.15, 
	 "num_atms": 20, 
	 "gaussian": { 
		 "optdone": 1, 
		 "sigma_profile": "yes", 
		 "theory": "DFT", 
		 "functional": "B3LYP", 
		 "basiset": "6-31G**", 
		 "properties": { 
			 "R2extent": 2854.7786, 
			 "electric_dipole_moment_norm": 0.240076342025, 
			 "electric_quadrupole_moment_norm": 8.64661534185, 
			 "total_energy": -540.451808253, 
			 "HOMO_LUMO_gap": 0.19504, 
			 "cosmo_polarized_energy": -6.5, 
			 "cosmo_cavitation_energy": 24.25, 
			 "cosmo_dispersion_energy": -18.07, 
			 "cosmo_repulsion_energy": 1.37, 
			 "cosmo_total_nonelectrostatic_energy": 7.55, 
			 "SMD_solvation_energy": 5.39 
		},
		"coords": [
			{
				"x": -1.7130100908,
				"y": 4.5438898164,
				"z": 2.0863005964,
				"element": "F" 
			},
			{
				"x": -1.3139557597,
				"y": 3.4126066369,
				"z": 1.4680375849,
				"element": "C" 
			},
			{
				"x": -1.9214619317,
				"y": 2.2068313503,
				"z": 1.7925432039,
				"element": "C" 
			},
			{
				"x": -1.5074437483,
				"y": 1.0407950093,
				"z": 1.1527391346,
				"element": "C" 
			},
			{
				"x": -0.4878311487,
				"y": 1.0706121821,
				"z": 0.1881937565,
				"element": "C" 
			},
			{
				"x": 0.1069347098,
				"y": 2.3048031985,
				"z": -0.1182109987,
				"element": "C" 
			},
			{
				"x": -0.3028416711,
				"y": 3.4741757827,
				"z": 0.5182372381,
				"element": "C" 
			},
			{
				"x": -0.0681228672,
				"y": -0.1192324422,
				"z": -0.4619359252,
				"element": "N" 
			},
			{
				"x": 0.9245424525,
				"y": -0.2170196419,
				"z": -1.4273261981,
				"element": "C" 
			},
			{
				"x": 1.0382178026,
				"y": -1.5296057009,
				"z": -1.8119799138,
				"element": "C" 
			},
			{
				"x": 0.0839742899,
				"y": -2.2765003763,
				"z": -1.0609472854,
				"element": "C" 
			},
			{
				"x": -0.577157721,
				"y": -1.3923988418,
				"z": -0.2454591036,
				"element": "C" 
			},
			{
				"x": -2.7090166561,
				"y": 2.1844931124,
				"z": 2.5377669363,
				"element": "H" 
			},
			{
				"x": -1.9910564695,
				"y": 0.1090911215,
				"z": 1.4170502342,
				"element": "H" 
			},
			{
				"x": 0.896294332,
				"y": 2.369822612,
				"z": -0.8561099503,
				"element": "H" 
			},
			{
				"x": 0.1561858965,
				"y": 4.4279031529,
				"z": 0.2820007882,
				"element": "H" 
			},
			{
				"x": 1.4711152603,
				"y": 0.6469377359,
				"z": -1.7656260652,
				"element": "H" 
			},
			{
				"x": 1.7299475009,
				"y": -1.9097426562,
				"z": -2.5504744975,
				"element": "H" 
			},
			{
				"x": -0.098288989,
				"y": -3.3407316111,
				"z": -1.1115533639,
				"element": "H" 
			},
			{
				"x": -1.3648251913,
				"y": -1.5727304406,
				"z": 0.4663538284,
				"element": "H" 
			}
		],
		 "valence_orbital": [ 
			{
				"type": "occ",
				"energy": -0.35022,
				"method": "rhf"
			},
			{
				"type": "occ",
				"energy": -0.27995,
				"method": "rhf"
			},
			{
				"type": "occ",
				"energy": -0.26897,
				"method": "rhf"
			},
			{
				"type": "occ",
				"energy": -0.21456,
				"method": "rhf"
			},
			{
				"type": "occ",
				"energy": -0.21406,
				"method": "rhf"
			},
			{
				"type": "unocc",
				"energy": -0.01902,
				"method": "rhf"
			},
			{
				"type": "unocc",
				"energy": -0.01672,
				"method": "rhf"
			},
			{
				"type": "unocc",
				"energy": 0.05525,
				"method": "rhf"
			},
			{
				"type": "unocc",
				"energy": 0.07384,
				"method": "rhf"
			},
			{
				"type": "unocc",
				"energy": 0.08541,
				"method": "rhf"
			}
		],
		"cosmo_sigma_profile": { 
			"-0.025": 0.0,
			"-0.024": 0.0,
			"-0.023": 0.0,
			"-0.022": 0.0,
			"-0.021": 0.0,
			"-0.02": 0.0,
			"-0.019": 0.0,
			"-0.018": 0.0,
			"-0.017": 0.0,
			"-0.016": 0.0,
			"-0.015": 0.0,
			"-0.014": 0.0,
			"-0.013": 0.0,
			"-0.012": 0.0,
			"-0.011": 0.0263758316774,
			"-0.01": 1.85237406048,
			"-0.009": 3.38183657899,
			"-0.008": 4.31166565811,
			"-0.007": 7.98823693526,
			"-0.006": 9.54408940166,
			"-0.005": 12.3353814716,
			"-0.004": 8.7113809882,
			"-0.003": 11.4650481554,
			"-0.002": 10.4879671657,
			"-0.001": 10.0902700608,
			"0.0": 13.2748303869,
			"0.001": 17.7415018695,
			"0.002": 18.9458779854,
			"0.003": 19.7671497269,
			"0.004": 20.3323620136,
			"0.005": 9.82278828178,
			"0.006": 5.30279269141,
			"0.007": 6.09973813481,
			"0.008": 4.27543204142,
			"0.009": 0.173114031284,
			"0.01": 0.0,
			"0.011": 0.0,
			"0.012": 0.0,
			"0.013": 0.0,
			"0.014": 0.0,
			"0.015": 0.0,
			"0.016": 0.0,
			"0.017": 0.0,
			"0.018": 0.0,
			"0.019": 0.0,
			"0.02": 0.0,
			"0.021": 0.0,
			"0.022": 0.0,
			"0.023": 0.0,
			"0.024": 0.0,
			"0.025": 0.0
		}
	}
}
