{
	 "smiles": "NC(=O)C1CNCCN1", 
	 "Tm": 416.15, 
	 "num_atms": 20, 
	 "gaussian": { 
		 "optdone": 1, 
		 "sigma_profile": "yes", 
		 "theory": "DFT", 
		 "functional": "B3LYP", 
		 "basiset": "6-31G**", 
		 "properties": { 
			 "R2extent": 2218.3114, 
			 "electric_dipole_moment_norm": 3.94426286269, 
			 "electric_quadrupole_moment_norm": 17.0292961437, 
			 "total_energy": -436.63533309, 
			 "HOMO_LUMO_gap": 0.23797, 
			 "cosmo_polarized_energy": -15.34, 
			 "cosmo_cavitation_energy": 21.7, 
			 "cosmo_dispersion_energy": -16.57, 
			 "cosmo_repulsion_energy": 1.38, 
			 "cosmo_total_nonelectrostatic_energy": 6.51, 
			 "SMD_solvation_energy": 0.43 
		},
		"coords": [
			{
				"x": -0.9754120204,
				"y": -1.4909010346,
				"z": -3.5729430948,
				"element": "N" 
			},
			{
				"x": -1.8115222372,
				"y": -0.5730208205,
				"z": -3.0186854064,
				"element": "C" 
			},
			{
				"x": -2.840484898,
				"y": -0.1737782594,
				"z": -3.5489152674,
				"element": "O" 
			},
			{
				"x": -1.3372309953,
				"y": -0.0373586682,
				"z": -1.6602213869,
				"element": "C" 
			},
			{
				"x": -2.5281209168,
				"y": 0.4594108856,
				"z": -0.7815630977,
				"element": "C" 
			},
			{
				"x": -2.2992040922,
				"y": 0.2513245519,
				"z": 0.6539014133,
				"element": "N" 
			},
			{
				"x": -0.9062563279,
				"y": 0.5008090471,
				"z": 1.0211173914,
				"element": "C" 
			},
			{
				"x": 0.0998202913,
				"y": -0.4174319606,
				"z": 0.2551845254,
				"element": "C" 
			},
			{
				"x": -0.4869627469,
				"y": -1.0119560953,
				"z": -0.9598527407,
				"element": "N" 
			},
			{
				"x": -0.1624610336,
				"y": -1.7907230271,
				"z": -3.0542948211,
				"element": "H" 
			},
			{
				"x": -1.1996702323,
				"y": -1.8754029701,
				"z": -4.4772172411,
				"element": "H" 
			},
			{
				"x": -0.686377739,
				"y": 0.8178819544,
				"z": -1.8943750093,
				"element": "H" 
			},
			{
				"x": -3.448483514,
				"y": -0.0517364118,
				"z": -1.0755643505,
				"element": "H" 
			},
			{
				"x": -2.6953087073,
				"y": 1.527736346,
				"z": -0.9627118519,
				"element": "H" 
			},
			{
				"x": -2.5556976213,
				"y": -0.6983271405,
				"z": 0.9111939084,
				"element": "H" 
			},
			{
				"x": -0.7919052287,
				"y": 0.3795435921,
				"z": 2.1035580612,
				"element": "H" 
			},
			{
				"x": -0.6952300769,
				"y": 1.5547266322,
				"z": 0.7999183462,
				"element": "H" 
			},
			{
				"x": 0.9924152097,
				"y": 0.1527302178,
				"z": -0.0338009925,
				"element": "H" 
			},
			{
				"x": 0.4412749623,
				"y": -1.2409355826,
				"z": 0.8916918041,
				"element": "H" 
			},
			{
				"x": -1.0728820757,
				"y": -1.7987912568,
				"z": -0.6832201897,
				"element": "H" 
			}
		],
		 "valence_orbital": [ 
			{
				"type": "occ",
				"energy": -0.33387,
				"method": "rhf"
			},
			{
				"type": "occ",
				"energy": -0.26292,
				"method": "rhf"
			},
			{
				"type": "occ",
				"energy": -0.25939,
				"method": "rhf"
			},
			{
				"type": "occ",
				"energy": -0.24354,
				"method": "rhf"
			},
			{
				"type": "occ",
				"energy": -0.21076,
				"method": "rhf"
			},
			{
				"type": "unocc",
				"energy": 0.02721,
				"method": "rhf"
			},
			{
				"type": "unocc",
				"energy": 0.06267,
				"method": "rhf"
			},
			{
				"type": "unocc",
				"energy": 0.09606,
				"method": "rhf"
			},
			{
				"type": "unocc",
				"energy": 0.10525,
				"method": "rhf"
			},
			{
				"type": "unocc",
				"energy": 0.12035,
				"method": "rhf"
			}
		],
		"cosmo_sigma_profile": { 
			"-0.025": 0.0,
			"-0.024": 0.0,
			"-0.023": 0.0,
			"-0.022": 0.0,
			"-0.021": 0.0,
			"-0.02": 0.0,
			"-0.019": 0.0,
			"-0.018": 0.0,
			"-0.017": 0.0,
			"-0.016": 0.0,
			"-0.015": 0.0,
			"-0.014": 0.282365875789,
			"-0.013": 1.09048335598,
			"-0.012": 1.55930066102,
			"-0.011": 3.12625659124,
			"-0.01": 5.81498159534,
			"-0.009": 5.1167604275,
			"-0.008": 3.88351811047,
			"-0.007": 3.67118581548,
			"-0.006": 3.86889869794,
			"-0.005": 7.78623694776,
			"-0.004": 13.4174453122,
			"-0.003": 20.6821254274,
			"-0.002": 14.3960364496,
			"-0.001": 12.7794412528,
			"0.0": 9.61218921585,
			"0.001": 6.97181070244,
			"0.002": 4.49234982673,
			"0.003": 5.95832417879,
			"0.004": 5.74719194858,
			"0.005": 4.36199357041,
			"0.006": 3.16204025653,
			"0.007": 3.13371013399,
			"0.008": 2.48853681085,
			"0.009": 2.0342372701,
			"0.01": 2.99484367083,
			"0.011": 2.76870004604,
			"0.012": 2.14848948708,
			"0.013": 3.27227953461,
			"0.014": 6.8530400343,
			"0.015": 2.60779435571,
			"0.016": 0.783454874639,
			"0.017": 0.367271581248,
			"0.018": 0.501074755797,
			"0.019": 0.135812792026,
			"0.02": 0.0,
			"0.021": 0.0,
			"0.022": 0.0,
			"0.023": 0.0,
			"0.024": 0.0,
			"0.025": 0.0
		}
	}
}
