{
	 "smiles": "CSCCC1NC(=O)NC1=O", 
	 "Tm": 382.15, 
	 "num_atms": 21, 
	 "gaussian": { 
		 "optdone": 1, 
		 "sigma_profile": "yes", 
		 "theory": "DFT", 
		 "functional": "B3LYP", 
		 "basiset": "6-31G**", 
		 "properties": { 
			 "R2extent": 3299.048, 
			 "electric_dipole_moment_norm": 3.33049407896, 
			 "electric_quadrupole_moment_norm": 11.0804674734, 
			 "total_energy": -892.846243575, 
			 "HOMO_LUMO_gap": 0.22064, 
			 "cosmo_polarized_energy": -17.25, 
			 "cosmo_cavitation_energy": 26.5, 
			 "cosmo_dispersion_energy": -19.56, 
			 "cosmo_repulsion_energy": 1.57, 
			 "cosmo_total_nonelectrostatic_energy": 8.51, 
			 "SMD_solvation_energy": 5.47 
		},
		"coords": [
			{
				"x": -1.2130879361,
				"y": -0.0942133541,
				"z": 2.6840516612,
				"element": "C" 
			},
			{
				"x": -1.5543517486,
				"y": 0.3914728652,
				"z": 0.9581174237,
				"element": "S" 
			},
			{
				"x": 0.1468959535,
				"y": 0.8617614517,
				"z": 0.4390521716,
				"element": "C" 
			},
			{
				"x": 0.1909696827,
				"y": 1.3381494256,
				"z": -1.0154855827,
				"element": "C" 
			},
			{
				"x": -0.3274489791,
				"y": 0.3112123663,
				"z": -2.0341884875,
				"element": "C" 
			},
			{
				"x": 0.3732497319,
				"y": -0.9680769826,
				"z": -2.0148907635,
				"element": "N" 
			},
			{
				"x": 0.8034408767,
				"y": -1.35740025,
				"z": -3.2657783987,
				"element": "C" 
			},
			{
				"x": 1.2964384487,
				"y": -2.4135143017,
				"z": -3.5987635769,
				"element": "O" 
			},
			{
				"x": 0.5618641251,
				"y": -0.2515706944,
				"z": -4.1082247287,
				"element": "N" 
			},
			{
				"x": -0.0905736578,
				"y": 0.7877603136,
				"z": -3.4771192027,
				"element": "C" 
			},
			{
				"x": -0.4006381896,
				"y": 1.8596775106,
				"z": -3.9511954828,
				"element": "O" 
			},
			{
				"x": -0.5061336598,
				"y": -0.9269827614,
				"z": 2.7298733449,
				"element": "H" 
			},
			{
				"x": -0.8274552732,
				"y": 0.7503112027,
				"z": 3.2612768369,
				"element": "H" 
			},
			{
				"x": -2.1628958609,
				"y": -0.413581744,
				"z": 3.1178100351,
				"element": "H" 
			},
			{
				"x": 0.8081392521,
				"y": -0.0017781516,
				"z": 0.5718397116,
				"element": "H" 
			},
			{
				"x": 0.5057876994,
				"y": 1.6622494287,
				"z": 1.0937995414,
				"element": "H" 
			},
			{
				"x": 1.2321027652,
				"y": 1.5821348999,
				"z": -1.257479781,
				"element": "H" 
			},
			{
				"x": -0.3936739752,
				"y": 2.2546643667,
				"z": -1.1431930579,
				"element": "H" 
			},
			{
				"x": -1.408186248,
				"y": 0.1698119897,
				"z": -1.896668159,
				"element": "H" 
			},
			{
				"x": 0.1563800359,
				"y": -1.6889195542,
				"z": -1.3424254332,
				"element": "H" 
			},
			{
				"x": 0.8534769572,
				"y": -0.2374680265,
				"z": -5.0750080717,
				"element": "H" 
			}
		],
		 "valence_orbital": [ 
			{
				"type": "occ",
				"energy": -0.2928,
				"method": "rhf"
			},
			{
				"type": "occ",
				"energy": -0.29099,
				"method": "rhf"
			},
			{
				"type": "occ",
				"energy": -0.27317,
				"method": "rhf"
			},
			{
				"type": "occ",
				"energy": -0.26303,
				"method": "rhf"
			},
			{
				"type": "occ",
				"energy": -0.23371,
				"method": "rhf"
			},
			{
				"type": "unocc",
				"energy": -0.01307,
				"method": "rhf"
			},
			{
				"type": "unocc",
				"energy": 0.02728,
				"method": "rhf"
			},
			{
				"type": "unocc",
				"energy": 0.05296,
				"method": "rhf"
			},
			{
				"type": "unocc",
				"energy": 0.06307,
				"method": "rhf"
			},
			{
				"type": "unocc",
				"energy": 0.0696,
				"method": "rhf"
			}
		],
		"cosmo_sigma_profile": { 
			"-0.025": 0.0,
			"-0.024": 0.0,
			"-0.023": 0.0,
			"-0.022": 0.0,
			"-0.021": 0.0,
			"-0.02": 0.0,
			"-0.019": 0.0,
			"-0.018": 0.0,
			"-0.017": 0.503070594264,
			"-0.016": 1.25389787744,
			"-0.015": 1.32676706606,
			"-0.014": 1.95606476471,
			"-0.013": 1.52638388031,
			"-0.012": 1.07529035891,
			"-0.011": 1.46491208672,
			"-0.01": 2.01422859423,
			"-0.009": 1.86648799253,
			"-0.008": 3.28640297342,
			"-0.007": 4.80534396662,
			"-0.006": 10.1423362418,
			"-0.005": 19.5664497824,
			"-0.004": 20.1989885104,
			"-0.003": 19.4026381725,
			"-0.002": 20.1774529,
			"-0.001": 14.761362694,
			"0.0": 7.15051150463,
			"0.001": 6.03362804092,
			"0.002": 5.90996447481,
			"0.003": 5.75288598774,
			"0.004": 5.32949040605,
			"0.005": 5.82656126069,
			"0.006": 6.31832653015,
			"0.007": 4.78467712666,
			"0.008": 3.58593562248,
			"0.009": 5.14032716922,
			"0.01": 4.59664503248,
			"0.011": 6.45313898711,
			"0.012": 10.4804060272,
			"0.013": 6.79433325598,
			"0.014": 0.590794117511,
			"0.015": 0.0,
			"0.016": 0.0,
			"0.017": 0.0,
			"0.018": 0.0,
			"0.019": 0.0,
			"0.02": 0.0,
			"0.021": 0.0,
			"0.022": 0.0,
			"0.023": 0.0,
			"0.024": 0.0,
			"0.025": 0.0
		}
	}
}
