{
	 "smiles": "NN(C1=CC=CC=C1)C1=CC=CC=C1", 
	 "Tm": 323.65, 
	 "num_atms": 26, 
	 "gaussian": { 
		 "optdone": 1, 
		 "sigma_profile": "yes", 
		 "theory": "DFT", 
		 "functional": "B3LYP", 
		 "basiset": "6-31G**", 
		 "properties": { 
			 "R2extent": 3523.7645, 
			 "electric_dipole_moment_norm": 1.37040715848, 
			 "electric_quadrupole_moment_norm": 8.65145189838, 
			 "total_energy": -573.973274807, 
			 "HOMO_LUMO_gap": 0.1758, 
			 "cosmo_polarized_energy": -8.79, 
			 "cosmo_cavitation_energy": 29.01, 
			 "cosmo_dispersion_energy": -21.33, 
			 "cosmo_repulsion_energy": 1.68, 
			 "cosmo_total_nonelectrostatic_energy": 9.35, 
			 "SMD_solvation_energy": 5.27 
		},
		"coords": [
			{
				"x": -1.2105637516,
				"y": -0.2771349726,
				"z": 2.4558909268,
				"element": "N" 
			},
			{
				"x": -1.1206508181,
				"y": -0.3498824837,
				"z": 1.0519959573,
				"element": "N" 
			},
			{
				"x": 0.0182531283,
				"y": 0.2709309531,
				"z": 0.4855959852,
				"element": "C" 
			},
			{
				"x": -0.0472273905,
				"y": 0.8991905683,
				"z": -0.7702379999,
				"element": "C" 
			},
			{
				"x": 1.0812201565,
				"y": 1.5165422076,
				"z": -1.3078487067,
				"element": "C" 
			},
			{
				"x": 2.285169256,
				"y": 1.5420442499,
				"z": -0.6024218373,
				"element": "C" 
			},
			{
				"x": 2.3438355139,
				"y": 0.9405997981,
				"z": 0.656895549,
				"element": "C" 
			},
			{
				"x": 1.2275941961,
				"y": 0.3089706682,
				"z": 1.1998148214,
				"element": "C" 
			},
			{
				"x": -2.1255304342,
				"y": -1.0168622944,
				"z": 0.3266449714,
				"element": "C" 
			},
			{
				"x": -1.8565706077,
				"y": -1.6169039127,
				"z": -0.9214055992,
				"element": "C" 
			},
			{
				"x": -2.8543110945,
				"y": -2.3053164679,
				"z": -1.603682177,
				"element": "C" 
			},
			{
				"x": -4.1390819419,
				"y": -2.4325670914,
				"z": -1.0675786736,
				"element": "C" 
			},
			{
				"x": -4.4062780752,
				"y": -1.8583559442,
				"z": 0.1739942916,
				"element": "C" 
			},
			{
				"x": -3.4176226527,
				"y": -1.1600265601,
				"z": 0.8672816753,
				"element": "C" 
			},
			{
				"x": -1.4733395336,
				"y": -1.1900599935,
				"z": 2.8212926033,
				"element": "H" 
			},
			{
				"x": -1.9311238968,
				"y": 0.3922885062,
				"z": 2.7261441154,
				"element": "H" 
			},
			{
				"x": -0.9829118011,
				"y": 0.912051233,
				"z": -1.3181104567,
				"element": "H" 
			},
			{
				"x": 1.0084985086,
				"y": 1.9961549563,
				"z": -2.2801927268,
				"element": "H" 
			},
			{
				"x": 3.1598101886,
				"y": 2.0292774923,
				"z": -1.0224256388,
				"element": "H" 
			},
			{
				"x": 3.2703632871,
				"y": 0.9571036967,
				"z": 1.2245239113,
				"element": "H" 
			},
			{
				"x": 1.2693452082,
				"y": -0.1444995009,
				"z": 2.1824512828,
				"element": "H" 
			},
			{
				"x": -0.8610842358,
				"y": -1.5513051962,
				"z": -1.3441663068,
				"element": "H" 
			},
			{
				"x": -2.6175211248,
				"y": -2.7611103325,
				"z": -2.5612991863,
				"element": "H" 
			},
			{
				"x": -4.9110748013,
				"y": -2.974694907,
				"z": -1.604434415,
				"element": "H" 
			},
			{
				"x": -5.3955617602,
				"y": -1.9473287656,
				"z": 0.6147107189,
				"element": "H" 
			},
			{
				"x": -3.6551355234,
				"y": -0.721105907,
				"z": 1.8299669143,
				"element": "H" 
			}
		],
		 "valence_orbital": [ 
			{
				"type": "occ",
				"energy": -0.27877,
				"method": "rhf"
			},
			{
				"type": "occ",
				"energy": -0.24996,
				"method": "rhf"
			},
			{
				"type": "occ",
				"energy": -0.24911,
				"method": "rhf"
			},
			{
				"type": "occ",
				"energy": -0.24119,
				"method": "rhf"
			},
			{
				"type": "occ",
				"energy": -0.1833,
				"method": "rhf"
			},
			{
				"type": "unocc",
				"energy": -0.0075,
				"method": "rhf"
			},
			{
				"type": "unocc",
				"energy": -0.00107,
				"method": "rhf"
			},
			{
				"type": "unocc",
				"energy": 0.00976,
				"method": "rhf"
			},
			{
				"type": "unocc",
				"energy": 0.03041,
				"method": "rhf"
			},
			{
				"type": "unocc",
				"energy": 0.06953,
				"method": "rhf"
			}
		],
		"cosmo_sigma_profile": { 
			"-0.025": 0.0,
			"-0.024": 0.0,
			"-0.023": 0.0,
			"-0.022": 0.0,
			"-0.021": 0.0,
			"-0.02": 0.0,
			"-0.019": 0.0,
			"-0.018": 0.0,
			"-0.017": 0.0,
			"-0.016": 0.0,
			"-0.015": 0.0,
			"-0.014": 0.0,
			"-0.013": 0.0,
			"-0.012": 0.493676058906,
			"-0.011": 3.0674854073,
			"-0.01": 4.0602434733,
			"-0.009": 3.05570252118,
			"-0.008": 2.7558795964,
			"-0.007": 2.43094673979,
			"-0.006": 4.89432138523,
			"-0.005": 15.2638625604,
			"-0.004": 20.5140508875,
			"-0.003": 20.7070029511,
			"-0.002": 16.9977233093,
			"-0.001": 15.1365321624,
			"0.0": 13.5573513967,
			"0.001": 14.0589959093,
			"0.002": 16.3224868576,
			"0.003": 14.9724003042,
			"0.004": 16.6129168155,
			"0.005": 15.3652526852,
			"0.006": 18.2381256568,
			"0.007": 9.24916017592,
			"0.008": 0.806566208505,
			"0.009": 0.603843649721,
			"0.01": 0.738445069095,
			"0.011": 0.685858706499,
			"0.012": 0.775490840735,
			"0.013": 0.0314986743743,
			"0.014": 0.0,
			"0.015": 0.0,
			"0.016": 0.0,
			"0.017": 0.0,
			"0.018": 0.0,
			"0.019": 0.0,
			"0.02": 0.0,
			"0.021": 0.0,
			"0.022": 0.0,
			"0.023": 0.0,
			"0.024": 0.0,
			"0.025": 0.0
		}
	}
}
