{
	 "smiles": "CCCCC(=O)CCCC", 
	 "Tm": 269.35, 
	 "num_atms": 28, 
	 "gaussian": { 
		 "optdone": 1, 
		 "sigma_profile": "yes", 
		 "theory": "DFT", 
		 "functional": "B3LYP", 
		 "basiset": "6-31G**", 
		 "properties": { 
			 "R2extent": 2524.3524, 
			 "electric_dipole_moment_norm": 2.36069723599, 
			 "electric_quadrupole_moment_norm": 3.67270601601, 
			 "total_energy": -429.053397109, 
			 "HOMO_LUMO_gap": 0.23339, 
			 "cosmo_polarized_energy": -6.64, 
			 "cosmo_cavitation_energy": 29.21, 
			 "cosmo_dispersion_energy": -20.53, 
			 "cosmo_repulsion_energy": 1.73, 
			 "cosmo_total_nonelectrostatic_energy": 10.4, 
			 "SMD_solvation_energy": 4.91 
		},
		"coords": [
			{
				"x": 0.1599495249,
				"y": -2.7766083135,
				"z": 1.4818678549,
				"element": "C" 
			},
			{
				"x": -0.8215754196,
				"y": -2.2772905711,
				"z": 2.5484237224,
				"element": "C" 
			},
			{
				"x": -0.8186259217,
				"y": -0.7567915242,
				"z": 2.7813380921,
				"element": "C" 
			},
			{
				"x": -1.2136195207,
				"y": 0.0802465151,
				"z": 1.5556885407,
				"element": "C" 
			},
			{
				"x": -0.059621752,
				"y": 0.4292296729,
				"z": 0.6156865756,
				"element": "C" 
			},
			{
				"x": 1.1006652015,
				"y": 0.4069491616,
				"z": 0.984426257,
				"element": "O" 
			},
			{
				"x": -0.4460302367,
				"y": 0.8459105709,
				"z": -0.7983872519,
				"element": "C" 
			},
			{
				"x": 0.7137108932,
				"y": 1.4146614804,
				"z": -1.6192090387,
				"element": "C" 
			},
			{
				"x": 0.3202021903,
				"y": 1.8639297469,
				"z": -3.0352303456,
				"element": "C" 
			},
			{
				"x": -0.1211122123,
				"y": 0.7269724979,
				"z": -3.9651041005,
				"element": "C" 
			},
			{
				"x": -0.0943962952,
				"y": -2.4010117256,
				"z": 0.4844572117,
				"element": "H" 
			},
			{
				"x": 0.1508908035,
				"y": -3.8703877249,
				"z": 1.4267723287,
				"element": "H" 
			},
			{
				"x": 1.1824159211,
				"y": -2.4530716337,
				"z": 1.6993856441,
				"element": "H" 
			},
			{
				"x": -1.83948194,
				"y": -2.5975359492,
				"z": 2.2838058165,
				"element": "H" 
			},
			{
				"x": -0.5911067132,
				"y": -2.7686492255,
				"z": 3.5024182465,
				"element": "H" 
			},
			{
				"x": -1.5116082075,
				"y": -0.5317972344,
				"z": 3.6005253674,
				"element": "H" 
			},
			{
				"x": 0.1762808766,
				"y": -0.4325550399,
				"z": 3.1062872809,
				"element": "H" 
			},
			{
				"x": -2.0225620355,
				"y": -0.3946750621,
				"z": 0.9843389478,
				"element": "H" 
			},
			{
				"x": -1.6217744817,
				"y": 1.049877644,
				"z": 1.8793631658,
				"element": "H" 
			},
			{
				"x": -1.2757303531,
				"y": 1.5655793312,
				"z": -0.7329532498,
				"element": "H" 
			},
			{
				"x": -0.8803812291,
				"y": -0.041143145,
				"z": -1.2823025215,
				"element": "H" 
			},
			{
				"x": 1.5117392688,
				"y": 0.6649016522,
				"z": -1.6729682174,
				"element": "H" 
			},
			{
				"x": 1.1430678236,
				"y": 2.262802682,
				"z": -1.0736067813,
				"element": "H" 
			},
			{
				"x": 1.179606754,
				"y": 2.3762247636,
				"z": -3.4856206723,
				"element": "H" 
			},
			{
				"x": -0.4789534783,
				"y": 2.6157404446,
				"z": -2.9717335489,
				"element": "H" 
			},
			{
				"x": -0.3318326622,
				"y": 1.1012643724,
				"z": -4.9722484686,
				"element": "H" 
			},
			{
				"x": -1.0295820108,
				"y": 0.2308304482,
				"z": -3.6067667328,
				"element": "H" 
			},
			{
				"x": 0.6605652121,
				"y": -0.0367038347,
				"z": -4.0514541229,
				"element": "H" 
			}
		],
		 "valence_orbital": [ 
			{
				"type": "occ",
				"energy": -0.3259,
				"method": "rhf"
			},
			{
				"type": "occ",
				"energy": -0.32073,
				"method": "rhf"
			},
			{
				"type": "occ",
				"energy": -0.31994,
				"method": "rhf"
			},
			{
				"type": "occ",
				"energy": -0.31604,
				"method": "rhf"
			},
			{
				"type": "occ",
				"energy": -0.24088,
				"method": "rhf"
			},
			{
				"type": "unocc",
				"energy": -0.00749,
				"method": "rhf"
			},
			{
				"type": "unocc",
				"energy": 0.07157,
				"method": "rhf"
			},
			{
				"type": "unocc",
				"energy": 0.09651,
				"method": "rhf"
			},
			{
				"type": "unocc",
				"energy": 0.11314,
				"method": "rhf"
			},
			{
				"type": "unocc",
				"energy": 0.12466,
				"method": "rhf"
			}
		],
		"cosmo_sigma_profile": { 
			"-0.025": 0.0,
			"-0.024": 0.0,
			"-0.023": 0.0,
			"-0.022": 0.0,
			"-0.021": 0.0,
			"-0.02": 0.0,
			"-0.019": 0.0,
			"-0.018": 0.0,
			"-0.017": 0.0,
			"-0.016": 0.0,
			"-0.015": 0.0,
			"-0.014": 0.0,
			"-0.013": 0.0,
			"-0.012": 0.0,
			"-0.011": 0.0,
			"-0.01": 0.0,
			"-0.009": 0.0,
			"-0.008": 0.0,
			"-0.007": 0.0,
			"-0.006": 1.67619603602,
			"-0.005": 9.32202835005,
			"-0.004": 12.5501097774,
			"-0.003": 17.9177092164,
			"-0.002": 33.8447902305,
			"-0.001": 38.8414907317,
			"0.0": 37.8242286889,
			"0.001": 32.2991412166,
			"0.002": 14.6597072314,
			"0.003": 3.02975615991,
			"0.004": 2.3028252961,
			"0.005": 2.05050559895,
			"0.006": 2.53874495767,
			"0.007": 2.2519263036,
			"0.008": 1.77254153802,
			"0.009": 1.67287590746,
			"0.01": 2.04173141988,
			"0.011": 2.39728709573,
			"0.012": 2.90789666168,
			"0.013": 2.6699934123,
			"0.014": 0.122394996694,
			"0.015": 0.0,
			"0.016": 0.0,
			"0.017": 0.0,
			"0.018": 0.0,
			"0.019": 0.0,
			"0.02": 0.0,
			"0.021": 0.0,
			"0.022": 0.0,
			"0.023": 0.0,
			"0.024": 0.0,
			"0.025": 0.0
		}
	}
}
