{
	 "smiles": "NCCN1N=CC2=C(C=CC=C2)C1=O", 
	 "Tm": 361.15, 
	 "num_atms": 25, 
	 "gaussian": { 
		 "optdone": 1, 
		 "sigma_profile": "yes", 
		 "theory": "DFT", 
		 "functional": "B3LYP", 
		 "basiset": "6-31G**", 
		 "properties": { 
			 "R2extent": 3185.4338, 
			 "electric_dipole_moment_norm": 1.97083348104, 
			 "electric_quadrupole_moment_norm": 16.7343372068, 
			 "total_energy": -627.164421545, 
			 "HOMO_LUMO_gap": 0.17395, 
			 "cosmo_polarized_energy": -14.09, 
			 "cosmo_cavitation_energy": 28.51, 
			 "cosmo_dispersion_energy": -20.9, 
			 "cosmo_repulsion_energy": 1.64, 
			 "cosmo_total_nonelectrostatic_energy": 9.25, 
			 "SMD_solvation_energy": 3.52 
		},
		"coords": [
			{
				"x": -1.1888495024,
				"y": 3.2494307147,
				"z": -0.6718288915,
				"element": "N" 
			},
			{
				"x": -0.1584330306,
				"y": 3.6785466336,
				"z": 0.2707798686,
				"element": "C" 
			},
			{
				"x": -0.0782107619,
				"y": 2.737654443,
				"z": 1.4786795904,
				"element": "C" 
			},
			{
				"x": 0.1884195454,
				"y": 1.3445371967,
				"z": 1.1121554176,
				"element": "N" 
			},
			{
				"x": -0.8920861207,
				"y": 0.5250623392,
				"z": 1.1179659746,
				"element": "N" 
			},
			{
				"x": -0.727930243,
				"y": -0.7120280135,
				"z": 0.7603368173,
				"element": "C" 
			},
			{
				"x": 0.5323803442,
				"y": -1.273164228,
				"z": 0.3514441982,
				"element": "C" 
			},
			{
				"x": 1.65173128,
				"y": -0.4146706414,
				"z": 0.3467521588,
				"element": "C" 
			},
			{
				"x": 2.9127147682,
				"y": -0.8958465106,
				"z": -0.0368237274,
				"element": "C" 
			},
			{
				"x": 3.0561711646,
				"y": -2.223759489,
				"z": -0.411359615,
				"element": "C" 
			},
			{
				"x": 1.9432868536,
				"y": -3.0855121756,
				"z": -0.4091734341,
				"element": "C" 
			},
			{
				"x": 0.6931478531,
				"y": -2.6196087995,
				"z": -0.0326452853,
				"element": "C" 
			},
			{
				"x": 1.4881518056,
				"y": 0.9926869067,
				"z": 0.7401206207,
				"element": "C" 
			},
			{
				"x": 2.3967757785,
				"y": 1.8232738447,
				"z": 0.7584205348,
				"element": "O" 
			},
			{
				"x": -1.1624591785,
				"y": 3.8278308259,
				"z": -1.5065339483,
				"element": "H" 
			},
			{
				"x": -2.1146567929,
				"y": 3.3601739912,
				"z": -0.265282632,
				"element": "H" 
			},
			{
				"x": -0.2914059101,
				"y": 4.7001004319,
				"z": 0.6726251632,
				"element": "H" 
			},
			{
				"x": 0.8085155767,
				"y": 3.6619483085,
				"z": -0.2400357003,
				"element": "H" 
			},
			{
				"x": 0.7235891193,
				"y": 3.0741582886,
				"z": 2.140577913,
				"element": "H" 
			},
			{
				"x": -1.0213008077,
				"y": 2.7260868744,
				"z": 2.0300433173,
				"element": "H" 
			},
			{
				"x": -1.6222450616,
				"y": -1.3293928945,
				"z": 0.7886395991,
				"element": "H" 
			},
			{
				"x": 3.7504865788,
				"y": -0.2069659135,
				"z": -0.0297450085,
				"element": "H" 
			},
			{
				"x": 4.0294552333,
				"y": -2.6027014982,
				"z": -0.7085839774,
				"element": "H" 
			},
			{
				"x": 2.0662757108,
				"y": -4.123320782,
				"z": -0.7052245327,
				"element": "H" 
			},
			{
				"x": -0.1673242031,
				"y": -3.2831198533,
				"z": -0.030504421,
				"element": "H" 
			}
		],
		 "valence_orbital": [ 
			{
				"type": "occ",
				"energy": -0.27958,
				"method": "rhf"
			},
			{
				"type": "occ",
				"energy": -0.26242,
				"method": "rhf"
			},
			{
				"type": "occ",
				"energy": -0.24563,
				"method": "rhf"
			},
			{
				"type": "occ",
				"energy": -0.23044,
				"method": "rhf"
			},
			{
				"type": "occ",
				"energy": -0.22037,
				"method": "rhf"
			},
			{
				"type": "unocc",
				"energy": -0.04642,
				"method": "rhf"
			},
			{
				"type": "unocc",
				"energy": -0.0391,
				"method": "rhf"
			},
			{
				"type": "unocc",
				"energy": 0.0347,
				"method": "rhf"
			},
			{
				"type": "unocc",
				"energy": 0.07258,
				"method": "rhf"
			},
			{
				"type": "unocc",
				"energy": 0.08743,
				"method": "rhf"
			}
		],
		"cosmo_sigma_profile": { 
			"-0.025": 0.0,
			"-0.024": 0.0,
			"-0.023": 0.0,
			"-0.022": 0.0,
			"-0.021": 0.0,
			"-0.02": 0.0,
			"-0.019": 0.0,
			"-0.018": 0.0,
			"-0.017": 0.0,
			"-0.016": 0.0,
			"-0.015": 0.0,
			"-0.014": 0.0,
			"-0.013": 0.0,
			"-0.012": 0.0,
			"-0.011": 0.0,
			"-0.01": 1.31864345267,
			"-0.009": 3.0897090844,
			"-0.008": 5.26410268296,
			"-0.007": 11.1105908384,
			"-0.006": 13.4935016966,
			"-0.005": 15.7969268486,
			"-0.004": 14.3386122153,
			"-0.003": 18.9440236769,
			"-0.002": 18.3131929998,
			"-0.001": 18.2727334299,
			"0.0": 15.5843370504,
			"0.001": 16.1038352095,
			"0.002": 16.8433317506,
			"0.003": 14.6492981101,
			"0.004": 4.77495432148,
			"0.005": 4.45012893832,
			"0.006": 3.83040797509,
			"0.007": 3.10314443572,
			"0.008": 3.18988007973,
			"0.009": 3.36666775693,
			"0.01": 3.11544658155,
			"0.011": 3.54096314387,
			"0.012": 3.86801333447,
			"0.013": 4.82277985895,
			"0.014": 2.94022615921,
			"0.015": 0.752899097814,
			"0.016": 0.778923440196,
			"0.017": 0.409094280094,
			"0.018": 0.289528691476,
			"0.019": 0.0,
			"0.02": 0.0,
			"0.021": 0.0,
			"0.022": 0.0,
			"0.023": 0.0,
			"0.024": 0.0,
			"0.025": 0.0
		}
	}
}
