{
	 "smiles": "[O-][N+](=O)C1=CC=CC(=C1COC(=O)NC1=CC=CC=C1)[N+]([O-])=O", 
	 "Tm": 411.15, 
	 "num_atms": 34, 
	 "gaussian": { 
		 "optdone": 1, 
		 "sigma_profile": "yes", 
		 "theory": "DFT", 
		 "functional": "B3LYP", 
		 "basiset": "6-31G**", 
		 "properties": { 
			 "R2extent": 8079.0485, 
			 "electric_dipole_moment_norm": 3.01100467452, 
			 "electric_quadrupole_moment_norm": 29.8374523304, 
			 "total_energy": -1155.51951348, 
			 "HOMO_LUMO_gap": 0.11808, 
			 "cosmo_polarized_energy": -18.3, 
			 "cosmo_cavitation_energy": 40.33, 
			 "cosmo_dispersion_energy": -27.5, 
			 "cosmo_repulsion_energy": 2.05, 
			 "cosmo_total_nonelectrostatic_energy": 14.88, 
			 "SMD_solvation_energy": 12.06 
		},
		"coords": [
			{
				"x": 0.0210018346,
				"y": 2.8316182435,
				"z": -2.204590918,
				"element": "O" 
			},
			{
				"x": -0.5467780852,
				"y": 1.754387295,
				"z": -2.3599461218,
				"element": "N" 
			},
			{
				"x": -1.7616560337,
				"y": 1.6064655423,
				"z": -2.4740676008,
				"element": "O" 
			},
			{
				"x": 0.3100860654,
				"y": 0.5536970487,
				"z": -2.4717745204,
				"element": "C" 
			},
			{
				"x": 1.5200426187,
				"y": 0.7452681873,
				"z": -3.1360180282,
				"element": "C" 
			},
			{
				"x": 2.3728590162,
				"y": -0.3359222283,
				"z": -3.3316533464,
				"element": "C" 
			},
			{
				"x": 2.0070264104,
				"y": -1.5875046947,
				"z": -2.8502020929,
				"element": "C" 
			},
			{
				"x": 0.7894465011,
				"y": -1.7447701165,
				"z": -2.1884302386,
				"element": "C" 
			},
			{
				"x": -0.104332044,
				"y": -0.6863096376,
				"z": -1.9535014402,
				"element": "C" 
			},
			{
				"x": -1.3570264496,
				"y": -0.8149278901,
				"z": -1.0974874279,
				"element": "C" 
			},
			{
				"x": -1.3804422343,
				"y": 0.2016920848,
				"z": -0.0771014499,
				"element": "O" 
			},
			{
				"x": -0.5729973878,
				"y": -0.0542064494,
				"z": 0.9869231288,
				"element": "C" 
			},
			{
				"x": 0.1652438776,
				"y": -1.0212451453,
				"z": 1.0612833352,
				"element": "O" 
			},
			{
				"x": -0.6661729345,
				"y": 0.8902834597,
				"z": 1.9738244349,
				"element": "N" 
			},
			{
				"x": -1.4715760146,
				"y": 2.041258427,
				"z": 2.1532862822,
				"element": "C" 
			},
			{
				"x": -1.4938721565,
				"y": 2.5843002386,
				"z": 3.4486076913,
				"element": "C" 
			},
			{
				"x": -2.2336117854,
				"y": 3.7302474578,
				"z": 3.7247380131,
				"element": "C" 
			},
			{
				"x": -2.968206284,
				"y": 4.3533875973,
				"z": 2.7145721009,
				"element": "C" 
			},
			{
				"x": -2.94324036,
				"y": 3.8144715091,
				"z": 1.428543088,
				"element": "C" 
			},
			{
				"x": -2.2012371597,
				"y": 2.6697211074,
				"z": 1.1336969159,
				"element": "C" 
			},
			{
				"x": 0.4754511958,
				"y": -3.1233345126,
				"z": -1.76125028,
				"element": "N" 
			},
			{
				"x": -0.7051367538,
				"y": -3.4726340781,
				"z": -1.7820418923,
				"element": "O" 
			},
			{
				"x": 1.4194028718,
				"y": -3.8473194595,
				"z": -1.4621097826,
				"element": "O" 
			},
			{
				"x": 1.7709387216,
				"y": 1.7387099802,
				"z": -3.487126869,
				"element": "H" 
			},
			{
				"x": 3.3134619674,
				"y": -0.2038206396,
				"z": -3.854886207,
				"element": "H" 
			},
			{
				"x": 2.647758904,
				"y": -2.4524388408,
				"z": -2.9687429637,
				"element": "H" 
			},
			{
				"x": -1.4076396058,
				"y": -1.7936698812,
				"z": -0.6345894938,
				"element": "H" 
			},
			{
				"x": -2.2489550845,
				"y": -0.6369069971,
				"z": -1.6948556231,
				"element": "H" 
			},
			{
				"x": -0.0793395719,
				"y": 0.6415299288,
				"z": 2.7580379471,
				"element": "H" 
			},
			{
				"x": -0.9296829866,
				"y": 2.0998171488,
				"z": 4.2423446647,
				"element": "H" 
			},
			{
				"x": -2.2363461567,
				"y": 4.132019126,
				"z": 4.7338223284,
				"element": "H" 
			},
			{
				"x": -3.5483710765,
				"y": 5.2460102457,
				"z": 2.9266594725,
				"element": "H" 
			},
			{
				"x": -3.5033618805,
				"y": 4.2907492099,
				"z": 0.6290760996,
				"element": "H" 
			},
			{
				"x": -2.1947379389,
				"y": 2.2804767329,
				"z": 0.125960794,
				"element": "H" 
			}
		],
		 "valence_orbital": [ 
			{
				"type": "occ",
				"energy": -0.29737,
				"method": "rhf"
			},
			{
				"type": "occ",
				"energy": -0.29149,
				"method": "rhf"
			},
			{
				"type": "occ",
				"energy": -0.28659,
				"method": "rhf"
			},
			{
				"type": "occ",
				"energy": -0.25322,
				"method": "rhf"
			},
			{
				"type": "occ",
				"energy": -0.22327,
				"method": "rhf"
			},
			{
				"type": "unocc",
				"energy": -0.10519,
				"method": "rhf"
			},
			{
				"type": "unocc",
				"energy": -0.10157,
				"method": "rhf"
			},
			{
				"type": "unocc",
				"energy": -0.04258,
				"method": "rhf"
			},
			{
				"type": "unocc",
				"energy": -0.02388,
				"method": "rhf"
			},
			{
				"type": "unocc",
				"energy": -0.00812,
				"method": "rhf"
			}
		],
		"cosmo_sigma_profile": { 
			"-0.025": 0.0,
			"-0.024": 0.0,
			"-0.023": 0.0,
			"-0.022": 0.0,
			"-0.021": 0.0,
			"-0.02": 0.0,
			"-0.019": 0.0,
			"-0.018": 0.0,
			"-0.017": 0.0,
			"-0.016": 0.0211418488846,
			"-0.015": 0.745151986353,
			"-0.014": 1.29427464915,
			"-0.013": 1.05233802158,
			"-0.012": 0.99601633717,
			"-0.011": 0.978546939539,
			"-0.01": 1.61087905533,
			"-0.009": 6.92325172445,
			"-0.008": 11.1896503289,
			"-0.007": 11.3439000808,
			"-0.006": 14.0848225132,
			"-0.005": 19.2584144605,
			"-0.004": 19.1456205294,
			"-0.003": 23.2374369122,
			"-0.002": 22.3550940502,
			"-0.001": 24.5851686532,
			"0.0": 21.861409515,
			"0.001": 15.0847766229,
			"0.002": 16.2013556029,
			"0.003": 18.784802671,
			"0.004": 17.3178796911,
			"0.005": 18.2941311686,
			"0.006": 19.6684071682,
			"0.007": 15.9175800683,
			"0.008": 9.29665842189,
			"0.009": 5.32189315942,
			"0.01": 2.42643757103,
			"0.011": 1.64396919595,
			"0.012": 2.67985958072,
			"0.013": 1.105521,
			"0.014": 0.0,
			"0.015": 0.0,
			"0.016": 0.0,
			"0.017": 0.0,
			"0.018": 0.0,
			"0.019": 0.0,
			"0.02": 0.0,
			"0.021": 0.0,
			"0.022": 0.0,
			"0.023": 0.0,
			"0.024": 0.0,
			"0.025": 0.0
		}
	}
}
