{
	 "smiles": "ClC1=CC2=C(N=CC=C2)C(C=O)=C1", 
	 "Tm": 429.15, 
	 "num_atms": 19, 
	 "gaussian": { 
		 "optdone": 1, 
		 "sigma_profile": "yes", 
		 "theory": "DFT", 
		 "functional": "B3LYP", 
		 "basiset": "6-31G**", 
		 "properties": { 
			 "R2extent": 3150.003, 
			 "electric_dipole_moment_norm": 5.13088241631, 
			 "electric_quadrupole_moment_norm": 6.06660889707, 
			 "total_energy": -974.842646921, 
			 "HOMO_LUMO_gap": 0.15885, 
			 "cosmo_polarized_energy": -9.52, 
			 "cosmo_cavitation_energy": 25.75, 
			 "cosmo_dispersion_energy": -19.15, 
			 "cosmo_repulsion_energy": 1.49, 
			 "cosmo_total_nonelectrostatic_energy": 8.09, 
			 "SMD_solvation_energy": 4.02 
		},
		"coords": [
			{
				"x": -2.5454984688,
				"y": 3.4181841414,
				"z": 0.4146134598,
				"element": "Cl" 
			},
			{
				"x": -1.3760434675,
				"y": 2.1588865857,
				"z": 0.0627909106,
				"element": "C" 
			},
			{
				"x": -1.2175923025,
				"y": 1.1082430242,
				"z": 0.9406452963,
				"element": "C" 
			},
			{
				"x": -0.2725691304,
				"y": 0.0908584419,
				"z": 0.6562663775,
				"element": "C" 
			},
			{
				"x": 0.5110994335,
				"y": 0.1611271535,
				"z": -0.5407661374,
				"element": "C" 
			},
			{
				"x": 1.4328843676,
				"y": -0.7886441224,
				"z": -0.862830254,
				"element": "N" 
			},
			{
				"x": 1.5974741893,
				"y": -1.8007673584,
				"z": -0.0341219472,
				"element": "C" 
			},
			{
				"x": 0.8746753655,
				"y": -1.9644988217,
				"z": 1.1739508678,
				"element": "C" 
			},
			{
				"x": -0.0598563969,
				"y": -1.0173352177,
				"z": 1.5169988221,
				"element": "C" 
			},
			{
				"x": 0.3144968777,
				"y": 1.2691076756,
				"z": -1.424397488,
				"element": "C" 
			},
			{
				"x": 1.0988958438,
				"y": 1.3984561976,
				"z": -2.6848007808,
				"element": "C" 
			},
			{
				"x": 0.9575962598,
				"y": 2.3281481758,
				"z": -3.4591088396,
				"element": "O" 
			},
			{
				"x": -0.6156702028,
				"y": 2.2465392162,
				"z": -1.1192410612,
				"element": "C" 
			},
			{
				"x": -1.8111149068,
				"y": 1.0545264976,
				"z": 1.8477551881,
				"element": "H" 
			},
			{
				"x": 2.3416794303,
				"y": -2.5427896383,
				"z": -0.3201537588,
				"element": "H" 
			},
			{
				"x": 1.0656325608,
				"y": -2.8255971958,
				"z": 1.8060040595,
				"element": "H" 
			},
			{
				"x": -0.6375877856,
				"y": -1.1017188442,
				"z": 2.4336853362,
				"element": "H" 
			},
			{
				"x": 1.8241740084,
				"y": 0.5885610766,
				"z": -2.8716653652,
				"element": "H" 
			},
			{
				"x": -0.7440756754,
				"y": 3.0755130124,
				"z": -1.8071246857,
				"element": "H" 
			}
		],
		 "valence_orbital": [ 
			{
				"type": "occ",
				"energy": -0.32383,
				"method": "rhf"
			},
			{
				"type": "occ",
				"energy": -0.28423,
				"method": "rhf"
			},
			{
				"type": "occ",
				"energy": -0.26787,
				"method": "rhf"
			},
			{
				"type": "occ",
				"energy": -0.25144,
				"method": "rhf"
			},
			{
				"type": "occ",
				"energy": -0.24855,
				"method": "rhf"
			},
			{
				"type": "unocc",
				"energy": -0.0897,
				"method": "rhf"
			},
			{
				"type": "unocc",
				"energy": -0.03995,
				"method": "rhf"
			},
			{
				"type": "unocc",
				"energy": -0.03791,
				"method": "rhf"
			},
			{
				"type": "unocc",
				"energy": 0.01918,
				"method": "rhf"
			},
			{
				"type": "unocc",
				"energy": 0.03162,
				"method": "rhf"
			}
		],
		"cosmo_sigma_profile": { 
			"-0.025": 0.0,
			"-0.024": 0.0,
			"-0.023": 0.0,
			"-0.022": 0.0,
			"-0.021": 0.0,
			"-0.02": 0.0,
			"-0.019": 0.0,
			"-0.018": 0.0,
			"-0.017": 0.0,
			"-0.016": 0.0,
			"-0.015": 0.0,
			"-0.014": 0.0,
			"-0.013": 0.0,
			"-0.012": 0.0,
			"-0.011": 0.0,
			"-0.01": 0.0786987938039,
			"-0.009": 2.48749041562,
			"-0.008": 5.08255898353,
			"-0.007": 9.18752214017,
			"-0.006": 10.6811590313,
			"-0.005": 9.33374205375,
			"-0.004": 10.078024809,
			"-0.003": 11.078889132,
			"-0.002": 13.9066599532,
			"-0.001": 21.3727093081,
			"0.0": 33.1695597029,
			"0.001": 21.7753169986,
			"0.002": 11.5893207111,
			"0.003": 9.81499738508,
			"0.004": 13.6118182436,
			"0.005": 4.22689665639,
			"0.006": 2.84806876573,
			"0.007": 3.36016102439,
			"0.008": 2.40846576889,
			"0.009": 3.51777640896,
			"0.01": 3.73179313102,
			"0.011": 4.82263905883,
			"0.012": 2.03414345109,
			"0.013": 0.437565174111,
			"0.014": 0.0,
			"0.015": 0.0,
			"0.016": 0.0,
			"0.017": 0.0,
			"0.018": 0.0,
			"0.019": 0.0,
			"0.02": 0.0,
			"0.021": 0.0,
			"0.022": 0.0,
			"0.023": 0.0,
			"0.024": 0.0,
			"0.025": 0.0
		}
	}
}
