{
	 "smiles": "O=C1NN(C(=O)C1=C(C#N)C#N)C1=CC=CC=C1", 
	 "Tm": 562.15, 
	 "num_atms": 24, 
	 "gaussian": { 
		 "optdone": 1, 
		 "sigma_profile": "yes", 
		 "theory": "DFT", 
		 "functional": "B3LYP", 
		 "basiset": "6-31G**", 
		 "properties": { 
			 "R2extent": 5316.1002, 
			 "electric_dipole_moment_norm": 7.04510003691, 
			 "electric_quadrupole_moment_norm": 11.841071715, 
			 "total_energy": -830.250188437, 
			 "HOMO_LUMO_gap": 0.08778, 
			 "cosmo_polarized_energy": -20.9, 
			 "cosmo_cavitation_energy": 32.39, 
			 "cosmo_dispersion_energy": -22.29, 
			 "cosmo_repulsion_energy": 1.69, 
			 "cosmo_total_nonelectrostatic_energy": 11.8, 
			 "SMD_solvation_energy": 9.5 
		},
		"coords": [
			{
				"x": -1.727541645,
				"y": -1.5378494245,
				"z": -1.1733478202,
				"element": "O" 
			},
			{
				"x": -0.9522684824,
				"y": -0.6767438306,
				"z": -0.8147388449,
				"element": "C" 
			},
			{
				"x": 0.1448135587,
				"y": -0.8800758917,
				"z": 0.0252999031,
				"element": "N" 
			},
			{
				"x": 0.9757424949,
				"y": 0.2770144555,
				"z": 0.0188712511,
				"element": "N" 
			},
			{
				"x": 0.3612530072,
				"y": 1.3318167499,
				"z": -0.6440059539,
				"element": "C" 
			},
			{
				"x": 0.7733511739,
				"y": 2.4753133027,
				"z": -0.7409145562,
				"element": "O" 
			},
			{
				"x": -0.9106283906,
				"y": 0.7683912997,
				"z": -1.1749112901,
				"element": "C" 
			},
			{
				"x": -1.8556296296,
				"y": 1.4485175808,
				"z": -1.8697922913,
				"element": "C" 
			},
			{
				"x": -3.0706431807,
				"y": 0.8326825495,
				"z": -2.3226434035,
				"element": "C" 
			},
			{
				"x": -4.0777321377,
				"y": 0.4094416302,
				"z": -2.7203209916,
				"element": "N" 
			},
			{
				"x": -1.7246614025,
				"y": 2.8379876737,
				"z": -2.206593294,
				"element": "C" 
			},
			{
				"x": -1.7082015315,
				"y": 3.9555440449,
				"z": -2.5266099301,
				"element": "N" 
			},
			{
				"x": 2.0594583522,
				"y": 0.3398116048,
				"z": 0.9299366473,
				"element": "C" 
			},
			{
				"x": 3.0334841104,
				"y": 1.3418677376,
				"z": 0.7899179438,
				"element": "C" 
			},
			{
				"x": 4.1026825905,
				"y": 1.37648049,
				"z": 1.6816335325,
				"element": "C" 
			},
			{
				"x": 4.2228612218,
				"y": 0.4263122592,
				"z": 2.6982337215,
				"element": "C" 
			},
			{
				"x": 3.2513909941,
				"y": -0.5664491041,
				"z": 2.8267629383,
				"element": "C" 
			},
			{
				"x": 2.1685370478,
				"y": -0.6166565158,
				"z": 1.9503493815,
				"element": "C" 
			},
			{
				"x": 0.6524090968,
				"y": -1.7507993051,
				"z": -0.1084353657,
				"element": "H" 
			},
			{
				"x": 2.9385325016,
				"y": 2.0809915298,
				"z": 0.0066990712,
				"element": "H" 
			},
			{
				"x": 4.8516868389,
				"y": 2.1549532215,
				"z": 1.5729411489,
				"element": "H" 
			},
			{
				"x": 5.064092723,
				"y": 0.4606091597,
				"z": 3.3832274953,
				"element": "H" 
			},
			{
				"x": 3.3268223356,
				"y": -1.307045889,
				"z": 3.6171398517,
				"element": "H" 
			},
			{
				"x": 1.4026883526,
				"y": -1.3728153287,
				"z": 2.0778008552,
				"element": "H" 
			}
		],
		 "valence_orbital": [ 
			{
				"type": "occ",
				"energy": -0.31793,
				"method": "rhf"
			},
			{
				"type": "occ",
				"energy": -0.30545,
				"method": "rhf"
			},
			{
				"type": "occ",
				"energy": -0.29325,
				"method": "rhf"
			},
			{
				"type": "occ",
				"energy": -0.27648,
				"method": "rhf"
			},
			{
				"type": "occ",
				"energy": -0.24371,
				"method": "rhf"
			},
			{
				"type": "unocc",
				"energy": -0.15593,
				"method": "rhf"
			},
			{
				"type": "unocc",
				"energy": -0.03733,
				"method": "rhf"
			},
			{
				"type": "unocc",
				"energy": -0.02795,
				"method": "rhf"
			},
			{
				"type": "unocc",
				"energy": -0.02556,
				"method": "rhf"
			},
			{
				"type": "unocc",
				"energy": -0.00426,
				"method": "rhf"
			}
		],
		"cosmo_sigma_profile": { 
			"-0.025": 0.0,
			"-0.024": 0.0,
			"-0.023": 0.0,
			"-0.022": 0.0,
			"-0.021": 0.0,
			"-0.02": 0.0,
			"-0.019": 0.0,
			"-0.018": 0.530236760781,
			"-0.017": 1.36114128625,
			"-0.016": 1.19665466714,
			"-0.015": 1.12195539829,
			"-0.014": 1.4396374622,
			"-0.013": 1.14590898703,
			"-0.012": 1.64699122539,
			"-0.011": 2.32741599177,
			"-0.01": 2.39967548563,
			"-0.009": 5.84821988812,
			"-0.008": 11.4094233057,
			"-0.007": 9.1159073765,
			"-0.006": 13.3560827578,
			"-0.005": 16.5918338143,
			"-0.004": 15.1698192844,
			"-0.003": 12.8020855087,
			"-0.002": 12.3932453514,
			"-0.001": 12.3718588279,
			"0.0": 12.1306866574,
			"0.001": 13.9541988113,
			"0.002": 14.0444460173,
			"0.003": 18.6878510808,
			"0.004": 16.3684751819,
			"0.005": 9.69797649137,
			"0.006": 10.4265437287,
			"0.007": 11.2277850471,
			"0.008": 10.2957725208,
			"0.009": 11.8703897611,
			"0.01": 11.0400896105,
			"0.011": 2.42864108447,
			"0.012": 0.0,
			"0.013": 0.0,
			"0.014": 0.0,
			"0.015": 0.0,
			"0.016": 0.0,
			"0.017": 0.0,
			"0.018": 0.0,
			"0.019": 0.0,
			"0.02": 0.0,
			"0.021": 0.0,
			"0.022": 0.0,
			"0.023": 0.0,
			"0.024": 0.0,
			"0.025": 0.0
		}
	}
}
