{
	 "smiles": "COC1=C(OC)C(O)=CC(=C1)C(C)=O", 
	 "Tm": 333.15, 
	 "num_atms": 26, 
	 "gaussian": { 
		 "optdone": 1, 
		 "sigma_profile": "yes", 
		 "theory": "DFT", 
		 "functional": "B3LYP", 
		 "basiset": "6-31G**", 
		 "properties": { 
			 "R2extent": 3520.4494, 
			 "electric_dipole_moment_norm": 4.97113336574, 
			 "electric_quadrupole_moment_norm": 17.2351547777, 
			 "total_energy": -689.160313701, 
			 "HOMO_LUMO_gap": 0.17549, 
			 "cosmo_polarized_energy": -12.59, 
			 "cosmo_cavitation_energy": 29.79, 
			 "cosmo_dispersion_energy": -21.26, 
			 "cosmo_repulsion_energy": 1.68, 
			 "cosmo_total_nonelectrostatic_energy": 10.21, 
			 "SMD_solvation_energy": 7.62 
		},
		"coords": [
			{
				"x": 1.8564421805,
				"y": -1.8060544587,
				"z": -1.8819763766,
				"element": "C" 
			},
			{
				"x": 0.5006283784,
				"y": -1.6489137696,
				"z": -1.4440109063,
				"element": "O" 
			},
			{
				"x": 0.1661053624,
				"y": -0.3664681407,
				"z": -1.0655734698,
				"element": "C" 
			},
			{
				"x": 0.6661729314,
				"y": 0.1888969283,
				"z": 0.120260134,
				"element": "C" 
			},
			{
				"x": 1.5437128529,
				"y": -0.4683198057,
				"z": 0.9607094836,
				"element": "O" 
			},
			{
				"x": 1.0095384994,
				"y": -1.6411381852,
				"z": 1.6038311845,
				"element": "C" 
			},
			{
				"x": 0.3128131555,
				"y": 1.5008199726,
				"z": 0.4880947083,
				"element": "C" 
			},
			{
				"x": 0.8234347811,
				"y": 2.0364468907,
				"z": 1.626691434,
				"element": "O" 
			},
			{
				"x": -0.5600144437,
				"y": 2.2363920545,
				"z": -0.3074151474,
				"element": "C" 
			},
			{
				"x": -1.0874780182,
				"y": 1.6686127328,
				"z": -1.4751358903,
				"element": "C" 
			},
			{
				"x": -0.7166859488,
				"y": 0.3698606533,
				"z": -1.8553327176,
				"element": "C" 
			},
			{
				"x": -2.0353996334,
				"y": 2.4999217517,
				"z": -2.2879072277,
				"element": "C" 
			},
			{
				"x": -2.6337130232,
				"y": 1.9042069593,
				"z": -3.5520053828,
				"element": "C" 
			},
			{
				"x": -2.3242413776,
				"y": 3.6352449671,
				"z": -1.9412425013,
				"element": "O" 
			},
			{
				"x": 2.5660497096,
				"y": -1.5540486746,
				"z": -1.087006976,
				"element": "H" 
			},
			{
				"x": 2.0558178721,
				"y": -1.1781502993,
				"z": -2.7589747266,
				"element": "H" 
			},
			{
				"x": 1.9692062861,
				"y": -2.8566859204,
				"z": -2.1565546053,
				"element": "H" 
			},
			{
				"x": 0.7186964208,
				"y": -2.3898997499,
				"z": 0.8632886867,
				"element": "H" 
			},
			{
				"x": 0.1428538276,
				"y": -1.380346881,
				"z": 2.2221187042,
				"element": "H" 
			},
			{
				"x": 1.8088411097,
				"y": -2.0295591448,
				"z": 2.2374857034,
				"element": "H" 
			},
			{
				"x": 1.4310549557,
				"y": 1.3718592003,
				"z": 1.9913694163,
				"element": "H" 
			},
			{
				"x": -0.8454416732,
				"y": 3.2426646646,
				"z": -0.0244166755,
				"element": "H" 
			},
			{
				"x": -1.0947639302,
				"y": -0.0955434259,
				"z": -2.7579302054,
				"element": "H" 
			},
			{
				"x": -3.1975263192,
				"y": 0.9918578808,
				"z": -3.3290045498,
				"element": "H" 
			},
			{
				"x": -1.8501681113,
				"y": 1.6361352099,
				"z": -4.2692951691,
				"element": "H" 
			},
			{
				"x": -3.299035844,
				"y": 2.6412085897,
				"z": -4.0023669277,
				"element": "H" 
			}
		],
		 "valence_orbital": [ 
			{
				"type": "occ",
				"energy": -0.31086,
				"method": "rhf"
			},
			{
				"type": "occ",
				"energy": -0.28062,
				"method": "rhf"
			},
			{
				"type": "occ",
				"energy": -0.24392,
				"method": "rhf"
			},
			{
				"type": "occ",
				"energy": -0.24029,
				"method": "rhf"
			},
			{
				"type": "occ",
				"energy": -0.22591,
				"method": "rhf"
			},
			{
				"type": "unocc",
				"energy": -0.05042,
				"method": "rhf"
			},
			{
				"type": "unocc",
				"energy": 0.00299,
				"method": "rhf"
			},
			{
				"type": "unocc",
				"energy": 0.04651,
				"method": "rhf"
			},
			{
				"type": "unocc",
				"energy": 0.05969,
				"method": "rhf"
			},
			{
				"type": "unocc",
				"energy": 0.09998,
				"method": "rhf"
			}
		],
		"cosmo_sigma_profile": { 
			"-0.025": 0.0,
			"-0.024": 0.0,
			"-0.023": 0.0,
			"-0.022": 0.0,
			"-0.021": 0.0,
			"-0.02": 0.0,
			"-0.019": 0.0,
			"-0.018": 0.0,
			"-0.017": 0.0,
			"-0.016": 0.0,
			"-0.015": 0.0,
			"-0.014": 0.400748074124,
			"-0.013": 0.905425560696,
			"-0.012": 0.412589700526,
			"-0.011": 0.497755284048,
			"-0.01": 0.588285017157,
			"-0.009": 0.944797096849,
			"-0.008": 0.710425141329,
			"-0.007": 2.66680973792,
			"-0.006": 13.1128957185,
			"-0.005": 19.7689948177,
			"-0.004": 21.4617153573,
			"-0.003": 28.4479614511,
			"-0.002": 21.4508189608,
			"-0.001": 19.7865658532,
			"0.0": 13.9433878822,
			"0.001": 12.2385836185,
			"0.002": 14.2824351161,
			"0.003": 16.2554791482,
			"0.004": 7.31769584759,
			"0.005": 4.59401456577,
			"0.006": 5.65435537624,
			"0.007": 3.90510841024,
			"0.008": 4.66602028008,
			"0.009": 4.34209838343,
			"0.01": 5.56924060116,
			"0.011": 5.67520610527,
			"0.012": 4.61392036169,
			"0.013": 1.65394007218,
			"0.014": 0.149309783999,
			"0.015": 0.0,
			"0.016": 0.0,
			"0.017": 0.0,
			"0.018": 0.0,
			"0.019": 0.0,
			"0.02": 0.0,
			"0.021": 0.0,
			"0.022": 0.0,
			"0.023": 0.0,
			"0.024": 0.0,
			"0.025": 0.0
		}
	}
}
