{
	 "smiles": "CS(=O)(=O)NC1=C(CC(O)=O)C=CC=C1", 
	 "Tm": 400.15, 
	 "num_atms": 26, 
	 "gaussian": { 
		 "optdone": 1, 
		 "sigma_profile": "yes", 
		 "theory": "DFT", 
		 "functional": "B3LYP", 
		 "basiset": "6-31G**", 
		 "properties": { 
			 "R2extent": 3662.2521, 
			 "electric_dipole_moment_norm": 3.8265721292, 
			 "electric_quadrupole_moment_norm": 20.586925361, 
			 "total_energy": -1103.36842628, 
			 "HOMO_LUMO_gap": 0.21627, 
			 "cosmo_polarized_energy": -22.18, 
			 "cosmo_cavitation_energy": 30.52, 
			 "cosmo_dispersion_energy": -22.03, 
			 "cosmo_repulsion_energy": 1.67, 
			 "cosmo_total_nonelectrostatic_energy": 10.16, 
			 "SMD_solvation_energy": 5.96 
		},
		"coords": [
			{
				"x": -0.0128301384,
				"y": -2.1440337295,
				"z": 2.2212313107,
				"element": "C" 
			},
			{
				"x": -0.8553300282,
				"y": -1.0644480609,
				"z": 1.0592102291,
				"element": "S" 
			},
			{
				"x": -0.5366896542,
				"y": 0.3285756716,
				"z": 1.3774662015,
				"element": "O" 
			},
			{
				"x": -2.2442907393,
				"y": -1.5180127577,
				"z": 0.9337075648,
				"element": "O" 
			},
			{
				"x": -0.0352979538,
				"y": -1.4549008696,
				"z": -0.4177325941,
				"element": "N" 
			},
			{
				"x": 0.2841892816,
				"y": -0.4047510985,
				"z": -1.3393933138,
				"element": "C" 
			},
			{
				"x": 1.456387928,
				"y": 0.3608419625,
				"z": -1.1578053369,
				"element": "C" 
			},
			{
				"x": 2.3591090816,
				"y": 0.1448508329,
				"z": 0.0368979073,
				"element": "C" 
			},
			{
				"x": 2.9564733903,
				"y": -1.2603729625,
				"z": 0.1440600041,
				"element": "C" 
			},
			{
				"x": 3.3573064912,
				"y": -1.8219149976,
				"z": -1.0198576219,
				"element": "O" 
			},
			{
				"x": 3.1293229989,
				"y": -1.8374324679,
				"z": 1.1919083421,
				"element": "O" 
			},
			{
				"x": 1.7718554044,
				"y": 1.3245156635,
				"z": -2.12397572,
				"element": "C" 
			},
			{
				"x": 0.9687791726,
				"y": 1.5258372606,
				"z": -3.2479905009,
				"element": "C" 
			},
			{
				"x": -0.181105648,
				"y": 0.7572011506,
				"z": -3.4192309675,
				"element": "C" 
			},
			{
				"x": -0.5238198839,
				"y": -0.197331513,
				"z": -2.4622593472,
				"element": "C" 
			},
			{
				"x": -0.4466450703,
				"y": -1.9351341762,
				"z": 3.2010953733,
				"element": "H" 
			},
			{
				"x": 1.0577366238,
				"y": -1.9332966202,
				"z": 2.2011155067,
				"element": "H" 
			},
			{
				"x": -0.2086440458,
				"y": -3.1787248331,
				"z": 1.9364274231,
				"element": "H" 
			},
			{
				"x": -0.5846798926,
				"y": -2.1867107182,
				"z": -0.8628710383,
				"element": "H" 
			},
			{
				"x": 1.837625968,
				"y": 0.3549302247,
				"z": 0.9718405679,
				"element": "H" 
			},
			{
				"x": 3.2051669226,
				"y": 0.841019691,
				"z": -0.0208205384,
				"element": "H" 
			},
			{
				"x": 3.0949922367,
				"y": -1.2514819572,
				"z": -1.759562516,
				"element": "H" 
			},
			{
				"x": 2.6670364977,
				"y": 1.9263901057,
				"z": -1.9896567022,
				"element": "H" 
			},
			{
				"x": 1.2419445193,
				"y": 2.2777309875,
				"z": -3.9817885295,
				"element": "H" 
			},
			{
				"x": -0.8174267331,
				"y": 0.9033279826,
				"z": -4.286598687,
				"element": "H" 
			},
			{
				"x": -1.428166729,
				"y": -0.788374771,
				"z": -2.579117017,
				"element": "H" 
			}
		],
		 "valence_orbital": [ 
			{
				"type": "occ",
				"energy": -0.31184,
				"method": "rhf"
			},
			{
				"type": "occ",
				"energy": -0.30531,
				"method": "rhf"
			},
			{
				"type": "occ",
				"energy": -0.28357,
				"method": "rhf"
			},
			{
				"type": "occ",
				"energy": -0.26569,
				"method": "rhf"
			},
			{
				"type": "occ",
				"energy": -0.25161,
				"method": "rhf"
			},
			{
				"type": "unocc",
				"energy": -0.03534,
				"method": "rhf"
			},
			{
				"type": "unocc",
				"energy": -0.02759,
				"method": "rhf"
			},
			{
				"type": "unocc",
				"energy": 0.006,
				"method": "rhf"
			},
			{
				"type": "unocc",
				"energy": 0.05491,
				"method": "rhf"
			},
			{
				"type": "unocc",
				"energy": 0.05924,
				"method": "rhf"
			}
		],
		"cosmo_sigma_profile": { 
			"-0.025": 0.0,
			"-0.024": 0.0,
			"-0.023": 0.0,
			"-0.022": 0.0,
			"-0.021": 0.0,
			"-0.02": 0.0,
			"-0.019": 0.0,
			"-0.018": 0.0,
			"-0.017": 0.0,
			"-0.016": 0.102845706016,
			"-0.015": 1.29406176021,
			"-0.014": 2.19799550747,
			"-0.013": 2.61904961734,
			"-0.012": 1.98013437688,
			"-0.011": 2.84939425489,
			"-0.01": 3.34854620241,
			"-0.009": 6.34849304697,
			"-0.008": 10.2785997446,
			"-0.007": 10.5357690565,
			"-0.006": 14.6824599134,
			"-0.005": 15.9957768809,
			"-0.004": 15.7030088752,
			"-0.003": 15.1356586388,
			"-0.002": 12.1288063424,
			"-0.001": 9.44705384511,
			"0.0": 9.76683522555,
			"0.001": 9.55791679907,
			"0.002": 10.0956241716,
			"0.003": 11.2416709016,
			"0.004": 11.7440156262,
			"0.005": 8.19106162106,
			"0.006": 6.45653766348,
			"0.007": 5.39663720284,
			"0.008": 5.24072444294,
			"0.009": 7.59425752342,
			"0.01": 12.2174871053,
			"0.011": 13.6704384366,
			"0.012": 5.49518932332,
			"0.013": 1.33556800324,
			"0.014": 0.0196333576483,
			"0.015": 0.0,
			"0.016": 0.0,
			"0.017": 0.0,
			"0.018": 0.0,
			"0.019": 0.0,
			"0.02": 0.0,
			"0.021": 0.0,
			"0.022": 0.0,
			"0.023": 0.0,
			"0.024": 0.0,
			"0.025": 0.0
		}
	}
}
