{
	 "smiles": "ClCC(=O)NC1=CC(CSC2=NC=CC=C2)=CC=C1", 
	 "Tm": 364.15, 
	 "num_atms": 32, 
	 "gaussian": { 
		 "optdone": 1, 
		 "sigma_profile": "yes", 
		 "theory": "DFT", 
		 "functional": "B3LYP", 
		 "basiset": "6-31G**", 
		 "properties": { 
			 "R2extent": 6973.3997, 
			 "electric_dipole_moment_norm": 3.72988850235, 
			 "electric_quadrupole_moment_norm": 29.6637193764, 
			 "total_energy": -1584.44153228, 
			 "HOMO_LUMO_gap": 0.18517, 
			 "cosmo_polarized_energy": -15.58, 
			 "cosmo_cavitation_energy": 39.44, 
			 "cosmo_dispersion_energy": -27.23, 
			 "cosmo_repulsion_energy": 2.03, 
			 "cosmo_total_nonelectrostatic_energy": 14.24, 
			 "SMD_solvation_energy": 6.08 
		},
		"coords": [
			{
				"x": -3.3510950873,
				"y": -1.0846995035,
				"z": 0.5950083208,
				"element": "Cl" 
			},
			{
				"x": -3.3694583063,
				"y": 0.0312361061,
				"z": -0.8379036444,
				"element": "C" 
			},
			{
				"x": -4.1584516094,
				"y": 1.2952758664,
				"z": -0.514140444,
				"element": "C" 
			},
			{
				"x": -5.3778644103,
				"y": 1.3012785644,
				"z": -0.5838984335,
				"element": "O" 
			},
			{
				"x": -3.4715917427,
				"y": 2.4401202843,
				"z": -0.1732605091,
				"element": "N" 
			},
			{
				"x": -2.0907934822,
				"y": 2.7538506763,
				"z": -0.0965908288,
				"element": "C" 
			},
			{
				"x": -1.1447218119,
				"y": 1.8842694518,
				"z": 0.4641976078,
				"element": "C" 
			},
			{
				"x": 0.2039237212,
				"y": 2.2523178564,
				"z": 0.5302589648,
				"element": "C" 
			},
			{
				"x": 1.2106867457,
				"y": 1.3140309312,
				"z": 1.1539066453,
				"element": "C" 
			},
			{
				"x": 2.5287425748,
				"y": 0.7196859443,
				"z": 0.0099306185,
				"element": "S" 
			},
			{
				"x": 1.7378194932,
				"y": -0.6632275126,
				"z": -0.7999216573,
				"element": "C" 
			},
			{
				"x": 0.5301303276,
				"y": -1.0570886464,
				"z": -0.3964706195,
				"element": "N" 
			},
			{
				"x": -0.0132076234,
				"y": -2.1303313678,
				"z": -0.9947587407,
				"element": "C" 
			},
			{
				"x": 0.6131394753,
				"y": -2.8433427995,
				"z": -2.011679235,
				"element": "C" 
			},
			{
				"x": 1.8760665281,
				"y": -2.4135518691,
				"z": -2.433179425,
				"element": "C" 
			},
			{
				"x": 2.4536691125,
				"y": -1.307291695,
				"z": -1.8252044212,
				"element": "C" 
			},
			{
				"x": 0.597242322,
				"y": 3.513516676,
				"z": 0.0645929166,
				"element": "C" 
			},
			{
				"x": -0.3465690326,
				"y": 4.3902105958,
				"z": -0.4656272798,
				"element": "C" 
			},
			{
				"x": -1.6849607554,
				"y": 4.0142799725,
				"z": -0.5561491151,
				"element": "C" 
			},
			{
				"x": -2.3324875796,
				"y": 0.2069804237,
				"z": -1.1198745265,
				"element": "H" 
			},
			{
				"x": -3.9067776557,
				"y": -0.491237271,
				"z": -1.6274969353,
				"element": "H" 
			},
			{
				"x": -4.1078709588,
				"y": 3.2247648994,
				"z": -0.0916974329,
				"element": "H" 
			},
			{
				"x": -1.451833138,
				"y": 0.9279781138,
				"z": 0.8714300402,
				"element": "H" 
			},
			{
				"x": 1.7721119566,
				"y": 1.8153368331,
				"z": 1.947947422,
				"element": "H" 
			},
			{
				"x": 0.7262841249,
				"y": 0.4305219505,
				"z": 1.5707424929,
				"element": "H" 
			},
			{
				"x": -0.9965947208,
				"y": -2.4208144502,
				"z": -0.6312881331,
				"element": "H" 
			},
			{
				"x": 0.1286049796,
				"y": -3.7042688351,
				"z": -2.4597596627,
				"element": "H" 
			},
			{
				"x": 2.4028287979,
				"y": -2.9358254858,
				"z": -3.2268058854,
				"element": "H" 
			},
			{
				"x": 3.4315365201,
				"y": -0.9447044702,
				"z": -2.1257192868,
				"element": "H" 
			},
			{
				"x": 1.6420739774,
				"y": 3.8058986878,
				"z": 0.1175894116,
				"element": "H" 
			},
			{
				"x": -0.0400479492,
				"y": 5.3699049338,
				"z": -0.8200791795,
				"element": "H" 
			},
			{
				"x": -2.4178347933,
				"y": 4.689125139,
				"z": -0.9899990447,
				"element": "H" 
			}
		],
		 "valence_orbital": [ 
			{
				"type": "occ",
				"energy": -0.26924,
				"method": "rhf"
			},
			{
				"type": "occ",
				"energy": -0.26275,
				"method": "rhf"
			},
			{
				"type": "occ",
				"energy": -0.2552,
				"method": "rhf"
			},
			{
				"type": "occ",
				"energy": -0.2345,
				"method": "rhf"
			},
			{
				"type": "occ",
				"energy": -0.2206,
				"method": "rhf"
			},
			{
				"type": "unocc",
				"energy": -0.03543,
				"method": "rhf"
			},
			{
				"type": "unocc",
				"energy": -0.03002,
				"method": "rhf"
			},
			{
				"type": "unocc",
				"energy": -0.01917,
				"method": "rhf"
			},
			{
				"type": "unocc",
				"energy": -0.01701,
				"method": "rhf"
			},
			{
				"type": "unocc",
				"energy": -0.0042,
				"method": "rhf"
			}
		],
		"cosmo_sigma_profile": { 
			"-0.025": 0.0,
			"-0.024": 0.0,
			"-0.023": 0.0,
			"-0.022": 0.0,
			"-0.021": 0.0,
			"-0.02": 0.0,
			"-0.019": 0.0,
			"-0.018": 0.0,
			"-0.017": 0.0,
			"-0.016": 0.0,
			"-0.015": 0.369610709024,
			"-0.014": 1.07107876195,
			"-0.013": 1.32214001323,
			"-0.012": 1.06918430387,
			"-0.011": 1.35268914876,
			"-0.01": 0.89729941886,
			"-0.009": 1.79485527138,
			"-0.008": 4.22731838946,
			"-0.007": 12.4105825626,
			"-0.006": 21.0606678413,
			"-0.005": 21.3070322881,
			"-0.004": 20.5996468341,
			"-0.003": 19.7923271086,
			"-0.002": 20.6417692784,
			"-0.001": 18.3722066706,
			"0.0": 19.3786972134,
			"0.001": 21.8932844563,
			"0.002": 29.3431620242,
			"0.003": 29.6553874847,
			"0.004": 21.3504835599,
			"0.005": 18.9401527227,
			"0.006": 9.10907079263,
			"0.007": 5.16196466451,
			"0.008": 3.76559064936,
			"0.009": 2.26514421976,
			"0.01": 1.0625453853,
			"0.011": 2.1252098423,
			"0.012": 4.48929646116,
			"0.013": 4.44250585074,
			"0.014": 0.440292990751,
			"0.015": 0.0,
			"0.016": 0.0,
			"0.017": 0.0,
			"0.018": 0.0,
			"0.019": 0.0,
			"0.02": 0.0,
			"0.021": 0.0,
			"0.022": 0.0,
			"0.023": 0.0,
			"0.024": 0.0,
			"0.025": 0.0
		}
	}
}
