{
	 "smiles": "CCOC1=C(C=CC=C1)C(N)=O", 
	 "Tm": 406.15, 
	 "num_atms": 23, 
	 "gaussian": { 
		 "optdone": 1, 
		 "sigma_profile": "yes", 
		 "theory": "DFT", 
		 "functional": "B3LYP", 
		 "basiset": "6-31G**", 
		 "properties": { 
			 "R2extent": 2153.6812, 
			 "electric_dipole_moment_norm": 3.98083580294, 
			 "electric_quadrupole_moment_norm": 10.0601650951, 
			 "total_energy": -554.791636127, 
			 "HOMO_LUMO_gap": 0.19888, 
			 "cosmo_polarized_energy": -14.83, 
			 "cosmo_cavitation_energy": 26.38, 
			 "cosmo_dispersion_energy": -19.22, 
			 "cosmo_repulsion_energy": 1.56, 
			 "cosmo_total_nonelectrostatic_energy": 8.72, 
			 "SMD_solvation_energy": 5.51 
		},
		"coords": [
			{
				"x": -1.872629114,
				"y": -2.3297701072,
				"z": -1.8399550384,
				"element": "C" 
			},
			{
				"x": -0.9132308412,
				"y": -1.1567452699,
				"z": -1.7767091817,
				"element": "C" 
			},
			{
				"x": -0.0895072929,
				"y": -1.3221380356,
				"z": -0.6111283368,
				"element": "O" 
			},
			{
				"x": 0.4855731229,
				"y": -0.2221277429,
				"z": -0.0446927292,
				"element": "C" 
			},
			{
				"x": -0.2473320562,
				"y": 0.8537304366,
				"z": 0.5079427399,
				"element": "C" 
			},
			{
				"x": 0.4641414926,
				"y": 1.9049906942,
				"z": 1.1108434402,
				"element": "C" 
			},
			{
				"x": 1.8552501445,
				"y": 1.9057785083,
				"z": 1.1784410316,
				"element": "C" 
			},
			{
				"x": 2.5663459179,
				"y": 0.8351623257,
				"z": 0.6341541807,
				"element": "C" 
			},
			{
				"x": 1.883990009,
				"y": -0.2136114888,
				"z": 0.0230466951,
				"element": "C" 
			},
			{
				"x": -1.7514401989,
				"y": 0.8536233207,
				"z": 0.5586828372,
				"element": "C" 
			},
			{
				"x": -2.3319987608,
				"y": 2.0979797102,
				"z": 0.4599701752,
				"element": "N" 
			},
			{
				"x": -2.4272616729,
				"y": -0.1543078515,
				"z": 0.7193587962,
				"element": "O" 
			},
			{
				"x": -1.3232399779,
				"y": -3.2758036248,
				"z": -1.8503398698,
				"element": "H" 
			},
			{
				"x": -2.5295241649,
				"y": -2.3117430687,
				"z": -0.9676096666,
				"element": "H" 
			},
			{
				"x": -2.4802105137,
				"y": -2.2731951406,
				"z": -2.7492268357,
				"element": "H" 
			},
			{
				"x": -0.258942418,
				"y": -1.1215816644,
				"z": -2.6602867379,
				"element": "H" 
			},
			{
				"x": -1.4651914359,
				"y": -0.2131174227,
				"z": -1.7293864941,
				"element": "H" 
			},
			{
				"x": -0.0932796897,
				"y": 2.713290908,
				"z": 1.5748757599,
				"element": "H" 
			},
			{
				"x": 2.3760278876,
				"y": 2.7249147017,
				"z": 1.6644940996,
				"element": "H" 
			},
			{
				"x": 3.6514694955,
				"y": 0.816816796,
				"z": 0.6813352324,
				"element": "H" 
			},
			{
				"x": 2.4137325389,
				"y": -1.054990446,
				"z": -0.4115654241,
				"element": "H" 
			},
			{
				"x": -3.3408154201,
				"y": 2.1155277498,
				"z": 0.4241375293,
				"element": "H" 
			},
			{
				"x": -1.8310270516,
				"y": 2.873716712,
				"z": 0.0567177969,
				"element": "H" 
			}
		],
		 "valence_orbital": [ 
			{
				"type": "occ",
				"energy": -0.28299,
				"method": "rhf"
			},
			{
				"type": "occ",
				"energy": -0.27055,
				"method": "rhf"
			},
			{
				"type": "occ",
				"energy": -0.25867,
				"method": "rhf"
			},
			{
				"type": "occ",
				"energy": -0.2444,
				"method": "rhf"
			},
			{
				"type": "occ",
				"energy": -0.23009,
				"method": "rhf"
			},
			{
				"type": "unocc",
				"energy": -0.03121,
				"method": "rhf"
			},
			{
				"type": "unocc",
				"energy": -0.00223,
				"method": "rhf"
			},
			{
				"type": "unocc",
				"energy": 0.05131,
				"method": "rhf"
			},
			{
				"type": "unocc",
				"energy": 0.07962,
				"method": "rhf"
			},
			{
				"type": "unocc",
				"energy": 0.09929,
				"method": "rhf"
			}
		],
		"cosmo_sigma_profile": { 
			"-0.025": 0.0,
			"-0.024": 0.0,
			"-0.023": 0.0,
			"-0.022": 0.0,
			"-0.021": 0.0,
			"-0.02": 0.0,
			"-0.019": 0.0,
			"-0.018": 0.0,
			"-0.017": 0.0,
			"-0.016": 0.0,
			"-0.015": 0.0446123582094,
			"-0.014": 1.31777020847,
			"-0.013": 2.32244885587,
			"-0.012": 2.03244191394,
			"-0.011": 1.97839394393,
			"-0.01": 2.51786415536,
			"-0.009": 2.1991770589,
			"-0.008": 2.11088772448,
			"-0.007": 2.99537891767,
			"-0.006": 8.70167860597,
			"-0.005": 11.3770617257,
			"-0.004": 17.3742543588,
			"-0.003": 17.819031118,
			"-0.002": 17.8405002131,
			"-0.001": 14.6383875037,
			"0.0": 15.4422410278,
			"0.001": 14.9596255256,
			"0.002": 10.4130972156,
			"0.003": 12.8629634777,
			"0.004": 13.9966905735,
			"0.005": 7.16158049066,
			"0.006": 3.4591954714,
			"0.007": 2.81797019603,
			"0.008": 3.13429742185,
			"0.009": 2.52892764823,
			"0.01": 2.38957446869,
			"0.011": 3.41146491165,
			"0.012": 2.64625209188,
			"0.013": 3.72284828664,
			"0.014": 3.24739977598,
			"0.015": 1.18188145913,
			"0.016": 0.0121163925473,
			"0.017": 0.0,
			"0.018": 0.0,
			"0.019": 0.0,
			"0.02": 0.0,
			"0.021": 0.0,
			"0.022": 0.0,
			"0.023": 0.0,
			"0.024": 0.0,
			"0.025": 0.0
		}
	}
}
