{
	 "smiles": "[O-][N+](=O)C1=CC(=CC=C1)N1CSC2=NN=C(N2C1)C1=CC=CC(=C1)[N+]([O-])=O", 
	 "Tm": 513.15, 
	 "num_atms": 39, 
	 "gaussian": { 
		 "optdone": 1, 
		 "sigma_profile": "yes", 
		 "theory": "DFT", 
		 "functional": "B3LYP", 
		 "basiset": "6-31G**", 
		 "properties": { 
			 "R2extent": 11881.9083, 
			 "electric_dipole_moment_norm": 7.15036970023, 
			 "electric_quadrupole_moment_norm": 24.8618008525, 
			 "total_energy": -1644.28580059, 
			 "HOMO_LUMO_gap": 0.12765, 
			 "cosmo_polarized_energy": -29.45, 
			 "cosmo_cavitation_energy": 46.08, 
			 "cosmo_dispersion_energy": -31.95, 
			 "cosmo_repulsion_energy": 2.28, 
			 "cosmo_total_nonelectrostatic_energy": 16.4, 
			 "SMD_solvation_energy": 7.88 
		},
		"coords": [
			{
				"x": 2.6285609858,
				"y": -5.4141257286,
				"z": 0.3459044903,
				"element": "O" 
			},
			{
				"x": 1.5855524084,
				"y": -4.8030848569,
				"z": 0.5689780556,
				"element": "N" 
			},
			{
				"x": 0.6544471438,
				"y": -5.22684126,
				"z": 1.2521637546,
				"element": "O" 
			},
			{
				"x": 1.4386721664,
				"y": -3.4634704568,
				"z": -0.0341805157,
				"element": "C" 
			},
			{
				"x": 0.2836171323,
				"y": -2.7403006272,
				"z": 0.2544743733,
				"element": "C" 
			},
			{
				"x": 0.1145025013,
				"y": -1.4733968042,
				"z": -0.316543031,
				"element": "C" 
			},
			{
				"x": 1.128074992,
				"y": -0.9751525569,
				"z": -1.159086032,
				"element": "C" 
			},
			{
				"x": 2.282770393,
				"y": -1.713365148,
				"z": -1.4061548888,
				"element": "C" 
			},
			{
				"x": 2.4556451439,
				"y": -2.9793925486,
				"z": -0.8477515984,
				"element": "C" 
			},
			{
				"x": -1.0721799867,
				"y": -0.7139112887,
				"z": -0.1142203182,
				"element": "N" 
			},
			{
				"x": -2.1888618257,
				"y": -1.2828502156,
				"z": 0.588826545,
				"element": "C" 
			},
			{
				"x": -2.0576842488,
				"y": -1.2407643355,
				"z": 2.471423655,
				"element": "S" 
			},
			{
				"x": -1.1889405995,
				"y": 0.2874769677,
				"z": 2.6136135616,
				"element": "C" 
			},
			{
				"x": -0.931478301,
				"y": 0.888484826,
				"z": 3.7523513986,
				"element": "N" 
			},
			{
				"x": -0.1632501125,
				"y": 1.9944101751,
				"z": 3.4584198726,
				"element": "N" 
			},
			{
				"x": 0.027498224,
				"y": 2.0311526833,
				"z": 2.1576767525,
				"element": "C" 
			},
			{
				"x": -0.6040156689,
				"y": 0.9510452524,
				"z": 1.5583064029,
				"element": "N" 
			},
			{
				"x": -0.9473852725,
				"y": 0.7020242136,
				"z": 0.1440554759,
				"element": "C" 
			},
			{
				"x": 0.8345224942,
				"y": 3.0452138326,
				"z": 1.4675334365,
				"element": "C" 
			},
			{
				"x": 0.8161660367,
				"y": 4.374017329,
				"z": 1.9291100116,
				"element": "C" 
			},
			{
				"x": 1.5977836031,
				"y": 5.3507198863,
				"z": 1.3137913557,
				"element": "C" 
			},
			{
				"x": 2.404302816,
				"y": 5.031703954,
				"z": 0.2206073835,
				"element": "C" 
			},
			{
				"x": 2.4195779892,
				"y": 3.7103896014,
				"z": -0.2184659192,
				"element": "C" 
			},
			{
				"x": 1.6686211944,
				"y": 2.7118616724,
				"z": 0.3937180665,
				"element": "C" 
			},
			{
				"x": 3.2613458964,
				"y": 3.3428646671,
				"z": -1.3694605318,
				"element": "N" 
			},
			{
				"x": 3.1802617429,
				"y": 2.1861395064,
				"z": -1.7897055095,
				"element": "O" 
			},
			{
				"x": 3.9860539413,
				"y": 4.2112080574,
				"z": -1.8479967946,
				"element": "O" 
			},
			{
				"x": -0.4318862947,
				"y": -3.1753179618,
				"z": 0.9373682626,
				"element": "H" 
			},
			{
				"x": 1.0194345808,
				"y": -0.0132283461,
				"z": -1.6480650396,
				"element": "H" 
			},
			{
				"x": 3.0470856788,
				"y": -1.296079642,
				"z": -2.0533312256,
				"element": "H" 
			},
			{
				"x": 3.33697225,
				"y": -3.5799465884,
				"z": -1.0297501829,
				"element": "H" 
			},
			{
				"x": -3.0918911195,
				"y": -0.7353218459,
				"z": 0.3129298609,
				"element": "H" 
			},
			{
				"x": -2.3231568603,
				"y": -2.3322532993,
				"z": 0.3286157757,
				"element": "H" 
			},
			{
				"x": -0.1923576435,
				"y": 1.1591222086,
				"z": -0.486167017,
				"element": "H" 
			},
			{
				"x": -1.9068282382,
				"y": 1.1818683489,
				"z": -0.0761963618,
				"element": "H" 
			},
			{
				"x": 0.1862640821,
				"y": 4.6203500304,
				"z": 2.7769284255,
				"element": "H" 
			},
			{
				"x": 1.5723425252,
				"y": 6.3713419477,
				"z": 1.6815351467,
				"element": "H" 
			},
			{
				"x": 3.0106038236,
				"y": 5.7724514003,
				"z": -0.2852067095,
				"element": "H" 
			},
			{
				"x": 1.783436426,
				"y": 1.6919569499,
				"z": 0.0516496127,
				"element": "H" 
			}
		],
		 "valence_orbital": [ 
			{
				"type": "occ",
				"energy": -0.29306,
				"method": "rhf"
			},
			{
				"type": "occ",
				"energy": -0.28929,
				"method": "rhf"
			},
			{
				"type": "occ",
				"energy": -0.26922,
				"method": "rhf"
			},
			{
				"type": "occ",
				"energy": -0.25164,
				"method": "rhf"
			},
			{
				"type": "occ",
				"energy": -0.23467,
				"method": "rhf"
			},
			{
				"type": "unocc",
				"energy": -0.10702,
				"method": "rhf"
			},
			{
				"type": "unocc",
				"energy": -0.09688,
				"method": "rhf"
			},
			{
				"type": "unocc",
				"energy": -0.06283,
				"method": "rhf"
			},
			{
				"type": "unocc",
				"energy": -0.0358,
				"method": "rhf"
			},
			{
				"type": "unocc",
				"energy": -0.02207,
				"method": "rhf"
			}
		],
		"cosmo_sigma_profile": { 
			"-0.025": 0.0,
			"-0.024": 0.0,
			"-0.023": 0.0,
			"-0.022": 0.0,
			"-0.021": 0.0,
			"-0.02": 0.0,
			"-0.019": 0.0,
			"-0.018": 0.0,
			"-0.017": 0.0,
			"-0.016": 0.0,
			"-0.015": 0.0,
			"-0.014": 0.0,
			"-0.013": 0.000365538408773,
			"-0.012": 0.898958366007,
			"-0.011": 3.97866690168,
			"-0.01": 6.53281961454,
			"-0.009": 8.32112875513,
			"-0.008": 13.0959748343,
			"-0.007": 21.3050933382,
			"-0.006": 19.4459459013,
			"-0.005": 19.3517405165,
			"-0.004": 18.9287547186,
			"-0.003": 18.3637029374,
			"-0.002": 24.3848296229,
			"-0.001": 25.3500396887,
			"0.0": 29.6078244127,
			"0.001": 32.3517697597,
			"0.002": 20.8982569334,
			"0.003": 13.2855011803,
			"0.004": 12.1652111693,
			"0.005": 12.4097670968,
			"0.006": 11.1588664915,
			"0.007": 17.8333879218,
			"0.008": 13.1357847652,
			"0.009": 10.2413996887,
			"0.01": 5.46164987792,
			"0.011": 2.84114596463,
			"0.012": 2.88668924318,
			"0.013": 3.52473184771,
			"0.014": 2.68369010125,
			"0.015": 2.22364876878,
			"0.016": 1.11544363373,
			"0.017": 0.0417286566735,
			"0.018": 0.0,
			"0.019": 0.0,
			"0.02": 0.0,
			"0.021": 0.0,
			"0.022": 0.0,
			"0.023": 0.0,
			"0.024": 0.0,
			"0.025": 0.0
		}
	}
}
