{
	 "smiles": "NC(=S)C1=CC(=CC=C1)S(N)(=O)=O", 
	 "Tm": 426.15, 
	 "num_atms": 21, 
	 "gaussian": { 
		 "optdone": 1, 
		 "sigma_profile": "yes", 
		 "theory": "DFT", 
		 "functional": "B3LYP", 
		 "basiset": "6-31G**", 
		 "properties": { 
			 "R2extent": 3694.5792, 
			 "electric_dipole_moment_norm": 5.6896911287, 
			 "electric_quadrupole_moment_norm": 28.285240521, 
			 "total_energy": -1327.82821755, 
			 "HOMO_LUMO_gap": 0.14102, 
			 "cosmo_polarized_energy": -28.72, 
			 "cosmo_cavitation_energy": 28.73, 
			 "cosmo_dispersion_energy": -21.85, 
			 "cosmo_repulsion_energy": 1.65, 
			 "cosmo_total_nonelectrostatic_energy": 8.53, 
			 "SMD_solvation_energy": 3.7 
		},
		"coords": [
			{
				"x": 1.9491904151,
				"y": 1.9200548233,
				"z": 1.3583176439,
				"element": "N" 
			},
			{
				"x": 1.501995408,
				"y": 0.7947986307,
				"z": 1.9572868713,
				"element": "C" 
			},
			{
				"x": 1.6894147733,
				"y": 0.5456922998,
				"z": 3.5953324853,
				"element": "S" 
			},
			{
				"x": 0.8143514018,
				"y": -0.1788652724,
				"z": 1.0560415869,
				"element": "C" 
			},
			{
				"x": 0.1772980722,
				"y": 0.2461249133,
				"z": -0.1214551877,
				"element": "C" 
			},
			{
				"x": -0.4683679037,
				"y": -0.6842978945,
				"z": -0.9345623565,
				"element": "C" 
			},
			{
				"x": -0.5127808646,
				"y": -2.0384377599,
				"z": -0.5978782834,
				"element": "C" 
			},
			{
				"x": 0.1213311043,
				"y": -2.459685998,
				"z": 0.5717069468,
				"element": "C" 
			},
			{
				"x": 0.7760746496,
				"y": -1.5420621724,
				"z": 1.3901261785,
				"element": "C" 
			},
			{
				"x": -1.2707744268,
				"y": -0.1156581566,
				"z": -2.4450399747,
				"element": "S" 
			},
			{
				"x": -0.2123379679,
				"y": -0.4383488701,
				"z": -3.7080832519,
				"element": "N" 
			},
			{
				"x": -1.3543462438,
				"y": 1.3417197424,
				"z": -2.3637328204,
				"element": "O" 
			},
			{
				"x": -2.4285672013,
				"y": -0.9756361328,
				"z": -2.6757349689,
				"element": "O" 
			},
			{
				"x": 2.4164078495,
				"y": 2.610683295,
				"z": 1.9272840017,
				"element": "H" 
			},
			{
				"x": 1.9856662074,
				"y": 2.0168005671,
				"z": 0.3549378914,
				"element": "H" 
			},
			{
				"x": 0.1156480433,
				"y": 1.2952924168,
				"z": -0.3903426055,
				"element": "H" 
			},
			{
				"x": -1.0574182849,
				"y": -2.7379271332,
				"z": -1.2236282329,
				"element": "H" 
			},
			{
				"x": 0.0938885109,
				"y": -3.5078411094,
				"z": 0.8527235264,
				"element": "H" 
			},
			{
				"x": 1.2567225802,
				"y": -1.8610643938,
				"z": 2.3082548992,
				"element": "H" 
			},
			{
				"x": 0.6507563772,
				"y": 0.0925361773,
				"z": -3.6584749683,
				"element": "H" 
			},
			{
				"x": -0.0713524997,
				"y": -1.4294779729,
				"z": -3.8730793811,
				"element": "H" 
			}
		],
		 "valence_orbital": [ 
			{
				"type": "occ",
				"energy": -0.31272,
				"method": "rhf"
			},
			{
				"type": "occ",
				"energy": -0.28802,
				"method": "rhf"
			},
			{
				"type": "occ",
				"energy": -0.28234,
				"method": "rhf"
			},
			{
				"type": "occ",
				"energy": -0.2419,
				"method": "rhf"
			},
			{
				"type": "occ",
				"energy": -0.22054,
				"method": "rhf"
			},
			{
				"type": "unocc",
				"energy": -0.07952,
				"method": "rhf"
			},
			{
				"type": "unocc",
				"energy": -0.05039,
				"method": "rhf"
			},
			{
				"type": "unocc",
				"energy": -0.00144,
				"method": "rhf"
			},
			{
				"type": "unocc",
				"energy": 0.03836,
				"method": "rhf"
			},
			{
				"type": "unocc",
				"energy": 0.05953,
				"method": "rhf"
			}
		],
		"cosmo_sigma_profile": { 
			"-0.025": 0.0,
			"-0.024": 0.0,
			"-0.023": 0.0,
			"-0.022": 0.0,
			"-0.021": 0.0,
			"-0.02": 0.0,
			"-0.019": 0.0,
			"-0.018": 0.0,
			"-0.017": 0.080425716695,
			"-0.016": 1.55776497001,
			"-0.015": 4.69664372999,
			"-0.014": 5.70723615944,
			"-0.013": 5.19643869184,
			"-0.012": 5.70346359502,
			"-0.011": 5.09430412028,
			"-0.01": 4.37401428552,
			"-0.009": 3.12898595064,
			"-0.008": 4.93681049922,
			"-0.007": 9.26549356936,
			"-0.006": 9.60563442211,
			"-0.005": 8.49032282552,
			"-0.004": 7.16160385625,
			"-0.003": 7.97276564564,
			"-0.002": 8.9199245212,
			"-0.001": 11.1062456634,
			"0.0": 12.6833986182,
			"0.001": 16.5604834857,
			"0.002": 11.8236992284,
			"0.003": 7.14521098535,
			"0.004": 6.93798281589,
			"0.005": 6.48348828902,
			"0.006": 7.94002231122,
			"0.007": 9.54824511614,
			"0.008": 12.165570975,
			"0.009": 9.51828186799,
			"0.01": 11.6378721699,
			"0.011": 13.1415143516,
			"0.012": 3.59209660551,
			"0.013": 0.0,
			"0.014": 0.0,
			"0.015": 0.0,
			"0.016": 0.0,
			"0.017": 0.0,
			"0.018": 0.0,
			"0.019": 0.0,
			"0.02": 0.0,
			"0.021": 0.0,
			"0.022": 0.0,
			"0.023": 0.0,
			"0.024": 0.0,
			"0.025": 0.0
		}
	}
}
