{
	 "smiles": "NC(=N)C1=CC=C(OC2=CC=C(C=C2)C(N)=N)C=C1", 
	 "Tm": 489.15, 
	 "num_atms": 33, 
	 "gaussian": { 
		 "optdone": 1, 
		 "sigma_profile": "yes", 
		 "theory": "DFT", 
		 "functional": "B3LYP", 
		 "basiset": "6-31G**", 
		 "properties": { 
			 "R2extent": 8248.678, 
			 "electric_dipole_moment_norm": 2.5832031008, 
			 "electric_quadrupole_moment_norm": 28.9538503951, 
			 "total_energy": -836.149771848, 
			 "HOMO_LUMO_gap": 0.18708, 
			 "cosmo_polarized_energy": -21.29, 
			 "cosmo_cavitation_energy": 38.07, 
			 "cosmo_dispersion_energy": -27.27, 
			 "cosmo_repulsion_energy": 2.12, 
			 "cosmo_total_nonelectrostatic_energy": 12.92, 
			 "SMD_solvation_energy": 4.8 
		},
		"coords": [
			{
				"x": 2.0364557892,
				"y": -0.5527135424,
				"z": -5.1648529067,
				"element": "N" 
			},
			{
				"x": 1.2906154371,
				"y": -1.6609449391,
				"z": -4.7824119716,
				"element": "C" 
			},
			{
				"x": 1.1856118282,
				"y": -2.6511797589,
				"z": -5.593924991,
				"element": "N" 
			},
			{
				"x": 0.7212587906,
				"y": -1.5881519755,
				"z": -3.4020282757,
				"element": "C" 
			},
			{
				"x": -0.4914525407,
				"y": -2.228340015,
				"z": -3.1049357892,
				"element": "C" 
			},
			{
				"x": -1.031613259,
				"y": -2.1819528776,
				"z": -1.8243348689,
				"element": "C" 
			},
			{
				"x": -0.3546820463,
				"y": -1.4940427653,
				"z": -0.8133172397,
				"element": "C" 
			},
			{
				"x": -0.906310951,
				"y": -1.5564814091,
				"z": 0.4491959332,
				"element": "O" 
			},
			{
				"x": -0.8250491044,
				"y": -0.4895953712,
				"z": 1.3196272379,
				"element": "C" 
			},
			{
				"x": -0.974639833,
				"y": 0.8384722502,
				"z": 0.9087350142,
				"element": "C" 
			},
			{
				"x": -0.9597900983,
				"y": 1.8543206587,
				"z": 1.8622793131,
				"element": "C" 
			},
			{
				"x": -0.7966340392,
				"y": 1.5673949834,
				"z": 3.2262056881,
				"element": "C" 
			},
			{
				"x": -0.6607342975,
				"y": 0.2262684976,
				"z": 3.6153196759,
				"element": "C" 
			},
			{
				"x": -0.6725737093,
				"y": -0.7977423071,
				"z": 2.6741797789,
				"element": "C" 
			},
			{
				"x": -0.7569858966,
				"y": 2.6549975199,
				"z": 4.251450683,
				"element": "C" 
			},
			{
				"x": -1.527730203,
				"y": 3.7707603053,
				"z": 3.9481874739,
				"element": "N" 
			},
			{
				"x": -0.0554645704,
				"y": 2.6559432507,
				"z": 5.3274592075,
				"element": "N" 
			},
			{
				"x": 0.8593130247,
				"y": -0.8548925863,
				"z": -1.0828414823,
				"element": "C" 
			},
			{
				"x": 1.3822671727,
				"y": -0.8990263891,
				"z": -2.3736409423,
				"element": "C" 
			},
			{
				"x": 2.3112500812,
				"y": -0.5875562467,
				"z": -6.1386504863,
				"element": "H" 
			},
			{
				"x": 1.6868949935,
				"y": 0.3479591539,
				"z": -4.8677405216,
				"element": "H" 
			},
			{
				"x": 0.7326914446,
				"y": -3.4409759709,
				"z": -5.1339437242,
				"element": "H" 
			},
			{
				"x": -1.0285984819,
				"y": -2.7461307893,
				"z": -3.8941815963,
				"element": "H" 
			},
			{
				"x": -1.9737184529,
				"y": -2.6659888755,
				"z": -1.5898923159,
				"element": "H" 
			},
			{
				"x": -1.0994815273,
				"y": 1.0718318093,
				"z": -0.1429742172,
				"element": "H" 
			},
			{
				"x": -1.0588253021,
				"y": 2.8878078586,
				"z": 1.5459827866,
				"element": "H" 
			},
			{
				"x": -0.5607987278,
				"y": -0.0159738404,
				"z": 4.6692704404,
				"element": "H" 
			},
			{
				"x": -0.5767665842,
				"y": -1.8375029938,
				"z": 2.9683399237,
				"element": "H" 
			},
			{
				"x": -1.5658027168,
				"y": 4.4340937888,
				"z": 4.7121624073,
				"element": "H" 
			},
			{
				"x": -2.4231416352,
				"y": 3.5919135298,
				"z": 3.5143865424,
				"element": "H" 
			},
			{
				"x": 0.557230004,
				"y": 1.8407542673,
				"z": 5.3527426587,
				"element": "H" 
			},
			{
				"x": 1.3919350605,
				"y": -0.3407333307,
				"z": -0.2903340404,
				"element": "H" 
			},
			{
				"x": 2.3343703505,
				"y": -0.4214918894,
				"z": -2.5820193956,
				"element": "H" 
			}
		],
		 "valence_orbital": [ 
			{
				"type": "occ",
				"energy": -0.25822,
				"method": "rhf"
			},
			{
				"type": "occ",
				"energy": -0.25433,
				"method": "rhf"
			},
			{
				"type": "occ",
				"energy": -0.24499,
				"method": "rhf"
			},
			{
				"type": "occ",
				"energy": -0.23653,
				"method": "rhf"
			},
			{
				"type": "occ",
				"energy": -0.22444,
				"method": "rhf"
			},
			{
				"type": "unocc",
				"energy": -0.03736,
				"method": "rhf"
			},
			{
				"type": "unocc",
				"energy": -0.02575,
				"method": "rhf"
			},
			{
				"type": "unocc",
				"energy": -0.02303,
				"method": "rhf"
			},
			{
				"type": "unocc",
				"energy": -0.01424,
				"method": "rhf"
			},
			{
				"type": "unocc",
				"energy": 0.05226,
				"method": "rhf"
			}
		],
		"cosmo_sigma_profile": { 
			"-0.025": 0.0,
			"-0.024": 0.0,
			"-0.023": 0.0,
			"-0.022": 0.0,
			"-0.021": 0.0,
			"-0.02": 0.0,
			"-0.019": 0.0,
			"-0.018": 0.0,
			"-0.017": 0.0,
			"-0.016": 0.0,
			"-0.015": 0.0,
			"-0.014": 0.0,
			"-0.013": 1.1671965186,
			"-0.012": 3.7311473968,
			"-0.011": 4.51392486819,
			"-0.01": 4.59837044711,
			"-0.009": 5.77018112002,
			"-0.008": 8.67367464725,
			"-0.007": 12.8294809511,
			"-0.006": 19.1441769318,
			"-0.005": 18.3965645606,
			"-0.004": 19.0874663363,
			"-0.003": 16.5726301218,
			"-0.002": 14.7398955105,
			"-0.001": 15.3929494588,
			"0.0": 18.8693412512,
			"0.001": 20.8995434868,
			"0.002": 24.3151059034,
			"0.003": 25.3436374889,
			"0.004": 17.5259365248,
			"0.005": 6.06458253169,
			"0.006": 5.29820319851,
			"0.007": 6.22782167873,
			"0.008": 5.28092625571,
			"0.009": 3.78214963249,
			"0.01": 3.48218059031,
			"0.011": 4.09703678453,
			"0.012": 2.47499741497,
			"0.013": 2.99869930587,
			"0.014": 2.43274257426,
			"0.015": 1.4265195051,
			"0.016": 2.9569279259,
			"0.017": 1.98213142258,
			"0.018": 1.95539113715,
			"0.019": 1.05962578919,
			"0.02": 0.0,
			"0.021": 0.0,
			"0.022": 0.0,
			"0.023": 0.0,
			"0.024": 0.0,
			"0.025": 0.0
		}
	}
}
