{
	 "smiles": "CN1CCN(CC1)C1=C(N)C=C(C=C1)C(F)(F)F", 
	 "Tm": 452.15, 
	 "num_atms": 34, 
	 "gaussian": { 
		 "optdone": 1, 
		 "sigma_profile": "yes", 
		 "theory": "DFT", 
		 "functional": "B3LYP", 
		 "basiset": "6-31G**", 
		 "properties": { 
			 "R2extent": 8206.4026, 
			 "electric_dipole_moment_norm": 4.42003792857, 
			 "electric_quadrupole_moment_norm": 16.9215603099, 
			 "total_energy": -930.697057681, 
			 "HOMO_LUMO_gap": 0.19025, 
			 "cosmo_polarized_energy": -9.02, 
			 "cosmo_cavitation_energy": 36.41, 
			 "cosmo_dispersion_energy": -25.89, 
			 "cosmo_repulsion_energy": 1.93, 
			 "cosmo_total_nonelectrostatic_energy": 12.44, 
			 "SMD_solvation_energy": 3.88 
		},
		"coords": [
			{
				"x": 0.1547873121,
				"y": -3.7726157716,
				"z": -2.9509391703,
				"element": "C" 
			},
			{
				"x": 0.768700314,
				"y": -2.6114529159,
				"z": -2.3261048534,
				"element": "N" 
			},
			{
				"x": 0.3375807334,
				"y": -2.441291987,
				"z": -0.9414182068,
				"element": "C" 
			},
			{
				"x": 1.0561467892,
				"y": -1.2612961159,
				"z": -0.291522784,
				"element": "C" 
			},
			{
				"x": 0.8236958762,
				"y": -0.0329842283,
				"z": -1.0770403011,
				"element": "N" 
			},
			{
				"x": 1.2777836501,
				"y": -0.2128259512,
				"z": -2.4565359348,
				"element": "C" 
			},
			{
				"x": 0.5355445176,
				"y": -1.3889607242,
				"z": -3.0900292238,
				"element": "C" 
			},
			{
				"x": 1.217714992,
				"y": 1.1691552768,
				"z": -0.4213795303,
				"element": "C" 
			},
			{
				"x": 0.3680639891,
				"y": 1.6593265295,
				"z": 0.6071527796,
				"element": "C" 
			},
			{
				"x": -0.7756453597,
				"y": 0.9354858581,
				"z": 0.9428095483,
				"element": "N" 
			},
			{
				"x": 0.7146841711,
				"y": 2.8370990224,
				"z": 1.2752705343,
				"element": "C" 
			},
			{
				"x": 1.8692005406,
				"y": 3.5413917876,
				"z": 0.9254874697,
				"element": "C" 
			},
			{
				"x": 2.6922484991,
				"y": 3.0821478454,
				"z": -0.1014811225,
				"element": "C" 
			},
			{
				"x": 2.3615393454,
				"y": 1.897065568,
				"z": -0.7604724387,
				"element": "C" 
			},
			{
				"x": 2.170718085,
				"y": 4.8430212103,
				"z": 1.6117034849,
				"element": "C" 
			},
			{
				"x": 1.7812540387,
				"y": 4.8352067255,
				"z": 2.9084276417,
				"element": "F" 
			},
			{
				"x": 3.4899462402,
				"y": 5.1377815341,
				"z": 1.587968477,
				"element": "F" 
			},
			{
				"x": 1.5292181458,
				"y": 5.8841198241,
				"z": 1.0248622835,
				"element": "F" 
			},
			{
				"x": 0.5466815126,
				"y": -3.8975225778,
				"z": -3.9656927722,
				"element": "H" 
			},
			{
				"x": -0.9483819423,
				"y": -3.7027726148,
				"z": -3.0176950748,
				"element": "H" 
			},
			{
				"x": 0.4013177837,
				"y": -4.6735283223,
				"z": -2.3795733034,
				"element": "H" 
			},
			{
				"x": -0.7582084576,
				"y": -2.2819795916,
				"z": -0.8707052736,
				"element": "H" 
			},
			{
				"x": 0.5711766309,
				"y": -3.3561680954,
				"z": -0.3844639562,
				"element": "H" 
			},
			{
				"x": 0.6778110448,
				"y": -1.1096606539,
				"z": 0.7222305524,
				"element": "H" 
			},
			{
				"x": 2.1352860168,
				"y": -1.4801219612,
				"z": -0.2285129653,
				"element": "H" 
			},
			{
				"x": 2.3614917483,
				"y": -0.4153512636,
				"z": -2.5132618668,
				"element": "H" 
			},
			{
				"x": 1.0724657234,
				"y": 0.7039050385,
				"z": -3.0178108041,
				"element": "H" 
			},
			{
				"x": 0.9018869411,
				"y": -1.5381187049,
				"z": -4.1124025012,
				"element": "H" 
			},
			{
				"x": -0.5431602029,
				"y": -1.1415386345,
				"z": -3.154069724,
				"element": "H" 
			},
			{
				"x": -1.1320959562,
				"y": 0.4030654716,
				"z": 0.1557775442,
				"element": "H" 
			},
			{
				"x": -1.4940835564,
				"y": 1.4754527855,
				"z": 1.406580123,
				"element": "H" 
			},
			{
				"x": 0.0729016788,
				"y": 3.2122065605,
				"z": 2.0668185966,
				"element": "H" 
			},
			{
				"x": 3.587661418,
				"y": 3.6299179571,
				"z": -0.3713325431,
				"element": "H" 
			},
			{
				"x": 3.0117677371,
				"y": 1.5311411193,
				"z": -1.5477446849,
				"element": "H" 
			}
		],
		 "valence_orbital": [ 
			{
				"type": "occ",
				"energy": -0.31338,
				"method": "rhf"
			},
			{
				"type": "occ",
				"energy": -0.26987,
				"method": "rhf"
			},
			{
				"type": "occ",
				"energy": -0.23,
				"method": "rhf"
			},
			{
				"type": "occ",
				"energy": -0.22038,
				"method": "rhf"
			},
			{
				"type": "occ",
				"energy": -0.20219,
				"method": "rhf"
			},
			{
				"type": "unocc",
				"energy": -0.01194,
				"method": "rhf"
			},
			{
				"type": "unocc",
				"energy": 0.00668,
				"method": "rhf"
			},
			{
				"type": "unocc",
				"energy": 0.07406,
				"method": "rhf"
			},
			{
				"type": "unocc",
				"energy": 0.09002,
				"method": "rhf"
			},
			{
				"type": "unocc",
				"energy": 0.09951,
				"method": "rhf"
			}
		],
		"cosmo_sigma_profile": { 
			"-0.025": 0.0,
			"-0.024": 0.0,
			"-0.023": 0.0,
			"-0.022": 0.0,
			"-0.021": 0.0,
			"-0.02": 0.0,
			"-0.019": 0.0,
			"-0.018": 0.0,
			"-0.017": 0.0,
			"-0.016": 0.0,
			"-0.015": 0.0,
			"-0.014": 0.0,
			"-0.013": 0.308240700947,
			"-0.012": 1.50692917855,
			"-0.011": 1.50519219393,
			"-0.01": 1.5739821756,
			"-0.009": 2.86664909997,
			"-0.008": 2.74105131236,
			"-0.007": 2.28546537212,
			"-0.006": 5.32756661364,
			"-0.005": 7.29278399709,
			"-0.004": 20.2502306619,
			"-0.003": 24.799109346,
			"-0.002": 31.2927288994,
			"-0.001": 34.8295719596,
			"0.0": 27.1257195779,
			"0.001": 16.1965300046,
			"0.002": 19.8951037442,
			"0.003": 40.0169990464,
			"0.004": 22.4705654964,
			"0.005": 10.2605354599,
			"0.006": 3.46889562292,
			"0.007": 1.78530826904,
			"0.008": 1.01262309437,
			"0.009": 1.02151163531,
			"0.01": 1.89230852542,
			"0.011": 0.825408188812,
			"0.012": 0.891516986861,
			"0.013": 0.887730940136,
			"0.014": 0.0578665860351,
			"0.015": 0.820698122364,
			"0.016": 0.30584434417,
			"0.017": 0.0,
			"0.018": 0.0,
			"0.019": 0.0,
			"0.02": 0.0,
			"0.021": 0.0,
			"0.022": 0.0,
			"0.023": 0.0,
			"0.024": 0.0,
			"0.025": 0.0
		}
	}
}
