{
	 "smiles": "O=N(=O)OCC(CON(=O)=O)ON(=O)=O", 
	 "Tm": 287.15, 
	 "num_atms": 20, 
	 "gaussian": { 
		 "optdone": 1, 
		 "sigma_profile": "yes", 
		 "theory": "DFT", 
		 "functional": "B3LYP", 
		 "basiset": "6-31G**", 
		 "properties": { 
			 "R2extent": 3270.4722, 
			 "electric_dipole_moment_norm": 4.86466078262, 
			 "electric_quadrupole_moment_norm": 12.6533132084, 
			 "total_energy": -958.154654103, 
			 "HOMO_LUMO_gap": 0.23997, 
			 "cosmo_polarized_energy": -16.35, 
			 "cosmo_cavitation_energy": 27.96, 
			 "cosmo_dispersion_energy": -19.03, 
			 "cosmo_repulsion_energy": 1.54, 
			 "cosmo_total_nonelectrostatic_energy": 10.47, 
			 "SMD_solvation_energy": 13.51 
		},
		"coords": [
			{
				"x": -2.8844112133,
				"y": -0.0234837519,
				"z": -1.2709193823,
				"element": "O" 
			},
			{
				"x": -2.3559328272,
				"y": -0.406806784,
				"z": -0.2488757376,
				"element": "N" 
			},
			{
				"x": -2.8228579163,
				"y": -0.9418639109,
				"z": 0.7208694061,
				"element": "O" 
			},
			{
				"x": -0.9445531627,
				"y": -0.2081587195,
				"z": -0.13509805,
				"element": "O" 
			},
			{
				"x": -0.370541031,
				"y": 0.4174864145,
				"z": -1.2945292589,
				"element": "C" 
			},
			{
				"x": 1.1217611756,
				"y": 0.6038629716,
				"z": -1.0322657544,
				"element": "C" 
			},
			{
				"x": 1.9696811338,
				"y": -0.6586157841,
				"z": -0.8669525433,
				"element": "C" 
			},
			{
				"x": 1.618899935,
				"y": -1.4741620421,
				"z": 0.2571878881,
				"element": "O" 
			},
			{
				"x": 0.7172484188,
				"y": -2.5493956559,
				"z": -0.0348011725,
				"element": "N" 
			},
			{
				"x": 0.3425540947,
				"y": -2.6785714493,
				"z": -1.1830697845,
				"element": "O" 
			},
			{
				"x": 0.4643444824,
				"y": -3.2008204714,
				"z": 0.9398921695,
				"element": "O" 
			},
			{
				"x": 1.3566652592,
				"y": 1.3968747865,
				"z": 0.1520073949,
				"element": "O" 
			},
			{
				"x": 1.2693317459,
				"y": 2.812116636,
				"z": -0.0471839642,
				"element": "N" 
			},
			{
				"x": 1.0225308384,
				"y": 3.208836326,
				"z": -1.1686550764,
				"element": "O" 
			},
			{
				"x": 1.4651297161,
				"y": 3.4252302881,
				"z": 0.9665209707,
				"element": "O" 
			},
			{
				"x": -0.8407297741,
				"y": 1.3875241026,
				"z": -1.4696600169,
				"element": "H" 
			},
			{
				"x": -0.5154099257,
				"y": -0.2111559253,
				"z": -2.1779884458,
				"element": "H" 
			},
			{
				"x": 1.5243839149,
				"y": 1.1380790025,
				"z": -1.9000886518,
				"element": "H" 
			},
			{
				"x": 3.0022996108,
				"y": -0.3640972089,
				"z": -0.6648514594,
				"element": "H" 
			},
			{
				"x": 1.9303055247,
				"y": -1.2468788245,
				"z": -1.7858385311,
				"element": "H" 
			}
		],
		 "valence_orbital": [ 
			{
				"type": "occ",
				"energy": -0.34646,
				"method": "rhf"
			},
			{
				"type": "occ",
				"energy": -0.34044,
				"method": "rhf"
			},
			{
				"type": "occ",
				"energy": -0.33724,
				"method": "rhf"
			},
			{
				"type": "occ",
				"energy": -0.33204,
				"method": "rhf"
			},
			{
				"type": "occ",
				"energy": -0.32922,
				"method": "rhf"
			},
			{
				"type": "unocc",
				"energy": -0.08925,
				"method": "rhf"
			},
			{
				"type": "unocc",
				"energy": -0.08216,
				"method": "rhf"
			},
			{
				"type": "unocc",
				"energy": -0.07737,
				"method": "rhf"
			},
			{
				"type": "unocc",
				"energy": 0.0037,
				"method": "rhf"
			},
			{
				"type": "unocc",
				"energy": 0.02074,
				"method": "rhf"
			}
		],
		"cosmo_sigma_profile": { 
			"-0.025": 0.0,
			"-0.024": 0.0,
			"-0.023": 0.0,
			"-0.022": 0.0,
			"-0.021": 0.0,
			"-0.02": 0.0,
			"-0.019": 0.0,
			"-0.018": 0.0,
			"-0.017": 0.0,
			"-0.016": 0.0,
			"-0.015": 0.0,
			"-0.014": 0.0,
			"-0.013": 0.00233453510446,
			"-0.012": 1.41774025264,
			"-0.011": 4.14921718412,
			"-0.01": 7.29999403807,
			"-0.009": 9.4886111998,
			"-0.008": 11.1017247286,
			"-0.007": 9.87499506357,
			"-0.006": 10.2120976921,
			"-0.005": 9.12336183916,
			"-0.004": 8.11640459015,
			"-0.003": 7.44806940625,
			"-0.002": 6.21663769623,
			"-0.001": 6.97092948561,
			"0.0": 8.04413277603,
			"0.001": 9.95711319585,
			"0.002": 8.86233772965,
			"0.003": 12.6605437187,
			"0.004": 19.3125693327,
			"0.005": 32.2607205086,
			"0.006": 29.8001498411,
			"0.007": 10.1937523093,
			"0.008": 0.11760339461,
			"0.009": 0.0,
			"0.01": 0.0,
			"0.011": 0.0,
			"0.012": 0.0,
			"0.013": 0.0,
			"0.014": 0.0,
			"0.015": 0.0,
			"0.016": 0.0,
			"0.017": 0.0,
			"0.018": 0.0,
			"0.019": 0.0,
			"0.02": 0.0,
			"0.021": 0.0,
			"0.022": 0.0,
			"0.023": 0.0,
			"0.024": 0.0,
			"0.025": 0.0
		}
	}
}
