{
	 "smiles": "CC(C)(C)OC(=O)NCC=C", 
	 "Tm": 310.15, 
	 "num_atms": 26, 
	 "gaussian": { 
		 "optdone": 1, 
		 "sigma_profile": "yes", 
		 "theory": "DFT", 
		 "functional": "B3LYP", 
		 "basiset": "6-31G**", 
		 "properties": { 
			 "R2extent": 2854.6321, 
			 "electric_dipole_moment_norm": 2.12521876756, 
			 "electric_quadrupole_moment_norm": 9.07120729617, 
			 "total_energy": -519.1065161, 
			 "HOMO_LUMO_gap": 0.25584, 
			 "cosmo_polarized_energy": -8.29, 
			 "cosmo_cavitation_energy": 28.82, 
			 "cosmo_dispersion_energy": -20.27, 
			 "cosmo_repulsion_energy": 1.67, 
			 "cosmo_total_nonelectrostatic_energy": 10.22, 
			 "SMD_solvation_energy": 6.34 
		},
		"coords": [
			{
				"x": 2.5809225756,
				"y": -0.9444967257,
				"z": -1.8434025202,
				"element": "C" 
			},
			{
				"x": 1.6003077305,
				"y": 0.2152273819,
				"z": -1.6485424955,
				"element": "C" 
			},
			{
				"x": 0.526843954,
				"y": 0.2085336427,
				"z": -2.7424966008,
				"element": "C" 
			},
			{
				"x": 2.3471979581,
				"y": 1.5517233263,
				"z": -1.5772017771,
				"element": "C" 
			},
			{
				"x": 0.9947687806,
				"y": -0.0946696621,
				"z": -0.3454669172,
				"element": "O" 
			},
			{
				"x": 0.0471291788,
				"y": 0.7151243649,
				"z": 0.1915383392,
				"element": "C" 
			},
			{
				"x": -0.3898889338,
				"y": 1.7445679759,
				"z": -0.2999564318,
				"element": "O" 
			},
			{
				"x": -0.3588546252,
				"y": 0.1939935668,
				"z": 1.3883521328,
				"element": "N" 
			},
			{
				"x": -1.3296968773,
				"y": 0.859087167,
				"z": 2.2441746633,
				"element": "C" 
			},
			{
				"x": -0.7543424073,
				"y": 1.2149022889,
				"z": 3.5900047437,
				"element": "C" 
			},
			{
				"x": -1.2568261172,
				"y": 0.8039788314,
				"z": 4.7540710626,
				"element": "C" 
			},
			{
				"x": 2.0509540355,
				"y": -1.9014946055,
				"z": -1.8497505289,
				"element": "H" 
			},
			{
				"x": 3.1093404428,
				"y": -0.8344992434,
				"z": -2.7950666727,
				"element": "H" 
			},
			{
				"x": 3.3199078637,
				"y": -0.9650127206,
				"z": -1.0370087945,
				"element": "H" 
			},
			{
				"x": 0.9994263358,
				"y": 0.327590067,
				"z": -3.7230123104,
				"element": "H" 
			},
			{
				"x": -0.0123527738,
				"y": -0.7441883913,
				"z": -2.7389926459,
				"element": "H" 
			},
			{
				"x": -0.186455292,
				"y": 1.0194051521,
				"z": -2.59339963,
				"element": "H" 
			},
			{
				"x": 3.0771079457,
				"y": 1.5352918685,
				"z": -0.7614401774,
				"element": "H" 
			},
			{
				"x": 2.8886468781,
				"y": 1.7215738549,
				"z": -2.5136434503,
				"element": "H" 
			},
			{
				"x": 1.6537895464,
				"y": 2.3772183774,
				"z": -1.4152293594,
				"element": "H" 
			},
			{
				"x": 0.1007180669,
				"y": -0.6439006495,
				"z": 1.7115899612,
				"element": "H" 
			},
			{
				"x": -1.6329711544,
				"y": 1.7596169838,
				"z": 1.700658892,
				"element": "H" 
			},
			{
				"x": -2.2217983982,
				"y": 0.2316737488,
				"z": 2.3717598074,
				"element": "H" 
			},
			{
				"x": 0.1313552475,
				"y": 1.8494612849,
				"z": 3.5694110118,
				"element": "H" 
			},
			{
				"x": -2.136541037,
				"y": 0.1655303886,
				"z": 4.7999509252,
				"element": "H" 
			},
			{
				"x": -0.8172889239,
				"y": 1.0958617263,
				"z": 5.7030987727,
				"element": "H" 
			}
		],
		 "valence_orbital": [ 
			{
				"type": "occ",
				"energy": -0.32917,
				"method": "rhf"
			},
			{
				"type": "occ",
				"energy": -0.284,
				"method": "rhf"
			},
			{
				"type": "occ",
				"energy": -0.27427,
				"method": "rhf"
			},
			{
				"type": "occ",
				"energy": -0.25848,
				"method": "rhf"
			},
			{
				"type": "occ",
				"energy": -0.24623,
				"method": "rhf"
			},
			{
				"type": "unocc",
				"energy": 0.00961,
				"method": "rhf"
			},
			{
				"type": "unocc",
				"energy": 0.06296,
				"method": "rhf"
			},
			{
				"type": "unocc",
				"energy": 0.08895,
				"method": "rhf"
			},
			{
				"type": "unocc",
				"energy": 0.10623,
				"method": "rhf"
			},
			{
				"type": "unocc",
				"energy": 0.10926,
				"method": "rhf"
			}
		],
		"cosmo_sigma_profile": { 
			"-0.025": 0.0,
			"-0.024": 0.0,
			"-0.023": 0.0,
			"-0.022": 0.0,
			"-0.021": 0.0,
			"-0.02": 0.0,
			"-0.019": 0.0,
			"-0.018": 0.0,
			"-0.017": 0.0,
			"-0.016": 0.0,
			"-0.015": 0.0,
			"-0.014": 0.231601136329,
			"-0.013": 1.04989732576,
			"-0.012": 0.769863601064,
			"-0.011": 0.771552281319,
			"-0.01": 1.0466540018,
			"-0.009": 0.29480009187,
			"-0.008": 1.17712500496,
			"-0.007": 0.984111784191,
			"-0.006": 1.13367243757,
			"-0.005": 7.82133269668,
			"-0.004": 19.9667908401,
			"-0.003": 26.3403539178,
			"-0.002": 24.1150026546,
			"-0.001": 24.1641006391,
			"0.0": 31.3769542246,
			"0.001": 26.6606355073,
			"0.002": 11.9552915315,
			"0.003": 8.45057265008,
			"0.004": 8.19500640355,
			"0.005": 5.9711246665,
			"0.006": 5.75967002784,
			"0.007": 3.63443724131,
			"0.008": 2.47485762266,
			"0.009": 1.66684197828,
			"0.01": 1.2277834109,
			"0.011": 1.46533439954,
			"0.012": 1.92885669135,
			"0.013": 3.02368315214,
			"0.014": 1.21622906434,
			"0.015": 0.0,
			"0.016": 0.0,
			"0.017": 0.0,
			"0.018": 0.0,
			"0.019": 0.0,
			"0.02": 0.0,
			"0.021": 0.0,
			"0.022": 0.0,
			"0.023": 0.0,
			"0.024": 0.0,
			"0.025": 0.0
		}
	}
}
