{
	 "smiles": "COCCNS(=O)(=O)C1=CC=C(C=C1)C#N", 
	 "Tm": 362.15, 
	 "num_atms": 28, 
	 "gaussian": { 
		 "optdone": 1, 
		 "sigma_profile": "yes", 
		 "theory": "DFT", 
		 "functional": "B3LYP", 
		 "basiset": "6-31G**", 
		 "properties": { 
			 "R2extent": 6116.4494, 
			 "electric_dipole_moment_norm": 4.69259047755, 
			 "electric_quadrupole_moment_norm": 22.0706035534, 
			 "total_energy": -1121.55419377, 
			 "HOMO_LUMO_gap": 0.19156, 
			 "cosmo_polarized_energy": -17.18, 
			 "cosmo_cavitation_energy": 34.86, 
			 "cosmo_dispersion_energy": -24.41, 
			 "cosmo_repulsion_energy": 1.89, 
			 "cosmo_total_nonelectrostatic_energy": 12.34, 
			 "SMD_solvation_energy": 6.61 
		},
		"coords": [
			{
				"x": 0.7904395205,
				"y": 3.7774557575,
				"z": -3.4504495792,
				"element": "C" 
			},
			{
				"x": 0.4618989851,
				"y": 2.4175227105,
				"z": -3.2391745334,
				"element": "O" 
			},
			{
				"x": -0.8795233891,
				"y": 2.2234051569,
				"z": -2.8239429431,
				"element": "C" 
			},
			{
				"x": -1.0264385047,
				"y": 0.742809488,
				"z": -2.4916725006,
				"element": "C" 
			},
			{
				"x": -0.0556383447,
				"y": 0.2927745775,
				"z": -1.4809183662,
				"element": "N" 
			},
			{
				"x": -0.4258697229,
				"y": 0.4761361253,
				"z": 0.1496963179,
				"element": "S" 
			},
			{
				"x": -1.5309156902,
				"y": 1.4267577314,
				"z": 0.3326241788,
				"element": "O" 
			},
			{
				"x": 0.8629283037,
				"y": 0.6514764104,
				"z": 0.8241887563,
				"element": "O" 
			},
			{
				"x": -1.0721390349,
				"y": -1.1475170754,
				"z": 0.584312439,
				"element": "C" 
			},
			{
				"x": -2.4160074543,
				"y": -1.2744458943,
				"z": 0.933747817,
				"element": "C" 
			},
			{
				"x": -2.9113042355,
				"y": -2.5266940034,
				"z": 1.2918667576,
				"element": "C" 
			},
			{
				"x": -2.0552173495,
				"y": -3.6391161654,
				"z": 1.3009002667,
				"element": "C" 
			},
			{
				"x": -0.6984713062,
				"y": -3.4937976806,
				"z": 0.9560475893,
				"element": "C" 
			},
			{
				"x": -0.2060810866,
				"y": -2.2444881622,
				"z": 0.599459492,
				"element": "C" 
			},
			{
				"x": -2.564313503,
				"y": -4.9300251091,
				"z": 1.6657219265,
				"element": "C" 
			},
			{
				"x": -2.9771486256,
				"y": -5.9769656939,
				"z": 1.9589355091,
				"element": "N" 
			},
			{
				"x": 0.6542864796,
				"y": 4.3745996118,
				"z": -2.5364707388,
				"element": "H" 
			},
			{
				"x": 1.8411464459,
				"y": 3.8143358238,
				"z": -3.7467602748,
				"element": "H" 
			},
			{
				"x": 0.1792639205,
				"y": 4.2219524474,
				"z": -4.2505550569,
				"element": "H" 
			},
			{
				"x": -1.1085548947,
				"y": 2.8319851139,
				"z": -1.9369088584,
				"element": "H" 
			},
			{
				"x": -1.5849713455,
				"y": 2.501886626,
				"z": -3.6245418441,
				"element": "H" 
			},
			{
				"x": -2.0385774915,
				"y": 0.5340949686,
				"z": -2.1377246645,
				"element": "H" 
			},
			{
				"x": -0.8534843859,
				"y": 0.1442314792,
				"z": -3.3920708549,
				"element": "H" 
			},
			{
				"x": 0.8685079603,
				"y": 0.6911984175,
				"z": -1.6427907416,
				"element": "H" 
			},
			{
				"x": -3.0542169562,
				"y": -0.3982014269,
				"z": 0.9314293027,
				"element": "H" 
			},
			{
				"x": -3.9534055346,
				"y": -2.6474795057,
				"z": 1.5669570589,
				"element": "H" 
			},
			{
				"x": -0.0444541853,
				"y": -4.3587325809,
				"z": 0.9737383923,
				"element": "H" 
			},
			{
				"x": 0.8389614252,
				"y": -2.1170591479,
				"z": 0.3398551522,
				"element": "H" 
			}
		],
		 "valence_orbital": [ 
			{
				"type": "occ",
				"energy": -0.31131,
				"method": "rhf"
			},
			{
				"type": "occ",
				"energy": -0.29428,
				"method": "rhf"
			},
			{
				"type": "occ",
				"energy": -0.29205,
				"method": "rhf"
			},
			{
				"type": "occ",
				"energy": -0.27382,
				"method": "rhf"
			},
			{
				"type": "occ",
				"energy": -0.26877,
				"method": "rhf"
			},
			{
				"type": "unocc",
				"energy": -0.07721,
				"method": "rhf"
			},
			{
				"type": "unocc",
				"energy": -0.04059,
				"method": "rhf"
			},
			{
				"type": "unocc",
				"energy": 0.02533,
				"method": "rhf"
			},
			{
				"type": "unocc",
				"energy": 0.04174,
				"method": "rhf"
			},
			{
				"type": "unocc",
				"energy": 0.04774,
				"method": "rhf"
			}
		],
		"cosmo_sigma_profile": { 
			"-0.025": 0.0,
			"-0.024": 0.0,
			"-0.023": 0.0,
			"-0.022": 0.0,
			"-0.021": 0.0,
			"-0.02": 0.0,
			"-0.019": 0.0,
			"-0.018": 0.0,
			"-0.017": 0.0,
			"-0.016": 0.0,
			"-0.015": 0.0,
			"-0.014": 0.0,
			"-0.013": 0.0,
			"-0.012": 0.159210433906,
			"-0.011": 0.398761241386,
			"-0.01": 0.591386405198,
			"-0.009": 4.26773305355,
			"-0.008": 9.07290581544,
			"-0.007": 10.2882646412,
			"-0.006": 11.0395222695,
			"-0.005": 17.4622478726,
			"-0.004": 27.3423646207,
			"-0.003": 29.5071952078,
			"-0.002": 28.6913006731,
			"-0.001": 19.6319650781,
			"0.0": 21.1631839173,
			"0.001": 13.3047493647,
			"0.002": 7.23165230893,
			"0.003": 7.65741551232,
			"0.004": 7.47045942503,
			"0.005": 6.49230803046,
			"0.006": 6.52856640825,
			"0.007": 8.63248865138,
			"0.008": 7.5315126536,
			"0.009": 7.80822613511,
			"0.01": 11.811625817,
			"0.011": 10.1498274437,
			"0.012": 3.47695523582,
			"0.013": 0.545834273896,
			"0.014": 0.0,
			"0.015": 0.0,
			"0.016": 0.0,
			"0.017": 0.0,
			"0.018": 0.0,
			"0.019": 0.0,
			"0.02": 0.0,
			"0.021": 0.0,
			"0.022": 0.0,
			"0.023": 0.0,
			"0.024": 0.0,
			"0.025": 0.0
		}
	}
}
