{
	 "smiles": "CNC(C(O)=O)C1=C(F)C=CC(F)=C1", 
	 "Tm": 513.15, 
	 "num_atms": 23, 
	 "gaussian": { 
		 "optdone": 1, 
		 "sigma_profile": "yes", 
		 "theory": "DFT", 
		 "functional": "B3LYP", 
		 "basiset": "6-31G**", 
		 "properties": { 
			 "R2extent": 4132.5983, 
			 "electric_dipole_moment_norm": 1.70238323829, 
			 "electric_quadrupole_moment_norm": 15.4091518508, 
			 "total_energy": -753.245270869, 
			 "HOMO_LUMO_gap": 0.20293, 
			 "cosmo_polarized_energy": -14.19, 
			 "cosmo_cavitation_energy": 28.26, 
			 "cosmo_dispersion_energy": -19.68, 
			 "cosmo_repulsion_energy": 1.53, 
			 "cosmo_total_nonelectrostatic_energy": 10.11, 
			 "SMD_solvation_energy": 5.67 
		},
		"coords": [
			{
				"x": -2.7023042834,
				"y": -0.2591733806,
				"z": 0.4451878258,
				"element": "C" 
			},
			{
				"x": -1.243871302,
				"y": -0.1831936635,
				"z": 0.4845156286,
				"element": "N" 
			},
			{
				"x": -0.6843116003,
				"y": 0.0674395637,
				"z": 1.8088700895,
				"element": "C" 
			},
			{
				"x": -0.7643303582,
				"y": 1.5372638765,
				"z": 2.2565046929,
				"element": "C" 
			},
			{
				"x": -1.4049155209,
				"y": 2.3469533505,
				"z": 1.3914076482,
				"element": "O" 
			},
			{
				"x": -0.3284798881,
				"y": 1.9212553808,
				"z": 3.319195269,
				"element": "O" 
			},
			{
				"x": 0.7544964098,
				"y": -0.4172979678,
				"z": 1.8725736511,
				"element": "C" 
			},
			{
				"x": 1.7849348271,
				"y": 0.278811655,
				"z": 1.2346133938,
				"element": "C" 
			},
			{
				"x": 1.4972728471,
				"y": 1.4460987112,
				"z": 0.6208592958,
				"element": "F" 
			},
			{
				"x": 3.0987199267,
				"y": -0.1720215685,
				"z": 1.2277857439,
				"element": "C" 
			},
			{
				"x": 3.4134969431,
				"y": -1.369508422,
				"z": 1.870902054,
				"element": "C" 
			},
			{
				"x": 2.3955717784,
				"y": -2.0707045083,
				"z": 2.5056378854,
				"element": "C" 
			},
			{
				"x": 2.687019882,
				"y": -3.2292484612,
				"z": 3.1334893946,
				"element": "F" 
			},
			{
				"x": 1.0815326608,
				"y": -1.6156960151,
				"z": 2.5144823698,
				"element": "C" 
			},
			{
				"x": -3.0146934428,
				"y": -0.5622081133,
				"z": -0.557993512,
				"element": "H" 
			},
			{
				"x": -3.128157527,
				"y": 0.7274660265,
				"z": 0.6423798295,
				"element": "H" 
			},
			{
				"x": -3.1338771998,
				"y": -0.9717954624,
				"z": 1.1719950901,
				"element": "H" 
			},
			{
				"x": -0.8466550771,
				"y": -1.0477480252,
				"z": 0.1310359749,
				"element": "H" 
			},
			{
				"x": -1.2348800624,
				"y": -0.4707839118,
				"z": 2.6043413407,
				"element": "H" 
			},
			{
				"x": -1.398792902,
				"y": 3.226760836,
				"z": 1.8058459347,
				"element": "H" 
			},
			{
				"x": 3.8575623094,
				"y": 0.4158755643,
				"z": 0.7236261101,
				"element": "H" 
			},
			{
				"x": 4.4268821435,
				"y": -1.7544422693,
				"z": 1.8879873837,
				"element": "H" 
			},
			{
				"x": 0.322279436,
				"y": -2.1945031955,
				"z": 3.0301569058,
				"element": "H" 
			}
		],
		 "valence_orbital": [ 
			{
				"type": "occ",
				"energy": -0.31621,
				"method": "rhf"
			},
			{
				"type": "occ",
				"energy": -0.27952,
				"method": "rhf"
			},
			{
				"type": "occ",
				"energy": -0.27236,
				"method": "rhf"
			},
			{
				"type": "occ",
				"energy": -0.24383,
				"method": "rhf"
			},
			{
				"type": "occ",
				"energy": -0.23059,
				"method": "rhf"
			},
			{
				"type": "unocc",
				"energy": -0.02766,
				"method": "rhf"
			},
			{
				"type": "unocc",
				"energy": -0.00322,
				"method": "rhf"
			},
			{
				"type": "unocc",
				"energy": 0.00974,
				"method": "rhf"
			},
			{
				"type": "unocc",
				"energy": 0.07128,
				"method": "rhf"
			},
			{
				"type": "unocc",
				"energy": 0.08179,
				"method": "rhf"
			}
		],
		"cosmo_sigma_profile": { 
			"-0.025": 0.0,
			"-0.024": 0.0,
			"-0.023": 0.0,
			"-0.022": 0.0,
			"-0.021": 0.0,
			"-0.02": 0.0,
			"-0.019": 0.0698469668726,
			"-0.018": 0.973424244848,
			"-0.017": 0.897643740679,
			"-0.016": 0.863938471343,
			"-0.015": 0.301500252018,
			"-0.014": 0.958120876338,
			"-0.013": 0.36398575108,
			"-0.012": 1.18148043275,
			"-0.011": 1.48179538393,
			"-0.01": 1.72024216801,
			"-0.009": 1.37310807463,
			"-0.008": 6.73694997592,
			"-0.007": 10.2230584909,
			"-0.006": 10.9052313095,
			"-0.005": 10.5739731607,
			"-0.004": 9.96643923942,
			"-0.003": 13.7204460042,
			"-0.002": 13.9810931734,
			"-0.001": 16.0592485285,
			"0.0": 19.5177648612,
			"0.001": 18.5338612216,
			"0.002": 15.1976630297,
			"0.003": 13.8438689634,
			"0.004": 17.984847442,
			"0.005": 6.67885671731,
			"0.006": 3.36273301476,
			"0.007": 3.39097394209,
			"0.008": 2.81041150511,
			"0.009": 2.60104676915,
			"0.01": 3.46768488755,
			"0.011": 4.98288006555,
			"0.012": 5.69379858764,
			"0.013": 1.42698064498,
			"0.014": 1.16825024388,
			"0.015": 0.501468509139,
			"0.016": 0.710329276987,
			"0.017": 0.120409101796,
			"0.018": 0.0,
			"0.019": 0.0,
			"0.02": 0.0,
			"0.021": 0.0,
			"0.022": 0.0,
			"0.023": 0.0,
			"0.024": 0.0,
			"0.025": 0.0
		}
	}
}
