{
	 "smiles": "S=C=NC1=CC=CC(=C1)C#N", 
	 "Tm": 338.15, 
	 "num_atms": 15, 
	 "gaussian": { 
		 "optdone": 1, 
		 "sigma_profile": "yes", 
		 "theory": "DFT", 
		 "functional": "B3LYP", 
		 "basiset": "6-31G**", 
		 "properties": { 
			 "R2extent": 3372.1198, 
			 "electric_dipole_moment_norm": 3.88998559766, 
			 "electric_quadrupole_moment_norm": 13.0729313534, 
			 "total_energy": -814.92672397, 
			 "HOMO_LUMO_gap": 0.1741, 
			 "cosmo_polarized_energy": -10.51, 
			 "cosmo_cavitation_energy": 24.38, 
			 "cosmo_dispersion_energy": -17.53, 
			 "cosmo_repulsion_energy": 1.38, 
			 "cosmo_total_nonelectrostatic_energy": 8.23, 
			 "SMD_solvation_energy": 6.25 
		},
		"coords": [
			{
				"x": -1.6427372608,
				"y": -3.2772428332,
				"z": 4.189545311,
				"element": "S" 
			},
			{
				"x": -1.2953993348,
				"y": -2.2121672373,
				"z": 3.0614256291,
				"element": "C" 
			},
			{
				"x": -1.03486914,
				"y": -1.4130344626,
				"z": 2.2213237009,
				"element": "N" 
			},
			{
				"x": -0.7491561935,
				"y": -0.5113571103,
				"z": 1.2310957686,
				"element": "C" 
			},
			{
				"x": -1.78040558,
				"y": -0.0119718624,
				"z": 0.415723009,
				"element": "C" 
			},
			{
				"x": -1.4835467105,
				"y": 0.9052814567,
				"z": -0.5889281364,
				"element": "C" 
			},
			{
				"x": -0.1742740992,
				"y": 1.3353732717,
				"z": -0.795879292,
				"element": "C" 
			},
			{
				"x": 0.8545649716,
				"y": 0.8353854851,
				"z": 0.0205318513,
				"element": "C" 
			},
			{
				"x": 0.5731091321,
				"y": -0.0880529258,
				"z": 1.0358776888,
				"element": "C" 
			},
			{
				"x": 2.206623843,
				"y": 1.2717498575,
				"z": -0.1838837753,
				"element": "C" 
			},
			{
				"x": 3.3005636674,
				"y": 1.6279019735,
				"z": -0.3529081344,
				"element": "N" 
			},
			{
				"x": -2.7971444989,
				"y": -0.3504981556,
				"z": 0.5820942448,
				"element": "H" 
			},
			{
				"x": -2.2819456715,
				"y": 1.2881377368,
				"z": -1.216319818,
				"element": "H" 
			},
			{
				"x": 0.0595751817,
				"y": 2.0495590066,
				"z": -1.57732293,
				"element": "H" 
			},
			{
				"x": 1.3645416934,
				"y": -0.4748642006,
				"z": 1.6668248825,
				"element": "H" 
			}
		],
		 "valence_orbital": [ 
			{
				"type": "occ",
				"energy": -0.3444,
				"method": "rhf"
			},
			{
				"type": "occ",
				"energy": -0.31099,
				"method": "rhf"
			},
			{
				"type": "occ",
				"energy": -0.28742,
				"method": "rhf"
			},
			{
				"type": "occ",
				"energy": -0.26564,
				"method": "rhf"
			},
			{
				"type": "occ",
				"energy": -0.24883,
				"method": "rhf"
			},
			{
				"type": "unocc",
				"energy": -0.07473,
				"method": "rhf"
			},
			{
				"type": "unocc",
				"energy": -0.06082,
				"method": "rhf"
			},
			{
				"type": "unocc",
				"energy": -0.01055,
				"method": "rhf"
			},
			{
				"type": "unocc",
				"energy": 0.0153,
				"method": "rhf"
			},
			{
				"type": "unocc",
				"energy": 0.02483,
				"method": "rhf"
			}
		],
		"cosmo_sigma_profile": { 
			"-0.025": 0.0,
			"-0.024": 0.0,
			"-0.023": 0.0,
			"-0.022": 0.0,
			"-0.021": 0.0,
			"-0.02": 0.0,
			"-0.019": 0.0,
			"-0.018": 0.0,
			"-0.017": 0.0,
			"-0.016": 0.0,
			"-0.015": 0.0,
			"-0.014": 0.0,
			"-0.013": 0.0,
			"-0.012": 0.0,
			"-0.011": 0.0,
			"-0.01": 0.270511563075,
			"-0.009": 3.83057273063,
			"-0.008": 8.48731526453,
			"-0.007": 10.6815755574,
			"-0.006": 8.5417934176,
			"-0.005": 7.9350889705,
			"-0.004": 8.33401365131,
			"-0.003": 11.4776137691,
			"-0.002": 20.2256516856,
			"-0.001": 20.1499293259,
			"0.0": 20.1808978707,
			"0.001": 14.1467561333,
			"0.002": 9.74032251234,
			"0.003": 7.1943131466,
			"0.004": 8.4845700708,
			"0.005": 13.7637262097,
			"0.006": 10.4258195082,
			"0.007": 3.35621956568,
			"0.008": 3.08785130212,
			"0.009": 3.57798890862,
			"0.01": 2.73785242537,
			"0.011": 2.69919410507,
			"0.012": 2.38745313062,
			"0.013": 0.773842251138,
			"0.014": 0.0,
			"0.015": 0.0,
			"0.016": 0.0,
			"0.017": 0.0,
			"0.018": 0.0,
			"0.019": 0.0,
			"0.02": 0.0,
			"0.021": 0.0,
			"0.022": 0.0,
			"0.023": 0.0,
			"0.024": 0.0,
			"0.025": 0.0
		}
	}
}
