{
	 "smiles": "NC1=NNC2=C1C=CC=C2", 
	 "Tm": 426.15, 
	 "num_atms": 17, 
	 "gaussian": { 
		 "optdone": 1, 
		 "sigma_profile": "yes", 
		 "theory": "DFT", 
		 "functional": "B3LYP", 
		 "basiset": "6-31G**", 
		 "properties": { 
			 "R2extent": 1751.6746, 
			 "electric_dipole_moment_norm": 1.32469039402, 
			 "electric_quadrupole_moment_norm": 8.87627253074, 
			 "total_energy": -435.204960735, 
			 "HOMO_LUMO_gap": 0.17333, 
			 "cosmo_polarized_energy": -12.21, 
			 "cosmo_cavitation_energy": 20.95, 
			 "cosmo_dispersion_energy": -16.01, 
			 "cosmo_repulsion_energy": 1.3, 
			 "cosmo_total_nonelectrostatic_energy": 6.24, 
			 "SMD_solvation_energy": 2.37 
		},
		"coords": [
			{
				"x": -1.3316087784,
				"y": 0.23841788,
				"z": -1.9952143919,
				"element": "N" 
			},
			{
				"x": -0.3929764653,
				"y": -0.2792105574,
				"z": -1.1031604558,
				"element": "C" 
			},
			{
				"x": 0.8341468292,
				"y": 0.2030681852,
				"z": -1.0285023365,
				"element": "N" 
			},
			{
				"x": 1.4394316391,
				"y": -0.479168404,
				"z": -0.0004955929,
				"element": "N" 
			},
			{
				"x": 0.6176978502,
				"y": -1.407603525,
				"z": 0.5662604179,
				"element": "C" 
			},
			{
				"x": -0.6166587678,
				"y": -1.3095904455,
				"z": -0.1255525046,
				"element": "C" 
			},
			{
				"x": -1.6933701509,
				"y": -2.1338533382,
				"z": 0.2403326211,
				"element": "C" 
			},
			{
				"x": -1.5113098696,
				"y": -3.040874194,
				"z": 1.2738377794,
				"element": "C" 
			},
			{
				"x": -0.2715416142,
				"y": -3.1319843781,
				"z": 1.948771822,
				"element": "C" 
			},
			{
				"x": 0.8054915482,
				"y": -2.3244260568,
				"z": 1.6143498318,
				"element": "C" 
			},
			{
				"x": -0.8984400892,
				"y": 0.8571803343,
				"z": -2.6710445216,
				"element": "H" 
			},
			{
				"x": -1.8772209973,
				"y": -0.4759535963,
				"z": -2.4624383469,
				"element": "H" 
			},
			{
				"x": 2.3917397357,
				"y": -0.2558594371,
				"z": 0.2328315517,
				"element": "H" 
			},
			{
				"x": -2.6507923407,
				"y": -2.0569292168,
				"z": -0.2674785656,
				"element": "H" 
			},
			{
				"x": -2.3287192447,
				"y": -3.6879808896,
				"z": 1.5766121316,
				"element": "H" 
			},
			{
				"x": -0.1614720959,
				"y": -3.8528822967,
				"z": 2.7539886343,
				"element": "H" 
			},
			{
				"x": 1.7518028117,
				"y": -2.3990500639,
				"z": 2.1415019262,
				"element": "H" 
			}
		],
		 "valence_orbital": [ 
			{
				"type": "occ",
				"energy": -0.3252,
				"method": "rhf"
			},
			{
				"type": "occ",
				"energy": -0.28551,
				"method": "rhf"
			},
			{
				"type": "occ",
				"energy": -0.25589,
				"method": "rhf"
			},
			{
				"type": "occ",
				"energy": -0.23369,
				"method": "rhf"
			},
			{
				"type": "occ",
				"energy": -0.19254,
				"method": "rhf"
			},
			{
				"type": "unocc",
				"energy": -0.01921,
				"method": "rhf"
			},
			{
				"type": "unocc",
				"energy": 0.02378,
				"method": "rhf"
			},
			{
				"type": "unocc",
				"energy": 0.07332,
				"method": "rhf"
			},
			{
				"type": "unocc",
				"energy": 0.08569,
				"method": "rhf"
			},
			{
				"type": "unocc",
				"energy": 0.09655,
				"method": "rhf"
			}
		],
		"cosmo_sigma_profile": { 
			"-0.025": 0.0,
			"-0.024": 0.0,
			"-0.023": 0.0,
			"-0.022": 0.0,
			"-0.021": 0.0,
			"-0.02": 0.0,
			"-0.019": 0.0,
			"-0.018": 0.0,
			"-0.017": 0.0,
			"-0.016": 0.451978713561,
			"-0.015": 1.31109836252,
			"-0.014": 1.58232411451,
			"-0.013": 1.20309934089,
			"-0.012": 2.79819310251,
			"-0.011": 3.57967117059,
			"-0.01": 3.60357381216,
			"-0.009": 3.78483708205,
			"-0.008": 3.66011218093,
			"-0.007": 4.5810552114,
			"-0.006": 7.12677102416,
			"-0.005": 10.0164524285,
			"-0.004": 9.86149669869,
			"-0.003": 9.50857169275,
			"-0.002": 7.35163517756,
			"-0.001": 6.2796769631,
			"0.0": 7.5073660348,
			"0.001": 7.22162183317,
			"0.002": 6.93748959093,
			"0.003": 12.8060228254,
			"0.004": 13.1033403254,
			"0.005": 12.9053096585,
			"0.006": 10.4887210287,
			"0.007": 3.17510399427,
			"0.008": 2.57023838444,
			"0.009": 2.37634655199,
			"0.01": 1.73223080598,
			"0.011": 1.8134401376,
			"0.012": 1.90032585411,
			"0.013": 1.84572113397,
			"0.014": 1.49058469236,
			"0.015": 1.63154454446,
			"0.016": 0.771257518826,
			"0.017": 0.128181622217,
			"0.018": 0.0,
			"0.019": 0.0,
			"0.02": 0.0,
			"0.021": 0.0,
			"0.022": 0.0,
			"0.023": 0.0,
			"0.024": 0.0,
			"0.025": 0.0
		}
	}
}
