{
	 "smiles": "CC1=C(SC2=C1C(F)=CC=C2)S(Cl)(=O)=O", 
	 "Tm": 388.15, 
	 "num_atms": 21, 
	 "gaussian": { 
		 "optdone": 1, 
		 "sigma_profile": "yes", 
		 "theory": "DFT", 
		 "functional": "B3LYP", 
		 "basiset": "6-31G**", 
		 "properties": { 
			 "R2extent": 6283.7288, 
			 "electric_dipole_moment_norm": 5.89816369814, 
			 "electric_quadrupole_moment_norm": 12.3512494068, 
			 "total_energy": -1853.3534221, 
			 "HOMO_LUMO_gap": 0.14614, 
			 "cosmo_polarized_energy": -8.64, 
			 "cosmo_cavitation_energy": 30.27, 
			 "cosmo_dispersion_energy": -22.93, 
			 "cosmo_repulsion_energy": 1.66, 
			 "cosmo_total_nonelectrostatic_energy": 9.0, 
			 "SMD_solvation_energy": 3.74 
		},
		"coords": [
			{
				"x": 0.673708821,
				"y": 2.30781126,
				"z": 1.6881846664,
				"element": "C" 
			},
			{
				"x": 0.1136801618,
				"y": 1.9322118461,
				"z": 0.3453347756,
				"element": "C" 
			},
			{
				"x": 0.8136228527,
				"y": 1.7679940145,
				"z": -0.8242676941,
				"element": "C" 
			},
			{
				"x": -0.1539820389,
				"y": 1.3699843301,
				"z": -2.2393958668,
				"element": "S" 
			},
			{
				"x": -1.5940255291,
				"y": 1.3965096867,
				"z": -1.2484307179,
				"element": "C" 
			},
			{
				"x": -1.2931490834,
				"y": 1.7058883149,
				"z": 0.1026046322,
				"element": "C" 
			},
			{
				"x": -2.3745677391,
				"y": 1.7491482549,
				"z": 1.0039978229,
				"element": "C" 
			},
			{
				"x": -2.1361751979,
				"y": 2.0400856596,
				"z": 2.2989967157,
				"element": "F" 
			},
			{
				"x": -3.6704290191,
				"y": 1.5027941419,
				"z": 0.598661286,
				"element": "C" 
			},
			{
				"x": -3.9262535885,
				"y": 1.1966291013,
				"z": -0.7503976839,
				"element": "C" 
			},
			{
				"x": -2.8999507938,
				"y": 1.1375375923,
				"z": -1.683734381,
				"element": "C" 
			},
			{
				"x": 2.5491879594,
				"y": 1.9498343103,
				"z": -1.0770330957,
				"element": "S" 
			},
			{
				"x": 2.7740392774,
				"y": 4.0723514955,
				"z": -1.1369957502,
				"element": "Cl" 
			},
			{
				"x": 2.8561044405,
				"y": 1.469406703,
				"z": -2.4181245904,
				"element": "O" 
			},
			{
				"x": 3.293381386,
				"y": 1.5095784429,
				"z": 0.0960101525,
				"element": "O" 
			},
			{
				"x": 1.7545904219,
				"y": 2.4272835488,
				"z": 1.6607124107,
				"element": "H" 
			},
			{
				"x": 0.4278615528,
				"y": 1.5384085666,
				"z": 2.4259943042,
				"element": "H" 
			},
			{
				"x": 0.2164882764,
				"y": 3.2387297597,
				"z": 2.0368242277,
				"element": "H" 
			},
			{
				"x": -4.4696231114,
				"y": 1.5489810669,
				"z": 1.329645763,
				"element": "H" 
			},
			{
				"x": -4.9476639857,
				"y": 1.0041834651,
				"z": -1.0630820172,
				"element": "H" 
			},
			{
				"x": -3.1042450629,
				"y": 0.9003484389,
				"z": -2.7222049599,
				"element": "H" 
			}
		],
		 "valence_orbital": [ 
			{
				"type": "occ",
				"energy": -0.33069,
				"method": "rhf"
			},
			{
				"type": "occ",
				"energy": -0.31548,
				"method": "rhf"
			},
			{
				"type": "occ",
				"energy": -0.30347,
				"method": "rhf"
			},
			{
				"type": "occ",
				"energy": -0.27252,
				"method": "rhf"
			},
			{
				"type": "occ",
				"energy": -0.244,
				"method": "rhf"
			},
			{
				"type": "unocc",
				"energy": -0.09786,
				"method": "rhf"
			},
			{
				"type": "unocc",
				"energy": -0.05569,
				"method": "rhf"
			},
			{
				"type": "unocc",
				"energy": -0.02898,
				"method": "rhf"
			},
			{
				"type": "unocc",
				"energy": -0.01131,
				"method": "rhf"
			},
			{
				"type": "unocc",
				"energy": 0.00362,
				"method": "rhf"
			}
		],
		"cosmo_sigma_profile": { 
			"-0.025": 0.0,
			"-0.024": 0.0,
			"-0.023": 0.0,
			"-0.022": 0.0,
			"-0.021": 0.0,
			"-0.02": 0.0,
			"-0.019": 0.0,
			"-0.018": 0.0,
			"-0.017": 0.0,
			"-0.016": 0.0,
			"-0.015": 0.0,
			"-0.014": 0.0,
			"-0.013": 0.0,
			"-0.012": 0.0,
			"-0.011": 0.0,
			"-0.01": 0.0,
			"-0.009": 0.964228197524,
			"-0.008": 4.65598141411,
			"-0.007": 7.09614429364,
			"-0.006": 10.2649596804,
			"-0.005": 12.2318277306,
			"-0.004": 12.0847675677,
			"-0.003": 15.2435197992,
			"-0.002": 20.9292217664,
			"-0.001": 27.37656418,
			"0.0": 24.2643767756,
			"0.001": 24.9302997903,
			"0.002": 24.5665467361,
			"0.003": 28.134062632,
			"0.004": 10.3149966803,
			"0.005": 3.16929883426,
			"0.006": 4.41116644708,
			"0.007": 7.27383628727,
			"0.008": 8.41395779101,
			"0.009": 2.28084993846,
			"0.01": 0.0,
			"0.011": 0.0,
			"0.012": 0.0,
			"0.013": 0.0,
			"0.014": 0.0,
			"0.015": 0.0,
			"0.016": 0.0,
			"0.017": 0.0,
			"0.018": 0.0,
			"0.019": 0.0,
			"0.02": 0.0,
			"0.021": 0.0,
			"0.022": 0.0,
			"0.023": 0.0,
			"0.024": 0.0,
			"0.025": 0.0
		}
	}
}
