{
	 "smiles": "CN1CC2=C3OCOC3=CC=C2C2C(O)CC3=C(C=C4OCOC4=C3)C12", 
	 "Tm": 409.15, 
	 "num_atms": 45, 
	 "gaussian": { 
		 "optdone": 1, 
		 "sigma_profile": "yes", 
		 "theory": "DFT", 
		 "functional": "B3LYP", 
		 "basiset": "6-31G**", 
		 "properties": { 
			 "R2extent": 11597.2303, 
			 "electric_dipole_moment_norm": 1.55266052954, 
			 "electric_quadrupole_moment_norm": 11.8211627334, 
			 "total_energy": -1204.38587092, 
			 "HOMO_LUMO_gap": 0.19671, 
			 "cosmo_polarized_energy": -14.81, 
			 "cosmo_cavitation_energy": 44.54, 
			 "cosmo_dispersion_energy": -32.92, 
			 "cosmo_repulsion_energy": 2.42, 
			 "cosmo_total_nonelectrostatic_energy": 14.04, 
			 "SMD_solvation_energy": 6.66 
		},
		"coords": [
			{
				"x": -1.7556706904,
				"y": 0.5695361707,
				"z": -0.7456661299,
				"element": "C" 
			},
			{
				"x": -0.4786804229,
				"y": 0.603401395,
				"z": -1.4571114535,
				"element": "N" 
			},
			{
				"x": -0.3258275429,
				"y": -0.4936821363,
				"z": -2.4056708345,
				"element": "C" 
			},
			{
				"x": 0.1619637427,
				"y": -1.7866922866,
				"z": -1.7765753834,
				"element": "C" 
			},
			{
				"x": 0.0858360877,
				"y": -2.9723161249,
				"z": -2.4838423407,
				"element": "C" 
			},
			{
				"x": -0.4263166939,
				"y": -3.1485629159,
				"z": -3.7554886367,
				"element": "O" 
			},
			{
				"x": -0.4261630021,
				"y": -4.5638249349,
				"z": -3.9705043262,
				"element": "C" 
			},
			{
				"x": 0.3604435232,
				"y": -5.1705364135,
				"z": -2.9395987247,
				"element": "O" 
			},
			{
				"x": 0.5597313607,
				"y": -4.1831242129,
				"z": -2.0007916535,
				"element": "C" 
			},
			{
				"x": 1.1546715164,
				"y": -4.267724263,
				"z": -0.7590040818,
				"element": "C" 
			},
			{
				"x": 1.241036914,
				"y": -3.0792305835,
				"z": -0.0135103257,
				"element": "C" 
			},
			{
				"x": 0.7666253641,
				"y": -1.8464885857,
				"z": -0.4892261622,
				"element": "C" 
			},
			{
				"x": 0.8170688105,
				"y": -0.5623824012,
				"z": 0.3553105071,
				"element": "C" 
			},
			{
				"x": 2.0365954356,
				"y": -0.3711024407,
				"z": 1.2843630413,
				"element": "C" 
			},
			{
				"x": 2.2873809444,
				"y": -1.4544403355,
				"z": 2.1841422438,
				"element": "O" 
			},
			{
				"x": 1.876041582,
				"y": 0.9078679333,
				"z": 2.1186794633,
				"element": "C" 
			},
			{
				"x": 1.4467602318,
				"y": 2.13729585,
				"z": 1.3503228786,
				"element": "C" 
			},
			{
				"x": 0.8369798498,
				"y": 2.0211609752,
				"z": 0.0954105363,
				"element": "C" 
			},
			{
				"x": 0.4148638859,
				"y": 3.1731480508,
				"z": -0.6092677177,
				"element": "C" 
			},
			{
				"x": 0.6149771648,
				"y": 4.3965311768,
				"z": -0.0122723931,
				"element": "C" 
			},
			{
				"x": 0.2711204595,
				"y": 5.646575747,
				"z": -0.476788414,
				"element": "O" 
			},
			{
				"x": 0.8323838913,
				"y": 6.5735305517,
				"z": 0.4572404025,
				"element": "C" 
			},
			{
				"x": 1.2762607211,
				"y": 5.8377445125,
				"z": 1.604155961,
				"element": "O" 
			},
			{
				"x": 1.218591004,
				"y": 4.5138173075,
				"z": 1.2381885033,
				"element": "C" 
			},
			{
				"x": 1.6443820026,
				"y": 3.4077061548,
				"z": 1.9390064234,
				"element": "C" 
			},
			{
				"x": 0.7097787014,
				"y": 0.6678819696,
				"z": -0.5934044194,
				"element": "C" 
			},
			{
				"x": -2.5667481793,
				"y": 0.7091698123,
				"z": -1.4675598222,
				"element": "H" 
			},
			{
				"x": -1.9512437145,
				"y": -0.3694492136,
				"z": -0.2005623945,
				"element": "H" 
			},
			{
				"x": -1.7961803843,
				"y": 1.3961186218,
				"z": -0.0315382782,
				"element": "H" 
			},
			{
				"x": 0.389329768,
				"y": -0.1865093369,
				"z": -3.1835261636,
				"element": "H" 
			},
			{
				"x": -1.2779664648,
				"y": -0.660633395,
				"z": -2.9206316891,
				"element": "H" 
			},
			{
				"x": 0.0182267297,
				"y": -4.7842403981,
				"z": -4.9459902867,
				"element": "H" 
			},
			{
				"x": -1.457374687,
				"y": -4.9444494102,
				"z": -3.917441265,
				"element": "H" 
			},
			{
				"x": 1.5385245245,
				"y": -5.2059295902,
				"z": -0.3744962805,
				"element": "H" 
			},
			{
				"x": 1.7118901237,
				"y": -3.1115204086,
				"z": 0.9588072343,
				"element": "H" 
			},
			{
				"x": -0.0680063827,
				"y": -0.5507421187,
				"z": 1.0137873603,
				"element": "H" 
			},
			{
				"x": 2.9435996822,
				"y": -0.3095193059,
				"z": 0.6709248025,
				"element": "H" 
			},
			{
				"x": 1.5310262608,
				"y": -1.5105377987,
				"z": 2.7854360955,
				"element": "H" 
			},
			{
				"x": 2.8145856012,
				"y": 1.0937232819,
				"z": 2.652303953,
				"element": "H" 
			},
			{
				"x": 1.1262475582,
				"y": 0.6961846169,
				"z": 2.8995386289,
				"element": "H" 
			},
			{
				"x": -0.0555334098,
				"y": 3.0720217532,
				"z": -1.5797603503,
				"element": "H" 
			},
			{
				"x": 0.0671358516,
				"y": 7.2944106298,
				"z": 0.7618972327,
				"element": "H" 
			},
			{
				"x": 1.689668628,
				"y": 7.0867643217,
				"z": -0.0025222921,
				"element": "H" 
			},
			{
				"x": 2.1145332385,
				"y": 3.5070612024,
				"z": 2.9119636234,
				"element": "H" 
			},
			{
				"x": 1.5625504147,
				"y": 0.5897865757,
				"z": -1.2870270719,
				"element": "H" 
			}
		],
		 "valence_orbital": [ 
			{
				"type": "occ",
				"energy": -0.23949,
				"method": "rhf"
			},
			{
				"type": "occ",
				"energy": -0.23114,
				"method": "rhf"
			},
			{
				"type": "occ",
				"energy": -0.21145,
				"method": "rhf"
			},
			{
				"type": "occ",
				"energy": -0.20094,
				"method": "rhf"
			},
			{
				"type": "occ",
				"energy": -0.19855,
				"method": "rhf"
			},
			{
				"type": "unocc",
				"energy": -0.00184,
				"method": "rhf"
			},
			{
				"type": "unocc",
				"energy": 0.00617,
				"method": "rhf"
			},
			{
				"type": "unocc",
				"energy": 0.00774,
				"method": "rhf"
			},
			{
				"type": "unocc",
				"energy": 0.0192,
				"method": "rhf"
			},
			{
				"type": "unocc",
				"energy": 0.07378,
				"method": "rhf"
			}
		],
		"cosmo_sigma_profile": { 
			"-0.025": 0.0,
			"-0.024": 0.0,
			"-0.023": 0.0,
			"-0.022": 0.0,
			"-0.021": 0.0,
			"-0.02": 0.0,
			"-0.019": 0.0,
			"-0.018": 0.0,
			"-0.017": 0.0,
			"-0.016": 0.0174664668998,
			"-0.015": 0.630203789436,
			"-0.014": 1.09430044311,
			"-0.013": 0.871691162878,
			"-0.012": 1.63831631131,
			"-0.011": 0.773518663253,
			"-0.01": 0.864144533473,
			"-0.009": 0.836813006039,
			"-0.008": 4.77748848915,
			"-0.007": 12.9944826289,
			"-0.006": 19.1528540511,
			"-0.005": 19.2102081456,
			"-0.004": 27.8514917195,
			"-0.003": 25.9690410675,
			"-0.002": 28.7150957644,
			"-0.001": 28.0031733356,
			"0.0": 24.9492797757,
			"0.001": 20.6708477706,
			"0.002": 21.4504822947,
			"0.003": 26.443773522,
			"0.004": 21.0946075876,
			"0.005": 18.1463473142,
			"0.006": 12.6069718016,
			"0.007": 7.7083682107,
			"0.008": 7.10967063581,
			"0.009": 8.07903131736,
			"0.01": 5.84071783886,
			"0.011": 1.13696744121,
			"0.012": 1.03291276505,
			"0.013": 1.27617318306,
			"0.014": 1.1092318015,
			"0.015": 0.0113922099054,
			"0.016": 0.0,
			"0.017": 0.0,
			"0.018": 0.0,
			"0.019": 0.0,
			"0.02": 0.0,
			"0.021": 0.0,
			"0.022": 0.0,
			"0.023": 0.0,
			"0.024": 0.0,
			"0.025": 0.0
		}
	}
}
