{
	 "smiles": "C1COC2=C(O1)C=C1NC(=NC1=C2)C1=CSC=C1", 
	 "Tm": 553.15, 
	 "num_atms": 28, 
	 "gaussian": { 
		 "optdone": 1, 
		 "sigma_profile": "yes", 
		 "theory": "DFT", 
		 "functional": "B3LYP", 
		 "basiset": "6-31G**", 
		 "properties": { 
			 "R2extent": 9259.3605, 
			 "electric_dipole_moment_norm": 3.30260085084, 
			 "electric_quadrupole_moment_norm": 20.9438647522, 
			 "total_energy": -1159.52745471, 
			 "HOMO_LUMO_gap": 0.15414, 
			 "cosmo_polarized_energy": -17.28, 
			 "cosmo_cavitation_energy": 33.65, 
			 "cosmo_dispersion_energy": -26.32, 
			 "cosmo_repulsion_energy": 1.94, 
			 "cosmo_total_nonelectrostatic_energy": 9.27, 
			 "SMD_solvation_energy": 3.82 
		},
		"coords": [
			{
				"x": 1.970686272,
				"y": 1.1989338794,
				"z": 2.9606002994,
				"element": "C" 
			},
			{
				"x": 3.0029838879,
				"y": 0.084855538,
				"z": 2.951629807,
				"element": "C" 
			},
			{
				"x": 3.3052454803,
				"y": -0.2863978213,
				"z": 1.6104024498,
				"element": "O" 
			},
			{
				"x": 2.1954055939,
				"y": -0.4702169313,
				"z": 0.8120967827,
				"element": "C" 
			},
			{
				"x": 0.9275806461,
				"y": 0.0471881356,
				"z": 1.1901802554,
				"element": "C" 
			},
			{
				"x": 0.7569926469,
				"y": 0.7438156109,
				"z": 2.3650376945,
				"element": "O" 
			},
			{
				"x": -0.1972610464,
				"y": -0.1420722121,
				"z": 0.3899449421,
				"element": "C" 
			},
			{
				"x": -0.0167886679,
				"y": -0.8498880095,
				"z": -0.7961532316,
				"element": "C" 
			},
			{
				"x": -0.87924206,
				"y": -1.2189468715,
				"z": -1.8125164768,
				"element": "N" 
			},
			{
				"x": -0.1323418324,
				"y": -1.9075557477,
				"z": -2.7555908456,
				"element": "C" 
			},
			{
				"x": 1.1371338731,
				"y": -2.0050142027,
				"z": -2.4165862361,
				"element": "N" 
			},
			{
				"x": 1.2438235564,
				"y": -1.3557086003,
				"z": -1.200194396,
				"element": "C" 
			},
			{
				"x": 2.3615995248,
				"y": -1.166438248,
				"z": -0.3789800458,
				"element": "C" 
			},
			{
				"x": -0.7154674248,
				"y": -2.4511700066,
				"z": -3.9770649209,
				"element": "C" 
			},
			{
				"x": 0.0346025027,
				"y": -3.1278912232,
				"z": -4.9116264601,
				"element": "C" 
			},
			{
				"x": -0.9198499321,
				"y": -3.6542185654,
				"z": -6.2486088493,
				"element": "S" 
			},
			{
				"x": -2.3557117818,
				"y": -2.9639611359,
				"z": -5.5615158471,
				"element": "C" 
			},
			{
				"x": -2.097221521,
				"y": -2.3625139509,
				"z": -4.3637463631,
				"element": "C" 
			},
			{
				"x": 1.7190688847,
				"y": 1.5042073353,
				"z": 3.9797411934,
				"element": "H" 
			},
			{
				"x": 2.3568039923,
				"y": 2.0687899207,
				"z": 2.4110409541,
				"element": "H" 
			},
			{
				"x": 2.6198746595,
				"y": -0.7819719103,
				"z": 3.5088866447,
				"element": "H" 
			},
			{
				"x": 3.94369903,
				"y": 0.4103238555,
				"z": 3.4036414635,
				"element": "H" 
			},
			{
				"x": -1.1506391569,
				"y": 0.264536444,
				"z": 0.7095811498,
				"element": "H" 
			},
			{
				"x": -1.8650333519,
				"y": -1.0192139574,
				"z": -1.8594574184,
				"element": "H" 
			},
			{
				"x": 3.3388595661,
				"y": -1.5509437098,
				"z": -0.6476422907,
				"element": "H" 
			},
			{
				"x": 1.0942782251,
				"y": -3.3304207104,
				"z": -4.8600990757,
				"element": "H" 
			},
			{
				"x": -3.3010123721,
				"y": -3.0428905905,
				"z": -6.0795927845,
				"element": "H" 
			},
			{
				"x": -2.8699691941,
				"y": -1.8744163146,
				"z": -3.7797083947,
				"element": "H" 
			}
		],
		 "valence_orbital": [ 
			{
				"type": "occ",
				"energy": -0.26579,
				"method": "rhf"
			},
			{
				"type": "occ",
				"energy": -0.25651,
				"method": "rhf"
			},
			{
				"type": "occ",
				"energy": -0.24325,
				"method": "rhf"
			},
			{
				"type": "occ",
				"energy": -0.20904,
				"method": "rhf"
			},
			{
				"type": "occ",
				"energy": -0.18914,
				"method": "rhf"
			},
			{
				"type": "unocc",
				"energy": -0.035,
				"method": "rhf"
			},
			{
				"type": "unocc",
				"energy": -0.00199,
				"method": "rhf"
			},
			{
				"type": "unocc",
				"energy": 0.0278,
				"method": "rhf"
			},
			{
				"type": "unocc",
				"energy": 0.02844,
				"method": "rhf"
			},
			{
				"type": "unocc",
				"energy": 0.04648,
				"method": "rhf"
			}
		],
		"cosmo_sigma_profile": { 
			"-0.025": 0.0,
			"-0.024": 0.0,
			"-0.023": 0.0,
			"-0.022": 0.0,
			"-0.021": 0.0,
			"-0.02": 0.0,
			"-0.019": 0.0,
			"-0.018": 0.0,
			"-0.017": 0.231312915576,
			"-0.016": 1.10585211564,
			"-0.015": 1.76645093439,
			"-0.014": 1.36855265639,
			"-0.013": 1.10128213265,
			"-0.012": 1.30964520698,
			"-0.011": 1.95719753126,
			"-0.01": 1.69801939528,
			"-0.009": 2.02829699087,
			"-0.008": 6.01474366241,
			"-0.007": 11.8941837737,
			"-0.006": 17.4177385734,
			"-0.005": 18.5228220907,
			"-0.004": 15.0588043411,
			"-0.003": 14.8317767053,
			"-0.002": 11.4738811007,
			"-0.001": 11.6322796263,
			"0.0": 12.0281284988,
			"0.001": 16.3565057046,
			"0.002": 21.8332223292,
			"0.003": 26.222338263,
			"0.004": 30.9264441765,
			"0.005": 14.3944554984,
			"0.006": 6.22852929474,
			"0.007": 4.36242311225,
			"0.008": 4.7949597578,
			"0.009": 3.69272757477,
			"0.01": 4.56647699974,
			"0.011": 2.86465490312,
			"0.012": 1.25918714892,
			"0.013": 0.697246398996,
			"0.014": 1.09794231293,
			"0.015": 1.12343571789,
			"0.016": 0.601831057038,
			"0.017": 0.0116327848022,
			"0.018": 0.0,
			"0.019": 0.0,
			"0.02": 0.0,
			"0.021": 0.0,
			"0.022": 0.0,
			"0.023": 0.0,
			"0.024": 0.0,
			"0.025": 0.0
		}
	}
}
