{
	 "smiles": "NC1=NC(=NS1)C1CC1", 
	 "Tm": 418.15, 
	 "num_atms": 16, 
	 "gaussian": { 
		 "optdone": 1, 
		 "sigma_profile": "yes", 
		 "theory": "DFT", 
		 "functional": "B3LYP", 
		 "basiset": "6-31G**", 
		 "properties": { 
			 "R2extent": 1760.2196, 
			 "electric_dipole_moment_norm": 3.31857080835, 
			 "electric_quadrupole_moment_norm": 15.9216231943, 
			 "total_energy": -757.162922668, 
			 "HOMO_LUMO_gap": 0.21427, 
			 "cosmo_polarized_energy": -12.52, 
			 "cosmo_cavitation_energy": 21.54, 
			 "cosmo_dispersion_energy": -16.78, 
			 "cosmo_repulsion_energy": 1.35, 
			 "cosmo_total_nonelectrostatic_energy": 6.11, 
			 "SMD_solvation_energy": 0.65 
		},
		"coords": [
			{
				"x": -1.8542764981,
				"y": -2.3680520709,
				"z": -1.2669484745,
				"element": "N" 
			},
			{
				"x": -0.9353531965,
				"y": -1.3794498494,
				"z": -1.4626869736,
				"element": "C" 
			},
			{
				"x": -0.4050559479,
				"y": -0.673461966,
				"z": -0.4969911766,
				"element": "N" 
			},
			{
				"x": 0.436256003,
				"y": 0.2735691528,
				"z": -1.0426418816,
				"element": "C" 
			},
			{
				"x": 0.5980036894,
				"y": 0.3453967542,
				"z": -2.3457388237,
				"element": "N" 
			},
			{
				"x": -0.3774002621,
				"y": -0.8517022564,
				"z": -3.0467418764,
				"element": "S" 
			},
			{
				"x": 1.1640177633,
				"y": 1.2081886041,
				"z": -0.1572582371,
				"element": "C" 
			},
			{
				"x": 0.5021350223,
				"y": 1.7082981614,
				"z": 1.1144539861,
				"element": "C" 
			},
			{
				"x": 1.641115029,
				"y": 0.737993265,
				"z": 1.2053142048,
				"element": "C" 
			},
			{
				"x": -1.9741181774,
				"y": -3.0685345753,
				"z": -1.9819559897,
				"element": "H" 
			},
			{
				"x": -1.9372303117,
				"y": -2.6938920714,
				"z": -0.3141881386,
				"element": "H" 
			},
			{
				"x": 1.7979049958,
				"y": 1.9016685821,
				"z": -0.6988588735,
				"element": "H" 
			},
			{
				"x": -0.4943326043,
				"y": 1.3344496814,
				"z": 1.3246552445,
				"element": "H" 
			},
			{
				"x": 0.6729565526,
				"y": 2.745053319,
				"z": 1.3877016093,
				"element": "H" 
			},
			{
				"x": 2.6093653182,
				"y": 1.0953616025,
				"z": 1.5422605989,
				"element": "H" 
			},
			{
				"x": 1.4079126245,
				"y": -0.2860863332,
				"z": 1.4769248018,
				"element": "H" 
			}
		],
		 "valence_orbital": [ 
			{
				"type": "occ",
				"energy": -0.30377,
				"method": "rhf"
			},
			{
				"type": "occ",
				"energy": -0.29574,
				"method": "rhf"
			},
			{
				"type": "occ",
				"energy": -0.26926,
				"method": "rhf"
			},
			{
				"type": "occ",
				"energy": -0.26791,
				"method": "rhf"
			},
			{
				"type": "occ",
				"energy": -0.2251,
				"method": "rhf"
			},
			{
				"type": "unocc",
				"energy": -0.01083,
				"method": "rhf"
			},
			{
				"type": "unocc",
				"energy": 0.00019,
				"method": "rhf"
			},
			{
				"type": "unocc",
				"energy": 0.05215,
				"method": "rhf"
			},
			{
				"type": "unocc",
				"energy": 0.06642,
				"method": "rhf"
			},
			{
				"type": "unocc",
				"energy": 0.09476,
				"method": "rhf"
			}
		],
		"cosmo_sigma_profile": { 
			"-0.025": 0.0,
			"-0.024": 0.0,
			"-0.023": 0.0,
			"-0.022": 0.0,
			"-0.021": 0.0,
			"-0.02": 0.0,
			"-0.019": 0.0,
			"-0.018": 0.0,
			"-0.017": 0.0,
			"-0.016": 0.267188398704,
			"-0.015": 2.02452313596,
			"-0.014": 3.4114649618,
			"-0.013": 2.67234516175,
			"-0.012": 2.60750882066,
			"-0.011": 2.19366648216,
			"-0.01": 2.21216485939,
			"-0.009": 1.67721568718,
			"-0.008": 1.56192450878,
			"-0.007": 2.16648092826,
			"-0.006": 2.14249771404,
			"-0.005": 7.29855552894,
			"-0.004": 10.7113484993,
			"-0.003": 9.53167179106,
			"-0.002": 8.9544966366,
			"-0.001": 12.6936923502,
			"0.0": 15.3218610217,
			"0.001": 13.9222083568,
			"0.002": 14.4266707398,
			"0.003": 14.9691579936,
			"0.004": 13.0217433924,
			"0.005": 6.56033858762,
			"0.006": 3.91837902424,
			"0.007": 3.96807412366,
			"0.008": 3.5804444484,
			"0.009": 2.47585662772,
			"0.01": 2.31445679565,
			"0.011": 1.54759630521,
			"0.012": 1.81076111917,
			"0.013": 1.41195544324,
			"0.014": 0.814947034662,
			"0.015": 1.00937410199,
			"0.016": 0.323473559326,
			"0.017": 0.0,
			"0.018": 0.0,
			"0.019": 0.0,
			"0.02": 0.0,
			"0.021": 0.0,
			"0.022": 0.0,
			"0.023": 0.0,
			"0.024": 0.0,
			"0.025": 0.0
		}
	}
}
