{
	 "smiles": "ClC1CCCCC1", 
	 "Tm": 229.15, 
	 "num_atms": 18, 
	 "gaussian": { 
		 "optdone": 1, 
		 "sigma_profile": "yes", 
		 "theory": "DFT", 
		 "functional": "B3LYP", 
		 "basiset": "6-31G**", 
		 "properties": { 
			 "R2extent": 1032.2763, 
			 "electric_dipole_moment_norm": 2.36086051473, 
			 "electric_quadrupole_moment_norm": 5.31912955097, 
			 "total_energy": -695.476400638, 
			 "HOMO_LUMO_gap": 0.30472, 
			 "cosmo_polarized_energy": -3.75, 
			 "cosmo_cavitation_energy": 20.05, 
			 "cosmo_dispersion_energy": -15.55, 
			 "cosmo_repulsion_energy": 1.31, 
			 "cosmo_total_nonelectrostatic_energy": 5.81, 
			 "SMD_solvation_energy": 2.29 
		},
		"coords": [
			{
				"x": 2.0250781694,
				"y": -0.701965495,
				"z": 1.5191009434,
				"element": "Cl" 
			},
			{
				"x": 0.2684518695,
				"y": -0.9846067702,
				"z": 1.0027113637,
				"element": "C" 
			},
			{
				"x": -0.5915861477,
				"y": 0.1895180007,
				"z": 1.460731391,
				"element": "C" 
			},
			{
				"x": -0.2156256313,
				"y": 1.523179587,
				"z": 0.7765930821,
				"element": "C" 
			},
			{
				"x": 0.2999183443,
				"y": 1.3268115492,
				"z": -0.6700378227,
				"element": "C" 
			},
			{
				"x": -0.2712669095,
				"y": 0.0482750217,
				"z": -1.29783721,
				"element": "C" 
			},
			{
				"x": 0.1692385057,
				"y": -1.2126736258,
				"z": -0.5216091435,
				"element": "C" 
			},
			{
				"x": 0.0040451397,
				"y": -1.8929367809,
				"z": 1.545434108,
				"element": "H" 
			},
			{
				"x": -0.5556347029,
				"y": 0.2870487902,
				"z": 2.5496790548,
				"element": "H" 
			},
			{
				"x": -1.6262063026,
				"y": -0.080997669,
				"z": 1.2061159205,
				"element": "H" 
			},
			{
				"x": -1.0993184148,
				"y": 2.1717130202,
				"z": 0.7788608506,
				"element": "H" 
			},
			{
				"x": 0.5476565545,
				"y": 2.0355379682,
				"z": 1.3697156075,
				"element": "H" 
			},
			{
				"x": 0.0444896631,
				"y": 2.1984731643,
				"z": -1.2824485237,
				"element": "H" 
			},
			{
				"x": 1.3934339925,
				"y": 1.2588267472,
				"z": -0.6640017603,
				"element": "H" 
			},
			{
				"x": -1.3675251341,
				"y": 0.1117794123,
				"z": -1.3092696514,
				"element": "H" 
			},
			{
				"x": 0.038892803,
				"y": -0.0412292576,
				"z": -2.3445170641,
				"element": "H" 
			},
			{
				"x": 1.1309118799,
				"y": -1.5768932013,
				"z": -0.8927896967,
				"element": "H" 
			},
			{
				"x": -0.5533536788,
				"y": -2.0204604612,
				"z": -0.692631449,
				"element": "H" 
			}
		],
		 "valence_orbital": [ 
			{
				"type": "occ",
				"energy": -0.31791,
				"method": "rhf"
			},
			{
				"type": "occ",
				"energy": -0.3148,
				"method": "rhf"
			},
			{
				"type": "occ",
				"energy": -0.31076,
				"method": "rhf"
			},
			{
				"type": "occ",
				"energy": -0.28309,
				"method": "rhf"
			},
			{
				"type": "occ",
				"energy": -0.28064,
				"method": "rhf"
			},
			{
				"type": "unocc",
				"energy": 0.02408,
				"method": "rhf"
			},
			{
				"type": "unocc",
				"energy": 0.07108,
				"method": "rhf"
			},
			{
				"type": "unocc",
				"energy": 0.11262,
				"method": "rhf"
			},
			{
				"type": "unocc",
				"energy": 0.12937,
				"method": "rhf"
			},
			{
				"type": "unocc",
				"energy": 0.13291,
				"method": "rhf"
			}
		],
		"cosmo_sigma_profile": { 
			"-0.025": 0.0,
			"-0.024": 0.0,
			"-0.023": 0.0,
			"-0.022": 0.0,
			"-0.021": 0.0,
			"-0.02": 0.0,
			"-0.019": 0.0,
			"-0.018": 0.0,
			"-0.017": 0.0,
			"-0.016": 0.0,
			"-0.015": 0.0,
			"-0.014": 0.0,
			"-0.013": 0.0,
			"-0.012": 0.0,
			"-0.011": 0.0,
			"-0.01": 0.0,
			"-0.009": 0.0,
			"-0.008": 0.0,
			"-0.007": 0.146928234991,
			"-0.006": 2.1290045459,
			"-0.005": 3.63478659448,
			"-0.004": 10.8803803069,
			"-0.003": 16.2236675486,
			"-0.002": 23.3361733805,
			"-0.001": 24.6914215249,
			"0.0": 23.2698352941,
			"0.001": 15.9479623541,
			"0.002": 5.33292211243,
			"0.003": 5.68271081312,
			"0.004": 4.21819818919,
			"0.005": 4.45170346246,
			"0.006": 7.44736905824,
			"0.007": 6.9944564073,
			"0.008": 2.47486294776,
			"0.009": 0.0,
			"0.01": 0.0,
			"0.011": 0.0,
			"0.012": 0.0,
			"0.013": 0.0,
			"0.014": 0.0,
			"0.015": 0.0,
			"0.016": 0.0,
			"0.017": 0.0,
			"0.018": 0.0,
			"0.019": 0.0,
			"0.02": 0.0,
			"0.021": 0.0,
			"0.022": 0.0,
			"0.023": 0.0,
			"0.024": 0.0,
			"0.025": 0.0
		}
	}
}
