{
	 "smiles": "CC(C)OC(=O)C(C)(C)OC1=CC=C(C=C1)C(=O)C1=CC=C(Cl)C=C1", 
	 "Tm": 353.65, 
	 "num_atms": 46, 
	 "gaussian": { 
		 "optdone": 1, 
		 "sigma_profile": "yes", 
		 "theory": "DFT", 
		 "functional": "B3LYP", 
		 "basiset": "6-31G**", 
		 "properties": { 
			 "R2extent": 16222.0799, 
			 "electric_dipole_moment_norm": 4.29088193965, 
			 "electric_quadrupole_moment_norm": 12.7199604583, 
			 "total_energy": -1535.89575908, 
			 "HOMO_LUMO_gap": 0.16609, 
			 "cosmo_polarized_energy": -13.81, 
			 "cosmo_cavitation_energy": 50.99, 
			 "cosmo_dispersion_energy": -34.46, 
			 "cosmo_repulsion_energy": 2.64, 
			 "cosmo_total_nonelectrostatic_energy": 19.17, 
			 "SMD_solvation_energy": 9.58 
		},
		"coords": [
			{
				"x": 2.0691123224,
				"y": 1.8679572064,
				"z": -2.794114545,
				"element": "C" 
			},
			{
				"x": 0.7266799339,
				"y": 2.5599446256,
				"z": -3.0127084015,
				"element": "C" 
			},
			{
				"x": 0.4645804297,
				"y": 2.9802597,
				"z": -4.4561103845,
				"element": "C" 
			},
			{
				"x": -0.3867468794,
				"y": 1.763588723,
				"z": -2.4800753231,
				"element": "O" 
			},
			{
				"x": -0.6668029089,
				"y": 0.5587440878,
				"z": -2.9894727341,
				"element": "C" 
			},
			{
				"x": -0.0800403453,
				"y": 0.0166448094,
				"z": -3.9047801443,
				"element": "O" 
			},
			{
				"x": -1.9131920118,
				"y": -0.0558377199,
				"z": -2.3063391713,
				"element": "C" 
			},
			{
				"x": -3.1415694359,
				"y": 0.7097070653,
				"z": -2.8235119968,
				"element": "C" 
			},
			{
				"x": -2.0379551329,
				"y": -1.5504863495,
				"z": -2.6126793896,
				"element": "C" 
			},
			{
				"x": -1.9314025196,
				"y": 0.1960248397,
				"z": -0.8863303008,
				"element": "O" 
			},
			{
				"x": -0.938725917,
				"y": -0.1975461989,
				"z": -0.0430049451,
				"element": "C" 
			},
			{
				"x": 0.2868856954,
				"y": -0.7748114225,
				"z": -0.4170880812,
				"element": "C" 
			},
			{
				"x": 1.2122187921,
				"y": -1.1142947129,
				"z": 0.5643765397,
				"element": "C" 
			},
			{
				"x": 0.9669423292,
				"y": -0.873931784,
				"z": 1.9246796796,
				"element": "C" 
			},
			{
				"x": -0.2693116468,
				"y": -0.3060304337,
				"z": 2.2845507927,
				"element": "C" 
			},
			{
				"x": -1.2088699348,
				"y": 0.0219745707,
				"z": 1.3179326593,
				"element": "C" 
			},
			{
				"x": 1.9983432806,
				"y": -1.3152849739,
				"z": 2.9077879904,
				"element": "C" 
			},
			{
				"x": 2.8014857099,
				"y": -2.1959462977,
				"z": 2.6111674283,
				"element": "O" 
			},
			{
				"x": 2.0742924375,
				"y": -0.6895377533,
				"z": 4.272709178,
				"element": "C" 
			},
			{
				"x": 1.7329099503,
				"y": 0.646494421,
				"z": 4.5297028369,
				"element": "C" 
			},
			{
				"x": 1.8949783393,
				"y": 1.1933105097,
				"z": 5.8025947685,
				"element": "C" 
			},
			{
				"x": 2.3930368334,
				"y": 0.3897109724,
				"z": 6.8271238066,
				"element": "C" 
			},
			{
				"x": 2.5840114893,
				"y": 1.0656176937,
				"z": 8.4364624305,
				"element": "Cl" 
			},
			{
				"x": 2.7506231503,
				"y": -0.9406664427,
				"z": 6.5958036139,
				"element": "C" 
			},
			{
				"x": 2.6015116915,
				"y": -1.4656994782,
				"z": 5.3167961038,
				"element": "C" 
			},
			{
				"x": 2.8762063568,
				"y": 2.5765144907,
				"z": -3.0073172894,
				"element": "H" 
			},
			{
				"x": 2.1816949267,
				"y": 1.0027373109,
				"z": -3.449212976,
				"element": "H" 
			},
			{
				"x": 2.167893571,
				"y": 1.543100026,
				"z": -1.7545105261,
				"element": "H" 
			},
			{
				"x": 0.6751589498,
				"y": 3.4435123094,
				"z": -2.3694903674,
				"element": "H" 
			},
			{
				"x": 0.517069582,
				"y": 2.1254932652,
				"z": -5.1322862935,
				"element": "H" 
			},
			{
				"x": -0.5200750955,
				"y": 3.4484742808,
				"z": -4.5480390938,
				"element": "H" 
			},
			{
				"x": 1.2173496141,
				"y": 3.7149607143,
				"z": -4.7600986154,
				"element": "H" 
			},
			{
				"x": -3.2290087618,
				"y": 0.5995258908,
				"z": -3.9079285284,
				"element": "H" 
			},
			{
				"x": -3.056585105,
				"y": 1.7694257477,
				"z": -2.5753313087,
				"element": "H" 
			},
			{
				"x": -4.0430873894,
				"y": 0.3072247114,
				"z": -2.354191623,
				"element": "H" 
			},
			{
				"x": -1.2086357744,
				"y": -2.1293520516,
				"z": -2.2039537284,
				"element": "H" 
			},
			{
				"x": -2.0546949982,
				"y": -1.7077951953,
				"z": -3.6925255259,
				"element": "H" 
			},
			{
				"x": -2.9688940134,
				"y": -1.9262111664,
				"z": -2.1799990752,
				"element": "H" 
			},
			{
				"x": 0.5276572172,
				"y": -0.9660065718,
				"z": -1.4550361944,
				"element": "H" 
			},
			{
				"x": 2.1524736524,
				"y": -1.5797330029,
				"z": 0.2876259045,
				"element": "H" 
			},
			{
				"x": -0.5124789752,
				"y": -0.1474816735,
				"z": 3.3297143176,
				"element": "H" 
			},
			{
				"x": -2.1688736702,
				"y": 0.4487331483,
				"z": 1.5883280292,
				"element": "H" 
			},
			{
				"x": 1.3629069921,
				"y": 1.2768836903,
				"z": 3.7283408259,
				"element": "H" 
			},
			{
				"x": 1.643127402,
				"y": 2.2297294904,
				"z": 5.9978251251,
				"element": "H" 
			},
			{
				"x": 3.1440291959,
				"y": -1.5458820988,
				"z": 7.4049974917,
				"element": "H" 
			},
			{
				"x": 2.8953706705,
				"y": -2.4878589731,
				"z": 5.1031170409,
				"element": "H" 
			}
		],
		 "valence_orbital": [ 
			{
				"type": "occ",
				"energy": -0.26964,
				"method": "rhf"
			},
			{
				"type": "occ",
				"energy": -0.26278,
				"method": "rhf"
			},
			{
				"type": "occ",
				"energy": -0.25639,
				"method": "rhf"
			},
			{
				"type": "occ",
				"energy": -0.24513,
				"method": "rhf"
			},
			{
				"type": "occ",
				"energy": -0.22921,
				"method": "rhf"
			},
			{
				"type": "unocc",
				"energy": -0.06312,
				"method": "rhf"
			},
			{
				"type": "unocc",
				"energy": -0.02098,
				"method": "rhf"
			},
			{
				"type": "unocc",
				"energy": -0.01333,
				"method": "rhf"
			},
			{
				"type": "unocc",
				"energy": -0.01205,
				"method": "rhf"
			},
			{
				"type": "unocc",
				"energy": -0.00398,
				"method": "rhf"
			}
		],
		"cosmo_sigma_profile": { 
			"-0.025": 0.0,
			"-0.024": 0.0,
			"-0.023": 0.0,
			"-0.022": 0.0,
			"-0.021": 0.0,
			"-0.02": 0.0,
			"-0.019": 0.0,
			"-0.018": 0.0,
			"-0.017": 0.0,
			"-0.016": 0.0,
			"-0.015": 0.0,
			"-0.014": 0.0,
			"-0.013": 0.0,
			"-0.012": 0.0,
			"-0.011": 0.0,
			"-0.01": 0.0,
			"-0.009": 0.0,
			"-0.008": 1.37272214599,
			"-0.007": 6.45789841669,
			"-0.006": 13.7045083694,
			"-0.005": 27.373058267,
			"-0.004": 34.1085106592,
			"-0.003": 35.4426067197,
			"-0.002": 39.1876581717,
			"-0.001": 45.3216307458,
			"0.0": 44.576857463,
			"0.001": 31.2944778887,
			"0.002": 31.0163410188,
			"0.003": 29.8633281864,
			"0.004": 21.8523858887,
			"0.005": 8.49287804144,
			"0.006": 5.95249250826,
			"0.007": 5.1471541217,
			"0.008": 5.19771618571,
			"0.009": 4.4349566974,
			"0.01": 4.08219998796,
			"0.011": 4.79238276414,
			"0.012": 5.67706305418,
			"0.013": 1.12583962713,
			"0.014": 0.0,
			"0.015": 0.0,
			"0.016": 0.0,
			"0.017": 0.0,
			"0.018": 0.0,
			"0.019": 0.0,
			"0.02": 0.0,
			"0.021": 0.0,
			"0.022": 0.0,
			"0.023": 0.0,
			"0.024": 0.0,
			"0.025": 0.0
		}
	}
}
