{
	 "smiles": "CN(C)C(=O)NC1CCCCCCC1", 
	 "Tm": 411.15, 
	 "num_atms": 36, 
	 "gaussian": { 
		 "optdone": 1, 
		 "sigma_profile": "yes", 
		 "theory": "DFT", 
		 "functional": "B3LYP", 
		 "basiset": "6-31G**", 
		 "properties": { 
			 "R2extent": 3883.7614, 
			 "electric_dipole_moment_norm": 3.61607655616, 
			 "electric_quadrupole_moment_norm": 10.5626764089, 
			 "total_energy": -617.180481169, 
			 "HOMO_LUMO_gap": 0.28348, 
			 "cosmo_polarized_energy": -11.57, 
			 "cosmo_cavitation_energy": 34.07, 
			 "cosmo_dispersion_energy": -24.7, 
			 "cosmo_repulsion_energy": 1.96, 
			 "cosmo_total_nonelectrostatic_energy": 11.34, 
			 "SMD_solvation_energy": 4.78 
		},
		"coords": [
			{
				"x": -2.9433871981,
				"y": 3.5273989995,
				"z": -0.4262318193,
				"element": "C" 
			},
			{
				"x": -1.8849892003,
				"y": 2.6044294514,
				"z": -0.8015624834,
				"element": "N" 
			},
			{
				"x": -1.3823518626,
				"y": 2.6760154579,
				"z": -2.1598513705,
				"element": "C" 
			},
			{
				"x": -1.5445068048,
				"y": 1.5954292729,
				"z": 0.0876555622,
				"element": "C" 
			},
			{
				"x": -1.9602637386,
				"y": 1.5695924526,
				"z": 1.2470624807,
				"element": "O" 
			},
			{
				"x": -0.6759864462,
				"y": 0.6351342302,
				"z": -0.395306455,
				"element": "N" 
			},
			{
				"x": -0.3201695722,
				"y": -0.5181503972,
				"z": 0.4476825597,
				"element": "C" 
			},
			{
				"x": -0.079961881,
				"y": -1.7509403029,
				"z": -0.4466420215,
				"element": "C" 
			},
			{
				"x": 1.1554156739,
				"y": -1.795679067,
				"z": -1.3764550004,
				"element": "C" 
			},
			{
				"x": 2.5378223974,
				"y": -1.417513484,
				"z": -0.8067275079,
				"element": "C" 
			},
			{
				"x": 3.066045561,
				"y": -2.187574872,
				"z": 0.424620671,
				"element": "C" 
			},
			{
				"x": 2.1278060987,
				"y": -2.4148625099,
				"z": 1.6281441045,
				"element": "C" 
			},
			{
				"x": 1.4679555778,
				"y": -1.1877000676,
				"z": 2.2968930062,
				"element": "C" 
			},
			{
				"x": 0.8132848579,
				"y": -0.104469588,
				"z": 1.4172529777,
				"element": "C" 
			},
			{
				"x": -3.8513196507,
				"y": 3.3684050517,
				"z": -1.0255995241,
				"element": "H" 
			},
			{
				"x": -3.1769956317,
				"y": 3.3632634827,
				"z": 0.6244489059,
				"element": "H" 
			},
			{
				"x": -2.6159959743,
				"y": 4.5648282648,
				"z": -0.5675298549,
				"element": "H" 
			},
			{
				"x": -1.932468723,
				"y": 2.031915544,
				"z": -2.8653610525,
				"element": "H" 
			},
			{
				"x": -0.3210509282,
				"y": 2.4121351536,
				"z": -2.1947457466,
				"element": "H" 
			},
			{
				"x": -1.4713371719,
				"y": 3.7056549892,
				"z": -2.5179945374,
				"element": "H" 
			},
			{
				"x": -0.6107423042,
				"y": 0.499985585,
				"z": -1.3917917017,
				"element": "H" 
			},
			{
				"x": -1.2004306354,
				"y": -0.7448671236,
				"z": 1.0619959933,
				"element": "H" 
			},
			{
				"x": -0.9728994869,
				"y": -1.867870244,
				"z": -1.0769308328,
				"element": "H" 
			},
			{
				"x": -0.0798817639,
				"y": -2.6285910228,
				"z": 0.2014823129,
				"element": "H" 
			},
			{
				"x": 1.203291407,
				"y": -2.8104990479,
				"z": -1.7949545564,
				"element": "H" 
			},
			{
				"x": 0.9789913456,
				"y": -1.1409076031,
				"z": -2.2423173834,
				"element": "H" 
			},
			{
				"x": 2.5537678992,
				"y": -0.3439114888,
				"z": -0.6040014102,
				"element": "H" 
			},
			{
				"x": 3.2675320268,
				"y": -1.5627131928,
				"z": -1.6147614645,
				"element": "H" 
			},
			{
				"x": 3.4048598508,
				"y": -3.1795221783,
				"z": 0.0951454018,
				"element": "H" 
			},
			{
				"x": 3.9709886822,
				"y": -1.6684364777,
				"z": 0.7694871923,
				"element": "H" 
			},
			{
				"x": 1.3596943322,
				"y": -3.1404263361,
				"z": 1.345278397,
				"element": "H" 
			},
			{
				"x": 2.7162213547,
				"y": -2.9254834019,
				"z": 2.4022512132,
				"element": "H" 
			},
			{
				"x": 2.2275104936,
				"y": -0.6744904594,
				"z": 2.9018367441,
				"element": "H" 
			},
			{
				"x": 0.7281745228,
				"y": -1.5628181517,
				"z": 3.0174696425,
				"element": "H" 
			},
			{
				"x": 1.5808926464,
				"y": 0.4282635507,
				"z": 0.8516899056,
				"element": "H" 
			},
			{
				"x": 0.3703842459,
				"y": 0.6438755304,
				"z": 2.0832676519,
				"element": "H" 
			}
		],
		 "valence_orbital": [ 
			{
				"type": "occ",
				"energy": -0.29462,
				"method": "rhf"
			},
			{
				"type": "occ",
				"energy": -0.28688,
				"method": "rhf"
			},
			{
				"type": "occ",
				"energy": -0.24436,
				"method": "rhf"
			},
			{
				"type": "occ",
				"energy": -0.2363,
				"method": "rhf"
			},
			{
				"type": "occ",
				"energy": -0.22336,
				"method": "rhf"
			},
			{
				"type": "unocc",
				"energy": 0.06012,
				"method": "rhf"
			},
			{
				"type": "unocc",
				"energy": 0.06951,
				"method": "rhf"
			},
			{
				"type": "unocc",
				"energy": 0.08357,
				"method": "rhf"
			},
			{
				"type": "unocc",
				"energy": 0.10515,
				"method": "rhf"
			},
			{
				"type": "unocc",
				"energy": 0.11147,
				"method": "rhf"
			}
		],
		"cosmo_sigma_profile": { 
			"-0.025": 0.0,
			"-0.024": 0.0,
			"-0.023": 0.0,
			"-0.022": 0.0,
			"-0.021": 0.0,
			"-0.02": 0.0,
			"-0.019": 0.0,
			"-0.018": 0.0,
			"-0.017": 0.0,
			"-0.016": 0.0,
			"-0.015": 0.0,
			"-0.014": 0.0,
			"-0.013": 0.0,
			"-0.012": 0.0,
			"-0.011": 0.136212761781,
			"-0.01": 1.14586747786,
			"-0.009": 1.73048092299,
			"-0.008": 1.83198108871,
			"-0.007": 2.47960749243,
			"-0.006": 2.89586670316,
			"-0.005": 7.29070643103,
			"-0.004": 14.1519472111,
			"-0.003": 20.1588318936,
			"-0.002": 39.3058479787,
			"-0.001": 46.1704197907,
			"0.0": 47.259699025,
			"0.001": 30.6051567906,
			"0.002": 10.8082104929,
			"0.003": 4.68177989689,
			"0.004": 5.21160442286,
			"0.005": 3.53912081756,
			"0.006": 3.1592900135,
			"0.007": 2.31415722596,
			"0.008": 1.91692548468,
			"0.009": 1.88558294525,
			"0.01": 1.9703055347,
			"0.011": 0.87560269755,
			"0.012": 1.26106571486,
			"0.013": 2.05488787474,
			"0.014": 2.13575096805,
			"0.015": 4.54604831841,
			"0.016": 0.866266631473,
			"0.017": 0.0,
			"0.018": 0.0,
			"0.019": 0.0,
			"0.02": 0.0,
			"0.021": 0.0,
			"0.022": 0.0,
			"0.023": 0.0,
			"0.024": 0.0,
			"0.025": 0.0
		}
	}
}
