{
	 "smiles": "OCCCCCCCCO", 
	 "Tm": 334.65, 
	 "num_atms": 28, 
	 "gaussian": { 
		 "optdone": 1, 
		 "sigma_profile": "yes", 
		 "theory": "DFT", 
		 "functional": "B3LYP", 
		 "basiset": "6-31G**", 
		 "properties": { 
			 "R2extent": 2987.5617, 
			 "electric_dipole_moment_norm": 0.635852357077, 
			 "electric_quadrupole_moment_norm": 17.0646710736, 
			 "total_energy": -466.137634908, 
			 "HOMO_LUMO_gap": 0.32075, 
			 "cosmo_polarized_energy": -11.08, 
			 "cosmo_cavitation_energy": 28.77, 
			 "cosmo_dispersion_energy": -20.57, 
			 "cosmo_repulsion_energy": 1.72, 
			 "cosmo_total_nonelectrostatic_energy": 9.92, 
			 "SMD_solvation_energy": 4.21 
		},
		"coords": [
			{
				"x": -1.6411736657,
				"y": -2.3276832676,
				"z": -3.2738928482,
				"element": "O" 
			},
			{
				"x": -1.6499133599,
				"y": -0.9115861363,
				"z": -3.1273600291,
				"element": "C" 
			},
			{
				"x": -0.8238813823,
				"y": -0.4197610364,
				"z": -1.934326473,
				"element": "C" 
			},
			{
				"x": -1.3100916132,
				"y": -0.9919547243,
				"z": -0.5963939792,
				"element": "C" 
			},
			{
				"x": -0.4258323364,
				"y": -0.7001831077,
				"z": 0.6284390565,
				"element": "C" 
			},
			{
				"x": -0.3163187629,
				"y": 0.7869911504,
				"z": 1.0383182641,
				"element": "C" 
			},
			{
				"x": 0.861299278,
				"y": 1.5733900355,
				"z": 0.4268926006,
				"element": "C" 
			},
			{
				"x": 2.2609319718,
				"y": 1.1755372244,
				"z": 0.9306070316,
				"element": "C" 
			},
			{
				"x": 2.5242956609,
				"y": 1.4760857806,
				"z": 2.4106701377,
				"element": "C" 
			},
			{
				"x": 2.4441306848,
				"y": 2.862054465,
				"z": 2.7262178591,
				"element": "O" 
			},
			{
				"x": -0.72978246,
				"y": -2.5973132383,
				"z": -3.4479694062,
				"element": "H" 
			},
			{
				"x": -1.3058339523,
				"y": -0.4162657343,
				"z": -4.0493876534,
				"element": "H" 
			},
			{
				"x": -2.7031073976,
				"y": -0.6409392779,
				"z": -2.9905045273,
				"element": "H" 
			},
			{
				"x": 0.2307020761,
				"y": -0.6930081865,
				"z": -2.0956262601,
				"element": "H" 
			},
			{
				"x": -0.8563489114,
				"y": 0.6773958445,
				"z": -1.9269876111,
				"element": "H" 
			},
			{
				"x": -2.3255175731,
				"y": -0.6178869706,
				"z": -0.4004712314,
				"element": "H" 
			},
			{
				"x": -1.4068660994,
				"y": -2.0775325102,
				"z": -0.7131253896,
				"element": "H" 
			},
			{
				"x": 0.5761977032,
				"y": -1.1179026223,
				"z": 0.4603235241,
				"element": "H" 
			},
			{
				"x": -0.8401685904,
				"y": -1.2660682413,
				"z": 1.4719046741,
				"element": "H" 
			},
			{
				"x": -1.2544507071,
				"y": 1.2953100414,
				"z": 0.7772273334,
				"element": "H" 
			},
			{
				"x": -0.249981357,
				"y": 0.8488966446,
				"z": 2.1322778419,
				"element": "H" 
			},
			{
				"x": 0.7150184538,
				"y": 2.6447885871,
				"z": 0.6238634493,
				"element": "H" 
			},
			{
				"x": 0.8443913424,
				"y": 1.477354372,
				"z": -0.6641100705,
				"element": "H" 
			},
			{
				"x": 2.4371889249,
				"y": 0.1049838435,
				"z": 0.7602049899,
				"element": "H" 
			},
			{
				"x": 3.0119822759,
				"y": 1.7128631625,
				"z": 0.338935735,
				"element": "H" 
			},
			{
				"x": 3.5463136725,
				"y": 1.1759406186,
				"z": 2.66444673,
				"element": "H" 
			},
			{
				"x": 1.8519672771,
				"y": 0.8853522838,
				"z": 3.0528308083,
				"element": "H" 
			},
			{
				"x": 1.5186488471,
				"y": 3.1278409997,
				"z": 2.6626954436,
				"element": "H" 
			}
		],
		 "valence_orbital": [ 
			{
				"type": "occ",
				"energy": -0.31668,
				"method": "rhf"
			},
			{
				"type": "occ",
				"energy": -0.3124,
				"method": "rhf"
			},
			{
				"type": "occ",
				"energy": -0.30541,
				"method": "rhf"
			},
			{
				"type": "occ",
				"energy": -0.2652,
				"method": "rhf"
			},
			{
				"type": "occ",
				"energy": -0.26113,
				"method": "rhf"
			},
			{
				"type": "unocc",
				"energy": 0.05962,
				"method": "rhf"
			},
			{
				"type": "unocc",
				"energy": 0.07508,
				"method": "rhf"
			},
			{
				"type": "unocc",
				"energy": 0.0997,
				"method": "rhf"
			},
			{
				"type": "unocc",
				"energy": 0.10507,
				"method": "rhf"
			},
			{
				"type": "unocc",
				"energy": 0.10829,
				"method": "rhf"
			}
		],
		"cosmo_sigma_profile": { 
			"-0.025": 0.0,
			"-0.024": 0.0,
			"-0.023": 0.0,
			"-0.022": 0.0,
			"-0.021": 0.0,
			"-0.02": 0.0,
			"-0.019": 0.0,
			"-0.018": 0.0,
			"-0.017": 0.0,
			"-0.016": 0.0,
			"-0.015": 0.623870683852,
			"-0.014": 1.54184813947,
			"-0.013": 1.7247841325,
			"-0.012": 1.78104831007,
			"-0.011": 1.93166607194,
			"-0.01": 2.15871559322,
			"-0.009": 1.63176603471,
			"-0.008": 2.47995456976,
			"-0.007": 1.66844370725,
			"-0.006": 2.45928660492,
			"-0.005": 3.17723053454,
			"-0.004": 5.70452691175,
			"-0.003": 18.5125734549,
			"-0.002": 33.5986187861,
			"-0.001": 40.2418813042,
			"0.0": 33.2143299653,
			"0.001": 22.8627744337,
			"0.002": 8.01815515405,
			"0.003": 2.99557769111,
			"0.004": 3.34522454421,
			"0.005": 2.27862624565,
			"0.006": 3.21758079038,
			"0.007": 2.33664169371,
			"0.008": 2.33585804527,
			"0.009": 2.29169868197,
			"0.01": 2.60477178736,
			"0.011": 2.52097306766,
			"0.012": 2.56957890609,
			"0.013": 3.39433423056,
			"0.014": 3.91112693095,
			"0.015": 3.18942429279,
			"0.016": 0.0,
			"0.017": 0.0,
			"0.018": 0.0,
			"0.019": 0.0,
			"0.02": 0.0,
			"0.021": 0.0,
			"0.022": 0.0,
			"0.023": 0.0,
			"0.024": 0.0,
			"0.025": 0.0
		}
	}
}
