{
	 "smiles": "O=CCCCC=O", 
	 "Tm": 267.15, 
	 "num_atms": 15, 
	 "gaussian": { 
		 "optdone": 1, 
		 "sigma_profile": "yes", 
		 "theory": "DFT", 
		 "functional": "B3LYP", 
		 "basiset": "6-31G**", 
		 "properties": { 
			 "R2extent": 915.301, 
			 "electric_dipole_moment_norm": 3.94899529501, 
			 "electric_quadrupole_moment_norm": 9.0415581489, 
			 "total_energy": -345.775437746, 
			 "HOMO_LUMO_gap": 0.21514, 
			 "cosmo_polarized_energy": -10.77, 
			 "cosmo_cavitation_energy": 18.64, 
			 "cosmo_dispersion_energy": -13.32, 
			 "cosmo_repulsion_energy": 1.16, 
			 "cosmo_total_nonelectrostatic_energy": 6.48, 
			 "SMD_solvation_energy": 4.86 
		},
		"coords": [
			{
				"x": 2.3115587222,
				"y": -0.3696749067,
				"z": 0.9922745722,
				"element": "O" 
			},
			{
				"x": 1.4183923338,
				"y": -1.1895198127,
				"z": 0.9795176275,
				"element": "C" 
			},
			{
				"x": -0.0354843375,
				"y": -0.8782757744,
				"z": 1.2586914188,
				"element": "C" 
			},
			{
				"x": -0.348075534,
				"y": 0.6106187788,
				"z": 1.4508334218,
				"element": "C" 
			},
			{
				"x": -0.5157765788,
				"y": 1.3946004206,
				"z": 0.132299552,
				"element": "C" 
			},
			{
				"x": 0.7498537032,
				"y": 1.514533257,
				"z": -0.6940165714,
				"element": "C" 
			},
			{
				"x": 0.8498973765,
				"y": 1.1145126822,
				"z": -1.8337751425,
				"element": "O" 
			},
			{
				"x": 1.6366695151,
				"y": -2.2614814538,
				"z": 0.7762266888,
				"element": "H" 
			},
			{
				"x": -0.6395469955,
				"y": -1.3229514023,
				"z": 0.4544358457,
				"element": "H" 
			},
			{
				"x": -0.2987970225,
				"y": -1.4531465299,
				"z": 2.1599092716,
				"element": "H" 
			},
			{
				"x": -1.2771004994,
				"y": 0.7070787799,
				"z": 2.0218913415,
				"element": "H" 
			},
			{
				"x": 0.4454918722,
				"y": 1.0648470054,
				"z": 2.0543658,
				"element": "H" 
			},
			{
				"x": -1.2877248048,
				"y": 0.9417164397,
				"z": -0.4991518496,
				"element": "H" 
			},
			{
				"x": -0.8373091173,
				"y": 2.4170760718,
				"z": 0.3778409949,
				"element": "H" 
			},
			{
				"x": 1.5993513667,
				"y": 2.0172664444,
				"z": -0.1848429715,
				"element": "H" 
			}
		],
		 "valence_orbital": [ 
			{
				"type": "occ",
				"energy": -0.37359,
				"method": "rhf"
			},
			{
				"type": "occ",
				"energy": -0.35547,
				"method": "rhf"
			},
			{
				"type": "occ",
				"energy": -0.34237,
				"method": "rhf"
			},
			{
				"type": "occ",
				"energy": -0.26367,
				"method": "rhf"
			},
			{
				"type": "occ",
				"energy": -0.2445,
				"method": "rhf"
			},
			{
				"type": "unocc",
				"energy": -0.02936,
				"method": "rhf"
			},
			{
				"type": "unocc",
				"energy": -0.01589,
				"method": "rhf"
			},
			{
				"type": "unocc",
				"energy": 0.08497,
				"method": "rhf"
			},
			{
				"type": "unocc",
				"energy": 0.1092,
				"method": "rhf"
			},
			{
				"type": "unocc",
				"energy": 0.12436,
				"method": "rhf"
			}
		],
		"cosmo_sigma_profile": { 
			"-0.025": 0.0,
			"-0.024": 0.0,
			"-0.023": 0.0,
			"-0.022": 0.0,
			"-0.021": 0.0,
			"-0.02": 0.0,
			"-0.019": 0.0,
			"-0.018": 0.0,
			"-0.017": 0.0,
			"-0.016": 0.0,
			"-0.015": 0.0,
			"-0.014": 0.0,
			"-0.013": 0.0,
			"-0.012": 0.0,
			"-0.011": 0.0,
			"-0.01": 0.0,
			"-0.009": 0.0,
			"-0.008": 0.0,
			"-0.007": 3.89383389979,
			"-0.006": 17.600677985,
			"-0.005": 15.6972618984,
			"-0.004": 17.4020037574,
			"-0.003": 17.2311762524,
			"-0.002": 13.105882155,
			"-0.001": 8.13874248984,
			"0.0": 3.95199019072,
			"0.001": 3.00060415811,
			"0.002": 3.26758605438,
			"0.003": 3.10148355028,
			"0.004": 3.41719687188,
			"0.005": 3.62203921677,
			"0.006": 3.82449406172,
			"0.007": 2.75953478477,
			"0.008": 3.39000358252,
			"0.009": 3.65543672449,
			"0.01": 4.77930773969,
			"0.011": 6.76431719207,
			"0.012": 5.60837176396,
			"0.013": 1.85482801081,
			"0.014": 0.0,
			"0.015": 0.0,
			"0.016": 0.0,
			"0.017": 0.0,
			"0.018": 0.0,
			"0.019": 0.0,
			"0.02": 0.0,
			"0.021": 0.0,
			"0.022": 0.0,
			"0.023": 0.0,
			"0.024": 0.0,
			"0.025": 0.0
		}
	}
}
