{
	 "smiles": "NC1=CC=C(C=C1)N1C=CC=C1", 
	 "Tm": 354.15, 
	 "num_atms": 22, 
	 "gaussian": { 
		 "optdone": 1, 
		 "sigma_profile": "yes", 
		 "theory": "DFT", 
		 "functional": "B3LYP", 
		 "basiset": "6-31G**", 
		 "properties": { 
			 "R2extent": 2706.5184, 
			 "electric_dipole_moment_norm": 3.45865528927, 
			 "electric_quadrupole_moment_norm": 10.4665690424, 
			 "total_energy": -496.581200117, 
			 "HOMO_LUMO_gap": 0.18777, 
			 "cosmo_polarized_energy": -10.55, 
			 "cosmo_cavitation_energy": 25.79, 
			 "cosmo_dispersion_energy": -19.07, 
			 "cosmo_repulsion_energy": 1.5, 
			 "cosmo_total_nonelectrostatic_energy": 8.22, 
			 "SMD_solvation_energy": 5.02 
		},
		"coords": [
			{
				"x": -2.3685343451,
				"y": -0.6362453753,
				"z": -2.4028518524,
				"element": "N" 
			},
			{
				"x": -1.32409846,
				"y": -0.2525079118,
				"z": -1.5582397436,
				"element": "C" 
			},
			{
				"x": -1.3986352219,
				"y": -0.4737305757,
				"z": -0.1723414622,
				"element": "C" 
			},
			{
				"x": -0.3307481341,
				"y": -0.1554588306,
				"z": 0.6604593479,
				"element": "C" 
			},
			{
				"x": 0.835381657,
				"y": 0.4146215044,
				"z": 0.1370958094,
				"element": "C" 
			},
			{
				"x": 0.9134422862,
				"y": 0.6480299684,
				"z": -1.2406725656,
				"element": "C" 
			},
			{
				"x": -0.1453093287,
				"y": 0.3097233574,
				"z": -2.0772441386,
				"element": "C" 
			},
			{
				"x": 1.9198924275,
				"y": 0.7525903251,
				"z": 0.9894658525,
				"element": "N" 
			},
			{
				"x": 3.2599835002,
				"y": 0.5637036408,
				"z": 0.7043901257,
				"element": "C" 
			},
			{
				"x": 3.9992084929,
				"y": 1.0151248974,
				"z": 1.7744410455,
				"element": "C" 
			},
			{
				"x": 3.0813184468,
				"y": 1.5012776673,
				"z": 2.7499681156,
				"element": "C" 
			},
			{
				"x": 1.8132474552,
				"y": 1.3263216437,
				"z": 2.243391527,
				"element": "C" 
			},
			{
				"x": -3.2786340382,
				"y": -0.6814078874,
				"z": -1.96541318,
				"element": "H" 
			},
			{
				"x": -2.4035990685,
				"y": -0.1501127266,
				"z": -3.2883988088,
				"element": "H" 
			},
			{
				"x": -2.2945144984,
				"y": -0.9203335639,
				"z": 0.251663417,
				"element": "H" 
			},
			{
				"x": -0.3939602042,
				"y": -0.3641964899,
				"z": 1.7236366264,
				"element": "H" 
			},
			{
				"x": 1.8010384813,
				"y": 1.1155483879,
				"z": -1.6548104358,
				"element": "H" 
			},
			{
				"x": -0.0647645882,
				"y": 0.4950267119,
				"z": -3.1454625335,
				"element": "H" 
			},
			{
				"x": 3.5607967787,
				"y": 0.0848435527,
				"z": -0.2150257259,
				"element": "H" 
			},
			{
				"x": 5.0772292243,
				"y": 0.9886919821,
				"z": 1.8521629947,
				"element": "H" 
			},
			{
				"x": 3.3226096877,
				"y": 1.9388950111,
				"z": 3.7086945196,
				"element": "H" 
			},
			{
				"x": 0.8465494496,
				"y": 1.5966947109,
				"z": 2.6402910652,
				"element": "H" 
			}
		],
		 "valence_orbital": [ 
			{
				"type": "occ",
				"energy": -0.3137,
				"method": "rhf"
			},
			{
				"type": "occ",
				"energy": -0.25409,
				"method": "rhf"
			},
			{
				"type": "occ",
				"energy": -0.24156,
				"method": "rhf"
			},
			{
				"type": "occ",
				"energy": -0.20046,
				"method": "rhf"
			},
			{
				"type": "occ",
				"energy": -0.19327,
				"method": "rhf"
			},
			{
				"type": "unocc",
				"energy": -0.0055,
				"method": "rhf"
			},
			{
				"type": "unocc",
				"energy": 0.00478,
				"method": "rhf"
			},
			{
				"type": "unocc",
				"energy": 0.05828,
				"method": "rhf"
			},
			{
				"type": "unocc",
				"energy": 0.07734,
				"method": "rhf"
			},
			{
				"type": "unocc",
				"energy": 0.08966,
				"method": "rhf"
			}
		],
		"cosmo_sigma_profile": { 
			"-0.025": 0.0,
			"-0.024": 0.0,
			"-0.023": 0.0,
			"-0.022": 0.0,
			"-0.021": 0.0,
			"-0.02": 0.0,
			"-0.019": 0.0,
			"-0.018": 0.0,
			"-0.017": 0.0,
			"-0.016": 0.0,
			"-0.015": 0.0,
			"-0.014": 0.0,
			"-0.013": 0.366110455723,
			"-0.012": 2.34354635186,
			"-0.011": 3.02846632016,
			"-0.01": 3.04473439858,
			"-0.009": 3.05329511125,
			"-0.008": 3.13789857648,
			"-0.007": 5.12831612829,
			"-0.006": 11.2553337072,
			"-0.005": 15.9918391958,
			"-0.004": 13.0363782195,
			"-0.003": 13.3118645195,
			"-0.002": 12.4003234924,
			"-0.001": 11.9730219549,
			"0.0": 10.7776154629,
			"0.001": 10.9028911029,
			"0.002": 11.2142265073,
			"0.003": 13.1359366743,
			"0.004": 12.9436839174,
			"0.005": 14.3002035808,
			"0.006": 13.8746512918,
			"0.007": 6.37604668994,
			"0.008": 6.51729101342,
			"0.009": 4.16704621477,
			"0.01": 0.604183270069,
			"0.011": 0.719493556482,
			"0.012": 0.852381340204,
			"0.013": 0.844088629251,
			"0.014": 0.448204629454,
			"0.015": 0.169393551377,
			"0.016": 0.0,
			"0.017": 0.0,
			"0.018": 0.0,
			"0.019": 0.0,
			"0.02": 0.0,
			"0.021": 0.0,
			"0.022": 0.0,
			"0.023": 0.0,
			"0.024": 0.0,
			"0.025": 0.0
		}
	}
}
