{
	 "smiles": "COC(=O)CNC1=C(C=C(C)C=N1)[N+]([O-])=O", 
	 "Tm": 381.15, 
	 "num_atms": 27, 
	 "gaussian": { 
		 "optdone": 1, 
		 "sigma_profile": "yes", 
		 "theory": "DFT", 
		 "functional": "B3LYP", 
		 "basiset": "6-31G**", 
		 "properties": { 
			 "R2extent": 5697.7135, 
			 "electric_dipole_moment_norm": 2.68921949457, 
			 "electric_quadrupole_moment_norm": 33.2691810633, 
			 "total_energy": -814.644382945, 
			 "HOMO_LUMO_gap": 0.14397, 
			 "cosmo_polarized_energy": -13.51, 
			 "cosmo_cavitation_energy": 32.25, 
			 "cosmo_dispersion_energy": -23.41, 
			 "cosmo_repulsion_energy": 1.84, 
			 "cosmo_total_nonelectrostatic_energy": 10.68, 
			 "SMD_solvation_energy": 7.12 
		},
		"coords": [
			{
				"x": -3.8828653979,
				"y": 1.2897293751,
				"z": -1.1822794727,
				"element": "C" 
			},
			{
				"x": -2.7723069283,
				"y": 0.3723960903,
				"z": -1.213295382,
				"element": "O" 
			},
			{
				"x": -1.5638237216,
				"y": 0.9316812119,
				"z": -1.3658187944,
				"element": "C" 
			},
			{
				"x": -1.3628927953,
				"y": 2.1232920848,
				"z": -1.4731781199,
				"element": "O" 
			},
			{
				"x": -0.4804550347,
				"y": -0.1345957208,
				"z": -1.3995142933,
				"element": "C" 
			},
			{
				"x": 0.7975600242,
				"y": 0.5172714259,
				"z": -1.5624458391,
				"element": "N" 
			},
			{
				"x": 2.0092904486,
				"y": 0.0947423915,
				"z": -1.1049358178,
				"element": "C" 
			},
			{
				"x": 2.4172981142,
				"y": -1.2437372463,
				"z": -0.8522379746,
				"element": "C" 
			},
			{
				"x": 3.6342531246,
				"y": -1.4807529949,
				"z": -0.2017988689,
				"element": "C" 
			},
			{
				"x": 4.4849084008,
				"y": -0.4316925371,
				"z": 0.1141560802,
				"element": "C" 
			},
			{
				"x": 5.8009454578,
				"y": -0.6307524413,
				"z": 0.8224280921,
				"element": "C" 
			},
			{
				"x": 4.0486301068,
				"y": 0.8431037644,
				"z": -0.2946521579,
				"element": "C" 
			},
			{
				"x": 2.876072855,
				"y": 1.1028339805,
				"z": -0.8517725705,
				"element": "N" 
			},
			{
				"x": 1.7018495635,
				"y": -2.414171976,
				"z": -1.3339442341,
				"element": "N" 
			},
			{
				"x": 1.9012807429,
				"y": -3.4904581927,
				"z": -0.7637600084,
				"element": "O" 
			},
			{
				"x": 0.9724123965,
				"y": -2.2820128183,
				"z": -2.3242227811,
				"element": "O" 
			},
			{
				"x": -4.7692517445,
				"y": 0.6698750716,
				"z": -1.053323764,
				"element": "H" 
			},
			{
				"x": -3.7769824967,
				"y": 1.9895840564,
				"z": -0.350151158,
				"element": "H" 
			},
			{
				"x": -3.9384118891,
				"y": 1.8525385689,
				"z": -2.1168780758,
				"element": "H" 
			},
			{
				"x": -0.6996494951,
				"y": -0.8405308967,
				"z": -2.2072562354,
				"element": "H" 
			},
			{
				"x": -0.5342943707,
				"y": -0.7130057607,
				"z": -0.4665571285,
				"element": "H" 
			},
			{
				"x": 0.7340546571,
				"y": 1.5306422889,
				"z": -1.6070610263,
				"element": "H" 
			},
			{
				"x": 3.8989770346,
				"y": -2.5109619655,
				"z": 0.0086769841,
				"element": "H" 
			},
			{
				"x": 6.2155995673,
				"y": -1.6226699514,
				"z": 0.6213468974,
				"element": "H" 
			},
			{
				"x": 5.6899936209,
				"y": -0.5367708053,
				"z": 1.9097618706,
				"element": "H" 
			},
			{
				"x": 6.5386802546,
				"y": 0.1131682768,
				"z": 0.506135823,
				"element": "H" 
			},
			{
				"x": 4.7002275042,
				"y": 1.7054547199,
				"z": -0.1511220447,
				"element": "H" 
			}
		],
		 "valence_orbital": [ 
			{
				"type": "occ",
				"energy": -0.3022,
				"method": "rhf"
			},
			{
				"type": "occ",
				"energy": -0.29406,
				"method": "rhf"
			},
			{
				"type": "occ",
				"energy": -0.28088,
				"method": "rhf"
			},
			{
				"type": "occ",
				"energy": -0.27279,
				"method": "rhf"
			},
			{
				"type": "occ",
				"energy": -0.22515,
				"method": "rhf"
			},
			{
				"type": "unocc",
				"energy": -0.08118,
				"method": "rhf"
			},
			{
				"type": "unocc",
				"energy": -0.0254,
				"method": "rhf"
			},
			{
				"type": "unocc",
				"energy": -0.00573,
				"method": "rhf"
			},
			{
				"type": "unocc",
				"energy": 0.00108,
				"method": "rhf"
			},
			{
				"type": "unocc",
				"energy": 0.09577,
				"method": "rhf"
			}
		],
		"cosmo_sigma_profile": { 
			"-0.025": 0.0,
			"-0.024": 0.0,
			"-0.023": 0.0,
			"-0.022": 0.0,
			"-0.021": 0.0,
			"-0.02": 0.0,
			"-0.019": 0.0,
			"-0.018": 0.0,
			"-0.017": 0.0,
			"-0.016": 0.0,
			"-0.015": 0.0,
			"-0.014": 0.0,
			"-0.013": 0.0,
			"-0.012": 0.0,
			"-0.011": 0.0,
			"-0.01": 0.136501553813,
			"-0.009": 1.33930003316,
			"-0.008": 4.3527755099,
			"-0.007": 9.70688075256,
			"-0.006": 15.4418958602,
			"-0.005": 21.088135536,
			"-0.004": 24.0486146008,
			"-0.003": 22.84835747,
			"-0.002": 21.1235371957,
			"-0.001": 21.2711344169,
			"0.0": 19.983459501,
			"0.001": 15.023669443,
			"0.002": 8.64924572426,
			"0.003": 8.39299101599,
			"0.004": 6.74266330852,
			"0.005": 6.32272484105,
			"0.006": 6.69185361678,
			"0.007": 10.0871688053,
			"0.008": 11.8197521278,
			"0.009": 6.76623462884,
			"0.01": 7.72873267203,
			"0.011": 5.128540135,
			"0.012": 0.97099450143,
			"0.013": 0.758724906031,
			"0.014": 0.0740413530232,
			"0.015": 0.0,
			"0.016": 0.0,
			"0.017": 0.0,
			"0.018": 0.0,
			"0.019": 0.0,
			"0.02": 0.0,
			"0.021": 0.0,
			"0.022": 0.0,
			"0.023": 0.0,
			"0.024": 0.0,
			"0.025": 0.0
		}
	}
}
