{
	 "smiles": "OC(=O)C1(O)C2=CC=CC=C2C2=CC=C(Cl)C=C12", 
	 "Tm": 425.15, 
	 "num_atms": 27, 
	 "gaussian": { 
		 "optdone": 1, 
		 "sigma_profile": "yes", 
		 "theory": "DFT", 
		 "functional": "B3LYP", 
		 "basiset": "6-31G**", 
		 "properties": { 
			 "R2extent": 6309.9187, 
			 "electric_dipole_moment_norm": 3.42413306984, 
			 "electric_quadrupole_moment_norm": 12.0929804292, 
			 "total_energy": -1224.79411838, 
			 "HOMO_LUMO_gap": 0.17668, 
			 "cosmo_polarized_energy": -13.81, 
			 "cosmo_cavitation_energy": 33.51, 
			 "cosmo_dispersion_energy": -23.78, 
			 "cosmo_repulsion_energy": 1.83, 
			 "cosmo_total_nonelectrostatic_energy": 11.56, 
			 "SMD_solvation_energy": 6.13 
		},
		"coords": [
			{
				"x": 3.0511863185,
				"y": 0.1634044541,
				"z": 0.7441503891,
				"element": "O" 
			},
			{
				"x": 2.5475835777,
				"y": 0.9865075269,
				"z": 1.6708899446,
				"element": "C" 
			},
			{
				"x": 3.148059567,
				"y": 1.3227664273,
				"z": 2.6732949578,
				"element": "O" 
			},
			{
				"x": 1.1192011406,
				"y": 1.4840573959,
				"z": 1.3734551298,
				"element": "C" 
			},
			{
				"x": 0.7509468007,
				"y": 2.3619716788,
				"z": 2.4089206585,
				"element": "O" 
			},
			{
				"x": 0.1732134794,
				"y": 0.2906557208,
				"z": 1.2064602919,
				"element": "C" 
			},
			{
				"x": -0.2303681695,
				"y": -0.6230885404,
				"z": 2.1682906597,
				"element": "C" 
			},
			{
				"x": -1.1074928848,
				"y": -1.6475344129,
				"z": 1.7903745911,
				"element": "C" 
			},
			{
				"x": -1.561169031,
				"y": -1.7420812587,
				"z": 0.4707740103,
				"element": "C" 
			},
			{
				"x": -1.1610322289,
				"y": -0.8123764335,
				"z": -0.4943338582,
				"element": "C" 
			},
			{
				"x": -0.2932302047,
				"y": 0.2126763418,
				"z": -0.1181912985,
				"element": "C" 
			},
			{
				"x": 0.253643513,
				"y": 1.3491815874,
				"z": -0.8770442038,
				"element": "C" 
			},
			{
				"x": 0.0721431611,
				"y": 1.7492781222,
				"z": -2.2005885943,
				"element": "C" 
			},
			{
				"x": 0.681977216,
				"y": 2.924485045,
				"z": -2.6479196981,
				"element": "C" 
			},
			{
				"x": 1.4572528856,
				"y": 3.68419743,
				"z": -1.768422029,
				"element": "C" 
			},
			{
				"x": 2.2000071601,
				"y": 5.169548497,
				"z": -2.3460313887,
				"element": "Cl" 
			},
			{
				"x": 1.6556288858,
				"y": 3.2968299954,
				"z": -0.4390368622,
				"element": "C" 
			},
			{
				"x": 1.0542177832,
				"y": 2.1218209754,
				"z": -0.0173391055,
				"element": "C" 
			},
			{
				"x": 3.943774905,
				"y": -0.0850465787,
				"z": 1.0387183451,
				"element": "H" 
			},
			{
				"x": 1.5026452504,
				"y": 2.3734626858,
				"z": 3.0274230856,
				"element": "H" 
			},
			{
				"x": 0.1169866162,
				"y": -0.5399198129,
				"z": 3.1942935033,
				"element": "H" 
			},
			{
				"x": -1.4409766735,
				"y": -2.3715443709,
				"z": 2.5278632322,
				"element": "H" 
			},
			{
				"x": -2.2398127983,
				"y": -2.5435090515,
				"z": 0.1933620195,
				"element": "H" 
			},
			{
				"x": -1.528908564,
				"y": -0.8879062602,
				"z": -1.5136843386,
				"element": "H" 
			},
			{
				"x": -0.5395571029,
				"y": 1.1677447029,
				"z": -2.8840174928,
				"element": "H" 
			},
			{
				"x": 0.5520678727,
				"y": 3.2578718369,
				"z": -3.6715290895,
				"element": "H" 
			},
			{
				"x": 2.2508115246,
				"y": 3.905846296,
				"z": 0.2328671409,
				"element": "H" 
			}
		],
		 "valence_orbital": [ 
			{
				"type": "occ",
				"energy": -0.28666,
				"method": "rhf"
			},
			{
				"type": "occ",
				"energy": -0.28019,
				"method": "rhf"
			},
			{
				"type": "occ",
				"energy": -0.26229,
				"method": "rhf"
			},
			{
				"type": "occ",
				"energy": -0.2552,
				"method": "rhf"
			},
			{
				"type": "occ",
				"energy": -0.22187,
				"method": "rhf"
			},
			{
				"type": "unocc",
				"energy": -0.04519,
				"method": "rhf"
			},
			{
				"type": "unocc",
				"energy": -0.03127,
				"method": "rhf"
			},
			{
				"type": "unocc",
				"energy": -0.02097,
				"method": "rhf"
			},
			{
				"type": "unocc",
				"energy": 0.00338,
				"method": "rhf"
			},
			{
				"type": "unocc",
				"energy": 0.0294,
				"method": "rhf"
			}
		],
		"cosmo_sigma_profile": { 
			"-0.025": 0.0,
			"-0.024": 0.0,
			"-0.023": 0.0,
			"-0.022": 0.0,
			"-0.021": 0.0,
			"-0.02": 0.293720844559,
			"-0.019": 0.941401114791,
			"-0.018": 0.98369803664,
			"-0.017": 1.35823032651,
			"-0.016": 0.759834364876,
			"-0.015": 0.259102433627,
			"-0.014": 0.118252401586,
			"-0.013": 0.937548675599,
			"-0.012": 1.41237185759,
			"-0.011": 1.10077421882,
			"-0.01": 0.662086638079,
			"-0.009": 1.51400461985,
			"-0.008": 3.27204423538,
			"-0.007": 10.2679437368,
			"-0.006": 17.0646586961,
			"-0.005": 15.8077269821,
			"-0.004": 17.4221659445,
			"-0.003": 13.7604763325,
			"-0.002": 13.1169973197,
			"-0.001": 14.1234894419,
			"0.0": 13.6013698876,
			"0.001": 20.6163001872,
			"0.002": 25.3264692042,
			"0.003": 26.7282664467,
			"0.004": 26.1577305221,
			"0.005": 15.9805330716,
			"0.006": 5.3445803849,
			"0.007": 4.96172868764,
			"0.008": 3.89975830176,
			"0.009": 4.10599257904,
			"0.01": 3.41427551522,
			"0.011": 2.85466533948,
			"0.012": 1.46644695208,
			"0.013": 1.41324787656,
			"0.014": 0.0240144843549,
			"0.015": 0.0,
			"0.016": 0.0,
			"0.017": 0.0,
			"0.018": 0.0,
			"0.019": 0.0,
			"0.02": 0.0,
			"0.021": 0.0,
			"0.022": 0.0,
			"0.023": 0.0,
			"0.024": 0.0,
			"0.025": 0.0
		}
	}
}
