{
	 "smiles": "NC1=CC(=O)CCC1", 
	 "Tm": 404.15, 
	 "num_atms": 17, 
	 "gaussian": { 
		 "optdone": 1, 
		 "sigma_profile": "yes", 
		 "theory": "DFT", 
		 "functional": "B3LYP", 
		 "basiset": "6-31G**", 
		 "properties": { 
			 "R2extent": 1309.3542, 
			 "electric_dipole_moment_norm": 5.88108510821, 
			 "electric_quadrupole_moment_norm": 13.4198915785, 
			 "total_energy": -364.040395694, 
			 "HOMO_LUMO_gap": 0.19701, 
			 "cosmo_polarized_energy": -16.56, 
			 "cosmo_cavitation_energy": 19.65, 
			 "cosmo_dispersion_energy": -14.92, 
			 "cosmo_repulsion_energy": 1.26, 
			 "cosmo_total_nonelectrostatic_energy": 6.0, 
			 "SMD_solvation_energy": 3.7 
		},
		"coords": [
			{
				"x": -0.441191752,
				"y": -0.9682838229,
				"z": 2.7821568378,
				"element": "N" 
			},
			{
				"x": -0.7522387653,
				"y": -0.4761298076,
				"z": 1.5407393593,
				"element": "C" 
			},
			{
				"x": -1.4284847113,
				"y": -1.2014988112,
				"z": 0.6057482748,
				"element": "C" 
			},
			{
				"x": -1.7570506789,
				"y": -0.6847582172,
				"z": -0.7157456632,
				"element": "C" 
			},
			{
				"x": -2.3503187284,
				"y": -1.3549212394,
				"z": -1.5567894033,
				"element": "O" 
			},
			{
				"x": -1.2886008971,
				"y": 0.7370317444,
				"z": -1.0393100746,
				"element": "C" 
			},
			{
				"x": -1.1793762633,
				"y": 1.6207819487,
				"z": 0.2070198756,
				"element": "C" 
			},
			{
				"x": -0.314818142,
				"y": 0.9477930922,
				"z": 1.2799973629,
				"element": "C" 
			},
			{
				"x": -0.5132096351,
				"y": -1.962302329,
				"z": 2.9402539835,
				"element": "H" 
			},
			{
				"x": 0.2485705077,
				"y": -0.487958377,
				"z": 3.3383635939,
				"element": "H" 
			},
			{
				"x": -1.7376564877,
				"y": -2.2233612059,
				"z": 0.8122660859,
				"element": "H" 
			},
			{
				"x": -1.975044916,
				"y": 1.1546158621,
				"z": -1.7810283998,
				"element": "H" 
			},
			{
				"x": -0.3063929146,
				"y": 0.6559984679,
				"z": -1.5281329605,
				"element": "H" 
			},
			{
				"x": -2.1810168177,
				"y": 1.7957788872,
				"z": 0.6181393927,
				"element": "H" 
			},
			{
				"x": -0.7625891645,
				"y": 2.6018855741,
				"z": -0.0456313728,
				"element": "H" 
			},
			{
				"x": -0.3516266717,
				"y": 1.5155981574,
				"z": 2.2181547937,
				"element": "H" 
			},
			{
				"x": 0.738846038,
				"y": 0.9374300764,
				"z": 0.9624983141,
				"element": "H" 
			}
		],
		 "valence_orbital": [ 
			{
				"type": "occ",
				"energy": -0.33895,
				"method": "rhf"
			},
			{
				"type": "occ",
				"energy": -0.33344,
				"method": "rhf"
			},
			{
				"type": "occ",
				"energy": -0.32216,
				"method": "rhf"
			},
			{
				"type": "occ",
				"energy": -0.21515,
				"method": "rhf"
			},
			{
				"type": "occ",
				"energy": -0.21392,
				"method": "rhf"
			},
			{
				"type": "unocc",
				"energy": -0.01691,
				"method": "rhf"
			},
			{
				"type": "unocc",
				"energy": 0.06357,
				"method": "rhf"
			},
			{
				"type": "unocc",
				"energy": 0.07597,
				"method": "rhf"
			},
			{
				"type": "unocc",
				"energy": 0.09817,
				"method": "rhf"
			},
			{
				"type": "unocc",
				"energy": 0.11405,
				"method": "rhf"
			}
		],
		"cosmo_sigma_profile": { 
			"-0.025": 0.0,
			"-0.024": 0.0,
			"-0.023": 0.0,
			"-0.022": 0.0,
			"-0.021": 0.0,
			"-0.02": 0.0,
			"-0.019": 0.0,
			"-0.018": 0.0,
			"-0.017": 0.0,
			"-0.016": 0.0,
			"-0.015": 0.0,
			"-0.014": 1.24951273408,
			"-0.013": 2.86700082276,
			"-0.012": 2.48258599659,
			"-0.011": 2.76560998076,
			"-0.01": 2.62792705202,
			"-0.009": 2.29166730355,
			"-0.008": 2.96290771134,
			"-0.007": 2.61315465539,
			"-0.006": 3.11957585466,
			"-0.005": 7.52897855735,
			"-0.004": 12.5702752783,
			"-0.003": 15.4740738576,
			"-0.002": 17.4093068381,
			"-0.001": 14.676274592,
			"0.0": 9.89286773727,
			"0.001": 5.21749293285,
			"0.002": 3.66653741216,
			"0.003": 4.20561154748,
			"0.004": 3.78558392039,
			"0.005": 6.09967039099,
			"0.006": 4.33176356313,
			"0.007": 2.76390190897,
			"0.008": 1.87367946634,
			"0.009": 2.03345229983,
			"0.01": 2.05226049855,
			"0.011": 1.45946318332,
			"0.012": 1.72917935563,
			"0.013": 2.59016562686,
			"0.014": 4.1971076383,
			"0.015": 4.82150338614,
			"0.016": 2.04786239078,
			"0.017": 0.0267794385,
			"0.018": 0.0,
			"0.019": 0.0,
			"0.02": 0.0,
			"0.021": 0.0,
			"0.022": 0.0,
			"0.023": 0.0,
			"0.024": 0.0,
			"0.025": 0.0
		}
	}
}
