{
	 "smiles": "CC1=C(SC(=N1)C1=CC=CC=C1)C(O)=O", 
	 "Tm": 487.15, 
	 "num_atms": 24, 
	 "gaussian": { 
		 "optdone": 1, 
		 "sigma_profile": "yes", 
		 "theory": "DFT", 
		 "functional": "B3LYP", 
		 "basiset": "6-31G**", 
		 "properties": { 
			 "R2extent": 4339.0824, 
			 "electric_dipole_moment_norm": 5.17438505428, 
			 "electric_quadrupole_moment_norm": 12.4444961328, 
			 "total_energy": -1027.99476871, 
			 "HOMO_LUMO_gap": 0.15357, 
			 "cosmo_polarized_energy": -13.72, 
			 "cosmo_cavitation_energy": 30.14, 
			 "cosmo_dispersion_energy": -22.77, 
			 "cosmo_repulsion_energy": 1.72, 
			 "cosmo_total_nonelectrostatic_energy": 9.08, 
			 "SMD_solvation_energy": 4.8 
		},
		"coords": [
			{
				"x": -2.1600474049,
				"y": 2.6260480154,
				"z": 1.269178081,
				"element": "C" 
			},
			{
				"x": -1.1406866876,
				"y": 1.6651473309,
				"z": 0.7329144811,
				"element": "C" 
			},
			{
				"x": 0.1585527277,
				"y": 1.973525491,
				"z": 0.3616378954,
				"element": "C" 
			},
			{
				"x": 0.9646752091,
				"y": 0.5256748381,
				"z": -0.2026086172,
				"element": "S" 
			},
			{
				"x": -0.5109372,
				"y": -0.3857292075,
				"z": 0.1050810305,
				"element": "C" 
			},
			{
				"x": -1.4853183273,
				"y": 0.3498991578,
				"z": 0.5803990863,
				"element": "N" 
			},
			{
				"x": -0.6185920163,
				"y": -1.8254421792,
				"z": -0.1517808409,
				"element": "C" 
			},
			{
				"x": -1.8370116542,
				"y": -2.4726236259,
				"z": 0.1237706823,
				"element": "C" 
			},
			{
				"x": -1.972763277,
				"y": -3.8378393406,
				"z": -0.1084125243,
				"element": "C" 
			},
			{
				"x": -0.9014127788,
				"y": -4.5773024466,
				"z": -0.6167039597,
				"element": "C" 
			},
			{
				"x": 0.3114842256,
				"y": -3.9416986835,
				"z": -0.8927954106,
				"element": "C" 
			},
			{
				"x": 0.4533945528,
				"y": -2.5759004446,
				"z": -0.6625726994,
				"element": "C" 
			},
			{
				"x": 0.7805421703,
				"y": 3.3093886891,
				"z": 0.4257294738,
				"element": "C" 
			},
			{
				"x": 2.0730967986,
				"y": 3.4293726145,
				"z": 0.0168185114,
				"element": "O" 
			},
			{
				"x": 0.1877901322,
				"y": 4.2892476588,
				"z": 0.8217937536,
				"element": "O" 
			},
			{
				"x": -1.8032892842,
				"y": 3.1045696971,
				"z": 2.1852902386,
				"element": "H" 
			},
			{
				"x": -3.0876792633,
				"y": 2.0879558433,
				"z": 1.4694653901,
				"element": "H" 
			},
			{
				"x": -2.3466847988,
				"y": 3.4359284915,
				"z": 0.5587022396,
				"element": "H" 
			},
			{
				"x": -2.6589910084,
				"y": -1.8857854365,
				"z": 0.5177678139,
				"element": "H" 
			},
			{
				"x": -2.9176450911,
				"y": -4.3276060445,
				"z": 0.1077522162,
				"element": "H" 
			},
			{
				"x": -1.0106054498,
				"y": -5.6426309448,
				"z": -0.7967707852,
				"element": "H" 
			},
			{
				"x": 1.1479087623,
				"y": -4.5102563634,
				"z": -1.2878771305,
				"element": "H" 
			},
			{
				"x": 1.4025751493,
				"y": -2.0943569979,
				"z": -0.8818582219,
				"element": "H" 
			},
			{
				"x": 2.4411445138,
				"y": 2.5845138877,
				"z": -0.2781207042,
				"element": "H" 
			}
		],
		 "valence_orbital": [ 
			{
				"type": "occ",
				"energy": -0.28818,
				"method": "rhf"
			},
			{
				"type": "occ",
				"energy": -0.28761,
				"method": "rhf"
			},
			{
				"type": "occ",
				"energy": -0.27658,
				"method": "rhf"
			},
			{
				"type": "occ",
				"energy": -0.26841,
				"method": "rhf"
			},
			{
				"type": "occ",
				"energy": -0.2354,
				"method": "rhf"
			},
			{
				"type": "unocc",
				"energy": -0.08183,
				"method": "rhf"
			},
			{
				"type": "unocc",
				"energy": -0.02106,
				"method": "rhf"
			},
			{
				"type": "unocc",
				"energy": -0.01515,
				"method": "rhf"
			},
			{
				"type": "unocc",
				"energy": -0.01471,
				"method": "rhf"
			},
			{
				"type": "unocc",
				"energy": 0.03722,
				"method": "rhf"
			}
		],
		"cosmo_sigma_profile": { 
			"-0.025": 0.0,
			"-0.024": 0.0,
			"-0.023": 0.0,
			"-0.022": 0.0,
			"-0.021": 0.0,
			"-0.02": 0.0,
			"-0.019": 0.0,
			"-0.018": 0.646934672305,
			"-0.017": 0.70313492912,
			"-0.016": 0.965321274804,
			"-0.015": 1.0240565742,
			"-0.014": 0.579968231337,
			"-0.013": 1.00741800629,
			"-0.012": 1.27563181242,
			"-0.011": 1.12467148829,
			"-0.01": 0.444626520871,
			"-0.009": 0.677718365084,
			"-0.008": 2.44536414281,
			"-0.007": 4.84452005022,
			"-0.006": 10.5126176197,
			"-0.005": 14.3669913174,
			"-0.004": 16.7921679694,
			"-0.003": 16.3092417788,
			"-0.002": 18.2878393392,
			"-0.001": 26.445479432,
			"0.0": 23.2243887704,
			"0.001": 17.8167267244,
			"0.002": 16.6965784827,
			"0.003": 15.2208459151,
			"0.004": 15.5332989888,
			"0.005": 5.51138097095,
			"0.006": 3.40331974903,
			"0.007": 4.5771687064,
			"0.008": 3.58973519355,
			"0.009": 4.1842891997,
			"0.01": 6.09406376834,
			"0.011": 4.25104696001,
			"0.012": 3.87584663616,
			"0.013": 1.48219273262,
			"0.014": 0.029111138613,
			"0.015": 0.0,
			"0.016": 0.0,
			"0.017": 0.0,
			"0.018": 0.0,
			"0.019": 0.0,
			"0.02": 0.0,
			"0.021": 0.0,
			"0.022": 0.0,
			"0.023": 0.0,
			"0.024": 0.0,
			"0.025": 0.0
		}
	}
}
