{
	 "smiles": "CCOC(=O)C1=C2C(=C(SC)S1)S(=O)(=O)N(C)C1=C2C=CC=C1", 
	 "Tm": 465.15, 
	 "num_atms": 38, 
	 "gaussian": { 
		 "optdone": 1, 
		 "sigma_profile": "yes", 
		 "theory": "DFT", 
		 "functional": "B3LYP", 
		 "basiset": "6-31G**", 
		 "properties": { 
			 "R2extent": 8706.3854, 
			 "electric_dipole_moment_norm": 6.40384900821, 
			 "electric_quadrupole_moment_norm": 18.8567125295, 
			 "total_energy": -2130.76629069, 
			 "HOMO_LUMO_gap": 0.15363, 
			 "cosmo_polarized_energy": -17.47, 
			 "cosmo_cavitation_energy": 45.01, 
			 "cosmo_dispersion_energy": -31.67, 
			 "cosmo_repulsion_energy": 2.31, 
			 "cosmo_total_nonelectrostatic_energy": 15.64, 
			 "SMD_solvation_energy": 7.22 
		},
		"coords": [
			{
				"x": -3.7074388264,
				"y": -2.9139051976,
				"z": -0.8774475128,
				"element": "C" 
			},
			{
				"x": -3.465054771,
				"y": -1.5201761084,
				"z": -1.4349669384,
				"element": "C" 
			},
			{
				"x": -2.2456156497,
				"y": -0.9436354357,
				"z": -0.8971297246,
				"element": "O" 
			},
			{
				"x": -1.102429464,
				"y": -1.2600017236,
				"z": -1.5314810905,
				"element": "C" 
			},
			{
				"x": -1.040169254,
				"y": -1.9971878723,
				"z": -2.5000654175,
				"element": "O" 
			},
			{
				"x": 0.1093040166,
				"y": -0.6861260902,
				"z": -0.9031041352,
				"element": "C" 
			},
			{
				"x": 0.34352846,
				"y": 0.2805739082,
				"z": 0.0738729591,
				"element": "C" 
			},
			{
				"x": 1.7335038062,
				"y": 0.2877240468,
				"z": 0.4432094984,
				"element": "C" 
			},
			{
				"x": 2.5357262303,
				"y": -0.5811263476,
				"z": -0.265761022,
				"element": "C" 
			},
			{
				"x": 4.293767867,
				"y": -0.7935041828,
				"z": -0.2556272318,
				"element": "S" 
			},
			{
				"x": 4.5302427209,
				"y": -1.9009589301,
				"z": 1.1905312868,
				"element": "C" 
			},
			{
				"x": 1.5806030048,
				"y": -1.476028025,
				"z": -1.4004953112,
				"element": "S" 
			},
			{
				"x": 2.2558875564,
				"y": 1.3750503074,
				"z": 1.763117019,
				"element": "S" 
			},
			{
				"x": 2.443150165,
				"y": 2.7191050503,
				"z": 1.2296892959,
				"element": "O" 
			},
			{
				"x": 3.2873949687,
				"y": 0.7230210951,
				"z": 2.5721907242,
				"element": "O" 
			},
			{
				"x": 0.8405389059,
				"y": 1.3838634713,
				"z": 2.6948668208,
				"element": "N" 
			},
			{
				"x": 0.6689558982,
				"y": 0.2992691332,
				"z": 3.6777311024,
				"element": "C" 
			},
			{
				"x": -0.3264839078,
				"y": 1.781928267,
				"z": 1.9590188086,
				"element": "C" 
			},
			{
				"x": -0.5939600463,
				"y": 1.2547960139,
				"z": 0.6735398247,
				"element": "C" 
			},
			{
				"x": -1.7028061785,
				"y": 1.7645563226,
				"z": -0.0235678873,
				"element": "C" 
			},
			{
				"x": -2.55893835,
				"y": 2.6905421565,
				"z": 0.5627865968,
				"element": "C" 
			},
			{
				"x": -2.3154385309,
				"y": 3.1529365134,
				"z": 1.8583693525,
				"element": "C" 
			},
			{
				"x": -1.1885502408,
				"y": 2.7101122021,
				"z": 2.5450133748,
				"element": "C" 
			},
			{
				"x": -3.7293002877,
				"y": -2.8980675406,
				"z": 0.2160263082,
				"element": "H" 
			},
			{
				"x": -2.9263752689,
				"y": -3.6021815584,
				"z": -1.2087734943,
				"element": "H" 
			},
			{
				"x": -4.671246664,
				"y": -3.2908642276,
				"z": -1.2352336446,
				"element": "H" 
			},
			{
				"x": -4.2460732972,
				"y": -0.8216402419,
				"z": -1.1263604716,
				"element": "H" 
			},
			{
				"x": -3.3959681094,
				"y": -1.5349480447,
				"z": -2.524828299,
				"element": "H" 
			},
			{
				"x": 5.6014737895,
				"y": -2.114355548,
				"z": 1.2172401158,
				"element": "H" 
			},
			{
				"x": 4.2320380056,
				"y": -1.3840892655,
				"z": 2.101821773,
				"element": "H" 
			},
			{
				"x": 3.9794278732,
				"y": -2.8336324351,
				"z": 1.0566474497,
				"element": "H" 
			},
			{
				"x": 1.6051777065,
				"y": 0.1597927677,
				"z": 4.216127207,
				"element": "H" 
			},
			{
				"x": 0.3655472983,
				"y": -0.64796891,
				"z": 3.2112775429,
				"element": "H" 
			},
			{
				"x": -0.1062833961,
				"y": 0.6080163338,
				"z": 4.38252625,
				"element": "H" 
			},
			{
				"x": -1.88827316,
				"y": 1.4346635512,
				"z": -1.0367751976,
				"element": "H" 
			},
			{
				"x": -3.408560773,
				"y": 3.0656204853,
				"z": 0.0003785117,
				"element": "H" 
			},
			{
				"x": -2.9775746394,
				"y": 3.8819238341,
				"z": 2.3154226642,
				"element": "H" 
			},
			{
				"x": -0.942227458,
				"y": 3.0964022251,
				"z": 3.5287128919,
				"element": "H" 
			}
		],
		 "valence_orbital": [ 
			{
				"type": "occ",
				"energy": -0.28043,
				"method": "rhf"
			},
			{
				"type": "occ",
				"energy": -0.26722,
				"method": "rhf"
			},
			{
				"type": "occ",
				"energy": -0.25454,
				"method": "rhf"
			},
			{
				"type": "occ",
				"energy": -0.24634,
				"method": "rhf"
			},
			{
				"type": "occ",
				"energy": -0.2378,
				"method": "rhf"
			},
			{
				"type": "unocc",
				"energy": -0.08417,
				"method": "rhf"
			},
			{
				"type": "unocc",
				"energy": -0.04001,
				"method": "rhf"
			},
			{
				"type": "unocc",
				"energy": -0.02099,
				"method": "rhf"
			},
			{
				"type": "unocc",
				"energy": 0.00345,
				"method": "rhf"
			},
			{
				"type": "unocc",
				"energy": 0.00784,
				"method": "rhf"
			}
		],
		"cosmo_sigma_profile": { 
			"-0.025": 0.0,
			"-0.024": 0.0,
			"-0.023": 0.0,
			"-0.022": 0.0,
			"-0.021": 0.0,
			"-0.02": 0.0,
			"-0.019": 0.0,
			"-0.018": 0.0,
			"-0.017": 0.0,
			"-0.016": 0.0,
			"-0.015": 0.0,
			"-0.014": 0.0,
			"-0.013": 0.0,
			"-0.012": 0.0,
			"-0.011": 0.0,
			"-0.01": 0.0,
			"-0.009": 0.0,
			"-0.008": 0.604021082283,
			"-0.007": 8.17431441716,
			"-0.006": 19.1889338137,
			"-0.005": 27.9041823951,
			"-0.004": 33.6431539872,
			"-0.003": 35.058004617,
			"-0.002": 38.1963963368,
			"-0.001": 34.3246420969,
			"0.0": 27.6704047733,
			"0.001": 23.459374758,
			"0.002": 18.4227385388,
			"0.003": 20.1615262009,
			"0.004": 15.1312898353,
			"0.005": 9.9911192624,
			"0.006": 9.7313573421,
			"0.007": 8.47784911441,
			"0.008": 6.15077446547,
			"0.009": 7.30932532524,
			"0.01": 10.9937056394,
			"0.011": 7.94431990117,
			"0.012": 0.637054969334,
			"0.013": 0.0,
			"0.014": 0.0,
			"0.015": 0.0,
			"0.016": 0.0,
			"0.017": 0.0,
			"0.018": 0.0,
			"0.019": 0.0,
			"0.02": 0.0,
			"0.021": 0.0,
			"0.022": 0.0,
			"0.023": 0.0,
			"0.024": 0.0,
			"0.025": 0.0
		}
	}
}
