{
	 "smiles": "NC(N)=O", 
	 "Tm": 407.15, 
	 "num_atms": 8, 
	 "gaussian": { 
		 "optdone": 1, 
		 "sigma_profile": "yes", 
		 "theory": "DFT", 
		 "functional": "B3LYP", 
		 "basiset": "6-31G**", 
		 "properties": { 
			 "R2extent": 382.8277, 
			 "electric_dipole_moment_norm": 3.5264874663, 
			 "electric_quadrupole_moment_norm": 7.02158594835, 
			 "total_energy": -225.269329235, 
			 "HOMO_LUMO_gap": 0.30225, 
			 "cosmo_polarized_energy": -14.61, 
			 "cosmo_cavitation_energy": 11.92, 
			 "cosmo_dispersion_energy": -9.08, 
			 "cosmo_repulsion_energy": 0.87, 
			 "cosmo_total_nonelectrostatic_energy": 3.71, 
			 "SMD_solvation_energy": 3.38 
		},
		"coords": [
			{
				"x": 1.0878034688,
				"y": -1.9277848292,
				"z": -0.8292174648,
				"element": "N" 
			},
			{
				"x": 0.335648806,
				"y": -0.9829137066,
				"z": -0.1406883174,
				"element": "C" 
			},
			{
				"x": -0.7880215926,
				"y": -0.5503304809,
				"z": -0.8355522665,
				"element": "N" 
			},
			{
				"x": 0.6333841778,
				"y": -0.5723476426,
				"z": 0.9692802447,
				"element": "O" 
			},
			{
				"x": 1.7670836626,
				"y": -2.3854800244,
				"z": -0.2378904549,
				"element": "H" 
			},
			{
				"x": 0.5920661881,
				"y": -2.5524221482,
				"z": -1.450565187,
				"element": "H" 
			},
			{
				"x": -0.7299691147,
				"y": -0.5289739627,
				"z": -1.8445963176,
				"element": "H" 
			},
			{
				"x": -1.1991955961,
				"y": 0.2771527946,
				"z": -0.4271702366,
				"element": "H" 
			}
		],
		 "valence_orbital": [ 
			{
				"type": "occ",
				"energy": -0.41545,
				"method": "rhf"
			},
			{
				"type": "occ",
				"energy": -0.40466,
				"method": "rhf"
			},
			{
				"type": "occ",
				"energy": -0.27421,
				"method": "rhf"
			},
			{
				"type": "occ",
				"energy": -0.27194,
				"method": "rhf"
			},
			{
				"type": "occ",
				"energy": -0.24916,
				"method": "rhf"
			},
			{
				"type": "unocc",
				"energy": 0.05309,
				"method": "rhf"
			},
			{
				"type": "unocc",
				"energy": 0.06486,
				"method": "rhf"
			},
			{
				"type": "unocc",
				"energy": 0.12369,
				"method": "rhf"
			},
			{
				"type": "unocc",
				"energy": 0.12888,
				"method": "rhf"
			},
			{
				"type": "unocc",
				"energy": 0.15148,
				"method": "rhf"
			}
		],
		"cosmo_sigma_profile": { 
			"-0.025": 0.0,
			"-0.024": 0.0,
			"-0.023": 0.0,
			"-0.022": 0.0,
			"-0.021": 0.0,
			"-0.02": 0.0,
			"-0.019": 0.0,
			"-0.018": 0.0,
			"-0.017": 0.0,
			"-0.016": 0.0,
			"-0.015": 0.0,
			"-0.014": 0.80189772385,
			"-0.013": 4.62546982647,
			"-0.012": 5.12134795165,
			"-0.011": 5.30115786157,
			"-0.01": 4.38490412437,
			"-0.009": 4.15911164716,
			"-0.008": 3.29751472908,
			"-0.007": 2.76796118988,
			"-0.006": 2.84826579405,
			"-0.005": 3.16556281084,
			"-0.004": 2.46434777546,
			"-0.003": 2.08803836259,
			"-0.002": 2.62907538065,
			"-0.001": 3.31623542683,
			"0.0": 2.90544443348,
			"0.001": 1.92830279677,
			"0.002": 2.59664611954,
			"0.003": 2.11120674847,
			"0.004": 3.31696836421,
			"0.005": 3.19969915681,
			"0.006": 2.86308639829,
			"0.007": 2.78142025046,
			"0.008": 1.79941854819,
			"0.009": 3.03932139163,
			"0.01": 2.39064307315,
			"0.011": 2.56183822804,
			"0.012": 1.78171273327,
			"0.013": 2.68217824593,
			"0.014": 6.50074875774,
			"0.015": 3.46212630222,
			"0.016": 0.0418357813503,
			"0.017": 0.0,
			"0.018": 0.0,
			"0.019": 0.0,
			"0.02": 0.0,
			"0.021": 0.0,
			"0.022": 0.0,
			"0.023": 0.0,
			"0.024": 0.0,
			"0.025": 0.0
		}
	}
}
