{
	 "smiles": "CN(C)CC(O)CN1C2=CC=C(Br)C=C2C2=C1C=CC(Br)=C2", 
	 "Tm": 427.15, 
	 "num_atms": 40, 
	 "gaussian": { 
		 "optdone": 1, 
		 "sigma_profile": "yes", 
		 "theory": "DFT", 
		 "functional": "B3LYP", 
		 "basiset": "6-31G**", 
		 "properties": { 
			 "R2extent": 15850.0697, 
			 "electric_dipole_moment_norm": 6.03185114538, 
			 "electric_quadrupole_moment_norm": 10.8502495027, 
			 "total_energy": -5986.20460917, 
			 "HOMO_LUMO_gap": 0.16282, 
			 "cosmo_polarized_energy": -11.71, 
			 "cosmo_cavitation_energy": 46.36, 
			 "cosmo_dispersion_energy": -32.92, 
			 "cosmo_repulsion_energy": 2.52, 
			 "cosmo_total_nonelectrostatic_energy": 15.96, 
			 "SMD_solvation_energy": 4.61 
		},
		"coords": [
			{
				"x": -0.1924990652,
				"y": 0.5916896745,
				"z": 3.6594222678,
				"element": "C" 
			},
			{
				"x": -1.1203986963,
				"y": -0.3104777801,
				"z": 2.9796408988,
				"element": "N" 
			},
			{
				"x": -1.7669742701,
				"y": -1.2164823312,
				"z": 3.9284301074,
				"element": "C" 
			},
			{
				"x": -0.4943903043,
				"y": -1.0167485202,
				"z": 1.8567987703,
				"element": "C" 
			},
			{
				"x": -1.5684376131,
				"y": -1.445554564,
				"z": 0.8414234692,
				"element": "C" 
			},
			{
				"x": -2.4559715626,
				"y": -0.3689355459,
				"z": 0.6139844843,
				"element": "O" 
			},
			{
				"x": -0.9918249065,
				"y": -1.9090061431,
				"z": -0.5047752179,
				"element": "C" 
			},
			{
				"x": -0.0463388908,
				"y": -1.0036573446,
				"z": -1.1406982634,
				"element": "N" 
			},
			{
				"x": -0.3724199258,
				"y": 0.073592827,
				"z": -1.9649762419,
				"element": "C" 
			},
			{
				"x": -1.6232960378,
				"y": 0.6336333596,
				"z": -2.2430398965,
				"element": "C" 
			},
			{
				"x": -1.6758238972,
				"y": 1.7060976712,
				"z": -3.1286501413,
				"element": "C" 
			},
			{
				"x": -0.5019555674,
				"y": 2.2108167592,
				"z": -3.711284267,
				"element": "C" 
			},
			{
				"x": -0.6355647117,
				"y": 3.6943589871,
				"z": -4.9166121118,
				"element": "Br" 
			},
			{
				"x": 0.7471574975,
				"y": 1.6731786942,
				"z": -3.4329958553,
				"element": "C" 
			},
			{
				"x": 0.8132372336,
				"y": 0.5877537749,
				"z": -2.5510847882,
				"element": "C" 
			},
			{
				"x": 1.9066178958,
				"y": -0.2169899866,
				"z": -2.0521376177,
				"element": "C" 
			},
			{
				"x": 1.332486615,
				"y": -1.1912442668,
				"z": -1.191931205,
				"element": "C" 
			},
			{
				"x": 2.1294679726,
				"y": -2.1449089172,
				"z": -0.5500214611,
				"element": "C" 
			},
			{
				"x": 3.5040416185,
				"y": -2.1174526917,
				"z": -0.773894676,
				"element": "C" 
			},
			{
				"x": 4.0667387982,
				"y": -1.1505796276,
				"z": -1.6204833411,
				"element": "C" 
			},
			{
				"x": 5.9634640804,
				"y": -1.1516491748,
				"z": -1.8875777962,
				"element": "Br" 
			},
			{
				"x": 3.2890913172,
				"y": -0.1966786868,
				"z": -2.2652193628,
				"element": "C" 
			},
			{
				"x": -0.7305287513,
				"y": 1.1595344594,
				"z": 4.4248248982,
				"element": "H" 
			},
			{
				"x": 0.228251315,
				"y": 1.3011951783,
				"z": 2.9415862383,
				"element": "H" 
			},
			{
				"x": 0.6419090996,
				"y": 0.0616357317,
				"z": 4.1522853734,
				"element": "H" 
			},
			{
				"x": -2.5165359013,
				"y": -1.8294885157,
				"z": 3.421082529,
				"element": "H" 
			},
			{
				"x": -2.2796696349,
				"y": -0.6338219653,
				"z": 4.6993621638,
				"element": "H" 
			},
			{
				"x": -1.0487270002,
				"y": -1.8919128104,
				"z": 4.4274270166,
				"element": "H" 
			},
			{
				"x": 0.1037697173,
				"y": -1.8871920763,
				"z": 2.1822009275,
				"element": "H" 
			},
			{
				"x": 0.1837693939,
				"y": -0.3163906645,
				"z": 1.3606665516,
				"element": "H" 
			},
			{
				"x": -2.1227277509,
				"y": -2.3150655279,
				"z": 1.2398599624,
				"element": "H" 
			},
			{
				"x": -2.4201685811,
				"y": 0.1517549362,
				"z": 1.4391852292,
				"element": "H" 
			},
			{
				"x": -0.4962425041,
				"y": -2.8755281013,
				"z": -0.3729217594,
				"element": "H" 
			},
			{
				"x": -1.8323392111,
				"y": -2.0713049934,
				"z": -1.1881920324,
				"element": "H" 
			},
			{
				"x": -2.5181649015,
				"y": 0.2759905113,
				"z": -1.7489722765,
				"element": "H" 
			},
			{
				"x": -2.6285602015,
				"y": 2.1661632078,
				"z": -3.3642191947,
				"element": "H" 
			},
			{
				"x": 1.6403827159,
				"y": 2.0832264934,
				"z": -3.8906787931,
				"element": "H" 
			},
			{
				"x": 1.7071798773,
				"y": -2.8923454824,
				"z": 0.1134497785,
				"element": "H" 
			},
			{
				"x": 4.146392242,
				"y": -2.844026564,
				"z": -0.2900227886,
				"element": "H" 
			},
			{
				"x": 3.746802497,
				"y": 0.5393200161,
				"z": -2.9166415783,
				"element": "H" 
			}
		],
		 "valence_orbital": [ 
			{
				"type": "occ",
				"energy": -0.27258,
				"method": "rhf"
			},
			{
				"type": "occ",
				"energy": -0.24797,
				"method": "rhf"
			},
			{
				"type": "occ",
				"energy": -0.24221,
				"method": "rhf"
			},
			{
				"type": "occ",
				"energy": -0.22117,
				"method": "rhf"
			},
			{
				"type": "occ",
				"energy": -0.20333,
				"method": "rhf"
			},
			{
				"type": "unocc",
				"energy": -0.04051,
				"method": "rhf"
			},
			{
				"type": "unocc",
				"energy": -0.00664,
				"method": "rhf"
			},
			{
				"type": "unocc",
				"energy": 0.01065,
				"method": "rhf"
			},
			{
				"type": "unocc",
				"energy": 0.01374,
				"method": "rhf"
			},
			{
				"type": "unocc",
				"energy": 0.01663,
				"method": "rhf"
			}
		],
		"cosmo_sigma_profile": { 
			"-0.025": 0.0,
			"-0.024": 0.0,
			"-0.023": 0.0,
			"-0.022": 0.0,
			"-0.021": 0.0,
			"-0.02": 0.0,
			"-0.019": 0.0,
			"-0.018": 0.0,
			"-0.017": 0.0,
			"-0.016": 0.0,
			"-0.015": 0.0,
			"-0.014": 0.0,
			"-0.013": 0.0,
			"-0.012": 0.0,
			"-0.011": 0.0,
			"-0.01": 0.0,
			"-0.009": 0.222944436991,
			"-0.008": 3.07025749769,
			"-0.007": 9.74582113529,
			"-0.006": 12.918095662,
			"-0.005": 18.6616973637,
			"-0.004": 32.2115972906,
			"-0.003": 29.6666590917,
			"-0.002": 36.365062672,
			"-0.001": 35.6218264998,
			"0.0": 28.8264936539,
			"0.001": 22.5008073901,
			"0.002": 26.1237950312,
			"0.003": 41.3088251026,
			"0.004": 38.1632717024,
			"0.005": 25.7573051402,
			"0.006": 4.43475013232,
			"0.007": 2.60107044454,
			"0.008": 1.42567183032,
			"0.009": 0.943624201299,
			"0.01": 1.02560661913,
			"0.011": 0.508797285534,
			"0.012": 0.570702196395,
			"0.013": 0.722523373538,
			"0.014": 0.569703017833,
			"0.015": 0.143803837008,
			"0.016": 0.0,
			"0.017": 0.0,
			"0.018": 0.0,
			"0.019": 0.0,
			"0.02": 0.0,
			"0.021": 0.0,
			"0.022": 0.0,
			"0.023": 0.0,
			"0.024": 0.0,
			"0.025": 0.0
		}
	}
}
