{
	 "smiles": "CCC1=C(NC(C)=C1C(C)=O)C(=O)CCl", 
	 "Tm": 417.15, 
	 "num_atms": 29, 
	 "gaussian": { 
		 "optdone": 1, 
		 "sigma_profile": "yes", 
		 "theory": "DFT", 
		 "functional": "B3LYP", 
		 "basiset": "6-31G**", 
		 "properties": { 
			 "R2extent": 5163.8652, 
			 "electric_dipole_moment_norm": 3.87856545259, 
			 "electric_quadrupole_moment_norm": 16.6447878671, 
			 "total_energy": -1093.01836126, 
			 "HOMO_LUMO_gap": 0.16878, 
			 "cosmo_polarized_energy": -15.15, 
			 "cosmo_cavitation_energy": 33.21, 
			 "cosmo_dispersion_energy": -23.5, 
			 "cosmo_repulsion_energy": 1.84, 
			 "cosmo_total_nonelectrostatic_energy": 11.55, 
			 "SMD_solvation_energy": 6.33 
		},
		"coords": [
			{
				"x": -1.9157519115,
				"y": -1.8170373276,
				"z": 1.1529726487,
				"element": "C" 
			},
			{
				"x": -0.5744207677,
				"y": -1.8959054829,
				"z": 0.3992683932,
				"element": "C" 
			},
			{
				"x": 0.4086685947,
				"y": -0.8423291078,
				"z": 0.83432139,
				"element": "C" 
			},
			{
				"x": 1.4206216348,
				"y": -0.9698019299,
				"z": 1.7901488285,
				"element": "C" 
			},
			{
				"x": 2.0754071212,
				"y": 0.2503623554,
				"z": 1.8635308065,
				"element": "N" 
			},
			{
				"x": 1.54840353,
				"y": 1.1483230799,
				"z": 1.0102939643,
				"element": "C" 
			},
			{
				"x": 2.1168644101,
				"y": 2.5332957583,
				"z": 0.9479873252,
				"element": "C" 
			},
			{
				"x": 0.4833003653,
				"y": 0.5055983102,
				"z": 0.3388595874,
				"element": "C" 
			},
			{
				"x": -0.4080657399,
				"y": 1.074163712,
				"z": -0.6910615395,
				"element": "C" 
			},
			{
				"x": -0.0960890509,
				"y": 2.4382924754,
				"z": -1.2922644631,
				"element": "C" 
			},
			{
				"x": -1.3988485355,
				"y": 0.4655547241,
				"z": -1.0849743493,
				"element": "O" 
			},
			{
				"x": 1.9159838273,
				"y": -1.9868132439,
				"z": 2.709003635,
				"element": "C" 
			},
			{
				"x": 2.8312585805,
				"y": -1.7161537591,
				"z": 3.4871674533,
				"element": "O" 
			},
			{
				"x": 1.3107852895,
				"y": -3.3851519035,
				"z": 2.7480539612,
				"element": "C" 
			},
			{
				"x": 2.0050891373,
				"y": -4.4217584549,
				"z": 1.4271726414,
				"element": "Cl" 
			},
			{
				"x": -2.587771782,
				"y": -2.6132123791,
				"z": 0.8170095561,
				"element": "H" 
			},
			{
				"x": -2.4007664122,
				"y": -0.8583779263,
				"z": 0.9563048979,
				"element": "H" 
			},
			{
				"x": -1.780391717,
				"y": -1.9201510087,
				"z": 2.2357404556,
				"element": "H" 
			},
			{
				"x": -0.776480496,
				"y": -1.7608386014,
				"z": -0.6649527098,
				"element": "H" 
			},
			{
				"x": -0.1307498212,
				"y": -2.8875629434,
				"z": 0.5181089958,
				"element": "H" 
			},
			{
				"x": 2.8410376715,
				"y": 0.3858314555,
				"z": 2.5112593348,
				"element": "H" 
			},
			{
				"x": 2.517502707,
				"y": 2.7672689176,
				"z": -0.0428238113,
				"element": "H" 
			},
			{
				"x": 1.3648572439,
				"y": 3.2924625565,
				"z": 1.183609926,
				"element": "H" 
			},
			{
				"x": 2.9320784852,
				"y": 2.6389629997,
				"z": 1.6692660214,
				"element": "H" 
			},
			{
				"x": 0.9163308858,
				"y": 2.4755430402,
				"z": -1.7075059783,
				"element": "H" 
			},
			{
				"x": -0.1744132991,
				"y": 3.2316134743,
				"z": -0.541237117,
				"element": "H" 
			},
			{
				"x": -0.8204954045,
				"y": 2.6306570093,
				"z": -2.0844476002,
				"element": "H" 
			},
			{
				"x": 0.2285497815,
				"y": -3.3879543277,
				"z": 2.6221423384,
				"element": "H" 
			},
			{
				"x": 1.5930056718,
				"y": -3.8465814721,
				"z": 3.6928454078,
				"element": "H" 
			}
		],
		 "valence_orbital": [ 
			{
				"type": "occ",
				"energy": -0.30323,
				"method": "rhf"
			},
			{
				"type": "occ",
				"energy": -0.26522,
				"method": "rhf"
			},
			{
				"type": "occ",
				"energy": -0.25853,
				"method": "rhf"
			},
			{
				"type": "occ",
				"energy": -0.24339,
				"method": "rhf"
			},
			{
				"type": "occ",
				"energy": -0.2339,
				"method": "rhf"
			},
			{
				"type": "unocc",
				"energy": -0.06512,
				"method": "rhf"
			},
			{
				"type": "unocc",
				"energy": -0.03403,
				"method": "rhf"
			},
			{
				"type": "unocc",
				"energy": 0.0179,
				"method": "rhf"
			},
			{
				"type": "unocc",
				"energy": 0.06227,
				"method": "rhf"
			},
			{
				"type": "unocc",
				"energy": 0.06875,
				"method": "rhf"
			}
		],
		"cosmo_sigma_profile": { 
			"-0.025": 0.0,
			"-0.024": 0.0,
			"-0.023": 0.0,
			"-0.022": 0.0,
			"-0.021": 0.0,
			"-0.02": 0.0,
			"-0.019": 0.0,
			"-0.018": 0.0,
			"-0.017": 0.0,
			"-0.016": 0.0,
			"-0.015": 0.168559967252,
			"-0.014": 0.91145158792,
			"-0.013": 0.931955729008,
			"-0.012": 1.37306125299,
			"-0.011": 0.904809402393,
			"-0.01": 1.48949190131,
			"-0.009": 0.957698263298,
			"-0.008": 3.0613801851,
			"-0.007": 10.7941452617,
			"-0.006": 14.7362863576,
			"-0.005": 14.9413008419,
			"-0.004": 14.964993878,
			"-0.003": 17.8175081979,
			"-0.002": 21.868161038,
			"-0.001": 23.9259243742,
			"0.0": 24.0240858581,
			"0.001": 22.6171794697,
			"0.002": 19.3287273078,
			"0.003": 15.3086569702,
			"0.004": 10.3608828944,
			"0.005": 11.5621932134,
			"0.006": 5.60392665104,
			"0.007": 2.90883643131,
			"0.008": 3.22147900512,
			"0.009": 3.22723347385,
			"0.01": 3.63037270771,
			"0.011": 4.52747725294,
			"0.012": 4.90479096439,
			"0.013": 3.07176336784,
			"0.014": 1.24201167242,
			"0.015": 0.0944207712494,
			"0.016": 0.0,
			"0.017": 0.0,
			"0.018": 0.0,
			"0.019": 0.0,
			"0.02": 0.0,
			"0.021": 0.0,
			"0.022": 0.0,
			"0.023": 0.0,
			"0.024": 0.0,
			"0.025": 0.0
		}
	}
}
