{
	 "smiles": "NC1=NC2=C(N1)C=CC=C2Cl", 
	 "Tm": 417.15, 
	 "num_atms": 17, 
	 "gaussian": { 
		 "optdone": 1, 
		 "sigma_profile": "yes", 
		 "theory": "DFT", 
		 "functional": "B3LYP", 
		 "basiset": "6-31G**", 
		 "properties": { 
			 "R2extent": 2430.1284, 
			 "electric_dipole_moment_norm": 5.57571809456, 
			 "electric_quadrupole_moment_norm": 12.6855111596, 
			 "total_energy": -894.823755177, 
			 "HOMO_LUMO_gap": 0.19962, 
			 "cosmo_polarized_energy": -18.67, 
			 "cosmo_cavitation_energy": 23.11, 
			 "cosmo_dispersion_energy": -17.75, 
			 "cosmo_repulsion_energy": 1.44, 
			 "cosmo_total_nonelectrostatic_energy": 6.8, 
			 "SMD_solvation_energy": 1.56 
		},
		"coords": [
			{
				"x": 1.3126563142,
				"y": 1.2063147865,
				"z": -3.0050022334,
				"element": "N" 
			},
			{
				"x": 0.6848047061,
				"y": 0.5109051173,
				"z": -1.990438727,
				"element": "C" 
			},
			{
				"x": 0.2871208023,
				"y": -0.7362356458,
				"z": -2.0641743762,
				"element": "N" 
			},
			{
				"x": -0.3627188399,
				"y": -0.9662015898,
				"z": -0.8621865622,
				"element": "C" 
			},
			{
				"x": -0.3331274382,
				"y": 0.1884526934,
				"z": -0.0397178371,
				"element": "C" 
			},
			{
				"x": 0.3666332405,
				"y": 1.1259986485,
				"z": -0.7956731252,
				"element": "N" 
			},
			{
				"x": -0.9028380924,
				"y": 0.2410679752,
				"z": 1.2280089893,
				"element": "C" 
			},
			{
				"x": -1.5308102928,
				"y": -0.9208464334,
				"z": 1.6810530281,
				"element": "C" 
			},
			{
				"x": -1.5766057979,
				"y": -2.0844384623,
				"z": 0.8976389947,
				"element": "C" 
			},
			{
				"x": -0.9953409037,
				"y": -2.1123305626,
				"z": -0.3690896633,
				"element": "C" 
			},
			{
				"x": -1.0569371552,
				"y": -3.5687092669,
				"z": -1.3401628471,
				"element": "Cl" 
			},
			{
				"x": 1.5717059,
				"y": 0.5872704237,
				"z": -3.7629377964,
				"element": "H" 
			},
			{
				"x": 2.0833897652,
				"y": 1.7955092509,
				"z": -2.7151395362,
				"element": "H" 
			},
			{
				"x": 0.4387439188,
				"y": 2.1127727838,
				"z": -0.6028668966,
				"element": "H" 
			},
			{
				"x": -0.8668970104,
				"y": 1.137851956,
				"z": 1.8386197076,
				"element": "H" 
			},
			{
				"x": -1.9948260655,
				"y": -0.9295217418,
				"z": 2.6623358138,
				"element": "H" 
			},
			{
				"x": -2.067153051,
				"y": -2.9753599326,
				"z": 1.2735330674,
				"element": "H" 
			}
		],
		 "valence_orbital": [ 
			{
				"type": "occ",
				"energy": -0.29476,
				"method": "rhf"
			},
			{
				"type": "occ",
				"energy": -0.29032,
				"method": "rhf"
			},
			{
				"type": "occ",
				"energy": -0.27582,
				"method": "rhf"
			},
			{
				"type": "occ",
				"energy": -0.2238,
				"method": "rhf"
			},
			{
				"type": "occ",
				"energy": -0.20788,
				"method": "rhf"
			},
			{
				"type": "unocc",
				"energy": -0.00826,
				"method": "rhf"
			},
			{
				"type": "unocc",
				"energy": 0.01724,
				"method": "rhf"
			},
			{
				"type": "unocc",
				"energy": 0.04563,
				"method": "rhf"
			},
			{
				"type": "unocc",
				"energy": 0.05848,
				"method": "rhf"
			},
			{
				"type": "unocc",
				"energy": 0.06379,
				"method": "rhf"
			}
		],
		"cosmo_sigma_profile": { 
			"-0.025": 0.0,
			"-0.024": 0.0,
			"-0.023": 0.0,
			"-0.022": 0.0,
			"-0.021": 0.0,
			"-0.02": 0.0,
			"-0.019": 0.0,
			"-0.018": 0.0,
			"-0.017": 0.677145048524,
			"-0.016": 1.52634337612,
			"-0.015": 2.13365551547,
			"-0.014": 3.75228120692,
			"-0.013": 3.82627019227,
			"-0.012": 3.65686251537,
			"-0.011": 3.42998409088,
			"-0.01": 3.38256094518,
			"-0.009": 2.16025782764,
			"-0.008": 3.25811793386,
			"-0.007": 4.83235266378,
			"-0.006": 6.81210032114,
			"-0.005": 6.93116066881,
			"-0.004": 6.31353207778,
			"-0.003": 6.54964943063,
			"-0.002": 7.57758204984,
			"-0.001": 7.59919500819,
			"0.0": 9.01114100821,
			"0.001": 9.63114447481,
			"0.002": 11.7387295329,
			"0.003": 18.8205296299,
			"0.004": 18.2061601906,
			"0.005": 19.0268068032,
			"0.006": 7.164791323,
			"0.007": 2.68046205316,
			"0.008": 3.35773352776,
			"0.009": 2.22488370774,
			"0.01": 2.09601331869,
			"0.011": 1.82323934182,
			"0.012": 1.78407544323,
			"0.013": 1.45198595823,
			"0.014": 1.43186989521,
			"0.015": 0.75911739828,
			"0.016": 1.12453333897,
			"0.017": 0.488633179102,
			"0.018": 0.0106144067089,
			"0.019": 0.0,
			"0.02": 0.0,
			"0.021": 0.0,
			"0.022": 0.0,
			"0.023": 0.0,
			"0.024": 0.0,
			"0.025": 0.0
		}
	}
}
