{
	 "smiles": "O=C1NC2CC1C=C2", 
	 "Tm": 369.15, 
	 "num_atms": 15, 
	 "gaussian": { 
		 "optdone": 1, 
		 "sigma_profile": "yes", 
		 "theory": "DFT", 
		 "functional": "B3LYP", 
		 "basiset": "6-31G**", 
		 "properties": { 
			 "R2extent": 837.1865, 
			 "electric_dipole_moment_norm": 3.6798302257, 
			 "electric_quadrupole_moment_norm": 11.2543786394, 
			 "total_energy": -362.793230576, 
			 "HOMO_LUMO_gap": 0.21516, 
			 "cosmo_polarized_energy": -10.4, 
			 "cosmo_cavitation_energy": 17.75, 
			 "cosmo_dispersion_energy": -13.75, 
			 "cosmo_repulsion_energy": 1.16, 
			 "cosmo_total_nonelectrostatic_energy": 5.16, 
			 "SMD_solvation_energy": 2.61 
		},
		"coords": [
			{
				"x": 0.4152199241,
				"y": -0.0174415196,
				"z": 2.7142559839,
				"element": "O" 
			},
			{
				"x": 0.0862181367,
				"y": -0.1615877263,
				"z": 1.5539367829,
				"element": "C" 
			},
			{
				"x": 0.7822340845,
				"y": 0.2472750299,
				"z": 0.4238082183,
				"element": "N" 
			},
			{
				"x": -0.1192391937,
				"y": 0.079218541,
				"z": -0.7467009225,
				"element": "C" 
			},
			{
				"x": -0.7023554923,
				"y": -1.3049058015,
				"z": -0.3772243147,
				"element": "C" 
			},
			{
				"x": -1.2234886348,
				"y": -0.7799363789,
				"z": 0.9889765939,
				"element": "C" 
			},
			{
				"x": -2.0190528508,
				"y": 0.4425450308,
				"z": 0.5073255418,
				"element": "C" 
			},
			{
				"x": -1.3682852104,
				"y": 0.9577474568,
				"z": -0.5430369836,
				"element": "C" 
			},
			{
				"x": 1.3989601802,
				"y": 1.0445752614,
				"z": 0.5046383653,
				"element": "H" 
			},
			{
				"x": 0.4189364885,
				"y": 0.1721090424,
				"z": -1.6900614038,
				"element": "H" 
			},
			{
				"x": 0.0667375601,
				"y": -2.0786288876,
				"z": -0.2994797819,
				"element": "H" 
			},
			{
				"x": -1.5085937768,
				"y": -1.6249433466,
				"z": -1.0401327754,
				"element": "H" 
			},
			{
				"x": -1.7198565181,
				"y": -1.4626529003,
				"z": 1.6761740695,
				"element": "H" 
			},
			{
				"x": -2.8956513666,
				"y": 0.8340847667,
				"z": 1.0092771386,
				"element": "H" 
			},
			{
				"x": -1.6029833303,
				"y": 1.8571414319,
				"z": -1.1001565124,
				"element": "H" 
			}
		],
		 "valence_orbital": [ 
			{
				"type": "occ",
				"energy": -0.35884,
				"method": "rhf"
			},
			{
				"type": "occ",
				"energy": -0.34675,
				"method": "rhf"
			},
			{
				"type": "occ",
				"energy": -0.28092,
				"method": "rhf"
			},
			{
				"type": "occ",
				"energy": -0.24625,
				"method": "rhf"
			},
			{
				"type": "occ",
				"energy": -0.23097,
				"method": "rhf"
			},
			{
				"type": "unocc",
				"energy": -0.01581,
				"method": "rhf"
			},
			{
				"type": "unocc",
				"energy": 0.04943,
				"method": "rhf"
			},
			{
				"type": "unocc",
				"energy": 0.09316,
				"method": "rhf"
			},
			{
				"type": "unocc",
				"energy": 0.11471,
				"method": "rhf"
			},
			{
				"type": "unocc",
				"energy": 0.13496,
				"method": "rhf"
			}
		],
		"cosmo_sigma_profile": { 
			"-0.025": 0.0,
			"-0.024": 0.0,
			"-0.023": 0.0,
			"-0.022": 0.0,
			"-0.021": 0.0,
			"-0.02": 0.0,
			"-0.019": 0.0,
			"-0.018": 0.0,
			"-0.017": 0.0,
			"-0.016": 0.0,
			"-0.015": 0.0,
			"-0.014": 0.550557946558,
			"-0.013": 1.33874884681,
			"-0.012": 1.17243376118,
			"-0.011": 1.23030435892,
			"-0.01": 1.01665427184,
			"-0.009": 0.465503110379,
			"-0.008": 0.934106872628,
			"-0.007": 2.5279177839,
			"-0.006": 8.24633676854,
			"-0.005": 10.2555458527,
			"-0.004": 13.6114978826,
			"-0.003": 14.8611517058,
			"-0.002": 13.8153774355,
			"-0.001": 13.8517034499,
			"0.0": 8.1354848282,
			"0.001": 5.57655269325,
			"0.002": 5.97319417805,
			"0.003": 4.82841229099,
			"0.004": 3.6409290655,
			"0.005": 3.65390309877,
			"0.006": 2.36410541526,
			"0.007": 1.69915501289,
			"0.008": 2.35096065678,
			"0.009": 2.02608435295,
			"0.01": 1.47972387858,
			"0.011": 1.96244417724,
			"0.012": 2.12690394039,
			"0.013": 5.89047219384,
			"0.014": 4.04263520008,
			"0.015": 0.63374010707,
			"0.016": 0.0,
			"0.017": 0.0,
			"0.018": 0.0,
			"0.019": 0.0,
			"0.02": 0.0,
			"0.021": 0.0,
			"0.022": 0.0,
			"0.023": 0.0,
			"0.024": 0.0,
			"0.025": 0.0
		}
	}
}
