{
	 "smiles": "FCCl", 
	 "Tm": 140.15, 
	 "num_atms": 5, 
	 "gaussian": { 
		 "optdone": 1, 
		 "sigma_profile": "yes", 
		 "theory": "DFT", 
		 "functional": "B3LYP", 
		 "basiset": "6-31G**", 
		 "properties": { 
			 "R2extent": 1183.5846, 
			 "electric_dipole_moment_norm": 1.93249410348, 
			 "electric_quadrupole_moment_norm": 9.21318588654, 
			 "total_energy": -599.329370494, 
			 "HOMO_LUMO_gap": 0.32499, 
			 "cosmo_polarized_energy": -4.2, 
			 "cosmo_cavitation_energy": 10.63, 
			 "cosmo_dispersion_energy": -8.14, 
			 "cosmo_repulsion_energy": 0.78, 
			 "cosmo_total_nonelectrostatic_energy": 3.27, 
			 "SMD_solvation_energy": 2.68 
		},
		"coords": [
			{
				"x": -2.9533583693,
				"y": -2.7956642448,
				"z": 0.0392253168,
				"element": "F" 
			},
			{
				"x": -2.9149993584,
				"y": -1.7143348994,
				"z": -0.782254458,
				"element": "C" 
			},
			{
				"x": -1.2141219438,
				"y": -1.1672419018,
				"z": -1.0188895127,
				"element": "Cl" 
			},
			{
				"x": -3.307564243,
				"y": -1.9790201261,
				"z": -1.7655754371,
				"element": "H" 
			},
			{
				"x": -3.4603560856,
				"y": -0.8836388278,
				"z": -0.331005909,
				"element": "H" 
			}
		],
		 "valence_orbital": [ 
			{
				"type": "occ",
				"energy": -0.48738,
				"method": "rhf"
			},
			{
				"type": "occ",
				"energy": -0.38112,
				"method": "rhf"
			},
			{
				"type": "occ",
				"energy": -0.37365,
				"method": "rhf"
			},
			{
				"type": "occ",
				"energy": -0.32335,
				"method": "rhf"
			},
			{
				"type": "occ",
				"energy": -0.30926,
				"method": "rhf"
			},
			{
				"type": "unocc",
				"energy": 0.01573,
				"method": "rhf"
			},
			{
				"type": "unocc",
				"energy": 0.09603,
				"method": "rhf"
			},
			{
				"type": "unocc",
				"energy": 0.12285,
				"method": "rhf"
			},
			{
				"type": "unocc",
				"energy": 0.13531,
				"method": "rhf"
			},
			{
				"type": "unocc",
				"energy": 0.39206,
				"method": "rhf"
			}
		],
		"cosmo_sigma_profile": { 
			"-0.025": 0.0,
			"-0.024": 0.0,
			"-0.023": 0.0,
			"-0.022": 0.0,
			"-0.021": 0.0,
			"-0.02": 0.0,
			"-0.019": 0.0,
			"-0.018": 0.0,
			"-0.017": 0.0,
			"-0.016": 0.0,
			"-0.015": 0.0,
			"-0.014": 0.0,
			"-0.013": 0.0,
			"-0.012": 0.0,
			"-0.011": 0.0,
			"-0.01": 0.886509916789,
			"-0.009": 6.22123482176,
			"-0.008": 5.47127551696,
			"-0.007": 5.05207919896,
			"-0.006": 2.493549658,
			"-0.005": 2.39807142379,
			"-0.004": 1.80030989016,
			"-0.003": 2.36441825838,
			"-0.002": 2.49235428107,
			"-0.001": 3.55814528234,
			"0.0": 4.50639121428,
			"0.001": 3.21461789581,
			"0.002": 5.77428986215,
			"0.003": 6.75312161083,
			"0.004": 16.0282190901,
			"0.005": 14.8599154693,
			"0.006": 3.14060463032,
			"0.007": 0.0,
			"0.008": 0.0,
			"0.009": 0.0,
			"0.01": 0.0,
			"0.011": 0.0,
			"0.012": 0.0,
			"0.013": 0.0,
			"0.014": 0.0,
			"0.015": 0.0,
			"0.016": 0.0,
			"0.017": 0.0,
			"0.018": 0.0,
			"0.019": 0.0,
			"0.02": 0.0,
			"0.021": 0.0,
			"0.022": 0.0,
			"0.023": 0.0,
			"0.024": 0.0,
			"0.025": 0.0
		}
	}
}
