{
	 "smiles": "CC(=O)C1=C(C)C2=CC3=C(C)C(C(C)=O)=C(C)N=C3C=C2N=C1C", 
	 "Tm": 520.15, 
	 "num_atms": 44, 
	 "gaussian": { 
		 "optdone": 1, 
		 "sigma_profile": "yes", 
		 "theory": "DFT", 
		 "functional": "B3LYP", 
		 "basiset": "6-31G**", 
		 "properties": { 
			 "R2extent": 11335.5985, 
			 "electric_dipole_moment_norm": 2.37100961829, 
			 "electric_quadrupole_moment_norm": 24.6972463888, 
			 "total_energy": -1034.15981995, 
			 "HOMO_LUMO_gap": 0.13533, 
			 "cosmo_polarized_energy": -19.34, 
			 "cosmo_cavitation_energy": 46.26, 
			 "cosmo_dispersion_energy": -32.1, 
			 "cosmo_repulsion_energy": 2.39, 
			 "cosmo_total_nonelectrostatic_energy": 16.56, 
			 "SMD_solvation_energy": 5.88 
		},
		"coords": [
			{
				"x": 0.900424351,
				"y": 6.1734894475,
				"z": 1.1680027083,
				"element": "C" 
			},
			{
				"x": 0.3565192714,
				"y": 5.2725355596,
				"z": 0.0643927154,
				"element": "C" 
			},
			{
				"x": -0.5684885903,
				"y": 5.6539336992,
				"z": -0.6333730962,
				"element": "O" 
			},
			{
				"x": 0.9461765765,
				"y": 3.893610383,
				"z": -0.1033362364,
				"element": "C" 
			},
			{
				"x": 0.1381782853,
				"y": 2.7716453952,
				"z": -0.0412125295,
				"element": "C" 
			},
			{
				"x": -1.3502373836,
				"y": 2.8346883295,
				"z": 0.2022746634,
				"element": "C" 
			},
			{
				"x": 0.7645480288,
				"y": 1.481248999,
				"z": -0.1826839163,
				"element": "C" 
			},
			{
				"x": 0.0553378545,
				"y": 0.272666445,
				"z": -0.1114192559,
				"element": "C" 
			},
			{
				"x": 0.6951048521,
				"y": -0.9666151919,
				"z": -0.2498308323,
				"element": "C" 
			},
			{
				"x": -0.0029404676,
				"y": -2.2261361761,
				"z": -0.1965328177,
				"element": "C" 
			},
			{
				"x": -1.4903057861,
				"y": -2.2440244693,
				"z": 0.0637150587,
				"element": "C" 
			},
			{
				"x": 0.7310966763,
				"y": -3.3797119036,
				"z": -0.3602726715,
				"element": "C" 
			},
			{
				"x": 0.0842833366,
				"y": -4.7486123701,
				"z": -0.3206049742,
				"element": "C" 
			},
			{
				"x": -0.6951924306,
				"y": -5.1813551031,
				"z": -1.5489626208,
				"element": "C" 
			},
			{
				"x": 0.2412808146,
				"y": -5.4873985162,
				"z": 0.6341920577,
				"element": "O" 
			},
			{
				"x": 2.1665915958,
				"y": -3.3065861067,
				"z": -0.5376717598,
				"element": "C" 
			},
			{
				"x": 2.9814013568,
				"y": -4.5701522833,
				"z": -0.6637579371,
				"element": "C" 
			},
			{
				"x": 2.8175345138,
				"y": -2.1711155958,
				"z": -0.5958162351,
				"element": "N" 
			},
			{
				"x": 2.1170943269,
				"y": -0.9972974044,
				"z": -0.4649133413,
				"element": "C" 
			},
			{
				"x": 2.8276421279,
				"y": 0.2045431437,
				"z": -0.5419194697,
				"element": "C" 
			},
			{
				"x": 2.1833395293,
				"y": 1.4389979583,
				"z": -0.4092794543,
				"element": "C" 
			},
			{
				"x": 2.942900611,
				"y": 2.5764184906,
				"z": -0.5140716347,
				"element": "N" 
			},
			{
				"x": 2.364215921,
				"y": 3.7422233587,
				"z": -0.3617394332,
				"element": "C" 
			},
			{
				"x": 3.2618774091,
				"y": 4.9469184219,
				"z": -0.5311302543,
				"element": "C" 
			},
			{
				"x": 1.4674640487,
				"y": 7.000496442,
				"z": 0.7285965547,
				"element": "H" 
			},
			{
				"x": 0.0471739881,
				"y": 6.612361321,
				"z": 1.692654446,
				"element": "H" 
			},
			{
				"x": 1.5380419404,
				"y": 5.6460940029,
				"z": 1.8805481226,
				"element": "H" 
			},
			{
				"x": -1.892502131,
				"y": 2.4066485348,
				"z": -0.6484192918,
				"element": "H" 
			},
			{
				"x": -1.7088948794,
				"y": 3.8525425935,
				"z": 0.3326357874,
				"element": "H" 
			},
			{
				"x": -1.6207005434,
				"y": 2.2463676675,
				"z": 1.0862992747,
				"element": "H" 
			},
			{
				"x": -1.0151623403,
				"y": 0.2984509266,
				"z": 0.0481836543,
				"element": "H" 
			},
			{
				"x": -1.7254757937,
				"y": -1.6947055019,
				"z": 0.9815637711,
				"element": "H" 
			},
			{
				"x": -1.8767861178,
				"y": -3.2562619239,
				"z": 0.1890011348,
				"element": "H" 
			},
			{
				"x": -2.0453627196,
				"y": -1.762666186,
				"z": -0.7501727356,
				"element": "H" 
			},
			{
				"x": -1.2007862326,
				"y": -6.1289185411,
				"z": -1.3539064357,
				"element": "H" 
			},
			{
				"x": 0.0035977321,
				"y": -5.3104577394,
				"z": -2.3852621284,
				"element": "H" 
			},
			{
				"x": -1.4162593157,
				"y": -4.4201929479,
				"z": -1.8616293779,
				"element": "H" 
			},
			{
				"x": 2.8830218251,
				"y": -5.1880993158,
				"z": 0.2339908782,
				"element": "H" 
			},
			{
				"x": 4.0281980728,
				"y": -4.3043366065,
				"z": -0.8126440241,
				"element": "H" 
			},
			{
				"x": 2.6479582591,
				"y": -5.1827620471,
				"z": -1.5105550812,
				"element": "H" 
			},
			{
				"x": 3.8980670322,
				"y": 0.1793129142,
				"z": -0.7097802597,
				"element": "H" 
			},
			{
				"x": 4.2094556363,
				"y": 4.6143631423,
				"z": -0.9563051575,
				"element": "H" 
			},
			{
				"x": 3.4722893732,
				"y": 5.4345354374,
				"z": 0.4271360811,
				"element": "H" 
			},
			{
				"x": 2.8165793847,
				"y": 5.6980133167,
				"z": -1.192483946,
				"element": "H" 
			}
		],
		 "valence_orbital": [ 
			{
				"type": "occ",
				"energy": -0.26665,
				"method": "rhf"
			},
			{
				"type": "occ",
				"energy": -0.24904,
				"method": "rhf"
			},
			{
				"type": "occ",
				"energy": -0.24674,
				"method": "rhf"
			},
			{
				"type": "occ",
				"energy": -0.2446,
				"method": "rhf"
			},
			{
				"type": "occ",
				"energy": -0.21768,
				"method": "rhf"
			},
			{
				"type": "unocc",
				"energy": -0.08235,
				"method": "rhf"
			},
			{
				"type": "unocc",
				"energy": -0.0483,
				"method": "rhf"
			},
			{
				"type": "unocc",
				"energy": -0.0312,
				"method": "rhf"
			},
			{
				"type": "unocc",
				"energy": -0.02059,
				"method": "rhf"
			},
			{
				"type": "unocc",
				"energy": -0.00769,
				"method": "rhf"
			}
		],
		"cosmo_sigma_profile": { 
			"-0.025": 0.0,
			"-0.024": 0.0,
			"-0.023": 0.0,
			"-0.022": 0.0,
			"-0.021": 0.0,
			"-0.02": 0.0,
			"-0.019": 0.0,
			"-0.018": 0.0,
			"-0.017": 0.0,
			"-0.016": 0.0,
			"-0.015": 0.0,
			"-0.014": 0.0,
			"-0.013": 0.0,
			"-0.012": 0.0,
			"-0.011": 0.0,
			"-0.01": 0.0,
			"-0.009": 0.0139319198751,
			"-0.008": 0.735024944927,
			"-0.007": 3.90855403092,
			"-0.006": 22.2474019902,
			"-0.005": 36.4924009957,
			"-0.004": 33.3978641611,
			"-0.003": 36.2137577176,
			"-0.002": 35.6283618826,
			"-0.001": 38.0778966828,
			"0.0": 33.4799940196,
			"0.001": 22.8479048928,
			"0.002": 19.9100459402,
			"0.003": 13.3371188188,
			"0.004": 8.83533652924,
			"0.005": 8.37403781503,
			"0.006": 6.85121663091,
			"0.007": 5.30648114102,
			"0.008": 6.3012414576,
			"0.009": 5.64894300342,
			"0.01": 6.5630356694,
			"0.011": 9.18777736338,
			"0.012": 7.97485940882,
			"0.013": 3.20694003116,
			"0.014": 1.44936367422,
			"0.015": 0.881269862289,
			"0.016": 0.00404049830102,
			"0.017": 0.0,
			"0.018": 0.0,
			"0.019": 0.0,
			"0.02": 0.0,
			"0.021": 0.0,
			"0.022": 0.0,
			"0.023": 0.0,
			"0.024": 0.0,
			"0.025": 0.0
		}
	}
}
