{
	 "smiles": "CON(C)C(=O)CC1=CC=C(Cl)C=C1", 
	 "Tm": 319.15, 
	 "num_atms": 26, 
	 "gaussian": { 
		 "optdone": 1, 
		 "sigma_profile": "yes", 
		 "theory": "DFT", 
		 "functional": "B3LYP", 
		 "basiset": "6-31G**", 
		 "properties": { 
			 "R2extent": 5155.8562, 
			 "electric_dipole_moment_norm": 3.49562110218, 
			 "electric_quadrupole_moment_norm": 13.0253334552, 
			 "total_energy": -1053.63860138, 
			 "HOMO_LUMO_gap": 0.22156, 
			 "cosmo_polarized_energy": -9.81, 
			 "cosmo_cavitation_energy": 31.77, 
			 "cosmo_dispersion_energy": -22.19, 
			 "cosmo_repulsion_energy": 1.76, 
			 "cosmo_total_nonelectrostatic_energy": 11.34, 
			 "SMD_solvation_energy": 6.86 
		},
		"coords": [
			{
				"x": -0.7184672388,
				"y": -2.9578573406,
				"z": 0.1003436001,
				"element": "C" 
			},
			{
				"x": -1.5017485624,
				"y": -1.7654993434,
				"z": 0.2371852233,
				"element": "O" 
			},
			{
				"x": -1.3121312689,
				"y": -0.9261575906,
				"z": -0.8749555436,
				"element": "N" 
			},
			{
				"x": -2.3286726921,
				"y": -1.0910169739,
				"z": -1.9011833574,
				"element": "C" 
			},
			{
				"x": -0.6723352347,
				"y": 0.2810217356,
				"z": -0.6765704675,
				"element": "C" 
			},
			{
				"x": -0.695479331,
				"y": 1.1491396429,
				"z": -1.5424549055,
				"element": "O" 
			},
			{
				"x": 0.1225730673,
				"y": 0.4542432967,
				"z": 0.6152579209,
				"element": "C" 
			},
			{
				"x": 1.5937990224,
				"y": 0.1127280913,
				"z": 0.4349840552,
				"element": "C" 
			},
			{
				"x": 2.3414634081,
				"y": 0.6898200322,
				"z": -0.6019304833,
				"element": "C" 
			},
			{
				"x": 3.6939131968,
				"y": 0.3941377306,
				"z": -0.7609968454,
				"element": "C" 
			},
			{
				"x": 4.3091655449,
				"y": -0.4873955127,
				"z": 0.1285882854,
				"element": "C" 
			},
			{
				"x": 6.0171290504,
				"y": -0.8636488947,
				"z": -0.0655146541,
				"element": "Cl" 
			},
			{
				"x": 3.5917292229,
				"y": -1.0732843748,
				"z": 1.1685117093,
				"element": "C" 
			},
			{
				"x": 2.2364180756,
				"y": -0.7683869878,
				"z": 1.3122576724,
				"element": "C" 
			},
			{
				"x": -0.9530577532,
				"y": -3.5562636156,
				"z": 0.9837581245,
				"element": "H" 
			},
			{
				"x": 0.3516568823,
				"y": -2.7286878121,
				"z": 0.0746268257,
				"element": "H" 
			},
			{
				"x": -0.9966734438,
				"y": -3.5176347061,
				"z": -0.8001339228,
				"element": "H" 
			},
			{
				"x": -2.2592331063,
				"y": -2.0886877073,
				"z": -2.3437159281,
				"element": "H" 
			},
			{
				"x": -2.1427892155,
				"y": -0.3380526522,
				"z": -2.6657920636,
				"element": "H" 
			},
			{
				"x": -3.3307983845,
				"y": -0.9529297814,
				"z": -1.4792567502,
				"element": "H" 
			},
			{
				"x": -0.3067023813,
				"y": -0.1382484116,
				"z": 1.4233820665,
				"element": "H" 
			},
			{
				"x": 0.0201879893,
				"y": 1.5143167921,
				"z": 0.8693349103,
				"element": "H" 
			},
			{
				"x": 1.8509040157,
				"y": 1.3681356683,
				"z": -1.2932748442,
				"element": "H" 
			},
			{
				"x": 4.2671663205,
				"y": 0.8423232137,
				"z": -1.5651670307,
				"element": "H" 
			},
			{
				"x": 4.0831320239,
				"y": -1.7546524278,
				"z": 1.8543268243,
				"element": "H" 
			},
			{
				"x": 1.6769507924,
				"y": -1.2195620707,
				"z": 2.1276895787,
				"element": "H" 
			}
		],
		 "valence_orbital": [ 
			{
				"type": "occ",
				"energy": -0.30405,
				"method": "rhf"
			},
			{
				"type": "occ",
				"energy": -0.2632,
				"method": "rhf"
			},
			{
				"type": "occ",
				"energy": -0.25765,
				"method": "rhf"
			},
			{
				"type": "occ",
				"energy": -0.25011,
				"method": "rhf"
			},
			{
				"type": "occ",
				"energy": -0.23772,
				"method": "rhf"
			},
			{
				"type": "unocc",
				"energy": -0.01616,
				"method": "rhf"
			},
			{
				"type": "unocc",
				"energy": -0.01563,
				"method": "rhf"
			},
			{
				"type": "unocc",
				"energy": 0.01589,
				"method": "rhf"
			},
			{
				"type": "unocc",
				"energy": 0.03137,
				"method": "rhf"
			},
			{
				"type": "unocc",
				"energy": 0.07272,
				"method": "rhf"
			}
		],
		"cosmo_sigma_profile": { 
			"-0.025": 0.0,
			"-0.024": 0.0,
			"-0.023": 0.0,
			"-0.022": 0.0,
			"-0.021": 0.0,
			"-0.02": 0.0,
			"-0.019": 0.0,
			"-0.018": 0.0,
			"-0.017": 0.0,
			"-0.016": 0.0,
			"-0.015": 0.0,
			"-0.014": 0.0,
			"-0.013": 0.0,
			"-0.012": 0.0,
			"-0.011": 0.0,
			"-0.01": 0.0,
			"-0.009": 0.0,
			"-0.008": 0.0957859450901,
			"-0.007": 4.77011653498,
			"-0.006": 13.6199101398,
			"-0.005": 16.8251074956,
			"-0.004": 25.1366579303,
			"-0.003": 29.3845059937,
			"-0.002": 24.6350883642,
			"-0.001": 16.7249988149,
			"0.0": 15.6489627837,
			"0.001": 16.2281355559,
			"0.002": 20.3496405549,
			"0.003": 19.7975758644,
			"0.004": 19.5674421783,
			"0.005": 10.7971637985,
			"0.006": 2.33541908369,
			"0.007": 2.80694184254,
			"0.008": 2.17992359545,
			"0.009": 1.89991892098,
			"0.01": 2.15104521859,
			"0.011": 2.41448297815,
			"0.012": 2.1047147699,
			"0.013": 4.20349545749,
			"0.014": 0.691138591968,
			"0.015": 0.0,
			"0.016": 0.0,
			"0.017": 0.0,
			"0.018": 0.0,
			"0.019": 0.0,
			"0.02": 0.0,
			"0.021": 0.0,
			"0.022": 0.0,
			"0.023": 0.0,
			"0.024": 0.0,
			"0.025": 0.0
		}
	}
}
