{
	 "smiles": "BrC1=CC2C(C3C=CC2(Br)C32OCCO2)C11OCCO1", 
	 "Tm": 452.15, 
	 "num_atms": 34, 
	 "gaussian": { 
		 "optdone": 1, 
		 "sigma_profile": "yes", 
		 "theory": "DFT", 
		 "functional": "B3LYP", 
		 "basiset": "6-31G**", 
		 "properties": { 
			 "R2extent": 7457.1847, 
			 "electric_dipole_moment_norm": 3.42829290172, 
			 "electric_quadrupole_moment_norm": 10.800798196, 
			 "total_energy": -5985.52445375, 
			 "HOMO_LUMO_gap": 0.23033, 
			 "cosmo_polarized_energy": -13.33, 
			 "cosmo_cavitation_energy": 38.28, 
			 "cosmo_dispersion_energy": -27.29, 
			 "cosmo_repulsion_energy": 2.09, 
			 "cosmo_total_nonelectrostatic_energy": 13.09, 
			 "SMD_solvation_energy": 3.96 
		},
		"coords": [
			{
				"x": 0.1133510384,
				"y": 1.4666532098,
				"z": 3.722196354,
				"element": "Br" 
			},
			{
				"x": 0.3329390436,
				"y": 0.682572098,
				"z": 2.0093463882,
				"element": "C" 
			},
			{
				"x": 0.8392852355,
				"y": 1.2889611998,
				"z": 0.9382408269,
				"element": "C" 
			},
			{
				"x": 0.882440061,
				"y": 0.3702565561,
				"z": -0.2546495937,
				"element": "C" 
			},
			{
				"x": 0.2126206211,
				"y": -0.9597541446,
				"z": 0.2513278186,
				"element": "C" 
			},
			{
				"x": -0.977447055,
				"y": -1.1602353892,
				"z": -0.7393891706,
				"element": "C" 
			},
			{
				"x": -0.3310379044,
				"y": -1.4777585854,
				"z": -2.0793940305,
				"element": "C" 
			},
			{
				"x": 0.2593833645,
				"y": -0.3630758563,
				"z": -2.5317396843,
				"element": "C" 
			},
			{
				"x": 0.0054146705,
				"y": 0.7211870513,
				"z": -1.5050092395,
				"element": "C" 
			},
			{
				"x": 0.2024025014,
				"y": 2.5523497066,
				"z": -2.1630995775,
				"element": "Br" 
			},
			{
				"x": -1.4299791375,
				"y": 0.3109204419,
				"z": -1.0373557222,
				"element": "C" 
			},
			{
				"x": -1.8826763207,
				"y": 1.0707441668,
				"z": 0.0453043397,
				"element": "O" 
			},
			{
				"x": -3.2885937526,
				"y": 1.2601290698,
				"z": -0.1029078276,
				"element": "C" 
			},
			{
				"x": -3.4334819998,
				"y": 1.2868081544,
				"z": -1.619446956,
				"element": "C" 
			},
			{
				"x": -2.4281982341,
				"y": 0.3603487315,
				"z": -2.0352042377,
				"element": "O" 
			},
			{
				"x": -0.1030240502,
				"y": -0.7497288643,
				"z": 1.7658334524,
				"element": "C" 
			},
			{
				"x": -1.4644296744,
				"y": -1.0085940553,
				"z": 2.073920757,
				"element": "O" 
			},
			{
				"x": -1.5170302435,
				"y": -1.8132333918,
				"z": 3.2534439392,
				"element": "C" 
			},
			{
				"x": -0.2012501583,
				"y": -2.5787634086,
				"z": 3.179955351,
				"element": "C" 
			},
			{
				"x": 0.6734177834,
				"y": -1.6244103314,
				"z": 2.5855512872,
				"element": "O" 
			},
			{
				"x": 1.1973709285,
				"y": 2.3104770624,
				"z": 0.9030498881,
				"element": "H" 
			},
			{
				"x": 1.9159110214,
				"y": 0.2267238097,
				"z": -0.5870516156,
				"element": "H" 
			},
			{
				"x": 0.8990232802,
				"y": -1.8061008643,
				"z": 0.1894682411,
				"element": "H" 
			},
			{
				"x": -1.760737947,
				"y": -1.8309158958,
				"z": -0.3889517521,
				"element": "H" 
			},
			{
				"x": -0.3176673385,
				"y": -2.4576844321,
				"z": -2.5431458171,
				"element": "H" 
			},
			{
				"x": 0.8508252953,
				"y": -0.2227202302,
				"z": -3.4273423098,
				"element": "H" 
			},
			{
				"x": -3.8396334816,
				"y": 0.425815453,
				"z": 0.3511863873,
				"element": "H" 
			},
			{
				"x": -3.5607663425,
				"y": 2.1929246874,
				"z": 0.3956291576,
				"element": "H" 
			},
			{
				"x": -3.2301015315,
				"y": 2.2850253984,
				"z": -2.0269068295,
				"element": "H" 
			},
			{
				"x": -4.4007929103,
				"y": 0.9305502386,
				"z": -1.9833732673,
				"element": "H" 
			},
			{
				"x": -2.4065403174,
				"y": -2.4465268813,
				"z": 3.1969047093,
				"element": "H" 
			},
			{
				"x": -1.568157432,
				"y": -1.1831651888,
				"z": 4.1497067433,
				"element": "H" 
			},
			{
				"x": 0.2054842957,
				"y": -2.8618306359,
				"z": 4.1542108411,
				"element": "H" 
			},
			{
				"x": -0.2923233093,
				"y": -3.4766488802,
				"z": 2.5506911489,
				"element": "H" 
			}
		],
		 "valence_orbital": [ 
			{
				"type": "occ",
				"energy": -0.26923,
				"method": "rhf"
			},
			{
				"type": "occ",
				"energy": -0.26284,
				"method": "rhf"
			},
			{
				"type": "occ",
				"energy": -0.24776,
				"method": "rhf"
			},
			{
				"type": "occ",
				"energy": -0.24597,
				"method": "rhf"
			},
			{
				"type": "occ",
				"energy": -0.23447,
				"method": "rhf"
			},
			{
				"type": "unocc",
				"energy": -0.00414,
				"method": "rhf"
			},
			{
				"type": "unocc",
				"energy": 0.00567,
				"method": "rhf"
			},
			{
				"type": "unocc",
				"energy": 0.01758,
				"method": "rhf"
			},
			{
				"type": "unocc",
				"energy": 0.02506,
				"method": "rhf"
			},
			{
				"type": "unocc",
				"energy": 0.08474,
				"method": "rhf"
			}
		],
		"cosmo_sigma_profile": { 
			"-0.025": 0.0,
			"-0.024": 0.0,
			"-0.023": 0.0,
			"-0.022": 0.0,
			"-0.021": 0.0,
			"-0.02": 0.0,
			"-0.019": 0.0,
			"-0.018": 0.0,
			"-0.017": 0.0,
			"-0.016": 0.0,
			"-0.015": 0.0,
			"-0.014": 0.0,
			"-0.013": 0.0,
			"-0.012": 0.0,
			"-0.011": 0.0,
			"-0.01": 0.0,
			"-0.009": 0.0,
			"-0.008": 0.105803959494,
			"-0.007": 5.11274726187,
			"-0.006": 18.5793713721,
			"-0.005": 32.5553730359,
			"-0.004": 33.0175560787,
			"-0.003": 31.8441206058,
			"-0.002": 23.0959070228,
			"-0.001": 16.9340848547,
			"0.0": 15.380049705,
			"0.001": 15.7494651209,
			"0.002": 18.2704058364,
			"0.003": 18.4432037787,
			"0.004": 20.2274656166,
			"0.005": 19.0830121102,
			"0.006": 10.9344682927,
			"0.007": 7.88747527492,
			"0.008": 5.89567522773,
			"0.009": 5.21236636186,
			"0.01": 3.80552847177,
			"0.011": 3.39423582215,
			"0.012": 2.44223298084,
			"0.013": 0.321578607756,
			"0.014": 0.0,
			"0.015": 0.0,
			"0.016": 0.0,
			"0.017": 0.0,
			"0.018": 0.0,
			"0.019": 0.0,
			"0.02": 0.0,
			"0.021": 0.0,
			"0.022": 0.0,
			"0.023": 0.0,
			"0.024": 0.0,
			"0.025": 0.0
		}
	}
}
