{
	 "smiles": "FC1=C(Cl)C=C(C=O)C=C1", 
	 "Tm": 302.15, 
	 "num_atms": 14, 
	 "gaussian": { 
		 "optdone": 1, 
		 "sigma_profile": "yes", 
		 "theory": "DFT", 
		 "functional": "B3LYP", 
		 "basiset": "6-31G**", 
		 "properties": { 
			 "R2extent": 3042.3757, 
			 "electric_dipole_moment_norm": 0.768045792906, 
			 "electric_quadrupole_moment_norm": 11.7870989073, 
			 "total_energy": -904.392902127, 
			 "HOMO_LUMO_gap": 0.18921, 
			 "cosmo_polarized_energy": -7.25, 
			 "cosmo_cavitation_energy": 21.39, 
			 "cosmo_dispersion_energy": -15.65, 
			 "cosmo_repulsion_energy": 1.24, 
			 "cosmo_total_nonelectrostatic_energy": 6.98, 
			 "SMD_solvation_energy": 5.03 
		},
		"coords": [
			{
				"x": -2.1127904335,
				"y": -0.0172619062,
				"z": -3.2350026012,
				"element": "F" 
			},
			{
				"x": -1.068113528,
				"y": -0.2116084438,
				"z": -2.4231663323,
				"element": "C" 
			},
			{
				"x": 0.0931768281,
				"y": -0.807776534,
				"z": -2.9250390343,
				"element": "C" 
			},
			{
				"x": 0.1643521776,
				"y": -1.2892541699,
				"z": -4.5993849207,
				"element": "Cl" 
			},
			{
				"x": 1.17548627,
				"y": -1.0060457237,
				"z": -2.0726699429,
				"element": "C" 
			},
			{
				"x": 1.0939093634,
				"y": -0.6107891908,
				"z": -0.731950458,
				"element": "C" 
			},
			{
				"x": 2.2513219805,
				"y": -0.8262747574,
				"z": 0.1668666609,
				"element": "C" 
			},
			{
				"x": 2.2722153267,
				"y": -0.5166505447,
				"z": 1.3420378613,
				"element": "O" 
			},
			{
				"x": -0.0788341061,
				"y": -0.0138668161,
				"z": -0.243951622,
				"element": "C" 
			},
			{
				"x": -1.1613251707,
				"y": 0.1862056993,
				"z": -1.0899956136,
				"element": "C" 
			},
			{
				"x": 2.0802202617,
				"y": -1.4685344667,
				"z": -2.4563687338,
				"element": "H" 
			},
			{
				"x": 3.1311706557,
				"y": -1.3059684879,
				"z": -0.3160878978,
				"element": "H" 
			},
			{
				"x": -0.1157872423,
				"y": 0.2829932556,
				"z": 0.798781932,
				"element": "H" 
			},
			{
				"x": -2.0833023832,
				"y": 0.6441320862,
				"z": -0.7483692976,
				"element": "H" 
			}
		],
		 "valence_orbital": [ 
			{
				"type": "occ",
				"energy": -0.34874,
				"method": "rhf"
			},
			{
				"type": "occ",
				"energy": -0.33156,
				"method": "rhf"
			},
			{
				"type": "occ",
				"energy": -0.28226,
				"method": "rhf"
			},
			{
				"type": "occ",
				"energy": -0.26769,
				"method": "rhf"
			},
			{
				"type": "occ",
				"energy": -0.26422,
				"method": "rhf"
			},
			{
				"type": "unocc",
				"energy": -0.07501,
				"method": "rhf"
			},
			{
				"type": "unocc",
				"energy": -0.0381,
				"method": "rhf"
			},
			{
				"type": "unocc",
				"energy": 0.01005,
				"method": "rhf"
			},
			{
				"type": "unocc",
				"energy": 0.02647,
				"method": "rhf"
			},
			{
				"type": "unocc",
				"energy": 0.10099,
				"method": "rhf"
			}
		],
		"cosmo_sigma_profile": { 
			"-0.025": 0.0,
			"-0.024": 0.0,
			"-0.023": 0.0,
			"-0.022": 0.0,
			"-0.021": 0.0,
			"-0.02": 0.0,
			"-0.019": 0.0,
			"-0.018": 0.0,
			"-0.017": 0.0,
			"-0.016": 0.0,
			"-0.015": 0.0,
			"-0.014": 0.0,
			"-0.013": 0.0,
			"-0.012": 0.0,
			"-0.011": 0.0,
			"-0.01": 0.283526271343,
			"-0.009": 3.62215915686,
			"-0.008": 5.35309688327,
			"-0.007": 7.31160842779,
			"-0.006": 7.72156923855,
			"-0.005": 6.78415484849,
			"-0.004": 7.61360989511,
			"-0.003": 8.19710604827,
			"-0.002": 14.1905491025,
			"-0.001": 17.1518830462,
			"0.0": 20.2971790128,
			"0.001": 16.3582578702,
			"0.002": 11.5332639087,
			"0.003": 17.8271220917,
			"0.004": 11.9527768495,
			"0.005": 2.43934380981,
			"0.006": 1.55479560354,
			"0.007": 1.48022543738,
			"0.008": 2.04175783099,
			"0.009": 1.80055391727,
			"0.01": 3.11322206163,
			"0.011": 4.1975128615,
			"0.012": 1.91552457329,
			"0.013": 0.301500943518,
			"0.014": 0.0,
			"0.015": 0.0,
			"0.016": 0.0,
			"0.017": 0.0,
			"0.018": 0.0,
			"0.019": 0.0,
			"0.02": 0.0,
			"0.021": 0.0,
			"0.022": 0.0,
			"0.023": 0.0,
			"0.024": 0.0,
			"0.025": 0.0
		}
	}
}
