{
	 "smiles": "COC(=O)C1(N)CCS(=O)(=O)CC1", 
	 "Tm": 398.15, 
	 "num_atms": 26, 
	 "gaussian": { 
		 "optdone": 1, 
		 "sigma_profile": "yes", 
		 "theory": "DFT", 
		 "functional": "B3LYP", 
		 "basiset": "6-31G**", 
		 "properties": { 
			 "R2extent": 3806.8753, 
			 "electric_dipole_moment_norm": 5.41248062352, 
			 "electric_quadrupole_moment_norm": 31.8705594308, 
			 "total_energy": -1028.35955368, 
			 "HOMO_LUMO_gap": 0.25451, 
			 "cosmo_polarized_energy": -20.58, 
			 "cosmo_cavitation_energy": 29.03, 
			 "cosmo_dispersion_energy": -21.33, 
			 "cosmo_repulsion_energy": 1.64, 
			 "cosmo_total_nonelectrostatic_energy": 9.35, 
			 "SMD_solvation_energy": 4.71 
		},
		"coords": [
			{
				"x": 0.2146105185,
				"y": 0.668010461,
				"z": -4.1061569475,
				"element": "C" 
			},
			{
				"x": 0.6876551315,
				"y": 0.3193132039,
				"z": -2.7896451096,
				"element": "O" 
			},
			{
				"x": -0.2620612535,
				"y": -0.0526186263,
				"z": -1.9055684612,
				"element": "C" 
			},
			{
				"x": -1.4428633018,
				"y": -0.1047592882,
				"z": -2.1752992973,
				"element": "O" 
			},
			{
				"x": 0.3248223038,
				"y": -0.3669797132,
				"z": -0.5131976422,
				"element": "C" 
			},
			{
				"x": -0.6828436937,
				"y": -0.975740381,
				"z": 0.3539483019,
				"element": "N" 
			},
			{
				"x": 1.5235455185,
				"y": -1.3583175534,
				"z": -0.6221923906,
				"element": "C" 
			},
			{
				"x": 2.8925129395,
				"y": -0.6931244352,
				"z": -0.7665903432,
				"element": "C" 
			},
			{
				"x": 3.3320833324,
				"y": 0.2173096468,
				"z": 0.7569117768,
				"element": "S" 
			},
			{
				"x": 3.8675352787,
				"y": -0.7454606139,
				"z": 1.7341766044,
				"element": "O" 
			},
			{
				"x": 4.111969294,
				"y": 1.4055627523,
				"z": 0.3699651142,
				"element": "O" 
			},
			{
				"x": 1.6853560715,
				"y": 0.7655250174,
				"z": 1.325667215,
				"element": "C" 
			},
			{
				"x": 0.7609994931,
				"y": 0.9834984138,
				"z": 0.1289043589,
				"element": "C" 
			},
			{
				"x": -0.4852384951,
				"y": 1.5047601613,
				"z": -4.0499722387,
				"element": "H" 
			},
			{
				"x": 1.102556131,
				"y": 0.9460887158,
				"z": -4.6727536974,
				"element": "H" 
			},
			{
				"x": -0.2876186823,
				"y": -0.1845510969,
				"z": -4.5689510472,
				"element": "H" 
			},
			{
				"x": -1.5689833608,
				"y": -0.4936597363,
				"z": 0.2108104366,
				"element": "H" 
			},
			{
				"x": -0.8535922677,
				"y": -1.9350590561,
				"z": 0.0577089361,
				"element": "H" 
			},
			{
				"x": 1.5207201112,
				"y": -1.9698142515,
				"z": 0.2865828858,
				"element": "H" 
			},
			{
				"x": 1.3709830796,
				"y": -2.0434774628,
				"z": -1.4628580689,
				"element": "H" 
			},
			{
				"x": 2.9273689431,
				"y": 0.0142389427,
				"z": -1.5958653797,
				"element": "H" 
			},
			{
				"x": 3.6906549207,
				"y": -1.4306265798,
				"z": -0.8833225251,
				"element": "H" 
			},
			{
				"x": 1.8751380887,
				"y": 1.6868201995,
				"z": 1.8819191392,
				"element": "H" 
			},
			{
				"x": 1.2911601545,
				"y": 0.0007729388,
				"z": 1.9976560736,
				"element": "H" 
			},
			{
				"x": 1.2533206544,
				"y": 1.6213762743,
				"z": -0.6118491887,
				"element": "H" 
			},
			{
				"x": -0.1383909101,
				"y": 1.5148120668,
				"z": 0.4581714949,
				"element": "H" 
			}
		],
		 "valence_orbital": [ 
			{
				"type": "occ",
				"energy": -0.3021,
				"method": "rhf"
			},
			{
				"type": "occ",
				"energy": -0.29317,
				"method": "rhf"
			},
			{
				"type": "occ",
				"energy": -0.28754,
				"method": "rhf"
			},
			{
				"type": "occ",
				"energy": -0.27512,
				"method": "rhf"
			},
			{
				"type": "occ",
				"energy": -0.26591,
				"method": "rhf"
			},
			{
				"type": "unocc",
				"energy": -0.0114,
				"method": "rhf"
			},
			{
				"type": "unocc",
				"energy": 0.0547,
				"method": "rhf"
			},
			{
				"type": "unocc",
				"energy": 0.07252,
				"method": "rhf"
			},
			{
				"type": "unocc",
				"energy": 0.07861,
				"method": "rhf"
			},
			{
				"type": "unocc",
				"energy": 0.08307,
				"method": "rhf"
			}
		],
		"cosmo_sigma_profile": { 
			"-0.025": 0.0,
			"-0.024": 0.0,
			"-0.023": 0.0,
			"-0.022": 0.0,
			"-0.021": 0.0,
			"-0.02": 0.0,
			"-0.019": 0.0,
			"-0.018": 0.0,
			"-0.017": 0.0,
			"-0.016": 0.0,
			"-0.015": 0.0,
			"-0.014": 0.0,
			"-0.013": 0.0,
			"-0.012": 0.0,
			"-0.011": 0.566786879182,
			"-0.01": 1.75335991806,
			"-0.009": 2.93833348979,
			"-0.008": 8.575026308,
			"-0.007": 10.6159888771,
			"-0.006": 19.4320309718,
			"-0.005": 24.7525200145,
			"-0.004": 28.5491371483,
			"-0.003": 19.9738779943,
			"-0.002": 11.0636498449,
			"-0.001": 8.88897517216,
			"0.0": 7.62919563215,
			"0.001": 7.85200166689,
			"0.002": 6.00386039124,
			"0.003": 4.82295740426,
			"0.004": 4.40721578136,
			"0.005": 4.03890890574,
			"0.006": 3.22290149137,
			"0.007": 4.1403614673,
			"0.008": 4.16005598107,
			"0.009": 4.61108353408,
			"0.01": 6.27463926239,
			"0.011": 12.5184982148,
			"0.012": 14.0169590321,
			"0.013": 4.55942616631,
			"0.014": 0.825259950639,
			"0.015": 0.357193470551,
			"0.016": 0.0439431266904,
			"0.017": 0.0,
			"0.018": 0.0,
			"0.019": 0.0,
			"0.02": 0.0,
			"0.021": 0.0,
			"0.022": 0.0,
			"0.023": 0.0,
			"0.024": 0.0,
			"0.025": 0.0
		}
	}
}
