{
	 "smiles": "CC1=NN(CC2=CC(=CC=C2)C(N)=NO)C(C)=C1", 
	 "Tm": 411.15, 
	 "num_atms": 34, 
	 "gaussian": { 
		 "optdone": 1, 
		 "sigma_profile": "yes", 
		 "theory": "DFT", 
		 "functional": "B3LYP", 
		 "basiset": "6-31G**", 
		 "properties": { 
			 "R2extent": 5633.2082, 
			 "electric_dipole_moment_norm": 1.32442637017, 
			 "electric_quadrupole_moment_norm": 10.5107748306, 
			 "total_energy": -799.20654189, 
			 "HOMO_LUMO_gap": 0.17997, 
			 "cosmo_polarized_energy": -16.19, 
			 "cosmo_cavitation_energy": 37.97, 
			 "cosmo_dispersion_energy": -26.22, 
			 "cosmo_repulsion_energy": 2.08, 
			 "cosmo_total_nonelectrostatic_energy": 13.83, 
			 "SMD_solvation_energy": 5.75 
		},
		"coords": [
			{
				"x": -1.4634063343,
				"y": 4.315398702,
				"z": 1.8133958728,
				"element": "C" 
			},
			{
				"x": -0.3706390258,
				"y": 3.3186571839,
				"z": 1.570556448,
				"element": "C" 
			},
			{
				"x": -0.0050646269,
				"y": 3.0076053009,
				"z": 0.325740221,
				"element": "N" 
			},
			{
				"x": 1.0016219853,
				"y": 2.1028493186,
				"z": 0.4668011641,
				"element": "N" 
			},
			{
				"x": 1.5721117453,
				"y": 1.4901341547,
				"z": -0.7212846452,
				"element": "C" 
			},
			{
				"x": 0.9553594017,
				"y": 0.148977901,
				"z": -1.0891102051,
				"element": "C" 
			},
			{
				"x": -0.4310594597,
				"y": -0.0342338722,
				"z": -1.0199556996,
				"element": "C" 
			},
			{
				"x": -1.0141425421,
				"y": -1.2510333971,
				"z": -1.3956365307,
				"element": "C" 
			},
			{
				"x": -0.1895460062,
				"y": -2.2988786324,
				"z": -1.8397650396,
				"element": "C" 
			},
			{
				"x": 1.1879952923,
				"y": -2.1231295591,
				"z": -1.9006016749,
				"element": "C" 
			},
			{
				"x": 1.7622352317,
				"y": -0.9036440416,
				"z": -1.5277254056,
				"element": "C" 
			},
			{
				"x": -2.4847090519,
				"y": -1.4362636233,
				"z": -1.3293838443,
				"element": "C" 
			},
			{
				"x": -3.2875282506,
				"y": -0.315318993,
				"z": -1.2795620164,
				"element": "N" 
			},
			{
				"x": -2.9342116156,
				"y": -2.6494821668,
				"z": -1.2700399211,
				"element": "N" 
			},
			{
				"x": -4.3571643792,
				"y": -2.6294616198,
				"z": -1.2542388888,
				"element": "O" 
			},
			{
				"x": 1.2708076238,
				"y": 1.8217568311,
				"z": 1.7767019786,
				"element": "C" 
			},
			{
				"x": 2.3234000945,
				"y": 0.8478817206,
				"z": 2.2024398875,
				"element": "C" 
			},
			{
				"x": 0.4011221482,
				"y": 2.6020620292,
				"z": 2.5175370259,
				"element": "C" 
			},
			{
				"x": -1.101077809,
				"y": 5.1777597838,
				"z": 2.3845665643,
				"element": "H" 
			},
			{
				"x": -2.2900767923,
				"y": 3.8734869302,
				"z": 2.3811162357,
				"element": "H" 
			},
			{
				"x": -1.8551381093,
				"y": 4.6765072943,
				"z": 0.8596548622,
				"element": "H" 
			},
			{
				"x": 1.4204554906,
				"y": 2.2148181501,
				"z": -1.5268016452,
				"element": "H" 
			},
			{
				"x": 2.6517692527,
				"y": 1.3778290739,
				"z": -0.5800144306,
				"element": "H" 
			},
			{
				"x": -1.0457882047,
				"y": 0.777147478,
				"z": -0.6430391297,
				"element": "H" 
			},
			{
				"x": -0.6471545831,
				"y": -3.2375994091,
				"z": -2.1300808589,
				"element": "H" 
			},
			{
				"x": 1.8216451381,
				"y": -2.9370686383,
				"z": -2.2411128527,
				"element": "H" 
			},
			{
				"x": 2.8406369814,
				"y": -0.7730034472,
				"z": -1.5808288293,
				"element": "H" 
			},
			{
				"x": -4.2712464159,
				"y": -0.5134653571,
				"z": -1.3995746021,
				"element": "H" 
			},
			{
				"x": -2.9536565939,
				"y": 0.4982947866,
				"z": -1.774524856,
				"element": "H" 
			},
			{
				"x": -4.5684098002,
				"y": -3.5690747133,
				"z": -1.2022506769,
				"element": "H" 
			},
			{
				"x": 2.3368040197,
				"y": 0.7706362058,
				"z": 3.2916993313,
				"element": "H" 
			},
			{
				"x": 3.3248251183,
				"y": 1.15802272,
				"z": 1.8791013131,
				"element": "H" 
			},
			{
				"x": 2.1408770062,
				"y": -0.1527110339,
				"z": 1.7946253785,
				"element": "H" 
			},
			{
				"x": 0.3395530707,
				"y": 2.6494429394,
				"z": 3.5955954694,
				"element": "H" 
			}
		],
		 "valence_orbital": [ 
			{
				"type": "occ",
				"energy": -0.25548,
				"method": "rhf"
			},
			{
				"type": "occ",
				"energy": -0.25083,
				"method": "rhf"
			},
			{
				"type": "occ",
				"energy": -0.22887,
				"method": "rhf"
			},
			{
				"type": "occ",
				"energy": -0.22638,
				"method": "rhf"
			},
			{
				"type": "occ",
				"energy": -0.20589,
				"method": "rhf"
			},
			{
				"type": "unocc",
				"energy": -0.02592,
				"method": "rhf"
			},
			{
				"type": "unocc",
				"energy": -0.00795,
				"method": "rhf"
			},
			{
				"type": "unocc",
				"energy": 0.02906,
				"method": "rhf"
			},
			{
				"type": "unocc",
				"energy": 0.06231,
				"method": "rhf"
			},
			{
				"type": "unocc",
				"energy": 0.0757,
				"method": "rhf"
			}
		],
		"cosmo_sigma_profile": { 
			"-0.025": 0.0,
			"-0.024": 0.0,
			"-0.023": 0.0,
			"-0.022": 0.0,
			"-0.021": 0.0,
			"-0.02": 0.0,
			"-0.019": 0.0,
			"-0.018": 0.0,
			"-0.017": 0.456407590702,
			"-0.016": 0.888523515187,
			"-0.015": 0.975999043839,
			"-0.014": 1.13417226068,
			"-0.013": 1.24459406047,
			"-0.012": 1.68218208398,
			"-0.011": 3.04480187606,
			"-0.01": 2.64399812843,
			"-0.009": 2.5199641469,
			"-0.008": 2.69128887705,
			"-0.007": 6.40699902093,
			"-0.006": 13.1159295725,
			"-0.005": 16.4560753505,
			"-0.004": 22.8852328913,
			"-0.003": 22.6473280847,
			"-0.002": 23.5055930621,
			"-0.001": 25.6885323322,
			"0.0": 22.2266176065,
			"0.001": 17.7122873022,
			"0.002": 18.7480810775,
			"0.003": 16.8121721802,
			"0.004": 17.985436324,
			"0.005": 16.1097762712,
			"0.006": 10.2929291457,
			"0.007": 8.1260398698,
			"0.008": 6.93496867334,
			"0.009": 4.61698036591,
			"0.01": 4.12474094421,
			"0.011": 2.5669595547,
			"0.012": 2.62177005885,
			"0.013": 1.49033735912,
			"0.014": 0.588498294109,
			"0.015": 0.930566920524,
			"0.016": 0.687973744082,
			"0.017": 0.0210291237246,
			"0.018": 0.0,
			"0.019": 0.0,
			"0.02": 0.0,
			"0.021": 0.0,
			"0.022": 0.0,
			"0.023": 0.0,
			"0.024": 0.0,
			"0.025": 0.0
		}
	}
}
