{
	 "smiles": "NC1=CN=C(C=C1)N1N=CC=N1", 
	 "Tm": 356.15, 
	 "num_atms": 19, 
	 "gaussian": { 
		 "optdone": 1, 
		 "sigma_profile": "yes", 
		 "theory": "DFT", 
		 "functional": "B3LYP", 
		 "basiset": "6-31G**", 
		 "properties": { 
			 "R2extent": 2643.7723, 
			 "electric_dipole_moment_norm": 3.45772177886, 
			 "electric_quadrupole_moment_norm": 16.6631830408, 
			 "total_energy": -544.678243401, 
			 "HOMO_LUMO_gap": 0.17645, 
			 "cosmo_polarized_energy": -16.39, 
			 "cosmo_cavitation_energy": 23.99, 
			 "cosmo_dispersion_energy": -18.15, 
			 "cosmo_repulsion_energy": 1.43, 
			 "cosmo_total_nonelectrostatic_energy": 7.27, 
			 "SMD_solvation_energy": 1.88 
		},
		"coords": [
			{
				"x": -3.1493966521,
				"y": 2.1821431503,
				"z": -0.4989637772,
				"element": "N" 
			},
			{
				"x": -2.3002622561,
				"y": 1.0964609592,
				"z": -0.3136723328,
				"element": "C" 
			},
			{
				"x": -0.9023278662,
				"y": 1.2462991033,
				"z": -0.3585061778,
				"element": "C" 
			},
			{
				"x": -0.0397018814,
				"y": 0.256664518,
				"z": -0.1360902342,
				"element": "N" 
			},
			{
				"x": -0.5289962242,
				"y": -0.9436014843,
				"z": 0.1445541101,
				"element": "C" 
			},
			{
				"x": -1.8975213152,
				"y": -1.2259840692,
				"z": 0.2184464049,
				"element": "C" 
			},
			{
				"x": -2.7873025221,
				"y": -0.1873531351,
				"z": -0.014616779,
				"element": "C" 
			},
			{
				"x": 0.4174136955,
				"y": -1.9877683399,
				"z": 0.3765251092,
				"element": "N" 
			},
			{
				"x": 0.0172832802,
				"y": -3.2343148555,
				"z": 0.6643177076,
				"element": "N" 
			},
			{
				"x": 1.1602952149,
				"y": -3.9028140556,
				"z": 0.8097948274,
				"element": "C" 
			},
			{
				"x": 2.2298652479,
				"y": -3.0138331597,
				"z": 0.5995100224,
				"element": "C" 
			},
			{
				"x": 1.7396497384,
				"y": -1.8049565945,
				"z": 0.3260232056,
				"element": "N" 
			},
			{
				"x": -4.0837714223,
				"y": 1.9603742609,
				"z": -0.813020723,
				"element": "H" 
			},
			{
				"x": -2.7526754277,
				"y": 2.9644371679,
				"z": -1.0010033428,
				"element": "H" 
			},
			{
				"x": -0.4689485806,
				"y": 2.2203948899,
				"z": -0.5851017394,
				"element": "H" 
			},
			{
				"x": -2.2369354665,
				"y": -2.2272994381,
				"z": 0.4494921401,
				"element": "H" 
			},
			{
				"x": -3.8580878308,
				"y": -0.3663074998,
				"z": 0.0380714445,
				"element": "H" 
			},
			{
				"x": 1.1618157881,
				"y": -4.9557455105,
				"z": 1.0508010022,
				"element": "H" 
			},
			{
				"x": 3.2959044803,
				"y": -3.1845959073,
				"z": 0.6318391322,
				"element": "H" 
			}
		],
		 "valence_orbital": [ 
			{
				"type": "occ",
				"energy": -0.28832,
				"method": "rhf"
			},
			{
				"type": "occ",
				"energy": -0.28201,
				"method": "rhf"
			},
			{
				"type": "occ",
				"energy": -0.27272,
				"method": "rhf"
			},
			{
				"type": "occ",
				"energy": -0.25962,
				"method": "rhf"
			},
			{
				"type": "occ",
				"energy": -0.20838,
				"method": "rhf"
			},
			{
				"type": "unocc",
				"energy": -0.03193,
				"method": "rhf"
			},
			{
				"type": "unocc",
				"energy": -0.02223,
				"method": "rhf"
			},
			{
				"type": "unocc",
				"energy": 0.03855,
				"method": "rhf"
			},
			{
				"type": "unocc",
				"energy": 0.06222,
				"method": "rhf"
			},
			{
				"type": "unocc",
				"energy": 0.06993,
				"method": "rhf"
			}
		],
		"cosmo_sigma_profile": { 
			"-0.025": 0.0,
			"-0.024": 0.0,
			"-0.023": 0.0,
			"-0.022": 0.0,
			"-0.021": 0.0,
			"-0.02": 0.0,
			"-0.019": 0.0,
			"-0.018": 0.0,
			"-0.017": 0.0,
			"-0.016": 0.0,
			"-0.015": 0.0,
			"-0.014": 0.15174930358,
			"-0.013": 2.61188697667,
			"-0.012": 3.05409109514,
			"-0.011": 3.39013727137,
			"-0.01": 3.63696683942,
			"-0.009": 4.87454418435,
			"-0.008": 7.637118093,
			"-0.007": 6.98725059037,
			"-0.006": 11.2090893652,
			"-0.005": 8.44536701907,
			"-0.004": 7.86393280753,
			"-0.003": 8.24106882929,
			"-0.002": 5.80265884253,
			"-0.001": 8.96779980682,
			"0.0": 13.6146989814,
			"0.001": 18.7162249066,
			"0.002": 21.6274081775,
			"0.003": 11.0346661873,
			"0.004": 5.91401254208,
			"0.005": 6.64770758149,
			"0.006": 4.66660162133,
			"0.007": 3.55755558436,
			"0.008": 3.99469566746,
			"0.009": 4.14157682057,
			"0.01": 3.83144625294,
			"0.011": 1.96133391911,
			"0.012": 2.50466088401,
			"0.013": 1.95461827993,
			"0.014": 1.42756773967,
			"0.015": 0.79291473013,
			"0.016": 1.59030366644,
			"0.017": 0.992571333217,
			"0.018": 0.99666122526,
			"0.019": 0.180655647878,
			"0.02": 0.0,
			"0.021": 0.0,
			"0.022": 0.0,
			"0.023": 0.0,
			"0.024": 0.0,
			"0.025": 0.0
		}
	}
}
