{
	 "smiles": "CC(C)(C)OC(=O)N1CCC(CC1)NCC(F)(F)F", 
	 "Tm": 325.15, 
	 "num_atms": 40, 
	 "gaussian": { 
		 "optdone": 1, 
		 "sigma_profile": "yes", 
		 "theory": "DFT", 
		 "functional": "B3LYP", 
		 "basiset": "6-31G**", 
		 "properties": { 
			 "R2extent": 8819.2325, 
			 "electric_dipole_moment_norm": 3.82546427771, 
			 "electric_quadrupole_moment_norm": 18.4856818722, 
			 "total_energy": -1029.44517886, 
			 "HOMO_LUMO_gap": 0.28494, 
			 "cosmo_polarized_energy": -13.12, 
			 "cosmo_cavitation_energy": 41.64, 
			 "cosmo_dispersion_energy": -28.19, 
			 "cosmo_repulsion_energy": 2.15, 
			 "cosmo_total_nonelectrostatic_energy": 15.6, 
			 "SMD_solvation_energy": 6.97 
		},
		"coords": [
			{
				"x": 2.3648340495,
				"y": 0.7829616014,
				"z": -3.4812616459,
				"element": "C" 
			},
			{
				"x": 2.6879905159,
				"y": 1.2522828289,
				"z": -2.0585192791,
				"element": "C" 
			},
			{
				"x": 4.1259498179,
				"y": 0.9158196028,
				"z": -1.6484893638,
				"element": "C" 
			},
			{
				"x": 2.4191827182,
				"y": 2.7523541216,
				"z": -1.9087521448,
				"element": "C" 
			},
			{
				"x": 1.7397047944,
				"y": 0.6618611219,
				"z": -1.1025550673,
				"element": "O" 
			},
			{
				"x": 1.6592604065,
				"y": -0.6840309036,
				"z": -0.943120058,
				"element": "C" 
			},
			{
				"x": 2.347801786,
				"y": -1.5112712053,
				"z": -1.5262607532,
				"element": "O" 
			},
			{
				"x": 0.6858420762,
				"y": -0.9954157099,
				"z": -0.0301209355,
				"element": "N" 
			},
			{
				"x": -0.0837119854,
				"y": 0.0269079702,
				"z": 0.6900114315,
				"element": "C" 
			},
			{
				"x": -1.2945495651,
				"y": -0.6143210445,
				"z": 1.3874768791,
				"element": "C" 
			},
			{
				"x": -1.964548817,
				"y": -1.6484987549,
				"z": 0.4612888392,
				"element": "C" 
			},
			{
				"x": -0.9842828058,
				"y": -2.8140277362,
				"z": 0.1886945031,
				"element": "C" 
			},
			{
				"x": 0.4881183711,
				"y": -2.389589766,
				"z": 0.357901822,
				"element": "C" 
			},
			{
				"x": -3.2386429841,
				"y": -2.1882548747,
				"z": 0.9458688799,
				"element": "N" 
			},
			{
				"x": -4.3857962234,
				"y": -1.3014942304,
				"z": 0.9111851044,
				"element": "C" 
			},
			{
				"x": -5.1749040271,
				"y": -1.4529516306,
				"z": -0.3820255591,
				"element": "C" 
			},
			{
				"x": -6.217675347,
				"y": -0.5889647361,
				"z": -0.3902924509,
				"element": "F" 
			},
			{
				"x": -4.41831493,
				"y": -1.180246432,
				"z": -1.4710517991,
				"element": "F" 
			},
			{
				"x": -5.6708759488,
				"y": -2.6928522984,
				"z": -0.5342234259,
				"element": "F" 
			},
			{
				"x": 2.5354148666,
				"y": -0.2885141374,
				"z": -3.5861621808,
				"element": "H" 
			},
			{
				"x": 2.9992263765,
				"y": 1.3158379617,
				"z": -4.1971864792,
				"element": "H" 
			},
			{
				"x": 1.3203364941,
				"y": 1.0022905376,
				"z": -3.725108613,
				"element": "H" 
			},
			{
				"x": 4.8278672704,
				"y": 1.4512964928,
				"z": -2.2961982658,
				"element": "H" 
			},
			{
				"x": 4.3134604961,
				"y": -0.1547214975,
				"z": -1.7309273875,
				"element": "H" 
			},
			{
				"x": 4.3093522509,
				"y": 1.2305680929,
				"z": -0.6160632577,
				"element": "H" 
			},
			{
				"x": 1.3811271292,
				"y": 2.9865465746,
				"z": -2.1627198929,
				"element": "H" 
			},
			{
				"x": 2.604650227,
				"y": 3.0772685258,
				"z": -0.8807190969,
				"element": "H" 
			},
			{
				"x": 3.0750179472,
				"y": 3.3203729877,
				"z": -2.5752457625,
				"element": "H" 
			},
			{
				"x": -0.4257416726,
				"y": 0.7746263979,
				"z": -0.0310859285,
				"element": "H" 
			},
			{
				"x": 0.5477407654,
				"y": 0.5531705807,
				"z": 1.4193849265,
				"element": "H" 
			},
			{
				"x": -1.9941787847,
				"y": 0.1817013145,
				"z": 1.6658044911,
				"element": "H" 
			},
			{
				"x": -0.991528923,
				"y": -1.1053379751,
				"z": 2.3221529097,
				"element": "H" 
			},
			{
				"x": -2.1823951219,
				"y": -1.150601248,
				"z": -0.489448351,
				"element": "H" 
			},
			{
				"x": -1.1631615497,
				"y": -3.2069839097,
				"z": -0.8164944691,
				"element": "H" 
			},
			{
				"x": -1.1958454069,
				"y": -3.6342880119,
				"z": 0.8861282997,
				"element": "H" 
			},
			{
				"x": 0.8019357205,
				"y": -2.5219657335,
				"z": 1.4033278737,
				"element": "H" 
			},
			{
				"x": 1.1528826328,
				"y": -2.9935861855,
				"z": -0.2583867579,
				"element": "H" 
			},
			{
				"x": -3.1254237353,
				"y": -2.5957510954,
				"z": 1.8676124877,
				"element": "H" 
			},
			{
				"x": -4.1435608567,
				"y": -0.2319950274,
				"z": 1.0114170438,
				"element": "H" 
			},
			{
				"x": -5.0773580278,
				"y": -1.5509025693,
				"z": 1.720863434,
				"element": "H" 
			}
		],
		 "valence_orbital": [ 
			{
				"type": "occ",
				"energy": -0.32701,
				"method": "rhf"
			},
			{
				"type": "occ",
				"energy": -0.28325,
				"method": "rhf"
			},
			{
				"type": "occ",
				"energy": -0.25609,
				"method": "rhf"
			},
			{
				"type": "occ",
				"energy": -0.23859,
				"method": "rhf"
			},
			{
				"type": "occ",
				"energy": -0.23003,
				"method": "rhf"
			},
			{
				"type": "unocc",
				"energy": 0.05491,
				"method": "rhf"
			},
			{
				"type": "unocc",
				"energy": 0.06331,
				"method": "rhf"
			},
			{
				"type": "unocc",
				"energy": 0.07896,
				"method": "rhf"
			},
			{
				"type": "unocc",
				"energy": 0.09121,
				"method": "rhf"
			},
			{
				"type": "unocc",
				"energy": 0.09992,
				"method": "rhf"
			}
		],
		"cosmo_sigma_profile": { 
			"-0.025": 0.0,
			"-0.024": 0.0,
			"-0.023": 0.0,
			"-0.022": 0.0,
			"-0.021": 0.0,
			"-0.02": 0.0,
			"-0.019": 0.0,
			"-0.018": 0.0,
			"-0.017": 0.0,
			"-0.016": 0.0,
			"-0.015": 0.0,
			"-0.014": 0.0,
			"-0.013": 0.0,
			"-0.012": 0.0,
			"-0.011": 0.800475779706,
			"-0.01": 1.74799447162,
			"-0.009": 1.77427449142,
			"-0.008": 3.1332755291,
			"-0.007": 3.89437048866,
			"-0.006": 6.27263754169,
			"-0.005": 8.53366164288,
			"-0.004": 29.1356388179,
			"-0.003": 41.0072861327,
			"-0.002": 35.00916501,
			"-0.001": 30.3761490036,
			"0.0": 33.0856831118,
			"0.001": 30.7749055109,
			"0.002": 14.8805822923,
			"0.003": 31.10210764,
			"0.004": 18.0618610672,
			"0.005": 6.12346489673,
			"0.006": 5.54530061831,
			"0.007": 4.75003914246,
			"0.008": 3.34449886788,
			"0.009": 1.96044363779,
			"0.01": 1.64133946897,
			"0.011": 3.53311185214,
			"0.012": 1.66151450298,
			"0.013": 3.08577289017,
			"0.014": 2.31761550315,
			"0.015": 0.0,
			"0.016": 0.0,
			"0.017": 0.0,
			"0.018": 0.0,
			"0.019": 0.0,
			"0.02": 0.0,
			"0.021": 0.0,
			"0.022": 0.0,
			"0.023": 0.0,
			"0.024": 0.0,
			"0.025": 0.0
		}
	}
}
