{
	 "smiles": "CCCCCCCCOC(=O)CC", 
	 "Tm": 230.55, 
	 "num_atms": 35, 
	 "gaussian": { 
		 "optdone": 1, 
		 "sigma_profile": "yes", 
		 "theory": "DFT", 
		 "functional": "B3LYP", 
		 "basiset": "6-31G**", 
		 "properties": { 
			 "R2extent": 5014.8363, 
			 "electric_dipole_moment_norm": 1.80867865858, 
			 "electric_quadrupole_moment_norm": 11.394897803, 
			 "total_energy": -582.91277851, 
			 "HOMO_LUMO_gap": 0.27856, 
			 "cosmo_polarized_energy": -6.19, 
			 "cosmo_cavitation_energy": 35.98, 
			 "cosmo_dispersion_energy": -24.56, 
			 "cosmo_repulsion_energy": 2.03, 
			 "cosmo_total_nonelectrostatic_energy": 13.45, 
			 "SMD_solvation_energy": 6.4 
		},
		"coords": [
			{
				"x": -1.9559630892,
				"y": 1.5463463917,
				"z": -2.7162948739,
				"element": "C" 
			},
			{
				"x": -1.4891987151,
				"y": 0.1747516437,
				"z": -3.2174195524,
				"element": "C" 
			},
			{
				"x": -0.6176544131,
				"y": -0.6300633712,
				"z": -2.2360852578,
				"element": "C" 
			},
			{
				"x": -1.3211918078,
				"y": -1.0369881379,
				"z": -0.9191028777,
				"element": "C" 
			},
			{
				"x": -1.1495808328,
				"y": -0.0711462545,
				"z": 0.2776121438,
				"element": "C" 
			},
			{
				"x": 0.0275163534,
				"y": -0.39347453,
				"z": 1.21543343,
				"element": "C" 
			},
			{
				"x": 1.4222701587,
				"y": -0.2917458498,
				"z": 0.5836724251,
				"element": "C" 
			},
			{
				"x": 2.5603593515,
				"y": -0.5383283038,
				"z": 1.5707156007,
				"element": "C" 
			},
			{
				"x": 2.562771958,
				"y": 0.4252031552,
				"z": 2.6526708688,
				"element": "O" 
			},
			{
				"x": 3.2183621646,
				"y": 1.5893605004,
				"z": 2.4266569362,
				"element": "C" 
			},
			{
				"x": 3.7851575893,
				"y": 1.8535588921,
				"z": 1.3874884173,
				"element": "O" 
			},
			{
				"x": 3.171439823,
				"y": 2.4920017353,
				"z": 3.6453531984,
				"element": "C" 
			},
			{
				"x": 1.7585843612,
				"y": 2.7241496333,
				"z": 4.1995043143,
				"element": "C" 
			},
			{
				"x": -2.5250811872,
				"y": 2.0716091983,
				"z": -3.4907938867,
				"element": "H" 
			},
			{
				"x": -2.6028460419,
				"y": 1.461973012,
				"z": -1.8370015284,
				"element": "H" 
			},
			{
				"x": -1.1050086259,
				"y": 2.1813830006,
				"z": -2.4434567705,
				"element": "H" 
			},
			{
				"x": -2.3678863896,
				"y": -0.4289515732,
				"z": -3.4843471321,
				"element": "H" 
			},
			{
				"x": -0.92417915,
				"y": 0.3118741008,
				"z": -4.148704978,
				"element": "H" 
			},
			{
				"x": -0.2850953397,
				"y": -1.5369697795,
				"z": -2.7570824495,
				"element": "H" 
			},
			{
				"x": 0.293747589,
				"y": -0.0602551496,
				"z": -2.0155124812,
				"element": "H" 
			},
			{
				"x": -2.3914378765,
				"y": -1.1647038632,
				"z": -1.1286234188,
				"element": "H" 
			},
			{
				"x": -0.9682109654,
				"y": -2.0302470596,
				"z": -0.610820958,
				"element": "H" 
			},
			{
				"x": -1.0506654901,
				"y": 0.9597955905,
				"z": -0.0837773422,
				"element": "H" 
			},
			{
				"x": -2.0643794241,
				"y": -0.0891637165,
				"z": 0.8833518569,
				"element": "H" 
			},
			{
				"x": -0.1076652939,
				"y": -1.4074378976,
				"z": 1.6200797069,
				"element": "H" 
			},
			{
				"x": -0.0143360469,
				"y": 0.2840945343,
				"z": 2.0767402798,
				"element": "H" 
			},
			{
				"x": 1.5672861978,
				"y": 0.6940259095,
				"z": 0.1261486189,
				"element": "H" 
			},
			{
				"x": 1.5321168304,
				"y": -1.0284495444,
				"z": -0.2224182319,
				"element": "H" 
			},
			{
				"x": 3.5276236072,
				"y": -0.4975532802,
				"z": 1.0645259701,
				"element": "H" 
			},
			{
				"x": 2.4486158042,
				"y": -1.5053790555,
				"z": 2.0697560368,
				"element": "H" 
			},
			{
				"x": 3.7971390373,
				"y": 2.0299120843,
				"z": 4.4196862726,
				"element": "H" 
			},
			{
				"x": 3.6465915041,
				"y": 3.4324235542,
				"z": 3.3569254492,
				"element": "H" 
			},
			{
				"x": 1.1111000942,
				"y": 3.1898648781,
				"z": 3.4496782108,
				"element": "H" 
			},
			{
				"x": 1.7958855935,
				"y": 3.3887822938,
				"z": 5.0677058941,
				"element": "H" 
			},
			{
				"x": 1.2995126718,
				"y": 1.7818472584,
				"z": 4.5071361082,
				"element": "H" 
			}
		],
		 "valence_orbital": [ 
			{
				"type": "occ",
				"energy": -0.31115,
				"method": "rhf"
			},
			{
				"type": "occ",
				"energy": -0.307,
				"method": "rhf"
			},
			{
				"type": "occ",
				"energy": -0.3013,
				"method": "rhf"
			},
			{
				"type": "occ",
				"energy": -0.29,
				"method": "rhf"
			},
			{
				"type": "occ",
				"energy": -0.26341,
				"method": "rhf"
			},
			{
				"type": "unocc",
				"energy": 0.01515,
				"method": "rhf"
			},
			{
				"type": "unocc",
				"energy": 0.08283,
				"method": "rhf"
			},
			{
				"type": "unocc",
				"energy": 0.09601,
				"method": "rhf"
			},
			{
				"type": "unocc",
				"energy": 0.10535,
				"method": "rhf"
			},
			{
				"type": "unocc",
				"energy": 0.11237,
				"method": "rhf"
			}
		],
		"cosmo_sigma_profile": { 
			"-0.025": 0.0,
			"-0.024": 0.0,
			"-0.023": 0.0,
			"-0.022": 0.0,
			"-0.021": 0.0,
			"-0.02": 0.0,
			"-0.019": 0.0,
			"-0.018": 0.0,
			"-0.017": 0.0,
			"-0.016": 0.0,
			"-0.015": 0.0,
			"-0.014": 0.0,
			"-0.013": 0.0,
			"-0.012": 0.0,
			"-0.011": 0.0,
			"-0.01": 0.0,
			"-0.009": 0.0,
			"-0.008": 0.0,
			"-0.007": 0.0,
			"-0.006": 1.71192710276,
			"-0.005": 6.53934612106,
			"-0.004": 13.5308686674,
			"-0.003": 20.9304393744,
			"-0.002": 42.6637387172,
			"-0.001": 56.6681730653,
			"0.0": 51.1166608696,
			"0.001": 37.5277489556,
			"0.002": 15.9525549855,
			"0.003": 4.04335731954,
			"0.004": 3.7884827504,
			"0.005": 3.06964934315,
			"0.006": 2.68271759174,
			"0.007": 2.41043104554,
			"0.008": 1.99009876508,
			"0.009": 2.14004638658,
			"0.01": 1.57550507641,
			"0.011": 2.30260252221,
			"0.012": 4.26773398786,
			"0.013": 2.19633129869,
			"0.014": 0.172456556146,
			"0.015": 0.0,
			"0.016": 0.0,
			"0.017": 0.0,
			"0.018": 0.0,
			"0.019": 0.0,
			"0.02": 0.0,
			"0.021": 0.0,
			"0.022": 0.0,
			"0.023": 0.0,
			"0.024": 0.0,
			"0.025": 0.0
		}
	}
}
