{
	 "smiles": "OC(=O)CC1=COC(=N1)C1=CC=CS1", 
	 "Tm": 459.15, 
	 "num_atms": 21, 
	 "gaussian": { 
		 "optdone": 1, 
		 "sigma_profile": "yes", 
		 "theory": "DFT", 
		 "functional": "B3LYP", 
		 "basiset": "6-31G**", 
		 "properties": { 
			 "R2extent": 3986.2013, 
			 "electric_dipole_moment_norm": 3.1541184648, 
			 "electric_quadrupole_moment_norm": 14.1637307617, 
			 "total_energy": -1025.77362417, 
			 "HOMO_LUMO_gap": 0.16593, 
			 "cosmo_polarized_energy": -14.65, 
			 "cosmo_cavitation_energy": 28.77, 
			 "cosmo_dispersion_energy": -21.31, 
			 "cosmo_repulsion_energy": 1.66, 
			 "cosmo_total_nonelectrostatic_energy": 9.12, 
			 "SMD_solvation_energy": 5.35 
		},
		"coords": [
			{
				"x": 3.6963439635,
				"y": 0.1813590697,
				"z": 1.2342208907,
				"element": "O" 
			},
			{
				"x": 2.8979970481,
				"y": 0.7867778309,
				"z": 2.1435229156,
				"element": "C" 
			},
			{
				"x": 2.9907351517,
				"y": 0.5929880074,
				"z": 3.3334861395,
				"element": "O" 
			},
			{
				"x": 1.9254361645,
				"y": 1.762488351,
				"z": 1.494366802,
				"element": "C" 
			},
			{
				"x": 1.2469390856,
				"y": 1.2413336118,
				"z": 0.2672799413,
				"element": "C" 
			},
			{
				"x": 1.3329413094,
				"y": 1.6718900748,
				"z": -1.0185204316,
				"element": "C" 
			},
			{
				"x": 0.5166338942,
				"y": 0.8834401125,
				"z": -1.7886544241,
				"element": "O" 
			},
			{
				"x": -0.0308580453,
				"y": -0.0025000881,
				"z": -0.906906747,
				"element": "C" 
			},
			{
				"x": 0.3677115841,
				"y": 0.1683687245,
				"z": 0.3232910389,
				"element": "N" 
			},
			{
				"x": -0.954526472,
				"y": -0.9853957082,
				"z": -1.4193607774,
				"element": "C" 
			},
			{
				"x": -1.3758357433,
				"y": -1.1673489962,
				"z": -2.7184101502,
				"element": "C" 
			},
			{
				"x": -2.296903264,
				"y": -2.2427291187,
				"z": -2.8523246321,
				"element": "C" 
			},
			{
				"x": -2.5622745899,
				"y": -2.8612562317,
				"z": -1.6585533398,
				"element": "C" 
			},
			{
				"x": -1.6931692702,
				"y": -2.1442626521,
				"z": -0.3435842818,
				"element": "S" 
			},
			{
				"x": 4.2805703504,
				"y": -0.4071834992,
				"z": 1.7413414679,
				"element": "H" 
			},
			{
				"x": 1.1936648154,
				"y": 2.0269290506,
				"z": 2.2614370444,
				"element": "H" 
			},
			{
				"x": 2.4916679601,
				"y": 2.6679003161,
				"z": 1.2455363565,
				"element": "H" 
			},
			{
				"x": 1.8768672738,
				"y": 2.4509393587,
				"z": -1.527202499,
				"element": "H" 
			},
			{
				"x": -1.0313918241,
				"y": -0.5477840131,
				"z": -3.5375666527,
				"element": "H" 
			},
			{
				"x": -2.7419837134,
				"y": -2.5428699901,
				"z": -3.7938251498,
				"element": "H" 
			},
			{
				"x": -3.2197656784,
				"y": -3.6993842108,
				"z": -1.4725735113,
				"element": "H" 
			}
		],
		 "valence_orbital": [ 
			{
				"type": "occ",
				"energy": -0.29461,
				"method": "rhf"
			},
			{
				"type": "occ",
				"energy": -0.28601,
				"method": "rhf"
			},
			{
				"type": "occ",
				"energy": -0.26891,
				"method": "rhf"
			},
			{
				"type": "occ",
				"energy": -0.2589,
				"method": "rhf"
			},
			{
				"type": "occ",
				"energy": -0.21666,
				"method": "rhf"
			},
			{
				"type": "unocc",
				"energy": -0.05073,
				"method": "rhf"
			},
			{
				"type": "unocc",
				"energy": 0.00613,
				"method": "rhf"
			},
			{
				"type": "unocc",
				"energy": 0.02401,
				"method": "rhf"
			},
			{
				"type": "unocc",
				"energy": 0.02787,
				"method": "rhf"
			},
			{
				"type": "unocc",
				"energy": 0.04715,
				"method": "rhf"
			}
		],
		"cosmo_sigma_profile": { 
			"-0.025": 0.0,
			"-0.024": 0.0,
			"-0.023": 0.0,
			"-0.022": 0.0,
			"-0.021": 0.0,
			"-0.02": 0.0,
			"-0.019": 0.0708924454409,
			"-0.018": 0.780360128584,
			"-0.017": 1.15737828553,
			"-0.016": 1.10872634542,
			"-0.015": 0.63045740502,
			"-0.014": 0.0,
			"-0.013": 0.327139822166,
			"-0.012": 1.30581690008,
			"-0.011": 1.19424665959,
			"-0.01": 2.28809777704,
			"-0.009": 5.25137760558,
			"-0.008": 8.4749197271,
			"-0.007": 10.5168944662,
			"-0.006": 10.9916763323,
			"-0.005": 9.75045550297,
			"-0.004": 11.3387385847,
			"-0.003": 11.6436745127,
			"-0.002": 8.95970094236,
			"-0.001": 12.6090702954,
			"0.0": 16.1111728619,
			"0.001": 18.4489313018,
			"0.002": 21.4220072988,
			"0.003": 22.6653753998,
			"0.004": 14.320077413,
			"0.005": 9.40669581806,
			"0.006": 5.18403027864,
			"0.007": 3.86487772419,
			"0.008": 4.72673433227,
			"0.009": 4.4931791915,
			"0.01": 3.41174823979,
			"0.011": 4.75970736474,
			"0.012": 4.66595168722,
			"0.013": 1.28304383427,
			"0.014": 0.117565631756,
			"0.015": 0.0,
			"0.016": 0.0,
			"0.017": 0.0,
			"0.018": 0.0,
			"0.019": 0.0,
			"0.02": 0.0,
			"0.021": 0.0,
			"0.022": 0.0,
			"0.023": 0.0,
			"0.024": 0.0,
			"0.025": 0.0
		}
	}
}
