{
	 "smiles": "CS(=O)(=O)CC1(CBr)CCOCC1", 
	 "Tm": 371.15, 
	 "num_atms": 28, 
	 "gaussian": { 
		 "optdone": 1, 
		 "sigma_profile": "yes", 
		 "theory": "DFT", 
		 "functional": "B3LYP", 
		 "basiset": "6-31G**", 
		 "properties": { 
			 "R2extent": 4880.1755, 
			 "electric_dipole_moment_norm": 3.95705316366, 
			 "electric_quadrupole_moment_norm": 21.4078066938, 
			 "total_energy": -3509.07944328, 
			 "HOMO_LUMO_gap": 0.24382, 
			 "cosmo_polarized_energy": -18.57, 
			 "cosmo_cavitation_energy": 31.0, 
			 "cosmo_dispersion_energy": -23.2, 
			 "cosmo_repulsion_energy": 1.76, 
			 "cosmo_total_nonelectrostatic_energy": 9.57, 
			 "SMD_solvation_energy": 3.45 
		},
		"coords": [
			{
				"x": -0.7901656481,
				"y": -1.0667740201,
				"z": 4.4372878583,
				"element": "C" 
			},
			{
				"x": -1.2982892789,
				"y": 0.3404512663,
				"z": 3.4161220228,
				"element": "S" 
			},
			{
				"x": -0.3226247298,
				"y": 1.421441845,
				"z": 3.6538113803,
				"element": "O" 
			},
			{
				"x": -2.7296340978,
				"y": 0.5633026047,
				"z": 3.6703775856,
				"element": "O" 
			},
			{
				"x": -1.168804472,
				"y": -0.2727594683,
				"z": 1.687352918,
				"element": "C" 
			},
			{
				"x": 0.0892649034,
				"y": 0.0612214484,
				"z": 0.8318469657,
				"element": "C" 
			},
			{
				"x": 1.3140033496,
				"y": -0.5146622653,
				"z": 1.5618430999,
				"element": "C" 
			},
			{
				"x": 3.0368048912,
				"y": -0.3063197837,
				"z": 0.6011277712,
				"element": "Br" 
			},
			{
				"x": -0.1286614136,
				"y": -0.6279638552,
				"z": -0.553159617,
				"element": "C" 
			},
			{
				"x": -0.8274730818,
				"y": 0.319024885,
				"z": -1.5513129627,
				"element": "C" 
			},
			{
				"x": -1.719161929,
				"y": 1.2031242899,
				"z": -0.8877649193,
				"element": "O" 
			},
			{
				"x": -1.017613219,
				"y": 2.1674982613,
				"z": -0.0979337138,
				"element": "C" 
			},
			{
				"x": 0.2316110865,
				"y": 1.5821144091,
				"z": 0.5911197079,
				"element": "C" 
			},
			{
				"x": -1.4786882245,
				"y": -1.8978326133,
				"z": 4.2774307754,
				"element": "H" 
			},
			{
				"x": -0.8556166608,
				"y": -0.7187808483,
				"z": 5.469844924,
				"element": "H" 
			},
			{
				"x": 0.2368158208,
				"y": -1.3501286135,
				"z": 4.2033734827,
				"element": "H" 
			},
			{
				"x": -1.314457949,
				"y": -1.3562133781,
				"z": 1.7585798592,
				"element": "H" 
			},
			{
				"x": -2.0551246558,
				"y": 0.1439634809,
				"z": 1.2043689447,
				"element": "H" 
			},
			{
				"x": 1.2189551324,
				"y": -1.5916026001,
				"z": 1.7135592587,
				"element": "H" 
			},
			{
				"x": 1.4766050021,
				"y": -0.0094666623,
				"z": 2.5125036385,
				"element": "H" 
			},
			{
				"x": 0.8405273294,
				"y": -0.9283496653,
				"z": -0.9635659765,
				"element": "H" 
			},
			{
				"x": -0.7176034382,
				"y": -1.5433530391,
				"z": -0.4231987065,
				"element": "H" 
			},
			{
				"x": -1.4267036378,
				"y": -0.2456491555,
				"z": -2.2706952463,
				"element": "H" 
			},
			{
				"x": -0.0808667124,
				"y": 0.8918873176,
				"z": -2.1232923427,
				"element": "H" 
			},
			{
				"x": -0.7298377608,
				"y": 3.0257125378,
				"z": -0.7244327728,
				"element": "H" 
			},
			{
				"x": -1.7433117103,
				"y": 2.5252646138,
				"z": 0.6391666854,
				"element": "H" 
			},
			{
				"x": 1.1151657929,
				"y": 1.729478586,
				"z": -0.0370249084,
				"element": "H" 
			},
			{
				"x": 0.4122853112,
				"y": 2.1058704224,
				"z": 1.5320642878,
				"element": "H" 
			}
		],
		 "valence_orbital": [ 
			{
				"type": "occ",
				"energy": -0.30058,
				"method": "rhf"
			},
			{
				"type": "occ",
				"energy": -0.28958,
				"method": "rhf"
			},
			{
				"type": "occ",
				"energy": -0.28283,
				"method": "rhf"
			},
			{
				"type": "occ",
				"energy": -0.27986,
				"method": "rhf"
			},
			{
				"type": "occ",
				"energy": -0.25539,
				"method": "rhf"
			},
			{
				"type": "unocc",
				"energy": -0.01157,
				"method": "rhf"
			},
			{
				"type": "unocc",
				"energy": 0.03701,
				"method": "rhf"
			},
			{
				"type": "unocc",
				"energy": 0.06106,
				"method": "rhf"
			},
			{
				"type": "unocc",
				"energy": 0.06972,
				"method": "rhf"
			},
			{
				"type": "unocc",
				"energy": 0.08043,
				"method": "rhf"
			}
		],
		"cosmo_sigma_profile": { 
			"-0.025": 0.0,
			"-0.024": 0.0,
			"-0.023": 0.0,
			"-0.022": 0.0,
			"-0.021": 0.0,
			"-0.02": 0.0,
			"-0.019": 0.0,
			"-0.018": 0.0,
			"-0.017": 0.0,
			"-0.016": 0.0,
			"-0.015": 0.0,
			"-0.014": 0.0,
			"-0.013": 0.0,
			"-0.012": 0.039668652008,
			"-0.011": 0.619049354153,
			"-0.01": 2.44612700725,
			"-0.009": 6.99562952966,
			"-0.008": 10.925436754,
			"-0.007": 9.34422894153,
			"-0.006": 8.52591250796,
			"-0.005": 12.5752882931,
			"-0.004": 24.9217630368,
			"-0.003": 25.702871442,
			"-0.002": 21.7400757423,
			"-0.001": 16.7822129031,
			"0.0": 10.7068786493,
			"0.001": 10.2977525788,
			"0.002": 8.01293022388,
			"0.003": 7.44192903484,
			"0.004": 10.2922395177,
			"0.005": 10.2045067645,
			"0.006": 9.90357346034,
			"0.007": 3.60791688074,
			"0.008": 3.17513952271,
			"0.009": 4.53651017711,
			"0.01": 3.63872356734,
			"0.011": 8.7665470479,
			"0.012": 10.266272354,
			"0.013": 3.2916206478,
			"0.014": 0.326602810002,
			"0.015": 0.0,
			"0.016": 0.0,
			"0.017": 0.0,
			"0.018": 0.0,
			"0.019": 0.0,
			"0.02": 0.0,
			"0.021": 0.0,
			"0.022": 0.0,
			"0.023": 0.0,
			"0.024": 0.0,
			"0.025": 0.0
		}
	}
}
