{
	 "smiles": "CS(=O)(=O)C1=CC=C(OCCCC(O)=O)C=C1", 
	 "Tm": 424.15, 
	 "num_atms": 31, 
	 "gaussian": { 
		 "optdone": 1, 
		 "sigma_profile": "yes", 
		 "theory": "DFT", 
		 "functional": "B3LYP", 
		 "basiset": "6-31G**", 
		 "properties": { 
			 "R2extent": 7969.1721, 
			 "electric_dipole_moment_norm": 6.98177844965, 
			 "electric_quadrupole_moment_norm": 38.1652356715, 
			 "total_energy": -1201.85063003, 
			 "HOMO_LUMO_gap": 0.21488, 
			 "cosmo_polarized_energy": -30.29, 
			 "cosmo_cavitation_energy": 36.09, 
			 "cosmo_dispersion_energy": -25.43, 
			 "cosmo_repulsion_energy": 1.95, 
			 "cosmo_total_nonelectrostatic_energy": 12.61, 
			 "SMD_solvation_energy": 6.86 
		},
		"coords": [
			{
				"x": -0.3432214592,
				"y": 1.9269886712,
				"z": 5.2004549834,
				"element": "C" 
			},
			{
				"x": 0.1952891443,
				"y": 0.2115637971,
				"z": 5.4075911826,
				"element": "S" 
			},
			{
				"x": 1.6397141576,
				"y": 0.2375609248,
				"z": 5.6906541357,
				"element": "O" 
			},
			{
				"x": -0.7516412633,
				"y": -0.4324033701,
				"z": 6.3311957193,
				"element": "O" 
			},
			{
				"x": -0.0329187918,
				"y": -0.5122440009,
				"z": 3.7831537474,
				"element": "C" 
			},
			{
				"x": -1.2871734306,
				"y": -1.01568558,
				"z": 3.4139934622,
				"element": "C" 
			},
			{
				"x": -1.4578281918,
				"y": -1.5713399766,
				"z": 2.1555546575,
				"element": "C" 
			},
			{
				"x": -0.3750135077,
				"y": -1.641667067,
				"z": 1.261723073,
				"element": "C" 
			},
			{
				"x": -0.6570128749,
				"y": -2.2295262657,
				"z": 0.065381195,
				"element": "O" 
			},
			{
				"x": 0.3405387406,
				"y": -2.318804209,
				"z": -0.9534149413,
				"element": "C" 
			},
			{
				"x": 0.4891202025,
				"y": -1.0224901604,
				"z": -1.7533569022,
				"element": "C" 
			},
			{
				"x": -0.7817640597,
				"y": -0.6115384061,
				"z": -2.519133913,
				"element": "C" 
			},
			{
				"x": -2.0122673209,
				"y": -0.2636890533,
				"z": -1.6829108634,
				"element": "C" 
			},
			{
				"x": -1.8267028981,
				"y": 0.6395739173,
				"z": -0.6804319137,
				"element": "O" 
			},
			{
				"x": -3.1140988702,
				"y": -0.693601589,
				"z": -1.907657112,
				"element": "O" 
			},
			{
				"x": 0.8810278938,
				"y": -1.1442195153,
				"z": 1.6392794239,
				"element": "C" 
			},
			{
				"x": 1.0467813294,
				"y": -0.5811461696,
				"z": 2.9061418614,
				"element": "C" 
			},
			{
				"x": -0.2291591385,
				"y": 2.402994187,
				"z": 6.17660676,
				"element": "H" 
			},
			{
				"x": -1.3892901441,
				"y": 1.9417229713,
				"z": 4.8914297694,
				"element": "H" 
			},
			{
				"x": 0.2930870241,
				"y": 2.4168696445,
				"z": 4.4622122543,
				"element": "H" 
			},
			{
				"x": -2.1111007255,
				"y": -0.98570547,
				"z": 4.1192909722,
				"element": "H" 
			},
			{
				"x": -2.4157709311,
				"y": -1.9663640394,
				"z": 1.8360397467,
				"element": "H" 
			},
			{
				"x": -0.0103628076,
				"y": -3.121749874,
				"z": -1.608115373,
				"element": "H" 
			},
			{
				"x": 1.3012228262,
				"y": -2.6326648625,
				"z": -0.5287548407,
				"element": "H" 
			},
			{
				"x": 1.2979091578,
				"y": -1.1696582738,
				"z": -2.4792581928,
				"element": "H" 
			},
			{
				"x": 0.8333686303,
				"y": -0.2161273356,
				"z": -1.0920578606,
				"element": "H" 
			},
			{
				"x": -0.554318677,
				"y": 0.2665854027,
				"z": -3.138409417,
				"element": "H" 
			},
			{
				"x": -1.0910056653,
				"y": -1.4093085565,
				"z": -3.1986617254,
				"element": "H" 
			},
			{
				"x": -0.8927059567,
				"y": 0.8774471806,
				"z": -0.6009030224,
				"element": "H" 
			},
			{
				"x": 1.733641181,
				"y": -1.2008926934,
				"z": 0.973257784,
				"element": "H" 
			},
			{
				"x": 2.0172564264,
				"y": -0.2135802283,
				"z": 3.2227053495,
				"element": "H" 
			}
		],
		 "valence_orbital": [ 
			{
				"type": "occ",
				"energy": -0.29227,
				"method": "rhf"
			},
			{
				"type": "occ",
				"energy": -0.28488,
				"method": "rhf"
			},
			{
				"type": "occ",
				"energy": -0.27708,
				"method": "rhf"
			},
			{
				"type": "occ",
				"energy": -0.27288,
				"method": "rhf"
			},
			{
				"type": "occ",
				"energy": -0.24793,
				"method": "rhf"
			},
			{
				"type": "unocc",
				"energy": -0.03305,
				"method": "rhf"
			},
			{
				"type": "unocc",
				"energy": -0.02794,
				"method": "rhf"
			},
			{
				"type": "unocc",
				"energy": 0.00659,
				"method": "rhf"
			},
			{
				"type": "unocc",
				"energy": 0.03604,
				"method": "rhf"
			},
			{
				"type": "unocc",
				"energy": 0.06281,
				"method": "rhf"
			}
		],
		"cosmo_sigma_profile": { 
			"-0.025": 0.0,
			"-0.024": 0.0,
			"-0.023": 0.0,
			"-0.022": 0.0,
			"-0.021": 0.0,
			"-0.02": 0.0,
			"-0.019": 0.0,
			"-0.018": 0.349602584949,
			"-0.017": 0.670305545398,
			"-0.016": 1.2138653794,
			"-0.015": 0.689220224288,
			"-0.014": 0.961441698189,
			"-0.013": 1.28964587543,
			"-0.012": 0.730985220517,
			"-0.011": 1.49975444218,
			"-0.01": 1.37620287792,
			"-0.009": 2.79722720204,
			"-0.008": 10.9365890218,
			"-0.007": 17.7552311164,
			"-0.006": 26.3222545074,
			"-0.005": 26.8689413276,
			"-0.004": 22.9397750979,
			"-0.003": 18.0106563837,
			"-0.002": 12.0428789889,
			"-0.001": 8.58588871051,
			"0.0": 9.79156768805,
			"0.001": 11.1127141581,
			"0.002": 15.3832381167,
			"0.003": 12.2980917397,
			"0.004": 6.41715909311,
			"0.005": 6.81305102188,
			"0.006": 6.90248566098,
			"0.007": 6.43724068841,
			"0.008": 5.8248935566,
			"0.009": 6.76581310736,
			"0.01": 8.0557072133,
			"0.011": 13.596400775,
			"0.012": 15.4684771686,
			"0.013": 5.4689482929,
			"0.014": 0.291051619873,
			"0.015": 0.0,
			"0.016": 0.0,
			"0.017": 0.0,
			"0.018": 0.0,
			"0.019": 0.0,
			"0.02": 0.0,
			"0.021": 0.0,
			"0.022": 0.0,
			"0.023": 0.0,
			"0.024": 0.0,
			"0.025": 0.0
		}
	}
}
