{
	 "smiles": "CC1=C(C=C(C#N)C(S)=N1)C(=O)NC1=CC=CC=C1", 
	 "Tm": 475.15, 
	 "num_atms": 30, 
	 "gaussian": { 
		 "optdone": 1, 
		 "sigma_profile": "yes", 
		 "theory": "DFT", 
		 "functional": "B3LYP", 
		 "basiset": "6-31G**", 
		 "properties": { 
			 "R2extent": 6064.512, 
			 "electric_dipole_moment_norm": 3.93861130095, 
			 "electric_quadrupole_moment_norm": 18.8732735001, 
			 "total_energy": -1177.7807488, 
			 "HOMO_LUMO_gap": 0.17078, 
			 "cosmo_polarized_energy": -16.36, 
			 "cosmo_cavitation_energy": 37.55, 
			 "cosmo_dispersion_energy": -25.71, 
			 "cosmo_repulsion_energy": 1.96, 
			 "cosmo_total_nonelectrostatic_energy": 13.8, 
			 "SMD_solvation_energy": 6.25 
		},
		"coords": [
			{
				"x": -1.1389866657,
				"y": 2.7552395847,
				"z": -1.5436533393,
				"element": "C" 
			},
			{
				"x": -0.8588756162,
				"y": 1.323211698,
				"z": -1.1752878135,
				"element": "C" 
			},
			{
				"x": -0.0521122437,
				"y": 0.9555286047,
				"z": -0.0703243609,
				"element": "C" 
			},
			{
				"x": 0.1174051582,
				"y": -0.4015817677,
				"z": 0.19322555,
				"element": "C" 
			},
			{
				"x": -0.4891804539,
				"y": -1.3642351326,
				"z": -0.6222180787,
				"element": "C" 
			},
			{
				"x": -0.3248228505,
				"y": -2.7551906728,
				"z": -0.3467522016,
				"element": "C" 
			},
			{
				"x": -0.2011137857,
				"y": -3.8941886512,
				"z": -0.1389188795,
				"element": "N" 
			},
			{
				"x": -1.2582665002,
				"y": -0.8993423102,
				"z": -1.7171917946,
				"element": "C" 
			},
			{
				"x": -2.0921695665,
				"y": -1.948625892,
				"z": -2.8760479779,
				"element": "S" 
			},
			{
				"x": -1.4193091946,
				"y": 0.3994859242,
				"z": -1.9673434534,
				"element": "N" 
			},
			{
				"x": 0.4906996029,
				"y": 1.9922549284,
				"z": 0.8705887497,
				"element": "C" 
			},
			{
				"x": -0.1848425227,
				"y": 2.9550134825,
				"z": 1.2155650641,
				"element": "O" 
			},
			{
				"x": 1.7458556244,
				"y": 1.7979715563,
				"z": 1.4133348553,
				"element": "N" 
			},
			{
				"x": 2.841051662,
				"y": 1.0060821342,
				"z": 0.9752493223,
				"element": "C" 
			},
			{
				"x": 3.1406940827,
				"y": 0.8388468648,
				"z": -0.3836258647,
				"element": "C" 
			},
			{
				"x": 4.2375152185,
				"y": 0.0656430398,
				"z": -0.7629594121,
				"element": "C" 
			},
			{
				"x": 5.0611680589,
				"y": -0.5198089899,
				"z": 0.2002644122,
				"element": "C" 
			},
			{
				"x": 4.7772773606,
				"y": -0.3312505558,
				"z": 1.554191409,
				"element": "C" 
			},
			{
				"x": 3.668637806,
				"y": 0.4193937395,
				"z": 1.9425986694,
				"element": "C" 
			},
			{
				"x": -1.7954084991,
				"y": 3.2132975881,
				"z": -0.7986728714,
				"element": "H" 
			},
			{
				"x": -1.6162118261,
				"y": 2.7829546988,
				"z": -2.5235886055,
				"element": "H" 
			},
			{
				"x": -0.2254337978,
				"y": 3.3569316233,
				"z": -1.5568884576,
				"element": "H" 
			},
			{
				"x": 0.7134875396,
				"y": -0.7282503299,
				"z": 1.0379316567,
				"element": "H" 
			},
			{
				"x": -1.7225471627,
				"y": -3.1229597396,
				"z": -2.326475708,
				"element": "H" 
			},
			{
				"x": 1.9340044769,
				"y": 2.4625304876,
				"z": 2.1551361513,
				"element": "H" 
			},
			{
				"x": 2.5251746647,
				"y": 1.3188341424,
				"z": -1.1363724046,
				"element": "H" 
			},
			{
				"x": 4.4576936514,
				"y": -0.0627078921,
				"z": -1.8185870325,
				"element": "H" 
			},
			{
				"x": 5.9188106006,
				"y": -1.1128669105,
				"z": -0.1013792929,
				"element": "H" 
			},
			{
				"x": 5.4125076576,
				"y": -0.778584207,
				"z": 2.3128703673,
				"element": "H" 
			},
			{
				"x": 3.4337975203,
				"y": 0.5502729541,
				"z": 2.9953313415,
				"element": "H" 
			}
		],
		 "valence_orbital": [ 
			{
				"type": "occ",
				"energy": -0.28532,
				"method": "rhf"
			},
			{
				"type": "occ",
				"energy": -0.27197,
				"method": "rhf"
			},
			{
				"type": "occ",
				"energy": -0.26985,
				"method": "rhf"
			},
			{
				"type": "occ",
				"energy": -0.24837,
				"method": "rhf"
			},
			{
				"type": "occ",
				"energy": -0.24154,
				"method": "rhf"
			},
			{
				"type": "unocc",
				"energy": -0.07076,
				"method": "rhf"
			},
			{
				"type": "unocc",
				"energy": -0.06073,
				"method": "rhf"
			},
			{
				"type": "unocc",
				"energy": -0.02416,
				"method": "rhf"
			},
			{
				"type": "unocc",
				"energy": -0.02105,
				"method": "rhf"
			},
			{
				"type": "unocc",
				"energy": 0.00361,
				"method": "rhf"
			}
		],
		"cosmo_sigma_profile": { 
			"-0.025": 0.0,
			"-0.024": 0.0,
			"-0.023": 0.0,
			"-0.022": 0.0,
			"-0.021": 0.0,
			"-0.02": 0.0,
			"-0.019": 0.0,
			"-0.018": 0.0,
			"-0.017": 0.0,
			"-0.016": 0.0,
			"-0.015": 0.431997766127,
			"-0.014": 0.940520982757,
			"-0.013": 1.08602415027,
			"-0.012": 0.549439028874,
			"-0.011": 2.15924270726,
			"-0.01": 2.41449961973,
			"-0.009": 3.39349204031,
			"-0.008": 4.52622242389,
			"-0.007": 8.64955825489,
			"-0.006": 16.406317473,
			"-0.005": 19.8591584548,
			"-0.004": 22.3367300513,
			"-0.003": 24.9264279518,
			"-0.002": 26.1612444445,
			"-0.001": 25.3372487923,
			"0.0": 18.7434558436,
			"0.001": 13.9048645233,
			"0.002": 17.6907680322,
			"0.003": 17.4647174288,
			"0.004": 17.9363062827,
			"0.005": 16.364403169,
			"0.006": 7.63668939406,
			"0.007": 5.89523133922,
			"0.008": 4.96440341195,
			"0.009": 5.1429839952,
			"0.01": 5.4813361677,
			"0.011": 5.15625666877,
			"0.012": 5.80365214267,
			"0.013": 3.10298015144,
			"0.014": 0.118861286608,
			"0.015": 0.0,
			"0.016": 0.0,
			"0.017": 0.0,
			"0.018": 0.0,
			"0.019": 0.0,
			"0.02": 0.0,
			"0.021": 0.0,
			"0.022": 0.0,
			"0.023": 0.0,
			"0.024": 0.0,
			"0.025": 0.0
		}
	}
}
