{
	 "smiles": "CN1C=CN=C1C(=O)C1=CC=NC=C1", 
	 "Tm": 412.15, 
	 "num_atms": 23, 
	 "gaussian": { 
		 "optdone": 1, 
		 "sigma_profile": "yes", 
		 "theory": "DFT", 
		 "functional": "B3LYP", 
		 "basiset": "6-31G**", 
		 "properties": { 
			 "R2extent": 3063.9686, 
			 "electric_dipole_moment_norm": 5.03897042063, 
			 "electric_quadrupole_moment_norm": 5.50416844128, 
			 "total_energy": -625.954829441, 
			 "HOMO_LUMO_gap": 0.16465, 
			 "cosmo_polarized_energy": -11.07, 
			 "cosmo_cavitation_energy": 27.37, 
			 "cosmo_dispersion_energy": -20.34, 
			 "cosmo_repulsion_energy": 1.55, 
			 "cosmo_total_nonelectrostatic_energy": 8.59, 
			 "SMD_solvation_energy": 3.44 
		},
		"coords": [
			{
				"x": -2.9926588659,
				"y": 0.5838595843,
				"z": -1.672162051,
				"element": "C" 
			},
			{
				"x": -2.5166267139,
				"y": -0.2945859402,
				"z": -0.6032991226,
				"element": "N" 
			},
			{
				"x": -3.3188922496,
				"y": -1.1220433965,
				"z": 0.1284831979,
				"element": "C" 
			},
			{
				"x": -2.4962984477,
				"y": -1.7753556743,
				"z": 1.0263275696,
				"element": "C" 
			},
			{
				"x": -1.2126879966,
				"y": -1.3685516422,
				"z": 0.8619764709,
				"element": "N" 
			},
			{
				"x": -1.2283678839,
				"y": -0.4722117321,
				"z": -0.1252116289,
				"element": "C" 
			},
			{
				"x": -0.0813893591,
				"y": 0.2668562236,
				"z": -0.6839890627,
				"element": "C" 
			},
			{
				"x": -0.2744512392,
				"y": 1.0659106016,
				"z": -1.6021521099,
				"element": "O" 
			},
			{
				"x": 1.3180610409,
				"y": 0.0701954469,
				"z": -0.1616711892,
				"element": "C" 
			},
			{
				"x": 2.3259391061,
				"y": 0.8317030826,
				"z": -0.7719244808,
				"element": "C" 
			},
			{
				"x": 3.6389912871,
				"y": 0.6932451391,
				"z": -0.3325303782,
				"element": "C" 
			},
			{
				"x": 4.0103998411,
				"y": -0.1356204418,
				"z": 0.6539282124,
				"element": "N" 
			},
			{
				"x": 3.043186255,
				"y": -0.8583647073,
				"z": 1.2307212621,
				"element": "C" 
			},
			{
				"x": 1.6950359985,
				"y": -0.7994594521,
				"z": 0.8705223176,
				"element": "C" 
			},
			{
				"x": -2.5069286516,
				"y": 0.3353892106,
				"z": -2.6158682395,
				"element": "H" 
			},
			{
				"x": -4.0720397195,
				"y": 0.4479702805,
				"z": -1.7614204899,
				"element": "H" 
			},
			{
				"x": -2.7664590081,
				"y": 1.624783486,
				"z": -1.4406675704,
				"element": "H" 
			},
			{
				"x": -4.383102037,
				"y": -1.1765003064,
				"z": -0.0456542658,
				"element": "H" 
			},
			{
				"x": -2.7734820436,
				"y": -2.5089406402,
				"z": 1.7705414609,
				"element": "H" 
			},
			{
				"x": 2.0677600838,
				"y": 1.5139049642,
				"z": -1.5735268226,
				"element": "H" 
			},
			{
				"x": 4.4344661416,
				"y": 1.2757981066,
				"z": -0.7938944763,
				"element": "H" 
			},
			{
				"x": 3.358630355,
				"y": -1.5269926115,
				"z": 2.0298697692,
				"element": "H" 
			},
			{
				"x": 0.9557141067,
				"y": -1.4084895813,
				"z": 1.3734016273,
				"element": "H" 
			}
		],
		 "valence_orbital": [ 
			{
				"type": "occ",
				"energy": -0.28187,
				"method": "rhf"
			},
			{
				"type": "occ",
				"energy": -0.26658,
				"method": "rhf"
			},
			{
				"type": "occ",
				"energy": -0.25869,
				"method": "rhf"
			},
			{
				"type": "occ",
				"energy": -0.24927,
				"method": "rhf"
			},
			{
				"type": "occ",
				"energy": -0.2454,
				"method": "rhf"
			},
			{
				"type": "unocc",
				"energy": -0.08075,
				"method": "rhf"
			},
			{
				"type": "unocc",
				"energy": -0.00846,
				"method": "rhf"
			},
			{
				"type": "unocc",
				"energy": -0.00532,
				"method": "rhf"
			},
			{
				"type": "unocc",
				"energy": 0.04097,
				"method": "rhf"
			},
			{
				"type": "unocc",
				"energy": 0.08645,
				"method": "rhf"
			}
		],
		"cosmo_sigma_profile": { 
			"-0.025": 0.0,
			"-0.024": 0.0,
			"-0.023": 0.0,
			"-0.022": 0.0,
			"-0.021": 0.0,
			"-0.02": 0.0,
			"-0.019": 0.0,
			"-0.018": 0.0,
			"-0.017": 0.0,
			"-0.016": 0.0,
			"-0.015": 0.0,
			"-0.014": 0.0,
			"-0.013": 0.0,
			"-0.012": 0.0,
			"-0.011": 0.0,
			"-0.01": 1.4649925026,
			"-0.009": 3.09894443326,
			"-0.008": 3.30774958219,
			"-0.007": 6.58314722552,
			"-0.006": 12.1594028986,
			"-0.005": 16.4019782301,
			"-0.004": 16.0811115629,
			"-0.003": 19.7625146731,
			"-0.002": 15.2181662338,
			"-0.001": 12.7734179369,
			"0.0": 14.4935500146,
			"0.001": 24.4112024041,
			"0.002": 20.3464473045,
			"0.003": 8.52952943671,
			"0.004": 9.37051980882,
			"0.005": 6.43448236963,
			"0.006": 3.58291856178,
			"0.007": 5.16387501062,
			"0.008": 5.69623361076,
			"0.009": 4.69118617229,
			"0.01": 2.85113108116,
			"0.011": 3.08897502655,
			"0.012": 1.48405536905,
			"0.013": 0.976131817613,
			"0.014": 0.87122903859,
			"0.015": 0.930969856787,
			"0.016": 0.748652668091,
			"0.017": 0.0776511652667,
			"0.018": 0.0,
			"0.019": 0.0,
			"0.02": 0.0,
			"0.021": 0.0,
			"0.022": 0.0,
			"0.023": 0.0,
			"0.024": 0.0,
			"0.025": 0.0
		}
	}
}
