{
	 "smiles": "OC(=O)C1=CNC=C1", 
	 "Tm": 403.15, 
	 "num_atms": 13, 
	 "gaussian": { 
		 "optdone": 1, 
		 "sigma_profile": "yes", 
		 "theory": "DFT", 
		 "functional": "B3LYP", 
		 "basiset": "6-31G**", 
		 "properties": { 
			 "R2extent": 1272.9403, 
			 "electric_dipole_moment_norm": 6.06942476764, 
			 "electric_quadrupole_moment_norm": 19.1586203467, 
			 "total_energy": -398.740543592, 
			 "HOMO_LUMO_gap": 0.21931, 
			 "cosmo_polarized_energy": -18.6, 
			 "cosmo_cavitation_energy": 17.6, 
			 "cosmo_dispersion_energy": -13.33, 
			 "cosmo_repulsion_energy": 1.11, 
			 "cosmo_total_nonelectrostatic_energy": 5.38, 
			 "SMD_solvation_energy": 4.83 
		},
		"coords": [
			{
				"x": 1.5735960183,
				"y": -0.1097984316,
				"z": -1.9882086789,
				"element": "O" 
			},
			{
				"x": 2.0300596391,
				"y": 0.5347505122,
				"z": -0.8764428599,
				"element": "C" 
			},
			{
				"x": 3.1478072137,
				"y": 1.0013300893,
				"z": -0.8716413493,
				"element": "O" 
			},
			{
				"x": 1.1009095386,
				"y": 0.620520128,
				"z": 0.2665603733,
				"element": "C" 
			},
			{
				"x": 1.4468867127,
				"y": 1.2505449256,
				"z": 1.450647333,
				"element": "C" 
			},
			{
				"x": 0.3844126978,
				"y": 1.1598801629,
				"z": 2.2990470547,
				"element": "N" 
			},
			{
				"x": -0.6518293754,
				"y": 0.4814379651,
				"z": 1.6911803042,
				"element": "C" 
			},
			{
				"x": -0.2382136613,
				"y": 0.1333948745,
				"z": 0.4281893318,
				"element": "C" 
			},
			{
				"x": 0.6710816285,
				"y": -0.4250005518,
				"z": -1.8451143868,
				"element": "H" 
			},
			{
				"x": 2.3692224985,
				"y": 1.7419726062,
				"z": 1.7182787937,
				"element": "H" 
			},
			{
				"x": 0.3600364694,
				"y": 1.5343610096,
				"z": 3.2345554706,
				"element": "H" 
			},
			{
				"x": -1.5850023869,
				"y": 0.3066784637,
				"z": 2.2048495229,
				"element": "H" 
			},
			{
				"x": -0.8411669931,
				"y": -0.4101717537,
				"z": -0.2878009092,
				"element": "H" 
			}
		],
		 "valence_orbital": [ 
			{
				"type": "occ",
				"energy": -0.36986,
				"method": "rhf"
			},
			{
				"type": "occ",
				"energy": -0.30151,
				"method": "rhf"
			},
			{
				"type": "occ",
				"energy": -0.26459,
				"method": "rhf"
			},
			{
				"type": "occ",
				"energy": -0.25864,
				"method": "rhf"
			},
			{
				"type": "occ",
				"energy": -0.23225,
				"method": "rhf"
			},
			{
				"type": "unocc",
				"energy": -0.01294,
				"method": "rhf"
			},
			{
				"type": "unocc",
				"energy": 0.02788,
				"method": "rhf"
			},
			{
				"type": "unocc",
				"energy": 0.05551,
				"method": "rhf"
			},
			{
				"type": "unocc",
				"energy": 0.07351,
				"method": "rhf"
			},
			{
				"type": "unocc",
				"energy": 0.12521,
				"method": "rhf"
			}
		],
		"cosmo_sigma_profile": { 
			"-0.025": 0.0,
			"-0.024": 0.0,
			"-0.023": 0.0,
			"-0.022": 0.0,
			"-0.021": 0.0,
			"-0.02": 0.0,
			"-0.019": 0.0,
			"-0.018": 0.168844771476,
			"-0.017": 1.29803250022,
			"-0.016": 3.48081642972,
			"-0.015": 2.05799413405,
			"-0.014": 1.95117502663,
			"-0.013": 2.20571871775,
			"-0.012": 2.52492622305,
			"-0.011": 2.2050709004,
			"-0.01": 2.47457730876,
			"-0.009": 3.06409404565,
			"-0.008": 6.82744370227,
			"-0.007": 4.13946244748,
			"-0.006": 6.47964877834,
			"-0.005": 4.18901454247,
			"-0.004": 4.31672015497,
			"-0.003": 5.25976119602,
			"-0.002": 4.97662043821,
			"-0.001": 4.80877630891,
			"0.0": 5.94916006019,
			"0.001": 6.41031131836,
			"0.002": 6.9036488698,
			"0.003": 7.47549849085,
			"0.004": 9.40118311447,
			"0.005": 7.42249705372,
			"0.006": 6.05843862615,
			"0.007": 2.7385600804,
			"0.008": 2.67124660396,
			"0.009": 3.08928601599,
			"0.01": 3.10198829624,
			"0.011": 4.78022300017,
			"0.012": 5.43596684444,
			"0.013": 5.16687249956,
			"0.014": 1.68652418141,
			"0.015": 0.0933633409136,
			"0.016": 0.0,
			"0.017": 0.0,
			"0.018": 0.0,
			"0.019": 0.0,
			"0.02": 0.0,
			"0.021": 0.0,
			"0.022": 0.0,
			"0.023": 0.0,
			"0.024": 0.0,
			"0.025": 0.0
		}
	}
}
