{
	 "smiles": "NCC1=CN(N=C1C1=CC=CC=C1)C1=CC=CC=C1", 
	 "Tm": 335.15, 
	 "num_atms": 34, 
	 "gaussian": { 
		 "optdone": 1, 
		 "sigma_profile": "yes", 
		 "theory": "DFT", 
		 "functional": "B3LYP", 
		 "basiset": "6-31G**", 
		 "properties": { 
			 "R2extent": 6811.3139, 
			 "electric_dipole_moment_norm": 1.65958060063, 
			 "electric_quadrupole_moment_norm": 10.7587764276, 
			 "total_energy": -782.981243683, 
			 "HOMO_LUMO_gap": 0.17742, 
			 "cosmo_polarized_energy": -12.38, 
			 "cosmo_cavitation_energy": 37.4, 
			 "cosmo_dispersion_energy": -26.98, 
			 "cosmo_repulsion_energy": 2.06, 
			 "cosmo_total_nonelectrostatic_energy": 12.49, 
			 "SMD_solvation_energy": 4.14 
		},
		"coords": [
			{
				"x": -3.8492895942,
				"y": 1.0377380862,
				"z": -0.4405850079,
				"element": "N" 
			},
			{
				"x": -2.5241380276,
				"y": 1.6206038905,
				"z": -0.1870711228,
				"element": "C" 
			},
			{
				"x": -1.3792517695,
				"y": 0.6476165676,
				"z": -0.0197064551,
				"element": "C" 
			},
			{
				"x": -0.2833003487,
				"y": 0.5598246175,
				"z": -0.8512740341,
				"element": "C" 
			},
			{
				"x": 0.4894327253,
				"y": -0.4822234314,
				"z": -0.4190871161,
				"element": "N" 
			},
			{
				"x": -0.0542100249,
				"y": -1.0823996028,
				"z": 0.6641254744,
				"element": "N" 
			},
			{
				"x": -1.1834871526,
				"y": -0.4165214297,
				"z": 0.9228753217,
				"element": "C" 
			},
			{
				"x": -2.0347483073,
				"y": -0.8647653889,
				"z": 2.0428703558,
				"element": "C" 
			},
			{
				"x": -2.883177326,
				"y": 0.0171265269,
				"z": 2.7332065105,
				"element": "C" 
			},
			{
				"x": -3.6761106279,
				"y": -0.4343228159,
				"z": 3.7893487088,
				"element": "C" 
			},
			{
				"x": -3.6309639808,
				"y": -1.7725335631,
				"z": 4.1810375861,
				"element": "C" 
			},
			{
				"x": -2.7813314734,
				"y": -2.6564039243,
				"z": 3.5101836347,
				"element": "C" 
			},
			{
				"x": -1.9934504361,
				"y": -2.2096840484,
				"z": 2.452581564,
				"element": "C" 
			},
			{
				"x": 1.7268893258,
				"y": -0.9375949701,
				"z": -0.9426351197,
				"element": "C" 
			},
			{
				"x": 2.1107960363,
				"y": -0.6038512478,
				"z": -2.2469217713,
				"element": "C" 
			},
			{
				"x": 3.3383901974,
				"y": -1.0455760621,
				"z": -2.7391139997,
				"element": "C" 
			},
			{
				"x": 4.1791521872,
				"y": -1.8294305912,
				"z": -1.9478672132,
				"element": "C" 
			},
			{
				"x": 3.7810645664,
				"y": -2.1699123978,
				"z": -0.652931701,
				"element": "C" 
			},
			{
				"x": 2.5629113418,
				"y": -1.7265075718,
				"z": -0.1433352194,
				"element": "C" 
			},
			{
				"x": -4.1291255564,
				"y": 0.4742027601,
				"z": 0.3595061612,
				"element": "H" 
			},
			{
				"x": -3.7826318929,
				"y": 0.3907473713,
				"z": -1.2236529872,
				"element": "H" 
			},
			{
				"x": -2.6132502617,
				"y": 2.2728903314,
				"z": 0.6892608834,
				"element": "H" 
			},
			{
				"x": -2.2854044805,
				"y": 2.2879655634,
				"z": -1.0234993063,
				"element": "H" 
			},
			{
				"x": 0.0015386681,
				"y": 1.1741091311,
				"z": -1.6918859514,
				"element": "H" 
			},
			{
				"x": -2.9052432373,
				"y": 1.0685684687,
				"z": 2.4670163141,
				"element": "H" 
			},
			{
				"x": -4.3225849156,
				"y": 0.265564701,
				"z": 4.3112389488,
				"element": "H" 
			},
			{
				"x": -4.2494477272,
				"y": -2.1236590298,
				"z": 5.0019468037,
				"element": "H" 
			},
			{
				"x": -2.7373798803,
				"y": -3.7001478788,
				"z": 3.8087288314,
				"element": "H" 
			},
			{
				"x": -1.3366503905,
				"y": -2.8937626602,
				"z": 1.9262502278,
				"element": "H" 
			},
			{
				"x": 1.4525591651,
				"y": -0.0226036097,
				"z": -2.8834749385,
				"element": "H" 
			},
			{
				"x": 3.6296545282,
				"y": -0.7829754211,
				"z": -3.7518619766,
				"element": "H" 
			},
			{
				"x": 5.131876152,
				"y": -2.1746484844,
				"z": -2.3374192805,
				"element": "H" 
			},
			{
				"x": 4.4260411784,
				"y": -2.781125743,
				"z": -0.0283788204,
				"element": "H" 
			},
			{
				"x": 2.2426713393,
				"y": -1.9783081434,
				"z": 0.8599246951,
				"element": "H" 
			}
		],
		 "valence_orbital": [ 
			{
				"type": "occ",
				"energy": -0.25823,
				"method": "rhf"
			},
			{
				"type": "occ",
				"energy": -0.25212,
				"method": "rhf"
			},
			{
				"type": "occ",
				"energy": -0.24638,
				"method": "rhf"
			},
			{
				"type": "occ",
				"energy": -0.23057,
				"method": "rhf"
			},
			{
				"type": "occ",
				"energy": -0.21067,
				"method": "rhf"
			},
			{
				"type": "unocc",
				"energy": -0.03325,
				"method": "rhf"
			},
			{
				"type": "unocc",
				"energy": -0.01092,
				"method": "rhf"
			},
			{
				"type": "unocc",
				"energy": -0.00502,
				"method": "rhf"
			},
			{
				"type": "unocc",
				"energy": -0.00034,
				"method": "rhf"
			},
			{
				"type": "unocc",
				"energy": 0.04155,
				"method": "rhf"
			}
		],
		"cosmo_sigma_profile": { 
			"-0.025": 0.0,
			"-0.024": 0.0,
			"-0.023": 0.0,
			"-0.022": 0.0,
			"-0.021": 0.0,
			"-0.02": 0.0,
			"-0.019": 0.0,
			"-0.018": 0.0,
			"-0.017": 0.0,
			"-0.016": 0.0,
			"-0.015": 0.0,
			"-0.014": 0.0,
			"-0.013": 0.0,
			"-0.012": 0.0,
			"-0.011": 0.0,
			"-0.01": 0.95495261582,
			"-0.009": 3.90959123789,
			"-0.008": 3.0078083453,
			"-0.007": 6.74134643451,
			"-0.006": 16.6994035486,
			"-0.005": 24.2078667992,
			"-0.004": 28.8995984071,
			"-0.003": 22.8458483544,
			"-0.002": 19.7156107141,
			"-0.001": 17.553538,
			"0.0": 17.3971504537,
			"0.001": 19.3903187438,
			"0.002": 21.4078576576,
			"0.003": 24.7737886199,
			"0.004": 24.663057429,
			"0.005": 22.8382200577,
			"0.006": 7.11710292318,
			"0.007": 2.72897694023,
			"0.008": 3.38500648434,
			"0.009": 2.66471360028,
			"0.01": 1.69233686595,
			"0.011": 1.08488994648,
			"0.012": 0.712561481189,
			"0.013": 0.854055753587,
			"0.014": 0.723387164561,
			"0.015": 0.273762726178,
			"0.016": 0.603761969177,
			"0.017": 0.772969837492,
			"0.018": 0.783906996911,
			"0.019": 0.488248725517,
			"0.02": 0.299071481309,
			"0.021": 0.0,
			"0.022": 0.0,
			"0.023": 0.0,
			"0.024": 0.0,
			"0.025": 0.0
		}
	}
}
