{
	 "smiles": "CC1=CC(O)=C(F)C=C1", 
	 "Tm": 305.15, 
	 "num_atms": 16, 
	 "gaussian": { 
		 "optdone": 1, 
		 "sigma_profile": "yes", 
		 "theory": "DFT", 
		 "functional": "B3LYP", 
		 "basiset": "6-31G**", 
		 "properties": { 
			 "R2extent": 1434.7967, 
			 "electric_dipole_moment_norm": 0.878873506257, 
			 "electric_quadrupole_moment_norm": 4.5711747932, 
			 "total_energy": -446.022770918, 
			 "HOMO_LUMO_gap": 0.2173, 
			 "cosmo_polarized_energy": -5.58, 
			 "cosmo_cavitation_energy": 20.12, 
			 "cosmo_dispersion_energy": -15.01, 
			 "cosmo_repulsion_energy": 1.21, 
			 "cosmo_total_nonelectrostatic_energy": 6.32, 
			 "SMD_solvation_energy": 4.38 
		},
		"coords": [
			{
				"x": -0.1191746595,
				"y": -1.4919069705,
				"z": -2.0055774509,
				"element": "C" 
			},
			{
				"x": -0.0932930127,
				"y": -0.1999072562,
				"z": -1.2216799903,
				"element": "C" 
			},
			{
				"x": -0.2804200344,
				"y": -0.2203315132,
				"z": 0.1685537256,
				"element": "C" 
			},
			{
				"x": -0.2596913732,
				"y": 0.9595552926,
				"z": 0.9089708165,
				"element": "C" 
			},
			{
				"x": -0.442059998,
				"y": 0.9321842152,
				"z": 2.25811689,
				"element": "O" 
			},
			{
				"x": -0.047986832,
				"y": 2.1669375056,
				"z": 0.2354336972,
				"element": "C" 
			},
			{
				"x": -0.0350362643,
				"y": 3.2985664821,
				"z": 0.9970460803,
				"element": "F" 
			},
			{
				"x": 0.1395486797,
				"y": 2.2216005342,
				"z": -1.1319577103,
				"element": "C" 
			},
			{
				"x": 0.115941801,
				"y": 1.027891994,
				"z": -1.8611197554,
				"element": "C" 
			},
			{
				"x": 0.0360262104,
				"y": -1.3127038575,
				"z": -3.0728292169,
				"element": "H" 
			},
			{
				"x": 0.662194792,
				"y": -2.1811217875,
				"z": -1.665351831,
				"element": "H" 
			},
			{
				"x": -1.0777870718,
				"y": -2.0103187111,
				"z": -1.889395524,
				"element": "H" 
			},
			{
				"x": -0.445301172,
				"y": -1.1545742103,
				"z": 0.6973041446,
				"element": "H" 
			},
			{
				"x": -0.3923968449,
				"y": 1.8448635156,
				"z": 2.5780479992,
				"element": "H" 
			},
			{
				"x": 0.3002461311,
				"y": 3.1817404913,
				"z": -1.6107241734,
				"element": "H" 
			},
			{
				"x": 0.2620896486,
				"y": 1.0579242757,
				"z": -2.9366377012,
				"element": "H" 
			}
		],
		 "valence_orbital": [ 
			{
				"type": "occ",
				"energy": -0.3634,
				"method": "rhf"
			},
			{
				"type": "occ",
				"energy": -0.34385,
				"method": "rhf"
			},
			{
				"type": "occ",
				"energy": -0.32763,
				"method": "rhf"
			},
			{
				"type": "occ",
				"energy": -0.24387,
				"method": "rhf"
			},
			{
				"type": "occ",
				"energy": -0.2208,
				"method": "rhf"
			},
			{
				"type": "unocc",
				"energy": -0.0035,
				"method": "rhf"
			},
			{
				"type": "unocc",
				"energy": 0.01346,
				"method": "rhf"
			},
			{
				"type": "unocc",
				"energy": 0.07035,
				"method": "rhf"
			},
			{
				"type": "unocc",
				"energy": 0.10111,
				"method": "rhf"
			},
			{
				"type": "unocc",
				"energy": 0.12239,
				"method": "rhf"
			}
		],
		"cosmo_sigma_profile": { 
			"-0.025": 0.0,
			"-0.024": 0.0,
			"-0.023": 0.0,
			"-0.022": 0.0,
			"-0.021": 0.0,
			"-0.02": 0.0,
			"-0.019": 0.0,
			"-0.018": 0.0,
			"-0.017": 0.0,
			"-0.016": 0.482948814108,
			"-0.015": 0.568126724566,
			"-0.014": 0.75329831,
			"-0.013": 0.86310445261,
			"-0.012": 0.732138605606,
			"-0.011": 0.407972375381,
			"-0.01": 0.782841525591,
			"-0.009": 1.33228129254,
			"-0.008": 0.904388046016,
			"-0.007": 2.44459831064,
			"-0.006": 4.582878737,
			"-0.005": 7.32799847136,
			"-0.004": 12.8719389201,
			"-0.003": 11.7796859494,
			"-0.002": 13.0185875577,
			"-0.001": 12.8155151395,
			"0.0": 13.277280709,
			"0.001": 13.1017983614,
			"0.002": 11.5376787134,
			"0.003": 13.9206255808,
			"0.004": 15.8966808444,
			"0.005": 10.6964940574,
			"0.006": 2.24470537555,
			"0.007": 0.735978558085,
			"0.008": 1.21475100881,
			"0.009": 2.01853240108,
			"0.01": 1.82244430051,
			"0.011": 1.67083653132,
			"0.012": 0.355411788233,
			"0.013": 0.0,
			"0.014": 0.0,
			"0.015": 0.0,
			"0.016": 0.0,
			"0.017": 0.0,
			"0.018": 0.0,
			"0.019": 0.0,
			"0.02": 0.0,
			"0.021": 0.0,
			"0.022": 0.0,
			"0.023": 0.0,
			"0.024": 0.0,
			"0.025": 0.0
		}
	}
}
