{
	 "smiles": "O=CC1=C(SC=C1)C=C(C#N)C#N", 
	 "Tm": 401.15, 
	 "num_atms": 17, 
	 "gaussian": { 
		 "optdone": 1, 
		 "sigma_profile": "yes", 
		 "theory": "DFT", 
		 "functional": "B3LYP", 
		 "basiset": "6-31G**", 
		 "properties": { 
			 "R2extent": 2623.4227, 
			 "electric_dipole_moment_norm": 7.91460711912, 
			 "electric_quadrupole_moment_norm": 3.79398279385, 
			 "total_energy": -928.186105709, 
			 "HOMO_LUMO_gap": 0.14001, 
			 "cosmo_polarized_energy": -18.43, 
			 "cosmo_cavitation_energy": 26.4, 
			 "cosmo_dispersion_energy": -18.15, 
			 "cosmo_repulsion_energy": 1.4, 
			 "cosmo_total_nonelectrostatic_energy": 9.65, 
			 "SMD_solvation_energy": 8.0 
		},
		"coords": [
			{
				"x": 2.173686529,
				"y": -0.3623814726,
				"z": 1.0880644748,
				"element": "O" 
			},
			{
				"x": 2.1954695658,
				"y": 0.5660494532,
				"z": 0.3057966214,
				"element": "C" 
			},
			{
				"x": 1.01400925,
				"y": 1.1852013586,
				"z": -0.3359665736,
				"element": "C" 
			},
			{
				"x": -0.3235621444,
				"y": 0.8150553393,
				"z": -0.1757149305,
				"element": "C" 
			},
			{
				"x": -1.3723596153,
				"y": 2.0115702724,
				"z": -0.9032998569,
				"element": "S" 
			},
			{
				"x": -0.0338247749,
				"y": 2.9573797213,
				"z": -1.4442551337,
				"element": "C" 
			},
			{
				"x": 1.157142129,
				"y": 2.4023930109,
				"z": -1.0691121974,
				"element": "C" 
			},
			{
				"x": -0.9654283298,
				"y": -0.310677152,
				"z": 0.4689449717,
				"element": "C" 
			},
			{
				"x": -0.5861789068,
				"y": -1.6200411645,
				"z": 0.4597167066,
				"element": "C" 
			},
			{
				"x": -1.3725914833,
				"y": -2.5846974733,
				"z": 1.1734461839,
				"element": "C" 
			},
			{
				"x": -2.0177046734,
				"y": -3.3618798793,
				"z": 1.7502451703,
				"element": "N" 
			},
			{
				"x": 0.5102197472,
				"y": -2.1392816972,
				"z": -0.2995728871,
				"element": "C" 
			},
			{
				"x": 1.3532898027,
				"y": -2.5982594497,
				"z": -0.9557984216,
				"element": "N" 
			},
			{
				"x": 3.1521295503,
				"y": 1.0617406716,
				"z": 0.0355472315,
				"element": "H" 
			},
			{
				"x": -0.2041806932,
				"y": 3.8625867048,
				"z": -2.0106366268,
				"element": "H" 
			},
			{
				"x": 2.120996305,
				"y": 2.8495589928,
				"z": -1.2860118866,
				"element": "H" 
			},
			{
				"x": -1.9034122581,
				"y": -0.0976172364,
				"z": 0.9772071539,
				"element": "H" 
			}
		],
		 "valence_orbital": [ 
			{
				"type": "occ",
				"energy": -0.34402,
				"method": "rhf"
			},
			{
				"type": "occ",
				"energy": -0.31877,
				"method": "rhf"
			},
			{
				"type": "occ",
				"energy": -0.29532,
				"method": "rhf"
			},
			{
				"type": "occ",
				"energy": -0.27592,
				"method": "rhf"
			},
			{
				"type": "occ",
				"energy": -0.26244,
				"method": "rhf"
			},
			{
				"type": "unocc",
				"energy": -0.12243,
				"method": "rhf"
			},
			{
				"type": "unocc",
				"energy": -0.05614,
				"method": "rhf"
			},
			{
				"type": "unocc",
				"energy": -0.02938,
				"method": "rhf"
			},
			{
				"type": "unocc",
				"energy": -0.01731,
				"method": "rhf"
			},
			{
				"type": "unocc",
				"energy": -0.00887,
				"method": "rhf"
			}
		],
		"cosmo_sigma_profile": { 
			"-0.025": 0.0,
			"-0.024": 0.0,
			"-0.023": 0.0,
			"-0.022": 0.0,
			"-0.021": 0.0,
			"-0.02": 0.0,
			"-0.019": 0.0,
			"-0.018": 0.0,
			"-0.017": 0.0,
			"-0.016": 0.0,
			"-0.015": 0.0,
			"-0.014": 0.0,
			"-0.013": 0.0,
			"-0.012": 1.07535630063,
			"-0.011": 3.69033244694,
			"-0.01": 5.25962445299,
			"-0.009": 7.05793711103,
			"-0.008": 7.91338479531,
			"-0.007": 8.93405466847,
			"-0.006": 8.39035109445,
			"-0.005": 11.2483753939,
			"-0.004": 14.4015336451,
			"-0.003": 11.065165273,
			"-0.002": 15.1779258065,
			"-0.001": 18.285675761,
			"0.0": 17.8294793509,
			"0.001": 11.9379690679,
			"0.002": 8.07957349997,
			"0.003": 5.04580307544,
			"0.004": 6.48481303756,
			"0.005": 5.33615215712,
			"0.006": 7.27174971719,
			"0.007": 8.19918227411,
			"0.008": 8.81741081395,
			"0.009": 8.35440355877,
			"0.01": 7.60678019038,
			"0.011": 6.41712559643,
			"0.012": 3.95755833938,
			"0.013": 0.0515033204163,
			"0.014": 0.0,
			"0.015": 0.0,
			"0.016": 0.0,
			"0.017": 0.0,
			"0.018": 0.0,
			"0.019": 0.0,
			"0.02": 0.0,
			"0.021": 0.0,
			"0.022": 0.0,
			"0.023": 0.0,
			"0.024": 0.0,
			"0.025": 0.0
		}
	}
}
