{
	 "smiles": "CCOCCOC1=C(C=O)C=C(Br)C=C1", 
	 "Tm": 302.15, 
	 "num_atms": 28, 
	 "gaussian": { 
		 "optdone": 1, 
		 "sigma_profile": "yes", 
		 "theory": "DFT", 
		 "functional": "B3LYP", 
		 "basiset": "6-31G**", 
		 "properties": { 
			 "R2extent": 6927.5559, 
			 "electric_dipole_moment_norm": 6.66232039533, 
			 "electric_quadrupole_moment_norm": 14.7727596329, 
			 "total_energy": -3224.05087119, 
			 "HOMO_LUMO_gap": 0.1659, 
			 "cosmo_polarized_energy": -10.53, 
			 "cosmo_cavitation_energy": 34.3, 
			 "cosmo_dispersion_energy": -24.55, 
			 "cosmo_repulsion_energy": 1.98, 
			 "cosmo_total_nonelectrostatic_energy": 11.73, 
			 "SMD_solvation_energy": 6.22 
		},
		"coords": [
			{
				"x": -3.0727689457,
				"y": -2.3176725684,
				"z": -0.6811049975,
				"element": "C" 
			},
			{
				"x": -3.2334525739,
				"y": -1.2294531824,
				"z": 0.3776449053,
				"element": "C" 
			},
			{
				"x": -2.3151938466,
				"y": -0.1489301245,
				"z": 0.2241056079,
				"element": "O" 
			},
			{
				"x": -2.6517410896,
				"y": 0.7749626842,
				"z": -0.7910210366,
				"element": "C" 
			},
			{
				"x": -1.5909010153,
				"y": 1.8601958187,
				"z": -0.8709410343,
				"element": "C" 
			},
			{
				"x": -0.4074227601,
				"y": 1.438195508,
				"z": -1.5580671104,
				"element": "O" 
			},
			{
				"x": 0.71511643,
				"y": 1.0766978579,
				"z": -0.8736708616,
				"element": "C" 
			},
			{
				"x": 1.9369276612,
				"y": 1.1734617332,
				"z": -1.5765031507,
				"element": "C" 
			},
			{
				"x": 1.9988020408,
				"y": 1.674005474,
				"z": -2.9702957351,
				"element": "C" 
			},
			{
				"x": 3.0333694848,
				"y": 1.756304134,
				"z": -3.6100582082,
				"element": "O" 
			},
			{
				"x": 3.1327210276,
				"y": 0.8009879006,
				"z": -0.9455362112,
				"element": "C" 
			},
			{
				"x": 3.1152684038,
				"y": 0.3528514754,
				"z": 0.3652729665,
				"element": "C" 
			},
			{
				"x": 4.745826519,
				"y": -0.1452046484,
				"z": 1.2310527744,
				"element": "Br" 
			},
			{
				"x": 1.9085438696,
				"y": 0.2533400453,
				"z": 1.062437986,
				"element": "C" 
			},
			{
				"x": 0.7100908196,
				"y": 0.60800047,
				"z": 0.4471435186,
				"element": "C" 
			},
			{
				"x": -3.7468253268,
				"y": -3.1531403347,
				"z": -0.4642280859,
				"element": "H" 
			},
			{
				"x": -2.0461238609,
				"y": -2.6948748856,
				"z": -0.6868565113,
				"element": "H" 
			},
			{
				"x": -3.309984114,
				"y": -1.9541465151,
				"z": -1.6855717743,
				"element": "H" 
			},
			{
				"x": -3.0294673014,
				"y": -1.6402775978,
				"z": 1.3714125784,
				"element": "H" 
			},
			{
				"x": -4.2653694912,
				"y": -0.8435714894,
				"z": 0.3856614775,
				"element": "H" 
			},
			{
				"x": -2.736283372,
				"y": 0.29291877,
				"z": -1.7757376899,
				"element": "H" 
			},
			{
				"x": -3.6214536487,
				"y": 1.2538139727,
				"z": -0.5686116975,
				"element": "H" 
			},
			{
				"x": -1.9870593293,
				"y": 2.6894717703,
				"z": -1.46639832,
				"element": "H" 
			},
			{
				"x": -1.3483207225,
				"y": 2.23645868,
				"z": 0.1286121283,
				"element": "H" 
			},
			{
				"x": 1.0315008512,
				"y": 1.980466679,
				"z": -3.4085645137,
				"element": "H" 
			},
			{
				"x": 4.0536315787,
				"y": 0.8859112711,
				"z": -1.5113212923,
				"element": "H" 
			},
			{
				"x": 1.9016150568,
				"y": -0.1146732607,
				"z": 2.0825276952,
				"element": "H" 
			},
			{
				"x": -0.2274463448,
				"y": 0.4700003625,
				"z": 0.9706165922,
				"element": "H" 
			}
		],
		 "valence_orbital": [ 
			{
				"type": "occ",
				"energy": -0.28497,
				"method": "rhf"
			},
			{
				"type": "occ",
				"energy": -0.2745,
				"method": "rhf"
			},
			{
				"type": "occ",
				"energy": -0.26556,
				"method": "rhf"
			},
			{
				"type": "occ",
				"energy": -0.24771,
				"method": "rhf"
			},
			{
				"type": "occ",
				"energy": -0.22764,
				"method": "rhf"
			},
			{
				"type": "unocc",
				"energy": -0.06174,
				"method": "rhf"
			},
			{
				"type": "unocc",
				"energy": -0.00752,
				"method": "rhf"
			},
			{
				"type": "unocc",
				"energy": 0.00985,
				"method": "rhf"
			},
			{
				"type": "unocc",
				"energy": 0.03689,
				"method": "rhf"
			},
			{
				"type": "unocc",
				"energy": 0.07518,
				"method": "rhf"
			}
		],
		"cosmo_sigma_profile": { 
			"-0.025": 0.0,
			"-0.024": 0.0,
			"-0.023": 0.0,
			"-0.022": 0.0,
			"-0.021": 0.0,
			"-0.02": 0.0,
			"-0.019": 0.0,
			"-0.018": 0.0,
			"-0.017": 0.0,
			"-0.016": 0.0,
			"-0.015": 0.0,
			"-0.014": 0.0,
			"-0.013": 0.0,
			"-0.012": 0.0,
			"-0.011": 0.0,
			"-0.01": 0.0,
			"-0.009": 0.0,
			"-0.008": 0.823722326995,
			"-0.007": 3.6888956584,
			"-0.006": 10.2389901709,
			"-0.005": 17.5221246881,
			"-0.004": 28.8722074643,
			"-0.003": 28.2380057156,
			"-0.002": 24.732454794,
			"-0.001": 21.9871421011,
			"0.0": 22.0479909018,
			"0.001": 26.1329160841,
			"0.002": 24.4117139488,
			"0.003": 15.3216898992,
			"0.004": 16.9182449483,
			"0.005": 11.5610843921,
			"0.006": 4.11228735956,
			"0.007": 3.44174087929,
			"0.008": 2.69632800848,
			"0.009": 2.04877956837,
			"0.01": 2.98709596798,
			"0.011": 3.97792127966,
			"0.012": 2.8119832599,
			"0.013": 0.888859187192,
			"0.014": 0.0,
			"0.015": 0.0,
			"0.016": 0.0,
			"0.017": 0.0,
			"0.018": 0.0,
			"0.019": 0.0,
			"0.02": 0.0,
			"0.021": 0.0,
			"0.022": 0.0,
			"0.023": 0.0,
			"0.024": 0.0,
			"0.025": 0.0
		}
	}
}
