{
	 "smiles": "BrCC1=CC2=CC=CC=C2N1S(=O)(=O)C1=CC=CC=C1", 
	 "Tm": 389.15, 
	 "num_atms": 32, 
	 "gaussian": { 
		 "optdone": 1, 
		 "sigma_profile": "yes", 
		 "theory": "DFT", 
		 "functional": "B3LYP", 
		 "basiset": "6-31G**", 
		 "properties": { 
			 "R2extent": 9730.3289, 
			 "electric_dipole_moment_norm": 6.82431232067, 
			 "electric_quadrupole_moment_norm": 19.6239333453, 
			 "total_energy": -3753.54550136, 
			 "HOMO_LUMO_gap": 0.16386, 
			 "cosmo_polarized_energy": -15.5, 
			 "cosmo_cavitation_energy": 39.0, 
			 "cosmo_dispersion_energy": -27.65, 
			 "cosmo_repulsion_energy": 2.08, 
			 "cosmo_total_nonelectrostatic_energy": 13.42, 
			 "SMD_solvation_energy": 4.26 
		},
		"coords": [
			{
				"x": -1.3528811114,
				"y": -3.2057024591,
				"z": -4.6800341004,
				"element": "Br" 
			},
			{
				"x": -0.9765468986,
				"y": -1.278849559,
				"z": -4.2378398904,
				"element": "C" 
			},
			{
				"x": -1.4728676124,
				"y": -0.9026793682,
				"z": -2.8974036652,
				"element": "C" 
			},
			{
				"x": -2.6899911319,
				"y": -0.3466420914,
				"z": -2.6225782807,
				"element": "C" 
			},
			{
				"x": -2.8467046038,
				"y": -0.249571205,
				"z": -1.2009007268,
				"element": "C" 
			},
			{
				"x": -3.8876412481,
				"y": 0.2163820054,
				"z": -0.3826146579,
				"element": "C" 
			},
			{
				"x": -3.7348877639,
				"y": 0.1510175012,
				"z": 0.9959537742,
				"element": "C" 
			},
			{
				"x": -2.5649813704,
				"y": -0.3862172172,
				"z": 1.563043115,
				"element": "C" 
			},
			{
				"x": -1.5216209162,
				"y": -0.8657249361,
				"z": 0.7744239552,
				"element": "C" 
			},
			{
				"x": -1.6726794679,
				"y": -0.7821806781,
				"z": -0.6137841854,
				"element": "C" 
			},
			{
				"x": -0.8222099269,
				"y": -1.2005306463,
				"z": -1.6657783256,
				"element": "N" 
			},
			{
				"x": 0.8917797122,
				"y": -1.3120067818,
				"z": -1.4660407862,
				"element": "S" 
			},
			{
				"x": 1.1004319501,
				"y": -1.9268465288,
				"z": -0.1599064929,
				"element": "O" 
			},
			{
				"x": 1.4113347631,
				"y": -1.9095429365,
				"z": -2.691741563,
				"element": "O" 
			},
			{
				"x": 1.4445772027,
				"y": 0.393593323,
				"z": -1.3919445004,
				"element": "C" 
			},
			{
				"x": 1.4353931534,
				"y": 1.0657710609,
				"z": -0.1668233627,
				"element": "C" 
			},
			{
				"x": 1.8560236872,
				"y": 2.3948114802,
				"z": -0.1266630943,
				"element": "C" 
			},
			{
				"x": 2.2832477764,
				"y": 3.0325658448,
				"z": -1.2936599088,
				"element": "C" 
			},
			{
				"x": 2.2998263146,
				"y": 2.3433541227,
				"z": -2.5084675414,
				"element": "C" 
			},
			{
				"x": 1.8795702392,
				"y": 1.014819429,
				"z": -2.5652546168,
				"element": "C" 
			},
			{
				"x": 0.0963838713,
				"y": -1.1980321525,
				"z": -4.3677065187,
				"element": "H" 
			},
			{
				"x": -1.5111908224,
				"y": -0.7159850948,
				"z": -4.9992660402,
				"element": "H" 
			},
			{
				"x": -3.4287742971,
				"y": -0.0899345762,
				"z": -3.3702067956,
				"element": "H" 
			},
			{
				"x": -4.7955868417,
				"y": 0.6148802232,
				"z": -0.8257710123,
				"element": "H" 
			},
			{
				"x": -4.5295863154,
				"y": 0.5057262889,
				"z": 1.6453283245,
				"element": "H" 
			},
			{
				"x": -2.475429565,
				"y": -0.4458696696,
				"z": 2.6436425167,
				"element": "H" 
			},
			{
				"x": -0.6418764617,
				"y": -1.3125489826,
				"z": 1.2179980815,
				"element": "H" 
			},
			{
				"x": 1.1186637856,
				"y": 0.5540976976,
				"z": 0.733925295,
				"element": "H" 
			},
			{
				"x": 1.8559152608,
				"y": 2.9288703431,
				"z": 0.818405438,
				"element": "H" 
			},
			{
				"x": 2.6125111038,
				"y": 4.0666070297,
				"z": -1.2546486655,
				"element": "H" 
			},
			{
				"x": 2.6468000064,
				"y": 2.8361258196,
				"z": -3.4114016788,
				"element": "H" 
			},
			{
				"x": 1.9109975282,
				"y": 0.458242714,
				"z": -3.4949840902,
				"element": "H" 
			}
		],
		 "valence_orbital": [ 
			{
				"type": "occ",
				"energy": -0.28075,
				"method": "rhf"
			},
			{
				"type": "occ",
				"energy": -0.26746,
				"method": "rhf"
			},
			{
				"type": "occ",
				"energy": -0.26291,
				"method": "rhf"
			},
			{
				"type": "occ",
				"energy": -0.24007,
				"method": "rhf"
			},
			{
				"type": "occ",
				"energy": -0.22356,
				"method": "rhf"
			},
			{
				"type": "unocc",
				"energy": -0.0597,
				"method": "rhf"
			},
			{
				"type": "unocc",
				"energy": -0.04467,
				"method": "rhf"
			},
			{
				"type": "unocc",
				"energy": -0.03238,
				"method": "rhf"
			},
			{
				"type": "unocc",
				"energy": -0.0046,
				"method": "rhf"
			},
			{
				"type": "unocc",
				"energy": 0.01302,
				"method": "rhf"
			}
		],
		"cosmo_sigma_profile": { 
			"-0.025": 0.0,
			"-0.024": 0.0,
			"-0.023": 0.0,
			"-0.022": 0.0,
			"-0.021": 0.0,
			"-0.02": 0.0,
			"-0.019": 0.0,
			"-0.018": 0.0,
			"-0.017": 0.0,
			"-0.016": 0.0,
			"-0.015": 0.0,
			"-0.014": 0.0,
			"-0.013": 0.0,
			"-0.012": 0.0,
			"-0.011": 0.0,
			"-0.01": 0.0663361141042,
			"-0.009": 1.36768566039,
			"-0.008": 7.02668936914,
			"-0.007": 16.0100918713,
			"-0.006": 22.5685224099,
			"-0.005": 22.8174865689,
			"-0.004": 20.1802493245,
			"-0.003": 17.3858940254,
			"-0.002": 16.9637272364,
			"-0.001": 17.793989605,
			"0.0": 19.6979409638,
			"0.001": 23.2518446046,
			"0.002": 30.0734726902,
			"0.003": 28.9469064548,
			"0.004": 18.4260781594,
			"0.005": 16.1640988545,
			"0.006": 14.3335755179,
			"0.007": 6.71023924607,
			"0.008": 5.03997512358,
			"0.009": 5.83484820983,
			"0.01": 6.15663878414,
			"0.011": 0.379704615221,
			"0.012": 0.0,
			"0.013": 0.0,
			"0.014": 0.0,
			"0.015": 0.0,
			"0.016": 0.0,
			"0.017": 0.0,
			"0.018": 0.0,
			"0.019": 0.0,
			"0.02": 0.0,
			"0.021": 0.0,
			"0.022": 0.0,
			"0.023": 0.0,
			"0.024": 0.0,
			"0.025": 0.0
		}
	}
}
