{
	 "smiles": "ClC(Cl)(Cl)C(=O)NC1=CC=CC=C1", 
	 "Tm": 369.15, 
	 "num_atms": 19, 
	 "gaussian": { 
		 "optdone": 1, 
		 "sigma_profile": "yes", 
		 "theory": "DFT", 
		 "functional": "B3LYP", 
		 "basiset": "6-31G**", 
		 "properties": { 
			 "R2extent": 3739.0974, 
			 "electric_dipole_moment_norm": 4.38471739796, 
			 "electric_quadrupole_moment_norm": 5.66262612486, 
			 "total_energy": -1818.99631125, 
			 "HOMO_LUMO_gap": 0.21864, 
			 "cosmo_polarized_energy": -9.79, 
			 "cosmo_cavitation_energy": 28.37, 
			 "cosmo_dispersion_energy": -20.46, 
			 "cosmo_repulsion_energy": 1.63, 
			 "cosmo_total_nonelectrostatic_energy": 9.53, 
			 "SMD_solvation_energy": 4.74 
		},
		"coords": [
			{
				"x": 1.094445853,
				"y": -1.6151372185,
				"z": -1.7003688923,
				"element": "Cl" 
			},
			{
				"x": 2.042294233,
				"y": -0.9151283508,
				"z": -0.3365937474,
				"element": "C" 
			},
			{
				"x": 1.9616589022,
				"y": -2.0121818233,
				"z": 1.0968787888,
				"element": "Cl" 
			},
			{
				"x": 3.7445078537,
				"y": -0.7703322461,
				"z": -0.8450263869,
				"element": "Cl" 
			},
			{
				"x": 1.4964919019,
				"y": 0.5088478604,
				"z": 0.0610930481,
				"element": "C" 
			},
			{
				"x": 2.2623089812,
				"y": 1.4510699224,
				"z": 0.088639793,
				"element": "O" 
			},
			{
				"x": 0.1738136203,
				"y": 0.6539662627,
				"z": 0.3779274588,
				"element": "N" 
			},
			{
				"x": -0.9581058571,
				"y": -0.233059891,
				"z": 0.4304291495,
				"element": "C" 
			},
			{
				"x": -1.2242538823,
				"y": -0.9701019077,
				"z": 1.5874892805,
				"element": "C" 
			},
			{
				"x": -2.3755660958,
				"y": -1.7557922773,
				"z": 1.6596737702,
				"element": "C" 
			},
			{
				"x": -3.2684427095,
				"y": -1.792715161,
				"z": 0.5877842625,
				"element": "C" 
			},
			{
				"x": -3.0111882256,
				"y": -1.038958523,
				"z": -0.5596757378,
				"element": "C" 
			},
			{
				"x": -1.8594189516,
				"y": -0.2574095989,
				"z": -0.6390289397,
				"element": "C" 
			},
			{
				"x": -0.014393733,
				"y": 1.6259718289,
				"z": 0.5980166533,
				"element": "H" 
			},
			{
				"x": -0.5321353362,
				"y": -0.9222513704,
				"z": 2.4206405763,
				"element": "H" 
			},
			{
				"x": -2.5764845368,
				"y": -2.3321139122,
				"z": 2.5577177541,
				"element": "H" 
			},
			{
				"x": -4.1649400698,
				"y": -2.4026348383,
				"z": 0.6476643826,
				"element": "H" 
			},
			{
				"x": -3.7061784947,
				"y": -1.0593281871,
				"z": -1.3937160995,
				"element": "H" 
			},
			{
				"x": -1.6462134528,
				"y": 0.3299894313,
				"z": -1.5263451141,
				"element": "H" 
			}
		],
		 "valence_orbital": [ 
			{
				"type": "occ",
				"energy": -0.30735,
				"method": "rhf"
			},
			{
				"type": "occ",
				"energy": -0.2864,
				"method": "rhf"
			},
			{
				"type": "occ",
				"energy": -0.28088,
				"method": "rhf"
			},
			{
				"type": "occ",
				"energy": -0.26711,
				"method": "rhf"
			},
			{
				"type": "occ",
				"energy": -0.26227,
				"method": "rhf"
			},
			{
				"type": "unocc",
				"energy": -0.04363,
				"method": "rhf"
			},
			{
				"type": "unocc",
				"energy": -0.04074,
				"method": "rhf"
			},
			{
				"type": "unocc",
				"energy": -0.02469,
				"method": "rhf"
			},
			{
				"type": "unocc",
				"energy": -0.01864,
				"method": "rhf"
			},
			{
				"type": "unocc",
				"energy": 0.00105,
				"method": "rhf"
			}
		],
		"cosmo_sigma_profile": { 
			"-0.025": 0.0,
			"-0.024": 0.0,
			"-0.023": 0.0,
			"-0.022": 0.0,
			"-0.021": 0.0,
			"-0.02": 0.0,
			"-0.019": 0.0,
			"-0.018": 0.0,
			"-0.017": 0.0,
			"-0.016": 0.134824543955,
			"-0.015": 1.04827190621,
			"-0.014": 0.941188315298,
			"-0.013": 0.970481078626,
			"-0.012": 1.20133248529,
			"-0.011": 0.716327532974,
			"-0.01": 0.489841796609,
			"-0.009": 0.939862233322,
			"-0.008": 0.975720572512,
			"-0.007": 2.37682000913,
			"-0.006": 10.6236920267,
			"-0.005": 14.0998489235,
			"-0.004": 17.0568340565,
			"-0.003": 17.1605747009,
			"-0.002": 19.4353819636,
			"-0.001": 16.1888457633,
			"0.0": 17.3265964885,
			"0.001": 17.720894816,
			"0.002": 26.2966790677,
			"0.003": 30.1003107988,
			"0.004": 14.0359613847,
			"0.005": 6.43549222169,
			"0.006": 1.47496045412,
			"0.007": 0.72906754246,
			"0.008": 2.0756057164,
			"0.009": 2.15343210501,
			"0.01": 2.1887053425,
			"0.011": 5.47116702596,
			"0.012": 2.7869647063,
			"0.013": 0.018148993504,
			"0.014": 0.0,
			"0.015": 0.0,
			"0.016": 0.0,
			"0.017": 0.0,
			"0.018": 0.0,
			"0.019": 0.0,
			"0.02": 0.0,
			"0.021": 0.0,
			"0.022": 0.0,
			"0.023": 0.0,
			"0.024": 0.0,
			"0.025": 0.0
		}
	}
}
