{
	 "smiles": "CN(C)C1=CC=C(C=C1)C1C(C#N)=C(N)SC(N)=C1C1=NC2=C(S1)C=CC=C2", 
	 "Tm": 484.15, 
	 "num_atms": 47, 
	 "gaussian": { 
		 "optdone": 1, 
		 "sigma_profile": "yes", 
		 "theory": "DFT", 
		 "functional": "B3LYP", 
		 "basiset": "6-31G**", 
		 "properties": { 
			 "R2extent": 13675.7978, 
			 "electric_dipole_moment_norm": 3.86688146314, 
			 "electric_quadrupole_moment_norm": 31.2626267462, 
			 "total_energy": -1881.7921384, 
			 "HOMO_LUMO_gap": 0.13309, 
			 "cosmo_polarized_energy": -21.39, 
			 "cosmo_cavitation_energy": 52.94, 
			 "cosmo_dispersion_energy": -37.32, 
			 "cosmo_repulsion_energy": 2.74, 
			 "cosmo_total_nonelectrostatic_energy": 18.36, 
			 "SMD_solvation_energy": 7.55 
		},
		"coords": [
			{
				"x": -2.5641600113,
				"y": -4.0550204643,
				"z": -3.8975030114,
				"element": "C" 
			},
			{
				"x": -2.0838289715,
				"y": -3.8743695808,
				"z": -2.5382113137,
				"element": "N" 
			},
			{
				"x": -1.9552376519,
				"y": -5.0539217119,
				"z": -1.700352324,
				"element": "C" 
			},
			{
				"x": -1.3414667889,
				"y": -2.738649652,
				"z": -2.2267302311,
				"element": "C" 
			},
			{
				"x": -1.2543602882,
				"y": -1.6466307224,
				"z": -3.1205907271,
				"element": "C" 
			},
			{
				"x": -0.5387811444,
				"y": -0.5031491322,
				"z": -2.7854191318,
				"element": "C" 
			},
			{
				"x": 0.1353562869,
				"y": -0.3829736057,
				"z": -1.5628051025,
				"element": "C" 
			},
			{
				"x": 0.055691306,
				"y": -1.4634981761,
				"z": -0.6798529506,
				"element": "C" 
			},
			{
				"x": -0.6573613995,
				"y": -2.6170435535,
				"z": -0.9976794275,
				"element": "C" 
			},
			{
				"x": 0.9441498295,
				"y": 0.8881860968,
				"z": -1.2661117694,
				"element": "C" 
			},
			{
				"x": 2.2625287245,
				"y": 0.9185920137,
				"z": -2.0470265218,
				"element": "C" 
			},
			{
				"x": 2.2611990469,
				"y": 1.4534517821,
				"z": -3.3636056775,
				"element": "C" 
			},
			{
				"x": 2.2872743847,
				"y": 1.8908339044,
				"z": -4.4461799057,
				"element": "N" 
			},
			{
				"x": 3.4346637311,
				"y": 0.4181926257,
				"z": -1.5730614894,
				"element": "C" 
			},
			{
				"x": 4.5879163894,
				"y": 0.2305507476,
				"z": -2.3031409738,
				"element": "N" 
			},
			{
				"x": 3.5675727023,
				"y": -0.1882698009,
				"z": 0.0865903333,
				"element": "S" 
			},
			{
				"x": 2.2651230821,
				"y": 0.7350689215,
				"z": 0.8905310784,
				"element": "C" 
			},
			{
				"x": 2.4734563984,
				"y": 0.8354859982,
				"z": 2.2333510682,
				"element": "N" 
			},
			{
				"x": 1.1547333947,
				"y": 1.1813282102,
				"z": 0.2136820148,
				"element": "C" 
			},
			{
				"x": 0.1447942022,
				"y": 1.9398984047,
				"z": 0.9241952513,
				"element": "C" 
			},
			{
				"x": 0.1550971734,
				"y": 2.2088942097,
				"z": 2.2111067827,
				"element": "N" 
			},
			{
				"x": -0.9271432947,
				"y": 2.9719492092,
				"z": 2.6006472163,
				"element": "C" 
			},
			{
				"x": -1.8358659876,
				"y": 3.3007938265,
				"z": 1.566365992,
				"element": "C" 
			},
			{
				"x": -1.276232316,
				"y": 2.6074660046,
				"z": 0.0592675657,
				"element": "S" 
			},
			{
				"x": -2.9794647321,
				"y": 4.062113227,
				"z": 1.8145457431,
				"element": "C" 
			},
			{
				"x": -3.20972025,
				"y": 4.4993170827,
				"z": 3.1174946038,
				"element": "C" 
			},
			{
				"x": -2.3149988637,
				"y": 4.1806029205,
				"z": 4.153121734,
				"element": "C" 
			},
			{
				"x": -1.1772788132,
				"y": 3.42103392,
				"z": 3.9067103936,
				"element": "C" 
			},
			{
				"x": -3.1329885311,
				"y": -4.9847016639,
				"z": -3.954610575,
				"element": "H" 
			},
			{
				"x": -1.7518290165,
				"y": -4.1023298013,
				"z": -4.6403435639,
				"element": "H" 
			},
			{
				"x": -3.2382671743,
				"y": -3.2413954294,
				"z": -4.1878675287,
				"element": "H" 
			},
			{
				"x": -2.6168126753,
				"y": -5.8350758881,
				"z": -2.0788534104,
				"element": "H" 
			},
			{
				"x": -2.2595058843,
				"y": -4.838702054,
				"z": -0.6698320453,
				"element": "H" 
			},
			{
				"x": -0.9292946988,
				"y": -5.4551298395,
				"z": -1.6729010179,
				"element": "H" 
			},
			{
				"x": -1.7512206374,
				"y": -1.6821186024,
				"z": -4.0822353805,
				"element": "H" 
			},
			{
				"x": -0.500046443,
				"y": 0.3130170666,
				"z": -3.503365303,
				"element": "H" 
			},
			{
				"x": 0.5511368251,
				"y": -1.4095004384,
				"z": 0.2842676241,
				"element": "H" 
			},
			{
				"x": -0.6803545423,
				"y": -3.4232595787,
				"z": -0.2748327569,
				"element": "H" 
			},
			{
				"x": 0.3651910951,
				"y": 1.7256591886,
				"z": -1.6723621584,
				"element": "H" 
			},
			{
				"x": 5.4598740104,
				"y": 0.4348398302,
				"z": -1.8331690199,
				"element": "H" 
			},
			{
				"x": 4.5486630192,
				"y": 0.5592448787,
				"z": -3.26076274,
				"element": "H" 
			},
			{
				"x": 3.425894991,
				"y": 0.8675989795,
				"z": 2.5660301921,
				"element": "H" 
			},
			{
				"x": 1.7605119392,
				"y": 1.3830498152,
				"z": 2.7240941728,
				"element": "H" 
			},
			{
				"x": -3.671566596,
				"y": 4.3092840732,
				"z": 1.0158671336,
				"element": "H" 
			},
			{
				"x": -4.0925990324,
				"y": 5.0935706041,
				"z": 3.3327144098,
				"element": "H" 
			},
			{
				"x": -2.5164782909,
				"y": 4.5326897773,
				"z": 5.1604534439,
				"element": "H" 
			},
			{
				"x": -0.4808644969,
				"y": 3.1688263766,
				"z": 4.6999693037,
				"element": "H" 
			}
		],
		 "valence_orbital": [ 
			{
				"type": "occ",
				"energy": -0.23757,
				"method": "rhf"
			},
			{
				"type": "occ",
				"energy": -0.23121,
				"method": "rhf"
			},
			{
				"type": "occ",
				"energy": -0.22079,
				"method": "rhf"
			},
			{
				"type": "occ",
				"energy": -0.19943,
				"method": "rhf"
			},
			{
				"type": "occ",
				"energy": -0.18256,
				"method": "rhf"
			},
			{
				"type": "unocc",
				"energy": -0.04947,
				"method": "rhf"
			},
			{
				"type": "unocc",
				"energy": -0.02276,
				"method": "rhf"
			},
			{
				"type": "unocc",
				"energy": -0.00275,
				"method": "rhf"
			},
			{
				"type": "unocc",
				"energy": -0.00076,
				"method": "rhf"
			},
			{
				"type": "unocc",
				"energy": 0.00754,
				"method": "rhf"
			}
		],
		"cosmo_sigma_profile": { 
			"-0.025": 0.0,
			"-0.024": 0.0,
			"-0.023": 0.0,
			"-0.022": 0.0,
			"-0.021": 0.0,
			"-0.02": 0.0,
			"-0.019": 0.0,
			"-0.018": 0.0,
			"-0.017": 0.0,
			"-0.016": 0.0,
			"-0.015": 0.675301003042,
			"-0.014": 2.69508752276,
			"-0.013": 3.21045670562,
			"-0.012": 3.82107542226,
			"-0.011": 3.60609932372,
			"-0.01": 2.35657089852,
			"-0.009": 3.79364873436,
			"-0.008": 3.82011583825,
			"-0.007": 6.56883638597,
			"-0.006": 16.2191094831,
			"-0.005": 23.3207561763,
			"-0.004": 29.8886777111,
			"-0.003": 32.0603190429,
			"-0.002": 33.0723918721,
			"-0.001": 35.3513311341,
			"0.0": 26.9977516722,
			"0.001": 31.1293832011,
			"0.002": 34.6283739724,
			"0.003": 32.3783193144,
			"0.004": 29.8020713982,
			"0.005": 24.7294994948,
			"0.006": 14.2680416675,
			"0.007": 10.7695009502,
			"0.008": 5.45494605812,
			"0.009": 3.55877851609,
			"0.01": 2.92909445787,
			"0.011": 3.51789657792,
			"0.012": 2.77120376033,
			"0.013": 2.65926368806,
			"0.014": 1.39885607486,
			"0.015": 0.0046194547367,
			"0.016": 0.0,
			"0.017": 0.0,
			"0.018": 0.0,
			"0.019": 0.0,
			"0.02": 0.0,
			"0.021": 0.0,
			"0.022": 0.0,
			"0.023": 0.0,
			"0.024": 0.0,
			"0.025": 0.0
		}
	}
}
