{
	 "smiles": "ClC(=O)C1=CC(=CC=C1)C1=NC=CS1", 
	 "Tm": 353.35, 
	 "num_atms": 20, 
	 "gaussian": { 
		 "optdone": 1, 
		 "sigma_profile": "yes", 
		 "theory": "DFT", 
		 "functional": "B3LYP", 
		 "basiset": "6-31G**", 
		 "properties": { 
			 "R2extent": 4601.0497, 
			 "electric_dipole_moment_norm": 3.75270593839, 
			 "electric_quadrupole_moment_norm": 16.5333533271, 
			 "total_energy": -1373.03758539, 
			 "HOMO_LUMO_gap": 0.15716, 
			 "cosmo_polarized_energy": -7.88, 
			 "cosmo_cavitation_energy": 28.61, 
			 "cosmo_dispersion_energy": -21.57, 
			 "cosmo_repulsion_energy": 1.63, 
			 "cosmo_total_nonelectrostatic_energy": 8.67, 
			 "SMD_solvation_energy": 4.3 
		},
		"coords": [
			{
				"x": 3.4015218565,
				"y": -2.0368624152,
				"z": 1.0138227077,
				"element": "Cl" 
			},
			{
				"x": 2.5399820848,
				"y": -2.1385406638,
				"z": -0.6000199026,
				"element": "C" 
			},
			{
				"x": 2.7989658166,
				"y": -3.0464802999,
				"z": -1.3307729559,
				"element": "O" 
			},
			{
				"x": 1.5657406835,
				"y": -1.053127637,
				"z": -0.870305816,
				"element": "C" 
			},
			{
				"x": 1.2978471206,
				"y": -0.0099560044,
				"z": 0.0223639409,
				"element": "C" 
			},
			{
				"x": 0.3624608085,
				"y": 0.9794693154,
				"z": -0.3053216223,
				"element": "C" 
			},
			{
				"x": -0.3017603121,
				"y": 0.9077580955,
				"z": -1.5434575292,
				"element": "C" 
			},
			{
				"x": -0.034226868,
				"y": -0.131400787,
				"z": -2.4315530618,
				"element": "C" 
			},
			{
				"x": 0.895546985,
				"y": -1.1140705141,
				"z": -2.1046337494,
				"element": "C" 
			},
			{
				"x": 0.0508535717,
				"y": 2.0928652445,
				"z": 0.6031860497,
				"element": "C" 
			},
			{
				"x": -0.8175447053,
				"y": 3.0311874788,
				"z": 0.3255268239,
				"element": "N" 
			},
			{
				"x": -0.9161181095,
				"y": 3.9448257491,
				"z": 1.3415499157,
				"element": "C" 
			},
			{
				"x": -0.117074963,
				"y": 3.7211079314,
				"z": 2.4272571205,
				"element": "C" 
			},
			{
				"x": 0.820747802,
				"y": 2.2876544788,
				"z": 2.1815092638,
				"element": "S" 
			},
			{
				"x": 1.8237920885,
				"y": 0.0211338535,
				"z": 0.96937772,
				"element": "H" 
			},
			{
				"x": -1.0237276023,
				"y": 1.6795600832,
				"z": -1.7859352932,
				"element": "H" 
			},
			{
				"x": -0.5542027867,
				"y": -0.1741711925,
				"z": -3.3835269449,
				"element": "H" 
			},
			{
				"x": 1.1163403429,
				"y": -1.9300034875,
				"z": -2.7834137531,
				"element": "H" 
			},
			{
				"x": -1.6022631253,
				"y": 4.7775959416,
				"z": 1.2408079814,
				"element": "H" 
			},
			{
				"x": -0.0276806881,
				"y": 4.3013548294,
				"z": 3.3343391048,
				"element": "H" 
			}
		],
		 "valence_orbital": [ 
			{
				"type": "occ",
				"energy": -0.29628,
				"method": "rhf"
			},
			{
				"type": "occ",
				"energy": -0.29323,
				"method": "rhf"
			},
			{
				"type": "occ",
				"energy": -0.28734,
				"method": "rhf"
			},
			{
				"type": "occ",
				"energy": -0.28214,
				"method": "rhf"
			},
			{
				"type": "occ",
				"energy": -0.23952,
				"method": "rhf"
			},
			{
				"type": "unocc",
				"energy": -0.08236,
				"method": "rhf"
			},
			{
				"type": "unocc",
				"energy": -0.0661,
				"method": "rhf"
			},
			{
				"type": "unocc",
				"energy": -0.00131,
				"method": "rhf"
			},
			{
				"type": "unocc",
				"energy": 0.00706,
				"method": "rhf"
			},
			{
				"type": "unocc",
				"energy": 0.0183,
				"method": "rhf"
			}
		],
		"cosmo_sigma_profile": { 
			"-0.025": 0.0,
			"-0.024": 0.0,
			"-0.023": 0.0,
			"-0.022": 0.0,
			"-0.021": 0.0,
			"-0.02": 0.0,
			"-0.019": 0.0,
			"-0.018": 0.0,
			"-0.017": 0.0,
			"-0.016": 0.0,
			"-0.015": 0.0,
			"-0.014": 0.0,
			"-0.013": 0.0,
			"-0.012": 0.0,
			"-0.011": 0.0,
			"-0.01": 0.547038424993,
			"-0.009": 2.24870684811,
			"-0.008": 3.58842631335,
			"-0.007": 8.9871439851,
			"-0.006": 11.0020814901,
			"-0.005": 11.6633725137,
			"-0.004": 13.2315727888,
			"-0.003": 13.3458477492,
			"-0.002": 15.2245509035,
			"-0.001": 18.530280084,
			"0.0": 24.5871845976,
			"0.001": 32.9874822413,
			"0.002": 23.8453727672,
			"0.003": 16.1104065157,
			"0.004": 11.5807479601,
			"0.005": 7.51347702716,
			"0.006": 5.35650928284,
			"0.007": 3.97830560283,
			"0.008": 4.87955389122,
			"0.009": 4.3529269004,
			"0.01": 1.0476911019,
			"0.011": 1.0961568626,
			"0.012": 0.620001681312,
			"0.013": 0.0,
			"0.014": 0.0,
			"0.015": 0.0,
			"0.016": 0.0,
			"0.017": 0.0,
			"0.018": 0.0,
			"0.019": 0.0,
			"0.02": 0.0,
			"0.021": 0.0,
			"0.022": 0.0,
			"0.023": 0.0,
			"0.024": 0.0,
			"0.025": 0.0
		}
	}
}
