{
	 "smiles": "COC1=CC(C2=CC=CC=C12)C1=CC=CC=C1", 
	 "Tm": 341.15, 
	 "num_atms": 31, 
	 "gaussian": { 
		 "optdone": 1, 
		 "sigma_profile": "yes", 
		 "theory": "DFT", 
		 "functional": "B3LYP", 
		 "basiset": "6-31G**", 
		 "properties": { 
			 "R2extent": 4371.3428, 
			 "electric_dipole_moment_norm": 1.33683505714, 
			 "electric_quadrupole_moment_norm": 7.26957262224, 
			 "total_energy": -693.345940286, 
			 "HOMO_LUMO_gap": 0.18803, 
			 "cosmo_polarized_energy": -7.45, 
			 "cosmo_cavitation_energy": 34.49, 
			 "cosmo_dispersion_energy": -24.27, 
			 "cosmo_repulsion_energy": 1.89, 
			 "cosmo_total_nonelectrostatic_energy": 12.1, 
			 "SMD_solvation_energy": 6.23 
		},
		"coords": [
			{
				"x": -3.578725955,
				"y": -2.4644903806,
				"z": -0.9867777104,
				"element": "C" 
			},
			{
				"x": -2.2643267308,
				"y": -2.3875415478,
				"z": -1.5231656627,
				"element": "O" 
			},
			{
				"x": -1.3955537157,
				"y": -1.6007251975,
				"z": -0.8484338409,
				"element": "C" 
			},
			{
				"x": -1.5591400888,
				"y": -0.8608575184,
				"z": 0.2732025604,
				"element": "C" 
			},
			{
				"x": -0.2565142054,
				"y": -0.1692559417,
				"z": 0.6381622254,
				"element": "C" 
			},
			{
				"x": 0.6733331717,
				"y": -0.6166987573,
				"z": -0.4860421438,
				"element": "C" 
			},
			{
				"x": 2.0058548255,
				"y": -0.3079868087,
				"z": -0.7252947059,
				"element": "C" 
			},
			{
				"x": 2.6394798263,
				"y": -0.8789889493,
				"z": -1.8373699205,
				"element": "C" 
			},
			{
				"x": 1.9457543534,
				"y": -1.7438354178,
				"z": -2.6910930519,
				"element": "C" 
			},
			{
				"x": 0.6027125499,
				"y": -2.0550617867,
				"z": -2.4567352447,
				"element": "C" 
			},
			{
				"x": -0.0209339793,
				"y": -1.4798417166,
				"z": -1.3510299852,
				"element": "C" 
			},
			{
				"x": -0.3578141153,
				"y": 1.3425429994,
				"z": 0.8057872486,
				"element": "C" 
			},
			{
				"x": -0.923936002,
				"y": 2.1393063906,
				"z": -0.2002305593,
				"element": "C" 
			},
			{
				"x": -1.0038308585,
				"y": 3.5222027493,
				"z": -0.0515234804,
				"element": "C" 
			},
			{
				"x": -0.5201169768,
				"y": 4.1353705292,
				"z": 1.1084671116,
				"element": "C" 
			},
			{
				"x": 0.0431570606,
				"y": 3.3529648291,
				"z": 2.1154243489,
				"element": "C" 
			},
			{
				"x": 0.1222887911,
				"y": 1.9657749679,
				"z": 1.9625043098,
				"element": "C" 
			},
			{
				"x": -3.5645432791,
				"y": -2.8732511423,
				"z": 0.0315065228,
				"element": "H" 
			},
			{
				"x": -4.1433080803,
				"y": -3.1299010266,
				"z": -1.6413058747,
				"element": "H" 
			},
			{
				"x": -4.0539751235,
				"y": -1.4755634453,
				"z": -0.9672208881,
				"element": "H" 
			},
			{
				"x": -2.4601813077,
				"y": -0.753085533,
				"z": 0.8614768978,
				"element": "H" 
			},
			{
				"x": 0.1216805527,
				"y": -0.5793796781,
				"z": 1.587263447,
				"element": "H" 
			},
			{
				"x": 2.5467688364,
				"y": 0.3692452301,
				"z": -0.0697312148,
				"element": "H" 
			},
			{
				"x": 3.6809715075,
				"y": -0.6458802918,
				"z": -2.040118098,
				"element": "H" 
			},
			{
				"x": 2.4565584398,
				"y": -2.1762278649,
				"z": -3.5469040415,
				"element": "H" 
			},
			{
				"x": 0.0570482826,
				"y": -2.7237371577,
				"z": -3.1150712269,
				"element": "H" 
			},
			{
				"x": -1.3037345314,
				"y": 1.6648868929,
				"z": -1.1008510549,
				"element": "H" 
			},
			{
				"x": -1.4446821868,
				"y": 4.1246985271,
				"z": -0.8410996051,
				"element": "H" 
			},
			{
				"x": -0.5845827556,
				"y": 5.21355685,
				"z": 1.2242863022,
				"element": "H" 
			},
			{
				"x": 0.4199610329,
				"y": 3.8179683139,
				"z": 3.0223093898,
				"element": "H" 
			},
			{
				"x": 0.5598306618,
				"y": 1.3606918824,
				"z": 2.7533079454,
				"element": "H" 
			}
		],
		 "valence_orbital": [ 
			{
				"type": "occ",
				"energy": -0.25867,
				"method": "rhf"
			},
			{
				"type": "occ",
				"energy": -0.24716,
				"method": "rhf"
			},
			{
				"type": "occ",
				"energy": -0.24416,
				"method": "rhf"
			},
			{
				"type": "occ",
				"energy": -0.2344,
				"method": "rhf"
			},
			{
				"type": "occ",
				"energy": -0.20237,
				"method": "rhf"
			},
			{
				"type": "unocc",
				"energy": -0.01434,
				"method": "rhf"
			},
			{
				"type": "unocc",
				"energy": -0.0011,
				"method": "rhf"
			},
			{
				"type": "unocc",
				"energy": 0.00171,
				"method": "rhf"
			},
			{
				"type": "unocc",
				"energy": 0.0103,
				"method": "rhf"
			},
			{
				"type": "unocc",
				"energy": 0.07088,
				"method": "rhf"
			}
		],
		"cosmo_sigma_profile": { 
			"-0.025": 0.0,
			"-0.024": 0.0,
			"-0.023": 0.0,
			"-0.022": 0.0,
			"-0.021": 0.0,
			"-0.02": 0.0,
			"-0.019": 0.0,
			"-0.018": 0.0,
			"-0.017": 0.0,
			"-0.016": 0.0,
			"-0.015": 0.0,
			"-0.014": 0.0,
			"-0.013": 0.0,
			"-0.012": 0.0,
			"-0.011": 0.0,
			"-0.01": 0.0,
			"-0.009": 0.0,
			"-0.008": 0.0,
			"-0.007": 0.030781577711,
			"-0.006": 7.91512997118,
			"-0.005": 27.2615150709,
			"-0.004": 30.4220701385,
			"-0.003": 32.1211612828,
			"-0.002": 20.2356471678,
			"-0.001": 19.2393272373,
			"0.0": 15.6126517385,
			"0.001": 16.6744688085,
			"0.002": 18.4724212298,
			"0.003": 21.6388456702,
			"0.004": 21.4635466958,
			"0.005": 19.5759591763,
			"0.006": 17.3069976138,
			"0.007": 3.88367048953,
			"0.008": 1.57047216651,
			"0.009": 1.67042805638,
			"0.01": 0.0852055724632,
			"0.011": 0.0,
			"0.012": 0.0,
			"0.013": 0.0,
			"0.014": 0.0,
			"0.015": 0.0,
			"0.016": 0.0,
			"0.017": 0.0,
			"0.018": 0.0,
			"0.019": 0.0,
			"0.02": 0.0,
			"0.021": 0.0,
			"0.022": 0.0,
			"0.023": 0.0,
			"0.024": 0.0,
			"0.025": 0.0
		}
	}
}
