{
	 "smiles": "CC(O)C1=CC(NC(C)=O)=CC=C1", 
	 "Tm": 377.15, 
	 "num_atms": 26, 
	 "gaussian": { 
		 "optdone": 1, 
		 "sigma_profile": "yes", 
		 "theory": "DFT", 
		 "functional": "B3LYP", 
		 "basiset": "6-31G**", 
		 "properties": { 
			 "R2extent": 5032.7049, 
			 "electric_dipole_moment_norm": 4.0292623382, 
			 "electric_quadrupole_moment_norm": 18.0673150653, 
			 "total_energy": -594.11838765, 
			 "HOMO_LUMO_gap": 0.20592, 
			 "cosmo_polarized_energy": -16.01, 
			 "cosmo_cavitation_energy": 29.4, 
			 "cosmo_dispersion_energy": -21.43, 
			 "cosmo_repulsion_energy": 1.72, 
			 "cosmo_total_nonelectrostatic_energy": 9.68, 
			 "SMD_solvation_energy": 5.87 
		},
		"coords": [
			{
				"x": 0.7784204854,
				"y": 0.8195736116,
				"z": -1.6040661331,
				"element": "C" 
			},
			{
				"x": -0.7508121647,
				"y": 0.9485438488,
				"z": -1.5492741692,
				"element": "C" 
			},
			{
				"x": -1.3579306495,
				"y": 0.2207384091,
				"z": -2.6156992768,
				"element": "O" 
			},
			{
				"x": -1.3079577122,
				"y": 0.4277990873,
				"z": -0.2362748449,
				"element": "C" 
			},
			{
				"x": -1.8855149896,
				"y": -0.8376055649,
				"z": -0.1583603551,
				"element": "C" 
			},
			{
				"x": -2.3668776938,
				"y": -1.3366645542,
				"z": 1.0623975289,
				"element": "C" 
			},
			{
				"x": -2.9445866787,
				"y": -2.6252309414,
				"z": 1.0401920246,
				"element": "N" 
			},
			{
				"x": -3.4807773109,
				"y": -3.3542684882,
				"z": 2.0784905519,
				"element": "C" 
			},
			{
				"x": -4.0303956244,
				"y": -4.7161653827,
				"z": 1.6735033736,
				"element": "C" 
			},
			{
				"x": -3.5301783305,
				"y": -2.9681509662,
				"z": 3.2379849057,
				"element": "O" 
			},
			{
				"x": -2.2630207216,
				"y": -0.5591073744,
				"z": 2.2246943484,
				"element": "C" 
			},
			{
				"x": -1.6851147253,
				"y": 0.7080275142,
				"z": 2.1357196815,
				"element": "C" 
			},
			{
				"x": -1.2132121402,
				"y": 1.2073188811,
				"z": 0.9236204893,
				"element": "C" 
			},
			{
				"x": 1.1686687281,
				"y": 1.2234832138,
				"z": -2.5469458385,
				"element": "H" 
			},
			{
				"x": 1.0681458285,
				"y": -0.2327415976,
				"z": -1.5280205355,
				"element": "H" 
			},
			{
				"x": 1.2513141583,
				"y": 1.3686941503,
				"z": -0.7846002225,
				"element": "H" 
			},
			{
				"x": -1.0139282785,
				"y": 2.0165577104,
				"z": -1.629005615,
				"element": "H" 
			},
			{
				"x": -0.9205844749,
				"y": 0.4840036021,
				"z": -3.4348663101,
				"element": "H" 
			},
			{
				"x": -1.9705923547,
				"y": -1.4285656564,
				"z": -1.0654136676,
				"element": "H" 
			},
			{
				"x": -2.967832326,
				"y": -3.0598819829,
				"z": 0.1294923979,
				"element": "H" 
			},
			{
				"x": -3.5499285948,
				"y": -5.4813806903,
				"z": 2.2887478853,
				"element": "H" 
			},
			{
				"x": -5.1001213446,
				"y": -4.7419002,
				"z": 1.899735878,
				"element": "H" 
			},
			{
				"x": -3.8865245397,
				"y": -4.9661339397,
				"z": 0.6185851316,
				"element": "H" 
			},
			{
				"x": -2.6347529793,
				"y": -0.9475285833,
				"z": 3.1617554096,
				"element": "H" 
			},
			{
				"x": -1.6114132643,
				"y": 1.3156569286,
				"z": 3.0333535335,
				"element": "H" 
			},
			{
				"x": -0.7772923019,
				"y": 2.2022289648,
				"z": 0.8760538285,
				"element": "H" 
			}
		],
		 "valence_orbital": [ 
			{
				"type": "occ",
				"energy": -0.29911,
				"method": "rhf"
			},
			{
				"type": "occ",
				"energy": -0.27488,
				"method": "rhf"
			},
			{
				"type": "occ",
				"energy": -0.24763,
				"method": "rhf"
			},
			{
				"type": "occ",
				"energy": -0.23968,
				"method": "rhf"
			},
			{
				"type": "occ",
				"energy": -0.21382,
				"method": "rhf"
			},
			{
				"type": "unocc",
				"energy": -0.0079,
				"method": "rhf"
			},
			{
				"type": "unocc",
				"energy": 0.00495,
				"method": "rhf"
			},
			{
				"type": "unocc",
				"energy": 0.04882,
				"method": "rhf"
			},
			{
				"type": "unocc",
				"energy": 0.06964,
				"method": "rhf"
			},
			{
				"type": "unocc",
				"energy": 0.0702,
				"method": "rhf"
			}
		],
		"cosmo_sigma_profile": { 
			"-0.025": 0.0,
			"-0.024": 0.0,
			"-0.023": 0.0,
			"-0.022": 0.0,
			"-0.021": 0.0,
			"-0.02": 0.0,
			"-0.019": 0.0,
			"-0.018": 0.0,
			"-0.017": 0.0,
			"-0.016": 0.111752599318,
			"-0.015": 1.673044611,
			"-0.014": 2.14717701361,
			"-0.013": 2.58216141547,
			"-0.012": 2.27398304989,
			"-0.011": 2.30501459271,
			"-0.01": 3.04795602064,
			"-0.009": 2.04728083406,
			"-0.008": 1.58392354422,
			"-0.007": 3.5020849568,
			"-0.006": 6.42993919846,
			"-0.005": 13.891725368,
			"-0.004": 17.9882480157,
			"-0.003": 21.256047451,
			"-0.002": 20.5687809465,
			"-0.001": 17.1078659576,
			"0.0": 16.1734347263,
			"0.001": 11.8259282939,
			"0.002": 11.5423827586,
			"0.003": 11.0987624851,
			"0.004": 12.0658470259,
			"0.005": 12.6083651833,
			"0.006": 10.5702712042,
			"0.007": 4.59857532676,
			"0.008": 2.9137962582,
			"0.009": 3.34264307006,
			"0.01": 2.96376417803,
			"0.011": 2.63567422698,
			"0.012": 3.65929940768,
			"0.013": 4.1038321945,
			"0.014": 2.71595562156,
			"0.015": 0.403002172908,
			"0.016": 0.0,
			"0.017": 0.0,
			"0.018": 0.0,
			"0.019": 0.0,
			"0.02": 0.0,
			"0.021": 0.0,
			"0.022": 0.0,
			"0.023": 0.0,
			"0.024": 0.0,
			"0.025": 0.0
		}
	}
}
