{
	 "smiles": "NC1=NN=C(CC2=C(F)C=CC=C2)O1", 
	 "Tm": 441.15, 
	 "num_atms": 22, 
	 "gaussian": { 
		 "optdone": 1, 
		 "sigma_profile": "yes", 
		 "theory": "DFT", 
		 "functional": "B3LYP", 
		 "basiset": "6-31G**", 
		 "properties": { 
			 "R2extent": 4590.9442, 
			 "electric_dipole_moment_norm": 3.84208879908, 
			 "electric_quadrupole_moment_norm": 13.0327883156, 
			 "total_energy": -687.067098458, 
			 "HOMO_LUMO_gap": 0.2141, 
			 "cosmo_polarized_energy": -16.01, 
			 "cosmo_cavitation_energy": 27.78, 
			 "cosmo_dispersion_energy": -19.94, 
			 "cosmo_repulsion_energy": 1.57, 
			 "cosmo_total_nonelectrostatic_energy": 9.41, 
			 "SMD_solvation_energy": 3.47 
		},
		"coords": [
			{
				"x": -1.4872471821,
				"y": 1.518112669,
				"z": 4.5875429539,
				"element": "N" 
			},
			{
				"x": -0.6403601027,
				"y": 0.7984983719,
				"z": 3.7888689716,
				"element": "C" 
			},
			{
				"x": -0.5703845634,
				"y": -0.4894840472,
				"z": 3.6328978913,
				"element": "N" 
			},
			{
				"x": 0.5285299124,
				"y": -0.6988341249,
				"z": 2.7821950939,
				"element": "N" 
			},
			{
				"x": 1.012489374,
				"y": 0.4614471025,
				"z": 2.4934779885,
				"element": "C" 
			},
			{
				"x": 2.1485584964,
				"y": 0.8072753255,
				"z": 1.5938382932,
				"element": "C" 
			},
			{
				"x": 1.7041276823,
				"y": 1.4025372184,
				"z": 0.2663895728,
				"element": "C" 
			},
			{
				"x": 2.2062654218,
				"y": 2.6259600186,
				"z": -0.1766842798,
				"element": "C" 
			},
			{
				"x": 3.0947729571,
				"y": 3.2894338734,
				"z": 0.6021166137,
				"element": "F" 
			},
			{
				"x": 1.8378786324,
				"y": 3.1974553736,
				"z": -1.3895948733,
				"element": "C" 
			},
			{
				"x": 0.9267395412,
				"y": 2.5215385845,
				"z": -2.2002358783,
				"element": "C" 
			},
			{
				"x": 0.4023222588,
				"y": 1.2934226087,
				"z": -1.7885086576,
				"element": "C" 
			},
			{
				"x": 0.789768417,
				"y": 0.744544468,
				"z": -0.5665450733,
				"element": "C" 
			},
			{
				"x": 0.3141450429,
				"y": 1.4833625315,
				"z": 3.1055998119,
				"element": "O" 
			},
			{
				"x": -2.2826715325,
				"y": 0.9817734118,
				"z": 4.9053005018,
				"element": "H" 
			},
			{
				"x": -1.7187271231,
				"y": 2.4432137751,
				"z": 4.2527265051,
				"element": "H" 
			},
			{
				"x": 2.7010882183,
				"y": -0.1221021482,
				"z": 1.4233385898,
				"element": "H" 
			},
			{
				"x": 2.8216519088,
				"y": 1.5040436657,
				"z": 2.0995472959,
				"element": "H" 
			},
			{
				"x": 2.2658143925,
				"y": 4.1520516608,
				"z": -1.6761854793,
				"element": "H" 
			},
			{
				"x": 0.6292264224,
				"y": 2.9543309709,
				"z": -3.1505549355,
				"element": "H" 
			},
			{
				"x": -0.3064823331,
				"y": 0.7643476503,
				"z": -2.4178776523,
				"element": "H" 
			},
			{
				"x": 0.3805941585,
				"y": -0.2077289598,
				"z": -0.2393532543,
				"element": "H" 
			}
		],
		 "valence_orbital": [ 
			{
				"type": "occ",
				"energy": -0.30985,
				"method": "rhf"
			},
			{
				"type": "occ",
				"energy": -0.26953,
				"method": "rhf"
			},
			{
				"type": "occ",
				"energy": -0.26025,
				"method": "rhf"
			},
			{
				"type": "occ",
				"energy": -0.24824,
				"method": "rhf"
			},
			{
				"type": "occ",
				"energy": -0.23167,
				"method": "rhf"
			},
			{
				"type": "unocc",
				"energy": -0.01757,
				"method": "rhf"
			},
			{
				"type": "unocc",
				"energy": -0.00554,
				"method": "rhf"
			},
			{
				"type": "unocc",
				"energy": 0.01347,
				"method": "rhf"
			},
			{
				"type": "unocc",
				"energy": 0.05264,
				"method": "rhf"
			},
			{
				"type": "unocc",
				"energy": 0.07004,
				"method": "rhf"
			}
		],
		"cosmo_sigma_profile": { 
			"-0.025": 0.0,
			"-0.024": 0.0,
			"-0.023": 0.0,
			"-0.022": 0.0,
			"-0.021": 0.0,
			"-0.02": 0.0,
			"-0.019": 0.0,
			"-0.018": 0.0,
			"-0.017": 0.0,
			"-0.016": 0.100403567481,
			"-0.015": 2.19143234479,
			"-0.014": 2.35982696025,
			"-0.013": 2.36162425397,
			"-0.012": 2.74663570703,
			"-0.011": 2.68462018017,
			"-0.01": 1.90037349508,
			"-0.009": 1.4563468906,
			"-0.008": 1.92116241901,
			"-0.007": 6.07305918287,
			"-0.006": 11.3139322021,
			"-0.005": 13.485146204,
			"-0.004": 16.3616082236,
			"-0.003": 14.5516344811,
			"-0.002": 13.8521988054,
			"-0.001": 12.4293871521,
			"0.0": 13.0645522942,
			"0.001": 15.3485548132,
			"0.002": 14.4938399307,
			"0.003": 17.1857278841,
			"0.004": 18.6261420827,
			"0.005": 9.19555964187,
			"0.006": 2.89708719986,
			"0.007": 2.31989382453,
			"0.008": 2.80480013631,
			"0.009": 2.51243139264,
			"0.01": 2.61660408674,
			"0.011": 1.81078417828,
			"0.012": 3.26076335708,
			"0.013": 3.87175367065,
			"0.014": 2.90273863661,
			"0.015": 2.36711978056,
			"0.016": 1.33005675932,
			"0.017": 0.158161103275,
			"0.018": 0.0,
			"0.019": 0.0,
			"0.02": 0.0,
			"0.021": 0.0,
			"0.022": 0.0,
			"0.023": 0.0,
			"0.024": 0.0,
			"0.025": 0.0
		}
	}
}
