{
	 "smiles": "CCCN1C=NC2=C1C(=O)NC(=O)N2C", 
	 "Tm": 530.15, 
	 "num_atms": 27, 
	 "gaussian": { 
		 "optdone": 1, 
		 "sigma_profile": "yes", 
		 "theory": "DFT", 
		 "functional": "B3LYP", 
		 "basiset": "6-31G**", 
		 "properties": { 
			 "R2extent": 4216.9735, 
			 "electric_dipole_moment_norm": 4.20770639898, 
			 "electric_quadrupole_moment_norm": 8.75466855341, 
			 "total_energy": -719.702435926, 
			 "HOMO_LUMO_gap": 0.18767, 
			 "cosmo_polarized_energy": -15.52, 
			 "cosmo_cavitation_energy": 30.26, 
			 "cosmo_dispersion_energy": -21.85, 
			 "cosmo_repulsion_energy": 1.7, 
			 "cosmo_total_nonelectrostatic_energy": 10.11, 
			 "SMD_solvation_energy": 5.27 
		},
		"coords": [
			{
				"x": 1.0649148622,
				"y": 2.1574446042,
				"z": 0.3540398427,
				"element": "C" 
			},
			{
				"x": -0.408288851,
				"y": 1.8754151156,
				"z": 0.6580236638,
				"element": "C" 
			},
			{
				"x": -0.6346630602,
				"y": 0.8614689072,
				"z": 1.7867593918,
				"element": "C" 
			},
			{
				"x": -0.0850817542,
				"y": -0.4675377288,
				"z": 1.4965807014,
				"element": "N" 
			},
			{
				"x": 1.027840665,
				"y": -1.0359657309,
				"z": 2.0257635446,
				"element": "C" 
			},
			{
				"x": 1.2884281077,
				"y": -2.252411834,
				"z": 1.5525979569,
				"element": "N" 
			},
			{
				"x": 0.2829199509,
				"y": -2.4735691655,
				"z": 0.66631158,
				"element": "C" 
			},
			{
				"x": -0.5867450305,
				"y": -1.3967842883,
				"z": 0.596664047,
				"element": "C" 
			},
			{
				"x": -1.7450188839,
				"y": -1.3858053262,
				"z": -0.2516915737,
				"element": "C" 
			},
			{
				"x": -2.5818394586,
				"y": -0.4995194595,
				"z": -0.3922515438,
				"element": "O" 
			},
			{
				"x": -1.8228425957,
				"y": -2.5968880477,
				"z": -0.9653196802,
				"element": "N" 
			},
			{
				"x": -0.9807910166,
				"y": -3.7161761999,
				"z": -0.9457389442,
				"element": "C" 
			},
			{
				"x": -1.2066153977,
				"y": -4.6934924405,
				"z": -1.6417037676,
				"element": "O" 
			},
			{
				"x": 0.1102154798,
				"y": -3.618047099,
				"z": -0.0833178554,
				"element": "N" 
			},
			{
				"x": 1.0551179738,
				"y": -4.7278397975,
				"z": 0.0243183717,
				"element": "C" 
			},
			{
				"x": 1.5897072736,
				"y": 1.2535686512,
				"z": 0.0280928902,
				"element": "H" 
			},
			{
				"x": 1.5887692087,
				"y": 2.5505295065,
				"z": 1.2334914441,
				"element": "H" 
			},
			{
				"x": 1.1597948361,
				"y": 2.898413923,
				"z": -0.4452470391,
				"element": "H" 
			},
			{
				"x": -0.9126955529,
				"y": 2.8019029316,
				"z": 0.9593991365,
				"element": "H" 
			},
			{
				"x": -0.9323177385,
				"y": 1.516177538,
				"z": -0.2332636249,
				"element": "H" 
			},
			{
				"x": -1.7051368975,
				"y": 0.7430720461,
				"z": 1.9703848405,
				"element": "H" 
			},
			{
				"x": -0.1611665093,
				"y": 1.1977222549,
				"z": 2.7149672027,
				"element": "H" 
			},
			{
				"x": 1.6257931472,
				"y": -0.5248265565,
				"z": 2.7682181658,
				"element": "H" 
			},
			{
				"x": -2.6095482699,
				"y": -2.6880752164,
				"z": -1.5962596379,
				"element": "H" 
			},
			{
				"x": 2.0584744189,
				"y": -4.3952812297,
				"z": -0.2536586422,
				"element": "H" 
			},
			{
				"x": 0.7152764709,
				"y": -5.5096869769,
				"z": -0.6518860672,
				"element": "H" 
			},
			{
				"x": 1.0823986214,
				"y": -5.099708381,
				"z": 1.0517255965,
				"element": "H" 
			}
		],
		 "valence_orbital": [ 
			{
				"type": "occ",
				"energy": -0.2887,
				"method": "rhf"
			},
			{
				"type": "occ",
				"energy": -0.28109,
				"method": "rhf"
			},
			{
				"type": "occ",
				"energy": -0.28045,
				"method": "rhf"
			},
			{
				"type": "occ",
				"energy": -0.26129,
				"method": "rhf"
			},
			{
				"type": "occ",
				"energy": -0.22186,
				"method": "rhf"
			},
			{
				"type": "unocc",
				"energy": -0.03419,
				"method": "rhf"
			},
			{
				"type": "unocc",
				"energy": 0.02297,
				"method": "rhf"
			},
			{
				"type": "unocc",
				"energy": 0.03392,
				"method": "rhf"
			},
			{
				"type": "unocc",
				"energy": 0.07955,
				"method": "rhf"
			},
			{
				"type": "unocc",
				"energy": 0.09548,
				"method": "rhf"
			}
		],
		"cosmo_sigma_profile": { 
			"-0.025": 0.0,
			"-0.024": 0.0,
			"-0.023": 0.0,
			"-0.022": 0.0,
			"-0.021": 0.0,
			"-0.02": 0.0,
			"-0.019": 0.0,
			"-0.018": 0.0,
			"-0.017": 0.0,
			"-0.016": 0.13641059023,
			"-0.015": 1.07574294768,
			"-0.014": 0.671866043098,
			"-0.013": 0.606124067717,
			"-0.012": 0.775452491666,
			"-0.011": 0.573938357869,
			"-0.01": 3.41583005668,
			"-0.009": 3.44288397488,
			"-0.008": 3.18775040217,
			"-0.007": 3.65413282091,
			"-0.006": 7.36492815639,
			"-0.005": 13.2773592864,
			"-0.004": 19.9563606837,
			"-0.003": 26.9915682421,
			"-0.002": 29.0580728533,
			"-0.001": 30.2138092699,
			"0.0": 19.2874165715,
			"0.001": 12.2423401766,
			"0.002": 6.55475184554,
			"0.003": 4.88922651039,
			"0.004": 5.08819691573,
			"0.005": 3.89538178588,
			"0.006": 4.1844595216,
			"0.007": 4.8132989556,
			"0.008": 3.24730211516,
			"0.009": 3.40800637807,
			"0.01": 3.89279150741,
			"0.011": 4.5515910291,
			"0.012": 8.29026286882,
			"0.013": 8.96010215166,
			"0.014": 1.02479583774,
			"0.015": 0.770571415914,
			"0.016": 0.0833167056811,
			"0.017": 0.0,
			"0.018": 0.0,
			"0.019": 0.0,
			"0.02": 0.0,
			"0.021": 0.0,
			"0.022": 0.0,
			"0.023": 0.0,
			"0.024": 0.0,
			"0.025": 0.0
		}
	}
}
