{
	 "smiles": "O=C(NCCON(=O)=O)C1=CC=CN=C1", 
	 "Tm": 365.65, 
	 "num_atms": 24, 
	 "gaussian": { 
		 "optdone": 1, 
		 "sigma_profile": "yes", 
		 "theory": "DFT", 
		 "functional": "B3LYP", 
		 "basiset": "6-31G**", 
		 "properties": { 
			 "R2extent": 2960.0551, 
			 "electric_dipole_moment_norm": 3.37310820164, 
			 "electric_quadrupole_moment_norm": 19.1845225375, 
			 "total_energy": -775.281468551, 
			 "HOMO_LUMO_gap": 0.17435, 
			 "cosmo_polarized_energy": -17.99, 
			 "cosmo_cavitation_energy": 29.39, 
			 "cosmo_dispersion_energy": -19.96, 
			 "cosmo_repulsion_energy": 1.57, 
			 "cosmo_total_nonelectrostatic_energy": 11.01, 
			 "SMD_solvation_energy": 6.25 
		},
		"coords": [
			{
				"x": -1.0503333366,
				"y": -1.9361237119,
				"z": 0.9666385543,
				"element": "O" 
			},
			{
				"x": -0.2049806023,
				"y": -1.2206003058,
				"z": 0.4455125778,
				"element": "C" 
			},
			{
				"x": 1.0613122431,
				"y": -1.1022047904,
				"z": 0.9953010282,
				"element": "N" 
			},
			{
				"x": 1.9111061106,
				"y": 0.0800016437,
				"z": 0.9513353004,
				"element": "C" 
			},
			{
				"x": 1.5452793176,
				"y": 1.1400353867,
				"z": 1.994683832,
				"element": "C" 
			},
			{
				"x": 0.2018694641,
				"y": 1.638283769,
				"z": 1.8184153397,
				"element": "O" 
			},
			{
				"x": 0.0767845745,
				"y": 2.6559043418,
				"z": 0.8287261204,
				"element": "N" 
			},
			{
				"x": -1.0643548266,
				"y": 3.0097638817,
				"z": 0.6791265055,
				"element": "O" 
			},
			{
				"x": 1.0898356066,
				"y": 3.0372557258,
				"z": 0.2788647346,
				"element": "O" 
			},
			{
				"x": -0.4858860156,
				"y": -0.5112094448,
				"z": -0.8462262359,
				"element": "C" 
			},
			{
				"x": -1.7543996397,
				"y": 0.0454253621,
				"z": -1.048502622,
				"element": "C" 
			},
			{
				"x": -2.0371984124,
				"y": 0.6397647461,
				"z": -2.2735328083,
				"element": "C" 
			},
			{
				"x": -1.0503935238,
				"y": 0.6314329691,
				"z": -3.2629329733,
				"element": "C" 
			},
			{
				"x": 0.1555599081,
				"y": 0.072697713,
				"z": -3.1029267087,
				"element": "N" 
			},
			{
				"x": 0.4211537615,
				"y": -0.4807549128,
				"z": -1.914756835,
				"element": "C" 
			},
			{
				"x": 1.1200070635,
				"y": -1.6482903735,
				"z": 1.8487885884,
				"element": "H" 
			},
			{
				"x": 1.8715194979,
				"y": 0.5257859071,
				"z": -0.0423119342,
				"element": "H" 
			},
			{
				"x": 2.9506274568,
				"y": -0.2223893176,
				"z": 1.124566797,
				"element": "H" 
			},
			{
				"x": 1.5091221203,
				"y": 0.7140278681,
				"z": 3.0014520929,
				"element": "H" 
			},
			{
				"x": 2.256364656,
				"y": 1.9692037824,
				"z": 1.9779520804,
				"element": "H" 
			},
			{
				"x": -2.4886192292,
				"y": 0.0033117981,
				"z": -0.2508098286,
				"element": "H" 
			},
			{
				"x": -3.0021893596,
				"y": 1.0975392798,
				"z": -2.4653475496,
				"element": "H" 
			},
			{
				"x": -1.2401335725,
				"y": 1.0894834479,
				"z": -4.2319656339,
				"element": "H" 
			},
			{
				"x": 1.3977467377,
				"y": -0.9515447656,
				"z": -1.8142504223,
				"element": "H" 
			}
		],
		 "valence_orbital": [ 
			{
				"type": "occ",
				"energy": -0.29593,
				"method": "rhf"
			},
			{
				"type": "occ",
				"energy": -0.28076,
				"method": "rhf"
			},
			{
				"type": "occ",
				"energy": -0.26978,
				"method": "rhf"
			},
			{
				"type": "occ",
				"energy": -0.26421,
				"method": "rhf"
			},
			{
				"type": "occ",
				"energy": -0.25085,
				"method": "rhf"
			},
			{
				"type": "unocc",
				"energy": -0.0765,
				"method": "rhf"
			},
			{
				"type": "unocc",
				"energy": -0.04493,
				"method": "rhf"
			},
			{
				"type": "unocc",
				"energy": -0.02993,
				"method": "rhf"
			},
			{
				"type": "unocc",
				"energy": 0.03316,
				"method": "rhf"
			},
			{
				"type": "unocc",
				"energy": 0.03471,
				"method": "rhf"
			}
		],
		"cosmo_sigma_profile": { 
			"-0.025": 0.0,
			"-0.024": 0.0,
			"-0.023": 0.0,
			"-0.022": 0.0,
			"-0.021": 0.0,
			"-0.02": 0.0,
			"-0.019": 0.0,
			"-0.018": 0.0,
			"-0.017": 0.0,
			"-0.016": 0.0,
			"-0.015": 0.0,
			"-0.014": 0.717878122422,
			"-0.013": 1.64111392444,
			"-0.012": 1.21391588387,
			"-0.011": 1.80713755912,
			"-0.01": 1.80345560125,
			"-0.009": 2.2197133841,
			"-0.008": 7.88549611208,
			"-0.007": 17.6710241338,
			"-0.006": 18.1269303883,
			"-0.005": 14.7239619714,
			"-0.004": 13.7949309953,
			"-0.003": 12.2759437204,
			"-0.002": 9.65847365554,
			"-0.001": 11.277845478,
			"0.0": 12.4060051761,
			"0.001": 15.5609377933,
			"0.002": 12.0141754963,
			"0.003": 11.0664736156,
			"0.004": 10.1447420554,
			"0.005": 11.1987340707,
			"0.006": 12.7307986476,
			"0.007": 9.89824253076,
			"0.008": 3.18771006408,
			"0.009": 2.49784584467,
			"0.01": 2.08915679684,
			"0.011": 2.52110983488,
			"0.012": 4.26922181785,
			"0.013": 6.13682081973,
			"0.014": 2.09084073377,
			"0.015": 0.880024544594,
			"0.016": 0.595243528543,
			"0.017": 0.0756880723113,
			"0.018": 0.0,
			"0.019": 0.0,
			"0.02": 0.0,
			"0.021": 0.0,
			"0.022": 0.0,
			"0.023": 0.0,
			"0.024": 0.0,
			"0.025": 0.0
		}
	}
}
