{
	 "smiles": "CN(C)S(=O)(=O)C1=CC(=CC=C1)C#N", 
	 "Tm": 402.15, 
	 "num_atms": 24, 
	 "gaussian": { 
		 "optdone": 1, 
		 "sigma_profile": "yes", 
		 "theory": "DFT", 
		 "functional": "B3LYP", 
		 "basiset": "6-31G**", 
		 "properties": { 
			 "R2extent": 3432.0844, 
			 "electric_dipole_moment_norm": 4.34130817842, 
			 "electric_quadrupole_moment_norm": 26.3665034582, 
			 "total_energy": -1007.02672593, 
			 "HOMO_LUMO_gap": 0.19199, 
			 "cosmo_polarized_energy": -16.36, 
			 "cosmo_cavitation_energy": 30.32, 
			 "cosmo_dispersion_energy": -21.24, 
			 "cosmo_repulsion_energy": 1.63, 
			 "cosmo_total_nonelectrostatic_energy": 10.7, 
			 "SMD_solvation_energy": 5.69 
		},
		"coords": [
			{
				"x": 0.2039869939,
				"y": 0.6601841429,
				"z": 2.744828448,
				"element": "C" 
			},
			{
				"x": -0.2401939408,
				"y": 0.7589344357,
				"z": 1.3451143147,
				"element": "N" 
			},
			{
				"x": -0.929844297,
				"y": 2.015574062,
				"z": 1.026635382,
				"element": "C" 
			},
			{
				"x": -1.0305019284,
				"y": -0.6264119072,
				"z": 0.757957313,
				"element": "S" 
			},
			{
				"x": -0.3390133196,
				"y": -1.7769176347,
				"z": 1.3449222761,
				"element": "O" 
			},
			{
				"x": -2.4915118169,
				"y": -0.4999244992,
				"z": 0.8548424094,
				"element": "O" 
			},
			{
				"x": -0.6120735408,
				"y": -0.539557722,
				"z": -0.992208428,
				"element": "C" 
			},
			{
				"x": 0.723051629,
				"y": -0.6509631376,
				"z": -1.3761393824,
				"element": "C" 
			},
			{
				"x": 1.0354243221,
				"y": -0.6316551528,
				"z": -2.7424053442,
				"element": "C" 
			},
			{
				"x": 0.0108528232,
				"y": -0.5114348991,
				"z": -3.7004113753,
				"element": "C" 
			},
			{
				"x": -1.3153149543,
				"y": -0.4115591567,
				"z": -3.2917449695,
				"element": "C" 
			},
			{
				"x": -1.6366479591,
				"y": -0.4256614147,
				"z": -1.9315476881,
				"element": "C" 
			},
			{
				"x": 2.4028667471,
				"y": -0.7333299014,
				"z": -3.1654569869,
				"element": "C" 
			},
			{
				"x": 3.5097292488,
				"y": -0.8108844594,
				"z": -3.5134160027,
				"element": "N" 
			},
			{
				"x": -0.6231143588,
				"y": 0.7702684048,
				"z": 3.4600549541,
				"element": "H" 
			},
			{
				"x": 0.6912131679,
				"y": -0.3008075459,
				"z": 2.9042024653,
				"element": "H" 
			},
			{
				"x": 0.9284506778,
				"y": 1.4609641662,
				"z": 2.9176049379,
				"element": "H" 
			},
			{
				"x": -1.1619986096,
				"y": 2.0561171779,
				"z": -0.0401080972,
				"element": "H" 
			},
			{
				"x": -1.858600434,
				"y": 2.1455786832,
				"z": 1.5969853502,
				"element": "H" 
			},
			{
				"x": -0.2474022567,
				"y": 2.8387922864,
				"z": 1.2543949507,
				"element": "H" 
			},
			{
				"x": 1.5057882313,
				"y": -0.7494270507,
				"z": -0.6330593044,
				"element": "H" 
			},
			{
				"x": 0.2669442719,
				"y": -0.4995654502,
				"z": -4.7544061859,
				"element": "H" 
			},
			{
				"x": -2.1035679307,
				"y": -0.3235453995,
				"z": -4.0323697949,
				"element": "H" 
			},
			{
				"x": -2.663622766,
				"y": -0.355068028,
				"z": -1.590369242,
				"element": "H" 
			}
		],
		 "valence_orbital": [ 
			{
				"type": "occ",
				"energy": -0.32147,
				"method": "rhf"
			},
			{
				"type": "occ",
				"energy": -0.31009,
				"method": "rhf"
			},
			{
				"type": "occ",
				"energy": -0.29735,
				"method": "rhf"
			},
			{
				"type": "occ",
				"energy": -0.28477,
				"method": "rhf"
			},
			{
				"type": "occ",
				"energy": -0.26263,
				"method": "rhf"
			},
			{
				"type": "unocc",
				"energy": -0.07064,
				"method": "rhf"
			},
			{
				"type": "unocc",
				"energy": -0.05675,
				"method": "rhf"
			},
			{
				"type": "unocc",
				"energy": 0.02293,
				"method": "rhf"
			},
			{
				"type": "unocc",
				"energy": 0.04549,
				"method": "rhf"
			},
			{
				"type": "unocc",
				"energy": 0.04715,
				"method": "rhf"
			}
		],
		"cosmo_sigma_profile": { 
			"-0.025": 0.0,
			"-0.024": 0.0,
			"-0.023": 0.0,
			"-0.022": 0.0,
			"-0.021": 0.0,
			"-0.02": 0.0,
			"-0.019": 0.0,
			"-0.018": 0.0,
			"-0.017": 0.0,
			"-0.016": 0.0,
			"-0.015": 0.0,
			"-0.014": 0.0,
			"-0.013": 0.0,
			"-0.012": 0.0,
			"-0.011": 0.0,
			"-0.01": 0.474192991787,
			"-0.009": 3.40274030385,
			"-0.008": 7.38594616132,
			"-0.007": 10.2516767123,
			"-0.006": 12.2148489707,
			"-0.005": 17.1265015963,
			"-0.004": 22.2388623427,
			"-0.003": 24.6660124348,
			"-0.002": 25.7623452789,
			"-0.001": 17.1129387117,
			"0.0": 17.1445309794,
			"0.001": 11.1077201115,
			"0.002": 5.52883884716,
			"0.003": 6.09863804289,
			"0.004": 6.25556737947,
			"0.005": 6.06535579616,
			"0.006": 5.55152596495,
			"0.007": 5.49493373265,
			"0.008": 6.47987043611,
			"0.009": 8.00579367053,
			"0.01": 10.1115904799,
			"0.011": 9.92100732829,
			"0.012": 3.95141486234,
			"0.013": 0.574606087341,
			"0.014": 0.0,
			"0.015": 0.0,
			"0.016": 0.0,
			"0.017": 0.0,
			"0.018": 0.0,
			"0.019": 0.0,
			"0.02": 0.0,
			"0.021": 0.0,
			"0.022": 0.0,
			"0.023": 0.0,
			"0.024": 0.0,
			"0.025": 0.0
		}
	}
}
