{
	 "smiles": "CC(=O)NC1=CC2=C(C=C1)N=C(N)S2", 
	 "Tm": 491.15, 
	 "num_atms": 23, 
	 "gaussian": { 
		 "optdone": 1, 
		 "sigma_profile": "yes", 
		 "theory": "DFT", 
		 "functional": "B3LYP", 
		 "basiset": "6-31G**", 
		 "properties": { 
			 "R2extent": 5471.1118, 
			 "electric_dipole_moment_norm": 5.08806708387, 
			 "electric_quadrupole_moment_norm": 21.0050819299, 
			 "total_energy": -986.076250488, 
			 "HOMO_LUMO_gap": 0.18434, 
			 "cosmo_polarized_energy": -18.16, 
			 "cosmo_cavitation_energy": 29.18, 
			 "cosmo_dispersion_energy": -21.92, 
			 "cosmo_repulsion_energy": 1.69, 
			 "cosmo_total_nonelectrostatic_energy": 8.95, 
			 "SMD_solvation_energy": 3.62 
		},
		"coords": [
			{
				"x": -1.9739423545,
				"y": 3.3038927923,
				"z": -1.5140368822,
				"element": "C" 
			},
			{
				"x": -2.2786702264,
				"y": 2.8775304745,
				"z": -2.938517873,
				"element": "C" 
			},
			{
				"x": -3.0799885207,
				"y": 3.4809791918,
				"z": -3.6380779795,
				"element": "O" 
			},
			{
				"x": -1.6308181589,
				"y": 1.7643902973,
				"z": -3.4464101276,
				"element": "N" 
			},
			{
				"x": -0.6928262046,
				"y": 0.8819188909,
				"z": -2.8562297243,
				"element": "C" 
			},
			{
				"x": 0.4362734998,
				"y": 1.359954832,
				"z": -2.1782377901,
				"element": "C" 
			},
			{
				"x": 1.3206427964,
				"y": 0.4336488571,
				"z": -1.6328651274,
				"element": "C" 
			},
			{
				"x": 1.1413989623,
				"y": -0.9630283531,
				"z": -1.7816461247,
				"element": "C" 
			},
			{
				"x": 0.0243251557,
				"y": -1.4218442513,
				"z": -2.4910312962,
				"element": "C" 
			},
			{
				"x": -0.8829947628,
				"y": -0.5057533773,
				"z": -3.0091308054,
				"element": "C" 
			},
			{
				"x": 2.1210966378,
				"y": -1.7647359078,
				"z": -1.2168540524,
				"element": "N" 
			},
			{
				"x": 3.0289239698,
				"y": -1.0426200722,
				"z": -0.6416777504,
				"element": "C" 
			},
			{
				"x": 4.0906817877,
				"y": -1.5518346742,
				"z": 0.0578293506,
				"element": "N" 
			},
			{
				"x": 2.7962177263,
				"y": 0.7328523089,
				"z": -0.7175029513,
				"element": "S" 
			},
			{
				"x": -1.1281016455,
				"y": 3.9996095783,
				"z": -1.5001283886,
				"element": "H" 
			},
			{
				"x": -2.8492137441,
				"y": 3.8378041751,
				"z": -1.1421532153,
				"element": "H" 
			},
			{
				"x": -1.7350194715,
				"y": 2.4654161897,
				"z": -0.8564655616,
				"element": "H" 
			},
			{
				"x": -1.9895986108,
				"y": 1.5094574255,
				"z": -4.3587247528,
				"element": "H" 
			},
			{
				"x": 0.6198157113,
				"y": 2.4249606337,
				"z": -2.1015392384,
				"element": "H" 
			},
			{
				"x": -0.1243428606,
				"y": -2.4892076797,
				"z": -2.6154775971,
				"element": "H" 
			},
			{
				"x": -1.7646627742,
				"y": -0.8572701865,
				"z": -3.5372097573,
				"element": "H" 
			},
			{
				"x": 4.9277942417,
				"y": -0.9913495661,
				"z": 0.1183833834,
				"element": "H" 
			},
			{
				"x": 4.2481088457,
				"y": -2.5382715788,
				"z": -0.0998957382,
				"element": "H" 
			}
		],
		 "valence_orbital": [ 
			{
				"type": "occ",
				"energy": -0.28249,
				"method": "rhf"
			},
			{
				"type": "occ",
				"energy": -0.26509,
				"method": "rhf"
			},
			{
				"type": "occ",
				"energy": -0.24764,
				"method": "rhf"
			},
			{
				"type": "occ",
				"energy": -0.24036,
				"method": "rhf"
			},
			{
				"type": "occ",
				"energy": -0.20834,
				"method": "rhf"
			},
			{
				"type": "unocc",
				"energy": -0.024,
				"method": "rhf"
			},
			{
				"type": "unocc",
				"energy": -0.01315,
				"method": "rhf"
			},
			{
				"type": "unocc",
				"energy": -0.00576,
				"method": "rhf"
			},
			{
				"type": "unocc",
				"energy": 0.02386,
				"method": "rhf"
			},
			{
				"type": "unocc",
				"energy": 0.04685,
				"method": "rhf"
			}
		],
		"cosmo_sigma_profile": { 
			"-0.025": 0.0,
			"-0.024": 0.0,
			"-0.023": 0.0,
			"-0.022": 0.0,
			"-0.021": 0.0,
			"-0.02": 0.0,
			"-0.019": 0.0,
			"-0.018": 0.0,
			"-0.017": 0.0,
			"-0.016": 0.023894674943,
			"-0.015": 1.08736579642,
			"-0.014": 2.80399487912,
			"-0.013": 4.09504852096,
			"-0.012": 3.61114689811,
			"-0.011": 3.43406707115,
			"-0.01": 3.24302152795,
			"-0.009": 2.91183961154,
			"-0.008": 4.78364972462,
			"-0.007": 8.50049123387,
			"-0.006": 9.67386938102,
			"-0.005": 10.9520462299,
			"-0.004": 12.0183666959,
			"-0.003": 13.3995764853,
			"-0.002": 14.1479405504,
			"-0.001": 14.8699426388,
			"0.0": 14.4484762057,
			"0.001": 15.3912208106,
			"0.002": 16.1902932609,
			"0.003": 18.717308729,
			"0.004": 16.7137366734,
			"0.005": 8.96297100693,
			"0.006": 4.21458986385,
			"0.007": 3.30840258106,
			"0.008": 3.18925769942,
			"0.009": 2.13517760798,
			"0.01": 3.9042165402,
			"0.011": 2.53972879792,
			"0.012": 2.57323298305,
			"0.013": 5.63491802357,
			"0.014": 5.61211059819,
			"0.015": 1.75850833056,
			"0.016": 0.0202631615388,
			"0.017": 0.0,
			"0.018": 0.0,
			"0.019": 0.0,
			"0.02": 0.0,
			"0.021": 0.0,
			"0.022": 0.0,
			"0.023": 0.0,
			"0.024": 0.0,
			"0.025": 0.0
		}
	}
}
