{
	 "smiles": "CCC(=O)C1=C(O)C=C(O)C=C1O", 
	 "Tm": 449.15, 
	 "num_atms": 23, 
	 "gaussian": { 
		 "optdone": 1, 
		 "sigma_profile": "yes", 
		 "theory": "DFT", 
		 "functional": "B3LYP", 
		 "basiset": "6-31G**", 
		 "properties": { 
			 "R2extent": 2671.5365, 
			 "electric_dipole_moment_norm": 3.70072167286, 
			 "electric_quadrupole_moment_norm": 9.22089572493, 
			 "total_energy": -649.890017529, 
			 "HOMO_LUMO_gap": 0.17331, 
			 "cosmo_polarized_energy": -15.08, 
			 "cosmo_cavitation_energy": 26.29, 
			 "cosmo_dispersion_energy": -19.84, 
			 "cosmo_repulsion_energy": 1.56, 
			 "cosmo_total_nonelectrostatic_energy": 8.01, 
			 "SMD_solvation_energy": 6.03 
		},
		"coords": [
			{
				"x": 2.1225255488,
				"y": 2.0340739304,
				"z": -0.3300297747,
				"element": "C" 
			},
			{
				"x": 0.7015005118,
				"y": 2.3901375617,
				"z": 0.1474063676,
				"element": "C" 
			},
			{
				"x": 0.0705205149,
				"y": 1.2509973361,
				"z": 0.9288079239,
				"element": "C" 
			},
			{
				"x": 0.1894221882,
				"y": 1.3042171569,
				"z": 2.1731761913,
				"element": "O" 
			},
			{
				"x": -0.6284516752,
				"y": 0.119125411,
				"z": 0.3107727433,
				"element": "C" 
			},
			{
				"x": -1.1874549935,
				"y": -0.8849563941,
				"z": 1.1768471203,
				"element": "C" 
			},
			{
				"x": -1.0601086402,
				"y": -0.8068880978,
				"z": 2.49874705,
				"element": "O" 
			},
			{
				"x": -1.8908774339,
				"y": -1.9826131217,
				"z": 0.6655804434,
				"element": "C" 
			},
			{
				"x": -2.0529724261,
				"y": -2.114462654,
				"z": -0.7076887847,
				"element": "C" 
			},
			{
				"x": -2.7227264922,
				"y": -3.1540648798,
				"z": -1.2677241387,
				"element": "O" 
			},
			{
				"x": -1.5192217591,
				"y": -1.1648741589,
				"z": -1.5910401853,
				"element": "C" 
			},
			{
				"x": -0.8222098437,
				"y": -0.0757856872,
				"z": -1.0878305442,
				"element": "C" 
			},
			{
				"x": -0.2948392516,
				"y": 0.8376612291,
				"z": -1.9521889214,
				"element": "O" 
			},
			{
				"x": 2.1047265497,
				"y": 1.2117381952,
				"z": -1.0492518705,
				"element": "H" 
			},
			{
				"x": 2.7538076456,
				"y": 1.746609818,
				"z": 0.5162967414,
				"element": "H" 
			},
			{
				"x": 2.5824475766,
				"y": 2.8993987461,
				"z": -0.8170528854,
				"element": "H" 
			},
			{
				"x": 0.7521886161,
				"y": 3.2282068074,
				"z": 0.8481634649,
				"element": "H" 
			},
			{
				"x": 0.0837802254,
				"y": 2.6748335835,
				"z": -0.7047401846,
				"element": "H" 
			},
			{
				"x": -0.5337723373,
				"y": 0.0366471886,
				"z": 2.6689099593,
				"element": "H" 
			},
			{
				"x": -2.2934964065,
				"y": -2.7082419477,
				"z": 1.3652159979,
				"element": "H" 
			},
			{
				"x": -3.0408689418,
				"y": -3.7401719404,
				"z": -0.5679671521,
				"element": "H" 
			},
			{
				"x": -1.6567572295,
				"y": -1.301085367,
				"z": -2.659311431,
				"element": "H" 
			},
			{
				"x": -0.5092619466,
				"y": 0.5689972845,
				"z": -2.8552981308,
				"element": "H" 
			}
		],
		 "valence_orbital": [ 
			{
				"type": "occ",
				"energy": -0.3403,
				"method": "rhf"
			},
			{
				"type": "occ",
				"energy": -0.29336,
				"method": "rhf"
			},
			{
				"type": "occ",
				"energy": -0.25284,
				"method": "rhf"
			},
			{
				"type": "occ",
				"energy": -0.23422,
				"method": "rhf"
			},
			{
				"type": "occ",
				"energy": -0.22147,
				"method": "rhf"
			},
			{
				"type": "unocc",
				"energy": -0.04816,
				"method": "rhf"
			},
			{
				"type": "unocc",
				"energy": 0.01207,
				"method": "rhf"
			},
			{
				"type": "unocc",
				"energy": 0.04474,
				"method": "rhf"
			},
			{
				"type": "unocc",
				"energy": 0.05507,
				"method": "rhf"
			},
			{
				"type": "unocc",
				"energy": 0.06297,
				"method": "rhf"
			}
		],
		"cosmo_sigma_profile": { 
			"-0.025": 0.0,
			"-0.024": 0.0,
			"-0.023": 0.0,
			"-0.022": 0.0,
			"-0.021": 0.0,
			"-0.02": 0.0,
			"-0.019": 0.400197324122,
			"-0.018": 1.88766215826,
			"-0.017": 2.67110330499,
			"-0.016": 1.79643262796,
			"-0.015": 2.15438088618,
			"-0.014": 2.43686173117,
			"-0.013": 1.48011145732,
			"-0.012": 1.41220353891,
			"-0.011": 2.00617175893,
			"-0.01": 2.56138132908,
			"-0.009": 1.80581101329,
			"-0.008": 1.56179876116,
			"-0.007": 3.78112073643,
			"-0.006": 3.226378264,
			"-0.005": 2.49640812943,
			"-0.004": 5.34882043842,
			"-0.003": 10.9457821484,
			"-0.002": 15.7948962949,
			"-0.001": 22.8280188438,
			"0.0": 19.3386188117,
			"0.001": 17.1379008203,
			"0.002": 17.18904089,
			"0.003": 18.1434130421,
			"0.004": 13.0171558679,
			"0.005": 7.05880153006,
			"0.006": 4.19976435061,
			"0.007": 4.75037767629,
			"0.008": 4.41021576955,
			"0.009": 3.24509929007,
			"0.01": 5.47684321425,
			"0.011": 3.92801726458,
			"0.012": 2.59382651928,
			"0.013": 0.950804316414,
			"0.014": 0.0753044691174,
			"0.015": 0.0,
			"0.016": 0.0,
			"0.017": 0.0,
			"0.018": 0.0,
			"0.019": 0.0,
			"0.02": 0.0,
			"0.021": 0.0,
			"0.022": 0.0,
			"0.023": 0.0,
			"0.024": 0.0,
			"0.025": 0.0
		}
	}
}
