{
	 "smiles": "OC(=O)CCCNC1=NC=CC=N1", 
	 "Tm": 401.15, 
	 "num_atms": 24, 
	 "gaussian": { 
		 "optdone": 1, 
		 "sigma_profile": "yes", 
		 "theory": "DFT", 
		 "functional": "B3LYP", 
		 "basiset": "6-31G**", 
		 "properties": { 
			 "R2extent": 4139.102, 
			 "electric_dipole_moment_norm": 1.74579818421, 
			 "electric_quadrupole_moment_norm": 13.1617940601, 
			 "total_energy": -626.208439708, 
			 "HOMO_LUMO_gap": 0.18794, 
			 "cosmo_polarized_energy": -14.3, 
			 "cosmo_cavitation_energy": 28.58, 
			 "cosmo_dispersion_energy": -20.67, 
			 "cosmo_repulsion_energy": 1.68, 
			 "cosmo_total_nonelectrostatic_energy": 9.59, 
			 "SMD_solvation_energy": 3.02 
		},
		"coords": [
			{
				"x": -0.7907437038,
				"y": 0.1478211632,
				"z": -3.4039424983,
				"element": "O" 
			},
			{
				"x": 0.2258207024,
				"y": -0.5764280888,
				"z": -2.8655688882,
				"element": "C" 
			},
			{
				"x": 1.3295112619,
				"y": -0.6033759567,
				"z": -3.3628461912,
				"element": "O" 
			},
			{
				"x": -0.2036360187,
				"y": -1.3429757419,
				"z": -1.6308933319,
				"element": "C" 
			},
			{
				"x": -1.1338191473,
				"y": -0.585845431,
				"z": -0.6705429274,
				"element": "C" 
			},
			{
				"x": -0.4756813403,
				"y": 0.6630178684,
				"z": -0.061734781,
				"element": "C" 
			},
			{
				"x": -1.3320407045,
				"y": 1.3734377808,
				"z": 0.870701681,
				"element": "N" 
			},
			{
				"x": -1.5203328579,
				"y": 1.0137725515,
				"z": 2.1709533843,
				"element": "C" 
			},
			{
				"x": -2.4291167141,
				"y": 1.7451500403,
				"z": 2.8583278448,
				"element": "N" 
			},
			{
				"x": -2.5911821599,
				"y": 1.4127846292,
				"z": 4.1363995146,
				"element": "C" 
			},
			{
				"x": -1.8818658815,
				"y": 0.3798931231,
				"z": 4.7545958198,
				"element": "C" 
			},
			{
				"x": -0.9827439805,
				"y": -0.3061746961,
				"z": 3.9416928291,
				"element": "C" 
			},
			{
				"x": -0.7897033818,
				"y": -0.0127891401,
				"z": 2.6537903626,
				"element": "N" 
			},
			{
				"x": -0.4219455218,
				"y": 0.5712138469,
				"z": -4.1975231018,
				"element": "H" 
			},
			{
				"x": 0.7119687094,
				"y": -1.6698148036,
				"z": -1.1305389884,
				"element": "H" 
			},
			{
				"x": -0.7125134551,
				"y": -2.2481325233,
				"z": -1.9872187188,
				"element": "H" 
			},
			{
				"x": -2.0513988085,
				"y": -0.2986916389,
				"z": -1.194277946,
				"element": "H" 
			},
			{
				"x": -1.4165474414,
				"y": -1.2580165807,
				"z": 0.1457532509,
				"element": "H" 
			},
			{
				"x": -0.1964556539,
				"y": 1.3664612679,
				"z": -0.8536431319,
				"element": "H" 
			},
			{
				"x": 0.4378965416,
				"y": 0.3758995648,
				"z": 0.4669153622,
				"element": "H" 
			},
			{
				"x": -1.9613438139,
				"y": 2.085974903,
				"z": 0.5334827732,
				"element": "H" 
			},
			{
				"x": -3.3225396315,
				"y": 1.998282513,
				"z": 4.692959342,
				"element": "H" 
			},
			{
				"x": -2.0276596238,
				"y": 0.1243532501,
				"z": 5.797185545,
				"element": "H" 
			},
			{
				"x": -0.3915273753,
				"y": -1.132417901,
				"z": 4.3353727955,
				"element": "H" 
			}
		],
		 "valence_orbital": [ 
			{
				"type": "occ",
				"energy": -0.30807,
				"method": "rhf"
			},
			{
				"type": "occ",
				"energy": -0.30481,
				"method": "rhf"
			},
			{
				"type": "occ",
				"energy": -0.27323,
				"method": "rhf"
			},
			{
				"type": "occ",
				"energy": -0.24352,
				"method": "rhf"
			},
			{
				"type": "occ",
				"energy": -0.21723,
				"method": "rhf"
			},
			{
				"type": "unocc",
				"energy": -0.02929,
				"method": "rhf"
			},
			{
				"type": "unocc",
				"energy": 0.00343,
				"method": "rhf"
			},
			{
				"type": "unocc",
				"energy": 0.00843,
				"method": "rhf"
			},
			{
				"type": "unocc",
				"energy": 0.06965,
				"method": "rhf"
			},
			{
				"type": "unocc",
				"energy": 0.09489,
				"method": "rhf"
			}
		],
		"cosmo_sigma_profile": { 
			"-0.025": 0.0,
			"-0.024": 0.0,
			"-0.023": 0.0,
			"-0.022": 0.0,
			"-0.021": 0.0,
			"-0.02": 0.0,
			"-0.019": 0.0,
			"-0.018": 0.461698714587,
			"-0.017": 0.956960433289,
			"-0.016": 0.772460505223,
			"-0.015": 0.782641020962,
			"-0.014": 1.35455313686,
			"-0.013": 1.65012726388,
			"-0.012": 1.27474642767,
			"-0.011": 1.49090135552,
			"-0.01": 1.42676978117,
			"-0.009": 1.82349278401,
			"-0.008": 1.44019415996,
			"-0.007": 6.69500096824,
			"-0.006": 12.6668082919,
			"-0.005": 16.0195303349,
			"-0.004": 15.5376231807,
			"-0.003": 18.0397358459,
			"-0.002": 17.8204653665,
			"-0.001": 12.7483006126,
			"0.0": 14.8140543348,
			"0.001": 15.1767360212,
			"0.002": 16.2909566624,
			"0.003": 11.609362441,
			"0.004": 8.49330179475,
			"0.005": 7.10972390302,
			"0.006": 4.35078221836,
			"0.007": 5.55425266908,
			"0.008": 5.46013725996,
			"0.009": 4.24946442259,
			"0.01": 3.66459393068,
			"0.011": 4.83501689635,
			"0.012": 7.31323325665,
			"0.013": 2.30817071721,
			"0.014": 1.12718868597,
			"0.015": 0.488330989363,
			"0.016": 0.0755402728368,
			"0.017": 0.0,
			"0.018": 0.0,
			"0.019": 0.0,
			"0.02": 0.0,
			"0.021": 0.0,
			"0.022": 0.0,
			"0.023": 0.0,
			"0.024": 0.0,
			"0.025": 0.0
		}
	}
}
