{
	 "smiles": "FC(F)(F)C(=O)C(=N/NC1=CC=CN=C1)C(=O)C1=CC=CS1", 
	 "Tm": 423.15, 
	 "num_atms": 30, 
	 "gaussian": { 
		 "optdone": 1, 
		 "sigma_profile": "yes", 
		 "theory": "DFT", 
		 "functional": "B3LYP", 
		 "basiset": "6-31G**", 
		 "properties": { 
			 "R2extent": 8703.7545, 
			 "electric_dipole_moment_norm": 4.9343651081, 
			 "electric_quadrupole_moment_norm": 26.8732663432, 
			 "total_energy": -1512.544309, 
			 "HOMO_LUMO_gap": 0.13397, 
			 "cosmo_polarized_energy": -16.79, 
			 "cosmo_cavitation_energy": 39.53, 
			 "cosmo_dispersion_energy": -27.72, 
			 "cosmo_repulsion_energy": 2.0, 
			 "cosmo_total_nonelectrostatic_energy": 13.81, 
			 "SMD_solvation_energy": 7.03 
		},
		"coords": [
			{
				"x": 4.7617912812,
				"y": 0.839395895,
				"z": 0.8287276517,
				"element": "F" 
			},
			{
				"x": 3.8809602002,
				"y": 1.2604380916,
				"z": -0.0862318914,
				"element": "C" 
			},
			{
				"x": 4.2540815064,
				"y": 2.4839934785,
				"z": -0.4906060461,
				"element": "F" 
			},
			{
				"x": 3.924385279,
				"y": 0.4457912475,
				"z": -1.1565819369,
				"element": "F" 
			},
			{
				"x": 2.4449031227,
				"y": 1.3469058553,
				"z": 0.507624253,
				"element": "C" 
			},
			{
				"x": 2.0835711136,
				"y": 2.4601182071,
				"z": 0.894692905,
				"element": "O" 
			},
			{
				"x": 1.5399419134,
				"y": 0.1915345045,
				"z": 0.5021793802,
				"element": "C" 
			},
			{
				"x": 0.2555615178,
				"y": 0.2956674785,
				"z": 0.793854931,
				"element": "N" 
			},
			{
				"x": -0.2788813314,
				"y": 1.4295432892,
				"z": 1.1638421441,
				"element": "N" 
			},
			{
				"x": -1.6470527219,
				"y": 1.5193843061,
				"z": 1.4630749809,
				"element": "C" 
			},
			{
				"x": -2.1790852364,
				"y": 2.7644058286,
				"z": 1.814318111,
				"element": "C" 
			},
			{
				"x": -3.5363631598,
				"y": 2.8432646653,
				"z": 2.1074101204,
				"element": "C" 
			},
			{
				"x": -4.3072979887,
				"y": 1.6815130769,
				"z": 2.0371136947,
				"element": "C" 
			},
			{
				"x": -3.8031039252,
				"y": 0.4853749174,
				"z": 1.7045343776,
				"element": "N" 
			},
			{
				"x": -2.5016249279,
				"y": 0.4048576906,
				"z": 1.4260236251,
				"element": "C" 
			},
			{
				"x": 2.0542580263,
				"y": -1.2025240219,
				"z": 0.2900967957,
				"element": "C" 
			},
			{
				"x": 3.1735540967,
				"y": -1.4853409874,
				"z": 0.7088003309,
				"element": "O" 
			},
			{
				"x": 1.2200589575,
				"y": -2.203703546,
				"z": -0.3840521291,
				"element": "C" 
			},
			{
				"x": 0.0290149139,
				"y": -2.0990656911,
				"z": -1.0767338301,
				"element": "C" 
			},
			{
				"x": -0.4046661749,
				"y": -3.3331438601,
				"z": -1.6256634497,
				"element": "C" 
			},
			{
				"x": 0.4623294757,
				"y": -4.3617713324,
				"z": -1.3460474772,
				"element": "C" 
			},
			{
				"x": 1.8221936882,
				"y": -3.8461932244,
				"z": -0.421067045,
				"element": "S" 
			},
			{
				"x": 0.337654645,
				"y": 2.2462028562,
				"z": 1.2435924719,
				"element": "H" 
			},
			{
				"x": -1.5432298392,
				"y": 3.6449926953,
				"z": 1.8536925652,
				"element": "H" 
			},
			{
				"x": -3.989278475,
				"y": 3.789670288,
				"z": 2.3841086962,
				"element": "H" 
			},
			{
				"x": -5.3719818876,
				"y": 1.710441442,
				"z": 2.2576512039,
				"element": "H" 
			},
			{
				"x": -2.1048607226,
				"y": -0.5720083635,
				"z": 1.1666324151,
				"element": "H" 
			},
			{
				"x": -0.5087632686,
				"y": -1.1666757029,
				"z": -1.1848034373,
				"element": "H" 
			},
			{
				"x": -1.3152441819,
				"y": -3.4544052702,
				"z": -2.2007357289,
				"element": "H" 
			},
			{
				"x": 0.3719741035,
				"y": -5.3990638138,
				"z": -1.640047682,
				"element": "H" 
			}
		],
		 "valence_orbital": [ 
			{
				"type": "occ",
				"energy": -0.27154,
				"method": "rhf"
			},
			{
				"type": "occ",
				"energy": -0.26505,
				"method": "rhf"
			},
			{
				"type": "occ",
				"energy": -0.2627,
				"method": "rhf"
			},
			{
				"type": "occ",
				"energy": -0.24955,
				"method": "rhf"
			},
			{
				"type": "occ",
				"energy": -0.24278,
				"method": "rhf"
			},
			{
				"type": "unocc",
				"energy": -0.10881,
				"method": "rhf"
			},
			{
				"type": "unocc",
				"energy": -0.0734,
				"method": "rhf"
			},
			{
				"type": "unocc",
				"energy": -0.0438,
				"method": "rhf"
			},
			{
				"type": "unocc",
				"energy": -0.02018,
				"method": "rhf"
			},
			{
				"type": "unocc",
				"energy": 0.0033,
				"method": "rhf"
			}
		],
		"cosmo_sigma_profile": { 
			"-0.025": 0.0,
			"-0.024": 0.0,
			"-0.023": 0.0,
			"-0.022": 0.0,
			"-0.021": 0.0,
			"-0.02": 0.0,
			"-0.019": 0.0,
			"-0.018": 0.0,
			"-0.017": 0.0,
			"-0.016": 0.0,
			"-0.015": 0.0279943835734,
			"-0.014": 0.511225949671,
			"-0.013": 0.835438802385,
			"-0.012": 0.853662313933,
			"-0.011": 1.05793841153,
			"-0.01": 2.22053348837,
			"-0.009": 3.7001689463,
			"-0.008": 6.65878345364,
			"-0.007": 13.506199082,
			"-0.006": 16.3437005273,
			"-0.005": 17.4676794312,
			"-0.004": 17.6003478856,
			"-0.003": 18.5572563675,
			"-0.002": 19.643648531,
			"-0.001": 20.2602644472,
			"0.0": 23.9646455917,
			"0.001": 30.7480504803,
			"0.002": 47.0090153723,
			"0.003": 27.2861231203,
			"0.004": 11.6012487213,
			"0.005": 6.85701726472,
			"0.006": 4.77666923798,
			"0.007": 6.12321767384,
			"0.008": 5.19566091406,
			"0.009": 4.63644646453,
			"0.01": 4.77533245949,
			"0.011": 4.5580864107,
			"0.012": 2.08101804233,
			"0.013": 0.99133328528,
			"0.014": 0.820812830839,
			"0.015": 0.6387426159,
			"0.016": 0.707756903217,
			"0.017": 0.0,
			"0.018": 0.0,
			"0.019": 0.0,
			"0.02": 0.0,
			"0.021": 0.0,
			"0.022": 0.0,
			"0.023": 0.0,
			"0.024": 0.0,
			"0.025": 0.0
		}
	}
}
