{
	 "smiles": "NC(=O)OCCCl", 
	 "Tm": 348.65, 
	 "num_atms": 13, 
	 "gaussian": { 
		 "optdone": 1, 
		 "sigma_profile": "yes", 
		 "theory": "DFT", 
		 "functional": "B3LYP", 
		 "basiset": "6-31G**", 
		 "properties": { 
			 "R2extent": 1512.3188, 
			 "electric_dipole_moment_norm": 4.0054335271, 
			 "electric_quadrupole_moment_norm": 6.4943853797, 
			 "total_energy": -783.352757625, 
			 "HOMO_LUMO_gap": 0.30082, 
			 "cosmo_polarized_energy": -11.38, 
			 "cosmo_cavitation_energy": 18.94, 
			 "cosmo_dispersion_energy": -14.32, 
			 "cosmo_repulsion_energy": 1.26, 
			 "cosmo_total_nonelectrostatic_energy": 5.89, 
			 "SMD_solvation_energy": 4.32 
		},
		"coords": [
			{
				"x": 0.4378501978,
				"y": 2.7410883932,
				"z": 0.8841327118,
				"element": "N" 
			},
			{
				"x": 0.2714033081,
				"y": 1.4941271865,
				"z": 0.3591451993,
				"element": "C" 
			},
			{
				"x": 1.0722868128,
				"y": 0.9104816603,
				"z": -0.3448688546,
				"element": "O" 
			},
			{
				"x": -0.9519390006,
				"y": 1.0011811217,
				"z": 0.7176981175,
				"element": "O" 
			},
			{
				"x": -1.2529091559,
				"y": -0.3168492196,
				"z": 0.229404572,
				"element": "C" 
			},
			{
				"x": -1.7642049293,
				"y": -0.2357307061,
				"z": -1.2039572481,
				"element": "C" 
			},
			{
				"x": -2.3058133424,
				"y": -1.8751972424,
				"z": -1.7525828306,
				"element": "Cl" 
			},
			{
				"x": -0.1898438788,
				"y": 3.0698747499,
				"z": 1.5999538598,
				"element": "H" 
			},
			{
				"x": 1.3577260248,
				"y": 3.144105626,
				"z": 0.8162514496,
				"element": "H" 
			},
			{
				"x": -0.3636923568,
				"y": -0.9482487278,
				"z": 0.2809830891,
				"element": "H" 
			},
			{
				"x": -2.0252733893,
				"y": -0.7041879944,
				"z": 0.896196307,
				"element": "H" 
			},
			{
				"x": -2.6233431897,
				"y": 0.4319671487,
				"z": -1.2800408311,
				"element": "H" 
			},
			{
				"x": -0.9731471007,
				"y": 0.0888880042,
				"z": -1.8788155416,
				"element": "H" 
			}
		],
		 "valence_orbital": [ 
			{
				"type": "occ",
				"energy": -0.31773,
				"method": "rhf"
			},
			{
				"type": "occ",
				"energy": -0.2979,
				"method": "rhf"
			},
			{
				"type": "occ",
				"energy": -0.29331,
				"method": "rhf"
			},
			{
				"type": "occ",
				"energy": -0.28573,
				"method": "rhf"
			},
			{
				"type": "occ",
				"energy": -0.27978,
				"method": "rhf"
			},
			{
				"type": "unocc",
				"energy": 0.02104,
				"method": "rhf"
			},
			{
				"type": "unocc",
				"energy": 0.04441,
				"method": "rhf"
			},
			{
				"type": "unocc",
				"energy": 0.07647,
				"method": "rhf"
			},
			{
				"type": "unocc",
				"energy": 0.107,
				"method": "rhf"
			},
			{
				"type": "unocc",
				"energy": 0.12459,
				"method": "rhf"
			}
		],
		"cosmo_sigma_profile": { 
			"-0.025": 0.0,
			"-0.024": 0.0,
			"-0.023": 0.0,
			"-0.022": 0.0,
			"-0.021": 0.0,
			"-0.02": 0.0,
			"-0.019": 0.0,
			"-0.018": 0.0,
			"-0.017": 0.0,
			"-0.016": 0.0,
			"-0.015": 0.938905362055,
			"-0.014": 2.15549291322,
			"-0.013": 2.43210337278,
			"-0.012": 2.32685157907,
			"-0.011": 1.47054991729,
			"-0.01": 2.00127406131,
			"-0.009": 1.88326697971,
			"-0.008": 1.86493950248,
			"-0.007": 5.32724108785,
			"-0.006": 8.49292840011,
			"-0.005": 8.68972347486,
			"-0.004": 9.49091357117,
			"-0.003": 9.34679795543,
			"-0.002": 6.97350327769,
			"-0.001": 9.51422908354,
			"0.0": 7.83009683729,
			"0.001": 7.03157533038,
			"0.002": 6.8888178898,
			"0.003": 7.85691336502,
			"0.004": 8.7313197433,
			"0.005": 9.37467563652,
			"0.006": 11.716773284,
			"0.007": 4.94633242888,
			"0.008": 2.1349500104,
			"0.009": 0.873376630347,
			"0.01": 1.43301161553,
			"0.011": 1.44363583235,
			"0.012": 3.16034593699,
			"0.013": 4.22541186615,
			"0.014": 0.791668839439,
			"0.015": 0.0,
			"0.016": 0.0,
			"0.017": 0.0,
			"0.018": 0.0,
			"0.019": 0.0,
			"0.02": 0.0,
			"0.021": 0.0,
			"0.022": 0.0,
			"0.023": 0.0,
			"0.024": 0.0,
			"0.025": 0.0
		}
	}
}
