{
	 "smiles": "OC(=O)C1=CC=C(CCC(F)(F)F)C=C1", 
	 "Tm": 485.15, 
	 "num_atms": 24, 
	 "gaussian": { 
		 "optdone": 1, 
		 "sigma_profile": "yes", 
		 "theory": "DFT", 
		 "functional": "B3LYP", 
		 "basiset": "6-31G**", 
		 "properties": { 
			 "R2extent": 5661.5098, 
			 "electric_dipole_moment_norm": 1.46029507292, 
			 "electric_quadrupole_moment_norm": 12.3237940939, 
			 "total_energy": -836.497543452, 
			 "HOMO_LUMO_gap": 0.20813, 
			 "cosmo_polarized_energy": -10.8, 
			 "cosmo_cavitation_energy": 30.34, 
			 "cosmo_dispersion_energy": -21.2, 
			 "cosmo_repulsion_energy": 1.6, 
			 "cosmo_total_nonelectrostatic_energy": 10.75, 
			 "SMD_solvation_energy": 7.29 
		},
		"coords": [
			{
				"x": -1.4647307154,
				"y": -2.8352559326,
				"z": -2.8959350334,
				"element": "O" 
			},
			{
				"x": -2.1875536695,
				"y": -2.0608242586,
				"z": -2.0474824882,
				"element": "C" 
			},
			{
				"x": -3.3977553985,
				"y": -2.1448384303,
				"z": -1.9715463612,
				"element": "O" 
			},
			{
				"x": -1.3482536873,
				"y": -1.1288006694,
				"z": -1.250787141,
				"element": "C" 
			},
			{
				"x": -1.9894988722,
				"y": -0.2808650268,
				"z": -0.3380825508,
				"element": "C" 
			},
			{
				"x": -1.2454313509,
				"y": 0.6068050429,
				"z": 0.4318761663,
				"element": "C" 
			},
			{
				"x": 0.1507343854,
				"y": 0.669694853,
				"z": 0.3097856893,
				"element": "C" 
			},
			{
				"x": 0.953416939,
				"y": 1.6615351686,
				"z": 1.1220408322,
				"element": "C" 
			},
			{
				"x": 1.1056055908,
				"y": 3.0133572881,
				"z": 0.3989719382,
				"element": "C" 
			},
			{
				"x": 1.908187618,
				"y": 4.0135687064,
				"z": 1.2001232677,
				"element": "C" 
			},
			{
				"x": 2.0264873234,
				"y": 5.1872395994,
				"z": 0.5429904332,
				"element": "F" 
			},
			{
				"x": 3.1592461454,
				"y": 3.5633040644,
				"z": 1.4525189953,
				"element": "F" 
			},
			{
				"x": 1.3307799972,
				"y": 4.2754150712,
				"z": 2.3956135777,
				"element": "F" 
			},
			{
				"x": 0.7827286276,
				"y": -0.184785809,
				"z": -0.6048599646,
				"element": "C" 
			},
			{
				"x": 0.0462359415,
				"y": -1.0769064872,
				"z": -1.3799908655,
				"element": "C" 
			},
			{
				"x": -2.1114708484,
				"y": -3.3950522946,
				"z": -3.3559269251,
				"element": "H" 
			},
			{
				"x": -3.0689077865,
				"y": -0.3376347683,
				"z": -0.2461046166,
				"element": "H" 
			},
			{
				"x": -1.7504530984,
				"y": 1.2563870519,
				"z": 1.1425071692,
				"element": "H" 
			},
			{
				"x": 0.4703876473,
				"y": 1.8326733244,
				"z": 2.089468067,
				"element": "H" 
			},
			{
				"x": 1.9503538673,
				"y": 1.2588769802,
				"z": 1.3281225818,
				"element": "H" 
			},
			{
				"x": 1.6078613084,
				"y": 2.8834645626,
				"z": -0.5644341258,
				"element": "H" 
			},
			{
				"x": 0.126446425,
				"y": 3.4594255595,
				"z": 0.2001432029,
				"element": "H" 
			},
			{
				"x": 1.8648578683,
				"y": -0.1542817892,
				"z": -0.7053465172,
				"element": "H" 
			},
			{
				"x": 0.5450257423,
				"y": -1.7362018065,
				"z": -2.0812653314,
				"element": "H" 
			}
		],
		 "valence_orbital": [ 
			{
				"type": "occ",
				"energy": -0.35069,
				"method": "rhf"
			},
			{
				"type": "occ",
				"energy": -0.32114,
				"method": "rhf"
			},
			{
				"type": "occ",
				"energy": -0.27948,
				"method": "rhf"
			},
			{
				"type": "occ",
				"energy": -0.26686,
				"method": "rhf"
			},
			{
				"type": "occ",
				"energy": -0.2612,
				"method": "rhf"
			},
			{
				"type": "unocc",
				"energy": -0.05307,
				"method": "rhf"
			},
			{
				"type": "unocc",
				"energy": -0.01682,
				"method": "rhf"
			},
			{
				"type": "unocc",
				"energy": 0.04918,
				"method": "rhf"
			},
			{
				"type": "unocc",
				"energy": 0.0741,
				"method": "rhf"
			},
			{
				"type": "unocc",
				"energy": 0.08843,
				"method": "rhf"
			}
		],
		"cosmo_sigma_profile": { 
			"-0.025": 0.0,
			"-0.024": 0.0,
			"-0.023": 0.0,
			"-0.022": 0.0,
			"-0.021": 0.0,
			"-0.02": 0.0,
			"-0.019": 0.0,
			"-0.018": 0.595959576003,
			"-0.017": 1.1720651573,
			"-0.016": 0.748784309231,
			"-0.015": 0.764475414983,
			"-0.014": 0.69084154817,
			"-0.013": 0.627833032309,
			"-0.012": 0.233959955356,
			"-0.011": 1.20908765335,
			"-0.01": 0.734383293708,
			"-0.009": 0.758997868178,
			"-0.008": 0.242077331291,
			"-0.007": 3.46345836101,
			"-0.006": 15.1392248349,
			"-0.005": 18.039358936,
			"-0.004": 15.7522935237,
			"-0.003": 14.1419571923,
			"-0.002": 15.5657677899,
			"-0.001": 14.7677493934,
			"0.0": 14.3782005412,
			"0.001": 16.8115800532,
			"0.002": 22.2142272434,
			"0.003": 43.4577159692,
			"0.004": 16.9709418558,
			"0.005": 2.61521993006,
			"0.006": 3.14361905039,
			"0.007": 3.07597029446,
			"0.008": 2.27025590804,
			"0.009": 1.58440805259,
			"0.01": 2.0693203173,
			"0.011": 3.28703541273,
			"0.012": 4.45799889885,
			"0.013": 0.265648236725,
			"0.014": 0.0,
			"0.015": 0.0,
			"0.016": 0.0,
			"0.017": 0.0,
			"0.018": 0.0,
			"0.019": 0.0,
			"0.02": 0.0,
			"0.021": 0.0,
			"0.022": 0.0,
			"0.023": 0.0,
			"0.024": 0.0,
			"0.025": 0.0
		}
	}
}
