{
	 "smiles": "NC1=CC=CC=C1C1=CC=CC=C1", 
	 "Tm": 323.35, 
	 "num_atms": 24, 
	 "gaussian": { 
		 "optdone": 1, 
		 "sigma_profile": "yes", 
		 "theory": "DFT", 
		 "functional": "B3LYP", 
		 "basiset": "6-31G**", 
		 "properties": { 
			 "R2extent": 2798.0946, 
			 "electric_dipole_moment_norm": 1.56923930935, 
			 "electric_quadrupole_moment_norm": 8.04147160662, 
			 "total_energy": -518.668011189, 
			 "HOMO_LUMO_gap": 0.17809, 
			 "cosmo_polarized_energy": -7.96, 
			 "cosmo_cavitation_energy": 27.1, 
			 "cosmo_dispersion_energy": -20.04, 
			 "cosmo_repulsion_energy": 1.58, 
			 "cosmo_total_nonelectrostatic_energy": 8.64, 
			 "SMD_solvation_energy": 4.4 
		},
		"coords": [
			{
				"x": 2.75961515,
				"y": -1.6161009414,
				"z": -0.017610522,
				"element": "N" 
			},
			{
				"x": 2.2103690223,
				"y": -0.560426415,
				"z": 0.7160554951,
				"element": "C" 
			},
			{
				"x": 3.0423022529,
				"y": 0.2013463968,
				"z": 1.5549620969,
				"element": "C" 
			},
			{
				"x": 2.5334193488,
				"y": 1.2442075409,
				"z": 2.3218687899,
				"element": "C" 
			},
			{
				"x": 1.1742840411,
				"y": 1.5577917672,
				"z": 2.2659473064,
				"element": "C" 
			},
			{
				"x": 0.3432806836,
				"y": 0.8077661582,
				"z": 1.4368440989,
				"element": "C" 
			},
			{
				"x": 0.8258586254,
				"y": -0.2554571964,
				"z": 0.6581025434,
				"element": "C" 
			},
			{
				"x": -0.1170163861,
				"y": -1.0105357332,
				"z": -0.2135154327,
				"element": "C" 
			},
			{
				"x": -0.170686769,
				"y": -2.4168504699,
				"z": -0.2040840837,
				"element": "C" 
			},
			{
				"x": -1.0872128463,
				"y": -3.1043392062,
				"z": -1.0007324387,
				"element": "C" 
			},
			{
				"x": -1.9716124006,
				"y": -2.4044280923,
				"z": -1.8233034696,
				"element": "C" 
			},
			{
				"x": -1.9318533016,
				"y": -1.0088097982,
				"z": -1.8427446778,
				"element": "C" 
			},
			{
				"x": -1.0143486219,
				"y": -0.3213876721,
				"z": -1.0490590184,
				"element": "C" 
			},
			{
				"x": 3.7502081936,
				"y": -1.5260872443,
				"z": -0.1984405209,
				"element": "H" 
			},
			{
				"x": 2.2429483291,
				"y": -1.8752582015,
				"z": -0.8475654331,
				"element": "H" 
			},
			{
				"x": 4.1030980855,
				"y": -0.0357528024,
				"z": 1.5957888987,
				"element": "H" 
			},
			{
				"x": 3.2026231687,
				"y": 1.813234238,
				"z": 2.961326858,
				"element": "H" 
			},
			{
				"x": 0.7664177958,
				"y": 2.367523443,
				"z": 2.8627210322,
				"element": "H" 
			},
			{
				"x": -0.7194337096,
				"y": 1.0304208782,
				"z": 1.3966215849,
				"element": "H" 
			},
			{
				"x": 0.5009767127,
				"y": -2.9698969158,
				"z": 0.4452519966,
				"element": "H" 
			},
			{
				"x": -1.1155572447,
				"y": -4.1901559503,
				"z": -0.9703480706,
				"element": "H" 
			},
			{
				"x": -2.684256984,
				"y": -2.940817662,
				"z": -2.4432291801,
				"element": "H" 
			},
			{
				"x": -2.6121305159,
				"y": -0.4533699226,
				"z": -2.4825561044,
				"element": "H" 
			},
			{
				"x": -0.9778926296,
				"y": 0.7637838016,
				"z": -1.081101749,
				"element": "H" 
			}
		],
		 "valence_orbital": [ 
			{
				"type": "occ",
				"energy": -0.30297,
				"method": "rhf"
			},
			{
				"type": "occ",
				"energy": -0.26356,
				"method": "rhf"
			},
			{
				"type": "occ",
				"energy": -0.24881,
				"method": "rhf"
			},
			{
				"type": "occ",
				"energy": -0.2281,
				"method": "rhf"
			},
			{
				"type": "occ",
				"energy": -0.19571,
				"method": "rhf"
			},
			{
				"type": "unocc",
				"energy": -0.01762,
				"method": "rhf"
			},
			{
				"type": "unocc",
				"energy": -0.00092,
				"method": "rhf"
			},
			{
				"type": "unocc",
				"energy": 0.01581,
				"method": "rhf"
			},
			{
				"type": "unocc",
				"energy": 0.03187,
				"method": "rhf"
			},
			{
				"type": "unocc",
				"energy": 0.0944,
				"method": "rhf"
			}
		],
		"cosmo_sigma_profile": { 
			"-0.025": 0.0,
			"-0.024": 0.0,
			"-0.023": 0.0,
			"-0.022": 0.0,
			"-0.021": 0.0,
			"-0.02": 0.0,
			"-0.019": 0.0,
			"-0.018": 0.0,
			"-0.017": 0.0,
			"-0.016": 0.0,
			"-0.015": 0.0,
			"-0.014": 0.0,
			"-0.013": 0.139140759207,
			"-0.012": 1.05605189259,
			"-0.011": 1.59243650007,
			"-0.01": 2.62042181434,
			"-0.009": 2.39432439432,
			"-0.008": 2.45859946938,
			"-0.007": 2.60893228025,
			"-0.006": 5.69425074412,
			"-0.005": 15.0198954372,
			"-0.004": 20.2468449606,
			"-0.003": 20.9004593218,
			"-0.002": 15.6576390554,
			"-0.001": 13.3883748487,
			"0.0": 12.9948180624,
			"0.001": 12.8581971793,
			"0.002": 13.3012932562,
			"0.003": 14.5847384535,
			"0.004": 16.4500071274,
			"0.005": 15.9731142847,
			"0.006": 14.4315446184,
			"0.007": 7.58249323596,
			"0.008": 1.31421780233,
			"0.009": 0.493679884549,
			"0.01": 0.950642447998,
			"0.011": 0.478970340979,
			"0.012": 0.492365942564,
			"0.013": 0.407349884365,
			"0.014": 0.278718797447,
			"0.015": 0.0,
			"0.016": 0.0,
			"0.017": 0.0,
			"0.018": 0.0,
			"0.019": 0.0,
			"0.02": 0.0,
			"0.021": 0.0,
			"0.022": 0.0,
			"0.023": 0.0,
			"0.024": 0.0,
			"0.025": 0.0
		}
	}
}
