{
	 "smiles": "COC(=O)C1=CC=C(Br)S1", 
	 "Tm": 334.15, 
	 "num_atms": 15, 
	 "gaussian": { 
		 "optdone": 1, 
		 "sigma_profile": "yes", 
		 "theory": "DFT", 
		 "functional": "B3LYP", 
		 "basiset": "6-31G**", 
		 "properties": { 
			 "R2extent": 6514.911, 
			 "electric_dipole_moment_norm": 2.79302828306, 
			 "electric_quadrupole_moment_norm": 7.5533206896, 
			 "total_energy": -3351.67753434, 
			 "HOMO_LUMO_gap": 0.17975, 
			 "cosmo_polarized_energy": -6.99, 
			 "cosmo_cavitation_energy": 24.01, 
			 "cosmo_dispersion_energy": -18.63, 
			 "cosmo_repulsion_energy": 1.47, 
			 "cosmo_total_nonelectrostatic_energy": 6.85, 
			 "SMD_solvation_energy": 4.42 
		},
		"coords": [
			{
				"x": 0.0504133589,
				"y": 1.1963470029,
				"z": 1.9744001136,
				"element": "C" 
			},
			{
				"x": -0.2244488575,
				"y": 1.1621426299,
				"z": 0.5640383143,
				"element": "O" 
			},
			{
				"x": -1.0122397722,
				"y": 0.1406891866,
				"z": 0.1601980467,
				"element": "C" 
			},
			{
				"x": -1.4706975185,
				"y": -0.7026080533,
				"z": 0.9081729299,
				"element": "O" 
			},
			{
				"x": -1.2463427408,
				"y": 0.1765924816,
				"z": -1.2896428084,
				"element": "C" 
			},
			{
				"x": -0.7899341809,
				"y": 1.0677835756,
				"z": -2.2329182785,
				"element": "C" 
			},
			{
				"x": -1.2358219593,
				"y": 0.7676322537,
				"z": -3.5473310162,
				"element": "C" 
			},
			{
				"x": -2.0266374938,
				"y": -0.3539339652,
				"z": -3.5687161354,
				"element": "C" 
			},
			{
				"x": -2.8356387075,
				"y": -1.1187142761,
				"z": -5.0875788662,
				"element": "Br" 
			},
			{
				"x": -2.2452919702,
				"y": -1.0653615922,
				"z": -2.0020509233,
				"element": "S" 
			},
			{
				"x": 0.6878001659,
				"y": 2.066861654,
				"z": 2.1271390321,
				"element": "H" 
			},
			{
				"x": 0.5632427166,
				"y": 0.2838860146,
				"z": 2.2887080477,
				"element": "H" 
			},
			{
				"x": -0.8767172982,
				"y": 1.2933082321,
				"z": 2.5448412276,
				"element": "H" 
			},
			{
				"x": -0.1551102017,
				"y": 1.9080191735,
				"z": -1.979731527,
				"element": "H" 
			},
			{
				"x": -0.9909755407,
				"y": 1.3422556823,
				"z": -4.4315281568,
				"element": "H" 
			}
		],
		 "valence_orbital": [ 
			{
				"type": "occ",
				"energy": -0.30792,
				"method": "rhf"
			},
			{
				"type": "occ",
				"energy": -0.30441,
				"method": "rhf"
			},
			{
				"type": "occ",
				"energy": -0.28288,
				"method": "rhf"
			},
			{
				"type": "occ",
				"energy": -0.27166,
				"method": "rhf"
			},
			{
				"type": "occ",
				"energy": -0.24207,
				"method": "rhf"
			},
			{
				"type": "unocc",
				"energy": -0.06232,
				"method": "rhf"
			},
			{
				"type": "unocc",
				"energy": -0.00997,
				"method": "rhf"
			},
			{
				"type": "unocc",
				"energy": 0.01703,
				"method": "rhf"
			},
			{
				"type": "unocc",
				"energy": 0.0206,
				"method": "rhf"
			},
			{
				"type": "unocc",
				"energy": 0.08616,
				"method": "rhf"
			}
		],
		"cosmo_sigma_profile": { 
			"-0.025": 0.0,
			"-0.024": 0.0,
			"-0.023": 0.0,
			"-0.022": 0.0,
			"-0.021": 0.0,
			"-0.02": 0.0,
			"-0.019": 0.0,
			"-0.018": 0.0,
			"-0.017": 0.0,
			"-0.016": 0.0,
			"-0.015": 0.0,
			"-0.014": 0.0,
			"-0.013": 0.0,
			"-0.012": 0.0,
			"-0.011": 0.0,
			"-0.01": 0.0,
			"-0.009": 0.656420370848,
			"-0.008": 3.26949872056,
			"-0.007": 3.89428626278,
			"-0.006": 10.7161313831,
			"-0.005": 11.1367188085,
			"-0.004": 12.7894394804,
			"-0.003": 14.5233599354,
			"-0.002": 13.6719640852,
			"-0.001": 14.0219031621,
			"0.0": 21.3024354789,
			"0.001": 27.3521975329,
			"0.002": 24.9565729012,
			"0.003": 15.1450159776,
			"0.004": 4.76691789551,
			"0.005": 3.46121598291,
			"0.006": 2.71181072819,
			"0.007": 1.68988536878,
			"0.008": 1.71506169046,
			"0.009": 1.89475583913,
			"0.01": 1.73635691076,
			"0.011": 3.88112524439,
			"0.012": 3.01663158313,
			"0.013": 0.011931808337,
			"0.014": 0.0,
			"0.015": 0.0,
			"0.016": 0.0,
			"0.017": 0.0,
			"0.018": 0.0,
			"0.019": 0.0,
			"0.02": 0.0,
			"0.021": 0.0,
			"0.022": 0.0,
			"0.023": 0.0,
			"0.024": 0.0,
			"0.025": 0.0
		}
	}
}
