{
	 "smiles": "OC(=O)C1=CC=C(C=C1)[N+]([O-])=O", 
	 "Tm": 513.15, 
	 "num_atms": 17, 
	 "gaussian": { 
		 "optdone": 1, 
		 "sigma_profile": "yes", 
		 "theory": "DFT", 
		 "functional": "B3LYP", 
		 "basiset": "6-31G**", 
		 "properties": { 
			 "R2extent": 2952.4153, 
			 "electric_dipole_moment_norm": 3.66774265455, 
			 "electric_quadrupole_moment_norm": 11.5813016298, 
			 "total_energy": -625.320722339, 
			 "HOMO_LUMO_gap": 0.1823, 
			 "cosmo_polarized_energy": -11.83, 
			 "cosmo_cavitation_energy": 23.06, 
			 "cosmo_dispersion_energy": -17.05, 
			 "cosmo_repulsion_energy": 1.35, 
			 "cosmo_total_nonelectrostatic_energy": 7.36, 
			 "SMD_solvation_energy": 7.61 
		},
		"coords": [
			{
				"x": 2.929462499,
				"y": -2.1432616189,
				"z": -1.5107961892,
				"element": "O" 
			},
			{
				"x": 2.6595933754,
				"y": -0.8552992071,
				"z": -1.8268406982,
				"element": "C" 
			},
			{
				"x": 3.0271830176,
				"y": -0.344611462,
				"z": -2.864628355,
				"element": "O" 
			},
			{
				"x": 1.8723541331,
				"y": -0.1516330128,
				"z": -0.7723080302,
				"element": "C" 
			},
			{
				"x": 1.4727692523,
				"y": -0.7915828147,
				"z": 0.4095221107,
				"element": "C" 
			},
			{
				"x": 0.7393634097,
				"y": -0.093881518,
				"z": 1.3648152926,
				"element": "C" 
			},
			{
				"x": 0.4184457091,
				"y": 1.2391540715,
				"z": 1.1164523133,
				"element": "C" 
			},
			{
				"x": 0.8041150787,
				"y": 1.8972071652,
				"z": -0.0505269787,
				"element": "C" 
			},
			{
				"x": 1.5363892627,
				"y": 1.1905222351,
				"z": -0.9977952445,
				"element": "C" 
			},
			{
				"x": -0.3593510306,
				"y": 1.9822747769,
				"z": 2.1276716525,
				"element": "N" 
			},
			{
				"x": -0.6297640202,
				"y": 3.1569912617,
				"z": 1.885751185,
				"element": "O" 
			},
			{
				"x": -0.6868967506,
				"y": 1.3799358374,
				"z": 3.1484215465,
				"element": "O" 
			},
			{
				"x": 3.4388922563,
				"y": -2.5032378522,
				"z": -2.2557487999,
				"element": "H" 
			},
			{
				"x": 1.7369387918,
				"y": -1.8291701549,
				"z": 0.5752766404,
				"element": "H" 
			},
			{
				"x": 0.4148845621,
				"y": -0.5570634476,
				"z": 2.2879245801,
				"element": "H" 
			},
			{
				"x": 0.528783416,
				"y": 2.9342301836,
				"z": -0.1945434097,
				"element": "H" 
			},
			{
				"x": 1.8584370375,
				"y": 1.6602255568,
				"z": -1.9204476156,
				"element": "H" 
			}
		],
		 "valence_orbital": [ 
			{
				"type": "occ",
				"energy": -0.31569,
				"method": "rhf"
			},
			{
				"type": "occ",
				"energy": -0.30067,
				"method": "rhf"
			},
			{
				"type": "occ",
				"energy": -0.29664,
				"method": "rhf"
			},
			{
				"type": "occ",
				"energy": -0.29434,
				"method": "rhf"
			},
			{
				"type": "occ",
				"energy": -0.2892,
				"method": "rhf"
			},
			{
				"type": "unocc",
				"energy": -0.1069,
				"method": "rhf"
			},
			{
				"type": "unocc",
				"energy": -0.04283,
				"method": "rhf"
			},
			{
				"type": "unocc",
				"energy": -0.03774,
				"method": "rhf"
			},
			{
				"type": "unocc",
				"energy": 0.04406,
				"method": "rhf"
			},
			{
				"type": "unocc",
				"energy": 0.06031,
				"method": "rhf"
			}
		],
		"cosmo_sigma_profile": { 
			"-0.025": 0.0,
			"-0.024": 0.0,
			"-0.023": 0.0,
			"-0.022": 0.0,
			"-0.021": 0.0,
			"-0.02": 0.0,
			"-0.019": 0.407586604352,
			"-0.018": 0.872878819079,
			"-0.017": 1.07541007518,
			"-0.016": 1.1108426863,
			"-0.015": 0.533858995605,
			"-0.014": 0.602811555683,
			"-0.013": 0.307914786859,
			"-0.012": 0.768576757398,
			"-0.011": 1.07611270725,
			"-0.01": 0.573800218697,
			"-0.009": 0.839203416613,
			"-0.008": 4.16879452979,
			"-0.007": 9.62278370767,
			"-0.006": 8.51249427142,
			"-0.005": 7.09002652094,
			"-0.004": 8.90483390967,
			"-0.003": 12.2106803427,
			"-0.002": 15.6026001761,
			"-0.001": 17.6634655938,
			"0.0": 19.2343236651,
			"0.001": 11.4283493252,
			"0.002": 5.72740021546,
			"0.003": 4.93644586519,
			"0.004": 4.59660842112,
			"0.005": 5.81123513989,
			"0.006": 8.19997977497,
			"0.007": 11.9505014774,
			"0.008": 6.55119786967,
			"0.009": 5.57001104663,
			"0.01": 4.1584115685,
			"0.011": 4.68733529185,
			"0.012": 0.718746173937,
			"0.013": 0.0,
			"0.014": 0.0,
			"0.015": 0.0,
			"0.016": 0.0,
			"0.017": 0.0,
			"0.018": 0.0,
			"0.019": 0.0,
			"0.02": 0.0,
			"0.021": 0.0,
			"0.022": 0.0,
			"0.023": 0.0,
			"0.024": 0.0,
			"0.025": 0.0
		}
	}
}
