{
	 "smiles": "NC1=C(I)C=CC(=C1)C(O)=O", 
	 "Tm": 483.15, 
	 "num_atms": 17, 
	 "gaussian": { 
		 "optdone": 1, 
		 "sigma_profile": "yes", 
		 "theory": "DFT", 
		 "functional": "B3LYP", 
		 "basiset": "6-31G**", 
		 "properties": { 
			 "R2extent": 2145.7757, 
			 "electric_dipole_moment_norm": 5.21040947911, 
			 "electric_quadrupole_moment_norm": 17.85518011, 
			 "total_energy": -486.956002921, 
			 "HOMO_LUMO_gap": 0.17147, 
			 "cosmo_polarized_energy": -17.68, 
			 "cosmo_cavitation_energy": 24.62, 
			 "cosmo_dispersion_energy": -19.79, 
			 "cosmo_repulsion_energy": 1.55, 
			 "cosmo_total_nonelectrostatic_energy": 6.39, 
			 "SMD_solvation_energy": 4.46 
		},
		"coords": [
			{
				"x": 1.6060426216,
				"y": 1.0464746036,
				"z": 0.9914060027,
				"element": "N" 
			},
			{
				"x": 0.8209760712,
				"y": 0.156274421,
				"z": 0.2849437802,
				"element": "C" 
			},
			{
				"x": 1.2330293609,
				"y": -1.1594691937,
				"z": -0.017431207,
				"element": "C" 
			},
			{
				"x": 3.1819927995,
				"y": -1.8145455137,
				"z": 0.509490831,
				"element": "I" 
			},
			{
				"x": 0.3812888033,
				"y": -2.0605854521,
				"z": -0.6583293149,
				"element": "C" 
			},
			{
				"x": -0.903549498,
				"y": -1.6769575575,
				"z": -1.0270530102,
				"element": "C" 
			},
			{
				"x": -1.3299967724,
				"y": -0.3691203876,
				"z": -0.7674003106,
				"element": "C" 
			},
			{
				"x": -0.479273185,
				"y": 0.5255336439,
				"z": -0.114996059,
				"element": "C" 
			},
			{
				"x": -2.721070006,
				"y": 0.0086226442,
				"z": -1.1837935476,
				"element": "C" 
			},
			{
				"x": -2.9612000533,
				"y": 1.3352399612,
				"z": -1.3733207987,
				"element": "O" 
			},
			{
				"x": -3.605003347,
				"y": -0.7966595575,
				"z": -1.3533070276,
				"element": "O" 
			},
			{
				"x": 2.5979599043,
				"y": 0.8587318963,
				"z": 1.0249274857,
				"element": "H" 
			},
			{
				"x": 1.3735476963,
				"y": 2.0240683433,
				"z": 0.9019087026,
				"element": "H" 
			},
			{
				"x": 0.7275665422,
				"y": -3.0660870055,
				"z": -0.8694874323,
				"element": "H" 
			},
			{
				"x": -1.5791053687,
				"y": -2.368936769,
				"z": -1.5157479383,
				"element": "H" 
			},
			{
				"x": -0.8257273642,
				"y": 1.5205803783,
				"z": 0.1568112021,
				"element": "H" 
			},
			{
				"x": -2.1257782046,
				"y": 1.8226355447,
				"z": -1.3796213579,
				"element": "H" 
			}
		],
		 "valence_orbital": [ 
			{
				"type": "occ",
				"energy": -0.30713,
				"method": "rhf"
			},
			{
				"type": "occ",
				"energy": -0.28473,
				"method": "rhf"
			},
			{
				"type": "occ",
				"energy": -0.27562,
				"method": "rhf"
			},
			{
				"type": "occ",
				"energy": -0.25944,
				"method": "rhf"
			},
			{
				"type": "occ",
				"energy": -0.22696,
				"method": "rhf"
			},
			{
				"type": "unocc",
				"energy": -0.05549,
				"method": "rhf"
			},
			{
				"type": "unocc",
				"energy": -0.04956,
				"method": "rhf"
			},
			{
				"type": "unocc",
				"energy": -0.0161,
				"method": "rhf"
			},
			{
				"type": "unocc",
				"energy": 0.02864,
				"method": "rhf"
			},
			{
				"type": "unocc",
				"energy": 0.04007,
				"method": "rhf"
			}
		],
		"cosmo_sigma_profile": { 
			"-0.025": 0.0,
			"-0.024": 0.0,
			"-0.023": 0.0,
			"-0.022": 0.0,
			"-0.021": 0.0,
			"-0.02": 0.0,
			"-0.019": 0.00703693546564,
			"-0.018": 0.753235623254,
			"-0.017": 0.679606512498,
			"-0.016": 1.39038443857,
			"-0.015": 0.873969327685,
			"-0.014": 1.38910295382,
			"-0.013": 3.49049519727,
			"-0.012": 2.54890437294,
			"-0.011": 3.4532138604,
			"-0.01": 5.26375218011,
			"-0.009": 3.60036686218,
			"-0.008": 2.72194442275,
			"-0.007": 5.44761488444,
			"-0.006": 7.86532846852,
			"-0.005": 8.35903885425,
			"-0.004": 8.97411490374,
			"-0.003": 8.21097506434,
			"-0.002": 9.34522558149,
			"-0.001": 9.4143589918,
			"0.0": 11.6799824628,
			"0.001": 13.0193177241,
			"0.002": 19.8063992534,
			"0.003": 21.0851637677,
			"0.004": 16.0509871891,
			"0.005": 4.69492898809,
			"0.006": 2.83186061794,
			"0.007": 3.46291775308,
			"0.008": 3.16460849061,
			"0.009": 4.05850748958,
			"0.01": 5.62843914956,
			"0.011": 5.84526050518,
			"0.012": 5.30120686169,
			"0.013": 1.51013644945,
			"0.014": 0.0216046921718,
			"0.015": 0.0,
			"0.016": 0.0,
			"0.017": 0.0,
			"0.018": 0.0,
			"0.019": 0.0,
			"0.02": 0.0,
			"0.021": 0.0,
			"0.022": 0.0,
			"0.023": 0.0,
			"0.024": 0.0,
			"0.025": 0.0
		}
	}
}
