{
	 "smiles": "CC(=O)OC[C@@H](OC(C)=O)[C@@H](OC(C)=O)[C@H](OC(C)=O)[C@@H](OC(C)=O)C(OC(C)=O)OC(C)=O", 
	 "Tm": 392.15, 
	 "num_atms": 62, 
	 "gaussian": { 
		 "optdone": 1, 
		 "sigma_profile": "yes", 
		 "theory": "DFT", 
		 "functional": "B3LYP", 
		 "basiset": "6-31G**", 
		 "properties": { 
			 "R2extent": 14115.2718, 
			 "electric_dipole_moment_norm": 4.80319064789, 
			 "electric_quadrupole_moment_norm": 23.5882438874, 
			 "total_energy": -1832.22188355, 
			 "HOMO_LUMO_gap": 0.2593, 
			 "cosmo_polarized_energy": -31.3, 
			 "cosmo_cavitation_energy": 65.59, 
			 "cosmo_dispersion_energy": -37.48, 
			 "cosmo_repulsion_energy": 2.9, 
			 "cosmo_total_nonelectrostatic_energy": 31.01, 
			 "SMD_solvation_energy": 17.77 
		},
		"coords": [
			{
				"x": 5.5531592829,
				"y": -0.9048590418,
				"z": 0.8871030516,
				"element": "C" 
			},
			{
				"x": 4.1507997878,
				"y": -0.4390947628,
				"z": 0.5837868378,
				"element": "C" 
			},
			{
				"x": 3.3712233421,
				"y": -0.9912965341,
				"z": -0.1627946196,
				"element": "O" 
			},
			{
				"x": 3.8610733662,
				"y": 0.6983759046,
				"z": 1.2639167115,
				"element": "O" 
			},
			{
				"x": 2.5518610934,
				"y": 1.2522982308,
				"z": 1.0232691884,
				"element": "C" 
			},
			{
				"x": 1.4924936345,
				"y": 0.5262131892,
				"z": 1.8428858009,
				"element": "C" 
			},
			{
				"x": 1.7175214828,
				"y": 0.9466610673,
				"z": 3.212199976,
				"element": "O" 
			},
			{
				"x": 1.3136684332,
				"y": 0.1012582374,
				"z": 4.1914948607,
				"element": "C" 
			},
			{
				"x": 1.4693964945,
				"y": 0.7415679664,
				"z": 5.5460026931,
				"element": "C" 
			},
			{
				"x": 0.8647627566,
				"y": -1.006258569,
				"z": 3.9806158737,
				"element": "O" 
			},
			{
				"x": 0.0290504903,
				"y": 0.8247255167,
				"z": 1.4765425876,
				"element": "C" 
			},
			{
				"x": -0.174440042,
				"y": 2.2222380559,
				"z": 1.1784508865,
				"element": "O" 
			},
			{
				"x": -0.7472411499,
				"y": 2.985748274,
				"z": 2.1649690617,
				"element": "C" 
			},
			{
				"x": -0.9311281916,
				"y": 4.407454359,
				"z": 1.6996350362,
				"element": "C" 
			},
			{
				"x": -1.0392757766,
				"y": 2.5602479993,
				"z": 3.2572034548,
				"element": "O" 
			},
			{
				"x": -0.5994528219,
				"y": -0.0533337859,
				"z": 0.3680055733,
				"element": "C" 
			},
			{
				"x": -0.4561069876,
				"y": -1.4116438418,
				"z": 0.8316109791,
				"element": "O" 
			},
			{
				"x": -1.4067133118,
				"y": -1.8758026679,
				"z": 1.6989084287,
				"element": "C" 
			},
			{
				"x": -1.0375535583,
				"y": -3.2466914189,
				"z": 2.1981621815,
				"element": "C" 
			},
			{
				"x": -2.3794068527,
				"y": -1.2353719736,
				"z": 2.0233424637,
				"element": "O" 
			},
			{
				"x": -0.0196011781,
				"y": -0.0566986057,
				"z": -1.0695749645,
				"element": "C" 
			},
			{
				"x": -0.5628303486,
				"y": -1.1782868605,
				"z": -1.8011961277,
				"element": "O" 
			},
			{
				"x": -1.8938993663,
				"y": -1.231357755,
				"z": -2.0588545911,
				"element": "C" 
			},
			{
				"x": -2.2383698824,
				"y": -2.5199843346,
				"z": -2.7648659373,
				"element": "C" 
			},
			{
				"x": -2.6835816098,
				"y": -0.364009658,
				"z": -1.7561691021,
				"element": "O" 
			},
			{
				"x": -0.2812092436,
				"y": 1.2600049142,
				"z": -1.8487769142,
				"element": "C" 
			},
			{
				"x": 0.7827985697,
				"y": 2.1602154787,
				"z": -1.5621660489,
				"element": "O" 
			},
			{
				"x": 0.4862857727,
				"y": 3.4966964121,
				"z": -1.5817704564,
				"element": "C" 
			},
			{
				"x": 1.7313962551,
				"y": 4.3110985605,
				"z": -1.343525186,
				"element": "C" 
			},
			{
				"x": -0.6237376783,
				"y": 3.9371549626,
				"z": -1.7623510528,
				"element": "O" 
			},
			{
				"x": -0.3782043623,
				"y": 1.0702465628,
				"z": -3.2578994924,
				"element": "O" 
			},
			{
				"x": 0.6907881446,
				"y": 0.5630002068,
				"z": -3.9488939559,
				"element": "C" 
			},
			{
				"x": 0.3545716465,
				"y": 0.4886419305,
				"z": -5.4183149518,
				"element": "C" 
			},
			{
				"x": 1.7382510623,
				"y": 0.2403470504,
				"z": -3.44553047,
				"element": "O" 
			},
			{
				"x": 6.2736273502,
				"y": -0.1333355226,
				"z": 0.5998678001,
				"element": "H" 
			},
			{
				"x": 5.7550449549,
				"y": -1.8250735071,
				"z": 0.3402586781,
				"element": "H" 
			},
			{
				"x": 5.6673393914,
				"y": -1.0738490564,
				"z": 1.9618144504,
				"element": "H" 
			},
			{
				"x": 2.6213774624,
				"y": 2.2910827613,
				"z": 1.348705416,
				"element": "H" 
			},
			{
				"x": 2.3274929395,
				"y": 1.217129302,
				"z": -0.0410842931,
				"element": "H" 
			},
			{
				"x": 1.630711655,
				"y": -0.5538194758,
				"z": 1.7761748174,
				"element": "H" 
			},
			{
				"x": 1.3407564567,
				"y": -0.010538356,
				"z": 6.3238151929,
				"element": "H" 
			},
			{
				"x": 0.6987248294,
				"y": 1.5125801832,
				"z": 5.6503068121,
				"element": "H" 
			},
			{
				"x": 2.4430319342,
				"y": 1.2291234778,
				"z": 5.6371024622,
				"element": "H" 
			},
			{
				"x": -0.5655573429,
				"y": 0.5955260129,
				"z": 2.3622175019,
				"element": "H" 
			},
			{
				"x": -1.622744731,
				"y": 4.9145492081,
				"z": 2.3720034864,
				"element": "H" 
			},
			{
				"x": -1.2900905558,
				"y": 4.4426459499,
				"z": 0.6691719073,
				"element": "H" 
			},
			{
				"x": 0.0339977255,
				"y": 4.9253102533,
				"z": 1.7343246354,
				"element": "H" 
			},
			{
				"x": -1.6609892308,
				"y": 0.1966636509,
				"z": 0.329756878,
				"element": "H" 
			},
			{
				"x": -0.2921009982,
				"y": -3.1193792133,
				"z": 2.98985252,
				"element": "H" 
			},
			{
				"x": -0.5930179038,
				"y": -3.8509066611,
				"z": 1.4045290336,
				"element": "H" 
			},
			{
				"x": -1.9217860677,
				"y": -3.7330881125,
				"z": 2.6101236707,
				"element": "H" 
			},
			{
				"x": 1.0490804528,
				"y": -0.270844518,
				"z": -1.0605845702,
				"element": "H" 
			},
			{
				"x": -1.6116500698,
				"y": -2.6477571718,
				"z": -3.651708434,
				"element": "H" 
			},
			{
				"x": -2.0374322737,
				"y": -3.3670055384,
				"z": -2.1019077965,
				"element": "H" 
			},
			{
				"x": -3.2916960601,
				"y": -2.5095678019,
				"z": -3.0425676033,
				"element": "H" 
			},
			{
				"x": -1.2319582822,
				"y": 1.7138858786,
				"z": -1.5820764074,
				"element": "H" 
			},
			{
				"x": 2.5307202904,
				"y": 3.987949997,
				"z": -2.0154863711,
				"element": "H" 
			},
			{
				"x": 1.5085123863,
				"y": 5.3665675471,
				"z": -1.4964413634,
				"element": "H" 
			},
			{
				"x": 2.0812999813,
				"y": 4.1541200487,
				"z": -0.3187334003,
				"element": "H" 
			},
			{
				"x": 0.1081864545,
				"y": 1.4851110141,
				"z": -5.7966332586,
				"element": "H" 
			},
			{
				"x": -0.5266843388,
				"y": -0.1412866961,
				"z": -5.5706759116,
				"element": "H" 
			},
			{
				"x": 1.2052543369,
				"y": 0.0804012763,
				"z": -5.9628476297,
				"element": "H" 
			}
		],
		 "valence_orbital": [ 
			{
				"type": "occ",
				"energy": -0.27802,
				"method": "rhf"
			},
			{
				"type": "occ",
				"energy": -0.27639,
				"method": "rhf"
			},
			{
				"type": "occ",
				"energy": -0.27575,
				"method": "rhf"
			},
			{
				"type": "occ",
				"energy": -0.27072,
				"method": "rhf"
			},
			{
				"type": "occ",
				"energy": -0.26908,
				"method": "rhf"
			},
			{
				"type": "unocc",
				"energy": -0.00978,
				"method": "rhf"
			},
			{
				"type": "unocc",
				"energy": 0.00013,
				"method": "rhf"
			},
			{
				"type": "unocc",
				"energy": 0.00061,
				"method": "rhf"
			},
			{
				"type": "unocc",
				"energy": 0.00505,
				"method": "rhf"
			},
			{
				"type": "unocc",
				"energy": 0.00583,
				"method": "rhf"
			}
		],
		"cosmo_sigma_profile": { 
			"-0.025": 0.0,
			"-0.024": 0.0,
			"-0.023": 0.0,
			"-0.022": 0.0,
			"-0.021": 0.0,
			"-0.02": 0.0,
			"-0.019": 0.0,
			"-0.018": 0.0,
			"-0.017": 0.0,
			"-0.016": 0.0,
			"-0.015": 0.0,
			"-0.014": 0.0,
			"-0.013": 0.0,
			"-0.012": 0.0,
			"-0.011": 0.0,
			"-0.01": 0.0,
			"-0.009": 0.0,
			"-0.008": 0.319002566634,
			"-0.007": 16.0492232597,
			"-0.006": 41.0625605641,
			"-0.005": 44.167827575,
			"-0.004": 53.1198339671,
			"-0.003": 58.5306985969,
			"-0.002": 61.5774451796,
			"-0.001": 32.2128031206,
			"0.0": 19.6174898239,
			"0.001": 20.7416294502,
			"0.002": 19.0652487268,
			"0.003": 18.8206262428,
			"0.004": 17.92300208,
			"0.005": 17.7593738383,
			"0.006": 16.2097531648,
			"0.007": 14.1885850514,
			"0.008": 13.6010095786,
			"0.009": 12.5402566875,
			"0.01": 15.2171172114,
			"0.011": 16.0263527517,
			"0.012": 7.73534139628,
			"0.013": 0.65435220279,
			"0.014": 0.0,
			"0.015": 0.0,
			"0.016": 0.0,
			"0.017": 0.0,
			"0.018": 0.0,
			"0.019": 0.0,
			"0.02": 0.0,
			"0.021": 0.0,
			"0.022": 0.0,
			"0.023": 0.0,
			"0.024": 0.0,
			"0.025": 0.0
		}
	}
}
