{
	 "smiles": "OC(CCNC(=O)OCC1=CC=CC=C1)C(O)=O", 
	 "Tm": 348.15, 
	 "num_atms": 33, 
	 "gaussian": { 
		 "optdone": 1, 
		 "sigma_profile": "yes", 
		 "theory": "DFT", 
		 "functional": "B3LYP", 
		 "basiset": "6-31G**", 
		 "properties": { 
			 "R2extent": 5063.2441, 
			 "electric_dipole_moment_norm": 2.1124254188, 
			 "electric_quadrupole_moment_norm": 13.0159589977, 
			 "total_energy": -897.221106712, 
			 "HOMO_LUMO_gap": 0.23723, 
			 "cosmo_polarized_energy": -19.0, 
			 "cosmo_cavitation_energy": 35.99, 
			 "cosmo_dispersion_energy": -24.72, 
			 "cosmo_repulsion_energy": 1.91, 
			 "cosmo_total_nonelectrostatic_energy": 13.18, 
			 "SMD_solvation_energy": 7.11 
		},
		"coords": [
			{
				"x": 0.4381993672,
				"y": 1.2195892312,
				"z": 0.7476426325,
				"element": "O" 
			},
			{
				"x": 1.2794717848,
				"y": 1.0567578413,
				"z": 1.8628992769,
				"element": "C" 
			},
			{
				"x": 2.742479706,
				"y": 0.7306284423,
				"z": 1.4880584893,
				"element": "C" 
			},
			{
				"x": 2.8950522654,
				"y": -0.4599044691,
				"z": 0.5276149169,
				"element": "C" 
			},
			{
				"x": 2.3627799254,
				"y": -1.7183596983,
				"z": 1.0402861856,
				"element": "N" 
			},
			{
				"x": 1.1801807699,
				"y": -2.31902277,
				"z": 0.7191365879,
				"element": "C" 
			},
			{
				"x": 0.778521819,
				"y": -3.3564410774,
				"z": 1.2131754157,
				"element": "O" 
			},
			{
				"x": 0.4897051869,
				"y": -1.6096463932,
				"z": -0.2264687563,
				"element": "O" 
			},
			{
				"x": -0.800477927,
				"y": -2.1869705723,
				"z": -0.5806707758,
				"element": "C" 
			},
			{
				"x": -1.4954053367,
				"y": -1.248195405,
				"z": -1.5283010219,
				"element": "C" 
			},
			{
				"x": -1.546968399,
				"y": -1.5283081591,
				"z": -2.8986271525,
				"element": "C" 
			},
			{
				"x": -2.1956113573,
				"y": -0.658890934,
				"z": -3.7770015188,
				"element": "C" 
			},
			{
				"x": -2.7942064503,
				"y": 0.5045180281,
				"z": -3.2908925036,
				"element": "C" 
			},
			{
				"x": -2.743717498,
				"y": 0.7946822543,
				"z": -1.9252432178,
				"element": "C" 
			},
			{
				"x": -2.1028429186,
				"y": -0.0790768669,
				"z": -1.0476381741,
				"element": "C" 
			},
			{
				"x": 0.7668754838,
				"y": 0.0626286139,
				"z": 2.913473408,
				"element": "C" 
			},
			{
				"x": -0.4244014812,
				"y": -0.4925942535,
				"z": 2.5948103586,
				"element": "O" 
			},
			{
				"x": 1.3592541336,
				"y": -0.1937120601,
				"z": 3.9395189863,
				"element": "O" 
			},
			{
				"x": 0.3276918532,
				"y": 0.3578571556,
				"z": 0.3135615707,
				"element": "H" 
			},
			{
				"x": 1.2847262517,
				"y": 2.0232136815,
				"z": 2.3823586448,
				"element": "H" 
			},
			{
				"x": 3.3038225911,
				"y": 0.5534382839,
				"z": 2.4113441629,
				"element": "H" 
			},
			{
				"x": 3.1752374924,
				"y": 1.6111505371,
				"z": 1.0003692303,
				"element": "H" 
			},
			{
				"x": 2.3950572359,
				"y": -0.2472553361,
				"z": -0.4182765096,
				"element": "H" 
			},
			{
				"x": 3.9577543959,
				"y": -0.6004639269,
				"z": 0.2997471955,
				"element": "H" 
			},
			{
				"x": 2.8515872277,
				"y": -2.1856697731,
				"z": 1.790309616,
				"element": "H" 
			},
			{
				"x": -0.6285275601,
				"y": -3.1671989461,
				"z": -1.0319664418,
				"element": "H" 
			},
			{
				"x": -1.3684403476,
				"y": -2.3329183382,
				"z": 0.3411507724,
				"element": "H" 
			},
			{
				"x": -1.0792456935,
				"y": -2.4334493274,
				"z": -3.2779243172,
				"element": "H" 
			},
			{
				"x": -2.2328362821,
				"y": -0.8893899076,
				"z": -4.8378207875,
				"element": "H" 
			},
			{
				"x": -3.299157533,
				"y": 1.1826197203,
				"z": -3.9729456388,
				"element": "H" 
			},
			{
				"x": -3.2066983978,
				"y": 1.6995602974,
				"z": -1.5427894992,
				"element": "H" 
			},
			{
				"x": -2.0589505125,
				"y": 0.1528737182,
				"z": 0.0132132559,
				"element": "H" 
			},
			{
				"x": -0.6234097949,
				"y": -1.1262495907,
				"z": 3.3054956087,
				"element": "H" 
			}
		],
		 "valence_orbital": [ 
			{
				"type": "occ",
				"energy": -0.27898,
				"method": "rhf"
			},
			{
				"type": "occ",
				"energy": -0.26108,
				"method": "rhf"
			},
			{
				"type": "occ",
				"energy": -0.2584,
				"method": "rhf"
			},
			{
				"type": "occ",
				"energy": -0.25504,
				"method": "rhf"
			},
			{
				"type": "occ",
				"energy": -0.25245,
				"method": "rhf"
			},
			{
				"type": "unocc",
				"energy": -0.01522,
				"method": "rhf"
			},
			{
				"type": "unocc",
				"energy": -0.00687,
				"method": "rhf"
			},
			{
				"type": "unocc",
				"energy": 0.00443,
				"method": "rhf"
			},
			{
				"type": "unocc",
				"energy": 0.0477,
				"method": "rhf"
			},
			{
				"type": "unocc",
				"energy": 0.0627,
				"method": "rhf"
			}
		],
		"cosmo_sigma_profile": { 
			"-0.025": 0.0,
			"-0.024": 0.0,
			"-0.023": 0.0,
			"-0.022": 0.0,
			"-0.021": 0.0,
			"-0.02": 0.0,
			"-0.019": 0.170063692095,
			"-0.018": 0.676422541141,
			"-0.017": 0.838888426454,
			"-0.016": 0.619348521339,
			"-0.015": 1.14507914458,
			"-0.014": 1.39615331533,
			"-0.013": 1.9328714463,
			"-0.012": 1.18977003856,
			"-0.011": 1.57291372879,
			"-0.01": 1.06001670531,
			"-0.009": 1.60673381778,
			"-0.008": 2.92515052207,
			"-0.007": 5.50803003328,
			"-0.006": 16.211379774,
			"-0.005": 23.0268614404,
			"-0.004": 27.5952636447,
			"-0.003": 24.3927811119,
			"-0.002": 19.8243729013,
			"-0.001": 19.2052499771,
			"0.0": 14.8168155679,
			"0.001": 14.9381496594,
			"0.002": 13.9254748379,
			"0.003": 13.1776355419,
			"0.004": 14.8092345529,
			"0.005": 16.0511268237,
			"0.006": 5.96409370753,
			"0.007": 3.71122649425,
			"0.008": 4.28293561149,
			"0.009": 3.93405790008,
			"0.01": 3.80380585837,
			"0.011": 6.78237502039,
			"0.012": 7.45293559704,
			"0.013": 7.8114818709,
			"0.014": 1.25031339486,
			"0.015": 0.0348398730799,
			"0.016": 0.0,
			"0.017": 0.0,
			"0.018": 0.0,
			"0.019": 0.0,
			"0.02": 0.0,
			"0.021": 0.0,
			"0.022": 0.0,
			"0.023": 0.0,
			"0.024": 0.0,
			"0.025": 0.0
		}
	}
}
