{
	 "smiles": "NC1=C(Br)N=CC=N1", 
	 "Tm": 403.15, 
	 "num_atms": 12, 
	 "gaussian": { 
		 "optdone": 1, 
		 "sigma_profile": "yes", 
		 "theory": "DFT", 
		 "functional": "B3LYP", 
		 "basiset": "6-31G**", 
		 "properties": { 
			 "R2extent": 1583.019, 
			 "electric_dipole_moment_norm": 0.617904086408, 
			 "electric_quadrupole_moment_norm": 12.0652888022, 
			 "total_energy": -2890.47012889, 
			 "HOMO_LUMO_gap": 0.19636, 
			 "cosmo_polarized_energy": -10.91, 
			 "cosmo_cavitation_energy": 18.76, 
			 "cosmo_dispersion_energy": -14.62, 
			 "cosmo_repulsion_energy": 1.21, 
			 "cosmo_total_nonelectrostatic_energy": 5.36, 
			 "SMD_solvation_energy": -0.68 
		},
		"coords": [
			{
				"x": 0.2349850299,
				"y": 1.324849204,
				"z": -1.7908637477,
				"element": "N" 
			},
			{
				"x": -0.4815316303,
				"y": 1.0059924734,
				"z": -0.6049308025,
				"element": "C" 
			},
			{
				"x": 0.1263680732,
				"y": 0.6738089096,
				"z": 0.6309776405,
				"element": "C" 
			},
			{
				"x": 2.0485097051,
				"y": 0.6411461739,
				"z": 0.7527186295,
				"element": "Br" 
			},
			{
				"x": -0.5434252749,
				"y": 0.3801776281,
				"z": 1.7228061274,
				"element": "N" 
			},
			{
				"x": -1.8802636109,
				"y": 0.4045601838,
				"z": 1.631442848,
				"element": "C" 
			},
			{
				"x": -2.5084982605,
				"y": 0.7269428751,
				"z": 0.4320754195,
				"element": "C" 
			},
			{
				"x": -1.8133408665,
				"y": 1.0239626972,
				"z": -0.6722927801,
				"element": "N" 
			},
			{
				"x": 0.8501821001,
				"y": 0.5526060901,
				"z": -2.0407191873,
				"element": "H" 
			},
			{
				"x": 0.8509421703,
				"y": 2.117605367,
				"z": -1.6194424512,
				"element": "H" 
			},
			{
				"x": -2.4432729131,
				"y": 0.1631497388,
				"z": 2.5292117468,
				"element": "H" 
			},
			{
				"x": -3.5930545224,
				"y": 0.7479986591,
				"z": 0.3533165572,
				"element": "H" 
			}
		],
		 "valence_orbital": [ 
			{
				"type": "occ",
				"energy": -0.31802,
				"method": "rhf"
			},
			{
				"type": "occ",
				"energy": -0.30751,
				"method": "rhf"
			},
			{
				"type": "occ",
				"energy": -0.27535,
				"method": "rhf"
			},
			{
				"type": "occ",
				"energy": -0.26763,
				"method": "rhf"
			},
			{
				"type": "occ",
				"energy": -0.2576,
				"method": "rhf"
			},
			{
				"type": "unocc",
				"energy": -0.06124,
				"method": "rhf"
			},
			{
				"type": "unocc",
				"energy": -0.03957,
				"method": "rhf"
			},
			{
				"type": "unocc",
				"energy": -0.00143,
				"method": "rhf"
			},
			{
				"type": "unocc",
				"energy": 0.0837,
				"method": "rhf"
			},
			{
				"type": "unocc",
				"energy": 0.10572,
				"method": "rhf"
			}
		],
		"cosmo_sigma_profile": { 
			"-0.025": 0.0,
			"-0.024": 0.0,
			"-0.023": 0.0,
			"-0.022": 0.0,
			"-0.021": 0.0,
			"-0.02": 0.0,
			"-0.019": 0.0,
			"-0.018": 0.0,
			"-0.017": 0.0,
			"-0.016": 0.0,
			"-0.015": 0.0,
			"-0.014": 0.0,
			"-0.013": 0.00827022412197,
			"-0.012": 1.62281027427,
			"-0.011": 2.65981130103,
			"-0.01": 2.55072045789,
			"-0.009": 3.65604677198,
			"-0.008": 8.09260582261,
			"-0.007": 7.37194296301,
			"-0.006": 5.99204878132,
			"-0.005": 6.24823908256,
			"-0.004": 9.79000118048,
			"-0.003": 8.68538400283,
			"-0.002": 9.37294245062,
			"-0.001": 13.3187709986,
			"0.0": 8.97810577702,
			"0.001": 7.95468381821,
			"0.002": 8.93690804876,
			"0.003": 9.32995877254,
			"0.004": 8.77093291307,
			"0.005": 5.10595658934,
			"0.006": 4.10167363367,
			"0.007": 2.67834371673,
			"0.008": 1.76435204683,
			"0.009": 2.12003902819,
			"0.01": 2.72337760277,
			"0.011": 2.30767355198,
			"0.012": 2.13684647122,
			"0.013": 1.79551033202,
			"0.014": 0.949540777983,
			"0.015": 1.79626715278,
			"0.016": 1.38326540282,
			"0.017": 1.04288125639,
			"0.018": 0.669303341799,
			"0.019": 0.0832587485214,
			"0.02": 0.0,
			"0.021": 0.0,
			"0.022": 0.0,
			"0.023": 0.0,
			"0.024": 0.0,
			"0.025": 0.0
		}
	}
}
