{
	 "smiles": "CC(C)(C)OC1=CC=C(N)C=C1", 
	 "Tm": 334.15, 
	 "num_atms": 27, 
	 "gaussian": { 
		 "optdone": 1, 
		 "sigma_profile": "yes", 
		 "theory": "DFT", 
		 "functional": "B3LYP", 
		 "basiset": "6-31G**", 
		 "properties": { 
			 "R2extent": 2887.4762, 
			 "electric_dipole_moment_norm": 2.66907188738, 
			 "electric_quadrupole_moment_norm": 11.3887151049, 
			 "total_energy": -520.085389872, 
			 "HOMO_LUMO_gap": 0.19661, 
			 "cosmo_polarized_energy": -9.92, 
			 "cosmo_cavitation_energy": 28.88, 
			 "cosmo_dispersion_energy": -20.57, 
			 "cosmo_repulsion_energy": 1.64, 
			 "cosmo_total_nonelectrostatic_energy": 9.96, 
			 "SMD_solvation_energy": 5.02 
		},
		"coords": [
			{
				"x": 0.2649773423,
				"y": 1.8185611731,
				"z": -0.3510423228,
				"element": "C" 
			},
			{
				"x": -0.9560410911,
				"y": 1.0549308031,
				"z": 0.1778703992,
				"element": "C" 
			},
			{
				"x": -1.6790991744,
				"y": 1.8691750021,
				"z": 1.2533954141,
				"element": "C" 
			},
			{
				"x": -1.9126136421,
				"y": 0.6994477441,
				"z": -0.9677223603,
				"element": "C" 
			},
			{
				"x": -0.5431916194,
				"y": -0.1455357918,
				"z": 0.8985999377,
				"element": "O" 
			},
			{
				"x": 0.1548467572,
				"y": -1.1407242823,
				"z": 0.2427013896,
				"element": "C" 
			},
			{
				"x": 1.5542163896,
				"y": -1.1510801311,
				"z": 0.2495546474,
				"element": "C" 
			},
			{
				"x": 2.2614675571,
				"y": -2.1992582767,
				"z": -0.334921474,
				"element": "C" 
			},
			{
				"x": 1.5874183079,
				"y": -3.2736747912,
				"z": -0.9386652256,
				"element": "C" 
			},
			{
				"x": 2.2966319683,
				"y": -4.3573575254,
				"z": -1.4735229841,
				"element": "N" 
			},
			{
				"x": 0.182773595,
				"y": -3.267416804,
				"z": -0.9270800137,
				"element": "C" 
			},
			{
				"x": -0.5213149641,
				"y": -2.2176543209,
				"z": -0.3416205596,
				"element": "C" 
			},
			{
				"x": -0.0503190833,
				"y": 2.7513955864,
				"z": -0.8298704446,
				"element": "H" 
			},
			{
				"x": 0.813760014,
				"y": 1.2288522351,
				"z": -1.0906532234,
				"element": "H" 
			},
			{
				"x": 0.9466501059,
				"y": 2.0680697137,
				"z": 0.4679064209,
				"element": "H" 
			},
			{
				"x": -2.5280302756,
				"y": 1.3045368647,
				"z": 1.6493940528,
				"element": "H" 
			},
			{
				"x": -2.0482829804,
				"y": 2.8136684348,
				"z": 0.8418423801,
				"element": "H" 
			},
			{
				"x": -1.0000473578,
				"y": 2.0902404268,
				"z": 2.0818460967,
				"element": "H" 
			},
			{
				"x": -2.7810362493,
				"y": 0.1526085818,
				"z": -0.5877014637,
				"element": "H" 
			},
			{
				"x": -2.2701260242,
				"y": 1.610456158,
				"z": -1.4587528845,
				"element": "H" 
			},
			{
				"x": -1.417805193,
				"y": 0.081818903,
				"z": -1.7224543914,
				"element": "H" 
			},
			{
				"x": 2.0850893915,
				"y": -0.3362264409,
				"z": 0.7308277428,
				"element": "H" 
			},
			{
				"x": 3.3487889302,
				"y": -2.1935197921,
				"z": -0.3133713433,
				"element": "H" 
			},
			{
				"x": 3.2367719104,
				"y": -4.1371681791,
				"z": -1.773910479,
				"element": "H" 
			},
			{
				"x": 1.7981047795,
				"y": -4.8763083865,
				"z": -2.1839749611,
				"element": "H" 
			},
			{
				"x": -0.3600018108,
				"y": -4.0993280796,
				"z": -1.3698951656,
				"element": "H" 
			},
			{
				"x": -1.6060875835,
				"y": -2.2331088254,
				"z": -0.3204791847,
				"element": "H" 
			}
		],
		 "valence_orbital": [ 
			{
				"type": "occ",
				"energy": -0.32119,
				"method": "rhf"
			},
			{
				"type": "occ",
				"energy": -0.28305,
				"method": "rhf"
			},
			{
				"type": "occ",
				"energy": -0.2549,
				"method": "rhf"
			},
			{
				"type": "occ",
				"energy": -0.24208,
				"method": "rhf"
			},
			{
				"type": "occ",
				"energy": -0.19092,
				"method": "rhf"
			},
			{
				"type": "unocc",
				"energy": 0.00569,
				"method": "rhf"
			},
			{
				"type": "unocc",
				"energy": 0.02557,
				"method": "rhf"
			},
			{
				"type": "unocc",
				"energy": 0.08234,
				"method": "rhf"
			},
			{
				"type": "unocc",
				"energy": 0.08866,
				"method": "rhf"
			},
			{
				"type": "unocc",
				"energy": 0.10214,
				"method": "rhf"
			}
		],
		"cosmo_sigma_profile": { 
			"-0.025": 0.0,
			"-0.024": 0.0,
			"-0.023": 0.0,
			"-0.022": 0.0,
			"-0.021": 0.0,
			"-0.02": 0.0,
			"-0.019": 0.0,
			"-0.018": 0.0,
			"-0.017": 0.0,
			"-0.016": 0.0,
			"-0.015": 0.0,
			"-0.014": 0.0,
			"-0.013": 0.0194872067032,
			"-0.012": 1.86805433711,
			"-0.011": 2.62533164974,
			"-0.01": 2.91845368371,
			"-0.009": 3.02623040482,
			"-0.008": 3.47888003595,
			"-0.007": 2.86187300802,
			"-0.006": 4.35364363964,
			"-0.005": 6.41386081511,
			"-0.004": 11.9499687363,
			"-0.003": 24.4094793156,
			"-0.002": 23.2318756221,
			"-0.001": 23.7751749867,
			"0.0": 24.0866143256,
			"0.001": 25.2439398249,
			"0.002": 9.56554473815,
			"0.003": 7.14571516351,
			"0.004": 7.4025859053,
			"0.005": 9.42713857494,
			"0.006": 11.6932219007,
			"0.007": 6.57275805197,
			"0.008": 2.34618907764,
			"0.009": 1.9036892069,
			"0.01": 2.32456601263,
			"0.011": 1.35136731459,
			"0.012": 2.29409765273,
			"0.013": 2.04917993397,
			"0.014": 0.509637981365,
			"0.015": 0.490963771337,
			"0.016": 0.0719937431444,
			"0.017": 0.0,
			"0.018": 0.0,
			"0.019": 0.0,
			"0.02": 0.0,
			"0.021": 0.0,
			"0.022": 0.0,
			"0.023": 0.0,
			"0.024": 0.0,
			"0.025": 0.0
		}
	}
}
