{
	 "smiles": "OC(=O)C1=CC(Cl)=NC=C1", 
	 "Tm": 504.15, 
	 "num_atms": 14, 
	 "gaussian": { 
		 "optdone": 1, 
		 "sigma_profile": "yes", 
		 "theory": "DFT", 
		 "functional": "B3LYP", 
		 "basiset": "6-31G**", 
		 "properties": { 
			 "R2extent": 2174.9421, 
			 "electric_dipole_moment_norm": 1.48872618705, 
			 "electric_quadrupole_moment_norm": 17.1190395139, 
			 "total_energy": -896.438333818, 
			 "HOMO_LUMO_gap": 0.19594, 
			 "cosmo_polarized_energy": -14.89, 
			 "cosmo_cavitation_energy": 21.11, 
			 "cosmo_dispersion_energy": -15.88, 
			 "cosmo_repulsion_energy": 1.29, 
			 "cosmo_total_nonelectrostatic_energy": 6.52, 
			 "SMD_solvation_energy": 3.3 
		},
		"coords": [
			{
				"x": -1.1158713137,
				"y": -0.9402690313,
				"z": -1.3777053106,
				"element": "O" 
			},
			{
				"x": -0.7461590747,
				"y": 0.3472593491,
				"z": -1.1744919225,
				"element": "C" 
			},
			{
				"x": -1.1042333418,
				"y": 1.2173192567,
				"z": -1.929458962,
				"element": "O" 
			},
			{
				"x": 0.1187862624,
				"y": 0.6251508313,
				"z": 0.02746795,
				"element": "C" 
			},
			{
				"x": 0.1624557646,
				"y": -0.211655952,
				"z": 1.1444561449,
				"element": "C" 
			},
			{
				"x": 0.9925422365,
				"y": 0.1694314301,
				"z": 2.204190588,
				"element": "C" 
			},
			{
				"x": 1.0576557489,
				"y": -0.8644714338,
				"z": 3.6254860316,
				"element": "Cl" 
			},
			{
				"x": 1.7374043419,
				"y": 1.2578346754,
				"z": 2.2215038885,
				"element": "N" 
			},
			{
				"x": 1.6787320388,
				"y": 2.0604438441,
				"z": 1.1461693314,
				"element": "C" 
			},
			{
				"x": 0.8850156427,
				"y": 1.7969211928,
				"z": 0.0353204193,
				"element": "C" 
			},
			{
				"x": -0.6298522632,
				"y": -1.5355660182,
				"z": -0.7899345477,
				"element": "H" 
			},
			{
				"x": -0.4424214616,
				"y": -1.1078518817,
				"z": 1.2314165315,
				"element": "H" 
			},
			{
				"x": 2.2981470764,
				"y": 2.9528654083,
				"z": 1.1877736409,
				"element": "H" 
			},
			{
				"x": 0.8470983428,
				"y": 2.470488329,
				"z": -0.8125937833,
				"element": "H" 
			}
		],
		 "valence_orbital": [ 
			{
				"type": "occ",
				"energy": -0.33219,
				"method": "rhf"
			},
			{
				"type": "occ",
				"energy": -0.32003,
				"method": "rhf"
			},
			{
				"type": "occ",
				"energy": -0.29923,
				"method": "rhf"
			},
			{
				"type": "occ",
				"energy": -0.29195,
				"method": "rhf"
			},
			{
				"type": "occ",
				"energy": -0.28023,
				"method": "rhf"
			},
			{
				"type": "unocc",
				"energy": -0.08429,
				"method": "rhf"
			},
			{
				"type": "unocc",
				"energy": -0.04777,
				"method": "rhf"
			},
			{
				"type": "unocc",
				"energy": 0.01568,
				"method": "rhf"
			},
			{
				"type": "unocc",
				"energy": 0.02167,
				"method": "rhf"
			},
			{
				"type": "unocc",
				"energy": 0.04929,
				"method": "rhf"
			}
		],
		"cosmo_sigma_profile": { 
			"-0.025": 0.0,
			"-0.024": 0.0,
			"-0.023": 0.0,
			"-0.022": 0.0,
			"-0.021": 0.0,
			"-0.02": 0.193257420126,
			"-0.019": 1.14161124033,
			"-0.018": 1.17198925671,
			"-0.017": 1.28232322947,
			"-0.016": 0.800058651773,
			"-0.015": 0.910219426272,
			"-0.014": 1.13397670601,
			"-0.013": 1.6624786485,
			"-0.012": 1.70805234403,
			"-0.011": 1.15837665347,
			"-0.01": 0.563394235935,
			"-0.009": 1.82126675414,
			"-0.008": 6.09947093963,
			"-0.007": 6.84740186119,
			"-0.006": 5.92829240677,
			"-0.005": 6.3029080451,
			"-0.004": 5.78558290405,
			"-0.003": 9.18232298081,
			"-0.002": 14.2105699137,
			"-0.001": 14.4018857817,
			"0.0": 12.4732710448,
			"0.001": 8.18403619885,
			"0.002": 8.34464813244,
			"0.003": 9.89063831114,
			"0.004": 11.6782231589,
			"0.005": 6.05040212486,
			"0.006": 3.46080643247,
			"0.007": 4.25789510514,
			"0.008": 4.66302314038,
			"0.009": 5.82034124137,
			"0.01": 6.13909011076,
			"0.011": 5.54306994445,
			"0.012": 2.73998483122,
			"0.013": 0.731672982316,
			"0.014": 0.31247574728,
			"0.015": 0.0,
			"0.016": 0.0,
			"0.017": 0.0,
			"0.018": 0.0,
			"0.019": 0.0,
			"0.02": 0.0,
			"0.021": 0.0,
			"0.022": 0.0,
			"0.023": 0.0,
			"0.024": 0.0,
			"0.025": 0.0
		}
	}
}
