{
	 "smiles": "O=C1CC2=CC=CC=C2C(=O)O1", 
	 "Tm": 415.15, 
	 "num_atms": 18, 
	 "gaussian": { 
		 "optdone": 1, 
		 "sigma_profile": "yes", 
		 "theory": "DFT", 
		 "functional": "B3LYP", 
		 "basiset": "6-31G**", 
		 "properties": { 
			 "R2extent": 2927.2891, 
			 "electric_dipole_moment_norm": 5.95737599619, 
			 "electric_quadrupole_moment_norm": 17.9722515724, 
			 "total_energy": -572.263219066, 
			 "HOMO_LUMO_gap": 0.20195, 
			 "cosmo_polarized_energy": -13.49, 
			 "cosmo_cavitation_energy": 22.73, 
			 "cosmo_dispersion_energy": -17.09, 
			 "cosmo_repulsion_energy": 1.35, 
			 "cosmo_total_nonelectrostatic_energy": 6.98, 
			 "SMD_solvation_energy": 5.68 
		},
		"coords": [
			{
				"x": -0.0148783152,
				"y": -4.9159603088,
				"z": -0.7551693764,
				"element": "O" 
			},
			{
				"x": 0.3226296341,
				"y": -3.7659856705,
				"z": -0.6962203827,
				"element": "C" 
			},
			{
				"x": -0.275141775,
				"y": -2.7551308128,
				"z": 0.2596759895,
				"element": "C" 
			},
			{
				"x": -0.134855515,
				"y": -1.3182523913,
				"z": -0.1663960981,
				"element": "C" 
			},
			{
				"x": -0.9343884545,
				"y": -0.3090669694,
				"z": 0.3782116362,
				"element": "C" 
			},
			{
				"x": -0.7507876252,
				"y": 1.0183983786,
				"z": -0.0063795269,
				"element": "C" 
			},
			{
				"x": 0.2372136077,
				"y": 1.3569635826,
				"z": -0.9382749992,
				"element": "C" 
			},
			{
				"x": 1.0374899672,
				"y": 0.3614212161,
				"z": -1.4856442669,
				"element": "C" 
			},
			{
				"x": 0.8478966138,
				"y": -0.9749009757,
				"z": -1.1036476858,
				"element": "C" 
			},
			{
				"x": 1.7102413537,
				"y": -2.0104383986,
				"z": -1.7169534181,
				"element": "C" 
			},
			{
				"x": 2.6627325225,
				"y": -1.7910134267,
				"z": -2.4196575528,
				"element": "O" 
			},
			{
				"x": 1.3712534845,
				"y": -3.3423480668,
				"z": -1.4901646292,
				"element": "O" 
			},
			{
				"x": -1.3181372721,
				"y": -3.0392484551,
				"z": 0.4208481999,
				"element": "H" 
			},
			{
				"x": 0.2343009926,
				"y": -2.9116658139,
				"z": 1.2226069342,
				"element": "H" 
			},
			{
				"x": -1.7017941995,
				"y": -0.5641268119,
				"z": 1.1040532825,
				"element": "H" 
			},
			{
				"x": -1.3809901017,
				"y": 1.7929533738,
				"z": 0.4208521687,
				"element": "H" 
			},
			{
				"x": 0.3764865682,
				"y": 2.3920134245,
				"z": -1.2339555025,
				"element": "H" 
			},
			{
				"x": 1.8110285139,
				"y": 0.5876881257,
				"z": -2.2113847725,
				"element": "H" 
			}
		],
		 "valence_orbital": [ 
			{
				"type": "occ",
				"energy": -0.32645,
				"method": "rhf"
			},
			{
				"type": "occ",
				"energy": -0.30597,
				"method": "rhf"
			},
			{
				"type": "occ",
				"energy": -0.28532,
				"method": "rhf"
			},
			{
				"type": "occ",
				"energy": -0.28086,
				"method": "rhf"
			},
			{
				"type": "occ",
				"energy": -0.27248,
				"method": "rhf"
			},
			{
				"type": "unocc",
				"energy": -0.07053,
				"method": "rhf"
			},
			{
				"type": "unocc",
				"energy": -0.03366,
				"method": "rhf"
			},
			{
				"type": "unocc",
				"energy": -0.01734,
				"method": "rhf"
			},
			{
				"type": "unocc",
				"energy": 0.04413,
				"method": "rhf"
			},
			{
				"type": "unocc",
				"energy": 0.07707,
				"method": "rhf"
			}
		],
		"cosmo_sigma_profile": { 
			"-0.025": 0.0,
			"-0.024": 0.0,
			"-0.023": 0.0,
			"-0.022": 0.0,
			"-0.021": 0.0,
			"-0.02": 0.0,
			"-0.019": 0.0,
			"-0.018": 0.0,
			"-0.017": 0.0,
			"-0.016": 0.0,
			"-0.015": 0.0,
			"-0.014": 0.0,
			"-0.013": 0.0,
			"-0.012": 0.0,
			"-0.011": 0.307614218481,
			"-0.01": 2.29000738391,
			"-0.009": 3.3035049454,
			"-0.008": 6.60141815162,
			"-0.007": 13.2948712634,
			"-0.006": 14.4685996816,
			"-0.005": 14.5688503406,
			"-0.004": 9.86638216818,
			"-0.003": 9.10098249065,
			"-0.002": 8.68900567868,
			"-0.001": 9.28666598636,
			"0.0": 9.48902367672,
			"0.001": 10.903369512,
			"0.002": 12.9115676873,
			"0.003": 11.8686290524,
			"0.004": 3.69258912505,
			"0.005": 3.75226223034,
			"0.006": 3.37666221173,
			"0.007": 4.16326004762,
			"0.008": 6.00364599425,
			"0.009": 7.28326117008,
			"0.01": 10.2833240777,
			"0.011": 6.653017745,
			"0.012": 0.814338448928,
			"0.013": 0.0,
			"0.014": 0.0,
			"0.015": 0.0,
			"0.016": 0.0,
			"0.017": 0.0,
			"0.018": 0.0,
			"0.019": 0.0,
			"0.02": 0.0,
			"0.021": 0.0,
			"0.022": 0.0,
			"0.023": 0.0,
			"0.024": 0.0,
			"0.025": 0.0
		}
	}
}
