{
	 "smiles": "O=C1CCCCCCCCCCC1CCC#N", 
	 "Tm": 333.65, 
	 "num_atms": 42, 
	 "gaussian": { 
		 "optdone": 1, 
		 "sigma_profile": "yes", 
		 "theory": "DFT", 
		 "functional": "B3LYP", 
		 "basiset": "6-31G**", 
		 "properties": { 
			 "R2extent": 5795.6945, 
			 "electric_dipole_moment_norm": 6.07237969251, 
			 "electric_quadrupole_moment_norm": 21.2766358321, 
			 "total_energy": -716.635871808, 
			 "HOMO_LUMO_gap": 0.22089, 
			 "cosmo_polarized_energy": -14.4, 
			 "cosmo_cavitation_energy": 39.4, 
			 "cosmo_dispersion_energy": -27.09, 
			 "cosmo_repulsion_energy": 2.09, 
			 "cosmo_total_nonelectrostatic_energy": 14.41, 
			 "SMD_solvation_energy": 6.94 
		},
		"coords": [
			{
				"x": 0.5591769961,
				"y": -0.3676564941,
				"z": 1.5331775669,
				"element": "O" 
			},
			{
				"x": -0.2740802758,
				"y": -0.9875641767,
				"z": 0.8939772359,
				"element": "C" 
			},
			{
				"x": -0.1566756491,
				"y": -2.5035355429,
				"z": 0.7347799568,
				"element": "C" 
			},
			{
				"x": 0.8581316268,
				"y": -2.9328092472,
				"z": -0.3585270131,
				"element": "C" 
			},
			{
				"x": 2.3224608863,
				"y": -2.5642456963,
				"z": -0.0561382641,
				"element": "C" 
			},
			{
				"x": 3.2716021247,
				"y": -2.5715858633,
				"z": -1.2733785117,
				"element": "C" 
			},
			{
				"x": 3.0554041535,
				"y": -1.4042301301,
				"z": -2.2684291204,
				"element": "C" 
			},
			{
				"x": 2.1226091376,
				"y": -1.7075430852,
				"z": -3.4674896833,
				"element": "C" 
			},
			{
				"x": 1.3438265631,
				"y": -0.4969567947,
				"z": -4.0426115159,
				"element": "C" 
			},
			{
				"x": -0.0891951575,
				"y": -0.3468567836,
				"z": -3.4902737863,
				"element": "C" 
			},
			{
				"x": -0.1872869173,
				"y": 0.0801394218,
				"z": -2.0098205263,
				"element": "C" 
			},
			{
				"x": -1.4470305135,
				"y": -0.4515499176,
				"z": -1.3055077209,
				"element": "C" 
			},
			{
				"x": -1.4622581868,
				"y": -0.2602490719,
				"z": 0.2359467576,
				"element": "C" 
			},
			{
				"x": -1.503686048,
				"y": 1.2070945995,
				"z": 0.6953296307,
				"element": "C" 
			},
			{
				"x": -2.7870867347,
				"y": 1.9396234847,
				"z": 0.2507924509,
				"element": "C" 
			},
			{
				"x": -2.8538280752,
				"y": 3.3106469416,
				"z": 0.7644524156,
				"element": "C" 
			},
			{
				"x": -2.8965983755,
				"y": 4.3955815358,
				"z": 1.1748164607,
				"element": "N" 
			},
			{
				"x": 0.1694967936,
				"y": -2.8960672699,
				"z": 1.7044831426,
				"element": "H" 
			},
			{
				"x": -1.136212799,
				"y": -2.9387578207,
				"z": 0.5064788677,
				"element": "H" 
			},
			{
				"x": 0.5464496762,
				"y": -2.4998331802,
				"z": -1.3109436169,
				"element": "H" 
			},
			{
				"x": 0.7742781414,
				"y": -4.0193096959,
				"z": -0.4866503865,
				"element": "H" 
			},
			{
				"x": 2.3628511076,
				"y": -1.5723575887,
				"z": 0.4073054712,
				"element": "H" 
			},
			{
				"x": 2.7035811846,
				"y": -3.2601806367,
				"z": 0.7029589798,
				"element": "H" 
			},
			{
				"x": 4.2956614439,
				"y": -2.5160678245,
				"z": -0.8853230658,
				"element": "H" 
			},
			{
				"x": 3.2067860489,
				"y": -3.5323920218,
				"z": -1.8037107856,
				"element": "H" 
			},
			{
				"x": 4.0267081846,
				"y": -1.0895604517,
				"z": -2.6693515977,
				"element": "H" 
			},
			{
				"x": 2.6884101701,
				"y": -0.5359945449,
				"z": -1.7086319341,
				"element": "H" 
			},
			{
				"x": 2.731649711,
				"y": -2.1534149501,
				"z": -4.2633229112,
				"element": "H" 
			},
			{
				"x": 1.4004313889,
				"y": -2.4874431105,
				"z": -3.1972097364,
				"element": "H" 
			},
			{
				"x": 1.912526219,
				"y": 0.4284761436,
				"z": -3.8774796915,
				"element": "H" 
			},
			{
				"x": 1.2667347481,
				"y": -0.6085784364,
				"z": -5.1308234945,
				"element": "H" 
			},
			{
				"x": -0.5978070641,
				"y": -1.312525158,
				"z": -3.6224877335,
				"element": "H" 
			},
			{
				"x": -0.6463760153,
				"y": 0.3669093294,
				"z": -4.1104578654,
				"element": "H" 
			},
			{
				"x": 0.6887804854,
				"y": -0.2785613389,
				"z": -1.4648766992,
				"element": "H" 
			},
			{
				"x": -0.1422083629,
				"y": 1.1738993815,
				"z": -1.9413678826,
				"element": "H" 
			},
			{
				"x": -2.345196237,
				"y": 0.0084012848,
				"z": -1.7364630774,
				"element": "H" 
			},
			{
				"x": -1.5449599569,
				"y": -1.5226638025,
				"z": -1.5201002596,
				"element": "H" 
			},
			{
				"x": -2.3676722063,
				"y": -0.7681808823,
				"z": 0.6059572824,
				"element": "H" 
			},
			{
				"x": -0.6257076402,
				"y": 1.7437332348,
				"z": 0.3258094404,
				"element": "H" 
			},
			{
				"x": -1.4318134933,
				"y": 1.2398220011,
				"z": 1.785794347,
				"element": "H" 
			},
			{
				"x": -3.6772107765,
				"y": 1.4011797801,
				"z": 0.6004247825,
				"element": "H" 
			},
			{
				"x": -2.8589663062,
				"y": 1.9883643787,
				"z": -0.8416079087,
				"element": "H" 
			}
		],
		 "valence_orbital": [ 
			{
				"type": "occ",
				"energy": -0.31827,
				"method": "rhf"
			},
			{
				"type": "occ",
				"energy": -0.31676,
				"method": "rhf"
			},
			{
				"type": "occ",
				"energy": -0.30346,
				"method": "rhf"
			},
			{
				"type": "occ",
				"energy": -0.30158,
				"method": "rhf"
			},
			{
				"type": "occ",
				"energy": -0.24781,
				"method": "rhf"
			},
			{
				"type": "unocc",
				"energy": -0.02692,
				"method": "rhf"
			},
			{
				"type": "unocc",
				"energy": 0.03627,
				"method": "rhf"
			},
			{
				"type": "unocc",
				"energy": 0.04114,
				"method": "rhf"
			},
			{
				"type": "unocc",
				"energy": 0.06579,
				"method": "rhf"
			},
			{
				"type": "unocc",
				"energy": 0.07904,
				"method": "rhf"
			}
		],
		"cosmo_sigma_profile": { 
			"-0.025": 0.0,
			"-0.024": 0.0,
			"-0.023": 0.0,
			"-0.022": 0.0,
			"-0.021": 0.0,
			"-0.02": 0.0,
			"-0.019": 0.0,
			"-0.018": 0.0,
			"-0.017": 0.0,
			"-0.016": 0.0,
			"-0.015": 0.0,
			"-0.014": 0.0,
			"-0.013": 0.0,
			"-0.012": 0.0,
			"-0.011": 0.0,
			"-0.01": 0.0,
			"-0.009": 0.0,
			"-0.008": 2.2061824016,
			"-0.007": 6.84297639192,
			"-0.006": 8.48858100679,
			"-0.005": 16.9507464167,
			"-0.004": 22.7698637192,
			"-0.003": 21.3075729394,
			"-0.002": 38.871116003,
			"-0.001": 50.2701117085,
			"0.0": 45.2985494614,
			"0.001": 28.50847432,
			"0.002": 11.8394794413,
			"0.003": 3.50817356244,
			"0.004": 3.94859662578,
			"0.005": 3.73989887158,
			"0.006": 4.83326116198,
			"0.007": 3.77846221505,
			"0.008": 4.66032473736,
			"0.009": 5.40001291514,
			"0.01": 5.53920246812,
			"0.011": 5.1958115759,
			"0.012": 6.58062106719,
			"0.013": 3.51524780806,
			"0.014": 0.715238033735,
			"0.015": 0.0,
			"0.016": 0.0,
			"0.017": 0.0,
			"0.018": 0.0,
			"0.019": 0.0,
			"0.02": 0.0,
			"0.021": 0.0,
			"0.022": 0.0,
			"0.023": 0.0,
			"0.024": 0.0,
			"0.025": 0.0
		}
	}
}
