{
	 "smiles": "OC1=C(CC#N)C=C(Br)C=N1", 
	 "Tm": 483.15, 
	 "num_atms": 16, 
	 "gaussian": { 
		 "optdone": 1, 
		 "sigma_profile": "yes", 
		 "theory": "DFT", 
		 "functional": "B3LYP", 
		 "basiset": "6-31G**", 
		 "properties": { 
			 "R2extent": 3923.5947, 
			 "electric_dipole_moment_norm": 3.46502108074, 
			 "electric_quadrupole_moment_norm": 15.2863449088, 
			 "total_energy": -3025.87061419, 
			 "HOMO_LUMO_gap": 0.19534, 
			 "cosmo_polarized_energy": -13.7, 
			 "cosmo_cavitation_energy": 24.36, 
			 "cosmo_dispersion_energy": -17.65, 
			 "cosmo_repulsion_energy": 1.44, 
			 "cosmo_total_nonelectrostatic_energy": 8.15, 
			 "SMD_solvation_energy": 3.57 
		},
		"coords": [
			{
				"x": -1.3356468218,
				"y": 0.2787382885,
				"z": -0.8784046435,
				"element": "O" 
			},
			{
				"x": -0.105814588,
				"y": -0.0759068778,
				"z": -0.4478584469,
				"element": "C" 
			},
			{
				"x": 0.5753737004,
				"y": 0.8114226708,
				"z": 0.4094264323,
				"element": "C" 
			},
			{
				"x": -0.064485104,
				"y": 2.1193762718,
				"z": 0.8343928592,
				"element": "C" 
			},
			{
				"x": -1.0648287882,
				"y": 1.9451735086,
				"z": 1.8974588187,
				"element": "C" 
			},
			{
				"x": -1.8455948022,
				"y": 1.8056824933,
				"z": 2.7442717721,
				"element": "N" 
			},
			{
				"x": 1.8410125929,
				"y": 0.4259123649,
				"z": 0.8333222812,
				"element": "C" 
			},
			{
				"x": 2.366687855,
				"y": -0.7944015669,
				"z": 0.399453923,
				"element": "C" 
			},
			{
				"x": 4.0994472573,
				"y": -1.3551662159,
				"z": 0.9547474367,
				"element": "Br" 
			},
			{
				"x": 1.6090266286,
				"y": -1.5956307952,
				"z": -0.447139139,
				"element": "C" 
			},
			{
				"x": 0.3885493141,
				"y": -1.2350999513,
				"z": -0.864873389,
				"element": "N" 
			},
			{
				"x": -1.6527445522,
				"y": -0.4458339889,
				"z": -1.440850553,
				"element": "H" 
			},
			{
				"x": 0.7018364392,
				"y": 2.8138025544,
				"z": 1.1950348655,
				"element": "H" 
			},
			{
				"x": -0.5593349441,
				"y": 2.5913290129,
				"z": -0.0215383655,
				"element": "H" 
			},
			{
				"x": 2.417022071,
				"y": 1.0646303568,
				"z": 1.4950394641,
				"element": "H" 
			},
			{
				"x": 1.9891937423,
				"y": -2.5492281261,
				"z": -0.801783316,
				"element": "H" 
			}
		],
		 "valence_orbital": [ 
			{
				"type": "occ",
				"energy": -0.32588,
				"method": "rhf"
			},
			{
				"type": "occ",
				"energy": -0.30823,
				"method": "rhf"
			},
			{
				"type": "occ",
				"energy": -0.30216,
				"method": "rhf"
			},
			{
				"type": "occ",
				"energy": -0.29079,
				"method": "rhf"
			},
			{
				"type": "occ",
				"energy": -0.24704,
				"method": "rhf"
			},
			{
				"type": "unocc",
				"energy": -0.0517,
				"method": "rhf"
			},
			{
				"type": "unocc",
				"energy": -0.02621,
				"method": "rhf"
			},
			{
				"type": "unocc",
				"energy": -0.00776,
				"method": "rhf"
			},
			{
				"type": "unocc",
				"energy": 0.03543,
				"method": "rhf"
			},
			{
				"type": "unocc",
				"energy": 0.03681,
				"method": "rhf"
			}
		],
		"cosmo_sigma_profile": { 
			"-0.025": 0.0,
			"-0.024": 0.0,
			"-0.023": 0.0,
			"-0.022": 0.0,
			"-0.021": 0.0,
			"-0.02": 0.0,
			"-0.019": 0.0,
			"-0.018": 0.295061957421,
			"-0.017": 0.934676634964,
			"-0.016": 0.649329484527,
			"-0.015": 0.931049437608,
			"-0.014": 1.17872531271,
			"-0.013": 0.248976416769,
			"-0.012": 0.246223710013,
			"-0.011": 0.911335746447,
			"-0.01": 4.21137746115,
			"-0.009": 6.41509737579,
			"-0.008": 7.2372841996,
			"-0.007": 7.34156786889,
			"-0.006": 8.59741165745,
			"-0.005": 7.97821629518,
			"-0.004": 6.44186448368,
			"-0.003": 8.64427885804,
			"-0.002": 10.6915433904,
			"-0.001": 16.6932296053,
			"0.0": 17.364978656,
			"0.001": 13.4625291873,
			"0.002": 10.707464751,
			"0.003": 12.6842669688,
			"0.004": 15.1891092671,
			"0.005": 7.76607019055,
			"0.006": 5.11112486048,
			"0.007": 6.15694271689,
			"0.008": 4.40440322934,
			"0.009": 4.83218574587,
			"0.01": 3.68104465934,
			"0.011": 3.85428685332,
			"0.012": 2.9335595333,
			"0.013": 1.89657180233,
			"0.014": 0.0998521435223,
			"0.015": 0.0,
			"0.016": 0.0,
			"0.017": 0.0,
			"0.018": 0.0,
			"0.019": 0.0,
			"0.02": 0.0,
			"0.021": 0.0,
			"0.022": 0.0,
			"0.023": 0.0,
			"0.024": 0.0,
			"0.025": 0.0
		}
	}
}
