{
	 "smiles": "OC(=O)CCCC(=O)C1=CC(Cl)=C(Cl)C=C1", 
	 "Tm": 414.15, 
	 "num_atms": 26, 
	 "gaussian": { 
		 "optdone": 1, 
		 "sigma_profile": "yes", 
		 "theory": "DFT", 
		 "functional": "B3LYP", 
		 "basiset": "6-31G**", 
		 "properties": { 
			 "R2extent": 8255.4829, 
			 "electric_dipole_moment_norm": 2.22256862211, 
			 "electric_quadrupole_moment_norm": 24.2955432794, 
			 "total_energy": -1571.27281447, 
			 "HOMO_LUMO_gap": 0.18576, 
			 "cosmo_polarized_energy": -15.14, 
			 "cosmo_cavitation_energy": 34.72, 
			 "cosmo_dispersion_energy": -25.1, 
			 "cosmo_repulsion_energy": 1.98, 
			 "cosmo_total_nonelectrostatic_energy": 11.6, 
			 "SMD_solvation_energy": 6.75 
		},
		"coords": [
			{
				"x": -0.2061301895,
				"y": 3.9826916841,
				"z": -4.1736425972,
				"element": "O" 
			},
			{
				"x": -0.1294269055,
				"y": 4.1992905789,
				"z": -2.8338288629,
				"element": "C" 
			},
			{
				"x": 0.2472860389,
				"y": 5.2534395669,
				"z": -2.3733279681,
				"element": "O" 
			},
			{
				"x": -0.5906217616,
				"y": 2.999279662,
				"z": -2.0346959248,
				"element": "C" 
			},
			{
				"x": 0.0182854511,
				"y": 1.6648614038,
				"z": -2.4992907263,
				"element": "C" 
			},
			{
				"x": -0.5240389607,
				"y": 0.4566621491,
				"z": -1.7285985775,
				"element": "C" 
			},
			{
				"x": -0.0360239897,
				"y": 0.3696340636,
				"z": -0.2860271914,
				"element": "C" 
			},
			{
				"x": 0.7705183597,
				"y": 1.1723778307,
				"z": 0.1587822643,
				"element": "O" 
			},
			{
				"x": -0.5501118634,
				"y": -0.7379360131,
				"z": 0.5897939532,
				"element": "C" 
			},
			{
				"x": -1.4532705943,
				"y": -1.7061746532,
				"z": 0.135935619,
				"element": "C" 
			},
			{
				"x": -1.8986540483,
				"y": -2.717902922,
				"z": 0.9872776131,
				"element": "C" 
			},
			{
				"x": -3.0243650218,
				"y": -3.9005692058,
				"z": 0.3677715882,
				"element": "Cl" 
			},
			{
				"x": -1.4395765241,
				"y": -2.7668925914,
				"z": 2.3113016576,
				"element": "C" 
			},
			{
				"x": -1.9682240782,
				"y": -4.0096471932,
				"z": 3.4112493256,
				"element": "Cl" 
			},
			{
				"x": -0.5363483098,
				"y": -1.8002153634,
				"z": 2.7680139504,
				"element": "C" 
			},
			{
				"x": -0.0960702187,
				"y": -0.797380341,
				"z": 1.915951452,
				"element": "C" 
			},
			{
				"x": 0.0954388999,
				"y": 4.8062770404,
				"z": -4.5926399854,
				"element": "H" 
			},
			{
				"x": -1.6848508727,
				"y": 2.9541091071,
				"z": -2.1290655175,
				"element": "H" 
			},
			{
				"x": -0.349773694,
				"y": 3.1981542411,
				"z": -0.9900182244,
				"element": "H" 
			},
			{
				"x": 1.1058609686,
				"y": 1.7034996915,
				"z": -2.3812985224,
				"element": "H" 
			},
			{
				"x": -0.189393986,
				"y": 1.5263179711,
				"z": -3.5639671617,
				"element": "H" 
			},
			{
				"x": -1.6227960619,
				"y": 0.4544667938,
				"z": -1.7346970482,
				"element": "H" 
			},
			{
				"x": -0.2265498894,
				"y": -0.4727466568,
				"z": -2.2340364713,
				"element": "H" 
			},
			{
				"x": -1.8249080178,
				"y": -1.6952661085,
				"z": -0.8815995357,
				"element": "H" 
			},
			{
				"x": -0.1894554847,
				"y": -1.850064964,
				"z": 3.7941609393,
				"element": "H" 
			},
			{
				"x": 0.6046007538,
				"y": -0.0432657716,
				"z": 2.2565959519,
				"element": "H" 
			}
		],
		 "valence_orbital": [ 
			{
				"type": "occ",
				"energy": -0.31688,
				"method": "rhf"
			},
			{
				"type": "occ",
				"energy": -0.27813,
				"method": "rhf"
			},
			{
				"type": "occ",
				"energy": -0.27114,
				"method": "rhf"
			},
			{
				"type": "occ",
				"energy": -0.2669,
				"method": "rhf"
			},
			{
				"type": "occ",
				"energy": -0.26293,
				"method": "rhf"
			},
			{
				"type": "unocc",
				"energy": -0.07717,
				"method": "rhf"
			},
			{
				"type": "unocc",
				"energy": -0.03656,
				"method": "rhf"
			},
			{
				"type": "unocc",
				"energy": -0.008,
				"method": "rhf"
			},
			{
				"type": "unocc",
				"energy": 0.00841,
				"method": "rhf"
			},
			{
				"type": "unocc",
				"energy": 0.0146,
				"method": "rhf"
			}
		],
		"cosmo_sigma_profile": { 
			"-0.025": 0.0,
			"-0.024": 0.0,
			"-0.023": 0.0,
			"-0.022": 0.0,
			"-0.021": 0.0,
			"-0.02": 0.0,
			"-0.019": 0.0,
			"-0.018": 0.337164241819,
			"-0.017": 1.15779856126,
			"-0.016": 0.842878565396,
			"-0.015": 0.597815763002,
			"-0.014": 0.823867194302,
			"-0.013": 0.57417016252,
			"-0.012": 0.560252573287,
			"-0.011": 0.839651369592,
			"-0.01": 1.11186016633,
			"-0.009": 1.16294045811,
			"-0.008": 5.19850521461,
			"-0.007": 9.32543361604,
			"-0.006": 16.5101687939,
			"-0.005": 12.3812986013,
			"-0.004": 16.0088725409,
			"-0.003": 19.4613014878,
			"-0.002": 20.6643941698,
			"-0.001": 22.7396057904,
			"0.0": 27.8478243926,
			"0.001": 24.8082560034,
			"0.002": 18.3356576294,
			"0.003": 19.7797321659,
			"0.004": 16.3346280063,
			"0.005": 8.83367194405,
			"0.006": 3.82293542562,
			"0.007": 3.36033396255,
			"0.008": 4.90819477982,
			"0.009": 4.48241021452,
			"0.01": 3.73443813377,
			"0.011": 6.64809697204,
			"0.012": 5.9312288217,
			"0.013": 1.46249635876,
			"0.014": 0.0233595363119,
			"0.015": 0.0,
			"0.016": 0.0,
			"0.017": 0.0,
			"0.018": 0.0,
			"0.019": 0.0,
			"0.02": 0.0,
			"0.021": 0.0,
			"0.022": 0.0,
			"0.023": 0.0,
			"0.024": 0.0,
			"0.025": 0.0
		}
	}
}
