{
	 "smiles": "NS(=O)(=O)C1=CC(=CO1)S(=O)(=O)C1=CC=C(O)C=C1", 
	 "Tm": 448.15, 
	 "num_atms": 28, 
	 "gaussian": { 
		 "optdone": 1, 
		 "sigma_profile": "yes", 
		 "theory": "DFT", 
		 "functional": "B3LYP", 
		 "basiset": "6-31G**", 
		 "properties": { 
			 "R2extent": 7510.49, 
			 "electric_dipole_moment_norm": 1.70347763707, 
			 "electric_quadrupole_moment_norm": 49.1636563888, 
			 "total_energy": -1688.77069376, 
			 "HOMO_LUMO_gap": 0.19919, 
			 "cosmo_polarized_energy": -30.74, 
			 "cosmo_cavitation_energy": 37.31, 
			 "cosmo_dispersion_energy": -27.24, 
			 "cosmo_repulsion_energy": 2.03, 
			 "cosmo_total_nonelectrostatic_energy": 12.11, 
			 "SMD_solvation_energy": 6.68 
		},
		"coords": [
			{
				"x": -3.0539478629,
				"y": -1.6196447439,
				"z": 3.0013376566,
				"element": "N" 
			},
			{
				"x": -2.8084950052,
				"y": -1.5406109512,
				"z": 1.3539093475,
				"element": "S" 
			},
			{
				"x": -3.9840352991,
				"y": -0.8815412153,
				"z": 0.8007641119,
				"element": "O" 
			},
			{
				"x": -2.3415122625,
				"y": -2.854873746,
				"z": 0.9290231104,
				"element": "O" 
			},
			{
				"x": -1.4130291094,
				"y": -0.4688478038,
				"z": 1.1040907502,
				"element": "C" 
			},
			{
				"x": -0.1784861157,
				"y": -0.716290323,
				"z": 0.5865807871,
				"element": "C" 
			},
			{
				"x": 0.495644835,
				"y": 0.5471985641,
				"z": 0.6240447557,
				"element": "C" 
			},
			{
				"x": -0.3734454729,
				"y": 1.4510989583,
				"z": 1.1650627209,
				"element": "C" 
			},
			{
				"x": -1.5479002899,
				"y": 0.8447215979,
				"z": 1.4634062448,
				"element": "O" 
			},
			{
				"x": 2.1682156701,
				"y": 0.9231140685,
				"z": 0.1452205072,
				"element": "S" 
			},
			{
				"x": 2.4062694608,
				"y": 2.3054710275,
				"z": 0.5882817148,
				"element": "O" 
			},
			{
				"x": 3.0047508502,
				"y": -0.1968667537,
				"z": 0.5976363497,
				"element": "O" 
			},
			{
				"x": 2.1452632658,
				"y": 0.9008732308,
				"z": -1.640772637,
				"element": "C" 
			},
			{
				"x": 2.4985247479,
				"y": -0.2692729059,
				"z": -2.3157741707,
				"element": "C" 
			},
			{
				"x": 2.4813284845,
				"y": -0.2885129474,
				"z": -3.7071886155,
				"element": "C" 
			},
			{
				"x": 2.1130476038,
				"y": 0.862579567,
				"z": -4.4174275418,
				"element": "C" 
			},
			{
				"x": 2.0758138484,
				"y": 0.9059959909,
				"z": -5.7736953747,
				"element": "O" 
			},
			{
				"x": 1.770167516,
				"y": 2.0382766317,
				"z": -3.732043678,
				"element": "C" 
			},
			{
				"x": 1.7874571139,
				"y": 2.0571481876,
				"z": -2.3444693368,
				"element": "C" 
			},
			{
				"x": -2.2849373467,
				"y": -2.0404984173,
				"z": 3.5122451203,
				"element": "H" 
			},
			{
				"x": -3.3999774273,
				"y": -0.754034256,
				"z": 3.4019166642,
				"element": "H" 
			},
			{
				"x": 0.1951643838,
				"y": -1.6658774115,
				"z": 0.2363915308,
				"element": "H" 
			},
			{
				"x": -0.2860959057,
				"y": 2.5008886202,
				"z": 1.3956451956,
				"element": "H" 
			},
			{
				"x": 2.8035067609,
				"y": -1.145190489,
				"z": -1.7536014829,
				"element": "H" 
			},
			{
				"x": 2.7604739129,
				"y": -1.1930982617,
				"z": -4.2422694544,
				"element": "H" 
			},
			{
				"x": 2.3319375753,
				"y": 0.0471101265,
				"z": -6.1354251011,
				"element": "H" 
			},
			{
				"x": 1.5028122667,
				"y": 2.9191251598,
				"z": -4.3053795276,
				"element": "H" 
			},
			{
				"x": 1.5444838015,
				"y": 2.9649584947,
				"z": -1.8028096473,
				"element": "H" 
			}
		],
		 "valence_orbital": [ 
			{
				"type": "occ",
				"energy": -0.30785,
				"method": "rhf"
			},
			{
				"type": "occ",
				"energy": -0.30044,
				"method": "rhf"
			},
			{
				"type": "occ",
				"energy": -0.28203,
				"method": "rhf"
			},
			{
				"type": "occ",
				"energy": -0.27317,
				"method": "rhf"
			},
			{
				"type": "occ",
				"energy": -0.25176,
				"method": "rhf"
			},
			{
				"type": "unocc",
				"energy": -0.05257,
				"method": "rhf"
			},
			{
				"type": "unocc",
				"energy": -0.0368,
				"method": "rhf"
			},
			{
				"type": "unocc",
				"energy": -0.03032,
				"method": "rhf"
			},
			{
				"type": "unocc",
				"energy": 0.00478,
				"method": "rhf"
			},
			{
				"type": "unocc",
				"energy": 0.03906,
				"method": "rhf"
			}
		],
		"cosmo_sigma_profile": { 
			"-0.025": 0.0,
			"-0.024": 0.0,
			"-0.023": 0.0,
			"-0.022": 0.0,
			"-0.021": 0.0,
			"-0.02": 0.0,
			"-0.019": 0.262509166192,
			"-0.018": 1.34681773731,
			"-0.017": 1.1667678723,
			"-0.016": 3.79981920824,
			"-0.015": 3.83738490381,
			"-0.014": 2.6857187974,
			"-0.013": 3.71318071817,
			"-0.012": 4.85898944045,
			"-0.011": 4.37881318076,
			"-0.01": 5.70131077793,
			"-0.009": 4.7009534378,
			"-0.008": 6.39994384962,
			"-0.007": 11.9218809744,
			"-0.006": 12.2448928557,
			"-0.005": 12.4561030237,
			"-0.004": 10.6189110513,
			"-0.003": 14.3939985465,
			"-0.002": 18.8203304532,
			"-0.001": 15.5704805544,
			"0.0": 14.7773423428,
			"0.001": 16.9000588233,
			"0.002": 20.9761081131,
			"0.003": 15.128218168,
			"0.004": 9.34482814334,
			"0.005": 8.31604806809,
			"0.006": 8.37672806118,
			"0.007": 8.89854183842,
			"0.008": 7.90094972377,
			"0.009": 11.7733790938,
			"0.01": 21.6652748644,
			"0.011": 13.8196438093,
			"0.012": 2.66757329938,
			"0.013": 0.0,
			"0.014": 0.0,
			"0.015": 0.0,
			"0.016": 0.0,
			"0.017": 0.0,
			"0.018": 0.0,
			"0.019": 0.0,
			"0.02": 0.0,
			"0.021": 0.0,
			"0.022": 0.0,
			"0.023": 0.0,
			"0.024": 0.0,
			"0.025": 0.0
		}
	}
}
