{
	 "smiles": "CC(=O)N1C2=C(C=CC=C2)C2=CC3=CC=CC=C3N=C12", 
	 "Tm": 460.15, 
	 "num_atms": 32, 
	 "gaussian": { 
		 "optdone": 1, 
		 "sigma_profile": "yes", 
		 "theory": "DFT", 
		 "functional": "B3LYP", 
		 "basiset": "6-31G**", 
		 "properties": { 
			 "R2extent": 5803.288, 
			 "electric_dipole_moment_norm": 3.35333286448, 
			 "electric_quadrupole_moment_norm": 9.24407316068, 
			 "total_energy": -839.815953579, 
			 "HOMO_LUMO_gap": 0.15218, 
			 "cosmo_polarized_energy": -9.43, 
			 "cosmo_cavitation_energy": 35.58, 
			 "cosmo_dispersion_energy": -26.15, 
			 "cosmo_repulsion_energy": 1.91, 
			 "cosmo_total_nonelectrostatic_energy": 11.34, 
			 "SMD_solvation_energy": 5.45 
		},
		"coords": [
			{
				"x": 1.7866158344,
				"y": 0.9033133224,
				"z": -2.305359041,
				"element": "C" 
			},
			{
				"x": 0.6286297495,
				"y": 1.5996950914,
				"z": -1.6304919274,
				"element": "C" 
			},
			{
				"x": 0.2034263996,
				"y": 2.6689227696,
				"z": -2.0327017435,
				"element": "O" 
			},
			{
				"x": 0.0352072401,
				"y": 0.9832476455,
				"z": -0.5063912634,
				"element": "N" 
			},
			{
				"x": -1.0611038182,
				"y": 1.5367897042,
				"z": 0.2178887741,
				"element": "C" 
			},
			{
				"x": -1.4051219991,
				"y": 0.6674382219,
				"z": 1.2789183524,
				"element": "C" 
			},
			{
				"x": -2.455627991,
				"y": 0.9852484688,
				"z": 2.1430604992,
				"element": "C" 
			},
			{
				"x": -3.1564662676,
				"y": 2.1716059386,
				"z": 1.9407891353,
				"element": "C" 
			},
			{
				"x": -2.8069943753,
				"y": 3.0255673225,
				"z": 0.8862113169,
				"element": "C" 
			},
			{
				"x": -1.7601825398,
				"y": 2.7274779739,
				"z": 0.0102407947,
				"element": "C" 
			},
			{
				"x": -0.5016786223,
				"y": -0.4626715533,
				"z": 1.2206776046,
				"element": "C" 
			},
			{
				"x": -0.3357609396,
				"y": -1.609743848,
				"z": 1.9608554524,
				"element": "C" 
			},
			{
				"x": 0.6913771637,
				"y": -2.5151231035,
				"z": 1.5913585734,
				"element": "C" 
			},
			{
				"x": 0.9393170287,
				"y": -3.7245459747,
				"z": 2.2939552355,
				"element": "C" 
			},
			{
				"x": 1.9481475247,
				"y": -4.5738996462,
				"z": 1.8991147088,
				"element": "C" 
			},
			{
				"x": 2.7554318486,
				"y": -4.2495462293,
				"z": 0.7808862492,
				"element": "C" 
			},
			{
				"x": 2.5424636994,
				"y": -3.0847998954,
				"z": 0.0768024004,
				"element": "C" 
			},
			{
				"x": 1.5112223117,
				"y": -2.187972438,
				"z": 0.4575061713,
				"element": "C" 
			},
			{
				"x": 1.3411657383,
				"y": -1.0450066192,
				"z": -0.2749763133,
				"element": "N" 
			},
			{
				"x": 0.3801017804,
				"y": -0.2457095374,
				"z": 0.1088990957,
				"element": "C" 
			},
			{
				"x": 2.6171074663,
				"y": 0.7488154177,
				"z": -1.6132147434,
				"element": "H" 
			},
			{
				"x": 1.5021750969,
				"y": -0.0889719573,
				"z": -2.6618771721,
				"element": "H" 
			},
			{
				"x": 2.0922132642,
				"y": 1.5380590408,
				"z": -3.1373871969,
				"element": "H" 
			},
			{
				"x": -2.7190242719,
				"y": 0.3167963873,
				"z": 2.9577187801,
				"element": "H" 
			},
			{
				"x": -3.9761517769,
				"y": 2.4363125932,
				"z": 2.6017056101,
				"element": "H" 
			},
			{
				"x": -3.3619020449,
				"y": 3.9476691149,
				"z": 0.7398110976,
				"element": "H" 
			},
			{
				"x": -1.4947461,
				"y": 3.3883647939,
				"z": -0.8005077627,
				"element": "H" 
			},
			{
				"x": -0.9709618547,
				"y": -1.8321748744,
				"z": 2.8145703287,
				"element": "H" 
			},
			{
				"x": 0.3159744291,
				"y": -3.9670371813,
				"z": 3.1510498218,
				"element": "H" 
			},
			{
				"x": 2.128802757,
				"y": -5.4958482735,
				"z": 2.4435871172,
				"element": "H" 
			},
			{
				"x": 3.5484132703,
				"y": -4.9274719149,
				"z": 0.47877155,
				"element": "H" 
			},
			{
				"x": 3.1501299986,
				"y": -2.81910076,
				"z": -0.7821715059,
				"element": "H" 
			}
		],
		 "valence_orbital": [ 
			{
				"type": "occ",
				"energy": -0.2705,
				"method": "rhf"
			},
			{
				"type": "occ",
				"energy": -0.26167,
				"method": "rhf"
			},
			{
				"type": "occ",
				"energy": -0.25016,
				"method": "rhf"
			},
			{
				"type": "occ",
				"energy": -0.22884,
				"method": "rhf"
			},
			{
				"type": "occ",
				"energy": -0.21796,
				"method": "rhf"
			},
			{
				"type": "unocc",
				"energy": -0.06578,
				"method": "rhf"
			},
			{
				"type": "unocc",
				"energy": -0.03231,
				"method": "rhf"
			},
			{
				"type": "unocc",
				"energy": -0.01165,
				"method": "rhf"
			},
			{
				"type": "unocc",
				"energy": 0.00901,
				"method": "rhf"
			},
			{
				"type": "unocc",
				"energy": 0.01913,
				"method": "rhf"
			}
		],
		"cosmo_sigma_profile": { 
			"-0.025": 0.0,
			"-0.024": 0.0,
			"-0.023": 0.0,
			"-0.022": 0.0,
			"-0.021": 0.0,
			"-0.02": 0.0,
			"-0.019": 0.0,
			"-0.018": 0.0,
			"-0.017": 0.0,
			"-0.016": 0.0,
			"-0.015": 0.0,
			"-0.014": 0.0,
			"-0.013": 0.0,
			"-0.012": 0.0,
			"-0.011": 0.0,
			"-0.01": 0.0,
			"-0.009": 0.0,
			"-0.008": 1.18040255772,
			"-0.007": 6.46691860738,
			"-0.006": 15.4857509153,
			"-0.005": 20.7135317227,
			"-0.004": 25.5284520073,
			"-0.003": 19.6622513708,
			"-0.002": 21.3275539051,
			"-0.001": 24.2880910551,
			"0.0": 21.0037839103,
			"0.001": 21.0543228888,
			"0.002": 27.5747696698,
			"0.003": 25.6623611283,
			"0.004": 24.1331894316,
			"0.005": 14.4256212732,
			"0.006": 4.25242073359,
			"0.007": 2.97976070439,
			"0.008": 1.82251777606,
			"0.009": 1.74839052083,
			"0.01": 1.7978781324,
			"0.011": 2.49917385762,
			"0.012": 2.06111570021,
			"0.013": 1.03075265883,
			"0.014": 0.00759488564834,
			"0.015": 0.0,
			"0.016": 0.0,
			"0.017": 0.0,
			"0.018": 0.0,
			"0.019": 0.0,
			"0.02": 0.0,
			"0.021": 0.0,
			"0.022": 0.0,
			"0.023": 0.0,
			"0.024": 0.0,
			"0.025": 0.0
		}
	}
}
