{
	 "smiles": "O=C(OCC1=CC=CC=C1)C1CC(=O)N1", 
	 "Tm": 411.15, 
	 "num_atms": 26, 
	 "gaussian": { 
		 "optdone": 1, 
		 "sigma_profile": "yes", 
		 "theory": "DFT", 
		 "functional": "B3LYP", 
		 "basiset": "6-31G**", 
		 "properties": { 
			 "R2extent": 4011.5499, 
			 "electric_dipole_moment_norm": 2.81699241391, 
			 "electric_quadrupole_moment_norm": 20.7081799705, 
			 "total_energy": -706.215518279, 
			 "HOMO_LUMO_gap": 0.23484, 
			 "cosmo_polarized_energy": -15.25, 
			 "cosmo_cavitation_energy": 31.04, 
			 "cosmo_dispersion_energy": -21.89, 
			 "cosmo_repulsion_energy": 1.77, 
			 "cosmo_total_nonelectrostatic_energy": 10.93, 
			 "SMD_solvation_energy": 6.12 
		},
		"coords": [
			{
				"x": 2.300259964,
				"y": -0.7280468916,
				"z": 0.5088732455,
				"element": "O" 
			},
			{
				"x": 1.5916058754,
				"y": -0.4964718711,
				"z": -0.448459145,
				"element": "C" 
			},
			{
				"x": 0.7058935179,
				"y": 0.5121254267,
				"z": -0.5331670468,
				"element": "O" 
			},
			{
				"x": 0.5909972225,
				"y": 1.3876668451,
				"z": 0.6300779277,
				"element": "C" 
			},
			{
				"x": -0.4760037589,
				"y": 0.9084823259,
				"z": 1.5809009658,
				"element": "C" 
			},
			{
				"x": -0.1622672084,
				"y": 0.0103174797,
				"z": 2.610780526,
				"element": "C" 
			},
			{
				"x": -1.1563792046,
				"y": -0.4392562495,
				"z": 3.4801513096,
				"element": "C" 
			},
			{
				"x": -2.4727642663,
				"y": 0.0029126886,
				"z": 3.3297466538,
				"element": "C" 
			},
			{
				"x": -2.7933634216,
				"y": 0.897055876,
				"z": 2.3063014806,
				"element": "C" 
			},
			{
				"x": -1.7986583553,
				"y": 1.3464988544,
				"z": 1.4372762442,
				"element": "C" 
			},
			{
				"x": 1.6470170798,
				"y": -1.3105176592,
				"z": -1.7329215652,
				"element": "C" 
			},
			{
				"x": 2.2846039485,
				"y": -0.5628805093,
				"z": -2.9545316322,
				"element": "C" 
			},
			{
				"x": 0.888821027,
				"y": -0.6978532109,
				"z": -3.6101396664,
				"element": "C" 
			},
			{
				"x": 0.3771611496,
				"y": -0.345940879,
				"z": -4.6438971621,
				"element": "O" 
			},
			{
				"x": 0.4192347781,
				"y": -1.4032033088,
				"z": -2.5220691575,
				"element": "N" 
			},
			{
				"x": 1.5665615687,
				"y": 1.442108807,
				"z": 1.1163104126,
				"element": "H" 
			},
			{
				"x": 0.3337398251,
				"y": 2.3590540682,
				"z": 0.2037968978,
				"element": "H" 
			},
			{
				"x": 0.860700054,
				"y": -0.3374968485,
				"z": 2.7169781165,
				"element": "H" 
			},
			{
				"x": -0.9030204486,
				"y": -1.1325994682,
				"z": 4.2770449303,
				"element": "H" 
			},
			{
				"x": -3.245181684,
				"y": -0.3454224505,
				"z": 4.0095126514,
				"element": "H" 
			},
			{
				"x": -3.8148859621,
				"y": 1.2466037984,
				"z": 2.1873637501,
				"element": "H" 
			},
			{
				"x": -2.0486397923,
				"y": 2.045215346,
				"z": 0.6425440678,
				"element": "H" 
			},
			{
				"x": 2.1077386309,
				"y": -2.2721171722,
				"z": -1.4918089762,
				"element": "H" 
			},
			{
				"x": 3.0879527307,
				"y": -1.1031519824,
				"z": -3.458677159,
				"element": "H" 
			},
			{
				"x": 2.5863106307,
				"y": 0.4690919646,
				"z": -2.7658806498,
				"element": "H" 
			},
			{
				"x": -0.5230339006,
				"y": -1.6566749792,
				"z": -2.2540070196,
				"element": "H" 
			}
		],
		 "valence_orbital": [ 
			{
				"type": "occ",
				"energy": -0.29391,
				"method": "rhf"
			},
			{
				"type": "occ",
				"energy": -0.26407,
				"method": "rhf"
			},
			{
				"type": "occ",
				"energy": -0.25849,
				"method": "rhf"
			},
			{
				"type": "occ",
				"energy": -0.25785,
				"method": "rhf"
			},
			{
				"type": "occ",
				"energy": -0.25464,
				"method": "rhf"
			},
			{
				"type": "unocc",
				"energy": -0.0198,
				"method": "rhf"
			},
			{
				"type": "unocc",
				"energy": -0.00957,
				"method": "rhf"
			},
			{
				"type": "unocc",
				"energy": -0.00811,
				"method": "rhf"
			},
			{
				"type": "unocc",
				"energy": 0.02699,
				"method": "rhf"
			},
			{
				"type": "unocc",
				"energy": 0.08495,
				"method": "rhf"
			}
		],
		"cosmo_sigma_profile": { 
			"-0.025": 0.0,
			"-0.024": 0.0,
			"-0.023": 0.0,
			"-0.022": 0.0,
			"-0.021": 0.0,
			"-0.02": 0.0,
			"-0.019": 0.0,
			"-0.018": 0.0,
			"-0.017": 0.0,
			"-0.016": 0.0,
			"-0.015": 0.976849325089,
			"-0.014": 1.37620407218,
			"-0.013": 1.48687973692,
			"-0.012": 0.923143167293,
			"-0.011": 0.732737398136,
			"-0.01": 1.78559905991,
			"-0.009": 0.957112673425,
			"-0.008": 1.21307370221,
			"-0.007": 9.83163247263,
			"-0.006": 19.2606950622,
			"-0.005": 21.0849595326,
			"-0.004": 21.8794529478,
			"-0.003": 20.9976116538,
			"-0.002": 15.0679207291,
			"-0.001": 12.8032957423,
			"0.0": 10.4060488126,
			"0.001": 11.4914306761,
			"0.002": 13.382826849,
			"0.003": 13.3506637705,
			"0.004": 15.5580405691,
			"0.005": 14.2355230919,
			"0.006": 6.45068824154,
			"0.007": 3.07008608569,
			"0.008": 3.2421671925,
			"0.009": 2.97724769539,
			"0.01": 3.69280376822,
			"0.011": 4.66154312528,
			"0.012": 7.58717090234,
			"0.013": 5.61127939278,
			"0.014": 1.07798276958,
			"0.015": 0.0,
			"0.016": 0.0,
			"0.017": 0.0,
			"0.018": 0.0,
			"0.019": 0.0,
			"0.02": 0.0,
			"0.021": 0.0,
			"0.022": 0.0,
			"0.023": 0.0,
			"0.024": 0.0,
			"0.025": 0.0
		}
	}
}
