{
	 "smiles": "COCCOC(C)=O", 
	 "Tm": 208.15, 
	 "num_atms": 18, 
	 "gaussian": { 
		 "optdone": 1, 
		 "sigma_profile": "yes", 
		 "theory": "DFT", 
		 "functional": "B3LYP", 
		 "basiset": "6-31G**", 
		 "properties": { 
			 "R2extent": 1148.8871, 
			 "electric_dipole_moment_norm": 1.50408053308, 
			 "electric_quadrupole_moment_norm": 8.38431743316, 
			 "total_energy": -422.225008461, 
			 "HOMO_LUMO_gap": 0.26872, 
			 "cosmo_polarized_energy": -8.31, 
			 "cosmo_cavitation_energy": 21.01, 
			 "cosmo_dispersion_energy": -15.39, 
			 "cosmo_repulsion_energy": 1.31, 
			 "cosmo_total_nonelectrostatic_energy": 6.93, 
			 "SMD_solvation_energy": 5.54 
		},
		"coords": [
			{
				"x": 1.0285097598,
				"y": 1.3972072651,
				"z": -1.5506901589,
				"element": "C" 
			},
			{
				"x": 1.3370492543,
				"y": 0.2627403585,
				"z": -0.7549995077,
				"element": "O" 
			},
			{
				"x": 0.8830006856,
				"y": -0.9644121268,
				"z": -1.2808022304,
				"element": "C" 
			},
			{
				"x": -0.6240564479,
				"y": -1.1850268855,
				"z": -1.1596147492,
				"element": "C" 
			},
			{
				"x": -1.0105144161,
				"y": -1.1883525324,
				"z": 0.2266956032,
				"element": "O" 
			},
			{
				"x": -1.5520671736,
				"y": -0.0482621552,
				"z": 0.7211138559,
				"element": "C" 
			},
			{
				"x": -1.7578343905,
				"y": -0.1651043344,
				"z": 2.2117626926,
				"element": "C" 
			},
			{
				"x": -1.8324196328,
				"y": 0.9232117655,
				"z": 0.052345636,
				"element": "O" 
			},
			{
				"x": 1.3717178717,
				"y": 1.262872565,
				"z": -2.5886380305,
				"element": "H" 
			},
			{
				"x": -0.0443235738,
				"y": 1.6237882847,
				"z": -1.5466710717,
				"element": "H" 
			},
			{
				"x": 1.5650572209,
				"y": 2.2416397495,
				"z": -1.1112906682,
				"element": "H" 
			},
			{
				"x": 1.4023306489,
				"y": -1.7436983405,
				"z": -0.7130712671,
				"element": "H" 
			},
			{
				"x": 1.1628697466,
				"y": -1.0737340524,
				"z": -2.343534252,
				"element": "H" 
			},
			{
				"x": -0.8816622657,
				"y": -2.1737935239,
				"z": -1.5515824224,
				"element": "H" 
			},
			{
				"x": -1.1979829192,
				"y": -0.4240819744,
				"z": -1.6919096241,
				"element": "H" 
			},
			{
				"x": -2.2191367628,
				"y": -1.1230821665,
				"z": 2.4642781479,
				"element": "H" 
			},
			{
				"x": -0.7852048316,
				"y": -0.1251255153,
				"z": 2.7127871648,
				"element": "H" 
			},
			{
				"x": -2.3774327738,
				"y": 0.6612136188,
				"z": 2.5590208819,
				"element": "H" 
			}
		],
		 "valence_orbital": [ 
			{
				"type": "occ",
				"energy": -0.34332,
				"method": "rhf"
			},
			{
				"type": "occ",
				"energy": -0.31358,
				"method": "rhf"
			},
			{
				"type": "occ",
				"energy": -0.29914,
				"method": "rhf"
			},
			{
				"type": "occ",
				"energy": -0.27016,
				"method": "rhf"
			},
			{
				"type": "occ",
				"energy": -0.25373,
				"method": "rhf"
			},
			{
				"type": "unocc",
				"energy": 0.01499,
				"method": "rhf"
			},
			{
				"type": "unocc",
				"energy": 0.09418,
				"method": "rhf"
			},
			{
				"type": "unocc",
				"energy": 0.11351,
				"method": "rhf"
			},
			{
				"type": "unocc",
				"energy": 0.12563,
				"method": "rhf"
			},
			{
				"type": "unocc",
				"energy": 0.13295,
				"method": "rhf"
			}
		],
		"cosmo_sigma_profile": { 
			"-0.025": 0.0,
			"-0.024": 0.0,
			"-0.023": 0.0,
			"-0.022": 0.0,
			"-0.021": 0.0,
			"-0.02": 0.0,
			"-0.019": 0.0,
			"-0.018": 0.0,
			"-0.017": 0.0,
			"-0.016": 0.0,
			"-0.015": 0.0,
			"-0.014": 0.0,
			"-0.013": 0.0,
			"-0.012": 0.0,
			"-0.011": 0.0,
			"-0.01": 0.0,
			"-0.009": 0.0,
			"-0.008": 0.0,
			"-0.007": 1.46091150923,
			"-0.006": 8.27764244807,
			"-0.005": 17.3203786708,
			"-0.004": 21.8751050966,
			"-0.003": 19.1113899321,
			"-0.002": 21.3745779829,
			"-0.001": 13.6163703245,
			"0.0": 7.11032590886,
			"0.001": 5.6212611771,
			"0.002": 4.07793613166,
			"0.003": 5.28861226973,
			"0.004": 4.56405674127,
			"0.005": 4.43643214521,
			"0.006": 5.92705221289,
			"0.007": 4.74374775923,
			"0.008": 2.90486712934,
			"0.009": 3.34630723007,
			"0.01": 3.32952079504,
			"0.011": 3.34547254235,
			"0.012": 3.68723579498,
			"0.013": 2.84376622571,
			"0.014": 0.248753362533,
			"0.015": 0.0,
			"0.016": 0.0,
			"0.017": 0.0,
			"0.018": 0.0,
			"0.019": 0.0,
			"0.02": 0.0,
			"0.021": 0.0,
			"0.022": 0.0,
			"0.023": 0.0,
			"0.024": 0.0,
			"0.025": 0.0
		}
	}
}
