{
	 "smiles": "ClCCC(=O)N1CCN(CC1)C1=NC=CC=C1", 
	 "Tm": 371.15, 
	 "num_atms": 33, 
	 "gaussian": { 
		 "optdone": 1, 
		 "sigma_profile": "yes", 
		 "theory": "DFT", 
		 "functional": "B3LYP", 
		 "basiset": "6-31G**", 
		 "properties": { 
			 "R2extent": 8424.9885, 
			 "electric_dipole_moment_norm": 3.96286761576, 
			 "electric_quadrupole_moment_norm": 16.3018672461, 
			 "total_energy": -1166.60479962, 
			 "HOMO_LUMO_gap": 0.18714, 
			 "cosmo_polarized_energy": -15.48, 
			 "cosmo_cavitation_energy": 36.65, 
			 "cosmo_dispersion_energy": -27.01, 
			 "cosmo_repulsion_energy": 2.11, 
			 "cosmo_total_nonelectrostatic_energy": 11.75, 
			 "SMD_solvation_energy": 3.68 
		},
		"coords": [
			{
				"x": 0.8584097633,
				"y": 3.7795209566,
				"z": 6.131285715,
				"element": "Cl" 
			},
			{
				"x": 1.6704033975,
				"y": 2.5975235146,
				"z": 5.0127142184,
				"element": "C" 
			},
			{
				"x": 0.6851660601,
				"y": 2.0942274717,
				"z": 3.9656739905,
				"element": "C" 
			},
			{
				"x": 1.3825996846,
				"y": 1.1068661592,
				"z": 3.0261711586,
				"element": "C" 
			},
			{
				"x": 2.5816810879,
				"y": 0.8625132457,
				"z": 3.1463527112,
				"element": "O" 
			},
			{
				"x": 0.630599587,
				"y": 0.5057151233,
				"z": 2.0535056505,
				"element": "N" 
			},
			{
				"x": 1.3042253327,
				"y": -0.4771660155,
				"z": 1.1870664488,
				"element": "C" 
			},
			{
				"x": 0.2773074137,
				"y": -1.3073072096,
				"z": 0.422084553,
				"element": "C" 
			},
			{
				"x": -0.6403368971,
				"y": -0.4464481231,
				"z": -0.3214994813,
				"element": "N" 
			},
			{
				"x": -1.1334421028,
				"y": 0.7480497533,
				"z": 0.3491387173,
				"element": "C" 
			},
			{
				"x": -0.80006325,
				"y": 0.7055849358,
				"z": 1.8428439021,
				"element": "C" 
			},
			{
				"x": -0.9552183702,
				"y": -0.6985803135,
				"z": -1.6426682996,
				"element": "C" 
			},
			{
				"x": -0.4744519869,
				"y": -1.8376877331,
				"z": -2.1756728641,
				"element": "N" 
			},
			{
				"x": -0.7640947577,
				"y": -2.1169774947,
				"z": -3.4495460987,
				"element": "C" 
			},
			{
				"x": -1.5429457804,
				"y": -1.3075886353,
				"z": -4.2719385582,
				"element": "C" 
			},
			{
				"x": -2.037351942,
				"y": -0.1234287234,
				"z": -3.7178278894,
				"element": "C" 
			},
			{
				"x": -1.7485098386,
				"y": 0.199203085,
				"z": -2.3994369109,
				"element": "C" 
			},
			{
				"x": 2.0523234805,
				"y": 1.7862397189,
				"z": 5.6300923153,
				"element": "H" 
			},
			{
				"x": 2.5125304908,
				"y": 3.1149990075,
				"z": 4.5572385856,
				"element": "H" 
			},
			{
				"x": 0.2877607547,
				"y": 2.943813908,
				"z": 3.3975117414,
				"element": "H" 
			},
			{
				"x": -0.1715539856,
				"y": 1.6197637849,
				"z": 4.4575198617,
				"element": "H" 
			},
			{
				"x": 1.9343022933,
				"y": -1.1213387183,
				"z": 1.8072226983,
				"element": "H" 
			},
			{
				"x": 1.968582695,
				"y": 0.0433957464,
				"z": 0.4864717499,
				"element": "H" 
			},
			{
				"x": 0.7794305895,
				"y": -1.9552777456,
				"z": -0.2953780076,
				"element": "H" 
			},
			{
				"x": -0.2733819389,
				"y": -1.9614139193,
				"z": 1.1143370898,
				"element": "H" 
			},
			{
				"x": -0.6991478007,
				"y": 1.659232012,
				"z": -0.0922814372,
				"element": "H" 
			},
			{
				"x": -2.2246193446,
				"y": 0.8253013987,
				"z": 0.2448747798,
				"element": "H" 
			},
			{
				"x": -1.1134412513,
				"y": 1.6500464193,
				"z": 2.288488682,
				"element": "H" 
			},
			{
				"x": -1.3839697114,
				"y": -0.0906966468,
				"z": 2.3267366044,
				"element": "H" 
			},
			{
				"x": -0.347271939,
				"y": -3.0485019874,
				"z": -3.8306506307,
				"element": "H" 
			},
			{
				"x": -1.7499486285,
				"y": -1.589813696,
				"z": -5.2981701931,
				"element": "H" 
			},
			{
				"x": -2.6440857158,
				"y": 0.5532172311,
				"z": -4.3136231017,
				"element": "H" 
			},
			{
				"x": -2.117687389,
				"y": 1.1238134896,
				"z": -1.9736377011,
				"element": "H" 
			}
		],
		 "valence_orbital": [ 
			{
				"type": "occ",
				"energy": -0.27854,
				"method": "rhf"
			},
			{
				"type": "occ",
				"energy": -0.25764,
				"method": "rhf"
			},
			{
				"type": "occ",
				"energy": -0.25501,
				"method": "rhf"
			},
			{
				"type": "occ",
				"energy": -0.24783,
				"method": "rhf"
			},
			{
				"type": "occ",
				"energy": -0.20524,
				"method": "rhf"
			},
			{
				"type": "unocc",
				"energy": -0.0181,
				"method": "rhf"
			},
			{
				"type": "unocc",
				"energy": 0.00826,
				"method": "rhf"
			},
			{
				"type": "unocc",
				"energy": 0.01785,
				"method": "rhf"
			},
			{
				"type": "unocc",
				"energy": 0.02872,
				"method": "rhf"
			},
			{
				"type": "unocc",
				"energy": 0.06517,
				"method": "rhf"
			}
		],
		"cosmo_sigma_profile": { 
			"-0.025": 0.0,
			"-0.024": 0.0,
			"-0.023": 0.0,
			"-0.022": 0.0,
			"-0.021": 0.0,
			"-0.02": 0.0,
			"-0.019": 0.0,
			"-0.018": 0.0,
			"-0.017": 0.0,
			"-0.016": 0.0,
			"-0.015": 0.0,
			"-0.014": 0.0,
			"-0.013": 0.0,
			"-0.012": 0.0,
			"-0.011": 0.0,
			"-0.01": 0.0,
			"-0.009": 0.0932527604395,
			"-0.008": 1.96438353671,
			"-0.007": 6.50779894866,
			"-0.006": 20.9664990034,
			"-0.005": 32.607918584,
			"-0.004": 35.7184715869,
			"-0.003": 26.1190932698,
			"-0.002": 17.4508110569,
			"-0.001": 15.4940280917,
			"0.0": 14.5498336061,
			"0.001": 12.3170352572,
			"0.002": 13.7801753104,
			"0.003": 15.0784198443,
			"0.004": 18.6948244546,
			"0.005": 15.94159841,
			"0.006": 14.5396978844,
			"0.007": 7.9078071144,
			"0.008": 2.62567140592,
			"0.009": 2.77970407311,
			"0.01": 3.11211400491,
			"0.011": 2.68183831453,
			"0.012": 2.75529591509,
			"0.013": 3.28459343026,
			"0.014": 4.12864965734,
			"0.015": 0.0650575798973,
			"0.016": 0.0,
			"0.017": 0.0,
			"0.018": 0.0,
			"0.019": 0.0,
			"0.02": 0.0,
			"0.021": 0.0,
			"0.022": 0.0,
			"0.023": 0.0,
			"0.024": 0.0,
			"0.025": 0.0
		}
	}
}
