{
	 "smiles": "NC(=S)C1=NC=CC=C1", 
	 "Tm": 409.15, 
	 "num_atms": 15, 
	 "gaussian": { 
		 "optdone": 1, 
		 "sigma_profile": "yes", 
		 "theory": "DFT", 
		 "functional": "B3LYP", 
		 "basiset": "6-31G**", 
		 "properties": { 
			 "R2extent": 1683.7186, 
			 "electric_dipole_moment_norm": 4.22558527425, 
			 "electric_quadrupole_moment_norm": 16.7074227214, 
			 "total_energy": -739.955617433, 
			 "HOMO_LUMO_gap": 0.1372, 
			 "cosmo_polarized_energy": -11.87, 
			 "cosmo_cavitation_energy": 20.83, 
			 "cosmo_dispersion_energy": -16.27, 
			 "cosmo_repulsion_energy": 1.29, 
			 "cosmo_total_nonelectrostatic_energy": 5.85, 
			 "SMD_solvation_energy": 2.03 
		},
		"coords": [
			{
				"x": -1.8133505009,
				"y": -0.4731453196,
				"z": -1.7048532172,
				"element": "N" 
			},
			{
				"x": -0.5405019982,
				"y": -0.8855259917,
				"z": -1.7642798667,
				"element": "C" 
			},
			{
				"x": 0.0713536853,
				"y": -1.8100799409,
				"z": -3.0132466683,
				"element": "S" 
			},
			{
				"x": 0.2782823497,
				"y": -0.4268462384,
				"z": -0.5882505554,
				"element": "C" 
			},
			{
				"x": -0.3769452406,
				"y": 0.3118535366,
				"z": 0.3264095204,
				"element": "N" 
			},
			{
				"x": 0.2982579886,
				"y": 0.7472969186,
				"z": 1.3923173656,
				"element": "C" 
			},
			{
				"x": 1.6509717003,
				"y": 0.4731296705,
				"z": 1.6034625328,
				"element": "C" 
			},
			{
				"x": 2.3263316547,
				"y": -0.2925831569,
				"z": 0.6534680492,
				"element": "C" 
			},
			{
				"x": 1.6326682216,
				"y": -0.7526721356,
				"z": -0.4629794276,
				"element": "C" 
			},
			{
				"x": -2.0986577203,
				"y": 0.0857606794,
				"z": -0.9084079771,
				"element": "H" 
			},
			{
				"x": -2.4530962883,
				"y": -0.7230450243,
				"z": -2.4424979648,
				"element": "H" 
			},
			{
				"x": -0.264861177,
				"y": 1.341151879,
				"z": 2.1095415652,
				"element": "H" 
			},
			{
				"x": 2.1538895487,
				"y": 0.8512062051,
				"z": 2.4875979106,
				"element": "H" 
			},
			{
				"x": 3.3787624825,
				"y": -0.528911155,
				"z": 0.779167773,
				"element": "H" 
			},
			{
				"x": 2.1050952939,
				"y": -1.3510899265,
				"z": -1.2328490396,
				"element": "H" 
			}
		],
		 "valence_orbital": [ 
			{
				"type": "occ",
				"energy": -0.30137,
				"method": "rhf"
			},
			{
				"type": "occ",
				"energy": -0.28278,
				"method": "rhf"
			},
			{
				"type": "occ",
				"energy": -0.27644,
				"method": "rhf"
			},
			{
				"type": "occ",
				"energy": -0.22618,
				"method": "rhf"
			},
			{
				"type": "occ",
				"energy": -0.20853,
				"method": "rhf"
			},
			{
				"type": "unocc",
				"energy": -0.07133,
				"method": "rhf"
			},
			{
				"type": "unocc",
				"energy": -0.03329,
				"method": "rhf"
			},
			{
				"type": "unocc",
				"energy": 0.02357,
				"method": "rhf"
			},
			{
				"type": "unocc",
				"energy": 0.08237,
				"method": "rhf"
			},
			{
				"type": "unocc",
				"energy": 0.09688,
				"method": "rhf"
			}
		],
		"cosmo_sigma_profile": { 
			"-0.025": 0.0,
			"-0.024": 0.0,
			"-0.023": 0.0,
			"-0.022": 0.0,
			"-0.021": 0.0,
			"-0.02": 0.0,
			"-0.019": 0.0,
			"-0.018": 0.0,
			"-0.017": 0.0,
			"-0.016": 0.00761688904766,
			"-0.015": 0.834010340608,
			"-0.014": 1.13981198877,
			"-0.013": 1.61719096591,
			"-0.012": 1.53890343851,
			"-0.011": 2.08224659532,
			"-0.01": 2.41976210219,
			"-0.009": 1.13076453179,
			"-0.008": 3.08742646077,
			"-0.007": 8.86147595294,
			"-0.006": 10.3322178972,
			"-0.005": 8.52794930567,
			"-0.004": 7.52659891952,
			"-0.003": 6.51221175254,
			"-0.002": 6.07149757846,
			"-0.001": 9.69548986199,
			"0.0": 15.1663965209,
			"0.001": 20.4369901896,
			"0.002": 12.4185620461,
			"0.003": 6.66334768274,
			"0.004": 5.51844081562,
			"0.005": 5.71700188634,
			"0.006": 5.88158356902,
			"0.007": 6.15651788222,
			"0.008": 4.9319485388,
			"0.009": 8.61872357964,
			"0.01": 4.14902676763,
			"0.011": 1.94462978948,
			"0.012": 1.06153718667,
			"0.013": 0.0318874210166,
			"0.014": 0.0,
			"0.015": 0.0,
			"0.016": 0.0,
			"0.017": 0.0,
			"0.018": 0.0,
			"0.019": 0.0,
			"0.02": 0.0,
			"0.021": 0.0,
			"0.022": 0.0,
			"0.023": 0.0,
			"0.024": 0.0,
			"0.025": 0.0
		}
	}
}
