{
	 "smiles": "CC(N)C1=CC(NC(=O)C2=CC=CC=C2)=CC=C1", 
	 "Tm": 389.15, 
	 "num_atms": 34, 
	 "gaussian": { 
		 "optdone": 1, 
		 "sigma_profile": "yes", 
		 "theory": "DFT", 
		 "functional": "B3LYP", 
		 "basiset": "6-31G**", 
		 "properties": { 
			 "R2extent": 6820.7882, 
			 "electric_dipole_moment_norm": 4.32499976994, 
			 "electric_quadrupole_moment_norm": 9.36550541028, 
			 "total_energy": -765.991684486, 
			 "HOMO_LUMO_gap": 0.1722, 
			 "cosmo_polarized_energy": -15.62, 
			 "cosmo_cavitation_energy": 37.56, 
			 "cosmo_dispersion_energy": -26.72, 
			 "cosmo_repulsion_energy": 2.05, 
			 "cosmo_total_nonelectrostatic_energy": 12.9, 
			 "SMD_solvation_energy": 5.55 
		},
		"coords": [
			{
				"x": -3.6955998989,
				"y": -1.8134796938,
				"z": -0.839841259,
				"element": "C" 
			},
			{
				"x": -2.901364975,
				"y": -0.9684346443,
				"z": -1.8488426145,
				"element": "C" 
			},
			{
				"x": -3.2817487099,
				"y": 0.4368551359,
				"z": -1.6825479519,
				"element": "N" 
			},
			{
				"x": -1.4037103992,
				"y": -1.2808786051,
				"z": -1.7538029913,
				"element": "C" 
			},
			{
				"x": -0.5730269069,
				"y": -0.5446981819,
				"z": -0.902957812,
				"element": "C" 
			},
			{
				"x": 0.7889864439,
				"y": -0.8613199539,
				"z": -0.7944964612,
				"element": "C" 
			},
			{
				"x": 1.6784919286,
				"y": -0.1658894793,
				"z": 0.0527856647,
				"element": "N" 
			},
			{
				"x": 1.443238929,
				"y": 0.9427916504,
				"z": 0.8364027601,
				"element": "C" 
			},
			{
				"x": 0.3693410955,
				"y": 1.5356724291,
				"z": 0.8780450823,
				"element": "O" 
			},
			{
				"x": 2.6231528763,
				"y": 1.4088234122,
				"z": 1.6462691162,
				"element": "C" 
			},
			{
				"x": 3.6723092287,
				"y": 0.5698662395,
				"z": 2.0503586129,
				"element": "C" 
			},
			{
				"x": 4.7261709841,
				"y": 1.0754915832,
				"z": 2.8121377283,
				"element": "C" 
			},
			{
				"x": 4.7420891312,
				"y": 2.4227245178,
				"z": 3.1770476659,
				"element": "C" 
			},
			{
				"x": 3.692383041,
				"y": 3.2604708135,
				"z": 2.7908066778,
				"element": "C" 
			},
			{
				"x": 2.6357633742,
				"y": 2.7547874826,
				"z": 2.0377094573,
				"element": "C" 
			},
			{
				"x": 1.3183282069,
				"y": -1.9205910417,
				"z": -1.5483731986,
				"element": "C" 
			},
			{
				"x": 0.4910715971,
				"y": -2.648152359,
				"z": -2.3985687684,
				"element": "C" 
			},
			{
				"x": -0.8633933361,
				"y": -2.3326348546,
				"z": -2.5041770521,
				"element": "C" 
			},
			{
				"x": -4.7659131473,
				"y": -1.6149376486,
				"z": -0.9461691476,
				"element": "H" 
			},
			{
				"x": -3.5128681711,
				"y": -2.881350735,
				"z": -0.9888975427,
				"element": "H" 
			},
			{
				"x": -3.3965495311,
				"y": -1.5650851391,
				"z": 0.1854388407,
				"element": "H" 
			},
			{
				"x": -3.2244106554,
				"y": -1.2638522738,
				"z": -2.856632254,
				"element": "H" 
			},
			{
				"x": -2.6937848417,
				"y": 1.0315518598,
				"z": -2.2620130758,
				"element": "H" 
			},
			{
				"x": -3.126844394,
				"y": 0.7327056954,
				"z": -0.7210846428,
				"element": "H" 
			},
			{
				"x": -0.9590392501,
				"y": 0.286602926,
				"z": -0.3309696997,
				"element": "H" 
			},
			{
				"x": 2.6364293875,
				"y": -0.4803429308,
				"z": 0.00902344,
				"element": "H" 
			},
			{
				"x": 3.6570708212,
				"y": -0.4904399443,
				"z": 1.8119955853,
				"element": "H" 
			},
			{
				"x": 5.5280531666,
				"y": 0.4149359294,
				"z": 3.1285580196,
				"element": "H" 
			},
			{
				"x": 5.5642659367,
				"y": 2.8158806408,
				"z": 3.7679739954,
				"element": "H" 
			},
			{
				"x": 3.6972646449,
				"y": 4.3072946223,
				"z": 3.0801247698,
				"element": "H" 
			},
			{
				"x": 1.803552752,
				"y": 3.3836411641,
				"z": 1.7404001175,
				"element": "H" 
			},
			{
				"x": 2.3752461619,
				"y": -2.1667830288,
				"z": -1.472008065,
				"element": "H" 
			},
			{
				"x": 0.9094867576,
				"y": -3.4610313488,
				"z": -2.9854014048,
				"element": "H" 
			},
			{
				"x": -1.5029422481,
				"y": -2.9009942392,
				"z": -3.1751935923,
				"element": "H" 
			}
		],
		 "valence_orbital": [ 
			{
				"type": "occ",
				"energy": -0.26417,
				"method": "rhf"
			},
			{
				"type": "occ",
				"energy": -0.25289,
				"method": "rhf"
			},
			{
				"type": "occ",
				"energy": -0.24855,
				"method": "rhf"
			},
			{
				"type": "occ",
				"energy": -0.22682,
				"method": "rhf"
			},
			{
				"type": "occ",
				"energy": -0.21758,
				"method": "rhf"
			},
			{
				"type": "unocc",
				"energy": -0.04538,
				"method": "rhf"
			},
			{
				"type": "unocc",
				"energy": -0.01474,
				"method": "rhf"
			},
			{
				"type": "unocc",
				"energy": 0.00044,
				"method": "rhf"
			},
			{
				"type": "unocc",
				"energy": 0.00697,
				"method": "rhf"
			},
			{
				"type": "unocc",
				"energy": 0.06171,
				"method": "rhf"
			}
		],
		"cosmo_sigma_profile": { 
			"-0.025": 0.0,
			"-0.024": 0.0,
			"-0.023": 0.0,
			"-0.022": 0.0,
			"-0.021": 0.0,
			"-0.02": 0.0,
			"-0.019": 0.0,
			"-0.018": 0.0,
			"-0.017": 0.0,
			"-0.016": 0.0,
			"-0.015": 0.272524000026,
			"-0.014": 1.56985071219,
			"-0.013": 1.35531500573,
			"-0.012": 1.21804492894,
			"-0.011": 1.19053101132,
			"-0.01": 2.20935576534,
			"-0.009": 3.52872619225,
			"-0.008": 4.05669428039,
			"-0.007": 7.84400609234,
			"-0.006": 14.0142913948,
			"-0.005": 17.7746266957,
			"-0.004": 22.6644375737,
			"-0.003": 23.561257304,
			"-0.002": 21.5914288353,
			"-0.001": 21.4816914577,
			"0.0": 20.4228971881,
			"0.001": 23.6036466605,
			"0.002": 19.1921274582,
			"0.003": 19.2663931489,
			"0.004": 24.3000116981,
			"0.005": 14.7337133939,
			"0.006": 8.60716070934,
			"0.007": 3.42463242335,
			"0.008": 2.39936448939,
			"0.009": 2.44486618848,
			"0.01": 2.56959079679,
			"0.011": 2.68557326557,
			"0.012": 2.93801800766,
			"0.013": 3.35578313903,
			"0.014": 1.02988887516,
			"0.015": 0.489079278396,
			"0.016": 0.504062905249,
			"0.017": 0.995033643421,
			"0.018": 0.389189819454,
			"0.019": 0.499386017315,
			"0.02": 0.112318224903,
			"0.021": 0.0,
			"0.022": 0.0,
			"0.023": 0.0,
			"0.024": 0.0,
			"0.025": 0.0
		}
	}
}
