{
	 "smiles": "CN1C(=O)N(C)C(=O)C(=NNC2=CC(Cl)=CC=C2)C1=O", 
	 "Tm": 475.15, 
	 "num_atms": 31, 
	 "gaussian": { 
		 "optdone": 1, 
		 "sigma_profile": "yes", 
		 "theory": "DFT", 
		 "functional": "B3LYP", 
		 "basiset": "6-31G**", 
		 "properties": { 
			 "R2extent": 10485.8244, 
			 "electric_dipole_moment_norm": 3.71905180927, 
			 "electric_quadrupole_moment_norm": 16.2033862865, 
			 "total_energy": -1368.80325455, 
			 "HOMO_LUMO_gap": 0.13837, 
			 "cosmo_polarized_energy": -15.95, 
			 "cosmo_cavitation_energy": 38.01, 
			 "cosmo_dispersion_energy": -27.84, 
			 "cosmo_repulsion_energy": 2.1, 
			 "cosmo_total_nonelectrostatic_energy": 12.27, 
			 "SMD_solvation_energy": 7.7 
		},
		"coords": [
			{
				"x": -0.072456768,
				"y": -1.4189725046,
				"z": -2.8508416703,
				"element": "C" 
			},
			{
				"x": -0.0974707756,
				"y": -0.1129651351,
				"z": -2.1800155119,
				"element": "N" 
			},
			{
				"x": 0.358123494,
				"y": 0.9773438239,
				"z": -2.9397725028,
				"element": "C" 
			},
			{
				"x": 0.7446825867,
				"y": 0.8163708786,
				"z": -4.0846310618,
				"element": "O" 
			},
			{
				"x": 0.3483836396,
				"y": 2.2295660568,
				"z": -2.3362071344,
				"element": "N" 
			},
			{
				"x": 0.8319227604,
				"y": 3.3423861354,
				"z": -3.1629377739,
				"element": "C" 
			},
			{
				"x": -0.0804544248,
				"y": 2.5002178523,
				"z": -1.0221561387,
				"element": "C" 
			},
			{
				"x": -0.0562547957,
				"y": 3.6301743663,
				"z": -0.5673717702,
				"element": "O" 
			},
			{
				"x": -0.5485862505,
				"y": 1.3135462515,
				"z": -0.272559954,
				"element": "C" 
			},
			{
				"x": -0.9524402738,
				"y": 1.5584834035,
				"z": 0.9584278536,
				"element": "N" 
			},
			{
				"x": -1.3886573243,
				"y": 0.6037888024,
				"z": 1.7264794994,
				"element": "N" 
			},
			{
				"x": -1.8181560604,
				"y": 0.872259832,
				"z": 3.0383151853,
				"element": "C" 
			},
			{
				"x": -1.7880252139,
				"y": 2.1732551372,
				"z": 3.5569221205,
				"element": "C" 
			},
			{
				"x": -2.2267005471,
				"y": 2.3706586616,
				"z": 4.8612417675,
				"element": "C" 
			},
			{
				"x": -2.1966744557,
				"y": 3.99397592,
				"z": 5.5293192877,
				"element": "Cl" 
			},
			{
				"x": -2.6899342537,
				"y": 1.3181110978,
				"z": 5.6551250107,
				"element": "C" 
			},
			{
				"x": -2.7097243544,
				"y": 0.0322802096,
				"z": 5.1149192714,
				"element": "C" 
			},
			{
				"x": -2.2773293712,
				"y": -0.2009820696,
				"z": 3.8114077548,
				"element": "C" 
			},
			{
				"x": -0.5534414004,
				"y": -0.0212168579,
				"z": -0.8741228899,
				"element": "C" 
			},
			{
				"x": -0.9424623456,
				"y": -1.0270622916,
				"z": -0.2595093067,
				"element": "O" 
			},
			{
				"x": -0.4498087658,
				"y": -2.1564742757,
				"z": -2.1469683075,
				"element": "H" 
			},
			{
				"x": -0.6969913363,
				"y": -1.387367675,
				"z": -3.7454296151,
				"element": "H" 
			},
			{
				"x": 0.9487085777,
				"y": -1.6615606098,
				"z": -3.1503771664,
				"element": "H" 
			},
			{
				"x": 0.7612673449,
				"y": 4.244458652,
				"z": -2.5601086587,
				"element": "H" 
			},
			{
				"x": 1.865645459,
				"y": 3.1614089845,
				"z": -3.4640513318,
				"element": "H" 
			},
			{
				"x": 0.2195067287,
				"y": 3.4318911221,
				"z": -4.0622892247,
				"element": "H" 
			},
			{
				"x": -1.4076857357,
				"y": -0.3497946985,
				"z": 1.3402859449,
				"element": "H" 
			},
			{
				"x": -1.4302277902,
				"y": 2.992592563,
				"z": 2.946513749,
				"element": "H" 
			},
			{
				"x": -3.0249120292,
				"y": 1.5062498484,
				"z": 6.6684022854,
				"element": "H" 
			},
			{
				"x": -3.0665403287,
				"y": -0.7968052208,
				"z": 5.7178808968,
				"element": "H" 
			},
			{
				"x": -2.2944059903,
				"y": -1.2037182601,
				"z": 3.3945093916,
				"element": "H" 
			}
		],
		 "valence_orbital": [ 
			{
				"type": "occ",
				"energy": -0.28932,
				"method": "rhf"
			},
			{
				"type": "occ",
				"energy": -0.27647,
				"method": "rhf"
			},
			{
				"type": "occ",
				"energy": -0.26279,
				"method": "rhf"
			},
			{
				"type": "occ",
				"energy": -0.26248,
				"method": "rhf"
			},
			{
				"type": "occ",
				"energy": -0.23457,
				"method": "rhf"
			},
			{
				"type": "unocc",
				"energy": -0.0962,
				"method": "rhf"
			},
			{
				"type": "unocc",
				"energy": -0.02602,
				"method": "rhf"
			},
			{
				"type": "unocc",
				"energy": -0.01,
				"method": "rhf"
			},
			{
				"type": "unocc",
				"energy": -0.00298,
				"method": "rhf"
			},
			{
				"type": "unocc",
				"energy": 0.01707,
				"method": "rhf"
			}
		],
		"cosmo_sigma_profile": { 
			"-0.025": 0.0,
			"-0.024": 0.0,
			"-0.023": 0.0,
			"-0.022": 0.0,
			"-0.021": 0.0,
			"-0.02": 0.0,
			"-0.019": 0.0,
			"-0.018": 0.0,
			"-0.017": 0.0,
			"-0.016": 0.0,
			"-0.015": 0.0,
			"-0.014": 0.00228537864887,
			"-0.013": 0.376454976629,
			"-0.012": 0.657616775142,
			"-0.011": 1.29335154654,
			"-0.01": 1.50742539959,
			"-0.009": 1.46835010159,
			"-0.008": 4.14764332367,
			"-0.007": 9.22759881318,
			"-0.006": 15.6384405579,
			"-0.005": 23.9234682738,
			"-0.004": 28.0596447617,
			"-0.003": 28.2398245579,
			"-0.002": 25.5100682818,
			"-0.001": 19.955558029,
			"0.0": 19.0080004448,
			"0.001": 21.3502464948,
			"0.002": 23.389548211,
			"0.003": 18.5664086738,
			"0.004": 14.8099763425,
			"0.005": 8.74203049631,
			"0.006": 4.64013548834,
			"0.007": 3.36723271386,
			"0.008": 4.47550931333,
			"0.009": 5.05344513583,
			"0.01": 5.56672279976,
			"0.011": 6.92229427946,
			"0.012": 8.12507687371,
			"0.013": 2.94451052403,
			"0.014": 0.471200740363,
			"0.015": 0.0,
			"0.016": 0.0,
			"0.017": 0.0,
			"0.018": 0.0,
			"0.019": 0.0,
			"0.02": 0.0,
			"0.021": 0.0,
			"0.022": 0.0,
			"0.023": 0.0,
			"0.024": 0.0,
			"0.025": 0.0
		}
	}
}
