{
	 "smiles": "CCCCCC1=CC=CC=C1", 
	 "Tm": 198.15, 
	 "num_atms": 27, 
	 "gaussian": { 
		 "optdone": 1, 
		 "sigma_profile": "yes", 
		 "theory": "DFT", 
		 "functional": "B3LYP", 
		 "basiset": "6-31G**", 
		 "properties": { 
			 "R2extent": 2784.3951, 
			 "electric_dipole_moment_norm": 0.255360529448, 
			 "electric_quadrupole_moment_norm": 4.5240618906, 
			 "total_energy": -428.835450671, 
			 "HOMO_LUMO_gap": 0.23827, 
			 "cosmo_polarized_energy": -3.08, 
			 "cosmo_cavitation_energy": 28.97, 
			 "cosmo_dispersion_energy": -20.52, 
			 "cosmo_repulsion_energy": 1.69, 
			 "cosmo_total_nonelectrostatic_energy": 10.14, 
			 "SMD_solvation_energy": 4.44 
		},
		"coords": [
			{
				"x": 0.153394221,
				"y": 0.0693522313,
				"z": 4.2631047274,
				"element": "C" 
			},
			{
				"x": -1.1258834839,
				"y": -0.1940625942,
				"z": 3.4623262912,
				"element": "C" 
			},
			{
				"x": -0.8594987584,
				"y": -0.8137905884,
				"z": 2.084397177,
				"element": "C" 
			},
			{
				"x": -2.1389794963,
				"y": -1.0860473899,
				"z": 1.2849591848,
				"element": "C" 
			},
			{
				"x": -1.898429423,
				"y": -1.7109192538,
				"z": -0.1073875802,
				"element": "C" 
			},
			{
				"x": -1.1760445921,
				"y": -0.8001894736,
				"z": -1.0796618615,
				"element": "C" 
			},
			{
				"x": -1.8536474825,
				"y": 0.2627138279,
				"z": -1.6960267486,
				"element": "C" 
			},
			{
				"x": -1.1969168569,
				"y": 1.1195146225,
				"z": -2.5789886514,
				"element": "C" 
			},
			{
				"x": 0.1569255829,
				"y": 0.9282289337,
				"z": -2.8655375438,
				"element": "C" 
			},
			{
				"x": 0.8436725205,
				"y": -0.1261449272,
				"z": -2.262971053,
				"element": "C" 
			},
			{
				"x": 0.1806937721,
				"y": -0.9808685807,
				"z": -1.3793170096,
				"element": "C" 
			},
			{
				"x": 0.8204663926,
				"y": 0.7554534732,
				"z": 3.7288140229,
				"element": "H" 
			},
			{
				"x": -0.0683360868,
				"y": 0.5138028552,
				"z": 5.2390229701,
				"element": "H" 
			},
			{
				"x": 0.7088274901,
				"y": -0.8590540512,
				"z": 4.4393353384,
				"element": "H" 
			},
			{
				"x": -1.677235735,
				"y": 0.7474232422,
				"z": 3.3337504752,
				"element": "H" 
			},
			{
				"x": -1.7879316195,
				"y": -0.8562426726,
				"z": 4.0372271296,
				"element": "H" 
			},
			{
				"x": -0.201445189,
				"y": -0.1498645878,
				"z": 1.5089141398,
				"element": "H" 
			},
			{
				"x": -0.3054529965,
				"y": -1.7554866952,
				"z": 2.2122030867,
				"element": "H" 
			},
			{
				"x": -2.6997474185,
				"y": -0.1491786107,
				"z": 1.1644325451,
				"element": "H" 
			},
			{
				"x": -2.7882928713,
				"y": -1.760055999,
				"z": 1.8600501403,
				"element": "H" 
			},
			{
				"x": -2.8695903529,
				"y": -1.992754116,
				"z": -0.5334484272,
				"element": "H" 
			},
			{
				"x": -1.3308511504,
				"y": -2.6423249962,
				"z": 0.0114465761,
				"element": "H" 
			},
			{
				"x": -2.9098524934,
				"y": 0.4152821225,
				"z": -1.4848392595,
				"element": "H" 
			},
			{
				"x": -1.7426895404,
				"y": 1.9337403221,
				"z": -3.0480325405,
				"element": "H" 
			},
			{
				"x": 0.6693650848,
				"y": 1.5926593051,
				"z": -3.5554260845,
				"element": "H" 
			},
			{
				"x": 1.8957919235,
				"y": -0.2871666929,
				"z": -2.4817868647,
				"element": "H" 
			},
			{
				"x": 0.7222885594,
				"y": -1.8032197065,
				"z": -0.9179601804,
				"element": "H" 
			}
		],
		 "valence_orbital": [ 
			{
				"type": "occ",
				"energy": -0.31902,
				"method": "rhf"
			},
			{
				"type": "occ",
				"energy": -0.31486,
				"method": "rhf"
			},
			{
				"type": "occ",
				"energy": -0.31346,
				"method": "rhf"
			},
			{
				"type": "occ",
				"energy": -0.24424,
				"method": "rhf"
			},
			{
				"type": "occ",
				"energy": -0.2356,
				"method": "rhf"
			},
			{
				"type": "unocc",
				"energy": 0.00267,
				"method": "rhf"
			},
			{
				"type": "unocc",
				"energy": 0.00537,
				"method": "rhf"
			},
			{
				"type": "unocc",
				"energy": 0.09216,
				"method": "rhf"
			},
			{
				"type": "unocc",
				"energy": 0.10051,
				"method": "rhf"
			},
			{
				"type": "unocc",
				"energy": 0.11486,
				"method": "rhf"
			}
		],
		"cosmo_sigma_profile": { 
			"-0.025": 0.0,
			"-0.024": 0.0,
			"-0.023": 0.0,
			"-0.022": 0.0,
			"-0.021": 0.0,
			"-0.02": 0.0,
			"-0.019": 0.0,
			"-0.018": 0.0,
			"-0.017": 0.0,
			"-0.016": 0.0,
			"-0.015": 0.0,
			"-0.014": 0.0,
			"-0.013": 0.0,
			"-0.012": 0.0,
			"-0.011": 0.0,
			"-0.01": 0.0,
			"-0.009": 0.0,
			"-0.008": 0.0,
			"-0.007": 0.0,
			"-0.006": 0.836521046891,
			"-0.005": 7.95461027821,
			"-0.004": 11.4870039155,
			"-0.003": 19.5268056587,
			"-0.002": 29.1411349312,
			"-0.001": 36.5043572039,
			"0.0": 34.5629199859,
			"0.001": 29.4955464346,
			"0.002": 19.8991597884,
			"0.003": 8.28827152781,
			"0.004": 8.26230564673,
			"0.005": 7.65878057006,
			"0.006": 7.956671066,
			"0.007": 4.46575968135,
			"0.008": 0.0126648238765,
			"0.009": 0.0,
			"0.01": 0.0,
			"0.011": 0.0,
			"0.012": 0.0,
			"0.013": 0.0,
			"0.014": 0.0,
			"0.015": 0.0,
			"0.016": 0.0,
			"0.017": 0.0,
			"0.018": 0.0,
			"0.019": 0.0,
			"0.02": 0.0,
			"0.021": 0.0,
			"0.022": 0.0,
			"0.023": 0.0,
			"0.024": 0.0,
			"0.025": 0.0
		}
	}
}
