{
	 "smiles": "OC(=O)C1=C(SCC(=O)N2CCC3=C2C=CC=C3)C=CC=C1", 
	 "Tm": 426.15, 
	 "num_atms": 37, 
	 "gaussian": { 
		 "optdone": 1, 
		 "sigma_profile": "yes", 
		 "theory": "DFT", 
		 "functional": "B3LYP", 
		 "basiset": "6-31G**", 
		 "properties": { 
			 "R2extent": 5845.6364, 
			 "electric_dipole_moment_norm": 6.76296236053, 
			 "electric_quadrupole_moment_norm": 19.9808215339, 
			 "total_energy": -1335.46901413, 
			 "HOMO_LUMO_gap": 0.18223, 
			 "cosmo_polarized_energy": -21.6, 
			 "cosmo_cavitation_energy": 41.32, 
			 "cosmo_dispersion_energy": -27.21, 
			 "cosmo_repulsion_energy": 2.01, 
			 "cosmo_total_nonelectrostatic_energy": 16.12, 
			 "SMD_solvation_energy": 6.95 
		},
		"coords": [
			{
				"x": 1.2355816569,
				"y": 2.6357363494,
				"z": -0.473175243,
				"element": "O" 
			},
			{
				"x": 2.4422887208,
				"y": 2.046961998,
				"z": -0.277264271,
				"element": "C" 
			},
			{
				"x": 3.4584859061,
				"y": 2.6926946289,
				"z": -0.3263898918,
				"element": "O" 
			},
			{
				"x": 2.4108663361,
				"y": 0.5752030573,
				"z": 0.060991968,
				"element": "C" 
			},
			{
				"x": 2.0799559991,
				"y": -0.4170914246,
				"z": -0.882700399,
				"element": "C" 
			},
			{
				"x": 1.7980836651,
				"y": -0.0233078898,
				"z": -2.6166454102,
				"element": "S" 
			},
			{
				"x": -0.0401727501,
				"y": 0.1680497916,
				"z": -2.70636058,
				"element": "C" 
			},
			{
				"x": -0.7745788694,
				"y": -1.0506258703,
				"z": -2.1615864828,
				"element": "C" 
			},
			{
				"x": -0.7175643002,
				"y": -2.125867295,
				"z": -2.7447113235,
				"element": "O" 
			},
			{
				"x": -1.4346867011,
				"y": -0.9520602377,
				"z": -0.9500790896,
				"element": "N" 
			},
			{
				"x": -1.8228937239,
				"y": -2.2068803798,
				"z": -0.2606831936,
				"element": "C" 
			},
			{
				"x": -1.7297576154,
				"y": -1.8509070169,
				"z": 1.2370121896,
				"element": "C" 
			},
			{
				"x": -1.8866762192,
				"y": -0.347094758,
				"z": 1.2274475534,
				"element": "C" 
			},
			{
				"x": -1.6964095897,
				"y": 0.1365391662,
				"z": -0.080987575,
				"element": "C" 
			},
			{
				"x": -1.8625245755,
				"y": 1.4974691726,
				"z": -0.3596559101,
				"element": "C" 
			},
			{
				"x": -2.1419656826,
				"y": 2.3703605915,
				"z": 0.7030508358,
				"element": "C" 
			},
			{
				"x": -2.2861625521,
				"y": 1.8980211658,
				"z": 2.0064662917,
				"element": "C" 
			},
			{
				"x": -2.1719072149,
				"y": 0.5258969781,
				"z": 2.2672871941,
				"element": "C" 
			},
			{
				"x": 2.1103097517,
				"y": -1.7662408406,
				"z": -0.5000275357,
				"element": "C" 
			},
			{
				"x": 2.4458378828,
				"y": -2.1273950691,
				"z": 0.8052617867,
				"element": "C" 
			},
			{
				"x": 2.7852198188,
				"y": -1.1423430317,
				"z": 1.7350261187,
				"element": "C" 
			},
			{
				"x": 2.7796211358,
				"y": 0.1999200577,
				"z": 1.3595201996,
				"element": "C" 
			},
			{
				"x": 0.5131098909,
				"y": 2.0267378544,
				"z": -0.247236662,
				"element": "H" 
			},
			{
				"x": -0.3094299101,
				"y": 1.1124094712,
				"z": -2.2454322593,
				"element": "H" 
			},
			{
				"x": -0.2408444809,
				"y": 0.2278347899,
				"z": -3.7784867856,
				"element": "H" 
			},
			{
				"x": -1.1590426103,
				"y": -3.0085440595,
				"z": -0.5803509227,
				"element": "H" 
			},
			{
				"x": -2.8460874609,
				"y": -2.4776288954,
				"z": -0.5463382755,
				"element": "H" 
			},
			{
				"x": -0.750805737,
				"y": -2.1332867803,
				"z": 1.6451858544,
				"element": "H" 
			},
			{
				"x": -2.4958842234,
				"y": -2.3578679378,
				"z": 1.8298261358,
				"element": "H" 
			},
			{
				"x": -1.8388886131,
				"y": 1.8842582238,
				"z": -1.3710891878,
				"element": "H" 
			},
			{
				"x": -2.2665658314,
				"y": 3.4280547627,
				"z": 0.4922786821,
				"element": "H" 
			},
			{
				"x": -2.509191727,
				"y": 2.5887354408,
				"z": 2.8133120414,
				"element": "H" 
			},
			{
				"x": -2.3122662115,
				"y": 0.1460541907,
				"z": 3.2756988072,
				"element": "H" 
			},
			{
				"x": 1.8772984626,
				"y": -2.5236536233,
				"z": -1.2413576051,
				"element": "H" 
			},
			{
				"x": 2.4663368416,
				"y": -3.1762716262,
				"z": 1.08671161,
				"element": "H" 
			},
			{
				"x": 3.0696230111,
				"y": -1.4185979171,
				"z": 2.7460304813,
				"element": "H" 
			},
			{
				"x": 3.0664875201,
				"y": 0.9694269624,
				"z": 2.0697508532,
				"element": "H" 
			}
		],
		 "valence_orbital": [ 
			{
				"type": "occ",
				"energy": -0.27025,
				"method": "rhf"
			},
			{
				"type": "occ",
				"energy": -0.26559,
				"method": "rhf"
			},
			{
				"type": "occ",
				"energy": -0.2586,
				"method": "rhf"
			},
			{
				"type": "occ",
				"energy": -0.24025,
				"method": "rhf"
			},
			{
				"type": "occ",
				"energy": -0.22798,
				"method": "rhf"
			},
			{
				"type": "unocc",
				"energy": -0.04575,
				"method": "rhf"
			},
			{
				"type": "unocc",
				"energy": -0.0364,
				"method": "rhf"
			},
			{
				"type": "unocc",
				"energy": -0.03055,
				"method": "rhf"
			},
			{
				"type": "unocc",
				"energy": -0.02183,
				"method": "rhf"
			},
			{
				"type": "unocc",
				"energy": 0.00582,
				"method": "rhf"
			}
		],
		"cosmo_sigma_profile": { 
			"-0.025": 0.00782206207999,
			"-0.024": 0.0506976679074,
			"-0.023": 0.0673820238467,
			"-0.022": 0.0408294101032,
			"-0.021": 0.199944221216,
			"-0.02": 0.0222926011093,
			"-0.019": 0.0245228285695,
			"-0.018": 0.114364336479,
			"-0.017": 0.130209235354,
			"-0.016": 0.050073031957,
			"-0.015": 0.0473468281354,
			"-0.014": 0.125907058794,
			"-0.013": 0.0184146194495,
			"-0.012": 0.21194539619,
			"-0.011": 0.144296203717,
			"-0.01": 0.389801522878,
			"-0.009": 3.21726057771,
			"-0.008": 5.95780896738,
			"-0.007": 12.9823880033,
			"-0.006": 22.1880951717,
			"-0.005": 27.4444358185,
			"-0.004": 25.5649582896,
			"-0.003": 25.9556985813,
			"-0.002": 25.0227741581,
			"-0.001": 23.149419117,
			"0.0": 23.5283996898,
			"0.001": 20.5279081107,
			"0.002": 19.4135723135,
			"0.003": 18.4084350961,
			"0.004": 14.9973127583,
			"0.005": 11.1638843851,
			"0.006": 6.20031769318,
			"0.007": 5.69883788628,
			"0.008": 4.98035892881,
			"0.009": 5.37735759817,
			"0.01": 8.14539829655,
			"0.011": 7.53996393841,
			"0.012": 6.26299920271,
			"0.013": 4.99996764392,
			"0.014": 1.40776247362,
			"0.015": 0.173801543493,
			"0.016": 0.0,
			"0.017": 0.0,
			"0.018": 0.0,
			"0.019": 0.0,
			"0.02": 0.0,
			"0.021": 0.0,
			"0.022": 0.0,
			"0.023": 0.0,
			"0.024": 0.0,
			"0.025": 0.0
		}
	}
}
