{
	 "smiles": "COC1=CC(OC)=C(C=C1)C1=CSC(NC(=O)CCl)=N1", 
	 "Tm": 383.15, 
	 "num_atms": 33, 
	 "gaussian": { 
		 "optdone": 1, 
		 "sigma_profile": "yes", 
		 "theory": "DFT", 
		 "functional": "B3LYP", 
		 "basiset": "6-31G**", 
		 "properties": { 
			 "R2extent": 9299.5063, 
			 "electric_dipole_moment_norm": 6.37149110413, 
			 "electric_quadrupole_moment_norm": 26.5814036381, 
			 "total_energy": -1696.75130606, 
			 "HOMO_LUMO_gap": 0.17137, 
			 "cosmo_polarized_energy": -18.71, 
			 "cosmo_cavitation_energy": 41.44, 
			 "cosmo_dispersion_energy": -29.35, 
			 "cosmo_repulsion_energy": 2.23, 
			 "cosmo_total_nonelectrostatic_energy": 14.32, 
			 "SMD_solvation_energy": 8.23 
		},
		"coords": [
			{
				"x": 2.1235293517,
				"y": 3.1017290506,
				"z": -3.8434247328,
				"element": "C" 
			},
			{
				"x": 2.3964978552,
				"y": 1.8850140184,
				"z": -3.1647804055,
				"element": "O" 
			},
			{
				"x": 1.4179023183,
				"y": 1.3516386617,
				"z": -2.3802550308,
				"element": "C" 
			},
			{
				"x": 1.7600473831,
				"y": 0.1484532506,
				"z": -1.7431895494,
				"element": "C" 
			},
			{
				"x": 0.8460228157,
				"y": -0.4963651809,
				"z": -0.9131333354,
				"element": "C" 
			},
			{
				"x": 1.1040338387,
				"y": -1.6841312586,
				"z": -0.3005021696,
				"element": "O" 
			},
			{
				"x": 2.3688106516,
				"y": -2.2954464514,
				"z": -0.5106509993,
				"element": "C" 
			},
			{
				"x": -0.4399000618,
				"y": 0.0645647319,
				"z": -0.6927705343,
				"element": "C" 
			},
			{
				"x": -0.746297253,
				"y": 1.2608776612,
				"z": -1.3442293484,
				"element": "C" 
			},
			{
				"x": 0.1545876734,
				"y": 1.9150260111,
				"z": -2.1878584802,
				"element": "C" 
			},
			{
				"x": -1.4443028535,
				"y": -0.5846712482,
				"z": 0.1733320347,
				"element": "C" 
			},
			{
				"x": -2.7646824717,
				"y": -0.7379990363,
				"z": -0.1535520746,
				"element": "C" 
			},
			{
				"x": -3.6411313709,
				"y": -1.4983840683,
				"z": 1.1473197593,
				"element": "S" 
			},
			{
				"x": -2.1208531125,
				"y": -1.55587987,
				"z": 2.048704854,
				"element": "C" 
			},
			{
				"x": -2.0982066635,
				"y": -2.1161470668,
				"z": 3.3159230539,
				"element": "N" 
			},
			{
				"x": -1.0250544611,
				"y": -2.387217954,
				"z": 4.1743893352,
				"element": "C" 
			},
			{
				"x": -1.2507190006,
				"y": -2.9222778943,
				"z": 5.2398159206,
				"element": "O" 
			},
			{
				"x": 0.3559476803,
				"y": -1.9667997357,
				"z": 3.683486084,
				"element": "C" 
			},
			{
				"x": 1.6463984857,
				"y": -2.4841419002,
				"z": 4.8160587889,
				"element": "Cl" 
			},
			{
				"x": -1.0981679875,
				"y": -1.0519689764,
				"z": 1.4337915951,
				"element": "N" 
			},
			{
				"x": 3.0273200494,
				"y": 3.3422049483,
				"z": -4.4051816051,
				"element": "H" 
			},
			{
				"x": 1.9073880978,
				"y": 3.9165328952,
				"z": -3.1409005721,
				"element": "H" 
			},
			{
				"x": 1.2823590573,
				"y": 2.9959669789,
				"z": -4.5402273908,
				"element": "H" 
			},
			{
				"x": 2.7464095239,
				"y": -0.2548096032,
				"z": -1.9310020708,
				"element": "H" 
			},
			{
				"x": 3.1882713302,
				"y": -1.6639636697,
				"z": -0.1458175148,
				"element": "H" 
			},
			{
				"x": 2.534975009,
				"y": -2.5246548829,
				"z": -1.5707329095,
				"element": "H" 
			},
			{
				"x": 2.3502528705,
				"y": -3.2249145134,
				"z": 0.0600267363,
				"element": "H" 
			},
			{
				"x": -1.7196305048,
				"y": 1.7082893937,
				"z": -1.166031713,
				"element": "H" 
			},
			{
				"x": -0.130526188,
				"y": 2.8461991874,
				"z": -2.6605878046,
				"element": "H" 
			},
			{
				"x": -3.2620540887,
				"y": -0.4788343067,
				"z": -1.0761851176,
				"element": "H" 
			},
			{
				"x": -2.9769304469,
				"y": -2.4277566151,
				"z": 3.7108875297,
				"element": "H" 
			},
			{
				"x": 0.4012946059,
				"y": -0.8819149078,
				"z": 3.5794245324,
				"element": "H" 
			},
			{
				"x": 0.5640078668,
				"y": -2.381617649,
				"z": 2.6975531343,
				"element": "H" 
			}
		],
		 "valence_orbital": [ 
			{
				"type": "occ",
				"energy": -0.28286,
				"method": "rhf"
			},
			{
				"type": "occ",
				"energy": -0.27496,
				"method": "rhf"
			},
			{
				"type": "occ",
				"energy": -0.24196,
				"method": "rhf"
			},
			{
				"type": "occ",
				"energy": -0.2344,
				"method": "rhf"
			},
			{
				"type": "occ",
				"energy": -0.20777,
				"method": "rhf"
			},
			{
				"type": "unocc",
				"energy": -0.0364,
				"method": "rhf"
			},
			{
				"type": "unocc",
				"energy": -0.01347,
				"method": "rhf"
			},
			{
				"type": "unocc",
				"energy": -0.00506,
				"method": "rhf"
			},
			{
				"type": "unocc",
				"energy": 0.00595,
				"method": "rhf"
			},
			{
				"type": "unocc",
				"energy": 0.02665,
				"method": "rhf"
			}
		],
		"cosmo_sigma_profile": { 
			"-0.025": 0.0,
			"-0.024": 0.0,
			"-0.023": 0.0,
			"-0.022": 0.0,
			"-0.021": 0.0,
			"-0.02": 0.0,
			"-0.019": 0.0,
			"-0.018": 0.0,
			"-0.017": 0.633456084603,
			"-0.016": 0.808117412154,
			"-0.015": 1.2269952134,
			"-0.014": 1.38571985355,
			"-0.013": 0.807823565526,
			"-0.012": 0.532707891635,
			"-0.011": 1.0359560649,
			"-0.01": 0.801524376799,
			"-0.009": 3.88315010807,
			"-0.008": 5.42454597971,
			"-0.007": 6.0989287682,
			"-0.006": 17.7871266106,
			"-0.005": 28.6377392409,
			"-0.004": 27.554833216,
			"-0.003": 28.2445010924,
			"-0.002": 20.1524979513,
			"-0.001": 18.5370437832,
			"0.0": 18.7695229084,
			"0.001": 18.4057892355,
			"0.002": 21.1436660322,
			"0.003": 22.6384300378,
			"0.004": 23.580296836,
			"0.005": 19.220374183,
			"0.006": 14.8163855306,
			"0.007": 6.61726392069,
			"0.008": 5.57644998964,
			"0.009": 5.09562737191,
			"0.01": 5.21989489917,
			"0.011": 4.73919324818,
			"0.012": 4.21939408712,
			"0.013": 1.52954673433,
			"0.014": 0.0559636463431,
			"0.015": 0.0,
			"0.016": 0.0,
			"0.017": 0.0,
			"0.018": 0.0,
			"0.019": 0.0,
			"0.02": 0.0,
			"0.021": 0.0,
			"0.022": 0.0,
			"0.023": 0.0,
			"0.024": 0.0,
			"0.025": 0.0
		}
	}
}
