{
	 "smiles": "NCCCCCC(O)=O", 
	 "Tm": 484.15, 
	 "num_atms": 22, 
	 "gaussian": { 
		 "optdone": 1, 
		 "sigma_profile": "yes", 
		 "theory": "DFT", 
		 "functional": "B3LYP", 
		 "basiset": "6-31G**", 
		 "properties": { 
			 "R2extent": 2429.8567, 
			 "electric_dipole_moment_norm": 4.08647170674, 
			 "electric_quadrupole_moment_norm": 22.1727865635, 
			 "total_energy": -441.683561024, 
			 "HOMO_LUMO_gap": 0.23705, 
			 "cosmo_polarized_energy": -17.3, 
			 "cosmo_cavitation_energy": 24.35, 
			 "cosmo_dispersion_energy": -17.57, 
			 "cosmo_repulsion_energy": 1.49, 
			 "cosmo_total_nonelectrostatic_energy": 8.28, 
			 "SMD_solvation_energy": 3.36 
		},
		"coords": [
			{
				"x": 1.078656617,
				"y": -1.9131483416,
				"z": 0.1192778314,
				"element": "N" 
			},
			{
				"x": 0.486019369,
				"y": -1.0200112862,
				"z": -0.8797236111,
				"element": "C" 
			},
			{
				"x": -0.5119662125,
				"y": 0.0386614955,
				"z": -0.3696891358,
				"element": "C" 
			},
			{
				"x": 0.1227326525,
				"y": 1.0819120068,
				"z": 0.5596568547,
				"element": "C" 
			},
			{
				"x": -0.8493291608,
				"y": 2.0838630048,
				"z": 1.2055279978,
				"element": "C" 
			},
			{
				"x": -1.6296995842,
				"y": 2.9575904756,
				"z": 0.2122815221,
				"element": "C" 
			},
			{
				"x": -2.9121230077,
				"y": 2.3088886466,
				"z": -0.3033722095,
				"element": "C" 
			},
			{
				"x": -3.4357318776,
				"y": 2.8639032905,
				"z": -1.4307167055,
				"element": "O" 
			},
			{
				"x": -3.487319993,
				"y": 1.3984321381,
				"z": 0.2385485528,
				"element": "O" 
			},
			{
				"x": 0.3432380109,
				"y": -2.3791445162,
				"z": 0.6468022983,
				"element": "H" 
			},
			{
				"x": 1.6235497024,
				"y": -1.3827750274,
				"z": 0.7941725391,
				"element": "H" 
			},
			{
				"x": 1.3100049782,
				"y": -0.5215599174,
				"z": -1.4080250461,
				"element": "H" 
			},
			{
				"x": -0.0177446499,
				"y": -1.647033405,
				"z": -1.625334351,
				"element": "H" 
			},
			{
				"x": -0.9575533961,
				"y": 0.5350679546,
				"z": -1.2428138216,
				"element": "H" 
			},
			{
				"x": -1.3425486911,
				"y": -0.4600718505,
				"z": 0.1465922592,
				"element": "H" 
			},
			{
				"x": 0.6500550092,
				"y": 0.5630706218,
				"z": 1.3711990588,
				"element": "H" 
			},
			{
				"x": 0.8948651417,
				"y": 1.635549552,
				"z": 0.0040827113,
				"element": "H" 
			},
			{
				"x": -1.57733655,
				"y": 1.5516531091,
				"z": 1.827044344,
				"element": "H" 
			},
			{
				"x": -0.2781371333,
				"y": 2.7405479707,
				"z": 1.8716693177,
				"element": "H" 
			},
			{
				"x": -1.9407272358,
				"y": 3.8929751122,
				"z": 0.6984609619,
				"element": "H" 
			},
			{
				"x": -0.9928756715,
				"y": 3.2527209758,
				"z": -0.6333888957,
				"element": "H" 
			},
			{
				"x": -2.8608283174,
				"y": 3.5735079901,
				"z": -1.7504524727,
				"element": "H" 
			}
		],
		 "valence_orbital": [ 
			{
				"type": "occ",
				"energy": -0.32813,
				"method": "rhf"
			},
			{
				"type": "occ",
				"energy": -0.3217,
				"method": "rhf"
			},
			{
				"type": "occ",
				"energy": -0.31515,
				"method": "rhf"
			},
			{
				"type": "occ",
				"energy": -0.27298,
				"method": "rhf"
			},
			{
				"type": "occ",
				"energy": -0.22871,
				"method": "rhf"
			},
			{
				"type": "unocc",
				"energy": 0.00834,
				"method": "rhf"
			},
			{
				"type": "unocc",
				"energy": 0.04998,
				"method": "rhf"
			},
			{
				"type": "unocc",
				"energy": 0.07702,
				"method": "rhf"
			},
			{
				"type": "unocc",
				"energy": 0.09763,
				"method": "rhf"
			},
			{
				"type": "unocc",
				"energy": 0.11146,
				"method": "rhf"
			}
		],
		"cosmo_sigma_profile": { 
			"-0.025": 0.0,
			"-0.024": 0.0,
			"-0.023": 0.0,
			"-0.022": 0.0,
			"-0.021": 0.0,
			"-0.02": 0.0,
			"-0.019": 0.144591866509,
			"-0.018": 1.11059457977,
			"-0.017": 1.1769961695,
			"-0.016": 0.801351977984,
			"-0.015": 1.45025607681,
			"-0.014": 0.852724196865,
			"-0.013": 0.737471492842,
			"-0.012": 1.60716565448,
			"-0.011": 1.3412936751,
			"-0.01": 0.76350745939,
			"-0.009": 2.6190148295,
			"-0.008": 4.21892855357,
			"-0.007": 5.8046027921,
			"-0.006": 8.48094027854,
			"-0.005": 7.90639606786,
			"-0.004": 8.68282837918,
			"-0.003": 15.0521375809,
			"-0.002": 22.529092139,
			"-0.001": 21.6996073644,
			"0.0": 18.288760014,
			"0.001": 8.61980614509,
			"0.002": 4.17024812413,
			"0.003": 4.18307446168,
			"0.004": 3.03592364055,
			"0.005": 3.17838388668,
			"0.006": 4.05196304816,
			"0.007": 3.53181000589,
			"0.008": 3.22671369303,
			"0.009": 4.42256991148,
			"0.01": 4.15421017212,
			"0.011": 6.4467350615,
			"0.012": 5.20956920349,
			"0.013": 3.39137939044,
			"0.014": 1.06821966227,
			"0.015": 0.733349583917,
			"0.016": 0.69086718497,
			"0.017": 0.61919600475,
			"0.018": 0.457092582541,
			"0.019": 0.770403268263,
			"0.02": 0.546437439839,
			"0.021": 0.0,
			"0.022": 0.0,
			"0.023": 0.0,
			"0.024": 0.0,
			"0.025": 0.0
		}
	}
}
