{
	 "smiles": "CCC1CN2CCC1CC2C(O)C1=CC=NC2=C1C=C(OCCC(C)C)C=C2", 
	 "Tm": 425.15, 
	 "num_atms": 62, 
	 "gaussian": { 
		 "optdone": 1, 
		 "sigma_profile": "yes", 
		 "theory": "DFT", 
		 "functional": "B3LYP", 
		 "basiset": "6-31G**", 
		 "properties": { 
			 "R2extent": 11232.0675, 
			 "electric_dipole_moment_norm": 3.62109415647, 
			 "electric_quadrupole_moment_norm": 8.72828991727, 
			 "total_energy": -1194.99220378, 
			 "HOMO_LUMO_gap": 0.15675, 
			 "cosmo_polarized_energy": -15.2, 
			 "cosmo_cavitation_energy": 58.02, 
			 "cosmo_dispersion_energy": -36.39, 
			 "cosmo_repulsion_energy": 2.74, 
			 "cosmo_total_nonelectrostatic_energy": 24.36, 
			 "SMD_solvation_energy": 5.06 
		},
		"coords": [
			{
				"x": -1.4437365785,
				"y": 1.5672931535,
				"z": 4.1022999218,
				"element": "C" 
			},
			{
				"x": -1.1907313454,
				"y": 1.9763408826,
				"z": 2.6455456383,
				"element": "C" 
			},
			{
				"x": -2.3348418826,
				"y": 1.5915698966,
				"z": 1.6943535029,
				"element": "C" 
			},
			{
				"x": -2.539397548,
				"y": 0.0488338927,
				"z": 1.5669255566,
				"element": "C" 
			},
			{
				"x": -2.9022664336,
				"y": -0.3630558693,
				"z": 0.1908400139,
				"element": "N" 
			},
			{
				"x": -4.0181123948,
				"y": 0.4947539783,
				"z": -0.2573812916,
				"element": "C" 
			},
			{
				"x": -3.5368430991,
				"y": 1.9688578131,
				"z": -0.4562125868,
				"element": "C" 
			},
			{
				"x": -2.1682962954,
				"y": 2.1138612672,
				"z": 0.247292446,
				"element": "C" 
			},
			{
				"x": -1.1277699579,
				"y": 1.237416481,
				"z": -0.4909593728,
				"element": "C" 
			},
			{
				"x": -1.7915728585,
				"y": -0.1393691091,
				"z": -0.7613399296,
				"element": "C" 
			},
			{
				"x": -0.8130817381,
				"y": -1.3309033146,
				"z": -0.9376345491,
				"element": "C" 
			},
			{
				"x": -1.5082497178,
				"y": -2.2553211428,
				"z": -1.7781130954,
				"element": "O" 
			},
			{
				"x": -0.3201508447,
				"y": -2.0272147264,
				"z": 0.3230541344,
				"element": "C" 
			},
			{
				"x": -1.1210292139,
				"y": -3.0002813416,
				"z": 0.8952304173,
				"element": "C" 
			},
			{
				"x": -0.6910818452,
				"y": -3.6815204022,
				"z": 2.0530166125,
				"element": "C" 
			},
			{
				"x": 0.4666206842,
				"y": -3.4635759594,
				"z": 2.6478102095,
				"element": "N" 
			},
			{
				"x": 1.2860239562,
				"y": -2.526110884,
				"z": 2.097245266,
				"element": "C" 
			},
			{
				"x": 0.9518070569,
				"y": -1.7651110679,
				"z": 0.9268016979,
				"element": "C" 
			},
			{
				"x": 1.8950785509,
				"y": -0.8173968636,
				"z": 0.4308545711,
				"element": "C" 
			},
			{
				"x": 3.113723009,
				"y": -0.6406725461,
				"z": 1.060578739,
				"element": "C" 
			},
			{
				"x": 4.105458503,
				"y": 0.2034424265,
				"z": 0.6587693659,
				"element": "O" 
			},
			{
				"x": 3.9362938929,
				"y": 1.0181617866,
				"z": -0.5054785132,
				"element": "C" 
			},
			{
				"x": 3.1805941467,
				"y": 2.3127090973,
				"z": -0.1989759057,
				"element": "C" 
			},
			{
				"x": 2.9310563962,
				"y": 3.205661714,
				"z": -1.4309728825,
				"element": "C" 
			},
			{
				"x": 4.2359335247,
				"y": 3.6942653528,
				"z": -2.0808468282,
				"element": "C" 
			},
			{
				"x": 2.0390561835,
				"y": 4.3969187286,
				"z": -1.0507738726,
				"element": "C" 
			},
			{
				"x": 3.4330380573,
				"y": -1.3892539534,
				"z": 2.2279924727,
				"element": "C" 
			},
			{
				"x": 2.5436044559,
				"y": -2.3024472637,
				"z": 2.7262202989,
				"element": "C" 
			},
			{
				"x": -0.6198514468,
				"y": 1.8834934208,
				"z": 4.7501588336,
				"element": "H" 
			},
			{
				"x": -1.5437543068,
				"y": 0.4817807899,
				"z": 4.2067704377,
				"element": "H" 
			},
			{
				"x": -2.363529845,
				"y": 2.0237417346,
				"z": 4.4863978306,
				"element": "H" 
			},
			{
				"x": -1.0408354709,
				"y": 3.0638015208,
				"z": 2.5985295783,
				"element": "H" 
			},
			{
				"x": -0.2508296517,
				"y": 1.5219945576,
				"z": 2.3047641823,
				"element": "H" 
			},
			{
				"x": -3.2527769098,
				"y": 2.0427209807,
				"z": 2.0999223281,
				"element": "H" 
			},
			{
				"x": -1.6256542744,
				"y": -0.4760684958,
				"z": 1.8528527486,
				"element": "H" 
			},
			{
				"x": -3.3281150174,
				"y": -0.3053318112,
				"z": 2.2395727139,
				"element": "H" 
			},
			{
				"x": -4.4293475198,
				"y": 0.0823248006,
				"z": -1.18466871,
				"element": "H" 
			},
			{
				"x": -4.8077401018,
				"y": 0.4383562602,
				"z": 0.4997877807,
				"element": "H" 
			},
			{
				"x": -3.4420982941,
				"y": 2.210846757,
				"z": -1.5219342294,
				"element": "H" 
			},
			{
				"x": -4.2582820052,
				"y": 2.6770625562,
				"z": -0.0327107029,
				"element": "H" 
			},
			{
				"x": -1.8484537856,
				"y": 3.1625416767,
				"z": 0.2536809101,
				"element": "H" 
			},
			{
				"x": -0.8197562073,
				"y": 1.7032478074,
				"z": -1.4351242528,
				"element": "H" 
			},
			{
				"x": -0.2260525609,
				"y": 1.1355467336,
				"z": 0.1227462953,
				"element": "H" 
			},
			{
				"x": -2.2634493461,
				"y": -0.0947150788,
				"z": -1.7488100805,
				"element": "H" 
			},
			{
				"x": 0.0524337626,
				"y": -0.9307815319,
				"z": -1.4880910532,
				"element": "H" 
			},
			{
				"x": -0.9771100918,
				"y": -3.0612164738,
				"z": -1.829465352,
				"element": "H" 
			},
			{
				"x": -2.0879035271,
				"y": -3.2168933778,
				"z": 0.4558557364,
				"element": "H" 
			},
			{
				"x": -1.3345418556,
				"y": -4.4366459834,
				"z": 2.5033317361,
				"element": "H" 
			},
			{
				"x": 1.6494817749,
				"y": -0.2376905301,
				"z": -0.4478956273,
				"element": "H" 
			},
			{
				"x": 3.4461278211,
				"y": 0.4458488391,
				"z": -1.3044378025,
				"element": "H" 
			},
			{
				"x": 4.9564027085,
				"y": 1.2310080862,
				"z": -0.834395027,
				"element": "H" 
			},
			{
				"x": 3.7467468035,
				"y": 2.8734140418,
				"z": 0.5563269881,
				"element": "H" 
			},
			{
				"x": 2.2181093894,
				"y": 2.0595663906,
				"z": 0.260698697,
				"element": "H" 
			},
			{
				"x": 2.3868357751,
				"y": 2.605146048,
				"z": -2.176220016,
				"element": "H" 
			},
			{
				"x": 4.837583525,
				"y": 4.2662467234,
				"z": -1.3638365565,
				"element": "H" 
			},
			{
				"x": 4.0242037178,
				"y": 4.3499110655,
				"z": -2.9320774933,
				"element": "H" 
			},
			{
				"x": 4.8531576252,
				"y": 2.8695611252,
				"z": -2.4512137064,
				"element": "H" 
			},
			{
				"x": 2.5329152789,
				"y": 5.0328937003,
				"z": -0.3062224008,
				"element": "H" 
			},
			{
				"x": 1.0864406862,
				"y": 4.064155986,
				"z": -0.6246801799,
				"element": "H" 
			},
			{
				"x": 1.8179341871,
				"y": 5.0193855408,
				"z": -1.9243170537,
				"element": "H" 
			},
			{
				"x": 4.3975801706,
				"y": -1.2167151,
				"z": 2.6941143516,
				"element": "H" 
			},
			{
				"x": 2.7678023283,
				"y": -2.8892907875,
				"z": 3.6108470585,
				"element": "H" 
			}
		],
		 "valence_orbital": [ 
			{
				"type": "occ",
				"energy": -0.26836,
				"method": "rhf"
			},
			{
				"type": "occ",
				"energy": -0.24725,
				"method": "rhf"
			},
			{
				"type": "occ",
				"energy": -0.23566,
				"method": "rhf"
			},
			{
				"type": "occ",
				"energy": -0.2135,
				"method": "rhf"
			},
			{
				"type": "occ",
				"energy": -0.20375,
				"method": "rhf"
			},
			{
				"type": "unocc",
				"energy": -0.047,
				"method": "rhf"
			},
			{
				"type": "unocc",
				"energy": -0.00723,
				"method": "rhf"
			},
			{
				"type": "unocc",
				"energy": 0.01871,
				"method": "rhf"
			},
			{
				"type": "unocc",
				"energy": 0.05338,
				"method": "rhf"
			},
			{
				"type": "unocc",
				"energy": 0.07699,
				"method": "rhf"
			}
		],
		"cosmo_sigma_profile": { 
			"-0.025": 0.0,
			"-0.024": 0.0,
			"-0.023": 0.0,
			"-0.022": 0.0,
			"-0.021": 0.0,
			"-0.02": 0.0,
			"-0.019": 0.0,
			"-0.018": 0.0,
			"-0.017": 0.0,
			"-0.016": 0.0477841882453,
			"-0.015": 0.644160954391,
			"-0.014": 1.06015488585,
			"-0.013": 0.835939139107,
			"-0.012": 0.768391280746,
			"-0.011": 0.628460014518,
			"-0.01": 0.82822553297,
			"-0.009": 0.970755791295,
			"-0.008": 1.2295968093,
			"-0.007": 3.08938568216,
			"-0.006": 8.83811980138,
			"-0.005": 14.2653103931,
			"-0.004": 18.8593979821,
			"-0.003": 40.3262869652,
			"-0.002": 70.7524502136,
			"-0.001": 67.439609194,
			"0.0": 59.7214268384,
			"0.001": 51.2027501237,
			"0.002": 32.8173930914,
			"0.003": 20.3155664282,
			"0.004": 12.3467943415,
			"0.005": 6.77624332262,
			"0.006": 4.90962418369,
			"0.007": 3.63099791507,
			"0.008": 5.37351290203,
			"0.009": 3.90508916478,
			"0.01": 4.52211530964,
			"0.011": 2.9025192803,
			"0.012": 2.01534077491,
			"0.013": 4.05831137431,
			"0.014": 3.31006975634,
			"0.015": 1.58525215694,
			"0.016": 0.51820013149,
			"0.017": 0.253786549667,
			"0.018": 0.0,
			"0.019": 0.0,
			"0.02": 0.0,
			"0.021": 0.0,
			"0.022": 0.0,
			"0.023": 0.0,
			"0.024": 0.0,
			"0.025": 0.0
		}
	}
}
