{
	 "smiles": "NC(=O)C1CCCN(CC2=C(N)C=CC=C2)C1", 
	 "Tm": 407.15, 
	 "num_atms": 36, 
	 "gaussian": { 
		 "optdone": 1, 
		 "sigma_profile": "yes", 
		 "theory": "DFT", 
		 "functional": "B3LYP", 
		 "basiset": "6-31G**", 
		 "properties": { 
			 "R2extent": 5577.4968, 
			 "electric_dipole_moment_norm": 2.28100770056, 
			 "electric_quadrupole_moment_norm": 24.8443173394, 
			 "total_energy": -746.339297384, 
			 "HOMO_LUMO_gap": 0.19966, 
			 "cosmo_polarized_energy": -17.74, 
			 "cosmo_cavitation_energy": 36.68, 
			 "cosmo_dispersion_energy": -25.88, 
			 "cosmo_repulsion_energy": 2.03, 
			 "cosmo_total_nonelectrostatic_energy": 12.83, 
			 "SMD_solvation_energy": 5.79 
		},
		"coords": [
			{
				"x": -3.876237075,
				"y": 1.1341893101,
				"z": 1.8684680692,
				"element": "N" 
			},
			{
				"x": -2.7134436189,
				"y": 1.8490984508,
				"z": 1.9434533713,
				"element": "C" 
			},
			{
				"x": -2.4805883238,
				"y": 2.6180842865,
				"z": 2.8681237678,
				"element": "O" 
			},
			{
				"x": -1.7066478845,
				"y": 1.6079567718,
				"z": 0.8210802006,
				"element": "C" 
			},
			{
				"x": -1.3366674605,
				"y": 2.9390262621,
				"z": 0.1336561189,
				"element": "C" 
			},
			{
				"x": -0.1762673546,
				"y": 2.7516639308,
				"z": -0.8545009649,
				"element": "C" 
			},
			{
				"x": 1.0192393905,
				"y": 2.0602468032,
				"z": -0.1770277948,
				"element": "C" 
			},
			{
				"x": 0.6726402192,
				"y": 0.788089825,
				"z": 0.4779730892,
				"element": "N" 
			},
			{
				"x": 0.4750666276,
				"y": -0.3437928973,
				"z": -0.4510590957,
				"element": "C" 
			},
			{
				"x": 1.7292271896,
				"y": -0.7272445012,
				"z": -1.2062877386,
				"element": "C" 
			},
			{
				"x": 2.9032576868,
				"y": -1.093466494,
				"z": -0.5003606554,
				"element": "C" 
			},
			{
				"x": 2.9008756115,
				"y": -1.0768246752,
				"z": 0.8917621962,
				"element": "N" 
			},
			{
				"x": 4.0292180702,
				"y": -1.5173700059,
				"z": -1.2268166155,
				"element": "C" 
			},
			{
				"x": 4.0014500345,
				"y": -1.5791867929,
				"z": -2.617994345,
				"element": "C" 
			},
			{
				"x": 2.8529804232,
				"y": -1.2101187957,
				"z": -3.3197187904,
				"element": "C" 
			},
			{
				"x": 1.7325813156,
				"y": -0.7872157126,
				"z": -2.6019003044,
				"element": "C" 
			},
			{
				"x": -0.4267598611,
				"y": 0.9700239541,
				"z": 1.4284795527,
				"element": "C" 
			},
			{
				"x": -4.09442921,
				"y": 0.5337808331,
				"z": 1.0908106076,
				"element": "H" 
			},
			{
				"x": -4.5682236303,
				"y": 1.2739920926,
				"z": 2.5895502329,
				"element": "H" 
			},
			{
				"x": -2.1317830458,
				"y": 0.9207789638,
				"z": 0.0767482658,
				"element": "H" 
			},
			{
				"x": -1.0532662404,
				"y": 3.6501364623,
				"z": 0.9189987271,
				"element": "H" 
			},
			{
				"x": -2.2131108016,
				"y": 3.3601582663,
				"z": -0.3733306802,
				"element": "H" 
			},
			{
				"x": -0.5102178859,
				"y": 2.1598686924,
				"z": -1.7169073295,
				"element": "H" 
			},
			{
				"x": 0.1421178375,
				"y": 3.7229758189,
				"z": -1.2514634039,
				"element": "H" 
			},
			{
				"x": 1.8192921955,
				"y": 1.8696239,
				"z": -0.8977059602,
				"element": "H" 
			},
			{
				"x": 1.4275662012,
				"y": 2.7259420947,
				"z": 0.5955499699,
				"element": "H" 
			},
			{
				"x": -0.3353512709,
				"y": -0.1702655469,
				"z": -1.178430056,
				"element": "H" 
			},
			{
				"x": 0.1613097427,
				"y": -1.1928289599,
				"z": 0.1721135398,
				"element": "H" 
			},
			{
				"x": 2.3040561125,
				"y": -0.3447718102,
				"z": 1.2713090723,
				"element": "H" 
			},
			{
				"x": 3.8173677609,
				"y": -1.1105585739,
				"z": 1.3170373148,
				"element": "H" 
			},
			{
				"x": 4.9297359962,
				"y": -1.8009127052,
				"z": -0.6863954753,
				"element": "H" 
			},
			{
				"x": 4.8865913286,
				"y": -1.9107526472,
				"z": -3.1543160196,
				"element": "H" 
			},
			{
				"x": 2.8282058104,
				"y": -1.2509828742,
				"z": -4.4041104406,
				"element": "H" 
			},
			{
				"x": 0.82813684,
				"y": -0.5019786707,
				"z": -3.1355582852,
				"element": "H" 
			},
			{
				"x": -0.0864899807,
				"y": 1.6301945721,
				"z": 2.2351072008,
				"element": "H" 
			},
			{
				"x": -0.6634327503,
				"y": -0.0003596277,
				"z": 1.8794626584,
				"element": "H" 
			}
		],
		 "valence_orbital": [ 
			{
				"type": "occ",
				"energy": -0.26751,
				"method": "rhf"
			},
			{
				"type": "occ",
				"energy": -0.24853,
				"method": "rhf"
			},
			{
				"type": "occ",
				"energy": -0.2367,
				"method": "rhf"
			},
			{
				"type": "occ",
				"energy": -0.21384,
				"method": "rhf"
			},
			{
				"type": "occ",
				"energy": -0.19188,
				"method": "rhf"
			},
			{
				"type": "unocc",
				"energy": 0.00778,
				"method": "rhf"
			},
			{
				"type": "unocc",
				"energy": 0.02338,
				"method": "rhf"
			},
			{
				"type": "unocc",
				"energy": 0.02839,
				"method": "rhf"
			},
			{
				"type": "unocc",
				"energy": 0.06385,
				"method": "rhf"
			},
			{
				"type": "unocc",
				"energy": 0.08336,
				"method": "rhf"
			}
		],
		"cosmo_sigma_profile": { 
			"-0.025": 0.0,
			"-0.024": 0.0,
			"-0.023": 0.0,
			"-0.022": 0.0,
			"-0.021": 0.0,
			"-0.02": 0.0,
			"-0.019": 0.0,
			"-0.018": 0.0,
			"-0.017": 0.0,
			"-0.016": 0.0,
			"-0.015": 0.0343127753407,
			"-0.014": 1.21816553794,
			"-0.013": 2.77358949474,
			"-0.012": 2.55224837438,
			"-0.011": 3.91916124227,
			"-0.01": 3.94875621256,
			"-0.009": 3.98680773039,
			"-0.008": 3.11408034485,
			"-0.007": 3.71686953339,
			"-0.006": 5.08480630846,
			"-0.005": 9.80485486207,
			"-0.004": 20.4242699433,
			"-0.003": 32.0968664978,
			"-0.002": 30.9656024837,
			"-0.001": 28.8997972599,
			"0.0": 24.3143532601,
			"0.001": 16.7543907071,
			"0.002": 13.4407588491,
			"0.003": 12.8149061586,
			"0.004": 11.4270388348,
			"0.005": 9.81440608136,
			"0.006": 9.61933012986,
			"0.007": 9.51043738512,
			"0.008": 5.16998060796,
			"0.009": 2.40728982231,
			"0.01": 2.06576905866,
			"0.011": 2.16718009614,
			"0.012": 2.01928312087,
			"0.013": 2.68671618554,
			"0.014": 5.87999307626,
			"0.015": 3.25305961818,
			"0.016": 0.0634779840675,
			"0.017": 0.0,
			"0.018": 0.0,
			"0.019": 0.0,
			"0.02": 0.0,
			"0.021": 0.0,
			"0.022": 0.0,
			"0.023": 0.0,
			"0.024": 0.0,
			"0.025": 0.0
		}
	}
}
