{
	 "smiles": "NC1=C(F)C(C#N)=C(C#N)C(F)=C1F", 
	 "Tm": 433.15, 
	 "num_atms": 16, 
	 "gaussian": { 
		 "optdone": 1, 
		 "sigma_profile": "yes", 
		 "theory": "DFT", 
		 "functional": "B3LYP", 
		 "basiset": "6-31G**", 
		 "properties": { 
			 "R2extent": 3344.513, 
			 "electric_dipole_moment_norm": 8.15783295857, 
			 "electric_quadrupole_moment_norm": 20.259575019, 
			 "total_energy": -769.75929103, 
			 "HOMO_LUMO_gap": 0.16786, 
			 "cosmo_polarized_energy": -17.17, 
			 "cosmo_cavitation_energy": 25.09, 
			 "cosmo_dispersion_energy": -16.84, 
			 "cosmo_repulsion_energy": 1.27, 
			 "cosmo_total_nonelectrostatic_energy": 9.52, 
			 "SMD_solvation_energy": 8.22 
		},
		"coords": [
			{
				"x": -2.678671033,
				"y": 0.0376091203,
				"z": -1.1167710217,
				"element": "N" 
			},
			{
				"x": -1.7023578381,
				"y": -0.652824646,
				"z": -0.4540436015,
				"element": "C" 
			},
			{
				"x": -1.2223362662,
				"y": -0.2345716465,
				"z": 0.7993275488,
				"element": "C" 
			},
			{
				"x": -1.8121553125,
				"y": 0.8443996115,
				"z": 1.3455251856,
				"element": "F" 
			},
			{
				"x": -0.1971134042,
				"y": -0.8858621478,
				"z": 1.4763048182,
				"element": "C" 
			},
			{
				"x": 0.2239277658,
				"y": -0.3916494358,
				"z": 2.7490326221,
				"element": "C" 
			},
			{
				"x": 0.5556483231,
				"y": 0.0193713304,
				"z": 3.7842670465,
				"element": "N" 
			},
			{
				"x": 0.4074406351,
				"y": -2.0299837589,
				"z": 0.8866647515,
				"element": "C" 
			},
			{
				"x": 1.4628259783,
				"y": -2.7422653397,
				"z": 1.5258635462,
				"element": "C" 
			},
			{
				"x": 2.3239443859,
				"y": -3.3318475068,
				"z": 2.0392216121,
				"element": "N" 
			},
			{
				"x": -0.0656983457,
				"y": -2.4581902367,
				"z": -0.358557793,
				"element": "C" 
			},
			{
				"x": 0.4670697558,
				"y": -3.5311952725,
				"z": -0.9441375366,
				"element": "F" 
			},
			{
				"x": -1.0923002947,
				"y": -1.7858487878,
				"z": -1.0083138081,
				"element": "C" 
			},
			{
				"x": -1.5341262454,
				"y": -2.2249278031,
				"z": -2.199200414,
				"element": "F" 
			},
			{
				"x": -3.2319917084,
				"y": 0.6880272913,
				"z": -0.5809643457,
				"element": "H" 
			},
			{
				"x": -3.139706396,
				"y": -0.4279407717,
				"z": -1.8829186104,
				"element": "H" 
			}
		],
		 "valence_orbital": [ 
			{
				"type": "occ",
				"energy": -0.35408,
				"method": "rhf"
			},
			{
				"type": "occ",
				"energy": -0.34794,
				"method": "rhf"
			},
			{
				"type": "occ",
				"energy": -0.3301,
				"method": "rhf"
			},
			{
				"type": "occ",
				"energy": -0.28349,
				"method": "rhf"
			},
			{
				"type": "occ",
				"energy": -0.2553,
				"method": "rhf"
			},
			{
				"type": "unocc",
				"energy": -0.08744,
				"method": "rhf"
			},
			{
				"type": "unocc",
				"energy": -0.05203,
				"method": "rhf"
			},
			{
				"type": "unocc",
				"energy": 0.00175,
				"method": "rhf"
			},
			{
				"type": "unocc",
				"energy": 0.01289,
				"method": "rhf"
			},
			{
				"type": "unocc",
				"energy": 0.02087,
				"method": "rhf"
			}
		],
		"cosmo_sigma_profile": { 
			"-0.025": 0.0,
			"-0.024": 0.0,
			"-0.023": 0.0,
			"-0.022": 0.0,
			"-0.021": 0.0,
			"-0.02": 0.0,
			"-0.019": 0.0,
			"-0.018": 0.0,
			"-0.017": 0.0,
			"-0.016": 0.0368894496271,
			"-0.015": 1.67272336809,
			"-0.014": 2.24693457432,
			"-0.013": 1.99205128039,
			"-0.012": 2.69022949017,
			"-0.011": 2.50510305552,
			"-0.01": 2.21413758166,
			"-0.009": 1.70324040212,
			"-0.008": 2.52874751431,
			"-0.007": 1.98322662993,
			"-0.006": 4.34932369202,
			"-0.005": 13.2951252997,
			"-0.004": 24.3582804539,
			"-0.003": 14.8714000526,
			"-0.002": 9.86366076764,
			"-0.001": 7.97537516924,
			"0.0": 9.97560093143,
			"0.001": 16.1022301795,
			"0.002": 28.2548943735,
			"0.003": 7.20155273508,
			"0.004": 6.00904422819,
			"0.005": 4.8304897355,
			"0.006": 7.15777639779,
			"0.007": 6.6030178418,
			"0.008": 6.85087703348,
			"0.009": 5.71001387642,
			"0.01": 5.50669974863,
			"0.011": 4.30056102262,
			"0.012": 2.56366466068,
			"0.013": 0.115009237159,
			"0.014": 0.0,
			"0.015": 0.0,
			"0.016": 0.0,
			"0.017": 0.0,
			"0.018": 0.0,
			"0.019": 0.0,
			"0.02": 0.0,
			"0.021": 0.0,
			"0.022": 0.0,
			"0.023": 0.0,
			"0.024": 0.0,
			"0.025": 0.0
		}
	}
}
