{
	 "smiles": "NS(=O)(=O)C1=CNC(=C1)C(O)=O", 
	 "Tm": 503.15, 
	 "num_atms": 18, 
	 "gaussian": { 
		 "optdone": 1, 
		 "sigma_profile": "yes", 
		 "theory": "DFT", 
		 "functional": "B3LYP", 
		 "basiset": "6-31G**", 
		 "properties": { 
			 "R2extent": 3312.669, 
			 "electric_dipole_moment_norm": 2.92213580793, 
			 "electric_quadrupole_moment_norm": 21.6024081056, 
			 "total_energy": -1002.67014311, 
			 "HOMO_LUMO_gap": 0.20159, 
			 "cosmo_polarized_energy": -23.98, 
			 "cosmo_cavitation_energy": 25.07, 
			 "cosmo_dispersion_energy": -19.08, 
			 "cosmo_repulsion_energy": 1.5, 
			 "cosmo_total_nonelectrostatic_energy": 7.5, 
			 "SMD_solvation_energy": 5.4 
		},
		"coords": [
			{
				"x": 0.6582549275,
				"y": -3.4853553197,
				"z": 1.4750154238,
				"element": "N" 
			},
			{
				"x": -0.2086539323,
				"y": -3.4483731213,
				"z": 0.0238555811,
				"element": "S" 
			},
			{
				"x": 0.6794177683,
				"y": -3.9183744091,
				"z": -1.0433224963,
				"element": "O" 
			},
			{
				"x": -1.5031851205,
				"y": -4.0954203084,
				"z": 0.2561211603,
				"element": "O" 
			},
			{
				"x": -0.4762355602,
				"y": -1.71382207,
				"z": -0.1893882135,
				"element": "C" 
			},
			{
				"x": -1.1645991152,
				"y": -1.1787368892,
				"z": -1.2735215525,
				"element": "C" 
			},
			{
				"x": -1.1794225751,
				"y": 0.1674363036,
				"z": -1.1152391183,
				"element": "N" 
			},
			{
				"x": -0.5162558826,
				"y": 0.516436204,
				"z": 0.0468453884,
				"element": "C" 
			},
			{
				"x": -0.0660121209,
				"y": -0.6493509501,
				"z": 0.6450006386,
				"element": "C" 
			},
			{
				"x": -0.3667276234,
				"y": 1.8990890144,
				"z": 0.486082216,
				"element": "C" 
			},
			{
				"x": -0.9569889964,
				"y": 2.7668395324,
				"z": -0.3880528166,
				"element": "O" 
			},
			{
				"x": 0.2032538274,
				"y": 2.2630109306,
				"z": 1.493331139,
				"element": "O" 
			},
			{
				"x": 0.1315841084,
				"y": -4.0143413334,
				"z": 2.1649077951,
				"element": "H" 
			},
			{
				"x": 1.5724951412,
				"y": -3.8966080274,
				"z": 1.3071269287,
				"element": "H" 
			},
			{
				"x": -1.627490328,
				"y": -1.6663456036,
				"z": -2.1179210357,
				"element": "H" 
			},
			{
				"x": -1.6041437438,
				"y": 0.8389729564,
				"z": -1.7377998566,
				"element": "H" 
			},
			{
				"x": 0.4884378448,
				"y": -0.7219295667,
				"z": 1.5669525239,
				"element": "H" 
			},
			{
				"x": -0.8121286194,
				"y": 3.6552726576,
				"z": -0.0239937055,
				"element": "H" 
			}
		],
		 "valence_orbital": [ 
			{
				"type": "occ",
				"energy": -0.30632,
				"method": "rhf"
			},
			{
				"type": "occ",
				"energy": -0.29539,
				"method": "rhf"
			},
			{
				"type": "occ",
				"energy": -0.28948,
				"method": "rhf"
			},
			{
				"type": "occ",
				"energy": -0.27507,
				"method": "rhf"
			},
			{
				"type": "occ",
				"energy": -0.24767,
				"method": "rhf"
			},
			{
				"type": "unocc",
				"energy": -0.04608,
				"method": "rhf"
			},
			{
				"type": "unocc",
				"energy": 0.00787,
				"method": "rhf"
			},
			{
				"type": "unocc",
				"energy": 0.04648,
				"method": "rhf"
			},
			{
				"type": "unocc",
				"energy": 0.05973,
				"method": "rhf"
			},
			{
				"type": "unocc",
				"energy": 0.07382,
				"method": "rhf"
			}
		],
		"cosmo_sigma_profile": { 
			"-0.025": 0.0,
			"-0.024": 0.0,
			"-0.023": 0.0,
			"-0.022": 0.0,
			"-0.021": 0.0,
			"-0.02": 0.0,
			"-0.019": 0.205649971807,
			"-0.018": 1.13983151196,
			"-0.017": 1.55396285253,
			"-0.016": 2.07827305811,
			"-0.015": 3.10017240547,
			"-0.014": 4.02036527284,
			"-0.013": 3.94254361047,
			"-0.012": 4.80769759649,
			"-0.011": 4.73547329091,
			"-0.01": 6.10307646042,
			"-0.009": 4.32641735563,
			"-0.008": 4.31955133003,
			"-0.007": 5.63135523364,
			"-0.006": 5.28366400412,
			"-0.005": 5.19903108906,
			"-0.004": 5.45827938084,
			"-0.003": 7.94306073107,
			"-0.002": 9.3578806833,
			"-0.001": 8.92271966621,
			"0.0": 9.98748370575,
			"0.001": 13.4918686911,
			"0.002": 11.8933155926,
			"0.003": 9.99365270916,
			"0.004": 6.10933855306,
			"0.005": 6.53422006275,
			"0.006": 5.3920774477,
			"0.007": 4.81364255781,
			"0.008": 3.42694888827,
			"0.009": 4.55234508882,
			"0.01": 9.55689545205,
			"0.011": 16.6105704209,
			"0.012": 9.28129952428,
			"0.013": 0.196969600919,
			"0.014": 0.0,
			"0.015": 0.0,
			"0.016": 0.0,
			"0.017": 0.0,
			"0.018": 0.0,
			"0.019": 0.0,
			"0.02": 0.0,
			"0.021": 0.0,
			"0.022": 0.0,
			"0.023": 0.0,
			"0.024": 0.0,
			"0.025": 0.0
		}
	}
}
