{
	 "smiles": "C(CC1=CC=CC=C1)C1=NN=NN1", 
	 "Tm": 370.15, 
	 "num_atms": 23, 
	 "gaussian": { 
		 "optdone": 1, 
		 "sigma_profile": "yes", 
		 "theory": "DFT", 
		 "functional": "B3LYP", 
		 "basiset": "6-31G**", 
		 "properties": { 
			 "R2extent": 2986.9355, 
			 "electric_dipole_moment_norm": 6.34169700159, 
			 "electric_quadrupole_moment_norm": 26.4114250365, 
			 "total_energy": -567.945094826, 
			 "HOMO_LUMO_gap": 0.23665, 
			 "cosmo_polarized_energy": -16.37, 
			 "cosmo_cavitation_energy": 27.0, 
			 "cosmo_dispersion_energy": -19.29, 
			 "cosmo_repulsion_energy": 1.52, 
			 "cosmo_total_nonelectrostatic_energy": 9.23, 
			 "SMD_solvation_energy": 2.3 
		},
		"coords": [
			{
				"x": 0.1818017463,
				"y": -0.0592743512,
				"z": 2.6358841147,
				"element": "C" 
			},
			{
				"x": 0.698446254,
				"y": -0.9976308111,
				"z": 1.5148990849,
				"element": "C" 
			},
			{
				"x": 0.4677185371,
				"y": -0.4742246654,
				"z": 0.1106800628,
				"element": "C" 
			},
			{
				"x": 1.2072277117,
				"y": 0.6164511056,
				"z": -0.3737198856,
				"element": "C" 
			},
			{
				"x": 0.984705559,
				"y": 1.1221025455,
				"z": -1.6543665793,
				"element": "C" 
			},
			{
				"x": 0.0144439237,
				"y": 0.5452899918,
				"z": -2.4780028661,
				"element": "C" 
			},
			{
				"x": -0.7254488453,
				"y": -0.5423765977,
				"z": -2.0126525305,
				"element": "C" 
			},
			{
				"x": -0.4982756862,
				"y": -1.0476651616,
				"z": -0.7291074057,
				"element": "C" 
			},
			{
				"x": -1.3057090641,
				"y": 0.0771190578,
				"z": 2.7073625581,
				"element": "C" 
			},
			{
				"x": -2.0576711441,
				"y": -0.165229168,
				"z": 3.7673692191,
				"element": "N" 
			},
			{
				"x": -3.3413403484,
				"y": 0.1006369466,
				"z": 3.397165039,
				"element": "N" 
			},
			{
				"x": -3.4028851232,
				"y": 0.489839249,
				"z": 2.1666210367,
				"element": "N" 
			},
			{
				"x": -2.1271931177,
				"y": 0.487480278,
				"z": 1.7145821752,
				"element": "N" 
			},
			{
				"x": 0.5019348076,
				"y": -0.436369074,
				"z": 3.6106217742,
				"element": "H" 
			},
			{
				"x": 0.6323246789,
				"y": 0.9334236058,
				"z": 2.5125194097,
				"element": "H" 
			},
			{
				"x": 1.773137131,
				"y": -1.138271678,
				"z": 1.6789113355,
				"element": "H" 
			},
			{
				"x": 0.2318615796,
				"y": -1.9815905892,
				"z": 1.6289118094,
				"element": "H" 
			},
			{
				"x": 1.9699822156,
				"y": 1.0686804706,
				"z": 0.2562987376,
				"element": "H" 
			},
			{
				"x": 1.5707417231,
				"y": 1.9641813127,
				"z": -2.0112640609,
				"element": "H" 
			},
			{
				"x": -0.1590693427,
				"y": 0.9379472658,
				"z": -3.4754506462,
				"element": "H" 
			},
			{
				"x": -1.4771196942,
				"y": -1.0029021148,
				"z": -2.6472478421,
				"element": "H" 
			},
			{
				"x": -1.0739346446,
				"y": -1.8999542357,
				"z": -0.3765587082,
				"element": "H" 
			},
			{
				"x": -1.9169788572,
				"y": 0.7101366176,
				"z": 0.7512441674,
				"element": "H" 
			}
		],
		 "valence_orbital": [ 
			{
				"type": "occ",
				"energy": -0.28902,
				"method": "rhf"
			},
			{
				"type": "occ",
				"energy": -0.28827,
				"method": "rhf"
			},
			{
				"type": "occ",
				"energy": -0.2773,
				"method": "rhf"
			},
			{
				"type": "occ",
				"energy": -0.27034,
				"method": "rhf"
			},
			{
				"type": "occ",
				"energy": -0.26298,
				"method": "rhf"
			},
			{
				"type": "unocc",
				"energy": -0.02633,
				"method": "rhf"
			},
			{
				"type": "unocc",
				"energy": -0.02164,
				"method": "rhf"
			},
			{
				"type": "unocc",
				"energy": -0.00725,
				"method": "rhf"
			},
			{
				"type": "unocc",
				"energy": 0.02787,
				"method": "rhf"
			},
			{
				"type": "unocc",
				"energy": 0.07586,
				"method": "rhf"
			}
		],
		"cosmo_sigma_profile": { 
			"-0.025": 0.0,
			"-0.024": 0.0,
			"-0.023": 0.0,
			"-0.022": 0.0,
			"-0.021": 0.0,
			"-0.02": 0.0,
			"-0.019": 0.0,
			"-0.018": 0.0,
			"-0.017": 0.0,
			"-0.016": 0.230322325658,
			"-0.015": 0.803091867808,
			"-0.014": 0.293902346962,
			"-0.013": 0.571808483858,
			"-0.012": 1.09379278725,
			"-0.011": 0.635895066514,
			"-0.01": 1.67130275022,
			"-0.009": 1.10720563258,
			"-0.008": 1.82785107049,
			"-0.007": 1.78796991273,
			"-0.006": 14.0093438184,
			"-0.005": 25.5364614491,
			"-0.004": 23.1952291438,
			"-0.003": 22.8777732891,
			"-0.002": 14.4917598078,
			"-0.001": 11.1065526947,
			"0.0": 9.86928719915,
			"0.001": 9.75637571991,
			"0.002": 8.59852309906,
			"0.003": 9.04958048261,
			"0.004": 9.619729072,
			"0.005": 8.25496058788,
			"0.006": 6.01488356378,
			"0.007": 3.22123551255,
			"0.008": 4.15339800496,
			"0.009": 5.51364180518,
			"0.01": 4.78612361656,
			"0.011": 5.02626747974,
			"0.012": 4.04360782937,
			"0.013": 2.58557384246,
			"0.014": 2.32735316405,
			"0.015": 0.983220176568,
			"0.016": 0.227615987339,
			"0.017": 0.0,
			"0.018": 0.0,
			"0.019": 0.0,
			"0.02": 0.0,
			"0.021": 0.0,
			"0.022": 0.0,
			"0.023": 0.0,
			"0.024": 0.0,
			"0.025": 0.0
		}
	}
}
