{
	 "smiles": "COC(=O)C1=CC(N)=C(OCC2=CC=CC=C2)C=C1", 
	 "Tm": 370.15, 
	 "num_atms": 34, 
	 "gaussian": { 
		 "optdone": 1, 
		 "sigma_profile": "yes", 
		 "theory": "DFT", 
		 "functional": "B3LYP", 
		 "basiset": "6-31G**", 
		 "properties": { 
			 "R2extent": 8842.0846, 
			 "electric_dipole_moment_norm": 3.34075421125, 
			 "electric_quadrupole_moment_norm": 12.8969478447, 
			 "total_energy": -861.068657185, 
			 "HOMO_LUMO_gap": 0.16908, 
			 "cosmo_polarized_energy": -14.43, 
			 "cosmo_cavitation_energy": 38.78, 
			 "cosmo_dispersion_energy": -27.86, 
			 "cosmo_repulsion_energy": 2.14, 
			 "cosmo_total_nonelectrostatic_energy": 13.06, 
			 "SMD_solvation_energy": 8.06 
		},
		"coords": [
			{
				"x": 5.4133371718,
				"y": -4.6351433832,
				"z": -0.1943167225,
				"element": "C" 
			},
			{
				"x": 4.2350953909,
				"y": -3.8205474381,
				"z": -0.2458119324,
				"element": "O" 
			},
			{
				"x": 4.1545302118,
				"y": -2.8649264527,
				"z": 0.714055981,
				"element": "C" 
			},
			{
				"x": 5.0181375821,
				"y": -2.7098347255,
				"z": 1.5581806386,
				"element": "O" 
			},
			{
				"x": 2.9151077881,
				"y": -2.054124167,
				"z": 0.610068783,
				"element": "C" 
			},
			{
				"x": 2.7333245844,
				"y": -1.0272415508,
				"z": 1.5498443145,
				"element": "C" 
			},
			{
				"x": 1.5991613561,
				"y": -0.2194988618,
				"z": 1.5250390731,
				"element": "C" 
			},
			{
				"x": 1.4135140528,
				"y": 0.8454740358,
				"z": 2.402960716,
				"element": "N" 
			},
			{
				"x": 0.6227069943,
				"y": -0.4647045687,
				"z": 0.5248816824,
				"element": "C" 
			},
			{
				"x": -0.4631613645,
				"y": 0.36594629,
				"z": 0.5908334229,
				"element": "O" 
			},
			{
				"x": -1.485143391,
				"y": 0.2447543029,
				"z": -0.3992365471,
				"element": "C" 
			},
			{
				"x": -2.5069722236,
				"y": 1.3325081402,
				"z": -0.1759954348,
				"element": "C" 
			},
			{
				"x": -2.0992062482,
				"y": 2.6540828798,
				"z": 0.0496315581,
				"element": "C" 
			},
			{
				"x": -3.0452819289,
				"y": 3.663888458,
				"z": 0.2187724013,
				"element": "C" 
			},
			{
				"x": -4.409527842,
				"y": 3.367227391,
				"z": 0.1556188008,
				"element": "C" 
			},
			{
				"x": -4.8220585141,
				"y": 2.0539406115,
				"z": -0.0703736865,
				"element": "C" 
			},
			{
				"x": -3.8735469351,
				"y": 1.0412703159,
				"z": -0.2296694322,
				"element": "C" 
			},
			{
				"x": 0.7989023108,
				"y": -1.4861735572,
				"z": -0.4074391881,
				"element": "C" 
			},
			{
				"x": 1.9466422675,
				"y": -2.2821586518,
				"z": -0.3706992804,
				"element": "C" 
			},
			{
				"x": 5.3213365428,
				"y": -5.3399886774,
				"z": -1.0211260714,
				"element": "H" 
			},
			{
				"x": 5.475077177,
				"y": -5.16822301,
				"z": 0.7581591887,
				"element": "H" 
			},
			{
				"x": 6.3124310267,
				"y": -4.024159934,
				"z": -0.3103966034,
				"element": "H" 
			},
			{
				"x": 3.5023483457,
				"y": -0.8695907269,
				"z": 2.2996553392,
				"element": "H" 
			},
			{
				"x": 0.4495805468,
				"y": 1.129276409,
				"z": 2.5111517743,
				"element": "H" 
			},
			{
				"x": 1.9059888317,
				"y": 0.7645098815,
				"z": 3.2811850361,
				"element": "H" 
			},
			{
				"x": -1.0304931482,
				"y": 0.3384121956,
				"z": -1.3966351501,
				"element": "H" 
			},
			{
				"x": -1.9560026177,
				"y": -0.7458200144,
				"z": -0.3398080324,
				"element": "H" 
			},
			{
				"x": -1.0388734668,
				"y": 2.8817967962,
				"z": 0.1030412049,
				"element": "H" 
			},
			{
				"x": -2.7185198544,
				"y": 4.6843995805,
				"z": 0.3974263024,
				"element": "H" 
			},
			{
				"x": -5.1454614914,
				"y": 4.1555489901,
				"z": 0.2851680857,
				"element": "H" 
			},
			{
				"x": -5.8805329912,
				"y": 1.8139655046,
				"z": -0.1141215897,
				"element": "H" 
			},
			{
				"x": -4.1992771526,
				"y": 0.0169831941,
				"z": -0.3942851386,
				"element": "H" 
			},
			{
				"x": 0.0450454832,
				"y": -1.6734586501,
				"z": -1.1629743364,
				"element": "H" 
			},
			{
				"x": 2.0832915052,
				"y": -3.0749906074,
				"z": -1.0955851571,
				"element": "H" 
			}
		],
		 "valence_orbital": [ 
			{
				"type": "occ",
				"energy": -0.26168,
				"method": "rhf"
			},
			{
				"type": "occ",
				"energy": -0.25636,
				"method": "rhf"
			},
			{
				"type": "occ",
				"energy": -0.25216,
				"method": "rhf"
			},
			{
				"type": "occ",
				"energy": -0.23475,
				"method": "rhf"
			},
			{
				"type": "occ",
				"energy": -0.19589,
				"method": "rhf"
			},
			{
				"type": "unocc",
				"energy": -0.02681,
				"method": "rhf"
			},
			{
				"type": "unocc",
				"energy": -0.01223,
				"method": "rhf"
			},
			{
				"type": "unocc",
				"energy": -0.00723,
				"method": "rhf"
			},
			{
				"type": "unocc",
				"energy": 0.01169,
				"method": "rhf"
			},
			{
				"type": "unocc",
				"energy": 0.07722,
				"method": "rhf"
			}
		],
		"cosmo_sigma_profile": { 
			"-0.025": 0.0,
			"-0.024": 0.0,
			"-0.023": 0.0,
			"-0.022": 0.0,
			"-0.021": 0.0,
			"-0.02": 0.0,
			"-0.019": 0.0,
			"-0.018": 0.0,
			"-0.017": 0.0,
			"-0.016": 0.0,
			"-0.015": 0.0,
			"-0.014": 0.0,
			"-0.013": 0.43148324604,
			"-0.012": 1.24684002602,
			"-0.011": 1.88095213829,
			"-0.01": 2.48508429491,
			"-0.009": 2.49631062685,
			"-0.008": 2.24120558429,
			"-0.007": 5.24526938718,
			"-0.006": 19.5265886346,
			"-0.005": 26.6639156837,
			"-0.004": 26.8618666124,
			"-0.003": 26.2864526202,
			"-0.002": 17.4146847168,
			"-0.001": 19.8755631191,
			"0.0": 15.1421928127,
			"0.001": 16.6694082873,
			"0.002": 20.9054971758,
			"0.003": 22.7896114797,
			"0.004": 22.2810367121,
			"0.005": 24.2290842814,
			"0.006": 12.5284485954,
			"0.007": 3.47025705801,
			"0.008": 2.05217499845,
			"0.009": 2.51938486502,
			"0.01": 2.12298329996,
			"0.011": 3.15040665817,
			"0.012": 4.99064793763,
			"0.013": 2.55418487192,
			"0.014": 0.574886537548,
			"0.015": 0.0971237815292,
			"0.016": 0.0,
			"0.017": 0.0,
			"0.018": 0.0,
			"0.019": 0.0,
			"0.02": 0.0,
			"0.021": 0.0,
			"0.022": 0.0,
			"0.023": 0.0,
			"0.024": 0.0,
			"0.025": 0.0
		}
	}
}
