{
	 "smiles": "CC1(C)OC(=O)C(C(=O)O1)=C1CCCCCN1", 
	 "Tm": 421.15, 
	 "num_atms": 34, 
	 "gaussian": { 
		 "optdone": 1, 
		 "sigma_profile": "yes", 
		 "theory": "DFT", 
		 "functional": "B3LYP", 
		 "basiset": "6-31G**", 
		 "properties": { 
			 "R2extent": 5048.5382, 
			 "electric_dipole_moment_norm": 4.07757724881, 
			 "electric_quadrupole_moment_norm": 23.8432082428, 
			 "total_energy": -823.211743417, 
			 "HOMO_LUMO_gap": 0.18927, 
			 "cosmo_polarized_energy": -15.24, 
			 "cosmo_cavitation_energy": 34.34, 
			 "cosmo_dispersion_energy": -25.35, 
			 "cosmo_repulsion_energy": 1.97, 
			 "cosmo_total_nonelectrostatic_energy": 10.96, 
			 "SMD_solvation_energy": 6.09 
		},
		"coords": [
			{
				"x": 3.2921298327,
				"y": -1.4133889279,
				"z": -1.0398878688,
				"element": "C" 
			},
			{
				"x": 2.2071413979,
				"y": -2.4027090153,
				"z": -1.469609119,
				"element": "C" 
			},
			{
				"x": 2.7652389417,
				"y": -3.7496696341,
				"z": -1.8978978106,
				"element": "C" 
			},
			{
				"x": 1.4795218749,
				"y": -1.896338018,
				"z": -2.5837288767,
				"element": "O" 
			},
			{
				"x": 0.5507318573,
				"y": -0.8970031757,
				"z": -2.3932627187,
				"element": "C" 
			},
			{
				"x": 0.1698030221,
				"y": -0.3063864913,
				"z": -3.3867460038,
				"element": "O" 
			},
			{
				"x": 0.0770627092,
				"y": -0.7129658839,
				"z": -1.0204175934,
				"element": "C" 
			},
			{
				"x": 0.3970743934,
				"y": -1.735083268,
				"z": -0.0338063824,
				"element": "C" 
			},
			{
				"x": -0.1144647326,
				"y": -1.8473594154,
				"z": 1.0826130154,
				"element": "O" 
			},
			{
				"x": 1.3258931692,
				"y": -2.6711887212,
				"z": -0.3689632693,
				"element": "O" 
			},
			{
				"x": -0.8011975345,
				"y": 0.3556313007,
				"z": -0.6803757114,
				"element": "C" 
			},
			{
				"x": -1.0608027321,
				"y": 1.4870254729,
				"z": -1.6599508228,
				"element": "C" 
			},
			{
				"x": -1.3825562583,
				"y": 2.8616319098,
				"z": -1.050043846,
				"element": "C" 
			},
			{
				"x": -2.8438703218,
				"y": 3.0426147496,
				"z": -0.6162348125,
				"element": "C" 
			},
			{
				"x": -3.3743661688,
				"y": 1.850693627,
				"z": 0.1967667415,
				"element": "C" 
			},
			{
				"x": -2.3301959454,
				"y": 1.2663178415,
				"z": 1.1520610322,
				"element": "C" 
			},
			{
				"x": -1.365272477,
				"y": 0.3546146099,
				"z": 0.5292351235,
				"element": "N" 
			},
			{
				"x": 3.8568396185,
				"y": -1.8223645507,
				"z": -0.1983246535,
				"element": "H" 
			},
			{
				"x": 2.8522481454,
				"y": -0.4605209943,
				"z": -0.7354499774,
				"element": "H" 
			},
			{
				"x": 3.9746988594,
				"y": -1.2309697796,
				"z": -1.873622228,
				"element": "H" 
			},
			{
				"x": 3.4357505863,
				"y": -3.6195975314,
				"z": -2.7504465758,
				"element": "H" 
			},
			{
				"x": 1.9435585977,
				"y": -4.4075890083,
				"z": -2.1881199474,
				"element": "H" 
			},
			{
				"x": 3.3154655084,
				"y": -4.206960865,
				"z": -1.0722429953,
				"element": "H" 
			},
			{
				"x": -0.1839585936,
				"y": 1.5631165334,
				"z": -2.3001327288,
				"element": "H" 
			},
			{
				"x": -1.8556674032,
				"y": 1.1694739396,
				"z": -2.3475051683,
				"element": "H" 
			},
			{
				"x": -1.1352359308,
				"y": 3.6253553519,
				"z": -1.7954111141,
				"element": "H" 
			},
			{
				"x": -0.7110378143,
				"y": 3.050044365,
				"z": -0.2032020816,
				"element": "H" 
			},
			{
				"x": -2.9273274556,
				"y": 3.9618545434,
				"z": -0.0233565349,
				"element": "H" 
			},
			{
				"x": -3.4779707346,
				"y": 3.1869282764,
				"z": -1.4992490558,
				"element": "H" 
			},
			{
				"x": -4.2473835238,
				"y": 2.1588208701,
				"z": 0.7830722659,
				"element": "H" 
			},
			{
				"x": -3.7188015082,
				"y": 1.0489932963,
				"z": -0.4666767097,
				"element": "H" 
			},
			{
				"x": -1.8025511521,
				"y": 2.0721895777,
				"z": 1.6813354748,
				"element": "H" 
			},
			{
				"x": -2.8289347974,
				"y": 0.6678081529,
				"z": 1.9201893314,
				"element": "H" 
			},
			{
				"x": -1.08666343,
				"y": -0.4695191381,
				"z": 1.0838916214,
				"element": "H" 
			}
		],
		 "valence_orbital": [ 
			{
				"type": "occ",
				"energy": -0.29602,
				"method": "rhf"
			},
			{
				"type": "occ",
				"energy": -0.28611,
				"method": "rhf"
			},
			{
				"type": "occ",
				"energy": -0.27447,
				"method": "rhf"
			},
			{
				"type": "occ",
				"energy": -0.25283,
				"method": "rhf"
			},
			{
				"type": "occ",
				"energy": -0.22537,
				"method": "rhf"
			},
			{
				"type": "unocc",
				"energy": -0.0361,
				"method": "rhf"
			},
			{
				"type": "unocc",
				"energy": 0.01024,
				"method": "rhf"
			},
			{
				"type": "unocc",
				"energy": 0.06566,
				"method": "rhf"
			},
			{
				"type": "unocc",
				"energy": 0.09641,
				"method": "rhf"
			},
			{
				"type": "unocc",
				"energy": 0.10008,
				"method": "rhf"
			}
		],
		"cosmo_sigma_profile": { 
			"-0.025": 0.0,
			"-0.024": 0.0,
			"-0.023": 0.0,
			"-0.022": 0.0,
			"-0.021": 0.0,
			"-0.02": 0.0,
			"-0.019": 0.0,
			"-0.018": 0.0,
			"-0.017": 0.0,
			"-0.016": 0.0,
			"-0.015": 0.0,
			"-0.014": 0.0,
			"-0.013": 0.0,
			"-0.012": 0.0,
			"-0.011": 0.0,
			"-0.01": 0.055350587508,
			"-0.009": 1.02554142805,
			"-0.008": 0.710118486041,
			"-0.007": 1.60287917578,
			"-0.006": 4.45734243951,
			"-0.005": 20.8235722762,
			"-0.004": 30.1927979024,
			"-0.003": 40.3554902243,
			"-0.002": 39.4516895067,
			"-0.001": 34.1064289278,
			"0.0": 25.2095386057,
			"0.001": 9.66018264348,
			"0.002": 5.11603525746,
			"0.003": 3.49713874291,
			"0.004": 4.45148402901,
			"0.005": 4.24680501137,
			"0.006": 3.97548651588,
			"0.007": 4.67257973995,
			"0.008": 3.40709822438,
			"0.009": 4.7004784427,
			"0.01": 5.62899799347,
			"0.011": 5.78683700921,
			"0.012": 6.46624158524,
			"0.013": 6.28316895143,
			"0.014": 2.48123302329,
			"0.015": 0.121182044378,
			"0.016": 0.0,
			"0.017": 0.0,
			"0.018": 0.0,
			"0.019": 0.0,
			"0.02": 0.0,
			"0.021": 0.0,
			"0.022": 0.0,
			"0.023": 0.0,
			"0.024": 0.0,
			"0.025": 0.0
		}
	}
}
