{
	 "smiles": "CC1=C(C=C(C=C1)[N+]([O-])=O)S(=O)(=O)N1CCC(CC1)C(O)=O", 
	 "Tm": 381.15, 
	 "num_atms": 38, 
	 "gaussian": { 
		 "optdone": 1, 
		 "sigma_profile": "yes", 
		 "theory": "DFT", 
		 "functional": "B3LYP", 
		 "basiset": "6-31G**", 
		 "properties": { 
			 "R2extent": 9087.0523, 
			 "electric_dipole_moment_norm": 1.24665058858, 
			 "electric_quadrupole_moment_norm": 35.5464686283, 
			 "total_energy": -1463.91487614, 
			 "HOMO_LUMO_gap": 0.16598, 
			 "cosmo_polarized_energy": -21.54, 
			 "cosmo_cavitation_energy": 42.53, 
			 "cosmo_dispersion_energy": -29.63, 
			 "cosmo_repulsion_energy": 2.19, 
			 "cosmo_total_nonelectrostatic_energy": 15.1, 
			 "SMD_solvation_energy": 9.71 
		},
		"coords": [
			{
				"x": -0.6544055762,
				"y": 3.4128054286,
				"z": -0.5909364341,
				"element": "C" 
			},
			{
				"x": -1.3675635796,
				"y": 2.4054427671,
				"z": 0.2740185149,
				"element": "C" 
			},
			{
				"x": -0.9697921603,
				"y": 1.0508301535,
				"z": 0.3561752291,
				"element": "C" 
			},
			{
				"x": -1.6425239148,
				"y": 0.1399078106,
				"z": 1.1615746014,
				"element": "C" 
			},
			{
				"x": -2.7356889676,
				"y": 0.5816250878,
				"z": 1.9022938761,
				"element": "C" 
			},
			{
				"x": -3.1652303074,
				"y": 1.9029676101,
				"z": 1.8551755939,
				"element": "C" 
			},
			{
				"x": -2.4743505297,
				"y": 2.7965932485,
				"z": 1.0411486041,
				"element": "C" 
			},
			{
				"x": -3.4494373786,
				"y": -0.3805766872,
				"z": 2.7541562925,
				"element": "N" 
			},
			{
				"x": -3.0413929623,
				"y": -1.5417557482,
				"z": 2.7689840312,
				"element": "O" 
			},
			{
				"x": -4.41075653,
				"y": 0.0352227749,
				"z": 3.3991196346,
				"element": "O" 
			},
			{
				"x": 0.4552834187,
				"y": 0.4955705572,
				"z": -0.6151135955,
				"element": "S" 
			},
			{
				"x": 1.6322073173,
				"y": 1.1957062279,
				"z": -0.0850571465,
				"element": "O" 
			},
			{
				"x": 0.0833225191,
				"y": 0.6271444789,
				"z": -2.0302521476,
				"element": "O" 
			},
			{
				"x": 0.5939424696,
				"y": -1.1308376676,
				"z": -0.249821346,
				"element": "N" 
			},
			{
				"x": 0.1692693473,
				"y": -2.1218518214,
				"z": -1.2569951843,
				"element": "C" 
			},
			{
				"x": 1.3432738352,
				"y": -2.6119156457,
				"z": -2.1122195028,
				"element": "C" 
			},
			{
				"x": 2.494622557,
				"y": -3.1240603208,
				"z": -1.2160291558,
				"element": "C" 
			},
			{
				"x": 2.9105759382,
				"y": -2.0564010396,
				"z": -0.1942952676,
				"element": "C" 
			},
			{
				"x": 1.7042273734,
				"y": -1.5742125751,
				"z": 0.6181972884,
				"element": "C" 
			},
			{
				"x": 3.6799531202,
				"y": -3.5876528185,
				"z": -2.0440276037,
				"element": "C" 
			},
			{
				"x": 3.3342834316,
				"y": -4.5831049707,
				"z": -2.8983258665,
				"element": "O" 
			},
			{
				"x": 4.8077949095,
				"y": -3.1517828417,
				"z": -1.9769817477,
				"element": "O" 
			},
			{
				"x": -0.6695986861,
				"y": 3.1023189993,
				"z": -1.6399447961,
				"element": "H" 
			},
			{
				"x": 0.3973666793,
				"y": 3.4963881494,
				"z": -0.3012869589,
				"element": "H" 
			},
			{
				"x": -1.123622554,
				"y": 4.3950579111,
				"z": -0.5059674287,
				"element": "H" 
			},
			{
				"x": -1.3315274674,
				"y": -0.8940442197,
				"z": 1.219940064,
				"element": "H" 
			},
			{
				"x": -4.0194482111,
				"y": 2.2101395165,
				"z": 2.4455137843,
				"element": "H" 
			},
			{
				"x": -2.7995173575,
				"y": 3.8315044525,
				"z": 0.9955782054,
				"element": "H" 
			},
			{
				"x": -0.6041891987,
				"y": -1.6791682809,
				"z": -1.8846415378,
				"element": "H" 
			},
			{
				"x": -0.279503107,
				"y": -2.9617230895,
				"z": -0.709519804,
				"element": "H" 
			},
			{
				"x": 1.6960876334,
				"y": -1.7813032501,
				"z": -2.7345370449,
				"element": "H" 
			},
			{
				"x": 1.0034091822,
				"y": -3.4075094802,
				"z": -2.782091444,
				"element": "H" 
			},
			{
				"x": 2.126572006,
				"y": -4.0149743201,
				"z": -0.6840026236,
				"element": "H" 
			},
			{
				"x": 3.6736041351,
				"y": -2.455219366,
				"z": 0.4820982226,
				"element": "H" 
			},
			{
				"x": 3.3616258583,
				"y": -1.2048819042,
				"z": -0.713681806,
				"element": "H" 
			},
			{
				"x": 1.9861930435,
				"y": -0.7516574345,
				"z": 1.2751524603,
				"element": "H" 
			},
			{
				"x": 1.3116204703,
				"y": -2.3864330065,
				"z": 1.2450160751,
				"element": "H" 
			},
			{
				"x": 4.1422132431,
				"y": -4.8119586857,
				"z": -3.3880140356,
				"element": "H" 
			}
		],
		 "valence_orbital": [ 
			{
				"type": "occ",
				"energy": -0.29874,
				"method": "rhf"
			},
			{
				"type": "occ",
				"energy": -0.2879,
				"method": "rhf"
			},
			{
				"type": "occ",
				"energy": -0.28249,
				"method": "rhf"
			},
			{
				"type": "occ",
				"energy": -0.28041,
				"method": "rhf"
			},
			{
				"type": "occ",
				"energy": -0.2638,
				"method": "rhf"
			},
			{
				"type": "unocc",
				"energy": -0.09782,
				"method": "rhf"
			},
			{
				"type": "unocc",
				"energy": -0.04869,
				"method": "rhf"
			},
			{
				"type": "unocc",
				"energy": -0.01356,
				"method": "rhf"
			},
			{
				"type": "unocc",
				"energy": 2e-05,
				"method": "rhf"
			},
			{
				"type": "unocc",
				"energy": 0.04524,
				"method": "rhf"
			}
		],
		"cosmo_sigma_profile": { 
			"-0.025": 0.0,
			"-0.024": 0.0,
			"-0.023": 0.0,
			"-0.022": 0.0,
			"-0.021": 0.0,
			"-0.02": 0.0,
			"-0.019": 0.0232961987615,
			"-0.018": 0.692569668208,
			"-0.017": 0.922103740475,
			"-0.016": 0.919817049212,
			"-0.015": 0.798998403104,
			"-0.014": 0.945017449386,
			"-0.013": 0.500630480314,
			"-0.012": 0.441551521004,
			"-0.011": 0.675902156214,
			"-0.01": 0.792687526101,
			"-0.009": 0.640217639835,
			"-0.008": 4.02230054248,
			"-0.007": 9.27091934788,
			"-0.006": 18.0518440064,
			"-0.005": 26.5761887103,
			"-0.004": 36.7258525188,
			"-0.003": 31.2337381244,
			"-0.002": 28.579511697,
			"-0.001": 28.4052972069,
			"0.0": 22.7527732359,
			"0.001": 13.7360497006,
			"0.002": 9.63322973149,
			"0.003": 10.1034178512,
			"0.004": 8.2698279405,
			"0.005": 8.36228377359,
			"0.006": 9.71049073347,
			"0.007": 14.6340323519,
			"0.008": 12.9086733023,
			"0.009": 10.5541032554,
			"0.01": 12.1937316005,
			"0.011": 7.54233320005,
			"0.012": 4.98990700288,
			"0.013": 0.359809698435,
			"0.014": 0.0,
			"0.015": 0.0,
			"0.016": 0.0,
			"0.017": 0.0,
			"0.018": 0.0,
			"0.019": 0.0,
			"0.02": 0.0,
			"0.021": 0.0,
			"0.022": 0.0,
			"0.023": 0.0,
			"0.024": 0.0,
			"0.025": 0.0
		}
	}
}
