{
	 "smiles": "ClC1=NC(=NO1)C1=CC(Cl)=CC(Cl)=C1", 
	 "Tm": 341.15, 
	 "num_atms": 17, 
	 "gaussian": { 
		 "optdone": 1, 
		 "sigma_profile": "yes", 
		 "theory": "DFT", 
		 "functional": "B3LYP", 
		 "basiset": "6-31G**", 
		 "properties": { 
			 "R2extent": 6641.9185, 
			 "electric_dipole_moment_norm": 0.969689971073, 
			 "electric_quadrupole_moment_norm": 8.15709406774, 
			 "total_energy": -1871.91197372, 
			 "HOMO_LUMO_gap": 0.1888, 
			 "cosmo_polarized_energy": -5.27, 
			 "cosmo_cavitation_energy": 28.7, 
			 "cosmo_dispersion_energy": -21.73, 
			 "cosmo_repulsion_energy": 1.72, 
			 "cosmo_total_nonelectrostatic_energy": 8.69, 
			 "SMD_solvation_energy": 2.68 
		},
		"coords": [
			{
				"x": 3.2738103477,
				"y": 5.3272843675,
				"z": -2.2999843427,
				"element": "Cl" 
			},
			{
				"x": 2.1939116962,
				"y": 4.304084266,
				"z": -1.4706899007,
				"element": "C" 
			},
			{
				"x": 2.0465765798,
				"y": 3.0272300643,
				"z": -1.6132050802,
				"element": "N" 
			},
			{
				"x": 1.0476389924,
				"y": 2.7625442141,
				"z": -0.6939654493,
				"element": "C" 
			},
			{
				"x": 0.6172992415,
				"y": 3.817666616,
				"z": -0.0358732066,
				"element": "N" 
			},
			{
				"x": 1.3914611598,
				"y": 4.8681069452,
				"z": -0.5595754809,
				"element": "O" 
			},
			{
				"x": 0.5115522271,
				"y": 1.4124982536,
				"z": -0.4715464526,
				"element": "C" 
			},
			{
				"x": -0.5022583703,
				"y": 1.2040717776,
				"z": 0.4748169712,
				"element": "C" 
			},
			{
				"x": -0.9885291748,
				"y": -0.0849761547,
				"z": 0.6620411977,
				"element": "C" 
			},
			{
				"x": -2.2556298027,
				"y": -0.3632748921,
				"z": 1.8407024233,
				"element": "Cl" 
			},
			{
				"x": -0.4945602277,
				"y": -1.1699808241,
				"z": -0.0651643897,
				"element": "C" 
			},
			{
				"x": 0.5131144898,
				"y": -0.9330336473,
				"z": -0.9991112545,
				"element": "C" 
			},
			{
				"x": 1.1476919529,
				"y": -2.2806611079,
				"z": -1.9230489786,
				"element": "Cl" 
			},
			{
				"x": 1.0259613863,
				"y": 0.3434443078,
				"z": -1.2152196755,
				"element": "C" 
			},
			{
				"x": -0.8975577666,
				"y": 2.0337579822,
				"z": 1.048106369,
				"element": "H" 
			},
			{
				"x": -0.8840475814,
				"y": -2.1680092514,
				"z": 0.0925156801,
				"element": "H" 
			},
			{
				"x": 1.8086648501,
				"y": 0.5145470833,
				"z": -1.94359843,
				"element": "H" 
			}
		],
		 "valence_orbital": [ 
			{
				"type": "occ",
				"energy": -0.32535,
				"method": "rhf"
			},
			{
				"type": "occ",
				"energy": -0.32473,
				"method": "rhf"
			},
			{
				"type": "occ",
				"energy": -0.30784,
				"method": "rhf"
			},
			{
				"type": "occ",
				"energy": -0.26926,
				"method": "rhf"
			},
			{
				"type": "occ",
				"energy": -0.26454,
				"method": "rhf"
			},
			{
				"type": "unocc",
				"energy": -0.07574,
				"method": "rhf"
			},
			{
				"type": "unocc",
				"energy": -0.04009,
				"method": "rhf"
			},
			{
				"type": "unocc",
				"energy": -0.02945,
				"method": "rhf"
			},
			{
				"type": "unocc",
				"energy": -0.00468,
				"method": "rhf"
			},
			{
				"type": "unocc",
				"energy": -0.00231,
				"method": "rhf"
			}
		],
		"cosmo_sigma_profile": { 
			"-0.025": 0.0,
			"-0.024": 0.0,
			"-0.023": 0.0,
			"-0.022": 0.0,
			"-0.021": 0.0,
			"-0.02": 0.0,
			"-0.019": 0.0,
			"-0.018": 0.0,
			"-0.017": 0.0,
			"-0.016": 0.0,
			"-0.015": 0.0,
			"-0.014": 0.0,
			"-0.013": 0.0,
			"-0.012": 0.0,
			"-0.011": 0.0,
			"-0.01": 0.0905543072375,
			"-0.009": 1.02883919068,
			"-0.008": 2.13482736245,
			"-0.007": 5.19535889805,
			"-0.006": 7.9654757809,
			"-0.005": 9.79156833631,
			"-0.004": 11.0337875399,
			"-0.003": 14.673086691,
			"-0.002": 20.291810361,
			"-0.001": 28.2853952823,
			"0.0": 42.9790550537,
			"0.001": 24.5342800205,
			"0.002": 15.1931771546,
			"0.003": 19.0519418304,
			"0.004": 21.4722533974,
			"0.005": 5.1054030914,
			"0.006": 2.20462766201,
			"0.007": 3.01452123022,
			"0.008": 1.75923635637,
			"0.009": 2.59788633266,
			"0.01": 1.49600770648,
			"0.011": 0.190166908322,
			"0.012": 0.0,
			"0.013": 0.0,
			"0.014": 0.0,
			"0.015": 0.0,
			"0.016": 0.0,
			"0.017": 0.0,
			"0.018": 0.0,
			"0.019": 0.0,
			"0.02": 0.0,
			"0.021": 0.0,
			"0.022": 0.0,
			"0.023": 0.0,
			"0.024": 0.0,
			"0.025": 0.0
		}
	}
}
