{
	 "smiles": "ClC1=CC=C(C=C(C#N)C2=NC(=CS2)C2=CC=CC=C2)C=C1", 
	 "Tm": 377.15, 
	 "num_atms": 33, 
	 "gaussian": { 
		 "optdone": 1, 
		 "sigma_profile": "yes", 
		 "theory": "DFT", 
		 "functional": "B3LYP", 
		 "basiset": "6-31G**", 
		 "properties": { 
			 "R2extent": 9774.1135, 
			 "electric_dipole_moment_norm": 3.28675617136, 
			 "electric_quadrupole_moment_norm": 23.9151662346, 
			 "total_energy": -1660.39566031, 
			 "HOMO_LUMO_gap": 0.12662, 
			 "cosmo_polarized_energy": -11.92, 
			 "cosmo_cavitation_energy": 43.31, 
			 "cosmo_dispersion_energy": -29.98, 
			 "cosmo_repulsion_energy": 2.2, 
			 "cosmo_total_nonelectrostatic_energy": 15.53, 
			 "SMD_solvation_energy": 7.32 
		},
		"coords": [
			{
				"x": 0.8204728694,
				"y": -1.8959053064,
				"z": 5.2616268277,
				"element": "Cl" 
			},
			{
				"x": 1.2781345719,
				"y": -1.417266701,
				"z": 3.6393391548,
				"element": "C" 
			},
			{
				"x": 2.6257576717,
				"y": -1.4261008492,
				"z": 3.2750909481,
				"element": "C" 
			},
			{
				"x": 2.9732959261,
				"y": -1.0429301564,
				"z": 1.9867235344,
				"element": "C" 
			},
			{
				"x": 2.0017084061,
				"y": -0.6529416352,
				"z": 1.0346517033,
				"element": "C" 
			},
			{
				"x": 2.5194974152,
				"y": -0.2557161203,
				"z": -0.2661728052,
				"element": "C" 
			},
			{
				"x": 1.9958178736,
				"y": 0.1701365246,
				"z": -1.4627797512,
				"element": "C" 
			},
			{
				"x": 2.9864415532,
				"y": 0.5065477357,
				"z": -2.4536269594,
				"element": "C" 
			},
			{
				"x": 3.7867250737,
				"y": 0.783690019,
				"z": -3.2524227225,
				"element": "N" 
			},
			{
				"x": 0.6127634136,
				"y": 0.341606223,
				"z": -1.9208953897,
				"element": "C" 
			},
			{
				"x": -0.4790638363,
				"y": -0.026742136,
				"z": -1.3043062504,
				"element": "N" 
			},
			{
				"x": -1.6198649761,
				"y": 0.2832494319,
				"z": -2.0100416427,
				"element": "C" 
			},
			{
				"x": -1.3831097107,
				"y": 0.9050639291,
				"z": -3.2157184143,
				"element": "C" 
			},
			{
				"x": 0.3031949814,
				"y": 1.1173212625,
				"z": -3.4823279229,
				"element": "S" 
			},
			{
				"x": -2.9421065662,
				"y": -0.0764762315,
				"z": -1.4611714511,
				"element": "C" 
			},
			{
				"x": -4.1071788471,
				"y": 0.5894760123,
				"z": -1.875458441,
				"element": "C" 
			},
			{
				"x": -5.3516387661,
				"y": 0.2279491101,
				"z": -1.3637993676,
				"element": "C" 
			},
			{
				"x": -5.4540582919,
				"y": -0.8009614856,
				"z": -0.4248247452,
				"element": "C" 
			},
			{
				"x": -4.3009060348,
				"y": -1.464694026,
				"z": -0.001306166,
				"element": "C" 
			},
			{
				"x": -3.0550202253,
				"y": -1.1069494612,
				"z": -0.5134857626,
				"element": "C" 
			},
			{
				"x": 0.6491628441,
				"y": -0.6591602051,
				"z": 1.4383055278,
				"element": "C" 
			},
			{
				"x": 0.291793844,
				"y": -1.0336610865,
				"z": 2.7290953969,
				"element": "C" 
			},
			{
				"x": 3.3836676269,
				"y": -1.7244575301,
				"z": 3.9904959102,
				"element": "H" 
			},
			{
				"x": 4.022955305,
				"y": -1.0426564276,
				"z": 1.7058662421,
				"element": "H" 
			},
			{
				"x": 3.6066461867,
				"y": -0.2893450182,
				"z": -0.2891548357,
				"element": "H" 
			},
			{
				"x": -2.1022713162,
				"y": 1.2111238918,
				"z": -3.9613150739,
				"element": "H" 
			},
			{
				"x": -4.0375560593,
				"y": 1.4098582132,
				"z": -2.5838210825,
				"element": "H" 
			},
			{
				"x": -6.2416784209,
				"y": 0.7572913888,
				"z": -1.6914677949,
				"element": "H" 
			},
			{
				"x": -6.4241454808,
				"y": -1.0799220628,
				"z": -0.0241523468,
				"element": "H" 
			},
			{
				"x": -4.3716835427,
				"y": -2.2675142642,
				"z": 0.72703797,
				"element": "H" 
			},
			{
				"x": -2.1598723697,
				"y": -1.6303069847,
				"z": -0.1950591518,
				"element": "H" 
			},
			{
				"x": -0.1147992177,
				"y": -0.3772397509,
				"z": 0.7259778024,
				"element": "H" 
			},
			{
				"x": -0.7500819012,
				"y": -1.0311663031,
				"z": 3.0299970596,
				"element": "H" 
			}
		],
		 "valence_orbital": [ 
			{
				"type": "occ",
				"energy": -0.28624,
				"method": "rhf"
			},
			{
				"type": "occ",
				"energy": -0.27621,
				"method": "rhf"
			},
			{
				"type": "occ",
				"energy": -0.26001,
				"method": "rhf"
			},
			{
				"type": "occ",
				"energy": -0.24901,
				"method": "rhf"
			},
			{
				"type": "occ",
				"energy": -0.22262,
				"method": "rhf"
			},
			{
				"type": "unocc",
				"energy": -0.096,
				"method": "rhf"
			},
			{
				"type": "unocc",
				"energy": -0.04343,
				"method": "rhf"
			},
			{
				"type": "unocc",
				"energy": -0.02454,
				"method": "rhf"
			},
			{
				"type": "unocc",
				"energy": -0.01661,
				"method": "rhf"
			},
			{
				"type": "unocc",
				"energy": -0.00969,
				"method": "rhf"
			}
		],
		"cosmo_sigma_profile": { 
			"-0.025": 0.0,
			"-0.024": 0.0,
			"-0.023": 0.0,
			"-0.022": 0.0,
			"-0.021": 0.0,
			"-0.02": 0.0,
			"-0.019": 0.0,
			"-0.018": 0.0,
			"-0.017": 0.0,
			"-0.016": 0.0,
			"-0.015": 0.0,
			"-0.014": 0.0,
			"-0.013": 0.0,
			"-0.012": 0.0,
			"-0.011": 0.0,
			"-0.01": 1.86758755446,
			"-0.009": 5.21343763242,
			"-0.008": 6.42538573404,
			"-0.007": 10.4631424766,
			"-0.006": 13.717207341,
			"-0.005": 15.4569175231,
			"-0.004": 19.714533393,
			"-0.003": 20.9801372748,
			"-0.002": 22.6988171155,
			"-0.001": 32.2789301451,
			"0.0": 36.7042184054,
			"0.001": 41.6630505341,
			"0.002": 44.1015920503,
			"0.003": 25.4464067479,
			"0.004": 21.8847600225,
			"0.005": 15.1127597377,
			"0.006": 3.94457758926,
			"0.007": 2.8408434742,
			"0.008": 2.74140998599,
			"0.009": 3.31069743478,
			"0.01": 2.68826232562,
			"0.011": 2.77248383868,
			"0.012": 2.21825900632,
			"0.013": 0.925877227279,
			"0.014": 0.0,
			"0.015": 0.0,
			"0.016": 0.0,
			"0.017": 0.0,
			"0.018": 0.0,
			"0.019": 0.0,
			"0.02": 0.0,
			"0.021": 0.0,
			"0.022": 0.0,
			"0.023": 0.0,
			"0.024": 0.0,
			"0.025": 0.0
		}
	}
}
