{
	 "smiles": "CC1=CC2=C(C=C1)C(=CN2)C(=O)CC#N", 
	 "Tm": 542.15, 
	 "num_atms": 25, 
	 "gaussian": { 
		 "optdone": 1, 
		 "sigma_profile": "yes", 
		 "theory": "DFT", 
		 "functional": "B3LYP", 
		 "basiset": "6-31G**", 
		 "properties": { 
			 "R2extent": 4265.1582, 
			 "electric_dipole_moment_norm": 5.85264171806, 
			 "electric_quadrupole_moment_norm": 22.1302337699, 
			 "total_energy": -648.022414674, 
			 "HOMO_LUMO_gap": 0.1684, 
			 "cosmo_polarized_energy": -18.61, 
			 "cosmo_cavitation_energy": 30.11, 
			 "cosmo_dispersion_energy": -21.17, 
			 "cosmo_repulsion_energy": 1.65, 
			 "cosmo_total_nonelectrostatic_energy": 10.58, 
			 "SMD_solvation_energy": 6.86 
		},
		"coords": [
			{
				"x": 2.6094517908,
				"y": 0.7829333659,
				"z": -1.2381545253,
				"element": "C" 
			},
			{
				"x": 1.3161717201,
				"y": 0.2938466641,
				"z": -0.6296260725,
				"element": "C" 
			},
			{
				"x": 0.5668253488,
				"y": -0.7056358685,
				"z": -1.2446440347,
				"element": "C" 
			},
			{
				"x": -0.6196340302,
				"y": -1.116587264,
				"z": -0.6321644864,
				"element": "C" 
			},
			{
				"x": -1.1021047007,
				"y": -0.5678538778,
				"z": 0.5840425717,
				"element": "C" 
			},
			{
				"x": -0.3258219592,
				"y": 0.4358273473,
				"z": 1.1932075166,
				"element": "C" 
			},
			{
				"x": 0.8524777476,
				"y": 0.8476148241,
				"z": 0.586622695,
				"element": "C" 
			},
			{
				"x": -2.3518515287,
				"y": -1.2532296806,
				"z": 0.8763203239,
				"element": "C" 
			},
			{
				"x": -2.5514369714,
				"y": -2.1626185152,
				"z": -0.1508768419,
				"element": "C" 
			},
			{
				"x": -1.5285307347,
				"y": -2.0833277539,
				"z": -1.0433927701,
				"element": "N" 
			},
			{
				"x": -3.3392132781,
				"y": -1.1207486786,
				"z": 1.9455657052,
				"element": "C" 
			},
			{
				"x": -4.3647601055,
				"y": -1.7864123233,
				"z": 1.9817435856,
				"element": "O" 
			},
			{
				"x": -3.1074135981,
				"y": -0.0718691599,
				"z": 3.0627706807,
				"element": "C" 
			},
			{
				"x": -2.0280149774,
				"y": -0.4377914903,
				"z": 3.9790390503,
				"element": "C" 
			},
			{
				"x": -1.1718372572,
				"y": -0.7371043428,
				"z": 4.7039379168,
				"element": "N" 
			},
			{
				"x": 2.8368703603,
				"y": 0.2602629062,
				"z": -2.1713560566,
				"element": "H" 
			},
			{
				"x": 3.4531340736,
				"y": 0.6301306467,
				"z": -0.5552828181,
				"element": "H" 
			},
			{
				"x": 2.5658169951,
				"y": 1.855947336,
				"z": -1.4581661478,
				"element": "H" 
			},
			{
				"x": 0.8991053267,
				"y": -1.1546913679,
				"z": -2.1771132517,
				"element": "H" 
			},
			{
				"x": -0.6150994615,
				"y": 0.87920636,
				"z": 2.1388667372,
				"element": "H" 
			},
			{
				"x": 1.4476383835,
				"y": 1.6197888405,
				"z": 1.0671450281,
				"element": "H" 
			},
			{
				"x": -3.3749799375,
				"y": -2.8494227795,
				"z": -0.2778485917,
				"element": "H" 
			},
			{
				"x": -1.4401416617,
				"y": -2.6456315134,
				"z": -1.875470172,
				"element": "H" 
			},
			{
				"x": -2.8843486055,
				"y": 0.906797736,
				"z": 2.6215463323,
				"element": "H" 
			},
			{
				"x": -4.0444029389,
				"y": 0.0037685888,
				"z": 3.6208876254,
				"element": "H" 
			}
		],
		 "valence_orbital": [ 
			{
				"type": "occ",
				"energy": -0.32264,
				"method": "rhf"
			},
			{
				"type": "occ",
				"energy": -0.28703,
				"method": "rhf"
			},
			{
				"type": "occ",
				"energy": -0.25575,
				"method": "rhf"
			},
			{
				"type": "occ",
				"energy": -0.23747,
				"method": "rhf"
			},
			{
				"type": "occ",
				"energy": -0.22059,
				"method": "rhf"
			},
			{
				"type": "unocc",
				"energy": -0.05219,
				"method": "rhf"
			},
			{
				"type": "unocc",
				"energy": -0.01243,
				"method": "rhf"
			},
			{
				"type": "unocc",
				"energy": 0.00905,
				"method": "rhf"
			},
			{
				"type": "unocc",
				"energy": 0.03812,
				"method": "rhf"
			},
			{
				"type": "unocc",
				"energy": 0.03954,
				"method": "rhf"
			}
		],
		"cosmo_sigma_profile": { 
			"-0.025": 0.0,
			"-0.024": 0.0,
			"-0.023": 0.0,
			"-0.022": 0.0,
			"-0.021": 0.0,
			"-0.02": 0.0,
			"-0.019": 0.0,
			"-0.018": 0.0,
			"-0.017": 0.840515741943,
			"-0.016": 2.02490291765,
			"-0.015": 1.28778238068,
			"-0.014": 1.25823161325,
			"-0.013": 1.26689181632,
			"-0.012": 1.37608665823,
			"-0.011": 1.48924388184,
			"-0.01": 2.82325699119,
			"-0.009": 6.85622605175,
			"-0.008": 8.01483078523,
			"-0.007": 7.17538298875,
			"-0.006": 9.39057261063,
			"-0.005": 10.0358654836,
			"-0.004": 14.1023801415,
			"-0.003": 14.3351074138,
			"-0.002": 16.2462157511,
			"-0.001": 14.7163748639,
			"0.0": 15.2296157688,
			"0.001": 15.7914482741,
			"0.002": 15.8487351804,
			"0.003": 14.697962084,
			"0.004": 12.0564221199,
			"0.005": 13.7924541754,
			"0.006": 7.48936301027,
			"0.007": 4.52976132578,
			"0.008": 4.15069431108,
			"0.009": 4.46315348452,
			"0.01": 5.52349407097,
			"0.011": 5.42644197047,
			"0.012": 6.77718878285,
			"0.013": 2.39179402037,
			"0.014": 0.0596628386499,
			"0.015": 0.0,
			"0.016": 0.0,
			"0.017": 0.0,
			"0.018": 0.0,
			"0.019": 0.0,
			"0.02": 0.0,
			"0.021": 0.0,
			"0.022": 0.0,
			"0.023": 0.0,
			"0.024": 0.0,
			"0.025": 0.0
		}
	}
}
