{
	 "smiles": "OC(=O)C=CC1=CN(CCC#N)C2=C1C=CC=C2", 
	 "Tm": 463.15, 
	 "num_atms": 30, 
	 "gaussian": { 
		 "optdone": 1, 
		 "sigma_profile": "yes", 
		 "theory": "DFT", 
		 "functional": "B3LYP", 
		 "basiset": "6-31G**", 
		 "properties": { 
			 "R2extent": 6232.9848, 
			 "electric_dipole_moment_norm": 1.8883448308, 
			 "electric_quadrupole_moment_norm": 18.7684962927, 
			 "total_energy": -800.654419173, 
			 "HOMO_LUMO_gap": 0.15281, 
			 "cosmo_polarized_energy": -22.51, 
			 "cosmo_cavitation_energy": 35.74, 
			 "cosmo_dispersion_energy": -24.59, 
			 "cosmo_repulsion_energy": 1.9, 
			 "cosmo_total_nonelectrostatic_energy": 13.05, 
			 "SMD_solvation_energy": 8.29 
		},
		"coords": [
			{
				"x": 3.1859363711,
				"y": -3.9928082718,
				"z": 2.9759385639,
				"element": "O" 
			},
			{
				"x": 2.2719561115,
				"y": -3.2966708012,
				"z": 2.2401774161,
				"element": "C" 
			},
			{
				"x": 1.0932593022,
				"y": -3.2764404456,
				"z": 2.5484663493,
				"element": "O" 
			},
			{
				"x": 2.9117106644,
				"y": -2.6794549483,
				"z": 1.0726000042,
				"element": "C" 
			},
			{
				"x": 2.3467095612,
				"y": -1.8776624386,
				"z": 0.138439963,
				"element": "C" 
			},
			{
				"x": 1.0586345845,
				"y": -1.2193930724,
				"z": 0.0159725261,
				"element": "C" 
			},
			{
				"x": 0.5549273292,
				"y": -0.9093867411,
				"z": -1.2370059214,
				"element": "C" 
			},
			{
				"x": -0.6438597339,
				"y": -0.2511129627,
				"z": -1.1397056441,
				"element": "N" 
			},
			{
				"x": -1.5034761848,
				"y": 0.1065396437,
				"z": -2.2478435646,
				"element": "C" 
			},
			{
				"x": -2.6270602414,
				"y": -0.9382155429,
				"z": -2.4680116387,
				"element": "C" 
			},
			{
				"x": -3.5005674703,
				"y": -0.5658407042,
				"z": -3.5815044911,
				"element": "C" 
			},
			{
				"x": -4.1735156377,
				"y": -0.2429232636,
				"z": -4.4702161818,
				"element": "N" 
			},
			{
				"x": -0.941836658,
				"y": -0.0833216424,
				"z": 0.2110551128,
				"element": "C" 
			},
			{
				"x": 0.1048103941,
				"y": -0.6725480628,
				"z": 0.9691423406,
				"element": "C" 
			},
			{
				"x": 0.0647411496,
				"y": -0.5431035455,
				"z": 2.3673941079,
				"element": "C" 
			},
			{
				"x": -1.0076942523,
				"y": 0.1156396608,
				"z": 2.9567492762,
				"element": "C" 
			},
			{
				"x": -2.0483083674,
				"y": 0.6634883234,
				"z": 2.1838242185,
				"element": "C" 
			},
			{
				"x": -2.0282793287,
				"y": 0.5748756047,
				"z": 0.7967071224,
				"element": "C" 
			},
			{
				"x": 2.6794559711,
				"y": -4.4024914975,
				"z": 3.6963111755,
				"element": "H" 
			},
			{
				"x": 3.9384787251,
				"y": -2.9916574168,
				"z": 0.9111283877,
				"element": "H" 
			},
			{
				"x": 2.9907370472,
				"y": -1.6873673316,
				"z": -0.7212059388,
				"element": "H" 
			},
			{
				"x": 0.9774496886,
				"y": -1.1311795605,
				"z": -2.2083668485,
				"element": "H" 
			},
			{
				"x": -0.8914953276,
				"y": 0.1899194379,
				"z": -3.1494237373,
				"element": "H" 
			},
			{
				"x": -1.9429631004,
				"y": 1.0906101193,
				"z": -2.0604676612,
				"element": "H" 
			},
			{
				"x": -3.2265369374,
				"y": -1.0364355026,
				"z": -1.5567469432,
				"element": "H" 
			},
			{
				"x": -2.1849092196,
				"y": -1.9198904431,
				"z": -2.6700031331,
				"element": "H" 
			},
			{
				"x": 0.847895926,
				"y": -0.9668523757,
				"z": 2.9795182346,
				"element": "H" 
			},
			{
				"x": -1.0453892157,
				"y": 0.2078156294,
				"z": 4.0380392126,
				"element": "H" 
			},
			{
				"x": -2.8744523067,
				"y": 1.1688091115,
				"z": 2.6750068447,
				"element": "H" 
			},
			{
				"x": -2.8196588438,
				"y": 1.0164590403,
				"z": 0.1983308476,
				"element": "H" 
			}
		],
		 "valence_orbital": [ 
			{
				"type": "occ",
				"energy": -0.30434,
				"method": "rhf"
			},
			{
				"type": "occ",
				"energy": -0.26813,
				"method": "rhf"
			},
			{
				"type": "occ",
				"energy": -0.25741,
				"method": "rhf"
			},
			{
				"type": "occ",
				"energy": -0.23339,
				"method": "rhf"
			},
			{
				"type": "occ",
				"energy": -0.2093,
				"method": "rhf"
			},
			{
				"type": "unocc",
				"energy": -0.05649,
				"method": "rhf"
			},
			{
				"type": "unocc",
				"energy": -0.01474,
				"method": "rhf"
			},
			{
				"type": "unocc",
				"energy": 0.01065,
				"method": "rhf"
			},
			{
				"type": "unocc",
				"energy": 0.023,
				"method": "rhf"
			},
			{
				"type": "unocc",
				"energy": 0.02679,
				"method": "rhf"
			}
		],
		"cosmo_sigma_profile": { 
			"-0.025": 0.0,
			"-0.024": 0.0,
			"-0.023": 0.0,
			"-0.022": 0.0,
			"-0.021": 0.0,
			"-0.02": 0.0,
			"-0.019": 0.0,
			"-0.018": 0.135449961099,
			"-0.017": 0.839086491568,
			"-0.016": 0.815902095293,
			"-0.015": 0.966779699919,
			"-0.014": 0.862132283697,
			"-0.013": 0.347804983348,
			"-0.012": 0.627986560143,
			"-0.011": 0.329626374562,
			"-0.01": 2.39664072892,
			"-0.009": 9.12651361234,
			"-0.008": 15.7748596131,
			"-0.007": 15.0966777414,
			"-0.006": 15.337917214,
			"-0.005": 19.6176494492,
			"-0.004": 15.7082691641,
			"-0.003": 14.9579934747,
			"-0.002": 13.4257435189,
			"-0.001": 13.9436522681,
			"0.0": 12.9905658494,
			"0.001": 13.5001214563,
			"0.002": 14.7954145315,
			"0.003": 16.938502762,
			"0.004": 17.3115863813,
			"0.005": 12.5993917554,
			"0.006": 12.1986121406,
			"0.007": 8.42531831721,
			"0.008": 6.90073166518,
			"0.009": 6.55462163202,
			"0.01": 7.15677722562,
			"0.011": 4.97933308726,
			"0.012": 5.94124459276,
			"0.013": 5.52699796601,
			"0.014": 0.24414602814,
			"0.015": 0.0,
			"0.016": 0.0,
			"0.017": 0.0,
			"0.018": 0.0,
			"0.019": 0.0,
			"0.02": 0.0,
			"0.021": 0.0,
			"0.022": 0.0,
			"0.023": 0.0,
			"0.024": 0.0,
			"0.025": 0.0
		}
	}
}
