{
	 "smiles": "[O-][N+](=O)C1=CC(=CC=C1)C#N", 
	 "Tm": 389.15, 
	 "num_atms": 15, 
	 "gaussian": { 
		 "optdone": 1, 
		 "sigma_profile": "yes", 
		 "theory": "DFT", 
		 "functional": "B3LYP", 
		 "basiset": "6-31G**", 
		 "properties": { 
			 "R2extent": 1949.0182, 
			 "electric_dipole_moment_norm": 4.23155196234, 
			 "electric_quadrupole_moment_norm": 13.6479338455, 
			 "total_energy": -528.983704928, 
			 "HOMO_LUMO_gap": 0.18463, 
			 "cosmo_polarized_energy": -12.14, 
			 "cosmo_cavitation_energy": 21.78, 
			 "cosmo_dispersion_energy": -15.43, 
			 "cosmo_repulsion_energy": 1.24, 
			 "cosmo_total_nonelectrostatic_energy": 7.59, 
			 "SMD_solvation_energy": 7.56 
		},
		"coords": [
			{
				"x": 2.3293145277,
				"y": 2.3860750415,
				"z": -1.5957063998,
				"element": "O" 
			},
			{
				"x": 2.2534762108,
				"y": 1.5545205423,
				"z": -0.6940099211,
				"element": "N" 
			},
			{
				"x": 3.2047648968,
				"y": 1.1190639219,
				"z": -0.0498568422,
				"element": "O" 
			},
			{
				"x": 0.911459176,
				"y": 1.038156928,
				"z": -0.3588975303,
				"element": "C" 
			},
			{
				"x": 0.7963801576,
				"y": 0.0964981244,
				"z": 0.656718954,
				"element": "C" 
			},
			{
				"x": -0.4810800277,
				"y": -0.3889869434,
				"z": 0.9689330993,
				"element": "C" 
			},
			{
				"x": -1.6059577277,
				"y": 0.0752803698,
				"z": 0.2632175779,
				"element": "C" 
			},
			{
				"x": -1.4537026711,
				"y": 1.0202748088,
				"z": -0.749557283,
				"element": "C" 
			},
			{
				"x": -0.1889560441,
				"y": 1.5117198526,
				"z": -1.0706109667,
				"element": "C" 
			},
			{
				"x": -0.6409715445,
				"y": -1.3621847052,
				"z": 2.0113345655,
				"element": "C" 
			},
			{
				"x": -0.7786609377,
				"y": -2.1507455134,
				"z": 2.8545133518,
				"element": "N" 
			},
			{
				"x": 1.6786415933,
				"y": -0.2433975203,
				"z": 1.1835935356,
				"element": "H" 
			},
			{
				"x": -2.5882412789,
				"y": -0.3092590456,
				"z": 0.5156684527,
				"element": "H" 
			},
			{
				"x": -2.323602011,
				"y": 1.3758893835,
				"z": -1.2915209497,
				"element": "H" 
			},
			{
				"x": -0.0388643196,
				"y": 2.245994755,
				"z": -1.8521196441,
				"element": "H" 
			}
		],
		 "valence_orbital": [ 
			{
				"type": "occ",
				"energy": -0.32763,
				"method": "rhf"
			},
			{
				"type": "occ",
				"energy": -0.32477,
				"method": "rhf"
			},
			{
				"type": "occ",
				"energy": -0.30965,
				"method": "rhf"
			},
			{
				"type": "occ",
				"energy": -0.30836,
				"method": "rhf"
			},
			{
				"type": "occ",
				"energy": -0.29413,
				"method": "rhf"
			},
			{
				"type": "unocc",
				"energy": -0.1095,
				"method": "rhf"
			},
			{
				"type": "unocc",
				"energy": -0.07547,
				"method": "rhf"
			},
			{
				"type": "unocc",
				"energy": -0.02817,
				"method": "rhf"
			},
			{
				"type": "unocc",
				"energy": 0.01694,
				"method": "rhf"
			},
			{
				"type": "unocc",
				"energy": 0.05743,
				"method": "rhf"
			}
		],
		"cosmo_sigma_profile": { 
			"-0.025": 0.0,
			"-0.024": 0.0,
			"-0.023": 0.0,
			"-0.022": 0.0,
			"-0.021": 0.0,
			"-0.02": 0.0,
			"-0.019": 0.0,
			"-0.018": 0.0,
			"-0.017": 0.0,
			"-0.016": 0.0,
			"-0.015": 0.0,
			"-0.014": 0.0,
			"-0.013": 0.0,
			"-0.012": 0.0,
			"-0.011": 0.0,
			"-0.01": 0.929889300482,
			"-0.009": 5.40365834707,
			"-0.008": 9.66073102172,
			"-0.007": 8.95642388217,
			"-0.006": 8.5894789236,
			"-0.005": 8.83689164341,
			"-0.004": 10.4184631985,
			"-0.003": 14.387608777,
			"-0.002": 18.1080422906,
			"-0.001": 14.8667399515,
			"0.0": 9.76503520306,
			"0.001": 4.52568133679,
			"0.002": 4.29220429834,
			"0.003": 4.2504249932,
			"0.004": 4.59523637463,
			"0.005": 5.74842587868,
			"0.006": 8.04990824355,
			"0.007": 12.2957681167,
			"0.008": 8.42184979274,
			"0.009": 6.53580718068,
			"0.01": 3.66334585041,
			"0.011": 2.49595222797,
			"0.012": 2.05028155408,
			"0.013": 0.400505430187,
			"0.014": 0.0,
			"0.015": 0.0,
			"0.016": 0.0,
			"0.017": 0.0,
			"0.018": 0.0,
			"0.019": 0.0,
			"0.02": 0.0,
			"0.021": 0.0,
			"0.022": 0.0,
			"0.023": 0.0,
			"0.024": 0.0,
			"0.025": 0.0
		}
	}
}
