{
	 "smiles": "OC1=CC(NS(=O)(=O)C2=CC=CC=C2)=CC=C1", 
	 "Tm": 401.15, 
	 "num_atms": 28, 
	 "gaussian": { 
		 "optdone": 1, 
		 "sigma_profile": "yes", 
		 "theory": "DFT", 
		 "functional": "B3LYP", 
		 "basiset": "6-31G**", 
		 "properties": { 
			 "R2extent": 5820.6338, 
			 "electric_dipole_moment_norm": 4.82802125306, 
			 "electric_quadrupole_moment_norm": 20.1008696434, 
			 "total_energy": -1142.44056728, 
			 "HOMO_LUMO_gap": 0.1785, 
			 "cosmo_polarized_energy": -19.22, 
			 "cosmo_cavitation_energy": 33.84, 
			 "cosmo_dispersion_energy": -24.65, 
			 "cosmo_repulsion_energy": 1.86, 
			 "cosmo_total_nonelectrostatic_energy": 11.05, 
			 "SMD_solvation_energy": 5.26 
		},
		"coords": [
			{
				"x": 4.3590376584,
				"y": 1.7357668232,
				"z": -3.6618200953,
				"element": "O" 
			},
			{
				"x": 3.505948633,
				"y": 1.3543337945,
				"z": -2.6661467394,
				"element": "C" 
			},
			{
				"x": 2.1393263747,
				"y": 1.4030149333,
				"z": -2.9527659595,
				"element": "C" 
			},
			{
				"x": 1.208713647,
				"y": 1.0380231314,
				"z": -1.976017032,
				"element": "C" 
			},
			{
				"x": -0.172381281,
				"y": 1.1697584096,
				"z": -2.2758577406,
				"element": "N" 
			},
			{
				"x": -1.3364972031,
				"y": -0.0313562925,
				"z": -1.9409815395,
				"element": "S" 
			},
			{
				"x": -0.7082200012,
				"y": -1.3442129452,
				"z": -1.7916834922,
				"element": "O" 
			},
			{
				"x": -2.3682591064,
				"y": 0.2243691748,
				"z": -2.9506880931,
				"element": "O" 
			},
			{
				"x": -1.9786299844,
				"y": 0.4458597434,
				"z": -0.3350335753,
				"element": "C" 
			},
			{
				"x": -2.6601589679,
				"y": 1.6584838645,
				"z": -0.2027464554,
				"element": "C" 
			},
			{
				"x": -3.1889234566,
				"y": 2.0015354549,
				"z": 1.0395665825,
				"element": "C" 
			},
			{
				"x": -3.0422965301,
				"y": 1.1361942706,
				"z": 2.1285100244,
				"element": "C" 
			},
			{
				"x": -2.3686882869,
				"y": -0.0767118464,
				"z": 1.9787967762,
				"element": "C" 
			},
			{
				"x": -1.8319363255,
				"y": -0.4317977671,
				"z": 0.7392018117,
				"element": "C" 
			},
			{
				"x": 1.6425400544,
				"y": 0.613553723,
				"z": -0.7120329339,
				"element": "C" 
			},
			{
				"x": 3.0086559343,
				"y": 0.5496901849,
				"z": -0.4522113402,
				"element": "C" 
			},
			{
				"x": 3.9497030297,
				"y": 0.920069887,
				"z": -1.4131303863,
				"element": "C" 
			},
			{
				"x": 5.2688042448,
				"y": 1.6334593963,
				"z": -3.3539903392,
				"element": "H" 
			},
			{
				"x": 1.8229256076,
				"y": 1.7234863438,
				"z": -3.940620807,
				"element": "H" 
			},
			{
				"x": -0.3749518127,
				"y": 1.5260130743,
				"z": -3.2051464754,
				"element": "H" 
			},
			{
				"x": -2.7740860314,
				"y": 2.3162586364,
				"z": -1.0575249408,
				"element": "H" 
			},
			{
				"x": -3.7184063558,
				"y": 2.9419100986,
				"z": 1.1582498644,
				"element": "H" 
			},
			{
				"x": -3.4580732215,
				"y": 1.4086662094,
				"z": 3.0940792405,
				"element": "H" 
			},
			{
				"x": -2.2625294876,
				"y": -0.750465778,
				"z": 2.8235304823,
				"element": "H" 
			},
			{
				"x": -1.3116879984,
				"y": -1.372034896,
				"z": 0.5938388741,
				"element": "H" 
			},
			{
				"x": 0.9265481223,
				"y": 0.3463203898,
				"z": 0.0550191878,
				"element": "H" 
			},
			{
				"x": 3.3487447707,
				"y": 0.215405531,
				"z": 0.523495099,
				"element": "H" 
			},
			{
				"x": 5.0135779737,
				"y": 0.8741064507,
				"z": -1.1931899977,
				"element": "H" 
			}
		],
		 "valence_orbital": [ 
			{
				"type": "occ",
				"energy": -0.30423,
				"method": "rhf"
			},
			{
				"type": "occ",
				"energy": -0.27418,
				"method": "rhf"
			},
			{
				"type": "occ",
				"energy": -0.27231,
				"method": "rhf"
			},
			{
				"type": "occ",
				"energy": -0.23649,
				"method": "rhf"
			},
			{
				"type": "occ",
				"energy": -0.22012,
				"method": "rhf"
			},
			{
				"type": "unocc",
				"energy": -0.04162,
				"method": "rhf"
			},
			{
				"type": "unocc",
				"energy": -0.02353,
				"method": "rhf"
			},
			{
				"type": "unocc",
				"energy": -0.00505,
				"method": "rhf"
			},
			{
				"type": "unocc",
				"energy": 0.00752,
				"method": "rhf"
			},
			{
				"type": "unocc",
				"energy": 0.05641,
				"method": "rhf"
			}
		],
		"cosmo_sigma_profile": { 
			"-0.025": 0.0,
			"-0.024": 0.0,
			"-0.023": 0.0,
			"-0.022": 0.0,
			"-0.021": 0.0,
			"-0.02": 0.0,
			"-0.019": 0.0,
			"-0.018": 0.635589119828,
			"-0.017": 0.88370262544,
			"-0.016": 1.26370685788,
			"-0.015": 1.88752402147,
			"-0.014": 1.49170999259,
			"-0.013": 2.15162845528,
			"-0.012": 1.56588600386,
			"-0.011": 2.67600857415,
			"-0.01": 2.81916078865,
			"-0.009": 2.21184788705,
			"-0.008": 3.12773540031,
			"-0.007": 11.3072569835,
			"-0.006": 16.7224447746,
			"-0.005": 17.3031082906,
			"-0.004": 16.6119120955,
			"-0.003": 13.791943289,
			"-0.002": 14.6201232284,
			"-0.001": 14.3463809341,
			"0.0": 12.8114199675,
			"0.001": 15.3929552137,
			"0.002": 19.7339246631,
			"0.003": 22.0819541345,
			"0.004": 16.1871645114,
			"0.005": 13.6303634898,
			"0.006": 7.42630089006,
			"0.007": 6.21904499107,
			"0.008": 4.43741152594,
			"0.009": 6.03029455712,
			"0.01": 10.9601334454,
			"0.011": 9.67614790829,
			"0.012": 1.04504897707,
			"0.013": 0.0,
			"0.014": 0.0,
			"0.015": 0.0,
			"0.016": 0.0,
			"0.017": 0.0,
			"0.018": 0.0,
			"0.019": 0.0,
			"0.02": 0.0,
			"0.021": 0.0,
			"0.022": 0.0,
			"0.023": 0.0,
			"0.024": 0.0,
			"0.025": 0.0
		}
	}
}
