{
	 "smiles": "CC(=O)NC1=CC=CC=C1", 
	 "Tm": 387.15, 
	 "num_atms": 19, 
	 "gaussian": { 
		 "optdone": 1, 
		 "sigma_profile": "yes", 
		 "theory": "DFT", 
		 "functional": "B3LYP", 
		 "basiset": "6-31G**", 
		 "properties": { 
			 "R2extent": 1982.4158, 
			 "electric_dipole_moment_norm": 2.9045347321, 
			 "electric_quadrupole_moment_norm": 14.8605300737, 
			 "total_energy": -440.265632274, 
			 "HOMO_LUMO_gap": 0.20554, 
			 "cosmo_polarized_energy": -10.75, 
			 "cosmo_cavitation_energy": 22.72, 
			 "cosmo_dispersion_energy": -16.87, 
			 "cosmo_repulsion_energy": 1.36, 
			 "cosmo_total_nonelectrostatic_energy": 7.21, 
			 "SMD_solvation_energy": 4.78 
		},
		"coords": [
			{
				"x": 1.6602543206,
				"y": -2.3498514501,
				"z": -2.4447600593,
				"element": "C" 
			},
			{
				"x": 2.4698314422,
				"y": -1.2224042076,
				"z": -1.8402773761,
				"element": "C" 
			},
			{
				"x": 3.6431327319,
				"y": -1.0450283555,
				"z": -2.1388441156,
				"element": "O" 
			},
			{
				"x": 1.8865384135,
				"y": -0.3588993735,
				"z": -0.9242359299,
				"element": "N" 
			},
			{
				"x": 0.6197207612,
				"y": -0.2108718919,
				"z": -0.3280709322,
				"element": "C" 
			},
			{
				"x": 0.4844325899,
				"y": 0.8549459421,
				"z": 0.5828660635,
				"element": "C" 
			},
			{
				"x": -0.7211096649,
				"y": 1.0964969465,
				"z": 1.2314302363,
				"element": "C" 
			},
			{
				"x": -1.8296154557,
				"y": 0.2815290538,
				"z": 0.9909489501,
				"element": "C" 
			},
			{
				"x": -1.7025111093,
				"y": -0.7745031584,
				"z": 0.0910007618,
				"element": "C" 
			},
			{
				"x": -0.4973479344,
				"y": -1.0279580101,
				"z": -0.567027509,
				"element": "C" 
			},
			{
				"x": 2.3177483185,
				"y": -2.8884670409,
				"z": -3.1265101329,
				"element": "H" 
			},
			{
				"x": 0.7970660812,
				"y": -1.9703682427,
				"z": -3.0002776568,
				"element": "H" 
			},
			{
				"x": 1.2953942361,
				"y": -3.0381193247,
				"z": -1.6760821233,
				"element": "H" 
			},
			{
				"x": 2.5721169262,
				"y": 0.3265444286,
				"z": -0.6294232449,
				"element": "H" 
			},
			{
				"x": 1.3404334653,
				"y": 1.4964610458,
				"z": 0.7783963263,
				"element": "H" 
			},
			{
				"x": -0.7919843391,
				"y": 1.926847268,
				"z": 1.9281063051,
				"element": "H" 
			},
			{
				"x": -2.7722754508,
				"y": 0.4672598222,
				"z": 1.4955481415,
				"element": "H" 
			},
			{
				"x": -2.5518430755,
				"y": -1.4211046564,
				"z": -0.1111296109,
				"element": "H" 
			},
			{
				"x": -0.4481822569,
				"y": -1.8581087951,
				"z": -1.2553580937,
				"element": "H" 
			}
		],
		 "valence_orbital": [ 
			{
				"type": "occ",
				"energy": -0.34962,
				"method": "rhf"
			},
			{
				"type": "occ",
				"energy": -0.30792,
				"method": "rhf"
			},
			{
				"type": "occ",
				"energy": -0.25911,
				"method": "rhf"
			},
			{
				"type": "occ",
				"energy": -0.25597,
				"method": "rhf"
			},
			{
				"type": "occ",
				"energy": -0.22011,
				"method": "rhf"
			},
			{
				"type": "unocc",
				"energy": -0.01457,
				"method": "rhf"
			},
			{
				"type": "unocc",
				"energy": -0.00984,
				"method": "rhf"
			},
			{
				"type": "unocc",
				"energy": 0.03936,
				"method": "rhf"
			},
			{
				"type": "unocc",
				"energy": 0.07792,
				"method": "rhf"
			},
			{
				"type": "unocc",
				"energy": 0.09704,
				"method": "rhf"
			}
		],
		"cosmo_sigma_profile": { 
			"-0.025": 0.0,
			"-0.024": 0.0,
			"-0.023": 0.0,
			"-0.022": 0.0,
			"-0.021": 0.0,
			"-0.02": 0.0,
			"-0.019": 0.0,
			"-0.018": 0.0,
			"-0.017": 0.0,
			"-0.016": 0.0,
			"-0.015": 0.0,
			"-0.014": 0.0401120782654,
			"-0.013": 0.923485752345,
			"-0.012": 1.14922247505,
			"-0.011": 1.27689734303,
			"-0.01": 1.80253665231,
			"-0.009": 1.06396118869,
			"-0.008": 1.412555003,
			"-0.007": 4.01612770852,
			"-0.006": 13.1291870598,
			"-0.005": 16.0831914524,
			"-0.004": 15.2648312768,
			"-0.003": 13.9800939898,
			"-0.002": 13.4767574417,
			"-0.001": 13.2922199188,
			"0.0": 8.77485932919,
			"0.001": 9.2238085284,
			"0.002": 10.6636024317,
			"0.003": 9.09958158858,
			"0.004": 10.2081044821,
			"0.005": 10.6293550235,
			"0.006": 7.35611331342,
			"0.007": 1.24903394306,
			"0.008": 1.26275571103,
			"0.009": 1.22353267533,
			"0.01": 1.18467417825,
			"0.011": 1.8995902164,
			"0.012": 2.41747412815,
			"0.013": 5.09069685275,
			"0.014": 3.37018784352,
			"0.015": 0.356451142121,
			"0.016": 0.0,
			"0.017": 0.0,
			"0.018": 0.0,
			"0.019": 0.0,
			"0.02": 0.0,
			"0.021": 0.0,
			"0.022": 0.0,
			"0.023": 0.0,
			"0.024": 0.0,
			"0.025": 0.0
		}
	}
}
