{
	 "smiles": "CN1C(C)=CC=C1C(N)=O", 
	 "Tm": 426.15, 
	 "num_atms": 20, 
	 "gaussian": { 
		 "optdone": 1, 
		 "sigma_profile": "yes", 
		 "theory": "DFT", 
		 "functional": "B3LYP", 
		 "basiset": "6-31G**", 
		 "properties": { 
			 "R2extent": 1644.0892, 
			 "electric_dipole_moment_norm": 2.27077002578, 
			 "electric_quadrupole_moment_norm": 10.3363189865, 
			 "total_energy": -457.51590689, 
			 "HOMO_LUMO_gap": 0.19622, 
			 "cosmo_polarized_energy": -11.97, 
			 "cosmo_cavitation_energy": 23.16, 
			 "cosmo_dispersion_energy": -17.13, 
			 "cosmo_repulsion_energy": 1.39, 
			 "cosmo_total_nonelectrostatic_energy": 7.42, 
			 "SMD_solvation_energy": 4.76 
		},
		"coords": [
			{
				"x": -1.8661485692,
				"y": 0.0622252215,
				"z": -1.1445470621,
				"element": "C" 
			},
			{
				"x": -0.4126601644,
				"y": -0.0236265669,
				"z": -1.0292172647,
				"element": "N" 
			},
			{
				"x": 0.3878522997,
				"y": -0.8754308687,
				"z": -1.7516879749,
				"element": "C" 
			},
			{
				"x": -0.1396294192,
				"y": -1.8329767349,
				"z": -2.7737948424,
				"element": "C" 
			},
			{
				"x": 1.7033706695,
				"y": -0.6707502409,
				"z": -1.356578033,
				"element": "C" 
			},
			{
				"x": 1.7010645361,
				"y": 0.3337480332,
				"z": -0.3691226175,
				"element": "C" 
			},
			{
				"x": 0.382476982,
				"y": 0.7300544296,
				"z": -0.1734303067,
				"element": "C" 
			},
			{
				"x": -0.1800446754,
				"y": 1.7268946445,
				"z": 0.7489228893,
				"element": "C" 
			},
			{
				"x": 0.7479167122,
				"y": 2.5214435328,
				"z": 1.3906571533,
				"element": "N" 
			},
			{
				"x": -1.3844754064,
				"y": 1.8435172116,
				"z": 0.9786627884,
				"element": "O" 
			},
			{
				"x": -2.1849768945,
				"y": -0.5427438098,
				"z": -1.9934575542,
				"element": "H" 
			},
			{
				"x": -2.1755329897,
				"y": 1.0964666594,
				"z": -1.2955314702,
				"element": "H" 
			},
			{
				"x": -2.3494562698,
				"y": -0.2965786655,
				"z": -0.2339217642,
				"element": "H" 
			},
			{
				"x": -0.6429478986,
				"y": -1.3256794536,
				"z": -3.606243839,
				"element": "H" 
			},
			{
				"x": -0.8509058772,
				"y": -2.5516686574,
				"z": -2.3490535987,
				"element": "H" 
			},
			{
				"x": 0.6928828482,
				"y": -2.4026007838,
				"z": -3.193116987,
				"element": "H" 
			},
			{
				"x": 2.5599477432,
				"y": -1.203904955,
				"z": -1.745383822,
				"element": "H" 
			},
			{
				"x": 2.5600168297,
				"y": 0.7057398438,
				"z": 0.172529818,
				"element": "H" 
			},
			{
				"x": 0.3536415154,
				"y": 3.2885321521,
				"z": 1.9153917632,
				"element": "H" 
			},
			{
				"x": 1.6514080283,
				"y": 2.6754390081,
				"z": 0.9708227243,
				"element": "H" 
			}
		],
		 "valence_orbital": [ 
			{
				"type": "occ",
				"energy": -0.35483,
				"method": "rhf"
			},
			{
				"type": "occ",
				"energy": -0.26259,
				"method": "rhf"
			},
			{
				"type": "occ",
				"energy": -0.24264,
				"method": "rhf"
			},
			{
				"type": "occ",
				"energy": -0.23647,
				"method": "rhf"
			},
			{
				"type": "occ",
				"energy": -0.20678,
				"method": "rhf"
			},
			{
				"type": "unocc",
				"energy": -0.01056,
				"method": "rhf"
			},
			{
				"type": "unocc",
				"energy": 0.06361,
				"method": "rhf"
			},
			{
				"type": "unocc",
				"energy": 0.0877,
				"method": "rhf"
			},
			{
				"type": "unocc",
				"energy": 0.09576,
				"method": "rhf"
			},
			{
				"type": "unocc",
				"energy": 0.11702,
				"method": "rhf"
			}
		],
		"cosmo_sigma_profile": { 
			"-0.025": 0.0,
			"-0.024": 0.0,
			"-0.023": 0.0,
			"-0.022": 0.0,
			"-0.021": 0.0,
			"-0.02": 0.0,
			"-0.019": 0.0,
			"-0.018": 0.0,
			"-0.017": 0.0,
			"-0.016": 0.0,
			"-0.015": 0.0,
			"-0.014": 0.160418243185,
			"-0.013": 1.99949413568,
			"-0.012": 2.24085032974,
			"-0.011": 2.09793268399,
			"-0.01": 2.79020937473,
			"-0.009": 1.86297306736,
			"-0.008": 2.95319512106,
			"-0.007": 1.99925097741,
			"-0.006": 4.45504614418,
			"-0.005": 13.5574189685,
			"-0.004": 16.8284128189,
			"-0.003": 16.3800328174,
			"-0.002": 17.0066270523,
			"-0.001": 14.775278318,
			"0.0": 12.4395720834,
			"0.001": 8.15558131657,
			"0.002": 6.42279092006,
			"0.003": 8.89674987258,
			"0.004": 7.72271268342,
			"0.005": 7.99705134095,
			"0.006": 6.89907474947,
			"0.007": 6.34915160146,
			"0.008": 4.0874705362,
			"0.009": 2.18578364528,
			"0.01": 1.2881766347,
			"0.011": 1.63975169734,
			"0.012": 2.05022459124,
			"0.013": 2.15486330896,
			"0.014": 3.68209456928,
			"0.015": 1.6818066611,
			"0.016": 0.0236658814928,
			"0.017": 0.0,
			"0.018": 0.0,
			"0.019": 0.0,
			"0.02": 0.0,
			"0.021": 0.0,
			"0.022": 0.0,
			"0.023": 0.0,
			"0.024": 0.0,
			"0.025": 0.0
		}
	}
}
