{
	 "smiles": "CC1(CC2=CC3=C(OCO3)C=C2)NC(=O)NC1=O", 
	 "Tm": 457.15, 
	 "num_atms": 30, 
	 "gaussian": { 
		 "optdone": 1, 
		 "sigma_profile": "yes", 
		 "theory": "DFT", 
		 "functional": "B3LYP", 
		 "basiset": "6-31G**", 
		 "properties": { 
			 "R2extent": 5733.122, 
			 "electric_dipole_moment_norm": 2.87552055287, 
			 "electric_quadrupole_moment_norm": 7.55682851863, 
			 "total_energy": -874.925837959, 
			 "HOMO_LUMO_gap": 0.19477, 
			 "cosmo_polarized_energy": -20.15, 
			 "cosmo_cavitation_energy": 33.87, 
			 "cosmo_dispersion_energy": -24.33, 
			 "cosmo_repulsion_energy": 1.88, 
			 "cosmo_total_nonelectrostatic_energy": 11.42, 
			 "SMD_solvation_energy": 7.29 
		},
		"coords": [
			{
				"x": 0.8955759409,
				"y": 1.5760628409,
				"z": -0.0223201787,
				"element": "C" 
			},
			{
				"x": 0.102332082,
				"y": 1.0783663699,
				"z": 1.1900643464,
				"element": "C" 
			},
			{
				"x": -1.2564995078,
				"y": 0.4085408656,
				"z": 0.792164668,
				"element": "C" 
			},
			{
				"x": -1.2212484666,
				"y": -0.6465409057,
				"z": -0.2939159916,
				"element": "C" 
			},
			{
				"x": -1.4992565256,
				"y": -0.2763378121,
				"z": -1.6301045814,
				"element": "C" 
			},
			{
				"x": -1.4636444313,
				"y": -1.265998452,
				"z": -2.5907698056,
				"element": "C" 
			},
			{
				"x": -1.176578396,
				"y": -2.5910453109,
				"z": -2.2743496716,
				"element": "C" 
			},
			{
				"x": -1.2437782703,
				"y": -3.3631105526,
				"z": -3.4097473508,
				"element": "O" 
			},
			{
				"x": -1.4218265445,
				"y": -2.4429137805,
				"z": -4.4923720259,
				"element": "C" 
			},
			{
				"x": -1.7228887163,
				"y": -1.1568873232,
				"z": -3.9370725248,
				"element": "O" 
			},
			{
				"x": -0.9120324233,
				"y": -2.9838110989,
				"z": -0.9775324056,
				"element": "C" 
			},
			{
				"x": -0.939599723,
				"y": -1.9835488666,
				"z": 0.0096694272,
				"element": "C" 
			},
			{
				"x": -0.1489820078,
				"y": 2.1440544714,
				"z": 2.1640974864,
				"element": "N" 
			},
			{
				"x": 0.267235074,
				"y": 1.8483276343,
				"z": 3.4374185626,
				"element": "C" 
			},
			{
				"x": 0.1051127773,
				"y": 2.483734571,
				"z": 4.4582467234,
				"element": "O" 
			},
			{
				"x": 0.9574160104,
				"y": 0.6225580447,
				"z": 3.3223560941,
				"element": "N" 
			},
			{
				"x": 0.96805966,
				"y": 0.1177041179,
				"z": 2.0389536972,
				"element": "C" 
			},
			{
				"x": 1.5411175611,
				"y": -0.8814856627,
				"z": 1.6566892676,
				"element": "O" 
			},
			{
				"x": 1.7918655115,
				"y": 2.11026076,
				"z": 0.3038179563,
				"element": "H" 
			},
			{
				"x": 1.1937700272,
				"y": 0.7303284469,
				"z": -0.6444353311,
				"element": "H" 
			},
			{
				"x": 0.2884981325,
				"y": 2.2582406952,
				"z": -0.6266070192,
				"element": "H" 
			},
			{
				"x": -1.9127875046,
				"y": 1.2269793441,
				"z": 0.4705212428,
				"element": "H" 
			},
			{
				"x": -1.7014884172,
				"y": -0.0017041277,
				"z": 1.7056699108,
				"element": "H" 
			},
			{
				"x": -1.7426598381,
				"y": 0.7469707549,
				"z": -1.8961777181,
				"element": "H" 
			},
			{
				"x": -2.2559945961,
				"y": -2.7736735954,
				"z": -5.1187688118,
				"element": "H" 
			},
			{
				"x": -0.4935132291,
				"y": -2.3813311624,
				"z": -5.0786999439,
				"element": "H" 
			},
			{
				"x": -0.6953791149,
				"y": -4.0174242921,
				"z": -0.7332763253,
				"element": "H" 
			},
			{
				"x": -0.7198892829,
				"y": -2.259874561,
				"z": 1.0348038735,
				"element": "H" 
			},
			{
				"x": -0.8216517058,
				"y": 2.8824772304,
				"z": 2.0227757579,
				"element": "H" 
			},
			{
				"x": 1.4479159244,
				"y": 0.2050813564,
				"z": 4.1002006711,
				"element": "H" 
			}
		],
		 "valence_orbital": [ 
			{
				"type": "occ",
				"energy": -0.28777,
				"method": "rhf"
			},
			{
				"type": "occ",
				"energy": -0.26923,
				"method": "rhf"
			},
			{
				"type": "occ",
				"energy": -0.26115,
				"method": "rhf"
			},
			{
				"type": "occ",
				"energy": -0.24749,
				"method": "rhf"
			},
			{
				"type": "occ",
				"energy": -0.20733,
				"method": "rhf"
			},
			{
				"type": "unocc",
				"energy": -0.01256,
				"method": "rhf"
			},
			{
				"type": "unocc",
				"energy": -0.0032,
				"method": "rhf"
			},
			{
				"type": "unocc",
				"energy": 0.00653,
				"method": "rhf"
			},
			{
				"type": "unocc",
				"energy": 0.05966,
				"method": "rhf"
			},
			{
				"type": "unocc",
				"energy": 0.0693,
				"method": "rhf"
			}
		],
		"cosmo_sigma_profile": { 
			"-0.025": 0.0,
			"-0.024": 0.0,
			"-0.023": 0.0,
			"-0.022": 0.0,
			"-0.021": 0.0,
			"-0.02": 0.0,
			"-0.019": 0.0,
			"-0.018": 0.0,
			"-0.017": 0.331587157202,
			"-0.016": 1.24253361351,
			"-0.015": 2.18873712016,
			"-0.014": 2.24831874068,
			"-0.013": 1.32255402993,
			"-0.012": 1.36998233167,
			"-0.011": 2.68441548885,
			"-0.01": 2.41262370847,
			"-0.009": 2.34916108273,
			"-0.008": 4.17267953156,
			"-0.007": 11.2747016938,
			"-0.006": 18.4666556103,
			"-0.005": 19.0593672902,
			"-0.004": 16.9366360341,
			"-0.003": 16.7953075879,
			"-0.002": 17.3229501156,
			"-0.001": 18.1081329699,
			"0.0": 15.2786822832,
			"0.001": 12.3824137277,
			"0.002": 14.2082978231,
			"0.003": 15.3301884544,
			"0.004": 12.0720021997,
			"0.005": 9.61002475651,
			"0.006": 6.18528022082,
			"0.007": 5.74069089958,
			"0.008": 5.37420366587,
			"0.009": 6.28954811863,
			"0.01": 5.54643163751,
			"0.011": 4.66660859285,
			"0.012": 8.0884830304,
			"0.013": 8.16834840674,
			"0.014": 1.12611437129,
			"0.015": 0.0,
			"0.016": 0.0,
			"0.017": 0.0,
			"0.018": 0.0,
			"0.019": 0.0,
			"0.02": 0.0,
			"0.021": 0.0,
			"0.022": 0.0,
			"0.023": 0.0,
			"0.024": 0.0,
			"0.025": 0.0
		}
	}
}
