{
	 "smiles": "CCC1=C(CC)N=C(N=N1)C1=CC=CC=N1", 
	 "Tm": 343.15, 
	 "num_atms": 30, 
	 "gaussian": { 
		 "optdone": 1, 
		 "sigma_profile": "yes", 
		 "theory": "DFT", 
		 "functional": "B3LYP", 
		 "basiset": "6-31G**", 
		 "properties": { 
			 "R2extent": 4510.6562, 
			 "electric_dipole_moment_norm": 1.04173871004, 
			 "electric_quadrupole_moment_norm": 17.1011977943, 
			 "total_energy": -684.695490002, 
			 "HOMO_LUMO_gap": 0.16219, 
			 "cosmo_polarized_energy": -13.91, 
			 "cosmo_cavitation_energy": 33.77, 
			 "cosmo_dispersion_energy": -24.27, 
			 "cosmo_repulsion_energy": 1.91, 
			 "cosmo_total_nonelectrostatic_energy": 11.41, 
			 "SMD_solvation_energy": 2.04 
		},
		"coords": [
			{
				"x": 3.5339533145,
				"y": -1.6702631188,
				"z": 1.8947446258,
				"element": "C" 
			},
			{
				"x": 3.4957743226,
				"y": -1.090006423,
				"z": 0.4680310995,
				"element": "C" 
			},
			{
				"x": 2.1736890146,
				"y": -0.4384063835,
				"z": 0.1445893882,
				"element": "C" 
			},
			{
				"x": 1.0640903054,
				"y": -1.1229307665,
				"z": -0.4183063604,
				"element": "C" 
			},
			{
				"x": 1.1289831335,
				"y": -2.586438834,
				"z": -0.801480241,
				"element": "C" 
			},
			{
				"x": -0.1874264196,
				"y": -3.163771947,
				"z": -1.3230465785,
				"element": "C" 
			},
			{
				"x": -0.0690541386,
				"y": -0.4688992135,
				"z": -0.6357019969,
				"element": "N" 
			},
			{
				"x": -0.0931026381,
				"y": 0.8325199236,
				"z": -0.2962848089,
				"element": "C" 
			},
			{
				"x": 0.9376035999,
				"y": 1.5073467111,
				"z": 0.2280442854,
				"element": "N" 
			},
			{
				"x": 2.0790141652,
				"y": 0.8595676902,
				"z": 0.4449839241,
				"element": "N" 
			},
			{
				"x": -1.3517026435,
				"y": 1.606770605,
				"z": -0.5147261824,
				"element": "C" 
			},
			{
				"x": -1.4057548145,
				"y": 2.9693218716,
				"z": -0.1822393575,
				"element": "C" 
			},
			{
				"x": -2.5940760832,
				"y": 3.6611851751,
				"z": -0.3977027752,
				"element": "C" 
			},
			{
				"x": -3.6841820928,
				"y": 2.9772076983,
				"z": -0.9343665138,
				"element": "C" 
			},
			{
				"x": -3.5286247061,
				"y": 1.6210327183,
				"z": -1.2314152091,
				"element": "C" 
			},
			{
				"x": -2.3972061258,
				"y": 0.9417840059,
				"z": -1.0316624793,
				"element": "N" 
			},
			{
				"x": 3.3551743066,
				"y": -0.8809870406,
				"z": 2.630594426,
				"element": "H" 
			},
			{
				"x": 2.7731128399,
				"y": -2.4444230164,
				"z": 2.039706036,
				"element": "H" 
			},
			{
				"x": 4.5112236561,
				"y": -2.1170069085,
				"z": 2.1018079648,
				"element": "H" 
			},
			{
				"x": 3.7197222584,
				"y": -1.8766435471,
				"z": -0.2601983197,
				"element": "H" 
			},
			{
				"x": 4.2697050283,
				"y": -0.3226671845,
				"z": 0.3726142122,
				"element": "H" 
			},
			{
				"x": 1.477936537,
				"y": -3.1595322668,
				"z": 0.0677116905,
				"element": "H" 
			},
			{
				"x": 1.91846747,
				"y": -2.7061962817,
				"z": -1.5573035317,
				"element": "H" 
			},
			{
				"x": -0.0571829989,
				"y": -4.2192051895,
				"z": -1.5806162164,
				"element": "H" 
			},
			{
				"x": -0.5310529481,
				"y": -2.6257930112,
				"z": -2.2093740331,
				"element": "H" 
			},
			{
				"x": -0.9785693259,
				"y": -3.0825098762,
				"z": -0.5734587481,
				"element": "H" 
			},
			{
				"x": -0.5281462296,
				"y": 3.4501915918,
				"z": 0.2317815127,
				"element": "H" 
			},
			{
				"x": -2.6667196464,
				"y": 4.7164378075,
				"z": -0.1506087254,
				"element": "H" 
			},
			{
				"x": -4.6306313042,
				"y": 3.4755776136,
				"z": -1.1195809851,
				"element": "H" 
			},
			{
				"x": -4.3575178363,
				"y": 1.0531375969,
				"z": -1.6515361028,
				"element": "H" 
			}
		],
		 "valence_orbital": [ 
			{
				"type": "occ",
				"energy": -0.29665,
				"method": "rhf"
			},
			{
				"type": "occ",
				"energy": -0.28332,
				"method": "rhf"
			},
			{
				"type": "occ",
				"energy": -0.25173,
				"method": "rhf"
			},
			{
				"type": "occ",
				"energy": -0.24633,
				"method": "rhf"
			},
			{
				"type": "occ",
				"energy": -0.22315,
				"method": "rhf"
			},
			{
				"type": "unocc",
				"energy": -0.06096,
				"method": "rhf"
			},
			{
				"type": "unocc",
				"energy": -0.0549,
				"method": "rhf"
			},
			{
				"type": "unocc",
				"energy": -0.01675,
				"method": "rhf"
			},
			{
				"type": "unocc",
				"energy": 0.01661,
				"method": "rhf"
			},
			{
				"type": "unocc",
				"energy": 0.0798,
				"method": "rhf"
			}
		],
		"cosmo_sigma_profile": { 
			"-0.025": 0.0,
			"-0.024": 0.0,
			"-0.023": 0.0,
			"-0.022": 0.0,
			"-0.021": 0.0,
			"-0.02": 0.0,
			"-0.019": 0.0,
			"-0.018": 0.0,
			"-0.017": 0.0,
			"-0.016": 0.0,
			"-0.015": 0.0,
			"-0.014": 0.0,
			"-0.013": 0.0,
			"-0.012": 0.0,
			"-0.011": 0.0,
			"-0.01": 0.0,
			"-0.009": 0.0,
			"-0.008": 0.675571582817,
			"-0.007": 5.32594833223,
			"-0.006": 13.1829275983,
			"-0.005": 19.2412880503,
			"-0.004": 21.0172252477,
			"-0.003": 28.0922578675,
			"-0.002": 30.6511505379,
			"-0.001": 29.7594785195,
			"0.0": 25.6347607379,
			"0.001": 25.3474673676,
			"0.002": 19.7907490821,
			"0.003": 6.50390842648,
			"0.004": 6.16282726233,
			"0.005": 4.2936428978,
			"0.006": 3.8909031674,
			"0.007": 3.23567051714,
			"0.008": 3.10974750683,
			"0.009": 3.91286566458,
			"0.01": 2.57207594506,
			"0.011": 3.3580332408,
			"0.012": 3.25226854138,
			"0.013": 2.73268033236,
			"0.014": 2.11837802214,
			"0.015": 1.37827302948,
			"0.016": 0.80500739023,
			"0.017": 0.755483812915,
			"0.018": 0.962989526895,
			"0.019": 0.630968875898,
			"0.02": 0.0896740064149,
			"0.021": 0.0,
			"0.022": 0.0,
			"0.023": 0.0,
			"0.024": 0.0,
			"0.025": 0.0
		}
	}
}
