{
	 "smiles": "CCC1=C(N)C=C(C=C1)C(O)=O", 
	 "Tm": 420.15, 
	 "num_atms": 23, 
	 "gaussian": { 
		 "optdone": 1, 
		 "sigma_profile": "yes", 
		 "theory": "DFT", 
		 "functional": "B3LYP", 
		 "basiset": "6-31G**", 
		 "properties": { 
			 "R2extent": 2790.4461, 
			 "electric_dipole_moment_norm": 3.57592644919, 
			 "electric_quadrupole_moment_norm": 12.8873483743, 
			 "total_energy": -554.819665878, 
			 "HOMO_LUMO_gap": 0.16941, 
			 "cosmo_polarized_energy": -13.35, 
			 "cosmo_cavitation_energy": 26.51, 
			 "cosmo_dispersion_energy": -19.47, 
			 "cosmo_repulsion_energy": 1.56, 
			 "cosmo_total_nonelectrostatic_energy": 8.61, 
			 "SMD_solvation_energy": 5.74 
		},
		"coords": [
			{
				"x": -1.2978494706,
				"y": -0.7690888756,
				"z": 2.5001116561,
				"element": "C" 
			},
			{
				"x": -1.3721908644,
				"y": -1.2851858597,
				"z": 1.0499609527,
				"element": "C" 
			},
			{
				"x": -0.5890712185,
				"y": -0.4392384693,
				"z": 0.0692276576,
				"element": "C" 
			},
			{
				"x": 0.8252010904,
				"y": -0.5013740053,
				"z": 0.012058461,
				"element": "C" 
			},
			{
				"x": 1.5430285555,
				"y": -1.3340170334,
				"z": 0.8788854665,
				"element": "N" 
			},
			{
				"x": 1.5153137626,
				"y": 0.3236594767,
				"z": -0.8862537164,
				"element": "C" 
			},
			{
				"x": 0.8264447556,
				"y": 1.2079098934,
				"z": -1.7221712158,
				"element": "C" 
			},
			{
				"x": -0.5707513615,
				"y": 1.271584773,
				"z": -1.6749541258,
				"element": "C" 
			},
			{
				"x": -1.2532271994,
				"y": 0.4486303004,
				"z": -0.7850015496,
				"element": "C" 
			},
			{
				"x": 1.5359747431,
				"y": 2.0914759805,
				"z": -2.6815488691,
				"element": "C" 
			},
			{
				"x": 2.8876609196,
				"y": 1.9459724729,
				"z": -2.648627898,
				"element": "O" 
			},
			{
				"x": 0.9983281678,
				"y": 2.8783997595,
				"z": -3.4367474747,
				"element": "O" 
			},
			{
				"x": -0.2633077259,
				"y": -0.7248592753,
				"z": 2.8519545258,
				"element": "H" 
			},
			{
				"x": -1.863753895,
				"y": -1.4201826069,
				"z": 3.1746504274,
				"element": "H" 
			},
			{
				"x": -1.7169284863,
				"y": 0.239306763,
				"z": 2.5699309086,
				"element": "H" 
			},
			{
				"x": -2.4192940914,
				"y": -1.3177970199,
				"z": 0.7299479585,
				"element": "H" 
			},
			{
				"x": -1.0244524023,
				"y": -2.3287951179,
				"z": 1.017714814,
				"element": "H" 
			},
			{
				"x": 2.4859600584,
				"y": -1.537010019,
				"z": 0.5753971139,
				"element": "H" 
			},
			{
				"x": 1.0611458736,
				"y": -2.1720787945,
				"z": 1.1741311032,
				"element": "H" 
			},
			{
				"x": 2.598686786,
				"y": 0.2790575919,
				"z": -0.932671627,
				"element": "H" 
			},
			{
				"x": -1.0925998113,
				"y": 1.9570514681,
				"z": -2.3325339799,
				"element": "H" 
			},
			{
				"x": -2.3390328474,
				"y": 0.4896400146,
				"z": -0.7448472569,
				"element": "H" 
			},
			{
				"x": 3.2298146613,
				"y": 2.5697385829,
				"z": -3.3095133322,
				"element": "H" 
			}
		],
		 "valence_orbital": [ 
			{
				"type": "occ",
				"energy": -0.31728,
				"method": "rhf"
			},
			{
				"type": "occ",
				"energy": -0.30465,
				"method": "rhf"
			},
			{
				"type": "occ",
				"energy": -0.26883,
				"method": "rhf"
			},
			{
				"type": "occ",
				"energy": -0.24849,
				"method": "rhf"
			},
			{
				"type": "occ",
				"energy": -0.20794,
				"method": "rhf"
			},
			{
				"type": "unocc",
				"energy": -0.03853,
				"method": "rhf"
			},
			{
				"type": "unocc",
				"energy": 0.00927,
				"method": "rhf"
			},
			{
				"type": "unocc",
				"energy": 0.06601,
				"method": "rhf"
			},
			{
				"type": "unocc",
				"energy": 0.06825,
				"method": "rhf"
			},
			{
				"type": "unocc",
				"energy": 0.08405,
				"method": "rhf"
			}
		],
		"cosmo_sigma_profile": { 
			"-0.025": 0.0,
			"-0.024": 0.0,
			"-0.023": 0.0,
			"-0.022": 0.0,
			"-0.021": 0.0,
			"-0.02": 0.0,
			"-0.019": 0.0,
			"-0.018": 0.340944324674,
			"-0.017": 1.01797187452,
			"-0.016": 1.00533645287,
			"-0.015": 0.546702475048,
			"-0.014": 0.933605724624,
			"-0.013": 0.876388591788,
			"-0.012": 2.70614142937,
			"-0.011": 3.37652287336,
			"-0.01": 4.31245864371,
			"-0.009": 3.64921557841,
			"-0.008": 3.04815430336,
			"-0.007": 4.09290763242,
			"-0.006": 3.75590718881,
			"-0.005": 7.85696692715,
			"-0.004": 9.69645174859,
			"-0.003": 12.5302410557,
			"-0.002": 16.1909097428,
			"-0.001": 18.5636600578,
			"0.0": 17.7935971885,
			"0.001": 17.1264950611,
			"0.002": 12.768373668,
			"0.003": 12.1329918487,
			"0.004": 13.037045121,
			"0.005": 13.4226040917,
			"0.006": 5.13834789487,
			"0.007": 4.22285698107,
			"0.008": 4.10419651814,
			"0.009": 1.82015425242,
			"0.01": 2.55681476797,
			"0.011": 3.49130139424,
			"0.012": 5.93519818914,
			"0.013": 0.963431743759,
			"0.014": 0.114384655421,
			"0.015": 0.0,
			"0.016": 0.0,
			"0.017": 0.0,
			"0.018": 0.0,
			"0.019": 0.0,
			"0.02": 0.0,
			"0.021": 0.0,
			"0.022": 0.0,
			"0.023": 0.0,
			"0.024": 0.0,
			"0.025": 0.0
		}
	}
}
