{
	 "smiles": "FS(=O)(=O)CC1=C(Cl)C=CC=C1", 
	 "Tm": 343.15, 
	 "num_atms": 18, 
	 "gaussian": { 
		 "optdone": 1, 
		 "sigma_profile": "yes", 
		 "theory": "DFT", 
		 "functional": "B3LYP", 
		 "basiset": "6-31G**", 
		 "properties": { 
			 "R2extent": 4396.483, 
			 "electric_dipole_moment_norm": 4.76776723949, 
			 "electric_quadrupole_moment_norm": 19.1013987341, 
			 "total_energy": -1378.96805323, 
			 "HOMO_LUMO_gap": 0.21945, 
			 "cosmo_polarized_energy": -10.92, 
			 "cosmo_cavitation_energy": 25.68, 
			 "cosmo_dispersion_energy": -19.26, 
			 "cosmo_repulsion_energy": 1.47, 
			 "cosmo_total_nonelectrostatic_energy": 7.88, 
			 "SMD_solvation_energy": 3.41 
		},
		"coords": [
			{
				"x": -1.8035024766,
				"y": 1.3077010697,
				"z": -3.638658774,
				"element": "F" 
			},
			{
				"x": -0.9445952784,
				"y": -0.0628973233,
				"z": -3.5503244459,
				"element": "S" 
			},
			{
				"x": -0.0015078445,
				"y": -0.0385983976,
				"z": -4.6530141057,
				"element": "O" 
			},
			{
				"x": -1.9022241488,
				"y": -1.1399766175,
				"z": -3.3778442174,
				"element": "O" 
			},
			{
				"x": -0.0616462322,
				"y": 0.2761723269,
				"z": -1.9947205511,
				"element": "C" 
			},
			{
				"x": -0.9630570537,
				"y": 0.5029270281,
				"z": -0.8151886195,
				"element": "C" 
			},
			{
				"x": -1.2432627161,
				"y": 1.7843796408,
				"z": -0.3136605564,
				"element": "C" 
			},
			{
				"x": -0.537292059,
				"y": 3.2165009455,
				"z": -1.0517543752,
				"element": "Cl" 
			},
			{
				"x": -2.0786775027,
				"y": 1.9657375737,
				"z": 0.7886844779,
				"element": "C" 
			},
			{
				"x": -2.6598226955,
				"y": 0.8577717355,
				"z": 1.40236151,
				"element": "C" 
			},
			{
				"x": -2.4037513663,
				"y": -0.4257125285,
				"z": 0.9176557163,
				"element": "C" 
			},
			{
				"x": -1.5635855153,
				"y": -0.5941611935,
				"z": -0.1789090112,
				"element": "C" 
			},
			{
				"x": 0.5596403698,
				"y": -0.61497388,
				"z": -1.8675329497,
				"element": "H" 
			},
			{
				"x": 0.5844698405,
				"y": 1.1267546136,
				"z": -2.2128643034,
				"element": "H" 
			},
			{
				"x": -2.2686150531,
				"y": 2.968497678,
				"z": 1.1542478969,
				"element": "H" 
			},
			{
				"x": -3.3112963064,
				"y": 1.0018654501,
				"z": 2.2588039443,
				"element": "H" 
			},
			{
				"x": -2.8558863213,
				"y": -1.2915332855,
				"z": 1.3904222939,
				"element": "H" 
			},
			{
				"x": -1.3703876401,
				"y": -1.590254836,
				"z": -0.5650039297,
				"element": "H" 
			}
		],
		 "valence_orbital": [ 
			{
				"type": "occ",
				"energy": -0.3426,
				"method": "rhf"
			},
			{
				"type": "occ",
				"energy": -0.33037,
				"method": "rhf"
			},
			{
				"type": "occ",
				"energy": -0.32513,
				"method": "rhf"
			},
			{
				"type": "occ",
				"energy": -0.27742,
				"method": "rhf"
			},
			{
				"type": "occ",
				"energy": -0.2644,
				"method": "rhf"
			},
			{
				"type": "unocc",
				"energy": -0.04495,
				"method": "rhf"
			},
			{
				"type": "unocc",
				"energy": -0.03073,
				"method": "rhf"
			},
			{
				"type": "unocc",
				"energy": 0.00985,
				"method": "rhf"
			},
			{
				"type": "unocc",
				"energy": 0.01572,
				"method": "rhf"
			},
			{
				"type": "unocc",
				"energy": 0.05095,
				"method": "rhf"
			}
		],
		"cosmo_sigma_profile": { 
			"-0.025": 0.0,
			"-0.024": 0.0,
			"-0.023": 0.0,
			"-0.022": 0.0,
			"-0.021": 0.0,
			"-0.02": 0.0,
			"-0.019": 0.0,
			"-0.018": 0.0,
			"-0.017": 0.0,
			"-0.016": 0.0,
			"-0.015": 0.0,
			"-0.014": 0.0,
			"-0.013": 0.304829849333,
			"-0.012": 1.27601968693,
			"-0.011": 2.05032379906,
			"-0.01": 2.47995514837,
			"-0.009": 4.04213937059,
			"-0.008": 4.32986761072,
			"-0.007": 10.0901692138,
			"-0.006": 11.4911475204,
			"-0.005": 11.7388816495,
			"-0.004": 8.64301543751,
			"-0.003": 9.50225247966,
			"-0.002": 8.67715356565,
			"-0.001": 11.2189463661,
			"0.0": 12.5839825628,
			"0.001": 18.6257587013,
			"0.002": 23.5612250773,
			"0.003": 24.348339367,
			"0.004": 12.573379419,
			"0.005": 3.77964009735,
			"0.006": 2.81523457876,
			"0.007": 3.74111096304,
			"0.008": 9.8561524796,
			"0.009": 9.78425363549,
			"0.01": 0.85650478176,
			"0.011": 0.0,
			"0.012": 0.0,
			"0.013": 0.0,
			"0.014": 0.0,
			"0.015": 0.0,
			"0.016": 0.0,
			"0.017": 0.0,
			"0.018": 0.0,
			"0.019": 0.0,
			"0.02": 0.0,
			"0.021": 0.0,
			"0.022": 0.0,
			"0.023": 0.0,
			"0.024": 0.0,
			"0.025": 0.0
		}
	}
}
