{
	 "smiles": "OC1=C(C=C(C=C1I)C#N)N(=O)=O", 
	 "Tm": 411.15, 
	 "num_atms": 16, 
	 "gaussian": { 
		 "optdone": 1, 
		 "sigma_profile": "no", 
		 "theory": "DFT", 
		 "functional": "B3LYP", 
		 "basiset": "6-31G**", 
		 "properties": { 
			 "R2extent": 4011.6743, 
			 "electric_dipole_moment_norm": 5.09450972715, 
			 "electric_quadrupole_moment_norm": 28.5588347108, 
			 "total_energy": -614.975088657, 
			 "HOMO_LUMO_gap": 0.16691, 
			 "cosmo_polarized_energy": -88062.05, 
			 "cosmo_cavitation_energy": 26.13, 
			 "cosmo_dispersion_energy": -20.08, 
			 "cosmo_repulsion_energy": 1.55, 
			 "cosmo_total_nonelectrostatic_energy": 7.61, 
			 "SMD_solvation_energy": 7.76 
		},
		"coords": [
			{
				"x": -4.0803982973,
				"y": 1.5361665345,
				"z": -0.0087842395,
				"element": "O" 
			},
			{
				"x": -3.0708989332,
				"y": 1.0310665123,
				"z": 0.7037530247,
				"element": "C" 
			},
			{
				"x": -1.9373075838,
				"y": 0.4980464295,
				"z": 0.0471734964,
				"element": "C" 
			},
			{
				"x": -0.8864066357,
				"y": -0.0808748555,
				"z": 0.7468999136,
				"element": "C" 
			},
			{
				"x": -0.9145043681,
				"y": -0.1257708666,
				"z": 2.1436524436,
				"element": "C" 
			},
			{
				"x": -2.0233511889,
				"y": 0.4026183337,
				"z": 2.8278242519,
				"element": "C" 
			},
			{
				"x": -3.0759702912,
				"y": 0.960038898,
				"z": 2.11707118,
				"element": "C" 
			},
			{
				"x": -4.7482826536,
				"y": 1.7220344551,
				"z": 3.1706781298,
				"element": "I" 
			},
			{
				"x": 0.1708163224,
				"y": -0.704194276,
				"z": 2.8775168495,
				"element": "C" 
			},
			{
				"x": 1.0482274436,
				"y": -1.171687997,
				"z": 3.48094979,
				"element": "N" 
			},
			{
				"x": -1.8099167831,
				"y": 0.5367495146,
				"z": -1.4225496534,
				"element": "N" 
			},
			{
				"x": -1.0769888575,
				"y": -0.3113004082,
				"z": -1.9320060896,
				"element": "O" 
			},
			{
				"x": -2.4102503463,
				"y": 1.4132545277,
				"z": -2.0320178597,
				"element": "O" 
			},
			{
				"x": -4.7919873752,
				"y": 1.8202041064,
				"z": 0.5915932446,
				"element": "H" 
			},
			{
				"x": -0.0565580989,
				"y": -0.4917666828,
				"z": 0.1864314969,
				"element": "H" 
			},
			{
				"x": -2.0513223533,
				"y": 0.3666157742,
				"z": 3.9102140214,
				"element": "H" 
			}
		],
		 "valence_orbital": [ 
			{
				"type": "occ",
				"energy": -0.31995,
				"method": "rhf"
			},
			{
				"type": "occ",
				"energy": -0.31883,
				"method": "rhf"
			},
			{
				"type": "occ",
				"energy": -0.30577,
				"method": "rhf"
			},
			{
				"type": "occ",
				"energy": -0.29213,
				"method": "rhf"
			},
			{
				"type": "occ",
				"energy": -0.27177,
				"method": "rhf"
			},
			{
				"type": "unocc",
				"energy": -0.10486,
				"method": "rhf"
			},
			{
				"type": "unocc",
				"energy": -0.0824,
				"method": "rhf"
			},
			{
				"type": "unocc",
				"energy": -0.072,
				"method": "rhf"
			},
			{
				"type": "unocc",
				"energy": -0.04119,
				"method": "rhf"
			},
			{
				"type": "unocc",
				"energy": 0.01409,
				"method": "rhf"
			}
		],
		"cosmo_sigma_profile": { 
			"0.0": 0.0,
			"0.0": 0.0,
			"0.0": 0.0,
			"0.0": 0.0,
			"0.0": 0.0,
			"0.0": 0.0,
			"0.0": 0.0,
			"0.0": 0.0,
			"0.0": 0.0,
			"0.0": 0.0,
			"0.0": 0.0,
			"0.0": 0.0,
			"0.0": 0.0,
			"0.0": 0.0,
			"0.0": 0.0,
			"0.0": 0.0,
			"0.0": 0.0,
			"0.0": 0.0,
			"0.0": 0.0,
			"0.0": 0.0,
			"0.0": 0.0,
			"0.0": 0.0,
			"0.0": 0.0,
			"0.0": 0.0,
			"0.0": 0.0,
			"0.0": 0.0,
			"0.0": 0.0,
			"0.0": 0.0,
			"0.0": 0.0,
			"0.0": 0.0,
			"0.0": 0.0,
			"0.0": 0.0,
			"0.0": 0.0,
			"0.0": 0.0,
			"0.0": 0.0,
			"0.0": 0.0,
			"0.0": 0.0,
			"0.0": 0.0,
			"0.0": 0.0,
			"0.0": 0.0,
			"0.0": 0.0,
			"0.0": 0.0,
			"0.0": 0.0,
			"0.0": 0.0,
			"0.0": 0.0,
			"0.0": 0.0,
			"0.0": 0.0,
			"0.0": 0.0,
			"0.0": 0.0,
			"0.0": 0.0,
			"0.0": 0.0
		}
	}
}
