{
	 "smiles": "OC(=O)C1CC2=CC(O)=CC=C2CN1", 
	 "Tm": 531.15, 
	 "num_atms": 25, 
	 "gaussian": { 
		 "optdone": 1, 
		 "sigma_profile": "yes", 
		 "theory": "DFT", 
		 "functional": "B3LYP", 
		 "basiset": "6-31G**", 
		 "properties": { 
			 "R2extent": 3268.3102, 
			 "electric_dipole_moment_norm": 2.44487674331, 
			 "electric_quadrupole_moment_norm": 15.122659331, 
			 "total_energy": -668.123280245, 
			 "HOMO_LUMO_gap": 0.20327, 
			 "cosmo_polarized_energy": -16.73, 
			 "cosmo_cavitation_energy": 27.93, 
			 "cosmo_dispersion_energy": -20.68, 
			 "cosmo_repulsion_energy": 1.63, 
			 "cosmo_total_nonelectrostatic_energy": 8.88, 
			 "SMD_solvation_energy": 3.42 
		},
		"coords": [
			{
				"x": 0.0938116546,
				"y": -3.2708255319,
				"z": 3.0730415075,
				"element": "O" 
			},
			{
				"x": -0.7384844112,
				"y": -2.3130585608,
				"z": 2.5876796941,
				"element": "C" 
			},
			{
				"x": -1.8377036663,
				"y": -2.5731704609,
				"z": 2.1523840998,
				"element": "O" 
			},
			{
				"x": -0.1358940927,
				"y": -0.9031560017,
				"z": 2.7379835953,
				"element": "C" 
			},
			{
				"x": -0.7366719117,
				"y": 0.0689731208,
				"z": 1.7159293956,
				"element": "C" 
			},
			{
				"x": -0.0661311491,
				"y": -0.0302509421,
				"z": 0.3600600528,
				"element": "C" 
			},
			{
				"x": -0.6974593305,
				"y": 0.5139117198,
				"z": -0.7625841436,
				"element": "C" 
			},
			{
				"x": -0.0914340235,
				"y": 0.4613943334,
				"z": -2.0177604796,
				"element": "C" 
			},
			{
				"x": -0.7668330558,
				"y": 1.0149224633,
				"z": -3.0711133221,
				"element": "O" 
			},
			{
				"x": 1.1625065101,
				"y": -0.144622593,
				"z": -2.157977383,
				"element": "C" 
			},
			{
				"x": 1.7873413199,
				"y": -0.6871874823,
				"z": -1.0388379935,
				"element": "C" 
			},
			{
				"x": 1.1927918324,
				"y": -0.6382485881,
				"z": 0.2266617531,
				"element": "C" 
			},
			{
				"x": 1.8865807616,
				"y": -1.2772121414,
				"z": 1.4133785914,
				"element": "C" 
			},
			{
				"x": 1.31866007,
				"y": -0.8241181434,
				"z": 2.6862735618,
				"element": "N" 
			},
			{
				"x": -0.3825600593,
				"y": -4.1127807419,
				"z": 2.9765447398,
				"element": "H" 
			},
			{
				"x": -0.4461605781,
				"y": -0.5840647202,
				"z": 3.743029891,
				"element": "H" 
			},
			{
				"x": -1.809726601,
				"y": -0.1178901719,
				"z": 1.6221367889,
				"element": "H" 
			},
			{
				"x": -0.610444875,
				"y": 1.085787839,
				"z": 2.1061365876,
				"element": "H" 
			},
			{
				"x": -1.6730661284,
				"y": 0.9830849456,
				"z": -0.6749225956,
				"element": "H" 
			},
			{
				"x": -0.2431477992,
				"y": 0.9010629625,
				"z": -3.874519993,
				"element": "H" 
			},
			{
				"x": 1.6447623922,
				"y": -0.1888583101,
				"z": -3.132395803,
				"element": "H" 
			},
			{
				"x": 2.7620058561,
				"y": -1.15681531,
				"z": -1.1526897519,
				"element": "H" 
			},
			{
				"x": 1.8428536834,
				"y": -2.3766298093,
				"z": 1.3032605615,
				"element": "H" 
			},
			{
				"x": 2.94966922,
				"y": -1.0073867009,
				"z": 1.4067784025,
				"element": "H" 
			},
			{
				"x": 1.7216343817,
				"y": -1.3650611744,
				"z": 3.4448222428,
				"element": "H" 
			}
		],
		 "valence_orbital": [ 
			{
				"type": "occ",
				"energy": -0.31536,
				"method": "rhf"
			},
			{
				"type": "occ",
				"energy": -0.29011,
				"method": "rhf"
			},
			{
				"type": "occ",
				"energy": -0.24053,
				"method": "rhf"
			},
			{
				"type": "occ",
				"energy": -0.2261,
				"method": "rhf"
			},
			{
				"type": "occ",
				"energy": -0.20881,
				"method": "rhf"
			},
			{
				"type": "unocc",
				"energy": -0.00554,
				"method": "rhf"
			},
			{
				"type": "unocc",
				"energy": 0.01061,
				"method": "rhf"
			},
			{
				"type": "unocc",
				"energy": 0.01874,
				"method": "rhf"
			},
			{
				"type": "unocc",
				"energy": 0.06928,
				"method": "rhf"
			},
			{
				"type": "unocc",
				"energy": 0.07449,
				"method": "rhf"
			}
		],
		"cosmo_sigma_profile": { 
			"-0.025": 0.0,
			"-0.024": 0.0,
			"-0.023": 0.0,
			"-0.022": 0.0,
			"-0.021": 0.0,
			"-0.02": 0.0,
			"-0.019": 0.0521810778867,
			"-0.018": 0.871902583385,
			"-0.017": 1.79566911885,
			"-0.016": 2.30534129175,
			"-0.015": 1.90893374685,
			"-0.014": 1.30456903249,
			"-0.013": 1.41761385573,
			"-0.012": 1.76366507061,
			"-0.011": 1.99515042503,
			"-0.01": 2.4666957426,
			"-0.009": 3.14434120652,
			"-0.008": 2.82585190293,
			"-0.007": 6.86734730821,
			"-0.006": 7.31423324547,
			"-0.005": 11.1659141001,
			"-0.004": 15.7446565495,
			"-0.003": 16.1513158966,
			"-0.002": 17.7689861831,
			"-0.001": 13.7334991652,
			"0.0": 9.37824866045,
			"0.001": 8.91289570167,
			"0.002": 9.34982688919,
			"0.003": 10.2527456106,
			"0.004": 12.114693744,
			"0.005": 14.1500334974,
			"0.006": 12.8579217894,
			"0.007": 6.22494584709,
			"0.008": 3.90715279485,
			"0.009": 3.18558470239,
			"0.01": 5.06190007299,
			"0.011": 6.64462743062,
			"0.012": 4.90805818163,
			"0.013": 0.484237558564,
			"0.014": 0.373799165478,
			"0.015": 0.807635119803,
			"0.016": 0.302872669626,
			"0.017": 0.274636685471,
			"0.018": 0.0,
			"0.019": 0.0,
			"0.02": 0.0,
			"0.021": 0.0,
			"0.022": 0.0,
			"0.023": 0.0,
			"0.024": 0.0,
			"0.025": 0.0
		}
	}
}
