{
	 "smiles": "NC1=CC2=C(COC2)C=C1", 
	 "Tm": 363.15, 
	 "num_atms": 19, 
	 "gaussian": { 
		 "optdone": 1, 
		 "sigma_profile": "yes", 
		 "theory": "DFT", 
		 "functional": "B3LYP", 
		 "basiset": "6-31G**", 
		 "properties": { 
			 "R2extent": 1879.7897, 
			 "electric_dipole_moment_norm": 3.00875108475, 
			 "electric_quadrupole_moment_norm": 14.2162033082, 
			 "total_energy": -440.235679343, 
			 "HOMO_LUMO_gap": 0.19681, 
			 "cosmo_polarized_energy": -9.92, 
			 "cosmo_cavitation_energy": 21.93, 
			 "cosmo_dispersion_energy": -16.88, 
			 "cosmo_repulsion_energy": 1.38, 
			 "cosmo_total_nonelectrostatic_energy": 6.43, 
			 "SMD_solvation_energy": 3.51 
		},
		"coords": [
			{
				"x": -2.0667335447,
				"y": -1.5230717687,
				"z": 3.522608035,
				"element": "N" 
			},
			{
				"x": -1.4752297037,
				"y": -0.8338293882,
				"z": 2.4595894677,
				"element": "C" 
			},
			{
				"x": -0.1166276905,
				"y": -0.4720056971,
				"z": 2.511119003,
				"element": "C" 
			},
			{
				"x": 0.4550622723,
				"y": 0.1633417137,
				"z": 1.4152934827,
				"element": "C" 
			},
			{
				"x": -0.2836565677,
				"y": 0.4487711845,
				"z": 0.26881523,
				"element": "C" 
			},
			{
				"x": 0.613753844,
				"y": 1.1253759546,
				"z": -0.7334962014,
				"element": "C" 
			},
			{
				"x": 1.8632226464,
				"y": 1.3132301188,
				"z": -0.0575223456,
				"element": "O" 
			},
			{
				"x": 1.8677661378,
				"y": 0.642824079,
				"z": 1.2059563363,
				"element": "C" 
			},
			{
				"x": -1.6287751604,
				"y": 0.0924602076,
				"z": 0.206603436,
				"element": "C" 
			},
			{
				"x": -2.2185975276,
				"y": -0.5437749695,
				"z": 1.2982251263,
				"element": "C" 
			},
			{
				"x": -1.6235846227,
				"y": -1.3844326332,
				"z": 4.4204974712,
				"element": "H" 
			},
			{
				"x": -3.0713345325,
				"y": -1.4304897521,
				"z": 3.5851289246,
				"element": "H" 
			},
			{
				"x": 0.4681832739,
				"y": -0.6940291689,
				"z": 3.4012223494,
				"element": "H" 
			},
			{
				"x": 0.2380668064,
				"y": 2.1060199507,
				"z": -1.0594382912,
				"element": "H" 
			},
			{
				"x": 0.7650415313,
				"y": 0.5145403352,
				"z": -1.6386563879,
				"element": "H" 
			},
			{
				"x": 2.2006557794,
				"y": 1.3465148028,
				"z": 1.9823932304,
				"element": "H" 
			},
			{
				"x": 2.5860886616,
				"y": -0.1932529227,
				"z": 1.1903702914,
				"element": "H" 
			},
			{
				"x": -2.2260948642,
				"y": 0.3059591728,
				"z": -0.6762667497,
				"element": "H" 
			},
			{
				"x": -3.2677067392,
				"y": -0.8263512196,
				"z": 1.2575575917,
				"element": "H" 
			}
		],
		 "valence_orbital": [ 
			{
				"type": "occ",
				"energy": -0.3111,
				"method": "rhf"
			},
			{
				"type": "occ",
				"energy": -0.30265,
				"method": "rhf"
			},
			{
				"type": "occ",
				"energy": -0.24991,
				"method": "rhf"
			},
			{
				"type": "occ",
				"energy": -0.23481,
				"method": "rhf"
			},
			{
				"type": "occ",
				"energy": -0.19818,
				"method": "rhf"
			},
			{
				"type": "unocc",
				"energy": -0.00137,
				"method": "rhf"
			},
			{
				"type": "unocc",
				"energy": 0.01974,
				"method": "rhf"
			},
			{
				"type": "unocc",
				"energy": 0.0798,
				"method": "rhf"
			},
			{
				"type": "unocc",
				"energy": 0.10264,
				"method": "rhf"
			},
			{
				"type": "unocc",
				"energy": 0.11917,
				"method": "rhf"
			}
		],
		"cosmo_sigma_profile": { 
			"-0.025": 0.0,
			"-0.024": 0.0,
			"-0.023": 0.0,
			"-0.022": 0.0,
			"-0.021": 0.0,
			"-0.02": 0.0,
			"-0.019": 0.0,
			"-0.018": 0.0,
			"-0.017": 0.0,
			"-0.016": 0.0,
			"-0.015": 0.0,
			"-0.014": 0.0,
			"-0.013": 0.194560128058,
			"-0.012": 2.08068146832,
			"-0.011": 3.03566964603,
			"-0.01": 2.31646565894,
			"-0.009": 2.97520333115,
			"-0.008": 3.35131106425,
			"-0.007": 3.55967951074,
			"-0.006": 4.71363595401,
			"-0.005": 8.65244133299,
			"-0.004": 18.8907665742,
			"-0.003": 18.7055838254,
			"-0.002": 13.4376941689,
			"-0.001": 10.080706163,
			"0.0": 8.87955029662,
			"0.001": 7.72774738225,
			"0.002": 8.2692977943,
			"0.003": 8.38879591946,
			"0.004": 6.91287801398,
			"0.005": 9.02580939717,
			"0.006": 10.2798749981,
			"0.007": 6.18612984075,
			"0.008": 2.73937675731,
			"0.009": 2.58784522863,
			"0.01": 1.17293462077,
			"0.011": 1.92075907457,
			"0.012": 2.10559234442,
			"0.013": 2.51169799661,
			"0.014": 2.22534312616,
			"0.015": 0.36527351001,
			"0.016": 0.0,
			"0.017": 0.0,
			"0.018": 0.0,
			"0.019": 0.0,
			"0.02": 0.0,
			"0.021": 0.0,
			"0.022": 0.0,
			"0.023": 0.0,
			"0.024": 0.0,
			"0.025": 0.0
		}
	}
}
