{
	 "smiles": "C1CCC(NC1)C1=NNC=N1", 
	 "Tm": 378.15, 
	 "num_atms": 23, 
	 "gaussian": { 
		 "optdone": 1, 
		 "sigma_profile": "yes", 
		 "theory": "DFT", 
		 "functional": "B3LYP", 
		 "basiset": "6-31G**", 
		 "properties": { 
			 "R2extent": 1784.892, 
			 "electric_dipole_moment_norm": 2.20110983143, 
			 "electric_quadrupole_moment_norm": 13.2921023646, 
			 "total_energy": -492.967033793, 
			 "HOMO_LUMO_gap": 0.21429, 
			 "cosmo_polarized_energy": -14.28, 
			 "cosmo_cavitation_energy": 24.28, 
			 "cosmo_dispersion_energy": -18.6, 
			 "cosmo_repulsion_energy": 1.51, 
			 "cosmo_total_nonelectrostatic_energy": 7.19, 
			 "SMD_solvation_energy": -0.05 
		},
		"coords": [
			{
				"x": 2.8192295844,
				"y": 0.4769026484,
				"z": 1.1748563555,
				"element": "C" 
			},
			{
				"x": 2.5143473835,
				"y": 1.0394372861,
				"z": -0.2220011729,
				"element": "C" 
			},
			{
				"x": 1.1813088555,
				"y": 1.8041926701,
				"z": -0.216851485,
				"element": "C" 
			},
			{
				"x": 0.015043909,
				"y": 0.971246321,
				"z": 0.3766676554,
				"element": "C" 
			},
			{
				"x": 0.3475979489,
				"y": 0.3363384105,
				"z": 1.6691662682,
				"element": "N" 
			},
			{
				"x": 1.6387889229,
				"y": -0.3689197708,
				"z": 1.6793628871,
				"element": "C" 
			},
			{
				"x": -0.5323989473,
				"y": -0.0478468738,
				"z": -0.5921771355,
				"element": "C" 
			},
			{
				"x": -1.7955694437,
				"y": 0.0112156529,
				"z": -1.0000918256,
				"element": "N" 
			},
			{
				"x": -1.8810790132,
				"y": -1.0530916932,
				"z": -1.8388305244,
				"element": "N" 
			},
			{
				"x": -0.6957106977,
				"y": -1.6950669361,
				"z": -1.9033379505,
				"element": "C" 
			},
			{
				"x": 0.1851344577,
				"y": -1.0862910665,
				"z": -1.1317846865,
				"element": "N" 
			},
			{
				"x": 3.735117357,
				"y": -0.1274537711,
				"z": 1.1569152418,
				"element": "H" 
			},
			{
				"x": 3.0003318335,
				"y": 1.3055306893,
				"z": 1.8762898543,
				"element": "H" 
			},
			{
				"x": 3.3210397117,
				"y": 1.7034850836,
				"z": -0.5556596217,
				"element": "H" 
			},
			{
				"x": 2.4576218092,
				"y": 0.2130827771,
				"z": -0.9392609073,
				"element": "H" 
			},
			{
				"x": 0.9216488344,
				"y": 2.1463803559,
				"z": -1.226103548,
				"element": "H" 
			},
			{
				"x": 1.2883247014,
				"y": 2.7059493145,
				"z": 0.4030184126,
				"element": "H" 
			},
			{
				"x": -0.8257754395,
				"y": 1.6450474286,
				"z": 0.5703993402,
				"element": "H" 
			},
			{
				"x": 0.3719168976,
				"y": 1.0706446815,
				"z": 2.3739183573,
				"element": "H" 
			},
			{
				"x": 1.5377520326,
				"y": -1.2597008303,
				"z": 1.0503275476,
				"element": "H" 
			},
			{
				"x": 1.81722303,
				"y": -0.7159329574,
				"z": 2.7037343668,
				"element": "H" 
			},
			{
				"x": -2.7517044898,
				"y": -1.2597179217,
				"z": -2.3045780616,
				"element": "H" 
			},
			{
				"x": -0.524189238,
				"y": -2.5749314987,
				"z": -2.5082793678,
				"element": "H" 
			}
		],
		 "valence_orbital": [ 
			{
				"type": "occ",
				"energy": -0.30302,
				"method": "rhf"
			},
			{
				"type": "occ",
				"energy": -0.29329,
				"method": "rhf"
			},
			{
				"type": "occ",
				"energy": -0.27086,
				"method": "rhf"
			},
			{
				"type": "occ",
				"energy": -0.25953,
				"method": "rhf"
			},
			{
				"type": "occ",
				"energy": -0.20566,
				"method": "rhf"
			},
			{
				"type": "unocc",
				"energy": 0.00863,
				"method": "rhf"
			},
			{
				"type": "unocc",
				"energy": 0.05394,
				"method": "rhf"
			},
			{
				"type": "unocc",
				"energy": 0.07448,
				"method": "rhf"
			},
			{
				"type": "unocc",
				"energy": 0.0851,
				"method": "rhf"
			},
			{
				"type": "unocc",
				"energy": 0.12574,
				"method": "rhf"
			}
		],
		"cosmo_sigma_profile": { 
			"-0.025": 0.0,
			"-0.024": 0.0,
			"-0.023": 0.0,
			"-0.022": 0.0,
			"-0.021": 0.0,
			"-0.02": 0.0,
			"-0.019": 0.0,
			"-0.018": 0.211261360162,
			"-0.017": 1.9614281972,
			"-0.016": 1.4835525592,
			"-0.015": 1.25119418646,
			"-0.014": 1.50534369057,
			"-0.013": 0.532505363379,
			"-0.012": 1.07580561561,
			"-0.011": 1.34320452994,
			"-0.01": 4.24825199357,
			"-0.009": 3.63650560916,
			"-0.008": 3.68532638086,
			"-0.007": 3.54259192536,
			"-0.006": 4.37135537193,
			"-0.005": 4.05923123017,
			"-0.004": 4.79262795306,
			"-0.003": 12.4394831386,
			"-0.002": 17.8140971628,
			"-0.001": 19.4918860504,
			"0.0": 24.3857677225,
			"0.001": 22.2150385832,
			"0.002": 9.09771801452,
			"0.003": 4.16340602604,
			"0.004": 4.15786309691,
			"0.005": 4.58983829076,
			"0.006": 4.58978980256,
			"0.007": 6.1492016988,
			"0.008": 3.68829321962,
			"0.009": 3.13160849016,
			"0.01": 3.55522041634,
			"0.011": 2.55429211535,
			"0.012": 2.62192478568,
			"0.013": 2.61315932158,
			"0.014": 1.88112366222,
			"0.015": 1.05364849107,
			"0.016": 0.615425195928,
			"0.017": 0.762386373962,
			"0.018": 0.446645297495,
			"0.019": 0.0,
			"0.02": 0.0,
			"0.021": 0.0,
			"0.022": 0.0,
			"0.023": 0.0,
			"0.024": 0.0,
			"0.025": 0.0
		}
	}
}
