{
	 "smiles": "CN(C)C(C)(C)C", 
	 "Tm": 183.15, 
	 "num_atms": 22, 
	 "gaussian": { 
		 "optdone": 1, 
		 "sigma_profile": "yes", 
		 "theory": "DFT", 
		 "functional": "B3LYP", 
		 "basiset": "6-31G**", 
		 "properties": { 
			 "R2extent": 939.6562, 
			 "electric_dipole_moment_norm": 0.502930641341, 
			 "electric_quadrupole_moment_norm": 1.92749091567, 
			 "total_energy": -292.426263607, 
			 "HOMO_LUMO_gap": 0.27698, 
			 "cosmo_polarized_energy": -2.45, 
			 "cosmo_cavitation_energy": 21.76, 
			 "cosmo_dispersion_energy": -15.87, 
			 "cosmo_repulsion_energy": 1.3, 
			 "cosmo_total_nonelectrostatic_energy": 7.18, 
			 "SMD_solvation_energy": 2.55 
		},
		"coords": [
			{
				"x": 0.0522678051,
				"y": 1.5350064745,
				"z": 0.4552749451,
				"element": "C" 
			},
			{
				"x": 0.0105043583,
				"y": 0.2802678841,
				"z": -0.2886988658,
				"element": "N" 
			},
			{
				"x": -0.4624576032,
				"y": 0.531809092,
				"z": -1.6461061676,
				"element": "C" 
			},
			{
				"x": -0.645442914,
				"y": -0.8598289078,
				"z": 0.4164555226,
				"element": "C" 
			},
			{
				"x": -2.1527508141,
				"y": -0.6317191743,
				"z": 0.6813215321,
				"element": "C" 
			},
			{
				"x": -0.4662561635,
				"y": -2.1370312309,
				"z": -0.4303031529,
				"element": "C" 
			},
			{
				"x": 0.076532271,
				"y": -1.0944319574,
				"z": 1.759607623,
				"element": "C" 
			},
			{
				"x": 0.5290231155,
				"y": 1.4012028565,
				"z": 1.4278098969,
				"element": "H" 
			},
			{
				"x": 0.6584839224,
				"y": 2.2543223198,
				"z": -0.1056339482,
				"element": "H" 
			},
			{
				"x": -0.9372880026,
				"y": 2.001658586,
				"z": 0.6198393793,
				"element": "H" 
			},
			{
				"x": -1.5079564582,
				"y": 0.8886232481,
				"z": -1.7069491861,
				"element": "H" 
			},
			{
				"x": 0.1684356476,
				"y": 1.30415872,
				"z": -2.0988294148,
				"element": "H" 
			},
			{
				"x": -0.373265305,
				"y": -0.3614647797,
				"z": -2.2666738725,
				"element": "H" 
			},
			{
				"x": -2.7098253259,
				"y": -0.4938777422,
				"z": -0.2509836812,
				"element": "H" 
			},
			{
				"x": -2.5861571801,
				"y": -1.4945517258,
				"z": 1.1982796472,
				"element": "H" 
			},
			{
				"x": -2.3230817908,
				"y": 0.2476027329,
				"z": 1.3108002533,
				"element": "H" 
			},
			{
				"x": 0.5836916126,
				"y": -2.2619583841,
				"z": -0.7130089293,
				"element": "H" 
			},
			{
				"x": -1.0707175942,
				"y": -2.1251214415,
				"z": -1.3414822989,
				"element": "H" 
			},
			{
				"x": -0.7751973868,
				"y": -3.0132385762,
				"z": 0.1478265969,
				"element": "H" 
			},
			{
				"x": 1.1579626085,
				"y": -1.159015946,
				"z": 1.6039786276,
				"element": "H" 
			},
			{
				"x": -0.1214913591,
				"y": -0.3022125508,
				"z": 2.4868810003,
				"element": "H" 
			},
			{
				"x": -0.2651134436,
				"y": -2.0327994974,
				"z": 2.2069944931,
				"element": "H" 
			}
		],
		 "valence_orbital": [ 
			{
				"type": "occ",
				"energy": -0.34842,
				"method": "rhf"
			},
			{
				"type": "occ",
				"energy": -0.33893,
				"method": "rhf"
			},
			{
				"type": "occ",
				"energy": -0.32529,
				"method": "rhf"
			},
			{
				"type": "occ",
				"energy": -0.31493,
				"method": "rhf"
			},
			{
				"type": "occ",
				"energy": -0.1992,
				"method": "rhf"
			},
			{
				"type": "unocc",
				"energy": 0.07778,
				"method": "rhf"
			},
			{
				"type": "unocc",
				"energy": 0.11862,
				"method": "rhf"
			},
			{
				"type": "unocc",
				"energy": 0.12514,
				"method": "rhf"
			},
			{
				"type": "unocc",
				"energy": 0.13117,
				"method": "rhf"
			},
			{
				"type": "unocc",
				"energy": 0.14218,
				"method": "rhf"
			}
		],
		"cosmo_sigma_profile": { 
			"-0.025": 0.0,
			"-0.024": 0.0,
			"-0.023": 0.0,
			"-0.022": 0.0,
			"-0.021": 0.0,
			"-0.02": 0.0,
			"-0.019": 0.0,
			"-0.018": 0.0,
			"-0.017": 0.0,
			"-0.016": 0.0,
			"-0.015": 0.0,
			"-0.014": 0.0,
			"-0.013": 0.0,
			"-0.012": 0.0,
			"-0.011": 0.0,
			"-0.01": 0.0,
			"-0.009": 0.0,
			"-0.008": 0.0,
			"-0.007": 0.0,
			"-0.006": 0.0,
			"-0.005": 0.0,
			"-0.004": 2.09180734912,
			"-0.003": 17.4863472627,
			"-0.002": 27.9119395051,
			"-0.001": 30.9531640809,
			"0.0": 33.2989893671,
			"0.001": 29.1287923895,
			"0.002": 14.1593739344,
			"0.003": 1.99562596359,
			"0.004": 1.24467804696,
			"0.005": 1.68046471566,
			"0.006": 0.964489499463,
			"0.007": 0.761525158064,
			"0.008": 0.574381743398,
			"0.009": 0.814832335549,
			"0.01": 0.9037133439,
			"0.011": 0.336791461964,
			"0.012": 0.550649583036,
			"0.013": 0.899718997485,
			"0.014": 0.294610551228,
			"0.015": 0.345154930111,
			"0.016": 0.219866015957,
			"0.017": 0.184400693932,
			"0.018": 0.0,
			"0.019": 0.0,
			"0.02": 0.0,
			"0.021": 0.0,
			"0.022": 0.0,
			"0.023": 0.0,
			"0.024": 0.0,
			"0.025": 0.0
		}
	}
}
