{
	 "smiles": "FC(F)(F)S(=O)(=O)N1C=CN=C1", 
	 "Tm": 293.15, 
	 "num_atms": 15, 
	 "gaussian": { 
		 "optdone": 1, 
		 "sigma_profile": "yes", 
		 "theory": "DFT", 
		 "functional": "B3LYP", 
		 "basiset": "6-31G**", 
		 "properties": { 
			 "R2extent": 2742.1459, 
			 "electric_dipole_moment_norm": 2.02505502641, 
			 "electric_quadrupole_moment_norm": 8.20320849485, 
			 "total_energy": -1111.77596582, 
			 "HOMO_LUMO_gap": 0.23156, 
			 "cosmo_polarized_energy": -8.84, 
			 "cosmo_cavitation_energy": 23.03, 
			 "cosmo_dispersion_energy": -16.57, 
			 "cosmo_repulsion_energy": 1.2, 
			 "cosmo_total_nonelectrostatic_energy": 7.66, 
			 "SMD_solvation_energy": 3.58 
		},
		"coords": [
			{
				"x": 0.5726666973,
				"y": 1.9110974507,
				"z": 2.3486301776,
				"element": "F" 
			},
			{
				"x": -0.4829219185,
				"y": 1.2420350559,
				"z": 1.8975690369,
				"element": "C" 
			},
			{
				"x": -1.0469571755,
				"y": 1.9053429222,
				"z": 0.889855561,
				"element": "F" 
			},
			{
				"x": -1.3679972511,
				"y": 1.0710004107,
				"z": 2.8772183252,
				"element": "F" 
			},
			{
				"x": 0.0993114571,
				"y": -0.4334299525,
				"z": 1.2886421825,
				"element": "S" 
			},
			{
				"x": 0.9098167456,
				"y": -0.2005498502,
				"z": 0.1052078694,
				"element": "O" 
			},
			{
				"x": 0.5406232621,
				"y": -1.1825452824,
				"z": 2.453223457,
				"element": "O" 
			},
			{
				"x": -1.3737488542,
				"y": -1.1120776592,
				"z": 0.7855351184,
				"element": "N" 
			},
			{
				"x": -1.9819261668,
				"y": -0.9456569315,
				"z": -0.4645780037,
				"element": "C" 
			},
			{
				"x": -3.1693434215,
				"y": -1.6059909503,
				"z": -0.3601775527,
				"element": "C" 
			},
			{
				"x": -3.3265352608,
				"y": -2.1668047546,
				"z": 0.8998696781,
				"element": "N" 
			},
			{
				"x": -2.2531540019,
				"y": -1.8590180966,
				"z": 1.5686991088,
				"element": "C" 
			},
			{
				"x": -1.4937453275,
				"y": -0.4092057394,
				"z": -1.2616733261,
				"element": "H" 
			},
			{
				"x": -3.9276546571,
				"y": -1.7229923723,
				"z": -1.1213272144,
				"element": "H" 
			},
			{
				"x": -2.0099341273,
				"y": -2.1304042506,
				"z": 2.5855055819,
				"element": "H" 
			}
		],
		 "valence_orbital": [ 
			{
				"type": "occ",
				"energy": -0.35884,
				"method": "rhf"
			},
			{
				"type": "occ",
				"energy": -0.35195,
				"method": "rhf"
			},
			{
				"type": "occ",
				"energy": -0.32133,
				"method": "rhf"
			},
			{
				"type": "occ",
				"energy": -0.29546,
				"method": "rhf"
			},
			{
				"type": "occ",
				"energy": -0.26423,
				"method": "rhf"
			},
			{
				"type": "unocc",
				"energy": -0.03267,
				"method": "rhf"
			},
			{
				"type": "unocc",
				"energy": 0.01036,
				"method": "rhf"
			},
			{
				"type": "unocc",
				"energy": 0.01807,
				"method": "rhf"
			},
			{
				"type": "unocc",
				"energy": 0.03432,
				"method": "rhf"
			},
			{
				"type": "unocc",
				"energy": 0.04789,
				"method": "rhf"
			}
		],
		"cosmo_sigma_profile": { 
			"-0.025": 0.0,
			"-0.024": 0.0,
			"-0.023": 0.0,
			"-0.022": 0.0,
			"-0.021": 0.0,
			"-0.02": 0.0,
			"-0.019": 0.0,
			"-0.018": 0.0,
			"-0.017": 0.0,
			"-0.016": 0.0,
			"-0.015": 0.0,
			"-0.014": 0.0,
			"-0.013": 0.0,
			"-0.012": 0.0320987965431,
			"-0.011": 0.962212049181,
			"-0.01": 2.28574999095,
			"-0.009": 3.04540824727,
			"-0.008": 4.00153047255,
			"-0.007": 5.58109570327,
			"-0.006": 7.18907579628,
			"-0.005": 8.9025160663,
			"-0.004": 9.43826003425,
			"-0.003": 14.2195362055,
			"-0.002": 16.20254307,
			"-0.001": 19.6825047176,
			"0.0": 30.4493132045,
			"0.001": 9.50210492944,
			"0.002": 7.43063679763,
			"0.003": 6.19208292344,
			"0.004": 4.89745859427,
			"0.005": 4.59743690925,
			"0.006": 5.28353090848,
			"0.007": 11.0825510268,
			"0.008": 7.58383718105,
			"0.009": 0.960780341261,
			"0.01": 0.65568433392,
			"0.011": 1.93221616103,
			"0.012": 1.02093372885,
			"0.013": 0.876420910848,
			"0.014": 0.957065229395,
			"0.015": 1.12860904928,
			"0.016": 0.331618591827,
			"0.017": 0.0,
			"0.018": 0.0,
			"0.019": 0.0,
			"0.02": 0.0,
			"0.021": 0.0,
			"0.022": 0.0,
			"0.023": 0.0,
			"0.024": 0.0,
			"0.025": 0.0
		}
	}
}
