{
	 "smiles": "CCC(=O)C1=CC=C(F)C(=C1)C(F)(F)F", 
	 "Tm": 305.15, 
	 "num_atms": 23, 
	 "gaussian": { 
		 "optdone": 1, 
		 "sigma_profile": "yes", 
		 "theory": "DFT", 
		 "functional": "B3LYP", 
		 "basiset": "6-31G**", 
		 "properties": { 
			 "R2extent": 3815.4887, 
			 "electric_dipole_moment_norm": 0.882126572551, 
			 "electric_quadrupole_moment_norm": 13.3091873272, 
			 "total_energy": -860.475137972, 
			 "HOMO_LUMO_gap": 0.1877, 
			 "cosmo_polarized_energy": -7.54, 
			 "cosmo_cavitation_energy": 29.14, 
			 "cosmo_dispersion_energy": -20.1, 
			 "cosmo_repulsion_energy": 1.5, 
			 "cosmo_total_nonelectrostatic_energy": 10.54, 
			 "SMD_solvation_energy": 7.15 
		},
		"coords": [
			{
				"x": -0.0490497321,
				"y": 1.6757662538,
				"z": 2.6539305426,
				"element": "C" 
			},
			{
				"x": -0.1502921103,
				"y": 0.1406632238,
				"z": 2.5554320757,
				"element": "C" 
			},
			{
				"x": -1.2360205535,
				"y": -0.2905813253,
				"z": 1.5783126399,
				"element": "C" 
			},
			{
				"x": -2.3526018357,
				"y": -0.5774712312,
				"z": 1.9844547999,
				"element": "O" 
			},
			{
				"x": -0.9453552773,
				"y": -0.3236699816,
				"z": 0.1044547921,
				"element": "C" 
			},
			{
				"x": -1.9960926483,
				"y": -0.6634271549,
				"z": -0.7634892709,
				"element": "C" 
			},
			{
				"x": -1.7997858475,
				"y": -0.7158589986,
				"z": -2.1379894254,
				"element": "C" 
			},
			{
				"x": -0.538617864,
				"y": -0.4233390781,
				"z": -2.6458251609,
				"element": "C" 
			},
			{
				"x": -0.3434748541,
				"y": -0.4718087311,
				"z": -3.9721155618,
				"element": "F" 
			},
			{
				"x": 0.5304815769,
				"y": -0.0808968553,
				"z": -1.8142279761,
				"element": "C" 
			},
			{
				"x": 0.3144381839,
				"y": -0.0350049628,
				"z": -0.4369171088,
				"element": "C" 
			},
			{
				"x": 1.8787283509,
				"y": 0.2271117024,
				"z": -2.4113740098,
				"element": "C" 
			},
			{
				"x": 2.3676936877,
				"y": -0.821231227,
				"z": -3.1048091782,
				"element": "F" 
			},
			{
				"x": 1.8201262937,
				"y": 1.2744884708,
				"z": -3.2592616804,
				"element": "F" 
			},
			{
				"x": 2.7821677358,
				"y": 0.533897847,
				"z": -1.4535517077,
				"element": "F" 
			},
			{
				"x": 0.7018611857,
				"y": 1.9602783835,
				"z": 3.3965827129,
				"element": "H" 
			},
			{
				"x": 0.2332314564,
				"y": 2.1284873695,
				"z": 1.6984460445,
				"element": "H" 
			},
			{
				"x": -1.0083397099,
				"y": 2.1035834737,
				"z": 2.9594434693,
				"element": "H" 
			},
			{
				"x": -0.4300066269,
				"y": -0.273527929,
				"z": 3.5274424567,
				"element": "H" 
			},
			{
				"x": 0.8203385821,
				"y": -0.2845276466,
				"z": 2.2776963137,
				"element": "H" 
			},
			{
				"x": -2.9646673589,
				"y": -0.8848652428,
				"z": -0.3284320321,
				"element": "H" 
			},
			{
				"x": -2.5979549548,
				"y": -0.9768373158,
				"z": -2.8241213638,
				"element": "H" 
			},
			{
				"x": 1.1480923203,
				"y": 0.2296709558,
				"z": 0.2012186285,
				"element": "H" 
			}
		],
		 "valence_orbital": [ 
			{
				"type": "occ",
				"energy": -0.3608,
				"method": "rhf"
			},
			{
				"type": "occ",
				"energy": -0.3554,
				"method": "rhf"
			},
			{
				"type": "occ",
				"energy": -0.28954,
				"method": "rhf"
			},
			{
				"type": "occ",
				"energy": -0.27086,
				"method": "rhf"
			},
			{
				"type": "occ",
				"energy": -0.25757,
				"method": "rhf"
			},
			{
				"type": "unocc",
				"energy": -0.06987,
				"method": "rhf"
			},
			{
				"type": "unocc",
				"energy": -0.0428,
				"method": "rhf"
			},
			{
				"type": "unocc",
				"energy": 0.01997,
				"method": "rhf"
			},
			{
				"type": "unocc",
				"energy": 0.07248,
				"method": "rhf"
			},
			{
				"type": "unocc",
				"energy": 0.09787,
				"method": "rhf"
			}
		],
		"cosmo_sigma_profile": { 
			"-0.025": 0.0,
			"-0.024": 0.0,
			"-0.023": 0.0,
			"-0.022": 0.0,
			"-0.021": 0.0,
			"-0.02": 0.0,
			"-0.019": 0.0,
			"-0.018": 0.0,
			"-0.017": 0.0,
			"-0.016": 0.0,
			"-0.015": 0.0,
			"-0.014": 0.0,
			"-0.013": 0.0,
			"-0.012": 0.0,
			"-0.011": 0.0,
			"-0.01": 0.0,
			"-0.009": 0.779337671991,
			"-0.008": 3.68935343383,
			"-0.007": 4.52164818588,
			"-0.006": 7.2055513537,
			"-0.005": 8.13597651598,
			"-0.004": 14.9580623684,
			"-0.003": 18.4090534094,
			"-0.002": 25.4669114233,
			"-0.001": 25.9569763245,
			"0.0": 25.2709913409,
			"0.001": 18.823818519,
			"0.002": 29.8975593509,
			"0.003": 30.255322466,
			"0.004": 2.24143202742,
			"0.005": 1.83003654173,
			"0.006": 1.36010150944,
			"0.007": 1.43827044839,
			"0.008": 1.32658161995,
			"0.009": 1.83989324086,
			"0.01": 2.16070572805,
			"0.011": 3.15170884098,
			"0.012": 3.20651069323,
			"0.013": 1.00155139503,
			"0.014": 0.0723814240267,
			"0.015": 0.0,
			"0.016": 0.0,
			"0.017": 0.0,
			"0.018": 0.0,
			"0.019": 0.0,
			"0.02": 0.0,
			"0.021": 0.0,
			"0.022": 0.0,
			"0.023": 0.0,
			"0.024": 0.0,
			"0.025": 0.0
		}
	}
}
