{
	 "smiles": "COCCNS(=O)(=O)C1=CC(C(O)=O)=C(Cl)C=C1", 
	 "Tm": 416.15, 
	 "num_atms": 30, 
	 "gaussian": { 
		 "optdone": 1, 
		 "sigma_profile": "yes", 
		 "theory": "DFT", 
		 "functional": "B3LYP", 
		 "basiset": "6-31G**", 
		 "properties": { 
			 "R2extent": 7752.1108, 
			 "electric_dipole_moment_norm": 3.29066382817, 
			 "electric_quadrupole_moment_norm": 32.5435862159, 
			 "total_energy": -1677.45691889, 
			 "HOMO_LUMO_gap": 0.18256, 
			 "cosmo_polarized_energy": -22.07, 
			 "cosmo_cavitation_energy": 37.65, 
			 "cosmo_dispersion_energy": -26.91, 
			 "cosmo_repulsion_energy": 2.07, 
			 "cosmo_total_nonelectrostatic_energy": 12.8, 
			 "SMD_solvation_energy": 6.69 
		},
		"coords": [
			{
				"x": -1.7751652672,
				"y": -1.2412640446,
				"z": 3.8621300634,
				"element": "C" 
			},
			{
				"x": -2.4285321632,
				"y": -0.645955329,
				"z": 2.7566282015,
				"element": "O" 
			},
			{
				"x": -1.5577963092,
				"y": -0.2025481069,
				"z": 1.7341910774,
				"element": "C" 
			},
			{
				"x": -0.9734544768,
				"y": 1.1834768158,
				"z": 2.0418068986,
				"element": "C" 
			},
			{
				"x": -0.0529640056,
				"y": 1.6249509891,
				"z": 0.9767057121,
				"element": "N" 
			},
			{
				"x": -0.6425107404,
				"y": 2.5261107851,
				"z": -0.3186715699,
				"element": "S" 
			},
			{
				"x": -1.9696632711,
				"y": 3.0673327835,
				"z": -0.0066715408,
				"element": "O" 
			},
			{
				"x": 0.4709734088,
				"y": 3.3894103294,
				"z": -0.7195612224,
				"element": "O" 
			},
			{
				"x": -0.8895673075,
				"y": 1.2946900229,
				"z": -1.608172309,
				"element": "C" 
			},
			{
				"x": 0.1737094669,
				"y": 0.5008825674,
				"z": -2.0197829605,
				"element": "C" 
			},
			{
				"x": 0.0280604587,
				"y": -0.4284316897,
				"z": -3.060975222,
				"element": "C" 
			},
			{
				"x": 1.2908360494,
				"y": -1.2205680461,
				"z": -3.3616951754,
				"element": "C" 
			},
			{
				"x": 1.3677732898,
				"y": -1.9399246749,
				"z": -4.4924223729,
				"element": "O" 
			},
			{
				"x": 2.2295347029,
				"y": -1.1857214628,
				"z": -2.5996618415,
				"element": "O" 
			},
			{
				"x": -1.2412108134,
				"y": -0.5156634427,
				"z": -3.6646656312,
				"element": "C" 
			},
			{
				"x": -1.5963869618,
				"y": -1.6498481658,
				"z": -4.9740345903,
				"element": "Cl" 
			},
			{
				"x": -2.3109289631,
				"y": 0.2797329978,
				"z": -3.2527328919,
				"element": "C" 
			},
			{
				"x": -2.1386796356,
				"y": 1.1963930759,
				"z": -2.2194981733,
				"element": "C" 
			},
			{
				"x": -1.1582003089,
				"y": -2.0988386278,
				"z": 3.552986746,
				"element": "H" 
			},
			{
				"x": -2.5559142483,
				"y": -1.5943930991,
				"z": 4.5397604367,
				"element": "H" 
			},
			{
				"x": -1.1346365161,
				"y": -0.5357271076,
				"z": 4.412075638,
				"element": "H" 
			},
			{
				"x": -2.1585411202,
				"y": -0.1516273643,
				"z": 0.8199102858,
				"element": "H" 
			},
			{
				"x": -0.7405332465,
				"y": -0.9190618922,
				"z": 1.55865054,
				"element": "H" 
			},
			{
				"x": -0.3850260295,
				"y": 1.1466188962,
				"z": 2.9629173798,
				"element": "H" 
			},
			{
				"x": -1.7862443114,
				"y": 1.9012518265,
				"z": 2.1920952807,
				"element": "H" 
			},
			{
				"x": 0.790969634,
				"y": 2.0885245666,
				"z": 1.2989679632,
				"element": "H" 
			},
			{
				"x": 1.1446251908,
				"y": 0.5646238171,
				"z": -1.5424646303,
				"element": "H" 
			},
			{
				"x": 0.5471449752,
				"y": -1.8938779073,
				"z": -5.0092065972,
				"element": "H" 
			},
			{
				"x": -3.2727501397,
				"y": 0.1757102249,
				"z": -3.7416114926,
				"element": "H" 
			},
			{
				"x": -2.9565213411,
				"y": 1.8250412625,
				"z": -1.885598002,
				"element": "H" 
			}
		],
		 "valence_orbital": [ 
			{
				"type": "occ",
				"energy": -0.30163,
				"method": "rhf"
			},
			{
				"type": "occ",
				"energy": -0.29863,
				"method": "rhf"
			},
			{
				"type": "occ",
				"energy": -0.28841,
				"method": "rhf"
			},
			{
				"type": "occ",
				"energy": -0.28132,
				"method": "rhf"
			},
			{
				"type": "occ",
				"energy": -0.26131,
				"method": "rhf"
			},
			{
				"type": "unocc",
				"energy": -0.07875,
				"method": "rhf"
			},
			{
				"type": "unocc",
				"energy": -0.0604,
				"method": "rhf"
			},
			{
				"type": "unocc",
				"energy": -0.01391,
				"method": "rhf"
			},
			{
				"type": "unocc",
				"energy": 0.02034,
				"method": "rhf"
			},
			{
				"type": "unocc",
				"energy": 0.04805,
				"method": "rhf"
			}
		],
		"cosmo_sigma_profile": { 
			"-0.025": 0.0,
			"-0.024": 0.0,
			"-0.023": 0.0,
			"-0.022": 0.0,
			"-0.021": 0.0,
			"-0.02": 0.0,
			"-0.019": 0.0,
			"-0.018": 0.0,
			"-0.017": 0.0,
			"-0.016": 0.0157038599904,
			"-0.015": 0.767142559457,
			"-0.014": 1.45495941392,
			"-0.013": 1.29705434794,
			"-0.012": 2.47149770918,
			"-0.011": 2.28772879565,
			"-0.01": 2.70456428826,
			"-0.009": 5.33984226547,
			"-0.008": 6.59498400985,
			"-0.007": 8.17252195276,
			"-0.006": 10.3484839921,
			"-0.005": 16.2223199281,
			"-0.004": 28.4336036186,
			"-0.003": 27.6607766798,
			"-0.002": 31.4333356856,
			"-0.001": 27.382952357,
			"0.0": 18.9398274825,
			"0.001": 13.3078268099,
			"0.002": 12.0510151471,
			"0.003": 7.8489572983,
			"0.004": 7.69007005749,
			"0.005": 5.73316244547,
			"0.006": 6.3615955728,
			"0.007": 6.18184995866,
			"0.008": 7.98455883238,
			"0.009": 8.80532961502,
			"0.01": 14.551163679,
			"0.011": 13.1563939473,
			"0.012": 4.12667801118,
			"0.013": 2.15257862904,
			"0.014": 0.246896701964,
			"0.015": 0.0,
			"0.016": 0.0,
			"0.017": 0.0,
			"0.018": 0.0,
			"0.019": 0.0,
			"0.02": 0.0,
			"0.021": 0.0,
			"0.022": 0.0,
			"0.023": 0.0,
			"0.024": 0.0,
			"0.025": 0.0
		}
	}
}
