{
	 "smiles": "COC1=CC=C(C=C1)N1N=CC(C(O)=O)=C1C", 
	 "Tm": 485.15, 
	 "num_atms": 29, 
	 "gaussian": { 
		 "optdone": 1, 
		 "sigma_profile": "yes", 
		 "theory": "DFT", 
		 "functional": "B3LYP", 
		 "basiset": "6-31G**", 
		 "properties": { 
			 "R2extent": 5871.8036, 
			 "electric_dipole_moment_norm": 5.08458843369, 
			 "electric_quadrupole_moment_norm": 23.684155029, 
			 "total_energy": -799.667031913, 
			 "HOMO_LUMO_gap": 0.19658, 
			 "cosmo_polarized_energy": -18.61, 
			 "cosmo_cavitation_energy": 33.38, 
			 "cosmo_dispersion_energy": -24.29, 
			 "cosmo_repulsion_energy": 1.86, 
			 "cosmo_total_nonelectrostatic_energy": 10.95, 
			 "SMD_solvation_energy": 6.94 
		},
		"coords": [
			{
				"x": 0.5020503566,
				"y": -5.2430079869,
				"z": -1.2338611355,
				"element": "C" 
			},
			{
				"x": 0.7920369118,
				"y": -4.5366911447,
				"z": -0.0364822235,
				"element": "O" 
			},
			{
				"x": 0.3529657148,
				"y": -3.2535153617,
				"z": 0.0804171953,
				"element": "C" 
			},
			{
				"x": 0.6641240731,
				"y": -2.6114417566,
				"z": 1.2908263522,
				"element": "C" 
			},
			{
				"x": 0.2733708506,
				"y": -1.3000824793,
				"z": 1.5100618202,
				"element": "C" 
			},
			{
				"x": -0.4430364795,
				"y": -0.608189368,
				"z": 0.523603523,
				"element": "C" 
			},
			{
				"x": -0.7737669141,
				"y": -1.2478711558,
				"z": -0.6693866765,
				"element": "C" 
			},
			{
				"x": -0.3694649375,
				"y": -2.5651344627,
				"z": -0.9010807939,
				"element": "C" 
			},
			{
				"x": -0.8493729749,
				"y": 0.7360031557,
				"z": 0.77839353,
				"element": "N" 
			},
			{
				"x": -1.3738531306,
				"y": 1.0323331701,
				"z": 2.0065408334,
				"element": "N" 
			},
			{
				"x": -1.6216217019,
				"y": 2.3296872277,
				"z": 1.9605769084,
				"element": "C" 
			},
			{
				"x": -1.2626004249,
				"y": 2.8997236495,
				"z": 0.7109720683,
				"element": "C" 
			},
			{
				"x": -1.3552643319,
				"y": 4.2927849297,
				"z": 0.2442555599,
				"element": "C" 
			},
			{
				"x": -1.7670204617,
				"y": 5.213119611,
				"z": 1.162036678,
				"element": "O" 
			},
			{
				"x": -1.0927276621,
				"y": 4.6594576077,
				"z": -0.8818633284,
				"element": "O" 
			},
			{
				"x": -0.7551681949,
				"y": 1.8293649845,
				"z": -0.0328541923,
				"element": "C" 
			},
			{
				"x": -0.165570935,
				"y": 1.81691243,
				"z": -1.4057619973,
				"element": "C" 
			},
			{
				"x": 0.9438588736,
				"y": -6.2329666489,
				"z": -1.1132696109,
				"element": "H" 
			},
			{
				"x": -0.5792321225,
				"y": -5.3469179274,
				"z": -1.389845228,
				"element": "H" 
			},
			{
				"x": 0.9468323854,
				"y": -4.7533701378,
				"z": -2.1095740284,
				"element": "H" 
			},
			{
				"x": 1.2190721382,
				"y": -3.163569624,
				"z": 2.0417119022,
				"element": "H" 
			},
			{
				"x": 0.5057248523,
				"y": -0.8000795718,
				"z": 2.4431278599,
				"element": "H" 
			},
			{
				"x": -1.3644650377,
				"y": -0.7324058054,
				"z": -1.4182486054,
				"element": "H" 
			},
			{
				"x": -0.63761291,
				"y": -3.0410944443,
				"z": -1.8362542281,
				"element": "H" 
			},
			{
				"x": -2.0668800066,
				"y": 2.8019913039,
				"z": 2.82897185,
				"element": "H" 
			},
			{
				"x": -1.8891815632,
				"y": 4.8014181547,
				"z": 2.027993212,
				"element": "H" 
			},
			{
				"x": 0.2065358152,
				"y": 2.8142224364,
				"z": -1.6394681759,
				"element": "H" 
			},
			{
				"x": -0.9195828184,
				"y": 1.5756375844,
				"z": -2.164003025,
				"element": "H" 
			},
			{
				"x": 0.6394506361,
				"y": 1.0816816302,
				"z": -1.4848360436,
				"element": "H" 
			}
		],
		 "valence_orbital": [ 
			{
				"type": "occ",
				"energy": -0.27986,
				"method": "rhf"
			},
			{
				"type": "occ",
				"energy": -0.26895,
				"method": "rhf"
			},
			{
				"type": "occ",
				"energy": -0.2637,
				"method": "rhf"
			},
			{
				"type": "occ",
				"energy": -0.25208,
				"method": "rhf"
			},
			{
				"type": "occ",
				"energy": -0.22619,
				"method": "rhf"
			},
			{
				"type": "unocc",
				"energy": -0.02961,
				"method": "rhf"
			},
			{
				"type": "unocc",
				"energy": -0.01859,
				"method": "rhf"
			},
			{
				"type": "unocc",
				"energy": -0.00638,
				"method": "rhf"
			},
			{
				"type": "unocc",
				"energy": 0.02229,
				"method": "rhf"
			},
			{
				"type": "unocc",
				"energy": 0.06193,
				"method": "rhf"
			}
		],
		"cosmo_sigma_profile": { 
			"-0.025": 0.0,
			"-0.024": 0.0,
			"-0.023": 0.0,
			"-0.022": 0.0,
			"-0.021": 0.0,
			"-0.02": 0.0,
			"-0.019": 0.250869414838,
			"-0.018": 0.978784570914,
			"-0.017": 1.1387143657,
			"-0.016": 1.34125346625,
			"-0.015": 0.746042663962,
			"-0.014": 0.363345739916,
			"-0.013": 1.21333463183,
			"-0.012": 1.90375751077,
			"-0.011": 0.991374420258,
			"-0.01": 1.4892924134,
			"-0.009": 1.35945301971,
			"-0.008": 2.4361139538,
			"-0.007": 7.78507758892,
			"-0.006": 16.7597368353,
			"-0.005": 19.8147382402,
			"-0.004": 19.1861763696,
			"-0.003": 20.4093367113,
			"-0.002": 18.901335249,
			"-0.001": 20.4836445287,
			"0.0": 14.1276023803,
			"0.001": 13.9861169493,
			"0.002": 16.7703488225,
			"0.003": 16.8648965506,
			"0.004": 15.9374794136,
			"0.005": 7.29749893744,
			"0.006": 4.91939456314,
			"0.007": 5.07243765098,
			"0.008": 5.3883588281,
			"0.009": 5.81903163508,
			"0.01": 6.12633837711,
			"0.011": 6.44825991364,
			"0.012": 5.41108195335,
			"0.013": 3.16806280796,
			"0.014": 1.64104245087,
			"0.015": 0.0817073476663,
			"0.016": 0.0,
			"0.017": 0.0,
			"0.018": 0.0,
			"0.019": 0.0,
			"0.02": 0.0,
			"0.021": 0.0,
			"0.022": 0.0,
			"0.023": 0.0,
			"0.024": 0.0,
			"0.025": 0.0
		}
	}
}
