{
	 "smiles": "CC1=CC(C(=O)CCl)=C(C)N1C1=NC=NN1", 
	 "Tm": 454.15, 
	 "num_atms": 27, 
	 "gaussian": { 
		 "optdone": 1, 
		 "sigma_profile": "yes", 
		 "theory": "DFT", 
		 "functional": "B3LYP", 
		 "basiset": "6-31G**", 
		 "properties": { 
			 "R2extent": 5118.1777, 
			 "electric_dipole_moment_norm": 3.27396613758, 
			 "electric_quadrupole_moment_norm": 10.2644083726, 
			 "total_energy": -1142.09892793, 
			 "HOMO_LUMO_gap": 0.1658, 
			 "cosmo_polarized_energy": -17.2, 
			 "cosmo_cavitation_energy": 32.81, 
			 "cosmo_dispersion_energy": -23.44, 
			 "cosmo_repulsion_energy": 1.83, 
			 "cosmo_total_nonelectrostatic_energy": 11.2, 
			 "SMD_solvation_energy": 3.78 
		},
		"coords": [
			{
				"x": 1.4689266856,
				"y": 1.1981357324,
				"z": 0.945535823,
				"element": "C" 
			},
			{
				"x": 0.2141293562,
				"y": 0.4928743492,
				"z": 0.5467757428,
				"element": "C" 
			},
			{
				"x": -0.8889432026,
				"y": 0.1701822598,
				"z": 1.2820451276,
				"element": "C" 
			},
			{
				"x": -1.8357103168,
				"y": -0.4950522299,
				"z": 0.4278583481,
				"element": "C" 
			},
			{
				"x": -3.1577513728,
				"y": -1.0071531396,
				"z": 0.7936939871,
				"element": "C" 
			},
			{
				"x": -3.9440726327,
				"y": -1.5090941456,
				"z": -0.0032136174,
				"element": "O" 
			},
			{
				"x": -3.6081042323,
				"y": -0.8693342642,
				"z": 2.2531894629,
				"element": "C" 
			},
			{
				"x": -2.6711722302,
				"y": -1.9600781955,
				"z": 3.3633207612,
				"element": "Cl" 
			},
			{
				"x": -1.2746559707,
				"y": -0.5658321768,
				"z": -0.8435893921,
				"element": "C" 
			},
			{
				"x": -1.8017642097,
				"y": -1.1932586386,
				"z": -2.0937915305,
				"element": "C" 
			},
			{
				"x": -0.0293784125,
				"y": 0.0443637134,
				"z": -0.7679905161,
				"element": "N" 
			},
			{
				"x": 0.8804593392,
				"y": 0.173648987,
				"z": -1.821492296,
				"element": "C" 
			},
			{
				"x": 2.1785096746,
				"y": -0.0676465039,
				"z": -1.7726205338,
				"element": "N" 
			},
			{
				"x": 2.5851099098,
				"y": 0.2327535489,
				"z": -3.0389279619,
				"element": "C" 
			},
			{
				"x": 1.6306549916,
				"y": 0.6314706782,
				"z": -3.8656984717,
				"element": "N" 
			},
			{
				"x": 0.5369094436,
				"y": 0.6008336352,
				"z": -3.061990299,
				"element": "N" 
			},
			{
				"x": 2.3532671338,
				"y": 0.5731328677,
				"z": 0.7961245368,
				"element": "H" 
			},
			{
				"x": 1.6241238626,
				"y": 2.1186685277,
				"z": 0.370208267,
				"element": "H" 
			},
			{
				"x": 1.3999790543,
				"y": 1.4687269736,
				"z": 2.0016507028,
				"element": "H" 
			},
			{
				"x": -1.0045255818,
				"y": 0.3727133821,
				"z": 2.3367807371,
				"element": "H" 
			},
			{
				"x": -3.4771287731,
				"y": 0.1483486926,
				"z": 2.6266662424,
				"element": "H" 
			},
			{
				"x": -4.6529021135,
				"y": -1.167891326,
				"z": 2.3148964894,
				"element": "H" 
			},
			{
				"x": -2.6035125046,
				"y": -1.8798479811,
				"z": -1.8255013558,
				"element": "H" 
			},
			{
				"x": -2.2437065947,
				"y": -0.4552413804,
				"z": -2.7778873849,
				"element": "H" 
			},
			{
				"x": -1.0201974285,
				"y": -1.731997501,
				"z": -2.6387432314,
				"element": "H" 
			},
			{
				"x": 3.6130536359,
				"y": 0.1451766793,
				"z": -3.3613982935,
				"element": "H" 
			},
			{
				"x": -0.3667975108,
				"y": 0.8744974557,
				"z": -3.4173013441,
				"element": "H" 
			}
		],
		 "valence_orbital": [ 
			{
				"type": "occ",
				"energy": -0.29888,
				"method": "rhf"
			},
			{
				"type": "occ",
				"energy": -0.29581,
				"method": "rhf"
			},
			{
				"type": "occ",
				"energy": -0.25542,
				"method": "rhf"
			},
			{
				"type": "occ",
				"energy": -0.25269,
				"method": "rhf"
			},
			{
				"type": "occ",
				"energy": -0.22522,
				"method": "rhf"
			},
			{
				"type": "unocc",
				"energy": -0.05942,
				"method": "rhf"
			},
			{
				"type": "unocc",
				"energy": -0.01799,
				"method": "rhf"
			},
			{
				"type": "unocc",
				"energy": 0.01666,
				"method": "rhf"
			},
			{
				"type": "unocc",
				"energy": 0.0317,
				"method": "rhf"
			},
			{
				"type": "unocc",
				"energy": 0.04186,
				"method": "rhf"
			}
		],
		"cosmo_sigma_profile": { 
			"-0.025": 0.0,
			"-0.024": 0.0,
			"-0.023": 0.0,
			"-0.022": 0.0,
			"-0.021": 0.0,
			"-0.02": 0.0,
			"-0.019": 0.0,
			"-0.018": 0.483144510796,
			"-0.017": 1.16625819632,
			"-0.016": 1.51255938024,
			"-0.015": 1.52786915756,
			"-0.014": 1.17778534803,
			"-0.013": 1.5256606197,
			"-0.012": 1.03688037249,
			"-0.011": 0.810983337827,
			"-0.01": 1.26449184715,
			"-0.009": 3.19785824907,
			"-0.008": 7.5291901798,
			"-0.007": 7.33300341066,
			"-0.006": 11.8460471341,
			"-0.005": 16.0211085612,
			"-0.004": 17.2436242483,
			"-0.003": 14.2315372993,
			"-0.002": 16.6009370037,
			"-0.001": 21.7215792027,
			"0.0": 18.6391036429,
			"0.001": 16.5242696054,
			"0.002": 15.913562538,
			"0.003": 14.4828966596,
			"0.004": 13.1535677144,
			"0.005": 17.1737224925,
			"0.006": 12.0210429443,
			"0.007": 4.46634356964,
			"0.008": 3.72844459531,
			"0.009": 3.88386843743,
			"0.01": 4.1998230839,
			"0.011": 5.29346453315,
			"0.012": 4.19046830038,
			"0.013": 2.59611345723,
			"0.014": 1.33401019477,
			"0.015": 0.0,
			"0.016": 0.0,
			"0.017": 0.0,
			"0.018": 0.0,
			"0.019": 0.0,
			"0.02": 0.0,
			"0.021": 0.0,
			"0.022": 0.0,
			"0.023": 0.0,
			"0.024": 0.0,
			"0.025": 0.0
		}
	}
}
