{
	 "smiles": "CC1(C)C2CCC1(C)C(=O)C2=CNC(N)=O", 
	 "Tm": 470.15, 
	 "num_atms": 34, 
	 "gaussian": { 
		 "optdone": 1, 
		 "sigma_profile": "yes", 
		 "theory": "DFT", 
		 "functional": "B3LYP", 
		 "basiset": "6-31G**", 
		 "properties": { 
			 "R2extent": 4646.1548, 
			 "electric_dipole_moment_norm": 6.7821759554, 
			 "electric_quadrupole_moment_norm": 26.0747490924, 
			 "total_energy": -728.09867375, 
			 "HOMO_LUMO_gap": 0.18487, 
			 "cosmo_polarized_energy": -22.82, 
			 "cosmo_cavitation_energy": 34.91, 
			 "cosmo_dispersion_energy": -24.28, 
			 "cosmo_repulsion_energy": 1.9, 
			 "cosmo_total_nonelectrostatic_energy": 12.53, 
			 "SMD_solvation_energy": 7.41 
		},
		"coords": [
			{
				"x": 0.6746188523,
				"y": -1.2721579062,
				"z": -1.0518190657,
				"element": "C" 
			},
			{
				"x": -0.6826732029,
				"y": -1.0824756152,
				"z": -0.3523741024,
				"element": "C" 
			},
			{
				"x": -1.7669816482,
				"y": -1.6732761515,
				"z": -1.2684148141,
				"element": "C" 
			},
			{
				"x": -0.9554704632,
				"y": 0.4009604154,
				"z": 0.0828644415,
				"element": "C" 
			},
			{
				"x": -2.2800391824,
				"y": 0.2781703775,
				"z": 0.8909662926,
				"element": "C" 
			},
			{
				"x": -2.0925150117,
				"y": -1.0787612145,
				"z": 1.6379275208,
				"element": "C" 
			},
			{
				"x": -0.7143583927,
				"y": -1.6218643597,
				"z": 1.1256003745,
				"element": "C" 
			},
			{
				"x": -0.4641235471,
				"y": -3.0953918941,
				"z": 1.3900664802,
				"element": "C" 
			},
			{
				"x": 0.311011281,
				"y": -0.6815459024,
				"z": 1.7930923892,
				"element": "C" 
			},
			{
				"x": 1.070328578,
				"y": -0.9624963691,
				"z": 2.705837883,
				"element": "O" 
			},
			{
				"x": 0.141608257,
				"y": 0.6230222936,
				"z": 1.1069376864,
				"element": "C" 
			},
			{
				"x": 0.8503132878,
				"y": 1.7171029217,
				"z": 1.4404214013,
				"element": "C" 
			},
			{
				"x": 0.733349272,
				"y": 2.9588037443,
				"z": 0.8467437311,
				"element": "N" 
			},
			{
				"x": 1.469994933,
				"y": 4.064877721,
				"z": 1.2832605824,
				"element": "C" 
			},
			{
				"x": 1.2130270179,
				"y": 5.2153489986,
				"z": 0.5584169586,
				"element": "N" 
			},
			{
				"x": 2.230286125,
				"y": 4.0213988768,
				"z": 2.2337998311,
				"element": "O" 
			},
			{
				"x": 0.674384106,
				"y": -0.7702872223,
				"z": -2.0265023915,
				"element": "H" 
			},
			{
				"x": 0.8698097088,
				"y": -2.3342653236,
				"z": -1.2338786416,
				"element": "H" 
			},
			{
				"x": 1.5118267557,
				"y": -0.8734402789,
				"z": -0.4737438552,
				"element": "H" 
			},
			{
				"x": -2.7735764678,
				"y": -1.6287764018,
				"z": -0.8484188758,
				"element": "H" 
			},
			{
				"x": -1.5490185409,
				"y": -2.7241604153,
				"z": -1.4868450052,
				"element": "H" 
			},
			{
				"x": -1.7841159623,
				"y": -1.1399600512,
				"z": -2.226284988,
				"element": "H" 
			},
			{
				"x": -0.9920176121,
				"y": 1.1213306587,
				"z": -0.7425848692,
				"element": "H" 
			},
			{
				"x": -3.1520728065,
				"y": 0.2595039422,
				"z": 0.2300733235,
				"element": "H" 
			},
			{
				"x": -2.409083316,
				"y": 1.1192207369,
				"z": 1.5774771408,
				"element": "H" 
			},
			{
				"x": -2.0915700423,
				"y": -0.9651195783,
				"z": 2.7261318122,
				"element": "H" 
			},
			{
				"x": -2.8877623531,
				"y": -1.7900960177,
				"z": 1.3936433232,
				"element": "H" 
			},
			{
				"x": -1.2571287659,
				"y": -3.7199484112,
				"z": 0.9653816161,
				"element": "H" 
			},
			{
				"x": 0.4928751356,
				"y": -3.4200121877,
				"z": 0.9697352032,
				"element": "H" 
			},
			{
				"x": -0.4186991209,
				"y": -3.280611594,
				"z": 2.4674883037,
				"element": "H" 
			},
			{
				"x": 1.5943052177,
				"y": 1.6727226712,
				"z": 2.2296864358,
				"element": "H" 
			},
			{
				"x": 0.0144977213,
				"y": 3.0910798885,
				"z": 0.1493680875,
				"element": "H" 
			},
			{
				"x": 0.9553999724,
				"y": 5.1381059604,
				"z": -0.4153507263,
				"element": "H" 
			},
			{
				"x": 1.8539702146,
				"y": 5.966597688,
				"z": 0.769496516,
				"element": "H" 
			}
		],
		 "valence_orbital": [ 
			{
				"type": "occ",
				"energy": -0.29555,
				"method": "rhf"
			},
			{
				"type": "occ",
				"energy": -0.28957,
				"method": "rhf"
			},
			{
				"type": "occ",
				"energy": -0.27264,
				"method": "rhf"
			},
			{
				"type": "occ",
				"energy": -0.22484,
				"method": "rhf"
			},
			{
				"type": "occ",
				"energy": -0.22121,
				"method": "rhf"
			},
			{
				"type": "unocc",
				"energy": -0.03634,
				"method": "rhf"
			},
			{
				"type": "unocc",
				"energy": 0.03957,
				"method": "rhf"
			},
			{
				"type": "unocc",
				"energy": 0.05044,
				"method": "rhf"
			},
			{
				"type": "unocc",
				"energy": 0.07367,
				"method": "rhf"
			},
			{
				"type": "unocc",
				"energy": 0.08168,
				"method": "rhf"
			}
		],
		"cosmo_sigma_profile": { 
			"-0.025": 0.0,
			"-0.024": 0.0,
			"-0.023": 0.0,
			"-0.022": 0.0,
			"-0.021": 0.0,
			"-0.02": 0.0,
			"-0.019": 0.0,
			"-0.018": 0.0,
			"-0.017": 0.578824142883,
			"-0.016": 1.79531601792,
			"-0.015": 2.22015240416,
			"-0.014": 2.6549972872,
			"-0.013": 3.36919681035,
			"-0.012": 3.31274378515,
			"-0.011": 3.06766060583,
			"-0.01": 3.15840937044,
			"-0.009": 2.25115429405,
			"-0.008": 2.95509263969,
			"-0.007": 2.59963067243,
			"-0.006": 2.84145814544,
			"-0.005": 2.40599486739,
			"-0.004": 7.18636171682,
			"-0.003": 23.7794027139,
			"-0.002": 35.7329977133,
			"-0.001": 35.0890080934,
			"0.0": 33.3793284764,
			"0.001": 33.20085644,
			"0.002": 13.9778878961,
			"0.003": 6.596301849,
			"0.004": 4.56400023427,
			"0.005": 3.72312262203,
			"0.006": 3.50314080209,
			"0.007": 3.6908892564,
			"0.008": 3.34338350089,
			"0.009": 3.06753705375,
			"0.01": 4.03929623671,
			"0.011": 3.3930453197,
			"0.012": 5.29708597539,
			"0.013": 11.0750714825,
			"0.014": 3.52359799938,
			"0.015": 0.0,
			"0.016": 0.0,
			"0.017": 0.0,
			"0.018": 0.0,
			"0.019": 0.0,
			"0.02": 0.0,
			"0.021": 0.0,
			"0.022": 0.0,
			"0.023": 0.0,
			"0.024": 0.0,
			"0.025": 0.0
		}
	}
}
