{
	 "smiles": "OC1=C(F)C=CC(F)=C1Cl", 
	 "Tm": 327.15, 
	 "num_atms": 13, 
	 "gaussian": { 
		 "optdone": 1, 
		 "sigma_profile": "yes", 
		 "theory": "DFT", 
		 "functional": "B3LYP", 
		 "basiset": "6-31G**", 
		 "properties": { 
			 "R2extent": 2104.7053, 
			 "electric_dipole_moment_norm": 2.74777040344, 
			 "electric_quadrupole_moment_norm": 6.14435999515, 
			 "total_energy": -965.516293095, 
			 "HOMO_LUMO_gap": 0.21753, 
			 "cosmo_polarized_energy": -6.97, 
			 "cosmo_cavitation_energy": 20.24, 
			 "cosmo_dispersion_energy": -15.19, 
			 "cosmo_repulsion_energy": 1.19, 
			 "cosmo_total_nonelectrostatic_energy": 6.24, 
			 "SMD_solvation_energy": 4.64 
		},
		"coords": [
			{
				"x": -0.8872667794,
				"y": -2.4713891681,
				"z": 2.0116488062,
				"element": "O" 
			},
			{
				"x": -0.5468860228,
				"y": -1.320271214,
				"z": 1.3900559559,
				"element": "C" 
			},
			{
				"x": 0.7885161763,
				"y": -0.9114236157,
				"z": 1.2926874067,
				"element": "C" 
			},
			{
				"x": 1.7069077181,
				"y": -1.7409481599,
				"z": 1.85886217,
				"element": "F" 
			},
			{
				"x": 1.1724033324,
				"y": 0.2583007499,
				"z": 0.6649031305,
				"element": "C" 
			},
			{
				"x": 0.1880906706,
				"y": 1.0731130208,
				"z": 0.1004259383,
				"element": "C" 
			},
			{
				"x": -1.1428025185,
				"y": 0.6849281852,
				"z": 0.1864786394,
				"element": "C" 
			},
			{
				"x": -2.0894842403,
				"y": 1.4660846162,
				"z": -0.3549407262,
				"element": "F" 
			},
			{
				"x": -1.530304629,
				"y": -0.4995753629,
				"z": 0.8223127839,
				"element": "C" 
			},
			{
				"x": -3.2046147316,
				"y": -0.9498036023,
				"z": 0.9088275702,
				"element": "Cl" 
			},
			{
				"x": -0.0706488655,
				"y": -2.8842252031,
				"z": 2.3300654959,
				"element": "H" 
			},
			{
				"x": 2.2228466775,
				"y": 0.5221931846,
				"z": 0.621214833,
				"element": "H" 
			},
			{
				"x": 0.4357432123,
				"y": 2.0000165693,
				"z": -0.4027420038,
				"element": "H" 
			}
		],
		 "valence_orbital": [ 
			{
				"type": "occ",
				"energy": -0.36041,
				"method": "rhf"
			},
			{
				"type": "occ",
				"energy": -0.33897,
				"method": "rhf"
			},
			{
				"type": "occ",
				"energy": -0.31879,
				"method": "rhf"
			},
			{
				"type": "occ",
				"energy": -0.25166,
				"method": "rhf"
			},
			{
				"type": "occ",
				"energy": -0.24109,
				"method": "rhf"
			},
			{
				"type": "unocc",
				"energy": -0.02356,
				"method": "rhf"
			},
			{
				"type": "unocc",
				"energy": -0.00504,
				"method": "rhf"
			},
			{
				"type": "unocc",
				"energy": 0.0129,
				"method": "rhf"
			},
			{
				"type": "unocc",
				"energy": 0.07028,
				"method": "rhf"
			},
			{
				"type": "unocc",
				"energy": 0.09881,
				"method": "rhf"
			}
		],
		"cosmo_sigma_profile": { 
			"-0.025": 0.0,
			"-0.024": 0.0,
			"-0.023": 0.0,
			"-0.022": 0.0,
			"-0.021": 0.0,
			"-0.02": 0.0,
			"-0.019": 0.0,
			"-0.018": 0.0432355469361,
			"-0.017": 0.737174160577,
			"-0.016": 0.789351512703,
			"-0.015": 0.466347548276,
			"-0.014": 0.789840552139,
			"-0.013": 0.485843821977,
			"-0.012": 1.0339605127,
			"-0.011": 1.11334939497,
			"-0.01": 1.02883165901,
			"-0.009": 1.30772440207,
			"-0.008": 4.79903449376,
			"-0.007": 5.05424521372,
			"-0.006": 4.57182004252,
			"-0.005": 4.42783796914,
			"-0.004": 4.42725294768,
			"-0.003": 6.08106621381,
			"-0.002": 6.49077201108,
			"-0.001": 14.1882251342,
			"0.0": 23.4923062095,
			"0.001": 16.0419990099,
			"0.002": 14.5008493387,
			"0.003": 20.134158412,
			"0.004": 19.2850967029,
			"0.005": 4.35989489592,
			"0.006": 2.2452157471,
			"0.007": 2.12123886731,
			"0.008": 2.05886072515,
			"0.009": 2.00445445008,
			"0.01": 1.51216155581,
			"0.011": 0.0144140703415,
			"0.012": 0.0,
			"0.013": 0.0,
			"0.014": 0.0,
			"0.015": 0.0,
			"0.016": 0.0,
			"0.017": 0.0,
			"0.018": 0.0,
			"0.019": 0.0,
			"0.02": 0.0,
			"0.021": 0.0,
			"0.022": 0.0,
			"0.023": 0.0,
			"0.024": 0.0,
			"0.025": 0.0
		}
	}
}
