{
	 "smiles": "CCOC(=O)C1=C(N)N(N=C1SC)S(=O)(=O)C1=CC=C(OC)C=C1", 
	 "Tm": 417.15, 
	 "num_atms": 41, 
	 "gaussian": { 
		 "optdone": 1, 
		 "sigma_profile": "yes", 
		 "theory": "DFT", 
		 "functional": "B3LYP", 
		 "basiset": "6-31G**", 
		 "properties": { 
			 "R2extent": 11749.2835, 
			 "electric_dipole_moment_norm": 5.31299050818, 
			 "electric_quadrupole_moment_norm": 23.3090648395, 
			 "total_energy": -1880.40723419, 
			 "HOMO_LUMO_gap": 0.16722, 
			 "cosmo_polarized_energy": -18.88, 
			 "cosmo_cavitation_energy": 48.23, 
			 "cosmo_dispersion_energy": -34.07, 
			 "cosmo_repulsion_energy": 2.55, 
			 "cosmo_total_nonelectrostatic_energy": 16.71, 
			 "SMD_solvation_energy": 8.77 
		},
		"coords": [
			{
				"x": 4.2679029747,
				"y": -5.7136898129,
				"z": 0.9624732651,
				"element": "C" 
			},
			{
				"x": 4.4230311134,
				"y": -4.2390782138,
				"z": 0.6218904532,
				"element": "C" 
			},
			{
				"x": 3.1601400428,
				"y": -3.6542455947,
				"z": 0.2278328609,
				"element": "O" 
			},
			{
				"x": 2.3571604354,
				"y": -3.2058565672,
				"z": 1.217683743,
				"element": "C" 
			},
			{
				"x": 2.6589029754,
				"y": -3.2612306898,
				"z": 2.4096201835,
				"element": "O" 
			},
			{
				"x": 1.1130364223,
				"y": -2.6529179093,
				"z": 0.7283102531,
				"element": "C" 
			},
			{
				"x": 0.1368973839,
				"y": -2.1358124834,
				"z": 1.593829196,
				"element": "C" 
			},
			{
				"x": 0.1953262251,
				"y": -2.002115852,
				"z": 2.9298015969,
				"element": "N" 
			},
			{
				"x": -0.9184069157,
				"y": -1.7687219593,
				"z": 0.7875084056,
				"element": "N" 
			},
			{
				"x": -0.6515810041,
				"y": -1.9765798848,
				"z": -0.5673848072,
				"element": "N" 
			},
			{
				"x": 0.5516404155,
				"y": -2.5137239064,
				"z": -0.5859103312,
				"element": "C" 
			},
			{
				"x": 1.3209354955,
				"y": -2.9959074694,
				"z": -2.0964379399,
				"element": "S" 
			},
			{
				"x": 0.0034841924,
				"y": -2.5319842958,
				"z": -3.2728301414,
				"element": "C" 
			},
			{
				"x": -2.3437967185,
				"y": -0.8837819961,
				"z": 1.1820550707,
				"element": "S" 
			},
			{
				"x": -3.4297241711,
				"y": -1.4680037517,
				"z": 0.4111497743,
				"element": "O" 
			},
			{
				"x": -2.3498245027,
				"y": -0.870914731,
				"z": 2.6499261226,
				"element": "O" 
			},
			{
				"x": -2.0171282193,
				"y": 0.7535612082,
				"z": 0.5836386446,
				"element": "C" 
			},
			{
				"x": -1.4774551575,
				"y": 1.7125589494,
				"z": 1.4514012119,
				"element": "C" 
			},
			{
				"x": -1.2186426571,
				"y": 2.9870800678,
				"z": 0.9741581971,
				"element": "C" 
			},
			{
				"x": -1.490325227,
				"y": 3.3093724626,
				"z": -0.3680242484,
				"element": "C" 
			},
			{
				"x": -1.1994917589,
				"y": 4.5819235346,
				"z": -0.7311368136,
				"element": "O" 
			},
			{
				"x": -1.4461810913,
				"y": 4.9847226619,
				"z": -2.0737404782,
				"element": "C" 
			},
			{
				"x": -2.0308699675,
				"y": 2.341296595,
				"z": -1.2290056325,
				"element": "C" 
			},
			{
				"x": -2.2939205966,
				"y": 1.0602328654,
				"z": -0.7490155091,
				"element": "C" 
			},
			{
				"x": 5.2487971031,
				"y": -6.1501363023,
				"z": 1.1794625175,
				"element": "H" 
			},
			{
				"x": 3.8244814759,
				"y": -6.2611886366,
				"z": 0.1257469979,
				"element": "H" 
			},
			{
				"x": 3.6340403892,
				"y": -5.8387491497,
				"z": 1.8436935641,
				"element": "H" 
			},
			{
				"x": 4.8218357442,
				"y": -3.6775843428,
				"z": 1.4699154374,
				"element": "H" 
			},
			{
				"x": 5.0691022073,
				"y": -4.0941649161,
				"z": -0.2470170445,
				"element": "H" 
			},
			{
				"x": 1.0062257673,
				"y": -2.4328531622,
				"z": 3.3595045151,
				"element": "H" 
			},
			{
				"x": -0.6404270807,
				"y": -1.7692011161,
				"z": 3.4442409288,
				"element": "H" 
			},
			{
				"x": -0.91995092,
				"y": -3.0661064473,
				"z": -3.0459774622,
				"element": "H" 
			},
			{
				"x": 0.3720097815,
				"y": -2.820430327,
				"z": -4.2593650865,
				"element": "H" 
			},
			{
				"x": -0.1817674091,
				"y": -1.4573714731,
				"z": -3.2432583113,
				"element": "H" 
			},
			{
				"x": -1.2810227565,
				"y": 1.4579574873,
				"z": 2.4867532218,
				"element": "H" 
			},
			{
				"x": -0.8090338841,
				"y": 3.7572621099,
				"z": 1.6184816813,
				"element": "H" 
			},
			{
				"x": -1.1382751747,
				"y": 6.0290656618,
				"z": -2.13241394,
				"element": "H" 
			},
			{
				"x": -2.5102249646,
				"y": 4.9056098349,
				"z": -2.3271963011,
				"element": "H" 
			},
			{
				"x": -0.8575541641,
				"y": 4.3925622777,
				"z": -2.7847224781,
				"element": "H" 
			},
			{
				"x": -2.251352429,
				"y": 2.5744901248,
				"z": -2.2632197365,
				"element": "H" 
			},
			{
				"x": -2.716693375,
				"y": 0.3038551496,
				"z": -1.4000215807,
				"element": "H" 
			}
		],
		 "valence_orbital": [ 
			{
				"type": "occ",
				"energy": -0.27922,
				"method": "rhf"
			},
			{
				"type": "occ",
				"energy": -0.27093,
				"method": "rhf"
			},
			{
				"type": "occ",
				"energy": -0.24923,
				"method": "rhf"
			},
			{
				"type": "occ",
				"energy": -0.22362,
				"method": "rhf"
			},
			{
				"type": "occ",
				"energy": -0.21115,
				"method": "rhf"
			},
			{
				"type": "unocc",
				"energy": -0.04393,
				"method": "rhf"
			},
			{
				"type": "unocc",
				"energy": -0.02747,
				"method": "rhf"
			},
			{
				"type": "unocc",
				"energy": -0.00646,
				"method": "rhf"
			},
			{
				"type": "unocc",
				"energy": 0.01659,
				"method": "rhf"
			},
			{
				"type": "unocc",
				"energy": 0.03759,
				"method": "rhf"
			}
		],
		"cosmo_sigma_profile": { 
			"-0.025": 0.0,
			"-0.024": 0.0,
			"-0.023": 0.0,
			"-0.022": 0.0,
			"-0.021": 0.0,
			"-0.02": 0.0,
			"-0.019": 0.0,
			"-0.018": 0.0,
			"-0.017": 0.0,
			"-0.016": 0.0,
			"-0.015": 0.0,
			"-0.014": 0.0,
			"-0.013": 0.0844389193598,
			"-0.012": 0.404533908766,
			"-0.011": 1.58701104181,
			"-0.01": 2.19621101406,
			"-0.009": 1.22130686676,
			"-0.008": 3.72801128861,
			"-0.007": 13.4395157393,
			"-0.006": 21.2671432121,
			"-0.005": 25.8480281456,
			"-0.004": 30.1854717735,
			"-0.003": 30.6066128538,
			"-0.002": 31.0986884461,
			"-0.001": 30.1178061599,
			"0.0": 30.8466546678,
			"0.001": 30.3016852014,
			"0.002": 29.3993656919,
			"0.003": 17.5993578994,
			"0.004": 13.220376296,
			"0.005": 14.2268489039,
			"0.006": 11.182352195,
			"0.007": 12.8012117037,
			"0.008": 10.0490481844,
			"0.009": 11.4616168169,
			"0.01": 8.36466501683,
			"0.011": 2.97964983805,
			"0.012": 1.85398466605,
			"0.013": 0.0723380038716,
			"0.014": 0.0,
			"0.015": 0.0,
			"0.016": 0.0,
			"0.017": 0.0,
			"0.018": 0.0,
			"0.019": 0.0,
			"0.02": 0.0,
			"0.021": 0.0,
			"0.022": 0.0,
			"0.023": 0.0,
			"0.024": 0.0,
			"0.025": 0.0
		}
	}
}
