{
	 "smiles": "CCOC1=CC=C(C=C1)C1=NC2=C(C(C)=NO2)C(=C1)C(O)=O", 
	 "Tm": 496.15, 
	 "num_atms": 36, 
	 "gaussian": { 
		 "optdone": 1, 
		 "sigma_profile": "yes", 
		 "theory": "DFT", 
		 "functional": "B3LYP", 
		 "basiset": "6-31G**", 
		 "properties": { 
			 "R2extent": 12322.3267, 
			 "electric_dipole_moment_norm": 5.95809659707, 
			 "electric_quadrupole_moment_norm": 17.0404717279, 
			 "total_energy": -1028.51145791, 
			 "HOMO_LUMO_gap": 0.13693, 
			 "cosmo_polarized_energy": -20.42, 
			 "cosmo_cavitation_energy": 40.94, 
			 "cosmo_dispersion_energy": -29.97, 
			 "cosmo_repulsion_energy": 2.26, 
			 "cosmo_total_nonelectrostatic_energy": 13.23, 
			 "SMD_solvation_energy": 6.94 
		},
		"coords": [
			{
				"x": -4.4086824977,
				"y": 4.0257315242,
				"z": 0.9368650877,
				"element": "C" 
			},
			{
				"x": -3.3881163131,
				"y": 3.152573043,
				"z": 0.229109127,
				"element": "C" 
			},
			{
				"x": -3.1053585529,
				"y": 2.0415035689,
				"z": 1.0851933777,
				"element": "O" 
			},
			{
				"x": -2.2183766587,
				"y": 1.1004657236,
				"z": 0.6724679271,
				"element": "C" 
			},
			{
				"x": -2.0051772493,
				"y": 0.030851134,
				"z": 1.5579018788,
				"element": "C" 
			},
			{
				"x": -1.1154422242,
				"y": -0.9800649806,
				"z": 1.2317322309,
				"element": "C" 
			},
			{
				"x": -0.4060475073,
				"y": -0.9646793608,
				"z": 0.0142201599,
				"element": "C" 
			},
			{
				"x": -0.6402906247,
				"y": 0.1048696933,
				"z": -0.8642821092,
				"element": "C" 
			},
			{
				"x": -1.5279090094,
				"y": 1.1293240782,
				"z": -0.5481821637,
				"element": "C" 
			},
			{
				"x": 0.5537918003,
				"y": -2.0241651933,
				"z": -0.3641261493,
				"element": "C" 
			},
			{
				"x": 0.9297694446,
				"y": -2.0690968669,
				"z": -1.6554312406,
				"element": "N" 
			},
			{
				"x": 1.778013067,
				"y": -3.0306366442,
				"z": -1.9696183312,
				"element": "C" 
			},
			{
				"x": 2.3311651733,
				"y": -4.0136133407,
				"z": -1.1323678395,
				"element": "C" 
			},
			{
				"x": 3.1774193063,
				"y": -4.7769225516,
				"z": -2.0150931082,
				"element": "C" 
			},
			{
				"x": 4.0537479956,
				"y": -5.9573827832,
				"z": -1.7416288405,
				"element": "C" 
			},
			{
				"x": 3.1177798561,
				"y": -4.2940985339,
				"z": -3.2329866966,
				"element": "N" 
			},
			{
				"x": 2.2387032001,
				"y": -3.1882702634,
				"z": -3.2273207386,
				"element": "O" 
			},
			{
				"x": 1.9642802713,
				"y": -3.9477548332,
				"z": 0.2240788476,
				"element": "C" 
			},
			{
				"x": 1.0723381482,
				"y": -2.9409315215,
				"z": 0.5900232584,
				"element": "C" 
			},
			{
				"x": 2.461929909,
				"y": -4.9423215491,
				"z": 1.2344702391,
				"element": "C" 
			},
			{
				"x": 2.6536325108,
				"y": -4.4656472613,
				"z": 2.490010972,
				"element": "O" 
			},
			{
				"x": 2.6673073023,
				"y": -6.104912431,
				"z": 0.9826456209,
				"element": "O" 
			},
			{
				"x": -4.655269627,
				"y": 4.8920176308,
				"z": 0.3156093035,
				"element": "H" 
			},
			{
				"x": -5.3271919825,
				"y": 3.4652862895,
				"z": 1.1314410307,
				"element": "H" 
			},
			{
				"x": -4.0140995023,
				"y": 4.3842055784,
				"z": 1.8915845922,
				"element": "H" 
			},
			{
				"x": -2.4635466813,
				"y": 3.7113865378,
				"z": 0.0291720239,
				"element": "H" 
			},
			{
				"x": -3.7787671281,
				"y": 2.7902008054,
				"z": -0.7315899066,
				"element": "H" 
			},
			{
				"x": -2.5587048485,
				"y": 0.0135620248,
				"z": 2.4907337563,
				"element": "H" 
			},
			{
				"x": -0.9989335961,
				"y": -1.8036999425,
				"z": 1.9289074888,
				"element": "H" 
			},
			{
				"x": -0.1096028036,
				"y": 0.1229022594,
				"z": -1.8093800755,
				"element": "H" 
			},
			{
				"x": -1.6735674469,
				"y": 1.939480727,
				"z": -1.2523220222,
				"element": "H" 
			},
			{
				"x": 3.4717007292,
				"y": -6.7781202192,
				"z": -1.317816163,
				"element": "H" 
			},
			{
				"x": 4.5325431058,
				"y": -6.2755068899,
				"z": -2.6696643067,
				"element": "H" 
			},
			{
				"x": 4.8278516818,
				"y": -5.705507769,
				"z": -1.009998792,
				"element": "H" 
			},
			{
				"x": 0.7450954908,
				"y": -2.868545286,
				"z": 1.6205687767,
				"element": "H" 
			},
			{
				"x": 2.5795152611,
				"y": -3.5002823972,
				"z": 2.4931727844,
				"element": "H" 
			}
		],
		 "valence_orbital": [ 
			{
				"type": "occ",
				"energy": -0.2815,
				"method": "rhf"
			},
			{
				"type": "occ",
				"energy": -0.27815,
				"method": "rhf"
			},
			{
				"type": "occ",
				"energy": -0.27325,
				"method": "rhf"
			},
			{
				"type": "occ",
				"energy": -0.26519,
				"method": "rhf"
			},
			{
				"type": "occ",
				"energy": -0.22333,
				"method": "rhf"
			},
			{
				"type": "unocc",
				"energy": -0.0864,
				"method": "rhf"
			},
			{
				"type": "unocc",
				"energy": -0.04463,
				"method": "rhf"
			},
			{
				"type": "unocc",
				"energy": -0.01406,
				"method": "rhf"
			},
			{
				"type": "unocc",
				"energy": 0.0075,
				"method": "rhf"
			},
			{
				"type": "unocc",
				"energy": 0.02142,
				"method": "rhf"
			}
		],
		"cosmo_sigma_profile": { 
			"-0.025": 0.0,
			"-0.024": 0.0,
			"-0.023": 0.0,
			"-0.022": 0.0,
			"-0.021": 0.0,
			"-0.02": 0.0277041292017,
			"-0.019": 0.777964867122,
			"-0.018": 0.698676140025,
			"-0.017": 1.33290842996,
			"-0.016": 1.05512041252,
			"-0.015": 1.12446391591,
			"-0.014": 0.894550940827,
			"-0.013": 1.25247323812,
			"-0.012": 1.23366974431,
			"-0.011": 1.77084706706,
			"-0.01": 1.94937281268,
			"-0.009": 2.08218986081,
			"-0.008": 3.19227837912,
			"-0.007": 5.69536009923,
			"-0.006": 12.308172232,
			"-0.005": 20.0989177506,
			"-0.004": 25.084000313,
			"-0.003": 28.444815038,
			"-0.002": 30.2076647222,
			"-0.001": 30.226278529,
			"0.0": 21.5980308172,
			"0.001": 16.5179023856,
			"0.002": 16.9854500775,
			"0.003": 18.3227634254,
			"0.004": 20.1007038079,
			"0.005": 9.56169761655,
			"0.006": 8.75322913339,
			"0.007": 11.6595294605,
			"0.008": 10.3807102191,
			"0.009": 8.80654385157,
			"0.01": 7.37256821698,
			"0.011": 3.95408979591,
			"0.012": 2.78686093243,
			"0.013": 1.06954136663,
			"0.014": 0.225528100626,
			"0.015": 0.0,
			"0.016": 0.0,
			"0.017": 0.0,
			"0.018": 0.0,
			"0.019": 0.0,
			"0.02": 0.0,
			"0.021": 0.0,
			"0.022": 0.0,
			"0.023": 0.0,
			"0.024": 0.0,
			"0.025": 0.0
		}
	}
}
