{
	 "smiles": "COC(=O)C(=O)CC(=O)C1=C(OC)C=CC=C1", 
	 "Tm": 355.15, 
	 "num_atms": 29, 
	 "gaussian": { 
		 "optdone": 1, 
		 "sigma_profile": "yes", 
		 "theory": "DFT", 
		 "functional": "B3LYP", 
		 "basiset": "6-31G**", 
		 "properties": { 
			 "R2extent": 4980.8142, 
			 "electric_dipole_moment_norm": 6.04407064899, 
			 "electric_quadrupole_moment_norm": 19.8487883411, 
			 "total_energy": -840.591773756, 
			 "HOMO_LUMO_gap": 0.18576, 
			 "cosmo_polarized_energy": -17.38, 
			 "cosmo_cavitation_energy": 34.49, 
			 "cosmo_dispersion_energy": -23.4, 
			 "cosmo_repulsion_energy": 1.85, 
			 "cosmo_total_nonelectrostatic_energy": 12.93, 
			 "SMD_solvation_energy": 9.3 
		},
		"coords": [
			{
				"x": 3.7906546418,
				"y": 0.3288009212,
				"z": 1.0762291063,
				"element": "C" 
			},
			{
				"x": 2.803879498,
				"y": 0.4773650093,
				"z": 0.0381752959,
				"element": "O" 
			},
			{
				"x": 2.9947807039,
				"y": 1.5224135367,
				"z": -0.7915788913,
				"element": "C" 
			},
			{
				"x": 3.930623161,
				"y": 2.2810813253,
				"z": -0.7504919523,
				"element": "O" 
			},
			{
				"x": 1.8649513216,
				"y": 1.604537397,
				"z": -1.8424041511,
				"element": "C" 
			},
			{
				"x": 2.0444651429,
				"y": 2.2552285622,
				"z": -2.8443932157,
				"element": "O" 
			},
			{
				"x": 0.5787672119,
				"y": 0.8390930183,
				"z": -1.5679318808,
				"element": "C" 
			},
			{
				"x": -0.0998920564,
				"y": 1.3633853766,
				"z": -0.296382103,
				"element": "C" 
			},
			{
				"x": 0.3310928561,
				"y": 2.3822391839,
				"z": 0.2227962948,
				"element": "O" 
			},
			{
				"x": -1.2665785413,
				"y": 0.6046287015,
				"z": 0.2425652841,
				"element": "C" 
			},
			{
				"x": -1.6302499585,
				"y": 0.6730305979,
				"z": 1.6101916383,
				"element": "C" 
			},
			{
				"x": -0.8846498707,
				"y": 1.3610188186,
				"z": 2.5272094897,
				"element": "O" 
			},
			{
				"x": -1.2790648779,
				"y": 2.7180180028,
				"z": 2.7641140924,
				"element": "C" 
			},
			{
				"x": -2.7260211834,
				"y": -0.0615246836,
				"z": 2.0755147579,
				"element": "C" 
			},
			{
				"x": -3.4774048246,
				"y": -0.8511018212,
				"z": 1.2083391019,
				"element": "C" 
			},
			{
				"x": -3.130105823,
				"y": -0.9287999454,
				"z": -0.1421681315,
				"element": "C" 
			},
			{
				"x": -2.0279851743,
				"y": -0.2187516634,
				"z": -0.6074370691,
				"element": "C" 
			},
			{
				"x": 4.7853154729,
				"y": 0.2075672133,
				"z": 0.6407036549,
				"element": "H" 
			},
			{
				"x": 3.500656826,
				"y": -0.5604849623,
				"z": 1.634541411,
				"element": "H" 
			},
			{
				"x": 3.7885540534,
				"y": 1.2083252958,
				"z": 1.7240786647,
				"element": "H" 
			},
			{
				"x": -0.073765697,
				"y": 0.9799955225,
				"z": -2.4357030833,
				"element": "H" 
			},
			{
				"x": 0.7891435257,
				"y": -0.231431497,
				"z": -1.467317114,
				"element": "H" 
			},
			{
				"x": -2.3268933622,
				"y": 2.7702201133,
				"z": 3.0868974945,
				"element": "H" 
			},
			{
				"x": -1.1252924198,
				"y": 3.3254189933,
				"z": 1.8688322251,
				"element": "H" 
			},
			{
				"x": -0.6355218303,
				"y": 3.082831262,
				"z": 3.5665364625,
				"element": "H" 
			},
			{
				"x": -2.9608371082,
				"y": -0.0091667059,
				"z": 3.1339620395,
				"element": "H" 
			},
			{
				"x": -4.3275514882,
				"y": -1.41079283,
				"z": 1.5875726255,
				"element": "H" 
			},
			{
				"x": -3.7082299674,
				"y": -1.5435582578,
				"z": -0.8247063956,
				"element": "H" 
			},
			{
				"x": -1.762940232,
				"y": -0.290486485,
				"z": -1.6571456515,
				"element": "H" 
			}
		],
		 "valence_orbital": [ 
			{
				"type": "occ",
				"energy": -0.27994,
				"method": "rhf"
			},
			{
				"type": "occ",
				"energy": -0.27297,
				"method": "rhf"
			},
			{
				"type": "occ",
				"energy": -0.26418,
				"method": "rhf"
			},
			{
				"type": "occ",
				"energy": -0.25562,
				"method": "rhf"
			},
			{
				"type": "occ",
				"energy": -0.25278,
				"method": "rhf"
			},
			{
				"type": "unocc",
				"energy": -0.06702,
				"method": "rhf"
			},
			{
				"type": "unocc",
				"energy": -0.06525,
				"method": "rhf"
			},
			{
				"type": "unocc",
				"energy": -0.01729,
				"method": "rhf"
			},
			{
				"type": "unocc",
				"energy": 0.02091,
				"method": "rhf"
			},
			{
				"type": "unocc",
				"energy": 0.05622,
				"method": "rhf"
			}
		],
		"cosmo_sigma_profile": { 
			"-0.025": 0.0,
			"-0.024": 0.0,
			"-0.023": 0.0,
			"-0.022": 0.0,
			"-0.021": 0.0,
			"-0.02": 0.0,
			"-0.019": 0.0,
			"-0.018": 0.0,
			"-0.017": 0.0,
			"-0.016": 0.0,
			"-0.015": 0.0,
			"-0.014": 0.0,
			"-0.013": 0.0,
			"-0.012": 0.0,
			"-0.011": 0.0,
			"-0.01": 0.223120910696,
			"-0.009": 3.00287662146,
			"-0.008": 6.1437551959,
			"-0.007": 12.3968831196,
			"-0.006": 19.4399719551,
			"-0.005": 24.1344262332,
			"-0.004": 24.9627260256,
			"-0.003": 22.4933444279,
			"-0.002": 18.2283945903,
			"-0.001": 14.368070682,
			"0.0": 12.6825854425,
			"0.001": 15.2503834631,
			"0.002": 17.2869125792,
			"0.003": 17.5677273057,
			"0.004": 11.9087988743,
			"0.005": 5.14316344296,
			"0.006": 5.85100158089,
			"0.007": 5.85485003868,
			"0.008": 6.33487837579,
			"0.009": 9.42277306384,
			"0.01": 11.1650560004,
			"0.011": 8.08198921995,
			"0.012": 2.67242304836,
			"0.013": 0.077947577488,
			"0.014": 0.0,
			"0.015": 0.0,
			"0.016": 0.0,
			"0.017": 0.0,
			"0.018": 0.0,
			"0.019": 0.0,
			"0.02": 0.0,
			"0.021": 0.0,
			"0.022": 0.0,
			"0.023": 0.0,
			"0.024": 0.0,
			"0.025": 0.0
		}
	}
}
