{
	 "smiles": "NC1=C2CCCC2=NN1C1=CC=CC=C1", 
	 "Tm": 454.15, 
	 "num_atms": 28, 
	 "gaussian": { 
		 "optdone": 1, 
		 "sigma_profile": "yes", 
		 "theory": "DFT", 
		 "functional": "B3LYP", 
		 "basiset": "6-31G**", 
		 "properties": { 
			 "R2extent": 3683.0558, 
			 "electric_dipole_moment_norm": 2.94099421795, 
			 "electric_quadrupole_moment_norm": 6.95830288217, 
			 "total_energy": -629.342407023, 
			 "HOMO_LUMO_gap": 0.18792, 
			 "cosmo_polarized_energy": -11.81, 
			 "cosmo_cavitation_energy": 30.46, 
			 "cosmo_dispersion_energy": -22.89, 
			 "cosmo_repulsion_energy": 1.81, 
			 "cosmo_total_nonelectrostatic_energy": 9.38, 
			 "SMD_solvation_energy": 3.68 
		},
		"coords": [
			{
				"x": 2.0227770306,
				"y": 1.5189748919,
				"z": 0.6157644155,
				"element": "N" 
			},
			{
				"x": 0.9872653874,
				"y": 1.0898224636,
				"z": -0.2172490932,
				"element": "C" 
			},
			{
				"x": 0.5088624637,
				"y": 1.6025619457,
				"z": -1.4053212094,
				"element": "C" 
			},
			{
				"x": 0.6627956598,
				"y": 2.7347871729,
				"z": -2.3801751988,
				"element": "C" 
			},
			{
				"x": -0.1663050831,
				"y": 2.2086673621,
				"z": -3.6025160729,
				"element": "C" 
			},
			{
				"x": -1.1912811014,
				"y": 1.1645336842,
				"z": -3.0565174586,
				"element": "C" 
			},
			{
				"x": -0.5260713073,
				"y": 0.7253251456,
				"z": -1.7823126005,
				"element": "C" 
			},
			{
				"x": -0.7205571668,
				"y": -0.2721335751,
				"z": -0.9408939245,
				"element": "N" 
			},
			{
				"x": 0.245974775,
				"y": -0.0541371851,
				"z": 0.0312009026,
				"element": "N" 
			},
			{
				"x": 0.326027886,
				"y": -0.944237297,
				"z": 1.1297827927,
				"element": "C" 
			},
			{
				"x": -0.8495423958,
				"y": -1.5488529047,
				"z": 1.598237944,
				"element": "C" 
			},
			{
				"x": -0.7912333655,
				"y": -2.4337907858,
				"z": 2.671167398,
				"element": "C" 
			},
			{
				"x": 0.4269482567,
				"y": -2.7182635852,
				"z": 3.295188525,
				"element": "C" 
			},
			{
				"x": 1.5947490709,
				"y": -2.1221997809,
				"z": 2.8200502509,
				"element": "C" 
			},
			{
				"x": 1.5552628346,
				"y": -1.2459955638,
				"z": 1.7336108932,
				"element": "C" 
			},
			{
				"x": 1.8471309339,
				"y": 1.3587203222,
				"z": 1.6018439435,
				"element": "H" 
			},
			{
				"x": 2.2493208995,
				"y": 2.4920443701,
				"z": 0.4517562714,
				"element": "H" 
			},
			{
				"x": 0.2373505069,
				"y": 3.6724875899,
				"z": -1.9936769765,
				"element": "H" 
			},
			{
				"x": 1.6982733234,
				"y": 2.9524340365,
				"z": -2.6666907179,
				"element": "H" 
			},
			{
				"x": 0.5161342005,
				"y": 1.7037127299,
				"z": -4.2943152799,
				"element": "H" 
			},
			{
				"x": -0.6483081367,
				"y": 3.0193459812,
				"z": -4.1565317181,
				"element": "H" 
			},
			{
				"x": -2.1627743649,
				"y": 1.6311692125,
				"z": -2.8455492465,
				"element": "H" 
			},
			{
				"x": -1.374495934,
				"y": 0.3492390756,
				"z": -3.7630475018,
				"element": "H" 
			},
			{
				"x": -1.7847086913,
				"y": -1.3217715712,
				"z": 1.1011466744,
				"element": "H" 
			},
			{
				"x": -1.7060490263,
				"y": -2.8993315375,
				"z": 3.0268130228,
				"element": "H" 
			},
			{
				"x": 0.4647618523,
				"y": -3.4036326775,
				"z": 4.1365487711,
				"element": "H" 
			},
			{
				"x": 2.5510385875,
				"y": -2.3510878071,
				"z": 3.2818756808,
				"element": "H" 
			},
			{
				"x": 2.4714529045,
				"y": -0.8208917132,
				"z": 1.3399095127,
				"element": "H" 
			}
		],
		 "valence_orbital": [ 
			{
				"type": "occ",
				"energy": -0.2691,
				"method": "rhf"
			},
			{
				"type": "occ",
				"energy": -0.26738,
				"method": "rhf"
			},
			{
				"type": "occ",
				"energy": -0.25048,
				"method": "rhf"
			},
			{
				"type": "occ",
				"energy": -0.20876,
				"method": "rhf"
			},
			{
				"type": "occ",
				"energy": -0.19846,
				"method": "rhf"
			},
			{
				"type": "unocc",
				"energy": -0.01054,
				"method": "rhf"
			},
			{
				"type": "unocc",
				"energy": -0.0027,
				"method": "rhf"
			},
			{
				"type": "unocc",
				"energy": 0.04662,
				"method": "rhf"
			},
			{
				"type": "unocc",
				"energy": 0.07242,
				"method": "rhf"
			},
			{
				"type": "unocc",
				"energy": 0.09344,
				"method": "rhf"
			}
		],
		"cosmo_sigma_profile": { 
			"-0.025": 0.0,
			"-0.024": 0.0,
			"-0.023": 0.0,
			"-0.022": 0.0,
			"-0.021": 0.0,
			"-0.02": 0.0,
			"-0.019": 0.0,
			"-0.018": 0.0,
			"-0.017": 0.0,
			"-0.016": 0.0,
			"-0.015": 0.0,
			"-0.014": 0.029932067254,
			"-0.013": 0.877771349079,
			"-0.012": 1.92639010026,
			"-0.011": 2.98341180445,
			"-0.01": 2.21087245574,
			"-0.009": 2.50371093349,
			"-0.008": 2.82927349804,
			"-0.007": 2.44011757894,
			"-0.006": 6.49579704415,
			"-0.005": 10.9118100931,
			"-0.004": 16.3982335544,
			"-0.003": 22.6279653434,
			"-0.002": 25.3209808494,
			"-0.001": 24.6360365688,
			"0.0": 21.4756462063,
			"0.001": 16.5023619772,
			"0.002": 11.5415851691,
			"0.003": 12.5031359705,
			"0.004": 14.6162382967,
			"0.005": 17.8971893738,
			"0.006": 7.05901892824,
			"0.007": 2.53592876101,
			"0.008": 3.00768526828,
			"0.009": 2.66345290681,
			"0.01": 1.50037182793,
			"0.011": 1.85708863333,
			"0.012": 2.58877657805,
			"0.013": 1.4096488264,
			"0.014": 0.58409320851,
			"0.015": 0.94299614402,
			"0.016": 0.699960707517,
			"0.017": 0.0965592109285,
			"0.018": 0.0,
			"0.019": 0.0,
			"0.02": 0.0,
			"0.021": 0.0,
			"0.022": 0.0,
			"0.023": 0.0,
			"0.024": 0.0,
			"0.025": 0.0
		}
	}
}
