{
	 "smiles": "CC1=CC(C(O)=O)=C(C=C1)N1CCCC1", 
	 "Tm": 398.15, 
	 "num_atms": 30, 
	 "gaussian": { 
		 "optdone": 1, 
		 "sigma_profile": "yes", 
		 "theory": "DFT", 
		 "functional": "B3LYP", 
		 "basiset": "6-31G**", 
		 "properties": { 
			 "R2extent": 3924.5389, 
			 "electric_dipole_moment_norm": 1.44010335046, 
			 "electric_quadrupole_moment_norm": 7.12805173522, 
			 "total_energy": -671.532670197, 
			 "HOMO_LUMO_gap": 0.15534, 
			 "cosmo_polarized_energy": -9.76, 
			 "cosmo_cavitation_energy": 31.54, 
			 "cosmo_dispersion_energy": -23.28, 
			 "cosmo_repulsion_energy": 1.82, 
			 "cosmo_total_nonelectrostatic_energy": 10.08, 
			 "SMD_solvation_energy": 5.18 
		},
		"coords": [
			{
				"x": 2.809609675,
				"y": -0.6413307828,
				"z": -3.9958818791,
				"element": "C" 
			},
			{
				"x": 2.2451426895,
				"y": -0.4629707596,
				"z": -2.6065648436,
				"element": "C" 
			},
			{
				"x": 1.656334279,
				"y": 0.7303255317,
				"z": -2.203354945,
				"element": "C" 
			},
			{
				"x": 1.1195608245,
				"y": 0.9312353334,
				"z": -0.9151334716,
				"element": "C" 
			},
			{
				"x": 0.7250205863,
				"y": 2.3127122801,
				"z": -0.5517005332,
				"element": "C" 
			},
			{
				"x": 0.7315526688,
				"y": 3.1655272625,
				"z": -1.6184528997,
				"element": "O" 
			},
			{
				"x": 0.4496207614,
				"y": 2.7362708514,
				"z": 0.5583641374,
				"element": "O" 
			},
			{
				"x": 1.1191281319,
				"y": -0.1511275996,
				"z": 0.0195164634,
				"element": "C" 
			},
			{
				"x": 1.7569075288,
				"y": -1.3448359757,
				"z": -0.3913980621,
				"element": "C" 
			},
			{
				"x": 2.3033286846,
				"y": -1.4933504859,
				"z": -1.6573771874,
				"element": "C" 
			},
			{
				"x": 0.5654514446,
				"y": -0.0711318723,
				"z": 1.2942662836,
				"element": "N" 
			},
			{
				"x": 0.8557585463,
				"y": -1.1002572082,
				"z": 2.2933173708,
				"element": "C" 
			},
			{
				"x": 0.1398368437,
				"y": -0.5976213301,
				"z": 3.56615928,
				"element": "C" 
			},
			{
				"x": -0.9117493427,
				"y": 0.4253528549,
				"z": 3.0553689023,
				"element": "C" 
			},
			{
				"x": -0.8292052439,
				"y": 0.3349807491,
				"z": 1.5258599619,
				"element": "C" 
			},
			{
				"x": 2.7633198292,
				"y": 0.2909687509,
				"z": -4.5654910506,
				"element": "H" 
			},
			{
				"x": 3.857011926,
				"y": -0.9631798998,
				"z": -3.9670030652,
				"element": "H" 
			},
			{
				"x": 2.2561155446,
				"y": -1.4016433122,
				"z": -4.5605131452,
				"element": "H" 
			},
			{
				"x": 1.6310127703,
				"y": 1.564583746,
				"z": -2.8943612652,
				"element": "H" 
			},
			{
				"x": 0.5077359317,
				"y": 4.0310018964,
				"z": -1.2402567608,
				"element": "H" 
			},
			{
				"x": 1.7975886434,
				"y": -2.1845053434,
				"z": 0.290897442,
				"element": "H" 
			},
			{
				"x": 2.7699285721,
				"y": -2.4407683106,
				"z": -1.9194234573,
				"element": "H" 
			},
			{
				"x": 1.9364108167,
				"y": -1.2132082523,
				"z": 2.4221828689,
				"element": "H" 
			},
			{
				"x": 0.4492359377,
				"y": -2.0846594771,
				"z": 1.9992459395,
				"element": "H" 
			},
			{
				"x": -0.3171352278,
				"y": -1.4307010783,
				"z": 4.1077500633,
				"element": "H" 
			},
			{
				"x": 0.8488546428,
				"y": -0.117772186,
				"z": 4.2458103706,
				"element": "H" 
			},
			{
				"x": -1.9205823084,
				"y": 0.2141783134,
				"z": 3.4208010455,
				"element": "H" 
			},
			{
				"x": -0.6440709524,
				"y": 1.4367220169,
				"z": 3.371897728,
				"element": "H" 
			},
			{
				"x": -1.0546458363,
				"y": 1.2803692403,
				"z": 1.0418351168,
				"element": "H" 
			},
			{
				"x": -1.5141783669,
				"y": -0.4405649529,
				"z": 1.1395395918,
				"element": "H" 
			}
		],
		 "valence_orbital": [ 
			{
				"type": "occ",
				"energy": -0.3044,
				"method": "rhf"
			},
			{
				"type": "occ",
				"energy": -0.27156,
				"method": "rhf"
			},
			{
				"type": "occ",
				"energy": -0.25909,
				"method": "rhf"
			},
			{
				"type": "occ",
				"energy": -0.25163,
				"method": "rhf"
			},
			{
				"type": "occ",
				"energy": -0.19436,
				"method": "rhf"
			},
			{
				"type": "unocc",
				"energy": -0.03902,
				"method": "rhf"
			},
			{
				"type": "unocc",
				"energy": 0.00961,
				"method": "rhf"
			},
			{
				"type": "unocc",
				"energy": 0.06069,
				"method": "rhf"
			},
			{
				"type": "unocc",
				"energy": 0.08786,
				"method": "rhf"
			},
			{
				"type": "unocc",
				"energy": 0.09303,
				"method": "rhf"
			}
		],
		"cosmo_sigma_profile": { 
			"-0.025": 0.0,
			"-0.024": 0.0,
			"-0.023": 0.0,
			"-0.022": 0.0,
			"-0.021": 0.0,
			"-0.02": 0.0,
			"-0.019": 0.0,
			"-0.018": 0.183283294938,
			"-0.017": 0.850173145003,
			"-0.016": 0.743241498637,
			"-0.015": 0.737948118168,
			"-0.014": 0.560764953187,
			"-0.013": 0.704518335681,
			"-0.012": 0.745481240627,
			"-0.011": 0.758241676731,
			"-0.01": 0.651462524706,
			"-0.009": 0.650953451365,
			"-0.008": 0.445391049894,
			"-0.007": 0.706515296774,
			"-0.006": 2.56834885355,
			"-0.005": 7.25720553722,
			"-0.004": 16.6398388881,
			"-0.003": 27.9769722473,
			"-0.002": 37.8193126821,
			"-0.001": 30.8043856609,
			"0.0": 28.7257501108,
			"0.001": 17.8790507812,
			"0.002": 11.1868580645,
			"0.003": 11.6222648607,
			"0.004": 12.7364905524,
			"0.005": 12.2552657893,
			"0.006": 3.03418320549,
			"0.007": 3.73794617578,
			"0.008": 3.1659679802,
			"0.009": 2.30379016621,
			"0.01": 1.65619904512,
			"0.011": 2.60536265562,
			"0.012": 3.44534777602,
			"0.013": 1.76829870411,
			"0.014": 0.7474035211,
			"0.015": 0.354912968368,
			"0.016": 0.00691456918173,
			"0.017": 0.0,
			"0.018": 0.0,
			"0.019": 0.0,
			"0.02": 0.0,
			"0.021": 0.0,
			"0.022": 0.0,
			"0.023": 0.0,
			"0.024": 0.0,
			"0.025": 0.0
		}
	}
}
