{
	 "smiles": "CS(=O)(=O)C1=CC=C(C=C1)S(Cl)(=O)=O", 
	 "Tm": 433.65, 
	 "num_atms": 21, 
	 "gaussian": { 
		 "optdone": 1, 
		 "sigma_profile": "yes", 
		 "theory": "DFT", 
		 "functional": "B3LYP", 
		 "basiset": "6-31G**", 
		 "properties": { 
			 "R2extent": 5738.6232, 
			 "electric_dipole_moment_norm": 4.22797942048, 
			 "electric_quadrupole_moment_norm": 23.4807237205, 
			 "total_energy": -1828.28733082, 
			 "HOMO_LUMO_gap": 0.19798, 
			 "cosmo_polarized_energy": -18.84, 
			 "cosmo_cavitation_energy": 30.62, 
			 "cosmo_dispersion_energy": -23.03, 
			 "cosmo_repulsion_energy": 1.72, 
			 "cosmo_total_nonelectrostatic_energy": 9.32, 
			 "SMD_solvation_energy": 3.73 
		},
		"coords": [
			{
				"x": 2.2284843176,
				"y": -1.6128483404,
				"z": -2.8478089873,
				"element": "C" 
			},
			{
				"x": 0.612214399,
				"y": -0.9031055938,
				"z": -3.2377614303,
				"element": "S" 
			},
			{
				"x": 0.7640046097,
				"y": -0.073446559,
				"z": -4.4409370452,
				"element": "O" 
			},
			{
				"x": -0.382363934,
				"y": -1.9821551435,
				"z": -3.1637174564,
				"element": "O" 
			},
			{
				"x": 0.3005881232,
				"y": 0.2145498009,
				"z": -1.8471144836,
				"element": "C" 
			},
			{
				"x": -0.3740679076,
				"y": -0.2725618163,
				"z": -0.7260822673,
				"element": "C" 
			},
			{
				"x": -0.6162539368,
				"y": 0.5845625922,
				"z": 0.3465242549,
				"element": "C" 
			},
			{
				"x": -0.1762087317,
				"y": 1.905301997,
				"z": 0.2520685075,
				"element": "C" 
			},
			{
				"x": 0.4782626264,
				"y": 2.4076193162,
				"z": -0.8732117966,
				"element": "C" 
			},
			{
				"x": 0.7165382404,
				"y": 1.5439268932,
				"z": -1.9414309876,
				"element": "C" 
			},
			{
				"x": -0.4981624791,
				"y": 3.0159685772,
				"z": 1.6234056487,
				"element": "S" 
			},
			{
				"x": 1.2655545622,
				"y": 2.7334028698,
				"z": 2.7843300026,
				"element": "Cl" 
			},
			{
				"x": -0.4593705668,
				"y": 4.3909473996,
				"z": 1.1447349126,
				"element": "O" 
			},
			{
				"x": -1.6008258244,
				"y": 2.4899615568,
				"z": 2.4162801736,
				"element": "O" 
			},
			{
				"x": 2.9707362201,
				"y": -0.814961105,
				"z": -2.8001563593,
				"element": "H" 
			},
			{
				"x": 2.4604673523,
				"y": -2.2989814107,
				"z": -3.6651536692,
				"element": "H" 
			},
			{
				"x": 2.1658971228,
				"y": -2.1552265811,
				"z": -1.9034909034,
				"element": "H" 
			},
			{
				"x": -0.7225243755,
				"y": -1.2996402217,
				"z": -0.7088832591,
				"element": "H" 
			},
			{
				"x": -1.1465204464,
				"y": 0.245390747,
				"z": 1.229210198,
				"element": "H" 
			},
			{
				"x": 0.7768569243,
				"y": 3.4490225972,
				"z": -0.9142442133,
				"element": "H" 
			},
			{
				"x": 1.1967937044,
				"y": 1.8970724242,
				"z": -2.8476608395,
				"element": "H" 
			}
		],
		 "valence_orbital": [ 
			{
				"type": "occ",
				"energy": -0.32584,
				"method": "rhf"
			},
			{
				"type": "occ",
				"energy": -0.31631,
				"method": "rhf"
			},
			{
				"type": "occ",
				"energy": -0.31574,
				"method": "rhf"
			},
			{
				"type": "occ",
				"energy": -0.30801,
				"method": "rhf"
			},
			{
				"type": "occ",
				"energy": -0.30528,
				"method": "rhf"
			},
			{
				"type": "unocc",
				"energy": -0.1073,
				"method": "rhf"
			},
			{
				"type": "unocc",
				"energy": -0.07017,
				"method": "rhf"
			},
			{
				"type": "unocc",
				"energy": -0.05862,
				"method": "rhf"
			},
			{
				"type": "unocc",
				"energy": 0.02718,
				"method": "rhf"
			},
			{
				"type": "unocc",
				"energy": 0.04316,
				"method": "rhf"
			}
		],
		"cosmo_sigma_profile": { 
			"-0.025": 0.0,
			"-0.024": 0.0,
			"-0.023": 0.0,
			"-0.022": 0.0,
			"-0.021": 0.0,
			"-0.02": 0.0,
			"-0.019": 0.0,
			"-0.018": 0.0,
			"-0.017": 0.0,
			"-0.016": 0.0,
			"-0.015": 0.0295382854349,
			"-0.014": 0.056676110042,
			"-0.013": 0.365422826365,
			"-0.012": 0.269595621506,
			"-0.011": 0.138007403177,
			"-0.01": 1.13519687592,
			"-0.009": 10.3942329738,
			"-0.008": 14.8368916172,
			"-0.007": 12.9451253766,
			"-0.006": 12.4700031584,
			"-0.005": 12.2811670982,
			"-0.004": 13.4786085833,
			"-0.003": 12.6897026827,
			"-0.002": 16.9892488461,
			"-0.001": 21.8050893093,
			"0.0": 13.825470143,
			"0.001": 9.37609754751,
			"0.002": 12.921202132,
			"0.003": 16.2973676934,
			"0.004": 7.1692850908,
			"0.005": 5.54390315513,
			"0.006": 5.94585173534,
			"0.007": 10.2058976529,
			"0.008": 11.1901675594,
			"0.009": 6.2108141019,
			"0.01": 5.91024722948,
			"0.011": 9.67666226412,
			"0.012": 4.37822602899,
			"0.013": 0.0,
			"0.014": 0.0,
			"0.015": 0.0,
			"0.016": 0.0,
			"0.017": 0.0,
			"0.018": 0.0,
			"0.019": 0.0,
			"0.02": 0.0,
			"0.021": 0.0,
			"0.022": 0.0,
			"0.023": 0.0,
			"0.024": 0.0,
			"0.025": 0.0
		}
	}
}
