{
	 "smiles": "CC(OC(C)=O)[C@]1(C)CCC2=C1CCC1C2CCC2(C)C[C@@H](CCC12C)OC(C)=O", 
	 "Tm": 391.15, 
	 "num_atms": 70, 
	 "gaussian": { 
		 "optdone": 1, 
		 "sigma_profile": "yes", 
		 "theory": "DFT", 
		 "functional": "B3LYP", 
		 "basiset": "6-31G**", 
		 "properties": { 
			 "R2extent": 17727.1382, 
			 "electric_dipole_moment_norm": 1.24924913448, 
			 "electric_quadrupole_moment_norm": 41.0135461299, 
			 "total_energy": -1315.82411671, 
			 "HOMO_LUMO_gap": 0.2353, 
			 "cosmo_polarized_energy": -12.58, 
			 "cosmo_cavitation_energy": 61.07, 
			 "cosmo_dispersion_energy": -40.25, 
			 "cosmo_repulsion_energy": 2.97, 
			 "cosmo_total_nonelectrostatic_energy": 23.79, 
			 "SMD_solvation_energy": 11.08 
		},
		"coords": [
			{
				"x": -4.3675650752,
				"y": 0.8822125534,
				"z": -0.3263268863,
				"element": "C" 
			},
			{
				"x": -4.0487972456,
				"y": 1.2036862688,
				"z": 1.1303448011,
				"element": "C" 
			},
			{
				"x": -3.9355346081,
				"y": -0.0573619284,
				"z": 1.8588982329,
				"element": "O" 
			},
			{
				"x": -5.074626056,
				"y": -0.5985549228,
				"z": 2.3493482775,
				"element": "C" 
			},
			{
				"x": -4.7820385599,
				"y": -1.8941937957,
				"z": 3.0712945912,
				"element": "C" 
			},
			{
				"x": -6.1744708883,
				"y": -0.1045352279,
				"z": 2.2223448159,
				"element": "O" 
			},
			{
				"x": -2.7421739691,
				"y": 2.0056585837,
				"z": 1.3881316837,
				"element": "C" 
			},
			{
				"x": -2.5948681581,
				"y": 2.2354816887,
				"z": 2.9056827631,
				"element": "C" 
			},
			{
				"x": -2.7965891447,
				"y": 3.3736642621,
				"z": 0.6301925744,
				"element": "C" 
			},
			{
				"x": -1.8970009034,
				"y": 3.2324562249,
				"z": -0.6206142808,
				"element": "C" 
			},
			{
				"x": -1.0672060046,
				"y": 2.0031262298,
				"z": -0.3194000343,
				"element": "C" 
			},
			{
				"x": -1.5078621181,
				"y": 1.348568635,
				"z": 0.7669264671,
				"element": "C" 
			},
			{
				"x": -0.8412298452,
				"y": 0.1090132255,
				"z": 1.3010012605,
				"element": "C" 
			},
			{
				"x": 0.5583737793,
				"y": -0.0835257995,
				"z": 0.6912734523,
				"element": "C" 
			},
			{
				"x": 0.5321222381,
				"y": 0.1209567086,
				"z": -0.8378766182,
				"element": "C" 
			},
			{
				"x": 0.1230949946,
				"y": 1.5813536434,
				"z": -1.1499106052,
				"element": "C" 
			},
			{
				"x": -0.0906152559,
				"y": 1.7626768276,
				"z": -2.6613640022,
				"element": "C" 
			},
			{
				"x": 1.1688057219,
				"y": 1.3551757341,
				"z": -3.4329848606,
				"element": "C" 
			},
			{
				"x": 1.6524487419,
				"y": -0.0971192586,
				"z": -3.1527083778,
				"element": "C" 
			},
			{
				"x": 0.6137004693,
				"y": -1.0593003188,
				"z": -3.7808853767,
				"element": "C" 
			},
			{
				"x": 2.9848492903,
				"y": -0.346803404,
				"z": -3.934641751,
				"element": "C" 
			},
			{
				"x": 4.3076684494,
				"y": 0.0000596691,
				"z": -3.2314920286,
				"element": "C" 
			},
			{
				"x": 4.1185012617,
				"y": 0.946491085,
				"z": -2.0554508302,
				"element": "C" 
			},
			{
				"x": 3.078958599,
				"y": 0.4484477213,
				"z": -1.0335483659,
				"element": "C" 
			},
			{
				"x": 1.8318160512,
				"y": -0.3344092165,
				"z": -1.5936190087,
				"element": "C" 
			},
			{
				"x": 2.0478745267,
				"y": -1.8458278959,
				"z": -1.3253200077,
				"element": "C" 
			},
			{
				"x": 4.8889243375,
				"y": -1.2596896834,
				"z": -2.7615201232,
				"element": "O" 
			},
			{
				"x": 6.2343957238,
				"y": -1.3066804944,
				"z": -2.6294048633,
				"element": "C" 
			},
			{
				"x": 6.6771366227,
				"y": -2.6707459493,
				"z": -2.150946659,
				"element": "C" 
			},
			{
				"x": 6.9755838729,
				"y": -0.3773103781,
				"z": -2.869500198,
				"element": "O" 
			},
			{
				"x": -4.4954576021,
				"y": 1.798590145,
				"z": -0.9090008959,
				"element": "H" 
			},
			{
				"x": -5.3033625301,
				"y": 0.3205528106,
				"z": -0.3801392061,
				"element": "H" 
			},
			{
				"x": -3.5678795967,
				"y": 0.292658636,
				"z": -0.7821078525,
				"element": "H" 
			},
			{
				"x": -4.8869929219,
				"y": 1.7537231453,
				"z": 1.5701394373,
				"element": "H" 
			},
			{
				"x": -4.3176953377,
				"y": -2.6087973262,
				"z": 2.3851769681,
				"element": "H" 
			},
			{
				"x": -4.074585451,
				"y": -1.7199377584,
				"z": 3.8873617557,
				"element": "H" 
			},
			{
				"x": -5.710115771,
				"y": -2.3073140882,
				"z": 3.4651435394,
				"element": "H" 
			},
			{
				"x": -2.5678902103,
				"y": 1.2941026719,
				"z": 3.4597928724,
				"element": "H" 
			},
			{
				"x": -3.4363645307,
				"y": 2.8246451822,
				"z": 3.2889527611,
				"element": "H" 
			},
			{
				"x": -1.6733754494,
				"y": 2.7863585988,
				"z": 3.119974938,
				"element": "H" 
			},
			{
				"x": -2.3887647698,
				"y": 4.1492935944,
				"z": 1.2861581447,
				"element": "H" 
			},
			{
				"x": -3.8200742437,
				"y": 3.6786808913,
				"z": 0.3880546148,
				"element": "H" 
			},
			{
				"x": -1.2778524619,
				"y": 4.1250049064,
				"z": -0.78302994,
				"element": "H" 
			},
			{
				"x": -2.4820546975,
				"y": 3.1018244906,
				"z": -1.5415915912,
				"element": "H" 
			},
			{
				"x": -0.764766677,
				"y": 0.1594399804,
				"z": 2.3946364818,
				"element": "H" 
			},
			{
				"x": -1.4698812169,
				"y": -0.7692996296,
				"z": 1.0975584166,
				"element": "H" 
			},
			{
				"x": 0.9253863754,
				"y": -1.0801511632,
				"z": 0.9519590152,
				"element": "H" 
			},
			{
				"x": 1.2500752501,
				"y": 0.6361619901,
				"z": 1.1480027425,
				"element": "H" 
			},
			{
				"x": -0.2833885809,
				"y": -0.5142392393,
				"z": -1.2144521566,
				"element": "H" 
			},
			{
				"x": 0.9597311075,
				"y": 2.2466164752,
				"z": -0.873465246,
				"element": "H" 
			},
			{
				"x": -0.3332270227,
				"y": 2.8070668572,
				"z": -2.8904144767,
				"element": "H" 
			},
			{
				"x": -0.9550856563,
				"y": 1.1689524998,
				"z": -2.9848493506,
				"element": "H" 
			},
			{
				"x": 0.9937640111,
				"y": 1.4576561346,
				"z": -4.5119762319,
				"element": "H" 
			},
			{
				"x": 1.9615007206,
				"y": 2.0713453618,
				"z": -3.1902282728,
				"element": "H" 
			},
			{
				"x": -0.3791110934,
				"y": -0.974811599,
				"z": -3.3325187583,
				"element": "H" 
			},
			{
				"x": 0.5071781207,
				"y": -0.8333228175,
				"z": -4.8483667896,
				"element": "H" 
			},
			{
				"x": 0.9261945614,
				"y": -2.1032800954,
				"z": -3.702059007,
				"element": "H" 
			},
			{
				"x": 2.9297649465,
				"y": 0.225441072,
				"z": -4.868699194,
				"element": "H" 
			},
			{
				"x": 3.0496037206,
				"y": -1.3967866654,
				"z": -4.2361094474,
				"element": "H" 
			},
			{
				"x": 5.025538781,
				"y": 0.4241002115,
				"z": -3.9372120512,
				"element": "H" 
			},
			{
				"x": 5.0832449156,
				"y": 1.1105443541,
				"z": -1.5659057427,
				"element": "H" 
			},
			{
				"x": 3.8240857008,
				"y": 1.9180766421,
				"z": -2.4674191668,
				"element": "H" 
			},
			{
				"x": 3.5887804058,
				"y": -0.2030258982,
				"z": -0.3168407388,
				"element": "H" 
			},
			{
				"x": 2.7519980072,
				"y": 1.3153120357,
				"z": -0.4514076584,
				"element": "H" 
			},
			{
				"x": 2.3329889896,
				"y": -2.0197170624,
				"z": -0.2841634548,
				"element": "H" 
			},
			{
				"x": 1.140326402,
				"y": -2.4271677639,
				"z": -1.5141918916,
				"element": "H" 
			},
			{
				"x": 2.8519580175,
				"y": -2.2506986394,
				"z": -1.9432380198,
				"element": "H" 
			},
			{
				"x": 6.2228777651,
				"y": -2.8936117489,
				"z": -1.1808601051,
				"element": "H" 
			},
			{
				"x": 7.7631420669,
				"y": -2.68968294,
				"z": -2.0652101979,
				"element": "H" 
			},
			{
				"x": 6.3435091072,
				"y": -3.4420750392,
				"z": -2.8512782856,
				"element": "H" 
			}
		],
		 "valence_orbital": [ 
			{
				"type": "occ",
				"energy": -0.2762,
				"method": "rhf"
			},
			{
				"type": "occ",
				"energy": -0.2744,
				"method": "rhf"
			},
			{
				"type": "occ",
				"energy": -0.26601,
				"method": "rhf"
			},
			{
				"type": "occ",
				"energy": -0.26537,
				"method": "rhf"
			},
			{
				"type": "occ",
				"energy": -0.21997,
				"method": "rhf"
			},
			{
				"type": "unocc",
				"energy": 0.01533,
				"method": "rhf"
			},
			{
				"type": "unocc",
				"energy": 0.01614,
				"method": "rhf"
			},
			{
				"type": "unocc",
				"energy": 0.02844,
				"method": "rhf"
			},
			{
				"type": "unocc",
				"energy": 0.0733,
				"method": "rhf"
			},
			{
				"type": "unocc",
				"energy": 0.07726,
				"method": "rhf"
			}
		],
		"cosmo_sigma_profile": { 
			"-0.025": 0.0,
			"-0.024": 0.0,
			"-0.023": 0.0,
			"-0.022": 0.0,
			"-0.021": 0.0,
			"-0.02": 0.0,
			"-0.019": 0.0,
			"-0.018": 0.0,
			"-0.017": 0.0,
			"-0.016": 0.0,
			"-0.015": 0.0,
			"-0.014": 0.0,
			"-0.013": 0.0,
			"-0.012": 0.0,
			"-0.011": 0.0,
			"-0.01": 0.0,
			"-0.009": 0.0,
			"-0.008": 0.0,
			"-0.007": 0.495663197429,
			"-0.006": 8.05654165752,
			"-0.005": 11.0279048453,
			"-0.004": 24.1968773905,
			"-0.003": 44.8030888986,
			"-0.002": 79.0984940257,
			"-0.001": 80.0065635755,
			"0.0": 73.4773963449,
			"0.001": 55.8233284331,
			"0.002": 28.4052100746,
			"0.003": 12.4208778903,
			"0.004": 9.16539440768,
			"0.005": 8.34107397627,
			"0.006": 4.90442373424,
			"0.007": 2.94183076605,
			"0.008": 2.4030752394,
			"0.009": 3.75274714013,
			"0.01": 2.85439215495,
			"0.011": 4.76157802431,
			"0.012": 8.70310116217,
			"0.013": 4.6154710089,
			"0.014": 0.200488193466,
			"0.015": 0.0,
			"0.016": 0.0,
			"0.017": 0.0,
			"0.018": 0.0,
			"0.019": 0.0,
			"0.02": 0.0,
			"0.021": 0.0,
			"0.022": 0.0,
			"0.023": 0.0,
			"0.024": 0.0,
			"0.025": 0.0
		}
	}
}
