{
	 "smiles": "ClC1=CC(NC2=NC3=C(S2)C=CC=C3)=CC=C1", 
	 "Tm": 447.15, 
	 "num_atms": 26, 
	 "gaussian": { 
		 "optdone": 1, 
		 "sigma_profile": "yes", 
		 "theory": "DFT", 
		 "functional": "B3LYP", 
		 "basiset": "6-31G**", 
		 "properties": { 
			 "R2extent": 7093.1001, 
			 "electric_dipole_moment_norm": 1.78299568704, 
			 "electric_quadrupole_moment_norm": 13.2531902427, 
			 "total_energy": -1468.70342007, 
			 "HOMO_LUMO_gap": 0.17196, 
			 "cosmo_polarized_energy": -10.15, 
			 "cosmo_cavitation_energy": 33.84, 
			 "cosmo_dispersion_energy": -25.69, 
			 "cosmo_repulsion_energy": 1.92, 
			 "cosmo_total_nonelectrostatic_energy": 10.07, 
			 "SMD_solvation_energy": 3.15 
		},
		"coords": [
			{
				"x": 1.1430567658,
				"y": -3.5940295644,
				"z": 2.3731672419,
				"element": "Cl" 
			},
			{
				"x": 1.8347590898,
				"y": -2.762407608,
				"z": 0.9872525855,
				"element": "C" 
			},
			{
				"x": 1.308121124,
				"y": -1.5237692898,
				"z": 0.6249700525,
				"element": "C" 
			},
			{
				"x": 1.8557756354,
				"y": -0.8471954252,
				"z": -0.4757495267,
				"element": "C" 
			},
			{
				"x": 1.3861945436,
				"y": 0.3970501477,
				"z": -0.9155323367,
				"element": "N" 
			},
			{
				"x": 0.7302256851,
				"y": 1.4112194504,
				"z": -0.2635983898,
				"element": "C" 
			},
			{
				"x": 0.2908046187,
				"y": 2.4419413528,
				"z": -0.9225252158,
				"element": "N" 
			},
			{
				"x": -0.2644863699,
				"y": 3.3768099734,
				"z": -0.0661237859,
				"element": "C" 
			},
			{
				"x": -0.2510067555,
				"y": 3.0360089327,
				"z": 1.3074014837,
				"element": "C" 
			},
			{
				"x": 0.5157237429,
				"y": 1.4626703465,
				"z": 1.5096788171,
				"element": "S" 
			},
			{
				"x": -0.7908068151,
				"y": 3.8741776205,
				"z": 2.2813586007,
				"element": "C" 
			},
			{
				"x": -1.3479604007,
				"y": 5.084715082,
				"z": 1.8684477676,
				"element": "C" 
			},
			{
				"x": -1.364893352,
				"y": 5.4405616441,
				"z": 0.5108985025,
				"element": "C" 
			},
			{
				"x": -0.8292443027,
				"y": 4.5984570208,
				"z": -0.4589636106,
				"element": "C" 
			},
			{
				"x": 2.8963666395,
				"y": -1.4486927064,
				"z": -1.2057980378,
				"element": "C" 
			},
			{
				"x": 3.3863376318,
				"y": -2.6943448852,
				"z": -0.8308812953,
				"element": "C" 
			},
			{
				"x": 2.8698497112,
				"y": -3.3672719408,
				"z": 0.2787758927,
				"element": "C" 
			},
			{
				"x": 0.4681832004,
				"y": -1.1201039265,
				"z": 1.1743613648,
				"element": "H" 
			},
			{
				"x": 1.5853982092,
				"y": 0.6421908253,
				"z": -1.8767891823,
				"element": "H" 
			},
			{
				"x": -0.7774005825,
				"y": 3.5984443459,
				"z": 3.3310694825,
				"element": "H" 
			},
			{
				"x": -1.7724508871,
				"y": 5.7563947073,
				"z": 2.6083060116,
				"element": "H" 
			},
			{
				"x": -1.8039891937,
				"y": 6.3879926652,
				"z": 0.2126537563,
				"element": "H" 
			},
			{
				"x": -0.8389109356,
				"y": 4.86377895,
				"z": -1.5109764803,
				"element": "H" 
			},
			{
				"x": 3.3222938404,
				"y": -0.9273759023,
				"z": -2.0584362068,
				"element": "H" 
			},
			{
				"x": 4.1912473009,
				"y": -3.1456615778,
				"z": -1.403012224,
				"element": "H" 
			},
			{
				"x": 3.255311856,
				"y": -4.3326602383,
				"z": 0.5840447326,
				"element": "H" 
			}
		],
		 "valence_orbital": [ 
			{
				"type": "occ",
				"energy": -0.28204,
				"method": "rhf"
			},
			{
				"type": "occ",
				"energy": -0.26211,
				"method": "rhf"
			},
			{
				"type": "occ",
				"energy": -0.2525,
				"method": "rhf"
			},
			{
				"type": "occ",
				"energy": -0.23453,
				"method": "rhf"
			},
			{
				"type": "occ",
				"energy": -0.20722,
				"method": "rhf"
			},
			{
				"type": "unocc",
				"energy": -0.03526,
				"method": "rhf"
			},
			{
				"type": "unocc",
				"energy": -0.02461,
				"method": "rhf"
			},
			{
				"type": "unocc",
				"energy": -0.00442,
				"method": "rhf"
			},
			{
				"type": "unocc",
				"energy": 0.00248,
				"method": "rhf"
			},
			{
				"type": "unocc",
				"energy": 0.01042,
				"method": "rhf"
			}
		],
		"cosmo_sigma_profile": { 
			"-0.025": 0.0,
			"-0.024": 0.0,
			"-0.023": 0.0,
			"-0.022": 0.0,
			"-0.021": 0.0,
			"-0.02": 0.0,
			"-0.019": 0.0,
			"-0.018": 0.0,
			"-0.017": 0.0,
			"-0.016": 0.279649104111,
			"-0.015": 0.905533171553,
			"-0.014": 0.930861436192,
			"-0.013": 1.67829399837,
			"-0.012": 0.751019560363,
			"-0.011": 1.21870665754,
			"-0.01": 1.01009788533,
			"-0.009": 0.833866050242,
			"-0.008": 1.75336998067,
			"-0.007": 7.93764257844,
			"-0.006": 13.6010768486,
			"-0.005": 17.2969989403,
			"-0.004": 16.1005541704,
			"-0.003": 14.6564691563,
			"-0.002": 15.7468468548,
			"-0.001": 16.5805762777,
			"0.0": 22.4110102916,
			"0.001": 25.8499501983,
			"0.002": 29.8281773073,
			"0.003": 31.127092479,
			"0.004": 27.5779583375,
			"0.005": 16.4861697023,
			"0.006": 4.19387279167,
			"0.007": 1.86106107453,
			"0.008": 1.14230049971,
			"0.009": 0.722376441016,
			"0.01": 0.961901570667,
			"0.011": 0.981075817484,
			"0.012": 1.03117227978,
			"0.013": 1.00824305222,
			"0.014": 0.672062091358,
			"0.015": 0.0721962947128,
			"0.016": 0.0,
			"0.017": 0.0,
			"0.018": 0.0,
			"0.019": 0.0,
			"0.02": 0.0,
			"0.021": 0.0,
			"0.022": 0.0,
			"0.023": 0.0,
			"0.024": 0.0,
			"0.025": 0.0
		}
	}
}
