{
	 "smiles": "NC(=O)C1=CC=CC=C1C#N", 
	 "Tm": 445.15, 
	 "num_atms": 17, 
	 "gaussian": { 
		 "optdone": 1, 
		 "sigma_profile": "yes", 
		 "theory": "DFT", 
		 "functional": "B3LYP", 
		 "basiset": "6-31G**", 
		 "properties": { 
			 "R2extent": 1747.3839, 
			 "electric_dipole_moment_norm": 7.08894342762, 
			 "electric_quadrupole_moment_norm": 19.3397393031, 
			 "total_energy": -493.188830613, 
			 "HOMO_LUMO_gap": 0.1947, 
			 "cosmo_polarized_energy": -20.46, 
			 "cosmo_cavitation_energy": 22.76, 
			 "cosmo_dispersion_energy": -16.19, 
			 "cosmo_repulsion_energy": 1.32, 
			 "cosmo_total_nonelectrostatic_energy": 7.89, 
			 "SMD_solvation_energy": 5.94 
		},
		"coords": [
			{
				"x": -0.5748029895,
				"y": -1.5248527214,
				"z": 2.5750347772,
				"element": "N" 
			},
			{
				"x": 0.3806122144,
				"y": -0.9471673536,
				"z": 1.7727826508,
				"element": "C" 
			},
			{
				"x": 1.5148079674,
				"y": -0.7180795799,
				"z": 2.1620881403,
				"element": "O" 
			},
			{
				"x": -0.0850806266,
				"y": -0.5645945836,
				"z": 0.3923413174,
				"element": "C" 
			},
			{
				"x": -1.3978495537,
				"y": -0.1355152795,
				"z": 0.1668344572,
				"element": "C" 
			},
			{
				"x": -1.8171015877,
				"y": 0.2671489638,
				"z": -1.1013807954,
				"element": "C" 
			},
			{
				"x": -0.9225769096,
				"y": 0.2379063174,
				"z": -2.1714134171,
				"element": "C" 
			},
			{
				"x": 0.3885002297,
				"y": -0.1859689162,
				"z": -1.9682772331,
				"element": "C" 
			},
			{
				"x": 0.8210777861,
				"y": -0.5800221851,
				"z": -0.6912320211,
				"element": "C" 
			},
			{
				"x": 2.1817394446,
				"y": -1.0257602376,
				"z": -0.566081356,
				"element": "C" 
			},
			{
				"x": 3.2844305774,
				"y": -1.3933349782,
				"z": -0.5968568306,
				"element": "N" 
			},
			{
				"x": -1.3646839255,
				"y": -1.999513922,
				"z": 2.1654344808,
				"element": "H" 
			},
			{
				"x": -0.2408003471,
				"y": -1.8720035719,
				"z": 3.4632483078,
				"element": "H" 
			},
			{
				"x": -2.0877588993,
				"y": -0.0854520093,
				"z": 1.0032512078,
				"element": "H" 
			},
			{
				"x": -2.8369552387,
				"y": 0.6086117982,
				"z": -1.2500697637,
				"element": "H" 
			},
			{
				"x": -1.2412183936,
				"y": 0.5472500383,
				"z": -3.1619021568,
				"element": "H" 
			},
			{
				"x": 1.0921602515,
				"y": -0.2168517794,
				"z": -2.7932017653,
				"element": "H" 
			}
		],
		 "valence_orbital": [ 
			{
				"type": "occ",
				"energy": -0.32626,
				"method": "rhf"
			},
			{
				"type": "occ",
				"energy": -0.28412,
				"method": "rhf"
			},
			{
				"type": "occ",
				"energy": -0.28332,
				"method": "rhf"
			},
			{
				"type": "occ",
				"energy": -0.27075,
				"method": "rhf"
			},
			{
				"type": "occ",
				"energy": -0.26002,
				"method": "rhf"
			},
			{
				"type": "unocc",
				"energy": -0.06532,
				"method": "rhf"
			},
			{
				"type": "unocc",
				"energy": -0.0438,
				"method": "rhf"
			},
			{
				"type": "unocc",
				"energy": 0.03598,
				"method": "rhf"
			},
			{
				"type": "unocc",
				"energy": 0.04444,
				"method": "rhf"
			},
			{
				"type": "unocc",
				"energy": 0.06655,
				"method": "rhf"
			}
		],
		"cosmo_sigma_profile": { 
			"-0.025": 0.0,
			"-0.024": 0.0,
			"-0.023": 0.0,
			"-0.022": 0.0,
			"-0.021": 0.0,
			"-0.02": 0.0,
			"-0.019": 0.0,
			"-0.018": 0.0,
			"-0.017": 0.0,
			"-0.016": 0.0,
			"-0.015": 0.514375545815,
			"-0.014": 2.23718872997,
			"-0.013": 2.65305097738,
			"-0.012": 1.85504660476,
			"-0.011": 2.73984157316,
			"-0.01": 2.94679377639,
			"-0.009": 2.1884562312,
			"-0.008": 6.18078591726,
			"-0.007": 10.8299457906,
			"-0.006": 12.2754236862,
			"-0.005": 8.8111374902,
			"-0.004": 8.26369786989,
			"-0.003": 8.27458452747,
			"-0.002": 11.4416124708,
			"-0.001": 10.0856590789,
			"0.0": 12.4299612208,
			"0.001": 14.6612178312,
			"0.002": 10.9522109684,
			"0.003": 4.20511458787,
			"0.004": 4.07389854399,
			"0.005": 3.49318014542,
			"0.006": 3.42490768962,
			"0.007": 4.24488492291,
			"0.008": 3.93244182962,
			"0.009": 5.86048335304,
			"0.01": 5.61209778014,
			"0.011": 5.36387132673,
			"0.012": 6.60646472364,
			"0.013": 6.56307396823,
			"0.014": 0.685097949423,
			"0.015": 0.0,
			"0.016": 0.0,
			"0.017": 0.0,
			"0.018": 0.0,
			"0.019": 0.0,
			"0.02": 0.0,
			"0.021": 0.0,
			"0.022": 0.0,
			"0.023": 0.0,
			"0.024": 0.0,
			"0.025": 0.0
		}
	}
}
