{
	 "smiles": "ClCCCl", 
	 "Tm": 237.65, 
	 "num_atms": 8, 
	 "gaussian": { 
		 "optdone": 1, 
		 "sigma_profile": "yes", 
		 "theory": "DFT", 
		 "functional": "B3LYP", 
		 "basiset": "6-31G**", 
		 "properties": { 
			 "R2extent": 1644.1433, 
			 "electric_dipole_moment_norm": 0.0, 
			 "electric_quadrupole_moment_norm": 6.72271111755, 
			 "total_energy": -999.015936024, 
			 "HOMO_LUMO_gap": 0.30076, 
			 "cosmo_polarized_energy": -4.78, 
			 "cosmo_cavitation_energy": 14.79, 
			 "cosmo_dispersion_energy": -11.53, 
			 "cosmo_repulsion_energy": 1.06, 
			 "cosmo_total_nonelectrostatic_energy": 4.33, 
			 "SMD_solvation_energy": 2.02 
		},
		"coords": [
			{
				"x": 2.3883330679,
				"y": 3.3420245257,
				"z": 1.0173065021,
				"element": "Cl" 
			},
			{
				"x": 2.3541684181,
				"y": 1.528265611,
				"z": 1.0325216388,
				"element": "C" 
			},
			{
				"x": 0.9570843156,
				"y": 1.0514846182,
				"z": 0.6749803679,
				"element": "C" 
			},
			{
				"x": 0.9229114927,
				"y": -0.7622763308,
				"z": 0.6901889729,
				"element": "Cl" 
			},
			{
				"x": 2.6431983776,
				"y": 1.2068694585,
				"z": 2.0329663096,
				"element": "H" 
			},
			{
				"x": 3.0923550414,
				"y": 1.183938678,
				"z": 0.3084721489,
				"element": "H" 
			},
			{
				"x": 0.2188936796,
				"y": 1.395808861,
				"z": 1.3990277857,
				"element": "H" 
			},
			{
				"x": 0.6680556071,
				"y": 1.3728845784,
				"z": -0.3254637259,
				"element": "H" 
			}
		],
		 "valence_orbital": [ 
			{
				"type": "occ",
				"energy": -0.39658,
				"method": "rhf"
			},
			{
				"type": "occ",
				"energy": -0.32106,
				"method": "rhf"
			},
			{
				"type": "occ",
				"energy": -0.31161,
				"method": "rhf"
			},
			{
				"type": "occ",
				"energy": -0.30807,
				"method": "rhf"
			},
			{
				"type": "occ",
				"energy": -0.30675,
				"method": "rhf"
			},
			{
				"type": "unocc",
				"energy": -0.00599,
				"method": "rhf"
			},
			{
				"type": "unocc",
				"energy": 0.02923,
				"method": "rhf"
			},
			{
				"type": "unocc",
				"energy": 0.10676,
				"method": "rhf"
			},
			{
				"type": "unocc",
				"energy": 0.11465,
				"method": "rhf"
			},
			{
				"type": "unocc",
				"energy": 0.12157,
				"method": "rhf"
			}
		],
		"cosmo_sigma_profile": { 
			"-0.025": 0.0,
			"-0.024": 0.0,
			"-0.023": 0.0,
			"-0.022": 0.0,
			"-0.021": 0.0,
			"-0.02": 0.0,
			"-0.019": 0.0,
			"-0.018": 0.0,
			"-0.017": 0.0,
			"-0.016": 0.0,
			"-0.015": 0.0,
			"-0.014": 0.0,
			"-0.013": 0.0,
			"-0.012": 0.0,
			"-0.011": 0.0,
			"-0.01": 0.0,
			"-0.009": 0.0176028489362,
			"-0.008": 5.83192408343,
			"-0.007": 9.98731679836,
			"-0.006": 7.400212511,
			"-0.005": 8.15668317837,
			"-0.004": 6.70507458225,
			"-0.003": 5.18628000005,
			"-0.002": 3.3996518734,
			"-0.001": 6.38427431967,
			"0.0": 6.63475360765,
			"0.001": 5.16000840211,
			"0.002": 8.78702409338,
			"0.003": 6.55301808598,
			"0.004": 9.54496317553,
			"0.005": 15.7563619954,
			"0.006": 15.0957057318,
			"0.007": 0.756966539641,
			"0.008": 0.0,
			"0.009": 0.0,
			"0.01": 0.0,
			"0.011": 0.0,
			"0.012": 0.0,
			"0.013": 0.0,
			"0.014": 0.0,
			"0.015": 0.0,
			"0.016": 0.0,
			"0.017": 0.0,
			"0.018": 0.0,
			"0.019": 0.0,
			"0.02": 0.0,
			"0.021": 0.0,
			"0.022": 0.0,
			"0.023": 0.0,
			"0.024": 0.0,
			"0.025": 0.0
		}
	}
}
