{
	 "smiles": "CC(C(O)=O)C1=CC=C(C=C1)S(C)(=O)=O", 
	 "Tm": 365.15, 
	 "num_atms": 27, 
	 "gaussian": { 
		 "optdone": 1, 
		 "sigma_profile": "yes", 
		 "theory": "DFT", 
		 "functional": "B3LYP", 
		 "basiset": "6-31G**", 
		 "properties": { 
			 "R2extent": 4694.8382, 
			 "electric_dipole_moment_norm": 2.94219667765, 
			 "electric_quadrupole_moment_norm": 38.0294590647, 
			 "total_energy": -1087.32904555, 
			 "HOMO_LUMO_gap": 0.21372, 
			 "cosmo_polarized_energy": -24.63, 
			 "cosmo_cavitation_energy": 32.51, 
			 "cosmo_dispersion_energy": -23.17, 
			 "cosmo_repulsion_energy": 1.78, 
			 "cosmo_total_nonelectrostatic_energy": 11.12, 
			 "SMD_solvation_energy": 6.46 
		},
		"coords": [
			{
				"x": -0.5305933942,
				"y": -1.0765211429,
				"z": -4.0019239118,
				"element": "C" 
			},
			{
				"x": -1.0470288557,
				"y": -1.5342334695,
				"z": -2.6307105068,
				"element": "C" 
			},
			{
				"x": -0.6779245771,
				"y": -3.0084284656,
				"z": -2.3729149545,
				"element": "C" 
			},
			{
				"x": -0.96904925,
				"y": -3.4734059376,
				"z": -1.1314279488,
				"element": "O" 
			},
			{
				"x": -0.1967676666,
				"y": -3.7398539217,
				"z": -3.2004936871,
				"element": "O" 
			},
			{
				"x": -0.5923406277,
				"y": -0.6354856694,
				"z": -1.488007554,
				"element": "C" 
			},
			{
				"x": 0.7726497497,
				"y": -0.5181739346,
				"z": -1.173532428,
				"element": "C" 
			},
			{
				"x": 1.197897459,
				"y": 0.3098335405,
				"z": -0.1386218939,
				"element": "C" 
			},
			{
				"x": 0.2481525175,
				"y": 1.0226598301,
				"z": 0.5981784045,
				"element": "C" 
			},
			{
				"x": -1.1108199935,
				"y": 0.9312292836,
				"z": 0.3034923312,
				"element": "C" 
			},
			{
				"x": -1.5229669619,
				"y": 0.0984316725,
				"z": -0.7387064057,
				"element": "C" 
			},
			{
				"x": 0.7912332193,
				"y": 2.1017591969,
				"z": 1.9361545746,
				"element": "S" 
			},
			{
				"x": 0.8459839103,
				"y": 1.0048847383,
				"z": 3.3736537779,
				"element": "C" 
			},
			{
				"x": -0.2731117221,
				"y": 3.088853961,
				"z": 2.172787655,
				"element": "O" 
			},
			{
				"x": 2.1713931664,
				"y": 2.5168306425,
				"z": 1.6444684092,
				"element": "O" 
			},
			{
				"x": -0.8949411914,
				"y": -1.7463359433,
				"z": -4.7831495572,
				"element": "H" 
			},
			{
				"x": -0.8688481569,
				"y": -0.058810791,
				"z": -4.2137682349,
				"element": "H" 
			},
			{
				"x": 0.5616876014,
				"y": -1.0931440192,
				"z": -4.0370395664,
				"element": "H" 
			},
			{
				"x": -2.1461930641,
				"y": -1.5126030731,
				"z": -2.6489788824,
				"element": "H" 
			},
			{
				"x": -1.2841154201,
				"y": -2.7464330979,
				"z": -0.5729790519,
				"element": "H" 
			},
			{
				"x": 1.5076543046,
				"y": -1.0761932555,
				"z": -1.7469627046,
				"element": "H" 
			},
			{
				"x": 2.252861538,
				"y": 0.4229986272,
				"z": 0.0883381292,
				"element": "H" 
			},
			{
				"x": -1.8258117246,
				"y": 1.5219980322,
				"z": 0.8664127025,
				"element": "H" 
			},
			{
				"x": -2.5800172921,
				"y": 0.0343156956,
				"z": -0.9844893541,
				"element": "H" 
			},
			{
				"x": 1.1762051371,
				"y": 1.6209793243,
				"z": 4.212650511,
				"element": "H" 
			},
			{
				"x": 1.5613199589,
				"y": 0.2024751243,
				"z": 3.188230568,
				"element": "H" 
			},
			{
				"x": -0.1528086644,
				"y": 0.6095730526,
				"z": 3.5635395787,
				"element": "H" 
			}
		],
		 "valence_orbital": [ 
			{
				"type": "occ",
				"energy": -0.30356,
				"method": "rhf"
			},
			{
				"type": "occ",
				"energy": -0.29989,
				"method": "rhf"
			},
			{
				"type": "occ",
				"energy": -0.29339,
				"method": "rhf"
			},
			{
				"type": "occ",
				"energy": -0.2886,
				"method": "rhf"
			},
			{
				"type": "occ",
				"energy": -0.27172,
				"method": "rhf"
			},
			{
				"type": "unocc",
				"energy": -0.058,
				"method": "rhf"
			},
			{
				"type": "unocc",
				"energy": -0.04225,
				"method": "rhf"
			},
			{
				"type": "unocc",
				"energy": -0.00076,
				"method": "rhf"
			},
			{
				"type": "unocc",
				"energy": 0.05494,
				"method": "rhf"
			},
			{
				"type": "unocc",
				"energy": 0.0653,
				"method": "rhf"
			}
		],
		"cosmo_sigma_profile": { 
			"-0.025": 0.0,
			"-0.024": 0.0,
			"-0.023": 0.0,
			"-0.022": 0.0,
			"-0.021": 0.0,
			"-0.02": 0.0,
			"-0.019": 0.0,
			"-0.018": 0.0,
			"-0.017": 0.0,
			"-0.016": 0.261226570214,
			"-0.015": 0.824027466258,
			"-0.014": 1.3598918188,
			"-0.013": 1.19586214979,
			"-0.012": 1.18378858421,
			"-0.011": 1.12699045967,
			"-0.01": 1.53268184662,
			"-0.009": 4.28382999763,
			"-0.008": 12.9026795105,
			"-0.007": 16.4410459417,
			"-0.006": 18.5820010971,
			"-0.005": 14.5788075103,
			"-0.004": 19.4640192736,
			"-0.003": 17.8683410776,
			"-0.002": 13.6124999671,
			"-0.001": 13.1462126794,
			"0.0": 16.7427033768,
			"0.001": 14.2121206567,
			"0.002": 11.9113387219,
			"0.003": 6.29407914934,
			"0.004": 4.76758972119,
			"0.005": 4.18244166363,
			"0.006": 4.52116435054,
			"0.007": 5.12146724148,
			"0.008": 5.6632577678,
			"0.009": 6.82265863388,
			"0.01": 9.76899491341,
			"0.011": 14.1325518958,
			"0.012": 13.2649382188,
			"0.013": 1.91531731618,
			"0.014": 0.0,
			"0.015": 0.0,
			"0.016": 0.0,
			"0.017": 0.0,
			"0.018": 0.0,
			"0.019": 0.0,
			"0.02": 0.0,
			"0.021": 0.0,
			"0.022": 0.0,
			"0.023": 0.0,
			"0.024": 0.0,
			"0.025": 0.0
		}
	}
}
