{
	 "smiles": "ClC1=CC(Br)=CC=C1", 
	 "Tm": 251.35, 
	 "num_atms": 12, 
	 "gaussian": { 
		 "optdone": 1, 
		 "sigma_profile": "yes", 
		 "theory": "DFT", 
		 "functional": "B3LYP", 
		 "basiset": "6-31G**", 
		 "properties": { 
			 "R2extent": 3063.2462, 
			 "electric_dipole_moment_norm": 1.73124635451, 
			 "electric_quadrupole_moment_norm": 3.48406534956, 
			 "total_energy": -3262.64494722, 
			 "HOMO_LUMO_gap": 0.22376, 
			 "cosmo_polarized_energy": -3.73, 
			 "cosmo_cavitation_energy": 20.34, 
			 "cosmo_dispersion_energy": -15.78, 
			 "cosmo_repulsion_energy": 1.31, 
			 "cosmo_total_nonelectrostatic_energy": 5.87, 
			 "SMD_solvation_energy": 2.11 
		},
		"coords": [
			{
				"x": 0.236898351,
				"y": 2.6420681719,
				"z": 1.5310417451,
				"element": "Cl" 
			},
			{
				"x": 0.2429828993,
				"y": 0.9483874366,
				"z": 1.0688496732,
				"element": "C" 
			},
			{
				"x": 1.3579744449,
				"y": 0.1693493441,
				"z": 1.3790485343,
				"element": "C" 
			},
			{
				"x": 1.3469813698,
				"y": -1.1734193434,
				"z": 1.0051992798,
				"element": "C" 
			},
			{
				"x": 2.8634902282,
				"y": -2.258428262,
				"z": 1.4203363866,
				"element": "Br" 
			},
			{
				"x": 0.2609780899,
				"y": -1.7394565153,
				"z": 0.3393025733,
				"element": "C" 
			},
			{
				"x": -0.8393112487,
				"y": -0.9337034329,
				"z": 0.0433587266,
				"element": "C" 
			},
			{
				"x": -0.8602008472,
				"y": 0.4139508302,
				"z": 0.4035771359,
				"element": "C" 
			},
			{
				"x": 2.2070040593,
				"y": 0.598262547,
				"z": 1.8959438968,
				"element": "H" 
			},
			{
				"x": 0.2769961643,
				"y": -2.7860261887,
				"z": 0.0594845729,
				"element": "H" 
			},
			{
				"x": -1.6917946669,
				"y": -1.3622040072,
				"z": -0.4750068955,
				"element": "H" 
			},
			{
				"x": -1.7136988439,
				"y": 1.0416194198,
				"z": 0.174764371,
				"element": "H" 
			}
		],
		 "valence_orbital": [ 
			{
				"type": "occ",
				"energy": -0.32138,
				"method": "rhf"
			},
			{
				"type": "occ",
				"energy": -0.3148,
				"method": "rhf"
			},
			{
				"type": "occ",
				"energy": -0.29492,
				"method": "rhf"
			},
			{
				"type": "occ",
				"energy": -0.265,
				"method": "rhf"
			},
			{
				"type": "occ",
				"energy": -0.25128,
				"method": "rhf"
			},
			{
				"type": "unocc",
				"energy": -0.02752,
				"method": "rhf"
			},
			{
				"type": "unocc",
				"energy": -0.02656,
				"method": "rhf"
			},
			{
				"type": "unocc",
				"energy": -0.0106,
				"method": "rhf"
			},
			{
				"type": "unocc",
				"energy": 0.03834,
				"method": "rhf"
			},
			{
				"type": "unocc",
				"energy": 0.10895,
				"method": "rhf"
			}
		],
		"cosmo_sigma_profile": { 
			"-0.025": 0.0,
			"-0.024": 0.0,
			"-0.023": 0.0,
			"-0.022": 0.0,
			"-0.021": 0.0,
			"-0.02": 0.0,
			"-0.019": 0.0,
			"-0.018": 0.0,
			"-0.017": 0.0,
			"-0.016": 0.0,
			"-0.015": 0.0,
			"-0.014": 0.0,
			"-0.013": 0.0,
			"-0.012": 0.0,
			"-0.011": 0.0,
			"-0.01": 0.0,
			"-0.009": 0.0068892214214,
			"-0.008": 2.9099965776,
			"-0.007": 6.9935647695,
			"-0.006": 8.56890693923,
			"-0.005": 7.27470583812,
			"-0.004": 8.02483996543,
			"-0.003": 8.55183962218,
			"-0.002": 8.80649148498,
			"-0.001": 10.8086304073,
			"0.0": 13.917236926,
			"0.001": 22.2235395328,
			"0.002": 25.2173927389,
			"0.003": 19.5198424134,
			"0.004": 20.8545301535,
			"0.005": 5.81841714956,
			"0.006": 0.0,
			"0.007": 0.0,
			"0.008": 0.0,
			"0.009": 0.0,
			"0.01": 0.0,
			"0.011": 0.0,
			"0.012": 0.0,
			"0.013": 0.0,
			"0.014": 0.0,
			"0.015": 0.0,
			"0.016": 0.0,
			"0.017": 0.0,
			"0.018": 0.0,
			"0.019": 0.0,
			"0.02": 0.0,
			"0.021": 0.0,
			"0.022": 0.0,
			"0.023": 0.0,
			"0.024": 0.0,
			"0.025": 0.0
		}
	}
}
