{
	 "smiles": "CCOC1=C2C=CC=CC2=NC=C1C#N", 
	 "Tm": 372.15, 
	 "num_atms": 25, 
	 "gaussian": { 
		 "optdone": 1, 
		 "sigma_profile": "yes", 
		 "theory": "DFT", 
		 "functional": "B3LYP", 
		 "basiset": "6-31G**", 
		 "properties": { 
			 "R2extent": 3398.9053, 
			 "electric_dipole_moment_norm": 4.34296182576, 
			 "electric_quadrupole_moment_norm": 11.8372339028, 
			 "total_energy": -648.016241169, 
			 "HOMO_LUMO_gap": 0.17142, 
			 "cosmo_polarized_energy": -10.51, 
			 "cosmo_cavitation_energy": 29.79, 
			 "cosmo_dispersion_energy": -21.28, 
			 "cosmo_repulsion_energy": 1.65, 
			 "cosmo_total_nonelectrostatic_energy": 10.16, 
			 "SMD_solvation_energy": 4.9 
		},
		"coords": [
			{
				"x": -0.9956277603,
				"y": 3.5915881613,
				"z": 0.4842555064,
				"element": "C" 
			},
			{
				"x": -1.6035601626,
				"y": 2.203114303,
				"z": 0.548683429,
				"element": "C" 
			},
			{
				"x": -0.5516030862,
				"y": 1.2722551301,
				"z": 0.2117355525,
				"element": "O" 
			},
			{
				"x": -0.7265395344,
				"y": -0.0561566286,
				"z": 0.168372049,
				"element": "C" 
			},
			{
				"x": 0.4521291108,
				"y": -0.7947377872,
				"z": -0.1880292034,
				"element": "C" 
			},
			{
				"x": 1.685673893,
				"y": -0.1543801549,
				"z": -0.4666900819,
				"element": "C" 
			},
			{
				"x": 2.7944078848,
				"y": -0.9009370335,
				"z": -0.8055097397,
				"element": "C" 
			},
			{
				"x": 2.712900066,
				"y": -2.3104145804,
				"z": -0.8784131163,
				"element": "C" 
			},
			{
				"x": 1.5238248952,
				"y": -2.9550020034,
				"z": -0.6115902407,
				"element": "C" 
			},
			{
				"x": 0.3670411389,
				"y": -2.2167471564,
				"z": -0.2608552959,
				"element": "C" 
			},
			{
				"x": -0.7890778359,
				"y": -2.9089381508,
				"z": -0.0058990484,
				"element": "N" 
			},
			{
				"x": -1.844225062,
				"y": -2.2102129665,
				"z": 0.3155003954,
				"element": "C" 
			},
			{
				"x": -1.8966664506,
				"y": -0.7790666909,
				"z": 0.4246937681,
				"element": "C" 
			},
			{
				"x": -3.1620022741,
				"y": -0.2273409034,
				"z": 0.7907921615,
				"element": "C" 
			},
			{
				"x": -4.2267852415,
				"y": 0.1363714365,
				"z": 1.0921031141,
				"element": "N" 
			},
			{
				"x": -0.6176859927,
				"y": 3.8048531256,
				"z": -0.5194716708,
				"element": "H" 
			},
			{
				"x": -1.7571984256,
				"y": 4.3365059622,
				"z": 0.7329748386,
				"element": "H" 
			},
			{
				"x": -0.170970047,
				"y": 3.6888294257,
				"z": 1.1957848225,
				"element": "H" 
			},
			{
				"x": -2.4266589101,
				"y": 2.0936797087,
				"z": -0.1633886781,
				"element": "H" 
			},
			{
				"x": -1.9802446026,
				"y": 1.9777806228,
				"z": 1.5505973859,
				"element": "H" 
			},
			{
				"x": 1.7404481597,
				"y": 0.9260904305,
				"z": -0.408802685,
				"element": "H" 
			},
			{
				"x": 3.7363611658,
				"y": -0.4042708896,
				"z": -1.017794645,
				"element": "H" 
			},
			{
				"x": 3.5939878948,
				"y": -2.8861535681,
				"z": -1.1464802425,
				"element": "H" 
			},
			{
				"x": 1.431580382,
				"y": -4.0347855176,
				"z": -0.6596873762,
				"element": "H" 
			},
			{
				"x": -2.7626092051,
				"y": -2.7590242752,
				"z": 0.5180190009,
				"element": "H" 
			}
		],
		 "valence_orbital": [ 
			{
				"type": "occ",
				"energy": -0.32865,
				"method": "rhf"
			},
			{
				"type": "occ",
				"energy": -0.28029,
				"method": "rhf"
			},
			{
				"type": "occ",
				"energy": -0.26722,
				"method": "rhf"
			},
			{
				"type": "occ",
				"energy": -0.26177,
				"method": "rhf"
			},
			{
				"type": "occ",
				"energy": -0.23609,
				"method": "rhf"
			},
			{
				"type": "unocc",
				"energy": -0.06467,
				"method": "rhf"
			},
			{
				"type": "unocc",
				"energy": -0.04023,
				"method": "rhf"
			},
			{
				"type": "unocc",
				"energy": 0.01269,
				"method": "rhf"
			},
			{
				"type": "unocc",
				"energy": 0.02472,
				"method": "rhf"
			},
			{
				"type": "unocc",
				"energy": 0.04246,
				"method": "rhf"
			}
		],
		"cosmo_sigma_profile": { 
			"-0.025": 0.0,
			"-0.024": 0.0,
			"-0.023": 0.0,
			"-0.022": 0.0,
			"-0.021": 0.0,
			"-0.02": 0.0,
			"-0.019": 0.0,
			"-0.018": 0.0,
			"-0.017": 0.0,
			"-0.016": 0.0,
			"-0.015": 0.0,
			"-0.014": 0.0,
			"-0.013": 0.0,
			"-0.012": 0.0,
			"-0.011": 0.0,
			"-0.01": 0.0,
			"-0.009": 0.0249504570843,
			"-0.008": 1.42321767506,
			"-0.007": 6.58722355185,
			"-0.006": 14.1114470176,
			"-0.005": 19.0865615553,
			"-0.004": 21.4366808789,
			"-0.003": 19.4912075533,
			"-0.002": 21.4440855091,
			"-0.001": 22.1805468105,
			"0.0": 19.4358635643,
			"0.001": 17.0422246473,
			"0.002": 17.5239033615,
			"0.003": 17.1283675562,
			"0.004": 9.41913262098,
			"0.005": 3.04541574205,
			"0.006": 3.7457680114,
			"0.007": 4.207649375,
			"0.008": 3.25358310288,
			"0.009": 4.1858561006,
			"0.01": 3.47287496013,
			"0.011": 3.39980705933,
			"0.012": 3.7719900815,
			"0.013": 2.36232539206,
			"0.014": 0.975889794838,
			"0.015": 0.619693613702,
			"0.016": 0.226773517517,
			"0.017": 0.0,
			"0.018": 0.0,
			"0.019": 0.0,
			"0.02": 0.0,
			"0.021": 0.0,
			"0.022": 0.0,
			"0.023": 0.0,
			"0.024": 0.0,
			"0.025": 0.0
		}
	}
}
