{
	 "smiles": "CC1CC(=O)OC(=O)C1", 
	 "Tm": 315.65, 
	 "num_atms": 17, 
	 "gaussian": { 
		 "optdone": 1, 
		 "sigma_profile": "yes", 
		 "theory": "DFT", 
		 "functional": "B3LYP", 
		 "basiset": "6-31G**", 
		 "properties": { 
			 "R2extent": 2528.4819, 
			 "electric_dipole_moment_norm": 5.30128796803, 
			 "electric_quadrupole_moment_norm": 22.0333865318, 
			 "total_energy": -459.15074879, 
			 "HOMO_LUMO_gap": 0.24464, 
			 "cosmo_polarized_energy": -13.76, 
			 "cosmo_cavitation_energy": 20.24, 
			 "cosmo_dispersion_energy": -15.03, 
			 "cosmo_repulsion_energy": 1.25, 
			 "cosmo_total_nonelectrostatic_energy": 6.46, 
			 "SMD_solvation_energy": 5.26 
		},
		"coords": [
			{
				"x": 1.2479497865,
				"y": 0.9039098375,
				"z": -0.8440663189,
				"element": "C" 
			},
			{
				"x": 0.9326104197,
				"y": 0.5588277451,
				"z": 0.6189343846,
				"element": "C" 
			},
			{
				"x": 0.8916161827,
				"y": -0.9558258321,
				"z": 0.864306176,
				"element": "C" 
			},
			{
				"x": 2.2538245427,
				"y": -1.6138714109,
				"z": 0.7817569202,
				"element": "C" 
			},
			{
				"x": 2.4468304926,
				"y": -2.7524930455,
				"z": 0.456727074,
				"element": "O" 
			},
			{
				"x": 3.3580677692,
				"y": -0.8450960473,
				"z": 1.1357673471,
				"element": "O" 
			},
			{
				"x": 3.3193745562,
				"y": 0.494631504,
				"z": 1.5090446171,
				"element": "C" 
			},
			{
				"x": 4.3605285766,
				"y": 1.0344540587,
				"z": 1.7619122306,
				"element": "O" 
			},
			{
				"x": 1.9585770581,
				"y": 1.1554619661,
				"z": 1.5923474822,
				"element": "C" 
			},
			{
				"x": 1.2591591427,
				"y": 1.9878120099,
				"z": -0.995158316,
				"element": "H" 
			},
			{
				"x": 2.2256935321,
				"y": 0.5162414515,
				"z": -1.1526856073,
				"element": "H" 
			},
			{
				"x": 0.4961866926,
				"y": 0.4778766128,
				"z": -1.5157444358,
				"element": "H" 
			},
			{
				"x": -0.0521965673,
				"y": 0.9715249242,
				"z": 0.8653595124,
				"element": "H" 
			},
			{
				"x": 0.5013149376,
				"y": -1.1633018288,
				"z": 1.8703436661,
				"element": "H" 
			},
			{
				"x": 0.2433506715,
				"y": -1.4809879786,
				"z": 0.1589732815,
				"element": "H" 
			},
			{
				"x": 1.6107127001,
				"y": 1.032145361,
				"z": 2.6273732979,
				"element": "H" 
			},
			{
				"x": 2.1162995063,
				"y": 2.2252906724,
				"z": 1.4370086884,
				"element": "H" 
			}
		],
		 "valence_orbital": [ 
			{
				"type": "occ",
				"energy": -0.36539,
				"method": "rhf"
			},
			{
				"type": "occ",
				"energy": -0.36516,
				"method": "rhf"
			},
			{
				"type": "occ",
				"energy": -0.32363,
				"method": "rhf"
			},
			{
				"type": "occ",
				"energy": -0.29893,
				"method": "rhf"
			},
			{
				"type": "occ",
				"energy": -0.27869,
				"method": "rhf"
			},
			{
				"type": "unocc",
				"energy": -0.03405,
				"method": "rhf"
			},
			{
				"type": "unocc",
				"energy": 0.0032,
				"method": "rhf"
			},
			{
				"type": "unocc",
				"energy": 0.05969,
				"method": "rhf"
			},
			{
				"type": "unocc",
				"energy": 0.11091,
				"method": "rhf"
			},
			{
				"type": "unocc",
				"energy": 0.12039,
				"method": "rhf"
			}
		],
		"cosmo_sigma_profile": { 
			"-0.025": 0.0,
			"-0.024": 0.0,
			"-0.023": 0.0,
			"-0.022": 0.0,
			"-0.021": 0.0,
			"-0.02": 0.0,
			"-0.019": 0.0,
			"-0.018": 0.0,
			"-0.017": 0.0,
			"-0.016": 0.0,
			"-0.015": 0.0,
			"-0.014": 0.0,
			"-0.013": 0.0,
			"-0.012": 0.0317319421132,
			"-0.011": 0.726460543911,
			"-0.01": 1.31980138108,
			"-0.009": 2.80579977834,
			"-0.008": 5.13454890688,
			"-0.007": 6.12963175784,
			"-0.006": 11.0676464854,
			"-0.005": 15.9897600572,
			"-0.004": 20.3656240328,
			"-0.003": 14.4868989699,
			"-0.002": 9.14067276624,
			"-0.001": 7.22091033483,
			"0.0": 7.84235855434,
			"0.001": 4.40114517451,
			"0.002": 2.33743245933,
			"0.003": 2.59900961665,
			"0.004": 3.46942694783,
			"0.005": 2.68469296581,
			"0.006": 3.74089164684,
			"0.007": 3.77953608172,
			"0.008": 5.21072594184,
			"0.009": 7.85784310683,
			"0.01": 10.3428714353,
			"0.011": 8.97363650853,
			"0.012": 1.47590364995,
			"0.013": 0.0,
			"0.014": 0.0,
			"0.015": 0.0,
			"0.016": 0.0,
			"0.017": 0.0,
			"0.018": 0.0,
			"0.019": 0.0,
			"0.02": 0.0,
			"0.021": 0.0,
			"0.022": 0.0,
			"0.023": 0.0,
			"0.024": 0.0,
			"0.025": 0.0
		}
	}
}
