{
	 "smiles": "C1=CC=C(C=C1)N=P(C1=CC=CC=C1)(C1=CC=CC=C1)C1=CC=CC=C1", 
	 "Tm": 403.15, 
	 "num_atms": 46, 
	 "gaussian": { 
		 "optdone": 1, 
		 "sigma_profile": "yes", 
		 "theory": "DFT", 
		 "functional": "B3LYP", 
		 "basiset": "6-31G**", 
		 "properties": { 
			 "R2extent": 9236.2457, 
			 "electric_dipole_moment_norm": 4.91102831798, 
			 "electric_quadrupole_moment_norm": 8.16604152573, 
			 "total_energy": -1322.69711354, 
			 "HOMO_LUMO_gap": 0.13906, 
			 "cosmo_polarized_energy": -14.15, 
			 "cosmo_cavitation_energy": 50.14, 
			 "cosmo_dispersion_energy": -33.12, 
			 "cosmo_repulsion_energy": 2.53, 
			 "cosmo_total_nonelectrostatic_energy": 19.55, 
			 "SMD_solvation_energy": 8.28 
		},
		"coords": [
			{
				"x": 2.8105436532,
				"y": -4.2333052611,
				"z": 1.9243904817,
				"element": "C" 
			},
			{
				"x": 1.5507324962,
				"y": -4.1222528396,
				"z": 2.5219986906,
				"element": "C" 
			},
			{
				"x": 0.6617319592,
				"y": -3.1274945856,
				"z": 2.1292799756,
				"element": "C" 
			},
			{
				"x": 0.9976819243,
				"y": -2.195593157,
				"z": 1.1204629731,
				"element": "C" 
			},
			{
				"x": 2.2754766639,
				"y": -2.3214756226,
				"z": 0.5271624367,
				"element": "C" 
			},
			{
				"x": 3.1598910614,
				"y": -3.3245111609,
				"z": 0.9250206045,
				"element": "C" 
			},
			{
				"x": 0.042002704,
				"y": -1.2430264884,
				"z": 0.7918159174,
				"element": "N" 
			},
			{
				"x": 0.0529494139,
				"y": -0.061036531,
				"z": -0.255813067,
				"element": "P" 
			},
			{
				"x": -1.6724915563,
				"y": 0.5218106056,
				"z": -0.3903839234,
				"element": "C" 
			},
			{
				"x": -2.5354383989,
				"y": 0.3155565298,
				"z": 0.6952770086,
				"element": "C" 
			},
			{
				"x": -3.8523038308,
				"y": 0.7704388338,
				"z": 0.6359582469,
				"element": "C" 
			},
			{
				"x": -4.3180469379,
				"y": 1.4303248727,
				"z": -0.504041464,
				"element": "C" 
			},
			{
				"x": -3.4658769297,
				"y": 1.6281287083,
				"z": -1.591605429,
				"element": "C" 
			},
			{
				"x": -2.1468778639,
				"y": 1.1734211466,
				"z": -1.5379411559,
				"element": "C" 
			},
			{
				"x": 1.0507618583,
				"y": 1.4130744547,
				"z": 0.2246119733,
				"element": "C" 
			},
			{
				"x": 0.7930939242,
				"y": 2.7010194226,
				"z": -0.272032399,
				"element": "C" 
			},
			{
				"x": 1.5658834257,
				"y": 3.7854816611,
				"z": 0.1446056374,
				"element": "C" 
			},
			{
				"x": 2.597736512,
				"y": 3.5966472048,
				"z": 1.0666368777,
				"element": "C" 
			},
			{
				"x": 2.850125612,
				"y": 2.3221616907,
				"z": 1.5766325979,
				"element": "C" 
			},
			{
				"x": 2.0788917494,
				"y": 1.2349186668,
				"z": 1.1628292076,
				"element": "C" 
			},
			{
				"x": 0.5691231556,
				"y": -0.4813738459,
				"z": -1.9744922883,
				"element": "C" 
			},
			{
				"x": 0.1129720842,
				"y": -1.7066601101,
				"z": -2.4894497775,
				"element": "C" 
			},
			{
				"x": 0.4698229767,
				"y": -2.1063419452,
				"z": -3.7757945556,
				"element": "C" 
			},
			{
				"x": 1.2893595947,
				"y": -1.2906262654,
				"z": -4.5605778447,
				"element": "C" 
			},
			{
				"x": 1.7547082889,
				"y": -0.0770956952,
				"z": -4.0531863401,
				"element": "C" 
			},
			{
				"x": 1.4000450595,
				"y": 0.3266001465,
				"z": -2.7636043974,
				"element": "C" 
			},
			{
				"x": 3.5033316139,
				"y": -5.010749405,
				"z": 2.2322906789,
				"element": "H" 
			},
			{
				"x": 1.2572244963,
				"y": -4.8197348297,
				"z": 3.3029061311,
				"element": "H" 
			},
			{
				"x": -0.317446503,
				"y": -3.0422825662,
				"z": 2.5907042298,
				"element": "H" 
			},
			{
				"x": 2.574060679,
				"y": -1.6325652415,
				"z": -0.2583211962,
				"element": "H" 
			},
			{
				"x": 4.1334963017,
				"y": -3.3919959783,
				"z": 0.4452125537,
				"element": "H" 
			},
			{
				"x": -2.1642109763,
				"y": -0.2199083958,
				"z": 1.5626209842,
				"element": "H" 
			},
			{
				"x": -4.5173669955,
				"y": 0.6051922308,
				"z": 1.478745371,
				"element": "H" 
			},
			{
				"x": -5.3451048085,
				"y": 1.7815761744,
				"z": -0.5479713036,
				"element": "H" 
			},
			{
				"x": -3.8284607228,
				"y": 2.1270408451,
				"z": -2.485735519,
				"element": "H" 
			},
			{
				"x": -1.497691271,
				"y": 1.3085278364,
				"z": -2.3982139227,
				"element": "H" 
			},
			{
				"x": -0.0213189744,
				"y": 2.8647166678,
				"z": -0.9710588319,
				"element": "H" 
			},
			{
				"x": 1.3561933238,
				"y": 4.7780158646,
				"z": -0.2439272085,
				"element": "H" 
			},
			{
				"x": 3.1965015597,
				"y": 4.4423190083,
				"z": 1.3927464321,
				"element": "H" 
			},
			{
				"x": 3.6440690863,
				"y": 2.172502294,
				"z": 2.3024946767,
				"element": "H" 
			},
			{
				"x": 2.2691368221,
				"y": 0.2484841471,
				"z": 1.5723854487,
				"element": "H" 
			},
			{
				"x": -0.5098567704,
				"y": -2.3482635621,
				"z": -1.8728242827,
				"element": "H" 
			},
			{
				"x": 0.114053447,
				"y": -3.0562807762,
				"z": -4.1639094664,
				"element": "H" 
			},
			{
				"x": 1.5692381354,
				"y": -1.6042647447,
				"z": -5.5622451242,
				"element": "H" 
			},
			{
				"x": 2.3988127586,
				"y": 0.5555198048,
				"z": -4.6573196666,
				"element": "H" 
			},
			{
				"x": 1.7765401984,
				"y": 1.2665601901,
				"z": -2.3735399712,
				"element": "H" 
			}
		],
		 "valence_orbital": [ 
			{
				"type": "occ",
				"energy": -0.25732,
				"method": "rhf"
			},
			{
				"type": "occ",
				"energy": -0.25465,
				"method": "rhf"
			},
			{
				"type": "occ",
				"energy": -0.23204,
				"method": "rhf"
			},
			{
				"type": "occ",
				"energy": -0.2226,
				"method": "rhf"
			},
			{
				"type": "occ",
				"energy": -0.17285,
				"method": "rhf"
			},
			{
				"type": "unocc",
				"energy": -0.03379,
				"method": "rhf"
			},
			{
				"type": "unocc",
				"energy": -0.03005,
				"method": "rhf"
			},
			{
				"type": "unocc",
				"energy": -0.01843,
				"method": "rhf"
			},
			{
				"type": "unocc",
				"energy": -0.01666,
				"method": "rhf"
			},
			{
				"type": "unocc",
				"energy": -0.00935,
				"method": "rhf"
			}
		],
		"cosmo_sigma_profile": { 
			"-0.025": 0.0,
			"-0.024": 0.0,
			"-0.023": 0.0,
			"-0.022": 0.0,
			"-0.021": 0.0,
			"-0.02": 0.0,
			"-0.019": 0.0,
			"-0.018": 0.0,
			"-0.017": 0.0,
			"-0.016": 0.0,
			"-0.015": 0.0,
			"-0.014": 0.0,
			"-0.013": 0.0,
			"-0.012": 0.0,
			"-0.011": 0.0168808105826,
			"-0.01": 0.135048508106,
			"-0.009": 0.220950158042,
			"-0.008": 0.380220170672,
			"-0.007": 3.46364410339,
			"-0.006": 22.9406145898,
			"-0.005": 34.4689637088,
			"-0.004": 39.3970772677,
			"-0.003": 31.2607713095,
			"-0.002": 31.9540030937,
			"-0.001": 26.2432180758,
			"0.0": 27.5601860207,
			"0.001": 29.4637075771,
			"0.002": 30.562051037,
			"0.003": 34.1632018752,
			"0.004": 38.3270297489,
			"0.005": 18.0281814601,
			"0.006": 9.6920821784,
			"0.007": 8.71138102788,
			"0.008": 8.16804340907,
			"0.009": 2.31905761031,
			"0.01": 1.46708265223,
			"0.011": 0.896905440597,
			"0.012": 1.00304909796,
			"0.013": 0.721043843373,
			"0.014": 0.0382574992243,
			"0.015": 0.0,
			"0.016": 0.0,
			"0.017": 0.0,
			"0.018": 0.0,
			"0.019": 0.0,
			"0.02": 0.0,
			"0.021": 0.0,
			"0.022": 0.0,
			"0.023": 0.0,
			"0.024": 0.0,
			"0.025": 0.0
		}
	}
}
