{
	 "smiles": "COC1=CC(OC)=CC(CC#N)=C1", 
	 "Tm": 328.15, 
	 "num_atms": 24, 
	 "gaussian": { 
		 "optdone": 1, 
		 "sigma_profile": "yes", 
		 "theory": "DFT", 
		 "functional": "B3LYP", 
		 "basiset": "6-31G**", 
		 "properties": { 
			 "R2extent": 3251.8564, 
			 "electric_dipole_moment_norm": 3.50793462168, 
			 "electric_quadrupole_moment_norm": 11.426071443, 
			 "total_energy": -592.852488149, 
			 "HOMO_LUMO_gap": 0.21242, 
			 "cosmo_polarized_energy": -12.38, 
			 "cosmo_cavitation_energy": 28.8, 
			 "cosmo_dispersion_energy": -20.33, 
			 "cosmo_repulsion_energy": 1.62, 
			 "cosmo_total_nonelectrostatic_energy": 10.09, 
			 "SMD_solvation_energy": 7.79 
		},
		"coords": [
			{
				"x": 1.705469212,
				"y": -1.7673144994,
				"z": -3.2394177316,
				"element": "C" 
			},
			{
				"x": 1.8908994797,
				"y": -0.6422433495,
				"z": -2.3937017776,
				"element": "O" 
			},
			{
				"x": 0.8132202282,
				"y": -0.1645104745,
				"z": -1.709529008,
				"element": "C" 
			},
			{
				"x": -0.4685869557,
				"y": -0.7047610034,
				"z": -1.7870831729,
				"element": "C" 
			},
			{
				"x": -1.5037352091,
				"y": -0.1312636529,
				"z": -1.0309063583,
				"element": "C" 
			},
			{
				"x": -2.7173208992,
				"y": -0.7355336548,
				"z": -1.1695840419,
				"element": "O" 
			},
			{
				"x": -3.8140225322,
				"y": -0.2244924982,
				"z": -0.4245102524,
				"element": "C" 
			},
			{
				"x": -1.2642948071,
				"y": 0.9734750659,
				"z": -0.2098433527,
				"element": "C" 
			},
			{
				"x": 0.0326381036,
				"y": 1.5033549126,
				"z": -0.1443795755,
				"element": "C" 
			},
			{
				"x": 0.3289828203,
				"y": 2.7409950706,
				"z": 0.6977003833,
				"element": "C" 
			},
			{
				"x": -0.5646603283,
				"y": 2.9220736724,
				"z": 1.8453513146,
				"element": "C" 
			},
			{
				"x": -1.2837016227,
				"y": 3.0707993277,
				"z": 2.744191942,
				"element": "N" 
			},
			{
				"x": 1.0677626549,
				"y": 0.9430948049,
				"z": -0.8825099416,
				"element": "C" 
			},
			{
				"x": 1.3661653211,
				"y": -2.6452304638,
				"z": -2.6752160178,
				"element": "H" 
			},
			{
				"x": 0.9859106716,
				"y": -1.5563390251,
				"z": -4.0406783372,
				"element": "H" 
			},
			{
				"x": 2.6816906823,
				"y": -1.9773619363,
				"z": -3.6789022675,
				"element": "H" 
			},
			{
				"x": -0.7048509746,
				"y": -1.5609855171,
				"z": -2.4052737193,
				"element": "H" 
			},
			{
				"x": -3.6302246703,
				"y": -0.2811405806,
				"z": 0.6554245842,
				"element": "H" 
			},
			{
				"x": -4.6679543261,
				"y": -0.8541316825,
				"z": -0.6785398952,
				"element": "H" 
			},
			{
				"x": -4.0378295628,
				"y": 0.8147264762,
				"z": -0.6962564113,
				"element": "H" 
			},
			{
				"x": -2.054448896,
				"y": 1.414336706,
				"z": 0.3842520369,
				"element": "H" 
			},
			{
				"x": 1.3592840133,
				"y": 2.7044669604,
				"z": 1.0684581947,
				"element": "H" 
			},
			{
				"x": 0.256821991,
				"y": 3.6446158102,
				"z": 0.0770343253,
				"element": "H" 
			},
			{
				"x": 2.0779856063,
				"y": 1.336969531,
				"z": -0.8397809201,
				"element": "H" 
			}
		],
		 "valence_orbital": [ 
			{
				"type": "occ",
				"energy": -0.3272,
				"method": "rhf"
			},
			{
				"type": "occ",
				"energy": -0.32296,
				"method": "rhf"
			},
			{
				"type": "occ",
				"energy": -0.29931,
				"method": "rhf"
			},
			{
				"type": "occ",
				"energy": -0.23508,
				"method": "rhf"
			},
			{
				"type": "occ",
				"energy": -0.21821,
				"method": "rhf"
			},
			{
				"type": "unocc",
				"energy": -0.00579,
				"method": "rhf"
			},
			{
				"type": "unocc",
				"energy": 0.01104,
				"method": "rhf"
			},
			{
				"type": "unocc",
				"energy": 0.0325,
				"method": "rhf"
			},
			{
				"type": "unocc",
				"energy": 0.04349,
				"method": "rhf"
			},
			{
				"type": "unocc",
				"energy": 0.0956,
				"method": "rhf"
			}
		],
		"cosmo_sigma_profile": { 
			"-0.025": 0.0,
			"-0.024": 0.0,
			"-0.023": 0.0,
			"-0.022": 0.0,
			"-0.021": 0.0,
			"-0.02": 0.0,
			"-0.019": 0.0,
			"-0.018": 0.0,
			"-0.017": 0.0,
			"-0.016": 0.0,
			"-0.015": 0.0,
			"-0.014": 0.0,
			"-0.013": 0.0,
			"-0.012": 0.0,
			"-0.011": 0.0,
			"-0.01": 0.0,
			"-0.009": 3.13089238869,
			"-0.008": 6.19630579351,
			"-0.007": 6.28579876198,
			"-0.006": 15.5970324487,
			"-0.005": 24.669407542,
			"-0.004": 22.3213939916,
			"-0.003": 22.9554912145,
			"-0.002": 11.9522105844,
			"-0.001": 9.47003556062,
			"0.0": 9.7211649806,
			"0.001": 8.04775077506,
			"0.002": 9.61492991156,
			"0.003": 12.3263726877,
			"0.004": 18.0345907674,
			"0.005": 12.2434712809,
			"0.006": 6.05061188196,
			"0.007": 5.06300536328,
			"0.008": 5.62709020284,
			"0.009": 6.45545230447,
			"0.01": 5.7650192634,
			"0.011": 3.64248453784,
			"0.012": 2.39140866974,
			"0.013": 1.84090495086,
			"0.014": 0.206041018495,
			"0.015": 0.0,
			"0.016": 0.0,
			"0.017": 0.0,
			"0.018": 0.0,
			"0.019": 0.0,
			"0.02": 0.0,
			"0.021": 0.0,
			"0.022": 0.0,
			"0.023": 0.0,
			"0.024": 0.0,
			"0.025": 0.0
		}
	}
}
