{
	 "smiles": "COC1=CC=C(OC2=C(C=C(C=O)C=C2)[N+]([O-])=O)C=C1", 
	 "Tm": 341.15, 
	 "num_atms": 31, 
	 "gaussian": { 
		 "optdone": 1, 
		 "sigma_profile": "yes", 
		 "theory": "DFT", 
		 "functional": "B3LYP", 
		 "basiset": "6-31G**", 
		 "properties": { 
			 "R2extent": 7062.2815, 
			 "electric_dipole_moment_norm": 3.20717721681, 
			 "electric_quadrupole_moment_norm": 7.46633254081, 
			 "total_energy": -970.845321003, 
			 "HOMO_LUMO_gap": 0.12229, 
			 "cosmo_polarized_energy": -15.22, 
			 "cosmo_cavitation_energy": 37.16, 
			 "cosmo_dispersion_energy": -25.91, 
			 "cosmo_repulsion_energy": 1.98, 
			 "cosmo_total_nonelectrostatic_energy": 13.22, 
			 "SMD_solvation_energy": 10.48 
		},
		"coords": [
			{
				"x": 2.2472640126,
				"y": -3.2233045263,
				"z": -4.9729310056,
				"element": "C" 
			},
			{
				"x": 1.7571829178,
				"y": -1.9592900321,
				"z": -4.5545028106,
				"element": "O" 
			},
			{
				"x": 1.6008570019,
				"y": -1.7386281902,
				"z": -3.217051021,
				"element": "C" 
			},
			{
				"x": 1.9099045872,
				"y": -2.6654247997,
				"z": -2.2130654717,
				"element": "C" 
			},
			{
				"x": 1.7036266144,
				"y": -2.3348820587,
				"z": -0.8726983168,
				"element": "C" 
			},
			{
				"x": 1.199224935,
				"y": -1.085035249,
				"z": -0.5373124675,
				"element": "C" 
			},
			{
				"x": 1.1003582934,
				"y": -0.7841684776,
				"z": 0.823827562,
				"element": "O" 
			},
			{
				"x": 0.1233461079,
				"y": 0.0264574188,
				"z": 1.3011344391,
				"element": "C" 
			},
			{
				"x": -1.2592392563,
				"y": -0.0974463029,
				"z": 1.0400110856,
				"element": "C" 
			},
			{
				"x": -2.1656959084,
				"y": 0.8185364964,
				"z": 1.5719446625,
				"element": "C" 
			},
			{
				"x": -1.7282301185,
				"y": 1.8424370486,
				"z": 2.4102351604,
				"element": "C" 
			},
			{
				"x": -2.6996694849,
				"y": 2.8007876309,
				"z": 2.9839103185,
				"element": "C" 
			},
			{
				"x": -2.397394825,
				"y": 3.7160730523,
				"z": 3.7247930833,
				"element": "O" 
			},
			{
				"x": -0.3584861483,
				"y": 1.9480789018,
				"z": 2.7091743885,
				"element": "C" 
			},
			{
				"x": 0.5475225108,
				"y": 1.0609215323,
				"z": 2.1539173903,
				"element": "C" 
			},
			{
				"x": -1.826063449,
				"y": -1.2187135732,
				"z": 0.2801647435,
				"element": "N" 
			},
			{
				"x": -1.2195308026,
				"y": -2.2867065353,
				"z": 0.303224185,
				"element": "O" 
			},
			{
				"x": -2.8975453421,
				"y": -1.0254170443,
				"z": -0.2949734795,
				"element": "O" 
			},
			{
				"x": 0.9010915053,
				"y": -0.1461554087,
				"z": -1.5271390554,
				"element": "C" 
			},
			{
				"x": 1.0962046997,
				"y": -0.4790818204,
				"z": -2.8629370076,
				"element": "C" 
			},
			{
				"x": 1.581232282,
				"y": -4.0387688133,
				"z": -4.6627338523,
				"element": "H" 
			},
			{
				"x": 2.2849253167,
				"y": -3.1861273192,
				"z": -6.0626047761,
				"element": "H" 
			},
			{
				"x": 3.25578087,
				"y": -3.4162508425,
				"z": -4.5843440866,
				"element": "H" 
			},
			{
				"x": 2.2993033629,
				"y": -3.6459643911,
				"z": -2.458098804,
				"element": "H" 
			},
			{
				"x": 1.9214760501,
				"y": -3.0465104617,
				"z": -0.0842818335,
				"element": "H" 
			},
			{
				"x": -3.2166909522,
				"y": 0.6997158017,
				"z": 1.3298414682,
				"element": "H" 
			},
			{
				"x": -3.7563227851,
				"y": 2.6267057757,
				"z": 2.6848436824,
				"element": "H" 
			},
			{
				"x": -0.0316017201,
				"y": 2.7482678891,
				"z": 3.3654591602,
				"element": "H" 
			},
			{
				"x": 1.6121860673,
				"y": 1.1408634155,
				"z": 2.3451263514,
				"element": "H" 
			},
			{
				"x": 0.528872751,
				"y": 0.8379036714,
				"z": -1.2612312938,
				"element": "H" 
			},
			{
				"x": 0.8718109065,
				"y": 0.2306272119,
				"z": -3.6520023991,
				"element": "H" 
			}
		],
		 "valence_orbital": [ 
			{
				"type": "occ",
				"energy": -0.2868,
				"method": "rhf"
			},
			{
				"type": "occ",
				"energy": -0.27193,
				"method": "rhf"
			},
			{
				"type": "occ",
				"energy": -0.26856,
				"method": "rhf"
			},
			{
				"type": "occ",
				"energy": -0.26269,
				"method": "rhf"
			},
			{
				"type": "occ",
				"energy": -0.2172,
				"method": "rhf"
			},
			{
				"type": "unocc",
				"energy": -0.09491,
				"method": "rhf"
			},
			{
				"type": "unocc",
				"energy": -0.07491,
				"method": "rhf"
			},
			{
				"type": "unocc",
				"energy": -0.02471,
				"method": "rhf"
			},
			{
				"type": "unocc",
				"energy": -0.01341,
				"method": "rhf"
			},
			{
				"type": "unocc",
				"energy": 0.0073,
				"method": "rhf"
			}
		],
		"cosmo_sigma_profile": { 
			"-0.025": 0.0,
			"-0.024": 0.0,
			"-0.023": 0.0,
			"-0.022": 0.0,
			"-0.021": 0.0,
			"-0.02": 0.0,
			"-0.019": 0.0,
			"-0.018": 0.0,
			"-0.017": 0.0,
			"-0.016": 0.0,
			"-0.015": 0.0,
			"-0.014": 0.0,
			"-0.013": 0.0,
			"-0.012": 0.0,
			"-0.011": 0.000426763821776,
			"-0.01": 1.07118442068,
			"-0.009": 2.66314780134,
			"-0.008": 5.46743508019,
			"-0.007": 13.0270133838,
			"-0.006": 21.9260661752,
			"-0.005": 22.7643385722,
			"-0.004": 23.0053999215,
			"-0.003": 23.1386660893,
			"-0.002": 21.0017109164,
			"-0.001": 22.0658818518,
			"0.0": 19.2673033626,
			"0.001": 11.8091722123,
			"0.002": 14.1873366861,
			"0.003": 17.9970529204,
			"0.004": 15.0734908326,
			"0.005": 10.5000216494,
			"0.006": 10.0304495442,
			"0.007": 13.9548061021,
			"0.008": 9.59252675848,
			"0.009": 7.65708714494,
			"0.01": 5.68808426143,
			"0.011": 4.32696775278,
			"0.012": 1.7039997749,
			"0.013": 0.192258256634,
			"0.014": 0.0,
			"0.015": 0.0,
			"0.016": 0.0,
			"0.017": 0.0,
			"0.018": 0.0,
			"0.019": 0.0,
			"0.02": 0.0,
			"0.021": 0.0,
			"0.022": 0.0,
			"0.023": 0.0,
			"0.024": 0.0,
			"0.025": 0.0
		}
	}
}
