{
	 "smiles": "CCC(C)C(NC(=O)OCC1C2=C(C=CC=C2)C2=C1C=CC=C2)C(O)=O", 
	 "Tm": 421.15, 
	 "num_atms": 49, 
	 "gaussian": { 
		 "optdone": 1, 
		 "sigma_profile": "yes", 
		 "theory": "DFT", 
		 "functional": "B3LYP", 
		 "basiset": "6-31G**", 
		 "properties": { 
			 "R2extent": 13163.3506, 
			 "electric_dipole_moment_norm": 4.60130560276, 
			 "electric_quadrupole_moment_norm": 24.5643613414, 
			 "total_energy": -1169.81080271, 
			 "HOMO_LUMO_gap": 0.1844, 
			 "cosmo_polarized_energy": -17.88, 
			 "cosmo_cavitation_energy": 51.13, 
			 "cosmo_dispersion_energy": -34.65, 
			 "cosmo_repulsion_energy": 2.6, 
			 "cosmo_total_nonelectrostatic_energy": 19.09, 
			 "SMD_solvation_energy": 9.49 
		},
		"coords": [
			{
				"x": -4.22038923,
				"y": 3.6721732226,
				"z": -2.3619385958,
				"element": "C" 
			},
			{
				"x": -4.2236959619,
				"y": 3.6275450082,
				"z": -0.827602397,
				"element": "C" 
			},
			{
				"x": -3.6908506012,
				"y": 2.3254789335,
				"z": -0.179005085,
				"element": "C" 
			},
			{
				"x": -4.5634336141,
				"y": 1.1152253915,
				"z": -0.5559439942,
				"element": "C" 
			},
			{
				"x": -2.2051420994,
				"y": 2.0839729391,
				"z": -0.5121273188,
				"element": "C" 
			},
			{
				"x": -1.7372550892,
				"y": 0.8032428887,
				"z": 0.0342226415,
				"element": "N" 
			},
			{
				"x": -0.6750998623,
				"y": 0.1459528193,
				"z": -0.4884222398,
				"element": "C" 
			},
			{
				"x": 0.0273875747,
				"y": 0.58792776,
				"z": -1.4011778662,
				"element": "O" 
			},
			{
				"x": -0.4867582103,
				"y": -1.0468654885,
				"z": 0.1108242554,
				"element": "O" 
			},
			{
				"x": 0.6554205965,
				"y": -1.8158606659,
				"z": -0.3369665792,
				"element": "C" 
			},
			{
				"x": 1.955097454,
				"y": -1.3921698363,
				"z": 0.3654341139,
				"element": "C" 
			},
			{
				"x": 3.1364523255,
				"y": -2.1951415587,
				"z": -0.1592134856,
				"element": "C" 
			},
			{
				"x": 3.7503004065,
				"y": -2.9051829143,
				"z": 0.8929012859,
				"element": "C" 
			},
			{
				"x": 4.8563924869,
				"y": -3.7200097707,
				"z": 0.642975476,
				"element": "C" 
			},
			{
				"x": 5.3395253712,
				"y": -3.8188877141,
				"z": -0.664053884,
				"element": "C" 
			},
			{
				"x": 4.7309162242,
				"y": -3.1119513245,
				"z": -1.7066586401,
				"element": "C" 
			},
			{
				"x": 3.6226240389,
				"y": -2.2932416073,
				"z": -1.4585621067,
				"element": "C" 
			},
			{
				"x": 3.0401994653,
				"y": -2.5978804072,
				"z": 2.1416880849,
				"element": "C" 
			},
			{
				"x": 1.9883271275,
				"y": -1.7019780077,
				"z": 1.8545652133,
				"element": "C" 
			},
			{
				"x": 1.1643779995,
				"y": -1.2358232108,
				"z": 2.8740580167,
				"element": "C" 
			},
			{
				"x": 1.3914812403,
				"y": -1.6730814168,
				"z": 4.1843313737,
				"element": "C" 
			},
			{
				"x": 2.4319631859,
				"y": -2.5640234398,
				"z": 4.4678569398,
				"element": "C" 
			},
			{
				"x": 3.2651381112,
				"y": -3.0322479198,
				"z": 3.4494993143,
				"element": "C" 
			},
			{
				"x": -1.272464165,
				"y": 3.2097380746,
				"z": 0.0078668794,
				"element": "C" 
			},
			{
				"x": -0.0210581351,
				"y": 3.1624835564,
				"z": -0.4763479527,
				"element": "O" 
			},
			{
				"x": -1.6148019371,
				"y": 4.0565255059,
				"z": 0.8004753107,
				"element": "O" 
			},
			{
				"x": -3.2092262337,
				"y": 3.6091593506,
				"z": -2.7791015931,
				"element": "H" 
			},
			{
				"x": -4.6478954824,
				"y": 4.6178519791,
				"z": -2.7096043493,
				"element": "H" 
			},
			{
				"x": -4.8135438264,
				"y": 2.8650418432,
				"z": -2.8040814212,
				"element": "H" 
			},
			{
				"x": -5.2529929618,
				"y": 3.7630027834,
				"z": -0.4726386381,
				"element": "H" 
			},
			{
				"x": -3.6515096231,
				"y": 4.4707272572,
				"z": -0.4335010747,
				"element": "H" 
			},
			{
				"x": -3.7494115964,
				"y": 2.4786385429,
				"z": 0.9069295759,
				"element": "H" 
			},
			{
				"x": -5.6168477917,
				"y": 1.3412300383,
				"z": -0.3626158904,
				"element": "H" 
			},
			{
				"x": -4.4665502758,
				"y": 0.8590677713,
				"z": -1.6161438416,
				"element": "H" 
			},
			{
				"x": -4.3132607585,
				"y": 0.2176994184,
				"z": 0.0171064591,
				"element": "H" 
			},
			{
				"x": -2.0761747472,
				"y": 2.0171609545,
				"z": -1.5984311283,
				"element": "H" 
			},
			{
				"x": -2.1941941251,
				"y": 0.4055089014,
				"z": 0.8415857648,
				"element": "H" 
			},
			{
				"x": 0.4034077845,
				"y": -2.8493739182,
				"z": -0.0936626075,
				"element": "H" 
			},
			{
				"x": 0.751174211,
				"y": -1.7021274221,
				"z": -1.4180523308,
				"element": "H" 
			},
			{
				"x": 2.0999678065,
				"y": -0.3204448995,
				"z": 0.1756041882,
				"element": "H" 
			},
			{
				"x": 5.3377708472,
				"y": -4.2681777033,
				"z": 1.44807211,
				"element": "H" 
			},
			{
				"x": 6.1996677674,
				"y": -4.4486293657,
				"z": -0.87281603,
				"element": "H" 
			},
			{
				"x": 5.1233815986,
				"y": -3.1958362466,
				"z": -2.7158415825,
				"element": "H" 
			},
			{
				"x": 3.1607759787,
				"y": -1.7383698064,
				"z": -2.2712254136,
				"element": "H" 
			},
			{
				"x": 0.3568749723,
				"y": -0.5426802256,
				"z": 2.66092757,
				"element": "H" 
			},
			{
				"x": 0.7560209278,
				"y": -1.3140841121,
				"z": 4.9887254042,
				"element": "H" 
			},
			{
				"x": 2.5960416731,
				"y": -2.8912156151,
				"z": 5.4906063952,
				"element": "H" 
			},
			{
				"x": 4.0753834827,
				"y": -3.7196685916,
				"z": 3.6763177219,
				"element": "H" 
			},
			{
				"x": 0.1065856698,
				"y": 2.3538982484,
				"z": -1.0240380485,
				"element": "H" 
			}
		],
		 "valence_orbital": [ 
			{
				"type": "occ",
				"energy": -0.28469,
				"method": "rhf"
			},
			{
				"type": "occ",
				"energy": -0.25486,
				"method": "rhf"
			},
			{
				"type": "occ",
				"energy": -0.25408,
				"method": "rhf"
			},
			{
				"type": "occ",
				"energy": -0.24786,
				"method": "rhf"
			},
			{
				"type": "occ",
				"energy": -0.2195,
				"method": "rhf"
			},
			{
				"type": "unocc",
				"energy": -0.0351,
				"method": "rhf"
			},
			{
				"type": "unocc",
				"energy": -0.01693,
				"method": "rhf"
			},
			{
				"type": "unocc",
				"energy": 0.00284,
				"method": "rhf"
			},
			{
				"type": "unocc",
				"energy": 0.00521,
				"method": "rhf"
			},
			{
				"type": "unocc",
				"energy": 0.02639,
				"method": "rhf"
			}
		],
		"cosmo_sigma_profile": { 
			"-0.025": 0.0,
			"-0.024": 0.0,
			"-0.023": 0.0,
			"-0.022": 0.0,
			"-0.021": 0.0,
			"-0.02": 0.0,
			"-0.019": 0.0,
			"-0.018": 0.0,
			"-0.017": 0.0,
			"-0.016": 0.0,
			"-0.015": 0.418691254956,
			"-0.014": 1.20435673377,
			"-0.013": 0.648895081686,
			"-0.012": 1.1082943725,
			"-0.011": 1.04098097572,
			"-0.01": 1.69215673996,
			"-0.009": 1.29950272985,
			"-0.008": 2.65148927019,
			"-0.007": 4.48821227425,
			"-0.006": 16.3443386353,
			"-0.005": 28.3419279942,
			"-0.004": 33.6875443372,
			"-0.003": 42.3521828434,
			"-0.002": 34.7543284763,
			"-0.001": 36.3981244292,
			"0.0": 34.4035953602,
			"0.001": 31.1647677881,
			"0.002": 19.9492978353,
			"0.003": 21.6242113163,
			"0.004": 21.2595995719,
			"0.005": 22.8617953571,
			"0.006": 14.255502659,
			"0.007": 3.98793917526,
			"0.008": 3.58975997682,
			"0.009": 4.85725157528,
			"0.01": 5.07590090812,
			"0.011": 7.85739390633,
			"0.012": 4.89888109349,
			"0.013": 1.76270582507,
			"0.014": 0.116306752295,
			"0.015": 0.0,
			"0.016": 0.0,
			"0.017": 0.0,
			"0.018": 0.0,
			"0.019": 0.0,
			"0.02": 0.0,
			"0.021": 0.0,
			"0.022": 0.0,
			"0.023": 0.0,
			"0.024": 0.0,
			"0.025": 0.0
		}
	}
}
