{
	 "smiles": "CC(=NN=C1C(=O)NC2=CC=CC=C12)C1=C(O)C2=CC=CC=C2N(C2=CC=CC=C2)C1=O", 
	 "Tm": 540.15, 
	 "num_atms": 50, 
	 "gaussian": { 
		 "optdone": 1, 
		 "sigma_profile": "yes", 
		 "theory": "DFT", 
		 "functional": "B3LYP", 
		 "basiset": "6-31G**", 
		 "properties": { 
			 "R2extent": 17951.8067, 
			 "electric_dipole_moment_norm": 5.55857188494, 
			 "electric_quadrupole_moment_norm": 45.7807105845, 
			 "total_energy": -1408.20151282, 
			 "HOMO_LUMO_gap": 0.12064, 
			 "cosmo_polarized_energy": -22.47, 
			 "cosmo_cavitation_energy": 54.48, 
			 "cosmo_dispersion_energy": -38.12, 
			 "cosmo_repulsion_energy": 2.79, 
			 "cosmo_total_nonelectrostatic_energy": 19.15, 
			 "SMD_solvation_energy": 9.6 
		},
		"coords": [
			{
				"x": 2.0328537389,
				"y": 2.3083772312,
				"z": -0.1986321322,
				"element": "C" 
			},
			{
				"x": 0.7666335072,
				"y": 1.6144405339,
				"z": 0.2126258044,
				"element": "C" 
			},
			{
				"x": 0.3866634111,
				"y": 1.5626655221,
				"z": 1.480860629,
				"element": "N" 
			},
			{
				"x": 1.1246016573,
				"y": 2.2850127836,
				"z": 2.3741194033,
				"element": "N" 
			},
			{
				"x": 1.0392031278,
				"y": 1.9515137744,
				"z": 3.6181198437,
				"element": "C" 
			},
			{
				"x": 1.7715648069,
				"y": 2.8222088167,
				"z": 4.6311073823,
				"element": "C" 
			},
			{
				"x": 2.4483479658,
				"y": 3.8118507944,
				"z": 4.4445432566,
				"element": "O" 
			},
			{
				"x": 1.4944132115,
				"y": 2.2411761616,
				"z": 5.8642952607,
				"element": "N" 
			},
			{
				"x": 0.7007848265,
				"y": 1.1004626918,
				"z": 5.7397214673,
				"element": "C" 
			},
			{
				"x": 0.2488459101,
				"y": 0.2535613882,
				"z": 6.7432979871,
				"element": "C" 
			},
			{
				"x": -0.5278962476,
				"y": -0.8488198411,
				"z": 6.3668595444,
				"element": "C" 
			},
			{
				"x": -0.8358912004,
				"y": -1.0952582207,
				"z": 5.0259500454,
				"element": "C" 
			},
			{
				"x": -0.3770221673,
				"y": -0.2366563939,
				"z": 4.0220671713,
				"element": "C" 
			},
			{
				"x": 0.389893915,
				"y": 0.8768885344,
				"z": 4.3743094864,
				"element": "C" 
			},
			{
				"x": -0.1162199292,
				"y": 0.9550541126,
				"z": -0.7443758621,
				"element": "C" 
			},
			{
				"x": -1.3635645489,
				"y": 0.4552015643,
				"z": -0.3351499608,
				"element": "C" 
			},
			{
				"x": -1.7765908404,
				"y": 0.5248503628,
				"z": 0.9159670185,
				"element": "O" 
			},
			{
				"x": -2.2729168832,
				"y": -0.1570340317,
				"z": -1.2760815628,
				"element": "C" 
			},
			{
				"x": -3.5326284172,
				"y": -0.6342820055,
				"z": -0.8628311276,
				"element": "C" 
			},
			{
				"x": -4.4009732855,
				"y": -1.2147970449,
				"z": -1.77040977,
				"element": "C" 
			},
			{
				"x": -4.0133487304,
				"y": -1.3253445175,
				"z": -3.1151303548,
				"element": "C" 
			},
			{
				"x": -2.778227533,
				"y": -0.8641341672,
				"z": -3.5473293412,
				"element": "C" 
			},
			{
				"x": -1.8859697682,
				"y": -0.2715172781,
				"z": -2.6314670002,
				"element": "C" 
			},
			{
				"x": -0.6369951959,
				"y": 0.1990402215,
				"z": -3.0242022187,
				"element": "N" 
			},
			{
				"x": -0.2161031192,
				"y": 0.0673149796,
				"z": -4.4003707129,
				"element": "C" 
			},
			{
				"x": -0.4916250436,
				"y": 1.0902858705,
				"z": -5.3086978447,
				"element": "C" 
			},
			{
				"x": -0.0968311984,
				"y": 0.9557902234,
				"z": -6.6402263084,
				"element": "C" 
			},
			{
				"x": 0.5707178635,
				"y": -0.1965071873,
				"z": -7.0601547511,
				"element": "C" 
			},
			{
				"x": 0.8455112091,
				"y": -1.2157006806,
				"z": -6.1459414998,
				"element": "C" 
			},
			{
				"x": 0.4527513082,
				"y": -1.0857766251,
				"z": -4.8135171678,
				"element": "C" 
			},
			{
				"x": 0.2983930921,
				"y": 0.8006468096,
				"z": -2.1457091762,
				"element": "C" 
			},
			{
				"x": 1.3853978996,
				"y": 1.1455337268,
				"z": -2.5995337288,
				"element": "O" 
			},
			{
				"x": 1.8659693216,
				"y": 2.9119621429,
				"z": -1.0906991907,
				"element": "H" 
			},
			{
				"x": 2.7889382434,
				"y": 1.5700774356,
				"z": -0.4828181383,
				"element": "H" 
			},
			{
				"x": 2.4018823611,
				"y": 2.9099644284,
				"z": 0.6309059312,
				"element": "H" 
			},
			{
				"x": 1.8632856309,
				"y": 2.6092555576,
				"z": 6.7277252566,
				"element": "H" 
			},
			{
				"x": 0.492398293,
				"y": 0.4368772013,
				"z": 7.7853433077,
				"element": "H" 
			},
			{
				"x": -0.8931727924,
				"y": -1.5242458899,
				"z": 7.1350725668,
				"element": "H" 
			},
			{
				"x": -1.4349157172,
				"y": -1.9599796366,
				"z": 4.7593275028,
				"element": "H" 
			},
			{
				"x": -0.6154532273,
				"y": -0.4393790516,
				"z": 2.9861101763,
				"element": "H" 
			},
			{
				"x": -0.9944880402,
				"y": 0.9721978146,
				"z": 1.4395085137,
				"element": "H" 
			},
			{
				"x": -3.7989376362,
				"y": -0.5303756282,
				"z": 0.182585193,
				"element": "H" 
			},
			{
				"x": -5.3704599054,
				"y": -1.579525868,
				"z": -1.4471889525,
				"element": "H" 
			},
			{
				"x": -4.6870483965,
				"y": -1.7786959643,
				"z": -3.8366554379,
				"element": "H" 
			},
			{
				"x": -2.4952308446,
				"y": -0.9577395869,
				"z": -4.5877866308,
				"element": "H" 
			},
			{
				"x": -1.0060477377,
				"y": 1.9829918482,
				"z": -4.9673868222,
				"element": "H" 
			},
			{
				"x": -0.3083556125,
				"y": 1.7522968948,
				"z": -7.3473369439,
				"element": "H" 
			},
			{
				"x": 0.8784697266,
				"y": -0.2988439991,
				"z": -8.0966033956,
				"element": "H" 
			},
			{
				"x": 1.3686956057,
				"y": -2.1111277418,
				"z": -6.4679414543,
				"element": "H" 
			},
			{
				"x": 0.6655973858,
				"y": -1.8672580671,
				"z": -4.0910452623,
				"element": "H" 
			}
		],
		 "valence_orbital": [ 
			{
				"type": "occ",
				"energy": -0.25071,
				"method": "rhf"
			},
			{
				"type": "occ",
				"energy": -0.24355,
				"method": "rhf"
			},
			{
				"type": "occ",
				"energy": -0.23286,
				"method": "rhf"
			},
			{
				"type": "occ",
				"energy": -0.2254,
				"method": "rhf"
			},
			{
				"type": "occ",
				"energy": -0.21269,
				"method": "rhf"
			},
			{
				"type": "unocc",
				"energy": -0.09205,
				"method": "rhf"
			},
			{
				"type": "unocc",
				"energy": -0.05326,
				"method": "rhf"
			},
			{
				"type": "unocc",
				"energy": -0.01476,
				"method": "rhf"
			},
			{
				"type": "unocc",
				"energy": -0.01435,
				"method": "rhf"
			},
			{
				"type": "unocc",
				"energy": -0.01187,
				"method": "rhf"
			}
		],
		"cosmo_sigma_profile": { 
			"-0.025": 0.0,
			"-0.024": 0.0,
			"-0.023": 0.0,
			"-0.022": 0.0,
			"-0.021": 0.0,
			"-0.02": 0.0,
			"-0.019": 0.0,
			"-0.018": 0.0,
			"-0.017": 0.0,
			"-0.016": 1.09644728447,
			"-0.015": 1.08731859681,
			"-0.014": 1.58126341801,
			"-0.013": 1.10186345417,
			"-0.012": 1.05255084267,
			"-0.011": 1.16803475403,
			"-0.01": 1.23261854606,
			"-0.009": 1.09918005296,
			"-0.008": 1.36289720446,
			"-0.007": 8.65841697837,
			"-0.006": 23.7014018638,
			"-0.005": 28.7261122115,
			"-0.004": 34.3493534535,
			"-0.003": 32.627765941,
			"-0.002": 37.4938545204,
			"-0.001": 40.0257491334,
			"0.0": 41.1608144859,
			"0.001": 34.3328727383,
			"0.002": 30.0830304439,
			"0.003": 32.3029624585,
			"0.004": 27.6807911631,
			"0.005": 9.8585122704,
			"0.006": 5.85051206699,
			"0.007": 5.34940531217,
			"0.008": 4.72474657545,
			"0.009": 4.53403398728,
			"0.01": 3.51677970298,
			"0.011": 5.48787986424,
			"0.012": 8.07934043514,
			"0.013": 6.52187789072,
			"0.014": 3.08547845224,
			"0.015": 0.327985325057,
			"0.016": 0.0,
			"0.017": 0.0,
			"0.018": 0.0,
			"0.019": 0.0,
			"0.02": 0.0,
			"0.021": 0.0,
			"0.022": 0.0,
			"0.023": 0.0,
			"0.024": 0.0,
			"0.025": 0.0
		}
	}
}
