{
	 "smiles": "CC(C)OC1=CC=C(NS(=O)(=O)CC(O)=O)C=C1", 
	 "Tm": 390.15, 
	 "num_atms": 33, 
	 "gaussian": { 
		 "optdone": 1, 
		 "sigma_profile": "yes", 
		 "theory": "DFT", 
		 "functional": "B3LYP", 
		 "basiset": "6-31G**", 
		 "properties": { 
			 "R2extent": 7317.9495, 
			 "electric_dipole_moment_norm": 3.60351544051, 
			 "electric_quadrupole_moment_norm": 19.5801182882, 
			 "total_energy": -1257.20381321, 
			 "HOMO_LUMO_gap": 0.18232, 
			 "cosmo_polarized_energy": -21.2, 
			 "cosmo_cavitation_energy": 38.07, 
			 "cosmo_dispersion_energy": -27.11, 
			 "cosmo_repulsion_energy": 2.09, 
			 "cosmo_total_nonelectrostatic_energy": 13.05, 
			 "SMD_solvation_energy": 7.13 
		},
		"coords": [
			{
				"x": 2.6437291012,
				"y": 0.4328242326,
				"z": 2.6066408082,
				"element": "C" 
			},
			{
				"x": 1.7108197765,
				"y": 1.5606166138,
				"z": 3.055274463,
				"element": "C" 
			},
			{
				"x": 1.9562791401,
				"y": 2.9065067493,
				"z": 2.3671565575,
				"element": "C" 
			},
			{
				"x": 0.3193201231,
				"y": 1.1750292294,
				"z": 3.052236978,
				"element": "O" 
			},
			{
				"x": -0.3860377037,
				"y": 0.810509846,
				"z": 1.9445505337,
				"element": "C" 
			},
			{
				"x": 0.058319151,
				"y": 0.8317211917,
				"z": 0.6144332459,
				"element": "C" 
			},
			{
				"x": -0.7975141263,
				"y": 0.4454021242,
				"z": -0.4185763851,
				"element": "C" 
			},
			{
				"x": -2.0934206879,
				"y": 0.0124554618,
				"z": -0.1435926274,
				"element": "C" 
			},
			{
				"x": -2.9736361402,
				"y": -0.3479183705,
				"z": -1.2212732862,
				"element": "N" 
			},
			{
				"x": -2.9532880159,
				"y": -1.9244378903,
				"z": -1.8670669498,
				"element": "S" 
			},
			{
				"x": -4.3555513305,
				"y": -2.3457027719,
				"z": -1.951334309,
				"element": "O" 
			},
			{
				"x": -1.9274576748,
				"y": -2.729523786,
				"z": -1.208535608,
				"element": "O" 
			},
			{
				"x": -2.4339224034,
				"y": -1.671979548,
				"z": -3.6083227798,
				"element": "C" 
			},
			{
				"x": -0.9367557791,
				"y": -1.5225242106,
				"z": -3.761162497,
				"element": "C" 
			},
			{
				"x": -0.369102408,
				"y": -2.6774135158,
				"z": -4.1541232925,
				"element": "O" 
			},
			{
				"x": -0.3137968374,
				"y": -0.50259938,
				"z": -3.5637070331,
				"element": "O" 
			},
			{
				"x": -2.5373503121,
				"y": -0.0200963224,
				"z": 1.1850142663,
				"element": "C" 
			},
			{
				"x": -1.6993422838,
				"y": 0.385894672,
				"z": 2.2135096354,
				"element": "C" 
			},
			{
				"x": 2.3983217269,
				"y": -0.4909519039,
				"z": 3.1378917834,
				"element": "H" 
			},
			{
				"x": 2.5926484726,
				"y": 0.2335677962,
				"z": 1.5342366148,
				"element": "H" 
			},
			{
				"x": 3.6772978545,
				"y": 0.7014648138,
				"z": 2.8484206839,
				"element": "H" 
			},
			{
				"x": 1.880566147,
				"y": 1.7127105541,
				"z": 4.1268465124,
				"element": "H" 
			},
			{
				"x": 2.9621779444,
				"y": 3.2613442387,
				"z": 2.6147502994,
				"element": "H" 
			},
			{
				"x": 1.2360043237,
				"y": 3.6472370459,
				"z": 2.7255373553,
				"element": "H" 
			},
			{
				"x": 1.8805232022,
				"y": 2.8545044321,
				"z": 1.2789347919,
				"element": "H" 
			},
			{
				"x": 1.0568414411,
				"y": 1.1590016974,
				"z": 0.3618606436,
				"element": "H" 
			},
			{
				"x": -0.4579269185,
				"y": 0.482059026,
				"z": -1.4479207126,
				"element": "H" 
			},
			{
				"x": -3.9510205591,
				"y": -0.1314238897,
				"z": -1.0430931681,
				"element": "H" 
			},
			{
				"x": -2.7994695653,
				"y": -2.5575694026,
				"z": -4.1298222586,
				"element": "H" 
			},
			{
				"x": -2.9438592341,
				"y": -0.7751946772,
				"z": -3.9599779997,
				"element": "H" 
			},
			{
				"x": 0.5898269149,
				"y": -2.5197267321,
				"z": -4.1912180979,
				"element": "H" 
			},
			{
				"x": -3.5426432752,
				"y": -0.365036668,
				"z": 1.4125973689,
				"element": "H" 
			},
			{
				"x": -2.032980064,
				"y": 0.372149344,
				"z": 3.2456344633,
				"element": "H" 
			}
		],
		 "valence_orbital": [ 
			{
				"type": "occ",
				"energy": -0.30961,
				"method": "rhf"
			},
			{
				"type": "occ",
				"energy": -0.29301,
				"method": "rhf"
			},
			{
				"type": "occ",
				"energy": -0.28446,
				"method": "rhf"
			},
			{
				"type": "occ",
				"energy": -0.25322,
				"method": "rhf"
			},
			{
				"type": "occ",
				"energy": -0.21295,
				"method": "rhf"
			},
			{
				"type": "unocc",
				"energy": -0.03063,
				"method": "rhf"
			},
			{
				"type": "unocc",
				"energy": -0.00549,
				"method": "rhf"
			},
			{
				"type": "unocc",
				"energy": 0.00113,
				"method": "rhf"
			},
			{
				"type": "unocc",
				"energy": 0.05883,
				"method": "rhf"
			},
			{
				"type": "unocc",
				"energy": 0.06487,
				"method": "rhf"
			}
		],
		"cosmo_sigma_profile": { 
			"-0.025": 0.0,
			"-0.024": 0.0,
			"-0.023": 0.0,
			"-0.022": 0.0,
			"-0.021": 0.0,
			"-0.02": 0.0528153113454,
			"-0.019": 0.875028910662,
			"-0.018": 0.845087558839,
			"-0.017": 0.878340720634,
			"-0.016": 0.880844332035,
			"-0.015": 1.57918970826,
			"-0.014": 1.43998772218,
			"-0.013": 1.52589756161,
			"-0.012": 2.12663716337,
			"-0.011": 2.22543094488,
			"-0.01": 4.4861454398,
			"-0.009": 5.8845464977,
			"-0.008": 6.18768235255,
			"-0.007": 10.3312092022,
			"-0.006": 9.97183261154,
			"-0.005": 13.4371196829,
			"-0.004": 22.9308342419,
			"-0.003": 19.101011716,
			"-0.002": 20.3595382413,
			"-0.001": 17.7988243711,
			"0.0": 24.3109559754,
			"0.001": 16.3229237534,
			"0.002": 13.2737717925,
			"0.003": 14.7021190389,
			"0.004": 16.5746810902,
			"0.005": 14.2925450137,
			"0.006": 9.86985864051,
			"0.007": 9.21082682524,
			"0.008": 7.84492589798,
			"0.009": 8.43822438926,
			"0.01": 15.4727352316,
			"0.011": 7.78588684301,
			"0.012": 0.184504059377,
			"0.013": 0.0,
			"0.014": 0.0,
			"0.015": 0.0,
			"0.016": 0.0,
			"0.017": 0.0,
			"0.018": 0.0,
			"0.019": 0.0,
			"0.02": 0.0,
			"0.021": 0.0,
			"0.022": 0.0,
			"0.023": 0.0,
			"0.024": 0.0,
			"0.025": 0.0
		}
	}
}
