{
	 "smiles": "C1CN(CCO1)C1=NC(NC2=CC=CC=C2)=NC(NC2=CC=CC=C2)=N1", 
	 "Tm": 468.15, 
	 "num_atms": 46, 
	 "gaussian": { 
		 "optdone": 1, 
		 "sigma_profile": "yes", 
		 "theory": "DFT", 
		 "functional": "B3LYP", 
		 "basiset": "6-31G**", 
		 "properties": { 
			 "R2extent": 14367.3806, 
			 "electric_dipole_moment_norm": 0.934789821297, 
			 "electric_quadrupole_moment_norm": 10.7673572059, 
			 "total_energy": -1139.85069607, 
			 "HOMO_LUMO_gap": 0.1859, 
			 "cosmo_polarized_energy": -14.96, 
			 "cosmo_cavitation_energy": 48.65, 
			 "cosmo_dispersion_energy": -35.12, 
			 "cosmo_repulsion_energy": 2.63, 
			 "cosmo_total_nonelectrostatic_energy": 16.16, 
			 "SMD_solvation_energy": 4.89 
		},
		"coords": [
			{
				"x": 2.7280047568,
				"y": -2.893365593,
				"z": 0.1757014074,
				"element": "C" 
			},
			{
				"x": 2.8425404304,
				"y": -1.372238806,
				"z": 0.2803797302,
				"element": "C" 
			},
			{
				"x": 2.0381264218,
				"y": -0.8931724316,
				"z": 1.4027099435,
				"element": "N" 
			},
			{
				"x": 2.2739497378,
				"y": -1.5926995614,
				"z": 2.6641732003,
				"element": "C" 
			},
			{
				"x": 2.1877129868,
				"y": -3.1028279385,
				"z": 2.4405313227,
				"element": "C" 
			},
			{
				"x": 3.060122509,
				"y": -3.5285886895,
				"z": 1.4027196612,
				"element": "O" 
			},
			{
				"x": 1.2905738277,
				"y": 0.2456863245,
				"z": 1.3297436443,
				"element": "C" 
			},
			{
				"x": 1.2221373543,
				"y": 0.8659102289,
				"z": 0.1335417178,
				"element": "N" 
			},
			{
				"x": 0.417781225,
				"y": 1.9344954432,
				"z": 0.1143871716,
				"element": "C" 
			},
			{
				"x": 0.2398889519,
				"y": 2.6468370253,
				"z": -1.0436539181,
				"element": "N" 
			},
			{
				"x": 0.7731245158,
				"y": 2.5044137764,
				"z": -2.3354179105,
				"element": "C" 
			},
			{
				"x": 0.1519893208,
				"y": 3.2380613402,
				"z": -3.3620117054,
				"element": "C" 
			},
			{
				"x": 0.6317482419,
				"y": 3.1789046597,
				"z": -4.6667380954,
				"element": "C" 
			},
			{
				"x": 1.7379251155,
				"y": 2.3849475732,
				"z": -4.9768998089,
				"element": "C" 
			},
			{
				"x": 2.3568503846,
				"y": 1.6602195125,
				"z": -3.9579371327,
				"element": "C" 
			},
			{
				"x": 1.8914449133,
				"y": 1.7136449024,
				"z": -2.6438748694,
				"element": "C" 
			},
			{
				"x": -0.2846512583,
				"y": 2.4171106216,
				"z": 1.1550119664,
				"element": "N" 
			},
			{
				"x": -0.1016342962,
				"y": 1.7335008719,
				"z": 2.2988728075,
				"element": "C" 
			},
			{
				"x": -0.8067272529,
				"y": 2.2419115111,
				"z": 3.35929366,
				"element": "N" 
			},
			{
				"x": -0.9002838981,
				"y": 1.8571880747,
				"z": 4.7070737542,
				"element": "C" 
			},
			{
				"x": -1.9432614918,
				"y": 2.4279236151,
				"z": 5.4583336712,
				"element": "C" 
			},
			{
				"x": -2.0936522448,
				"y": 2.1250949648,
				"z": 6.8080296721,
				"element": "C" 
			},
			{
				"x": -1.2106166825,
				"y": 1.2446541244,
				"z": 7.4367401509,
				"element": "C" 
			},
			{
				"x": -0.1733868849,
				"y": 0.6814803308,
				"z": 6.6927261601,
				"element": "C" 
			},
			{
				"x": -0.0057575978,
				"y": 0.9796888888,
				"z": 5.3402559502,
				"element": "C" 
			},
			{
				"x": 0.6695845665,
				"y": 0.6520048035,
				"z": 2.4564733351,
				"element": "N" 
			},
			{
				"x": 3.4268076958,
				"y": -3.2740865611,
				"z": -0.5747962212,
				"element": "H" 
			},
			{
				"x": 1.703605471,
				"y": -3.1654125338,
				"z": -0.1276791386,
				"element": "H" 
			},
			{
				"x": 3.896469306,
				"y": -1.0963717783,
				"z": 0.4362732506,
				"element": "H" 
			},
			{
				"x": 2.4896605773,
				"y": -0.8956374786,
				"z": -0.6331143319,
				"element": "H" 
			},
			{
				"x": 3.2737058207,
				"y": -1.337926546,
				"z": 3.0472481739,
				"element": "H" 
			},
			{
				"x": 1.5299787658,
				"y": -1.2677528654,
				"z": 3.390157347,
				"element": "H" 
			},
			{
				"x": 2.4914773898,
				"y": -3.6367559216,
				"z": 3.3456082988,
				"element": "H" 
			},
			{
				"x": 1.1481522331,
				"y": -3.3806172642,
				"z": 2.2005655838,
				"element": "H" 
			},
			{
				"x": -0.4365096988,
				"y": 3.3878538523,
				"z": -0.92203205,
				"element": "H" 
			},
			{
				"x": -0.7148027541,
				"y": 3.8528940037,
				"z": -3.1300777467,
				"element": "H" 
			},
			{
				"x": 0.135228301,
				"y": 3.7541310554,
				"z": -5.4430509572,
				"element": "H" 
			},
			{
				"x": 2.1116301918,
				"y": 2.3349556322,
				"z": -5.994924969,
				"element": "H" 
			},
			{
				"x": 3.2235496433,
				"y": 1.0440788392,
				"z": -4.1817649486,
				"element": "H" 
			},
			{
				"x": 2.3797672388,
				"y": 1.159467485,
				"z": -1.856024449,
				"element": "H" 
			},
			{
				"x": -1.3873201157,
				"y": 3.0200783926,
				"z": 3.0786130731,
				"element": "H" 
			},
			{
				"x": -2.6398557314,
				"y": 3.1087508105,
				"z": 4.974215358,
				"element": "H" 
			},
			{
				"x": -2.9071474833,
				"y": 2.5779251028,
				"z": 7.3677176765,
				"element": "H" 
			},
			{
				"x": -1.3283945205,
				"y": 1.0046337165,
				"z": 8.4889036692,
				"element": "H" 
			},
			{
				"x": 0.5268148659,
				"y": 0.0008073966,
				"z": 7.16948309,
				"element": "H" 
			},
			{
				"x": 0.8047491505,
				"y": 0.5499990894,
				"z": 4.7704138051,
				"element": "H" 
			}
		],
		 "valence_orbital": [ 
			{
				"type": "occ",
				"energy": -0.24813,
				"method": "rhf"
			},
			{
				"type": "occ",
				"energy": -0.24697,
				"method": "rhf"
			},
			{
				"type": "occ",
				"energy": -0.22467,
				"method": "rhf"
			},
			{
				"type": "occ",
				"energy": -0.21216,
				"method": "rhf"
			},
			{
				"type": "occ",
				"energy": -0.20504,
				"method": "rhf"
			},
			{
				"type": "unocc",
				"energy": -0.01914,
				"method": "rhf"
			},
			{
				"type": "unocc",
				"energy": -0.00746,
				"method": "rhf"
			},
			{
				"type": "unocc",
				"energy": 0.0018,
				"method": "rhf"
			},
			{
				"type": "unocc",
				"energy": 0.00196,
				"method": "rhf"
			},
			{
				"type": "unocc",
				"energy": 0.02368,
				"method": "rhf"
			}
		],
		"cosmo_sigma_profile": { 
			"-0.025": 0.0,
			"-0.024": 0.0,
			"-0.023": 0.0,
			"-0.022": 0.0,
			"-0.021": 0.0,
			"-0.02": 0.0,
			"-0.019": 0.0,
			"-0.018": 0.0,
			"-0.017": 0.0,
			"-0.016": 0.0,
			"-0.015": 0.0,
			"-0.014": 0.734778155876,
			"-0.013": 1.93350391902,
			"-0.012": 1.93866938074,
			"-0.011": 2.76853301534,
			"-0.01": 1.81872217012,
			"-0.009": 1.98337777801,
			"-0.008": 2.44931963137,
			"-0.007": 3.45795769162,
			"-0.006": 10.3945089354,
			"-0.005": 26.3390447443,
			"-0.004": 44.2938855481,
			"-0.003": 39.2859780795,
			"-0.002": 27.3611057416,
			"-0.001": 23.8591543765,
			"0.0": 22.3107452302,
			"0.001": 24.6968393832,
			"0.002": 30.290532544,
			"0.003": 27.7912109635,
			"0.004": 23.9331718088,
			"0.005": 25.0707102167,
			"0.006": 23.9514574034,
			"0.007": 6.02338072595,
			"0.008": 4.40658453825,
			"0.009": 2.52071024763,
			"0.01": 2.31782455881,
			"0.011": 2.53842747216,
			"0.012": 1.7166715939,
			"0.013": 1.84863176537,
			"0.014": 0.0906790066563,
			"0.015": 0.0,
			"0.016": 0.0,
			"0.017": 0.0,
			"0.018": 0.0,
			"0.019": 0.0,
			"0.02": 0.0,
			"0.021": 0.0,
			"0.022": 0.0,
			"0.023": 0.0,
			"0.024": 0.0,
			"0.025": 0.0
		}
	}
}
