{
	 "smiles": "CC(C)(C)CC1=NOC(N)=C1", 
	 "Tm": 361.15, 
	 "num_atms": 25, 
	 "gaussian": { 
		 "optdone": 1, 
		 "sigma_profile": "yes", 
		 "theory": "DFT", 
		 "functional": "B3LYP", 
		 "basiset": "6-31G**", 
		 "properties": { 
			 "R2extent": 2297.5893, 
			 "electric_dipole_moment_norm": 3.61918993561, 
			 "electric_quadrupole_moment_norm": 15.5445522415, 
			 "total_energy": -497.98378659, 
			 "HOMO_LUMO_gap": 0.22856, 
			 "cosmo_polarized_energy": -12.59, 
			 "cosmo_cavitation_energy": 27.15, 
			 "cosmo_dispersion_energy": -19.27, 
			 "cosmo_repulsion_energy": 1.56, 
			 "cosmo_total_nonelectrostatic_energy": 9.44, 
			 "SMD_solvation_energy": 4.8 
		},
		"coords": [
			{
				"x": -0.4021259313,
				"y": -1.5485264133,
				"z": 1.0768029413,
				"element": "C" 
			},
			{
				"x": -1.4210234462,
				"y": -0.3952426546,
				"z": 1.1369283839,
				"element": "C" 
			},
			{
				"x": -2.4459268687,
				"y": -0.5465152717,
				"z": -0.0017860834,
				"element": "C" 
			},
			{
				"x": -2.1535718688,
				"y": -0.4404617778,
				"z": 2.4920700088,
				"element": "C" 
			},
			{
				"x": -0.7058210733,
				"y": 0.9873983715,
				"z": 1.0382747359,
				"element": "C" 
			},
			{
				"x": 0.0796834383,
				"y": 1.2462822477,
				"z": -0.2179393313,
				"element": "C" 
			},
			{
				"x": -0.476796534,
				"y": 1.9355237104,
				"z": -1.1928557251,
				"element": "N" 
			},
			{
				"x": 0.5146342819,
				"y": 1.9997897805,
				"z": -2.2108898715,
				"element": "O" 
			},
			{
				"x": 1.6133620692,
				"y": 1.3552954643,
				"z": -1.7870122919,
				"element": "C" 
			},
			{
				"x": 2.695680656,
				"y": 1.3833190469,
				"z": -2.6351439501,
				"element": "N" 
			},
			{
				"x": 1.4126468627,
				"y": 0.8473825092,
				"z": -0.5299360725,
				"element": "C" 
			},
			{
				"x": 0.3466923621,
				"y": -1.4602580976,
				"z": 1.8733620321,
				"element": "H" 
			},
			{
				"x": 0.1249994357,
				"y": -1.5700660037,
				"z": 0.1182461545,
				"element": "H" 
			},
			{
				"x": -0.9065956912,
				"y": -2.5130929807,
				"z": 1.2026049934,
				"element": "H" 
			},
			{
				"x": -1.9670034755,
				"y": -0.4933475328,
				"z": -0.983527302,
				"element": "H" 
			},
			{
				"x": -2.9653595067,
				"y": -1.5085113083,
				"z": 0.0742178372,
				"element": "H" 
			},
			{
				"x": -3.1997460475,
				"y": 0.2474192148,
				"z": 0.0379948858,
				"element": "H" 
			},
			{
				"x": -2.8884946413,
				"y": 0.3683248353,
				"z": 2.5733540476,
				"element": "H" 
			},
			{
				"x": -1.4519177014,
				"y": -0.3419422888,
				"z": 3.3286307564,
				"element": "H" 
			},
			{
				"x": -2.6870553324,
				"y": -1.3896000799,
				"z": 2.6144143261,
				"element": "H" 
			},
			{
				"x": -0.0320029852,
				"y": 1.0947869575,
				"z": 1.8974663652,
				"element": "H" 
			},
			{
				"x": -1.4626378889,
				"y": 1.7745309782,
				"z": 1.1237346383,
				"element": "H" 
			},
			{
				"x": 2.4623930841,
				"y": 1.5691879035,
				"z": -3.6015220361,
				"element": "H" 
			},
			{
				"x": 3.3499115193,
				"y": 0.6228629782,
				"z": -2.5204600427,
				"element": "H" 
			},
			{
				"x": 2.1061752833,
				"y": 0.2955604111,
				"z": 0.0845706,
				"element": "H" 
			}
		],
		 "valence_orbital": [ 
			{
				"type": "occ",
				"energy": -0.31727,
				"method": "rhf"
			},
			{
				"type": "occ",
				"energy": -0.31676,
				"method": "rhf"
			},
			{
				"type": "occ",
				"energy": -0.28896,
				"method": "rhf"
			},
			{
				"type": "occ",
				"energy": -0.27078,
				"method": "rhf"
			},
			{
				"type": "occ",
				"energy": -0.21388,
				"method": "rhf"
			},
			{
				"type": "unocc",
				"energy": 0.01468,
				"method": "rhf"
			},
			{
				"type": "unocc",
				"energy": 0.05777,
				"method": "rhf"
			},
			{
				"type": "unocc",
				"energy": 0.0786,
				"method": "rhf"
			},
			{
				"type": "unocc",
				"energy": 0.08761,
				"method": "rhf"
			},
			{
				"type": "unocc",
				"energy": 0.11104,
				"method": "rhf"
			}
		],
		"cosmo_sigma_profile": { 
			"-0.025": 0.0,
			"-0.024": 0.0,
			"-0.023": 0.0,
			"-0.022": 0.0,
			"-0.021": 0.0,
			"-0.02": 0.0,
			"-0.019": 0.0,
			"-0.018": 0.0,
			"-0.017": 0.0,
			"-0.016": 0.0,
			"-0.015": 0.184594963601,
			"-0.014": 2.506128812,
			"-0.013": 2.54518677395,
			"-0.012": 2.95551481832,
			"-0.011": 2.70284513784,
			"-0.01": 2.19298791152,
			"-0.009": 2.60160171362,
			"-0.008": 1.48359518695,
			"-0.007": 3.12236720063,
			"-0.006": 3.30480272119,
			"-0.005": 2.93862594878,
			"-0.004": 5.29326749401,
			"-0.003": 17.2714852592,
			"-0.002": 27.8134017229,
			"-0.001": 21.3872521142,
			"0.0": 22.7373145236,
			"0.001": 25.1046217309,
			"0.002": 18.8929087467,
			"0.003": 7.50968634012,
			"0.004": 6.27355845727,
			"0.005": 4.74646959789,
			"0.006": 3.91665373023,
			"0.007": 2.77609416643,
			"0.008": 3.2636038578,
			"0.009": 5.76291103417,
			"0.01": 3.14483538086,
			"0.011": 2.0778068578,
			"0.012": 1.95608456493,
			"0.013": 1.35494688424,
			"0.014": 1.41771489546,
			"0.015": 1.0918454807,
			"0.016": 0.727436241072,
			"0.017": 0.0,
			"0.018": 0.0,
			"0.019": 0.0,
			"0.02": 0.0,
			"0.021": 0.0,
			"0.022": 0.0,
			"0.023": 0.0,
			"0.024": 0.0,
			"0.025": 0.0
		}
	}
}
