{
	 "smiles": "CC(O)(C1=CC=CC=C1)C1=CC=CC=C1", 
	 "Tm": 353.15, 
	 "num_atms": 29, 
	 "gaussian": { 
		 "optdone": 1, 
		 "sigma_profile": "yes", 
		 "theory": "DFT", 
		 "functional": "B3LYP", 
		 "basiset": "6-31G**", 
		 "properties": { 
			 "R2extent": 3455.2425, 
			 "electric_dipole_moment_norm": 1.47352037312, 
			 "electric_quadrupole_moment_norm": 3.48063041129, 
			 "total_energy": -617.150167853, 
			 "HOMO_LUMO_gap": 0.22459, 
			 "cosmo_polarized_energy": -8.58, 
			 "cosmo_cavitation_energy": 31.42, 
			 "cosmo_dispersion_energy": -22.23, 
			 "cosmo_repulsion_energy": 1.74, 
			 "cosmo_total_nonelectrostatic_energy": 10.94, 
			 "SMD_solvation_energy": 5.46 
		},
		"coords": [
			{
				"x": 0.380189011,
				"y": 1.2817779446,
				"z": -1.3772788566,
				"element": "C" 
			},
			{
				"x": -0.3231001692,
				"y": 0.4873872949,
				"z": -0.2597560865,
				"element": "C" 
			},
			{
				"x": -1.6285798786,
				"y": 0.1121154516,
				"z": -0.7276258281,
				"element": "O" 
			},
			{
				"x": -0.4751296681,
				"y": 1.2828609429,
				"z": 1.0475721309,
				"element": "C" 
			},
			{
				"x": -1.3985020533,
				"y": 0.8262089036,
				"z": 2.0019328017,
				"element": "C" 
			},
			{
				"x": -1.5785210884,
				"y": 1.5048077434,
				"z": 3.2047781732,
				"element": "C" 
			},
			{
				"x": -0.836424405,
				"y": 2.6569365248,
				"z": 3.4803151355,
				"element": "C" 
			},
			{
				"x": 0.0830576672,
				"y": 3.1202410193,
				"z": 2.5412123081,
				"element": "C" 
			},
			{
				"x": 0.2612215931,
				"y": 2.4388862096,
				"z": 1.3330124504,
				"element": "C" 
			},
			{
				"x": 0.4409448414,
				"y": -0.8218172846,
				"z": -0.0134904189,
				"element": "C" 
			},
			{
				"x": -0.0545413211,
				"y": -2.0436686822,
				"z": -0.4822254612,
				"element": "C" 
			},
			{
				"x": 0.671323888,
				"y": -3.2220173261,
				"z": -0.2908388222,
				"element": "C" 
			},
			{
				"x": 1.9010403046,
				"y": -3.1958660067,
				"z": 0.3663873868,
				"element": "C" 
			},
			{
				"x": 2.4015236263,
				"y": -1.9796176775,
				"z": 0.8365651137,
				"element": "C" 
			},
			{
				"x": 1.6757510412,
				"y": -0.8040897553,
				"z": 0.6496460323,
				"element": "C" 
			},
			{
				"x": 1.4250982898,
				"y": 1.4973102171,
				"z": -1.1391932895,
				"element": "H" 
			},
			{
				"x": -0.1341516206,
				"y": 2.2314844877,
				"z": -1.5651181404,
				"element": "H" 
			},
			{
				"x": 0.3579501177,
				"y": 0.6850898405,
				"z": -2.2921227333,
				"element": "H" 
			},
			{
				"x": -2.1448060589,
				"y": 0.9252814536,
				"z": -0.8049280296,
				"element": "H" 
			},
			{
				"x": -1.9773626709,
				"y": -0.0654434776,
				"z": 1.7838947571,
				"element": "H" 
			},
			{
				"x": -2.2983881548,
				"y": 1.1347117534,
				"z": 3.929638326,
				"element": "H" 
			},
			{
				"x": -0.9759548256,
				"y": 3.1871863781,
				"z": 4.4180432602,
				"element": "H" 
			},
			{
				"x": 0.663570858,
				"y": 4.016468524,
				"z": 2.7419666795,
				"element": "H" 
			},
			{
				"x": 0.9784834855,
				"y": 2.822740455,
				"z": 0.6151259199,
				"element": "H" 
			},
			{
				"x": -1.0096266567,
				"y": -2.0657227154,
				"z": -0.9927130549,
				"element": "H" 
			},
			{
				"x": 0.2704955804,
				"y": -4.1629715123,
				"z": -0.658119184,
				"element": "H" 
			},
			{
				"x": 2.4636388763,
				"y": -4.1132674949,
				"z": 0.5148005975,
				"element": "H" 
			},
			{
				"x": 3.3553803252,
				"y": -1.9460274098,
				"z": 1.3557923031,
				"element": "H" 
			},
			{
				"x": 2.0664190656,
				"y": 0.1330141982,
				"z": 1.0365265292,
				"element": "H" 
			}
		],
		 "valence_orbital": [ 
			{
				"type": "occ",
				"energy": -0.28132,
				"method": "rhf"
			},
			{
				"type": "occ",
				"energy": -0.24997,
				"method": "rhf"
			},
			{
				"type": "occ",
				"energy": -0.2453,
				"method": "rhf"
			},
			{
				"type": "occ",
				"energy": -0.24102,
				"method": "rhf"
			},
			{
				"type": "occ",
				"energy": -0.23186,
				"method": "rhf"
			},
			{
				"type": "unocc",
				"energy": -0.00727,
				"method": "rhf"
			},
			{
				"type": "unocc",
				"energy": -0.00304,
				"method": "rhf"
			},
			{
				"type": "unocc",
				"energy": 0.00543,
				"method": "rhf"
			},
			{
				"type": "unocc",
				"energy": 0.01237,
				"method": "rhf"
			},
			{
				"type": "unocc",
				"energy": 0.08305,
				"method": "rhf"
			}
		],
		"cosmo_sigma_profile": { 
			"-0.025": 0.0,
			"-0.024": 0.0,
			"-0.023": 0.0,
			"-0.022": 0.0,
			"-0.021": 0.0,
			"-0.02": 0.0,
			"-0.019": 0.0,
			"-0.018": 0.0,
			"-0.017": 0.0,
			"-0.016": 0.146908207224,
			"-0.015": 0.550553344855,
			"-0.014": 1.0957674809,
			"-0.013": 0.640317367641,
			"-0.012": 0.740714231636,
			"-0.011": 0.617413303545,
			"-0.01": 0.575230809128,
			"-0.009": 0.911951984099,
			"-0.008": 1.06824689632,
			"-0.007": 1.13385149133,
			"-0.006": 5.60077209201,
			"-0.005": 18.7839090478,
			"-0.004": 23.732616069,
			"-0.003": 27.1981176608,
			"-0.002": 19.296190086,
			"-0.001": 18.5058677995,
			"0.0": 18.3815653582,
			"0.001": 16.1533594028,
			"0.002": 15.634598342,
			"0.003": 15.6561804014,
			"0.004": 17.4401510104,
			"0.005": 19.1053660833,
			"0.006": 16.7964018703,
			"0.007": 3.90286570238,
			"0.008": 1.24644969713,
			"0.009": 0.9650134416,
			"0.01": 2.17300929176,
			"0.011": 1.11371517928,
			"0.012": 0.197232656707,
			"0.013": 0.0,
			"0.014": 0.0,
			"0.015": 0.0,
			"0.016": 0.0,
			"0.017": 0.0,
			"0.018": 0.0,
			"0.019": 0.0,
			"0.02": 0.0,
			"0.021": 0.0,
			"0.022": 0.0,
			"0.023": 0.0,
			"0.024": 0.0,
			"0.025": 0.0
		}
	}
}
