{
	 "smiles": "NC1=C(C=CC(=C1)C(O)=O)N1CCSCC1", 
	 "Tm": 526.15, 
	 "num_atms": 30, 
	 "gaussian": { 
		 "optdone": 1, 
		 "sigma_profile": "yes", 
		 "theory": "DFT", 
		 "functional": "B3LYP", 
		 "basiset": "6-31G**", 
		 "properties": { 
			 "R2extent": 5508.9878, 
			 "electric_dipole_moment_norm": 5.45068141795, 
			 "electric_quadrupole_moment_norm": 32.4505246603, 
			 "total_energy": -1085.75311864, 
			 "HOMO_LUMO_gap": 0.16455, 
			 "cosmo_polarized_energy": -20.67, 
			 "cosmo_cavitation_energy": 33.12, 
			 "cosmo_dispersion_energy": -24.86, 
			 "cosmo_repulsion_energy": 1.87, 
			 "cosmo_total_nonelectrostatic_energy": 10.14, 
			 "SMD_solvation_energy": 5.33 
		},
		"coords": [
			{
				"x": -0.1804069274,
				"y": 3.5230998489,
				"z": -0.1820057843,
				"element": "N" 
			},
			{
				"x": -0.2711606,
				"y": 2.2470767065,
				"z": 0.3832534891,
				"element": "C" 
			},
			{
				"x": 0.7043123947,
				"y": 1.2624122038,
				"z": 0.0503105406,
				"element": "C" 
			},
			{
				"x": 0.638051174,
				"y": 0.0204152795,
				"z": 0.6991380039,
				"element": "C" 
			},
			{
				"x": -0.3737570068,
				"y": -0.2815416753,
				"z": 1.6065419313,
				"element": "C" 
			},
			{
				"x": -1.3761401602,
				"y": 0.6549809066,
				"z": 1.8691240281,
				"element": "C" 
			},
			{
				"x": -1.3054687481,
				"y": 1.9183413587,
				"z": 1.2626495241,
				"element": "C" 
			},
			{
				"x": -2.4599609157,
				"y": 0.2805345197,
				"z": 2.8269349271,
				"element": "C" 
			},
			{
				"x": -3.6195856593,
				"y": 0.9942185723,
				"z": 2.7408334901,
				"element": "O" 
			},
			{
				"x": -2.3575417733,
				"y": -0.6017083086,
				"z": 3.6476890732,
				"element": "O" 
			},
			{
				"x": 1.7396014103,
				"y": 1.6314726958,
				"z": -0.84410401,
				"element": "N" 
			},
			{
				"x": 1.3615948651,
				"y": 1.9469254331,
				"z": -2.2337020433,
				"element": "C" 
			},
			{
				"x": 1.3192897966,
				"y": 0.7227865936,
				"z": -3.1542996651,
				"element": "C" 
			},
			{
				"x": 2.9658882742,
				"y": -0.0732345883,
				"z": -3.3106529308,
				"element": "S" 
			},
			{
				"x": 3.2785251568,
				"y": -0.2904042432,
				"z": -1.5156015343,
				"element": "C" 
			},
			{
				"x": 3.0587678998,
				"y": 1.0073994719,
				"z": -0.7179173415,
				"element": "C" 
			},
			{
				"x": 0.7809959678,
				"y": 3.7924650892,
				"z": -0.3638491593,
				"element": "H" 
			},
			{
				"x": -0.6772233775,
				"y": 4.2375948033,
				"z": 0.3345226565,
				"element": "H" 
			},
			{
				"x": 1.3883010898,
				"y": -0.7316573088,
				"z": 0.4857307373,
				"element": "H" 
			},
			{
				"x": -0.4141336098,
				"y": -1.2458851592,
				"z": 2.0999601315,
				"element": "H" 
			},
			{
				"x": -2.0129989526,
				"y": 2.7003919742,
				"z": 1.5326586411,
				"element": "H" 
			},
			{
				"x": -3.616154622,
				"y": 1.521534307,
				"z": 1.9299536512,
				"element": "H" 
			},
			{
				"x": 0.3836604282,
				"y": 2.4345026319,
				"z": -2.2239657193,
				"element": "H" 
			},
			{
				"x": 2.0905665434,
				"y": 2.6644849177,
				"z": -2.6320440455,
				"element": "H" 
			},
			{
				"x": 1.0307533184,
				"y": 1.0196930714,
				"z": -4.1669360088,
				"element": "H" 
			},
			{
				"x": 0.5878111358,
				"y": -0.008353155,
				"z": -2.7933788076,
				"element": "H" 
			},
			{
				"x": 2.6531351492,
				"y": -1.107493782,
				"z": -1.1449470849,
				"element": "H" 
			},
			{
				"x": 4.323031169,
				"y": -0.6034223023,
				"z": -1.4262714848,
				"element": "H" 
			},
			{
				"x": 3.2454216012,
				"y": 0.8210104659,
				"z": 0.344811115,
				"element": "H" 
			},
			{
				"x": 3.8005249783,
				"y": 1.7414596716,
				"z": -1.0589363206,
				"element": "H" 
			}
		],
		 "valence_orbital": [ 
			{
				"type": "occ",
				"energy": -0.28279,
				"method": "rhf"
			},
			{
				"type": "occ",
				"energy": -0.26397,
				"method": "rhf"
			},
			{
				"type": "occ",
				"energy": -0.24304,
				"method": "rhf"
			},
			{
				"type": "occ",
				"energy": -0.2264,
				"method": "rhf"
			},
			{
				"type": "occ",
				"energy": -0.20449,
				"method": "rhf"
			},
			{
				"type": "unocc",
				"energy": -0.03994,
				"method": "rhf"
			},
			{
				"type": "unocc",
				"energy": -0.00614,
				"method": "rhf"
			},
			{
				"type": "unocc",
				"energy": 0.02863,
				"method": "rhf"
			},
			{
				"type": "unocc",
				"energy": 0.05643,
				"method": "rhf"
			},
			{
				"type": "unocc",
				"energy": 0.06706,
				"method": "rhf"
			}
		],
		"cosmo_sigma_profile": { 
			"-0.025": 0.0,
			"-0.024": 0.0,
			"-0.023": 0.0,
			"-0.022": 0.0,
			"-0.021": 0.0,
			"-0.02": 0.0,
			"-0.019": 0.0,
			"-0.018": 0.194777598516,
			"-0.017": 0.86700613099,
			"-0.016": 1.05753846432,
			"-0.015": 0.854069349397,
			"-0.014": 0.572710450471,
			"-0.013": 1.39504299139,
			"-0.012": 3.02077238017,
			"-0.011": 3.09786754012,
			"-0.01": 3.81604552653,
			"-0.009": 4.52229045721,
			"-0.008": 3.57366870256,
			"-0.007": 5.40883024299,
			"-0.006": 10.2113133929,
			"-0.005": 16.1621093196,
			"-0.004": 24.3007732934,
			"-0.003": 24.140529335,
			"-0.002": 20.6476810756,
			"-0.001": 14.8820939572,
			"0.0": 11.9575264268,
			"0.001": 12.0272091132,
			"0.002": 12.0417131579,
			"0.003": 13.2796238727,
			"0.004": 12.7473022534,
			"0.005": 13.1857267988,
			"0.006": 7.78275850281,
			"0.007": 5.67041469273,
			"0.008": 5.49252823058,
			"0.009": 6.36994922089,
			"0.01": 6.5846307579,
			"0.011": 7.12054974509,
			"0.012": 6.36425211614,
			"0.013": 3.37501638907,
			"0.014": 0.563827298662,
			"0.015": 0.0,
			"0.016": 0.0,
			"0.017": 0.0,
			"0.018": 0.0,
			"0.019": 0.0,
			"0.02": 0.0,
			"0.021": 0.0,
			"0.022": 0.0,
			"0.023": 0.0,
			"0.024": 0.0,
			"0.025": 0.0
		}
	}
}
