{
	 "smiles": "NC(=O)CCCO", 
	 "Tm": 316.15, 
	 "num_atms": 16, 
	 "gaussian": { 
		 "optdone": 1, 
		 "sigma_profile": "yes", 
		 "theory": "DFT", 
		 "functional": "B3LYP", 
		 "basiset": "6-31G**", 
		 "properties": { 
			 "R2extent": 1179.3469, 
			 "electric_dipole_moment_norm": 3.15911653156, 
			 "electric_quadrupole_moment_norm": 15.4274045021, 
			 "total_energy": -363.058939741, 
			 "HOMO_LUMO_gap": 0.27675, 
			 "cosmo_polarized_energy": -15.57, 
			 "cosmo_cavitation_energy": 19.44, 
			 "cosmo_dispersion_energy": -14.46, 
			 "cosmo_repulsion_energy": 1.29, 
			 "cosmo_total_nonelectrostatic_energy": 6.26, 
			 "SMD_solvation_energy": 4.23 
		},
		"coords": [
			{
				"x": 0.0176514398,
				"y": 1.7025939851,
				"z": 1.9153904609,
				"element": "N" 
			},
			{
				"x": 0.7523947548,
				"y": 0.5981532071,
				"z": 1.5809628221,
				"element": "C" 
			},
			{
				"x": 1.9013537716,
				"y": 0.4401497845,
				"z": 1.9706847217,
				"element": "O" 
			},
			{
				"x": 0.0184030682,
				"y": -0.4349650268,
				"z": 0.728923165,
				"element": "C" 
			},
			{
				"x": 0.9698404175,
				"y": -1.1757247535,
				"z": -0.2150438703,
				"element": "C" 
			},
			{
				"x": 0.2973622251,
				"y": -2.3216149034,
				"z": -0.9562863363,
				"element": "C" 
			},
			{
				"x": -0.7662722111,
				"y": -1.7857934177,
				"z": -1.740121645,
				"element": "O" 
			},
			{
				"x": -0.8977705524,
				"y": 1.8768497211,
				"z": 1.5350244347,
				"element": "H" 
			},
			{
				"x": 0.4594269744,
				"y": 2.4150531576,
				"z": 2.476465294,
				"element": "H" 
			},
			{
				"x": -0.80075902,
				"y": 0.0202309997,
				"z": 0.1634568343,
				"element": "H" 
			},
			{
				"x": -0.4431801626,
				"y": -1.1520171573,
				"z": 1.4231610934,
				"element": "H" 
			},
			{
				"x": 1.815881847,
				"y": -1.5590718875,
				"z": 0.3638179422,
				"element": "H" 
			},
			{
				"x": 1.3811170858,
				"y": -0.4728818663,
				"z": -0.9491859987,
				"element": "H" 
			},
			{
				"x": -0.0809503356,
				"y": -3.0624799351,
				"z": -0.2315113163,
				"element": "H" 
			},
			{
				"x": 1.0385613357,
				"y": -2.8327237347,
				"z": -1.5908247705,
				"element": "H" 
			},
			{
				"x": -1.2023606382,
				"y": -2.5160581727,
				"z": -2.1956128311,
				"element": "H" 
			}
		],
		 "valence_orbital": [ 
			{
				"type": "occ",
				"energy": -0.33631,
				"method": "rhf"
			},
			{
				"type": "occ",
				"energy": -0.32211,
				"method": "rhf"
			},
			{
				"type": "occ",
				"energy": -0.26642,
				"method": "rhf"
			},
			{
				"type": "occ",
				"energy": -0.26108,
				"method": "rhf"
			},
			{
				"type": "occ",
				"energy": -0.24075,
				"method": "rhf"
			},
			{
				"type": "unocc",
				"energy": 0.036,
				"method": "rhf"
			},
			{
				"type": "unocc",
				"energy": 0.07368,
				"method": "rhf"
			},
			{
				"type": "unocc",
				"energy": 0.08086,
				"method": "rhf"
			},
			{
				"type": "unocc",
				"energy": 0.12381,
				"method": "rhf"
			},
			{
				"type": "unocc",
				"energy": 0.12468,
				"method": "rhf"
			}
		],
		"cosmo_sigma_profile": { 
			"-0.025": 0.0,
			"-0.024": 0.0,
			"-0.023": 0.0,
			"-0.022": 0.0,
			"-0.021": 0.0,
			"-0.02": 0.0,
			"-0.019": 0.0,
			"-0.018": 0.0,
			"-0.017": 0.0,
			"-0.016": 0.225558290405,
			"-0.015": 1.16792418592,
			"-0.014": 2.21450359131,
			"-0.013": 3.64115421714,
			"-0.012": 2.51724331361,
			"-0.011": 3.30901880888,
			"-0.01": 3.23824854293,
			"-0.009": 3.48021509322,
			"-0.008": 3.35024746214,
			"-0.007": 2.16300137525,
			"-0.006": 3.60820249972,
			"-0.005": 4.36373402245,
			"-0.004": 7.78431294602,
			"-0.003": 17.8169121826,
			"-0.002": 16.2047543643,
			"-0.001": 10.1863333343,
			"0.0": 8.07340843149,
			"0.001": 4.75725534013,
			"0.002": 4.96876449482,
			"0.003": 4.74520220505,
			"0.004": 4.18018270535,
			"0.005": 3.65425382326,
			"0.006": 3.19316147595,
			"0.007": 3.41468970888,
			"0.008": 3.7003083004,
			"0.009": 2.02813758946,
			"0.01": 2.78716592745,
			"0.011": 2.73866030171,
			"0.012": 3.49259561684,
			"0.013": 3.8761860689,
			"0.014": 6.77759392009,
			"0.015": 2.76032445262,
			"0.016": 0.0168420373502,
			"0.017": 0.0,
			"0.018": 0.0,
			"0.019": 0.0,
			"0.02": 0.0,
			"0.021": 0.0,
			"0.022": 0.0,
			"0.023": 0.0,
			"0.024": 0.0,
			"0.025": 0.0
		}
	}
}
