{
	 "smiles": "NC(=O)C#CC(N)=O", 
	 "Tm": 511.15, 
	 "num_atms": 12, 
	 "gaussian": { 
		 "optdone": 1, 
		 "sigma_profile": "yes", 
		 "theory": "DFT", 
		 "functional": "B3LYP", 
		 "basiset": "6-31G**", 
		 "properties": { 
			 "R2extent": 1524.3493, 
			 "electric_dipole_moment_norm": 0.000412310562562, 
			 "electric_quadrupole_moment_norm": 23.9779808047, 
			 "total_energy": -414.736978147, 
			 "HOMO_LUMO_gap": 0.20285, 
			 "cosmo_polarized_energy": -19.7, 
			 "cosmo_cavitation_energy": 18.93, 
			 "cosmo_dispersion_energy": -13.57, 
			 "cosmo_repulsion_energy": 1.22, 
			 "cosmo_total_nonelectrostatic_energy": 6.59, 
			 "SMD_solvation_energy": 5.81 
		},
		"coords": [
			{
				"x": -0.8344602568,
				"y": 2.4968328732,
				"z": -1.8374537052,
				"element": "N" 
			},
			{
				"x": 0.0999205264,
				"y": 1.88491272,
				"z": -1.0558768732,
				"element": "C" 
			},
			{
				"x": 1.2990015482,
				"y": 2.1144159446,
				"z": -1.1128972612,
				"element": "O" 
			},
			{
				"x": -0.4617737313,
				"y": 0.9066911646,
				"z": -0.1221885982,
				"element": "C" 
			},
			{
				"x": -0.8643584926,
				"y": 0.0856463237,
				"z": 0.6723128329,
				"element": "C" 
			},
			{
				"x": -1.4261241289,
				"y": -0.8915529349,
				"z": 1.607045541,
				"element": "C" 
			},
			{
				"x": -0.4914876844,
				"y": -1.5041243575,
				"z": 2.3878328346,
				"element": "N" 
			},
			{
				"x": -2.625052992,
				"y": -1.1218820264,
				"z": 1.663439689,
				"element": "O" 
			},
			{
				"x": -1.8153596556,
				"y": 2.2799436368,
				"z": -1.7612262666,
				"element": "H" 
			},
			{
				"x": -0.5216342176,
				"y": 3.1839921464,
				"z": -2.5067241547,
				"element": "H" 
			},
			{
				"x": -0.804105405,
				"y": -2.1916608688,
				"z": 3.0568194593,
				"element": "H" 
			},
			{
				"x": 0.4894344896,
				"y": -1.2875146217,
				"z": 2.3111165024,
				"element": "H" 
			}
		],
		 "valence_orbital": [ 
			{
				"type": "occ",
				"energy": -0.29912,
				"method": "rhf"
			},
			{
				"type": "occ",
				"energy": -0.28375,
				"method": "rhf"
			},
			{
				"type": "occ",
				"energy": -0.28349,
				"method": "rhf"
			},
			{
				"type": "occ",
				"energy": -0.27423,
				"method": "rhf"
			},
			{
				"type": "occ",
				"energy": -0.2666,
				"method": "rhf"
			},
			{
				"type": "unocc",
				"energy": -0.06375,
				"method": "rhf"
			},
			{
				"type": "unocc",
				"energy": 0.01872,
				"method": "rhf"
			},
			{
				"type": "unocc",
				"energy": 0.03815,
				"method": "rhf"
			},
			{
				"type": "unocc",
				"energy": 0.07616,
				"method": "rhf"
			},
			{
				"type": "unocc",
				"energy": 0.08292,
				"method": "rhf"
			}
		],
		"cosmo_sigma_profile": { 
			"-0.025": 0.0,
			"-0.024": 0.0,
			"-0.023": 0.0,
			"-0.022": 0.0,
			"-0.021": 0.0,
			"-0.02": 0.0,
			"-0.019": 0.0,
			"-0.018": 0.0,
			"-0.017": 0.0,
			"-0.016": 0.838613396132,
			"-0.015": 4.80132677179,
			"-0.014": 2.95353547112,
			"-0.013": 5.76530218568,
			"-0.012": 4.26093450273,
			"-0.011": 4.49932950791,
			"-0.01": 3.5119890324,
			"-0.009": 4.06328962947,
			"-0.008": 4.41083370668,
			"-0.007": 2.69563634663,
			"-0.006": 2.5482154665,
			"-0.005": 3.83128620567,
			"-0.004": 2.84802182341,
			"-0.003": 5.07213004305,
			"-0.002": 9.21697640429,
			"-0.001": 6.89788752815,
			"0.0": 8.06420363523,
			"0.001": 10.1011889274,
			"0.002": 12.0466151086,
			"0.003": 6.76833223264,
			"0.004": 3.58126196685,
			"0.005": 2.77251022517,
			"0.006": 3.2647066644,
			"0.007": 2.59918836711,
			"0.008": 2.12413836358,
			"0.009": 3.62239497878,
			"0.01": 3.67036645207,
			"0.011": 4.14199969967,
			"0.012": 11.0314887386,
			"0.013": 8.63856736544,
			"0.014": 0.959382032818,
			"0.015": 0.0,
			"0.016": 0.0,
			"0.017": 0.0,
			"0.018": 0.0,
			"0.019": 0.0,
			"0.02": 0.0,
			"0.021": 0.0,
			"0.022": 0.0,
			"0.023": 0.0,
			"0.024": 0.0,
			"0.025": 0.0
		}
	}
}
