{
	 "smiles": "C1CCCC(CC1)NC1=C2C=CC=NC2=CC=C1", 
	 "Tm": 374.15, 
	 "num_atms": 38, 
	 "gaussian": { 
		 "optdone": 1, 
		 "sigma_profile": "yes", 
		 "theory": "DFT", 
		 "functional": "B3LYP", 
		 "basiset": "6-31G**", 
		 "properties": { 
			 "R2extent": 5689.3085, 
			 "electric_dipole_moment_norm": 3.19147370505, 
			 "electric_quadrupole_moment_norm": 13.3729406579, 
			 "total_energy": -731.274063019, 
			 "HOMO_LUMO_gap": 0.15779, 
			 "cosmo_polarized_energy": -9.12, 
			 "cosmo_cavitation_energy": 37.7, 
			 "cosmo_dispersion_energy": -26.8, 
			 "cosmo_repulsion_energy": 2.06, 
			 "cosmo_total_nonelectrostatic_energy": 12.96, 
			 "SMD_solvation_energy": 2.9 
		},
		"coords": [
			{
				"x": 2.9478149284,
				"y": 1.8260101782,
				"z": -1.1079300032,
				"element": "C" 
			},
			{
				"x": 1.7841955255,
				"y": 1.7702015217,
				"z": -2.1142577416,
				"element": "C" 
			},
			{
				"x": 1.3375049161,
				"y": 0.3628018975,
				"z": -2.5620813148,
				"element": "C" 
			},
			{
				"x": 1.3728244715,
				"y": -0.7594002034,
				"z": -1.5036888926,
				"element": "C" 
			},
			{
				"x": 0.901423086,
				"y": -0.3878030794,
				"z": -0.0794630427,
				"element": "C" 
			},
			{
				"x": 2.025127883,
				"y": 0.2401893557,
				"z": 0.7649585316,
				"element": "C" 
			},
			{
				"x": 2.5033427297,
				"y": 1.6407084609,
				"z": 0.3532663731,
				"element": "C" 
			},
			{
				"x": 0.4033667007,
				"y": -1.5752886725,
				"z": 0.6686106139,
				"element": "N" 
			},
			{
				"x": -0.8052967691,
				"y": -2.1786361258,
				"z": 0.2494803036,
				"element": "C" 
			},
			{
				"x": -2.053440334,
				"y": -1.5147610548,
				"z": 0.5038215136,
				"element": "C" 
			},
			{
				"x": -2.1570173216,
				"y": -0.3060019817,
				"z": 1.2370735857,
				"element": "C" 
			},
			{
				"x": -3.3920369032,
				"y": 0.2716168617,
				"z": 1.4229480017,
				"element": "C" 
			},
			{
				"x": -4.5300157722,
				"y": -0.3686764897,
				"z": 0.8758827837,
				"element": "C" 
			},
			{
				"x": -4.4918422521,
				"y": -1.516619048,
				"z": 0.2298119093,
				"element": "N" 
			},
			{
				"x": -3.2750365324,
				"y": -2.1126782161,
				"z": 0.0510995575,
				"element": "C" 
			},
			{
				"x": -3.2436716539,
				"y": -3.3857294929,
				"z": -0.5773465396,
				"element": "C" 
			},
			{
				"x": -2.0432639689,
				"y": -4.0355599608,
				"z": -0.7446925879,
				"element": "C" 
			},
			{
				"x": -0.8286001231,
				"y": -3.4287662686,
				"z": -0.3487717795,
				"element": "C" 
			},
			{
				"x": 3.4311676974,
				"y": 2.8075310977,
				"z": -1.1874072184,
				"element": "H" 
			},
			{
				"x": 3.7199056793,
				"y": 1.0890354442,
				"z": -1.3699100959,
				"element": "H" 
			},
			{
				"x": 0.9310862802,
				"y": 2.3029048451,
				"z": -1.6726261309,
				"element": "H" 
			},
			{
				"x": 2.0493548523,
				"y": 2.3402748006,
				"z": -3.0128993339,
				"element": "H" 
			},
			{
				"x": 1.9631259414,
				"y": 0.039279034,
				"z": -3.4035787041,
				"element": "H" 
			},
			{
				"x": 0.3193764135,
				"y": 0.4408365866,
				"z": -2.9634393693,
				"element": "H" 
			},
			{
				"x": 2.3919199357,
				"y": -1.1638684899,
				"z": -1.4254932881,
				"element": "H" 
			},
			{
				"x": 0.7489810625,
				"y": -1.5808982813,
				"z": -1.8740640591,
				"element": "H" 
			},
			{
				"x": 0.0616915699,
				"y": 0.3125443138,
				"z": -0.1486523608,
				"element": "H" 
			},
			{
				"x": 1.6825029531,
				"y": 0.2778410808,
				"z": 1.8054313209,
				"element": "H" 
			},
			{
				"x": 2.8814873083,
				"y": -0.4514122516,
				"z": 0.7507179625,
				"element": "H" 
			},
			{
				"x": 3.3330616634,
				"y": 1.9145227819,
				"z": 1.0171540545,
				"element": "H" 
			},
			{
				"x": 1.7034250679,
				"y": 2.3662605515,
				"z": 0.5593943767,
				"element": "H" 
			},
			{
				"x": 1.1421981217,
				"y": -2.2732644828,
				"z": 0.7004167342,
				"element": "H" 
			},
			{
				"x": -1.2634841984,
				"y": 0.1309409201,
				"z": 1.6695247197,
				"element": "H" 
			},
			{
				"x": -3.5056342083,
				"y": 1.1915894875,
				"z": 1.9879341147,
				"element": "H" 
			},
			{
				"x": -5.5136671729,
				"y": 0.0850666613,
				"z": 0.9971084586,
				"element": "H" 
			},
			{
				"x": -4.1861436413,
				"y": -3.8163394166,
				"z": -0.8973569846,
				"element": "H" 
			},
			{
				"x": -2.0141000848,
				"y": -5.0161456808,
				"z": -1.2114138432,
				"element": "H" 
			},
			{
				"x": 0.1104661488,
				"y": -3.9460066841,
				"z": -0.5305616251,
				"element": "H" 
			}
		],
		 "valence_orbital": [ 
			{
				"type": "occ",
				"energy": -0.29922,
				"method": "rhf"
			},
			{
				"type": "occ",
				"energy": -0.2557,
				"method": "rhf"
			},
			{
				"type": "occ",
				"energy": -0.24706,
				"method": "rhf"
			},
			{
				"type": "occ",
				"energy": -0.24469,
				"method": "rhf"
			},
			{
				"type": "occ",
				"energy": -0.2025,
				"method": "rhf"
			},
			{
				"type": "unocc",
				"energy": -0.04471,
				"method": "rhf"
			},
			{
				"type": "unocc",
				"energy": -0.01066,
				"method": "rhf"
			},
			{
				"type": "unocc",
				"energy": 0.02933,
				"method": "rhf"
			},
			{
				"type": "unocc",
				"energy": 0.07656,
				"method": "rhf"
			},
			{
				"type": "unocc",
				"energy": 0.08273,
				"method": "rhf"
			}
		],
		"cosmo_sigma_profile": { 
			"-0.025": 0.0,
			"-0.024": 0.0,
			"-0.023": 0.0,
			"-0.022": 0.0,
			"-0.021": 0.0,
			"-0.02": 0.0,
			"-0.019": 0.0,
			"-0.018": 0.0,
			"-0.017": 0.0,
			"-0.016": 0.0,
			"-0.015": 0.0,
			"-0.014": 0.0,
			"-0.013": 0.0,
			"-0.012": 0.0,
			"-0.011": 0.615214549843,
			"-0.01": 1.07746794862,
			"-0.009": 1.49284417249,
			"-0.008": 2.07899675085,
			"-0.007": 2.66464949647,
			"-0.006": 8.91849320504,
			"-0.005": 13.5135693244,
			"-0.004": 14.0758883797,
			"-0.003": 15.5768698716,
			"-0.002": 37.400895552,
			"-0.001": 42.9160729221,
			"0.0": 40.5058968715,
			"0.001": 33.0439474232,
			"0.002": 21.5339340708,
			"0.003": 18.9170532096,
			"0.004": 13.4417037647,
			"0.005": 9.45396999367,
			"0.006": 3.2274360014,
			"0.007": 2.39136498229,
			"0.008": 2.43550840243,
			"0.009": 2.41318031712,
			"0.01": 0.787911608533,
			"0.011": 1.45869266595,
			"0.012": 1.83263041677,
			"0.013": 0.832032338259,
			"0.014": 0.858926149556,
			"0.015": 0.564113498443,
			"0.016": 1.01595091167,
			"0.017": 0.186361499031,
			"0.018": 0.0,
			"0.019": 0.0,
			"0.02": 0.0,
			"0.021": 0.0,
			"0.022": 0.0,
			"0.023": 0.0,
			"0.024": 0.0,
			"0.025": 0.0
		}
	}
}
