{
	 "smiles": "CCOC(=S)C(=S)OCC", 
	 "Tm": 300.15, 
	 "num_atms": 20, 
	 "gaussian": { 
		 "optdone": 1, 
		 "sigma_profile": "yes", 
		 "theory": "DFT", 
		 "functional": "B3LYP", 
		 "basiset": "6-31G**", 
		 "properties": { 
			 "R2extent": 3028.4224, 
			 "electric_dipole_moment_norm": 5.02046674822, 
			 "electric_quadrupole_moment_norm": 16.3024312444, 
			 "total_energy": -1181.45070705, 
			 "HOMO_LUMO_gap": 0.14419, 
			 "cosmo_polarized_energy": -11.61, 
			 "cosmo_cavitation_energy": 27.41, 
			 "cosmo_dispersion_energy": -19.84, 
			 "cosmo_repulsion_energy": 1.59, 
			 "cosmo_total_nonelectrostatic_energy": 9.16, 
			 "SMD_solvation_energy": 3.66 
		},
		"coords": [
			{
				"x": -2.6828763797,
				"y": 0.6894915549,
				"z": -0.2352205978,
				"element": "C" 
			},
			{
				"x": -1.5104799329,
				"y": 0.1824983966,
				"z": -1.0512776778,
				"element": "C" 
			},
			{
				"x": -1.2488781777,
				"y": -1.1818821013,
				"z": -0.6108875013,
				"element": "O" 
			},
			{
				"x": -0.1359525633,
				"y": -1.8291661573,
				"z": -0.9425947125,
				"element": "C" 
			},
			{
				"x": 0.128655941,
				"y": -3.3812223398,
				"z": -0.4690209623,
				"element": "S" 
			},
			{
				"x": 0.892250759,
				"y": -1.1337176355,
				"z": -1.7979105635,
				"element": "C" 
			},
			{
				"x": 0.645425301,
				"y": -1.019542746,
				"z": -3.4193996495,
				"element": "S" 
			},
			{
				"x": 1.9911853196,
				"y": -0.6500797474,
				"z": -1.2269172854,
				"element": "O" 
			},
			{
				"x": 2.2379831685,
				"y": -0.7737614679,
				"z": 0.2040801359,
				"element": "C" 
			},
			{
				"x": 3.3925143254,
				"y": 0.1521587599,
				"z": 0.5315303146,
				"element": "C" 
			},
			{
				"x": -2.4441131504,
				"y": 0.7034640723,
				"z": 0.8316848913,
				"element": "H" 
			},
			{
				"x": -2.9331206064,
				"y": 1.707427888,
				"z": -0.5490931448,
				"element": "H" 
			},
			{
				"x": -3.5605290109,
				"y": 0.0556378169,
				"z": -0.3859545124,
				"element": "H" 
			},
			{
				"x": -1.7305378159,
				"y": 0.1562534984,
				"z": -2.1215123865,
				"element": "H" 
			},
			{
				"x": -0.6140646772,
				"y": 0.7930700241,
				"z": -0.898295123,
				"element": "H" 
			},
			{
				"x": 2.4717909209,
				"y": -1.8197532758,
				"z": 0.4179993471,
				"element": "H" 
			},
			{
				"x": 1.3308033496,
				"y": -0.5034166936,
				"z": 0.7551745204,
				"element": "H" 
			},
			{
				"x": 3.140262776,
				"y": 1.1919605594,
				"z": 0.3064392191,
				"element": "H" 
			},
			{
				"x": 4.2811763338,
				"y": -0.1213841367,
				"z": -0.0431178694,
				"element": "H" 
			},
			{
				"x": 3.6317041195,
				"y": 0.0748637309,
				"z": 1.5964935579,
				"element": "H" 
			}
		],
		 "valence_orbital": [ 
			{
				"type": "occ",
				"energy": -0.33959,
				"method": "rhf"
			},
			{
				"type": "occ",
				"energy": -0.27449,
				"method": "rhf"
			},
			{
				"type": "occ",
				"energy": -0.26923,
				"method": "rhf"
			},
			{
				"type": "occ",
				"energy": -0.24005,
				"method": "rhf"
			},
			{
				"type": "occ",
				"energy": -0.22715,
				"method": "rhf"
			},
			{
				"type": "unocc",
				"energy": -0.08296,
				"method": "rhf"
			},
			{
				"type": "unocc",
				"energy": -0.05518,
				"method": "rhf"
			},
			{
				"type": "unocc",
				"energy": 0.06239,
				"method": "rhf"
			},
			{
				"type": "unocc",
				"energy": 0.08164,
				"method": "rhf"
			},
			{
				"type": "unocc",
				"energy": 0.08768,
				"method": "rhf"
			}
		],
		"cosmo_sigma_profile": { 
			"-0.025": 0.0,
			"-0.024": 0.0,
			"-0.023": 0.0,
			"-0.022": 0.0,
			"-0.021": 0.0,
			"-0.02": 0.0,
			"-0.019": 0.0,
			"-0.018": 0.0,
			"-0.017": 0.0,
			"-0.016": 0.0,
			"-0.015": 0.0,
			"-0.014": 0.0,
			"-0.013": 0.0467978033808,
			"-0.012": 0.237934149532,
			"-0.011": 0.557694433591,
			"-0.01": 0.547461320396,
			"-0.009": 1.22166496214,
			"-0.008": 2.30856558776,
			"-0.007": 5.68753040859,
			"-0.006": 9.81880291418,
			"-0.005": 20.487230258,
			"-0.004": 21.535849222,
			"-0.003": 17.1236080469,
			"-0.002": 15.9288450417,
			"-0.001": 18.7463518357,
			"0.0": 12.9013237328,
			"0.001": 10.9058710875,
			"0.002": 11.2200746965,
			"0.003": 13.6916782839,
			"0.004": 13.8602251833,
			"0.005": 12.167046347,
			"0.006": 9.48458450972,
			"0.007": 9.19204594845,
			"0.008": 8.53316781883,
			"0.009": 5.29569254836,
			"0.01": 0.578288360741,
			"0.011": 0.0,
			"0.012": 0.0,
			"0.013": 0.0,
			"0.014": 0.0,
			"0.015": 0.0,
			"0.016": 0.0,
			"0.017": 0.0,
			"0.018": 0.0,
			"0.019": 0.0,
			"0.02": 0.0,
			"0.021": 0.0,
			"0.022": 0.0,
			"0.023": 0.0,
			"0.024": 0.0,
			"0.025": 0.0
		}
	}
}
