{
	 "smiles": "C[C@@H](CCC(O)=O)[C@H]1CCC2C3CC[C@@H]4CCCC[C@]4(C)C3C[C@H](O)[C@]12C", 
	 "Tm": 460.15, 
	 "num_atms": 67, 
	 "gaussian": { 
		 "optdone": 1, 
		 "sigma_profile": "yes", 
		 "theory": "DFT", 
		 "functional": "B3LYP", 
		 "basiset": "6-31G**", 
		 "properties": { 
			 "R2extent": 14360.0493, 
			 "electric_dipole_moment_norm": 4.18836837563, 
			 "electric_quadrupole_moment_norm": 26.146545951, 
			 "total_energy": -1164.35973936, 
			 "HOMO_LUMO_gap": 0.26607, 
			 "cosmo_polarized_energy": -18.19, 
			 "cosmo_cavitation_energy": 55.35, 
			 "cosmo_dispersion_energy": -38.38, 
			 "cosmo_repulsion_energy": 2.8, 
			 "cosmo_total_nonelectrostatic_energy": 19.77, 
			 "SMD_solvation_energy": 8.08 
		},
		"coords": [
			{
				"x": 1.1901980714,
				"y": 0.4123038599,
				"z": 3.87908379,
				"element": "C" 
			},
			{
				"x": 1.5065191774,
				"y": 1.5443578762,
				"z": 2.8823682349,
				"element": "C" 
			},
			{
				"x": 2.9960428456,
				"y": 1.5457841571,
				"z": 2.4677875925,
				"element": "C" 
			},
			{
				"x": 3.964352653,
				"y": 1.745215728,
				"z": 3.6462299817,
				"element": "C" 
			},
			{
				"x": 4.3819604682,
				"y": 0.4422223045,
				"z": 4.3243480925,
				"element": "C" 
			},
			{
				"x": 4.8281976669,
				"y": 0.5616280788,
				"z": 5.6049236619,
				"element": "O" 
			},
			{
				"x": 4.3854649863,
				"y": -0.6376392031,
				"z": 3.7877766349,
				"element": "O" 
			},
			{
				"x": 0.4608542598,
				"y": 1.6178713396,
				"z": 1.7312440318,
				"element": "C" 
			},
			{
				"x": 0.6030477721,
				"y": 2.8690765127,
				"z": 0.8076366188,
				"element": "C" 
			},
			{
				"x": -0.0787489834,
				"y": 2.5048593515,
				"z": -0.5422580308,
				"element": "C" 
			},
			{
				"x": -0.76403896,
				"y": 1.1575753415,
				"z": -0.2581912926,
				"element": "C" 
			},
			{
				"x": -1.2594389833,
				"y": 0.3066385477,
				"z": -1.4363917633,
				"element": "C" 
			},
			{
				"x": -2.2565359547,
				"y": 1.1089402702,
				"z": -2.3220578349,
				"element": "C" 
			},
			{
				"x": -3.4696657727,
				"y": 0.2811353485,
				"z": -2.7624358388,
				"element": "C" 
			},
			{
				"x": -3.0868249482,
				"y": -1.1335471029,
				"z": -3.2139598269,
				"element": "C" 
			},
			{
				"x": -4.3337875351,
				"y": -1.8436827822,
				"z": -3.7929852999,
				"element": "C" 
			},
			{
				"x": -4.1660738148,
				"y": -3.3592784817,
				"z": -3.9300799081,
				"element": "C" 
			},
			{
				"x": -3.8854805687,
				"y": -4.0125114444,
				"z": -2.5536904727,
				"element": "C" 
			},
			{
				"x": -3.3780453628,
				"y": -2.9975691621,
				"z": -1.5073165455,
				"element": "C" 
			},
			{
				"x": -2.3701295615,
				"y": -1.9623676175,
				"z": -2.0683438869,
				"element": "C" 
			},
			{
				"x": -1.156748284,
				"y": -2.7019173463,
				"z": -2.6781804788,
				"element": "C" 
			},
			{
				"x": -1.9075137329,
				"y": -1.0048601186,
				"z": -0.9064769972,
				"element": "C" 
			},
			{
				"x": -1.0122155356,
				"y": -1.7077571794,
				"z": 0.1438867594,
				"element": "C" 
			},
			{
				"x": -0.529007897,
				"y": -0.7981307711,
				"z": 1.2927400868,
				"element": "C" 
			},
			{
				"x": -1.6014544697,
				"y": -0.4634919815,
				"z": 2.179699733,
				"element": "O" 
			},
			{
				"x": 0.2073183921,
				"y": 0.4446836883,
				"z": 0.726605707,
				"element": "C" 
			},
			{
				"x": 1.508467422,
				"y": -0.0133170538,
				"z": 0.029595328,
				"element": "C" 
			},
			{
				"x": 1.5282453624,
				"y": -0.5591034491,
				"z": 3.5073784328,
				"element": "H" 
			},
			{
				"x": 0.115572689,
				"y": 0.3471453357,
				"z": 4.0693802153,
				"element": "H" 
			},
			{
				"x": 1.689523733,
				"y": 0.5743275879,
				"z": 4.8407550495,
				"element": "H" 
			},
			{
				"x": 1.3519407107,
				"y": 2.4919545615,
				"z": 3.4262171837,
				"element": "H" 
			},
			{
				"x": 3.2712614989,
				"y": 0.6068915374,
				"z": 1.9825114057,
				"element": "H" 
			},
			{
				"x": 3.1750065704,
				"y": 2.3464901234,
				"z": 1.7439106995,
				"element": "H" 
			},
			{
				"x": 4.8974264385,
				"y": 2.2034592652,
				"z": 3.2896508294,
				"element": "H" 
			},
			{
				"x": 3.5459943662,
				"y": 2.4432914613,
				"z": 4.3845968444,
				"element": "H" 
			},
			{
				"x": 4.7508501071,
				"y": 1.4803729196,
				"z": 5.8980381401,
				"element": "H" 
			},
			{
				"x": -0.4941968635,
				"y": 1.7238208507,
				"z": 2.2589624481,
				"element": "H" 
			},
			{
				"x": 1.650803779,
				"y": 3.1376091624,
				"z": 0.6432643679,
				"element": "H" 
			},
			{
				"x": 0.1355239252,
				"y": 3.7414891544,
				"z": 1.2767492954,
				"element": "H" 
			},
			{
				"x": 0.6657466099,
				"y": 2.3931893783,
				"z": -1.3394268905,
				"element": "H" 
			},
			{
				"x": -0.7823062555,
				"y": 3.2733930844,
				"z": -0.8758180908,
				"element": "H" 
			},
			{
				"x": -1.665252912,
				"y": 1.3989742342,
				"z": 0.3326047114,
				"element": "H" 
			},
			{
				"x": -0.3965816945,
				"y": 0.0325967973,
				"z": -2.057174943,
				"element": "H" 
			},
			{
				"x": -1.7324668947,
				"y": 1.4894569766,
				"z": -3.2070694838,
				"element": "H" 
			},
			{
				"x": -2.6103035532,
				"y": 1.9940550362,
				"z": -1.7790115063,
				"element": "H" 
			},
			{
				"x": -4.1956701437,
				"y": 0.209654833,
				"z": -1.9410556412,
				"element": "H" 
			},
			{
				"x": -3.9956179922,
				"y": 0.7963181057,
				"z": -3.5760562098,
				"element": "H" 
			},
			{
				"x": -2.3611152611,
				"y": -1.0257635134,
				"z": -4.033834269,
				"element": "H" 
			},
			{
				"x": -4.5770519701,
				"y": -1.3954470555,
				"z": -4.7640765341,
				"element": "H" 
			},
			{
				"x": -5.1974848235,
				"y": -1.6387967198,
				"z": -3.144460492,
				"element": "H" 
			},
			{
				"x": -5.0611871417,
				"y": -3.7976827689,
				"z": -4.3856555603,
				"element": "H" 
			},
			{
				"x": -3.3442139523,
				"y": -3.5671250791,
				"z": -4.6263769131,
				"element": "H" 
			},
			{
				"x": -3.1607575798,
				"y": -4.8261483343,
				"z": -2.6686002068,
				"element": "H" 
			},
			{
				"x": -4.798940521,
				"y": -4.4780415262,
				"z": -2.1654632786,
				"element": "H" 
			},
			{
				"x": -4.2337560531,
				"y": -2.4504795581,
				"z": -1.0893534846,
				"element": "H" 
			},
			{
				"x": -2.9350272076,
				"y": -3.5444700935,
				"z": -0.6684367571,
				"element": "H" 
			},
			{
				"x": -0.3622361347,
				"y": -2.0020172846,
				"z": -2.9598426724,
				"element": "H" 
			},
			{
				"x": -0.7291031945,
				"y": -3.4340406159,
				"z": -1.9864176494,
				"element": "H" 
			},
			{
				"x": -1.4389788174,
				"y": -3.2412890134,
				"z": -3.5857542542,
				"element": "H" 
			},
			{
				"x": -2.8295722879,
				"y": -0.7038403913,
				"z": -0.3821588188,
				"element": "H" 
			},
			{
				"x": -0.1308345097,
				"y": -2.1344397643,
				"z": -0.3426873678,
				"element": "H" 
			},
			{
				"x": -1.5512072902,
				"y": -2.5454037371,
				"z": 0.5974642546,
				"element": "H" 
			},
			{
				"x": 0.1568475074,
				"y": -1.3782110345,
				"z": 1.9178538446,
				"element": "H" 
			},
			{
				"x": -2.3120722193,
				"y": -0.0662022342,
				"z": 1.6604866899,
				"element": "H" 
			},
			{
				"x": 1.3171748068,
				"y": -0.570306367,
				"z": -0.890510849,
				"element": "H" 
			},
			{
				"x": 2.0893025921,
				"y": -0.6685446437,
				"z": 0.6861681024,
				"element": "H" 
			},
			{
				"x": 2.147901226,
				"y": 0.8321406188,
				"z": -0.2364087191,
				"element": "H" 
			}
		],
		 "valence_orbital": [ 
			{
				"type": "occ",
				"energy": -0.285,
				"method": "rhf"
			},
			{
				"type": "occ",
				"energy": -0.27202,
				"method": "rhf"
			},
			{
				"type": "occ",
				"energy": -0.26813,
				"method": "rhf"
			},
			{
				"type": "occ",
				"energy": -0.26245,
				"method": "rhf"
			},
			{
				"type": "occ",
				"energy": -0.25223,
				"method": "rhf"
			},
			{
				"type": "unocc",
				"energy": 0.01384,
				"method": "rhf"
			},
			{
				"type": "unocc",
				"energy": 0.05353,
				"method": "rhf"
			},
			{
				"type": "unocc",
				"energy": 0.05805,
				"method": "rhf"
			},
			{
				"type": "unocc",
				"energy": 0.07028,
				"method": "rhf"
			},
			{
				"type": "unocc",
				"energy": 0.07843,
				"method": "rhf"
			}
		],
		"cosmo_sigma_profile": { 
			"-0.025": 0.0,
			"-0.024": 0.0,
			"-0.023": 0.0,
			"-0.022": 0.0,
			"-0.021": 0.0,
			"-0.02": 0.0,
			"-0.019": 0.304509242225,
			"-0.018": 0.957040318693,
			"-0.017": 0.935993166935,
			"-0.016": 1.5186677549,
			"-0.015": 0.757255563906,
			"-0.014": 0.964027376056,
			"-0.013": 1.20010005903,
			"-0.012": 1.75037248207,
			"-0.011": 1.86765443866,
			"-0.01": 2.32206570088,
			"-0.009": 2.477521035,
			"-0.008": 2.35016293401,
			"-0.007": 4.22419250681,
			"-0.006": 5.72441605472,
			"-0.005": 6.00469484188,
			"-0.004": 6.78737074242,
			"-0.003": 21.7564748398,
			"-0.002": 58.2739385886,
			"-0.001": 75.4100335358,
			"0.0": 80.8386187881,
			"0.001": 55.3623575814,
			"0.002": 34.140793174,
			"0.003": 7.66514056724,
			"0.004": 3.97139426797,
			"0.005": 4.69623309009,
			"0.006": 3.76174910969,
			"0.007": 3.24568282381,
			"0.008": 4.65727307503,
			"0.009": 4.90849413659,
			"0.01": 5.12897487548,
			"0.011": 5.62640301305,
			"0.012": 6.43811631069,
			"0.013": 3.93612229448,
			"0.014": 1.4850713149,
			"0.015": 0.611947427135,
			"0.016": 0.0,
			"0.017": 0.0,
			"0.018": 0.0,
			"0.019": 0.0,
			"0.02": 0.0,
			"0.021": 0.0,
			"0.022": 0.0,
			"0.023": 0.0,
			"0.024": 0.0,
			"0.025": 0.0
		}
	}
}
