{
	 "smiles": "NCCNCCN", 
	 "Tm": 235.65, 
	 "num_atms": 20, 
	 "gaussian": { 
		 "optdone": 1, 
		 "sigma_profile": "yes", 
		 "theory": "DFT", 
		 "functional": "B3LYP", 
		 "basiset": "6-31G**", 
		 "properties": { 
			 "R2extent": 1383.2427, 
			 "electric_dipole_moment_norm": 3.3241454917, 
			 "electric_quadrupole_moment_norm": 9.43949380264, 
			 "total_energy": -324.500923909, 
			 "HOMO_LUMO_gap": 0.28962, 
			 "cosmo_polarized_energy": -9.53, 
			 "cosmo_cavitation_energy": 21.87, 
			 "cosmo_dispersion_energy": -16.2, 
			 "cosmo_repulsion_energy": 1.44, 
			 "cosmo_total_nonelectrostatic_energy": 7.12, 
			 "SMD_solvation_energy": 0.18 
		},
		"coords": [
			{
				"x": -2.1977053242,
				"y": -0.6544290775,
				"z": 1.424302463,
				"element": "N" 
			},
			{
				"x": -2.1421027235,
				"y": 0.1378303786,
				"z": 0.1944651303,
				"element": "C" 
			},
			{
				"x": -0.7858003473,
				"y": 0.1355838385,
				"z": -0.527003999,
				"element": "C" 
			},
			{
				"x": 0.2567168792,
				"y": 0.6505587482,
				"z": 0.3540345775,
				"element": "N" 
			},
			{
				"x": 1.6033788188,
				"y": 0.5752858778,
				"z": -0.1939150726,
				"element": "C" 
			},
			{
				"x": 2.5774200653,
				"y": 1.3478296934,
				"z": 0.6956437063,
				"element": "C" 
			},
			{
				"x": 2.1906011434,
				"y": 2.7648389678,
				"z": 0.7447531954,
				"element": "N" 
			},
			{
				"x": -2.0935162919,
				"y": -1.6399997285,
				"z": 1.1878107797,
				"element": "H" 
			},
			{
				"x": -1.3694330492,
				"y": -0.4201359624,
				"z": 1.9703644224,
				"element": "H" 
			},
			{
				"x": -2.9199251169,
				"y": -0.2165902876,
				"z": -0.4922846145,
				"element": "H" 
			},
			{
				"x": -2.4051015704,
				"y": 1.1755144796,
				"z": 0.4455881267,
				"element": "H" 
			},
			{
				"x": -0.5242598851,
				"y": -0.8979698514,
				"z": -0.7972018114,
				"element": "H" 
			},
			{
				"x": -0.866322491,
				"y": 0.6958985105,
				"z": -1.4801804017,
				"element": "H" 
			},
			{
				"x": 0.0791431651,
				"y": 1.6304588436,
				"z": 0.5726091994,
				"element": "H" 
			},
			{
				"x": 1.6706502325,
				"y": 0.9741391068,
				"z": -1.2277510454,
				"element": "H" 
			},
			{
				"x": 1.9161589367,
				"y": -0.4760998148,
				"z": -0.2489465704,
				"element": "H" 
			},
			{
				"x": 3.6072435988,
				"y": 1.1740590644,
				"z": 0.3408164608,
				"element": "H" 
			},
			{
				"x": 2.50896956,
				"y": 0.9470220352,
				"z": 1.7128634628,
				"element": "H" 
			},
			{
				"x": 2.6935235843,
				"y": 3.2464981863,
				"z": 1.4844773297,
				"element": "H" 
			},
			{
				"x": 2.4454608152,
				"y": 3.2251069917,
				"z": -0.126345339,
				"element": "H" 
			}
		],
		 "valence_orbital": [ 
			{
				"type": "occ",
				"energy": -0.34317,
				"method": "rhf"
			},
			{
				"type": "occ",
				"energy": -0.33145,
				"method": "rhf"
			},
			{
				"type": "occ",
				"energy": -0.24506,
				"method": "rhf"
			},
			{
				"type": "occ",
				"energy": -0.21989,
				"method": "rhf"
			},
			{
				"type": "occ",
				"energy": -0.21355,
				"method": "rhf"
			},
			{
				"type": "unocc",
				"energy": 0.07607,
				"method": "rhf"
			},
			{
				"type": "unocc",
				"energy": 0.09779,
				"method": "rhf"
			},
			{
				"type": "unocc",
				"energy": 0.12212,
				"method": "rhf"
			},
			{
				"type": "unocc",
				"energy": 0.12578,
				"method": "rhf"
			},
			{
				"type": "unocc",
				"energy": 0.13564,
				"method": "rhf"
			}
		],
		"cosmo_sigma_profile": { 
			"-0.025": 0.0,
			"-0.024": 0.0,
			"-0.023": 0.0,
			"-0.022": 0.0,
			"-0.021": 0.0,
			"-0.02": 0.0,
			"-0.019": 0.0,
			"-0.018": 0.0,
			"-0.017": 0.0,
			"-0.016": 0.0,
			"-0.015": 0.0,
			"-0.014": 0.0,
			"-0.013": 0.0,
			"-0.012": 0.0,
			"-0.011": 0.0,
			"-0.01": 1.18161937352,
			"-0.009": 3.75065962127,
			"-0.008": 3.83003173617,
			"-0.007": 4.25192169518,
			"-0.006": 5.82019339436,
			"-0.005": 5.97775989576,
			"-0.004": 7.85988825196,
			"-0.003": 16.3905047568,
			"-0.002": 23.6402876121,
			"-0.001": 25.9427056701,
			"0.0": 21.0043555143,
			"0.001": 9.67269463499,
			"0.002": 3.65329335588,
			"0.003": 3.84947414691,
			"0.004": 3.09213547958,
			"0.005": 2.00543110522,
			"0.006": 2.65178574427,
			"0.007": 3.3811460887,
			"0.008": 2.74541128762,
			"0.009": 2.56584291609,
			"0.01": 2.38898130171,
			"0.011": 1.39860258251,
			"0.012": 2.17851685961,
			"0.013": 2.29248675665,
			"0.014": 0.971390360152,
			"0.015": 1.15665756748,
			"0.016": 0.550874204167,
			"0.017": 0.965126856645,
			"0.018": 0.480986882469,
			"0.019": 0.794121833331,
			"0.02": 0.46069955687,
			"0.021": 0.297321068644,
			"0.022": 0.0,
			"0.023": 0.0,
			"0.024": 0.0,
			"0.025": 0.0
		}
	}
}
