{
	 "smiles": "OC(=O)C1=C(O)C=CC(=C1)S(=O)(=O)N1CCOCC1", 
	 "Tm": 508.15, 
	 "num_atms": 32, 
	 "gaussian": { 
		 "optdone": 1, 
		 "sigma_profile": "yes", 
		 "theory": "DFT", 
		 "functional": "B3LYP", 
		 "basiset": "6-31G**", 
		 "properties": { 
			 "R2extent": 6192.0327, 
			 "electric_dipole_moment_norm": 7.83540102675, 
			 "electric_quadrupole_moment_norm": 31.7478069028, 
			 "total_energy": -1331.19856791, 
			 "HOMO_LUMO_gap": 0.18474, 
			 "cosmo_polarized_energy": -29.91, 
			 "cosmo_cavitation_energy": 36.28, 
			 "cosmo_dispersion_energy": -26.59, 
			 "cosmo_repulsion_energy": 2.01, 
			 "cosmo_total_nonelectrostatic_energy": 11.7, 
			 "SMD_solvation_energy": 5.82 
		},
		"coords": [
			{
				"x": 0.047064605,
				"y": -2.0760744909,
				"z": 4.0478243004,
				"element": "O" 
			},
			{
				"x": -0.5552492582,
				"y": -1.5427697546,
				"z": 2.9699765089,
				"element": "C" 
			},
			{
				"x": -1.5346626508,
				"y": -2.0658015827,
				"z": 2.4874378783,
				"element": "O" 
			},
			{
				"x": 0.0267070753,
				"y": -0.2780849981,
				"z": 2.380740964,
				"element": "C" 
			},
			{
				"x": 1.190125173,
				"y": 0.3803725583,
				"z": 2.8274387227,
				"element": "C" 
			},
			{
				"x": 1.8681842686,
				"y": -0.1549032611,
				"z": 3.8916026359,
				"element": "O" 
			},
			{
				"x": 1.6403687715,
				"y": 1.5485612671,
				"z": 2.2054787019,
				"element": "C" 
			},
			{
				"x": 0.9426829673,
				"y": 2.0781640135,
				"z": 1.1253087072,
				"element": "C" 
			},
			{
				"x": -0.2120190515,
				"y": 1.4331153005,
				"z": 0.6720928784,
				"element": "C" 
			},
			{
				"x": -0.6657050234,
				"y": 0.2746067313,
				"z": 1.2976670749,
				"element": "C" 
			},
			{
				"x": -1.1027580306,
				"y": 2.0997521787,
				"z": -0.7429395509,
				"element": "S" 
			},
			{
				"x": -0.5720959339,
				"y": 3.4460879641,
				"z": -0.9664791204,
				"element": "O" 
			},
			{
				"x": -2.5251242659,
				"y": 1.8348312273,
				"z": -0.5267492787,
				"element": "O" 
			},
			{
				"x": -0.6413479747,
				"y": 1.1913563933,
				"z": -2.0676243978,
				"element": "N" 
			},
			{
				"x": -1.2347880031,
				"y": -0.1301227606,
				"z": -2.2885094117,
				"element": "C" 
			},
			{
				"x": -1.2570926114,
				"y": -0.4002166113,
				"z": -3.8009673948,
				"element": "C" 
			},
			{
				"x": -0.0824012589,
				"y": 0.0618208477,
				"z": -4.4724861096,
				"element": "O" 
			},
			{
				"x": 1.0163566346,
				"y": 0.2712235014,
				"z": -3.6094258214,
				"element": "C" 
			},
			{
				"x": 0.7212366012,
				"y": 1.3904457754,
				"z": -2.6001455493,
				"element": "C" 
			},
			{
				"x": 0.8201500381,
				"y": -1.5462551128,
				"z": 4.3095608631,
				"element": "H" 
			},
			{
				"x": 2.6194178365,
				"y": 0.400319905,
				"z": 4.1375942026,
				"element": "H" 
			},
			{
				"x": 2.5351312459,
				"y": 2.0450369469,
				"z": 2.5739734242,
				"element": "H" 
			},
			{
				"x": 1.267733693,
				"y": 2.9955741835,
				"z": 0.6474997711,
				"element": "H" 
			},
			{
				"x": -1.5763374137,
				"y": -0.2213204877,
				"z": 0.9807608537,
				"element": "H" 
			},
			{
				"x": -2.2561796264,
				"y": -0.1223672584,
				"z": -1.9057211109,
				"element": "H" 
			},
			{
				"x": -0.6793138321,
				"y": -0.9163179133,
				"z": -1.7554313602,
				"element": "H" 
			},
			{
				"x": -1.3878085438,
				"y": -1.4798701112,
				"z": -3.9688810196,
				"element": "H" 
			},
			{
				"x": -2.099731698,
				"y": 0.1261128045,
				"z": -4.2598710727,
				"element": "H" 
			},
			{
				"x": 1.3000782037,
				"y": -0.6558741415,
				"z": -3.0867109532,
				"element": "H" 
			},
			{
				"x": 1.8611806611,
				"y": 0.5633565776,
				"z": -4.2389113201,
				"element": "H" 
			},
			{
				"x": 1.4819454077,
				"y": 1.3668794057,
				"z": -1.8044145447,
				"element": "H" 
			},
			{
				"x": 0.7629519941,
				"y": 2.3682609024,
				"z": -3.0850894713,
				"element": "H" 
			}
		],
		 "valence_orbital": [ 
			{
				"type": "occ",
				"energy": -0.29021,
				"method": "rhf"
			},
			{
				"type": "occ",
				"energy": -0.27956,
				"method": "rhf"
			},
			{
				"type": "occ",
				"energy": -0.27689,
				"method": "rhf"
			},
			{
				"type": "occ",
				"energy": -0.2629,
				"method": "rhf"
			},
			{
				"type": "occ",
				"energy": -0.25254,
				"method": "rhf"
			},
			{
				"type": "unocc",
				"energy": -0.0678,
				"method": "rhf"
			},
			{
				"type": "unocc",
				"energy": -0.04576,
				"method": "rhf"
			},
			{
				"type": "unocc",
				"energy": 0.0218,
				"method": "rhf"
			},
			{
				"type": "unocc",
				"energy": 0.0305,
				"method": "rhf"
			},
			{
				"type": "unocc",
				"energy": 0.05115,
				"method": "rhf"
			}
		],
		"cosmo_sigma_profile": { 
			"-0.025": 0.0,
			"-0.024": 0.0,
			"-0.023": 0.0,
			"-0.022": 0.0,
			"-0.021": 0.0,
			"-0.02": 1.03719263335,
			"-0.019": 1.27197726747,
			"-0.018": 1.38232995188,
			"-0.017": 1.0541888395,
			"-0.016": 1.45361643831,
			"-0.015": 0.791632436909,
			"-0.014": 1.02891381822,
			"-0.013": 0.860207805394,
			"-0.012": 0.857966893245,
			"-0.011": 1.63654195783,
			"-0.01": 1.51558176052,
			"-0.009": 2.43864881723,
			"-0.008": 3.76937010061,
			"-0.007": 6.83763404598,
			"-0.006": 16.7460342694,
			"-0.005": 33.4833469408,
			"-0.004": 26.8020861086,
			"-0.003": 18.7086504595,
			"-0.002": 16.7373781051,
			"-0.001": 18.3718370012,
			"0.0": 17.9806806452,
			"0.001": 13.2714295533,
			"0.002": 8.57485418362,
			"0.003": 7.0569017993,
			"0.004": 8.17176927946,
			"0.005": 8.18029005895,
			"0.006": 6.53309343471,
			"0.007": 7.37611684953,
			"0.008": 7.80088028774,
			"0.009": 6.82937169678,
			"0.01": 12.42098904,
			"0.011": 15.2630196504,
			"0.012": 8.06680251525,
			"0.013": 3.24278537178,
			"0.014": 0.14435918694,
			"0.015": 0.0,
			"0.016": 0.0,
			"0.017": 0.0,
			"0.018": 0.0,
			"0.019": 0.0,
			"0.02": 0.0,
			"0.021": 0.0,
			"0.022": 0.0,
			"0.023": 0.0,
			"0.024": 0.0,
			"0.0": 0.0
		}
	}
}
