{
	 "smiles": "CCCNC(=S)NN", 
	 "Tm": 335.15, 
	 "num_atms": 19, 
	 "gaussian": { 
		 "optdone": 1, 
		 "sigma_profile": "yes", 
		 "theory": "DFT", 
		 "functional": "B3LYP", 
		 "basiset": "6-31G**", 
		 "properties": { 
			 "R2extent": 1749.9295, 
			 "electric_dipole_moment_norm": 4.81066216336, 
			 "electric_quadrupole_moment_norm": 11.4897209135, 
			 "total_energy": -721.485302806, 
			 "HOMO_LUMO_gap": 0.20659, 
			 "cosmo_polarized_energy": -15.88, 
			 "cosmo_cavitation_energy": 23.39, 
			 "cosmo_dispersion_energy": -17.4, 
			 "cosmo_repulsion_energy": 1.43, 
			 "cosmo_total_nonelectrostatic_energy": 7.42, 
			 "SMD_solvation_energy": 3.34 
		},
		"coords": [
			{
				"x": 0.2880174405,
				"y": 2.7858309602,
				"z": 1.541381787,
				"element": "C" 
			},
			{
				"x": -0.900923951,
				"y": 1.8226701476,
				"z": 1.5911817668,
				"element": "C" 
			},
			{
				"x": -1.6589707865,
				"y": 1.7211635206,
				"z": 0.2547603872,
				"element": "C" 
			},
			{
				"x": -0.8624862085,
				"y": 1.2120868873,
				"z": -0.8580497565,
				"element": "N" 
			},
			{
				"x": -0.6707477724,
				"y": -0.0876856703,
				"z": -1.2123949987,
				"element": "C" 
			},
			{
				"x": 0.1733239244,
				"y": -0.5025261793,
				"z": -2.6132492196,
				"element": "S" 
			},
			{
				"x": -1.2121436744,
				"y": -1.0230647303,
				"z": -0.3778916568,
				"element": "N" 
			},
			{
				"x": -1.0224320054,
				"y": -2.4080643375,
				"z": -0.5413654716,
				"element": "N" 
			},
			{
				"x": 1.0205764674,
				"y": 2.4689136276,
				"z": 0.7925757905,
				"element": "H" 
			},
			{
				"x": 0.798198804,
				"y": 2.8316297941,
				"z": 2.5079940452,
				"element": "H" 
			},
			{
				"x": -0.0367285637,
				"y": 3.8018936375,
				"z": 1.2882032927,
				"element": "H" 
			},
			{
				"x": -0.5515182624,
				"y": 0.8270170872,
				"z": 1.8946175829,
				"element": "H" 
			},
			{
				"x": -1.6162274229,
				"y": 2.1456706815,
				"z": 2.3583462388,
				"element": "H" 
			},
			{
				"x": -2.554888,
				"y": 1.0978754117,
				"z": 0.3659470643,
				"element": "H" 
			},
			{
				"x": -2.0134264052,
				"y": 2.7159176462,
				"z": -0.0363920885,
				"element": "H" 
			},
			{
				"x": -0.4525591095,
				"y": 1.8670889703,
				"z": -1.5063631473,
				"element": "H" 
			},
			{
				"x": -1.4735855607,
				"y": -0.7687080909,
				"z": 0.5626423136,
				"element": "H" 
			},
			{
				"x": -1.5802403973,
				"y": -2.6938366537,
				"z": -1.3460176634,
				"element": "H" 
			},
			{
				"x": -0.0531385164,
				"y": -2.5452727097,
				"z": -0.8366262665,
				"element": "H" 
			}
		],
		 "valence_orbital": [ 
			{
				"type": "occ",
				"energy": -0.35221,
				"method": "rhf"
			},
			{
				"type": "occ",
				"energy": -0.28358,
				"method": "rhf"
			},
			{
				"type": "occ",
				"energy": -0.26144,
				"method": "rhf"
			},
			{
				"type": "occ",
				"energy": -0.21213,
				"method": "rhf"
			},
			{
				"type": "occ",
				"energy": -0.2042,
				"method": "rhf"
			},
			{
				"type": "unocc",
				"energy": 0.00239,
				"method": "rhf"
			},
			{
				"type": "unocc",
				"energy": 0.05864,
				"method": "rhf"
			},
			{
				"type": "unocc",
				"energy": 0.07121,
				"method": "rhf"
			},
			{
				"type": "unocc",
				"energy": 0.09713,
				"method": "rhf"
			},
			{
				"type": "unocc",
				"energy": 0.10636,
				"method": "rhf"
			}
		],
		"cosmo_sigma_profile": { 
			"-0.025": 0.0,
			"-0.024": 0.0,
			"-0.023": 0.0,
			"-0.022": 0.0,
			"-0.021": 0.0,
			"-0.02": 0.0,
			"-0.019": 0.0,
			"-0.018": 0.0,
			"-0.017": 0.0,
			"-0.016": 0.0,
			"-0.015": 0.0,
			"-0.014": 0.898329920124,
			"-0.013": 1.56008394346,
			"-0.012": 2.770537859,
			"-0.011": 2.49626904451,
			"-0.01": 3.24356406141,
			"-0.009": 4.23050348556,
			"-0.008": 4.463726352,
			"-0.007": 5.60586675679,
			"-0.006": 6.34727287199,
			"-0.005": 8.10907696049,
			"-0.004": 10.3747811506,
			"-0.003": 18.8459664011,
			"-0.002": 16.2493725653,
			"-0.001": 14.6266322796,
			"0.0": 14.3714564739,
			"0.001": 13.2729765585,
			"0.002": 7.29693131702,
			"0.003": 3.88031383259,
			"0.004": 3.73048397262,
			"0.005": 2.74925578566,
			"0.006": 3.8528254172,
			"0.007": 4.29222909021,
			"0.008": 4.1509070621,
			"0.009": 4.24490416473,
			"0.01": 6.33929432968,
			"0.011": 6.95626504026,
			"0.012": 6.24701840478,
			"0.013": 1.70462204501,
			"0.014": 0.850273707845,
			"0.015": 0.53152928654,
			"0.016": 0.485436357956,
			"0.017": 0.0998454325677,
			"0.018": 0.0,
			"0.019": 0.0,
			"0.02": 0.0,
			"0.021": 0.0,
			"0.022": 0.0,
			"0.023": 0.0,
			"0.024": 0.0,
			"0.025": 0.0
		}
	}
}
