{
	 "smiles": "CCOC(=O)CC(O)(CC(=O)OCC)C(=O)OCC", 
	 "Tm": 227.15, 
	 "num_atms": 39, 
	 "gaussian": { 
		 "optdone": 1, 
		 "sigma_profile": "yes", 
		 "theory": "DFT", 
		 "functional": "B3LYP", 
		 "basiset": "6-31G**", 
		 "properties": { 
			 "R2extent": 5319.7821, 
			 "electric_dipole_moment_norm": 2.43516864919, 
			 "electric_quadrupole_moment_norm": 7.64630924303, 
			 "total_energy": -995.938765723, 
			 "HOMO_LUMO_gap": 0.2634, 
			 "cosmo_polarized_energy": -15.18, 
			 "cosmo_cavitation_energy": 41.71, 
			 "cosmo_dispersion_energy": -26.79, 
			 "cosmo_repulsion_energy": 2.11, 
			 "cosmo_total_nonelectrostatic_energy": 17.02, 
			 "SMD_solvation_energy": 9.17 
		},
		"coords": [
			{
				"x": 0.9256565098,
				"y": 1.4980593635,
				"z": -2.7308247798,
				"element": "C" 
			},
			{
				"x": 0.858572378,
				"y": 2.4480321386,
				"z": -1.5440386385,
				"element": "C" 
			},
			{
				"x": 1.2213357781,
				"y": 1.762714631,
				"z": -0.3199603839,
				"element": "O" 
			},
			{
				"x": 0.2289097015,
				"y": 1.1231903409,
				"z": 0.324175719,
				"element": "C" 
			},
			{
				"x": -0.9375451979,
				"y": 1.1565787026,
				"z": -0.0198180748,
				"element": "O" 
			},
			{
				"x": 0.7290791705,
				"y": 0.4110781874,
				"z": 1.5637515683,
				"element": "C" 
			},
			{
				"x": 0.4444945564,
				"y": -1.1024773576,
				"z": 1.6484370339,
				"element": "C" 
			},
			{
				"x": 0.7990037955,
				"y": -1.4487960323,
				"z": 2.9870078852,
				"element": "O" 
			},
			{
				"x": -1.0409562439,
				"y": -1.4960386494,
				"z": 1.4422008705,
				"element": "C" 
			},
			{
				"x": -1.5531178384,
				"y": -1.5289131556,
				"z": 0.015911267,
				"element": "C" 
			},
			{
				"x": -0.8673883922,
				"y": -1.7627008993,
				"z": -0.9607214428,
				"element": "O" 
			},
			{
				"x": -2.8872342094,
				"y": -1.3607114639,
				"z": -0.0087732087,
				"element": "O" 
			},
			{
				"x": -3.5335588943,
				"y": -1.3615434427,
				"z": -1.3051886972,
				"element": "C" 
			},
			{
				"x": -3.7748140312,
				"y": 0.0669034703,
				"z": -1.7683639025,
				"element": "C" 
			},
			{
				"x": 1.3411291685,
				"y": -1.9627054129,
				"z": 0.7354601676,
				"element": "C" 
			},
			{
				"x": 1.498187132,
				"y": -3.1467114537,
				"z": 0.9729992242,
				"element": "O" 
			},
			{
				"x": 1.9354192139,
				"y": -1.2881436949,
				"z": -0.24667678,
				"element": "O" 
			},
			{
				"x": 2.7166074142,
				"y": -2.0650417191,
				"z": -1.1930421236,
				"element": "C" 
			},
			{
				"x": 4.1419044423,
				"y": -2.2607813174,
				"z": -0.7017252454,
				"element": "C" 
			},
			{
				"x": 0.2252858455,
				"y": 0.669217194,
				"z": -2.6002379064,
				"element": "H" 
			},
			{
				"x": 0.667185207,
				"y": 2.0326132075,
				"z": -3.6511339822,
				"element": "H" 
			},
			{
				"x": 1.9342353988,
				"y": 1.0893280403,
				"z": -2.8431702659,
				"element": "H" 
			},
			{
				"x": 1.5877878959,
				"y": 3.2568531404,
				"z": -1.6317829472,
				"element": "H" 
			},
			{
				"x": -0.1419862188,
				"y": 2.8707681271,
				"z": -1.4291619223,
				"element": "H" 
			},
			{
				"x": 0.2166646465,
				"y": 0.8622352563,
				"z": 2.4206103746,
				"element": "H" 
			},
			{
				"x": 1.7998050896,
				"y": 0.5755510929,
				"z": 1.6851548527,
				"element": "H" 
			},
			{
				"x": 0.9860221826,
				"y": -2.4016138632,
				"z": 2.9681246535,
				"element": "H" 
			},
			{
				"x": -1.6760400625,
				"y": -0.8532491225,
				"z": 2.0540235936,
				"element": "H" 
			},
			{
				"x": -1.1451343438,
				"y": -2.5173600497,
				"z": 1.8290365554,
				"element": "H" 
			},
			{
				"x": -4.4728157312,
				"y": -1.9002180496,
				"z": -1.1531700378,
				"element": "H" 
			},
			{
				"x": -2.908447673,
				"y": -1.9138592645,
				"z": -2.0096027871,
				"element": "H" 
			},
			{
				"x": -2.827995713,
				"y": 0.603477348,
				"z": -1.8629545849,
				"element": "H" 
			},
			{
				"x": -4.402250891,
				"y": 0.6066466551,
				"z": -1.053311693,
				"element": "H" 
			},
			{
				"x": -4.2812865544,
				"y": 0.0629058935,
				"z": -2.7397096535,
				"element": "H" 
			},
			{
				"x": 2.68183326,
				"y": -1.4763470272,
				"z": -2.1118496315,
				"element": "H" 
			},
			{
				"x": 2.210559282,
				"y": -3.01890533,
				"z": -1.3544482143,
				"element": "H" 
			},
			{
				"x": 4.6202874565,
				"y": -1.2982970642,
				"z": -0.4976752294,
				"element": "H" 
			},
			{
				"x": 4.1560390095,
				"y": -2.8646864488,
				"z": 0.2085480858,
				"element": "H" 
			},
			{
				"x": 4.7280674605,
				"y": -2.7796519708,
				"z": -1.4675997184,
				"element": "H" 
			}
		],
		 "valence_orbital": [ 
			{
				"type": "occ",
				"energy": -0.29188,
				"method": "rhf"
			},
			{
				"type": "occ",
				"energy": -0.28894,
				"method": "rhf"
			},
			{
				"type": "occ",
				"energy": -0.2754,
				"method": "rhf"
			},
			{
				"type": "occ",
				"energy": -0.27123,
				"method": "rhf"
			},
			{
				"type": "occ",
				"energy": -0.2649,
				"method": "rhf"
			},
			{
				"type": "unocc",
				"energy": -0.0015,
				"method": "rhf"
			},
			{
				"type": "unocc",
				"energy": 0.01215,
				"method": "rhf"
			},
			{
				"type": "unocc",
				"energy": 0.02187,
				"method": "rhf"
			},
			{
				"type": "unocc",
				"energy": 0.08207,
				"method": "rhf"
			},
			{
				"type": "unocc",
				"energy": 0.10176,
				"method": "rhf"
			}
		],
		"cosmo_sigma_profile": { 
			"-0.025": 0.0,
			"-0.024": 0.0,
			"-0.023": 0.0,
			"-0.022": 0.0,
			"-0.021": 0.0,
			"-0.02": 0.0,
			"-0.019": 0.0,
			"-0.018": 0.0,
			"-0.017": 0.0,
			"-0.016": 0.0,
			"-0.015": 0.0,
			"-0.014": 0.0,
			"-0.013": 0.503916122283,
			"-0.012": 0.534925241591,
			"-0.011": 0.289877936585,
			"-0.01": 1.33763840304,
			"-0.009": 0.750107070375,
			"-0.008": 1.69784709709,
			"-0.007": 5.70364855833,
			"-0.006": 11.0569305592,
			"-0.005": 22.7780443468,
			"-0.004": 36.2321979524,
			"-0.003": 36.8549960904,
			"-0.002": 32.2146009473,
			"-0.001": 31.2158429624,
			"0.0": 29.4123298549,
			"0.001": 16.6615416282,
			"0.002": 10.0300563531,
			"0.003": 11.7847109399,
			"0.004": 12.8193823628,
			"0.005": 12.0643454205,
			"0.006": 9.5490842192,
			"0.007": 9.34281699701,
			"0.008": 7.71701616624,
			"0.009": 8.09481149568,
			"0.01": 6.90585301122,
			"0.011": 6.63811366943,
			"0.012": 2.63483225014,
			"0.013": 0.403595597813,
			"0.014": 0.0,
			"0.015": 0.0,
			"0.016": 0.0,
			"0.017": 0.0,
			"0.018": 0.0,
			"0.019": 0.0,
			"0.02": 0.0,
			"0.021": 0.0,
			"0.022": 0.0,
			"0.023": 0.0,
			"0.024": 0.0,
			"0.025": 0.0
		}
	}
}
