{
	 "smiles": "C1=CC2=CC=C3C4=CC=CC=C4C=CC3=C2C=C1", 
	 "Tm": 531.15, 
	 "num_atms": 30, 
	 "gaussian": { 
		 "optdone": 1, 
		 "sigma_profile": "yes", 
		 "theory": "DFT", 
		 "functional": "B3LYP", 
		 "basiset": "6-31G**", 
		 "properties": { 
			 "R2extent": 5006.4264, 
			 "electric_dipole_moment_norm": 0.0, 
			 "electric_quadrupole_moment_norm": 14.1591774408, 
			 "total_energy": -693.186034995, 
			 "HOMO_LUMO_gap": 0.15587, 
			 "cosmo_polarized_energy": -7.2, 
			 "cosmo_cavitation_energy": 32.46, 
			 "cosmo_dispersion_energy": -24.58, 
			 "cosmo_repulsion_energy": 1.79, 
			 "cosmo_total_nonelectrostatic_energy": 9.67, 
			 "SMD_solvation_energy": 4.61 
		},
		"coords": [
			{
				"x": -1.2964106651,
				"y": -4.6353906264,
				"z": 1.9653358088,
				"element": "C" 
			},
			{
				"x": -0.0173338223,
				"y": -4.34734024,
				"z": 1.5390159891,
				"element": "C" 
			},
			{
				"x": 0.300354544,
				"y": -3.0822306633,
				"z": 0.9870917977,
				"element": "C" 
			},
			{
				"x": 1.6239573365,
				"y": -2.7833725056,
				"z": 0.5456878349,
				"element": "C" 
			},
			{
				"x": 1.9355721748,
				"y": -1.5668624034,
				"z": 0.0134587674,
				"element": "C" 
			},
			{
				"x": 0.9557369048,
				"y": -0.5332037185,
				"z": -0.1287693537,
				"element": "C" 
			},
			{
				"x": 1.2968062987,
				"y": 0.7599468658,
				"z": -0.6970014403,
				"element": "C" 
			},
			{
				"x": 2.6011427274,
				"y": 1.0909926972,
				"z": -1.1456661809,
				"element": "C" 
			},
			{
				"x": 2.8870891108,
				"y": 2.332043436,
				"z": -1.6807108148,
				"element": "C" 
			},
			{
				"x": 1.8799657322,
				"y": 3.3118168493,
				"z": -1.795960882,
				"element": "C" 
			},
			{
				"x": 0.6008878704,
				"y": 3.0237673353,
				"z": -1.3696425522,
				"element": "C" 
			},
			{
				"x": 0.2831986174,
				"y": 1.7586577813,
				"z": -0.8177192906,
				"element": "C" 
			},
			{
				"x": -1.0404051549,
				"y": 1.4597995902,
				"z": -0.3763164294,
				"element": "C" 
			},
			{
				"x": -1.3520201555,
				"y": 0.2432895621,
				"z": 0.1559124756,
				"element": "C" 
			},
			{
				"x": -0.3721851709,
				"y": -0.7903696322,
				"z": 0.2981409826,
				"element": "C" 
			},
			{
				"x": -0.7132540517,
				"y": -2.0835199978,
				"z": 0.866374363,
				"element": "C" 
			},
			{
				"x": -2.0175894841,
				"y": -2.414567047,
				"z": 1.3150411509,
				"element": "C" 
			},
			{
				"x": -2.3035352226,
				"y": -3.6556174577,
				"z": 1.8500864933,
				"element": "C" 
			},
			{
				"x": -1.5291409128,
				"y": -5.608763608,
				"z": 2.3870716476,
				"element": "H" 
			},
			{
				"x": 0.7716630843,
				"y": -5.0908272859,
				"z": 1.620287175,
				"element": "H" 
			},
			{
				"x": 2.3886830165,
				"y": -3.5498754507,
				"z": 0.6416285527,
				"element": "H" 
			},
			{
				"x": 2.9544279778,
				"y": -1.3866507977,
				"z": -0.3076307052,
				"element": "H" 
			},
			{
				"x": 3.4016875078,
				"y": 0.3640942464,
				"z": -1.073452944,
				"element": "H" 
			},
			{
				"x": 3.8966600261,
				"y": 2.5532576627,
				"z": -2.0149038334,
				"element": "H" 
			},
			{
				"x": 2.1126964604,
				"y": 4.2851898086,
				"z": -2.2176968945,
				"element": "H" 
			},
			{
				"x": -0.1881084902,
				"y": 3.7672549991,
				"z": -1.4509143768,
				"element": "H" 
			},
			{
				"x": -1.8051296713,
				"y": 2.226303415,
				"z": -0.4722578942,
				"element": "H" 
			},
			{
				"x": -2.3708763172,
				"y": 0.0630784451,
				"z": 0.4770010236,
				"element": "H" 
			},
			{
				"x": -2.8181350116,
				"y": -1.6876692499,
				"z": 1.2428283331,
				"element": "H" 
			},
			{
				"x": -3.3131052598,
				"y": -3.8768320098,
				"z": 2.1842811968,
				"element": "H" 
			}
		],
		 "valence_orbital": [ 
			{
				"type": "occ",
				"energy": -0.27838,
				"method": "rhf"
			},
			{
				"type": "occ",
				"energy": -0.26987,
				"method": "rhf"
			},
			{
				"type": "occ",
				"energy": -0.23794,
				"method": "rhf"
			},
			{
				"type": "occ",
				"energy": -0.22136,
				"method": "rhf"
			},
			{
				"type": "occ",
				"energy": -0.20296,
				"method": "rhf"
			},
			{
				"type": "unocc",
				"energy": -0.04709,
				"method": "rhf"
			},
			{
				"type": "unocc",
				"energy": -0.03155,
				"method": "rhf"
			},
			{
				"type": "unocc",
				"energy": -0.01678,
				"method": "rhf"
			},
			{
				"type": "unocc",
				"energy": 0.02399,
				"method": "rhf"
			},
			{
				"type": "unocc",
				"energy": 0.02715,
				"method": "rhf"
			}
		],
		"cosmo_sigma_profile": { 
			"-0.025": 0.0,
			"-0.024": 0.0,
			"-0.023": 0.0,
			"-0.022": 0.0,
			"-0.021": 0.0,
			"-0.02": 0.0,
			"-0.019": 0.0,
			"-0.018": 0.0,
			"-0.017": 0.0,
			"-0.016": 0.0,
			"-0.015": 0.0,
			"-0.014": 0.0,
			"-0.013": 0.0,
			"-0.012": 0.0,
			"-0.011": 0.0,
			"-0.01": 0.0,
			"-0.009": 0.268085356465,
			"-0.008": 2.89207948327,
			"-0.007": 3.03764565875,
			"-0.006": 17.2127761638,
			"-0.005": 21.8130444467,
			"-0.004": 23.7135653877,
			"-0.003": 18.8054663292,
			"-0.002": 14.2750260286,
			"-0.001": 14.6229768368,
			"0.0": 12.88091386,
			"0.001": 13.7388599122,
			"0.002": 18.7084695251,
			"0.003": 32.0501226178,
			"0.004": 40.2923449234,
			"0.005": 24.3975426195,
			"0.006": 3.37612192976,
			"0.007": 0.0,
			"0.008": 0.0,
			"0.009": 0.0,
			"0.01": 0.0,
			"0.011": 0.0,
			"0.012": 0.0,
			"0.013": 0.0,
			"0.014": 0.0,
			"0.015": 0.0,
			"0.016": 0.0,
			"0.017": 0.0,
			"0.018": 0.0,
			"0.019": 0.0,
			"0.02": 0.0,
			"0.021": 0.0,
			"0.022": 0.0,
			"0.023": 0.0,
			"0.024": 0.0,
			"0.025": 0.0
		}
	}
}
