{
	 "smiles": "CN1C2=CC=C(C=C2C(=NCC1=O)C1=CC=CC=C1)[N+]([O-])=O", 
	 "Tm": 430.15, 
	 "num_atms": 35, 
	 "gaussian": { 
		 "optdone": 1, 
		 "sigma_profile": "yes", 
		 "theory": "DFT", 
		 "functional": "B3LYP", 
		 "basiset": "6-31G**", 
		 "properties": { 
			 "R2extent": 7123.2483, 
			 "electric_dipole_moment_norm": 2.07089566372, 
			 "electric_quadrupole_moment_norm": 31.0973975045, 
			 "total_energy": -1007.36391718, 
			 "HOMO_LUMO_gap": 0.15111, 
			 "cosmo_polarized_energy": -17.0, 
			 "cosmo_cavitation_energy": 39.18, 
			 "cosmo_dispersion_energy": -27.55, 
			 "cosmo_repulsion_energy": 2.09, 
			 "cosmo_total_nonelectrostatic_energy": 13.72, 
			 "SMD_solvation_energy": 6.93 
		},
		"coords": [
			{
				"x": 2.4047955713,
				"y": 3.0807742448,
				"z": 1.3961332202,
				"element": "C" 
			},
			{
				"x": 1.2432208152,
				"y": 2.4156906146,
				"z": 0.7925955302,
				"element": "N" 
			},
			{
				"x": 0.4655925149,
				"y": 1.5397942689,
				"z": 1.5731602074,
				"element": "C" 
			},
			{
				"x": 0.3489968355,
				"y": 1.7882581477,
				"z": 2.9575290892,
				"element": "C" 
			},
			{
				"x": -0.3926926798,
				"y": 0.957740751,
				"z": 3.7807187409,
				"element": "C" 
			},
			{
				"x": -1.0293555669,
				"y": -0.1482461613,
				"z": 3.2174006917,
				"element": "C" 
			},
			{
				"x": -0.9101070717,
				"y": -0.4408013694,
				"z": 1.8660771837,
				"element": "C" 
			},
			{
				"x": -0.158468734,
				"y": 0.3875331056,
				"z": 1.0218016812,
				"element": "C" 
			},
			{
				"x": -0.0375370018,
				"y": 0.0298770142,
				"z": -0.4224524309,
				"element": "C" 
			},
			{
				"x": -0.1515255834,
				"y": 0.88291102,
				"z": -1.3780408939,
				"element": "N" 
			},
			{
				"x": -0.4174468856,
				"y": 2.2711974252,
				"z": -1.0397299698,
				"element": "C" 
			},
			{
				"x": 0.8317360131,
				"y": 2.917423846,
				"z": -0.4497740803,
				"element": "C" 
			},
			{
				"x": 1.4511495893,
				"y": 3.8041260732,
				"z": -1.0068087582,
				"element": "O" 
			},
			{
				"x": 0.2093331624,
				"y": -1.3942606479,
				"z": -0.7949989703,
				"element": "C" 
			},
			{
				"x": 0.8892573601,
				"y": -2.2795423856,
				"z": 0.0570004168,
				"element": "C" 
			},
			{
				"x": 1.1424147286,
				"y": -3.5928642944,
				"z": -0.3404552099,
				"element": "C" 
			},
			{
				"x": 0.7157299603,
				"y": -4.0408415697,
				"z": -1.5906883941,
				"element": "C" 
			},
			{
				"x": 0.041440063,
				"y": -3.1658323503,
				"z": -2.4479363715,
				"element": "C" 
			},
			{
				"x": -0.2060149929,
				"y": -1.8537289767,
				"z": -2.0567129802,
				"element": "C" 
			},
			{
				"x": -1.8316949322,
				"y": -1.0282924319,
				"z": 4.0739943261,
				"element": "N" 
			},
			{
				"x": -2.3977388511,
				"y": -1.9834569156,
				"z": 3.5430053285,
				"element": "O" 
			},
			{
				"x": -1.8875931739,
				"y": -0.7556347539,
				"z": 5.2736116742,
				"element": "O" 
			},
			{
				"x": 2.9009794564,
				"y": 2.3904728477,
				"z": 2.0797292503,
				"element": "H" 
			},
			{
				"x": 3.0811471099,
				"y": 3.3621919657,
				"z": 0.5903479152,
				"element": "H" 
			},
			{
				"x": 2.1249403699,
				"y": 3.9937133951,
				"z": 1.9344158108,
				"element": "H" 
			},
			{
				"x": 0.8283800032,
				"y": 2.66131257,
				"z": 3.3834511794,
				"element": "H" 
			},
			{
				"x": -0.499419965,
				"y": 1.155786957,
				"z": 4.8398194774,
				"element": "H" 
			},
			{
				"x": -1.3980881032,
				"y": -1.3240827897,
				"z": 1.4742744576,
				"element": "H" 
			},
			{
				"x": -0.6557702176,
				"y": 2.8262256273,
				"z": -1.947266497,
				"element": "H" 
			},
			{
				"x": -1.2521351846,
				"y": 2.3775634908,
				"z": -0.3289220103,
				"element": "H" 
			},
			{
				"x": 1.2385225166,
				"y": -1.9391624936,
				"z": 1.02632318,
				"element": "H" 
			},
			{
				"x": 1.6752636337,
				"y": -4.2633333637,
				"z": 0.3272924244,
				"element": "H" 
			},
			{
				"x": 0.9068513473,
				"y": -5.0652509154,
				"z": -1.8969467427,
				"element": "H" 
			},
			{
				"x": -0.294017241,
				"y": -3.5097692335,
				"z": -3.4220428823,
				"element": "H" 
			},
			{
				"x": -0.7200448656,
				"y": -1.1625927122,
				"z": -2.7153055938,
				"element": "H" 
			}
		],
		 "valence_orbital": [ 
			{
				"type": "occ",
				"energy": -0.27791,
				"method": "rhf"
			},
			{
				"type": "occ",
				"energy": -0.26799,
				"method": "rhf"
			},
			{
				"type": "occ",
				"energy": -0.26012,
				"method": "rhf"
			},
			{
				"type": "occ",
				"energy": -0.24997,
				"method": "rhf"
			},
			{
				"type": "occ",
				"energy": -0.24698,
				"method": "rhf"
			},
			{
				"type": "unocc",
				"energy": -0.09587,
				"method": "rhf"
			},
			{
				"type": "unocc",
				"energy": -0.06899,
				"method": "rhf"
			},
			{
				"type": "unocc",
				"energy": -0.0356,
				"method": "rhf"
			},
			{
				"type": "unocc",
				"energy": -0.01838,
				"method": "rhf"
			},
			{
				"type": "unocc",
				"energy": -0.00909,
				"method": "rhf"
			}
		],
		"cosmo_sigma_profile": { 
			"-0.025": 0.0,
			"-0.024": 0.0,
			"-0.023": 0.0,
			"-0.022": 0.0,
			"-0.021": 0.0,
			"-0.02": 0.0,
			"-0.019": 0.0,
			"-0.018": 0.0,
			"-0.017": 0.0,
			"-0.016": 0.0,
			"-0.015": 0.0,
			"-0.014": 0.0,
			"-0.013": 0.0,
			"-0.012": 0.0,
			"-0.011": 0.0,
			"-0.01": 0.0,
			"-0.009": 0.602550643514,
			"-0.008": 4.26973664192,
			"-0.007": 9.44878811642,
			"-0.006": 22.4310136152,
			"-0.005": 26.8712701983,
			"-0.004": 29.9869013809,
			"-0.003": 28.4615768892,
			"-0.002": 25.8347703979,
			"-0.001": 25.0478978598,
			"0.0": 18.2755977627,
			"0.001": 16.0181167727,
			"0.002": 14.3323042315,
			"0.003": 13.4386368312,
			"0.004": 15.4186552382,
			"0.005": 12.5523127726,
			"0.006": 8.00078937976,
			"0.007": 9.60855057589,
			"0.008": 9.71056929144,
			"0.009": 6.57529967602,
			"0.01": 6.22299490568,
			"0.011": 3.33314608524,
			"0.012": 5.23271241636,
			"0.013": 2.22551687873,
			"0.014": 0.242959849808,
			"0.015": 0.0,
			"0.016": 0.0,
			"0.017": 0.0,
			"0.018": 0.0,
			"0.019": 0.0,
			"0.02": 0.0,
			"0.021": 0.0,
			"0.022": 0.0,
			"0.023": 0.0,
			"0.024": 0.0,
			"0.025": 0.0
		}
	}
}
