{
	 "smiles": "ClC1=CC=CC2=NC=CC=C12", 
	 "Tm": 318.15, 
	 "num_atms": 17, 
	 "gaussian": { 
		 "optdone": 1, 
		 "sigma_profile": "yes", 
		 "theory": "DFT", 
		 "functional": "B3LYP", 
		 "basiset": "6-31G**", 
		 "properties": { 
			 "R2extent": 2225.7741, 
			 "electric_dipole_moment_norm": 0.278146436253, 
			 "electric_quadrupole_moment_norm": 10.5106831491, 
			 "total_energy": -861.52267405, 
			 "HOMO_LUMO_gap": 0.17288, 
			 "cosmo_polarized_energy": -5.89, 
			 "cosmo_cavitation_energy": 22.64, 
			 "cosmo_dispersion_energy": -17.32, 
			 "cosmo_repulsion_energy": 1.36, 
			 "cosmo_total_nonelectrostatic_energy": 6.68, 
			 "SMD_solvation_energy": 2.04 
		},
		"coords": [
			{
				"x": -1.9310515323,
				"y": 1.6419255165,
				"z": 2.7588832601,
				"element": "Cl" 
			},
			{
				"x": -0.9809543411,
				"y": 0.28385304,
				"z": 2.1597452168,
				"element": "C" 
			},
			{
				"x": -0.9034892224,
				"y": -0.8562970801,
				"z": 2.9256580692,
				"element": "C" 
			},
			{
				"x": -0.1468089889,
				"y": -1.9610976562,
				"z": 2.4668106953,
				"element": "C" 
			},
			{
				"x": 0.5138378508,
				"y": -1.9095955563,
				"z": 1.2619820229,
				"element": "C" 
			},
			{
				"x": 0.446306313,
				"y": -0.7421078643,
				"z": 0.4570248633,
				"element": "C" 
			},
			{
				"x": 1.1203601628,
				"y": -0.7430888583,
				"z": -0.7297098279,
				"element": "N" 
			},
			{
				"x": 1.0591850012,
				"y": 0.3389069426,
				"z": -1.4781112508,
				"element": "C" 
			},
			{
				"x": 0.3360031054,
				"y": 1.5057953539,
				"z": -1.1273863937,
				"element": "C" 
			},
			{
				"x": -0.3504679729,
				"y": 1.5296727868,
				"z": 0.0631107389,
				"element": "C" 
			},
			{
				"x": -0.3162230236,
				"y": 0.3892046336,
				"z": 0.905218799,
				"element": "C" 
			},
			{
				"x": -1.4220002975,
				"y": -0.9035606903,
				"z": 3.8766686623,
				"element": "H" 
			},
			{
				"x": -0.0957362452,
				"y": -2.8535092371,
				"z": 3.0831215543,
				"element": "H" 
			},
			{
				"x": 1.099616324,
				"y": -2.7426882745,
				"z": 0.8891780712,
				"element": "H" 
			},
			{
				"x": 1.6072812403,
				"y": 0.3079721297,
				"z": -2.4192460328,
				"element": "H" 
			},
			{
				"x": 0.331045397,
				"y": 2.3610649713,
				"z": -1.795415886,
				"element": "H" 
			},
			{
				"x": -0.9159037707,
				"y": 2.4032498426,
				"z": 0.3680674378,
				"element": "H" 
			}
		],
		 "valence_orbital": [ 
			{
				"type": "occ",
				"energy": -0.31876,
				"method": "rhf"
			},
			{
				"type": "occ",
				"energy": -0.30261,
				"method": "rhf"
			},
			{
				"type": "occ",
				"energy": -0.26164,
				"method": "rhf"
			},
			{
				"type": "occ",
				"energy": -0.26156,
				"method": "rhf"
			},
			{
				"type": "occ",
				"energy": -0.23527,
				"method": "rhf"
			},
			{
				"type": "unocc",
				"energy": -0.06239,
				"method": "rhf"
			},
			{
				"type": "unocc",
				"energy": -0.02609,
				"method": "rhf"
			},
			{
				"type": "unocc",
				"energy": 0.01267,
				"method": "rhf"
			},
			{
				"type": "unocc",
				"energy": 0.0259,
				"method": "rhf"
			},
			{
				"type": "unocc",
				"energy": 0.07985,
				"method": "rhf"
			}
		],
		"cosmo_sigma_profile": { 
			"-0.025": 0.0,
			"-0.024": 0.0,
			"-0.023": 0.0,
			"-0.022": 0.0,
			"-0.021": 0.0,
			"-0.02": 0.0,
			"-0.019": 0.0,
			"-0.018": 0.0,
			"-0.017": 0.0,
			"-0.016": 0.0,
			"-0.015": 0.0,
			"-0.014": 0.0,
			"-0.013": 0.0,
			"-0.012": 0.0,
			"-0.011": 0.0,
			"-0.01": 0.0,
			"-0.009": 0.0,
			"-0.008": 0.717086822731,
			"-0.007": 8.33208862192,
			"-0.006": 13.5293577256,
			"-0.005": 12.0202934254,
			"-0.004": 8.48673651715,
			"-0.003": 8.8622815967,
			"-0.002": 10.0726681056,
			"-0.001": 11.5118184574,
			"0.0": 17.302718874,
			"0.001": 28.1672363214,
			"0.002": 23.4682881368,
			"0.003": 16.7901425034,
			"0.004": 10.874247042,
			"0.005": 4.5470351893,
			"0.006": 1.05053979735,
			"0.007": 1.9133611347,
			"0.008": 1.33026101223,
			"0.009": 0.829789146149,
			"0.01": 0.898694395976,
			"0.011": 1.0499676619,
			"0.012": 0.672693418173,
			"0.013": 0.994765753224,
			"0.014": 0.60013814037,
			"0.015": 0.859460773096,
			"0.016": 0.294655113412,
			"0.017": 0.0,
			"0.018": 0.0,
			"0.019": 0.0,
			"0.02": 0.0,
			"0.021": 0.0,
			"0.022": 0.0,
			"0.023": 0.0,
			"0.024": 0.0,
			"0.025": 0.0
		}
	}
}
