{
	 "smiles": "CC(CC(=O)C1=CC=CC=C1)C1=CC=CC=C1", 
	 "Tm": 343.15, 
	 "num_atms": 33, 
	 "gaussian": { 
		 "optdone": 1, 
		 "sigma_profile": "yes", 
		 "theory": "DFT", 
		 "functional": "B3LYP", 
		 "basiset": "6-31G**", 
		 "properties": { 
			 "R2extent": 4849.5639, 
			 "electric_dipole_moment_norm": 2.7984331491, 
			 "electric_quadrupole_moment_norm": 11.4246715261, 
			 "total_energy": -694.578928169, 
			 "HOMO_LUMO_gap": 0.18131, 
			 "cosmo_polarized_energy": -11.36, 
			 "cosmo_cavitation_energy": 36.21, 
			 "cosmo_dispersion_energy": -24.47, 
			 "cosmo_repulsion_energy": 1.91, 
			 "cosmo_total_nonelectrostatic_energy": 13.66, 
			 "SMD_solvation_energy": 6.48 
		},
		"coords": [
			{
				"x": 2.0961354405,
				"y": 0.1930552918,
				"z": 1.3333660915,
				"element": "C" 
			},
			{
				"x": 0.7293949079,
				"y": 0.1072743402,
				"z": 0.6269391773,
				"element": "C" 
			},
			{
				"x": -0.3740062683,
				"y": 0.7263441418,
				"z": 1.5306377077,
				"element": "C" 
			},
			{
				"x": -1.7774203772,
				"y": 0.642643545,
				"z": 0.941049451,
				"element": "C" 
			},
			{
				"x": -2.3108017071,
				"y": 1.6429859594,
				"z": 0.484111712,
				"element": "O" 
			},
			{
				"x": -2.4939934613,
				"y": -0.6775936669,
				"z": 0.9086776175,
				"element": "C" 
			},
			{
				"x": -2.0244224278,
				"y": -1.8258926172,
				"z": 1.5652475671,
				"element": "C" 
			},
			{
				"x": -2.7459936011,
				"y": -3.0187765256,
				"z": 1.5069904614,
				"element": "C" 
			},
			{
				"x": -3.9416571462,
				"y": -3.0779961997,
				"z": 0.7892250479,
				"element": "C" 
			},
			{
				"x": -4.4184561942,
				"y": -1.9391160019,
				"z": 0.1323164569,
				"element": "C" 
			},
			{
				"x": -3.7014219909,
				"y": -0.7485782206,
				"z": 0.1945885609,
				"element": "C" 
			},
			{
				"x": 0.7770362882,
				"y": 0.7324359821,
				"z": -0.7617257655,
				"element": "C" 
			},
			{
				"x": 0.6235429857,
				"y": -0.0675378279,
				"z": -1.9008427827,
				"element": "C" 
			},
			{
				"x": 0.691687834,
				"y": 0.4821196103,
				"z": -3.1828488046,
				"element": "C" 
			},
			{
				"x": 0.9145488778,
				"y": 1.8490892658,
				"z": -3.3456712949,
				"element": "C" 
			},
			{
				"x": 1.0669001197,
				"y": 2.6596254496,
				"z": -2.2183398478,
				"element": "C" 
			},
			{
				"x": 0.9985533774,
				"y": 2.1059262838,
				"z": -0.9406585951,
				"element": "C" 
			},
			{
				"x": 2.3852595211,
				"y": 1.2343122028,
				"z": 1.510715514,
				"element": "H" 
			},
			{
				"x": 2.0706463028,
				"y": -0.3175030672,
				"z": 2.3026542952,
				"element": "H" 
			},
			{
				"x": 2.877366606,
				"y": -0.2700358033,
				"z": 0.7231764544,
				"element": "H" 
			},
			{
				"x": 0.4923019628,
				"y": -0.9549003743,
				"z": 0.4926424243,
				"element": "H" 
			},
			{
				"x": -0.1709213429,
				"y": 1.7882165446,
				"z": 1.6934731355,
				"element": "H" 
			},
			{
				"x": -0.342670134,
				"y": 0.2315998617,
				"z": 2.5090412298,
				"element": "H" 
			},
			{
				"x": -1.1004896765,
				"y": -1.7951877162,
				"z": 2.1334791652,
				"element": "H" 
			},
			{
				"x": -2.3758472678,
				"y": -3.9000141748,
				"z": 2.0228463167,
				"element": "H" 
			},
			{
				"x": -4.5016860027,
				"y": -4.0077594694,
				"z": 0.7429139207,
				"element": "H" 
			},
			{
				"x": -5.3491972908,
				"y": -1.9833361329,
				"z": -0.4259405668,
				"element": "H" 
			},
			{
				"x": -4.0523448931,
				"y": 0.1499744027,
				"z": -0.3016385431,
				"element": "H" 
			},
			{
				"x": 0.4471085104,
				"y": -1.1341402515,
				"z": -1.7826639684,
				"element": "H" 
			},
			{
				"x": 0.5685895968,
				"y": -0.158622036,
				"z": -4.0516495394,
				"element": "H" 
			},
			{
				"x": 0.9661512562,
				"y": 2.2812872109,
				"z": -4.3409004811,
				"element": "H" 
			},
			{
				"x": 1.2356965252,
				"y": 3.7266088515,
				"z": -2.3341741212,
				"element": "H" 
			},
			{
				"x": 1.1141096694,
				"y": 2.7533911413,
				"z": -0.0756379964,
				"element": "H" 
			}
		],
		 "valence_orbital": [ 
			{
				"type": "occ",
				"energy": -0.25997,
				"method": "rhf"
			},
			{
				"type": "occ",
				"energy": -0.25642,
				"method": "rhf"
			},
			{
				"type": "occ",
				"energy": -0.24484,
				"method": "rhf"
			},
			{
				"type": "occ",
				"energy": -0.24317,
				"method": "rhf"
			},
			{
				"type": "occ",
				"energy": -0.23441,
				"method": "rhf"
			},
			{
				"type": "unocc",
				"energy": -0.0531,
				"method": "rhf"
			},
			{
				"type": "unocc",
				"energy": -0.0091,
				"method": "rhf"
			},
			{
				"type": "unocc",
				"energy": 0.0028,
				"method": "rhf"
			},
			{
				"type": "unocc",
				"energy": 0.0057,
				"method": "rhf"
			},
			{
				"type": "unocc",
				"energy": 0.03964,
				"method": "rhf"
			}
		],
		"cosmo_sigma_profile": { 
			"-0.025": 0.0,
			"-0.024": 0.0,
			"-0.023": 0.0,
			"-0.022": 0.0,
			"-0.021": 0.0,
			"-0.02": 0.0,
			"-0.019": 0.0,
			"-0.018": 0.0,
			"-0.017": 0.0,
			"-0.016": 0.0,
			"-0.015": 0.0,
			"-0.014": 0.0,
			"-0.013": 0.0,
			"-0.012": 0.0,
			"-0.011": 0.0,
			"-0.01": 0.0,
			"-0.009": 0.0,
			"-0.008": 0.175825792617,
			"-0.007": 2.92696991926,
			"-0.006": 13.7017768225,
			"-0.005": 25.1614307681,
			"-0.004": 30.2348341951,
			"-0.003": 27.7247050982,
			"-0.002": 23.7791167803,
			"-0.001": 23.7423387476,
			"0.0": 21.0875221213,
			"0.001": 21.0804072119,
			"0.002": 17.3797542594,
			"0.003": 18.5385296025,
			"0.004": 20.1138060853,
			"0.005": 11.1651469323,
			"0.006": 10.0508901776,
			"0.007": 5.114817211,
			"0.008": 3.17811393458,
			"0.009": 2.07933394853,
			"0.01": 1.83880924184,
			"0.011": 2.96254733362,
			"0.012": 3.90286845681,
			"0.013": 1.48837137406,
			"0.014": 0.10842012464,
			"0.015": 0.0,
			"0.016": 0.0,
			"0.017": 0.0,
			"0.018": 0.0,
			"0.019": 0.0,
			"0.02": 0.0,
			"0.021": 0.0,
			"0.022": 0.0,
			"0.023": 0.0,
			"0.024": 0.0,
			"0.025": 0.0
		}
	}
}
