{
	 "smiles": "[O-][N+](=O)C1=CC(NC(=O)NC2=CC(=CC=C2)[N+]([O-])=O)=CC=C1", 
	 "Tm": 507.15, 
	 "num_atms": 32, 
	 "gaussian": { 
		 "optdone": 1, 
		 "sigma_profile": "yes", 
		 "theory": "DFT", 
		 "functional": "B3LYP", 
		 "basiset": "6-31G**", 
		 "properties": { 
			 "R2extent": 6848.2604, 
			 "electric_dipole_moment_norm": 7.50402777247, 
			 "electric_quadrupole_moment_norm": 11.4307772758, 
			 "total_energy": -1096.35219102, 
			 "HOMO_LUMO_gap": 0.1552, 
			 "cosmo_polarized_energy": -23.2, 
			 "cosmo_cavitation_energy": 38.99, 
			 "cosmo_dispersion_energy": -26.16, 
			 "cosmo_repulsion_energy": 2.01, 
			 "cosmo_total_nonelectrostatic_energy": 14.85, 
			 "SMD_solvation_energy": 12.25 
		},
		"coords": [
			{
				"x": 1.2825318938,
				"y": 0.5596285977,
				"z": -4.4006712595,
				"element": "O" 
			},
			{
				"x": 0.5553925738,
				"y": 1.3767375459,
				"z": -3.8386453838,
				"element": "N" 
			},
			{
				"x": -0.2939323135,
				"y": 2.0664031573,
				"z": -4.3995680989,
				"element": "O" 
			},
			{
				"x": 0.7167516992,
				"y": 1.5476877303,
				"z": -2.3821039393,
				"element": "C" 
			},
			{
				"x": 1.642533559,
				"y": 0.7471194331,
				"z": -1.7233694842,
				"element": "C" 
			},
			{
				"x": 1.8195211341,
				"y": 0.9081137712,
				"z": -0.3438385389,
				"element": "C" 
			},
			{
				"x": 2.8021333587,
				"y": 0.1081518108,
				"z": 0.2836589567,
				"element": "N" 
			},
			{
				"x": 3.079480311,
				"y": -0.0910459059,
				"z": 1.632049671,
				"element": "C" 
			},
			{
				"x": 4.2253925221,
				"y": -0.2427690556,
				"z": 2.0245529951,
				"element": "O" 
			},
			{
				"x": 2.0100536785,
				"y": -0.1102328747,
				"z": 2.5281362271,
				"element": "N" 
			},
			{
				"x": 0.7087433196,
				"y": -0.6414726385,
				"z": 2.3812352756,
				"element": "C" 
			},
			{
				"x": 0.324912753,
				"y": -1.4338552954,
				"z": 1.2942467528,
				"element": "C" 
			},
			{
				"x": -0.977604707,
				"y": -1.9218006238,
				"z": 1.2548499607,
				"element": "C" 
			},
			{
				"x": -1.9137529418,
				"y": -1.6788221431,
				"z": 2.2551519174,
				"element": "C" 
			},
			{
				"x": -1.5120359931,
				"y": -0.9024437409,
				"z": 3.341161823,
				"element": "C" 
			},
			{
				"x": -0.2215925346,
				"y": -0.3814476598,
				"z": 3.4022354439,
				"element": "C" 
			},
			{
				"x": -1.3721458284,
				"y": -2.7519712106,
				"z": 0.0993223687,
				"element": "N" 
			},
			{
				"x": -2.5185346007,
				"y": -3.1958934619,
				"z": 0.0851248878,
				"element": "O" 
			},
			{
				"x": -0.5311575234,
				"y": -2.947389416,
				"z": -0.7765118883,
				"element": "O" 
			},
			{
				"x": 1.0571238008,
				"y": 1.8701383991,
				"z": 0.3380270466,
				"element": "C" 
			},
			{
				"x": 0.1210889754,
				"y": 2.6415214398,
				"z": -0.3508477962,
				"element": "C" 
			},
			{
				"x": -0.0628260048,
				"y": 2.4948103982,
				"z": -1.7239991158,
				"element": "C" 
			},
			{
				"x": 2.2060746359,
				"y": 0.0128577428,
				"z": -2.2864311602,
				"element": "H" 
			},
			{
				"x": 3.6338611407,
				"y": -0.0648004096,
				"z": -0.2670118326,
				"element": "H" 
			},
			{
				"x": 2.3678741191,
				"y": -0.1122295803,
				"z": 3.4753153808,
				"element": "H" 
			},
			{
				"x": 1.0074409345,
				"y": -1.6838870304,
				"z": 0.4949278452,
				"element": "H" 
			},
			{
				"x": -2.9113912486,
				"y": -2.0891080048,
				"z": 2.1718129629,
				"element": "H" 
			},
			{
				"x": -2.2127246333,
				"y": -0.692510075,
				"z": 4.14282906,
				"element": "H" 
			},
			{
				"x": 0.0756693542,
				"y": 0.2355098585,
				"z": 4.2458408254,
				"element": "H" 
			},
			{
				"x": 1.2032318429,
				"y": 2.019129843,
				"z": 1.4006562628,
				"element": "H" 
			},
			{
				"x": -0.4607077312,
				"y": 3.3791930778,
				"z": 0.1925591107,
				"element": "H" 
			},
			{
				"x": -0.7755055459,
				"y": 3.0880763206,
				"z": -2.2814962764,
				"element": "H" 
			}
		],
		 "valence_orbital": [ 
			{
				"type": "occ",
				"energy": -0.29512,
				"method": "rhf"
			},
			{
				"type": "occ",
				"energy": -0.29311,
				"method": "rhf"
			},
			{
				"type": "occ",
				"energy": -0.29033,
				"method": "rhf"
			},
			{
				"type": "occ",
				"energy": -0.25554,
				"method": "rhf"
			},
			{
				"type": "occ",
				"energy": -0.2531,
				"method": "rhf"
			},
			{
				"type": "unocc",
				"energy": -0.0979,
				"method": "rhf"
			},
			{
				"type": "unocc",
				"energy": -0.09512,
				"method": "rhf"
			},
			{
				"type": "unocc",
				"energy": -0.04832,
				"method": "rhf"
			},
			{
				"type": "unocc",
				"energy": -0.03145,
				"method": "rhf"
			},
			{
				"type": "unocc",
				"energy": -0.01554,
				"method": "rhf"
			}
		],
		"cosmo_sigma_profile": { 
			"-0.025": 0.0,
			"-0.024": 0.0,
			"-0.023": 0.0,
			"-0.022": 0.0,
			"-0.021": 0.0,
			"-0.02": 0.0,
			"-0.019": 0.0,
			"-0.018": 0.0,
			"-0.017": 0.0,
			"-0.016": 0.224747978573,
			"-0.015": 2.33291006512,
			"-0.014": 1.73952006841,
			"-0.013": 2.12363269965,
			"-0.012": 2.89913135449,
			"-0.011": 2.16168089742,
			"-0.01": 2.528421328,
			"-0.009": 3.17107462366,
			"-0.008": 5.59573686311,
			"-0.007": 14.108089835,
			"-0.006": 18.5100607328,
			"-0.005": 16.8076453488,
			"-0.004": 17.207121614,
			"-0.003": 20.1018520793,
			"-0.002": 20.228473302,
			"-0.001": 21.5768365096,
			"0.0": 26.31172028,
			"0.001": 26.6840084674,
			"0.002": 19.6087081307,
			"0.003": 7.02699950409,
			"0.004": 7.62009757638,
			"0.005": 6.63760408268,
			"0.006": 7.88806970577,
			"0.007": 17.9272740827,
			"0.008": 15.5495333908,
			"0.009": 9.36008534579,
			"0.01": 5.94762711575,
			"0.011": 2.00722004458,
			"0.012": 4.23642809816,
			"0.013": 4.81275156012,
			"0.014": 0.291969761145,
			"0.015": 0.0,
			"0.016": 0.0,
			"0.017": 0.0,
			"0.018": 0.0,
			"0.019": 0.0,
			"0.02": 0.0,
			"0.021": 0.0,
			"0.022": 0.0,
			"0.023": 0.0,
			"0.024": 0.0,
			"0.025": 0.0
		}
	}
}
