{
	 "smiles": "NC1=CC2=C(C=C1)N=CC=C2", 
	 "Tm": 389.15, 
	 "num_atms": 19, 
	 "gaussian": { 
		 "optdone": 1, 
		 "sigma_profile": "yes", 
		 "theory": "DFT", 
		 "functional": "B3LYP", 
		 "basiset": "6-31G**", 
		 "properties": { 
			 "R2extent": 2140.652, 
			 "electric_dipole_moment_norm": 3.32547778221, 
			 "electric_quadrupole_moment_norm": 13.709697179, 
			 "total_energy": -457.290962559, 
			 "HOMO_LUMO_gap": 0.1587, 
			 "cosmo_polarized_energy": -11.67, 
			 "cosmo_cavitation_energy": 22.75, 
			 "cosmo_dispersion_energy": -17.28, 
			 "cosmo_repulsion_energy": 1.36, 
			 "cosmo_total_nonelectrostatic_energy": 6.83, 
			 "SMD_solvation_energy": 2.23 
		},
		"coords": [
			{
				"x": 2.6583495363,
				"y": -0.5294286901,
				"z": -2.3978899865,
				"element": "N" 
			},
			{
				"x": 2.1910628481,
				"y": -0.2388896454,
				"z": -1.1172956949,
				"element": "C" 
			},
			{
				"x": 0.9986130911,
				"y": -0.7584988137,
				"z": -0.6372525127,
				"element": "C" 
			},
			{
				"x": 0.5122434927,
				"y": -0.4005601714,
				"z": 0.6433495654,
				"element": "C" 
			},
			{
				"x": 1.2616857677,
				"y": 0.5045205385,
				"z": 1.462171022,
				"element": "C" 
			},
			{
				"x": 2.4819602916,
				"y": 1.0220779243,
				"z": 0.9490405439,
				"element": "C" 
			},
			{
				"x": 2.9310142471,
				"y": 0.6660723714,
				"z": -0.2975464182,
				"element": "C" 
			},
			{
				"x": 0.8591794322,
				"y": 0.8893681403,
				"z": 2.7063062821,
				"element": "N" 
			},
			{
				"x": -0.2761176631,
				"y": 0.3978361365,
				"z": 3.1639601254,
				"element": "C" 
			},
			{
				"x": -1.09634096,
				"y": -0.5035575085,
				"z": 2.439870611,
				"element": "C" 
			},
			{
				"x": -0.7018147075,
				"y": -0.9009361818,
				"z": 1.1838387122,
				"element": "C" 
			},
			{
				"x": 2.2874617988,
				"y": -1.3716334177,
				"z": -2.815283477,
				"element": "H" 
			},
			{
				"x": 3.6577541893,
				"y": -0.4498696453,
				"z": -2.5239956524,
				"element": "H" 
			},
			{
				"x": 0.4200139906,
				"y": -1.4481438759,
				"z": -1.2483521451,
				"element": "H" 
			},
			{
				"x": 3.042233459,
				"y": 1.7070885393,
				"z": 1.5771760442,
				"element": "H" 
			},
			{
				"x": 3.8617035624,
				"y": 1.0777948831,
				"z": -0.680843283,
				"element": "H" 
			},
			{
				"x": -0.5782638784,
				"y": 0.7195824386,
				"z": 4.1600912325,
				"element": "H" 
			},
			{
				"x": -2.0192979815,
				"y": -0.8670166463,
				"z": 2.88144317,
				"element": "H" 
			},
			{
				"x": -1.3044405163,
				"y": -1.590906376,
				"z": 0.5980118611,
				"element": "H" 
			}
		],
		 "valence_orbital": [ 
			{
				"type": "occ",
				"energy": -0.29792,
				"method": "rhf"
			},
			{
				"type": "occ",
				"energy": -0.29118,
				"method": "rhf"
			},
			{
				"type": "occ",
				"energy": -0.24389,
				"method": "rhf"
			},
			{
				"type": "occ",
				"energy": -0.23453,
				"method": "rhf"
			},
			{
				"type": "occ",
				"energy": -0.20048,
				"method": "rhf"
			},
			{
				"type": "unocc",
				"energy": -0.04178,
				"method": "rhf"
			},
			{
				"type": "unocc",
				"energy": -0.00105,
				"method": "rhf"
			},
			{
				"type": "unocc",
				"energy": 0.03042,
				"method": "rhf"
			},
			{
				"type": "unocc",
				"energy": 0.07472,
				"method": "rhf"
			},
			{
				"type": "unocc",
				"energy": 0.10394,
				"method": "rhf"
			}
		],
		"cosmo_sigma_profile": { 
			"-0.025": 0.0,
			"-0.024": 0.0,
			"-0.023": 0.0,
			"-0.022": 0.0,
			"-0.021": 0.0,
			"-0.02": 0.0,
			"-0.019": 0.0,
			"-0.018": 0.0,
			"-0.017": 0.0,
			"-0.016": 0.0,
			"-0.015": 0.0,
			"-0.014": 0.0,
			"-0.013": 0.832709511028,
			"-0.012": 2.80324961954,
			"-0.011": 3.02810637902,
			"-0.01": 2.74824783317,
			"-0.009": 3.56945127993,
			"-0.008": 3.07375177397,
			"-0.007": 4.39952823826,
			"-0.006": 11.0458546954,
			"-0.005": 14.0794858153,
			"-0.004": 11.9983498818,
			"-0.003": 8.90491973113,
			"-0.002": 9.15048862336,
			"-0.001": 7.70584030739,
			"0.0": 7.54378415956,
			"0.001": 8.52620513361,
			"0.002": 11.7454345933,
			"0.003": 19.6885957467,
			"0.004": 19.6524149701,
			"0.005": 10.798982617,
			"0.006": 3.8266960987,
			"0.007": 2.11197944003,
			"0.008": 2.76706608775,
			"0.009": 2.27594894824,
			"0.01": 1.57478745383,
			"0.011": 2.11134775607,
			"0.012": 0.943663032001,
			"0.013": 1.61655867278,
			"0.014": 1.22942219633,
			"0.015": 1.16185783679,
			"0.016": 0.466430531051,
			"0.017": 0.555880145615,
			"0.018": 0.00291251622877,
			"0.019": 0.0,
			"0.02": 0.0,
			"0.021": 0.0,
			"0.022": 0.0,
			"0.023": 0.0,
			"0.024": 0.0,
			"0.025": 0.0
		}
	}
}
