{
	 "smiles": "CC1CC(C)CN(C1)S(=O)(=O)C1=CC(=CC=C1)C(O)=O", 
	 "Tm": 491.15, 
	 "num_atms": 39, 
	 "gaussian": { 
		 "optdone": 1, 
		 "sigma_profile": "yes", 
		 "theory": "DFT", 
		 "functional": "B3LYP", 
		 "basiset": "6-31G**", 
		 "properties": { 
			 "R2extent": 7332.9927, 
			 "electric_dipole_moment_norm": 4.64303082264, 
			 "electric_quadrupole_moment_norm": 20.9643442833, 
			 "total_energy": -1298.72369076, 
			 "HOMO_LUMO_gap": 0.18335, 
			 "cosmo_polarized_energy": -19.87, 
			 "cosmo_cavitation_energy": 41.96, 
			 "cosmo_dispersion_energy": -28.78, 
			 "cosmo_repulsion_energy": 2.18, 
			 "cosmo_total_nonelectrostatic_energy": 15.36, 
			 "SMD_solvation_energy": 6.73 
		},
		"coords": [
			{
				"x": -0.6057390625,
				"y": 1.6148706775,
				"z": -2.8526164215,
				"element": "C" 
			},
			{
				"x": -0.1648709967,
				"y": 0.182786879,
				"z": -2.5318713959,
				"element": "C" 
			},
			{
				"x": -1.3441000724,
				"y": -0.7590043937,
				"z": -2.2527402332,
				"element": "C" 
			},
			{
				"x": -0.8849057092,
				"y": -2.2310266862,
				"z": -2.1016232332,
				"element": "C" 
			},
			{
				"x": -1.8430134743,
				"y": -3.0193124488,
				"z": -1.2014548739,
				"element": "C" 
			},
			{
				"x": 0.5732390998,
				"y": -2.2901301079,
				"z": -1.5859050358,
				"element": "C" 
			},
			{
				"x": 0.8032278445,
				"y": -1.1525520364,
				"z": -0.6748921573,
				"element": "N" 
			},
			{
				"x": 0.7997965752,
				"y": 0.1775425209,
				"z": -1.3251960786,
				"element": "C" 
			},
			{
				"x": 1.9204678173,
				"y": -1.3461846645,
				"z": 0.5710569558,
				"element": "S" 
			},
			{
				"x": 3.1521255849,
				"y": -0.592174663,
				"z": 0.2928324209,
				"element": "O" 
			},
			{
				"x": 1.9686597538,
				"y": -2.7775725134,
				"z": 0.8847967825,
				"element": "O" 
			},
			{
				"x": 1.1075843893,
				"y": -0.5052284899,
				"z": 1.939198237,
				"element": "C" 
			},
			{
				"x": 1.5730598626,
				"y": 0.7451606719,
				"z": 2.3395306419,
				"element": "C" 
			},
			{
				"x": 0.9512142584,
				"y": 1.4002291638,
				"z": 3.4108026688,
				"element": "C" 
			},
			{
				"x": -0.1380673487,
				"y": 0.7944370075,
				"z": 4.0504396082,
				"element": "C" 
			},
			{
				"x": -0.5800726115,
				"y": -0.4668287235,
				"z": 3.6531183677,
				"element": "C" 
			},
			{
				"x": 0.0434332846,
				"y": -1.1281708719,
				"z": 2.5947980714,
				"element": "C" 
			},
			{
				"x": 1.3785199565,
				"y": 2.7567871215,
				"z": 3.8945940997,
				"element": "C" 
			},
			{
				"x": 2.6341502064,
				"y": 3.1578255261,
				"z": 3.5726510982,
				"element": "O" 
			},
			{
				"x": 0.6559926258,
				"y": 3.4789797934,
				"z": 4.5397709091,
				"element": "O" 
			},
			{
				"x": 0.2555821208,
				"y": 2.274809604,
				"z": -3.0039655671,
				"element": "H" 
			},
			{
				"x": -1.2081236214,
				"y": 2.0320866152,
				"z": -2.0372935086,
				"element": "H" 
			},
			{
				"x": -1.210706197,
				"y": 1.642258039,
				"z": -3.7644827697,
				"element": "H" 
			},
			{
				"x": 0.3789662285,
				"y": -0.2042469897,
				"z": -3.4048221837,
				"element": "H" 
			},
			{
				"x": -2.0921785665,
				"y": -0.6801930073,
				"z": -3.0498972842,
				"element": "H" 
			},
			{
				"x": -1.8395473009,
				"y": -0.4339850306,
				"z": -1.3276271786,
				"element": "H" 
			},
			{
				"x": -0.8807665133,
				"y": -2.6967210522,
				"z": -3.0964063619,
				"element": "H" 
			},
			{
				"x": -1.5849770339,
				"y": -4.0832448844,
				"z": -1.1733126604,
				"element": "H" 
			},
			{
				"x": -2.8767114415,
				"y": -2.932689301,
				"z": -1.5537049741,
				"element": "H" 
			},
			{
				"x": -1.8074151815,
				"y": -2.634582994,
				"z": -0.1757400029,
				"element": "H" 
			},
			{
				"x": 1.2860466629,
				"y": -2.2584517557,
				"z": -2.4223000093,
				"element": "H" 
			},
			{
				"x": 0.7581178468,
				"y": -3.212642678,
				"z": -1.034916359,
				"element": "H" 
			},
			{
				"x": 0.4586132558,
				"y": 0.9117284807,
				"z": -0.5842803818,
				"element": "H" 
			},
			{
				"x": 1.810742991,
				"y": 0.4661855348,
				"z": -1.6405117217,
				"element": "H" 
			},
			{
				"x": 2.4004293247,
				"y": 1.1832611011,
				"z": 1.7895054077,
				"element": "H" 
			},
			{
				"x": -0.6187045434,
				"y": 1.3290524343,
				"z": 4.8625791221,
				"element": "H" 
			},
			{
				"x": -1.4105240645,
				"y": -0.9377729191,
				"z": 4.1696720032,
				"element": "H" 
			},
			{
				"x": -0.2786398302,
				"y": -2.1158912238,
				"z": 2.2830784144,
				"element": "H" 
			},
			{
				"x": 3.1453938795,
				"y": 2.4252062641,
				"z": 3.2013355837,
				"element": "H" 
			}
		],
		 "valence_orbital": [ 
			{
				"type": "occ",
				"energy": -0.30588,
				"method": "rhf"
			},
			{
				"type": "occ",
				"energy": -0.29047,
				"method": "rhf"
			},
			{
				"type": "occ",
				"energy": -0.28959,
				"method": "rhf"
			},
			{
				"type": "occ",
				"energy": -0.27976,
				"method": "rhf"
			},
			{
				"type": "occ",
				"energy": -0.25114,
				"method": "rhf"
			},
			{
				"type": "unocc",
				"energy": -0.06779,
				"method": "rhf"
			},
			{
				"type": "unocc",
				"energy": -0.04889,
				"method": "rhf"
			},
			{
				"type": "unocc",
				"energy": 0.02761,
				"method": "rhf"
			},
			{
				"type": "unocc",
				"energy": 0.04337,
				"method": "rhf"
			},
			{
				"type": "unocc",
				"energy": 0.06268,
				"method": "rhf"
			}
		],
		"cosmo_sigma_profile": { 
			"-0.025": 0.0,
			"-0.024": 0.0,
			"-0.023": 0.0,
			"-0.022": 0.0,
			"-0.021": 0.0,
			"-0.02": 0.0,
			"-0.019": 0.927745312474,
			"-0.018": 0.976346236797,
			"-0.017": 1.16891724211,
			"-0.016": 0.556863859641,
			"-0.015": 1.24837725917,
			"-0.014": 0.910402044185,
			"-0.013": 1.08721969776,
			"-0.012": 1.21796097534,
			"-0.011": 0.73208556594,
			"-0.01": 0.598503304599,
			"-0.009": 1.51798971808,
			"-0.008": 3.53122793641,
			"-0.007": 7.02453963996,
			"-0.006": 6.95924974992,
			"-0.005": 8.14819078611,
			"-0.004": 22.6958762529,
			"-0.003": 41.8857317289,
			"-0.002": 42.8520716707,
			"-0.001": 35.9208712807,
			"0.0": 32.2322363391,
			"0.001": 32.4887319051,
			"0.002": 13.2763676573,
			"0.003": 5.88233547662,
			"0.004": 5.83168197658,
			"0.005": 5.36021327513,
			"0.006": 4.59667138001,
			"0.007": 4.59151637588,
			"0.008": 7.23439261494,
			"0.009": 6.49353301478,
			"0.01": 12.0973235226,
			"0.011": 12.8307685611,
			"0.012": 5.9383214655,
			"0.013": 0.864147667469,
			"0.014": 0.0,
			"0.015": 0.0,
			"0.016": 0.0,
			"0.017": 0.0,
			"0.018": 0.0,
			"0.019": 0.0,
			"0.02": 0.0,
			"0.021": 0.0,
			"0.022": 0.0,
			"0.023": 0.0,
			"0.024": 0.0,
			"0.0": 0.0
		}
	}
}
