{
	 "smiles": "C1COCCOC2=C(OCCOCCOC3=C(OCCOCCO1)C=CC=C3)C=CC=C2", 
	 "Tm": 334.15, 
	 "num_atms": 64, 
	 "gaussian": { 
		 "optdone": 1, 
		 "sigma_profile": "yes", 
		 "theory": "DFT", 
		 "functional": "B3LYP", 
		 "basiset": "6-31G**", 
		 "properties": { 
			 "R2extent": 14784.0436, 
			 "electric_dipole_moment_norm": 3.88366514262, 
			 "electric_quadrupole_moment_norm": 14.1157227874, 
			 "total_energy": -1535.50633573, 
			 "HOMO_LUMO_gap": 0.21268, 
			 "cosmo_polarized_energy": -21.03, 
			 "cosmo_cavitation_energy": 62.25, 
			 "cosmo_dispersion_energy": -38.55, 
			 "cosmo_repulsion_energy": 2.87, 
			 "cosmo_total_nonelectrostatic_energy": 26.57, 
			 "SMD_solvation_energy": 10.2 
		},
		"coords": [
			{
				"x": 0.6701072286,
				"y": -3.4281958937,
				"z": -2.0269540361,
				"element": "C" 
			},
			{
				"x": 1.325444202,
				"y": -2.3649086586,
				"z": -2.9011282229,
				"element": "C" 
			},
			{
				"x": 1.5159667479,
				"y": -1.1248925839,
				"z": -2.2180357515,
				"element": "O" 
			},
			{
				"x": 0.8221299982,
				"y": 0.0002467747,
				"z": -2.7211129341,
				"element": "C" 
			},
			{
				"x": -0.4996095869,
				"y": 0.280495849,
				"z": -2.0225626053,
				"element": "C" 
			},
			{
				"x": -1.4558576734,
				"y": -0.7402373962,
				"z": -2.3680141985,
				"element": "O" 
			},
			{
				"x": -2.7511154285,
				"y": -0.3686156545,
				"z": -2.6152833991,
				"element": "C" 
			},
			{
				"x": -3.4802488264,
				"y": 0.5243026323,
				"z": -1.8040497941,
				"element": "C" 
			},
			{
				"x": -2.9051265182,
				"y": 1.1226641284,
				"z": -0.6964643865,
				"element": "O" 
			},
			{
				"x": -2.945921033,
				"y": 0.3229754158,
				"z": 0.4950101308,
				"element": "C" 
			},
			{
				"x": -2.2870444852,
				"y": 1.0935980994,
				"z": 1.6261261369,
				"element": "C" 
			},
			{
				"x": -0.8830631533,
				"y": 1.1970368476,
				"z": 1.4496103978,
				"element": "O" 
			},
			{
				"x": -0.4022500414,
				"y": 2.4637600284,
				"z": 1.0267561886,
				"element": "C" 
			},
			{
				"x": 1.1025131839,
				"y": 2.3683695581,
				"z": 0.8231514518,
				"element": "C" 
			},
			{
				"x": 1.8800079609,
				"y": 2.4398169229,
				"z": 2.0265787488,
				"element": "O" 
			},
			{
				"x": 1.6949042293,
				"y": 1.5170889248,
				"z": 3.0307848419,
				"element": "C" 
			},
			{
				"x": 1.7562625208,
				"y": 0.1219334991,
				"z": 2.8381869139,
				"element": "C" 
			},
			{
				"x": 1.9178165465,
				"y": -0.4165629774,
				"z": 1.5790999271,
				"element": "O" 
			},
			{
				"x": 3.2550423208,
				"y": -0.398478631,
				"z": 1.0340793815,
				"element": "C" 
			},
			{
				"x": 4.0724601867,
				"y": -1.6347903127,
				"z": 1.4032281798,
				"element": "C" 
			},
			{
				"x": 3.7524381413,
				"y": -2.8062851057,
				"z": 0.6779112109,
				"element": "O" 
			},
			{
				"x": 2.6064773831,
				"y": -3.5359254231,
				"z": 1.099036041,
				"element": "C" 
			},
			{
				"x": 1.3640859133,
				"y": -3.2703927571,
				"z": 0.2599562562,
				"element": "C" 
			},
			{
				"x": 1.535050404,
				"y": -3.8949268682,
				"z": -1.005847399,
				"element": "O" 
			},
			{
				"x": 1.5793806391,
				"y": -0.7263884922,
				"z": 3.933561296,
				"element": "C" 
			},
			{
				"x": 1.3862305801,
				"y": -0.2142154203,
				"z": 5.2175498571,
				"element": "C" 
			},
			{
				"x": 1.3698282898,
				"y": 1.1666589479,
				"z": 5.4126220845,
				"element": "C" 
			},
			{
				"x": 1.5154523711,
				"y": 2.0225971092,
				"z": 4.3210854214,
				"element": "C" 
			},
			{
				"x": -4.8017830247,
				"y": 0.8357141245,
				"z": -2.130957714,
				"element": "C" 
			},
			{
				"x": -5.4212438933,
				"y": 0.2543706902,
				"z": -3.2368026084,
				"element": "C" 
			},
			{
				"x": -4.7099982876,
				"y": -0.653920131,
				"z": -4.0234410506,
				"element": "C" 
			},
			{
				"x": -3.3838887481,
				"y": -0.9542310036,
				"z": -3.7177591994,
				"element": "C" 
			},
			{
				"x": 0.4365505334,
				"y": -4.2913605983,
				"z": -2.6658829519,
				"element": "H" 
			},
			{
				"x": -0.2751908831,
				"y": -3.0445911873,
				"z": -1.620322525,
				"element": "H" 
			},
			{
				"x": 0.7149229278,
				"y": -2.21610562,
				"z": -3.8023153154,
				"element": "H" 
			},
			{
				"x": 2.3138722488,
				"y": -2.7302672313,
				"z": -3.2080588886,
				"element": "H" 
			},
			{
				"x": 0.6561579739,
				"y": -0.0888770184,
				"z": -3.8047076946,
				"element": "H" 
			},
			{
				"x": 1.470059671,
				"y": 0.8720833336,
				"z": -2.5551549195,
				"element": "H" 
			},
			{
				"x": -0.3605063613,
				"y": 0.2935240711,
				"z": -0.9381903733,
				"element": "H" 
			},
			{
				"x": -0.8688576141,
				"y": 1.2610061823,
				"z": -2.3434445605,
				"element": "H" 
			},
			{
				"x": -2.4169976254,
				"y": -0.6249596835,
				"z": 0.3331241433,
				"element": "H" 
			},
			{
				"x": -3.9905188105,
				"y": 0.0988599181,
				"z": 0.7576969648,
				"element": "H" 
			},
			{
				"x": -2.4646368644,
				"y": 0.5479343728,
				"z": 2.5616735302,
				"element": "H" 
			},
			{
				"x": -2.7521925413,
				"y": 2.0844467601,
				"z": 1.7191305475,
				"element": "H" 
			},
			{
				"x": -0.868131202,
				"y": 2.7580340755,
				"z": 0.0745303873,
				"element": "H" 
			},
			{
				"x": -0.6308137097,
				"y": 3.2410023208,
				"z": 1.7731503657,
				"element": "H" 
			},
			{
				"x": 1.3304388567,
				"y": 1.4555143155,
				"z": 0.2669329011,
				"element": "H" 
			},
			{
				"x": 1.436533496,
				"y": 3.2350401858,
				"z": 0.2449974924,
				"element": "H" 
			},
			{
				"x": 3.7764512796,
				"y": 0.5078954632,
				"z": 1.3661853227,
				"element": "H" 
			},
			{
				"x": 3.1299309258,
				"y": -0.3685908015,
				"z": -0.0523673035,
				"element": "H" 
			},
			{
				"x": 4.0102118903,
				"y": -1.8090245024,
				"z": 2.4894855404,
				"element": "H" 
			},
			{
				"x": 5.1216947125,
				"y": -1.4209297674,
				"z": 1.163539219,
				"element": "H" 
			},
			{
				"x": 2.8603911212,
				"y": -4.5992116248,
				"z": 1.0087646573,
				"element": "H" 
			},
			{
				"x": 2.3810135398,
				"y": -3.3303268587,
				"z": 2.1549137227,
				"element": "H" 
			},
			{
				"x": 1.1977396513,
				"y": -2.1952661588,
				"z": 0.159365975,
				"element": "H" 
			},
			{
				"x": 0.4904801758,
				"y": -3.7035612264,
				"z": 0.7806123049,
				"element": "H" 
			},
			{
				"x": 1.5940241261,
				"y": -1.7970027909,
				"z": 3.7578430055,
				"element": "H" 
			},
			{
				"x": 1.2584394357,
				"y": -0.8916160959,
				"z": 6.0564736036,
				"element": "H" 
			},
			{
				"x": 1.2287882977,
				"y": 1.580361815,
				"z": 6.4067782026,
				"element": "H" 
			},
			{
				"x": 1.4881655848,
				"y": 3.1010552003,
				"z": 4.4413376613,
				"element": "H" 
			},
			{
				"x": -5.3288485093,
				"y": 1.5406196203,
				"z": -1.4948244422,
				"element": "H" 
			},
			{
				"x": -6.4499260085,
				"y": 0.5046101241,
				"z": -3.4769490482,
				"element": "H" 
			},
			{
				"x": -5.1800543051,
				"y": -1.117854071,
				"z": -4.8854465715,
				"element": "H" 
			},
			{
				"x": -2.8067401608,
				"y": -1.6436047651,
				"z": -4.3257921197,
				"element": "H" 
			}
		],
		 "valence_orbital": [ 
			{
				"type": "occ",
				"energy": -0.24353,
				"method": "rhf"
			},
			{
				"type": "occ",
				"energy": -0.23213,
				"method": "rhf"
			},
			{
				"type": "occ",
				"energy": -0.22738,
				"method": "rhf"
			},
			{
				"type": "occ",
				"energy": -0.22121,
				"method": "rhf"
			},
			{
				"type": "occ",
				"energy": -0.2161,
				"method": "rhf"
			},
			{
				"type": "unocc",
				"energy": -0.00342,
				"method": "rhf"
			},
			{
				"type": "unocc",
				"energy": 0.00341,
				"method": "rhf"
			},
			{
				"type": "unocc",
				"energy": 0.00511,
				"method": "rhf"
			},
			{
				"type": "unocc",
				"energy": 0.00955,
				"method": "rhf"
			},
			{
				"type": "unocc",
				"energy": 0.06952,
				"method": "rhf"
			}
		],
		"cosmo_sigma_profile": { 
			"-0.025": 0.0,
			"-0.024": 0.0,
			"-0.023": 0.0,
			"-0.022": 0.0,
			"-0.021": 0.0,
			"-0.02": 0.0,
			"-0.019": 0.0,
			"-0.018": 0.0,
			"-0.017": 0.0,
			"-0.016": 0.0,
			"-0.015": 0.0,
			"-0.014": 0.0,
			"-0.013": 0.0,
			"-0.012": 0.0,
			"-0.011": 0.0,
			"-0.01": 0.0,
			"-0.009": 0.0,
			"-0.008": 0.0,
			"-0.007": 0.533401888513,
			"-0.006": 15.8394808385,
			"-0.005": 52.1334373459,
			"-0.004": 63.3680866945,
			"-0.003": 59.7217455436,
			"-0.002": 46.5167799398,
			"-0.001": 32.777073462,
			"0.0": 25.4308896575,
			"0.001": 24.6595442825,
			"0.002": 25.134663865,
			"0.003": 26.5797040273,
			"0.004": 29.0022162736,
			"0.005": 26.4691804883,
			"0.006": 17.908261908,
			"0.007": 8.3728750505,
			"0.008": 7.3503942183,
			"0.009": 6.82725606015,
			"0.01": 6.50105932841,
			"0.011": 4.11161623896,
			"0.012": 4.26701336643,
			"0.013": 4.16496445452,
			"0.014": 1.09339719378,
			"0.015": 0.0,
			"0.016": 0.0,
			"0.017": 0.0,
			"0.018": 0.0,
			"0.019": 0.0,
			"0.02": 0.0,
			"0.021": 0.0,
			"0.022": 0.0,
			"0.023": 0.0,
			"0.024": 0.0,
			"0.025": 0.0
		}
	}
}
