{
	 "smiles": "NC1=C(C=CC=C1)C(=O)NCC1=CN=CC=C1", 
	 "Tm": 393.15, 
	 "num_atms": 30, 
	 "gaussian": { 
		 "optdone": 1, 
		 "sigma_profile": "yes", 
		 "theory": "DFT", 
		 "functional": "B3LYP", 
		 "basiset": "6-31G**", 
		 "properties": { 
			 "R2extent": 5420.8589, 
			 "electric_dipole_moment_norm": 2.25381784091, 
			 "electric_quadrupole_moment_norm": 6.28150260447, 
			 "total_energy": -742.720264534, 
			 "HOMO_LUMO_gap": 0.16909, 
			 "cosmo_polarized_energy": -15.34, 
			 "cosmo_cavitation_energy": 33.86, 
			 "cosmo_dispersion_energy": -24.73, 
			 "cosmo_repulsion_energy": 1.91, 
			 "cosmo_total_nonelectrostatic_energy": 11.03, 
			 "SMD_solvation_energy": 3.91 
		},
		"coords": [
			{
				"x": 2.1876455583,
				"y": 1.7043362089,
				"z": 2.8737389149,
				"element": "N" 
			},
			{
				"x": 2.3404492526,
				"y": 0.4739842604,
				"z": 2.2857032424,
				"element": "C" 
			},
			{
				"x": 1.3266494916,
				"y": -0.09194053,
				"z": 1.4580967223,
				"element": "C" 
			},
			{
				"x": 1.5440097408,
				"y": -1.3603920197,
				"z": 0.8901409541,
				"element": "C" 
			},
			{
				"x": 2.6978558677,
				"y": -2.0927871759,
				"z": 1.1346610296,
				"element": "C" 
			},
			{
				"x": 3.6752834697,
				"y": -1.5461611741,
				"z": 1.9759752836,
				"element": "C" 
			},
			{
				"x": 3.5019227212,
				"y": -0.2908439821,
				"z": 2.5364461947,
				"element": "C" 
			},
			{
				"x": 0.0799401065,
				"y": 0.6784892161,
				"z": 1.1820199972,
				"element": "C" 
			},
			{
				"x": 0.0165190523,
				"y": 1.9154028749,
				"z": 1.2782794169,
				"element": "O" 
			},
			{
				"x": -1.0236291128,
				"y": -0.0426843428,
				"z": 0.8205330255,
				"element": "N" 
			},
			{
				"x": -2.2968475983,
				"y": 0.5963521134,
				"z": 0.4995901441,
				"element": "C" 
			},
			{
				"x": -2.5074388101,
				"y": 0.8260056428,
				"z": -0.9839697219,
				"element": "C" 
			},
			{
				"x": -3.4872456764,
				"y": 0.1263630686,
				"z": -1.6949493055,
				"element": "C" 
			},
			{
				"x": -3.7245262396,
				"y": 0.2747660901,
				"z": -3.0044566923,
				"element": "N" 
			},
			{
				"x": -2.9650748706,
				"y": 1.1558297777,
				"z": -3.6646311351,
				"element": "C" 
			},
			{
				"x": -1.958581905,
				"y": 1.9125556912,
				"z": -3.0583549562,
				"element": "C" 
			},
			{
				"x": -1.7264575451,
				"y": 1.7455448598,
				"z": -1.6962443197,
				"element": "C" 
			},
			{
				"x": 3.0159111686,
				"y": 2.1425213656,
				"z": 3.2450528407,
				"element": "H" 
			},
			{
				"x": 1.4864171524,
				"y": 2.3022958375,
				"z": 2.4502490652,
				"element": "H" 
			},
			{
				"x": 0.8085492604,
				"y": -1.7659593777,
				"z": 0.2005798458,
				"element": "H" 
			},
			{
				"x": 2.8418201183,
				"y": -3.063666184,
				"z": 0.6725790802,
				"element": "H" 
			},
			{
				"x": 4.5861404484,
				"y": -2.100831264,
				"z": 2.1843272824,
				"element": "H" 
			},
			{
				"x": 4.2703194398,
				"y": 0.1295530571,
				"z": 3.180661673,
				"element": "H" 
			},
			{
				"x": -0.9732986698,
				"y": -1.0485470055,
				"z": 0.8102245382,
				"element": "H" 
			},
			{
				"x": -3.1042968923,
				"y": -0.0263622062,
				"z": 0.8980122632,
				"element": "H" 
			},
			{
				"x": -2.3080021387,
				"y": 1.5501460692,
				"z": 1.0333794309,
				"element": "H" 
			},
			{
				"x": -4.1201178297,
				"y": -0.5944127513,
				"z": -1.1754507442,
				"element": "H" 
			},
			{
				"x": -3.1700487139,
				"y": 1.2643001361,
				"z": -4.7285001953,
				"element": "H" 
			},
			{
				"x": -1.3759558851,
				"y": 2.6173619619,
				"z": -3.6437565447,
				"element": "H" 
			},
			{
				"x": -0.9577109611,
				"y": 2.312979782,
				"z": -1.1791373301,
				"element": "H" 
			}
		],
		 "valence_orbital": [ 
			{
				"type": "occ",
				"energy": -0.26488,
				"method": "rhf"
			},
			{
				"type": "occ",
				"energy": -0.25405,
				"method": "rhf"
			},
			{
				"type": "occ",
				"energy": -0.2521,
				"method": "rhf"
			},
			{
				"type": "occ",
				"energy": -0.24574,
				"method": "rhf"
			},
			{
				"type": "occ",
				"energy": -0.20228,
				"method": "rhf"
			},
			{
				"type": "unocc",
				"energy": -0.03319,
				"method": "rhf"
			},
			{
				"type": "unocc",
				"energy": -0.02353,
				"method": "rhf"
			},
			{
				"type": "unocc",
				"energy": -0.00923,
				"method": "rhf"
			},
			{
				"type": "unocc",
				"energy": 0.01055,
				"method": "rhf"
			},
			{
				"type": "unocc",
				"energy": 0.05833,
				"method": "rhf"
			}
		],
		"cosmo_sigma_profile": { 
			"-0.025": 0.0,
			"-0.024": 0.0,
			"-0.023": 0.0,
			"-0.022": 0.0,
			"-0.021": 0.0,
			"-0.02": 0.0,
			"-0.019": 0.0,
			"-0.018": 0.0,
			"-0.017": 0.0,
			"-0.016": 0.0,
			"-0.015": 0.17196797531,
			"-0.014": 1.05175106198,
			"-0.013": 1.55539754129,
			"-0.012": 2.97094699351,
			"-0.011": 2.45176829595,
			"-0.01": 2.31041186261,
			"-0.009": 3.44794486896,
			"-0.008": 2.84074332001,
			"-0.007": 8.50281003246,
			"-0.006": 16.0434021054,
			"-0.005": 19.0257892169,
			"-0.004": 18.4442912091,
			"-0.003": 17.3183836832,
			"-0.002": 15.8457727838,
			"-0.001": 14.8559922444,
			"0.0": 16.146064417,
			"0.001": 16.2906763377,
			"0.002": 21.8737656032,
			"0.003": 22.4633635332,
			"0.004": 14.6362148149,
			"0.005": 15.1083378487,
			"0.006": 10.6832635305,
			"0.007": 4.73247861252,
			"0.008": 3.59149695217,
			"0.009": 3.42800468764,
			"0.01": 3.16966108283,
			"0.011": 3.4117574298,
			"0.012": 2.81627461059,
			"0.013": 2.35405375728,
			"0.014": 0.621841568737,
			"0.015": 1.09628429088,
			"0.016": 0.833483704354,
			"0.017": 0.43364910612,
			"0.018": 0.0,
			"0.019": 0.0,
			"0.02": 0.0,
			"0.021": 0.0,
			"0.022": 0.0,
			"0.023": 0.0,
			"0.024": 0.0,
			"0.025": 0.0
		}
	}
}
