{
	 "smiles": "NNC1=CC(F)=NC=C1", 
	 "Tm": 372.15, 
	 "num_atms": 15, 
	 "gaussian": { 
		 "optdone": 1, 
		 "sigma_profile": "yes", 
		 "theory": "DFT", 
		 "functional": "B3LYP", 
		 "basiset": "6-31G**", 
		 "properties": { 
			 "R2extent": 1723.4899, 
			 "electric_dipole_moment_norm": 3.94640927046, 
			 "electric_quadrupole_moment_norm": 9.6432330087, 
			 "total_energy": -458.204107137, 
			 "HOMO_LUMO_gap": 0.21628, 
			 "cosmo_polarized_energy": -13.89, 
			 "cosmo_cavitation_energy": 19.7, 
			 "cosmo_dispersion_energy": -14.69, 
			 "cosmo_repulsion_energy": 1.18, 
			 "cosmo_total_nonelectrostatic_energy": 6.19, 
			 "SMD_solvation_energy": 2.86 
		},
		"coords": [
			{
				"x": 2.3450216664,
				"y": -1.4742440167,
				"z": -1.099447388,
				"element": "N" 
			},
			{
				"x": 2.0581678845,
				"y": -1.3723738501,
				"z": 0.2699797384,
				"element": "N" 
			},
			{
				"x": 0.8459565203,
				"y": -0.9388760324,
				"z": 0.7626917663,
				"element": "C" 
			},
			{
				"x": 0.5194272981,
				"y": -1.1462873879,
				"z": 2.1147342759,
				"element": "C" 
			},
			{
				"x": -0.70022379,
				"y": -0.658166023,
				"z": 2.5591903633,
				"element": "C" 
			},
			{
				"x": -1.0141458435,
				"y": -0.8571950598,
				"z": 3.8509769626,
				"element": "F" 
			},
			{
				"x": -1.6010483291,
				"y": -0.0148938668,
				"z": 1.8407302358,
				"element": "N" 
			},
			{
				"x": -1.2760661461,
				"y": 0.1753767833,
				"z": 0.5526286406,
				"element": "C" 
			},
			{
				"x": -0.0933250869,
				"y": -0.2537321277,
				"z": -0.036106735,
				"element": "C" 
			},
			{
				"x": 2.5207117073,
				"y": -0.5464817133,
				"z": -1.4773674834,
				"element": "H" 
			},
			{
				"x": 1.5567166526,
				"y": -1.8806036083,
				"z": -1.6037748546,
				"element": "H" 
			},
			{
				"x": 2.5702936557,
				"y": -2.0394276016,
				"z": 0.8287215004,
				"element": "H" 
			},
			{
				"x": 1.1849607219,
				"y": -1.6645304539,
				"z": 2.7964255424,
				"element": "H" 
			},
			{
				"x": -2.0128393101,
				"y": 0.7059777775,
				"z": -0.0474354368,
				"element": "H" 
			},
			{
				"x": 0.0992923988,
				"y": -0.0548428193,
				"z": -1.0833471277,
				"element": "H" 
			}
		],
		 "valence_orbital": [ 
			{
				"type": "occ",
				"energy": -0.33541,
				"method": "rhf"
			},
			{
				"type": "occ",
				"energy": -0.28552,
				"method": "rhf"
			},
			{
				"type": "occ",
				"energy": -0.26953,
				"method": "rhf"
			},
			{
				"type": "occ",
				"energy": -0.25477,
				"method": "rhf"
			},
			{
				"type": "occ",
				"energy": -0.23173,
				"method": "rhf"
			},
			{
				"type": "unocc",
				"energy": -0.01545,
				"method": "rhf"
			},
			{
				"type": "unocc",
				"energy": 0.00306,
				"method": "rhf"
			},
			{
				"type": "unocc",
				"energy": 0.06284,
				"method": "rhf"
			},
			{
				"type": "unocc",
				"energy": 0.08554,
				"method": "rhf"
			},
			{
				"type": "unocc",
				"energy": 0.11062,
				"method": "rhf"
			}
		],
		"cosmo_sigma_profile": { 
			"-0.025": 0.0,
			"-0.024": 0.0,
			"-0.023": 0.0,
			"-0.022": 0.0,
			"-0.021": 0.0,
			"-0.02": 0.0,
			"-0.019": 0.259717303372,
			"-0.018": 0.222800665065,
			"-0.017": 0.237179091229,
			"-0.016": 0.368177857673,
			"-0.015": 0.150049235826,
			"-0.014": 0.638917156467,
			"-0.013": 1.90381065327,
			"-0.012": 2.16630429948,
			"-0.011": 3.76490090483,
			"-0.01": 5.05143797734,
			"-0.009": 4.76739535307,
			"-0.008": 5.0516150073,
			"-0.007": 5.28407177134,
			"-0.006": 6.91213122976,
			"-0.005": 6.48872048336,
			"-0.004": 6.22596551935,
			"-0.003": 5.06551538948,
			"-0.002": 5.48084035349,
			"-0.001": 5.3696060669,
			"0.0": 6.84478003727,
			"0.001": 10.9459680791,
			"0.002": 13.7220690915,
			"0.003": 14.0602518208,
			"0.004": 14.5508389362,
			"0.005": 6.98415241547,
			"0.006": 4.18114005214,
			"0.007": 3.1022904451,
			"0.008": 2.86453188044,
			"0.009": 2.22983683391,
			"0.01": 1.74141257984,
			"0.011": 2.08176828588,
			"0.012": 1.34517811529,
			"0.013": 2.28241206846,
			"0.014": 1.5721265258,
			"0.015": 1.54486468428,
			"0.016": 1.19190041889,
			"0.017": 0.153308855983,
			"0.018": 0.0,
			"0.019": 0.0,
			"0.02": 0.0,
			"0.021": 0.0,
			"0.022": 0.0,
			"0.023": 0.0,
			"0.024": 0.0,
			"0.025": 0.0
		}
	}
}
