{
	 "smiles": "CC(=O)C1=NN(C(=N)S1)C1=CC=C(F)C=C1", 
	 "Tm": 471.15, 
	 "num_atms": 24, 
	 "gaussian": { 
		 "optdone": 1, 
		 "sigma_profile": "yes", 
		 "theory": "DFT", 
		 "functional": "B3LYP", 
		 "basiset": "6-31G**", 
		 "properties": { 
			 "R2extent": 5235.9234, 
			 "electric_dipole_moment_norm": 1.00825025167, 
			 "electric_quadrupole_moment_norm": 18.8786023106, 
			 "total_energy": -1123.34870787, 
			 "HOMO_LUMO_gap": 0.13948, 
			 "cosmo_polarized_energy": -10.42, 
			 "cosmo_cavitation_energy": 31.43, 
			 "cosmo_dispersion_energy": -23.03, 
			 "cosmo_repulsion_energy": 1.72, 
			 "cosmo_total_nonelectrostatic_energy": 10.13, 
			 "SMD_solvation_energy": 5.52 
		},
		"coords": [
			{
				"x": -2.2366623005,
				"y": 3.2986201256,
				"z": -3.041679372,
				"element": "C" 
			},
			{
				"x": -2.9719641913,
				"y": 2.0016111687,
				"z": -2.7901840351,
				"element": "C" 
			},
			{
				"x": -4.0431803632,
				"y": 1.7231981053,
				"z": -3.3053405192,
				"element": "O" 
			},
			{
				"x": -2.3437550371,
				"y": 1.021945934,
				"z": -1.8717099715,
				"element": "C" 
			},
			{
				"x": -1.2211453893,
				"y": 1.2205384388,
				"z": -1.2609417235,
				"element": "N" 
			},
			{
				"x": -0.8669536255,
				"y": 0.1835700421,
				"z": -0.4701121698,
				"element": "N" 
			},
			{
				"x": -1.7521236805,
				"y": -0.9245783031,
				"z": -0.4438475903,
				"element": "C" 
			},
			{
				"x": -1.5488143985,
				"y": -1.9729844183,
				"z": 0.245501469,
				"element": "N" 
			},
			{
				"x": -3.1274633134,
				"y": -0.5191765288,
				"z": -1.532491271,
				"element": "S" 
			},
			{
				"x": 0.4010039347,
				"y": 0.26289763,
				"z": 0.1916141516,
				"element": "C" 
			},
			{
				"x": 1.3916234919,
				"y": 1.0874728591,
				"z": -0.3602897603,
				"element": "C" 
			},
			{
				"x": 2.6257426207,
				"y": 1.2154566687,
				"z": 0.2697204592,
				"element": "C" 
			},
			{
				"x": 2.8602486811,
				"y": 0.5075441125,
				"z": 1.4433695325,
				"element": "C" 
			},
			{
				"x": 4.0580024733,
				"y": 0.6247876369,
				"z": 2.0516504498,
				"element": "F" 
			},
			{
				"x": 1.8928698502,
				"y": -0.3179347147,
				"z": 2.0012384618,
				"element": "C" 
			},
			{
				"x": 0.6524236342,
				"y": -0.4404539413,
				"z": 1.3765608843,
				"element": "C" 
			},
			{
				"x": -1.276006514,
				"y": 3.1003037576,
				"z": -3.5283596355,
				"element": "H" 
			},
			{
				"x": -2.0174882996,
				"y": 3.8086178599,
				"z": -2.0990449064,
				"element": "H" 
			},
			{
				"x": -2.8506531906,
				"y": 3.9326830257,
				"z": -3.6817798448,
				"element": "H" 
			},
			{
				"x": -2.284272815,
				"y": -2.6648073452,
				"z": 0.1226826423,
				"element": "H" 
			},
			{
				"x": 1.1877540117,
				"y": 1.6301337581,
				"z": -1.2745760142,
				"element": "H" 
			},
			{
				"x": 3.4040257303,
				"y": 1.848285813,
				"z": -0.1421696507,
				"element": "H" 
			},
			{
				"x": 2.1098833098,
				"y": -0.8553963043,
				"z": 2.9177191876,
				"element": "H" 
			},
			{
				"x": -0.1051946192,
				"y": -1.0904353801,
				"z": 1.7891692262,
				"element": "H" 
			}
		],
		 "valence_orbital": [ 
			{
				"type": "occ",
				"energy": -0.28655,
				"method": "rhf"
			},
			{
				"type": "occ",
				"energy": -0.27276,
				"method": "rhf"
			},
			{
				"type": "occ",
				"energy": -0.26776,
				"method": "rhf"
			},
			{
				"type": "occ",
				"energy": -0.2613,
				"method": "rhf"
			},
			{
				"type": "occ",
				"energy": -0.22149,
				"method": "rhf"
			},
			{
				"type": "unocc",
				"energy": -0.08201,
				"method": "rhf"
			},
			{
				"type": "unocc",
				"energy": -0.02148,
				"method": "rhf"
			},
			{
				"type": "unocc",
				"energy": -0.01758,
				"method": "rhf"
			},
			{
				"type": "unocc",
				"energy": -0.00961,
				"method": "rhf"
			},
			{
				"type": "unocc",
				"energy": 0.0244,
				"method": "rhf"
			}
		],
		"cosmo_sigma_profile": { 
			"-0.025": 0.0,
			"-0.024": 0.0,
			"-0.023": 0.0,
			"-0.022": 0.0,
			"-0.021": 0.0,
			"-0.02": 0.0,
			"-0.019": 0.0,
			"-0.018": 0.0,
			"-0.017": 0.0,
			"-0.016": 0.0,
			"-0.015": 0.0,
			"-0.014": 0.00969171619143,
			"-0.013": 0.963046757611,
			"-0.012": 1.66465273436,
			"-0.011": 1.25176784665,
			"-0.01": 1.19487223608,
			"-0.009": 1.66276714132,
			"-0.008": 2.26496806656,
			"-0.007": 6.92855371837,
			"-0.006": 12.0531048098,
			"-0.005": 16.2592324715,
			"-0.004": 14.7130203255,
			"-0.003": 18.1800994531,
			"-0.002": 21.8003107966,
			"-0.001": 18.5416582827,
			"0.0": 20.778437319,
			"0.001": 21.5792129645,
			"0.002": 21.9791827939,
			"0.003": 23.3383396609,
			"0.004": 16.8239983564,
			"0.005": 6.99603702829,
			"0.006": 4.46712051958,
			"0.007": 3.42486432204,
			"0.008": 3.54146407244,
			"0.009": 3.41225794615,
			"0.01": 4.53279534604,
			"0.011": 4.37341537283,
			"0.012": 2.07613500285,
			"0.013": 0.302258689582,
			"0.014": 0.0,
			"0.015": 0.0,
			"0.016": 0.0,
			"0.017": 0.0,
			"0.018": 0.0,
			"0.019": 0.0,
			"0.02": 0.0,
			"0.021": 0.0,
			"0.022": 0.0,
			"0.023": 0.0,
			"0.024": 0.0,
			"0.025": 0.0
		}
	}
}
