{
	 "smiles": "CN1C=C(C=N1)C1=NC=C(S1)C=O", 
	 "Tm": 415.15, 
	 "num_atms": 20, 
	 "gaussian": { 
		 "optdone": 1, 
		 "sigma_profile": "yes", 
		 "theory": "DFT", 
		 "functional": "B3LYP", 
		 "basiset": "6-31G**", 
		 "properties": { 
			 "R2extent": 3938.2206, 
			 "electric_dipole_moment_norm": 4.67770694037, 
			 "electric_quadrupole_moment_norm": 20.8001769166, 
			 "total_energy": -946.696197696, 
			 "HOMO_LUMO_gap": 0.15091, 
			 "cosmo_polarized_energy": -13.21, 
			 "cosmo_cavitation_energy": 27.41, 
			 "cosmo_dispersion_energy": -20.38, 
			 "cosmo_repulsion_energy": 1.55, 
			 "cosmo_total_nonelectrostatic_energy": 8.58, 
			 "SMD_solvation_energy": 3.68 
		},
		"coords": [
			{
				"x": 1.3033282556,
				"y": -1.4724899191,
				"z": -3.7544370167,
				"element": "C" 
			},
			{
				"x": 0.8302688078,
				"y": -0.7774270282,
				"z": -2.5702587157,
				"element": "N" 
			},
			{
				"x": -0.0714626562,
				"y": -1.2015772191,
				"z": -1.6595566457,
				"element": "C" 
			},
			{
				"x": -0.1935030347,
				"y": -0.1879232533,
				"z": -0.7115165019,
				"element": "C" 
			},
			{
				"x": 0.7021535974,
				"y": 0.8159802574,
				"z": -1.1677126554,
				"element": "C" 
			},
			{
				"x": 1.3172994439,
				"y": 0.4571185279,
				"z": -2.2878864281,
				"element": "N" 
			},
			{
				"x": -1.0555503779,
				"y": -0.2192007221,
				"z": 0.4472563612,
				"element": "C" 
			},
			{
				"x": -1.8429470685,
				"y": -1.2361757568,
				"z": 0.7448555799,
				"element": "N" 
			},
			{
				"x": -2.5409074517,
				"y": -0.9983625588,
				"z": 1.8853270368,
				"element": "C" 
			},
			{
				"x": -2.3194701719,
				"y": 0.2102700307,
				"z": 2.5115266728,
				"element": "C" 
			},
			{
				"x": -1.1389977032,
				"y": 1.1163236951,
				"z": 1.5891552637,
				"element": "S" 
			},
			{
				"x": -2.9422597894,
				"y": 0.6974554628,
				"z": 3.7407053496,
				"element": "C" 
			},
			{
				"x": -3.7637819948,
				"y": 0.0560884319,
				"z": 4.3740720799,
				"element": "O" 
			},
			{
				"x": 0.8060382965,
				"y": -2.4411785869,
				"z": -3.8182487653,
				"element": "H" 
			},
			{
				"x": 1.0747663993,
				"y": -0.8848961043,
				"z": -4.6468255034,
				"element": "H" 
			},
			{
				"x": 2.3841843346,
				"y": -1.61997579,
				"z": -3.6922793567,
				"element": "H" 
			},
			{
				"x": -0.5638194849,
				"y": -2.1599622899,
				"z": -1.7218932036,
				"element": "H" 
			},
			{
				"x": 0.9175615041,
				"y": 1.7784522299,
				"z": -0.7222750896,
				"element": "H" 
			},
			{
				"x": -3.2337309708,
				"y": -1.740214612,
				"z": 2.2649635712,
				"element": "H" 
			},
			{
				"x": -2.6203699353,
				"y": 1.7063952046,
				"z": 4.0753279669,
				"element": "H" 
			}
		],
		 "valence_orbital": [ 
			{
				"type": "occ",
				"energy": -0.29285,
				"method": "rhf"
			},
			{
				"type": "occ",
				"energy": -0.28898,
				"method": "rhf"
			},
			{
				"type": "occ",
				"energy": -0.27253,
				"method": "rhf"
			},
			{
				"type": "occ",
				"energy": -0.25591,
				"method": "rhf"
			},
			{
				"type": "occ",
				"energy": -0.22818,
				"method": "rhf"
			},
			{
				"type": "unocc",
				"energy": -0.07727,
				"method": "rhf"
			},
			{
				"type": "unocc",
				"energy": -0.01732,
				"method": "rhf"
			},
			{
				"type": "unocc",
				"energy": 0.00279,
				"method": "rhf"
			},
			{
				"type": "unocc",
				"energy": 0.00473,
				"method": "rhf"
			},
			{
				"type": "unocc",
				"energy": 0.07165,
				"method": "rhf"
			}
		],
		"cosmo_sigma_profile": { 
			"-0.025": 0.0,
			"-0.024": 0.0,
			"-0.023": 0.0,
			"-0.022": 0.0,
			"-0.021": 0.0,
			"-0.02": 0.0,
			"-0.019": 0.0,
			"-0.018": 0.0,
			"-0.017": 0.0,
			"-0.016": 0.0,
			"-0.015": 0.0,
			"-0.014": 0.0,
			"-0.013": 0.0,
			"-0.012": 0.0,
			"-0.011": 0.117086849036,
			"-0.01": 2.3269187956,
			"-0.009": 2.9884319242,
			"-0.008": 8.96259242074,
			"-0.007": 11.4891657967,
			"-0.006": 13.121417627,
			"-0.005": 12.8457460529,
			"-0.004": 15.6724217602,
			"-0.003": 16.0615834787,
			"-0.002": 10.8796272026,
			"-0.001": 14.2249651352,
			"0.0": 19.5849529336,
			"0.001": 20.1635621405,
			"0.002": 17.3340702178,
			"0.003": 9.61863279208,
			"0.004": 5.23826531107,
			"0.005": 5.18118436233,
			"0.006": 4.94271621652,
			"0.007": 3.37222762705,
			"0.008": 3.28830369964,
			"0.009": 5.65219412103,
			"0.01": 4.34517825387,
			"0.011": 6.35038260991,
			"0.012": 5.2975018795,
			"0.013": 2.22876850658,
			"0.014": 1.11361062139,
			"0.015": 0.500729123268,
			"0.016": 0.0192743698268,
			"0.017": 0.0,
			"0.018": 0.0,
			"0.019": 0.0,
			"0.02": 0.0,
			"0.021": 0.0,
			"0.022": 0.0,
			"0.023": 0.0,
			"0.024": 0.0,
			"0.025": 0.0
		}
	}
}
