{
	 "smiles": "CC(C)N1N=NN=C1C1=C(F)C=C(N)C=C1", 
	 "Tm": 392.15, 
	 "num_atms": 28, 
	 "gaussian": { 
		 "optdone": 1, 
		 "sigma_profile": "yes", 
		 "theory": "DFT", 
		 "functional": "B3LYP", 
		 "basiset": "6-31G**", 
		 "properties": { 
			 "R2extent": 4078.4075, 
			 "electric_dipole_moment_norm": 8.3033657489, 
			 "electric_quadrupole_moment_norm": 20.450104997, 
			 "total_energy": -761.851285941, 
			 "HOMO_LUMO_gap": 0.19239, 
			 "cosmo_polarized_energy": -19.05, 
			 "cosmo_cavitation_energy": 31.43, 
			 "cosmo_dispersion_energy": -22.48, 
			 "cosmo_repulsion_energy": 1.73, 
			 "cosmo_total_nonelectrostatic_energy": 10.68, 
			 "SMD_solvation_energy": 3.75 
		},
		"coords": [
			{
				"x": 0.1214260399,
				"y": 2.3797425086,
				"z": 2.6991757245,
				"element": "C" 
			},
			{
				"x": 1.4055128546,
				"y": 2.032116044,
				"z": 1.9380675511,
				"element": "C" 
			},
			{
				"x": 1.8320905734,
				"y": 0.5720078227,
				"z": 2.0927432926,
				"element": "C" 
			},
			{
				"x": 1.3076951035,
				"y": 2.4632300652,
				"z": 0.5218860069,
				"element": "N" 
			},
			{
				"x": 1.6113885302,
				"y": 3.7642503819,
				"z": 0.2772678705,
				"element": "N" 
			},
			{
				"x": 1.5264501497,
				"y": 3.9424964327,
				"z": -0.9986664917,
				"element": "N" 
			},
			{
				"x": 1.1694302488,
				"y": 2.7990691752,
				"z": -1.6222213439,
				"element": "N" 
			},
			{
				"x": 1.0260013553,
				"y": 1.8761028541,
				"z": -0.6740985596,
				"element": "C" 
			},
			{
				"x": 0.697803673,
				"y": 0.4821741342,
				"z": -1.0050655686,
				"element": "C" 
			},
			{
				"x": -0.3216866803,
				"y": -0.2628528516,
				"z": -0.4084701449,
				"element": "C" 
			},
			{
				"x": -1.0342239363,
				"y": 0.287153021,
				"z": 0.6051538191,
				"element": "F" 
			},
			{
				"x": -0.6563495654,
				"y": -1.5500029394,
				"z": -0.7926499961,
				"element": "C" 
			},
			{
				"x": 0.0353006072,
				"y": -2.1546937982,
				"z": -1.8564713915,
				"element": "C" 
			},
			{
				"x": -0.3138093406,
				"y": -3.4194539971,
				"z": -2.2967030875,
				"element": "N" 
			},
			{
				"x": 1.0523409029,
				"y": -1.419582721,
				"z": -2.498598886,
				"element": "C" 
			},
			{
				"x": 1.3613540382,
				"y": -0.1337535071,
				"z": -2.0832553899,
				"element": "C" 
			},
			{
				"x": 0.2592692959,
				"y": 2.1668802851,
				"z": 3.7640781207,
				"element": "H" 
			},
			{
				"x": -0.7232207851,
				"y": 1.794365121,
				"z": 2.3331409849,
				"element": "H" 
			},
			{
				"x": -0.1080857679,
				"y": 3.4423533678,
				"z": 2.5873421976,
				"element": "H" 
			},
			{
				"x": 2.2106613622,
				"y": 2.6653255433,
				"z": 2.3211901065,
				"element": "H" 
			},
			{
				"x": 2.6998831448,
				"y": 0.3378692968,
				"z": 1.4701366545,
				"element": "H" 
			},
			{
				"x": 1.0245532895,
				"y": -0.1198336684,
				"z": 1.85148971,
				"element": "H" 
			},
			{
				"x": 2.1108672897,
				"y": 0.4054328391,
				"z": 3.1375418054,
				"element": "H" 
			},
			{
				"x": -1.4658890917,
				"y": -2.0581667234,
				"z": -0.2792810326,
				"element": "H" 
			},
			{
				"x": 0.3735405369,
				"y": -3.9139847734,
				"z": -2.8456422911,
				"element": "H" 
			},
			{
				"x": -0.8130963153,
				"y": -4.0094789687,
				"z": -1.6479772484,
				"element": "H" 
			},
			{
				"x": 1.5898416354,
				"y": -1.8625375747,
				"z": -3.3320749913,
				"element": "H" 
			},
			{
				"x": 2.1331508512,
				"y": 0.4302726302,
				"z": -2.5954374211,
				"element": "H" 
			}
		],
		 "valence_orbital": [ 
			{
				"type": "occ",
				"energy": -0.28292,
				"method": "rhf"
			},
			{
				"type": "occ",
				"energy": -0.28012,
				"method": "rhf"
			},
			{
				"type": "occ",
				"energy": -0.26635,
				"method": "rhf"
			},
			{
				"type": "occ",
				"energy": -0.26046,
				"method": "rhf"
			},
			{
				"type": "occ",
				"energy": -0.21924,
				"method": "rhf"
			},
			{
				"type": "unocc",
				"energy": -0.02685,
				"method": "rhf"
			},
			{
				"type": "unocc",
				"energy": -0.01187,
				"method": "rhf"
			},
			{
				"type": "unocc",
				"energy": 0.01134,
				"method": "rhf"
			},
			{
				"type": "unocc",
				"energy": 0.04635,
				"method": "rhf"
			},
			{
				"type": "unocc",
				"energy": 0.06407,
				"method": "rhf"
			}
		],
		"cosmo_sigma_profile": { 
			"-0.025": 0.0,
			"-0.024": 0.0,
			"-0.023": 0.0,
			"-0.022": 0.0,
			"-0.021": 0.0,
			"-0.02": 0.0,
			"-0.019": 0.0,
			"-0.018": 0.0,
			"-0.017": 0.0,
			"-0.016": 0.0,
			"-0.015": 0.0,
			"-0.014": 0.368624367476,
			"-0.013": 2.72149070709,
			"-0.012": 3.2693294668,
			"-0.011": 3.31430037808,
			"-0.01": 2.77488605593,
			"-0.009": 3.54557400672,
			"-0.008": 3.35089505195,
			"-0.007": 5.30712300219,
			"-0.006": 8.01310091403,
			"-0.005": 15.3286670687,
			"-0.004": 17.3622107437,
			"-0.003": 17.0059919407,
			"-0.002": 20.4883885596,
			"-0.001": 26.8368251276,
			"0.0": 22.4290119309,
			"0.001": 12.8802733634,
			"0.002": 12.0628276131,
			"0.003": 14.5593405302,
			"0.004": 12.9581496359,
			"0.005": 5.40099888782,
			"0.006": 4.63841471638,
			"0.007": 3.58950970773,
			"0.008": 4.95419344834,
			"0.009": 5.2792137492,
			"0.01": 5.87143366606,
			"0.011": 5.51209662604,
			"0.012": 3.68132104346,
			"0.013": 3.17584290539,
			"0.014": 1.8774804813,
			"0.015": 1.12821144757,
			"0.016": 0.0686122196776,
			"0.017": 0.0,
			"0.018": 0.0,
			"0.019": 0.0,
			"0.02": 0.0,
			"0.021": 0.0,
			"0.022": 0.0,
			"0.023": 0.0,
			"0.024": 0.0,
			"0.025": 0.0
		}
	}
}
