{
	 "smiles": "CC(C)(NC(=O)NCC1=CC(Br)=CC=C1)C(O)=O", 
	 "Tm": 433.15, 
	 "num_atms": 33, 
	 "gaussian": { 
		 "optdone": 1, 
		 "sigma_profile": "yes", 
		 "theory": "DFT", 
		 "functional": "B3LYP", 
		 "basiset": "6-31G**", 
		 "properties": { 
			 "R2extent": 9229.2056, 
			 "electric_dipole_moment_norm": 3.01642016138, 
			 "electric_quadrupole_moment_norm": 20.1949029037, 
			 "total_energy": -3372.94047088, 
			 "HOMO_LUMO_gap": 0.22215, 
			 "cosmo_polarized_energy": -19.13, 
			 "cosmo_cavitation_energy": 38.79, 
			 "cosmo_dispersion_energy": -26.66, 
			 "cosmo_repulsion_energy": 2.08, 
			 "cosmo_total_nonelectrostatic_energy": 14.2, 
			 "SMD_solvation_energy": 6.59 
		},
		"coords": [
			{
				"x": -0.8089905649,
				"y": -0.6133408084,
				"z": -1.921319108,
				"element": "C" 
			},
			{
				"x": 0.5235644925,
				"y": -0.4403503625,
				"z": -2.6651125129,
				"element": "C" 
			},
			{
				"x": 0.268911487,
				"y": -0.1757314823,
				"z": -4.1641207397,
				"element": "C" 
			},
			{
				"x": 1.3497950383,
				"y": 0.6922311319,
				"z": -2.1643818714,
				"element": "N" 
			},
			{
				"x": 1.4840438888,
				"y": 1.0356823618,
				"z": -0.7934931795,
				"element": "C" 
			},
			{
				"x": 1.3968928292,
				"y": 2.2049080899,
				"z": -0.4359923167,
				"element": "O" 
			},
			{
				"x": 1.7742276865,
				"y": 0.0044015732,
				"z": 0.0537197453,
				"element": "N" 
			},
			{
				"x": 1.9738000816,
				"y": 0.2362523939,
				"z": 1.4848784639,
				"element": "C" 
			},
			{
				"x": 0.7302061625,
				"y": -0.0114667632,
				"z": 2.3210102451,
				"element": "C" 
			},
			{
				"x": 0.6523586358,
				"y": -1.1244229096,
				"z": 3.1638356659,
				"element": "C" 
			},
			{
				"x": -0.4991608244,
				"y": -1.3389366755,
				"z": 3.9208789476,
				"element": "C" 
			},
			{
				"x": -0.5890480796,
				"y": -2.8653645494,
				"z": 5.0707410369,
				"element": "Br" 
			},
			{
				"x": -1.5817957641,
				"y": -0.4662452329,
				"z": 3.8564202981,
				"element": "C" 
			},
			{
				"x": -1.4981116892,
				"y": 0.6452656629,
				"z": 3.0134318833,
				"element": "C" 
			},
			{
				"x": -0.3537331108,
				"y": 0.8761902022,
				"z": 2.2524510084,
				"element": "C" 
			},
			{
				"x": 1.3491759201,
				"y": -1.7494953171,
				"z": -2.5953239882,
				"element": "C" 
			},
			{
				"x": 2.6859042076,
				"y": -1.5616135457,
				"z": -2.5095089896,
				"element": "O" 
			},
			{
				"x": 0.8575426226,
				"y": -2.8496820081,
				"z": -2.6440798644,
				"element": "O" 
			},
			{
				"x": -0.6556626652,
				"y": -0.746060139,
				"z": -0.8480962641,
				"element": "H" 
			},
			{
				"x": -1.4380404585,
				"y": 0.2685706766,
				"z": -2.0750576001,
				"element": "H" 
			},
			{
				"x": -1.3283765996,
				"y": -1.4948692455,
				"z": -2.3010865057,
				"element": "H" 
			},
			{
				"x": -0.3452888446,
				"y": 0.7226297519,
				"z": -4.2880769395,
				"element": "H" 
			},
			{
				"x": 1.2087258291,
				"y": -0.0361578113,
				"z": -4.7072553253,
				"element": "H" 
			},
			{
				"x": -0.2637477356,
				"y": -1.0217421388,
				"z": -4.6030965507,
				"element": "H" 
			},
			{
				"x": 1.1469393938,
				"y": 1.5566034422,
				"z": -2.6558019904,
				"element": "H" 
			},
			{
				"x": 1.9947160249,
				"y": -0.9071171408,
				"z": -0.3180536322,
				"element": "H" 
			},
			{
				"x": 2.2978226356,
				"y": 1.2741214557,
				"z": 1.5945906903,
				"element": "H" 
			},
			{
				"x": 2.7882177316,
				"y": -0.4117517028,
				"z": 1.8215985985,
				"element": "H" 
			},
			{
				"x": 1.4819640795,
				"y": -1.8205395613,
				"z": 3.2346737715,
				"element": "H" 
			},
			{
				"x": -2.4681362978,
				"y": -0.6485377103,
				"z": 4.4531524956,
				"element": "H" 
			},
			{
				"x": -2.3340392171,
				"y": 1.3367506561,
				"z": 2.9602810197,
				"element": "H" 
			},
			{
				"x": -0.2870322367,
				"y": 1.7442218548,
				"z": 1.603374991,
				"element": "H" 
			},
			{
				"x": 2.8228553412,
				"y": -0.5904041487,
				"z": -2.5092814826,
				"element": "H" 
			}
		],
		 "valence_orbital": [ 
			{
				"type": "occ",
				"energy": -0.28354,
				"method": "rhf"
			},
			{
				"type": "occ",
				"energy": -0.27244,
				"method": "rhf"
			},
			{
				"type": "occ",
				"energy": -0.26296,
				"method": "rhf"
			},
			{
				"type": "occ",
				"energy": -0.26143,
				"method": "rhf"
			},
			{
				"type": "occ",
				"energy": -0.24354,
				"method": "rhf"
			},
			{
				"type": "unocc",
				"energy": -0.02139,
				"method": "rhf"
			},
			{
				"type": "unocc",
				"energy": -0.01667,
				"method": "rhf"
			},
			{
				"type": "unocc",
				"energy": -0.00466,
				"method": "rhf"
			},
			{
				"type": "unocc",
				"energy": 0.0052,
				"method": "rhf"
			},
			{
				"type": "unocc",
				"energy": 0.02529,
				"method": "rhf"
			}
		],
		"cosmo_sigma_profile": { 
			"-0.025": 0.0,
			"-0.024": 0.0,
			"-0.023": 0.0,
			"-0.022": 0.0,
			"-0.021": 0.0,
			"-0.02": 0.0,
			"-0.019": 0.0,
			"-0.018": 0.0,
			"-0.017": 0.0,
			"-0.016": 0.0,
			"-0.015": 0.0,
			"-0.014": 0.306331400154,
			"-0.013": 1.52731728112,
			"-0.012": 2.60348591494,
			"-0.011": 2.98413269745,
			"-0.01": 3.59256866716,
			"-0.009": 3.8610339666,
			"-0.008": 5.84240906829,
			"-0.007": 9.48170873078,
			"-0.006": 14.1252252422,
			"-0.005": 18.5823217273,
			"-0.004": 21.6930671597,
			"-0.003": 23.6801898278,
			"-0.002": 22.5273675741,
			"-0.001": 25.4320453927,
			"0.0": 22.7658388128,
			"0.001": 16.9253527116,
			"0.002": 18.3391940516,
			"0.003": 22.4872276572,
			"0.004": 20.9979236178,
			"0.005": 11.079794025,
			"0.006": 4.27166545084,
			"0.007": 3.65726482917,
			"0.008": 3.86276463027,
			"0.009": 4.33092068764,
			"0.01": 5.5795702512,
			"0.011": 6.50591947146,
			"0.012": 5.72191316176,
			"0.013": 4.82475201489,
			"0.014": 2.37826141315,
			"0.015": 0.0145606803141,
			"0.016": 0.0,
			"0.017": 0.0,
			"0.018": 0.0,
			"0.019": 0.0,
			"0.02": 0.0,
			"0.021": 0.0,
			"0.022": 0.0,
			"0.023": 0.0,
			"0.024": 0.0,
			"0.025": 0.0
		}
	}
}
