{
	 "smiles": "CCOC1=CC=C(C=C1)C(=O)CC(=O)C(=O)OC", 
	 "Tm": 363.15, 
	 "num_atms": 32, 
	 "gaussian": { 
		 "optdone": 1, 
		 "sigma_profile": "yes", 
		 "theory": "DFT", 
		 "functional": "B3LYP", 
		 "basiset": "6-31G**", 
		 "properties": { 
			 "R2extent": 6929.6955, 
			 "electric_dipole_moment_norm": 3.64655345361, 
			 "electric_quadrupole_moment_norm": 15.0490600849, 
			 "total_energy": -879.924928466, 
			 "HOMO_LUMO_gap": 0.15077, 
			 "cosmo_polarized_energy": -15.58, 
			 "cosmo_cavitation_energy": 37.37, 
			 "cosmo_dispersion_energy": -26.23, 
			 "cosmo_repulsion_energy": 2.06, 
			 "cosmo_total_nonelectrostatic_energy": 13.2, 
			 "SMD_solvation_energy": 9.62 
		},
		"coords": [
			{
				"x": -2.8848217037,
				"y": 3.6138677419,
				"z": 3.1568320129,
				"element": "C" 
			},
			{
				"x": -3.1991210461,
				"y": 3.8646947358,
				"z": 1.6863762318,
				"element": "C" 
			},
			{
				"x": -2.0193427894,
				"y": 3.8907335017,
				"z": 0.8719747758,
				"element": "O" 
			},
			{
				"x": -1.4481355556,
				"y": 2.7329906507,
				"z": 0.4543826014,
				"element": "C" 
			},
			{
				"x": -0.2757063913,
				"y": 2.8848289385,
				"z": -0.3114015859,
				"element": "C" 
			},
			{
				"x": 0.3814707775,
				"y": 1.7732566066,
				"z": -0.8028519965,
				"element": "C" 
			},
			{
				"x": -0.1090623918,
				"y": 0.4734309147,
				"z": -0.5598347491,
				"element": "C" 
			},
			{
				"x": -1.2749038152,
				"y": 0.3325450705,
				"z": 0.2069807207,
				"element": "C" 
			},
			{
				"x": -1.9398193441,
				"y": 1.4457071377,
				"z": 0.7182724683,
				"element": "C" 
			},
			{
				"x": 0.650038066,
				"y": -0.6711787662,
				"z": -1.1209832639,
				"element": "C" 
			},
			{
				"x": 1.7284091891,
				"y": -0.5247312149,
				"z": -1.6742610071,
				"element": "O" 
			},
			{
				"x": 0.0527329933,
				"y": -2.0979412649,
				"z": -1.013394379,
				"element": "C" 
			},
			{
				"x": 0.3463944273,
				"y": -2.717216156,
				"z": 0.3395136542,
				"element": "C" 
			},
			{
				"x": -0.3729277545,
				"y": -2.6143257322,
				"z": 1.3102780213,
				"element": "O" 
			},
			{
				"x": 1.6548497469,
				"y": -3.5366250759,
				"z": 0.4102480382,
				"element": "C" 
			},
			{
				"x": 2.1948573335,
				"y": -4.0031169212,
				"z": -0.5695544043,
				"element": "O" 
			},
			{
				"x": 2.0758391127,
				"y": -3.6784487685,
				"z": 1.6695079507,
				"element": "O" 
			},
			{
				"x": 3.2793166701,
				"y": -4.4532864714,
				"z": 1.8290757,
				"element": "C" 
			},
			{
				"x": -3.8036707895,
				"y": 3.6724720858,
				"z": 3.7496304272,
				"element": "H" 
			},
			{
				"x": -2.1862327493,
				"y": 4.368587294,
				"z": 3.5286667285,
				"element": "H" 
			},
			{
				"x": -2.4388264492,
				"y": 2.6283042937,
				"z": 3.3147764602,
				"element": "H" 
			},
			{
				"x": -3.914800591,
				"y": 3.1334030581,
				"z": 1.2917427029,
				"element": "H" 
			},
			{
				"x": -3.6378757841,
				"y": 4.857293846,
				"z": 1.5542591703,
				"element": "H" 
			},
			{
				"x": 0.0878169543,
				"y": 3.8893648232,
				"z": -0.5010275955,
				"element": "H" 
			},
			{
				"x": 1.2877432444,
				"y": 1.8781007151,
				"z": -1.3897782435,
				"element": "H" 
			},
			{
				"x": -1.6553647317,
				"y": -0.6531952552,
				"z": 0.4506547071,
				"element": "H" 
			},
			{
				"x": -2.8275302961,
				"y": 1.2974606605,
				"z": 1.3206296938,
				"element": "H" 
			},
			{
				"x": -1.0300482332,
				"y": -2.0747930793,
				"z": -1.1513942083,
				"element": "H" 
			},
			{
				"x": 0.5313065783,
				"y": -2.6886729089,
				"z": -1.7943066157,
				"element": "H" 
			},
			{
				"x": 3.4951104471,
				"y": -4.4406667073,
				"z": 2.8965286871,
				"element": "H" 
			},
			{
				"x": 3.1215123409,
				"y": -5.4761635297,
				"z": 1.4785225007,
				"element": "H" 
			},
			{
				"x": 4.0984925346,
				"y": -4.0052802228,
				"z": 1.2615347957,
				"element": "H" 
			}
		],
		 "valence_orbital": [ 
			{
				"type": "occ",
				"energy": -0.31482,
				"method": "rhf"
			},
			{
				"type": "occ",
				"energy": -0.26193,
				"method": "rhf"
			},
			{
				"type": "occ",
				"energy": -0.25979,
				"method": "rhf"
			},
			{
				"type": "occ",
				"energy": -0.24901,
				"method": "rhf"
			},
			{
				"type": "occ",
				"energy": -0.23041,
				"method": "rhf"
			},
			{
				"type": "unocc",
				"energy": -0.07964,
				"method": "rhf"
			},
			{
				"type": "unocc",
				"energy": -0.04891,
				"method": "rhf"
			},
			{
				"type": "unocc",
				"energy": -0.01041,
				"method": "rhf"
			},
			{
				"type": "unocc",
				"energy": 0.03849,
				"method": "rhf"
			},
			{
				"type": "unocc",
				"energy": 0.05837,
				"method": "rhf"
			}
		],
		"cosmo_sigma_profile": { 
			"-0.025": 0.0,
			"-0.024": 0.0,
			"-0.023": 0.0,
			"-0.022": 0.0,
			"-0.021": 0.0,
			"-0.02": 0.0,
			"-0.019": 0.0,
			"-0.018": 0.0,
			"-0.017": 0.0,
			"-0.016": 0.0,
			"-0.015": 0.0,
			"-0.014": 0.0,
			"-0.013": 0.0,
			"-0.012": 0.0,
			"-0.011": 0.0,
			"-0.01": 0.0,
			"-0.009": 0.27424522356,
			"-0.008": 3.64520090753,
			"-0.007": 11.13543257,
			"-0.006": 21.0538880809,
			"-0.005": 26.4699581987,
			"-0.004": 34.4815341947,
			"-0.003": 24.6568731451,
			"-0.002": 18.6533254905,
			"-0.001": 17.5613680001,
			"0.0": 17.8776201732,
			"0.001": 14.5542585586,
			"0.002": 17.1354530602,
			"0.003": 20.2803531806,
			"0.004": 12.4279115773,
			"0.005": 8.39362906782,
			"0.006": 5.46157848031,
			"0.007": 6.77390657389,
			"0.008": 7.33714841524,
			"0.009": 9.73538803028,
			"0.01": 9.51892112337,
			"0.011": 6.47515927908,
			"0.012": 3.09507884339,
			"0.013": 0.250230540704,
			"0.014": 0.0,
			"0.015": 0.0,
			"0.016": 0.0,
			"0.017": 0.0,
			"0.018": 0.0,
			"0.019": 0.0,
			"0.02": 0.0,
			"0.021": 0.0,
			"0.022": 0.0,
			"0.023": 0.0,
			"0.024": 0.0,
			"0.025": 0.0
		}
	}
}
