{
	 "smiles": "NC1=C(C=CC(Cl)=C1)N1C=CN=C1", 
	 "Tm": 428.15, 
	 "num_atms": 21, 
	 "gaussian": { 
		 "optdone": 1, 
		 "sigma_profile": "yes", 
		 "theory": "DFT", 
		 "functional": "B3LYP", 
		 "basiset": "6-31G**", 
		 "properties": { 
			 "R2extent": 3421.5896, 
			 "electric_dipole_moment_norm": 2.31639413529, 
			 "electric_quadrupole_moment_norm": 19.1116923345, 
			 "total_energy": -972.218413803, 
			 "HOMO_LUMO_gap": 0.19611, 
			 "cosmo_polarized_energy": -13.15, 
			 "cosmo_cavitation_energy": 27.14, 
			 "cosmo_dispersion_energy": -19.9, 
			 "cosmo_repulsion_energy": 1.56, 
			 "cosmo_total_nonelectrostatic_energy": 8.8, 
			 "SMD_solvation_energy": 3.6 
		},
		"coords": [
			{
				"x": 1.1465144373,
				"y": -0.4719488786,
				"z": 2.2889347771,
				"element": "N" 
			},
			{
				"x": 0.8027318751,
				"y": 0.5091234755,
				"z": 1.3721222192,
				"element": "C" 
			},
			{
				"x": 0.1727880835,
				"y": 0.181237584,
				"z": 0.148828171,
				"element": "C" 
			},
			{
				"x": -0.1988285497,
				"y": 1.1847397859,
				"z": -0.7460395763,
				"element": "C" 
			},
			{
				"x": 0.0420434794,
				"y": 2.5286090743,
				"z": -0.4684116388,
				"element": "C" 
			},
			{
				"x": 0.655199819,
				"y": 2.8452166188,
				"z": 0.7433117802,
				"element": "C" 
			},
			{
				"x": 0.9679371542,
				"y": 4.530058089,
				"z": 1.1346952512,
				"element": "Cl" 
			},
			{
				"x": 1.0313022051,
				"y": 1.866560897,
				"z": 1.6563660549,
				"element": "C" 
			},
			{
				"x": -0.0511753425,
				"y": -1.1866732218,
				"z": -0.1891228892,
				"element": "N" 
			},
			{
				"x": -0.8212365725,
				"y": -2.1147528762,
				"z": 0.5024203328,
				"element": "C" 
			},
			{
				"x": -0.7551912057,
				"y": -3.2688992753,
				"z": -0.2358641338,
				"element": "C" 
			},
			{
				"x": 0.0253806867,
				"y": -3.0904781351,
				"z": -1.3573725942,
				"element": "N" 
			},
			{
				"x": 0.4263604753,
				"y": -1.8412178924,
				"z": -1.3019397301,
				"element": "C" 
			},
			{
				"x": 1.8583812232,
				"y": -0.2183253486,
				"z": 2.9585651655,
				"element": "H" 
			},
			{
				"x": 1.2546755451,
				"y": -1.4065507485,
				"z": 1.9192610505,
				"element": "H" 
			},
			{
				"x": -0.69037722,
				"y": 0.8987290299,
				"z": -1.6705623396,
				"element": "H" 
			},
			{
				"x": -0.2464915367,
				"y": 3.3064536924,
				"z": -1.1644619891,
				"element": "H" 
			},
			{
				"x": 1.5086929408,
				"y": 2.149020055,
				"z": 2.58873943,
				"element": "H" 
			},
			{
				"x": -1.3365630878,
				"y": -1.8517302989,
				"z": 1.4129437267,
				"element": "H" 
			},
			{
				"x": -1.2298128002,
				"y": -4.2173731815,
				"z": -0.024670423,
				"element": "H" 
			},
			{
				"x": 1.0724683903,
				"y": -1.3428984449,
				"z": -2.0119426447,
				"element": "H" 
			}
		],
		 "valence_orbital": [ 
			{
				"type": "occ",
				"energy": -0.28738,
				"method": "rhf"
			},
			{
				"type": "occ",
				"energy": -0.26939,
				"method": "rhf"
			},
			{
				"type": "occ",
				"energy": -0.25321,
				"method": "rhf"
			},
			{
				"type": "occ",
				"energy": -0.23299,
				"method": "rhf"
			},
			{
				"type": "occ",
				"energy": -0.22253,
				"method": "rhf"
			},
			{
				"type": "unocc",
				"energy": -0.02642,
				"method": "rhf"
			},
			{
				"type": "unocc",
				"energy": -0.00948,
				"method": "rhf"
			},
			{
				"type": "unocc",
				"energy": 0.02244,
				"method": "rhf"
			},
			{
				"type": "unocc",
				"energy": 0.02648,
				"method": "rhf"
			},
			{
				"type": "unocc",
				"energy": 0.06174,
				"method": "rhf"
			}
		],
		"cosmo_sigma_profile": { 
			"-0.025": 0.0,
			"-0.024": 0.0,
			"-0.023": 0.0,
			"-0.022": 0.0,
			"-0.021": 0.0,
			"-0.02": 0.0,
			"-0.019": 0.0,
			"-0.018": 0.0,
			"-0.017": 0.0,
			"-0.016": 0.0,
			"-0.015": 0.0,
			"-0.014": 0.337405215245,
			"-0.013": 1.58055527598,
			"-0.012": 2.336857705,
			"-0.011": 2.01985256366,
			"-0.01": 3.21213584165,
			"-0.009": 3.38991163942,
			"-0.008": 6.07544311129,
			"-0.007": 9.6529268968,
			"-0.006": 11.2742425215,
			"-0.005": 11.4580103542,
			"-0.004": 10.9895229323,
			"-0.003": 11.3805860706,
			"-0.002": 12.5244938582,
			"-0.001": 11.6807236639,
			"0.0": 13.3941714338,
			"0.001": 13.7986351354,
			"0.002": 19.3500522447,
			"0.003": 21.0910745767,
			"0.004": 19.1149416013,
			"0.005": 13.948258594,
			"0.006": 2.88085150557,
			"0.007": 2.27151770223,
			"0.008": 2.06241978431,
			"0.009": 2.72868710878,
			"0.01": 2.1250361574,
			"0.011": 1.55340247262,
			"0.012": 1.60567615068,
			"0.013": 0.984001938975,
			"0.014": 1.12376561644,
			"0.015": 1.48697659941,
			"0.016": 0.752914044164,
			"0.017": 1.25745406157,
			"0.018": 0.603153927212,
			"0.019": 0.00929099011882,
			"0.02": 0.0,
			"0.021": 0.0,
			"0.022": 0.0,
			"0.023": 0.0,
			"0.024": 0.0,
			"0.025": 0.0
		}
	}
}
