{
	 "smiles": "CC1=CC=C(NC(=O)OCC(F)(F)F)S1", 
	 "Tm": 347.15, 
	 "num_atms": 23, 
	 "gaussian": { 
		 "optdone": 1, 
		 "sigma_profile": "yes", 
		 "theory": "DFT", 
		 "functional": "B3LYP", 
		 "basiset": "6-31G**", 
		 "properties": { 
			 "R2extent": 4645.7791, 
			 "electric_dipole_moment_norm": 2.67640777349, 
			 "electric_quadrupole_moment_norm": 9.20570858055, 
			 "total_energy": -1212.58886364, 
			 "HOMO_LUMO_gap": 0.19065, 
			 "cosmo_polarized_energy": -11.02, 
			 "cosmo_cavitation_energy": 30.88, 
			 "cosmo_dispersion_energy": -21.91, 
			 "cosmo_repulsion_energy": 1.64, 
			 "cosmo_total_nonelectrostatic_energy": 10.61, 
			 "SMD_solvation_energy": 7.55 
		},
		"coords": [
			{
				"x": -0.3873722063,
				"y": 3.5578024485,
				"z": -0.4124002109,
				"element": "C" 
			},
			{
				"x": -0.8379188582,
				"y": 2.4781420801,
				"z": 0.5253302848,
				"element": "C" 
			},
			{
				"x": -1.7889421916,
				"y": 2.5371223637,
				"z": 1.50400935,
				"element": "C" 
			},
			{
				"x": -1.9926086059,
				"y": 1.3003571007,
				"z": 2.1889584245,
				"element": "C" 
			},
			{
				"x": -1.1850454476,
				"y": 0.2975865965,
				"z": 1.7206228021,
				"element": "C" 
			},
			{
				"x": -1.1252241613,
				"y": -0.9903244152,
				"z": 2.2733837503,
				"element": "N" 
			},
			{
				"x": -0.5674512161,
				"y": -2.1493575327,
				"z": 1.8087068785,
				"element": "C" 
			},
			{
				"x": -0.5744024526,
				"y": -3.1981661647,
				"z": 2.4209164513,
				"element": "O" 
			},
			{
				"x": -0.0206252225,
				"y": -1.9672848781,
				"z": 0.571112839,
				"element": "O" 
			},
			{
				"x": 0.7453966647,
				"y": -3.0487188329,
				"z": 0.054670608,
				"element": "C" 
			},
			{
				"x": 2.2213923857,
				"y": -2.6994844744,
				"z": 0.1398784887,
				"element": "C" 
			},
			{
				"x": 2.5122956794,
				"y": -1.5885622127,
				"z": -0.5633393063,
				"element": "F" 
			},
			{
				"x": 2.6052811405,
				"y": -2.4924484292,
				"z": 1.4124856821,
				"element": "F" 
			},
			{
				"x": 2.9518604986,
				"y": -3.7158913519,
				"z": -0.3647313766,
				"element": "F" 
			},
			{
				"x": -0.1520551216,
				"y": 0.8652562218,
				"z": 0.4232997587,
				"element": "S" 
			},
			{
				"x": -0.5758659886,
				"y": 3.2984919517,
				"z": -1.4608384441,
				"element": "H" 
			},
			{
				"x": 0.6836856189,
				"y": 3.7698771956,
				"z": -0.3150871652,
				"element": "H" 
			},
			{
				"x": -0.9312285127,
				"y": 4.4813199251,
				"z": -0.1944575309,
				"element": "H" 
			},
			{
				"x": -2.3455679967,
				"y": 3.4409271596,
				"z": 1.7281302771,
				"element": "H" 
			},
			{
				"x": -2.7045269778,
				"y": 1.1614548006,
				"z": 2.9955491234,
				"element": "H" 
			},
			{
				"x": -1.5668076843,
				"y": -1.1084990267,
				"z": 3.1746274156,
				"element": "H" 
			},
			{
				"x": 0.5540740717,
				"y": -3.9593835964,
				"z": 0.6245921984,
				"element": "H" 
			},
			{
				"x": 0.472856584,
				"y": -3.1838169289,
				"z": -0.9936202984,
				"element": "H" 
			}
		],
		 "valence_orbital": [ 
			{
				"type": "occ",
				"energy": -0.32076,
				"method": "rhf"
			},
			{
				"type": "occ",
				"energy": -0.30721,
				"method": "rhf"
			},
			{
				"type": "occ",
				"energy": -0.29626,
				"method": "rhf"
			},
			{
				"type": "occ",
				"energy": -0.25186,
				"method": "rhf"
			},
			{
				"type": "occ",
				"energy": -0.20658,
				"method": "rhf"
			},
			{
				"type": "unocc",
				"energy": -0.01593,
				"method": "rhf"
			},
			{
				"type": "unocc",
				"energy": 0.02771,
				"method": "rhf"
			},
			{
				"type": "unocc",
				"energy": 0.04346,
				"method": "rhf"
			},
			{
				"type": "unocc",
				"energy": 0.05716,
				"method": "rhf"
			},
			{
				"type": "unocc",
				"energy": 0.08294,
				"method": "rhf"
			}
		],
		"cosmo_sigma_profile": { 
			"-0.025": 0.0,
			"-0.024": 0.0,
			"-0.023": 0.0,
			"-0.022": 0.0,
			"-0.021": 0.0,
			"-0.02": 0.0,
			"-0.019": 0.0,
			"-0.018": 0.0,
			"-0.017": 0.100382218827,
			"-0.016": 0.769680151727,
			"-0.015": 1.0830665193,
			"-0.014": 0.895123662997,
			"-0.013": 1.27658384119,
			"-0.012": 1.08837545954,
			"-0.011": 1.13371940088,
			"-0.01": 2.05373308014,
			"-0.009": 3.54959151853,
			"-0.008": 4.08681446878,
			"-0.007": 7.11265649876,
			"-0.006": 7.94225521139,
			"-0.005": 11.0692030282,
			"-0.004": 12.6871162427,
			"-0.003": 15.6434437195,
			"-0.002": 16.8462017329,
			"-0.001": 19.3043852146,
			"0.0": 15.8691550749,
			"0.001": 15.7087566422,
			"0.002": 31.9600579335,
			"0.003": 31.1213395029,
			"0.004": 14.7833878668,
			"0.005": 11.6845330435,
			"0.006": 6.91212797758,
			"0.007": 1.28010464095,
			"0.008": 1.19306723482,
			"0.009": 1.90858661751,
			"0.01": 1.26783718408,
			"0.011": 3.42853457095,
			"0.012": 4.0690779532,
			"0.013": 0.321442564136,
			"0.014": 0.0,
			"0.015": 0.0,
			"0.016": 0.0,
			"0.017": 0.0,
			"0.018": 0.0,
			"0.019": 0.0,
			"0.02": 0.0,
			"0.021": 0.0,
			"0.022": 0.0,
			"0.023": 0.0,
			"0.024": 0.0,
			"0.025": 0.0
		}
	}
}
