{
	 "smiles": "O=C(OCC(COC(=O)C1=CC=CC=C1)OC(=O)C1=CC=CC=C1)C1=CC=CC=C1", 
	 "Tm": 349.15, 
	 "num_atms": 50, 
	 "gaussian": { 
		 "optdone": 1, 
		 "sigma_profile": "yes", 
		 "theory": "DFT", 
		 "functional": "B3LYP", 
		 "basiset": "6-31G**", 
		 "properties": { 
			 "R2extent": 15879.1774, 
			 "electric_dipole_moment_norm": 1.49247618741, 
			 "electric_quadrupole_moment_norm": 28.7176130206, 
			 "total_energy": -1377.99943888, 
			 "HOMO_LUMO_gap": 0.20297, 
			 "cosmo_polarized_energy": -16.31, 
			 "cosmo_cavitation_energy": 56.27, 
			 "cosmo_dispersion_energy": -37.17, 
			 "cosmo_repulsion_energy": 2.77, 
			 "cosmo_total_nonelectrostatic_energy": 21.86, 
			 "SMD_solvation_energy": 11.6 
		},
		"coords": [
			{
				"x": 1.9368550227,
				"y": -1.8565723824,
				"z": -0.3812576739,
				"element": "O" 
			},
			{
				"x": 2.8205799173,
				"y": -1.0261449505,
				"z": -0.4661832957,
				"element": "C" 
			},
			{
				"x": 2.6439333323,
				"y": 0.2174580454,
				"z": -0.9858422517,
				"element": "O" 
			},
			{
				"x": 1.3292241735,
				"y": 0.5709138622,
				"z": -1.4533189581,
				"element": "C" 
			},
			{
				"x": 0.9050924988,
				"y": 1.8774843823,
				"z": -0.7752325907,
				"element": "C" 
			},
			{
				"x": 0.8578604161,
				"y": 1.8004463832,
				"z": 0.7449552839,
				"element": "C" 
			},
			{
				"x": 0.1432755227,
				"y": 0.6326611035,
				"z": 1.1758833423,
				"element": "O" 
			},
			{
				"x": -1.1272134042,
				"y": 0.7891116305,
				"z": 1.6332027624,
				"element": "C" 
			},
			{
				"x": -1.6666195739,
				"y": 1.8704844714,
				"z": 1.7684864851,
				"element": "O" 
			},
			{
				"x": -1.7601685613,
				"y": -0.5187697841,
				"z": 1.9574839677,
				"element": "C" 
			},
			{
				"x": -3.0271561433,
				"y": -0.4974011783,
				"z": 2.5579984837,
				"element": "C" 
			},
			{
				"x": -3.6667456002,
				"y": -1.6913520713,
				"z": 2.8795723926,
				"element": "C" 
			},
			{
				"x": -3.0463088867,
				"y": -2.9119553396,
				"z": 2.5978824298,
				"element": "C" 
			},
			{
				"x": -1.7865197233,
				"y": -2.9356480875,
				"z": 1.9946935338,
				"element": "C" 
			},
			{
				"x": -1.1373626731,
				"y": -1.743888797,
				"z": 1.6739328071,
				"element": "C" 
			},
			{
				"x": -0.4272434969,
				"y": 2.1976194795,
				"z": -1.2193267879,
				"element": "O" 
			},
			{
				"x": -0.5506188816,
				"y": 2.8883376117,
				"z": -2.3836600019,
				"element": "C" 
			},
			{
				"x": 0.395372648,
				"y": 3.1507950801,
				"z": -3.101690203,
				"element": "O" 
			},
			{
				"x": -1.9613524695,
				"y": 3.2721258018,
				"z": -2.6551365366,
				"element": "C" 
			},
			{
				"x": -2.9796250615,
				"y": 3.0888811118,
				"z": -1.7072613824,
				"element": "C" 
			},
			{
				"x": -4.2825956244,
				"y": 3.4783775129,
				"z": -2.0140308382,
				"element": "C" 
			},
			{
				"x": -4.573624662,
				"y": 4.0444636711,
				"z": -3.25775435,
				"element": "C" 
			},
			{
				"x": -3.5582295133,
				"y": 4.2299904631,
				"z": -4.2004563667,
				"element": "C" 
			},
			{
				"x": -2.2537274781,
				"y": 3.8479751748,
				"z": -3.8996936289,
				"element": "C" 
			},
			{
				"x": 4.2236861961,
				"y": -1.2486173733,
				"z": -0.0181407449,
				"element": "C" 
			},
			{
				"x": 5.2233280377,
				"y": -0.2759488906,
				"z": -0.163975579,
				"element": "C" 
			},
			{
				"x": 6.5194687202,
				"y": -0.5419397796,
				"z": 0.2742801377,
				"element": "C" 
			},
			{
				"x": 6.8234466882,
				"y": -1.7744508108,
				"z": 0.8577211876,
				"element": "C" 
			},
			{
				"x": 5.8291127564,
				"y": -2.7458889276,
				"z": 1.0027918868,
				"element": "C" 
			},
			{
				"x": 4.533082282,
				"y": -2.4851730274,
				"z": 0.5657928448,
				"element": "C" 
			},
			{
				"x": 0.6264748441,
				"y": -0.2293394272,
				"z": -1.2235367338,
				"element": "H" 
			},
			{
				"x": 1.3898813031,
				"y": 0.7252774887,
				"z": -2.5326792644,
				"element": "H" 
			},
			{
				"x": 1.5836361382,
				"y": 2.6843662085,
				"z": -1.0713200749,
				"element": "H" 
			},
			{
				"x": 0.3840083891,
				"y": 2.6956578915,
				"z": 1.1518201617,
				"element": "H" 
			},
			{
				"x": 1.8728414401,
				"y": 1.698167328,
				"z": 1.1355607986,
				"element": "H" 
			},
			{
				"x": -3.4883996889,
				"y": 0.4627388376,
				"z": 2.7634492289,
				"element": "H" 
			},
			{
				"x": -4.6466024445,
				"y": -1.6729299185,
				"z": 3.3476026647,
				"element": "H" 
			},
			{
				"x": -3.5460164534,
				"y": -3.8441032151,
				"z": 2.8466734138,
				"element": "H" 
			},
			{
				"x": -1.3078662076,
				"y": -3.8844300801,
				"z": 1.7710661801,
				"element": "H" 
			},
			{
				"x": -0.1627644465,
				"y": -1.7609370939,
				"z": 1.198313341,
				"element": "H" 
			},
			{
				"x": -2.7448825224,
				"y": 2.660280026,
				"z": -0.7390459184,
				"element": "H" 
			},
			{
				"x": -5.0714426867,
				"y": 3.3420574898,
				"z": -1.2803154604,
				"element": "H" 
			},
			{
				"x": -5.5913725583,
				"y": 4.3441618471,
				"z": -3.4917548454,
				"element": "H" 
			},
			{
				"x": -3.7848939402,
				"y": 4.6725096463,
				"z": -5.1659298159,
				"element": "H" 
			},
			{
				"x": -1.4468960152,
				"y": 3.9860477976,
				"z": -4.6116192252,
				"element": "H" 
			},
			{
				"x": 4.9806152591,
				"y": 0.6764197712,
				"z": -0.6206695253,
				"element": "H" 
			},
			{
				"x": 7.2931525353,
				"y": 0.2114740765,
				"z": 0.1598355747,
				"element": "H" 
			},
			{
				"x": 7.8347453665,
				"y": -1.9781619282,
				"z": 1.198167812,
				"element": "H" 
			},
			{
				"x": 6.0657357624,
				"y": -3.7041972233,
				"z": 1.4554408555,
				"element": "H" 
			},
			{
				"x": 3.744739467,
				"y": -3.2233339078,
				"z": 0.6659244772,
				"element": "H" 
			}
		],
		 "valence_orbital": [ 
			{
				"type": "occ",
				"energy": -0.26252,
				"method": "rhf"
			},
			{
				"type": "occ",
				"energy": -0.25851,
				"method": "rhf"
			},
			{
				"type": "occ",
				"energy": -0.25655,
				"method": "rhf"
			},
			{
				"type": "occ",
				"energy": -0.25621,
				"method": "rhf"
			},
			{
				"type": "occ",
				"energy": -0.25435,
				"method": "rhf"
			},
			{
				"type": "unocc",
				"energy": -0.05138,
				"method": "rhf"
			},
			{
				"type": "unocc",
				"energy": -0.04646,
				"method": "rhf"
			},
			{
				"type": "unocc",
				"energy": -0.04395,
				"method": "rhf"
			},
			{
				"type": "unocc",
				"energy": -0.01194,
				"method": "rhf"
			},
			{
				"type": "unocc",
				"energy": -0.00572,
				"method": "rhf"
			}
		],
		"cosmo_sigma_profile": { 
			"-0.025": 0.0,
			"-0.024": 0.0,
			"-0.023": 0.0,
			"-0.022": 0.0,
			"-0.021": 0.0,
			"-0.02": 0.0,
			"-0.019": 0.0,
			"-0.018": 0.0,
			"-0.017": 0.0,
			"-0.016": 0.0,
			"-0.015": 0.0,
			"-0.014": 0.0,
			"-0.013": 0.0,
			"-0.012": 0.0,
			"-0.011": 0.0,
			"-0.01": 0.0,
			"-0.009": 0.0,
			"-0.008": 0.865458403327,
			"-0.007": 11.061820912,
			"-0.006": 30.5678327655,
			"-0.005": 35.9219076581,
			"-0.004": 39.0092109662,
			"-0.003": 29.4336322965,
			"-0.002": 31.2194242776,
			"-0.001": 30.8838342963,
			"0.0": 32.6464880198,
			"0.001": 39.3370693601,
			"0.002": 40.8904261112,
			"0.003": 41.9266752902,
			"0.004": 41.9352988183,
			"0.005": 9.77544278139,
			"0.006": 5.70919914726,
			"0.007": 4.93684747489,
			"0.008": 4.73762376785,
			"0.009": 4.22212687212,
			"0.01": 5.12536850276,
			"0.011": 8.38929150515,
			"0.012": 2.93732722948,
			"0.013": 0.0,
			"0.014": 0.0,
			"0.015": 0.0,
			"0.016": 0.0,
			"0.017": 0.0,
			"0.018": 0.0,
			"0.019": 0.0,
			"0.02": 0.0,
			"0.021": 0.0,
			"0.022": 0.0,
			"0.023": 0.0,
			"0.024": 0.0,
			"0.025": 0.0
		}
	}
}
