{
	 "smiles": "OC(=O)CCC1=CSC2=NC(=CN12)C1CC1", 
	 "Tm": 514.15, 
	 "num_atms": 28, 
	 "gaussian": { 
		 "optdone": 1, 
		 "sigma_profile": "yes", 
		 "theory": "DFT", 
		 "functional": "B3LYP", 
		 "basiset": "6-31G**", 
		 "properties": { 
			 "R2extent": 4731.484, 
			 "electric_dipole_moment_norm": 4.72298843742, 
			 "electric_quadrupole_moment_norm": 10.4496072845, 
			 "total_energy": -1084.51151935, 
			 "HOMO_LUMO_gap": 0.192, 
			 "cosmo_polarized_energy": -15.25, 
			 "cosmo_cavitation_energy": 33.41, 
			 "cosmo_dispersion_energy": -24.45, 
			 "cosmo_repulsion_energy": 1.89, 
			 "cosmo_total_nonelectrostatic_energy": 10.85, 
			 "SMD_solvation_energy": 4.83 
		},
		"coords": [
			{
				"x": 1.6861055435,
				"y": 1.6104807432,
				"z": -3.9318346299,
				"element": "O" 
			},
			{
				"x": 1.3814496751,
				"y": 1.9549975829,
				"z": -2.6629215519,
				"element": "C" 
			},
			{
				"x": 2.1991159051,
				"y": 1.9420320664,
				"z": -1.7663676355,
				"element": "O" 
			},
			{
				"x": -0.0599302963,
				"y": 2.4040121147,
				"z": -2.5378503469,
				"element": "C" 
			},
			{
				"x": -0.6217233013,
				"y": 2.3339918694,
				"z": -1.1010079666,
				"element": "C" 
			},
			{
				"x": -1.2414130366,
				"y": 1.0171340639,
				"z": -0.7247071644,
				"element": "C" 
			},
			{
				"x": -2.5634021406,
				"y": 0.7127542228,
				"z": -0.7579532,
				"element": "C" 
			},
			{
				"x": -2.9267355497,
				"y": -0.9390610897,
				"z": -0.2619263596,
				"element": "S" 
			},
			{
				"x": -1.2156536446,
				"y": -1.2106723544,
				"z": 0.0044794428,
				"element": "C" 
			},
			{
				"x": -0.4829363802,
				"y": -2.2076032658,
				"z": 0.4326080221,
				"element": "N" 
			},
			{
				"x": 0.8114641165,
				"y": -1.7055000694,
				"z": 0.4182665486,
				"element": "C" 
			},
			{
				"x": 0.842211121,
				"y": -0.3980829644,
				"z": -0.0207012212,
				"element": "C" 
			},
			{
				"x": -0.4850452781,
				"y": -0.0770037496,
				"z": -0.2959625673,
				"element": "N" 
			},
			{
				"x": 1.957544758,
				"y": -2.53929794,
				"z": 0.8373126377,
				"element": "C" 
			},
			{
				"x": 1.958526389,
				"y": -4.0270253481,
				"z": 0.5391463879,
				"element": "C" 
			},
			{
				"x": 1.7863707897,
				"y": -3.5521962734,
				"z": 1.953621612,
				"element": "C" 
			},
			{
				"x": 2.6299542469,
				"y": 1.376148572,
				"z": -3.9353204285,
				"element": "H" 
			},
			{
				"x": -0.0724134191,
				"y": 3.4471578026,
				"z": -2.8806685653,
				"element": "H" 
			},
			{
				"x": -0.6791489121,
				"y": 1.8429698107,
				"z": -3.2426930127,
				"element": "H" 
			},
			{
				"x": 0.1779879558,
				"y": 2.5905102671,
				"z": -0.3979673354,
				"element": "H" 
			},
			{
				"x": -1.3975425311,
				"y": 3.0972705695,
				"z": -0.9970840297,
				"element": "H" 
			},
			{
				"x": -3.3647798144,
				"y": 1.3762286702,
				"z": -1.0482358671,
				"element": "H" 
			},
			{
				"x": 1.6466979751,
				"y": 0.3006933671,
				"z": -0.179114809,
				"element": "H" 
			},
			{
				"x": 2.9171706326,
				"y": -2.0318667516,
				"z": 0.7843389179,
				"element": "H" 
			},
			{
				"x": 2.9003044786,
				"y": -4.4860905926,
				"z": 0.2525948507,
				"element": "H" 
			},
			{
				"x": 1.0817666455,
				"y": -4.4178184238,
				"z": 0.0330478299,
				"element": "H" 
			},
			{
				"x": 2.608392574,
				"y": -3.6801654163,
				"z": 2.6518935334,
				"element": "H" 
			},
			{
				"x": 0.7951614975,
				"y": -3.6269974835,
				"z": 2.3888069079,
				"element": "H" 
			}
		],
		 "valence_orbital": [ 
			{
				"type": "occ",
				"energy": -0.28921,
				"method": "rhf"
			},
			{
				"type": "occ",
				"energy": -0.28647,
				"method": "rhf"
			},
			{
				"type": "occ",
				"energy": -0.26744,
				"method": "rhf"
			},
			{
				"type": "occ",
				"energy": -0.21435,
				"method": "rhf"
			},
			{
				"type": "occ",
				"energy": -0.2005,
				"method": "rhf"
			},
			{
				"type": "unocc",
				"energy": -0.0085,
				"method": "rhf"
			},
			{
				"type": "unocc",
				"energy": -0.00688,
				"method": "rhf"
			},
			{
				"type": "unocc",
				"energy": 0.01723,
				"method": "rhf"
			},
			{
				"type": "unocc",
				"energy": 0.04973,
				"method": "rhf"
			},
			{
				"type": "unocc",
				"energy": 0.06553,
				"method": "rhf"
			}
		],
		"cosmo_sigma_profile": { 
			"-0.025": 0.0,
			"-0.024": 0.0,
			"-0.023": 0.0,
			"-0.022": 0.0,
			"-0.021": 0.0,
			"-0.02": 0.0,
			"-0.019": 0.166262517409,
			"-0.018": 0.754764809526,
			"-0.017": 0.987663107529,
			"-0.016": 0.882301769485,
			"-0.015": 0.625933092411,
			"-0.014": 0.608386965965,
			"-0.013": 0.69515257555,
			"-0.012": 0.534920155911,
			"-0.011": 0.870904520642,
			"-0.01": 1.14891714254,
			"-0.009": 2.96145786815,
			"-0.008": 3.6971981735,
			"-0.007": 7.32816008226,
			"-0.006": 10.2293720279,
			"-0.005": 14.6607994291,
			"-0.004": 19.8092622362,
			"-0.003": 23.3353503111,
			"-0.002": 18.3152951522,
			"-0.001": 17.6892442124,
			"0.0": 19.9970902847,
			"0.001": 19.7748248281,
			"0.002": 20.3838073375,
			"0.003": 18.7744814804,
			"0.004": 15.279109857,
			"0.005": 14.2822612331,
			"0.006": 8.29127024919,
			"0.007": 5.28656295857,
			"0.008": 4.92900733341,
			"0.009": 3.8339595128,
			"0.01": 2.82225671153,
			"0.011": 4.52823373111,
			"0.012": 1.92013662937,
			"0.013": 1.01129862772,
			"0.014": 0.47532264478,
			"0.015": 0.562501317917,
			"0.016": 0.397187131978,
			"0.017": 0.0,
			"0.018": 0.0,
			"0.019": 0.0,
			"0.02": 0.0,
			"0.021": 0.0,
			"0.022": 0.0,
			"0.023": 0.0,
			"0.024": 0.0,
			"0.025": 0.0
		}
	}
}
