{
	 "smiles": "NS(=O)(=O)C1=CC(=C(F)C=C1)C(F)(F)F", 
	 "Tm": 435.15, 
	 "num_atms": 20, 
	 "gaussian": { 
		 "optdone": 1, 
		 "sigma_profile": "yes", 
		 "theory": "DFT", 
		 "functional": "B3LYP", 
		 "basiset": "6-31G**", 
		 "properties": { 
			 "R2extent": 3923.6156, 
			 "electric_dipole_moment_norm": 3.47855152901, 
			 "electric_quadrupole_moment_norm": 14.3540074638, 
			 "total_energy": -1272.43270956, 
			 "HOMO_LUMO_gap": 0.22086, 
			 "cosmo_polarized_energy": -14.24, 
			 "cosmo_cavitation_energy": 28.16, 
			 "cosmo_dispersion_energy": -20.5, 
			 "cosmo_repulsion_energy": 1.49, 
			 "cosmo_total_nonelectrostatic_energy": 9.15, 
			 "SMD_solvation_energy": 6.06 
		},
		"coords": [
			{
				"x": -1.5179977915,
				"y": -1.1769398719,
				"z": 2.8654429337,
				"element": "N" 
			},
			{
				"x": 0.0331877525,
				"y": -1.1281516179,
				"z": 2.1896715044,
				"element": "S" 
			},
			{
				"x": 0.5295062094,
				"y": -2.5064195528,
				"z": 2.1648759788,
				"element": "O" 
			},
			{
				"x": 0.7615630435,
				"y": -0.0342029402,
				"z": 2.8366912786,
				"element": "O" 
			},
			{
				"x": -0.2687737248,
				"y": -0.6380023949,
				"z": 0.4915488155,
				"element": "C" 
			},
			{
				"x": -0.2644031022,
				"y": 0.7173301966,
				"z": 0.1639354072,
				"element": "C" 
			},
			{
				"x": -0.5014363622,
				"y": 1.1060054449,
				"z": -1.153458177,
				"element": "C" 
			},
			{
				"x": -0.7313707686,
				"y": 0.115106631,
				"z": -2.1129002492,
				"element": "C" 
			},
			{
				"x": -0.9585516975,
				"y": 0.4804303228,
				"z": -3.3825073953,
				"element": "F" 
			},
			{
				"x": -0.7232614168,
				"y": -1.2377357622,
				"z": -1.7950943159,
				"element": "C" 
			},
			{
				"x": -0.4873559447,
				"y": -1.619529063,
				"z": -0.4764090142,
				"element": "C" 
			},
			{
				"x": -0.5045791825,
				"y": 2.559295625,
				"z": -1.5551607888,
				"element": "C" 
			},
			{
				"x": -0.2640695094,
				"y": 3.3601186164,
				"z": -0.4960337537,
				"element": "F" 
			},
			{
				"x": 0.4376799101,
				"y": 2.8180951571,
				"z": -2.4834944344,
				"element": "F" 
			},
			{
				"x": -1.6934429533,
				"y": 2.9230320694,
				"z": -2.0776865649,
				"element": "F" 
			},
			{
				"x": -1.5951431594,
				"y": -0.4740959596,
				"z": 3.5960263601,
				"element": "H" 
			},
			{
				"x": -1.6982094573,
				"y": -2.1104833492,
				"z": 3.2255134869,
				"element": "H" 
			},
			{
				"x": -0.0619003097,
				"y": 1.4631028338,
				"z": 0.9228876466,
				"element": "H" 
			},
			{
				"x": -0.893536708,
				"y": -1.9667391606,
				"z": -2.5791942322,
				"element": "H" 
			},
			{
				"x": -0.4553048275,
				"y": -2.6675172247,
				"z": -0.2002544864,
				"element": "H" 
			}
		],
		 "valence_orbital": [ 
			{
				"type": "occ",
				"energy": -0.33098,
				"method": "rhf"
			},
			{
				"type": "occ",
				"energy": -0.3184,
				"method": "rhf"
			},
			{
				"type": "occ",
				"energy": -0.31324,
				"method": "rhf"
			},
			{
				"type": "occ",
				"energy": -0.29825,
				"method": "rhf"
			},
			{
				"type": "occ",
				"energy": -0.27719,
				"method": "rhf"
			},
			{
				"type": "unocc",
				"energy": -0.05633,
				"method": "rhf"
			},
			{
				"type": "unocc",
				"energy": -0.04848,
				"method": "rhf"
			},
			{
				"type": "unocc",
				"energy": 0.04061,
				"method": "rhf"
			},
			{
				"type": "unocc",
				"energy": 0.06728,
				"method": "rhf"
			},
			{
				"type": "unocc",
				"energy": 0.07304,
				"method": "rhf"
			}
		],
		"cosmo_sigma_profile": { 
			"-0.025": 0.0,
			"-0.024": 0.0,
			"-0.023": 0.0,
			"-0.022": 0.0,
			"-0.021": 0.0,
			"-0.02": 0.0,
			"-0.019": 0.0,
			"-0.018": 0.0,
			"-0.017": 0.0,
			"-0.016": 0.00169744932672,
			"-0.015": 1.58513172349,
			"-0.014": 2.88282434357,
			"-0.013": 2.25723471705,
			"-0.012": 2.40889616243,
			"-0.011": 2.13504208516,
			"-0.01": 1.77807979029,
			"-0.009": 4.50913068988,
			"-0.008": 5.12070902234,
			"-0.007": 6.98818446225,
			"-0.006": 6.39587587032,
			"-0.005": 7.08437659712,
			"-0.004": 9.74997544569,
			"-0.003": 10.5322807939,
			"-0.002": 17.1786338443,
			"-0.001": 17.4333406548,
			"0.0": 15.6730458748,
			"0.001": 14.8110001539,
			"0.002": 35.0013133871,
			"0.003": 24.5827783923,
			"0.004": 1.70156664946,
			"0.005": 3.17628402711,
			"0.006": 3.23961803219,
			"0.007": 3.76034204162,
			"0.008": 3.54465209352,
			"0.009": 4.81703978709,
			"0.01": 9.00523139789,
			"0.011": 8.02496645465,
			"0.012": 0.968225080793,
			"0.013": 0.00981559869256,
			"0.014": 0.0,
			"0.015": 0.0,
			"0.016": 0.0,
			"0.017": 0.0,
			"0.018": 0.0,
			"0.019": 0.0,
			"0.02": 0.0,
			"0.021": 0.0,
			"0.022": 0.0,
			"0.023": 0.0,
			"0.024": 0.0,
			"0.025": 0.0
		}
	}
}
