{
	 "smiles": "OC(=O)CN1CCCCC1=O", 
	 "Tm": 443.15, 
	 "num_atms": 22, 
	 "gaussian": { 
		 "optdone": 1, 
		 "sigma_profile": "yes", 
		 "theory": "DFT", 
		 "functional": "B3LYP", 
		 "basiset": "6-31G**", 
		 "properties": { 
			 "R2extent": 2422.599, 
			 "electric_dipole_moment_norm": 6.43050841225, 
			 "electric_quadrupole_moment_norm": 16.712984212, 
			 "total_energy": -553.829470428, 
			 "HOMO_LUMO_gap": 0.24264, 
			 "cosmo_polarized_energy": -15.31, 
			 "cosmo_cavitation_energy": 24.19, 
			 "cosmo_dispersion_energy": -17.93, 
			 "cosmo_repulsion_energy": 1.45, 
			 "cosmo_total_nonelectrostatic_energy": 7.72, 
			 "SMD_solvation_energy": 5.08 
		},
		"coords": [
			{
				"x": -1.0880846693,
				"y": 1.5311347045,
				"z": -2.8351981442,
				"element": "O" 
			},
			{
				"x": -1.5437573827,
				"y": 2.4750352032,
				"z": -2.0039157162,
				"element": "C" 
			},
			{
				"x": -2.64225214,
				"y": 2.9693467588,
				"z": -2.1108990274,
				"element": "O" 
			},
			{
				"x": -0.5541569748,
				"y": 2.9051310949,
				"z": -0.9035667798,
				"element": "C" 
			},
			{
				"x": -0.178566088,
				"y": 1.8219192414,
				"z": 0.0126264373,
				"element": "N" 
			},
			{
				"x": -0.7446832089,
				"y": 1.7544200035,
				"z": 1.3674629277,
				"element": "C" 
			},
			{
				"x": -1.1157264416,
				"y": 0.3074687649,
				"z": 1.7088198806,
				"element": "C" 
			},
			{
				"x": 0.088061337,
				"y": -0.652657269,
				"z": 1.5458197136,
				"element": "C" 
			},
			{
				"x": 1.2308696136,
				"y": -0.030289026,
				"z": 0.7044320242,
				"element": "C" 
			},
			{
				"x": 0.7413364745,
				"y": 0.903049533,
				"z": -0.3852073493,
				"element": "C" 
			},
			{
				"x": 1.1659903225,
				"y": 0.8597597857,
				"z": -1.5510978282,
				"element": "O" 
			},
			{
				"x": -0.1723085325,
				"y": 1.2647025372,
				"z": -2.5645831743,
				"element": "H" 
			},
			{
				"x": 0.3563904404,
				"y": 3.2884990837,
				"z": -1.378625162,
				"element": "H" 
			},
			{
				"x": -1.0210166895,
				"y": 3.7054449151,
				"z": -0.3309940486,
				"element": "H" 
			},
			{
				"x": -1.6320109115,
				"y": 2.3905415493,
				"z": 1.3928946724,
				"element": "H" 
			},
			{
				"x": -0.0302577208,
				"y": 2.1599961436,
				"z": 2.0991811257,
				"element": "H" 
			},
			{
				"x": -1.5131567326,
				"y": 0.2678484551,
				"z": 2.7281005681,
				"element": "H" 
			},
			{
				"x": -1.92731034,
				"y": 0.0067506863,
				"z": 1.0380306766,
				"element": "H" 
			},
			{
				"x": -0.2477141681,
				"y": -1.5787653933,
				"z": 1.0705761258,
				"element": "H" 
			},
			{
				"x": 0.4918389689,
				"y": -0.9350181594,
				"z": 2.5229389217,
				"element": "H" 
			},
			{
				"x": 1.8528135621,
				"y": -0.7927784744,
				"z": 0.2333460864,
				"element": "H" 
			},
			{
				"x": 1.8832012813,
				"y": 0.5617598619,
				"z": 1.36045807,
				"element": "H" 
			}
		],
		 "valence_orbital": [ 
			{
				"type": "occ",
				"energy": -0.34964,
				"method": "rhf"
			},
			{
				"type": "occ",
				"energy": -0.29776,
				"method": "rhf"
			},
			{
				"type": "occ",
				"energy": -0.28496,
				"method": "rhf"
			},
			{
				"type": "occ",
				"energy": -0.27215,
				"method": "rhf"
			},
			{
				"type": "occ",
				"energy": -0.24693,
				"method": "rhf"
			},
			{
				"type": "unocc",
				"energy": -0.00429,
				"method": "rhf"
			},
			{
				"type": "unocc",
				"energy": 0.01532,
				"method": "rhf"
			},
			{
				"type": "unocc",
				"energy": 0.06184,
				"method": "rhf"
			},
			{
				"type": "unocc",
				"energy": 0.08861,
				"method": "rhf"
			},
			{
				"type": "unocc",
				"energy": 0.10037,
				"method": "rhf"
			}
		],
		"cosmo_sigma_profile": { 
			"-0.025": 0.0,
			"-0.024": 0.0,
			"-0.023": 0.0,
			"-0.022": 0.0,
			"-0.021": 0.0,
			"-0.02": 0.0,
			"-0.019": 0.0,
			"-0.018": 0.0,
			"-0.017": 0.0,
			"-0.016": 0.0,
			"-0.015": 0.0,
			"-0.014": 0.0,
			"-0.013": 0.0,
			"-0.012": 0.0,
			"-0.011": 0.0,
			"-0.01": 0.0,
			"-0.009": 0.233194734904,
			"-0.008": 3.35062164594,
			"-0.007": 6.35280375984,
			"-0.006": 11.1688286381,
			"-0.005": 15.2525714373,
			"-0.004": 27.8344118488,
			"-0.003": 31.3571988568,
			"-0.002": 16.9683899811,
			"-0.001": 12.3649832704,
			"0.0": 8.26579419441,
			"0.001": 3.58476293799,
			"0.002": 2.78689798992,
			"0.003": 2.96547799972,
			"0.004": 2.82129193791,
			"0.005": 2.98021781765,
			"0.006": 3.30337566345,
			"0.007": 3.59115987746,
			"0.008": 3.37567288171,
			"0.009": 4.24489106637,
			"0.01": 4.75426277471,
			"0.011": 7.60690053788,
			"0.012": 8.33228401798,
			"0.013": 4.60105530483,
			"0.014": 1.34839717604,
			"0.015": 0.0186038837261,
			"0.016": 0.0,
			"0.017": 0.0,
			"0.018": 0.0,
			"0.019": 0.0,
			"0.02": 0.0,
			"0.021": 0.0,
			"0.022": 0.0,
			"0.023": 0.0,
			"0.024": 0.0,
			"0.025": 0.0
		}
	}
}
