{
	 "smiles": "NC1=C(Br)C=C(Br)C=N1", 
	 "Tm": 376.65, 
	 "num_atms": 13, 
	 "gaussian": { 
		 "optdone": 1, 
		 "sigma_profile": "yes", 
		 "theory": "DFT", 
		 "functional": "B3LYP", 
		 "basiset": "6-31G**", 
		 "properties": { 
			 "R2extent": 4983.2155, 
			 "electric_dipole_moment_norm": 1.84754829436, 
			 "electric_quadrupole_moment_norm": 5.39902468044, 
			 "total_energy": -5445.23714115, 
			 "HOMO_LUMO_gap": 0.2095, 
			 "cosmo_polarized_energy": -9.83, 
			 "cosmo_cavitation_energy": 22.16, 
			 "cosmo_dispersion_energy": -17.35, 
			 "cosmo_repulsion_energy": 1.42, 
			 "cosmo_total_nonelectrostatic_energy": 6.24, 
			 "SMD_solvation_energy": 0.05 
		},
		"coords": [
			{
				"x": 2.4841386784,
				"y": -0.2011298959,
				"z": -0.2473960718,
				"element": "N" 
			},
			{
				"x": 1.177200206,
				"y": -0.7505006239,
				"z": -0.3960904279,
				"element": "C" 
			},
			{
				"x": 0.8686884089,
				"y": -2.107799652,
				"z": -0.1707347723,
				"element": "C" 
			},
			{
				"x": 2.2335008496,
				"y": -3.3326005749,
				"z": 0.3662930237,
				"element": "Br" 
			},
			{
				"x": -0.4293080261,
				"y": -2.5803705104,
				"z": -0.3340317022,
				"element": "C" 
			},
			{
				"x": -1.4006216343,
				"y": -1.6635779417,
				"z": -0.7257773523,
				"element": "C" 
			},
			{
				"x": -3.2048648426,
				"y": -2.2181683398,
				"z": -0.9747406284,
				"element": "Br" 
			},
			{
				"x": -1.0372420904,
				"y": -0.3337417514,
				"z": -0.9340908353,
				"element": "C" 
			},
			{
				"x": 0.2146758815,
				"y": 0.0975076248,
				"z": -0.7713981086,
				"element": "N" 
			},
			{
				"x": 2.8217046669,
				"y": -0.3580604042,
				"z": 0.700216497,
				"element": "H" 
			},
			{
				"x": 3.137777507,
				"y": -0.6886015333,
				"z": -0.8570483741,
				"element": "H" 
			},
			{
				"x": -0.6732654784,
				"y": -3.6214016868,
				"z": -0.1627172638,
				"element": "H" 
			},
			{
				"x": -1.7775841266,
				"y": 0.4005452894,
				"z": -1.2401839842,
				"element": "H" 
			}
		],
		 "valence_orbital": [ 
			{
				"type": "occ",
				"energy": -0.30339,
				"method": "rhf"
			},
			{
				"type": "occ",
				"energy": -0.28253,
				"method": "rhf"
			},
			{
				"type": "occ",
				"energy": -0.27338,
				"method": "rhf"
			},
			{
				"type": "occ",
				"energy": -0.26679,
				"method": "rhf"
			},
			{
				"type": "occ",
				"energy": -0.25746,
				"method": "rhf"
			},
			{
				"type": "unocc",
				"energy": -0.04796,
				"method": "rhf"
			},
			{
				"type": "unocc",
				"energy": -0.03765,
				"method": "rhf"
			},
			{
				"type": "unocc",
				"energy": -0.0249,
				"method": "rhf"
			},
			{
				"type": "unocc",
				"energy": 0.01236,
				"method": "rhf"
			},
			{
				"type": "unocc",
				"energy": 0.08491,
				"method": "rhf"
			}
		],
		"cosmo_sigma_profile": { 
			"-0.025": 0.0,
			"-0.024": 0.0,
			"-0.023": 0.0,
			"-0.022": 0.0,
			"-0.021": 0.0,
			"-0.02": 0.0,
			"-0.019": 0.0,
			"-0.018": 0.0,
			"-0.017": 0.0,
			"-0.016": 0.0,
			"-0.015": 0.0,
			"-0.014": 0.0,
			"-0.013": 0.0,
			"-0.012": 0.680148231408,
			"-0.011": 2.83599243379,
			"-0.01": 2.42926851781,
			"-0.009": 3.81251363738,
			"-0.008": 5.15880122723,
			"-0.007": 6.62092858708,
			"-0.006": 5.25504369324,
			"-0.005": 8.36230610302,
			"-0.004": 8.99474562181,
			"-0.003": 8.92553494799,
			"-0.002": 14.7601666367,
			"-0.001": 19.6222436689,
			"0.0": 19.3253468782,
			"0.001": 11.7067096904,
			"0.002": 15.0594584815,
			"0.003": 18.3309731489,
			"0.004": 13.4680184369,
			"0.005": 1.27144784764,
			"0.006": 2.06882945455,
			"0.007": 1.34273537355,
			"0.008": 1.32688651523,
			"0.009": 1.56482692299,
			"0.01": 0.746296770173,
			"0.011": 1.34157774283,
			"0.012": 1.12509399862,
			"0.013": 1.65326881275,
			"0.014": 1.15829604755,
			"0.015": 1.55680997911,
			"0.016": 0.960847418363,
			"0.017": 1.61553541059,
			"0.018": 1.00677031987,
			"0.019": 0.34872458205,
			"0.02": 0.0,
			"0.021": 0.0,
			"0.022": 0.0,
			"0.023": 0.0,
			"0.024": 0.0,
			"0.025": 0.0
		}
	}
}
