{
	 "smiles": "CC1=NN=CN1C1CC1", 
	 "Tm": 323.15, 
	 "num_atms": 18, 
	 "gaussian": { 
		 "optdone": 1, 
		 "sigma_profile": "yes", 
		 "theory": "DFT", 
		 "functional": "B3LYP", 
		 "basiset": "6-31G**", 
		 "properties": { 
			 "R2extent": 1560.4604, 
			 "electric_dipole_moment_norm": 6.19571792934, 
			 "electric_quadrupole_moment_norm": 14.3280228437, 
			 "total_energy": -398.263443676, 
			 "HOMO_LUMO_gap": 0.26045, 
			 "cosmo_polarized_energy": -16.36, 
			 "cosmo_cavitation_energy": 21.39, 
			 "cosmo_dispersion_energy": -15.48, 
			 "cosmo_repulsion_energy": 1.27, 
			 "cosmo_total_nonelectrostatic_energy": 7.18, 
			 "SMD_solvation_energy": 1.83 
		},
		"coords": [
			{
				"x": 0.1361696822,
				"y": 1.6486267963,
				"z": 1.2891994071,
				"element": "C" 
			},
			{
				"x": -0.1064022804,
				"y": 1.5327073211,
				"z": -0.1776330517,
				"element": "C" 
			},
			{
				"x": 0.3802458075,
				"y": 2.3377733696,
				"z": -1.0950881936,
				"element": "N" 
			},
			{
				"x": -0.0556701073,
				"y": 1.8883075757,
				"z": -2.3296534481,
				"element": "N" 
			},
			{
				"x": -0.7873776854,
				"y": 0.8265208208,
				"z": -2.114456477,
				"element": "C" 
			},
			{
				"x": -0.8728697843,
				"y": 0.5504355161,
				"z": -0.7707971464,
				"element": "N" 
			},
			{
				"x": -1.5194648874,
				"y": -0.569366013,
				"z": -0.1420449277,
				"element": "C" 
			},
			{
				"x": -2.9034987855,
				"y": -0.9592987608,
				"z": -0.5925237101,
				"element": "C" 
			},
			{
				"x": -2.7038710686,
				"y": -0.3308649726,
				"z": 0.7628444757,
				"element": "C" 
			},
			{
				"x": 0.6331400014,
				"y": 0.7585624273,
				"z": 1.6916351044,
				"element": "H" 
			},
			{
				"x": 0.7801552241,
				"y": 2.5126079937,
				"z": 1.4592206802,
				"element": "H" 
			},
			{
				"x": -0.7947221618,
				"y": 1.7882719335,
				"z": 1.8492116993,
				"element": "H" 
			},
			{
				"x": -1.2769287758,
				"y": 0.2270421382,
				"z": -2.8684589705,
				"element": "H" 
			},
			{
				"x": -0.8395831767,
				"y": -1.3741873193,
				"z": 0.1288043986,
				"element": "H" 
			},
			{
				"x": -3.130035696,
				"y": -2.0186218021,
				"z": -0.6535293742,
				"element": "H" 
			},
			{
				"x": -3.3725485189,
				"y": -0.3514980128,
				"z": -1.3591557564,
				"element": "H" 
			},
			{
				"x": -3.0351001006,
				"y": 0.6947522461,
				"z": 0.8883602493,
				"element": "H" 
			},
			{
				"x": -2.7932376865,
				"y": -0.9509712578,
				"z": 1.6488650409,
				"element": "H" 
			}
		],
		 "valence_orbital": [ 
			{
				"type": "occ",
				"energy": -0.33111,
				"method": "rhf"
			},
			{
				"type": "occ",
				"energy": -0.29508,
				"method": "rhf"
			},
			{
				"type": "occ",
				"energy": -0.27753,
				"method": "rhf"
			},
			{
				"type": "occ",
				"energy": -0.24655,
				"method": "rhf"
			},
			{
				"type": "occ",
				"energy": -0.24037,
				"method": "rhf"
			},
			{
				"type": "unocc",
				"energy": 0.02008,
				"method": "rhf"
			},
			{
				"type": "unocc",
				"energy": 0.05338,
				"method": "rhf"
			},
			{
				"type": "unocc",
				"energy": 0.07729,
				"method": "rhf"
			},
			{
				"type": "unocc",
				"energy": 0.08371,
				"method": "rhf"
			},
			{
				"type": "unocc",
				"energy": 0.09851,
				"method": "rhf"
			}
		],
		"cosmo_sigma_profile": { 
			"-0.025": 0.0,
			"-0.024": 0.0,
			"-0.023": 0.0,
			"-0.022": 0.0,
			"-0.021": 0.0,
			"-0.02": 0.0,
			"-0.019": 0.0,
			"-0.018": 0.0,
			"-0.017": 0.0,
			"-0.016": 0.0,
			"-0.015": 0.0,
			"-0.014": 0.0,
			"-0.013": 0.0,
			"-0.012": 0.0,
			"-0.011": 0.0,
			"-0.01": 0.390952066437,
			"-0.009": 1.68348935622,
			"-0.008": 1.68370122049,
			"-0.007": 4.64924213921,
			"-0.006": 14.3602531439,
			"-0.005": 21.3392148312,
			"-0.004": 16.5090766367,
			"-0.003": 15.288549933,
			"-0.002": 16.4458410536,
			"-0.001": 16.6961082609,
			"0.0": 10.3664654461,
			"0.001": 5.84958609294,
			"0.002": 4.84805106601,
			"0.003": 3.49472277399,
			"0.004": 3.68839522715,
			"0.005": 2.50912488792,
			"0.006": 1.83668573703,
			"0.007": 1.43310964617,
			"0.008": 1.84275189179,
			"0.009": 2.06953536091,
			"0.01": 2.30883900097,
			"0.011": 2.09449895618,
			"0.012": 2.46003540634,
			"0.013": 3.2001240673,
			"0.014": 3.58755306711,
			"0.015": 2.87761871236,
			"0.016": 2.87303494314,
			"0.017": 2.31990046422,
			"0.018": 0.826149556602,
			"0.019": 0.0,
			"0.02": 0.0,
			"0.021": 0.0,
			"0.022": 0.0,
			"0.023": 0.0,
			"0.024": 0.0,
			"0.025": 0.0
		}
	}
}
