{
	 "smiles": "CC(=O)OC1=CC=C(Br)C=C1C(O)=O", 
	 "Tm": 333.15, 
	 "num_atms": 21, 
	 "gaussian": { 
		 "optdone": 1, 
		 "sigma_profile": "yes", 
		 "theory": "DFT", 
		 "functional": "B3LYP", 
		 "basiset": "6-31G**", 
		 "properties": { 
			 "R2extent": 4583.0679, 
			 "electric_dipole_moment_norm": 3.73368029162, 
			 "electric_quadrupole_moment_norm": 11.5771479173, 
			 "total_energy": -3219.49715969, 
			 "HOMO_LUMO_gap": 0.18626, 
			 "cosmo_polarized_energy": -13.18, 
			 "cosmo_cavitation_energy": 29.01, 
			 "cosmo_dispersion_energy": -21.0, 
			 "cosmo_repulsion_energy": 1.68, 
			 "cosmo_total_nonelectrostatic_energy": 9.69, 
			 "SMD_solvation_energy": 6.23 
		},
		"coords": [
			{
				"x": 2.9082130555,
				"y": 0.3480803571,
				"z": -4.1027853394,
				"element": "C" 
			},
			{
				"x": 1.794050901,
				"y": -0.060476311,
				"z": -3.1780880661,
				"element": "C" 
			},
			{
				"x": 0.6408012803,
				"y": -0.2421316631,
				"z": -3.4678584883,
				"element": "O" 
			},
			{
				"x": 2.2864482019,
				"y": -0.2073227013,
				"z": -1.8961581095,
				"element": "O" 
			},
			{
				"x": 1.3927005973,
				"y": -0.4947321731,
				"z": -0.8765263013,
				"element": "C" 
			},
			{
				"x": 1.4325665011,
				"y": -1.7874679965,
				"z": -0.3564508692,
				"element": "C" 
			},
			{
				"x": 0.6169107885,
				"y": -2.1500150774,
				"z": 0.7113048152,
				"element": "C" 
			},
			{
				"x": -0.2518077929,
				"y": -1.2021541337,
				"z": 1.2527471502,
				"element": "C" 
			},
			{
				"x": -1.3807392352,
				"y": -1.6859836624,
				"z": 2.7127746389,
				"element": "Br" 
			},
			{
				"x": -0.301029308,
				"y": 0.0877218542,
				"z": 0.7436434082,
				"element": "C" 
			},
			{
				"x": 0.5262808331,
				"y": 0.4664270916,
				"z": -0.3257059875,
				"element": "C" 
			},
			{
				"x": 0.3921373089,
				"y": 1.8892226389,
				"z": -0.7596628104,
				"element": "C" 
			},
			{
				"x": 1.2957456219,
				"y": 2.291906841,
				"z": -1.6834001386,
				"element": "O" 
			},
			{
				"x": -0.4423507224,
				"y": 2.6498267826,
				"z": -0.3124215334,
				"element": "O" 
			},
			{
				"x": 3.232993357,
				"y": 1.3589796498,
				"z": -3.8384580625,
				"element": "H" 
			},
			{
				"x": 2.551100218,
				"y": 0.3307428472,
				"z": -5.1318477489,
				"element": "H" 
			},
			{
				"x": 3.7686539436,
				"y": -0.3158406231,
				"z": -3.9859104661,
				"element": "H" 
			},
			{
				"x": 2.1143103247,
				"y": -2.5039771711,
				"z": -0.8015959419,
				"element": "H" 
			},
			{
				"x": 0.6524002805,
				"y": -3.1557634405,
				"z": 1.1139203225,
				"element": "H" 
			},
			{
				"x": -0.9713335882,
				"y": 0.8311170505,
				"z": 1.156922915,
				"element": "H" 
			},
			{
				"x": 1.0759474332,
				"y": 3.2218398402,
				"z": -1.8629433872,
				"element": "H" 
			}
		],
		 "valence_orbital": [ 
			{
				"type": "occ",
				"energy": -0.29479,
				"method": "rhf"
			},
			{
				"type": "occ",
				"energy": -0.29034,
				"method": "rhf"
			},
			{
				"type": "occ",
				"energy": -0.28679,
				"method": "rhf"
			},
			{
				"type": "occ",
				"energy": -0.27851,
				"method": "rhf"
			},
			{
				"type": "occ",
				"energy": -0.25028,
				"method": "rhf"
			},
			{
				"type": "unocc",
				"energy": -0.06402,
				"method": "rhf"
			},
			{
				"type": "unocc",
				"energy": -0.02667,
				"method": "rhf"
			},
			{
				"type": "unocc",
				"energy": -0.00071,
				"method": "rhf"
			},
			{
				"type": "unocc",
				"energy": 0.00151,
				"method": "rhf"
			},
			{
				"type": "unocc",
				"energy": 0.04051,
				"method": "rhf"
			}
		],
		"cosmo_sigma_profile": { 
			"-0.025": 0.0,
			"-0.024": 0.0,
			"-0.023": 0.0,
			"-0.022": 0.0,
			"-0.021": 0.0,
			"-0.02": 0.0,
			"-0.019": 0.43255748754,
			"-0.018": 0.854926047199,
			"-0.017": 0.931951234213,
			"-0.016": 0.758676618986,
			"-0.015": 0.888713945992,
			"-0.014": 0.501572882969,
			"-0.013": 0.308752900237,
			"-0.012": 1.08866711763,
			"-0.011": 0.76975830689,
			"-0.01": 0.350956382957,
			"-0.009": 0.993814627302,
			"-0.008": 4.76560594936,
			"-0.007": 7.50183697523,
			"-0.006": 10.5648150058,
			"-0.005": 12.5741234582,
			"-0.004": 13.6457042466,
			"-0.003": 16.8430752733,
			"-0.002": 18.2964114344,
			"-0.001": 17.7724815703,
			"0.0": 22.3028183042,
			"0.001": 22.5785231551,
			"0.002": 11.8908133121,
			"0.003": 13.6443005047,
			"0.004": 14.8004325519,
			"0.005": 6.01727477983,
			"0.006": 5.53367092721,
			"0.007": 4.6677592618,
			"0.008": 4.18044992791,
			"0.009": 3.50097609766,
			"0.01": 5.67272565202,
			"0.011": 9.16424066985,
			"0.012": 1.79738787565,
			"0.013": 0.0,
			"0.014": 0.0,
			"0.015": 0.0,
			"0.016": 0.0,
			"0.017": 0.0,
			"0.018": 0.0,
			"0.019": 0.0,
			"0.02": 0.0,
			"0.021": 0.0,
			"0.022": 0.0,
			"0.023": 0.0,
			"0.024": 0.0,
			"0.025": 0.0
		}
	}
}
