{
	 "smiles": "BrC1=CC2=C(C=C1)N=CS2", 
	 "Tm": 326.65, 
	 "num_atms": 14, 
	 "gaussian": { 
		 "optdone": 1, 
		 "sigma_profile": "yes", 
		 "theory": "DFT", 
		 "functional": "B3LYP", 
		 "basiset": "6-31G**", 
		 "properties": { 
			 "R2extent": 2973.7944, 
			 "electric_dipole_moment_norm": 1.10455903871, 
			 "electric_quadrupole_moment_norm": 6.42265751773, 
			 "total_energy": -3293.49820908, 
			 "HOMO_LUMO_gap": 0.19214, 
			 "cosmo_polarized_energy": -6.03, 
			 "cosmo_cavitation_energy": 22.34, 
			 "cosmo_dispersion_energy": -17.87, 
			 "cosmo_repulsion_energy": 1.37, 
			 "cosmo_total_nonelectrostatic_energy": 5.85, 
			 "SMD_solvation_energy": 0.86 
		},
		"coords": [
			{
				"x": -2.2382032892,
				"y": -1.244197378,
				"z": 1.3030271637,
				"element": "Br" 
			},
			{
				"x": -1.3343815388,
				"y": -0.2582037174,
				"z": -0.0621850418,
				"element": "C" 
			},
			{
				"x": -0.0707023436,
				"y": 0.2551378703,
				"z": 0.2058393244,
				"element": "C" 
			},
			{
				"x": 0.5574566832,
				"y": 0.969765315,
				"z": -0.817355918,
				"element": "C" 
			},
			{
				"x": -0.0606290568,
				"y": 1.1670425803,
				"z": -2.0769792395,
				"element": "C" 
			},
			{
				"x": -1.3367838986,
				"y": 0.6335379849,
				"z": -2.3095510974,
				"element": "C" 
			},
			{
				"x": -1.9717717887,
				"y": -0.0784582638,
				"z": -1.3014086495,
				"element": "C" 
			},
			{
				"x": 0.6803916303,
				"y": 1.8955787596,
				"z": -2.9959932882,
				"element": "N" 
			},
			{
				"x": 1.8122784342,
				"y": 2.2480741349,
				"z": -2.4855257699,
				"element": "C" 
			},
			{
				"x": 2.1299928345,
				"y": 1.7422737208,
				"z": -0.8208550728,
				"element": "S" 
			},
			{
				"x": 0.3973397923,
				"y": 0.1013646007,
				"z": 1.1706138359,
				"element": "H" 
			},
			{
				"x": -1.8094868724,
				"y": 0.7849032189,
				"z": -3.2741632032,
				"element": "H" 
			},
			{
				"x": -2.9576623889,
				"y": -0.4989492757,
				"z": -1.4602705357,
				"element": "H" 
			},
			{
				"x": 2.5614618025,
				"y": 2.8260304494,
				"z": -3.015392508,
				"element": "H" 
			}
		],
		 "valence_orbital": [ 
			{
				"type": "occ",
				"energy": -0.30666,
				"method": "rhf"
			},
			{
				"type": "occ",
				"energy": -0.29279,
				"method": "rhf"
			},
			{
				"type": "occ",
				"energy": -0.28793,
				"method": "rhf"
			},
			{
				"type": "occ",
				"energy": -0.2522,
				"method": "rhf"
			},
			{
				"type": "occ",
				"energy": -0.24049,
				"method": "rhf"
			},
			{
				"type": "unocc",
				"energy": -0.04835,
				"method": "rhf"
			},
			{
				"type": "unocc",
				"energy": -0.02212,
				"method": "rhf"
			},
			{
				"type": "unocc",
				"energy": -0.01061,
				"method": "rhf"
			},
			{
				"type": "unocc",
				"energy": 0.01219,
				"method": "rhf"
			},
			{
				"type": "unocc",
				"energy": 0.01871,
				"method": "rhf"
			}
		],
		"cosmo_sigma_profile": { 
			"-0.025": 0.0,
			"-0.024": 0.0,
			"-0.023": 0.0,
			"-0.022": 0.0,
			"-0.021": 0.0,
			"-0.02": 0.0,
			"-0.019": 0.0,
			"-0.018": 0.0,
			"-0.017": 0.0,
			"-0.016": 0.0,
			"-0.015": 0.0,
			"-0.014": 0.0,
			"-0.013": 0.0,
			"-0.012": 0.0,
			"-0.011": 0.48408466057,
			"-0.01": 2.79962723549,
			"-0.009": 2.50094393478,
			"-0.008": 4.15661129826,
			"-0.007": 7.76606148416,
			"-0.006": 6.80204985559,
			"-0.005": 7.54184817799,
			"-0.004": 8.08361824494,
			"-0.003": 9.05978026312,
			"-0.002": 9.33000794132,
			"-0.001": 13.0032474208,
			"0.0": 17.3062494352,
			"0.001": 23.6992837009,
			"0.002": 27.1531345255,
			"0.003": 18.3868158867,
			"0.004": 12.9517806664,
			"0.005": 5.57008240295,
			"0.006": 1.20520791498,
			"0.007": 1.40870338322,
			"0.008": 1.61012269046,
			"0.009": 1.17060624294,
			"0.01": 0.314642593965,
			"0.011": 1.26326390351,
			"0.012": 0.956769833191,
			"0.013": 0.937617321242,
			"0.014": 0.938119011861,
			"0.015": 0.188534942949,
			"0.016": 0.0,
			"0.017": 0.0,
			"0.018": 0.0,
			"0.019": 0.0,
			"0.02": 0.0,
			"0.021": 0.0,
			"0.022": 0.0,
			"0.023": 0.0,
			"0.024": 0.0,
			"0.025": 0.0
		}
	}
}
