{
	 "smiles": "OC(=O)C1=CC=C(NC(=O)CSC2=CC=CS2)C=C1", 
	 "Tm": 507.15, 
	 "num_atms": 30, 
	 "gaussian": { 
		 "optdone": 1, 
		 "sigma_profile": "yes", 
		 "theory": "DFT", 
		 "functional": "B3LYP", 
		 "basiset": "6-31G**", 
		 "properties": { 
			 "R2extent": 8901.9055, 
			 "electric_dipole_moment_norm": 3.34013256324, 
			 "electric_quadrupole_moment_norm": 21.7026505713, 
			 "total_energy": -1578.81944085, 
			 "HOMO_LUMO_gap": 0.17903, 
			 "cosmo_polarized_energy": -19.33, 
			 "cosmo_cavitation_energy": 39.13, 
			 "cosmo_dispersion_energy": -28.07, 
			 "cosmo_repulsion_energy": 2.07, 
			 "cosmo_total_nonelectrostatic_energy": 13.12, 
			 "SMD_solvation_energy": 8.03 
		},
		"coords": [
			{
				"x": 0.5636617204,
				"y": 1.3426818526,
				"z": 4.5412989504,
				"element": "O" 
			},
			{
				"x": 0.7104810804,
				"y": 2.3471894739,
				"z": 3.6396157466,
				"element": "C" 
			},
			{
				"x": 0.6916752179,
				"y": 3.5172853986,
				"z": 3.9695330685,
				"element": "O" 
			},
			{
				"x": 0.8894092567,
				"y": 1.8601963242,
				"z": 2.2501813461,
				"element": "C" 
			},
			{
				"x": 1.0468985228,
				"y": 2.8102286204,
				"z": 1.2307614093,
				"element": "C" 
			},
			{
				"x": 1.2078246429,
				"y": 2.4062839313,
				"z": -0.0861781088,
				"element": "C" 
			},
			{
				"x": 1.2236726082,
				"y": 1.0384552177,
				"z": -0.4143381736,
				"element": "C" 
			},
			{
				"x": 1.4240687091,
				"y": 0.6856987298,
				"z": -1.7628643014,
				"element": "N" 
			},
			{
				"x": 0.9304534751,
				"y": -0.3399009033,
				"z": -2.5545269498,
				"element": "C" 
			},
			{
				"x": 1.2997758888,
				"y": -0.4365456562,
				"z": -3.7139773433,
				"element": "O" 
			},
			{
				"x": -0.1058609937,
				"y": -1.2914605525,
				"z": -1.9742785895,
				"element": "C" 
			},
			{
				"x": 0.6999194188,
				"y": -2.9168643814,
				"z": -1.5669699298,
				"element": "S" 
			},
			{
				"x": -0.6817629161,
				"y": -3.8211589806,
				"z": -0.9493868297,
				"element": "C" 
			},
			{
				"x": -1.0206148158,
				"y": -4.0445535577,
				"z": 0.3649891426,
				"element": "C" 
			},
			{
				"x": -2.1715640635,
				"y": -4.8698546201,
				"z": 0.5172237124,
				"element": "C" 
			},
			{
				"x": -2.6994800966,
				"y": -5.268190473,
				"z": -0.6827342252,
				"element": "C" 
			},
			{
				"x": -1.7919929197,
				"y": -4.6557505509,
				"z": -2.0215181735,
				"element": "S" 
			},
			{
				"x": 1.0986145117,
				"y": 0.0845711887,
				"z": 0.6085829776,
				"element": "C" 
			},
			{
				"x": 0.9182565267,
				"y": 0.4978442858,
				"z": 1.9252981238,
				"element": "C" 
			},
			{
				"x": 0.4589120158,
				"y": 1.7774192442,
				"z": 5.403398363,
				"element": "H" 
			},
			{
				"x": 1.0291251387,
				"y": 3.8625827224,
				"z": 1.4929103567,
				"element": "H" 
			},
			{
				"x": 1.3088481585,
				"y": 3.1456359255,
				"z": -0.8758795604,
				"element": "H" 
			},
			{
				"x": 1.9757494094,
				"y": 1.3307278681,
				"z": -2.3169708916,
				"element": "H" 
			},
			{
				"x": -0.839885743,
				"y": -1.4648383703,
				"z": -2.7623599781,
				"element": "H" 
			},
			{
				"x": -0.5959283623,
				"y": -0.9024293721,
				"z": -1.0812897129,
				"element": "H" 
			},
			{
				"x": -0.4548878464,
				"y": -3.6291928904,
				"z": 1.1908843348,
				"element": "H" 
			},
			{
				"x": -2.5894834576,
				"y": -5.1531126725,
				"z": 1.4764455744,
				"element": "H" 
			},
			{
				"x": -3.5680754166,
				"y": -5.8895083248,
				"z": -0.854967708,
				"element": "H" 
			},
			{
				"x": 1.1800685612,
				"y": -0.9724258459,
				"z": 0.3797237739,
				"element": "H" 
			},
			{
				"x": 0.8231217683,
				"y": -0.2413136314,
				"z": 2.7125935955,
				"element": "H" 
			}
		],
		 "valence_orbital": [ 
			{
				"type": "occ",
				"energy": -0.27081,
				"method": "rhf"
			},
			{
				"type": "occ",
				"energy": -0.26387,
				"method": "rhf"
			},
			{
				"type": "occ",
				"energy": -0.25126,
				"method": "rhf"
			},
			{
				"type": "occ",
				"energy": -0.244,
				"method": "rhf"
			},
			{
				"type": "occ",
				"energy": -0.23879,
				"method": "rhf"
			},
			{
				"type": "unocc",
				"energy": -0.05976,
				"method": "rhf"
			},
			{
				"type": "unocc",
				"energy": -0.04044,
				"method": "rhf"
			},
			{
				"type": "unocc",
				"energy": -0.02311,
				"method": "rhf"
			},
			{
				"type": "unocc",
				"energy": -0.00326,
				"method": "rhf"
			},
			{
				"type": "unocc",
				"energy": 0.01745,
				"method": "rhf"
			}
		],
		"cosmo_sigma_profile": { 
			"-0.025": 0.0,
			"-0.024": 0.0,
			"-0.023": 0.0,
			"-0.022": 0.0,
			"-0.021": 0.0,
			"-0.02": 0.0,
			"-0.019": 0.00967728414601,
			"-0.018": 0.790425722506,
			"-0.017": 0.812898251829,
			"-0.016": 0.546016582873,
			"-0.015": 1.71197892254,
			"-0.014": 2.00487604138,
			"-0.013": 1.73802819609,
			"-0.012": 1.4915771178,
			"-0.011": 2.73792880202,
			"-0.01": 1.75181296746,
			"-0.009": 2.90514119379,
			"-0.008": 5.00362573115,
			"-0.007": 10.5063945473,
			"-0.006": 14.7313067581,
			"-0.005": 20.3217262957,
			"-0.004": 18.8388201112,
			"-0.003": 17.8482043927,
			"-0.002": 19.0976921958,
			"-0.001": 18.4125140586,
			"0.0": 22.2280207572,
			"0.001": 28.9652385755,
			"0.002": 27.8294896115,
			"0.003": 29.9611343383,
			"0.004": 16.3544675432,
			"0.005": 8.21077855197,
			"0.006": 6.54252690078,
			"0.007": 6.83824426228,
			"0.008": 4.10628907405,
			"0.009": 2.55133540406,
			"0.01": 3.39877146625,
			"0.011": 6.10344049915,
			"0.012": 8.68408623625,
			"0.013": 4.19030482886,
			"0.014": 0.45998566766,
			"0.015": 0.0,
			"0.016": 0.0,
			"0.017": 0.0,
			"0.018": 0.0,
			"0.019": 0.0,
			"0.02": 0.0,
			"0.021": 0.0,
			"0.022": 0.0,
			"0.023": 0.0,
			"0.024": 0.0,
			"0.025": 0.0
		}
	}
}
