{
	 "smiles": "CC1(C)OC(=O)C(=CC2=CC=C(Cl)C=C2Cl)C(=O)O1", 
	 "Tm": 429.15, 
	 "num_atms": 29, 
	 "gaussian": { 
		 "optdone": 1, 
		 "sigma_profile": "yes", 
		 "theory": "DFT", 
		 "functional": "B3LYP", 
		 "basiset": "6-31G**", 
		 "properties": { 
			 "R2extent": 8879.1256, 
			 "electric_dipole_moment_norm": 2.50954877617, 
			 "electric_quadrupole_moment_norm": 13.0150251279, 
			 "total_energy": -1722.69821203, 
			 "HOMO_LUMO_gap": 0.1525, 
			 "cosmo_polarized_energy": -12.21, 
			 "cosmo_cavitation_energy": 37.07, 
			 "cosmo_dispersion_energy": -26.68, 
			 "cosmo_repulsion_energy": 2.05, 
			 "cosmo_total_nonelectrostatic_energy": 12.44, 
			 "SMD_solvation_energy": 7.76 
		},
		"coords": [
			{
				"x": 0.7566173983,
				"y": -2.7760703159,
				"z": 1.4379480274,
				"element": "C" 
			},
			{
				"x": 1.5603793505,
				"y": -2.5746989452,
				"z": 0.154530755,
				"element": "C" 
			},
			{
				"x": 2.6604181517,
				"y": -3.6037933183,
				"z": -0.0363875275,
				"element": "C" 
			},
			{
				"x": 0.7024690869,
				"y": -2.6970887201,
				"z": -0.9914592959,
				"element": "O" 
			},
			{
				"x": -0.1272404253,
				"y": -1.6785099055,
				"z": -1.3492520727,
				"element": "C" 
			},
			{
				"x": -0.9508006437,
				"y": -1.8969760704,
				"z": -2.2117766502,
				"element": "O" 
			},
			{
				"x": 0.1197033687,
				"y": -0.3787193863,
				"z": -0.6748797712,
				"element": "C" 
			},
			{
				"x": -0.7296287919,
				"y": 0.6812773716,
				"z": -0.5465863636,
				"element": "C" 
			},
			{
				"x": -2.0966157493,
				"y": 0.9719481452,
				"z": -0.958110481,
				"element": "C" 
			},
			{
				"x": -2.74382986,
				"y": 0.3767726892,
				"z": -2.063854008,
				"element": "C" 
			},
			{
				"x": -4.0245830725,
				"y": 0.7443688899,
				"z": -2.4556129643,
				"element": "C" 
			},
			{
				"x": -4.7022379067,
				"y": 1.7267412581,
				"z": -1.7348404511,
				"element": "C" 
			},
			{
				"x": -6.317467094,
				"y": 2.1980229,
				"z": -2.209507337,
				"element": "Cl" 
			},
			{
				"x": -4.1123465066,
				"y": 2.3472934173,
				"z": -0.6341009485,
				"element": "C" 
			},
			{
				"x": -2.8248018051,
				"y": 1.9750576516,
				"z": -0.2639169518,
				"element": "C" 
			},
			{
				"x": -2.151537376,
				"y": 2.7870743318,
				"z": 1.1404342339,
				"element": "Cl" 
			},
			{
				"x": 1.4656524928,
				"y": -0.1740764675,
				"z": -0.0435148645,
				"element": "C" 
			},
			{
				"x": 1.92591126,
				"y": 0.9040803882,
				"z": 0.2494399402,
				"element": "O" 
			},
			{
				"x": 2.2080452398,
				"y": -1.2970674456,
				"z": 0.1653477314,
				"element": "O" 
			},
			{
				"x": 1.4193023159,
				"y": -2.7030029967,
				"z": 2.3035353896,
				"element": "H" 
			},
			{
				"x": -0.0269492594,
				"y": -2.0200169782,
				"z": 1.5362462388,
				"element": "H" 
			},
			{
				"x": 0.2875845613,
				"y": -3.7628309115,
				"z": 1.4291323222,
				"element": "H" 
			},
			{
				"x": 3.1918236671,
				"y": -3.4012788001,
				"z": -0.9683918371,
				"element": "H" 
			},
			{
				"x": 3.3657410365,
				"y": -3.5514395665,
				"z": 0.7958978703,
				"element": "H" 
			},
			{
				"x": 2.2283492246,
				"y": -4.6058745308,
				"z": -0.0814148527,
				"element": "H" 
			},
			{
				"x": -0.275111742,
				"y": 1.484805016,
				"z": 0.0278461741,
				"element": "H" 
			},
			{
				"x": -2.2109844573,
				"y": -0.3856305755,
				"z": -2.614579442,
				"element": "H" 
			},
			{
				"x": -4.4923309078,
				"y": 0.2752470241,
				"z": -3.313375966,
				"element": "H" 
			},
			{
				"x": -4.6448315566,
				"y": 3.1062858512,
				"z": -0.0750968977,
				"element": "H" 
			}
		],
		 "valence_orbital": [ 
			{
				"type": "occ",
				"energy": -0.30979,
				"method": "rhf"
			},
			{
				"type": "occ",
				"energy": -0.29868,
				"method": "rhf"
			},
			{
				"type": "occ",
				"energy": -0.28034,
				"method": "rhf"
			},
			{
				"type": "occ",
				"energy": -0.27503,
				"method": "rhf"
			},
			{
				"type": "occ",
				"energy": -0.25685,
				"method": "rhf"
			},
			{
				"type": "unocc",
				"energy": -0.10435,
				"method": "rhf"
			},
			{
				"type": "unocc",
				"energy": -0.03594,
				"method": "rhf"
			},
			{
				"type": "unocc",
				"energy": -0.01612,
				"method": "rhf"
			},
			{
				"type": "unocc",
				"energy": -0.00561,
				"method": "rhf"
			},
			{
				"type": "unocc",
				"energy": -0.00393,
				"method": "rhf"
			}
		],
		"cosmo_sigma_profile": { 
			"-0.025": 0.0,
			"-0.024": 0.0,
			"-0.023": 0.0,
			"-0.022": 0.0,
			"-0.021": 0.0,
			"-0.02": 0.0,
			"-0.019": 0.0,
			"-0.018": 0.0,
			"-0.017": 0.0,
			"-0.016": 0.0,
			"-0.015": 0.0,
			"-0.014": 0.0,
			"-0.013": 0.0,
			"-0.012": 0.0,
			"-0.011": 0.0,
			"-0.01": 0.0,
			"-0.009": 1.05850231483,
			"-0.008": 3.85645502724,
			"-0.007": 5.01462617642,
			"-0.006": 17.139788511,
			"-0.005": 19.3740589238,
			"-0.004": 19.3927484533,
			"-0.003": 26.1563304626,
			"-0.002": 32.6861827005,
			"-0.001": 33.9312120772,
			"0.0": 30.654874318,
			"0.001": 20.9125947105,
			"0.002": 17.8486696086,
			"0.003": 20.7037926992,
			"0.004": 11.5514723813,
			"0.005": 3.45176425805,
			"0.006": 5.05453587571,
			"0.007": 4.25249820853,
			"0.008": 5.84169884587,
			"0.009": 5.74656959753,
			"0.01": 6.64822882536,
			"0.011": 6.88066479705,
			"0.012": 3.40185165566,
			"0.013": 0.200852202771,
			"0.014": 0.0,
			"0.015": 0.0,
			"0.016": 0.0,
			"0.017": 0.0,
			"0.018": 0.0,
			"0.019": 0.0,
			"0.02": 0.0,
			"0.021": 0.0,
			"0.022": 0.0,
			"0.023": 0.0,
			"0.024": 0.0,
			"0.025": 0.0
		}
	}
}
