{
	 "smiles": "OC(=O)CSCC(=O)C1=CC=C(Cl)C=C1", 
	 "Tm": 355.15, 
	 "num_atms": 24, 
	 "gaussian": { 
		 "optdone": 1, 
		 "sigma_profile": "yes", 
		 "theory": "DFT", 
		 "functional": "B3LYP", 
		 "basiset": "6-31G**", 
		 "properties": { 
			 "R2extent": 6766.323, 
			 "electric_dipole_moment_norm": 4.95120752746, 
			 "electric_quadrupole_moment_norm": 32.974911547, 
			 "total_energy": -1470.54540992, 
			 "HOMO_LUMO_gap": 0.16849, 
			 "cosmo_polarized_energy": -17.84, 
			 "cosmo_cavitation_energy": 32.44, 
			 "cosmo_dispersion_energy": -23.63, 
			 "cosmo_repulsion_energy": 1.81, 
			 "cosmo_total_nonelectrostatic_energy": 10.63, 
			 "SMD_solvation_energy": 6.55 
		},
		"coords": [
			{
				"x": -4.4358883013,
				"y": 0.7878678599,
				"z": 1.9516195725,
				"element": "O" 
			},
			{
				"x": -4.5397611996,
				"y": 1.2498880839,
				"z": 0.6913740243,
				"element": "C" 
			},
			{
				"x": -5.5797374216,
				"y": 1.2266772489,
				"z": 0.0832394494,
				"element": "O" 
			},
			{
				"x": -3.2707513946,
				"y": 1.8425161595,
				"z": 0.0569348591,
				"element": "C" 
			},
			{
				"x": -1.6950957261,
				"y": 1.538071278,
				"z": 0.94500393,
				"element": "S" 
			},
			{
				"x": -1.3289218685,
				"y": -0.1846351661,
				"z": 0.3847086724,
				"element": "C" 
			},
			{
				"x": -0.9248994356,
				"y": -0.1875341643,
				"z": -1.0852877416,
				"element": "C" 
			},
			{
				"x": -1.7991289924,
				"y": -0.3228071195,
				"z": -1.9316912372,
				"element": "O" 
			},
			{
				"x": 0.5032911423,
				"y": 0.0070752294,
				"z": -1.4753638033,
				"element": "C" 
			},
			{
				"x": 0.8163762183,
				"y": -0.0544387676,
				"z": -2.8438265388,
				"element": "C" 
			},
			{
				"x": 2.1230205125,
				"y": 0.1084296113,
				"z": -3.2865684925,
				"element": "C" 
			},
			{
				"x": 3.1319523184,
				"y": 0.3430023755,
				"z": -2.3482732592,
				"element": "C" 
			},
			{
				"x": 4.7827770909,
				"y": 0.5508327012,
				"z": -2.8946309102,
				"element": "Cl" 
			},
			{
				"x": 2.8490085158,
				"y": 0.4155241579,
				"z": -0.9838193551,
				"element": "C" 
			},
			{
				"x": 1.535086079,
				"y": 0.2444545844,
				"z": -0.5541272233,
				"element": "C" 
			},
			{
				"x": -3.51843189,
				"y": 0.9234726015,
				"z": 2.2584335746,
				"element": "H" 
			},
			{
				"x": -3.3890903822,
				"y": 2.9294728101,
				"z": 0.0137991716,
				"element": "H" 
			},
			{
				"x": -3.1992883717,
				"y": 1.4749503982,
				"z": -0.9689562495,
				"element": "H" 
			},
			{
				"x": -2.2245678719,
				"y": -0.7984597608,
				"z": 0.4997602161,
				"element": "H" 
			},
			{
				"x": -0.5524540838,
				"y": -0.5573897524,
				"z": 1.0546857197,
				"element": "H" 
			},
			{
				"x": 0.0111709598,
				"y": -0.2348395337,
				"z": -3.547741356,
				"element": "H" 
			},
			{
				"x": 2.3647513968,
				"y": 0.0567919857,
				"z": -4.3422464743,
				"element": "H" 
			},
			{
				"x": 3.645435479,
				"y": 0.603731859,
				"z": -0.272891617,
				"element": "H" 
			},
			{
				"x": 1.3281472265,
				"y": 0.3127453199,
				"z": 0.5082650683,
				"element": "H" 
			}
		],
		 "valence_orbital": [ 
			{
				"type": "occ",
				"energy": -0.29976,
				"method": "rhf"
			},
			{
				"type": "occ",
				"energy": -0.28595,
				"method": "rhf"
			},
			{
				"type": "occ",
				"energy": -0.27371,
				"method": "rhf"
			},
			{
				"type": "occ",
				"energy": -0.26887,
				"method": "rhf"
			},
			{
				"type": "occ",
				"energy": -0.25329,
				"method": "rhf"
			},
			{
				"type": "unocc",
				"energy": -0.0848,
				"method": "rhf"
			},
			{
				"type": "unocc",
				"energy": -0.03489,
				"method": "rhf"
			},
			{
				"type": "unocc",
				"energy": -0.00774,
				"method": "rhf"
			},
			{
				"type": "unocc",
				"energy": 0.00211,
				"method": "rhf"
			},
			{
				"type": "unocc",
				"energy": 0.01283,
				"method": "rhf"
			}
		],
		"cosmo_sigma_profile": { 
			"-0.025": 0.0,
			"-0.024": 0.0,
			"-0.023": 0.0,
			"-0.022": 0.0,
			"-0.021": 0.0,
			"-0.02": 0.0,
			"-0.019": 0.0,
			"-0.018": 0.0,
			"-0.017": 0.0,
			"-0.016": 0.0,
			"-0.015": 0.0,
			"-0.014": 0.0204991032267,
			"-0.013": 0.465658493012,
			"-0.012": 0.722951112421,
			"-0.011": 1.95038980498,
			"-0.01": 4.05766987451,
			"-0.009": 8.12988815242,
			"-0.008": 9.70901954512,
			"-0.007": 13.1802093389,
			"-0.006": 13.5904362966,
			"-0.005": 15.195506962,
			"-0.004": 13.3703912487,
			"-0.003": 11.9806069246,
			"-0.002": 12.5620799941,
			"-0.001": 13.2366791567,
			"0.0": 18.9388421168,
			"0.001": 23.2564216477,
			"0.002": 25.5121771623,
			"0.003": 15.4492212809,
			"0.004": 16.1960578413,
			"0.005": 5.10408173607,
			"0.006": 4.08230720049,
			"0.007": 4.78754411069,
			"0.008": 4.93653059233,
			"0.009": 5.0212636734,
			"0.01": 7.51811930008,
			"0.011": 7.67114031842,
			"0.012": 5.94004008733,
			"0.013": 1.19721755686,
			"0.014": 0.0,
			"0.015": 0.0,
			"0.016": 0.0,
			"0.017": 0.0,
			"0.018": 0.0,
			"0.019": 0.0,
			"0.02": 0.0,
			"0.021": 0.0,
			"0.022": 0.0,
			"0.023": 0.0,
			"0.024": 0.0,
			"0.025": 0.0
		}
	}
}
