{
	 "smiles": "CCOC1=CC=C(C=C1)C(N)=S", 
	 "Tm": 389.15, 
	 "num_atms": 23, 
	 "gaussian": { 
		 "optdone": 1, 
		 "sigma_profile": "yes", 
		 "theory": "DFT", 
		 "functional": "B3LYP", 
		 "basiset": "6-31G**", 
		 "properties": { 
			 "R2extent": 3927.2223, 
			 "electric_dipole_moment_norm": 6.18927938374, 
			 "electric_quadrupole_moment_norm": 21.1849504127, 
			 "total_energy": -877.758124514, 
			 "HOMO_LUMO_gap": 0.14863, 
			 "cosmo_polarized_energy": -16.95, 
			 "cosmo_cavitation_energy": 28.39, 
			 "cosmo_dispersion_energy": -21.47, 
			 "cosmo_repulsion_energy": 1.69, 
			 "cosmo_total_nonelectrostatic_energy": 8.61, 
			 "SMD_solvation_energy": 4.36 
		},
		"coords": [
			{
				"x": -3.6154389744,
				"y": 2.0593948871,
				"z": 1.2599899106,
				"element": "C" 
			},
			{
				"x": -2.2658301624,
				"y": 1.8638332615,
				"z": 0.5925088847,
				"element": "C" 
			},
			{
				"x": -2.0220342567,
				"y": 0.4569144295,
				"z": 0.5194500555,
				"element": "O" 
			},
			{
				"x": -0.8648009028,
				"y": 0.0156504793,
				"z": -0.0373707525,
				"element": "C" 
			},
			{
				"x": -0.6984989961,
				"y": -1.3800782708,
				"z": -0.078483502,
				"element": "C" 
			},
			{
				"x": 0.4433067866,
				"y": -1.9332926642,
				"z": -0.6302452804,
				"element": "C" 
			},
			{
				"x": 1.4701357486,
				"y": -1.117830863,
				"z": -1.1449258178,
				"element": "C" 
			},
			{
				"x": 1.2878477947,
				"y": 0.2732875261,
				"z": -1.1033302195,
				"element": "C" 
			},
			{
				"x": 0.1359049393,
				"y": 0.8443158431,
				"z": -0.562481573,
				"element": "C" 
			},
			{
				"x": 2.6946217444,
				"y": -1.7244191386,
				"z": -1.7221917095,
				"element": "C" 
			},
			{
				"x": 3.8031321399,
				"y": -0.9439740381,
				"z": -1.6816781698,
				"element": "N" 
			},
			{
				"x": 2.741471784,
				"y": -3.2449137529,
				"z": -2.4157817997,
				"element": "S" 
			},
			{
				"x": -3.8446015027,
				"y": 3.126597432,
				"z": 1.3367893045,
				"element": "H" 
			},
			{
				"x": -4.4058816366,
				"y": 1.5751976331,
				"z": 0.6800801143,
				"element": "H" 
			},
			{
				"x": -3.6138241219,
				"y": 1.6310115659,
				"z": 2.2660281668,
				"element": "H" 
			},
			{
				"x": -2.2614315544,
				"y": 2.2944080369,
				"z": -0.4184228273,
				"element": "H" 
			},
			{
				"x": -1.4672059819,
				"y": 2.3496898903,
				"z": 1.1702468791,
				"element": "H" 
			},
			{
				"x": -1.485670998,
				"y": -2.0054379685,
				"z": 0.3293981446,
				"element": "H" 
			},
			{
				"x": 0.5676632769,
				"y": -3.0097856075,
				"z": -0.6716356238,
				"element": "H" 
			},
			{
				"x": 2.0313438599,
				"y": 0.9322505335,
				"z": -1.542491998,
				"element": "H" 
			},
			{
				"x": 0.024512218,
				"y": 1.9217104043,
				"z": -0.5681498499,
				"element": "H" 
			},
			{
				"x": 3.8582505055,
				"y": -0.1524413635,
				"z": -1.0579953479,
				"element": "H" 
			},
			{
				"x": 4.6643282902,
				"y": -1.3362882554,
				"z": -2.033106989,
				"element": "H" 
			}
		],
		 "valence_orbital": [ 
			{
				"type": "occ",
				"energy": -0.32108,
				"method": "rhf"
			},
			{
				"type": "occ",
				"energy": -0.26229,
				"method": "rhf"
			},
			{
				"type": "occ",
				"energy": -0.23903,
				"method": "rhf"
			},
			{
				"type": "occ",
				"energy": -0.2183,
				"method": "rhf"
			},
			{
				"type": "occ",
				"energy": -0.20019,
				"method": "rhf"
			},
			{
				"type": "unocc",
				"energy": -0.05156,
				"method": "rhf"
			},
			{
				"type": "unocc",
				"energy": -0.01113,
				"method": "rhf"
			},
			{
				"type": "unocc",
				"energy": 0.03395,
				"method": "rhf"
			},
			{
				"type": "unocc",
				"energy": 0.07449,
				"method": "rhf"
			},
			{
				"type": "unocc",
				"energy": 0.08871,
				"method": "rhf"
			}
		],
		"cosmo_sigma_profile": { 
			"-0.025": 0.0,
			"-0.024": 0.0,
			"-0.023": 0.0,
			"-0.022": 0.0,
			"-0.021": 0.0,
			"-0.02": 0.0,
			"-0.019": 0.0,
			"-0.018": 0.0,
			"-0.017": 0.0,
			"-0.016": 0.0259892788709,
			"-0.015": 1.28483363055,
			"-0.014": 2.1378305248,
			"-0.013": 2.72781178111,
			"-0.012": 2.23198757962,
			"-0.011": 2.39654451339,
			"-0.01": 2.71181525213,
			"-0.009": 2.05024284466,
			"-0.008": 2.03025521738,
			"-0.007": 4.8558300823,
			"-0.006": 8.36410396892,
			"-0.005": 14.8245647318,
			"-0.004": 17.8094464625,
			"-0.003": 16.9231067501,
			"-0.002": 15.4995051299,
			"-0.001": 13.1649994633,
			"0.0": 15.1686147836,
			"0.001": 14.1826049899,
			"0.002": 12.0448377792,
			"0.003": 15.069588208,
			"0.004": 16.5030038836,
			"0.005": 7.03216485846,
			"0.006": 5.82225412634,
			"0.007": 5.21678998666,
			"0.008": 6.95053191037,
			"0.009": 8.70501188705,
			"0.01": 5.56366761028,
			"0.011": 3.66904353987,
			"0.012": 2.70122094505,
			"0.013": 0.19755010934,
			"0.014": 0.0,
			"0.015": 0.0,
			"0.016": 0.0,
			"0.017": 0.0,
			"0.018": 0.0,
			"0.019": 0.0,
			"0.02": 0.0,
			"0.021": 0.0,
			"0.022": 0.0,
			"0.023": 0.0,
			"0.024": 0.0,
			"0.025": 0.0
		}
	}
}
