{
	 "smiles": "FC(F)OC1=CC=C(C=C1)C#N", 
	 "Tm": 314.15, 
	 "num_atms": 17, 
	 "gaussian": { 
		 "optdone": 1, 
		 "sigma_profile": "yes", 
		 "theory": "DFT", 
		 "functional": "B3LYP", 
		 "basiset": "6-31G**", 
		 "properties": { 
			 "R2extent": 2628.7649, 
			 "electric_dipole_moment_norm": 4.7632738206, 
			 "electric_quadrupole_moment_norm": 23.1526574168, 
			 "total_energy": -637.495380877, 
			 "HOMO_LUMO_gap": 0.20544, 
			 "cosmo_polarized_energy": -9.9, 
			 "cosmo_cavitation_energy": 23.68, 
			 "cosmo_dispersion_energy": -16.77, 
			 "cosmo_repulsion_energy": 1.3, 
			 "cosmo_total_nonelectrostatic_energy": 8.21, 
			 "SMD_solvation_energy": 6.87 
		},
		"coords": [
			{
				"x": -0.4161444982,
				"y": 2.0076834244,
				"z": 1.630135059,
				"element": "F" 
			},
			{
				"x": 0.0951897844,
				"y": 2.1549314031,
				"z": 0.3801523661,
				"element": "C" 
			},
			{
				"x": -0.9559229315,
				"y": 2.1504114827,
				"z": -0.4805300162,
				"element": "F" 
			},
			{
				"x": 0.9944794022,
				"y": 1.1630525716,
				"z": 0.0831008708,
				"element": "O" 
			},
			{
				"x": 0.6275654015,
				"y": -0.1732001866,
				"z": 0.0865299104,
				"element": "C" 
			},
			{
				"x": -0.6531559468,
				"y": -0.6519850387,
				"z": 0.3811803554,
				"element": "C" 
			},
			{
				"x": -0.883712868,
				"y": -2.0241244476,
				"z": 0.3473871118,
				"element": "C" 
			},
			{
				"x": 0.1477747851,
				"y": -2.9194436522,
				"z": 0.0235261163,
				"element": "C" 
			},
			{
				"x": 1.4289697679,
				"y": -2.4194232588,
				"z": -0.2698797115,
				"element": "C" 
			},
			{
				"x": 1.6651375294,
				"y": -1.0524711507,
				"z": -0.2378387435,
				"element": "C" 
			},
			{
				"x": -0.1023971978,
				"y": -4.3295326563,
				"z": -0.0078138934,
				"element": "C" 
			},
			{
				"x": -0.3043949453,
				"y": -5.4750790296,
				"z": -0.0335837931,
				"element": "N" 
			},
			{
				"x": 0.6259648921,
				"y": 3.1068259357,
				"z": 0.3087720755,
				"element": "H" 
			},
			{
				"x": -1.4583046004,
				"y": 0.0238548561,
				"z": 0.6323239695,
				"element": "H" 
			},
			{
				"x": -1.8729028118,
				"y": -2.407402799,
				"z": 0.5741034514,
				"element": "H" 
			},
			{
				"x": 2.2301408622,
				"y": -3.1061189202,
				"z": -0.5208816165,
				"element": "H" 
			},
			{
				"x": 2.645113375,
				"y": -0.645078534,
				"z": -0.460583512,
				"element": "H" 
			}
		],
		 "valence_orbital": [ 
			{
				"type": "occ",
				"energy": -0.35793,
				"method": "rhf"
			},
			{
				"type": "occ",
				"energy": -0.33624,
				"method": "rhf"
			},
			{
				"type": "occ",
				"energy": -0.33094,
				"method": "rhf"
			},
			{
				"type": "occ",
				"energy": -0.28392,
				"method": "rhf"
			},
			{
				"type": "occ",
				"energy": -0.25635,
				"method": "rhf"
			},
			{
				"type": "unocc",
				"energy": -0.05091,
				"method": "rhf"
			},
			{
				"type": "unocc",
				"energy": -0.0319,
				"method": "rhf"
			},
			{
				"type": "unocc",
				"energy": 0.03558,
				"method": "rhf"
			},
			{
				"type": "unocc",
				"energy": 0.06916,
				"method": "rhf"
			},
			{
				"type": "unocc",
				"energy": 0.07377,
				"method": "rhf"
			}
		],
		"cosmo_sigma_profile": { 
			"-0.025": 0.0,
			"-0.024": 0.0,
			"-0.023": 0.0,
			"-0.022": 0.0,
			"-0.021": 0.0,
			"-0.02": 0.0,
			"-0.019": 0.0,
			"-0.018": 0.0,
			"-0.017": 0.0,
			"-0.016": 0.0,
			"-0.015": 0.0,
			"-0.014": 0.0,
			"-0.013": 0.0,
			"-0.012": 0.141431419923,
			"-0.011": 3.26093451041,
			"-0.01": 2.14931765141,
			"-0.009": 2.24044363292,
			"-0.008": 7.76356514859,
			"-0.007": 9.14679174181,
			"-0.006": 9.32741085152,
			"-0.005": 6.69672364144,
			"-0.004": 7.54065967791,
			"-0.003": 8.07753063943,
			"-0.002": 9.37822964786,
			"-0.001": 12.7638171648,
			"0.0": 18.8227738784,
			"0.001": 24.0094695872,
			"0.002": 17.4307134017,
			"0.003": 18.8176739066,
			"0.004": 7.33528666671,
			"0.005": 3.46779777833,
			"0.006": 4.01224023262,
			"0.007": 2.33172063402,
			"0.008": 3.52642097521,
			"0.009": 3.41441327515,
			"0.01": 3.23129212578,
			"0.011": 2.71032988513,
			"0.012": 2.65404853792,
			"0.013": 1.64766031084,
			"0.014": 0.0455258894582,
			"0.015": 0.0,
			"0.016": 0.0,
			"0.017": 0.0,
			"0.018": 0.0,
			"0.019": 0.0,
			"0.02": 0.0,
			"0.021": 0.0,
			"0.022": 0.0,
			"0.023": 0.0,
			"0.024": 0.0,
			"0.025": 0.0
		}
	}
}
