{
	 "smiles": "NC(CC(O)=O)C(O)=O", 
	 "Tm": 545.15, 
	 "num_atms": 16, 
	 "gaussian": { 
		 "optdone": 1, 
		 "sigma_profile": "yes", 
		 "theory": "DFT", 
		 "functional": "B3LYP", 
		 "basiset": "6-31G**", 
		 "properties": { 
			 "R2extent": 1537.7327, 
			 "electric_dipole_moment_norm": 4.35287776649, 
			 "electric_quadrupole_moment_norm": 11.8892357921, 
			 "total_energy": -512.309766727, 
			 "HOMO_LUMO_gap": 0.24863, 
			 "cosmo_polarized_energy": -21.08, 
			 "cosmo_cavitation_energy": 20.3, 
			 "cosmo_dispersion_energy": -14.84, 
			 "cosmo_repulsion_energy": 1.26, 
			 "cosmo_total_nonelectrostatic_energy": 6.72, 
			 "SMD_solvation_energy": 4.48 
		},
		"coords": [
			{
				"x": 0.0622410525,
				"y": 2.6907313566,
				"z": -1.0716296323,
				"element": "N" 
			},
			{
				"x": -0.37837833,
				"y": 1.3195269721,
				"z": -0.8636338092,
				"element": "C" 
			},
			{
				"x": 0.2711126725,
				"y": 0.3741848463,
				"z": -1.8840586754,
				"element": "C" 
			},
			{
				"x": 1.7715761538,
				"y": 0.222003844,
				"z": -1.6761406075,
				"element": "C" 
			},
			{
				"x": 2.40506988,
				"y": -0.5960865261,
				"z": -2.5520813367,
				"element": "O" 
			},
			{
				"x": 2.3987436321,
				"y": 0.7750006935,
				"z": -0.8041013306,
				"element": "O" 
			},
			{
				"x": -0.2083789608,
				"y": 0.842215104,
				"z": 0.5864215406,
				"element": "C" 
			},
			{
				"x": -0.2663897625,
				"y": -0.5077034489,
				"z": 0.702253153,
				"element": "O" 
			},
			{
				"x": -0.1061745352,
				"y": 1.5792567739,
				"z": 1.5393439756,
				"element": "O" 
			},
			{
				"x": 1.0552043506,
				"y": 2.7325913532,
				"z": -0.8468042812,
				"element": "H" 
			},
			{
				"x": -0.3945556855,
				"y": 3.2831482419,
				"z": -0.3818560135,
				"element": "H" 
			},
			{
				"x": -1.4620447734,
				"y": 1.2801282539,
				"z": -1.0472905967,
				"element": "H" 
			},
			{
				"x": 0.0924402696,
				"y": 0.7769821067,
				"z": -2.8882797722,
				"element": "H" 
			},
			{
				"x": -0.190184708,
				"y": -0.6181846121,
				"z": -1.8328297961,
				"element": "H" 
			},
			{
				"x": 1.7736266666,
				"y": -0.964856273,
				"z": -3.1863046264,
				"element": "H" 
			},
			{
				"x": -0.1758079224,
				"y": -0.7035386859,
				"z": 1.6503918084,
				"element": "H" 
			}
		],
		 "valence_orbital": [ 
			{
				"type": "occ",
				"energy": -0.32739,
				"method": "rhf"
			},
			{
				"type": "occ",
				"energy": -0.32345,
				"method": "rhf"
			},
			{
				"type": "occ",
				"energy": -0.28474,
				"method": "rhf"
			},
			{
				"type": "occ",
				"energy": -0.28124,
				"method": "rhf"
			},
			{
				"type": "occ",
				"energy": -0.24968,
				"method": "rhf"
			},
			{
				"type": "unocc",
				"energy": -0.00105,
				"method": "rhf"
			},
			{
				"type": "unocc",
				"energy": 0.00666,
				"method": "rhf"
			},
			{
				"type": "unocc",
				"energy": 0.04978,
				"method": "rhf"
			},
			{
				"type": "unocc",
				"energy": 0.07112,
				"method": "rhf"
			},
			{
				"type": "unocc",
				"energy": 0.09575,
				"method": "rhf"
			}
		],
		"cosmo_sigma_profile": { 
			"-0.025": 0.0,
			"-0.024": 0.0,
			"-0.023": 0.0,
			"-0.022": 0.0,
			"-0.021": 0.0,
			"-0.02": 0.0423909413896,
			"-0.019": 1.28504151247,
			"-0.018": 1.66918335424,
			"-0.017": 2.17344678225,
			"-0.016": 2.54765078324,
			"-0.015": 1.94271109566,
			"-0.014": 1.37889933408,
			"-0.013": 1.52602205992,
			"-0.012": 1.94462113722,
			"-0.011": 1.93813732917,
			"-0.01": 2.41480358593,
			"-0.009": 2.92326529517,
			"-0.008": 5.67432558002,
			"-0.007": 10.4181274385,
			"-0.006": 8.35627486493,
			"-0.005": 7.99828165725,
			"-0.004": 6.92074108163,
			"-0.003": 4.6070198774,
			"-0.002": 6.25883866526,
			"-0.001": 6.26526973877,
			"0.0": 3.50160519159,
			"0.001": 5.2806444967,
			"0.002": 5.91174382535,
			"0.003": 5.81634064401,
			"0.004": 4.9707313984,
			"0.005": 5.16834837543,
			"0.006": 6.14626141988,
			"0.007": 5.0750833339,
			"0.008": 6.66910971795,
			"0.009": 5.56511424341,
			"0.01": 7.59529032891,
			"0.011": 8.40278487639,
			"0.012": 6.58282142359,
			"0.013": 0.701362842832,
			"0.014": 0.564711914298,
			"0.015": 0.80006730721,
			"0.016": 0.608884219336,
			"0.017": 0.528351428132,
			"0.018": 0.456930566618,
			"0.019": 0.149551884529,
			"0.02": 0.0,
			"0.021": 0.0,
			"0.022": 0.0,
			"0.023": 0.0,
			"0.024": 0.0,
			"0.025": 0.0
		}
	}
}
