{
	 "smiles": "OC(=O)C1=C(C=CC=C1)C(=O)NC1=CC=C(C=C1)S(=O)(=O)N=C1/NC=CS1", 
	 "Tm": 546.15, 
	 "num_atms": 40, 
	 "gaussian": { 
		 "optdone": 1, 
		 "sigma_profile": "yes", 
		 "theory": "DFT", 
		 "functional": "B3LYP", 
		 "basiset": "6-31G**", 
		 "properties": { 
			 "R2extent": 15581.464, 
			 "electric_dipole_moment_norm": 3.57421267974, 
			 "electric_quadrupole_moment_norm": 54.519041072, 
			 "total_energy": -1992.33659435, 
			 "HOMO_LUMO_gap": 0.15828, 
			 "cosmo_polarized_energy": -30.88, 
			 "cosmo_cavitation_energy": 49.02, 
			 "cosmo_dispersion_energy": -34.76, 
			 "cosmo_repulsion_energy": 2.56, 
			 "cosmo_total_nonelectrostatic_energy": 16.83, 
			 "SMD_solvation_energy": 8.45 
		},
		"coords": [
			{
				"x": -1.6527522016,
				"y": -0.8789537747,
				"z": -4.3551798308,
				"element": "O" 
			},
			{
				"x": -1.6286707496,
				"y": -1.6438893841,
				"z": -3.2379424044,
				"element": "C" 
			},
			{
				"x": -0.7821412943,
				"y": -2.4983620225,
				"z": -3.0624225644,
				"element": "O" 
			},
			{
				"x": -2.7356676572,
				"y": -1.3278811786,
				"z": -2.2940177021,
				"element": "C" 
			},
			{
				"x": -2.8055281136,
				"y": -1.9716359118,
				"z": -1.0414512319,
				"element": "C" 
			},
			{
				"x": -3.8966509344,
				"y": -1.7146095872,
				"z": -0.2038746428,
				"element": "C" 
			},
			{
				"x": -4.8828478314,
				"y": -0.8006016015,
				"z": -0.5738916061,
				"element": "C" 
			},
			{
				"x": -4.8003477096,
				"y": -0.144648901,
				"z": -1.8030988779,
				"element": "C" 
			},
			{
				"x": -3.736520732,
				"y": -0.4149231184,
				"z": -2.6593445444,
				"element": "C" 
			},
			{
				"x": -1.8304432119,
				"y": -3.0225211147,
				"z": -0.5613679302,
				"element": "C" 
			},
			{
				"x": -2.1815052429,
				"y": -4.1894376987,
				"z": -0.4844754047,
				"element": "O" 
			},
			{
				"x": -0.576073776,
				"y": -2.6474323583,
				"z": -0.1114094189,
				"element": "N" 
			},
			{
				"x": 0.1058433543,
				"y": -1.4184104003,
				"z": -0.166844111,
				"element": "C" 
			},
			{
				"x": -0.5203365418,
				"y": -0.193101483,
				"z": 0.1182679966,
				"element": "C" 
			},
			{
				"x": 0.2088457227,
				"y": 0.9904734232,
				"z": 0.0761107821,
				"element": "C" 
			},
			{
				"x": 1.5738886327,
				"y": 0.9540654642,
				"z": -0.2159411306,
				"element": "C" 
			},
			{
				"x": 2.2155444478,
				"y": -0.2566020515,
				"z": -0.4802304479,
				"element": "C" 
			},
			{
				"x": 1.4792419152,
				"y": -1.4357190393,
				"z": -0.4616485946,
				"element": "C" 
			},
			{
				"x": 2.4990258725,
				"y": 2.4791933685,
				"z": -0.2573070414,
				"element": "S" 
			},
			{
				"x": 3.8010613679,
				"y": 2.1909780719,
				"z": -0.9198025006,
				"element": "O" 
			},
			{
				"x": 1.6410146419,
				"y": 3.5233050432,
				"z": -0.8229079874,
				"element": "O" 
			},
			{
				"x": 2.7085264263,
				"y": 2.7863935327,
				"z": 1.367862136,
				"element": "N" 
			},
			{
				"x": 3.8817544364,
				"y": 3.11274032,
				"z": 1.8303724218,
				"element": "C" 
			},
			{
				"x": 5.0918052035,
				"y": 3.2167202761,
				"z": 1.2013452021,
				"element": "N" 
			},
			{
				"x": 6.1625769937,
				"y": 3.5753745182,
				"z": 2.0071524742,
				"element": "C" 
			},
			{
				"x": 5.8250289254,
				"y": 3.777268665,
				"z": 3.2939667557,
				"element": "C" 
			},
			{
				"x": 4.1030373902,
				"y": 3.5099980258,
				"z": 3.5465735211,
				"element": "S" 
			},
			{
				"x": -0.9005942913,
				"y": -1.1735587684,
				"z": -4.8944313064,
				"element": "H" 
			},
			{
				"x": -3.9666463799,
				"y": -2.2391081543,
				"z": 0.7438717849,
				"element": "H" 
			},
			{
				"x": -5.7168029275,
				"y": -0.6077960903,
				"z": 0.0944714988,
				"element": "H" 
			},
			{
				"x": -5.5657911133,
				"y": 0.5663001628,
				"z": -2.0981235336,
				"element": "H" 
			},
			{
				"x": -3.6727510971,
				"y": 0.0729078539,
				"z": -3.6246217225,
				"element": "H" 
			},
			{
				"x": 0.001610353,
				"y": -3.4663333923,
				"z": 0.0387834244,
				"element": "H" 
			},
			{
				"x": -1.5698226114,
				"y": -0.1664409062,
				"z": 0.3819584825,
				"element": "H" 
			},
			{
				"x": -0.275639967,
				"y": 1.9391664256,
				"z": 0.2790814519,
				"element": "H" 
			},
			{
				"x": 3.2721722994,
				"y": -0.2641683972,
				"z": -0.7228227279,
				"element": "H" 
			},
			{
				"x": 1.961335078,
				"y": -2.3798242124,
				"z": -0.6979794424,
				"element": "H" 
			},
			{
				"x": 5.1319471705,
				"y": 2.9545063653,
				"z": 0.2159772199,
				"element": "H" 
			},
			{
				"x": 7.1440794468,
				"y": 3.6691656782,
				"z": 1.5633520376,
				"element": "H" 
			},
			{
				"x": 6.4683947057,
				"y": 4.0713023523,
				"z": 4.1087895155,
				"element": "H" 
			}
		],
		 "valence_orbital": [ 
			{
				"type": "occ",
				"energy": -0.27486,
				"method": "rhf"
			},
			{
				"type": "occ",
				"energy": -0.26624,
				"method": "rhf"
			},
			{
				"type": "occ",
				"energy": -0.25401,
				"method": "rhf"
			},
			{
				"type": "occ",
				"energy": -0.23697,
				"method": "rhf"
			},
			{
				"type": "occ",
				"energy": -0.21983,
				"method": "rhf"
			},
			{
				"type": "unocc",
				"energy": -0.06155,
				"method": "rhf"
			},
			{
				"type": "unocc",
				"energy": -0.04055,
				"method": "rhf"
			},
			{
				"type": "unocc",
				"energy": -0.02792,
				"method": "rhf"
			},
			{
				"type": "unocc",
				"energy": -0.01668,
				"method": "rhf"
			},
			{
				"type": "unocc",
				"energy": -0.01375,
				"method": "rhf"
			}
		],
		"cosmo_sigma_profile": { 
			"-0.025": 0.0,
			"-0.024": 0.0,
			"-0.023": 0.0,
			"-0.022": 0.0,
			"-0.021": 0.0,
			"-0.02": 0.0,
			"-0.019": 0.166882853978,
			"-0.018": 1.00831676933,
			"-0.017": 0.987993527172,
			"-0.016": 0.709389291903,
			"-0.015": 1.28556916775,
			"-0.014": 2.65205262655,
			"-0.013": 3.05409627678,
			"-0.012": 2.2846792649,
			"-0.011": 3.35792027183,
			"-0.01": 6.68443488534,
			"-0.009": 6.57255236695,
			"-0.008": 8.23211517814,
			"-0.007": 17.4974813341,
			"-0.006": 21.3242583643,
			"-0.005": 21.3870602669,
			"-0.004": 16.73616087,
			"-0.003": 19.0969171926,
			"-0.002": 23.5331486339,
			"-0.001": 26.1468462458,
			"0.0": 29.642467534,
			"0.001": 32.2893270057,
			"0.002": 37.2625656507,
			"0.003": 23.3157445746,
			"0.004": 10.3274904811,
			"0.005": 9.07539247666,
			"0.006": 9.58489823101,
			"0.007": 7.88786813439,
			"0.008": 5.20408590088,
			"0.009": 8.57558615245,
			"0.01": 10.7803252848,
			"0.011": 13.9152484875,
			"0.012": 12.287838366,
			"0.013": 3.52717258138,
			"0.014": 0.324927959644,
			"0.015": 0.0,
			"0.016": 0.0,
			"0.017": 0.0,
			"0.018": 0.0,
			"0.019": 0.0,
			"0.02": 0.0,
			"0.021": 0.0,
			"0.022": 0.0,
			"0.023": 0.0,
			"0.024": 0.0,
			"0.025": 0.0
		}
	}
}
