{
	 "smiles": "CC(=O)NC1=CC(=C(C)C=C1)S(Cl)(=O)=O", 
	 "Tm": 369.15, 
	 "num_atms": 25, 
	 "gaussian": { 
		 "optdone": 1, 
		 "sigma_profile": "yes", 
		 "theory": "DFT", 
		 "functional": "B3LYP", 
		 "basiset": "6-31G**", 
		 "properties": { 
			 "R2extent": 4823.3725, 
			 "electric_dipole_moment_norm": 4.519986146, 
			 "electric_quadrupole_moment_norm": 22.8798649504, 
			 "total_energy": -1487.73970823, 
			 "HOMO_LUMO_gap": 0.1529, 
			 "cosmo_polarized_energy": -15.9, 
			 "cosmo_cavitation_energy": 32.1, 
			 "cosmo_dispersion_energy": -23.36, 
			 "cosmo_repulsion_energy": 1.78, 
			 "cosmo_total_nonelectrostatic_energy": 10.52, 
			 "SMD_solvation_energy": 5.16 
		},
		"coords": [
			{
				"x": -1.2517559232,
				"y": 2.2456710774,
				"z": 1.969373993,
				"element": "C" 
			},
			{
				"x": -1.2408347516,
				"y": 3.2866285326,
				"z": 0.8693904402,
				"element": "C" 
			},
			{
				"x": -1.6378715028,
				"y": 4.4267874338,
				"z": 1.045592101,
				"element": "O" 
			},
			{
				"x": -0.7794244749,
				"y": 2.9314330411,
				"z": -0.3969212396,
				"element": "N" 
			},
			{
				"x": -0.2969565135,
				"y": 1.7256178586,
				"z": -0.9314812001,
				"element": "C" 
			},
			{
				"x": 0.4921396926,
				"y": 0.8265547218,
				"z": -0.2050366166,
				"element": "C" 
			},
			{
				"x": 0.9370958092,
				"y": -0.3483163993,
				"z": -0.8149525392,
				"element": "C" 
			},
			{
				"x": 0.6804410562,
				"y": -0.6782771423,
				"z": -2.1577049278,
				"element": "C" 
			},
			{
				"x": 1.1621860578,
				"y": -1.9314770111,
				"z": -2.8457817974,
				"element": "C" 
			},
			{
				"x": -0.0805253762,
				"y": 0.2647982215,
				"z": -2.8641481379,
				"element": "C" 
			},
			{
				"x": -0.5667505423,
				"y": 1.4268294569,
				"z": -2.2766799089,
				"element": "C" 
			},
			{
				"x": 1.8850514529,
				"y": -1.4353802177,
				"z": 0.2580516733,
				"element": "S" 
			},
			{
				"x": 3.8751955453,
				"y": -1.1160011195,
				"z": -0.457689378,
				"element": "Cl" 
			},
			{
				"x": 1.8603070309,
				"y": -0.9098129868,
				"z": 1.6179880144,
				"element": "O" 
			},
			{
				"x": 1.5708092106,
				"y": -2.8307287612,
				"z": -0.023096151,
				"element": "O" 
			},
			{
				"x": -1.9769683895,
				"y": 2.5730174016,
				"z": 2.7146156077,
				"element": "H" 
			},
			{
				"x": -1.510680204,
				"y": 1.2467692757,
				"z": 1.6103524838,
				"element": "H" 
			},
			{
				"x": -0.2720148349,
				"y": 2.189682681,
				"z": 2.4558007735,
				"element": "H" 
			},
			{
				"x": -0.9339897372,
				"y": 3.683885137,
				"z": -1.057658786,
				"element": "H" 
			},
			{
				"x": 0.7806295315,
				"y": 1.0286333603,
				"z": 0.8163927376,
				"element": "H" 
			},
			{
				"x": 2.2458977552,
				"y": -2.0531597849,
				"z": -2.7573382664,
				"element": "H" 
			},
			{
				"x": 0.7074013205,
				"y": -2.8249843157,
				"z": -2.4102948241,
				"element": "H" 
			},
			{
				"x": 0.9100370443,
				"y": -1.8920662321,
				"z": -3.9078585752,
				"element": "H" 
			},
			{
				"x": -0.3082654848,
				"y": 0.068108764,
				"z": -3.9077133603,
				"element": "H" 
			},
			{
				"x": -1.1699537719,
				"y": 2.1137870072,
				"z": -2.863902116,
				"element": "H" 
			}
		],
		 "valence_orbital": [ 
			{
				"type": "occ",
				"energy": -0.32019,
				"method": "rhf"
			},
			{
				"type": "occ",
				"energy": -0.31699,
				"method": "rhf"
			},
			{
				"type": "occ",
				"energy": -0.29494,
				"method": "rhf"
			},
			{
				"type": "occ",
				"energy": -0.2687,
				"method": "rhf"
			},
			{
				"type": "occ",
				"energy": -0.24687,
				"method": "rhf"
			},
			{
				"type": "unocc",
				"energy": -0.09397,
				"method": "rhf"
			},
			{
				"type": "unocc",
				"energy": -0.05257,
				"method": "rhf"
			},
			{
				"type": "unocc",
				"energy": -0.04022,
				"method": "rhf"
			},
			{
				"type": "unocc",
				"energy": 0.01318,
				"method": "rhf"
			},
			{
				"type": "unocc",
				"energy": 0.04699,
				"method": "rhf"
			}
		],
		"cosmo_sigma_profile": { 
			"-0.025": 0.0,
			"-0.024": 0.0,
			"-0.023": 0.0,
			"-0.022": 0.0,
			"-0.021": 0.0,
			"-0.02": 0.0,
			"-0.019": 0.0,
			"-0.018": 0.0,
			"-0.017": 0.0,
			"-0.016": 0.0,
			"-0.015": 0.408871104674,
			"-0.014": 1.19665656885,
			"-0.013": 1.68302655344,
			"-0.012": 0.940246327946,
			"-0.011": 1.04224465338,
			"-0.01": 1.93754040665,
			"-0.009": 2.23214332351,
			"-0.008": 5.64533329462,
			"-0.007": 8.36108223174,
			"-0.006": 10.4899570055,
			"-0.005": 13.290363949,
			"-0.004": 16.4590868652,
			"-0.003": 18.0920779873,
			"-0.002": 24.872836135,
			"-0.001": 26.3043741044,
			"0.0": 19.8820382665,
			"0.001": 20.768480947,
			"0.002": 15.2446475071,
			"0.003": 14.1991450494,
			"0.004": 10.9150466342,
			"0.005": 4.34669774422,
			"0.006": 4.09348961716,
			"0.007": 6.74380964268,
			"0.008": 9.49343289343,
			"0.009": 6.00784502827,
			"0.01": 1.06357389494,
			"0.011": 2.40888490371,
			"0.012": 3.0151061619,
			"0.013": 5.35649684355,
			"0.014": 1.92515285741,
			"0.015": 0.0608485664444,
			"0.016": 0.0,
			"0.017": 0.0,
			"0.018": 0.0,
			"0.019": 0.0,
			"0.02": 0.0,
			"0.021": 0.0,
			"0.022": 0.0,
			"0.023": 0.0,
			"0.024": 0.0,
			"0.025": 0.0
		}
	}
}
