{
	 "smiles": "CC1=C(C)C(C)=C2C(=O)N3C=CC=CC3=CC2=C1C", 
	 "Tm": 494.15, 
	 "num_atms": 36, 
	 "gaussian": { 
		 "optdone": 1, 
		 "sigma_profile": "yes", 
		 "theory": "DFT", 
		 "functional": "B3LYP", 
		 "basiset": "6-31G**", 
		 "properties": { 
			 "R2extent": 5974.6064, 
			 "electric_dipole_moment_norm": 2.83318167614, 
			 "electric_quadrupole_moment_norm": 17.9107508034, 
			 "total_energy": -788.05832588, 
			 "HOMO_LUMO_gap": 0.12467, 
			 "cosmo_polarized_energy": -9.09, 
			 "cosmo_cavitation_energy": 36.24, 
			 "cosmo_dispersion_energy": -27.08, 
			 "cosmo_repulsion_energy": 1.99, 
			 "cosmo_total_nonelectrostatic_energy": 11.15, 
			 "SMD_solvation_energy": 6.45 
		},
		"coords": [
			{
				"x": -3.1972674952,
				"y": 0.6484607758,
				"z": 0.1976031628,
				"element": "C" 
			},
			{
				"x": -1.739634678,
				"y": 0.2501957234,
				"z": 0.0575978957,
				"element": "C" 
			},
			{
				"x": -1.433489014,
				"y": -0.9430364278,
				"z": -0.6666511101,
				"element": "C" 
			},
			{
				"x": -2.561142572,
				"y": -1.6723295201,
				"z": -1.3759667784,
				"element": "C" 
			},
			{
				"x": -0.123769373,
				"y": -1.4272471749,
				"z": -0.7314920669,
				"element": "C" 
			},
			{
				"x": 0.1517056548,
				"y": -2.7724543155,
				"z": -1.3727832727,
				"element": "C" 
			},
			{
				"x": 0.9285727576,
				"y": -0.6521903026,
				"z": -0.15133469,
				"element": "C" 
			},
			{
				"x": 2.3189993416,
				"y": -1.0825103007,
				"z": -0.2910266261,
				"element": "C" 
			},
			{
				"x": 2.7223416009,
				"y": -2.0599610117,
				"z": -0.9214788145,
				"element": "O" 
			},
			{
				"x": 3.3117362904,
				"y": -0.2719958869,
				"z": 0.3685057014,
				"element": "N" 
			},
			{
				"x": 4.6286667564,
				"y": -0.7000844482,
				"z": 0.2675023598,
				"element": "C" 
			},
			{
				"x": 5.6464466465,
				"y": -0.017109075,
				"z": 0.8461830284,
				"element": "C" 
			},
			{
				"x": 5.3640470666,
				"y": 1.1826504821,
				"z": 1.5779280058,
				"element": "C" 
			},
			{
				"x": 4.0785960624,
				"y": 1.6157482813,
				"z": 1.6775845608,
				"element": "C" 
			},
			{
				"x": 2.9913019523,
				"y": 0.9002441974,
				"z": 1.0687095335,
				"element": "C" 
			},
			{
				"x": 1.6823760255,
				"y": 1.3068615139,
				"z": 1.1357109485,
				"element": "C" 
			},
			{
				"x": 0.6276613802,
				"y": 0.5626516334,
				"z": 0.5348617448,
				"element": "C" 
			},
			{
				"x": -0.7251236209,
				"y": 1.0113187474,
				"z": 0.6330223461,
				"element": "C" 
			},
			{
				"x": -0.9894832695,
				"y": 2.3200466238,
				"z": 1.3485242406,
				"element": "C" 
			},
			{
				"x": -3.3674932795,
				"y": 1.308365955,
				"z": 1.0475520769,
				"element": "H" 
			},
			{
				"x": -3.8316302515,
				"y": -0.2287653472,
				"z": 0.3467515043,
				"element": "H" 
			},
			{
				"x": -3.5696627129,
				"y": 1.1637673782,
				"z": -0.697668917,
				"element": "H" 
			},
			{
				"x": -3.0409840759,
				"y": -2.4288729572,
				"z": -0.7394322107,
				"element": "H" 
			},
			{
				"x": -2.209734896,
				"y": -2.1821579726,
				"z": -2.2739809135,
				"element": "H" 
			},
			{
				"x": -3.343682918,
				"y": -0.9811649322,
				"z": -1.6946609253,
				"element": "H" 
			},
			{
				"x": 0.6163042609,
				"y": -2.667571767,
				"z": -2.3592667858,
				"element": "H" 
			},
			{
				"x": 0.8580705102,
				"y": -3.350345689,
				"z": -0.7782081331,
				"element": "H" 
			},
			{
				"x": -0.7637440279,
				"y": -3.3535976883,
				"z": -1.4818966019,
				"element": "H" 
			},
			{
				"x": 4.7400972426,
				"y": -1.6091053237,
				"z": -0.3060658828,
				"element": "H" 
			},
			{
				"x": 6.6601686278,
				"y": -0.3868392388,
				"z": 0.7467417119,
				"element": "H" 
			},
			{
				"x": 6.1714339512,
				"y": 1.7378004077,
				"z": 2.0448185452,
				"element": "H" 
			},
			{
				"x": 3.8259443408,
				"y": 2.5204569331,
				"z": 2.2206307342,
				"element": "H" 
			},
			{
				"x": 1.4754175778,
				"y": 2.216278627,
				"z": 1.6813340435,
				"element": "H" 
			},
			{
				"x": -0.3577248326,
				"y": 3.118447287,
				"z": 0.9436818264,
				"element": "H" 
			},
			{
				"x": -2.0196308152,
				"y": 2.6565542598,
				"z": 1.246917784,
				"element": "H" 
			},
			{
				"x": -0.7689902147,
				"y": 2.2516905531,
				"z": 2.4215519742,
				"element": "H" 
			}
		],
		 "valence_orbital": [ 
			{
				"type": "occ",
				"energy": -0.29198,
				"method": "rhf"
			},
			{
				"type": "occ",
				"energy": -0.24882,
				"method": "rhf"
			},
			{
				"type": "occ",
				"energy": -0.24284,
				"method": "rhf"
			},
			{
				"type": "occ",
				"energy": -0.23084,
				"method": "rhf"
			},
			{
				"type": "occ",
				"energy": -0.1749,
				"method": "rhf"
			},
			{
				"type": "unocc",
				"energy": -0.05023,
				"method": "rhf"
			},
			{
				"type": "unocc",
				"energy": -0.03178,
				"method": "rhf"
			},
			{
				"type": "unocc",
				"energy": -0.00085,
				"method": "rhf"
			},
			{
				"type": "unocc",
				"energy": 0.05129,
				"method": "rhf"
			},
			{
				"type": "unocc",
				"energy": 0.06362,
				"method": "rhf"
			}
		],
		"cosmo_sigma_profile": { 
			"-0.025": 0.0,
			"-0.024": 0.0,
			"-0.023": 0.0,
			"-0.022": 0.0,
			"-0.021": 0.0,
			"-0.02": 0.0,
			"-0.019": 0.0,
			"-0.018": 0.0,
			"-0.017": 0.0,
			"-0.016": 0.0,
			"-0.015": 0.0,
			"-0.014": 0.0,
			"-0.013": 0.0,
			"-0.012": 0.0,
			"-0.011": 0.0,
			"-0.01": 0.0,
			"-0.009": 0.0,
			"-0.008": 0.23237630183,
			"-0.007": 6.82303563279,
			"-0.006": 10.1316442864,
			"-0.005": 10.9686998612,
			"-0.004": 19.254970802,
			"-0.003": 27.3501237148,
			"-0.002": 28.2226161874,
			"-0.001": 32.738806299,
			"0.0": 36.4957249281,
			"0.001": 29.7140543947,
			"0.002": 22.4092372844,
			"0.003": 20.4498162869,
			"0.004": 15.6613076897,
			"0.005": 11.5133422666,
			"0.006": 3.02919422654,
			"0.007": 1.84966137868,
			"0.008": 1.54209779679,
			"0.009": 1.05962584642,
			"0.01": 1.72805932607,
			"0.011": 1.95577713719,
			"0.012": 1.96863798546,
			"0.013": 2.51505877548,
			"0.014": 0.558018085668,
			"0.015": 0.0,
			"0.016": 0.0,
			"0.017": 0.0,
			"0.018": 0.0,
			"0.019": 0.0,
			"0.02": 0.0,
			"0.021": 0.0,
			"0.022": 0.0,
			"0.023": 0.0,
			"0.024": 0.0,
			"0.025": 0.0
		}
	}
}
