{
	 "smiles": "COC1=CC=C(CNC2=CC(=O)C3=CC=CC=C3C2=O)C=C1", 
	 "Tm": 437.15, 
	 "num_atms": 37, 
	 "gaussian": { 
		 "optdone": 1, 
		 "sigma_profile": "yes", 
		 "theory": "DFT", 
		 "functional": "B3LYP", 
		 "basiset": "6-31G**", 
		 "properties": { 
			 "R2extent": 8943.5603, 
			 "electric_dipole_moment_norm": 3.03261119994, 
			 "electric_quadrupole_moment_norm": 19.2122060821, 
			 "total_energy": -975.363746813, 
			 "HOMO_LUMO_gap": 0.11198, 
			 "cosmo_polarized_energy": -16.49, 
			 "cosmo_cavitation_energy": 41.35, 
			 "cosmo_dispersion_energy": -29.5, 
			 "cosmo_repulsion_energy": 2.21, 
			 "cosmo_total_nonelectrostatic_energy": 14.07, 
			 "SMD_solvation_energy": 7.56 
		},
		"coords": [
			{
				"x": -5.3549460512,
				"y": -1.8447482999,
				"z": 3.3151326426,
				"element": "C" 
			},
			{
				"x": -5.6847098318,
				"y": -0.9488419319,
				"z": 2.2654293163,
				"element": "O" 
			},
			{
				"x": -4.7095781145,
				"y": -0.119866523,
				"z": 1.7932468738,
				"element": "C" 
			},
			{
				"x": -3.3952178753,
				"y": -0.0785843986,
				"z": 2.2740522425,
				"element": "C" 
			},
			{
				"x": -2.4807785641,
				"y": 0.815693634,
				"z": 1.7113557848,
				"element": "C" 
			},
			{
				"x": -2.8475581414,
				"y": 1.6768708039,
				"z": 0.6731179729,
				"element": "C" 
			},
			{
				"x": -1.8404448312,
				"y": 2.6209097476,
				"z": 0.043807986,
				"element": "C" 
			},
			{
				"x": -1.1623130538,
				"y": 2.0649628763,
				"z": -1.1439887974,
				"element": "N" 
			},
			{
				"x": -0.1232216548,
				"y": 1.1787620243,
				"z": -1.2176470164,
				"element": "C" 
			},
			{
				"x": 0.084944791,
				"y": 0.4344593532,
				"z": -2.3512930412,
				"element": "C" 
			},
			{
				"x": 1.2131585231,
				"y": -0.4535210372,
				"z": -2.5583629654,
				"element": "C" 
			},
			{
				"x": 1.3554312504,
				"y": -1.0985792078,
				"z": -3.5994617478,
				"element": "O" 
			},
			{
				"x": 2.2065976724,
				"y": -0.5709687677,
				"z": -1.4446004412,
				"element": "C" 
			},
			{
				"x": 3.3102793759,
				"y": -1.4137493622,
				"z": -1.5819903775,
				"element": "C" 
			},
			{
				"x": 4.2351853651,
				"y": -1.5271062453,
				"z": -0.544030171,
				"element": "C" 
			},
			{
				"x": 4.0599854428,
				"y": -0.7979729005,
				"z": 0.6371623911,
				"element": "C" 
			},
			{
				"x": 2.9594852199,
				"y": 0.0441061992,
				"z": 0.78069377,
				"element": "C" 
			},
			{
				"x": 2.0279031754,
				"y": 0.1616701137,
				"z": -0.2589261766,
				"element": "C" 
			},
			{
				"x": 0.8649655094,
				"y": 1.0734097479,
				"z": -0.0799944008,
				"element": "C" 
			},
			{
				"x": 0.7259411363,
				"y": 1.7131499493,
				"z": 0.9587215715,
				"element": "O" 
			},
			{
				"x": -4.171845603,
				"y": 1.6258028556,
				"z": 0.2097120377,
				"element": "C" 
			},
			{
				"x": -5.0943247174,
				"y": 0.7428735576,
				"z": 0.7556579329,
				"element": "C" 
			},
			{
				"x": -6.265653217,
				"y": -2.4060656987,
				"z": 3.5295002495,
				"element": "H" 
			},
			{
				"x": -5.0396752117,
				"y": -1.3101948817,
				"z": 4.2205358807,
				"element": "H" 
			},
			{
				"x": -4.5623991194,
				"y": -2.5434747853,
				"z": 3.0177658924,
				"element": "H" 
			},
			{
				"x": -3.0756305203,
				"y": -0.7272843352,
				"z": 3.0810825798,
				"element": "H" 
			},
			{
				"x": -1.464070449,
				"y": 0.8451144933,
				"z": 2.0922536496,
				"element": "H" 
			},
			{
				"x": -1.0809975124,
				"y": 2.9157444008,
				"z": 0.7619090642,
				"element": "H" 
			},
			{
				"x": -2.3501961131,
				"y": 3.5252112764,
				"z": -0.3051411066,
				"element": "H" 
			},
			{
				"x": -1.7669107619,
				"y": 2.0156400801,
				"z": -1.9548043472,
				"element": "H" 
			},
			{
				"x": -0.6179975729,
				"y": 0.4900693115,
				"z": -3.1789203126,
				"element": "H" 
			},
			{
				"x": 3.4184688313,
				"y": -1.9669306219,
				"z": -2.5089784356,
				"element": "H" 
			},
			{
				"x": 5.0940481561,
				"y": -2.1831253092,
				"z": -0.6534686509,
				"element": "H" 
			},
			{
				"x": 4.7820927723,
				"y": -0.8868086445,
				"z": 1.44343795,
				"element": "H" 
			},
			{
				"x": 2.8028668716,
				"y": 0.620680537,
				"z": 1.6859839273,
				"element": "H" 
			},
			{
				"x": -4.4896392261,
				"y": 2.2954573088,
				"z": -0.5872115096,
				"element": "H" 
			},
			{
				"x": -6.119845951,
				"y": 0.7043346801,
				"z": 0.4030597823,
				"element": "H" 
			}
		],
		 "valence_orbital": [ 
			{
				"type": "occ",
				"energy": -0.26152,
				"method": "rhf"
			},
			{
				"type": "occ",
				"energy": -0.25475,
				"method": "rhf"
			},
			{
				"type": "occ",
				"energy": -0.24355,
				"method": "rhf"
			},
			{
				"type": "occ",
				"energy": -0.2267,
				"method": "rhf"
			},
			{
				"type": "occ",
				"energy": -0.21399,
				"method": "rhf"
			},
			{
				"type": "unocc",
				"energy": -0.10201,
				"method": "rhf"
			},
			{
				"type": "unocc",
				"energy": -0.03197,
				"method": "rhf"
			},
			{
				"type": "unocc",
				"energy": -0.01022,
				"method": "rhf"
			},
			{
				"type": "unocc",
				"energy": -0.00369,
				"method": "rhf"
			},
			{
				"type": "unocc",
				"energy": 0.00572,
				"method": "rhf"
			}
		],
		"cosmo_sigma_profile": { 
			"-0.025": 0.0,
			"-0.024": 0.0,
			"-0.023": 0.0,
			"-0.022": 0.0,
			"-0.021": 0.0,
			"-0.02": 0.0,
			"-0.019": 0.0,
			"-0.018": 0.0,
			"-0.017": 0.0,
			"-0.016": 0.0,
			"-0.015": 0.0,
			"-0.014": 0.830848454523,
			"-0.013": 1.51344423322,
			"-0.012": 1.69199758701,
			"-0.011": 1.21948148956,
			"-0.01": 1.79459862516,
			"-0.009": 1.29973042397,
			"-0.008": 2.15020954064,
			"-0.007": 6.19471024117,
			"-0.006": 18.7850161043,
			"-0.005": 26.7376043766,
			"-0.004": 26.30807153,
			"-0.003": 28.4323743485,
			"-0.002": 22.0264168436,
			"-0.001": 20.8469858186,
			"0.0": 22.8465010172,
			"0.001": 24.1264910451,
			"0.002": 28.901279864,
			"0.003": 25.0963451691,
			"0.004": 15.7701747133,
			"0.005": 15.2429485089,
			"0.006": 8.95453589954,
			"0.007": 4.48321553701,
			"0.008": 4.30249154643,
			"0.009": 4.70605368638,
			"0.01": 4.3290356332,
			"0.011": 3.14999243456,
			"0.012": 3.15580115063,
			"0.013": 4.43809344881,
			"0.014": 1.54876690738,
			"0.015": 0.147496056683,
			"0.016": 0.0,
			"0.017": 0.0,
			"0.018": 0.0,
			"0.019": 0.0,
			"0.02": 0.0,
			"0.021": 0.0,
			"0.022": 0.0,
			"0.023": 0.0,
			"0.024": 0.0,
			"0.025": 0.0
		}
	}
}
