{
	 "smiles": "COC1=CC=C(N)C=C1", 
	 "Tm": 331.15, 
	 "num_atms": 18, 
	 "gaussian": { 
		 "optdone": 1, 
		 "sigma_profile": "yes", 
		 "theory": "DFT", 
		 "functional": "B3LYP", 
		 "basiset": "6-31G**", 
		 "properties": { 
			 "R2extent": 1798.8627, 
			 "electric_dipole_moment_norm": 1.78077127391, 
			 "electric_quadrupole_moment_norm": 11.1100092498, 
			 "total_energy": -402.13076865, 
			 "HOMO_LUMO_gap": 0.1877, 
			 "cosmo_polarized_energy": -9.67, 
			 "cosmo_cavitation_energy": 21.39, 
			 "cosmo_dispersion_energy": -16.15, 
			 "cosmo_repulsion_energy": 1.33, 
			 "cosmo_total_nonelectrostatic_energy": 6.56, 
			 "SMD_solvation_energy": 4.4 
		},
		"coords": [
			{
				"x": -0.8425665887,
				"y": 1.5114252918,
				"z": 1.1110203504,
				"element": "C" 
			},
			{
				"x": 0.1112082009,
				"y": 1.5927872386,
				"z": 0.0693973805,
				"element": "O" 
			},
			{
				"x": 0.3112130551,
				"y": 0.4763985814,
				"z": -0.7037920216,
				"element": "C" 
			},
			{
				"x": -0.3497840474,
				"y": -0.7435457919,
				"z": -0.5376083488,
				"element": "C" 
			},
			{
				"x": -0.0620394833,
				"y": -1.8177564285,
				"z": -1.3851312854,
				"element": "C" 
			},
			{
				"x": 0.8827412895,
				"y": -1.7025893641,
				"z": -2.4113763394,
				"element": "C" 
			},
			{
				"x": 1.1245188309,
				"y": -2.7631119144,
				"z": -3.3021125838,
				"element": "N" 
			},
			{
				"x": 1.5395789875,
				"y": -0.4684435486,
				"z": -2.5675205524,
				"element": "C" 
			},
			{
				"x": 1.2593909902,
				"y": 0.6015392041,
				"z": -1.7280629469,
				"element": "C" 
			},
			{
				"x": -0.8519958488,
				"y": 2.4906738876,
				"z": 1.593353999,
				"element": "H" 
			},
			{
				"x": -1.8485102918,
				"y": 1.2908366189,
				"z": 0.7280797979,
				"element": "H" 
			},
			{
				"x": -0.5725100862,
				"y": 0.7487032439,
				"z": 1.8544947237,
				"element": "H" 
			},
			{
				"x": -1.0874990311,
				"y": -0.8776018073,
				"z": 0.2450344471,
				"element": "H" 
			},
			{
				"x": -0.5885069964,
				"y": -2.7588635201,
				"z": -1.2442406397,
				"element": "H" 
			},
			{
				"x": 2.0472092999,
				"y": -2.748023828,
				"z": -3.7172037087,
				"element": "H" 
			},
			{
				"x": 0.9242660813,
				"y": -3.6769802387,
				"z": -2.9166639747,
				"element": "H" 
			},
			{
				"x": 2.2743222812,
				"y": -0.3490177504,
				"z": -3.3602979183,
				"element": "H" 
			},
			{
				"x": 1.7693633569,
				"y": 1.5519701259,
				"z": -1.848970379,
				"element": "H" 
			}
		],
		 "valence_orbital": [ 
			{
				"type": "occ",
				"energy": -0.33321,
				"method": "rhf"
			},
			{
				"type": "occ",
				"energy": -0.31622,
				"method": "rhf"
			},
			{
				"type": "occ",
				"energy": -0.27044,
				"method": "rhf"
			},
			{
				"type": "occ",
				"energy": -0.24194,
				"method": "rhf"
			},
			{
				"type": "occ",
				"energy": -0.18141,
				"method": "rhf"
			},
			{
				"type": "unocc",
				"energy": 0.00629,
				"method": "rhf"
			},
			{
				"type": "unocc",
				"energy": 0.03498,
				"method": "rhf"
			},
			{
				"type": "unocc",
				"energy": 0.08567,
				"method": "rhf"
			},
			{
				"type": "unocc",
				"energy": 0.10133,
				"method": "rhf"
			},
			{
				"type": "unocc",
				"energy": 0.11638,
				"method": "rhf"
			}
		],
		"cosmo_sigma_profile": { 
			"-0.025": 0.0,
			"-0.024": 0.0,
			"-0.023": 0.0,
			"-0.022": 0.0,
			"-0.021": 0.0,
			"-0.02": 0.0,
			"-0.019": 0.0,
			"-0.018": 0.0,
			"-0.017": 0.0,
			"-0.016": 0.0,
			"-0.015": 0.0,
			"-0.014": 0.0,
			"-0.013": 0.0,
			"-0.012": 1.02849871494,
			"-0.011": 3.05195825995,
			"-0.01": 2.62948349669,
			"-0.009": 2.97228306744,
			"-0.008": 3.55438733788,
			"-0.007": 2.78837591811,
			"-0.006": 6.41588303331,
			"-0.005": 15.6796534381,
			"-0.004": 15.1870133907,
			"-0.003": 16.1387800985,
			"-0.002": 11.200312467,
			"-0.001": 8.60722609853,
			"0.0": 6.11279356891,
			"0.001": 6.8307347661,
			"0.002": 6.14309219173,
			"0.003": 7.14794867921,
			"0.004": 9.24786370656,
			"0.005": 10.2166269563,
			"0.006": 11.8494025189,
			"0.007": 9.65893414738,
			"0.008": 2.54898340558,
			"0.009": 1.93097495333,
			"0.01": 2.50796798407,
			"0.011": 2.31557305666,
			"0.012": 0.838043920169,
			"0.013": 0.841409164316,
			"0.014": 0.587158042604,
			"0.015": 0.66715795917,
			"0.016": 0.371539439896,
			"0.017": 0.0,
			"0.018": 0.0,
			"0.019": 0.0,
			"0.02": 0.0,
			"0.021": 0.0,
			"0.022": 0.0,
			"0.023": 0.0,
			"0.024": 0.0,
			"0.025": 0.0
		}
	}
}
