{
	 "smiles": "OC(=O)C1=CSC(=N1)C1=CC(=CC=C1)[N+]([O-])=O", 
	 "Tm": 488.15, 
	 "num_atms": 23, 
	 "gaussian": { 
		 "optdone": 1, 
		 "sigma_profile": "yes", 
		 "theory": "DFT", 
		 "functional": "B3LYP", 
		 "basiset": "6-31G**", 
		 "properties": { 
			 "R2extent": 6167.4673, 
			 "electric_dipole_moment_norm": 6.9235233812, 
			 "electric_quadrupole_moment_norm": 17.0015909361, 
			 "total_energy": -1193.17453433, 
			 "HOMO_LUMO_gap": 0.15615, 
			 "cosmo_polarized_energy": -17.27, 
			 "cosmo_cavitation_energy": 31.36, 
			 "cosmo_dispersion_energy": -23.33, 
			 "cosmo_repulsion_energy": 1.74, 
			 "cosmo_total_nonelectrostatic_energy": 9.77, 
			 "SMD_solvation_energy": 8.05 
		},
		"coords": [
			{
				"x": -0.7335953643,
				"y": 2.0125401223,
				"z": 2.9728425583,
				"element": "O" 
			},
			{
				"x": 0.4022724722,
				"y": 1.3043458284,
				"z": 3.121480033,
				"element": "C" 
			},
			{
				"x": 0.9370043074,
				"y": 1.1415484731,
				"z": 4.1931382162,
				"element": "O" 
			},
			{
				"x": 0.9413116845,
				"y": 0.7424096972,
				"z": 1.8464701614,
				"element": "C" 
			},
			{
				"x": 2.0814911903,
				"y": -0.0078861848,
				"z": 1.7525826858,
				"element": "C" 
			},
			{
				"x": 2.3493666835,
				"y": -0.4570594086,
				"z": 0.1118981784,
				"element": "S" 
			},
			{
				"x": 0.8802930989,
				"y": 0.4115356739,
				"z": -0.3503181902,
				"element": "C" 
			},
			{
				"x": 0.2770893648,
				"y": 0.971439095,
				"z": 0.6660003731,
				"element": "N" 
			},
			{
				"x": 0.4027915815,
				"y": 0.4853425457,
				"z": -1.7378238657,
				"element": "C" 
			},
			{
				"x": -0.7739252234,
				"y": 1.1990483618,
				"z": -2.0108983842,
				"element": "C" 
			},
			{
				"x": -1.2280095446,
				"y": 1.2708922611,
				"z": -3.3204735865,
				"element": "C" 
			},
			{
				"x": -0.5617654863,
				"y": 0.6611772239,
				"z": -4.3820959797,
				"element": "C" 
			},
			{
				"x": 0.606282148,
				"y": -0.0462756489,
				"z": -4.1048954556,
				"element": "C" 
			},
			{
				"x": 1.0849390607,
				"y": -0.134547107,
				"z": -2.7985820924,
				"element": "C" 
			},
			{
				"x": -2.4675771577,
				"y": 2.02451454,
				"z": -3.5974557048,
				"element": "N" 
			},
			{
				"x": -2.8499986974,
				"y": 2.0742137612,
				"z": -4.7648017333,
				"element": "O" 
			},
			{
				"x": -3.037132111,
				"y": 2.5529442442,
				"z": -2.6453562235,
				"element": "O" 
			},
			{
				"x": -0.9726043485,
				"y": 2.0071604889,
				"z": 2.028021805,
				"element": "H" 
			},
			{
				"x": 2.7438753865,
				"y": -0.29952426,
				"z": 2.5543744339,
				"element": "H" 
			},
			{
				"x": -1.3234102319,
				"y": 1.6878852463,
				"z": -1.2180092894,
				"element": "H" 
			},
			{
				"x": -0.959658819,
				"y": 0.7485795213,
				"z": -5.3850157602,
				"element": "H" 
			},
			{
				"x": 1.1468466558,
				"y": -0.5316174887,
				"z": -4.9106846507,
				"element": "H" 
			},
			{
				"x": 1.9976133501,
				"y": -0.6918669862,
				"z": -2.608197529,
				"element": "H" 
			}
		],
		 "valence_orbital": [ 
			{
				"type": "occ",
				"energy": -0.31342,
				"method": "rhf"
			},
			{
				"type": "occ",
				"energy": -0.30387,
				"method": "rhf"
			},
			{
				"type": "occ",
				"energy": -0.30023,
				"method": "rhf"
			},
			{
				"type": "occ",
				"energy": -0.27993,
				"method": "rhf"
			},
			{
				"type": "occ",
				"energy": -0.26106,
				"method": "rhf"
			},
			{
				"type": "unocc",
				"energy": -0.10491,
				"method": "rhf"
			},
			{
				"type": "unocc",
				"energy": -0.08878,
				"method": "rhf"
			},
			{
				"type": "unocc",
				"energy": -0.05235,
				"method": "rhf"
			},
			{
				"type": "unocc",
				"energy": -0.02323,
				"method": "rhf"
			},
			{
				"type": "unocc",
				"energy": -0.01488,
				"method": "rhf"
			}
		],
		"cosmo_sigma_profile": { 
			"-0.025": 0.0,
			"-0.024": 0.0,
			"-0.023": 0.0,
			"-0.022": 0.0,
			"-0.021": 0.0,
			"-0.02": 0.0,
			"-0.019": 0.0,
			"-0.018": 0.0,
			"-0.017": 0.0,
			"-0.016": 0.0,
			"-0.015": 0.0996393488314,
			"-0.014": 0.630506154851,
			"-0.013": 0.593816840198,
			"-0.012": 0.331625651015,
			"-0.011": 1.749069184,
			"-0.01": 2.41968511317,
			"-0.009": 3.82631978397,
			"-0.008": 7.65681487839,
			"-0.007": 12.2219462081,
			"-0.006": 10.4124339028,
			"-0.005": 11.7325405647,
			"-0.004": 13.4183743775,
			"-0.003": 16.3539386921,
			"-0.002": 22.9112086596,
			"-0.001": 29.5745018497,
			"0.0": 29.345659162,
			"0.001": 17.0449979223,
			"0.002": 6.59948744814,
			"0.003": 7.14673678882,
			"0.004": 4.02335680165,
			"0.005": 6.24516654899,
			"0.006": 6.10139086867,
			"0.007": 12.0185772928,
			"0.008": 8.71488686556,
			"0.009": 7.81689119995,
			"0.01": 6.76916514109,
			"0.011": 4.97587184368,
			"0.012": 3.95385849999,
			"0.013": 1.17965261031,
			"0.014": 0.0,
			"0.015": 0.0,
			"0.016": 0.0,
			"0.017": 0.0,
			"0.018": 0.0,
			"0.019": 0.0,
			"0.02": 0.0,
			"0.021": 0.0,
			"0.022": 0.0,
			"0.023": 0.0,
			"0.024": 0.0,
			"0.025": 0.0
		}
	}
}
