{
	 "smiles": "CC(C)CNCC(O)=O", 
	 "Tm": 472.15, 
	 "num_atms": 22, 
	 "gaussian": { 
		 "optdone": 1, 
		 "sigma_profile": "yes", 
		 "theory": "DFT", 
		 "functional": "B3LYP", 
		 "basiset": "6-31G**", 
		 "properties": { 
			 "R2extent": 1883.7599, 
			 "electric_dipole_moment_norm": 2.0652383906, 
			 "electric_quadrupole_moment_norm": 4.71208503425, 
			 "total_energy": -441.68783823, 
			 "HOMO_LUMO_gap": 0.23785, 
			 "cosmo_polarized_energy": -11.39, 
			 "cosmo_cavitation_energy": 24.72, 
			 "cosmo_dispersion_energy": -17.59, 
			 "cosmo_repulsion_energy": 1.48, 
			 "cosmo_total_nonelectrostatic_energy": 8.61, 
			 "SMD_solvation_energy": 4.37 
		},
		"coords": [
			{
				"x": -0.3038328707,
				"y": -2.5164846123,
				"z": -1.4074287217,
				"element": "C" 
			},
			{
				"x": 0.5207205878,
				"y": -1.385069275,
				"z": -0.7782113529,
				"element": "C" 
			},
			{
				"x": 1.1400781463,
				"y": -0.4781369047,
				"z": -1.8502065231,
				"element": "C" 
			},
			{
				"x": -0.3398242129,
				"y": -0.5846550924,
				"z": 0.21148245,
				"element": "C" 
			},
			{
				"x": 0.4561782149,
				"y": 0.4050870511,
				"z": 0.9406239692,
				"element": "N" 
			},
			{
				"x": -0.2935302169,
				"y": 1.2078161194,
				"z": 1.8838809484,
				"element": "C" 
			},
			{
				"x": -1.1074857595,
				"y": 2.3010087089,
				"z": 1.206919985,
				"element": "C" 
			},
			{
				"x": -1.6780695705,
				"y": 3.1059948067,
				"z": 2.1394939981,
				"element": "O" 
			},
			{
				"x": -1.2704715335,
				"y": 2.4589633895,
				"z": 0.0196630754,
				"element": "O" 
			},
			{
				"x": -1.1468820228,
				"y": -2.1118991914,
				"z": -1.9804775077,
				"element": "H" 
			},
			{
				"x": 0.3061996792,
				"y": -3.1121194457,
				"z": -2.0945030989,
				"element": "H" 
			},
			{
				"x": -0.7106102972,
				"y": -3.1930048949,
				"z": -0.6474053606,
				"element": "H" 
			},
			{
				"x": 1.3403477098,
				"y": -1.8477820544,
				"z": -0.2040170935,
				"element": "H" 
			},
			{
				"x": 1.6962868461,
				"y": 0.3433735317,
				"z": -1.3927801045,
				"element": "H" 
			},
			{
				"x": 1.8160757047,
				"y": -1.0432758793,
				"z": -2.5013518278,
				"element": "H" 
			},
			{
				"x": 0.3576410619,
				"y": -0.0371552594,
				"z": -2.4792447901,
				"element": "H" 
			},
			{
				"x": -1.1153627233,
				"y": -0.0441650119,
				"z": -0.3418419725,
				"element": "H" 
			},
			{
				"x": -0.8581422676,
				"y": -1.284912379,
				"z": 0.8962022371,
				"element": "H" 
			},
			{
				"x": 1.2057087563,
				"y": -0.0680641423,
				"z": 1.4376459349,
				"element": "H" 
			},
			{
				"x": 0.395529752,
				"y": 1.7038344104,
				"z": 2.5762976756,
				"element": "H" 
			},
			{
				"x": -1.0021756681,
				"y": 0.6373336183,
				"z": 2.5166712075,
				"element": "H" 
			},
			{
				"x": -2.1946793159,
				"y": 3.7645125068,
				"z": 1.6457868721,
				"element": "H" 
			}
		],
		 "valence_orbital": [ 
			{
				"type": "occ",
				"energy": -0.32133,
				"method": "rhf"
			},
			{
				"type": "occ",
				"energy": -0.31974,
				"method": "rhf"
			},
			{
				"type": "occ",
				"energy": -0.31396,
				"method": "rhf"
			},
			{
				"type": "occ",
				"energy": -0.27464,
				"method": "rhf"
			},
			{
				"type": "occ",
				"energy": -0.22588,
				"method": "rhf"
			},
			{
				"type": "unocc",
				"energy": 0.01197,
				"method": "rhf"
			},
			{
				"type": "unocc",
				"energy": 0.07778,
				"method": "rhf"
			},
			{
				"type": "unocc",
				"energy": 0.08161,
				"method": "rhf"
			},
			{
				"type": "unocc",
				"energy": 0.09948,
				"method": "rhf"
			},
			{
				"type": "unocc",
				"energy": 0.1266,
				"method": "rhf"
			}
		],
		"cosmo_sigma_profile": { 
			"-0.025": 0.0,
			"-0.024": 0.0,
			"-0.023": 0.0,
			"-0.022": 0.0,
			"-0.021": 0.0,
			"-0.02": 0.0,
			"-0.019": 0.0508152104891,
			"-0.018": 0.632186207479,
			"-0.017": 1.03132448057,
			"-0.016": 1.11143041224,
			"-0.015": 0.522347375743,
			"-0.014": 0.429205736588,
			"-0.013": 0.238055991559,
			"-0.012": 0.731267456073,
			"-0.011": 1.26139645989,
			"-0.01": 2.29422407368,
			"-0.009": 1.49761461976,
			"-0.008": 2.46731683862,
			"-0.007": 4.67263873183,
			"-0.006": 4.90313592174,
			"-0.005": 6.55480766932,
			"-0.004": 7.21398841551,
			"-0.003": 11.863713235,
			"-0.002": 23.7934103191,
			"-0.001": 25.8604180734,
			"0.0": 19.2517509163,
			"0.001": 20.0529002769,
			"0.002": 14.7856065902,
			"0.003": 4.03083296372,
			"0.004": 3.97963580554,
			"0.005": 2.54135703277,
			"0.006": 3.07826638806,
			"0.007": 3.48000540851,
			"0.008": 2.85784591539,
			"0.009": 3.8091458071,
			"0.01": 3.58847698128,
			"0.011": 3.95938999107,
			"0.012": 5.27779889565,
			"0.013": 1.66436544834,
			"0.014": 0.655882146323,
			"0.015": 0.828891009762,
			"0.016": 0.055694893511,
			"0.017": 0.0,
			"0.018": 0.0,
			"0.019": 0.0,
			"0.02": 0.0,
			"0.021": 0.0,
			"0.022": 0.0,
			"0.023": 0.0,
			"0.024": 0.0,
			"0.025": 0.0
		}
	}
}
