{
	 "smiles": "CC1=C(N)C=CC(OCC(N)=O)=C1", 
	 "Tm": 411.15, 
	 "num_atms": 25, 
	 "gaussian": { 
		 "optdone": 1, 
		 "sigma_profile": "yes", 
		 "theory": "DFT", 
		 "functional": "B3LYP", 
		 "basiset": "6-31G**", 
		 "properties": { 
			 "R2extent": 3762.5959, 
			 "electric_dipole_moment_norm": 4.33720434843, 
			 "electric_quadrupole_moment_norm": 17.5162417858, 
			 "total_energy": -610.154399216, 
			 "HOMO_LUMO_gap": 0.19085, 
			 "cosmo_polarized_energy": -16.88, 
			 "cosmo_cavitation_energy": 28.85, 
			 "cosmo_dispersion_energy": -21.29, 
			 "cosmo_repulsion_energy": 1.71, 
			 "cosmo_total_nonelectrostatic_energy": 9.28, 
			 "SMD_solvation_energy": 5.93 
		},
		"coords": [
			{
				"x": -3.1206650737,
				"y": 1.516989105,
				"z": 2.0231243656,
				"element": "C" 
			},
			{
				"x": -1.8345197587,
				"y": 1.1194444598,
				"z": 1.342806267,
				"element": "C" 
			},
			{
				"x": -0.7126837954,
				"y": 1.9819312772,
				"z": 1.3857628719,
				"element": "C" 
			},
			{
				"x": -0.7777921563,
				"y": 3.1875888417,
				"z": 2.1052891801,
				"element": "N" 
			},
			{
				"x": 0.4723570447,
				"y": 1.5808494489,
				"z": 0.7616312057,
				"element": "C" 
			},
			{
				"x": 0.5750259175,
				"y": 0.353303446,
				"z": 0.1015060181,
				"element": "C" 
			},
			{
				"x": -0.5335712668,
				"y": -0.4912558607,
				"z": 0.0543448168,
				"element": "C" 
			},
			{
				"x": -0.557100679,
				"y": -1.7199556657,
				"z": -0.5704637728,
				"element": "O" 
			},
			{
				"x": 0.6236661392,
				"y": -2.1723156073,
				"z": -1.2119880962,
				"element": "C" 
			},
			{
				"x": 0.4072173803,
				"y": -3.5504787799,
				"z": -1.837547539,
				"element": "C" 
			},
			{
				"x": -0.8288029276,
				"y": -4.0801620785,
				"z": -1.6609930875,
				"element": "N" 
			},
			{
				"x": 1.3193164743,
				"y": -4.0937984676,
				"z": -2.4433486316,
				"element": "O" 
			},
			{
				"x": -1.7247017964,
				"y": -0.0973497468,
				"z": 0.6744757347,
				"element": "C" 
			},
			{
				"x": -3.5693921821,
				"y": 2.4099818921,
				"z": 1.5646690309,
				"element": "H" 
			},
			{
				"x": -2.9535995192,
				"y": 1.7510982632,
				"z": 3.0814749711,
				"element": "H" 
			},
			{
				"x": -3.8628000045,
				"y": 0.7171627604,
				"z": 1.9645088697,
				"element": "H" 
			},
			{
				"x": -0.0397691963,
				"y": 3.839863111,
				"z": 1.8739067919,
				"element": "H" 
			},
			{
				"x": -1.6790374733,
				"y": 3.6465562044,
				"z": 2.0777879543,
				"element": "H" 
			},
			{
				"x": 1.3390182506,
				"y": 2.237084777,
				"z": 0.7927075299,
				"element": "H" 
			},
			{
				"x": 1.5134622653,
				"y": 0.082433393,
				"z": -0.3674534476,
				"element": "H" 
			},
			{
				"x": 1.4582345373,
				"y": -2.2564959796,
				"z": -0.5030899293,
				"element": "H" 
			},
			{
				"x": 0.9322116414,
				"y": -1.4883540552,
				"z": -2.0138207711,
				"element": "H" 
			},
			{
				"x": -1.0257263481,
				"y": -4.9880119472,
				"z": -2.0516459006,
				"element": "H" 
			},
			{
				"x": -1.5316254776,
				"y": -3.5716530659,
				"z": -1.1486172038,
				"element": "H" 
			},
			{
				"x": -2.5765219956,
				"y": -0.7700557255,
				"z": 0.6304727716,
				"element": "H" 
			}
		],
		 "valence_orbital": [ 
			{
				"type": "occ",
				"energy": -0.28188,
				"method": "rhf"
			},
			{
				"type": "occ",
				"energy": -0.26189,
				"method": "rhf"
			},
			{
				"type": "occ",
				"energy": -0.2466,
				"method": "rhf"
			},
			{
				"type": "occ",
				"energy": -0.24333,
				"method": "rhf"
			},
			{
				"type": "occ",
				"energy": -0.19023,
				"method": "rhf"
			},
			{
				"type": "unocc",
				"energy": 0.00062,
				"method": "rhf"
			},
			{
				"type": "unocc",
				"energy": 0.02466,
				"method": "rhf"
			},
			{
				"type": "unocc",
				"energy": 0.03653,
				"method": "rhf"
			},
			{
				"type": "unocc",
				"energy": 0.07407,
				"method": "rhf"
			},
			{
				"type": "unocc",
				"energy": 0.08923,
				"method": "rhf"
			}
		],
		"cosmo_sigma_profile": { 
			"-0.025": 0.0,
			"-0.024": 0.0,
			"-0.023": 0.0,
			"-0.022": 0.0,
			"-0.021": 0.0,
			"-0.02": 0.0,
			"-0.019": 0.0,
			"-0.018": 0.0,
			"-0.017": 0.0,
			"-0.016": 0.0,
			"-0.015": 0.054939971122,
			"-0.014": 1.06520836959,
			"-0.013": 1.38420063,
			"-0.012": 2.31436686484,
			"-0.011": 4.6153645364,
			"-0.01": 4.73799946072,
			"-0.009": 4.62268698993,
			"-0.008": 4.54796653204,
			"-0.007": 7.98243859036,
			"-0.006": 13.0631417248,
			"-0.005": 13.4948792445,
			"-0.004": 14.8519019462,
			"-0.003": 14.2780826922,
			"-0.002": 13.5591284717,
			"-0.001": 11.7502090864,
			"0.0": 15.6273012673,
			"0.001": 12.4299369071,
			"0.002": 10.4786846137,
			"0.003": 11.0764745382,
			"0.004": 11.7095116775,
			"0.005": 11.362652113,
			"0.006": 11.3047171908,
			"0.007": 7.35267705667,
			"0.008": 2.1270881754,
			"0.009": 2.4372082312,
			"0.01": 1.98067089855,
			"0.011": 1.6906508682,
			"0.012": 1.57459556066,
			"0.013": 5.12268427843,
			"0.014": 6.6392119131,
			"0.015": 1.85576799914,
			"0.016": 0.229917140131,
			"0.017": 0.0,
			"0.018": 0.0,
			"0.019": 0.0,
			"0.02": 0.0,
			"0.021": 0.0,
			"0.022": 0.0,
			"0.023": 0.0,
			"0.024": 0.0,
			"0.025": 0.0
		}
	}
}
