{
	 "smiles": "COC1=C(OC)C=C2N=C(N)SC2=C1", 
	 "Tm": 498.15, 
	 "num_atms": 24, 
	 "gaussian": { 
		 "optdone": 1, 
		 "sigma_profile": "yes", 
		 "theory": "DFT", 
		 "functional": "B3LYP", 
		 "basiset": "6-31G**", 
		 "properties": { 
			 "R2extent": 3969.6484, 
			 "electric_dipole_moment_norm": 1.69610462236, 
			 "electric_quadrupole_moment_norm": 19.9132115398, 
			 "total_energy": -1007.09936705, 
			 "HOMO_LUMO_gap": 0.1921, 
			 "cosmo_polarized_energy": -12.9, 
			 "cosmo_cavitation_energy": 29.53, 
			 "cosmo_dispersion_energy": -22.18, 
			 "cosmo_repulsion_energy": 1.71, 
			 "cosmo_total_nonelectrostatic_energy": 9.06, 
			 "SMD_solvation_energy": 4.27 
		},
		"coords": [
			{
				"x": 3.5740229716,
				"y": -1.3728359307,
				"z": 0.9696951621,
				"element": "C" 
			},
			{
				"x": 2.3611072658,
				"y": -1.6161680753,
				"z": 1.6921686647,
				"element": "O" 
			},
			{
				"x": 1.2130224394,
				"y": -1.2284578307,
				"z": 1.0342457531,
				"element": "C" 
			},
			{
				"x": 0.892380926,
				"y": 0.1397641349,
				"z": 0.8710917068,
				"element": "C" 
			},
			{
				"x": 1.7536646056,
				"y": 1.1206210243,
				"z": 1.3157624059,
				"element": "O" 
			},
			{
				"x": 1.8175598341,
				"y": 1.257922382,
				"z": 2.739721104,
				"element": "C" 
			},
			{
				"x": -0.2780437663,
				"y": 0.5200834127,
				"z": 0.2212783572,
				"element": "C" 
			},
			{
				"x": -1.1516570577,
				"y": -0.4598727995,
				"z": -0.2663167669,
				"element": "C" 
			},
			{
				"x": -2.3528353781,
				"y": -0.2078353383,
				"z": -0.9140589828,
				"element": "N" 
			},
			{
				"x": -2.9426639371,
				"y": -1.3153079,
				"z": -1.232226363,
				"element": "C" 
			},
			{
				"x": -4.1145196529,
				"y": -1.3879431348,
				"z": -1.9426215892,
				"element": "N" 
			},
			{
				"x": -2.0971514932,
				"y": -2.8262333016,
				"z": -0.7755386468,
				"element": "S" 
			},
			{
				"x": -0.8268181416,
				"y": -1.8241666839,
				"z": -0.0756926944,
				"element": "C" 
			},
			{
				"x": 0.3467788474,
				"y": -2.2155266636,
				"z": 0.5639806992,
				"element": "C" 
			},
			{
				"x": 4.386697858,
				"y": -1.7254114987,
				"z": 1.6084687132,
				"element": "H" 
			},
			{
				"x": 3.5842180753,
				"y": -1.9352170388,
				"z": 0.0273155078,
				"element": "H" 
			},
			{
				"x": 3.7040352346,
				"y": -0.3068208299,
				"z": 0.7592080404,
				"element": "H" 
			},
			{
				"x": 2.1627724901,
				"y": 0.333874845,
				"z": 3.2140478074,
				"element": "H" 
			},
			{
				"x": 0.8367993412,
				"y": 1.5339016255,
				"z": 3.1475870234,
				"element": "H" 
			},
			{
				"x": 2.5289859636,
				"y": 2.062459941,
				"z": 2.9381244926,
				"element": "H" 
			},
			{
				"x": -0.5061743029,
				"y": 1.572772496,
				"z": 0.0975646541,
				"element": "H" 
			},
			{
				"x": -4.7079252366,
				"y": -2.1884077218,
				"z": -1.7802795703,
				"element": "H" 
			},
			{
				"x": -4.6049827792,
				"y": -0.5050592523,
				"z": -1.9989599215,
				"element": "H" 
			},
			{
				"x": 0.6139258932,
				"y": -3.2566358613,
				"z": 0.7091344431,
				"element": "H" 
			}
		],
		 "valence_orbital": [ 
			{
				"type": "occ",
				"energy": -0.27446,
				"method": "rhf"
			},
			{
				"type": "occ",
				"energy": -0.27256,
				"method": "rhf"
			},
			{
				"type": "occ",
				"energy": -0.25869,
				"method": "rhf"
			},
			{
				"type": "occ",
				"energy": -0.22448,
				"method": "rhf"
			},
			{
				"type": "occ",
				"energy": -0.20341,
				"method": "rhf"
			},
			{
				"type": "unocc",
				"energy": -0.01131,
				"method": "rhf"
			},
			{
				"type": "unocc",
				"energy": 0.00168,
				"method": "rhf"
			},
			{
				"type": "unocc",
				"energy": 0.00446,
				"method": "rhf"
			},
			{
				"type": "unocc",
				"energy": 0.04914,
				"method": "rhf"
			},
			{
				"type": "unocc",
				"energy": 0.06845,
				"method": "rhf"
			}
		],
		"cosmo_sigma_profile": { 
			"-0.025": 0.0,
			"-0.024": 0.0,
			"-0.023": 0.0,
			"-0.022": 0.0,
			"-0.021": 0.0,
			"-0.02": 0.0,
			"-0.019": 0.0,
			"-0.018": 0.0,
			"-0.017": 0.0,
			"-0.016": 0.0,
			"-0.015": 0.89507445803,
			"-0.014": 2.43076519568,
			"-0.013": 2.53402415453,
			"-0.012": 2.51944818322,
			"-0.011": 3.33080914593,
			"-0.01": 1.96759669255,
			"-0.009": 1.40255741672,
			"-0.008": 2.16261790292,
			"-0.007": 4.81266822324,
			"-0.006": 5.18559789851,
			"-0.005": 11.0194694672,
			"-0.004": 14.506766061,
			"-0.003": 21.2704439682,
			"-0.002": 22.0625643045,
			"-0.001": 14.2655950294,
			"0.0": 15.9915700006,
			"0.001": 16.8746748081,
			"0.002": 16.6666447632,
			"0.003": 22.1064093578,
			"0.004": 17.7594730198,
			"0.005": 8.49369847059,
			"0.006": 4.95682323747,
			"0.007": 4.93810935825,
			"0.008": 3.20043564384,
			"0.009": 3.80953650125,
			"0.01": 3.70097115113,
			"0.011": 3.15449795447,
			"0.012": 2.66912626462,
			"0.013": 1.14352918276,
			"0.014": 0.63985729656,
			"0.015": 0.729598913416,
			"0.016": 0.043919054641,
			"0.017": 0.0,
			"0.018": 0.0,
			"0.019": 0.0,
			"0.02": 0.0,
			"0.021": 0.0,
			"0.022": 0.0,
			"0.023": 0.0,
			"0.024": 0.0,
			"0.025": 0.0
		}
	}
}
