{
	 "smiles": "ClC(Cl)(Cl)C1CC2=CC=CC=C2C(=O)O1", 
	 "Tm": 392.15, 
	 "num_atms": 22, 
	 "gaussian": { 
		 "optdone": 1, 
		 "sigma_profile": "yes", 
		 "theory": "DFT", 
		 "functional": "B3LYP", 
		 "basiset": "6-31G**", 
		 "properties": { 
			 "R2extent": 5266.8868, 
			 "electric_dipole_moment_norm": 4.75618883246, 
			 "electric_quadrupole_moment_norm": 13.1612762143, 
			 "total_energy": -1916.30040603, 
			 "HOMO_LUMO_gap": 0.2048, 
			 "cosmo_polarized_energy": -11.97, 
			 "cosmo_cavitation_energy": 30.38, 
			 "cosmo_dispersion_energy": -22.04, 
			 "cosmo_repulsion_energy": 1.71, 
			 "cosmo_total_nonelectrostatic_energy": 10.04, 
			 "SMD_solvation_energy": 4.78 
		},
		"coords": [
			{
				"x": -2.2506479971,
				"y": -2.9011198172,
				"z": -3.0870781463,
				"element": "Cl" 
			},
			{
				"x": -1.9672556553,
				"y": -1.8494694038,
				"z": -1.6601224393,
				"element": "C" 
			},
			{
				"x": -1.146204512,
				"y": -2.8026342091,
				"z": -0.38174195,
				"element": "Cl" 
			},
			{
				"x": -3.5731853542,
				"y": -1.2834593537,
				"z": -1.0387130433,
				"element": "Cl" 
			},
			{
				"x": -1.1487239992,
				"y": -0.5924244122,
				"z": -2.1026537919,
				"element": "C" 
			},
			{
				"x": -0.8439163522,
				"y": 0.433513651,
				"z": -1.0005529548,
				"element": "C" 
			},
			{
				"x": 0.4249868675,
				"y": 0.1442837464,
				"z": -0.2409025793,
				"element": "C" 
			},
			{
				"x": 0.637291987,
				"y": 0.6198433836,
				"z": 1.0552252536,
				"element": "C" 
			},
			{
				"x": 1.850794066,
				"y": 0.3834127802,
				"z": 1.7018220122,
				"element": "C" 
			},
			{
				"x": 2.867817937,
				"y": -0.3305829961,
				"z": 1.0597861585,
				"element": "C" 
			},
			{
				"x": 2.6650895101,
				"y": -0.8093644734,
				"z": -0.2304547592,
				"element": "C" 
			},
			{
				"x": 1.4456800519,
				"y": -0.5740474691,
				"z": -0.8786041914,
				"element": "C" 
			},
			{
				"x": 1.2607161509,
				"y": -1.1049628104,
				"z": -2.2514178319,
				"element": "C" 
			},
			{
				"x": 2.1389400129,
				"y": -1.5984288417,
				"z": -2.916178008,
				"element": "O" 
			},
			{
				"x": 0.0092034598,
				"y": -1.0028414643,
				"z": -2.8207461662,
				"element": "O" 
			},
			{
				"x": -1.7924023405,
				"y": -0.1251227358,
				"z": -2.8533415968,
				"element": "H" 
			},
			{
				"x": -0.7434557463,
				"y": 1.4059498967,
				"z": -1.5002524425,
				"element": "H" 
			},
			{
				"x": -1.6981694561,
				"y": 0.5240555376,
				"z": -0.3260524716,
				"element": "H" 
			},
			{
				"x": -0.1493667317,
				"y": 1.1742096443,
				"z": 1.5601006978,
				"element": "H" 
			},
			{
				"x": 2.0025813451,
				"y": 0.75469843,
				"z": 2.7112280541,
				"element": "H" 
			},
			{
				"x": 3.810449745,
				"y": -0.5125076232,
				"z": 1.5665389484,
				"element": "H" 
			},
			{
				"x": 3.4307770112,
				"y": -1.3690014598,
				"z": -0.756588752,
				"element": "H" 
			}
		],
		 "valence_orbital": [ 
			{
				"type": "occ",
				"energy": -0.3132,
				"method": "rhf"
			},
			{
				"type": "occ",
				"energy": -0.30784,
				"method": "rhf"
			},
			{
				"type": "occ",
				"energy": -0.28048,
				"method": "rhf"
			},
			{
				"type": "occ",
				"energy": -0.2704,
				"method": "rhf"
			},
			{
				"type": "occ",
				"energy": -0.26434,
				"method": "rhf"
			},
			{
				"type": "unocc",
				"energy": -0.05954,
				"method": "rhf"
			},
			{
				"type": "unocc",
				"energy": -0.04659,
				"method": "rhf"
			},
			{
				"type": "unocc",
				"energy": -0.02299,
				"method": "rhf"
			},
			{
				"type": "unocc",
				"energy": -0.01074,
				"method": "rhf"
			},
			{
				"type": "unocc",
				"energy": -0.0014,
				"method": "rhf"
			}
		],
		"cosmo_sigma_profile": { 
			"-0.025": 0.0,
			"-0.024": 0.0,
			"-0.023": 0.0,
			"-0.022": 0.0,
			"-0.021": 0.0,
			"-0.02": 0.0,
			"-0.019": 0.0,
			"-0.018": 0.0,
			"-0.017": 0.0,
			"-0.016": 0.0,
			"-0.015": 0.0,
			"-0.014": 0.0,
			"-0.013": 0.0,
			"-0.012": 0.0,
			"-0.011": 0.0,
			"-0.01": 0.526125834833,
			"-0.009": 3.05519079835,
			"-0.008": 4.06860310562,
			"-0.007": 10.9603578079,
			"-0.006": 14.0278872577,
			"-0.005": 14.7322600944,
			"-0.004": 17.0991218387,
			"-0.003": 12.4901468676,
			"-0.002": 15.9606284617,
			"-0.001": 16.3187886882,
			"0.0": 18.5014953668,
			"0.001": 23.0642205768,
			"0.002": 28.4214256605,
			"0.003": 36.0048241826,
			"0.004": 7.84811763097,
			"0.005": 2.50413139557,
			"0.006": 2.5589958705,
			"0.007": 2.64158221235,
			"0.008": 2.85436975539,
			"0.009": 2.71476322879,
			"0.01": 3.66262827381,
			"0.011": 5.55683119794,
			"0.012": 2.9770258598,
			"0.013": 0.658628642154,
			"0.014": 0.0,
			"0.015": 0.0,
			"0.016": 0.0,
			"0.017": 0.0,
			"0.018": 0.0,
			"0.019": 0.0,
			"0.02": 0.0,
			"0.021": 0.0,
			"0.022": 0.0,
			"0.023": 0.0,
			"0.024": 0.0,
			"0.025": 0.0
		}
	}
}
