{
	 "smiles": "CS(=O)(=O)C1=CC(=CC=C1)C(=O)C1=CC=C(Cl)C=C1", 
	 "Tm": 381.15, 
	 "num_atms": 30, 
	 "gaussian": { 
		 "optdone": 1, 
		 "sigma_profile": "yes", 
		 "theory": "DFT", 
		 "functional": "B3LYP", 
		 "basiset": "6-31G**", 
		 "properties": { 
			 "R2extent": 7927.0998, 
			 "electric_dipole_moment_norm": 4.56247504432, 
			 "electric_quadrupole_moment_norm": 19.6383661614, 
			 "total_energy": -1624.10823978, 
			 "HOMO_LUMO_gap": 0.17405, 
			 "cosmo_polarized_energy": -19.49, 
			 "cosmo_cavitation_energy": 38.31, 
			 "cosmo_dispersion_energy": -27.3, 
			 "cosmo_repulsion_energy": 2.05, 
			 "cosmo_total_nonelectrostatic_energy": 13.07, 
			 "SMD_solvation_energy": 6.33 
		},
		"coords": [
			{
				"x": -0.7784270936,
				"y": -0.1515636045,
				"z": 3.5790058818,
				"element": "C" 
			},
			{
				"x": -0.9379444678,
				"y": 1.4008885819,
				"z": 2.6631824313,
				"element": "S" 
			},
			{
				"x": -1.9028720528,
				"y": 2.2410113731,
				"z": 3.3880741601,
				"element": "O" 
			},
			{
				"x": 0.4203153553,
				"y": 1.8774730603,
				"z": 2.3613726945,
				"element": "O" 
			},
			{
				"x": -1.7019590328,
				"y": 0.9006909683,
				"z": 1.1077422266,
				"element": "C" 
			},
			{
				"x": -0.8846127902,
				"y": 0.6021968693,
				"z": 0.017017045,
				"element": "C" 
			},
			{
				"x": -1.4741579258,
				"y": 0.2315359476,
				"z": -1.1994975051,
				"element": "C" 
			},
			{
				"x": -2.8749844425,
				"y": 0.1876655642,
				"z": -1.2963804592,
				"element": "C" 
			},
			{
				"x": -3.6773765099,
				"y": 0.4837153411,
				"z": -0.1977788559,
				"element": "C" 
			},
			{
				"x": -3.0934510804,
				"y": 0.849136515,
				"z": 1.0174067648,
				"element": "C" 
			},
			{
				"x": -0.6821192056,
				"y": -0.021095998,
				"z": -2.4535353945,
				"element": "C" 
			},
			{
				"x": -1.1988928523,
				"y": 0.2019007242,
				"z": -3.5419741354,
				"element": "O" 
			},
			{
				"x": 0.7223487387,
				"y": -0.5358492324,
				"z": -2.384541872,
				"element": "C" 
			},
			{
				"x": 1.5714259312,
				"y": -0.255701551,
				"z": -3.4677074842,
				"element": "C" 
			},
			{
				"x": 2.8741466066,
				"y": -0.7389129025,
				"z": -3.4982150832,
				"element": "C" 
			},
			{
				"x": 3.3265591941,
				"y": -1.5359237108,
				"z": -2.4432304613,
				"element": "C" 
			},
			{
				"x": 4.9650389213,
				"y": -2.1573433243,
				"z": -2.4759694948,
				"element": "Cl" 
			},
			{
				"x": 2.4963390577,
				"y": -1.8524714022,
				"z": -1.3682652059,
				"element": "C" 
			},
			{
				"x": 1.198288231,
				"y": -1.3451738677,
				"z": -1.3418686053,
				"element": "C" 
			},
			{
				"x": -0.3230452842,
				"y": 0.10723537,
				"z": 4.5371935841,
				"element": "H" 
			},
			{
				"x": -1.7684043333,
				"y": -0.5826674982,
				"z": 3.7338781169,
				"element": "H" 
			},
			{
				"x": -0.1321356018,
				"y": -0.8329605393,
				"z": 3.0241737592,
				"element": "H" 
			},
			{
				"x": 0.1898866528,
				"y": 0.7083560612,
				"z": 0.1156744107,
				"element": "H" 
			},
			{
				"x": -3.3138842847,
				"y": -0.0688900647,
				"z": -2.2547007693,
				"element": "H" 
			},
			{
				"x": -4.7585628031,
				"y": 0.4478361914,
				"z": -0.288666944,
				"element": "H" 
			},
			{
				"x": -3.7000613087,
				"y": 1.1185304151,
				"z": 1.8757906003,
				"element": "H" 
			},
			{
				"x": 1.1881092096,
				"y": 0.3474102069,
				"z": -4.2837208155,
				"element": "H" 
			},
			{
				"x": 3.5343898358,
				"y": -0.5097297365,
				"z": -4.3271454847,
				"element": "H" 
			},
			{
				"x": 2.8609218411,
				"y": -2.4875333796,
				"z": -0.5688177206,
				"element": "H" 
			},
			{
				"x": 0.5475214941,
				"y": -1.608666378,
				"z": -0.5151953844,
				"element": "H" 
			}
		],
		 "valence_orbital": [ 
			{
				"type": "occ",
				"energy": -0.28784,
				"method": "rhf"
			},
			{
				"type": "occ",
				"energy": -0.28592,
				"method": "rhf"
			},
			{
				"type": "occ",
				"energy": -0.28053,
				"method": "rhf"
			},
			{
				"type": "occ",
				"energy": -0.26912,
				"method": "rhf"
			},
			{
				"type": "occ",
				"energy": -0.25933,
				"method": "rhf"
			},
			{
				"type": "unocc",
				"energy": -0.08528,
				"method": "rhf"
			},
			{
				"type": "unocc",
				"energy": -0.04935,
				"method": "rhf"
			},
			{
				"type": "unocc",
				"energy": -0.03827,
				"method": "rhf"
			},
			{
				"type": "unocc",
				"energy": -0.0283,
				"method": "rhf"
			},
			{
				"type": "unocc",
				"energy": 0.01861,
				"method": "rhf"
			}
		],
		"cosmo_sigma_profile": { 
			"-0.025": 0.0,
			"-0.024": 0.0,
			"-0.023": 0.0,
			"-0.022": 0.0,
			"-0.021": 0.0,
			"-0.02": 0.0,
			"-0.019": 0.0,
			"-0.018": 0.0,
			"-0.017": 0.0,
			"-0.016": 0.0,
			"-0.015": 0.0,
			"-0.014": 0.0,
			"-0.013": 0.0,
			"-0.012": 0.0,
			"-0.011": 0.0,
			"-0.01": 0.000571152213208,
			"-0.009": 2.72731853567,
			"-0.008": 11.6889938774,
			"-0.007": 17.8848059291,
			"-0.006": 23.0679351693,
			"-0.005": 21.3899607512,
			"-0.004": 19.8117643151,
			"-0.003": 18.0662882918,
			"-0.002": 17.5435649799,
			"-0.001": 17.0606825234,
			"0.0": 23.2774973478,
			"0.001": 30.7903731667,
			"0.002": 26.7874339612,
			"0.003": 13.1464844392,
			"0.004": 14.9313148081,
			"0.005": 4.68931615479,
			"0.006": 4.01320325878,
			"0.007": 4.13459762716,
			"0.008": 3.89456713135,
			"0.009": 5.27202467317,
			"0.01": 7.19691581,
			"0.011": 12.9487012705,
			"0.012": 9.51565066083,
			"0.013": 0.407613435133,
			"0.014": 0.0,
			"0.015": 0.0,
			"0.016": 0.0,
			"0.017": 0.0,
			"0.018": 0.0,
			"0.019": 0.0,
			"0.02": 0.0,
			"0.021": 0.0,
			"0.022": 0.0,
			"0.023": 0.0,
			"0.024": 0.0,
			"0.025": 0.0
		}
	}
}
