{
	 "smiles": "COC1=CC(F)=C(F)C=C1CBr", 
	 "Tm": 315.15, 
	 "num_atms": 19, 
	 "gaussian": { 
		 "optdone": 1, 
		 "sigma_profile": "yes", 
		 "theory": "DFT", 
		 "functional": "B3LYP", 
		 "basiset": "6-31G**", 
		 "properties": { 
			 "R2extent": 5767.918, 
			 "electric_dipole_moment_norm": 3.11479746372, 
			 "electric_quadrupole_moment_norm": 12.6006502804, 
			 "total_energy": -3155.35091277, 
			 "HOMO_LUMO_gap": 0.1869, 
			 "cosmo_polarized_energy": -8.12, 
			 "cosmo_cavitation_energy": 26.55, 
			 "cosmo_dispersion_energy": -19.1, 
			 "cosmo_repulsion_energy": 1.5, 
			 "cosmo_total_nonelectrostatic_energy": 8.95, 
			 "SMD_solvation_energy": 5.13 
		},
		"coords": [
			{
				"x": 0.3341192978,
				"y": -1.9560790639,
				"z": 1.6803452303,
				"element": "C" 
			},
			{
				"x": 1.3543372353,
				"y": -1.3944588111,
				"z": 0.866335892,
				"element": "O" 
			},
			{
				"x": 1.0263574522,
				"y": -0.9427301596,
				"z": -0.3735213507,
				"element": "C" 
			},
			{
				"x": -0.2725808615,
				"y": -0.9684549299,
				"z": -0.8933306975,
				"element": "C" 
			},
			{
				"x": -0.5026198259,
				"y": -0.479520056,
				"z": -2.1743128817,
				"element": "C" 
			},
			{
				"x": -1.7465814469,
				"y": -0.5008873958,
				"z": -2.6790847355,
				"element": "F" 
			},
			{
				"x": 0.5360964847,
				"y": 0.035836804,
				"z": -2.9426290159,
				"element": "C" 
			},
			{
				"x": 0.2796300189,
				"y": 0.5045825304,
				"z": -4.1775723969,
				"element": "F" 
			},
			{
				"x": 1.8228817765,
				"y": 0.0621611015,
				"z": -2.4258663212,
				"element": "C" 
			},
			{
				"x": 2.0917065329,
				"y": -0.4193655834,
				"z": -1.140813803,
				"element": "C" 
			},
			{
				"x": 3.4722583671,
				"y": -0.3828747721,
				"z": -0.5866040942,
				"element": "C" 
			},
			{
				"x": 4.4628267995,
				"y": -2.1101675403,
				"z": -0.882120613,
				"element": "Br" 
			},
			{
				"x": -0.1177208165,
				"y": -2.8353416666,
				"z": 1.2052903873,
				"element": "H" 
			},
			{
				"x": 0.8236379183,
				"y": -2.2589847572,
				"z": 2.6064531238,
				"element": "H" 
			},
			{
				"x": -0.4495099267,
				"y": -1.2222142559,
				"z": 1.9071051776,
				"element": "H" 
			},
			{
				"x": -1.1146545242,
				"y": -1.3574895756,
				"z": -0.3362005297,
				"element": "H" 
			},
			{
				"x": 2.6222300731,
				"y": 0.4610611937,
				"z": -3.0421071593,
				"element": "H" 
			},
			{
				"x": 4.0938857928,
				"y": 0.3656894837,
				"z": -1.0726457237,
				"element": "H" 
			},
			{
				"x": 3.4870996526,
				"y": -0.257662546,
				"z": 0.4924795112,
				"element": "H" 
			}
		],
		 "valence_orbital": [ 
			{
				"type": "occ",
				"energy": -0.32412,
				"method": "rhf"
			},
			{
				"type": "occ",
				"energy": -0.27255,
				"method": "rhf"
			},
			{
				"type": "occ",
				"energy": -0.26615,
				"method": "rhf"
			},
			{
				"type": "occ",
				"energy": -0.26126,
				"method": "rhf"
			},
			{
				"type": "occ",
				"energy": -0.22817,
				"method": "rhf"
			},
			{
				"type": "unocc",
				"energy": -0.04127,
				"method": "rhf"
			},
			{
				"type": "unocc",
				"energy": -0.00684,
				"method": "rhf"
			},
			{
				"type": "unocc",
				"energy": 0.02966,
				"method": "rhf"
			},
			{
				"type": "unocc",
				"energy": 0.06519,
				"method": "rhf"
			},
			{
				"type": "unocc",
				"energy": 0.09213,
				"method": "rhf"
			}
		],
		"cosmo_sigma_profile": { 
			"-0.025": 0.0,
			"-0.024": 0.0,
			"-0.023": 0.0,
			"-0.022": 0.0,
			"-0.021": 0.0,
			"-0.02": 0.0,
			"-0.019": 0.0,
			"-0.018": 0.0,
			"-0.017": 0.0,
			"-0.016": 0.0,
			"-0.015": 0.0,
			"-0.014": 0.0,
			"-0.013": 0.0,
			"-0.012": 0.0,
			"-0.011": 0.0,
			"-0.01": 0.0,
			"-0.009": 1.31220607047,
			"-0.008": 6.39730978477,
			"-0.007": 7.81230957504,
			"-0.006": 12.9432004109,
			"-0.005": 13.389331496,
			"-0.004": 13.9238537321,
			"-0.003": 11.0846916507,
			"-0.002": 9.86932238015,
			"-0.001": 12.7903042824,
			"0.0": 18.9884804895,
			"0.001": 18.7578270525,
			"0.002": 15.4409899365,
			"0.003": 19.3021620824,
			"0.004": 24.0724560214,
			"0.005": 8.20725560504,
			"0.006": 12.3015463305,
			"0.007": 7.54850257056,
			"0.008": 1.4474534931,
			"0.009": 0.0155743311719,
			"0.01": 0.0,
			"0.011": 0.0,
			"0.012": 0.0,
			"0.013": 0.0,
			"0.014": 0.0,
			"0.015": 0.0,
			"0.016": 0.0,
			"0.017": 0.0,
			"0.018": 0.0,
			"0.019": 0.0,
			"0.02": 0.0,
			"0.021": 0.0,
			"0.022": 0.0,
			"0.023": 0.0,
			"0.024": 0.0,
			"0.025": 0.0
		}
	}
}
