{
	 "smiles": "CC(=C)C1CC=C(C)C(C1)=NO", 
	 "Tm": 344.65, 
	 "num_atms": 27, 
	 "gaussian": { 
		 "optdone": 1, 
		 "sigma_profile": "yes", 
		 "theory": "DFT", 
		 "functional": "B3LYP", 
		 "basiset": "6-31G**", 
		 "properties": { 
			 "R2extent": 2258.2298, 
			 "electric_dipole_moment_norm": 0.667120086641, 
			 "electric_quadrupole_moment_norm": 3.68960285939, 
			 "total_energy": -520.003322729, 
			 "HOMO_LUMO_gap": 0.1943, 
			 "cosmo_polarized_energy": -7.89, 
			 "cosmo_cavitation_energy": 28.49, 
			 "cosmo_dispersion_energy": -20.14, 
			 "cosmo_repulsion_energy": 1.63, 
			 "cosmo_total_nonelectrostatic_energy": 9.98, 
			 "SMD_solvation_energy": 5.46 
		},
		"coords": [
			{
				"x": -1.4050016438,
				"y": 2.1275432137,
				"z": 1.8417026773,
				"element": "C" 
			},
			{
				"x": -0.3925323608,
				"y": 1.9444848138,
				"z": 0.7334459903,
				"element": "C" 
			},
			{
				"x": 0.9176968498,
				"y": 2.0354733867,
				"z": 0.9832899799,
				"element": "C" 
			},
			{
				"x": -0.9837557972,
				"y": 1.6796979007,
				"z": -0.6491909065,
				"element": "C" 
			},
			{
				"x": -0.0016604888,
				"y": 1.8369372225,
				"z": -1.8249923248,
				"element": "C" 
			},
			{
				"x": 0.8778399617,
				"y": 0.632184767,
				"z": -2.0351942821,
				"element": "C" 
			},
			{
				"x": 0.6133030136,
				"y": -0.6011964327,
				"z": -1.5626487676,
				"element": "C" 
			},
			{
				"x": 1.5508892806,
				"y": -1.7625610746,
				"z": -1.7715615052,
				"element": "C" 
			},
			{
				"x": -0.6396291197,
				"y": -0.8348340192,
				"z": -0.8237287452,
				"element": "C" 
			},
			{
				"x": -1.6514488492,
				"y": 0.2842197769,
				"z": -0.7357301016,
				"element": "C" 
			},
			{
				"x": -0.8107174993,
				"y": -2.0191651625,
				"z": -0.3421868224,
				"element": "N" 
			},
			{
				"x": -2.0530439143,
				"y": -2.1559535611,
				"z": 0.3052240722,
				"element": "O" 
			},
			{
				"x": -2.0016183475,
				"y": 1.221717196,
				"z": 2.0035257266,
				"element": "H" 
			},
			{
				"x": -2.1137452162,
				"y": 2.9307648655,
				"z": 1.6008796649,
				"element": "H" 
			},
			{
				"x": -0.9178834823,
				"y": 2.3766582043,
				"z": 2.7879387437,
				"element": "H" 
			},
			{
				"x": 1.6712716997,
				"y": 1.8977799897,
				"z": 0.2158386426,
				"element": "H" 
			},
			{
				"x": 1.2826230596,
				"y": 2.2394207318,
				"z": 1.9862644771,
				"element": "H" 
			},
			{
				"x": -1.7869400666,
				"y": 2.4184953841,
				"z": -0.7826935821,
				"element": "H" 
			},
			{
				"x": 0.6166570833,
				"y": 2.7308638056,
				"z": -1.683152385,
				"element": "H" 
			},
			{
				"x": -0.5788597328,
				"y": 2.0226274105,
				"z": -2.7443508493,
				"element": "H" 
			},
			{
				"x": 1.7869055468,
				"y": 0.783304567,
				"z": -2.6155208133,
				"element": "H" 
			},
			{
				"x": 1.0502621338,
				"y": -2.5864397642,
				"z": -2.2909046152,
				"element": "H" 
			},
			{
				"x": 1.892963402,
				"y": -2.1657873352,
				"z": -0.8127073336,
				"element": "H" 
			},
			{
				"x": 2.4244031848,
				"y": -1.4568150803,
				"z": -2.3538155573,
				"element": "H" 
			},
			{
				"x": -2.3223962272,
				"y": 0.1033219332,
				"z": 0.104469414,
				"element": "H" 
			},
			{
				"x": -2.2753239671,
				"y": 0.2469515882,
				"z": -1.6402284831,
				"element": "H" 
			},
			{
				"x": -2.0058585025,
				"y": -3.0638943273,
				"z": 0.6313276855,
				"element": "H" 
			}
		],
		 "valence_orbital": [ 
			{
				"type": "occ",
				"energy": -0.31578,
				"method": "rhf"
			},
			{
				"type": "occ",
				"energy": -0.27522,
				"method": "rhf"
			},
			{
				"type": "occ",
				"energy": -0.26179,
				"method": "rhf"
			},
			{
				"type": "occ",
				"energy": -0.24192,
				"method": "rhf"
			},
			{
				"type": "occ",
				"energy": -0.21493,
				"method": "rhf"
			},
			{
				"type": "unocc",
				"energy": -0.02063,
				"method": "rhf"
			},
			{
				"type": "unocc",
				"energy": 0.02608,
				"method": "rhf"
			},
			{
				"type": "unocc",
				"energy": 0.06879,
				"method": "rhf"
			},
			{
				"type": "unocc",
				"energy": 0.08148,
				"method": "rhf"
			},
			{
				"type": "unocc",
				"energy": 0.09802,
				"method": "rhf"
			}
		],
		"cosmo_sigma_profile": { 
			"-0.025": 0.0,
			"-0.024": 0.0,
			"-0.023": 0.0,
			"-0.022": 0.0,
			"-0.021": 0.0,
			"-0.02": 0.0,
			"-0.019": 0.0,
			"-0.018": 0.0,
			"-0.017": 0.506519502724,
			"-0.016": 0.899827809054,
			"-0.015": 1.10299621116,
			"-0.014": 0.881295195022,
			"-0.013": 0.567661101282,
			"-0.012": 0.649748533176,
			"-0.011": 0.544840654143,
			"-0.01": 0.748247007548,
			"-0.009": 0.442533283824,
			"-0.008": 0.424587716195,
			"-0.007": 0.944852746434,
			"-0.006": 0.819880403843,
			"-0.005": 3.49333671639,
			"-0.004": 18.5394427668,
			"-0.003": 31.7449037876,
			"-0.002": 25.1446248713,
			"-0.001": 26.1178984524,
			"0.0": 22.8467829275,
			"0.001": 19.4525457828,
			"0.002": 11.4671256693,
			"0.003": 10.2628851992,
			"0.004": 8.87718634922,
			"0.005": 9.76856639166,
			"0.006": 8.02411847844,
			"0.007": 5.80473357413,
			"0.008": 3.75477761996,
			"0.009": 3.64788493686,
			"0.01": 2.30253972875,
			"0.011": 1.32436544184,
			"0.012": 0.972463815189,
			"0.013": 0.239706285178,
			"0.014": 0.0,
			"0.015": 0.0,
			"0.016": 0.0,
			"0.017": 0.0,
			"0.018": 0.0,
			"0.019": 0.0,
			"0.02": 0.0,
			"0.021": 0.0,
			"0.022": 0.0,
			"0.023": 0.0,
			"0.024": 0.0,
			"0.025": 0.0
		}
	}
}
