{
	 "smiles": "CC1CCN(CC1)S(=O)(=O)C1=CC=C(C=C1)C(C)=O", 
	 "Tm": 378.15, 
	 "num_atms": 38, 
	 "gaussian": { 
		 "optdone": 1, 
		 "sigma_profile": "yes", 
		 "theory": "DFT", 
		 "functional": "B3LYP", 
		 "basiset": "6-31G**", 
		 "properties": { 
			 "R2extent": 6197.9613, 
			 "electric_dipole_moment_norm": 5.02990945545, 
			 "electric_quadrupole_moment_norm": 28.3429043154, 
			 "total_energy": -1223.49830642, 
			 "HOMO_LUMO_gap": 0.16973, 
			 "cosmo_polarized_energy": -16.75, 
			 "cosmo_cavitation_energy": 40.26, 
			 "cosmo_dispersion_energy": -28.09, 
			 "cosmo_repulsion_energy": 2.12, 
			 "cosmo_total_nonelectrostatic_energy": 14.3, 
			 "SMD_solvation_energy": 5.44 
		},
		"coords": [
			{
				"x": 2.9977923388,
				"y": 1.9511906043,
				"z": -1.7248570859,
				"element": "C" 
			},
			{
				"x": 3.0665731021,
				"y": 0.5013299301,
				"z": -1.2350914691,
				"element": "C" 
			},
			{
				"x": 2.8573425885,
				"y": 0.3999020846,
				"z": 0.2873220368,
				"element": "C" 
			},
			{
				"x": 2.8934397911,
				"y": -1.0563638059,
				"z": 0.7710703992,
				"element": "C" 
			},
			{
				"x": 1.9673467845,
				"y": -1.9140772219,
				"z": 0.016748816,
				"element": "N" 
			},
			{
				"x": 2.0979590541,
				"y": -1.8433565863,
				"z": -1.4458530789,
				"element": "C" 
			},
			{
				"x": 2.0487594877,
				"y": -0.398253974,
				"z": -1.9608503732,
				"element": "C" 
			},
			{
				"x": 0.569824394,
				"y": -2.4909362459,
				"z": 0.721346095,
				"element": "S" 
			},
			{
				"x": 0.0699235118,
				"y": -3.5511537747,
				"z": -0.1576105124,
				"element": "O" 
			},
			{
				"x": 0.8823514217,
				"y": -2.7212057244,
				"z": 2.1336494329,
				"element": "O" 
			},
			{
				"x": -0.6668300183,
				"y": -1.1751301039,
				"z": 0.6819888506,
				"element": "C" 
			},
			{
				"x": -1.536182462,
				"y": -1.0844208435,
				"z": -0.4069676985,
				"element": "C" 
			},
			{
				"x": -2.467948655,
				"y": -0.0479734405,
				"z": -0.450137404,
				"element": "C" 
			},
			{
				"x": -2.5358985948,
				"y": 0.8936455032,
				"z": 0.5872929386,
				"element": "C" 
			},
			{
				"x": -1.6633056711,
				"y": 0.7739409355,
				"z": 1.6808088253,
				"element": "C" 
			},
			{
				"x": -0.7323327589,
				"y": -0.257322649,
				"z": 1.7361896704,
				"element": "C" 
			},
			{
				"x": -3.5179096762,
				"y": 2.0325415296,
				"z": 0.5899854784,
				"element": "C" 
			},
			{
				"x": -4.4942900726,
				"y": 2.1629658067,
				"z": -0.565106679,
				"element": "C" 
			},
			{
				"x": -3.5247358771,
				"y": 2.8363225166,
				"z": 1.5088088827,
				"element": "O" 
			},
			{
				"x": 3.7454507408,
				"y": 2.5756809703,
				"z": -1.2239369892,
				"element": "H" 
			},
			{
				"x": 2.0119097648,
				"y": 2.386968167,
				"z": -1.5235939149,
				"element": "H" 
			},
			{
				"x": 3.1761530025,
				"y": 2.01516097,
				"z": -2.8038264798,
				"element": "H" 
			},
			{
				"x": 4.0724868338,
				"y": 0.1110341357,
				"z": -1.4587349964,
				"element": "H" 
			},
			{
				"x": 1.8914229563,
				"y": 0.8498610944,
				"z": 0.5526109871,
				"element": "H" 
			},
			{
				"x": 3.6313099933,
				"y": 0.9715132233,
				"z": 0.8147117011,
				"element": "H" 
			},
			{
				"x": 3.9020172414,
				"y": -1.4699313708,
				"z": 0.6286290832,
				"element": "H" 
			},
			{
				"x": 2.6616828297,
				"y": -1.1459309058,
				"z": 1.8331188588,
				"element": "H" 
			},
			{
				"x": 3.0653415695,
				"y": -2.2969143064,
				"z": -1.7047326695,
				"element": "H" 
			},
			{
				"x": 1.3251254781,
				"y": -2.4693807749,
				"z": -1.8937740677,
				"element": "H" 
			},
			{
				"x": 2.2437590825,
				"y": -0.3958446936,
				"z": -3.0406995318,
				"element": "H" 
			},
			{
				"x": 1.037975524,
				"y": 0.0064263259,
				"z": -1.8171567207,
				"element": "H" 
			},
			{
				"x": -1.4955635329,
				"y": -1.832210648,
				"z": -1.1910843203,
				"element": "H" 
			},
			{
				"x": -3.1458792002,
				"y": 0.0148876998,
				"z": -1.2948782095,
				"element": "H" 
			},
			{
				"x": -1.7432788227,
				"y": 1.5012490195,
				"z": 2.4816296066,
				"element": "H" 
			},
			{
				"x": -0.0774853424,
				"y": -0.3738616777,
				"z": 2.5927432531,
				"element": "H" 
			},
			{
				"x": -5.1227686273,
				"y": 3.036970989,
				"z": -0.3932088503,
				"element": "H" 
			},
			{
				"x": -5.1258529972,
				"y": 1.271538497,
				"z": -0.6482248732,
				"element": "H" 
			},
			{
				"x": -3.9647851825,
				"y": 2.2781387445,
				"z": -1.5174289914,
				"element": "H" 
			}
		],
		 "valence_orbital": [ 
			{
				"type": "occ",
				"energy": -0.30092,
				"method": "rhf"
			},
			{
				"type": "occ",
				"energy": -0.2841,
				"method": "rhf"
			},
			{
				"type": "occ",
				"energy": -0.27822,
				"method": "rhf"
			},
			{
				"type": "occ",
				"energy": -0.26078,
				"method": "rhf"
			},
			{
				"type": "occ",
				"energy": -0.24654,
				"method": "rhf"
			},
			{
				"type": "unocc",
				"energy": -0.07681,
				"method": "rhf"
			},
			{
				"type": "unocc",
				"energy": -0.02944,
				"method": "rhf"
			},
			{
				"type": "unocc",
				"energy": 0.01016,
				"method": "rhf"
			},
			{
				"type": "unocc",
				"energy": 0.05309,
				"method": "rhf"
			},
			{
				"type": "unocc",
				"energy": 0.0737,
				"method": "rhf"
			}
		],
		"cosmo_sigma_profile": { 
			"-0.025": 0.0,
			"-0.024": 0.0,
			"-0.023": 0.0,
			"-0.022": 0.0,
			"-0.021": 0.0,
			"-0.02": 0.0,
			"-0.019": 0.0,
			"-0.018": 0.0,
			"-0.017": 0.0,
			"-0.016": 0.0,
			"-0.015": 0.0,
			"-0.014": 0.0,
			"-0.013": 0.0,
			"-0.012": 0.0,
			"-0.011": 0.0,
			"-0.01": 0.0,
			"-0.009": 0.0,
			"-0.008": 0.940027531295,
			"-0.007": 9.26804279442,
			"-0.006": 14.0837343453,
			"-0.005": 18.6434928803,
			"-0.004": 25.0966556994,
			"-0.003": 34.6403829872,
			"-0.002": 44.7462463281,
			"-0.001": 34.5398957837,
			"0.0": 27.527938733,
			"0.001": 26.6902222815,
			"0.002": 15.2834232219,
			"0.003": 5.13707114141,
			"0.004": 5.77983118578,
			"0.005": 6.38129231441,
			"0.006": 5.10456804728,
			"0.007": 4.99866326469,
			"0.008": 5.190233017,
			"0.009": 4.26105586049,
			"0.01": 9.46130360806,
			"0.011": 11.1932482504,
			"0.012": 6.78850110909,
			"0.013": 0.784287105437,
			"0.014": 0.0,
			"0.015": 0.0,
			"0.016": 0.0,
			"0.017": 0.0,
			"0.018": 0.0,
			"0.019": 0.0,
			"0.02": 0.0,
			"0.021": 0.0,
			"0.022": 0.0,
			"0.023": 0.0,
			"0.024": 0.0,
			"0.025": 0.0
		}
	}
}
