{
	 "smiles": "OCCOC1=CC=C(C=C1)C(O)=O", 
	 "Tm": 451.15, 
	 "num_atms": 23, 
	 "gaussian": { 
		 "optdone": 1, 
		 "sigma_profile": "yes", 
		 "theory": "DFT", 
		 "functional": "B3LYP", 
		 "basiset": "6-31G**", 
		 "properties": { 
			 "R2extent": 3528.5386, 
			 "electric_dipole_moment_norm": 7.82937960122, 
			 "electric_quadrupole_moment_norm": 15.5693014924, 
			 "total_energy": -649.865836215, 
			 "HOMO_LUMO_gap": 0.19674, 
			 "cosmo_polarized_energy": -18.92, 
			 "cosmo_cavitation_energy": 27.18, 
			 "cosmo_dispersion_energy": -20.26, 
			 "cosmo_repulsion_energy": 1.63, 
			 "cosmo_total_nonelectrostatic_energy": 8.55, 
			 "SMD_solvation_energy": 6.28 
		},
		"coords": [
			{
				"x": -2.4510502922,
				"y": -2.2594698562,
				"z": -0.9157338232,
				"element": "O" 
			},
			{
				"x": -2.9345372118,
				"y": -1.4364415629,
				"z": -1.9665183707,
				"element": "C" 
			},
			{
				"x": -1.7629992542,
				"y": -0.7760101522,
				"z": -2.674223058,
				"element": "C" 
			},
			{
				"x": -1.2166520309,
				"y": 0.3288738534,
				"z": -1.9508671776,
				"element": "O" 
			},
			{
				"x": -0.0940888484,
				"y": 0.1912689593,
				"z": -1.1898941999,
				"element": "C" 
			},
			{
				"x": 0.4007719672,
				"y": -1.0254023077,
				"z": -0.7022424275,
				"element": "C" 
			},
			{
				"x": 1.5634343173,
				"y": -1.0281134222,
				"z": 0.0669281716,
				"element": "C" 
			},
			{
				"x": 2.2422443435,
				"y": 0.15879996,
				"z": 0.3721279987,
				"element": "C" 
			},
			{
				"x": 1.7349231281,
				"y": 1.36857464,
				"z": -0.1307926384,
				"element": "C" 
			},
			{
				"x": 0.5807953724,
				"y": 1.388622521,
				"z": -0.8964874382,
				"element": "C" 
			},
			{
				"x": 3.4966861296,
				"y": 0.2109181978,
				"z": 1.1801140478,
				"element": "C" 
			},
			{
				"x": 3.7761070199,
				"y": -0.8756392413,
				"z": 1.9554520665,
				"element": "O" 
			},
			{
				"x": 4.2556729206,
				"y": 1.1532370242,
				"z": 1.1780877468,
				"element": "O" 
			},
			{
				"x": -3.1928453352,
				"y": -2.5137718254,
				"z": -0.3541350046,
				"element": "H" 
			},
			{
				"x": -3.4899883517,
				"y": -2.0274241684,
				"z": -2.7137318442,
				"element": "H" 
			},
			{
				"x": -3.6046231023,
				"y": -0.6480578615,
				"z": -1.5944833811,
				"element": "H" 
			},
			{
				"x": -0.9890265759,
				"y": -1.5165708738,
				"z": -2.9054217356,
				"element": "H" 
			},
			{
				"x": -2.1235511053,
				"y": -0.3510393954,
				"z": -3.6170375524,
				"element": "H" 
			},
			{
				"x": -0.1352969053,
				"y": -1.948076844,
				"z": -0.8814882012,
				"element": "H" 
			},
			{
				"x": 1.9455150523,
				"y": -1.9898570916,
				"z": 0.4027909545,
				"element": "H" 
			},
			{
				"x": 2.2729248467,
				"y": 2.2842552648,
				"z": 0.0895747388,
				"element": "H" 
			},
			{
				"x": 0.1812432376,
				"y": 2.3169944741,
				"z": -1.2909486245,
				"element": "H" 
			},
			{
				"x": 3.0094406782,
				"y": -1.4637702919,
				"z": 1.9879297526,
				"element": "H" 
			}
		],
		 "valence_orbital": [ 
			{
				"type": "occ",
				"energy": -0.30266,
				"method": "rhf"
			},
			{
				"type": "occ",
				"energy": -0.29254,
				"method": "rhf"
			},
			{
				"type": "occ",
				"energy": -0.2639,
				"method": "rhf"
			},
			{
				"type": "occ",
				"energy": -0.2599,
				"method": "rhf"
			},
			{
				"type": "occ",
				"energy": -0.23082,
				"method": "rhf"
			},
			{
				"type": "unocc",
				"energy": -0.03408,
				"method": "rhf"
			},
			{
				"type": "unocc",
				"energy": -0.01223,
				"method": "rhf"
			},
			{
				"type": "unocc",
				"energy": 0.05597,
				"method": "rhf"
			},
			{
				"type": "unocc",
				"energy": 0.06235,
				"method": "rhf"
			},
			{
				"type": "unocc",
				"energy": 0.07041,
				"method": "rhf"
			}
		],
		"cosmo_sigma_profile": { 
			"-0.025": 0.0,
			"-0.024": 0.0,
			"-0.023": 0.0,
			"-0.022": 0.0,
			"-0.021": 0.0,
			"-0.02": 0.0,
			"-0.019": 0.0150007320306,
			"-0.018": 0.742638514383,
			"-0.017": 0.801928795689,
			"-0.016": 2.15200088496,
			"-0.015": 2.0165556227,
			"-0.014": 1.99563101591,
			"-0.013": 1.31660692405,
			"-0.012": 2.26347329551,
			"-0.011": 2.52847883636,
			"-0.01": 1.6761796077,
			"-0.009": 2.04433351901,
			"-0.008": 2.32935415409,
			"-0.007": 4.00438915698,
			"-0.006": 11.2950358743,
			"-0.005": 16.7098991757,
			"-0.004": 19.4346329867,
			"-0.003": 12.8615422017,
			"-0.002": 11.8149588564,
			"-0.001": 9.55545905348,
			"0.0": 9.03748472238,
			"0.001": 9.49235706517,
			"0.002": 12.1059016103,
			"0.003": 17.367299243,
			"0.004": 12.9308735082,
			"0.005": 6.26370268213,
			"0.006": 5.22477845915,
			"0.007": 4.9032193284,
			"0.008": 6.28359032949,
			"0.009": 5.78922862046,
			"0.01": 5.26345109846,
			"0.011": 5.67687826976,
			"0.012": 6.29478632073,
			"0.013": 2.97869766038,
			"0.014": 0.458136284333,
			"0.015": 0.0,
			"0.016": 0.0,
			"0.017": 0.0,
			"0.018": 0.0,
			"0.019": 0.0,
			"0.02": 0.0,
			"0.021": 0.0,
			"0.022": 0.0,
			"0.023": 0.0,
			"0.024": 0.0,
			"0.025": 0.0
		}
	}
}
