{
	 "smiles": "NC1=CC(=CC(=C1)C(O)=O)C(F)(F)F", 
	 "Tm": 417.15, 
	 "num_atms": 20, 
	 "gaussian": { 
		 "optdone": 1, 
		 "sigma_profile": "yes", 
		 "theory": "DFT", 
		 "functional": "B3LYP", 
		 "basiset": "6-31G**", 
		 "properties": { 
			 "R2extent": 3051.6959, 
			 "electric_dipole_moment_norm": 6.51527011029, 
			 "electric_quadrupole_moment_norm": 14.7942873177, 
			 "total_energy": -813.205397382, 
			 "HOMO_LUMO_gap": 0.17422, 
			 "cosmo_polarized_energy": -19.07, 
			 "cosmo_cavitation_energy": 26.58, 
			 "cosmo_dispersion_energy": -18.94, 
			 "cosmo_repulsion_energy": 1.44, 
			 "cosmo_total_nonelectrostatic_energy": 9.09, 
			 "SMD_solvation_energy": 6.86 
		},
		"coords": [
			{
				"x": -2.8337018548,
				"y": 1.8052937641,
				"z": 1.0605986454,
				"element": "N" 
			},
			{
				"x": -1.6858616522,
				"y": 1.1541009423,
				"z": 0.6286589526,
				"element": "C" 
			},
			{
				"x": -1.6083050553,
				"y": -0.2485221333,
				"z": 0.6432469458,
				"element": "C" 
			},
			{
				"x": -0.441546037,
				"y": -0.894611636,
				"z": 0.2378168,
				"element": "C" 
			},
			{
				"x": 0.6745956175,
				"y": -0.1731753666,
				"z": -0.1819242745,
				"element": "C" 
			},
			{
				"x": 0.6167062747,
				"y": 1.2238699845,
				"z": -0.1725294183,
				"element": "C" 
			},
			{
				"x": -0.554243249,
				"y": 1.8809954665,
				"z": 0.2193677872,
				"element": "C" 
			},
			{
				"x": 1.8371914647,
				"y": 1.973074844,
				"z": -0.6252430532,
				"element": "C" 
			},
			{
				"x": 1.9748404687,
				"y": 3.2448068118,
				"z": -0.1606154146,
				"element": "O" 
			},
			{
				"x": 2.6697046557,
				"y": 1.5022769248,
				"z": -1.3618331826,
				"element": "O" 
			},
			{
				"x": -0.4175507473,
				"y": -2.4017444738,
				"z": 0.1929330477,
				"element": "C" 
			},
			{
				"x": -1.2123726166,
				"y": -2.9443954813,
				"z": 1.1434371306,
				"element": "F" 
			},
			{
				"x": 0.8258766819,
				"y": -2.890754632,
				"z": 0.3731500569,
				"element": "F" 
			},
			{
				"x": -0.8592603545,
				"y": -2.8652081009,
				"z": -0.9983818303,
				"element": "F" 
			},
			{
				"x": -3.6873463706,
				"y": 1.2663426974,
				"z": 1.0321965912,
				"element": "H" 
			},
			{
				"x": -2.9605155085,
				"y": 2.7521036866,
				"z": 0.7328216746,
				"element": "H" 
			},
			{
				"x": -2.4603749785,
				"y": -0.8334456934,
				"z": 0.9747487106,
				"element": "H" 
			},
			{
				"x": 1.5822380924,
				"y": -0.6672047264,
				"z": -0.5047375645,
				"element": "H" 
			},
			{
				"x": -0.6206452277,
				"y": 2.9658613769,
				"z": 0.173732725,
				"element": "H" 
			},
			{
				"x": 1.3427703962,
				"y": 3.405335745,
				"z": 0.5539556703,
				"element": "H" 
			}
		],
		 "valence_orbital": [ 
			{
				"type": "occ",
				"energy": -0.33988,
				"method": "rhf"
			},
			{
				"type": "occ",
				"energy": -0.31958,
				"method": "rhf"
			},
			{
				"type": "occ",
				"energy": -0.28569,
				"method": "rhf"
			},
			{
				"type": "occ",
				"energy": -0.27544,
				"method": "rhf"
			},
			{
				"type": "occ",
				"energy": -0.23361,
				"method": "rhf"
			},
			{
				"type": "unocc",
				"energy": -0.05939,
				"method": "rhf"
			},
			{
				"type": "unocc",
				"energy": -0.02645,
				"method": "rhf"
			},
			{
				"type": "unocc",
				"energy": 0.038,
				"method": "rhf"
			},
			{
				"type": "unocc",
				"energy": 0.05325,
				"method": "rhf"
			},
			{
				"type": "unocc",
				"energy": 0.06579,
				"method": "rhf"
			}
		],
		"cosmo_sigma_profile": { 
			"-0.025": 0.0,
			"-0.024": 0.0,
			"-0.023": 0.0,
			"-0.022": 0.0,
			"-0.021": 0.0,
			"-0.02": 0.0,
			"-0.019": 0.0319971733115,
			"-0.018": 0.898661085467,
			"-0.017": 1.03755886632,
			"-0.016": 1.04089292007,
			"-0.015": 0.63136086385,
			"-0.014": 1.58817587088,
			"-0.013": 4.41184654942,
			"-0.012": 4.50399215255,
			"-0.011": 4.86250417377,
			"-0.01": 5.16649065201,
			"-0.009": 3.43292360339,
			"-0.008": 4.84222817368,
			"-0.007": 3.59700893476,
			"-0.006": 5.44589530141,
			"-0.005": 5.05617655633,
			"-0.004": 6.55401096169,
			"-0.003": 7.45481372537,
			"-0.002": 8.65568829047,
			"-0.001": 9.16881405047,
			"0.0": 12.5661441189,
			"0.001": 15.8266733446,
			"0.002": 33.3198837253,
			"0.003": 32.6099729089,
			"0.004": 4.36237686989,
			"0.005": 3.26151159273,
			"0.006": 3.22713324053,
			"0.007": 3.01572364379,
			"0.008": 4.09366987323,
			"0.009": 3.89873984224,
			"0.01": 5.36312044516,
			"0.011": 6.71154545228,
			"0.012": 4.64334064265,
			"0.013": 1.2263241806,
			"0.014": 0.0,
			"0.015": 0.0,
			"0.016": 0.0,
			"0.017": 0.0,
			"0.018": 0.0,
			"0.019": 0.0,
			"0.02": 0.0,
			"0.021": 0.0,
			"0.022": 0.0,
			"0.023": 0.0,
			"0.024": 0.0,
			"0.025": 0.0
		}
	}
}
