{
	 "smiles": "CC1=NC(O)=CC(O)=N1", 
	 "Tm": 633.15, 
	 "num_atms": 15, 
	 "gaussian": { 
		 "optdone": 1, 
		 "sigma_profile": "yes", 
		 "theory": "DFT", 
		 "functional": "B3LYP", 
		 "basiset": "6-31G**", 
		 "properties": { 
			 "R2extent": 1186.8087, 
			 "electric_dipole_moment_norm": 1.91373383991, 
			 "electric_quadrupole_moment_norm": 9.97035620427, 
			 "total_energy": -454.114396829, 
			 "HOMO_LUMO_gap": 0.2379, 
			 "cosmo_polarized_energy": -14.06, 
			 "cosmo_cavitation_energy": 19.56, 
			 "cosmo_dispersion_energy": -14.96, 
			 "cosmo_repulsion_energy": 1.25, 
			 "cosmo_total_nonelectrostatic_energy": 5.85, 
			 "SMD_solvation_energy": 1.72 
		},
		"coords": [
			{
				"x": 0.1943763165,
				"y": -0.3967534967,
				"z": 2.6409589718,
				"element": "C" 
			},
			{
				"x": 0.0659372265,
				"y": 0.0306586296,
				"z": 1.204277986,
				"element": "C" 
			},
			{
				"x": 0.3014714012,
				"y": 1.3237831229,
				"z": 0.9285698799,
				"element": "N" 
			},
			{
				"x": 0.2104938015,
				"y": 1.679197027,
				"z": -0.354634143,
				"element": "C" 
			},
			{
				"x": 0.4405757519,
				"y": 2.9698415478,
				"z": -0.6557721108,
				"element": "O" 
			},
			{
				"x": -0.1093244035,
				"y": 0.7872549405,
				"z": -1.3768284902,
				"element": "C" 
			},
			{
				"x": -0.3315259395,
				"y": -0.5276724679,
				"z": -0.9608700703,
				"element": "C" 
			},
			{
				"x": -0.6524085455,
				"y": -1.51442049,
				"z": -1.8249827295,
				"element": "O" 
			},
			{
				"x": -0.2487596875,
				"y": -0.9151451429,
				"z": 0.3135537696,
				"element": "N" 
			},
			{
				"x": -0.0201999584,
				"y": 0.4382955814,
				"z": 3.3103380986,
				"element": "H" 
			},
			{
				"x": -0.4719603505,
				"y": -1.2360143913,
				"z": 2.8478963781,
				"element": "H" 
			},
			{
				"x": 1.2205518958,
				"y": -0.7302621733,
				"z": 2.8376371568,
				"element": "H" 
			},
			{
				"x": 0.6410138785,
				"y": 3.4078386194,
				"z": 0.1876507466,
				"element": "H" 
			},
			{
				"x": -0.1783557205,
				"y": 1.1123322724,
				"z": -2.4085012403,
				"element": "H" 
			},
			{
				"x": -0.6931856664,
				"y": -1.1519335789,
				"z": -2.7202942033,
				"element": "H" 
			}
		],
		 "valence_orbital": [ 
			{
				"type": "occ",
				"energy": -0.33939,
				"method": "rhf"
			},
			{
				"type": "occ",
				"energy": -0.3039,
				"method": "rhf"
			},
			{
				"type": "occ",
				"energy": -0.27131,
				"method": "rhf"
			},
			{
				"type": "occ",
				"energy": -0.25987,
				"method": "rhf"
			},
			{
				"type": "occ",
				"energy": -0.25431,
				"method": "rhf"
			},
			{
				"type": "unocc",
				"energy": -0.01641,
				"method": "rhf"
			},
			{
				"type": "unocc",
				"energy": -0.005,
				"method": "rhf"
			},
			{
				"type": "unocc",
				"energy": 0.06147,
				"method": "rhf"
			},
			{
				"type": "unocc",
				"energy": 0.08377,
				"method": "rhf"
			},
			{
				"type": "unocc",
				"energy": 0.12548,
				"method": "rhf"
			}
		],
		"cosmo_sigma_profile": { 
			"-0.025": 0.0,
			"-0.024": 0.0,
			"-0.023": 0.0,
			"-0.022": 0.0,
			"-0.021": 0.0,
			"-0.02": 0.0624954803504,
			"-0.019": 0.769638418306,
			"-0.018": 1.33632609497,
			"-0.017": 2.25299532812,
			"-0.016": 1.32594501123,
			"-0.015": 1.99551717361,
			"-0.014": 1.0515190491,
			"-0.013": 1.52366253482,
			"-0.012": 2.39180777739,
			"-0.011": 2.13103368154,
			"-0.01": 1.61940460437,
			"-0.009": 1.6211145247,
			"-0.008": 1.81533633707,
			"-0.007": 2.45641528714,
			"-0.006": 3.62025140496,
			"-0.005": 5.48036247581,
			"-0.004": 7.29294192165,
			"-0.003": 6.75665921857,
			"-0.002": 9.50148707258,
			"-0.001": 16.3036341929,
			"0.0": 16.5223067894,
			"0.001": 10.3337443684,
			"0.002": 8.38233655387,
			"0.003": 5.02262530668,
			"0.004": 5.02467807056,
			"0.005": 4.70714743634,
			"0.006": 4.79235123332,
			"0.007": 4.44846720131,
			"0.008": 4.24985401511,
			"0.009": 4.2152400123,
			"0.01": 5.50225803497,
			"0.011": 3.87999866814,
			"0.012": 2.75269662884,
			"0.013": 1.8709094103,
			"0.014": 1.16118819444,
			"0.015": 0.915470077547,
			"0.016": 0.394815699251,
			"0.017": 0.0,
			"0.018": 0.0,
			"0.019": 0.0,
			"0.02": 0.0,
			"0.021": 0.0,
			"0.022": 0.0,
			"0.023": 0.0,
			"0.024": 0.0,
			"0.025": 0.0
		}
	}
}
