{
	 "smiles": "CC1=CC(C(=O)CCl)=C(C)N1C1=CC(Br)=CC=C1", 
	 "Tm": 376.15, 
	 "num_atms": 31, 
	 "gaussian": { 
		 "optdone": 1, 
		 "sigma_profile": "yes", 
		 "theory": "DFT", 
		 "functional": "B3LYP", 
		 "basiset": "6-31G**", 
		 "properties": { 
			 "R2extent": 9861.8509, 
			 "electric_dipole_moment_norm": 5.28947056046, 
			 "electric_quadrupole_moment_norm": 18.3086077911, 
			 "total_energy": -3702.89811808, 
			 "HOMO_LUMO_gap": 0.16718, 
			 "cosmo_polarized_energy": -13.52, 
			 "cosmo_cavitation_energy": 38.91, 
			 "cosmo_dispersion_energy": -27.0, 
			 "cosmo_repulsion_energy": 2.12, 
			 "cosmo_total_nonelectrostatic_energy": 14.03, 
			 "SMD_solvation_energy": 5.87 
		},
		"coords": [
			{
				"x": 2.2680502631,
				"y": -0.1921391223,
				"z": 1.583470587,
				"element": "C" 
			},
			{
				"x": 0.8582084076,
				"y": 0.1624426142,
				"z": 1.235911816,
				"element": "C" 
			},
			{
				"x": 0.2161551912,
				"y": 1.3677353978,
				"z": 1.2347863534,
				"element": "C" 
			},
			{
				"x": -1.1361416208,
				"y": 1.1634455985,
				"z": 0.8048201216,
				"element": "C" 
			},
			{
				"x": -2.0685704522,
				"y": 2.28488904,
				"z": 0.6736681096,
				"element": "C" 
			},
			{
				"x": -1.7124418441,
				"y": 3.4398482142,
				"z": 0.8780693796,
				"element": "O" 
			},
			{
				"x": -3.5249132991,
				"y": 2.0615858529,
				"z": 0.2500678657,
				"element": "C" 
			},
			{
				"x": -4.5346757919,
				"y": 1.462124004,
				"z": 1.6425294297,
				"element": "Cl" 
			},
			{
				"x": -1.2900195838,
				"y": -0.2017256657,
				"z": 0.5419571498,
				"element": "C" 
			},
			{
				"x": -2.45570689,
				"y": -1.0136566849,
				"z": 0.0639449326,
				"element": "C" 
			},
			{
				"x": -0.0709778104,
				"y": -0.7974694082,
				"z": 0.8064210104,
				"element": "N" 
			},
			{
				"x": 0.2256035794,
				"y": -2.1905613107,
				"z": 0.6665461549,
				"element": "C" 
			},
			{
				"x": 0.5255597734,
				"y": -2.7071078725,
				"z": -0.5981634373,
				"element": "C" 
			},
			{
				"x": 0.8247211227,
				"y": -4.0625131709,
				"z": -0.7201445949,
				"element": "C" 
			},
			{
				"x": 1.2303350631,
				"y": -4.7750949103,
				"z": -2.4442524519,
				"element": "Br" 
			},
			{
				"x": 0.8370780576,
				"y": -4.9052503351,
				"z": 0.3908634423,
				"element": "C" 
			},
			{
				"x": 0.5394781878,
				"y": -4.373742577,
				"z": 1.6465956315,
				"element": "C" 
			},
			{
				"x": 0.2314715333,
				"y": -3.0207842242,
				"z": 1.7912684606,
				"element": "C" 
			},
			{
				"x": 2.3316178673,
				"y": -0.878145258,
				"z": 2.4363783166,
				"element": "H" 
			},
			{
				"x": 2.810618354,
				"y": 0.7185097333,
				"z": 1.8466834124,
				"element": "H" 
			},
			{
				"x": 2.7943026578,
				"y": -0.6677354373,
				"z": 0.7472167729,
				"element": "H" 
			},
			{
				"x": 0.6367951499,
				"y": 2.3245452849,
				"z": 1.5059912089,
				"element": "H" 
			},
			{
				"x": -3.9399750245,
				"y": 3.0245218448,
				"z": -0.0414137593,
				"element": "H" 
			},
			{
				"x": -3.6357294876,
				"y": 1.3338984278,
				"z": -0.5543776701,
				"element": "H" 
			},
			{
				"x": -2.2909179188,
				"y": -2.0776346213,
				"z": 0.2466226357,
				"element": "H" 
			},
			{
				"x": -3.3729740436,
				"y": -0.727460281,
				"z": 0.5828156895,
				"element": "H" 
			},
			{
				"x": -2.6252508503,
				"y": -0.8947022499,
				"z": -1.0140006497,
				"element": "H" 
			},
			{
				"x": 0.525851694,
				"y": -2.0559702189,
				"z": -1.4643031314,
				"element": "H" 
			},
			{
				"x": 1.0739422177,
				"y": -5.9564419248,
				"z": 0.2744955189,
				"element": "H" 
			},
			{
				"x": 0.5441633254,
				"y": -5.0233466899,
				"z": 2.5163626648,
				"element": "H" 
			},
			{
				"x": -0.0101578283,
				"y": -2.6028640494,
				"z": 2.7628690302,
				"element": "H" 
			}
		],
		 "valence_orbital": [ 
			{
				"type": "occ",
				"energy": -0.28566,
				"method": "rhf"
			},
			{
				"type": "occ",
				"energy": -0.26317,
				"method": "rhf"
			},
			{
				"type": "occ",
				"energy": -0.24804,
				"method": "rhf"
			},
			{
				"type": "occ",
				"energy": -0.24256,
				"method": "rhf"
			},
			{
				"type": "occ",
				"energy": -0.21373,
				"method": "rhf"
			},
			{
				"type": "unocc",
				"energy": -0.04655,
				"method": "rhf"
			},
			{
				"type": "unocc",
				"energy": -0.03946,
				"method": "rhf"
			},
			{
				"type": "unocc",
				"energy": -0.03636,
				"method": "rhf"
			},
			{
				"type": "unocc",
				"energy": -0.00988,
				"method": "rhf"
			},
			{
				"type": "unocc",
				"energy": 0.02246,
				"method": "rhf"
			}
		],
		"cosmo_sigma_profile": { 
			"-0.025": 0.0,
			"-0.024": 0.0,
			"-0.023": 0.0,
			"-0.022": 0.0,
			"-0.021": 0.0,
			"-0.02": 0.0,
			"-0.019": 0.0,
			"-0.018": 0.0,
			"-0.017": 0.0,
			"-0.016": 0.0,
			"-0.015": 0.0,
			"-0.014": 0.0,
			"-0.013": 0.0,
			"-0.012": 0.0,
			"-0.011": 0.0,
			"-0.01": 0.0,
			"-0.009": 0.00987308362137,
			"-0.008": 5.13474480962,
			"-0.007": 12.4389354254,
			"-0.006": 13.9143957557,
			"-0.005": 19.2902905286,
			"-0.004": 24.011171282,
			"-0.003": 25.3197833473,
			"-0.002": 26.112745716,
			"-0.001": 28.7141870998,
			"0.0": 22.624003685,
			"0.001": 23.951239004,
			"0.002": 25.3229664743,
			"0.003": 21.7357828331,
			"0.004": 22.9629640424,
			"0.005": 16.8839584214,
			"0.006": 10.2630176135,
			"0.007": 1.90914511597,
			"0.008": 1.77850953471,
			"0.009": 1.92634856485,
			"0.01": 1.50691260057,
			"0.011": 2.69966150094,
			"0.012": 4.54106294318,
			"0.013": 2.64062109038,
			"0.014": 0.198319294834,
			"0.015": 0.0,
			"0.016": 0.0,
			"0.017": 0.0,
			"0.018": 0.0,
			"0.019": 0.0,
			"0.02": 0.0,
			"0.021": 0.0,
			"0.022": 0.0,
			"0.023": 0.0,
			"0.024": 0.0,
			"0.025": 0.0
		}
	}
}
