{
	 "smiles": "FC1=CC2=C(CCCC2=O)C=C1", 
	 "Tm": 330.15, 
	 "num_atms": 21, 
	 "gaussian": { 
		 "optdone": 1, 
		 "sigma_profile": "yes", 
		 "theory": "DFT", 
		 "functional": "B3LYP", 
		 "basiset": "6-31G**", 
		 "properties": { 
			 "R2extent": 2365.788, 
			 "electric_dipole_moment_norm": 4.0141054022, 
			 "electric_quadrupole_moment_norm": 4.55301562703, 
			 "total_energy": -561.561401564, 
			 "HOMO_LUMO_gap": 0.18458, 
			 "cosmo_polarized_energy": -8.04, 
			 "cosmo_cavitation_energy": 24.38, 
			 "cosmo_dispersion_energy": -18.14, 
			 "cosmo_repulsion_energy": 1.41, 
			 "cosmo_total_nonelectrostatic_energy": 7.65, 
			 "SMD_solvation_energy": 4.61 
		},
		"coords": [
			{
				"x": -1.869844773,
				"y": -2.7766056666,
				"z": 1.3614448516,
				"element": "F" 
			},
			{
				"x": -1.7011245121,
				"y": -1.7138820757,
				"z": 0.5475210137,
				"element": "C" 
			},
			{
				"x": -0.9515394234,
				"y": -0.6358149411,
				"z": 0.9800311529,
				"element": "C" 
			},
			{
				"x": -0.785497806,
				"y": 0.4650233436,
				"z": 0.1258705547,
				"element": "C" 
			},
			{
				"x": -1.3675583016,
				"y": 0.474310694,
				"z": -1.1585946841,
				"element": "C" 
			},
			{
				"x": -1.1967680398,
				"y": 1.6657211999,
				"z": -2.0782920415,
				"element": "C" 
			},
			{
				"x": 0.0975773282,
				"y": 2.4347518727,
				"z": -1.7867188934,
				"element": "C" 
			},
			{
				"x": 0.1664067293,
				"y": 2.8189820289,
				"z": -0.3039768338,
				"element": "C" 
			},
			{
				"x": 0.028470365,
				"y": 1.6190161172,
				"z": 0.6228141,
				"element": "C" 
			},
			{
				"x": 0.5430925709,
				"y": 1.6068856755,
				"z": 1.7304905222,
				"element": "O" 
			},
			{
				"x": -2.1151045482,
				"y": -0.6414162337,
				"z": -1.5585329311,
				"element": "C" 
			},
			{
				"x": -2.289737404,
				"y": -1.7365632222,
				"z": -0.7159032922,
				"element": "C" 
			},
			{
				"x": -0.4930549677,
				"y": -0.6239144277,
				"z": 1.9623298192,
				"element": "H" 
			},
			{
				"x": -2.0527513754,
				"y": 2.3462034416,
				"z": -1.9521698286,
				"element": "H" 
			},
			{
				"x": -1.2242723486,
				"y": 1.3336531374,
				"z": -3.1220303637,
				"element": "H" 
			},
			{
				"x": 0.157143091,
				"y": 3.3306470903,
				"z": -2.4137398677,
				"element": "H" 
			},
			{
				"x": 0.9605472761,
				"y": 1.8077585845,
				"z": -2.0443681995,
				"element": "H" 
			},
			{
				"x": 1.0922633691,
				"y": 3.3387802661,
				"z": -0.0428193513,
				"element": "H" 
			},
			{
				"x": -0.6604656829,
				"y": 3.504982552,
				"z": -0.0638481542,
				"element": "H" 
			},
			{
				"x": -2.5641444575,
				"y": -0.6556820582,
				"z": -2.5482019313,
				"element": "H" 
			},
			{
				"x": -2.8646370895,
				"y": -2.6041373785,
				"z": -1.0222056418,
				"element": "H" 
			}
		],
		 "valence_orbital": [ 
			{
				"type": "occ",
				"energy": -0.34402,
				"method": "rhf"
			},
			{
				"type": "occ",
				"energy": -0.33943,
				"method": "rhf"
			},
			{
				"type": "occ",
				"energy": -0.266,
				"method": "rhf"
			},
			{
				"type": "occ",
				"energy": -0.24804,
				"method": "rhf"
			},
			{
				"type": "occ",
				"energy": -0.24497,
				"method": "rhf"
			},
			{
				"type": "unocc",
				"energy": -0.06039,
				"method": "rhf"
			},
			{
				"type": "unocc",
				"energy": -0.00933,
				"method": "rhf"
			},
			{
				"type": "unocc",
				"energy": 0.03743,
				"method": "rhf"
			},
			{
				"type": "unocc",
				"energy": 0.08529,
				"method": "rhf"
			},
			{
				"type": "unocc",
				"energy": 0.09726,
				"method": "rhf"
			}
		],
		"cosmo_sigma_profile": { 
			"-0.025": 0.0,
			"-0.024": 0.0,
			"-0.023": 0.0,
			"-0.022": 0.0,
			"-0.021": 0.0,
			"-0.02": 0.0,
			"-0.019": 0.0,
			"-0.018": 0.0,
			"-0.017": 0.0,
			"-0.016": 0.0,
			"-0.015": 0.0,
			"-0.014": 0.0,
			"-0.013": 0.0,
			"-0.012": 0.0,
			"-0.011": 0.0,
			"-0.01": 0.0,
			"-0.009": 0.0,
			"-0.008": 0.765540011516,
			"-0.007": 2.94664210566,
			"-0.006": 7.35098643792,
			"-0.005": 12.9929469556,
			"-0.004": 19.6083361311,
			"-0.003": 19.7677871457,
			"-0.002": 20.8466173073,
			"-0.001": 17.1128408928,
			"0.0": 14.9206165256,
			"0.001": 14.0580983011,
			"0.002": 16.6143279882,
			"0.003": 12.4175638314,
			"0.004": 11.996651099,
			"0.005": 4.90409387285,
			"0.006": 1.93831663024,
			"0.007": 1.42196074809,
			"0.008": 1.29266905679,
			"0.009": 1.36438031607,
			"0.01": 2.44527417834,
			"0.011": 2.66776165451,
			"0.012": 4.18032069134,
			"0.013": 1.83887997423,
			"0.014": 0.242847909562,
			"0.015": 0.0,
			"0.016": 0.0,
			"0.017": 0.0,
			"0.018": 0.0,
			"0.019": 0.0,
			"0.02": 0.0,
			"0.021": 0.0,
			"0.022": 0.0,
			"0.023": 0.0,
			"0.024": 0.0,
			"0.025": 0.0
		}
	}
}
