{
	 "smiles": "CCSC1=NC=CC=C1C(=O)NC(CCSC)C(O)=O", 
	 "Tm": 395.15, 
	 "num_atms": 38, 
	 "gaussian": { 
		 "optdone": 1, 
		 "sigma_profile": "yes", 
		 "theory": "DFT", 
		 "functional": "B3LYP", 
		 "basiset": "6-31G**", 
		 "properties": { 
			 "R2extent": 8106.4328, 
			 "electric_dipole_moment_norm": 2.03654676843, 
			 "electric_quadrupole_moment_norm": 24.6610564386, 
			 "total_energy": -1637.80639046, 
			 "HOMO_LUMO_gap": 0.18361, 
			 "cosmo_polarized_energy": -21.42, 
			 "cosmo_cavitation_energy": 44.31, 
			 "cosmo_dispersion_energy": -29.89, 
			 "cosmo_repulsion_energy": 2.3, 
			 "cosmo_total_nonelectrostatic_energy": 16.72, 
			 "SMD_solvation_energy": 8.6 
		},
		"coords": [
			{
				"x": -1.3199697728,
				"y": -4.0884505755,
				"z": 0.9830804649,
				"element": "C" 
			},
			{
				"x": -1.5444629485,
				"y": -3.0416998692,
				"z": -0.1049826105,
				"element": "C" 
			},
			{
				"x": -0.3077926784,
				"y": -1.6823744736,
				"z": -0.1044467806,
				"element": "S" 
			},
			{
				"x": -0.9166488834,
				"y": -0.6258507861,
				"z": 1.2045796216,
				"element": "C" 
			},
			{
				"x": -2.0634357394,
				"y": -0.9658406218,
				"z": 1.7992445686,
				"element": "N" 
			},
			{
				"x": -2.5244598135,
				"y": -0.2051363062,
				"z": 2.7988164339,
				"element": "C" 
			},
			{
				"x": -1.8565441527,
				"y": 0.9181621219,
				"z": 3.2769406895,
				"element": "C" 
			},
			{
				"x": -0.6541363551,
				"y": 1.2648793108,
				"z": 2.6634821886,
				"element": "C" 
			},
			{
				"x": -0.1717920009,
				"y": 0.5167676686,
				"z": 1.5879038905,
				"element": "C" 
			},
			{
				"x": 1.1777417092,
				"y": 0.90478424,
				"z": 1.0291043897,
				"element": "C" 
			},
			{
				"x": 2.1574638383,
				"y": 0.9442226598,
				"z": 1.764324528,
				"element": "O" 
			},
			{
				"x": 1.2656578035,
				"y": 1.2272012816,
				"z": -0.2994897078,
				"element": "N" 
			},
			{
				"x": 0.1887078875,
				"y": 1.5864925214,
				"z": -1.2050716113,
				"element": "C" 
			},
			{
				"x": -0.2429756524,
				"y": 3.0747527894,
				"z": -1.1194811267,
				"element": "C" 
			},
			{
				"x": 0.896804057,
				"y": 4.0925821814,
				"z": -1.0191811343,
				"element": "C" 
			},
			{
				"x": 2.0001323134,
				"y": 4.076470256,
				"z": -2.4912111493,
				"element": "S" 
			},
			{
				"x": 3.349583343,
				"y": 5.1268899454,
				"z": -1.8521176707,
				"element": "C" 
			},
			{
				"x": 0.4919462848,
				"y": 1.1812977963,
				"z": -2.6498732248,
				"element": "C" 
			},
			{
				"x": 1.5557707378,
				"y": 0.3642835028,
				"z": -2.7709092386,
				"element": "O" 
			},
			{
				"x": -0.1892553628,
				"y": 1.5313011362,
				"z": -3.5882803009,
				"element": "O" 
			},
			{
				"x": -1.4283822124,
				"y": -3.6413988571,
				"z": 1.9735680801,
				"element": "H" 
			},
			{
				"x": -2.0632058615,
				"y": -4.8886666486,
				"z": 0.8868394367,
				"element": "H" 
			},
			{
				"x": -0.324482489,
				"y": -4.5350578684,
				"z": 0.908106426,
				"element": "H" 
			},
			{
				"x": -1.4459982313,
				"y": -3.4752448412,
				"z": -1.104932942,
				"element": "H" 
			},
			{
				"x": -2.5318367438,
				"y": -2.5852491682,
				"z": -0.0194005184,
				"element": "H" 
			},
			{
				"x": -3.4680289101,
				"y": -0.5222978946,
				"z": 3.2389731384,
				"element": "H" 
			},
			{
				"x": -2.2556417191,
				"y": 1.4921104161,
				"z": 4.1061547846,
				"element": "H" 
			},
			{
				"x": -0.0719394145,
				"y": 2.1118771299,
				"z": 3.0138798442,
				"element": "H" 
			},
			{
				"x": 2.208418248,
				"y": 1.444364385,
				"z": -0.6007677867,
				"element": "H" 
			},
			{
				"x": -0.6873517765,
				"y": 0.9829944693,
				"z": -0.9481280827,
				"element": "H" 
			},
			{
				"x": -0.8592957377,
				"y": 3.1913420937,
				"z": -0.2204672331,
				"element": "H" 
			},
			{
				"x": -0.882332293,
				"y": 3.285671172,
				"z": -1.9814257149,
				"element": "H" 
			},
			{
				"x": 1.5085427082,
				"y": 3.8826200783,
				"z": -0.1353102998,
				"element": "H" 
			},
			{
				"x": 0.4727765508,
				"y": 5.0952841648,
				"z": -0.9041830477,
				"element": "H" 
			},
			{
				"x": 2.9901142407,
				"y": 6.1334006174,
				"z": -1.621868626,
				"element": "H" 
			},
			{
				"x": 4.1007604596,
				"y": 5.194910791,
				"z": -2.6418414283,
				"element": "H" 
			},
			{
				"x": 3.8095068107,
				"y": 4.6867474818,
				"z": -0.9631185339,
				"element": "H" 
			},
			{
				"x": 1.6382417561,
				"y": 0.1713576997,
				"z": -3.7201097162,
				"element": "H" 
			}
		],
		 "valence_orbital": [ 
			{
				"type": "occ",
				"energy": -0.27334,
				"method": "rhf"
			},
			{
				"type": "occ",
				"energy": -0.25736,
				"method": "rhf"
			},
			{
				"type": "occ",
				"energy": -0.24669,
				"method": "rhf"
			},
			{
				"type": "occ",
				"energy": -0.22697,
				"method": "rhf"
			},
			{
				"type": "occ",
				"energy": -0.22318,
				"method": "rhf"
			},
			{
				"type": "unocc",
				"energy": -0.03957,
				"method": "rhf"
			},
			{
				"type": "unocc",
				"energy": -0.02731,
				"method": "rhf"
			},
			{
				"type": "unocc",
				"energy": 0.00046,
				"method": "rhf"
			},
			{
				"type": "unocc",
				"energy": 0.02034,
				"method": "rhf"
			},
			{
				"type": "unocc",
				"energy": 0.03801,
				"method": "rhf"
			}
		],
		"cosmo_sigma_profile": { 
			"-0.025": 0.0,
			"-0.024": 0.0,
			"-0.023": 0.0,
			"-0.022": 0.0,
			"-0.021": 0.0,
			"-0.02": 0.0,
			"-0.019": 0.364223271513,
			"-0.018": 1.00596677437,
			"-0.017": 0.823866269357,
			"-0.016": 0.695376180315,
			"-0.015": 0.809434185825,
			"-0.014": 0.796205097698,
			"-0.013": 0.600212317272,
			"-0.012": 0.969004686341,
			"-0.011": 1.27957028074,
			"-0.01": 1.17921287753,
			"-0.009": 0.785059513972,
			"-0.008": 1.97954063181,
			"-0.007": 9.43462656893,
			"-0.006": 16.729095244,
			"-0.005": 26.3308510457,
			"-0.004": 32.275004604,
			"-0.003": 32.3533551254,
			"-0.002": 33.9829188692,
			"-0.001": 25.388048258,
			"0.0": 21.1442780854,
			"0.001": 24.7670016504,
			"0.002": 20.8052847195,
			"0.003": 13.6229577814,
			"0.004": 11.5995935853,
			"0.005": 11.9440165545,
			"0.006": 11.8311212149,
			"0.007": 10.2636732068,
			"0.008": 8.22022606346,
			"0.009": 5.57584702443,
			"0.01": 4.80211226632,
			"0.011": 7.14934458319,
			"0.012": 5.55984033657,
			"0.013": 5.37468380616,
			"0.014": 1.9801043091,
			"0.015": 0.0165073384439,
			"0.016": 0.0,
			"0.017": 0.0,
			"0.018": 0.0,
			"0.019": 0.0,
			"0.02": 0.0,
			"0.021": 0.0,
			"0.022": 0.0,
			"0.023": 0.0,
			"0.024": 0.0,
			"0.025": 0.0
		}
	}
}
