{
	 "smiles": "COC1=CC(=CC=C1)C1=NN=NN1", 
	 "Tm": 455.15, 
	 "num_atms": 21, 
	 "gaussian": { 
		 "optdone": 1, 
		 "sigma_profile": "yes", 
		 "theory": "DFT", 
		 "functional": "B3LYP", 
		 "basiset": "6-31G**", 
		 "properties": { 
			 "R2extent": 3159.1531, 
			 "electric_dipole_moment_norm": 6.22798909681, 
			 "electric_quadrupole_moment_norm": 19.4009589773, 
			 "total_energy": -603.837535481, 
			 "HOMO_LUMO_gap": 0.18105, 
			 "cosmo_polarized_energy": -19.68, 
			 "cosmo_cavitation_energy": 25.91, 
			 "cosmo_dispersion_energy": -19.23, 
			 "cosmo_repulsion_energy": 1.5, 
			 "cosmo_total_nonelectrostatic_energy": 8.18, 
			 "SMD_solvation_energy": 3.43 
		},
		"coords": [
			{
				"x": 4.0982743659,
				"y": -0.4860947251,
				"z": -1.4672035929,
				"element": "C" 
			},
			{
				"x": 3.703358718,
				"y": -1.1083987868,
				"z": -0.2548094977,
				"element": "O" 
			},
			{
				"x": 2.3738281914,
				"y": -1.2048543962,
				"z": 0.0265489355,
				"element": "C" 
			},
			{
				"x": 1.3518276139,
				"y": -0.7314858632,
				"z": -0.8007561734,
				"element": "C" 
			},
			{
				"x": 0.0091829451,
				"y": -0.8829839568,
				"z": -0.4081119744,
				"element": "C" 
			},
			{
				"x": -0.3052221439,
				"y": -1.4989901071,
				"z": 0.8082698028,
				"element": "C" 
			},
			{
				"x": 0.7257120641,
				"y": -1.9659062871,
				"z": 1.6251974449,
				"element": "C" 
			},
			{
				"x": 2.0549464487,
				"y": -1.8261310608,
				"z": 1.2445833878,
				"element": "C" 
			},
			{
				"x": -1.0858081623,
				"y": -0.4031870126,
				"z": -1.2538884813,
				"element": "C" 
			},
			{
				"x": -2.3669004442,
				"y": -0.3332145537,
				"z": -0.9159103191,
				"element": "N" 
			},
			{
				"x": -3.0273637903,
				"y": 0.1593830594,
				"z": -1.9935259607,
				"element": "N" 
			},
			{
				"x": -2.2186454266,
				"y": 0.3952456471,
				"z": -2.9743941009,
				"element": "N" 
			},
			{
				"x": -0.9885796424,
				"y": 0.0485105375,
				"z": -2.5273908386,
				"element": "N" 
			},
			{
				"x": 3.7732051108,
				"y": 0.5616507808,
				"z": -1.5094581478,
				"element": "H" 
			},
			{
				"x": 5.1882412836,
				"y": -0.5225450671,
				"z": -1.4831792052,
				"element": "H" 
			},
			{
				"x": 3.7082690613,
				"y": -1.0213071872,
				"z": -2.3429454565,
				"element": "H" 
			},
			{
				"x": 1.5960892508,
				"y": -0.2334093955,
				"z": -1.7316610854,
				"element": "H" 
			},
			{
				"x": -1.3450862121,
				"y": -1.6037111874,
				"z": 1.0943483438,
				"element": "H" 
			},
			{
				"x": 0.4877389635,
				"y": -2.4458745414,
				"z": 2.5695532154,
				"element": "H" 
			},
			{
				"x": 2.8669081009,
				"y": -2.1838729576,
				"z": 1.86879849,
				"element": "H" 
			},
			{
				"x": -0.1931762961,
				"y": 0.1220770607,
				"z": -3.1432647864,
				"element": "H" 
			}
		],
		 "valence_orbital": [ 
			{
				"type": "occ",
				"energy": -0.30811,
				"method": "rhf"
			},
			{
				"type": "occ",
				"energy": -0.29683,
				"method": "rhf"
			},
			{
				"type": "occ",
				"energy": -0.28186,
				"method": "rhf"
			},
			{
				"type": "occ",
				"energy": -0.26182,
				"method": "rhf"
			},
			{
				"type": "occ",
				"energy": -0.2357,
				"method": "rhf"
			},
			{
				"type": "unocc",
				"energy": -0.05465,
				"method": "rhf"
			},
			{
				"type": "unocc",
				"energy": -0.00932,
				"method": "rhf"
			},
			{
				"type": "unocc",
				"energy": 0.00146,
				"method": "rhf"
			},
			{
				"type": "unocc",
				"energy": 0.04055,
				"method": "rhf"
			},
			{
				"type": "unocc",
				"energy": 0.05684,
				"method": "rhf"
			}
		],
		"cosmo_sigma_profile": { 
			"-0.025": 0.0,
			"-0.024": 0.0,
			"-0.023": 0.0,
			"-0.022": 0.0,
			"-0.021": 0.0,
			"-0.02": 0.0,
			"-0.019": 0.856574384796,
			"-0.018": 1.82653057212,
			"-0.017": 1.86915269248,
			"-0.016": 1.19712979603,
			"-0.015": 1.46431678237,
			"-0.014": 1.17554169324,
			"-0.013": 0.893068616784,
			"-0.012": 0.470908925145,
			"-0.011": 1.42182589929,
			"-0.01": 1.65078751297,
			"-0.009": 1.53115158088,
			"-0.008": 1.19572480051,
			"-0.007": 4.33309476472,
			"-0.006": 12.1372211123,
			"-0.005": 15.3691107072,
			"-0.004": 16.4445107055,
			"-0.003": 16.0957941887,
			"-0.002": 11.7871438649,
			"-0.001": 9.28543507763,
			"0.0": 9.06136593706,
			"0.001": 10.0294240063,
			"0.002": 15.4670561104,
			"0.003": 16.375413529,
			"0.004": 11.0188516851,
			"0.005": 4.32532422241,
			"0.006": 4.82208189285,
			"0.007": 5.78615508034,
			"0.008": 6.13410324738,
			"0.009": 6.16788665281,
			"0.01": 5.38163059774,
			"0.011": 4.72626074925,
			"0.012": 3.86960862596,
			"0.013": 2.22220683129,
			"0.014": 1.6142725405,
			"0.015": 0.0537992439429,
			"0.016": 0.0,
			"0.017": 0.0,
			"0.018": 0.0,
			"0.019": 0.0,
			"0.02": 0.0,
			"0.021": 0.0,
			"0.022": 0.0,
			"0.023": 0.0,
			"0.024": 0.0,
			"0.025": 0.0
		}
	}
}
