{
	 "smiles": "CC1(C)CC(NC(=O)NP(=O)(N2CC2)N2CC2)C(C)(C)N1O", 
	 "Tm": 450.15, 
	 "num_atms": 48, 
	 "gaussian": { 
		 "optdone": 1, 
		 "sigma_profile": "yes", 
		 "theory": "DFT", 
		 "functional": "B3LYP", 
		 "basiset": "6-31G**", 
		 "properties": { 
			 "R2extent": 7888.7492, 
			 "electric_dipole_moment_norm": 3.9288726042, 
			 "electric_quadrupole_moment_norm": 20.5466619462, 
			 "total_energy": -1351.77635835, 
			 "HOMO_LUMO_gap": 0.25243, 
			 "cosmo_polarized_energy": -21.24, 
			 "cosmo_cavitation_energy": 48.67, 
			 "cosmo_dispersion_energy": -30.08, 
			 "cosmo_repulsion_energy": 2.24, 
			 "cosmo_total_nonelectrostatic_energy": 20.82, 
			 "SMD_solvation_energy": 8.57 
		},
		"coords": [
			{
				"x": -3.5325145753,
				"y": -1.0819159695,
				"z": -0.9469575821,
				"element": "C" 
			},
			{
				"x": -2.5482941614,
				"y": 0.0975460632,
				"z": -0.8479881837,
				"element": "C" 
			},
			{
				"x": -3.171676682,
				"y": 1.323575978,
				"z": -1.5373189794,
				"element": "C" 
			},
			{
				"x": -1.1462190505,
				"y": -0.2576167578,
				"z": -1.4247213193,
				"element": "C" 
			},
			{
				"x": -0.113633219,
				"y": 0.0760334254,
				"z": -0.3126629096,
				"element": "C" 
			},
			{
				"x": 0.3647072268,
				"y": 1.4567082042,
				"z": -0.4001292571,
				"element": "N" 
			},
			{
				"x": 1.3569011401,
				"y": 1.9666455809,
				"z": -1.1865694808,
				"element": "C" 
			},
			{
				"x": 1.3624924516,
				"y": 3.1314652494,
				"z": -1.5645083973,
				"element": "O" 
			},
			{
				"x": 2.4236219593,
				"y": 1.1125788399,
				"z": -1.5898492232,
				"element": "N" 
			},
			{
				"x": 3.4427462821,
				"y": 0.0321348604,
				"z": -0.7690796444,
				"element": "P" 
			},
			{
				"x": 4.8484669229,
				"y": 0.1710824707,
				"z": -1.25611561,
				"element": "O" 
			},
			{
				"x": 3.1426417727,
				"y": 0.3018526637,
				"z": 0.8757897137,
				"element": "N" 
			},
			{
				"x": 4.1940059716,
				"y": -0.0383325134,
				"z": 1.8524910058,
				"element": "C" 
			},
			{
				"x": 3.8868230373,
				"y": 1.3819621394,
				"z": 1.5475812821,
				"element": "C" 
			},
			{
				"x": 2.7446800032,
				"y": -1.5052549308,
				"z": -0.9797518073,
				"element": "N" 
			},
			{
				"x": 3.1158102818,
				"y": -2.266558925,
				"z": -2.1850741841,
				"element": "C" 
			},
			{
				"x": 3.6111500866,
				"y": -2.692180854,
				"z": -0.8519505184,
				"element": "C" 
			},
			{
				"x": -0.930354505,
				"y": -0.1380604827,
				"z": 0.9878720477,
				"element": "C" 
			},
			{
				"x": -0.3940341096,
				"y": 0.6022986846,
				"z": 2.218249781,
				"element": "C" 
			},
			{
				"x": -1.0288123424,
				"y": -1.6420234552,
				"z": 1.3257182661,
				"element": "C" 
			},
			{
				"x": -2.2053176356,
				"y": 0.4914113456,
				"z": 0.5567123094,
				"element": "N" 
			},
			{
				"x": -3.268809437,
				"y": 0.1859985717,
				"z": 1.467010029,
				"element": "O" 
			},
			{
				"x": -3.1592693563,
				"y": -1.9771241769,
				"z": -0.4452975959,
				"element": "H" 
			},
			{
				"x": -4.4938170126,
				"y": -0.8239236129,
				"z": -0.4973695479,
				"element": "H" 
			},
			{
				"x": -3.6987665546,
				"y": -1.3280005636,
				"z": -2.0012893769,
				"element": "H" 
			},
			{
				"x": -3.4417363664,
				"y": 1.0972928417,
				"z": -2.5746043546,
				"element": "H" 
			},
			{
				"x": -2.4787879035,
				"y": 2.1701728008,
				"z": -1.5418711795,
				"element": "H" 
			},
			{
				"x": -4.082238768,
				"y": 1.6310002136,
				"z": -1.0115180778,
				"element": "H" 
			},
			{
				"x": -1.0952990539,
				"y": -1.3234126431,
				"z": -1.6672252292,
				"element": "H" 
			},
			{
				"x": -0.9226958279,
				"y": 0.2919370609,
				"z": -2.3429079661,
				"element": "H" 
			},
			{
				"x": 0.7407277093,
				"y": -0.5961509672,
				"z": -0.3471987441,
				"element": "H" 
			},
			{
				"x": -0.3441585808,
				"y": 2.1589967179,
				"z": -0.2282952689,
				"element": "H" 
			},
			{
				"x": 2.9877826301,
				"y": 1.6411709182,
				"z": -2.2494494358,
				"element": "H" 
			},
			{
				"x": 5.1353187126,
				"y": -0.4293434901,
				"z": 1.4726158911,
				"element": "H" 
			},
			{
				"x": 3.8275061541,
				"y": -0.4954953285,
				"z": 2.7675565165,
				"element": "H" 
			},
			{
				"x": 4.6226471191,
				"y": 1.9328610062,
				"z": 0.965885797,
				"element": "H" 
			},
			{
				"x": 3.288620018,
				"y": 1.9743059928,
				"z": 2.2340249486,
				"element": "H" 
			},
			{
				"x": 2.2897281076,
				"y": -2.7921076378,
				"z": -2.6562353154,
				"element": "H" 
			},
			{
				"x": 3.8426638767,
				"y": -1.8233786648,
				"z": -2.8620007193,
				"element": "H" 
			},
			{
				"x": 4.6674069334,
				"y": -2.5316983238,
				"z": -0.6484243751,
				"element": "H" 
			},
			{
				"x": 3.1517790842,
				"y": -3.5317678018,
				"z": -0.337224996,
				"element": "H" 
			},
			{
				"x": 0.6271443547,
				"y": 0.2797014277,
				"z": 2.4387137691,
				"element": "H" 
			},
			{
				"x": -1.0271408521,
				"y": 0.3821630835,
				"z": 3.0837095159,
				"element": "H" 
			},
			{
				"x": -0.3854505618,
				"y": 1.6834186254,
				"z": 2.0654696519,
				"element": "H" 
			},
			{
				"x": -1.840621573,
				"y": -1.8074048179,
				"z": 2.0383183334,
				"element": "H" 
			},
			{
				"x": -0.0928668518,
				"y": -1.980523833,
				"z": 1.7810258196,
				"element": "H" 
			},
			{
				"x": -1.2109487222,
				"y": -2.2650575679,
				"z": 0.44732603,
				"element": "H" 
			},
			{
				"x": -3.5080081329,
				"y": 1.0546185518,
				"z": 1.8161185711,
				"element": "H" 
			}
		],
		 "valence_orbital": [ 
			{
				"type": "occ",
				"energy": -0.26687,
				"method": "rhf"
			},
			{
				"type": "occ",
				"energy": -0.25745,
				"method": "rhf"
			},
			{
				"type": "occ",
				"energy": -0.25491,
				"method": "rhf"
			},
			{
				"type": "occ",
				"energy": -0.23954,
				"method": "rhf"
			},
			{
				"type": "occ",
				"energy": -0.21698,
				"method": "rhf"
			},
			{
				"type": "unocc",
				"energy": 0.03545,
				"method": "rhf"
			},
			{
				"type": "unocc",
				"energy": 0.06176,
				"method": "rhf"
			},
			{
				"type": "unocc",
				"energy": 0.06692,
				"method": "rhf"
			},
			{
				"type": "unocc",
				"energy": 0.0705,
				"method": "rhf"
			},
			{
				"type": "unocc",
				"energy": 0.07801,
				"method": "rhf"
			}
		],
		"cosmo_sigma_profile": { 
			"-0.025": 0.0,
			"-0.024": 0.0,
			"-0.023": 0.0,
			"-0.022": 0.0,
			"-0.021": 0.0,
			"-0.02": 0.0,
			"-0.019": 0.0,
			"-0.018": 0.0,
			"-0.017": 0.0,
			"-0.016": 0.256358193933,
			"-0.015": 1.00334112626,
			"-0.014": 0.713512172336,
			"-0.013": 1.65840732953,
			"-0.012": 1.53820722237,
			"-0.011": 0.898369546294,
			"-0.01": 0.582302470729,
			"-0.009": 2.24233567407,
			"-0.008": 2.37833278275,
			"-0.007": 7.05952070972,
			"-0.006": 17.160498958,
			"-0.005": 20.890764953,
			"-0.004": 26.4721115934,
			"-0.003": 38.2756318451,
			"-0.002": 41.1091549153,
			"-0.001": 38.9713857005,
			"0.0": 38.6173687403,
			"0.001": 35.5369076568,
			"0.002": 19.3838350581,
			"0.003": 11.808874979,
			"0.004": 9.96828557824,
			"0.005": 8.54807747083,
			"0.006": 6.70743905596,
			"0.007": 8.32659708445,
			"0.008": 4.67895053535,
			"0.009": 3.06443933759,
			"0.01": 4.08245826646,
			"0.011": 3.88420884452,
			"0.012": 3.1084715284,
			"0.013": 6.71316532686,
			"0.014": 7.20239726201,
			"0.015": 4.1715562069,
			"0.016": 0.0725131451533,
			"0.017": 0.0,
			"0.018": 0.0,
			"0.019": 0.0,
			"0.02": 0.0,
			"0.021": 0.0,
			"0.022": 0.0,
			"0.023": 0.0,
			"0.024": 0.0,
			"0.025": 0.0
		}
	}
}
