{
	 "smiles": "OCC1=NOC(=C1)C1=CC=CS1", 
	 "Tm": 336.15, 
	 "num_atms": 19, 
	 "gaussian": { 
		 "optdone": 1, 
		 "sigma_profile": "yes", 
		 "theory": "DFT", 
		 "functional": "B3LYP", 
		 "basiset": "6-31G**", 
		 "properties": { 
			 "R2extent": 4112.5582, 
			 "electric_dipole_moment_norm": 4.09374488702, 
			 "electric_quadrupole_moment_norm": 6.07145884199, 
			 "total_energy": -912.378622734, 
			 "HOMO_LUMO_gap": 0.16874, 
			 "cosmo_polarized_energy": -10.3, 
			 "cosmo_cavitation_energy": 25.44, 
			 "cosmo_dispersion_energy": -19.64, 
			 "cosmo_repulsion_energy": 1.52, 
			 "cosmo_total_nonelectrostatic_energy": 7.32, 
			 "SMD_solvation_energy": 4.35 
		},
		"coords": [
			{
				"x": -3.6046770865,
				"y": 1.4383375175,
				"z": 1.9563132405,
				"element": "O" 
			},
			{
				"x": -2.3411400613,
				"y": 1.9982476195,
				"z": 2.2328623301,
				"element": "C" 
			},
			{
				"x": -1.338551062,
				"y": 1.7715041231,
				"z": 1.1318951599,
				"element": "C" 
			},
			{
				"x": -1.7647640449,
				"y": 1.3155311363,
				"z": -0.023859077,
				"element": "N" 
			},
			{
				"x": -0.6412334449,
				"y": 1.2526201429,
				"z": -0.8501842687,
				"element": "O" 
			},
			{
				"x": 0.4425141004,
				"y": 1.6778077655,
				"z": -0.1553083617,
				"element": "C" 
			},
			{
				"x": 0.0605185426,
				"y": 2.025231655,
				"z": 1.1142709944,
				"element": "C" 
			},
			{
				"x": 1.7055733651,
				"y": 1.6726992518,
				"z": -0.8572504773,
				"element": "C" 
			},
			{
				"x": 1.94461401,
				"y": 1.2795113509,
				"z": -2.1559448823,
				"element": "C" 
			},
			{
				"x": 3.3109873169,
				"y": 1.4038895877,
				"z": -2.5313831974,
				"element": "C" 
			},
			{
				"x": 4.0976565981,
				"y": 1.8883051307,
				"z": -1.5207003243,
				"element": "C" 
			},
			{
				"x": 3.1817847243,
				"y": 2.2036053023,
				"z": -0.0844300899,
				"element": "S" 
			},
			{
				"x": -3.703160101,
				"y": 1.4036515902,
				"z": 0.9938673484,
				"element": "H" 
			},
			{
				"x": -1.9680517714,
				"y": 1.5514228999,
				"z": 3.1631167402,
				"element": "H" 
			},
			{
				"x": -2.4105977771,
				"y": 3.0854852191,
				"z": 2.412457214,
				"element": "H" 
			},
			{
				"x": 0.6806264555,
				"y": 2.398523652,
				"z": 1.9149927854,
				"element": "H" 
			},
			{
				"x": 1.1593446346,
				"y": 0.9157503725,
				"z": -2.8071864862,
				"element": "H" 
			},
			{
				"x": 3.6932806271,
				"y": 1.1439218808,
				"z": -3.5115208903,
				"element": "H" 
			},
			{
				"x": 5.1615749746,
				"y": 2.0801538021,
				"z": -1.5301077579,
				"element": "H" 
			}
		],
		 "valence_orbital": [ 
			{
				"type": "occ",
				"energy": -0.30229,
				"method": "rhf"
			},
			{
				"type": "occ",
				"energy": -0.29732,
				"method": "rhf"
			},
			{
				"type": "occ",
				"energy": -0.26868,
				"method": "rhf"
			},
			{
				"type": "occ",
				"energy": -0.26608,
				"method": "rhf"
			},
			{
				"type": "occ",
				"energy": -0.22878,
				"method": "rhf"
			},
			{
				"type": "unocc",
				"energy": -0.06004,
				"method": "rhf"
			},
			{
				"type": "unocc",
				"energy": 0.00996,
				"method": "rhf"
			},
			{
				"type": "unocc",
				"energy": 0.01109,
				"method": "rhf"
			},
			{
				"type": "unocc",
				"energy": 0.04555,
				"method": "rhf"
			},
			{
				"type": "unocc",
				"energy": 0.06816,
				"method": "rhf"
			}
		],
		"cosmo_sigma_profile": { 
			"-0.025": 0.0,
			"-0.024": 0.0,
			"-0.023": 0.0,
			"-0.022": 0.0,
			"-0.021": 0.0,
			"-0.02": 0.0,
			"-0.019": 0.0,
			"-0.018": 0.0,
			"-0.017": 0.0,
			"-0.016": 0.0,
			"-0.015": 0.0,
			"-0.014": 0.0,
			"-0.013": 0.0847231651282,
			"-0.012": 0.438336120872,
			"-0.011": 0.771019375719,
			"-0.01": 0.930914028119,
			"-0.009": 3.04800669446,
			"-0.008": 4.82644960066,
			"-0.007": 9.00676583078,
			"-0.006": 14.3116241834,
			"-0.005": 14.3917934983,
			"-0.004": 12.9484960162,
			"-0.003": 10.1036246342,
			"-0.002": 10.4120934779,
			"-0.001": 9.5480299087,
			"0.0": 17.5595807863,
			"0.001": 19.1671312872,
			"0.002": 19.6924300342,
			"0.003": 17.4777030698,
			"0.004": 9.88793745504,
			"0.005": 4.6530907772,
			"0.006": 3.64903526223,
			"0.007": 5.63695494646,
			"0.008": 4.83520742334,
			"0.009": 2.37575542727,
			"0.01": 2.33074553275,
			"0.011": 2.76137018576,
			"0.012": 1.92012142096,
			"0.013": 2.14317096362,
			"0.014": 1.41789462054,
			"0.015": 0.0,
			"0.016": 0.0,
			"0.017": 0.0,
			"0.018": 0.0,
			"0.019": 0.0,
			"0.02": 0.0,
			"0.021": 0.0,
			"0.022": 0.0,
			"0.023": 0.0,
			"0.024": 0.0,
			"0.025": 0.0
		}
	}
}
