{
	 "smiles": "CC(=O)OC1CCC2C3CC[C@@H]4C(Br)C(=O)CCC4(C)C3CCC12C", 
	 "Tm": 454.15, 
	 "num_atms": 56, 
	 "gaussian": { 
		 "optdone": 1, 
		 "sigma_profile": "yes", 
		 "theory": "DFT", 
		 "functional": "B3LYP", 
		 "basiset": "6-31G**", 
		 "properties": { 
			 "R2extent": 12324.3448, 
			 "electric_dipole_moment_norm": 4.53504253674, 
			 "electric_quadrupole_moment_norm": 24.2095236114, 
			 "total_energy": -3616.02457324, 
			 "HOMO_LUMO_gap": 0.22229, 
			 "cosmo_polarized_energy": -16.75, 
			 "cosmo_cavitation_energy": 51.22, 
			 "cosmo_dispersion_energy": -34.96, 
			 "cosmo_repulsion_energy": 2.6, 
			 "cosmo_total_nonelectrostatic_energy": 18.86, 
			 "SMD_solvation_energy": 7.82 
		},
		"coords": [
			{
				"x": 5.0455178942,
				"y": 0.7606503983,
				"z": -2.5117554229,
				"element": "C" 
			},
			{
				"x": 3.9770893492,
				"y": -0.2112049616,
				"z": -2.9559810005,
				"element": "C" 
			},
			{
				"x": 3.9277529066,
				"y": -0.7503343158,
				"z": -4.0400327635,
				"element": "O" 
			},
			{
				"x": 3.0679160015,
				"y": -0.4043579437,
				"z": -1.9698771897,
				"element": "O" 
			},
			{
				"x": 1.98663095,
				"y": -1.323736425,
				"z": -2.2469838327,
				"element": "C" 
			},
			{
				"x": 0.8173380392,
				"y": -0.6754162572,
				"z": -2.986668778,
				"element": "C" 
			},
			{
				"x": -0.3261672625,
				"y": -1.6481745192,
				"z": -2.6762426497,
				"element": "C" 
			},
			{
				"x": -0.1549247123,
				"y": -1.969106898,
				"z": -1.1672392697,
				"element": "C" 
			},
			{
				"x": -0.9715353799,
				"y": -1.0023938446,
				"z": -0.2758262348,
				"element": "C" 
			},
			{
				"x": -2.4974840941,
				"y": -1.1652243161,
				"z": -0.5203955563,
				"element": "C" 
			},
			{
				"x": -3.3370829468,
				"y": -0.8897687734,
				"z": 0.7387182213,
				"element": "C" 
			},
			{
				"x": -2.7987340774,
				"y": 0.2935363502,
				"z": 1.5555410631,
				"element": "C" 
			},
			{
				"x": -2.8690660648,
				"y": 1.6417397513,
				"z": 0.7965791716,
				"element": "C" 
			},
			{
				"x": -4.6558259719,
				"y": 2.0065305584,
				"z": 0.0313582216,
				"element": "Br" 
			},
			{
				"x": -2.4385022306,
				"y": 2.8138437806,
				"z": 1.6858903843,
				"element": "C" 
			},
			{
				"x": -3.0050205538,
				"y": 3.8820362273,
				"z": 1.7325995169,
				"element": "O" 
			},
			{
				"x": -1.2057935139,
				"y": 2.5103854558,
				"z": 2.5279061142,
				"element": "C" 
			},
			{
				"x": -0.4541910783,
				"y": 1.2574564396,
				"z": 2.0706981897,
				"element": "C" 
			},
			{
				"x": -1.3294931591,
				"y": -0.0265104831,
				"z": 2.0871723312,
				"element": "C" 
			},
			{
				"x": -1.463751742,
				"y": -0.5298657855,
				"z": 3.5399447262,
				"element": "C" 
			},
			{
				"x": -0.6702122161,
				"y": -1.1728022324,
				"z": 1.2324490808,
				"element": "C" 
			},
			{
				"x": 0.8490665912,
				"y": -1.3814903219,
				"z": 1.5095078154,
				"element": "C" 
			},
			{
				"x": 1.7358675909,
				"y": -1.0367139462,
				"z": 0.3065660184,
				"element": "C" 
			},
			{
				"x": 1.4054043538,
				"y": -1.917043174,
				"z": -0.9197432283,
				"element": "C" 
			},
			{
				"x": 1.9727432999,
				"y": -3.3356363969,
				"z": -0.7201705441,
				"element": "C" 
			},
			{
				"x": 5.5425577558,
				"y": 0.3889747797,
				"z": -1.6109212076,
				"element": "H" 
			},
			{
				"x": 5.772785217,
				"y": 0.8906496098,
				"z": -3.3124414228,
				"element": "H" 
			},
			{
				"x": 4.5933463294,
				"y": 1.7245894404,
				"z": -2.2597986598,
				"element": "H" 
			},
			{
				"x": 2.3968612374,
				"y": -2.1255186957,
				"z": -2.8676326281,
				"element": "H" 
			},
			{
				"x": 0.6170078823,
				"y": 0.3161690733,
				"z": -2.5620480441,
				"element": "H" 
			},
			{
				"x": 1.0208633414,
				"y": -0.5494115325,
				"z": -4.0529605681,
				"element": "H" 
			},
			{
				"x": -0.1992591329,
				"y": -2.5613795133,
				"z": -3.2705853603,
				"element": "H" 
			},
			{
				"x": -1.3121345739,
				"y": -1.2461674925,
				"z": -2.9230237092,
				"element": "H" 
			},
			{
				"x": -0.5198832595,
				"y": -2.9823856765,
				"z": -0.9529239666,
				"element": "H" 
			},
			{
				"x": -0.6847394854,
				"y": 0.0201564358,
				"z": -0.5604833094,
				"element": "H" 
			},
			{
				"x": -2.7079167221,
				"y": -2.1851995508,
				"z": -0.8661905853,
				"element": "H" 
			},
			{
				"x": -2.8255516584,
				"y": -0.4998180139,
				"z": -1.3261699765,
				"element": "H" 
			},
			{
				"x": -3.3393971835,
				"y": -1.7714281943,
				"z": 1.3896804518,
				"element": "H" 
			},
			{
				"x": -4.3793846164,
				"y": -0.7111681189,
				"z": 0.4648600004,
				"element": "H" 
			},
			{
				"x": -3.4466479281,
				"y": 0.4133380763,
				"z": 2.4327988996,
				"element": "H" 
			},
			{
				"x": -2.2121961069,
				"y": 1.6283871497,
				"z": -0.0777279891,
				"element": "H" 
			},
			{
				"x": -1.552401112,
				"y": 2.4064692097,
				"z": 3.5648657962,
				"element": "H" 
			},
			{
				"x": -0.5670283758,
				"y": 3.3995419043,
				"z": 2.5145442958,
				"element": "H" 
			},
			{
				"x": -0.0613796004,
				"y": 1.4336235677,
				"z": 1.0620676359,
				"element": "H" 
			},
			{
				"x": 0.4212637114,
				"y": 1.117339512,
				"z": 2.7114609779,
				"element": "H" 
			},
			{
				"x": -2.1590964015,
				"y": -1.3745497689,
				"z": 3.5976400637,
				"element": "H" 
			},
			{
				"x": -1.8420336008,
				"y": 0.2507128243,
				"z": 4.2085068341,
				"element": "H" 
			},
			{
				"x": -0.4996092885,
				"y": -0.8665761822,
				"z": 3.9351424602,
				"element": "H" 
			},
			{
				"x": -1.1718824443,
				"y": -2.0991812185,
				"z": 1.5399883791,
				"element": "H" 
			},
			{
				"x": 1.020342758,
				"y": -2.4265513578,
				"z": 1.7892713217,
				"element": "H" 
			},
			{
				"x": 1.1777596062,
				"y": -0.7998576378,
				"z": 2.3756292175,
				"element": "H" 
			},
			{
				"x": 2.7916052295,
				"y": -1.1611982636,
				"z": 0.5706719787,
				"element": "H" 
			},
			{
				"x": 1.6196434262,
				"y": 0.0216202458,
				"z": 0.0496866488,
				"element": "H" 
			},
			{
				"x": 1.6873868838,
				"y": -3.9916621986,
				"z": -1.550256652,
				"element": "H" 
			},
			{
				"x": 3.0678214406,
				"y": -3.3125321168,
				"z": -0.6751334861,
				"element": "H" 
			},
			{
				"x": 1.6093546982,
				"y": -3.7988846631,
				"z": 0.202468219,
				"element": "H" 
			}
		],
		 "valence_orbital": [ 
			{
				"type": "occ",
				"energy": -0.28477,
				"method": "rhf"
			},
			{
				"type": "occ",
				"energy": -0.27154,
				"method": "rhf"
			},
			{
				"type": "occ",
				"energy": -0.27033,
				"method": "rhf"
			},
			{
				"type": "occ",
				"energy": -0.26717,
				"method": "rhf"
			},
			{
				"type": "occ",
				"energy": -0.25017,
				"method": "rhf"
			},
			{
				"type": "unocc",
				"energy": -0.02788,
				"method": "rhf"
			},
			{
				"type": "unocc",
				"energy": 0.00524,
				"method": "rhf"
			},
			{
				"type": "unocc",
				"energy": 0.01136,
				"method": "rhf"
			},
			{
				"type": "unocc",
				"energy": 0.05635,
				"method": "rhf"
			},
			{
				"type": "unocc",
				"energy": 0.06291,
				"method": "rhf"
			}
		],
		"cosmo_sigma_profile": { 
			"-0.025": 0.0,
			"-0.024": 0.0,
			"-0.023": 0.0,
			"-0.022": 0.0,
			"-0.021": 0.0,
			"-0.02": 0.0,
			"-0.019": 0.0,
			"-0.018": 0.0,
			"-0.017": 0.0,
			"-0.016": 0.0,
			"-0.015": 0.0,
			"-0.014": 0.0,
			"-0.013": 0.0,
			"-0.012": 0.0,
			"-0.011": 0.000379948716214,
			"-0.01": 0.127015129133,
			"-0.009": 1.71384108716,
			"-0.008": 2.64929308421,
			"-0.007": 3.86027916081,
			"-0.006": 11.2471695163,
			"-0.005": 15.4056652217,
			"-0.004": 25.3848556062,
			"-0.003": 44.7458977901,
			"-0.002": 58.7771186023,
			"-0.001": 58.3686974146,
			"0.0": 47.3200145041,
			"0.001": 36.3394209664,
			"0.002": 16.1720912894,
			"0.003": 9.34536044064,
			"0.004": 9.20740227368,
			"0.005": 10.1472417778,
			"0.006": 9.96163428706,
			"0.007": 5.13513908543,
			"0.008": 4.10895725103,
			"0.009": 4.55819237535,
			"0.01": 4.05197523051,
			"0.011": 6.87374386991,
			"0.012": 8.68217985632,
			"0.013": 3.88008666848,
			"0.014": 0.175431238755,
			"0.015": 0.0,
			"0.016": 0.0,
			"0.017": 0.0,
			"0.018": 0.0,
			"0.019": 0.0,
			"0.02": 0.0,
			"0.021": 0.0,
			"0.022": 0.0,
			"0.023": 0.0,
			"0.024": 0.0,
			"0.025": 0.0
		}
	}
}
