{
	 "smiles": "CC(C=C(/C)C1=CC=C(C=C1)C1=CC=CC=C1)=NNS(=O)(=O)C1=CC=C(C)C=C1", 
	 "Tm": 406.15, 
	 "num_atms": 53, 
	 "gaussian": { 
		 "optdone": 1, 
		 "sigma_profile": "yes", 
		 "theory": "DFT", 
		 "functional": "B3LYP", 
		 "basiset": "6-31G**", 
		 "properties": { 
			 "R2extent": 23615.3206, 
			 "electric_dipole_moment_norm": 5.00821955689, 
			 "electric_quadrupole_moment_norm": 47.3276881676, 
			 "total_energy": -1587.05877632, 
			 "HOMO_LUMO_gap": 0.15319, 
			 "cosmo_polarized_energy": -21.33, 
			 "cosmo_cavitation_energy": 58.48, 
			 "cosmo_dispersion_energy": -41.2, 
			 "cosmo_repulsion_energy": 3.08, 
			 "cosmo_total_nonelectrostatic_energy": 20.35, 
			 "SMD_solvation_energy": 8.36 
		},
		"coords": [
			{
				"x": 3.0129171438,
				"y": 0.8493754635,
				"z": 1.6210323347,
				"element": "C" 
			},
			{
				"x": 1.9122566921,
				"y": 1.3761446841,
				"z": 0.7258573905,
				"element": "C" 
			},
			{
				"x": 1.3114889018,
				"y": 0.602367025,
				"z": -0.3658754478,
				"element": "C" 
			},
			{
				"x": 1.8076960064,
				"y": -0.4203741882,
				"z": -1.1058627255,
				"element": "C" 
			},
			{
				"x": 3.2278456063,
				"y": -0.9348969293,
				"z": -1.0306846325,
				"element": "C" 
			},
			{
				"x": 0.9078348512,
				"y": -1.0874899678,
				"z": -2.0860668904,
				"element": "C" 
			},
			{
				"x": 1.3616457779,
				"y": -1.5355887527,
				"z": -3.3399964553,
				"element": "C" 
			},
			{
				"x": 0.5006390975,
				"y": -2.1432970708,
				"z": -4.2486729091,
				"element": "C" 
			},
			{
				"x": -0.8557002359,
				"y": -2.3481920487,
				"z": -3.9461653557,
				"element": "C" 
			},
			{
				"x": -1.3099930866,
				"y": -1.9141376336,
				"z": -2.6891393651,
				"element": "C" 
			},
			{
				"x": -0.4502248599,
				"y": -1.3035924933,
				"z": -1.7828966829,
				"element": "C" 
			},
			{
				"x": -1.7710633425,
				"y": -3.0036647472,
				"z": -4.9125981801,
				"element": "C" 
			},
			{
				"x": -3.1067626953,
				"y": -2.5842944096,
				"z": -5.0404001849,
				"element": "C" 
			},
			{
				"x": -3.9676397058,
				"y": -3.1992536836,
				"z": -5.9481485066,
				"element": "C" 
			},
			{
				"x": -3.5123510577,
				"y": -4.247331099,
				"z": -6.7504915967,
				"element": "C" 
			},
			{
				"x": -2.1881511304,
				"y": -4.6748140031,
				"z": -6.635643119,
				"element": "C" 
			},
			{
				"x": -1.3279626886,
				"y": -4.0606332416,
				"z": -5.7266607677,
				"element": "C" 
			},
			{
				"x": 1.3527150489,
				"y": 2.5294053106,
				"z": 0.921056739,
				"element": "N" 
			},
			{
				"x": 1.8032111423,
				"y": 3.3037168645,
				"z": 1.959894353,
				"element": "N" 
			},
			{
				"x": 1.3410351757,
				"y": 4.9612144309,
				"z": 1.8679632065,
				"element": "S" 
			},
			{
				"x": 2.1102583965,
				"y": 5.5564900391,
				"z": 2.965443531,
				"element": "O" 
			},
			{
				"x": 1.4508967915,
				"y": 5.4633311538,
				"z": 0.4988006421,
				"element": "O" 
			},
			{
				"x": -0.3874518891,
				"y": 4.8926418115,
				"z": 2.3036243357,
				"element": "C" 
			},
			{
				"x": -0.7555754565,
				"y": 4.9883390509,
				"z": 3.6464834484,
				"element": "C" 
			},
			{
				"x": -2.1074851325,
				"y": 4.9466823582,
				"z": 3.9782203101,
				"element": "C" 
			},
			{
				"x": -3.0930440532,
				"y": 4.8055075388,
				"z": 2.9896549864,
				"element": "C" 
			},
			{
				"x": -4.5537926155,
				"y": 4.7296504699,
				"z": 3.3633128315,
				"element": "C" 
			},
			{
				"x": -2.6904234841,
				"y": 4.7186680561,
				"z": 1.6491379126,
				"element": "C" 
			},
			{
				"x": -1.3434161429,
				"y": 4.7627508937,
				"z": 1.295602487,
				"element": "C" 
			},
			{
				"x": 3.1036978878,
				"y": -0.2334728141,
				"z": 1.5495419467,
				"element": "H" 
			},
			{
				"x": 2.7884574472,
				"y": 1.096939836,
				"z": 2.6650062252,
				"element": "H" 
			},
			{
				"x": 3.9919099541,
				"y": 1.2865535885,
				"z": 1.3824649202,
				"element": "H" 
			},
			{
				"x": 0.3207956407,
				"y": 0.9682077164,
				"z": -0.6213911046,
				"element": "H" 
			},
			{
				"x": 3.6445268326,
				"y": -1.0640732634,
				"z": -2.0338578535,
				"element": "H" 
			},
			{
				"x": 3.8945312562,
				"y": -0.2597527289,
				"z": -0.4966130084,
				"element": "H" 
			},
			{
				"x": 3.2711678874,
				"y": -1.9215985247,
				"z": -0.5515839709,
				"element": "H" 
			},
			{
				"x": 2.3941137717,
				"y": -1.3769393088,
				"z": -3.6341167941,
				"element": "H" 
			},
			{
				"x": 0.8805246551,
				"y": -2.4370022605,
				"z": -5.2227721336,
				"element": "H" 
			},
			{
				"x": -2.3420611042,
				"y": -2.0938742132,
				"z": -2.4026931301,
				"element": "H" 
			},
			{
				"x": -0.825016753,
				"y": -1.0182527268,
				"z": -0.8049145971,
				"element": "H" 
			},
			{
				"x": -3.4637281495,
				"y": -1.7516981384,
				"z": -4.4413794998,
				"element": "H" 
			},
			{
				"x": -4.9935760645,
				"y": -2.8526070063,
				"z": -6.0354799195,
				"element": "H" 
			},
			{
				"x": -4.1827735214,
				"y": -4.7261032486,
				"z": -7.4582853882,
				"element": "H" 
			},
			{
				"x": -1.8255987008,
				"y": -5.4951063602,
				"z": -7.2488467691,
				"element": "H" 
			},
			{
				"x": -0.3079557261,
				"y": -4.4197435649,
				"z": -5.6261629322,
				"element": "H" 
			},
			{
				"x": 2.7903501583,
				"y": 3.2615498853,
				"z": 2.223323709,
				"element": "H" 
			},
			{
				"x": 0.0065563561,
				"y": 5.111336078,
				"z": 4.4081704466,
				"element": "H" 
			},
			{
				"x": -2.4035672622,
				"y": 5.0313143677,
				"z": 5.0204582451,
				"element": "H" 
			},
			{
				"x": -5.192950912,
				"y": 5.1071926936,
				"z": 2.5600868706,
				"element": "H" 
			},
			{
				"x": -4.7662601538,
				"y": 5.3056531482,
				"z": 4.2686338122,
				"element": "H" 
			},
			{
				"x": -4.8536604224,
				"y": 3.6925198583,
				"z": 3.5590309097,
				"element": "H" 
			},
			{
				"x": -3.4421550392,
				"y": 4.6221902532,
				"z": 0.8702980076,
				"element": "H" 
			},
			{
				"x": -1.0308310933,
				"y": 4.7092418516,
				"z": 0.2592003192,
				"element": "H" 
			}
		],
		 "valence_orbital": [ 
			{
				"type": "occ",
				"energy": -0.25885,
				"method": "rhf"
			},
			{
				"type": "occ",
				"energy": -0.25377,
				"method": "rhf"
			},
			{
				"type": "occ",
				"energy": -0.25169,
				"method": "rhf"
			},
			{
				"type": "occ",
				"energy": -0.23523,
				"method": "rhf"
			},
			{
				"type": "occ",
				"energy": -0.20645,
				"method": "rhf"
			},
			{
				"type": "unocc",
				"energy": -0.05326,
				"method": "rhf"
			},
			{
				"type": "unocc",
				"energy": -0.03369,
				"method": "rhf"
			},
			{
				"type": "unocc",
				"energy": -0.01741,
				"method": "rhf"
			},
			{
				"type": "unocc",
				"energy": -0.01374,
				"method": "rhf"
			},
			{
				"type": "unocc",
				"energy": -0.00666,
				"method": "rhf"
			}
		],
		"cosmo_sigma_profile": { 
			"-0.025": 0.0,
			"-0.024": 0.0,
			"-0.023": 0.0,
			"-0.022": 0.0,
			"-0.021": 0.0,
			"-0.02": 0.0,
			"-0.019": 0.0,
			"-0.018": 0.0,
			"-0.017": 0.0,
			"-0.016": 0.0,
			"-0.015": 0.323632608365,
			"-0.014": 1.14878428674,
			"-0.013": 0.864908075807,
			"-0.012": 1.3721755399,
			"-0.011": 1.24912933552,
			"-0.01": 1.10650274374,
			"-0.009": 0.748274301175,
			"-0.008": 1.89894121802,
			"-0.007": 7.01343111827,
			"-0.006": 20.6918500004,
			"-0.005": 39.9806182817,
			"-0.004": 44.4450283074,
			"-0.003": 39.2434552793,
			"-0.002": 36.3027211346,
			"-0.001": 39.8358389915,
			"0.0": 31.6375497488,
			"0.001": 27.1966971965,
			"0.002": 30.3274796453,
			"0.003": 36.6507978872,
			"0.004": 27.3947636556,
			"0.005": 26.0790947086,
			"0.006": 13.7688238325,
			"0.007": 5.76046883105,
			"0.008": 5.81687977243,
			"0.009": 3.56856742166,
			"0.01": 10.038667545,
			"0.011": 10.3630934718,
			"0.012": 1.70376475429,
			"0.013": 0.0,
			"0.014": 0.0,
			"0.015": 0.0,
			"0.016": 0.0,
			"0.017": 0.0,
			"0.018": 0.0,
			"0.019": 0.0,
			"0.02": 0.0,
			"0.021": 0.0,
			"0.022": 0.0,
			"0.023": 0.0,
			"0.024": 0.0,
			"0.025": 0.0
		}
	}
}
