{
	 "smiles": "CC1=CC=C(C)C(C)=C1C", 
	 "Tm": 267.05, 
	 "num_atms": 24, 
	 "gaussian": { 
		 "optdone": 1, 
		 "sigma_profile": "yes", 
		 "theory": "DFT", 
		 "functional": "B3LYP", 
		 "basiset": "6-31G**", 
		 "properties": { 
			 "R2extent": 1744.6685, 
			 "electric_dipole_moment_norm": 0.5750461025, 
			 "electric_quadrupole_moment_norm": 3.61321927787, 
			 "total_energy": -389.52595447, 
			 "HOMO_LUMO_gap": 0.22961, 
			 "cosmo_polarized_energy": -3.29, 
			 "cosmo_cavitation_energy": 25.2, 
			 "cosmo_dispersion_energy": -18.55, 
			 "cosmo_repulsion_energy": 1.48, 
			 "cosmo_total_nonelectrostatic_energy": 8.13, 
			 "SMD_solvation_energy": 4.37 
		},
		"coords": [
			{
				"x": 0.7278201409,
				"y": 2.0715228132,
				"z": 1.9628732814,
				"element": "C" 
			},
			{
				"x": 0.4960788831,
				"y": 1.0256568475,
				"z": 0.8930622039,
				"element": "C" 
			},
			{
				"x": -0.6312076388,
				"y": 1.1286958615,
				"z": 0.0728339555,
				"element": "C" 
			},
			{
				"x": -0.8836495681,
				"y": 0.1906609377,
				"z": -0.9222954718,
				"element": "C" 
			},
			{
				"x": -0.0186361065,
				"y": -0.8866299515,
				"z": -1.1352379657,
				"element": "C" 
			},
			{
				"x": -0.3359276636,
				"y": -1.8819971261,
				"z": -2.230983903,
				"element": "C" 
			},
			{
				"x": 1.1241039023,
				"y": -1.0076223168,
				"z": -0.3174333438,
				"element": "C" 
			},
			{
				"x": 2.0940334765,
				"y": -2.1548839504,
				"z": -0.5052383151,
				"element": "C" 
			},
			{
				"x": 1.380817255,
				"y": -0.0544355635,
				"z": 0.6932094704,
				"element": "C" 
			},
			{
				"x": 2.6166960716,
				"y": -0.2139163224,
				"z": 1.5530663299,
				"element": "C" 
			},
			{
				"x": -0.0720571446,
				"y": 2.8168995831,
				"z": 1.9493970536,
				"element": "H" 
			},
			{
				"x": 1.6750672219,
				"y": 2.6053256606,
				"z": 1.8215893067,
				"element": "H" 
			},
			{
				"x": 0.7526165987,
				"y": 1.636105351,
				"z": 2.968834753,
				"element": "H" 
			},
			{
				"x": -1.3204565786,
				"y": 1.9570667692,
				"z": 0.217418613,
				"element": "H" 
			},
			{
				"x": -1.7678480114,
				"y": 0.2944764751,
				"z": -1.5464570099,
				"element": "H" 
			},
			{
				"x": 0.4558634321,
				"y": -1.9307665557,
				"z": -2.9878543707,
				"element": "H" 
			},
			{
				"x": -1.2611220408,
				"y": -1.6051128369,
				"z": -2.7437638251,
				"element": "H" 
			},
			{
				"x": -0.4692337897,
				"y": -2.8981180867,
				"z": -1.8412048525,
				"element": "H" 
			},
			{
				"x": 1.7891306626,
				"y": -2.8292588951,
				"z": -1.3055687087,
				"element": "H" 
			},
			{
				"x": 2.1906286859,
				"y": -2.7537717201,
				"z": 0.4087656506,
				"element": "H" 
			},
			{
				"x": 3.1016233616,
				"y": -1.7942733008,
				"z": -0.7469692974,
				"element": "H" 
			},
			{
				"x": 2.7148657632,
				"y": 0.5827911882,
				"z": 2.2905734792,
				"element": "H" 
			},
			{
				"x": 3.5311131561,
				"y": -0.2137794023,
				"z": 0.9470482743,
				"element": "H" 
			},
			{
				"x": 2.6070799308,
				"y": -1.1657354587,
				"z": 2.098634692,
				"element": "H" 
			}
		],
		 "valence_orbital": [ 
			{
				"type": "occ",
				"energy": -0.32305,
				"method": "rhf"
			},
			{
				"type": "occ",
				"energy": -0.31859,
				"method": "rhf"
			},
			{
				"type": "occ",
				"energy": -0.31779,
				"method": "rhf"
			},
			{
				"type": "occ",
				"energy": -0.22435,
				"method": "rhf"
			},
			{
				"type": "occ",
				"energy": -0.21926,
				"method": "rhf"
			},
			{
				"type": "unocc",
				"energy": 0.01035,
				"method": "rhf"
			},
			{
				"type": "unocc",
				"energy": 0.01502,
				"method": "rhf"
			},
			{
				"type": "unocc",
				"energy": 0.09207,
				"method": "rhf"
			},
			{
				"type": "unocc",
				"energy": 0.10986,
				"method": "rhf"
			},
			{
				"type": "unocc",
				"energy": 0.11497,
				"method": "rhf"
			}
		],
		"cosmo_sigma_profile": { 
			"-0.025": 0.0,
			"-0.024": 0.0,
			"-0.023": 0.0,
			"-0.022": 0.0,
			"-0.021": 0.0,
			"-0.02": 0.0,
			"-0.019": 0.0,
			"-0.018": 0.0,
			"-0.017": 0.0,
			"-0.016": 0.0,
			"-0.015": 0.0,
			"-0.014": 0.0,
			"-0.013": 0.0,
			"-0.012": 0.0,
			"-0.011": 0.0,
			"-0.01": 0.0,
			"-0.009": 0.0,
			"-0.008": 0.0,
			"-0.007": 0.0,
			"-0.006": 0.0,
			"-0.005": 0.915135929641,
			"-0.004": 15.072355691,
			"-0.003": 30.7902507244,
			"-0.002": 25.2990777477,
			"-0.001": 24.6670115128,
			"0.0": 29.5554727597,
			"0.001": 25.2994638032,
			"0.002": 10.3904045527,
			"0.003": 7.21873933356,
			"0.004": 6.04202426932,
			"0.005": 6.88327433617,
			"0.006": 5.8558642099,
			"0.007": 6.09655088462,
			"0.008": 3.20959377673,
			"0.009": 0.00159040053614,
			"0.01": 0.0,
			"0.011": 0.0,
			"0.012": 0.0,
			"0.013": 0.0,
			"0.014": 0.0,
			"0.015": 0.0,
			"0.016": 0.0,
			"0.017": 0.0,
			"0.018": 0.0,
			"0.019": 0.0,
			"0.02": 0.0,
			"0.021": 0.0,
			"0.022": 0.0,
			"0.023": 0.0,
			"0.024": 0.0,
			"0.025": 0.0
		}
	}
}
