{
	 "smiles": "ClC1=C(Cl)C=C(C=C1)C(=O)NC1=CC2=NN(N=C2C=C1)C1CCCC1", 
	 "Tm": 480.15, 
	 "num_atms": 41, 
	 "gaussian": { 
		 "optdone": 1, 
		 "sigma_profile": "yes", 
		 "theory": "DFT", 
		 "functional": "B3LYP", 
		 "basiset": "6-31G**", 
		 "properties": { 
			 "R2extent": 12732.3848, 
			 "electric_dipole_moment_norm": 3.56589408844, 
			 "electric_quadrupole_moment_norm": 10.4312248169, 
			 "total_energy": -1910.16313891, 
			 "HOMO_LUMO_gap": 0.16686, 
			 "cosmo_polarized_energy": -14.89, 
			 "cosmo_cavitation_energy": 48.42, 
			 "cosmo_dispersion_energy": -33.5, 
			 "cosmo_repulsion_energy": 2.59, 
			 "cosmo_total_nonelectrostatic_energy": 17.52, 
			 "SMD_solvation_energy": 5.29 
		},
		"coords": [
			{
				"x": -1.6790957724,
				"y": -5.6627663733,
				"z": 1.1850063472,
				"element": "Cl" 
			},
			{
				"x": -0.232235374,
				"y": -4.70036638,
				"z": 1.0349058107,
				"element": "C" 
			},
			{
				"x": 0.0400201984,
				"y": -3.6446293481,
				"z": 1.9170172851,
				"element": "C" 
			},
			{
				"x": -1.0460467278,
				"y": -3.2487268634,
				"z": 3.2269167518,
				"element": "Cl" 
			},
			{
				"x": 1.2008220206,
				"y": -2.8875750968,
				"z": 1.7590812556,
				"element": "C" 
			},
			{
				"x": 2.1029988438,
				"y": -3.1814255794,
				"z": 0.7315618214,
				"element": "C" 
			},
			{
				"x": 1.8393075964,
				"y": -4.2556709231,
				"z": -0.1272502297,
				"element": "C" 
			},
			{
				"x": 0.6743985477,
				"y": -5.0000633598,
				"z": 0.0141558451,
				"element": "C" 
			},
			{
				"x": 3.4199924871,
				"y": -2.4764029809,
				"z": 0.5709911628,
				"element": "C" 
			},
			{
				"x": 4.4023009674,
				"y": -3.0829034647,
				"z": 0.1595305155,
				"element": "O" 
			},
			{
				"x": 3.5369427292,
				"y": -1.1555363641,
				"z": 0.9651999566,
				"element": "N" 
			},
			{
				"x": 2.5660554347,
				"y": -0.1186924456,
				"z": 1.0152840601,
				"element": "C" 
			},
			{
				"x": 1.5187426585,
				"y": -0.0509626124,
				"z": 0.1143016163,
				"element": "C" 
			},
			{
				"x": 0.6155292345,
				"y": 1.0234366814,
				"z": 0.2638234942,
				"element": "C" 
			},
			{
				"x": -0.4907760596,
				"y": 1.3405863437,
				"z": -0.4486714578,
				"element": "N" 
			},
			{
				"x": -0.9073620646,
				"y": 2.4602985606,
				"z": 0.1344104571,
				"element": "N" 
			},
			{
				"x": -0.2000225339,
				"y": 2.9242075989,
				"z": 1.1576006825,
				"element": "N" 
			},
			{
				"x": 0.7987627388,
				"y": 2.0173786349,
				"z": 1.267766722,
				"element": "C" 
			},
			{
				"x": 1.8904573138,
				"y": 1.9484923543,
				"z": 2.1619214302,
				"element": "C" 
			},
			{
				"x": 2.7467403418,
				"y": 0.8796739068,
				"z": 2.0276354972,
				"element": "C" 
			},
			{
				"x": -2.1227933889,
				"y": 3.1507454309,
				"z": -0.3179612156,
				"element": "C" 
			},
			{
				"x": -2.018304692,
				"y": 3.5858221661,
				"z": -1.8085901079,
				"element": "C" 
			},
			{
				"x": -3.3667491835,
				"y": 3.1922437916,
				"z": -2.4406818675,
				"element": "C" 
			},
			{
				"x": -3.7550935777,
				"y": 1.9126118319,
				"z": -1.6830027706,
				"element": "C" 
			},
			{
				"x": -3.3838277408,
				"y": 2.2419694334,
				"z": -0.2268620555,
				"element": "C" 
			},
			{
				"x": 1.3937172543,
				"y": -2.0800701416,
				"z": 2.4543804892,
				"element": "H" 
			},
			{
				"x": 2.5632000082,
				"y": -4.5015640074,
				"z": -0.8959952642,
				"element": "H" 
			},
			{
				"x": 0.4583238321,
				"y": -5.8247352816,
				"z": -0.6557617964,
				"element": "H" 
			},
			{
				"x": 4.5063862475,
				"y": -0.8585414218,
				"z": 0.9492220359,
				"element": "H" 
			},
			{
				"x": 1.3943232613,
				"y": -0.781828762,
				"z": -0.6754323593,
				"element": "H" 
			},
			{
				"x": 2.0368368405,
				"y": 2.70233446,
				"z": 2.9277752181,
				"element": "H" 
			},
			{
				"x": 3.5872007413,
				"y": 0.767147312,
				"z": 2.7062765386,
				"element": "H" 
			},
			{
				"x": -2.1958110637,
				"y": 4.0044943589,
				"z": 0.3555363358,
				"element": "H" 
			},
			{
				"x": -1.7822983741,
				"y": 4.6489926071,
				"z": -1.9068021852,
				"element": "H" 
			},
			{
				"x": -1.2098993192,
				"y": 3.0191171501,
				"z": -2.2789401412,
				"element": "H" 
			},
			{
				"x": -4.115839746,
				"y": 3.9746067452,
				"z": -2.2632124349,
				"element": "H" 
			},
			{
				"x": -3.2928459825,
				"y": 3.0515060655,
				"z": -3.5232195797,
				"element": "H" 
			},
			{
				"x": -4.8088024007,
				"y": 1.6415727995,
				"z": -1.7991283658,
				"element": "H" 
			},
			{
				"x": -3.1497775343,
				"y": 1.071285163,
				"z": -2.0384729704,
				"element": "H" 
			},
			{
				"x": -4.1889520065,
				"y": 2.8158127564,
				"z": 0.2455228079,
				"element": "H" 
			},
			{
				"x": -3.2029257557,
				"y": 1.3594252537,
				"z": 0.3907606647,
				"element": "H" 
			}
		],
		 "valence_orbital": [ 
			{
				"type": "occ",
				"energy": -0.27041,
				"method": "rhf"
			},
			{
				"type": "occ",
				"energy": -0.26767,
				"method": "rhf"
			},
			{
				"type": "occ",
				"energy": -0.25143,
				"method": "rhf"
			},
			{
				"type": "occ",
				"energy": -0.2474,
				"method": "rhf"
			},
			{
				"type": "occ",
				"energy": -0.22733,
				"method": "rhf"
			},
			{
				"type": "unocc",
				"energy": -0.06047,
				"method": "rhf"
			},
			{
				"type": "unocc",
				"energy": -0.05033,
				"method": "rhf"
			},
			{
				"type": "unocc",
				"energy": -0.02767,
				"method": "rhf"
			},
			{
				"type": "unocc",
				"energy": -0.00037,
				"method": "rhf"
			},
			{
				"type": "unocc",
				"energy": 0.00694,
				"method": "rhf"
			}
		],
		"cosmo_sigma_profile": { 
			"-0.025": 0.0,
			"-0.024": 0.0,
			"-0.023": 0.0,
			"-0.022": 0.0,
			"-0.021": 0.0,
			"-0.02": 0.0,
			"-0.019": 0.0,
			"-0.018": 0.0,
			"-0.017": 0.0,
			"-0.016": 0.0,
			"-0.015": 0.372624119032,
			"-0.014": 0.936808689326,
			"-0.013": 1.30820384717,
			"-0.012": 0.731218494748,
			"-0.011": 1.17557117092,
			"-0.01": 0.997990743068,
			"-0.009": 1.26099824059,
			"-0.008": 3.54460412559,
			"-0.007": 11.139897288,
			"-0.006": 13.6718126954,
			"-0.005": 14.8254658216,
			"-0.004": 21.7187628215,
			"-0.003": 30.8677163912,
			"-0.002": 35.443410752,
			"-0.001": 44.2313742286,
			"0.0": 48.5611179616,
			"0.001": 40.5568287867,
			"0.002": 28.3397960108,
			"0.003": 28.5687479602,
			"0.004": 20.4150515928,
			"0.005": 7.78272079922,
			"0.006": 4.24485589946,
			"0.007": 4.66281806089,
			"0.008": 3.73491660197,
			"0.009": 2.14748373921,
			"0.01": 3.95753722693,
			"0.011": 4.65239704097,
			"0.012": 5.21224942488,
			"0.013": 4.56520541524,
			"0.014": 0.679689534221,
			"0.015": 0.0,
			"0.016": 0.0,
			"0.017": 0.0,
			"0.018": 0.0,
			"0.019": 0.0,
			"0.02": 0.0,
			"0.021": 0.0,
			"0.022": 0.0,
			"0.023": 0.0,
			"0.024": 0.0,
			"0.025": 0.0
		}
	}
}
