{
	 "smiles": "O=CC1=CN(N=C1)C1=CC=CC=C1", 
	 "Tm": 495.15, 
	 "num_atms": 21, 
	 "gaussian": { 
		 "optdone": 1, 
		 "sigma_profile": "yes", 
		 "theory": "DFT", 
		 "functional": "B3LYP", 
		 "basiset": "6-31G**", 
		 "properties": { 
			 "R2extent": 3459.7677, 
			 "electric_dipole_moment_norm": 2.92082041386, 
			 "electric_quadrupole_moment_norm": 11.0093561483, 
			 "total_energy": -570.579329412, 
			 "HOMO_LUMO_gap": 0.18162, 
			 "cosmo_polarized_energy": -10.77, 
			 "cosmo_cavitation_energy": 26.1, 
			 "cosmo_dispersion_energy": -19.18, 
			 "cosmo_repulsion_energy": 1.49, 
			 "cosmo_total_nonelectrostatic_energy": 8.41, 
			 "SMD_solvation_energy": 5.34 
		},
		"coords": [
			{
				"x": 0.4380787754,
				"y": -3.2635600008,
				"z": -2.919374653,
				"element": "O" 
			},
			{
				"x": 0.9662454338,
				"y": -2.25408712,
				"z": -3.3550479513,
				"element": "C" 
			},
			{
				"x": 0.8141992624,
				"y": -0.9258843811,
				"z": -2.7683949208,
				"element": "C" 
			},
			{
				"x": 0.0651875842,
				"y": -0.5927939183,
				"z": -1.6476365566,
				"element": "C" 
			},
			{
				"x": 0.2036661068,
				"y": 0.741870622,
				"z": -1.4572556206,
				"element": "N" 
			},
			{
				"x": 1.0128654991,
				"y": 1.3104434759,
				"z": -2.4035288115,
				"element": "N" 
			},
			{
				"x": 1.3771832611,
				"y": 0.3096247473,
				"z": -3.1874473504,
				"element": "C" 
			},
			{
				"x": -0.3696417001,
				"y": 1.5596152524,
				"z": -0.4395690094,
				"element": "C" 
			},
			{
				"x": -0.0907646804,
				"y": 2.9307187734,
				"z": -0.4295027973,
				"element": "C" 
			},
			{
				"x": -0.6475997247,
				"y": 3.7359386355,
				"z": 0.5618630709,
				"element": "C" 
			},
			{
				"x": -1.478181379,
				"y": 3.1890813069,
				"z": 1.5416199008,
				"element": "C" 
			},
			{
				"x": -1.7503719017,
				"y": 1.820521805,
				"z": 1.5231589379,
				"element": "C" 
			},
			{
				"x": -1.2010070716,
				"y": 1.0014063212,
				"z": 0.5379824521,
				"element": "C" 
			},
			{
				"x": 1.6163361465,
				"y": -2.2923320187,
				"z": -4.2563461394,
				"element": "H" 
			},
			{
				"x": -0.5306583054,
				"y": -1.227223808,
				"z": -1.0120697812,
				"element": "H" 
			},
			{
				"x": 2.0310875183,
				"y": 0.4983208154,
				"z": -4.0292616613,
				"element": "H" 
			},
			{
				"x": 0.5546771422,
				"y": 3.3414712382,
				"z": -1.1949563025,
				"element": "H" 
			},
			{
				"x": -0.4279417797,
				"y": 4.7993979473,
				"z": 0.5650600017,
				"element": "H" 
			},
			{
				"x": -1.9089784454,
				"y": 3.8217714128,
				"z": 2.3113766007,
				"element": "H" 
			},
			{
				"x": -2.3945454102,
				"y": 1.3808319258,
				"z": 2.2785630076,
				"element": "H" 
			},
			{
				"x": -1.4256363314,
				"y": -0.059033032,
				"z": 0.5421675838,
				"element": "H" 
			}
		],
		 "valence_orbital": [ 
			{
				"type": "occ",
				"energy": -0.3064,
				"method": "rhf"
			},
			{
				"type": "occ",
				"energy": -0.27048,
				"method": "rhf"
			},
			{
				"type": "occ",
				"energy": -0.26363,
				"method": "rhf"
			},
			{
				"type": "occ",
				"energy": -0.25148,
				"method": "rhf"
			},
			{
				"type": "occ",
				"energy": -0.23873,
				"method": "rhf"
			},
			{
				"type": "unocc",
				"energy": -0.05711,
				"method": "rhf"
			},
			{
				"type": "unocc",
				"energy": -0.02354,
				"method": "rhf"
			},
			{
				"type": "unocc",
				"energy": -0.015,
				"method": "rhf"
			},
			{
				"type": "unocc",
				"energy": 0.02845,
				"method": "rhf"
			},
			{
				"type": "unocc",
				"energy": 0.0752,
				"method": "rhf"
			}
		],
		"cosmo_sigma_profile": { 
			"-0.025": 0.0,
			"-0.024": 0.0,
			"-0.023": 0.0,
			"-0.022": 0.0,
			"-0.021": 0.0,
			"-0.02": 0.0,
			"-0.019": 0.0,
			"-0.018": 0.0,
			"-0.017": 0.0,
			"-0.016": 0.0,
			"-0.015": 0.0,
			"-0.014": 0.0,
			"-0.013": 0.0,
			"-0.012": 0.559435645264,
			"-0.011": 2.02809432615,
			"-0.01": 1.54425445838,
			"-0.009": 2.26905222174,
			"-0.008": 5.01368065491,
			"-0.007": 7.14515712808,
			"-0.006": 13.9120320561,
			"-0.005": 14.9069076647,
			"-0.004": 14.5361148342,
			"-0.003": 11.9618502688,
			"-0.002": 13.1950038882,
			"-0.001": 13.0488419993,
			"0.0": 13.619525429,
			"0.001": 17.9156244562,
			"0.002": 16.3267875036,
			"0.003": 13.3062582262,
			"0.004": 15.0664098662,
			"0.005": 8.12007209494,
			"0.006": 3.12010263825,
			"0.007": 1.80109113781,
			"0.008": 3.52676475104,
			"0.009": 2.90959140864,
			"0.01": 3.99595767619,
			"0.011": 4.9197024222,
			"0.012": 4.20706782044,
			"0.013": 1.7094353604,
			"0.014": 0.115400841068,
			"0.015": 0.0,
			"0.016": 0.0,
			"0.017": 0.0,
			"0.018": 0.0,
			"0.019": 0.0,
			"0.02": 0.0,
			"0.021": 0.0,
			"0.022": 0.0,
			"0.023": 0.0,
			"0.024": 0.0,
			"0.025": 0.0
		}
	}
}
