{
	 "smiles": "CC1=CC=C(NC(=S)NN)C=C1", 
	 "Tm": 408.65, 
	 "num_atms": 23, 
	 "gaussian": { 
		 "optdone": 1, 
		 "sigma_profile": "yes", 
		 "theory": "DFT", 
		 "functional": "B3LYP", 
		 "basiset": "6-31G**", 
		 "properties": { 
			 "R2extent": 4356.7481, 
			 "electric_dipole_moment_norm": 4.95084827479, 
			 "electric_quadrupole_moment_norm": 15.7918000168, 
			 "total_energy": -873.912497275, 
			 "HOMO_LUMO_gap": 0.18028, 
			 "cosmo_polarized_energy": -14.72, 
			 "cosmo_cavitation_energy": 28.36, 
			 "cosmo_dispersion_energy": -21.19, 
			 "cosmo_repulsion_energy": 1.67, 
			 "cosmo_total_nonelectrostatic_energy": 8.84, 
			 "SMD_solvation_energy": 4.44 
		},
		"coords": [
			{
				"x": -3.0002086376,
				"y": 1.2326859827,
				"z": 0.6907468353,
				"element": "C" 
			},
			{
				"x": -1.9054402622,
				"y": 0.3667787435,
				"z": 0.1146575121,
				"element": "C" 
			},
			{
				"x": -1.6908947228,
				"y": -0.9371089747,
				"z": 0.5768895786,
				"element": "C" 
			},
			{
				"x": -0.6706438647,
				"y": -1.7380894264,
				"z": 0.0638802948,
				"element": "C" 
			},
			{
				"x": 0.1895428715,
				"y": -1.2321190437,
				"z": -0.9217753323,
				"element": "C" 
			},
			{
				"x": 1.2214330794,
				"y": -2.0105782601,
				"z": -1.5042129769,
				"element": "N" 
			},
			{
				"x": 2.128116003,
				"y": -2.855770821,
				"z": -0.9166329286,
				"element": "C" 
			},
			{
				"x": 3.2350922027,
				"y": -3.7095404367,
				"z": -1.8558544133,
				"element": "S" 
			},
			{
				"x": 2.0831330926,
				"y": -2.9453100252,
				"z": 0.4402227636,
				"element": "N" 
			},
			{
				"x": 3.0363769459,
				"y": -3.6497579744,
				"z": 1.1978229039,
				"element": "N" 
			},
			{
				"x": -0.0189586414,
				"y": 0.0701468312,
				"z": -1.3986748309,
				"element": "C" 
			},
			{
				"x": -1.0564597511,
				"y": 0.8474173193,
				"z": -0.8926230437,
				"element": "C" 
			},
			{
				"x": -2.6163030473,
				"y": 1.880169404,
				"z": 1.4891381742,
				"element": "H" 
			},
			{
				"x": -3.4380363146,
				"y": 1.8846065707,
				"z": -0.0714181351,
				"element": "H" 
			},
			{
				"x": -3.8039079108,
				"y": 0.627809375,
				"z": 1.1205399305,
				"element": "H" 
			},
			{
				"x": -2.3473122631,
				"y": -1.3480073554,
				"z": 1.3397858586,
				"element": "H" 
			},
			{
				"x": -0.5629080015,
				"y": -2.7621049796,
				"z": 0.4048255675,
				"element": "H" 
			},
			{
				"x": 1.3947196865,
				"y": -1.8863967149,
				"z": -2.4920528744,
				"element": "H" 
			},
			{
				"x": 1.5844194325,
				"y": -2.2389768854,
				"z": 0.9646271395,
				"element": "H" 
			},
			{
				"x": 2.8445373197,
				"y": -4.6439132669,
				"z": 1.0749376849,
				"element": "H" 
			},
			{
				"x": 3.9446243773,
				"y": -3.5019024617,
				"z": 0.7522604463,
				"element": "H" 
			},
			{
				"x": 0.6386408691,
				"y": 0.4692480837,
				"z": -2.1661638061,
				"element": "H" 
			},
			{
				"x": -1.202662463,
				"y": 1.851914316,
				"z": -1.2817263487,
				"element": "H" 
			}
		],
		 "valence_orbital": [ 
			{
				"type": "occ",
				"energy": -0.2794,
				"method": "rhf"
			},
			{
				"type": "occ",
				"energy": -0.26766,
				"method": "rhf"
			},
			{
				"type": "occ",
				"energy": -0.24136,
				"method": "rhf"
			},
			{
				"type": "occ",
				"energy": -0.21288,
				"method": "rhf"
			},
			{
				"type": "occ",
				"energy": -0.20896,
				"method": "rhf"
			},
			{
				"type": "unocc",
				"energy": -0.02868,
				"method": "rhf"
			},
			{
				"type": "unocc",
				"energy": -0.02105,
				"method": "rhf"
			},
			{
				"type": "unocc",
				"energy": 0.01568,
				"method": "rhf"
			},
			{
				"type": "unocc",
				"energy": 0.07542,
				"method": "rhf"
			},
			{
				"type": "unocc",
				"energy": 0.0839,
				"method": "rhf"
			}
		],
		"cosmo_sigma_profile": { 
			"-0.025": 0.0,
			"-0.024": 0.0,
			"-0.023": 0.0,
			"-0.022": 0.0,
			"-0.021": 0.0,
			"-0.02": 0.0,
			"-0.019": 0.0,
			"-0.018": 0.0,
			"-0.017": 0.0,
			"-0.016": 0.0,
			"-0.015": 0.165986928176,
			"-0.014": 0.696864449656,
			"-0.013": 1.00825830744,
			"-0.012": 2.55667436491,
			"-0.011": 2.43077031067,
			"-0.01": 2.96571779729,
			"-0.009": 5.73236643021,
			"-0.008": 4.16480630477,
			"-0.007": 5.21403880852,
			"-0.006": 8.78056899277,
			"-0.005": 13.3408409323,
			"-0.004": 19.2375956617,
			"-0.003": 16.3394628401,
			"-0.002": 14.8614769318,
			"-0.001": 16.0500110175,
			"0.0": 18.7969332487,
			"0.001": 13.8658211669,
			"0.002": 10.7746216885,
			"0.003": 10.0646679331,
			"0.004": 11.8070656523,
			"0.005": 10.9412490873,
			"0.006": 4.62459477714,
			"0.007": 3.11610345611,
			"0.008": 5.19144417539,
			"0.009": 5.84897595313,
			"0.01": 5.93524158114,
			"0.011": 7.58699225824,
			"0.012": 3.03964763639,
			"0.013": 0.356413269005,
			"0.014": 0.747120789863,
			"0.015": 0.609039968666,
			"0.016": 0.400849957326,
			"0.017": 0.0,
			"0.018": 0.0,
			"0.019": 0.0,
			"0.02": 0.0,
			"0.021": 0.0,
			"0.022": 0.0,
			"0.023": 0.0,
			"0.024": 0.0,
			"0.025": 0.0
		}
	}
}
