{
	 "smiles": "ClC1=CC=C(SC2=C(C=CC=C2)N2C(=O)C=CC2=O)C=C1", 
	 "Tm": 328.15, 
	 "num_atms": 31, 
	 "gaussian": { 
		 "optdone": 1, 
		 "sigma_profile": "yes", 
		 "theory": "DFT", 
		 "functional": "B3LYP", 
		 "basiset": "6-31G**", 
		 "properties": { 
			 "R2extent": 8595.9322, 
			 "electric_dipole_moment_norm": 1.78264175313, 
			 "electric_quadrupole_moment_norm": 25.4974863734, 
			 "total_energy": -1679.30140232, 
			 "HOMO_LUMO_gap": 0.12126, 
			 "cosmo_polarized_energy": -13.35, 
			 "cosmo_cavitation_energy": 40.15, 
			 "cosmo_dispersion_energy": -27.75, 
			 "cosmo_repulsion_energy": 2.09, 
			 "cosmo_total_nonelectrostatic_energy": 14.5, 
			 "SMD_solvation_energy": 7.94 
		},
		"coords": [
			{
				"x": 3.083826239,
				"y": -5.1683232076,
				"z": 1.3746555447,
				"element": "Cl" 
			},
			{
				"x": 2.0810560676,
				"y": -3.8764218129,
				"z": 0.7302786717,
				"element": "C" 
			},
			{
				"x": 2.686137965,
				"y": -2.7102895064,
				"z": 0.257102724,
				"element": "C" 
			},
			{
				"x": 1.8931535414,
				"y": -1.6892648629,
				"z": -0.2622242694,
				"element": "C" 
			},
			{
				"x": 0.4977142412,
				"y": -1.8261668623,
				"z": -0.2825740135,
				"element": "C" 
			},
			{
				"x": -0.5508327073,
				"y": -0.5581281453,
				"z": -1.0023805501,
				"element": "S" 
			},
			{
				"x": -0.1007188935,
				"y": 0.8862502415,
				"z": -0.0360509589,
				"element": "C" 
			},
			{
				"x": 0.2792990578,
				"y": 2.0805597354,
				"z": -0.6734946306,
				"element": "C" 
			},
			{
				"x": 0.5379232767,
				"y": 3.2299661089,
				"z": 0.0793634406,
				"element": "C" 
			},
			{
				"x": 0.4409776149,
				"y": 3.1987297743,
				"z": 1.4674697448,
				"element": "C" 
			},
			{
				"x": 0.0883726367,
				"y": 2.0091999544,
				"z": 2.1090871114,
				"element": "C" 
			},
			{
				"x": -0.1886883046,
				"y": 0.8667500449,
				"z": 1.3627118173,
				"element": "C" 
			},
			{
				"x": 0.4169704741,
				"y": 2.1436900821,
				"z": -2.0922855789,
				"element": "N" 
			},
			{
				"x": -0.4822757793,
				"y": 2.7921762879,
				"z": -2.9635414933,
				"element": "C" 
			},
			{
				"x": -1.4851085338,
				"y": 3.3872059373,
				"z": -2.6378078687,
				"element": "O" 
			},
			{
				"x": 0.0708835024,
				"y": 2.5915816247,
				"z": -4.3444175822,
				"element": "C" 
			},
			{
				"x": 1.2032111473,
				"y": 1.887651806,
				"z": -4.2606678607,
				"element": "C" 
			},
			{
				"x": 1.4774946119,
				"y": 1.5745185751,
				"z": -2.8194425202,
				"element": "C" 
			},
			{
				"x": 2.4217680762,
				"y": 0.9696939032,
				"z": -2.3570916104,
				"element": "O" 
			},
			{
				"x": -0.0941173842,
				"y": -2.9993810884,
				"z": 0.1987737435,
				"element": "C" 
			},
			{
				"x": 0.6971616019,
				"y": -4.0348499775,
				"z": 0.6995121932,
				"element": "C" 
			},
			{
				"x": 3.7657526571,
				"y": -2.610378614,
				"z": 0.2807537332,
				"element": "H" 
			},
			{
				"x": 2.3534960309,
				"y": -0.79029273,
				"z": -0.6597493366,
				"element": "H" 
			},
			{
				"x": 0.8243455257,
				"y": 4.1400729747,
				"z": -0.4373279171,
				"element": "H" 
			},
			{
				"x": 0.6441475774,
				"y": 4.0952916207,
				"z": 2.0445688288,
				"element": "H" 
			},
			{
				"x": 0.0137608021,
				"y": 1.9739390742,
				"z": 3.1918911955,
				"element": "H" 
			},
			{
				"x": -0.4811982906,
				"y": -0.0521795224,
				"z": 1.8598313094,
				"element": "H" 
			},
			{
				"x": -0.4295900458,
				"y": 2.9874905575,
				"z": -5.2182560236,
				"element": "H" 
			},
			{
				"x": 1.8694918531,
				"y": 1.5600393828,
				"z": -5.0477539674,
				"element": "H" 
			},
			{
				"x": -1.1744047267,
				"y": -3.1040811916,
				"z": 0.1868353368,
				"element": "H" 
			},
			{
				"x": 0.2435901656,
				"y": -4.9463501644,
				"z": 1.0727307871,
				"element": "H" 
			}
		],
		 "valence_orbital": [ 
			{
				"type": "occ",
				"energy": -0.27715,
				"method": "rhf"
			},
			{
				"type": "occ",
				"energy": -0.26713,
				"method": "rhf"
			},
			{
				"type": "occ",
				"energy": -0.26293,
				"method": "rhf"
			},
			{
				"type": "occ",
				"energy": -0.25861,
				"method": "rhf"
			},
			{
				"type": "occ",
				"energy": -0.22132,
				"method": "rhf"
			},
			{
				"type": "unocc",
				"energy": -0.10006,
				"method": "rhf"
			},
			{
				"type": "unocc",
				"energy": -0.03302,
				"method": "rhf"
			},
			{
				"type": "unocc",
				"energy": -0.02582,
				"method": "rhf"
			},
			{
				"type": "unocc",
				"energy": -0.02354,
				"method": "rhf"
			},
			{
				"type": "unocc",
				"energy": -0.01398,
				"method": "rhf"
			}
		],
		"cosmo_sigma_profile": { 
			"-0.025": 0.0,
			"-0.024": 0.0,
			"-0.023": 0.0,
			"-0.022": 0.0,
			"-0.021": 0.0,
			"-0.02": 0.0,
			"-0.019": 0.0,
			"-0.018": 0.0,
			"-0.017": 0.0,
			"-0.016": 0.0,
			"-0.015": 0.0,
			"-0.014": 0.0,
			"-0.013": 0.0,
			"-0.012": 0.0,
			"-0.011": 0.0,
			"-0.01": 2.33424764155,
			"-0.009": 3.61247506902,
			"-0.008": 5.3582466701,
			"-0.007": 14.2421244254,
			"-0.006": 19.1582343528,
			"-0.005": 20.6769081443,
			"-0.004": 17.6885650161,
			"-0.003": 22.9628285326,
			"-0.002": 21.0545186429,
			"-0.001": 21.032915324,
			"0.0": 23.0472548601,
			"0.001": 24.0102443387,
			"0.002": 30.7732269697,
			"0.003": 36.4698901562,
			"0.004": 24.1642160478,
			"0.005": 10.671138941,
			"0.006": 4.9617025109,
			"0.007": 4.48405323222,
			"0.008": 4.17342172038,
			"0.009": 4.74694985861,
			"0.01": 6.45986230217,
			"0.011": 5.58327848617,
			"0.012": 0.792340625336,
			"0.013": 0.0,
			"0.014": 0.0,
			"0.015": 0.0,
			"0.016": 0.0,
			"0.017": 0.0,
			"0.018": 0.0,
			"0.019": 0.0,
			"0.02": 0.0,
			"0.021": 0.0,
			"0.022": 0.0,
			"0.023": 0.0,
			"0.024": 0.0,
			"0.025": 0.0
		}
	}
}
