{
	 "smiles": "CC1=NN(CC2=C(Cl)C=C(Cl)C=C2)C(=O)C1", 
	 "Tm": 402.15, 
	 "num_atms": 26, 
	 "gaussian": { 
		 "optdone": 1, 
		 "sigma_profile": "yes", 
		 "theory": "DFT", 
		 "functional": "B3LYP", 
		 "basiset": "6-31G**", 
		 "properties": { 
			 "R2extent": 7185.6988, 
			 "electric_dipole_moment_norm": 3.18063881319, 
			 "electric_quadrupole_moment_norm": 8.95193451719, 
			 "total_energy": -1530.29767073, 
			 "HOMO_LUMO_gap": 0.20093, 
			 "cosmo_polarized_energy": -11.97, 
			 "cosmo_cavitation_energy": 34.14, 
			 "cosmo_dispersion_energy": -24.35, 
			 "cosmo_repulsion_energy": 1.93, 
			 "cosmo_total_nonelectrostatic_energy": 11.73, 
			 "SMD_solvation_energy": 4.73 
		},
		"coords": [
			{
				"x": 2.8720299691,
				"y": 0.0345820534,
				"z": 2.5880038304,
				"element": "C" 
			},
			{
				"x": 2.038743483,
				"y": -0.1413343018,
				"z": 1.3620760534,
				"element": "C" 
			},
			{
				"x": 1.3402894409,
				"y": -1.2071672375,
				"z": 1.1612328081,
				"element": "N" 
			},
			{
				"x": 0.6914367426,
				"y": -1.0692288627,
				"z": -0.0671281879,
				"element": "N" 
			},
			{
				"x": -0.2046372422,
				"y": -2.1072705704,
				"z": -0.5510980996,
				"element": "C" 
			},
			{
				"x": -1.6201438412,
				"y": -1.9826667231,
				"z": -0.0152326755,
				"element": "C" 
			},
			{
				"x": -2.1748229696,
				"y": -2.8496623854,
				"z": 0.9350716593,
				"element": "C" 
			},
			{
				"x": -1.2507304127,
				"y": -4.2008310364,
				"z": 1.5833848925,
				"element": "Cl" 
			},
			{
				"x": -3.4805274703,
				"y": -2.6923496626,
				"z": 1.4058633848,
				"element": "C" 
			},
			{
				"x": -4.2467134657,
				"y": -1.639583215,
				"z": 0.9149463894,
				"element": "C" 
			},
			{
				"x": -5.8882778836,
				"y": -1.4324507472,
				"z": 1.5017409975,
				"element": "Cl" 
			},
			{
				"x": -3.7347030952,
				"y": -0.7538354403,
				"z": -0.0330957352,
				"element": "C" 
			},
			{
				"x": -2.432237969,
				"y": -0.9386833808,
				"z": -0.4861819442,
				"element": "C" 
			},
			{
				"x": 0.928442892,
				"y": 0.1347157858,
				"z": -0.6947518967,
				"element": "C" 
			},
			{
				"x": 0.4414344515,
				"y": 0.503978363,
				"z": -1.7520456484,
				"element": "O" 
			},
			{
				"x": 1.9056486811,
				"y": 0.8527950807,
				"z": 0.2375184397,
				"element": "C" 
			},
			{
				"x": 3.928918593,
				"y": 0.1738161134,
				"z": 2.3300223451,
				"element": "H" 
			},
			{
				"x": 2.560696381,
				"y": 0.92215199,
				"z": 3.1520102212,
				"element": "H" 
			},
			{
				"x": 2.7782998676,
				"y": -0.8428131219,
				"z": 3.2310919428,
				"element": "H" 
			},
			{
				"x": 0.2322024401,
				"y": -3.0726379498,
				"z": -0.2963849258,
				"element": "H" 
			},
			{
				"x": -0.2203361762,
				"y": -2.0032901684,
				"z": -1.639566869,
				"element": "H" 
			},
			{
				"x": -3.8849426439,
				"y": -3.3783508043,
				"z": 2.1395999779,
				"element": "H" 
			},
			{
				"x": -4.3458945525,
				"y": 0.0581435292,
				"z": -0.4100127643,
				"element": "H" 
			},
			{
				"x": -2.0163696239,
				"y": -0.2577458595,
				"z": -1.2236609559,
				"element": "H" 
			},
			{
				"x": 2.853805578,
				"y": 1.0558828657,
				"z": -0.2737409943,
				"element": "H" 
			},
			{
				"x": 1.4997888262,
				"y": 1.8193356857,
				"z": 0.5565377547,
				"element": "H" 
			}
		],
		 "valence_orbital": [ 
			{
				"type": "occ",
				"energy": -0.3139,
				"method": "rhf"
			},
			{
				"type": "occ",
				"energy": -0.26322,
				"method": "rhf"
			},
			{
				"type": "occ",
				"energy": -0.25937,
				"method": "rhf"
			},
			{
				"type": "occ",
				"energy": -0.2499,
				"method": "rhf"
			},
			{
				"type": "occ",
				"energy": -0.23314,
				"method": "rhf"
			},
			{
				"type": "unocc",
				"energy": -0.03221,
				"method": "rhf"
			},
			{
				"type": "unocc",
				"energy": -0.02503,
				"method": "rhf"
			},
			{
				"type": "unocc",
				"energy": -0.02327,
				"method": "rhf"
			},
			{
				"type": "unocc",
				"energy": 0.00662,
				"method": "rhf"
			},
			{
				"type": "unocc",
				"energy": 0.03658,
				"method": "rhf"
			}
		],
		"cosmo_sigma_profile": { 
			"-0.025": 0.0,
			"-0.024": 0.0,
			"-0.023": 0.0,
			"-0.022": 0.0,
			"-0.021": 0.0,
			"-0.02": 0.0,
			"-0.019": 0.0,
			"-0.018": 0.0,
			"-0.017": 0.0,
			"-0.016": 0.0,
			"-0.015": 0.0,
			"-0.014": 0.0,
			"-0.013": 0.0,
			"-0.012": 0.0,
			"-0.011": 0.0,
			"-0.01": 0.0,
			"-0.009": 0.764887884123,
			"-0.008": 7.2053140791,
			"-0.007": 8.32298663288,
			"-0.006": 15.0319334067,
			"-0.005": 20.0256990488,
			"-0.004": 19.0768790256,
			"-0.003": 18.8677923658,
			"-0.002": 20.6249391829,
			"-0.001": 22.1916868771,
			"0.0": 20.797946388,
			"0.001": 27.0734867736,
			"0.002": 25.7800346841,
			"0.003": 17.7281946689,
			"0.004": 20.3037294287,
			"0.005": 7.59648150781,
			"0.006": 4.07241254298,
			"0.007": 2.19879068921,
			"0.008": 3.0857998424,
			"0.009": 2.81446052273,
			"0.01": 1.5369833232,
			"0.011": 2.5431907627,
			"0.012": 3.90425182792,
			"0.013": 4.42977161202,
			"0.014": 1.43222825866,
			"0.015": 0.0154525410933,
			"0.016": 0.0,
			"0.017": 0.0,
			"0.018": 0.0,
			"0.019": 0.0,
			"0.02": 0.0,
			"0.021": 0.0,
			"0.022": 0.0,
			"0.023": 0.0,
			"0.024": 0.0,
			"0.025": 0.0
		}
	}
}
