{
	 "smiles": "CC(=O)NC1=C(N)C=C(F)C(F)=C1", 
	 "Tm": 436.15, 
	 "num_atms": 21, 
	 "gaussian": { 
		 "optdone": 1, 
		 "sigma_profile": "yes", 
		 "theory": "DFT", 
		 "functional": "B3LYP", 
		 "basiset": "6-31G**", 
		 "properties": { 
			 "R2extent": 3154.2311, 
			 "electric_dipole_moment_norm": 2.90545543074, 
			 "electric_quadrupole_moment_norm": 16.8389448301, 
			 "total_energy": -694.078385649, 
			 "HOMO_LUMO_gap": 0.19282, 
			 "cosmo_polarized_energy": -14.7, 
			 "cosmo_cavitation_energy": 26.67, 
			 "cosmo_dispersion_energy": -18.62, 
			 "cosmo_repulsion_energy": 1.45, 
			 "cosmo_total_nonelectrostatic_energy": 9.51, 
			 "SMD_solvation_energy": 6.79 
		},
		"coords": [
			{
				"x": -0.7459427182,
				"y": 2.3175425325,
				"z": -1.3706751256,
				"element": "C" 
			},
			{
				"x": -1.1832096671,
				"y": 2.2409078077,
				"z": 0.0813199873,
				"element": "C" 
			},
			{
				"x": -2.1016108554,
				"y": 2.9098293903,
				"z": 0.529123254,
				"element": "O" 
			},
			{
				"x": -0.5024395519,
				"y": 1.3541516838,
				"z": 0.9017602575,
				"element": "N" 
			},
			{
				"x": 0.6658427993,
				"y": 0.5936248696,
				"z": 0.6142723484,
				"element": "C" 
			},
			{
				"x": 0.5909668685,
				"y": -0.8167891013,
				"z": 0.6981394844,
				"element": "C" 
			},
			{
				"x": -0.5971094625,
				"y": -1.4271623391,
				"z": 1.0817739404,
				"element": "N" 
			},
			{
				"x": 1.7495996845,
				"y": -1.5696620325,
				"z": 0.4437424174,
				"element": "C" 
			},
			{
				"x": 2.9349816044,
				"y": -0.9344853184,
				"z": 0.1085767196,
				"element": "C" 
			},
			{
				"x": 4.0352978839,
				"y": -1.6621987649,
				"z": -0.1447823029,
				"element": "F" 
			},
			{
				"x": 3.0062858802,
				"y": 0.455177258,
				"z": 0.025893629,
				"element": "C" 
			},
			{
				"x": 4.1744498375,
				"y": 1.0439852058,
				"z": -0.295406394,
				"element": "F" 
			},
			{
				"x": 1.8785930011,
				"y": 1.2143364021,
				"z": 0.2943375609,
				"element": "C" 
			},
			{
				"x": -0.4329730183,
				"y": 1.3493459982,
				"z": -1.7687472936,
				"element": "H" 
			},
			{
				"x": -1.5821994266,
				"y": 2.7126232379,
				"z": -1.9480042767,
				"element": "H" 
			},
			{
				"x": 0.0976503806,
				"y": 3.0075337496,
				"z": -1.4766692742,
				"element": "H" 
			},
			{
				"x": -0.8413684464,
				"y": 1.3667150687,
				"z": 1.8584238142,
				"element": "H" 
			},
			{
				"x": -1.4273330337,
				"y": -0.8828658833,
				"z": 0.8869061093,
				"element": "H" 
			},
			{
				"x": -0.6918753283,
				"y": -2.3993808805,
				"z": 0.8248365542,
				"element": "H" 
			},
			{
				"x": 1.7374460972,
				"y": -2.6532769322,
				"z": 0.4990007678,
				"element": "H" 
			},
			{
				"x": 1.9485474713,
				"y": 2.2957480479,
				"z": 0.2607778226,
				"element": "H" 
			}
		],
		 "valence_orbital": [ 
			{
				"type": "occ",
				"energy": -0.31765,
				"method": "rhf"
			},
			{
				"type": "occ",
				"energy": -0.2836,
				"method": "rhf"
			},
			{
				"type": "occ",
				"energy": -0.25644,
				"method": "rhf"
			},
			{
				"type": "occ",
				"energy": -0.25206,
				"method": "rhf"
			},
			{
				"type": "occ",
				"energy": -0.21596,
				"method": "rhf"
			},
			{
				"type": "unocc",
				"energy": -0.02314,
				"method": "rhf"
			},
			{
				"type": "unocc",
				"energy": -0.00085,
				"method": "rhf"
			},
			{
				"type": "unocc",
				"energy": 0.02496,
				"method": "rhf"
			},
			{
				"type": "unocc",
				"energy": 0.06402,
				"method": "rhf"
			},
			{
				"type": "unocc",
				"energy": 0.06854,
				"method": "rhf"
			}
		],
		"cosmo_sigma_profile": { 
			"-0.025": 0.0,
			"-0.024": 0.0,
			"-0.023": 0.0,
			"-0.022": 0.0,
			"-0.021": 0.0,
			"-0.02": 0.0,
			"-0.019": 0.0,
			"-0.018": 0.0,
			"-0.017": 0.0,
			"-0.016": 0.0,
			"-0.015": 0.0,
			"-0.014": 0.56016323754,
			"-0.013": 2.14300623257,
			"-0.012": 2.81617974634,
			"-0.011": 2.79730540877,
			"-0.01": 4.0568213916,
			"-0.009": 3.88567233345,
			"-0.008": 6.77231711616,
			"-0.007": 7.50412749307,
			"-0.006": 8.01731885904,
			"-0.005": 10.3683533787,
			"-0.004": 10.372198757,
			"-0.003": 10.2477231777,
			"-0.002": 11.7146284302,
			"-0.001": 14.5850982646,
			"0.0": 15.9193255825,
			"0.001": 16.9178440288,
			"0.002": 14.8505462517,
			"0.003": 14.4427099307,
			"0.004": 23.1815351073,
			"0.005": 5.65133358095,
			"0.006": 2.10974530535,
			"0.007": 2.32927889902,
			"0.008": 2.06230805084,
			"0.009": 1.07863858646,
			"0.01": 1.78772280087,
			"0.011": 2.39552109913,
			"0.012": 2.87066519555,
			"0.013": 5.23195518935,
			"0.014": 4.60569045659,
			"0.015": 0.811780871179,
			"0.016": 0.0,
			"0.017": 0.0,
			"0.018": 0.0,
			"0.019": 0.0,
			"0.02": 0.0,
			"0.021": 0.0,
			"0.022": 0.0,
			"0.023": 0.0,
			"0.024": 0.0,
			"0.025": 0.0
		}
	}
}
