{
	 "smiles": "N#CCC1=CC=C(OC2=NC=CC=N2)C=C1", 
	 "Tm": 344.15, 
	 "num_atms": 25, 
	 "gaussian": { 
		 "optdone": 1, 
		 "sigma_profile": "yes", 
		 "theory": "DFT", 
		 "functional": "B3LYP", 
		 "basiset": "6-31G**", 
		 "properties": { 
			 "R2extent": 5147.8119, 
			 "electric_dipole_moment_norm": 3.07115889201, 
			 "electric_quadrupole_moment_norm": 37.0089577463, 
			 "total_energy": -702.149239304, 
			 "HOMO_LUMO_gap": 0.19278, 
			 "cosmo_polarized_energy": -16.62, 
			 "cosmo_cavitation_energy": 31.48, 
			 "cosmo_dispersion_energy": -22.31, 
			 "cosmo_repulsion_energy": 1.74, 
			 "cosmo_total_nonelectrostatic_energy": 10.92, 
			 "SMD_solvation_energy": 4.6 
		},
		"coords": [
			{
				"x": -0.6465002206,
				"y": 4.4325943508,
				"z": 4.1086387839,
				"element": "N" 
			},
			{
				"x": -0.4581113154,
				"y": 3.3146658216,
				"z": 4.3566192328,
				"element": "C" 
			},
			{
				"x": -0.2366755166,
				"y": 1.8991304257,
				"z": 4.6665364941,
				"element": "C" 
			},
			{
				"x": -0.1380681122,
				"y": 0.9957579447,
				"z": 3.4423094529,
				"element": "C" 
			},
			{
				"x": -0.7987174552,
				"y": 1.298002565,
				"z": 2.2460195157,
				"element": "C" 
			},
			{
				"x": -0.733935135,
				"y": 0.4319922859,
				"z": 1.1566010407,
				"element": "C" 
			},
			{
				"x": 0.0040906611,
				"y": -0.7456849852,
				"z": 1.2638563353,
				"element": "C" 
			},
			{
				"x": 0.0223740534,
				"y": -1.6949849817,
				"z": 0.247761188,
				"element": "O" 
			},
			{
				"x": 0.5186724419,
				"y": -1.4001531157,
				"z": -0.9799240472,
				"element": "C" 
			},
			{
				"x": 1.1087539888,
				"y": -0.2219329884,
				"z": -1.1766925504,
				"element": "N" 
			},
			{
				"x": 1.5906486134,
				"y": -0.0158518637,
				"z": -2.4083285947,
				"element": "C" 
			},
			{
				"x": 1.4889490826,
				"y": -0.9641665889,
				"z": -3.4214396162,
				"element": "C" 
			},
			{
				"x": 0.847286534,
				"y": -2.1560010241,
				"z": -3.0794969324,
				"element": "C" 
			},
			{
				"x": 0.3541978593,
				"y": -2.3905946652,
				"z": -1.8620832974,
				"element": "N" 
			},
			{
				"x": 0.6665363062,
				"y": -1.06650091,
				"z": 2.4456033228,
				"element": "C" 
			},
			{
				"x": 0.5936884031,
				"y": -0.1928397586,
				"z": 3.529762995,
				"element": "C" 
			},
			{
				"x": 0.6774040957,
				"y": 1.8210547271,
				"z": 5.2661394493,
				"element": "H" 
			},
			{
				"x": -1.058883162,
				"y": 1.57119438,
				"z": 5.317730998,
				"element": "H" 
			},
			{
				"x": -1.3635602134,
				"y": 2.2214232734,
				"z": 2.1594326567,
				"element": "H" 
			},
			{
				"x": -1.2454693897,
				"y": 0.6698107514,
				"z": 0.2311652917,
				"element": "H" 
			},
			{
				"x": 2.0748026445,
				"y": 0.9442979649,
				"z": -2.5775543982,
				"element": "H" 
			},
			{
				"x": 1.8828053449,
				"y": -0.7882648743,
				"z": -4.4153444644,
				"element": "H" 
			},
			{
				"x": 0.7211533995,
				"y": -2.9550153349,
				"z": -3.8082870249,
				"element": "H" 
			},
			{
				"x": 1.2299924658,
				"y": -1.9915295218,
				"z": 2.5036876413,
				"element": "H" 
			},
			{
				"x": 1.1146646261,
				"y": -0.4429038779,
				"z": 4.4504865277,
				"element": "H" 
			}
		],
		 "valence_orbital": [ 
			{
				"type": "occ",
				"energy": -0.32451,
				"method": "rhf"
			},
			{
				"type": "occ",
				"energy": -0.27329,
				"method": "rhf"
			},
			{
				"type": "occ",
				"energy": -0.26513,
				"method": "rhf"
			},
			{
				"type": "occ",
				"energy": -0.2601,
				"method": "rhf"
			},
			{
				"type": "occ",
				"energy": -0.24126,
				"method": "rhf"
			},
			{
				"type": "unocc",
				"energy": -0.04848,
				"method": "rhf"
			},
			{
				"type": "unocc",
				"energy": -0.0242,
				"method": "rhf"
			},
			{
				"type": "unocc",
				"energy": -0.01623,
				"method": "rhf"
			},
			{
				"type": "unocc",
				"energy": -0.00611,
				"method": "rhf"
			},
			{
				"type": "unocc",
				"energy": 0.03018,
				"method": "rhf"
			}
		],
		"cosmo_sigma_profile": { 
			"-0.025": 0.0,
			"-0.024": 0.0,
			"-0.023": 0.0,
			"-0.022": 0.0,
			"-0.021": 0.0,
			"-0.02": 0.0,
			"-0.019": 0.0,
			"-0.018": 0.0,
			"-0.017": 0.0,
			"-0.016": 0.0,
			"-0.015": 0.0,
			"-0.014": 0.0,
			"-0.013": 0.0,
			"-0.012": 0.0,
			"-0.011": 0.0,
			"-0.01": 0.0219245983897,
			"-0.009": 4.51203273234,
			"-0.008": 12.0027395758,
			"-0.007": 16.5976119317,
			"-0.006": 20.1171940897,
			"-0.005": 16.950130722,
			"-0.004": 14.9734506628,
			"-0.003": 12.0631869235,
			"-0.002": 15.0359843374,
			"-0.001": 16.3800649571,
			"0.0": 18.6061636375,
			"0.001": 15.4096484959,
			"0.002": 12.9248271054,
			"0.003": 14.2912545602,
			"0.004": 12.373109143,
			"0.005": 6.56099069909,
			"0.006": 6.83238097099,
			"0.007": 4.5272335857,
			"0.008": 6.18661648353,
			"0.009": 6.46737991281,
			"0.01": 5.34279681453,
			"0.011": 6.11005707709,
			"0.012": 4.59828349502,
			"0.013": 3.61116725635,
			"0.014": 1.1502261799,
			"0.015": 0.857408450519,
			"0.016": 0.0657307278277,
			"0.017": 0.0,
			"0.018": 0.0,
			"0.019": 0.0,
			"0.02": 0.0,
			"0.021": 0.0,
			"0.022": 0.0,
			"0.023": 0.0,
			"0.024": 0.0,
			"0.025": 0.0
		}
	}
}
