{
	 "smiles": "OC1=C(C#N)C(F)=CC=C1", 
	 "Tm": 429.15, 
	 "num_atms": 14, 
	 "gaussian": { 
		 "optdone": 1, 
		 "sigma_profile": "yes", 
		 "theory": "DFT", 
		 "functional": "B3LYP", 
		 "basiset": "6-31G**", 
		 "properties": { 
			 "R2extent": 1439.0571, 
			 "electric_dipole_moment_norm": 6.47821145147, 
			 "electric_quadrupole_moment_norm": 17.045965364, 
			 "total_energy": -498.939397624, 
			 "HOMO_LUMO_gap": 0.19886, 
			 "cosmo_polarized_energy": -14.91, 
			 "cosmo_cavitation_energy": 20.25, 
			 "cosmo_dispersion_energy": -14.39, 
			 "cosmo_repulsion_energy": 1.15, 
			 "cosmo_total_nonelectrostatic_energy": 7.01, 
			 "SMD_solvation_energy": 5.77 
		},
		"coords": [
			{
				"x": -2.381604795,
				"y": 1.3582344682,
				"z": 0.6683282893,
				"element": "O" 
			},
			{
				"x": -1.4481254552,
				"y": 0.4683345498,
				"z": 0.2582158762,
				"element": "C" 
			},
			{
				"x": -0.3038195422,
				"y": 0.3240146037,
				"z": 1.0745879836,
				"element": "C" 
			},
			{
				"x": -0.145912332,
				"y": 1.0829839212,
				"z": 2.2727308258,
				"element": "C" 
			},
			{
				"x": -0.0103353892,
				"y": 1.6979165457,
				"z": 3.2503108397,
				"element": "N" 
			},
			{
				"x": 0.6815130953,
				"y": -0.5912443428,
				"z": 0.6751674756,
				"element": "C" 
			},
			{
				"x": 1.7655394421,
				"y": -0.726201066,
				"z": 1.4509313399,
				"element": "F" 
			},
			{
				"x": 0.5725344881,
				"y": -1.3506819404,
				"z": -0.4801164697,
				"element": "C" 
			},
			{
				"x": -0.5679394842,
				"y": -1.1883156173,
				"z": -1.2678895473,
				"element": "C" 
			},
			{
				"x": -1.5724953316,
				"y": -0.2904075454,
				"z": -0.9097602372,
				"element": "C" 
			},
			{
				"x": -3.1149787202,
				"y": 1.3748075828,
				"z": 0.0393458811,
				"element": "H" 
			},
			{
				"x": 1.3634448196,
				"y": -2.0430956748,
				"z": -0.7418341261,
				"element": "H" 
			},
			{
				"x": -0.6761900677,
				"y": -1.7715587624,
				"z": -2.1769282532,
				"element": "H" 
			},
			{
				"x": -2.4546307279,
				"y": -0.1753867224,
				"z": -1.5337898776,
				"element": "H" 
			}
		],
		 "valence_orbital": [ 
			{
				"type": "occ",
				"energy": -0.35371,
				"method": "rhf"
			},
			{
				"type": "occ",
				"energy": -0.34777,
				"method": "rhf"
			},
			{
				"type": "occ",
				"energy": -0.32761,
				"method": "rhf"
			},
			{
				"type": "occ",
				"energy": -0.26657,
				"method": "rhf"
			},
			{
				"type": "occ",
				"energy": -0.25183,
				"method": "rhf"
			},
			{
				"type": "unocc",
				"energy": -0.05297,
				"method": "rhf"
			},
			{
				"type": "unocc",
				"energy": -0.01419,
				"method": "rhf"
			},
			{
				"type": "unocc",
				"energy": 0.03287,
				"method": "rhf"
			},
			{
				"type": "unocc",
				"energy": 0.04925,
				"method": "rhf"
			},
			{
				"type": "unocc",
				"energy": 0.0694,
				"method": "rhf"
			}
		],
		"cosmo_sigma_profile": { 
			"-0.025": 0.0,
			"-0.024": 0.0,
			"-0.023": 0.0,
			"-0.022": 0.0,
			"-0.021": 0.0,
			"-0.02": 0.172158394131,
			"-0.019": 1.05803509603,
			"-0.018": 1.23329308676,
			"-0.017": 1.604402881,
			"-0.016": 1.04447488734,
			"-0.015": 0.300033100639,
			"-0.014": 0.467022486285,
			"-0.013": 1.0791308298,
			"-0.012": 2.0825899385,
			"-0.011": 0.869512686009,
			"-0.01": 0.645509778172,
			"-0.009": 1.45285589863,
			"-0.008": 4.71283757931,
			"-0.007": 7.07536263361,
			"-0.006": 6.35876813707,
			"-0.005": 5.70586232797,
			"-0.004": 4.13253024669,
			"-0.003": 5.23118738703,
			"-0.002": 8.63346115372,
			"-0.001": 16.0348774989,
			"0.0": 14.6430819999,
			"0.001": 11.3177253755,
			"0.002": 13.662403863,
			"0.003": 15.5512074394,
			"0.004": 5.18271468543,
			"0.005": 3.79256407282,
			"0.006": 4.72082795165,
			"0.007": 5.38031085016,
			"0.008": 5.6462438507,
			"0.009": 4.81650253786,
			"0.01": 3.14326081919,
			"0.011": 2.65722953435,
			"0.012": 2.43607318643,
			"0.013": 1.26155298884,
			"0.014": 0.00361737320702,
			"0.015": 0.0,
			"0.016": 0.0,
			"0.017": 0.0,
			"0.018": 0.0,
			"0.019": 0.0,
			"0.02": 0.0,
			"0.021": 0.0,
			"0.022": 0.0,
			"0.023": 0.0,
			"0.024": 0.0,
			"0.025": 0.0
		}
	}
}
