{
	 "smiles": "CN(C)C1=C(C=O)C(=O)N(C)C(=O)N1C", 
	 "Tm": 412.15, 
	 "num_atms": 28, 
	 "gaussian": { 
		 "optdone": 1, 
		 "sigma_profile": "yes", 
		 "theory": "DFT", 
		 "functional": "B3LYP", 
		 "basiset": "6-31G**", 
		 "properties": { 
			 "R2extent": 3315.0793, 
			 "electric_dipole_moment_norm": 7.42451376859, 
			 "electric_quadrupole_moment_norm": 17.1811526851, 
			 "total_energy": -740.720855116, 
			 "HOMO_LUMO_gap": 0.17713, 
			 "cosmo_polarized_energy": -24.42, 
			 "cosmo_cavitation_energy": 30.62, 
			 "cosmo_dispersion_energy": -21.72, 
			 "cosmo_repulsion_energy": 1.66, 
			 "cosmo_total_nonelectrostatic_energy": 10.56, 
			 "SMD_solvation_energy": 8.56 
		},
		"coords": [
			{
				"x": 2.2807137109,
				"y": -1.0311294104,
				"z": 0.8904618371,
				"element": "C" 
			},
			{
				"x": 0.8584074439,
				"y": -0.7246851529,
				"z": 0.9992758601,
				"element": "N" 
			},
			{
				"x": 0.2860879354,
				"y": -0.8777916607,
				"z": 2.3330140782,
				"element": "C" 
			},
			{
				"x": 0.1440348191,
				"y": -0.1362483127,
				"z": -0.0301995205,
				"element": "C" 
			},
			{
				"x": 0.61599505,
				"y": 0.9365973735,
				"z": -0.7690097305,
				"element": "C" 
			},
			{
				"x": 1.7318432084,
				"y": 1.7462047718,
				"z": -0.2512698643,
				"element": "C" 
			},
			{
				"x": 2.3286173675,
				"y": 2.6270508741,
				"z": -0.8389562569,
				"element": "O" 
			},
			{
				"x": -0.1193805996,
				"y": 1.3992467111,
				"z": -1.9499041944,
				"element": "C" 
			},
			{
				"x": 0.2756748376,
				"y": 2.219061515,
				"z": -2.7584379597,
				"element": "O" 
			},
			{
				"x": -1.4395005775,
				"y": 0.8701816822,
				"z": -2.0613104198,
				"element": "N" 
			},
			{
				"x": -2.3149517755,
				"y": 1.3843106523,
				"z": -3.1196503607,
				"element": "C" 
			},
			{
				"x": -1.9532660608,
				"y": -0.1511275216,
				"z": -1.2941428102,
				"element": "C" 
			},
			{
				"x": -3.0725280495,
				"y": -0.6113346186,
				"z": -1.463720417,
				"element": "O" 
			},
			{
				"x": -1.0864684478,
				"y": -0.7021571188,
				"z": -0.3222114596,
				"element": "N" 
			},
			{
				"x": -1.4978532505,
				"y": -2.0147731434,
				"z": 0.1961281091,
				"element": "C" 
			},
			{
				"x": 2.898136624,
				"y": -0.3862339384,
				"z": 1.5286685204,
				"element": "H" 
			},
			{
				"x": 2.4494941464,
				"y": -2.0724946309,
				"z": 1.1961463666,
				"element": "H" 
			},
			{
				"x": 2.6084093121,
				"y": -0.9162753521,
				"z": -0.1427176536,
				"element": "H" 
			},
			{
				"x": 0.8718379771,
				"y": -0.2944625311,
				"z": 3.0560055224,
				"element": "H" 
			},
			{
				"x": -0.7371210101,
				"y": -0.5023931489,
				"z": 2.3545928193,
				"element": "H" 
			},
			{
				"x": 0.2857468383,
				"y": -1.9255814117,
				"z": 2.6600738307,
				"element": "H" 
			},
			{
				"x": 1.9779314629,
				"y": 1.5194083102,
				"z": 0.8091503098,
				"element": "H" 
			},
			{
				"x": -1.7843716426,
				"y": 2.2001479104,
				"z": -3.6049492837,
				"element": "H" 
			},
			{
				"x": -2.5401849772,
				"y": 0.5956266268,
				"z": -3.8416887643,
				"element": "H" 
			},
			{
				"x": -3.2535266317,
				"y": 1.7319484574,
				"z": -2.6840659291,
				"element": "H" 
			},
			{
				"x": -2.1022013723,
				"y": -2.5025810503,
				"z": -0.5662490663,
				"element": "H" 
			},
			{
				"x": -0.6067571156,
				"y": -2.6026409428,
				"z": 0.4130561842,
				"element": "H" 
			},
			{
				"x": -2.1057192229,
				"y": -1.9233749395,
				"z": 1.1003102526,
				"element": "H" 
			}
		],
		 "valence_orbital": [ 
			{
				"type": "occ",
				"energy": -0.27845,
				"method": "rhf"
			},
			{
				"type": "occ",
				"energy": -0.269,
				"method": "rhf"
			},
			{
				"type": "occ",
				"energy": -0.25714,
				"method": "rhf"
			},
			{
				"type": "occ",
				"energy": -0.23475,
				"method": "rhf"
			},
			{
				"type": "occ",
				"energy": -0.2298,
				"method": "rhf"
			},
			{
				"type": "unocc",
				"energy": -0.05267,
				"method": "rhf"
			},
			{
				"type": "unocc",
				"energy": -0.00999,
				"method": "rhf"
			},
			{
				"type": "unocc",
				"energy": 0.02918,
				"method": "rhf"
			},
			{
				"type": "unocc",
				"energy": 0.05263,
				"method": "rhf"
			},
			{
				"type": "unocc",
				"energy": 0.08377,
				"method": "rhf"
			}
		],
		"cosmo_sigma_profile": { 
			"-0.025": 0.0,
			"-0.024": 0.0,
			"-0.023": 0.0,
			"-0.022": 0.0,
			"-0.021": 0.0,
			"-0.02": 0.0,
			"-0.019": 0.0,
			"-0.018": 0.0,
			"-0.017": 0.0,
			"-0.016": 0.0,
			"-0.015": 0.0,
			"-0.014": 0.0,
			"-0.013": 0.0,
			"-0.012": 0.0,
			"-0.011": 0.0,
			"-0.01": 0.0,
			"-0.009": 0.0,
			"-0.008": 0.477099497214,
			"-0.007": 4.39699987444,
			"-0.006": 16.1333553402,
			"-0.005": 35.8850716402,
			"-0.004": 36.9811519181,
			"-0.003": 37.6765631001,
			"-0.002": 23.1358718233,
			"-0.001": 10.0318005998,
			"0.0": 6.02737492156,
			"0.001": 4.59817205132,
			"0.002": 3.2484859903,
			"0.003": 3.53672666088,
			"0.004": 4.38516504116,
			"0.005": 3.67452878176,
			"0.006": 4.23191033758,
			"0.007": 3.17701352902,
			"0.008": 3.59543538755,
			"0.009": 3.7488689003,
			"0.01": 4.43888362872,
			"0.011": 6.08231222073,
			"0.012": 11.631641826,
			"0.013": 7.51520487113,
			"0.014": 2.33606714487,
			"0.015": 1.94691455971,
			"0.016": 1.34314414771,
			"0.017": 1.15686230853,
			"0.018": 0.611038234943,
			"0.019": 0.00590033078826,
			"0.02": 0.0,
			"0.021": 0.0,
			"0.022": 0.0,
			"0.023": 0.0,
			"0.024": 0.0,
			"0.025": 0.0
		}
	}
}
