{
	 "smiles": "CC(=O)C1=C(Cl)N=C2C=CC=CN12", 
	 "Tm": 390.15, 
	 "num_atms": 20, 
	 "gaussian": { 
		 "optdone": 1, 
		 "sigma_profile": "yes", 
		 "theory": "DFT", 
		 "functional": "B3LYP", 
		 "basiset": "6-31G**", 
		 "properties": { 
			 "R2extent": 3410.5006, 
			 "electric_dipole_moment_norm": 2.34737609471, 
			 "electric_quadrupole_moment_norm": 13.0279233863, 
			 "total_energy": -992.096914894, 
			 "HOMO_LUMO_gap": 0.17386, 
			 "cosmo_polarized_energy": -9.25, 
			 "cosmo_cavitation_energy": 25.84, 
			 "cosmo_dispersion_energy": -19.5, 
			 "cosmo_repulsion_energy": 1.5, 
			 "cosmo_total_nonelectrostatic_energy": 7.85, 
			 "SMD_solvation_energy": 3.28 
		},
		"coords": [
			{
				"x": -4.0971274983,
				"y": 0.8545846982,
				"z": 0.3077913209,
				"element": "C" 
			},
			{
				"x": -2.8804043104,
				"y": 0.3198637353,
				"z": -0.421384568,
				"element": "C" 
			},
			{
				"x": -2.9790861559,
				"y": -0.6820588411,
				"z": -1.133057174,
				"element": "O" 
			},
			{
				"x": -1.5987872676,
				"y": 1.0031003182,
				"z": -0.2700980961,
				"element": "C" 
			},
			{
				"x": -1.1535447463,
				"y": 2.1335569487,
				"z": 0.4402118754,
				"element": "C" 
			},
			{
				"x": -2.1107524757,
				"y": 3.1581153127,
				"z": 1.4591588795,
				"element": "Cl" 
			},
			{
				"x": 0.1428917242,
				"y": 2.4012230117,
				"z": 0.2810517687,
				"element": "N" 
			},
			{
				"x": 0.591265367,
				"y": 1.4434817666,
				"z": -0.5480834739,
				"element": "C" 
			},
			{
				"x": 1.8892471198,
				"y": 1.2413733707,
				"z": -1.0538737656,
				"element": "C" 
			},
			{
				"x": 2.1188103971,
				"y": 0.1793775287,
				"z": -1.8998696022,
				"element": "C" 
			},
			{
				"x": 1.0582589854,
				"y": -0.6926338466,
				"z": -2.2511896342,
				"element": "C" 
			},
			{
				"x": -0.2060042618,
				"y": -0.4958239491,
				"z": -1.758614851,
				"element": "C" 
			},
			{
				"x": -0.4301659403,
				"y": 0.5651755603,
				"z": -0.9147734564,
				"element": "N" 
			},
			{
				"x": -4.3208626168,
				"y": 1.8828808389,
				"z": 0.0081967223,
				"element": "H" 
			},
			{
				"x": -3.9402412822,
				"y": 0.8639985142,
				"z": 1.3906067116,
				"element": "H" 
			},
			{
				"x": -4.9403505409,
				"y": 0.2075734513,
				"z": 0.0630547897,
				"element": "H" 
			},
			{
				"x": 2.6660327962,
				"y": 1.9352331777,
				"z": -0.7559736455,
				"element": "H" 
			},
			{
				"x": 3.1124223857,
				"y": 0.0067292512,
				"z": -2.3002549298,
				"element": "H" 
			},
			{
				"x": 1.2297014429,
				"y": -1.5309850932,
				"z": -2.9163634478,
				"element": "H" 
			},
			{
				"x": -1.0699031223,
				"y": -1.1072657542,
				"z": -1.9720354237,
				"element": "H" 
			}
		],
		 "valence_orbital": [ 
			{
				"type": "occ",
				"energy": -0.32361,
				"method": "rhf"
			},
			{
				"type": "occ",
				"energy": -0.3011,
				"method": "rhf"
			},
			{
				"type": "occ",
				"energy": -0.25661,
				"method": "rhf"
			},
			{
				"type": "occ",
				"energy": -0.25569,
				"method": "rhf"
			},
			{
				"type": "occ",
				"energy": -0.23233,
				"method": "rhf"
			},
			{
				"type": "unocc",
				"energy": -0.05847,
				"method": "rhf"
			},
			{
				"type": "unocc",
				"energy": -0.04503,
				"method": "rhf"
			},
			{
				"type": "unocc",
				"energy": 0.00787,
				"method": "rhf"
			},
			{
				"type": "unocc",
				"energy": 0.03361,
				"method": "rhf"
			},
			{
				"type": "unocc",
				"energy": 0.08025,
				"method": "rhf"
			}
		],
		"cosmo_sigma_profile": { 
			"-0.025": 0.0,
			"-0.024": 0.0,
			"-0.023": 0.0,
			"-0.022": 0.0,
			"-0.021": 0.0,
			"-0.02": 0.0,
			"-0.019": 0.0,
			"-0.018": 0.0,
			"-0.017": 0.0,
			"-0.016": 0.0,
			"-0.015": 0.0,
			"-0.014": 0.0,
			"-0.013": 0.0,
			"-0.012": 0.0,
			"-0.011": 0.0,
			"-0.01": 0.0,
			"-0.009": 0.0857117396459,
			"-0.008": 4.26281847002,
			"-0.007": 7.33135667296,
			"-0.006": 10.0949499251,
			"-0.005": 12.5372668356,
			"-0.004": 12.3749233104,
			"-0.003": 15.8747516393,
			"-0.002": 23.2751545508,
			"-0.001": 24.2017745614,
			"0.0": 19.7396733362,
			"0.001": 18.854687283,
			"0.002": 15.8724831715,
			"0.003": 9.31042979461,
			"0.004": 6.99256144217,
			"0.005": 3.65744897585,
			"0.006": 4.3301226954,
			"0.007": 2.44437407779,
			"0.008": 3.14124692901,
			"0.009": 2.5350912608,
			"0.01": 2.75289618275,
			"0.011": 2.98065301047,
			"0.012": 3.42886127638,
			"0.013": 2.38842937185,
			"0.014": 1.13815451879,
			"0.015": 0.723648131536,
			"0.016": 0.141926957637,
			"0.017": 0.0,
			"0.018": 0.0,
			"0.019": 0.0,
			"0.02": 0.0,
			"0.021": 0.0,
			"0.022": 0.0,
			"0.023": 0.0,
			"0.024": 0.0,
			"0.025": 0.0
		}
	}
}
