{
	 "smiles": "CC1=C(SC(Br)=N1)C(O)=O", 
	 "Tm": 423.15, 
	 "num_atms": 14, 
	 "gaussian": { 
		 "optdone": 1, 
		 "sigma_profile": "yes", 
		 "theory": "DFT", 
		 "functional": "B3LYP", 
		 "basiset": "6-31G**", 
		 "properties": { 
			 "R2extent": 3431.2773, 
			 "electric_dipole_moment_norm": 2.82517637326, 
			 "electric_quadrupole_moment_norm": 10.1065018518, 
			 "total_energy": -3367.72471347, 
			 "HOMO_LUMO_gap": 0.18099, 
			 "cosmo_polarized_energy": -12.24, 
			 "cosmo_cavitation_energy": 22.85, 
			 "cosmo_dispersion_energy": -18.0, 
			 "cosmo_repulsion_energy": 1.42, 
			 "cosmo_total_nonelectrostatic_energy": 6.27, 
			 "SMD_solvation_energy": 2.21 
		},
		"coords": [
			{
				"x": 1.6942108765,
				"y": -1.3219926768,
				"z": 2.0139780396,
				"element": "C" 
			},
			{
				"x": 0.7880597489,
				"y": -0.2721437222,
				"z": 1.444000562,
				"element": "C" 
			},
			{
				"x": -0.3232231457,
				"y": -0.4864174271,
				"z": 0.6471191027,
				"element": "C" 
			},
			{
				"x": -1.0563228422,
				"y": 1.054322884,
				"z": 0.2312406364,
				"element": "S" 
			},
			{
				"x": 0.1930160546,
				"y": 1.8353567479,
				"z": 1.1623346669,
				"element": "C" 
			},
			{
				"x": 0.2312868959,
				"y": 3.7122786024,
				"z": 1.311704556,
				"element": "Br" 
			},
			{
				"x": 1.0565577551,
				"y": 1.0520704995,
				"z": 1.7195524984,
				"element": "N" 
			},
			{
				"x": -0.8251071249,
				"y": -1.8057135167,
				"z": 0.2076134293,
				"element": "C" 
			},
			{
				"x": -1.9357747084,
				"y": -1.838166789,
				"z": -0.5748235148,
				"element": "O" 
			},
			{
				"x": -0.2838857376,
				"y": -2.8420118861,
				"z": 0.5212516406,
				"element": "O" 
			},
			{
				"x": 1.1360483838,
				"y": -2.0184441723,
				"z": 2.6454892157,
				"element": "H" 
			},
			{
				"x": 2.141514795,
				"y": -1.9250331668,
				"z": 1.2192069369,
				"element": "H" 
			},
			{
				"x": 2.4779570316,
				"y": -0.8381789941,
				"z": 2.5981435213,
				"element": "H" 
			},
			{
				"x": -2.2843379827,
				"y": -0.9552263827,
				"z": -0.7615112909,
				"element": "H" 
			}
		],
		 "valence_orbital": [ 
			{
				"type": "occ",
				"energy": -0.3216,
				"method": "rhf"
			},
			{
				"type": "occ",
				"energy": -0.313,
				"method": "rhf"
			},
			{
				"type": "occ",
				"energy": -0.30809,
				"method": "rhf"
			},
			{
				"type": "occ",
				"energy": -0.28716,
				"method": "rhf"
			},
			{
				"type": "occ",
				"energy": -0.26099,
				"method": "rhf"
			},
			{
				"type": "unocc",
				"energy": -0.08,
				"method": "rhf"
			},
			{
				"type": "unocc",
				"energy": -0.04546,
				"method": "rhf"
			},
			{
				"type": "unocc",
				"energy": -0.00972,
				"method": "rhf"
			},
			{
				"type": "unocc",
				"energy": -0.00391,
				"method": "rhf"
			},
			{
				"type": "unocc",
				"energy": 0.05625,
				"method": "rhf"
			}
		],
		"cosmo_sigma_profile": { 
			"-0.025": 0.0,
			"-0.024": 0.0,
			"-0.023": 0.0,
			"-0.022": 0.0,
			"-0.021": 0.0,
			"-0.02": 0.0217291825508,
			"-0.019": 0.758681198192,
			"-0.018": 0.577088760327,
			"-0.017": 1.09405921071,
			"-0.016": 1.08896161443,
			"-0.015": 0.810013375459,
			"-0.014": 0.616692559283,
			"-0.013": 1.22189012881,
			"-0.012": 1.36899181039,
			"-0.011": 0.722940258287,
			"-0.01": 0.816926330795,
			"-0.009": 1.30437247334,
			"-0.008": 1.89735107523,
			"-0.007": 1.80375645701,
			"-0.006": 2.96007391429,
			"-0.005": 7.34488369882,
			"-0.004": 11.8433405921,
			"-0.003": 18.293730854,
			"-0.002": 22.3952949936,
			"-0.001": 22.8667579816,
			"0.0": 14.7376206866,
			"0.001": 13.6537451002,
			"0.002": 13.435535673,
			"0.003": 7.47180664256,
			"0.004": 3.74463269977,
			"0.005": 5.17769752443,
			"0.006": 4.10486326706,
			"0.007": 3.41095007965,
			"0.008": 3.66300503438,
			"0.009": 4.68878026958,
			"0.01": 5.1430212896,
			"0.011": 5.50845327392,
			"0.012": 3.70222625712,
			"0.013": 0.726717710858,
			"0.014": 0.0,
			"0.015": 0.0,
			"0.016": 0.0,
			"0.017": 0.0,
			"0.018": 0.0,
			"0.019": 0.0,
			"0.02": 0.0,
			"0.021": 0.0,
			"0.022": 0.0,
			"0.023": 0.0,
			"0.024": 0.0,
			"0.025": 0.0
		}
	}
}
