{
	 "smiles": "CC(CCCO)C1CCC2C3CCC4CCCCC4(C)C3CCC12C", 
	 "Tm": 403.15, 
	 "num_atms": 67, 
	 "gaussian": { 
		 "optdone": 1, 
		 "sigma_profile": "yes", 
		 "theory": "DFT", 
		 "functional": "B3LYP", 
		 "basiset": "6-31G**", 
		 "properties": { 
			 "R2extent": 12103.5078, 
			 "electric_dipole_moment_norm": 1.90907590472, 
			 "electric_quadrupole_moment_norm": 17.4539767807, 
			 "total_energy": -1015.1180658, 
			 "HOMO_LUMO_gap": 0.32757, 
			 "cosmo_polarized_energy": -6.7, 
			 "cosmo_cavitation_energy": 55.46, 
			 "cosmo_dispersion_energy": -38.03, 
			 "cosmo_repulsion_energy": 2.83, 
			 "cosmo_total_nonelectrostatic_energy": 20.26, 
			 "SMD_solvation_energy": 7.08 
		},
		"coords": [
			{
				"x": 3.4595453043,
				"y": 2.7575982512,
				"z": 2.2736298903,
				"element": "C" 
			},
			{
				"x": 2.16764813,
				"y": 2.4936102398,
				"z": 1.4771928303,
				"element": "C" 
			},
			{
				"x": 1.384839069,
				"y": 3.8234238222,
				"z": 1.3288264031,
				"element": "C" 
			},
			{
				"x": 0.6468683977,
				"y": 4.2832900838,
				"z": 2.5933694569,
				"element": "C" 
			},
			{
				"x": -0.0880730463,
				"y": 5.6116998972,
				"z": 2.4025850603,
				"element": "C" 
			},
			{
				"x": -0.7323704145,
				"y": 6.0670097954,
				"z": 3.585943995,
				"element": "O" 
			},
			{
				"x": 2.4108798494,
				"y": 1.8578062993,
				"z": 0.0712327952,
				"element": "C" 
			},
			{
				"x": 3.6195057699,
				"y": 0.8603894365,
				"z": -0.0294812632,
				"element": "C" 
			},
			{
				"x": 3.0401030472,
				"y": -0.5789617667,
				"z": -0.1333767849,
				"element": "C" 
			},
			{
				"x": 1.5346750806,
				"y": -0.3961027073,
				"z": 0.1077811968,
				"element": "C" 
			},
			{
				"x": 0.593464309,
				"y": -1.5380232425,
				"z": -0.3040378359,
				"element": "C" 
			},
			{
				"x": 0.9586658219,
				"y": -2.8374240564,
				"z": 0.4648892088,
				"element": "C" 
			},
			{
				"x": -0.2471219765,
				"y": -3.7717699068,
				"z": 0.6892767832,
				"element": "C" 
			},
			{
				"x": -1.2301853463,
				"y": -3.6688024522,
				"z": -0.4854032322,
				"element": "C" 
			},
			{
				"x": -2.2432863797,
				"y": -4.835705733,
				"z": -0.5383283377,
				"element": "C" 
			},
			{
				"x": -3.3861204808,
				"y": -4.7200350037,
				"z": 0.4783813102,
				"element": "C" 
			},
			{
				"x": -4.113156182,
				"y": -3.3813187058,
				"z": 0.3082082738,
				"element": "C" 
			},
			{
				"x": -3.1250999667,
				"y": -2.2163880907,
				"z": 0.4565829859,
				"element": "C" 
			},
			{
				"x": -1.9104964889,
				"y": -2.2532943389,
				"z": -0.5153516216,
				"element": "C" 
			},
			{
				"x": -2.3906593591,
				"y": -1.9955569936,
				"z": -1.9609963695,
				"element": "C" 
			},
			{
				"x": -0.8834551127,
				"y": -1.1474822783,
				"z": -0.0354065345,
				"element": "C" 
			},
			{
				"x": -1.2212310765,
				"y": 0.2675411736,
				"z": -0.5560503248,
				"element": "C" 
			},
			{
				"x": -0.2262251813,
				"y": 1.3564405906,
				"z": -0.1068356802,
				"element": "C" 
			},
			{
				"x": 1.2200698518,
				"y": 0.9950350432,
				"z": -0.5012107724,
				"element": "C" 
			},
			{
				"x": 1.3480467515,
				"y": 1.014628033,
				"z": -2.0443727468,
				"element": "C" 
			},
			{
				"x": 4.1921586743,
				"y": 3.307187955,
				"z": 1.6702508544,
				"element": "H" 
			},
			{
				"x": 3.248672726,
				"y": 3.3607465063,
				"z": 3.1621541045,
				"element": "H" 
			},
			{
				"x": 3.9350185395,
				"y": 1.8370866484,
				"z": 2.6225818477,
				"element": "H" 
			},
			{
				"x": 1.5560208872,
				"y": 1.8047963305,
				"z": 2.0770095046,
				"element": "H" 
			},
			{
				"x": 2.093446363,
				"y": 4.6042935844,
				"z": 1.014868736,
				"element": "H" 
			},
			{
				"x": 0.6581846743,
				"y": 3.7400435919,
				"z": 0.514629972,
				"element": "H" 
			},
			{
				"x": -0.0821557046,
				"y": 3.5121808049,
				"z": 2.8867617324,
				"element": "H" 
			},
			{
				"x": 1.3361748623,
				"y": 4.3951023816,
				"z": 3.4382725464,
				"element": "H" 
			},
			{
				"x": -0.8018644457,
				"y": 5.5293682062,
				"z": 1.5654666344,
				"element": "H" 
			},
			{
				"x": 0.6254604601,
				"y": 6.399233699,
				"z": 2.135407766,
				"element": "H" 
			},
			{
				"x": -1.3874841844,
				"y": 5.4022323721,
				"z": 3.8348964102,
				"element": "H" 
			},
			{
				"x": 2.6018403479,
				"y": 2.7002059725,
				"z": -0.6071752246,
				"element": "H" 
			},
			{
				"x": 4.2936839751,
				"y": 0.9505392043,
				"z": 0.8223509796,
				"element": "H" 
			},
			{
				"x": 4.2241940063,
				"y": 1.0958404922,
				"z": -0.9107368152,
				"element": "H" 
			},
			{
				"x": 3.4984444814,
				"y": -1.2631282594,
				"z": 0.5872862998,
				"element": "H" 
			},
			{
				"x": 3.2195559533,
				"y": -1.0056234515,
				"z": -1.1275055337,
				"element": "H" 
			},
			{
				"x": 1.3981777438,
				"y": -0.2765349459,
				"z": 1.1958374054,
				"element": "H" 
			},
			{
				"x": 0.7168357936,
				"y": -1.7232486767,
				"z": -1.3809450718,
				"element": "H" 
			},
			{
				"x": 1.3988341218,
				"y": -2.5734489996,
				"z": 1.435119957,
				"element": "H" 
			},
			{
				"x": 1.7409942553,
				"y": -3.37174385,
				"z": -0.0874587683,
				"element": "H" 
			},
			{
				"x": 0.0987662977,
				"y": -4.8059939159,
				"z": 0.8060135059,
				"element": "H" 
			},
			{
				"x": -0.7540874662,
				"y": -3.5170329889,
				"z": 1.628202735,
				"element": "H" 
			},
			{
				"x": -0.6239145886,
				"y": -3.752454544,
				"z": -1.3997136486,
				"element": "H" 
			},
			{
				"x": -1.70005787,
				"y": -5.7789030442,
				"z": -0.3979909149,
				"element": "H" 
			},
			{
				"x": -2.6820214587,
				"y": -4.8904407196,
				"z": -1.5432619543,
				"element": "H" 
			},
			{
				"x": -4.0818959545,
				"y": -5.5589732498,
				"z": 0.3559188463,
				"element": "H" 
			},
			{
				"x": -2.9913021758,
				"y": -4.7911909366,
				"z": 1.5013737567,
				"element": "H" 
			},
			{
				"x": -4.9134634553,
				"y": -3.2792534341,
				"z": 1.0514505418,
				"element": "H" 
			},
			{
				"x": -4.6013183091,
				"y": -3.3503382721,
				"z": -0.6750524885,
				"element": "H" 
			},
			{
				"x": -2.7493509515,
				"y": -2.2285948028,
				"z": 1.4889704498,
				"element": "H" 
			},
			{
				"x": -3.6489874627,
				"y": -1.2594224868,
				"z": 0.3383006845,
				"element": "H" 
			},
			{
				"x": -3.0097466798,
				"y": -1.0970704647,
				"z": -2.0383040476,
				"element": "H" 
			},
			{
				"x": -2.9896442344,
				"y": -2.8309129,
				"z": -2.3335348174,
				"element": "H" 
			},
			{
				"x": -1.5423461122,
				"y": -1.8798917312,
				"z": -2.6453377164,
				"element": "H" 
			},
			{
				"x": -0.9729109634,
				"y": -1.0968512052,
				"z": 1.0612566542,
				"element": "H" 
			},
			{
				"x": -1.2623091994,
				"y": 0.2636853257,
				"z": -1.6489121079,
				"element": "H" 
			},
			{
				"x": -2.2272327741,
				"y": 0.5492203975,
				"z": -0.2212498812,
				"element": "H" 
			},
			{
				"x": -0.5314862762,
				"y": 2.3118523283,
				"z": -0.5518351849,
				"element": "H" 
			},
			{
				"x": -0.298404139,
				"y": 1.4761049844,
				"z": 0.9810638766,
				"element": "H" 
			},
			{
				"x": 1.068488161,
				"y": 2.0036307755,
				"z": -2.4256516386,
				"element": "H" 
			},
			{
				"x": 0.7051929456,
				"y": 0.2802883636,
				"z": -2.5357204512,
				"element": "H" 
			},
			{
				"x": 2.3716087655,
				"y": 0.8182055645,
				"z": -2.3747082224,
				"element": "H" 
			}
		],
		 "valence_orbital": [ 
			{
				"type": "occ",
				"energy": -0.28688,
				"method": "rhf"
			},
			{
				"type": "occ",
				"energy": -0.28041,
				"method": "rhf"
			},
			{
				"type": "occ",
				"energy": -0.26627,
				"method": "rhf"
			},
			{
				"type": "occ",
				"energy": -0.26216,
				"method": "rhf"
			},
			{
				"type": "occ",
				"energy": -0.25808,
				"method": "rhf"
			},
			{
				"type": "unocc",
				"energy": 0.06949,
				"method": "rhf"
			},
			{
				"type": "unocc",
				"energy": 0.07448,
				"method": "rhf"
			},
			{
				"type": "unocc",
				"energy": 0.07907,
				"method": "rhf"
			},
			{
				"type": "unocc",
				"energy": 0.08142,
				"method": "rhf"
			},
			{
				"type": "unocc",
				"energy": 0.09438,
				"method": "rhf"
			}
		],
		"cosmo_sigma_profile": { 
			"-0.025": 0.0,
			"-0.024": 0.0,
			"-0.023": 0.0,
			"-0.022": 0.0,
			"-0.021": 0.0,
			"-0.02": 0.0,
			"-0.019": 0.0,
			"-0.018": 0.0,
			"-0.017": 0.0,
			"-0.016": 0.0,
			"-0.015": 0.410168543242,
			"-0.014": 1.05927019891,
			"-0.013": 1.17554948196,
			"-0.012": 0.487246231706,
			"-0.011": 0.833262411369,
			"-0.01": 1.08140454212,
			"-0.009": 1.13234053832,
			"-0.008": 0.960225121424,
			"-0.007": 0.949059625955,
			"-0.006": 0.697694752942,
			"-0.005": 1.59979124638,
			"-0.004": 1.66095785163,
			"-0.003": 11.1708365161,
			"-0.002": 60.9088689105,
			"-0.001": 94.0328597725,
			"0.0": 98.6504086556,
			"0.001": 77.2934775737,
			"0.002": 43.7208050426,
			"0.003": 6.03799816283,
			"0.004": 1.08807919723,
			"0.005": 1.62341801037,
			"0.006": 1.27199195212,
			"0.007": 1.00444425451,
			"0.008": 1.39933043467,
			"0.009": 0.69595076855,
			"0.01": 1.68263639314,
			"0.011": 1.15216933236,
			"0.012": 1.67289277377,
			"0.013": 1.05817170193,
			"0.014": 2.41588573705,
			"0.015": 1.93962884805,
			"0.016": 0.00847519748502,
			"0.017": 0.0,
			"0.018": 0.0,
			"0.019": 0.0,
			"0.02": 0.0,
			"0.021": 0.0,
			"0.022": 0.0,
			"0.023": 0.0,
			"0.024": 0.0,
			"0.025": 0.0
		}
	}
}
