{
	 "smiles": "CC(=O)NC1=CC(NC(C)=O)=C(C=CC2=CC=CC=C2)C(=C1C=CC1=CC=CC=C1)[N+]([O-])=O", 
	 "Tm": 549.15, 
	 "num_atms": 56, 
	 "gaussian": { 
		 "optdone": 1, 
		 "sigma_profile": "yes", 
		 "theory": "DFT", 
		 "functional": "B3LYP", 
		 "basiset": "6-31G**", 
		 "properties": { 
			 "R2extent": 19815.3428, 
			 "electric_dipole_moment_norm": 4.82766818765, 
			 "electric_quadrupole_moment_norm": 35.5992768224, 
			 "total_energy": -1469.68108658, 
			 "HOMO_LUMO_gap": 0.13722, 
			 "cosmo_polarized_energy": -28.96, 
			 "cosmo_cavitation_energy": 62.04, 
			 "cosmo_dispersion_energy": -40.33, 
			 "cosmo_repulsion_energy": 3.03, 
			 "cosmo_total_nonelectrostatic_energy": 24.75, 
			 "SMD_solvation_energy": 14.18 
		},
		"coords": [
			{
				"x": 0.534367894,
				"y": -4.5243568792,
				"z": 4.6136244215,
				"element": "C" 
			},
			{
				"x": 0.5849303652,
				"y": -3.1246732479,
				"z": 4.0215402943,
				"element": "C" 
			},
			{
				"x": 1.3146352191,
				"y": -2.251958162,
				"z": 4.4645193449,
				"element": "O" 
			},
			{
				"x": -0.224270568,
				"y": -2.9432977005,
				"z": 2.914572442,
				"element": "N" 
			},
			{
				"x": -0.4273981229,
				"y": -1.7242325406,
				"z": 2.2102295834,
				"element": "C" 
			},
			{
				"x": -1.737591283,
				"y": -1.2556082164,
				"z": 2.1148610495,
				"element": "C" 
			},
			{
				"x": -2.0716666353,
				"y": -0.1211119477,
				"z": 1.3710150811,
				"element": "C" 
			},
			{
				"x": -3.3962038962,
				"y": 0.353780811,
				"z": 1.3421938959,
				"element": "N" 
			},
			{
				"x": -4.6038477818,
				"y": -0.2944138839,
				"z": 1.1233529615,
				"element": "C" 
			},
			{
				"x": -4.6040778826,
				"y": -1.7994500496,
				"z": 0.9316889396,
				"element": "C" 
			},
			{
				"x": -5.6325017394,
				"y": 0.3631583975,
				"z": 1.0753561503,
				"element": "O" 
			},
			{
				"x": -1.0459647689,
				"y": 0.6246439608,
				"z": 0.7356395267,
				"element": "C" 
			},
			{
				"x": -1.2586128824,
				"y": 1.8871108932,
				"z": 0.0074042003,
				"element": "C" 
			},
			{
				"x": -2.305876697,
				"y": 2.2090790985,
				"z": -0.7811474603,
				"element": "C" 
			},
			{
				"x": -2.4854415508,
				"y": 3.461587836,
				"z": -1.5245236358,
				"element": "C" 
			},
			{
				"x": -1.4882555954,
				"y": 4.4502816493,
				"z": -1.6343264848,
				"element": "C" 
			},
			{
				"x": -1.7240585014,
				"y": 5.620631915,
				"z": -2.3483557031,
				"element": "C" 
			},
			{
				"x": -2.9576342,
				"y": 5.8332318994,
				"z": -2.9723912772,
				"element": "C" 
			},
			{
				"x": -3.9537517882,
				"y": 4.8605466557,
				"z": -2.8793475147,
				"element": "C" 
			},
			{
				"x": -3.7176396832,
				"y": 3.687299126,
				"z": -2.1654998584,
				"element": "C" 
			},
			{
				"x": 0.2608731859,
				"y": 0.1314859885,
				"z": 0.8941082713,
				"element": "C" 
			},
			{
				"x": 0.6307030472,
				"y": -1.0391403743,
				"z": 1.569184139,
				"element": "C" 
			},
			{
				"x": 2.0201872442,
				"y": -1.5347750126,
				"z": 1.6135505115,
				"element": "C" 
			},
			{
				"x": 2.7984583747,
				"y": -1.7166748471,
				"z": 0.5300487892,
				"element": "C" 
			},
			{
				"x": 4.1797879126,
				"y": -2.2154606316,
				"z": 0.5260119137,
				"element": "C" 
			},
			{
				"x": 4.9177026583,
				"y": -2.4592449275,
				"z": 1.7006775175,
				"element": "C" 
			},
			{
				"x": 6.2212686522,
				"y": -2.9410477008,
				"z": 1.6340413929,
				"element": "C" 
			},
			{
				"x": 6.8231897363,
				"y": -3.1884941145,
				"z": 0.3958981971,
				"element": "C" 
			},
			{
				"x": 6.1079705907,
				"y": -2.9462303306,
				"z": -0.777304056,
				"element": "C" 
			},
			{
				"x": 4.8018224899,
				"y": -2.4639226828,
				"z": -0.710692341,
				"element": "C" 
			},
			{
				"x": 1.3345225527,
				"y": 0.9358103594,
				"z": 0.2627777015,
				"element": "N" 
			},
			{
				"x": 1.9473159409,
				"y": 1.7115949817,
				"z": 0.9874085704,
				"element": "O" 
			},
			{
				"x": 1.5055685553,
				"y": 0.7974695733,
				"z": -0.945771933,
				"element": "O" 
			},
			{
				"x": 0.6956287584,
				"y": -4.4504251045,
				"z": 5.6898687761,
				"element": "H" 
			},
			{
				"x": -0.4065237175,
				"y": -5.0479669208,
				"z": 4.420092165,
				"element": "H" 
			},
			{
				"x": 1.350121184,
				"y": -5.1205050042,
				"z": 4.1907796363,
				"element": "H" 
			},
			{
				"x": -0.9006456534,
				"y": -3.6697975995,
				"z": 2.7277315619,
				"element": "H" 
			},
			{
				"x": -2.5128644925,
				"y": -1.7666573722,
				"z": 2.6734984216,
				"element": "H" 
			},
			{
				"x": -3.5046778825,
				"y": 1.3619500642,
				"z": 1.3100968325,
				"element": "H" 
			},
			{
				"x": -4.6881649993,
				"y": -2.304274976,
				"z": 1.900143214,
				"element": "H" 
			},
			{
				"x": -3.7068629303,
				"y": -2.1682352376,
				"z": 0.4295274997,
				"element": "H" 
			},
			{
				"x": -5.4907276683,
				"y": -2.0500724827,
				"z": 0.3484499323,
				"element": "H" 
			},
			{
				"x": -0.4516903713,
				"y": 2.6083036649,
				"z": 0.1110436742,
				"element": "H" 
			},
			{
				"x": -3.1085390345,
				"y": 1.4883640035,
				"z": -0.9158064257,
				"element": "H" 
			},
			{
				"x": -0.5175617088,
				"y": 4.2989265787,
				"z": -1.1727016697,
				"element": "H" 
			},
			{
				"x": -0.9408470612,
				"y": 6.3693301706,
				"z": -2.4242947016,
				"element": "H" 
			},
			{
				"x": -3.1364012041,
				"y": 6.7480287303,
				"z": -3.5297561023,
				"element": "H" 
			},
			{
				"x": -4.9144867366,
				"y": 5.0141502149,
				"z": -3.3620381333,
				"element": "H" 
			},
			{
				"x": -4.4979657848,
				"y": 2.9339511337,
				"z": -2.0920001148,
				"element": "H" 
			},
			{
				"x": 2.3793307932,
				"y": -1.7831404126,
				"z": 2.6068530269,
				"element": "H" 
			},
			{
				"x": 2.390431031,
				"y": -1.4958148866,
				"z": -0.4540026852,
				"element": "H" 
			},
			{
				"x": 4.4728321966,
				"y": -2.2622044567,
				"z": 2.6711205162,
				"element": "H" 
			},
			{
				"x": 6.7746412505,
				"y": -3.1196714477,
				"z": 2.55171231,
				"element": "H" 
			},
			{
				"x": 7.8421094645,
				"y": -3.5617607307,
				"z": 0.3489492968,
				"element": "H" 
			},
			{
				"x": 6.566868146,
				"y": -3.1297684009,
				"z": -1.7446377883,
				"element": "H" 
			},
			{
				"x": 4.2492855781,
				"y": -2.2733294235,
				"z": -1.6272738735,
				"element": "H" 
			}
		],
		 "valence_orbital": [ 
			{
				"type": "occ",
				"energy": -0.25671,
				"method": "rhf"
			},
			{
				"type": "occ",
				"energy": -0.2511,
				"method": "rhf"
			},
			{
				"type": "occ",
				"energy": -0.25024,
				"method": "rhf"
			},
			{
				"type": "occ",
				"energy": -0.22442,
				"method": "rhf"
			},
			{
				"type": "occ",
				"energy": -0.21267,
				"method": "rhf"
			},
			{
				"type": "unocc",
				"energy": -0.07545,
				"method": "rhf"
			},
			{
				"type": "unocc",
				"energy": -0.06662,
				"method": "rhf"
			},
			{
				"type": "unocc",
				"energy": -0.05129,
				"method": "rhf"
			},
			{
				"type": "unocc",
				"energy": -0.02425,
				"method": "rhf"
			},
			{
				"type": "unocc",
				"energy": -0.01133,
				"method": "rhf"
			}
		],
		"cosmo_sigma_profile": { 
			"-0.025": 0.0,
			"-0.024": 0.0,
			"-0.023": 0.0,
			"-0.022": 0.0,
			"-0.021": 0.0,
			"-0.02": 0.0,
			"-0.019": 0.0,
			"-0.018": 0.0,
			"-0.017": 0.0,
			"-0.016": 0.126266358424,
			"-0.015": 1.2849766298,
			"-0.014": 1.27774227672,
			"-0.013": 1.56250385874,
			"-0.012": 2.19982211053,
			"-0.011": 1.8902019277,
			"-0.01": 2.97810288988,
			"-0.009": 4.19757598338,
			"-0.008": 7.12540770119,
			"-0.007": 9.51937953291,
			"-0.006": 27.9638886686,
			"-0.005": 39.3255907368,
			"-0.004": 42.2621613349,
			"-0.003": 38.7302395401,
			"-0.002": 37.1994348919,
			"-0.001": 31.3774171242,
			"0.0": 30.1712529892,
			"0.001": 31.5306685094,
			"0.002": 29.754578113,
			"0.003": 31.343780407,
			"0.004": 30.2956513992,
			"0.005": 28.7228563386,
			"0.006": 14.0797005829,
			"0.007": 12.1338987931,
			"0.008": 9.28923148806,
			"0.009": 5.3351652913,
			"0.01": 2.88922739672,
			"0.011": 3.23697465847,
			"0.012": 5.37738207721,
			"0.013": 8.95914803853,
			"0.014": 3.81293397275,
			"0.015": 0.311933884618,
			"0.016": 0.0,
			"0.017": 0.0,
			"0.018": 0.0,
			"0.019": 0.0,
			"0.02": 0.0,
			"0.021": 0.0,
			"0.022": 0.0,
			"0.023": 0.0,
			"0.024": 0.0,
			"0.025": 0.0
		}
	}
}
