{
	 "smiles": "CCOC(=O)C1=CNC2=C(C(F)=C(F)C(F)=C2)C1=O", 
	 "Tm": 613.15, 
	 "num_atms": 27, 
	 "gaussian": { 
		 "optdone": 1, 
		 "sigma_profile": "yes", 
		 "theory": "DFT", 
		 "functional": "B3LYP", 
		 "basiset": "6-31G**", 
		 "properties": { 
			 "R2extent": 8013.1473, 
			 "electric_dipole_moment_norm": 4.9956439725, 
			 "electric_quadrupole_moment_norm": 25.2644660597, 
			 "total_energy": -1042.02520009, 
			 "HOMO_LUMO_gap": 0.17493, 
			 "cosmo_polarized_energy": -24.01, 
			 "cosmo_cavitation_energy": 33.98, 
			 "cosmo_dispersion_energy": -24.37, 
			 "cosmo_repulsion_energy": 1.8, 
			 "cosmo_total_nonelectrostatic_energy": 11.4, 
			 "SMD_solvation_energy": 8.81 
		},
		"coords": [
			{
				"x": 2.2669005038,
				"y": -3.4061952983,
				"z": -0.7612254971,
				"element": "C" 
			},
			{
				"x": 2.4336954551,
				"y": -1.9004206926,
				"z": -0.6887039869,
				"element": "C" 
			},
			{
				"x": 1.1403915283,
				"y": -1.3431495378,
				"z": -0.3610999397,
				"element": "O" 
			},
			{
				"x": 1.0900970708,
				"y": -0.0110580762,
				"z": -0.2547546291,
				"element": "C" 
			},
			{
				"x": 2.0605529222,
				"y": 0.7144865326,
				"z": -0.4188146274,
				"element": "O" 
			},
			{
				"x": -0.2620104584,
				"y": 0.5207551973,
				"z": 0.0840966976,
				"element": "C" 
			},
			{
				"x": -0.3139828107,
				"y": 1.8820339932,
				"z": 0.1929164832,
				"element": "C" 
			},
			{
				"x": -1.4461655412,
				"y": 2.5611568795,
				"z": 0.4934806633,
				"element": "N" 
			},
			{
				"x": -2.6583991172,
				"y": 1.9236599743,
				"z": 0.7179966796,
				"element": "C" 
			},
			{
				"x": -2.7002757584,
				"y": 0.5126381877,
				"z": 0.6265256845,
				"element": "C" 
			},
			{
				"x": -3.9497457178,
				"y": -0.0965637962,
				"z": 0.8613417391,
				"element": "C" 
			},
			{
				"x": -4.1061249453,
				"y": -1.415590932,
				"z": 0.8020047642,
				"element": "F" 
			},
			{
				"x": -5.082246994,
				"y": 0.6490017459,
				"z": 1.1668371825,
				"element": "C" 
			},
			{
				"x": -6.2544688448,
				"y": 0.0412470126,
				"z": 1.3844415569,
				"element": "F" 
			},
			{
				"x": -4.9902382397,
				"y": 2.0403737528,
				"z": 1.2457906344,
				"element": "C" 
			},
			{
				"x": -6.0933058055,
				"y": 2.7375382271,
				"z": 1.5413628237,
				"element": "F" 
			},
			{
				"x": -3.7918876774,
				"y": 2.6909489327,
				"z": 1.0253184719,
				"element": "C" 
			},
			{
				"x": -1.4764589137,
				"y": -0.2938848424,
				"z": 0.2962963854,
				"element": "C" 
			},
			{
				"x": -1.5172026289,
				"y": -1.5149110707,
				"z": 0.2180578321,
				"element": "O" 
			},
			{
				"x": 3.2252950367,
				"y": -3.8740809197,
				"z": -1.0079266125,
				"element": "H" 
			},
			{
				"x": 1.9207315563,
				"y": -3.805956097,
				"z": 0.1957598405,
				"element": "H" 
			},
			{
				"x": 1.5381014096,
				"y": -3.6804757219,
				"z": -1.528747641,
				"element": "H" 
			},
			{
				"x": 2.7721633686,
				"y": -1.4746582026,
				"z": -1.6388238375,
				"element": "H" 
			},
			{
				"x": 3.1534426556,
				"y": -1.5996964233,
				"z": 0.0794924278,
				"element": "H" 
			},
			{
				"x": 0.583856121,
				"y": 2.4694442666,
				"z": 0.0349912174,
				"element": "H" 
			},
			{
				"x": -1.4132289248,
				"y": 3.5676292344,
				"z": 0.5583014076,
				"element": "H" 
			},
			{
				"x": -3.7509852499,
				"y": 3.7726276742,
				"z": 1.0934842797,
				"element": "H" 
			}
		],
		 "valence_orbital": [ 
			{
				"type": "occ",
				"energy": -0.27801,
				"method": "rhf"
			},
			{
				"type": "occ",
				"energy": -0.27193,
				"method": "rhf"
			},
			{
				"type": "occ",
				"energy": -0.27184,
				"method": "rhf"
			},
			{
				"type": "occ",
				"energy": -0.23708,
				"method": "rhf"
			},
			{
				"type": "occ",
				"energy": -0.23345,
				"method": "rhf"
			},
			{
				"type": "unocc",
				"energy": -0.05852,
				"method": "rhf"
			},
			{
				"type": "unocc",
				"energy": -0.05044,
				"method": "rhf"
			},
			{
				"type": "unocc",
				"energy": -0.00687,
				"method": "rhf"
			},
			{
				"type": "unocc",
				"energy": 0.02755,
				"method": "rhf"
			},
			{
				"type": "unocc",
				"energy": 0.03391,
				"method": "rhf"
			}
		],
		"cosmo_sigma_profile": { 
			"-0.025": 0.0,
			"-0.024": 0.0,
			"-0.023": 0.0,
			"-0.022": 0.0,
			"-0.021": 0.0,
			"-0.02": 0.0,
			"-0.019": 0.0750865410215,
			"-0.018": 1.79120616986,
			"-0.017": 1.95169173165,
			"-0.016": 1.99199830736,
			"-0.015": 1.44530583189,
			"-0.014": 1.46595587251,
			"-0.013": 1.33372954527,
			"-0.012": 1.74138288419,
			"-0.011": 1.98130601871,
			"-0.01": 2.94669701924,
			"-0.009": 2.32133326455,
			"-0.008": 2.43980924507,
			"-0.007": 2.94688984179,
			"-0.006": 2.76728784498,
			"-0.005": 8.58916810113,
			"-0.004": 15.8867051638,
			"-0.003": 29.2946236505,
			"-0.002": 33.3360813815,
			"-0.001": 29.6259634684,
			"0.0": 22.3102241552,
			"0.001": 10.8310094574,
			"0.002": 16.2205638261,
			"0.003": 29.2690427737,
			"0.004": 6.37518441411,
			"0.005": 4.18857237573,
			"0.006": 3.51782525178,
			"0.007": 3.63705821882,
			"0.008": 3.32445806862,
			"0.009": 3.52643853214,
			"0.01": 2.89476553635,
			"0.011": 4.54648867835,
			"0.012": 6.37509158082,
			"0.013": 5.81524680671,
			"0.014": 3.65493287854,
			"0.015": 2.2498524828,
			"0.016": 0.225509411303,
			"0.017": 0.0,
			"0.018": 0.0,
			"0.019": 0.0,
			"0.02": 0.0,
			"0.021": 0.0,
			"0.022": 0.0,
			"0.023": 0.0,
			"0.024": 0.0,
			"0.025": 0.0
		}
	}
}
