{
	 "smiles": "COC(=O)CCCOC1=C(F)C=CC=C1", 
	 "Tm": 303.15, 
	 "num_atms": 28, 
	 "gaussian": { 
		 "optdone": 1, 
		 "sigma_profile": "yes", 
		 "theory": "DFT", 
		 "functional": "B3LYP", 
		 "basiset": "6-31G**", 
		 "properties": { 
			 "R2extent": 5326.0069, 
			 "electric_dipole_moment_norm": 1.68146958343, 
			 "electric_quadrupole_moment_norm": 16.0639421108, 
			 "total_energy": -752.509465617, 
			 "HOMO_LUMO_gap": 0.22053, 
			 "cosmo_polarized_energy": -9.66, 
			 "cosmo_cavitation_energy": 32.72, 
			 "cosmo_dispersion_energy": -23.4, 
			 "cosmo_repulsion_energy": 1.86, 
			 "cosmo_total_nonelectrostatic_energy": 11.18, 
			 "SMD_solvation_energy": 7.46 
		},
		"coords": [
			{
				"x": -5.1963551075,
				"y": -0.9608886052,
				"z": -1.8336239043,
				"element": "C" 
			},
			{
				"x": -4.9316681082,
				"y": -0.3959517399,
				"z": -0.5384737595,
				"element": "O" 
			},
			{
				"x": -3.7063777999,
				"y": 0.1519914001,
				"z": -0.3848989958,
				"element": "C" 
			},
			{
				"x": -2.8705346949,
				"y": 0.1756489142,
				"z": -1.2637115282,
				"element": "O" 
			},
			{
				"x": -3.5459388258,
				"y": 0.7302117974,
				"z": 1.0094183332,
				"element": "C" 
			},
			{
				"x": -2.1477473189,
				"y": 1.2887983016,
				"z": 1.2874062209,
				"element": "C" 
			},
			{
				"x": -1.0832030437,
				"y": 0.2034382765,
				"z": 1.3934750232,
				"element": "C" 
			},
			{
				"x": 0.1367611634,
				"y": 0.8584812754,
				"z": 1.7845723604,
				"element": "O" 
			},
			{
				"x": 1.3329611409,
				"y": 0.2475166685,
				"z": 1.5515907389,
				"element": "C" 
			},
			{
				"x": 1.5713199725,
				"y": -1.1283208725,
				"z": 1.6811050859,
				"element": "C" 
			},
			{
				"x": 0.55690505,
				"y": -1.9541230926,
				"z": 2.043076933,
				"element": "F" 
			},
			{
				"x": 2.826216151,
				"y": -1.6800756534,
				"z": 1.4584104843,
				"element": "C" 
			},
			{
				"x": 3.8949296334,
				"y": -0.8501689145,
				"z": 1.1189835983,
				"element": "C" 
			},
			{
				"x": 3.6872045712,
				"y": 0.5260800241,
				"z": 1.0040927529,
				"element": "C" 
			},
			{
				"x": 2.4187862526,
				"y": 1.0646144686,
				"z": 1.2117637196,
				"element": "C" 
			},
			{
				"x": -5.1225532188,
				"y": -0.1957443081,
				"z": -2.6105141815,
				"element": "H" 
			},
			{
				"x": -6.2107956827,
				"y": -1.3558502816,
				"z": -1.7808773373,
				"element": "H" 
			},
			{
				"x": -4.4848142633,
				"y": -1.7593798628,
				"z": -2.0583097782,
				"element": "H" 
			},
			{
				"x": -3.8235850571,
				"y": -0.0455872925,
				"z": 1.7337464867,
				"element": "H" 
			},
			{
				"x": -4.3021261629,
				"y": 1.5165758643,
				"z": 1.1211148012,
				"element": "H" 
			},
			{
				"x": -1.8644041673,
				"y": 1.9904723127,
				"z": 0.497090575,
				"element": "H" 
			},
			{
				"x": -2.1674365262,
				"y": 1.8469981214,
				"z": 2.2298179134,
				"element": "H" 
			},
			{
				"x": -0.9467632643,
				"y": -0.2998342333,
				"z": 0.4312384896,
				"element": "H" 
			},
			{
				"x": -1.3624256091,
				"y": -0.5452247181,
				"z": 2.1432975596,
				"element": "H" 
			},
			{
				"x": 2.9449393114,
				"y": -2.7528804788,
				"z": 1.5697965854,
				"element": "H" 
			},
			{
				"x": 4.8782038598,
				"y": -1.2772981055,
				"z": 0.9502546809,
				"element": "H" 
			},
			{
				"x": 4.5107585739,
				"y": 1.1829713264,
				"z": 0.7414320129,
				"element": "H" 
			},
			{
				"x": 2.2331431706,
				"y": 2.1295294078,
				"z": 1.1166251294,
				"element": "H" 
			}
		],
		 "valence_orbital": [ 
			{
				"type": "occ",
				"energy": -0.30516,
				"method": "rhf"
			},
			{
				"type": "occ",
				"energy": -0.29737,
				"method": "rhf"
			},
			{
				"type": "occ",
				"energy": -0.27506,
				"method": "rhf"
			},
			{
				"type": "occ",
				"energy": -0.24486,
				"method": "rhf"
			},
			{
				"type": "occ",
				"energy": -0.21988,
				"method": "rhf"
			},
			{
				"type": "unocc",
				"energy": 0.00065,
				"method": "rhf"
			},
			{
				"type": "unocc",
				"energy": 0.00836,
				"method": "rhf"
			},
			{
				"type": "unocc",
				"energy": 0.01059,
				"method": "rhf"
			},
			{
				"type": "unocc",
				"energy": 0.07939,
				"method": "rhf"
			},
			{
				"type": "unocc",
				"energy": 0.09086,
				"method": "rhf"
			}
		],
		"cosmo_sigma_profile": { 
			"-0.025": 0.0,
			"-0.024": 0.0,
			"-0.023": 0.0,
			"-0.022": 0.0,
			"-0.021": 0.0,
			"-0.02": 0.0,
			"-0.019": 0.0,
			"-0.018": 0.0,
			"-0.017": 0.0,
			"-0.016": 0.0,
			"-0.015": 0.0,
			"-0.014": 0.0,
			"-0.013": 0.0,
			"-0.012": 0.0,
			"-0.011": 0.0,
			"-0.01": 0.0,
			"-0.009": 0.0,
			"-0.008": 0.106914336372,
			"-0.007": 3.00269363898,
			"-0.006": 17.1178247657,
			"-0.005": 20.0635139643,
			"-0.004": 27.6021326806,
			"-0.003": 29.6308120803,
			"-0.002": 20.6245873353,
			"-0.001": 14.3965117563,
			"0.0": 15.2180718209,
			"0.001": 17.8159264469,
			"0.002": 16.4572909865,
			"0.003": 17.4660076536,
			"0.004": 19.7916235991,
			"0.005": 13.8592284349,
			"0.006": 4.33341602005,
			"0.007": 4.4867369672,
			"0.008": 3.1830465662,
			"0.009": 4.05755397032,
			"0.01": 2.86173101154,
			"0.011": 2.94021877382,
			"0.012": 3.69252829687,
			"0.013": 0.270670711297,
			"0.014": 0.0,
			"0.015": 0.0,
			"0.016": 0.0,
			"0.017": 0.0,
			"0.018": 0.0,
			"0.019": 0.0,
			"0.02": 0.0,
			"0.021": 0.0,
			"0.022": 0.0,
			"0.023": 0.0,
			"0.024": 0.0,
			"0.025": 0.0
		}
	}
}
