{
	 "smiles": "ClC1=CC=C(OC2=CC=CC=C2)C=C1", 
	 "Tm": 265.15, 
	 "num_atms": 23, 
	 "gaussian": { 
		 "optdone": 1, 
		 "sigma_profile": "yes", 
		 "theory": "DFT", 
		 "functional": "B3LYP", 
		 "basiset": "6-31G**", 
		 "properties": { 
			 "R2extent": 4880.3983, 
			 "electric_dipole_moment_norm": 2.13625112054, 
			 "electric_quadrupole_moment_norm": 8.6884667301, 
			 "total_energy": -998.10825514, 
			 "HOMO_LUMO_gap": 0.20099, 
			 "cosmo_polarized_energy": -5.86, 
			 "cosmo_cavitation_energy": 29.33, 
			 "cosmo_dispersion_energy": -21.53, 
			 "cosmo_repulsion_energy": 1.7, 
			 "cosmo_total_nonelectrostatic_energy": 9.49, 
			 "SMD_solvation_energy": 4.92 
		},
		"coords": [
			{
				"x": -5.5555946382,
				"y": -0.958983125,
				"z": -1.2490409016,
				"element": "Cl" 
			},
			{
				"x": -3.8914702301,
				"y": -1.0496838091,
				"z": -0.6858322013,
				"element": "C" 
			},
			{
				"x": -3.4126097755,
				"y": -2.2409847062,
				"z": -0.1404410093,
				"element": "C" 
			},
			{
				"x": -2.0919623352,
				"y": -2.3112132683,
				"z": 0.2971356822,
				"element": "C" 
			},
			{
				"x": -1.2599532342,
				"y": -1.1930541253,
				"z": 0.1948001011,
				"element": "C" 
			},
			{
				"x": 0.0080720104,
				"y": -1.3225662361,
				"z": 0.7171910853,
				"element": "O" 
			},
			{
				"x": 1.0734749802,
				"y": -0.6227354494,
				"z": 0.1769225098,
				"element": "C" 
			},
			{
				"x": 1.2938952115,
				"y": -0.5462504116,
				"z": -1.2014923212,
				"element": "C" 
			},
			{
				"x": 2.4318403409,
				"y": 0.1095836286,
				"z": -1.6724699765,
				"element": "C" 
			},
			{
				"x": 3.3472311417,
				"y": 0.6748351822,
				"z": -0.7816592177,
				"element": "C" 
			},
			{
				"x": 3.1191353026,
				"y": 0.5816873185,
				"z": 0.5928897266,
				"element": "C" 
			},
			{
				"x": 1.9809629506,
				"y": -0.0631096499,
				"z": 1.0776395878,
				"element": "C" 
			},
			{
				"x": -1.7479297102,
				"y": 0.0017753725,
				"z": -0.3438435957,
				"element": "C" 
			},
			{
				"x": -3.0676870067,
				"y": 0.0703893008,
				"z": -0.7894754293,
				"element": "C" 
			},
			{
				"x": -4.0632300798,
				"y": -3.1050500663,
				"z": -0.0640535329,
				"element": "H" 
			},
			{
				"x": -1.6930586748,
				"y": -3.2252668945,
				"z": 0.7238123113,
				"element": "H" 
			},
			{
				"x": 0.5870657948,
				"y": -0.9973426895,
				"z": -1.8897623644,
				"element": "H" 
			},
			{
				"x": 2.6057464714,
				"y": 0.1696342397,
				"z": -2.7430062942,
				"element": "H" 
			},
			{
				"x": 4.231818172,
				"y": 1.1807747715,
				"z": -1.1559328025,
				"element": "H" 
			},
			{
				"x": 3.82606548,
				"y": 1.0160022186,
				"z": 1.2938136446,
				"element": "H" 
			},
			{
				"x": 1.7836716184,
				"y": -0.1463065796,
				"z": 2.1412601615,
				"element": "H" 
			},
			{
				"x": -1.1049726848,
				"y": 0.8719611832,
				"z": -0.412664747,
				"element": "H" 
			},
			{
				"x": -3.4553111051,
				"y": 0.992803795,
				"z": -1.2076904167,
				"element": "H" 
			}
		],
		 "valence_orbital": [ 
			{
				"type": "occ",
				"energy": -0.31134,
				"method": "rhf"
			},
			{
				"type": "occ",
				"energy": -0.26796,
				"method": "rhf"
			},
			{
				"type": "occ",
				"energy": -0.25881,
				"method": "rhf"
			},
			{
				"type": "occ",
				"energy": -0.25115,
				"method": "rhf"
			},
			{
				"type": "occ",
				"energy": -0.22145,
				"method": "rhf"
			},
			{
				"type": "unocc",
				"energy": -0.02046,
				"method": "rhf"
			},
			{
				"type": "unocc",
				"energy": -0.01312,
				"method": "rhf"
			},
			{
				"type": "unocc",
				"energy": -0.00616,
				"method": "rhf"
			},
			{
				"type": "unocc",
				"energy": 0.0046,
				"method": "rhf"
			},
			{
				"type": "unocc",
				"energy": 0.03095,
				"method": "rhf"
			}
		],
		"cosmo_sigma_profile": { 
			"-0.025": 0.0,
			"-0.024": 0.0,
			"-0.023": 0.0,
			"-0.022": 0.0,
			"-0.021": 0.0,
			"-0.02": 0.0,
			"-0.019": 0.0,
			"-0.018": 0.0,
			"-0.017": 0.0,
			"-0.016": 0.0,
			"-0.015": 0.0,
			"-0.014": 0.0,
			"-0.013": 0.0,
			"-0.012": 0.0,
			"-0.011": 0.0,
			"-0.01": 0.0,
			"-0.009": 0.0,
			"-0.008": 0.712816960943,
			"-0.007": 6.71420030481,
			"-0.006": 15.0812651259,
			"-0.005": 16.5328692038,
			"-0.004": 17.2578201549,
			"-0.003": 16.3047000419,
			"-0.002": 13.5235648436,
			"-0.001": 14.3837672667,
			"0.0": 16.7555485752,
			"0.001": 19.4851523186,
			"0.002": 24.6616451122,
			"0.003": 29.9134645813,
			"0.004": 21.4819258672,
			"0.005": 18.6279101283,
			"0.006": 3.55361826649,
			"0.007": 1.63665379648,
			"0.008": 0.722118284569,
			"0.009": 0.817059412059,
			"0.01": 0.0,
			"0.011": 0.0,
			"0.012": 0.0,
			"0.013": 0.0,
			"0.014": 0.0,
			"0.015": 0.0,
			"0.016": 0.0,
			"0.017": 0.0,
			"0.018": 0.0,
			"0.019": 0.0,
			"0.02": 0.0,
			"0.021": 0.0,
			"0.022": 0.0,
			"0.023": 0.0,
			"0.024": 0.0,
			"0.025": 0.0
		}
	}
}
