{
	 "smiles": "C=CCCCCCCCCCCCCCCCCC1CC(=O)OC1=O", 
	 "Tm": 340.35, 
	 "num_atms": 63, 
	 "gaussian": { 
		 "optdone": 1, 
		 "sigma_profile": "yes", 
		 "theory": "DFT", 
		 "functional": "B3LYP", 
		 "basiset": "6-31G**", 
		 "properties": { 
			 "R2extent": 25931.4038, 
			 "electric_dipole_moment_norm": 4.91527498112, 
			 "electric_quadrupole_moment_norm": 47.0996241984, 
			 "total_energy": -1086.95463427, 
			 "HOMO_LUMO_gap": 0.2225, 
			 "cosmo_polarized_energy": -14.2, 
			 "cosmo_cavitation_energy": 63.01, 
			 "cosmo_dispersion_energy": -41.96, 
			 "cosmo_repulsion_energy": 3.31, 
			 "cosmo_total_nonelectrostatic_energy": 24.37, 
			 "SMD_solvation_energy": 10.8 
		},
		"coords": [
			{
				"x": -3.1916647506,
				"y": -8.1882658347,
				"z": 3.1109269624,
				"element": "C" 
			},
			{
				"x": -2.2865202854,
				"y": -7.2414363338,
				"z": 3.3618978855,
				"element": "C" 
			},
			{
				"x": -1.5194756418,
				"y": -6.4832604897,
				"z": 2.3111279119,
				"element": "C" 
			},
			{
				"x": -1.8245501555,
				"y": -4.9692461672,
				"z": 2.2715893894,
				"element": "C" 
			},
			{
				"x": -1.4045005965,
				"y": -4.2055847827,
				"z": 3.5363905155,
				"element": "C" 
			},
			{
				"x": -1.5702274195,
				"y": -2.6792939614,
				"z": 3.4402352879,
				"element": "C" 
			},
			{
				"x": -3.0272435405,
				"y": -2.2043470677,
				"z": 3.3301404805,
				"element": "C" 
			},
			{
				"x": -3.2038569012,
				"y": -0.6772046232,
				"z": 3.4096090874,
				"element": "C" 
			},
			{
				"x": -2.5409990342,
				"y": 0.1379500909,
				"z": 2.2844143741,
				"element": "C" 
			},
			{
				"x": -3.0974526603,
				"y": -0.1512083495,
				"z": 0.8818556605,
				"element": "C" 
			},
			{
				"x": -2.5639693511,
				"y": 0.7799956203,
				"z": -0.2198701355,
				"element": "C" 
			},
			{
				"x": -1.0639693113,
				"y": 0.6350828161,
				"z": -0.5137054063,
				"element": "C" 
			},
			{
				"x": -0.5853584006,
				"y": 1.5233099861,
				"z": -1.6701663119,
				"element": "C" 
			},
			{
				"x": 0.9148309226,
				"y": 1.377756673,
				"z": -1.9624445353,
				"element": "C" 
			},
			{
				"x": 1.4179280486,
				"y": 2.1875993182,
				"z": -3.1716301789,
				"element": "C" 
			},
			{
				"x": 1.3642068277,
				"y": 3.7216303977,
				"z": -3.0174254971,
				"element": "C" 
			},
			{
				"x": 2.3322658665,
				"y": 4.338094696,
				"z": -1.9799215481,
				"element": "C" 
			},
			{
				"x": 3.6691043928,
				"y": 4.8509275915,
				"z": -2.5441180796,
				"element": "C" 
			},
			{
				"x": 4.5995547587,
				"y": 3.7770020717,
				"z": -3.1292881996,
				"element": "C" 
			},
			{
				"x": 5.1924788921,
				"y": 2.7584035103,
				"z": -2.1468807529,
				"element": "C" 
			},
			{
				"x": 6.6498269084,
				"y": 2.6296223191,
				"z": -2.5563537261,
				"element": "C" 
			},
			{
				"x": 7.4703896738,
				"y": 1.8359330384,
				"z": -2.1985298205,
				"element": "O" 
			},
			{
				"x": 6.9601524196,
				"y": 3.6420894973,
				"z": -3.4583121338,
				"element": "O" 
			},
			{
				"x": 5.835745685,
				"y": 4.3949472093,
				"z": -3.77743538,
				"element": "C" 
			},
			{
				"x": 5.9096943604,
				"y": 5.3639829604,
				"z": -4.4770529192,
				"element": "O" 
			},
			{
				"x": -3.4345225305,
				"y": -8.4889437442,
				"z": 2.0938547506,
				"element": "H" 
			},
			{
				"x": -3.7211193535,
				"y": -8.7013688114,
				"z": 3.9086194648,
				"element": "H" 
			},
			{
				"x": -2.0760609636,
				"y": -6.9808611229,
				"z": 4.3994144192,
				"element": "H" 
			},
			{
				"x": -0.440647592,
				"y": -6.6160443691,
				"z": 2.4830228805,
				"element": "H" 
			},
			{
				"x": -1.735027908,
				"y": -6.9178020778,
				"z": 1.3275194113,
				"element": "H" 
			},
			{
				"x": -1.3020399646,
				"y": -4.5353793181,
				"z": 1.4076035465,
				"element": "H" 
			},
			{
				"x": -2.8968694111,
				"y": -4.8331308051,
				"z": 2.0865051415,
				"element": "H" 
			},
			{
				"x": -1.9762410627,
				"y": -4.5719389833,
				"z": 4.3995522007,
				"element": "H" 
			},
			{
				"x": -0.3506273383,
				"y": -4.4327013477,
				"z": 3.7499503677,
				"element": "H" 
			},
			{
				"x": -1.1177489318,
				"y": -2.2198725963,
				"z": 4.3301228854,
				"element": "H" 
			},
			{
				"x": -0.9902091439,
				"y": -2.312396162,
				"z": 2.5823970469,
				"element": "H" 
			},
			{
				"x": -3.4742743472,
				"y": -2.5791964035,
				"z": 2.4013991888,
				"element": "H" 
			},
			{
				"x": -3.6068007923,
				"y": -2.6602427592,
				"z": 4.1448508428,
				"element": "H" 
			},
			{
				"x": -4.2785172254,
				"y": -0.4488457293,
				"z": 3.4215626164,
				"element": "H" 
			},
			{
				"x": -2.8096215373,
				"y": -0.3280731764,
				"z": 4.3739421115,
				"element": "H" 
			},
			{
				"x": -1.4569247494,
				"y": -0.0286969321,
				"z": 2.299381445,
				"element": "H" 
			},
			{
				"x": -2.6821692061,
				"y": 1.2055094966,
				"z": 2.5040977436,
				"element": "H" 
			},
			{
				"x": -4.1924072387,
				"y": -0.0648426759,
				"z": 0.914467166,
				"element": "H" 
			},
			{
				"x": -2.8851093492,
				"y": -1.1917416739,
				"z": 0.6012939491,
				"element": "H" 
			},
			{
				"x": -3.1231081736,
				"y": 0.5872005561,
				"z": -1.1456603498,
				"element": "H" 
			},
			{
				"x": -2.780384168,
				"y": 1.8232984508,
				"z": 0.0520957842,
				"element": "H" 
			},
			{
				"x": -0.8417524328,
				"y": -0.4162147962,
				"z": -0.7481340834,
				"element": "H" 
			},
			{
				"x": -0.4813350848,
				"y": 0.8750217815,
				"z": 0.3855117006,
				"element": "H" 
			},
			{
				"x": -1.1553572215,
				"y": 1.2769764397,
				"z": -2.5776433675,
				"element": "H" 
			},
			{
				"x": -0.8247680362,
				"y": 2.5693974386,
				"z": -1.4369723515,
				"element": "H" 
			},
			{
				"x": 1.1349671129,
				"y": 0.3171436551,
				"z": -2.1441514469,
				"element": "H" 
			},
			{
				"x": 1.485412183,
				"y": 1.647796809,
				"z": -1.0627956397,
				"element": "H" 
			},
			{
				"x": 0.8207814268,
				"y": 1.9078666222,
				"z": -4.0499264576,
				"element": "H" 
			},
			{
				"x": 2.4438833457,
				"y": 1.8713397641,
				"z": -3.4007166906,
				"element": "H" 
			},
			{
				"x": 0.3385663451,
				"y": 4.0059046244,
				"z": -2.7563264495,
				"element": "H" 
			},
			{
				"x": 1.5504558054,
				"y": 4.1834076502,
				"z": -3.9964261422,
				"element": "H" 
			},
			{
				"x": 2.5206334833,
				"y": 3.6250443057,
				"z": -1.1665728282,
				"element": "H" 
			},
			{
				"x": 1.8436788081,
				"y": 5.1963706977,
				"z": -1.5042429976,
				"element": "H" 
			},
			{
				"x": 3.4774679589,
				"y": 5.5898173041,
				"z": -3.3300922997,
				"element": "H" 
			},
			{
				"x": 4.2121032485,
				"y": 5.3812324459,
				"z": -1.7504772922,
				"element": "H" 
			},
			{
				"x": 4.0788108062,
				"y": 3.2534465864,
				"z": -3.9415068819,
				"element": "H" 
			},
			{
				"x": 5.1672154309,
				"y": 3.1238527827,
				"z": -1.1129677805,
				"element": "H" 
			},
			{
				"x": 4.7191770999,
				"y": 1.774585887,
				"z": -2.1528045347,
				"element": "H" 
			}
		],
		 "valence_orbital": [ 
			{
				"type": "occ",
				"energy": -0.30577,
				"method": "rhf"
			},
			{
				"type": "occ",
				"energy": -0.30403,
				"method": "rhf"
			},
			{
				"type": "occ",
				"energy": -0.30252,
				"method": "rhf"
			},
			{
				"type": "occ",
				"energy": -0.2802,
				"method": "rhf"
			},
			{
				"type": "occ",
				"energy": -0.25138,
				"method": "rhf"
			},
			{
				"type": "unocc",
				"energy": -0.02888,
				"method": "rhf"
			},
			{
				"type": "unocc",
				"energy": -0.0056,
				"method": "rhf"
			},
			{
				"type": "unocc",
				"energy": 0.02103,
				"method": "rhf"
			},
			{
				"type": "unocc",
				"energy": 0.05773,
				"method": "rhf"
			},
			{
				"type": "unocc",
				"energy": 0.07745,
				"method": "rhf"
			}
		],
		"cosmo_sigma_profile": { 
			"-0.025": 0.0,
			"-0.024": 0.0,
			"-0.023": 0.0,
			"-0.022": 0.0,
			"-0.021": 0.0,
			"-0.02": 0.0,
			"-0.019": 0.0,
			"-0.018": 0.0,
			"-0.017": 0.0,
			"-0.016": 0.0,
			"-0.015": 0.0,
			"-0.014": 0.0,
			"-0.013": 0.0,
			"-0.012": 0.00261602457528,
			"-0.011": 0.976490475072,
			"-0.01": 2.03275123547,
			"-0.009": 3.15226704386,
			"-0.008": 5.76851999959,
			"-0.007": 9.24667299238,
			"-0.006": 6.99629177245,
			"-0.005": 8.84799130905,
			"-0.004": 15.0555946999,
			"-0.003": 27.6126920534,
			"-0.002": 56.1680892216,
			"-0.001": 91.7791660681,
			"0.0": 94.0764529746,
			"0.001": 69.6210926154,
			"0.002": 25.1476264205,
			"0.003": 9.07082939808,
			"0.004": 6.81890672509,
			"0.005": 6.82767043315,
			"0.006": 8.7151752544,
			"0.007": 8.75082626496,
			"0.008": 6.786655584,
			"0.009": 5.9942469291,
			"0.01": 11.1975961157,
			"0.011": 5.45821307068,
			"0.012": 0.11841402386,
			"0.013": 0.0,
			"0.014": 0.0,
			"0.015": 0.0,
			"0.016": 0.0,
			"0.017": 0.0,
			"0.018": 0.0,
			"0.019": 0.0,
			"0.02": 0.0,
			"0.021": 0.0,
			"0.022": 0.0,
			"0.023": 0.0,
			"0.024": 0.0,
			"0.025": 0.0
		}
	}
}
