{
	 "smiles": "CN1C(=O)NC=C(C(O)=O)C1=O", 
	 "Tm": 507.15, 
	 "num_atms": 18, 
	 "gaussian": { 
		 "optdone": 1, 
		 "sigma_profile": "yes", 
		 "theory": "DFT", 
		 "functional": "B3LYP", 
		 "basiset": "6-31G**", 
		 "properties": { 
			 "R2extent": 2604.8353, 
			 "electric_dipole_moment_norm": 4.64658390864, 
			 "electric_quadrupole_moment_norm": 20.1104958994, 
			 "total_energy": -642.696470687, 
			 "HOMO_LUMO_gap": 0.19537, 
			 "cosmo_polarized_energy": -23.84, 
			 "cosmo_cavitation_energy": 23.2, 
			 "cosmo_dispersion_energy": -17.38, 
			 "cosmo_repulsion_energy": 1.38, 
			 "cosmo_total_nonelectrostatic_energy": 7.19, 
			 "SMD_solvation_energy": 7.07 
		},
		"coords": [
			{
				"x": 0.5418333297,
				"y": -1.1570928389,
				"z": 2.7978093787,
				"element": "C" 
			},
			{
				"x": 0.5458322179,
				"y": -0.740151541,
				"z": 1.3905245359,
				"element": "N" 
			},
			{
				"x": -0.155191049,
				"y": 0.4053696735,
				"z": 1.0523102224,
				"element": "C" 
			},
			{
				"x": -0.7828764727,
				"y": 1.1071171675,
				"z": 1.8257682087,
				"element": "O" 
			},
			{
				"x": -0.0936031842,
				"y": 0.7241784294,
				"z": -0.3111838395,
				"element": "N" 
			},
			{
				"x": 0.5806132157,
				"y": -0.0018046786,
				"z": -1.2388138677,
				"element": "C" 
			},
			{
				"x": 1.2705255267,
				"y": -1.1282596141,
				"z": -0.9096491683,
				"element": "C" 
			},
			{
				"x": 1.9923222232,
				"y": -1.8907977433,
				"z": -1.951698648,
				"element": "C" 
			},
			{
				"x": 1.8511624293,
				"y": -1.3094716027,
				"z": -3.1835578449,
				"element": "O" 
			},
			{
				"x": 2.638287065,
				"y": -2.9009885218,
				"z": -1.7958892681,
				"element": "O" 
			},
			{
				"x": 1.2846017121,
				"y": -1.5710052215,
				"z": 0.4955489685,
				"element": "C" 
			},
			{
				"x": 1.8531710403,
				"y": -2.550066119,
				"z": 0.9380593684,
				"element": "O" 
			},
			{
				"x": 0.1185354951,
				"y": -2.1599297203,
				"z": 2.8817242722,
				"element": "H" 
			},
			{
				"x": -0.0533911633,
				"y": -0.439698476,
				"z": 3.3573689915,
				"element": "H" 
			},
			{
				"x": 1.5662253983,
				"y": -1.1868520648,
				"z": 3.1742012533,
				"element": "H" 
			},
			{
				"x": -0.6036001232,
				"y": 1.5588063098,
				"z": -0.5651025542,
				"element": "H" 
			},
			{
				"x": 0.5413185526,
				"y": 0.3627201559,
				"z": -2.2578371663,
				"element": "H" 
			},
			{
				"x": 2.3537337864,
				"y": -1.876273594,
				"z": -3.7905828427,
				"element": "H" 
			}
		],
		 "valence_orbital": [ 
			{
				"type": "occ",
				"energy": -0.30494,
				"method": "rhf"
			},
			{
				"type": "occ",
				"energy": -0.28563,
				"method": "rhf"
			},
			{
				"type": "occ",
				"energy": -0.28053,
				"method": "rhf"
			},
			{
				"type": "occ",
				"energy": -0.26343,
				"method": "rhf"
			},
			{
				"type": "occ",
				"energy": -0.2606,
				"method": "rhf"
			},
			{
				"type": "unocc",
				"energy": -0.06523,
				"method": "rhf"
			},
			{
				"type": "unocc",
				"energy": -0.01417,
				"method": "rhf"
			},
			{
				"type": "unocc",
				"energy": 0.03698,
				"method": "rhf"
			},
			{
				"type": "unocc",
				"energy": 0.04907,
				"method": "rhf"
			},
			{
				"type": "unocc",
				"energy": 0.07462,
				"method": "rhf"
			}
		],
		"cosmo_sigma_profile": { 
			"-0.025": 0.0,
			"-0.024": 0.0,
			"-0.023": 0.0,
			"-0.022": 0.0,
			"-0.021": 0.0,
			"-0.02": 0.0,
			"-0.019": 0.00775662786509,
			"-0.018": 2.2435408466,
			"-0.017": 2.58958802588,
			"-0.016": 1.79962380084,
			"-0.015": 1.93975390905,
			"-0.014": 1.83510452207,
			"-0.013": 1.77772308875,
			"-0.012": 2.38398920804,
			"-0.011": 2.71378074447,
			"-0.01": 2.39375073435,
			"-0.009": 1.70649259836,
			"-0.008": 2.39563823991,
			"-0.007": 3.73435753714,
			"-0.006": 7.32523295391,
			"-0.005": 10.2174188896,
			"-0.004": 14.5259059899,
			"-0.003": 20.7786874656,
			"-0.002": 17.4184851133,
			"-0.001": 8.02484185695,
			"0.0": 5.84552182554,
			"0.001": 5.05922542299,
			"0.002": 4.65287764183,
			"0.003": 5.21956947553,
			"0.004": 4.51420434841,
			"0.005": 4.23233910398,
			"0.006": 4.65328098203,
			"0.007": 4.18900383074,
			"0.008": 3.17221670226,
			"0.009": 4.05226297609,
			"0.01": 5.05842353918,
			"0.011": 8.76178129928,
			"0.012": 11.8273085189,
			"0.013": 3.14625039974,
			"0.014": 1.62891573975,
			"0.015": 1.42664325656,
			"0.016": 1.38377791662,
			"0.017": 0.557076720803,
			"0.018": 0.0224059652203,
			"0.019": 0.0,
			"0.02": 0.0,
			"0.021": 0.0,
			"0.022": 0.0,
			"0.023": 0.0,
			"0.024": 0.0,
			"0.025": 0.0
		}
	}
}
