{
	 "smiles": "CC1=C(C)C=C(C=C1)S(Cl)(=O)=O", 
	 "Tm": 310.15, 
	 "num_atms": 21, 
	 "gaussian": { 
		 "optdone": 1, 
		 "sigma_profile": "yes", 
		 "theory": "DFT", 
		 "functional": "B3LYP", 
		 "basiset": "6-31G**", 
		 "properties": { 
			 "R2extent": 4165.8815, 
			 "electric_dipole_moment_norm": 6.51354016569, 
			 "electric_quadrupole_moment_norm": 15.9050250663, 
			 "total_energy": -1319.05069754, 
			 "HOMO_LUMO_gap": 0.18556, 
			 "cosmo_polarized_energy": -9.36, 
			 "cosmo_cavitation_energy": 28.02, 
			 "cosmo_dispersion_energy": -20.78, 
			 "cosmo_repulsion_energy": 1.61, 
			 "cosmo_total_nonelectrostatic_energy": 8.85, 
			 "SMD_solvation_energy": 3.55 
		},
		"coords": [
			{
				"x": -0.1455361307,
				"y": 2.692463382,
				"z": 0.0840378631,
				"element": "C" 
			},
			{
				"x": 0.0783194495,
				"y": 1.2385411601,
				"z": -0.2480338465,
				"element": "C" 
			},
			{
				"x": 1.3900930703,
				"y": 0.7172535673,
				"z": -0.3457845712,
				"element": "C" 
			},
			{
				"x": 2.5948528826,
				"y": 1.5969514968,
				"z": -0.1166146274,
				"element": "C" 
			},
			{
				"x": 1.5622581746,
				"y": -0.6334010406,
				"z": -0.6561981501,
				"element": "C" 
			},
			{
				"x": 0.4465359578,
				"y": -1.4454532227,
				"z": -0.8615591079,
				"element": "C" 
			},
			{
				"x": -0.853489791,
				"y": -0.9557401343,
				"z": -0.7692897811,
				"element": "C" 
			},
			{
				"x": -1.0179659548,
				"y": 0.3921132932,
				"z": -0.4589454342,
				"element": "C" 
			},
			{
				"x": 0.6962242433,
				"y": -3.1692572341,
				"z": -1.2407601223,
				"element": "S" 
			},
			{
				"x": 0.8112009263,
				"y": -3.1241513078,
				"z": -3.3790518741,
				"element": "Cl" 
			},
			{
				"x": 2.0152365242,
				"y": -3.5863790303,
				"z": -0.7798051562,
				"element": "O" 
			},
			{
				"x": -0.5126593333,
				"y": -3.9192408855,
				"z": -0.9214292796,
				"element": "O" 
			},
			{
				"x": -1.2106847844,
				"y": 2.9329778724,
				"z": 0.1147712507,
				"element": "H" 
			},
			{
				"x": 0.2867416427,
				"y": 2.9516159797,
				"z": 1.0577984116,
				"element": "H" 
			},
			{
				"x": 0.3273922007,
				"y": 3.3493014724,
				"z": -0.6554393325,
				"element": "H" 
			},
			{
				"x": 2.5869400999,
				"y": 2.0355224909,
				"z": 0.8880960101,
				"element": "H" 
			},
			{
				"x": 2.6231359474,
				"y": 2.4313863713,
				"z": -0.8271495036,
				"element": "H" 
			},
			{
				"x": 3.5229665048,
				"y": 1.0316478204,
				"z": -0.2276428671,
				"element": "H" 
			},
			{
				"x": 2.5577787053,
				"y": -1.0583114014,
				"z": -0.7285763841,
				"element": "H" 
			},
			{
				"x": -1.703621151,
				"y": -1.6098624057,
				"z": -0.9249607082,
				"element": "H" 
			},
			{
				"x": -2.0225191841,
				"y": 0.7971217559,
				"z": -0.3758627896,
				"element": "H" 
			}
		],
		 "valence_orbital": [ 
			{
				"type": "occ",
				"energy": -0.32964,
				"method": "rhf"
			},
			{
				"type": "occ",
				"energy": -0.32402,
				"method": "rhf"
			},
			{
				"type": "occ",
				"energy": -0.30725,
				"method": "rhf"
			},
			{
				"type": "occ",
				"energy": -0.27836,
				"method": "rhf"
			},
			{
				"type": "occ",
				"energy": -0.27031,
				"method": "rhf"
			},
			{
				"type": "unocc",
				"energy": -0.08475,
				"method": "rhf"
			},
			{
				"type": "unocc",
				"energy": -0.037,
				"method": "rhf"
			},
			{
				"type": "unocc",
				"energy": -0.02884,
				"method": "rhf"
			},
			{
				"type": "unocc",
				"energy": 0.0565,
				"method": "rhf"
			},
			{
				"type": "unocc",
				"energy": 0.07387,
				"method": "rhf"
			}
		],
		"cosmo_sigma_profile": { 
			"-0.025": 0.0,
			"-0.024": 0.0,
			"-0.023": 0.0,
			"-0.022": 0.0,
			"-0.021": 0.0,
			"-0.02": 0.0,
			"-0.019": 0.0,
			"-0.018": 0.0,
			"-0.017": 0.0,
			"-0.016": 0.0,
			"-0.015": 0.0,
			"-0.014": 0.0,
			"-0.013": 0.0,
			"-0.012": 0.0,
			"-0.011": 0.0,
			"-0.01": 0.0,
			"-0.009": 0.0,
			"-0.008": 1.41451725669,
			"-0.007": 4.90343219908,
			"-0.006": 8.30055011779,
			"-0.005": 18.3976212414,
			"-0.004": 17.6174619243,
			"-0.003": 17.0386526143,
			"-0.002": 17.9089677295,
			"-0.001": 25.1000136901,
			"0.0": 21.937099981,
			"0.001": 16.39672221,
			"0.002": 19.8182976706,
			"0.003": 14.1537078311,
			"0.004": 13.9752024477,
			"0.005": 3.63994594947,
			"0.006": 3.22029390064,
			"0.007": 5.61789077934,
			"0.008": 9.32559473988,
			"0.009": 6.54932841933,
			"0.01": 0.206237734806,
			"0.011": 0.0,
			"0.012": 0.0,
			"0.013": 0.0,
			"0.014": 0.0,
			"0.015": 0.0,
			"0.016": 0.0,
			"0.017": 0.0,
			"0.018": 0.0,
			"0.019": 0.0,
			"0.02": 0.0,
			"0.021": 0.0,
			"0.022": 0.0,
			"0.023": 0.0,
			"0.024": 0.0,
			"0.025": 0.0
		}
	}
}
