{
	 "smiles": "CCOC(=O)CC1=CSC(N)=N1", 
	 "Tm": 366.15, 
	 "num_atms": 22, 
	 "gaussian": { 
		 "optdone": 1, 
		 "sigma_profile": "yes", 
		 "theory": "DFT", 
		 "functional": "B3LYP", 
		 "basiset": "6-31G**", 
		 "properties": { 
			 "R2extent": 3698.2665, 
			 "electric_dipole_moment_norm": 1.50581211975, 
			 "electric_quadrupole_moment_norm": 17.3914954647, 
			 "total_energy": -930.920872731, 
			 "HOMO_LUMO_gap": 0.20703, 
			 "cosmo_polarized_energy": -12.54, 
			 "cosmo_cavitation_energy": 27.93, 
			 "cosmo_dispersion_energy": -21.26, 
			 "cosmo_repulsion_energy": 1.69, 
			 "cosmo_total_nonelectrostatic_energy": 8.37, 
			 "SMD_solvation_energy": 4.13 
		},
		"coords": [
			{
				"x": 3.7163051925,
				"y": 0.0514792299,
				"z": -3.2846745558,
				"element": "C" 
			},
			{
				"x": 2.2210634236,
				"y": 0.1849241132,
				"z": -3.5312044958,
				"element": "C" 
			},
			{
				"x": 1.4579728015,
				"y": -0.5937633602,
				"z": -2.5780453205,
				"element": "O" 
			},
			{
				"x": 1.1792845398,
				"y": -0.0019940538,
				"z": -1.3941069212,
				"element": "C" 
			},
			{
				"x": 1.5299032342,
				"y": 1.1242103129,
				"z": -1.1090683836,
				"element": "O" 
			},
			{
				"x": 0.3762446733,
				"y": -0.9576391285,
				"z": -0.5342049109,
				"element": "C" 
			},
			{
				"x": -0.0009990962,
				"y": -0.5061033746,
				"z": 0.8508410328,
				"element": "C" 
			},
			{
				"x": 0.2705187605,
				"y": 0.6810868469,
				"z": 1.4584356944,
				"element": "C" 
			},
			{
				"x": -0.3924614276,
				"y": 0.6877959177,
				"z": 3.077896583,
				"element": "S" 
			},
			{
				"x": -1.0074001486,
				"y": -0.9412348895,
				"z": 2.7767051879,
				"element": "C" 
			},
			{
				"x": -1.6590366897,
				"y": -1.6521912136,
				"z": 3.762592673,
				"element": "N" 
			},
			{
				"x": -0.7306133581,
				"y": -1.4203356598,
				"z": 1.5995929471,
				"element": "N" 
			},
			{
				"x": 3.9863560173,
				"y": 0.4823643133,
				"z": -2.3174847386,
				"element": "H" 
			},
			{
				"x": 4.2705009266,
				"y": 0.5846338816,
				"z": -4.0643986031,
				"element": "H" 
			},
			{
				"x": 4.0221892738,
				"y": -0.9987124956,
				"z": -3.3032178534,
				"element": "H" 
			},
			{
				"x": 1.9029230836,
				"y": 1.228370068,
				"z": -3.4702076301,
				"element": "H" 
			},
			{
				"x": 1.9374958823,
				"y": -0.224819331,
				"z": -4.5036233678,
				"element": "H" 
			},
			{
				"x": 0.9377493842,
				"y": -1.8983221429,
				"z": -0.4710481455,
				"element": "H" 
			},
			{
				"x": -0.5312298737,
				"y": -1.2205302911,
				"z": -1.093430699,
				"element": "H" 
			},
			{
				"x": 0.8009820706,
				"y": 1.5298607327,
				"z": 1.0597789973,
				"element": "H" 
			},
			{
				"x": -2.1215308674,
				"y": -2.4776542302,
				"z": 3.4037151275,
				"element": "H" 
			},
			{
				"x": -2.2270178025,
				"y": -1.1174252456,
				"z": 4.4044573821,
				"element": "H" 
			}
		],
		 "valence_orbital": [ 
			{
				"type": "occ",
				"energy": -0.299,
				"method": "rhf"
			},
			{
				"type": "occ",
				"energy": -0.27326,
				"method": "rhf"
			},
			{
				"type": "occ",
				"energy": -0.26823,
				"method": "rhf"
			},
			{
				"type": "occ",
				"energy": -0.26537,
				"method": "rhf"
			},
			{
				"type": "occ",
				"energy": -0.20397,
				"method": "rhf"
			},
			{
				"type": "unocc",
				"energy": 0.00306,
				"method": "rhf"
			},
			{
				"type": "unocc",
				"energy": 0.01276,
				"method": "rhf"
			},
			{
				"type": "unocc",
				"energy": 0.01946,
				"method": "rhf"
			},
			{
				"type": "unocc",
				"energy": 0.06454,
				"method": "rhf"
			},
			{
				"type": "unocc",
				"energy": 0.07715,
				"method": "rhf"
			}
		],
		"cosmo_sigma_profile": { 
			"-0.025": 0.0,
			"-0.024": 0.0,
			"-0.023": 0.0,
			"-0.022": 0.0,
			"-0.021": 0.0,
			"-0.02": 0.0,
			"-0.019": 0.0,
			"-0.018": 0.0,
			"-0.017": 0.0,
			"-0.016": 0.0,
			"-0.015": 0.081231658228,
			"-0.014": 1.64758904364,
			"-0.013": 2.76900873232,
			"-0.012": 2.4487128126,
			"-0.011": 3.19456243387,
			"-0.01": 1.83312014736,
			"-0.009": 2.24582051009,
			"-0.008": 1.94179858713,
			"-0.007": 4.98385172198,
			"-0.006": 7.78829270115,
			"-0.005": 11.1449106894,
			"-0.004": 17.1839657701,
			"-0.003": 18.3949764122,
			"-0.002": 17.2584676773,
			"-0.001": 15.4466647779,
			"0.0": 15.9607918967,
			"0.001": 12.3301293958,
			"0.002": 13.321356586,
			"0.003": 13.6797906421,
			"0.004": 15.2387298484,
			"0.005": 11.7333702934,
			"0.006": 6.30740984511,
			"0.007": 5.54775319728,
			"0.008": 5.36250570126,
			"0.009": 3.83382531578,
			"0.01": 3.08948260158,
			"0.011": 4.0481288637,
			"0.012": 1.90991685498,
			"0.013": 0.878844582337,
			"0.014": 0.925825019956,
			"0.015": 0.691668546859,
			"0.016": 0.0215694794707,
			"0.017": 0.0,
			"0.018": 0.0,
			"0.019": 0.0,
			"0.02": 0.0,
			"0.021": 0.0,
			"0.022": 0.0,
			"0.023": 0.0,
			"0.024": 0.0,
			"0.025": 0.0
		}
	}
}
