{
	 "smiles": "OCC1CC2=C(N1)C=CC=C2", 
	 "Tm": 326.65, 
	 "num_atms": 22, 
	 "gaussian": { 
		 "optdone": 1, 
		 "sigma_profile": "yes", 
		 "theory": "DFT", 
		 "functional": "B3LYP", 
		 "basiset": "6-31G**", 
		 "properties": { 
			 "R2extent": 2721.3101, 
			 "electric_dipole_moment_norm": 2.10076731934, 
			 "electric_quadrupole_moment_norm": 5.46597498897, 
			 "total_energy": -479.554216419, 
			 "HOMO_LUMO_gap": 0.19551, 
			 "cosmo_polarized_energy": -9.72, 
			 "cosmo_cavitation_energy": 24.59, 
			 "cosmo_dispersion_energy": -18.5, 
			 "cosmo_repulsion_energy": 1.5, 
			 "cosmo_total_nonelectrostatic_energy": 7.59, 
			 "SMD_solvation_energy": 2.84 
		},
		"coords": [
			{
				"x": 2.6536143039,
				"y": 0.6795113691,
				"z": -0.2993822315,
				"element": "O" 
			},
			{
				"x": 1.4602759245,
				"y": 0.4409319674,
				"z": 0.4404897669,
				"element": "C" 
			},
			{
				"x": 0.4277443118,
				"y": -0.0950847235,
				"z": -0.5345070346,
				"element": "C" 
			},
			{
				"x": -0.9405727441,
				"y": -0.4555984254,
				"z": 0.0976115758,
				"element": "C" 
			},
			{
				"x": -1.9074384842,
				"y": -0.1419876497,
				"z": -1.0264383968,
				"element": "C" 
			},
			{
				"x": -1.240531011,
				"y": 0.6664469843,
				"z": -1.9660549527,
				"element": "C" 
			},
			{
				"x": 0.0716124143,
				"y": 0.9108320741,
				"z": -1.5512974632,
				"element": "N" 
			},
			{
				"x": -1.9006024223,
				"y": 1.1380868553,
				"z": -3.1013693718,
				"element": "C" 
			},
			{
				"x": -3.2442447125,
				"y": 0.78617348,
				"z": -3.2791455869,
				"element": "C" 
			},
			{
				"x": -3.9142773583,
				"y": -0.012426688,
				"z": -2.3501992301,
				"element": "C" 
			},
			{
				"x": -3.2399957374,
				"y": -0.4774959571,
				"z": -1.2103543415,
				"element": "C" 
			},
			{
				"x": 3.2752978379,
				"y": 1.1497428468,
				"z": 0.2687737933,
				"element": "H" 
			},
			{
				"x": 1.6256292372,
				"y": -0.2963615787,
				"z": 1.2432542648,
				"element": "H" 
			},
			{
				"x": 1.0736275454,
				"y": 1.3654717313,
				"z": 0.894483191,
				"element": "H" 
			},
			{
				"x": 0.8527948161,
				"y": -0.9924515465,
				"z": -1.0144886958,
				"element": "H" 
			},
			{
				"x": -0.9758709464,
				"y": -1.4935038395,
				"z": 0.4408626581,
				"element": "H" 
			},
			{
				"x": -1.1400659379,
				"y": 0.1864679077,
				"z": 0.9688152808,
				"element": "H" 
			},
			{
				"x": 0.7735202276,
				"y": 1.0831376104,
				"z": -2.2587372783,
				"element": "H" 
			},
			{
				"x": -1.3872537712,
				"y": 1.7588885371,
				"z": -3.8303532667,
				"element": "H" 
			},
			{
				"x": -3.7705026724,
				"y": 1.140049894,
				"z": -4.1616535608,
				"element": "H" 
			},
			{
				"x": -4.9550529244,
				"y": -0.2765643212,
				"z": -2.5106100548,
				"element": "H" 
			},
			{
				"x": -3.7568078967,
				"y": -1.1020665278,
				"z": -0.4855990652,
				"element": "H" 
			}
		],
		 "valence_orbital": [ 
			{
				"type": "occ",
				"energy": -0.32425,
				"method": "rhf"
			},
			{
				"type": "occ",
				"energy": -0.28343,
				"method": "rhf"
			},
			{
				"type": "occ",
				"energy": -0.2732,
				"method": "rhf"
			},
			{
				"type": "occ",
				"energy": -0.23424,
				"method": "rhf"
			},
			{
				"type": "occ",
				"energy": -0.18629,
				"method": "rhf"
			},
			{
				"type": "unocc",
				"energy": 0.00922,
				"method": "rhf"
			},
			{
				"type": "unocc",
				"energy": 0.02689,
				"method": "rhf"
			},
			{
				"type": "unocc",
				"energy": 0.07175,
				"method": "rhf"
			},
			{
				"type": "unocc",
				"energy": 0.10063,
				"method": "rhf"
			},
			{
				"type": "unocc",
				"energy": 0.10744,
				"method": "rhf"
			}
		],
		"cosmo_sigma_profile": { 
			"-0.025": 0.0,
			"-0.024": 0.0,
			"-0.023": 0.0,
			"-0.022": 0.0,
			"-0.021": 0.0,
			"-0.02": 0.0,
			"-0.019": 0.0,
			"-0.018": 0.0,
			"-0.017": 0.0,
			"-0.016": 0.453895259726,
			"-0.015": 1.17344831172,
			"-0.014": 0.991264330316,
			"-0.013": 1.08434586518,
			"-0.012": 1.06806678836,
			"-0.011": 1.71039611355,
			"-0.01": 1.20927178814,
			"-0.009": 1.75072749994,
			"-0.008": 2.44987741671,
			"-0.007": 1.83546596452,
			"-0.006": 3.07537272589,
			"-0.005": 8.38812399941,
			"-0.004": 17.4368521339,
			"-0.003": 27.8259655829,
			"-0.002": 21.8047288049,
			"-0.001": 13.6679694459,
			"0.0": 10.8683039022,
			"0.001": 7.92279334155,
			"0.002": 7.23215133961,
			"0.003": 7.27831249491,
			"0.004": 8.88216851539,
			"0.005": 8.96013710464,
			"0.006": 10.4894823078,
			"0.007": 9.23834275728,
			"0.008": 5.88579028329,
			"0.009": 3.02643416774,
			"0.01": 1.36362083822,
			"0.011": 1.74203240433,
			"0.012": 2.15340135446,
			"0.013": 1.28396215963,
			"0.014": 0.825149714041,
			"0.015": 0.107090606719,
			"0.016": 0.0,
			"0.017": 0.0,
			"0.018": 0.0,
			"0.019": 0.0,
			"0.02": 0.0,
			"0.021": 0.0,
			"0.022": 0.0,
			"0.023": 0.0,
			"0.024": 0.0,
			"0.025": 0.0
		}
	}
}
