{
	 "smiles": "COC1=C(NCC(=O)NN)C=CC=C1", 
	 "Tm": 377.15, 
	 "num_atms": 27, 
	 "gaussian": { 
		 "optdone": 1, 
		 "sigma_profile": "yes", 
		 "theory": "DFT", 
		 "functional": "B3LYP", 
		 "basiset": "6-31G**", 
		 "properties": { 
			 "R2extent": 3748.0032, 
			 "electric_dipole_moment_norm": 5.31049895678, 
			 "electric_quadrupole_moment_norm": 14.4195506723, 
			 "total_energy": -665.446300619, 
			 "HOMO_LUMO_gap": 0.20644, 
			 "cosmo_polarized_energy": -18.65, 
			 "cosmo_cavitation_energy": 30.44, 
			 "cosmo_dispersion_energy": -21.62, 
			 "cosmo_repulsion_energy": 1.74, 
			 "cosmo_total_nonelectrostatic_energy": 10.57, 
			 "SMD_solvation_energy": 6.6 
		},
		"coords": [
			{
				"x": 3.1400561071,
				"y": -1.5627940638,
				"z": -0.9127883854,
				"element": "C" 
			},
			{
				"x": 2.2571515472,
				"y": -2.3889079981,
				"z": -0.1431162799,
				"element": "O" 
			},
			{
				"x": 1.8532101171,
				"y": -1.83914915,
				"z": 1.0592480129,
				"element": "C" 
			},
			{
				"x": 0.907872772,
				"y": -0.787288941,
				"z": 1.1117834261,
				"element": "C" 
			},
			{
				"x": 0.3773571527,
				"y": -0.1970774291,
				"z": -0.0514519106,
				"element": "N" 
			},
			{
				"x": -0.2614590291,
				"y": -1.0480340691,
				"z": -1.0648573758,
				"element": "C" 
			},
			{
				"x": -0.2350999194,
				"y": -0.3854754687,
				"z": -2.4409224666,
				"element": "C" 
			},
			{
				"x": 0.3714658516,
				"y": -0.8511714265,
				"z": -3.3942716355,
				"element": "O" 
			},
			{
				"x": -0.9638844837,
				"y": 0.7727871303,
				"z": -2.5922045582,
				"element": "N" 
			},
			{
				"x": -1.6161186421,
				"y": 1.415111509,
				"z": -1.5307097567,
				"element": "N" 
			},
			{
				"x": 0.5576553365,
				"y": -0.2895782756,
				"z": 2.3781374001,
				"element": "C" 
			},
			{
				"x": 1.1036402321,
				"y": -0.814939096,
				"z": 3.5483570076,
				"element": "C" 
			},
			{
				"x": 2.005265518,
				"y": -1.8769441988,
				"z": 3.4832700526,
				"element": "C" 
			},
			{
				"x": 2.3734293045,
				"y": -2.3795509615,
				"z": 2.2343587534,
				"element": "C" 
			},
			{
				"x": 3.3400703972,
				"y": -2.1066279458,
				"z": -1.8375996898,
				"element": "H" 
			},
			{
				"x": 4.0800225667,
				"y": -1.3962114877,
				"z": -0.3713050925,
				"element": "H" 
			},
			{
				"x": 2.6800270149,
				"y": -0.5991668889,
				"z": -1.1525168584,
				"element": "H" 
			},
			{
				"x": -0.2429919378,
				"y": 0.5732624331,
				"z": 0.1716126587,
				"element": "H" 
			},
			{
				"x": -1.3002373303,
				"y": -1.2973740351,
				"z": -0.7965935646,
				"element": "H" 
			},
			{
				"x": 0.3041111242,
				"y": -1.971399999,
				"z": -1.1656287342,
				"element": "H" 
			},
			{
				"x": -0.9085775755,
				"y": 1.2042921331,
				"z": -3.5094599421,
				"element": "H" 
			},
			{
				"x": -2.6134408236,
				"y": 1.4833259047,
				"z": -1.7207444021,
				"element": "H" 
			},
			{
				"x": -1.2448722333,
				"y": 2.3550855737,
				"z": -1.4098572597,
				"element": "H" 
			},
			{
				"x": -0.1666896892,
				"y": 0.5204056897,
				"z": 2.4359689046,
				"element": "H" 
			},
			{
				"x": 0.8066731639,
				"y": -0.4041118874,
				"z": 4.5090830992,
				"element": "H" 
			},
			{
				"x": 2.4241143673,
				"y": -2.3047749831,
				"z": 4.3888529492,
				"element": "H" 
			},
			{
				"x": 3.081549091,
				"y": -3.1972920681,
				"z": 2.1404556476,
				"element": "H" 
			}
		],
		 "valence_orbital": [ 
			{
				"type": "occ",
				"energy": -0.26256,
				"method": "rhf"
			},
			{
				"type": "occ",
				"energy": -0.26015,
				"method": "rhf"
			},
			{
				"type": "occ",
				"energy": -0.2447,
				"method": "rhf"
			},
			{
				"type": "occ",
				"energy": -0.23004,
				"method": "rhf"
			},
			{
				"type": "occ",
				"energy": -0.19497,
				"method": "rhf"
			},
			{
				"type": "unocc",
				"energy": 0.01147,
				"method": "rhf"
			},
			{
				"type": "unocc",
				"energy": 0.01679,
				"method": "rhf"
			},
			{
				"type": "unocc",
				"energy": 0.02305,
				"method": "rhf"
			},
			{
				"type": "unocc",
				"energy": 0.05244,
				"method": "rhf"
			},
			{
				"type": "unocc",
				"energy": 0.09353,
				"method": "rhf"
			}
		],
		"cosmo_sigma_profile": { 
			"-0.025": 0.0,
			"-0.024": 0.0,
			"-0.023": 0.0,
			"-0.022": 0.0,
			"-0.021": 0.0,
			"-0.02": 0.0,
			"-0.019": 0.0,
			"-0.018": 0.0,
			"-0.017": 0.0,
			"-0.016": 0.0,
			"-0.015": 0.0,
			"-0.014": 0.390001019564,
			"-0.013": 1.92126254097,
			"-0.012": 4.22992058076,
			"-0.011": 5.4597112896,
			"-0.01": 5.2772654915,
			"-0.009": 4.20981408217,
			"-0.008": 4.76881756807,
			"-0.007": 3.19485117483,
			"-0.006": 6.24640510282,
			"-0.005": 13.407152995,
			"-0.004": 16.0114602309,
			"-0.003": 19.8590003359,
			"-0.002": 20.4163647772,
			"-0.001": 16.2240228879,
			"0.0": 12.163908744,
			"0.001": 11.9233151656,
			"0.002": 11.745820693,
			"0.003": 14.133469757,
			"0.004": 12.0750886472,
			"0.005": 14.9788080624,
			"0.006": 11.768143077,
			"0.007": 6.59998647709,
			"0.008": 3.38969747522,
			"0.009": 2.50620536524,
			"0.01": 3.26565713804,
			"0.011": 2.0458925703,
			"0.012": 2.40117197208,
			"0.013": 4.19686872305,
			"0.014": 4.53997651521,
			"0.015": 0.599525564393,
			"0.016": 0.0,
			"0.017": 0.0,
			"0.018": 0.0,
			"0.019": 0.0,
			"0.02": 0.0,
			"0.021": 0.0,
			"0.022": 0.0,
			"0.023": 0.0,
			"0.024": 0.0,
			"0.025": 0.0
		}
	}
}
