{
	 "smiles": "CC1=NN(C(OC2=CC=CC=C2)=C1C=O)C1=CC=CC=C1", 
	 "Tm": 366.15, 
	 "num_atms": 35, 
	 "gaussian": { 
		 "optdone": 1, 
		 "sigma_profile": "yes", 
		 "theory": "DFT", 
		 "functional": "B3LYP", 
		 "basiset": "6-31G**", 
		 "properties": { 
			 "R2extent": 6815.0984, 
			 "electric_dipole_moment_norm": 2.2504448027, 
			 "electric_quadrupole_moment_norm": 11.1470435013, 
			 "total_energy": -916.161710583, 
			 "HOMO_LUMO_gap": 0.18295, 
			 "cosmo_polarized_energy": -13.24, 
			 "cosmo_cavitation_energy": 39.98, 
			 "cosmo_dispersion_energy": -27.36, 
			 "cosmo_repulsion_energy": 2.11, 
			 "cosmo_total_nonelectrostatic_energy": 14.73, 
			 "SMD_solvation_energy": 7.16 
		},
		"coords": [
			{
				"x": 1.5701829152,
				"y": -0.3493989908,
				"z": -3.2692673332,
				"element": "C" 
			},
			{
				"x": 0.8294446764,
				"y": -0.1325843798,
				"z": -1.9853738326,
				"element": "C" 
			},
			{
				"x": 1.0916881355,
				"y": -0.8928545125,
				"z": -0.934995268,
				"element": "N" 
			},
			{
				"x": 0.2667349081,
				"y": -0.441796343,
				"z": 0.0703318897,
				"element": "N" 
			},
			{
				"x": -0.5059991158,
				"y": 0.5933945163,
				"z": -0.3584692011,
				"element": "C" 
			},
			{
				"x": -1.3520867704,
				"y": 1.2118844878,
				"z": 0.4857104387,
				"element": "O" 
			},
			{
				"x": -2.7143253478,
				"y": 1.3098218439,
				"z": 0.1776299173,
				"element": "C" 
			},
			{
				"x": -3.3796084031,
				"y": 0.3458578905,
				"z": -0.5748569107,
				"element": "C" 
			},
			{
				"x": -4.7549006652,
				"y": 0.4820116993,
				"z": -0.7734240895,
				"element": "C" 
			},
			{
				"x": -5.4503915808,
				"y": 1.5565004417,
				"z": -0.2177463121,
				"element": "C" 
			},
			{
				"x": -4.7623644182,
				"y": 2.5061197,
				"z": 0.5415911864,
				"element": "C" 
			},
			{
				"x": -3.3883870356,
				"y": 2.3883356674,
				"z": 0.7430645747,
				"element": "C" 
			},
			{
				"x": -0.1727307085,
				"y": 0.8438451937,
				"z": -1.6933118419,
				"element": "C" 
			},
			{
				"x": -0.6716565681,
				"y": 1.8986282947,
				"z": -2.561076012,
				"element": "C" 
			},
			{
				"x": -1.5021457471,
				"y": 2.7384740882,
				"z": -2.2497429492,
				"element": "O" 
			},
			{
				"x": 0.2958735229,
				"y": -1.0959230349,
				"z": 1.3371455396,
				"element": "C" 
			},
			{
				"x": 0.0191593856,
				"y": -0.4001215717,
				"z": 2.519226506,
				"element": "C" 
			},
			{
				"x": 0.0595975579,
				"y": -1.0812629356,
				"z": 3.7360130122,
				"element": "C" 
			},
			{
				"x": 0.3886087485,
				"y": -2.4363132176,
				"z": 3.7829323156,
				"element": "C" 
			},
			{
				"x": 0.6800611103,
				"y": -3.1161233974,
				"z": 2.5981531561,
				"element": "C" 
			},
			{
				"x": 0.63225796,
				"y": -2.4542330758,
				"z": 1.373646858,
				"element": "C" 
			},
			{
				"x": 2.1309849829,
				"y": 0.5437259967,
				"z": -3.5649746253,
				"element": "H" 
			},
			{
				"x": 2.274727992,
				"y": -1.1743276128,
				"z": -3.1449791098,
				"element": "H" 
			},
			{
				"x": 0.887570988,
				"y": -0.5949049384,
				"z": -4.0899944969,
				"element": "H" 
			},
			{
				"x": -2.8374959365,
				"y": -0.4925207897,
				"z": -0.9988414809,
				"element": "H" 
			},
			{
				"x": -5.2819811892,
				"y": -0.2630338868,
				"z": -1.36216368,
				"element": "H" 
			},
			{
				"x": -6.5198950828,
				"y": 1.6543994075,
				"z": -0.3757613053,
				"element": "H" 
			},
			{
				"x": -5.2943253311,
				"y": 3.3477411711,
				"z": 0.9751196863,
				"element": "H" 
			},
			{
				"x": -2.8310700086,
				"y": 3.119590301,
				"z": 1.318151932,
				"element": "H" 
			},
			{
				"x": -0.2201916792,
				"y": 1.9012025507,
				"z": -3.5775602613,
				"element": "H" 
			},
			{
				"x": -0.2196545609,
				"y": 0.6547014253,
				"z": 2.4890622785,
				"element": "H" 
			},
			{
				"x": -0.1573478419,
				"y": -0.5405821935,
				"z": 4.6524240332,
				"element": "H" 
			},
			{
				"x": 0.4224799824,
				"y": -2.9575410914,
				"z": 4.7348347298,
				"element": "H" 
			},
			{
				"x": 0.942157096,
				"y": -4.1696803244,
				"z": 2.62371031,
				"element": "H" 
			},
			{
				"x": 0.8607280289,
				"y": -2.9653323797,
				"z": 0.4465903456,
				"element": "H" 
			}
		],
		 "valence_orbital": [ 
			{
				"type": "occ",
				"energy": -0.2562,
				"method": "rhf"
			},
			{
				"type": "occ",
				"energy": -0.2533,
				"method": "rhf"
			},
			{
				"type": "occ",
				"energy": -0.24416,
				"method": "rhf"
			},
			{
				"type": "occ",
				"energy": -0.23408,
				"method": "rhf"
			},
			{
				"type": "occ",
				"energy": -0.22982,
				"method": "rhf"
			},
			{
				"type": "unocc",
				"energy": -0.04687,
				"method": "rhf"
			},
			{
				"type": "unocc",
				"energy": -0.01547,
				"method": "rhf"
			},
			{
				"type": "unocc",
				"energy": -0.00905,
				"method": "rhf"
			},
			{
				"type": "unocc",
				"energy": -0.00533,
				"method": "rhf"
			},
			{
				"type": "unocc",
				"energy": 0.0044,
				"method": "rhf"
			}
		],
		"cosmo_sigma_profile": { 
			"-0.025": 0.0,
			"-0.024": 0.0,
			"-0.023": 0.0,
			"-0.022": 0.0,
			"-0.021": 0.0,
			"-0.02": 0.0,
			"-0.019": 0.0,
			"-0.018": 0.0,
			"-0.017": 0.0,
			"-0.016": 0.0,
			"-0.015": 0.0,
			"-0.014": 0.0,
			"-0.013": 0.0,
			"-0.012": 0.0,
			"-0.011": 0.0,
			"-0.01": 0.0,
			"-0.009": 0.0,
			"-0.008": 0.0121887545492,
			"-0.007": 3.56745098609,
			"-0.006": 23.169234532,
			"-0.005": 33.0583896107,
			"-0.004": 30.043443094,
			"-0.003": 24.08794416,
			"-0.002": 24.0182343733,
			"-0.001": 25.1556138513,
			"0.0": 23.6553312836,
			"0.001": 21.3371502466,
			"0.002": 20.7033477683,
			"0.003": 20.8048950498,
			"0.004": 23.810057306,
			"0.005": 14.1601921059,
			"0.006": 6.20495918868,
			"0.007": 4.28375102328,
			"0.008": 3.66535762274,
			"0.009": 4.30746734598,
			"0.01": 5.10124206319,
			"0.011": 3.86074719499,
			"0.012": 3.05887505382,
			"0.013": 2.53660937628,
			"0.014": 0.50380370588,
			"0.015": 0.0,
			"0.016": 0.0,
			"0.017": 0.0,
			"0.018": 0.0,
			"0.019": 0.0,
			"0.02": 0.0,
			"0.021": 0.0,
			"0.022": 0.0,
			"0.023": 0.0,
			"0.024": 0.0,
			"0.0": 0.0
		}
	}
}
