{
	 "smiles": "FC(F)(F)C1=CC=C(C=C1)C1CNC(=O)CO1", 
	 "Tm": 389.15, 
	 "num_atms": 27, 
	 "gaussian": { 
		 "optdone": 1, 
		 "sigma_profile": "yes", 
		 "theory": "DFT", 
		 "functional": "B3LYP", 
		 "basiset": "6-31G**", 
		 "properties": { 
			 "R2extent": 5276.0121, 
			 "electric_dipole_moment_norm": 3.88890550798, 
			 "electric_quadrupole_moment_norm": 16.0630756588, 
			 "total_energy": -929.920829951, 
			 "HOMO_LUMO_gap": 0.2057, 
			 "cosmo_polarized_energy": -14.68, 
			 "cosmo_cavitation_energy": 31.74, 
			 "cosmo_dispersion_energy": -22.57, 
			 "cosmo_repulsion_energy": 1.69, 
			 "cosmo_total_nonelectrostatic_energy": 10.86, 
			 "SMD_solvation_energy": 6.74 
		},
		"coords": [
			{
				"x": -0.5246916115,
				"y": 2.1450088404,
				"z": -4.2557735689,
				"element": "F" 
			},
			{
				"x": 0.5246701194,
				"y": 1.4192019574,
				"z": -3.8026764634,
				"element": "C" 
			},
			{
				"x": 1.5618631676,
				"y": 2.2732570401,
				"z": -3.6627661636,
				"element": "F" 
			},
			{
				"x": 0.8451620568,
				"y": 0.5440779153,
				"z": -4.7814133072,
				"element": "F" 
			},
			{
				"x": 0.1947356755,
				"y": 0.7176051329,
				"z": -2.5129549769,
				"element": "C" 
			},
			{
				"x": 0.4831696507,
				"y": 1.3223370029,
				"z": -1.2899162333,
				"element": "C" 
			},
			{
				"x": 0.1250020331,
				"y": 0.6916101979,
				"z": -0.0973767206,
				"element": "C" 
			},
			{
				"x": -0.5300963434,
				"y": -0.5439528217,
				"z": -0.1112939322,
				"element": "C" 
			},
			{
				"x": -0.8044536028,
				"y": -1.1453938334,
				"z": -1.3495729813,
				"element": "C" 
			},
			{
				"x": -0.4488966992,
				"y": -0.5240246248,
				"z": -2.5416430734,
				"element": "C" 
			},
			{
				"x": -0.9818894639,
				"y": -1.2861163331,
				"z": 1.1459706589,
				"element": "C" 
			},
			{
				"x": -0.6433082004,
				"y": -0.6364251287,
				"z": 2.4888783462,
				"element": "C" 
			},
			{
				"x": 0.7806529111,
				"y": -0.7805586592,
				"z": 2.7679418876,
				"element": "N" 
			},
			{
				"x": 1.5577290429,
				"y": -1.8129532716,
				"z": 2.3175499578,
				"element": "C" 
			},
			{
				"x": 2.7133662533,
				"y": -1.9825400091,
				"z": 2.6774221934,
				"element": "O" 
			},
			{
				"x": 0.9179651863,
				"y": -2.7182556313,
				"z": 1.2666107164,
				"element": "C" 
			},
			{
				"x": -0.5013206434,
				"y": -2.6334455611,
				"z": 1.1665979734,
				"element": "O" 
			},
			{
				"x": 0.9981536017,
				"y": 2.2765031738,
				"z": -1.267972834,
				"element": "H" 
			},
			{
				"x": 0.379070114,
				"y": 1.1681694249,
				"z": 0.8428673583,
				"element": "H" 
			},
			{
				"x": -1.2920108695,
				"y": -2.1155832589,
				"z": -1.3689890416,
				"element": "H" 
			},
			{
				"x": -0.6620972006,
				"y": -1.0002423539,
				"z": -3.4927603684,
				"element": "H" 
			},
			{
				"x": -2.0717116066,
				"y": -1.3923236155,
				"z": 1.0979306545,
				"element": "H" 
			},
			{
				"x": -0.9113457003,
				"y": 0.4253180566,
				"z": 2.4877231567,
				"element": "H" 
			},
			{
				"x": -1.2483599963,
				"y": -1.1275342322,
				"z": 3.2628142225,
				"element": "H" 
			},
			{
				"x": 1.1976177133,
				"y": -0.2385401428,
				"z": 3.5143009233,
				"element": "H" 
			},
			{
				"x": 1.4011394507,
				"y": -2.4925513197,
				"z": 0.3044882894,
				"element": "H" 
			},
			{
				"x": 1.1547849615,
				"y": -3.7520479452,
				"z": 1.5260133265,
				"element": "H" 
			}
		],
		 "valence_orbital": [ 
			{
				"type": "occ",
				"energy": -0.29421,
				"method": "rhf"
			},
			{
				"type": "occ",
				"energy": -0.27556,
				"method": "rhf"
			},
			{
				"type": "occ",
				"energy": -0.27056,
				"method": "rhf"
			},
			{
				"type": "occ",
				"energy": -0.25858,
				"method": "rhf"
			},
			{
				"type": "occ",
				"energy": -0.24483,
				"method": "rhf"
			},
			{
				"type": "unocc",
				"energy": -0.03913,
				"method": "rhf"
			},
			{
				"type": "unocc",
				"energy": -0.02423,
				"method": "rhf"
			},
			{
				"type": "unocc",
				"energy": 0.01918,
				"method": "rhf"
			},
			{
				"type": "unocc",
				"energy": 0.06101,
				"method": "rhf"
			},
			{
				"type": "unocc",
				"energy": 0.09469,
				"method": "rhf"
			}
		],
		"cosmo_sigma_profile": { 
			"-0.025": 0.0,
			"-0.024": 0.0,
			"-0.023": 0.0,
			"-0.022": 0.0,
			"-0.021": 0.0,
			"-0.02": 0.0,
			"-0.019": 0.0,
			"-0.018": 0.0,
			"-0.017": 0.0,
			"-0.016": 0.0,
			"-0.015": 0.0206575265152,
			"-0.014": 0.964803577022,
			"-0.013": 1.21666022664,
			"-0.012": 1.31355411899,
			"-0.011": 0.850035177726,
			"-0.01": 0.973181498973,
			"-0.009": 0.794412188241,
			"-0.008": 3.09300400501,
			"-0.007": 11.0725960321,
			"-0.006": 18.2117509064,
			"-0.005": 19.2777503654,
			"-0.004": 16.5810106963,
			"-0.003": 14.6925053572,
			"-0.002": 12.3074118862,
			"-0.001": 13.8484594422,
			"0.0": 15.5467729807,
			"0.001": 18.2178898919,
			"0.002": 27.073318553,
			"0.003": 40.9727992183,
			"0.004": 6.32599710713,
			"0.005": 2.17975229325,
			"0.006": 2.29665542461,
			"0.007": 2.39301543223,
			"0.008": 1.32669578132,
			"0.009": 2.46361794614,
			"0.01": 1.9079010526,
			"0.011": 2.46731193075,
			"0.012": 3.03534038817,
			"0.013": 4.36013923333,
			"0.014": 5.44061364957,
			"0.015": 1.0599497161,
			"0.016": 0.0,
			"0.017": 0.0,
			"0.018": 0.0,
			"0.019": 0.0,
			"0.02": 0.0,
			"0.021": 0.0,
			"0.022": 0.0,
			"0.023": 0.0,
			"0.024": 0.0,
			"0.025": 0.0
		}
	}
}
