{
	 "smiles": "O=C(C1=CC=C(OC2=CC=CC=C2)C=C1)C1=CC=C(OC2=CC=CC=C2)C=C1", 
	 "Tm": 422.15, 
	 "num_atms": 46, 
	 "gaussian": { 
		 "optdone": 1, 
		 "sigma_profile": "yes", 
		 "theory": "DFT", 
		 "functional": "B3LYP", 
		 "basiset": "6-31G**", 
		 "properties": { 
			 "R2extent": 17893.2561, 
			 "electric_dipole_moment_norm": 5.32920856695, 
			 "electric_quadrupole_moment_norm": 15.0939903693, 
			 "total_energy": -1189.16747941, 
			 "HOMO_LUMO_gap": 0.16965, 
			 "cosmo_polarized_energy": -13.84, 
			 "cosmo_cavitation_energy": 51.77, 
			 "cosmo_dispersion_energy": -36.5, 
			 "cosmo_repulsion_energy": 2.74, 
			 "cosmo_total_nonelectrostatic_energy": 18.0, 
			 "SMD_solvation_energy": 9.41 
		},
		"coords": [
			{
				"x": -1.2448768413,
				"y": 0.8951903885,
				"z": -4.4338899731,
				"element": "O" 
			},
			{
				"x": -1.0025386263,
				"y": 0.557728878,
				"z": -3.2772654153,
				"element": "C" 
			},
			{
				"x": -0.3826070216,
				"y": 1.5411625956,
				"z": -2.334548949,
				"element": "C" 
			},
			{
				"x": -0.5799456973,
				"y": 1.5196755686,
				"z": -0.9455114881,
				"element": "C" 
			},
			{
				"x": -0.0342429164,
				"y": 2.5039526085,
				"z": -0.1227157185,
				"element": "C" 
			},
			{
				"x": 0.7351169959,
				"y": 3.523605532,
				"z": -0.6923611042,
				"element": "C" 
			},
			{
				"x": 1.2852736096,
				"y": 4.5561120567,
				"z": 0.0265767167,
				"element": "O" 
			},
			{
				"x": 1.5068165809,
				"y": 4.4358193446,
				"z": 1.3900315749,
				"element": "C" 
			},
			{
				"x": 2.308720288,
				"y": 3.4163789436,
				"z": 1.9101964366,
				"element": "C" 
			},
			{
				"x": 2.5702842735,
				"y": 3.3897974067,
				"z": 3.2801986766,
				"element": "C" 
			},
			{
				"x": 2.0463438626,
				"y": 4.3747802932,
				"z": 4.1213919762,
				"element": "C" 
			},
			{
				"x": 1.2549213802,
				"y": 5.3927118687,
				"z": 3.5859235244,
				"element": "C" 
			},
			{
				"x": 0.9786768704,
				"y": 5.4258902653,
				"z": 2.2181012248,
				"element": "C" 
			},
			{
				"x": 0.9314904111,
				"y": 3.571355036,
				"z": -2.079578511,
				"element": "C" 
			},
			{
				"x": 0.3644137298,
				"y": 2.5974127434,
				"z": -2.8868738961,
				"element": "C" 
			},
			{
				"x": -1.3308592349,
				"y": -0.8318278658,
				"z": -2.8282796515,
				"element": "C" 
			},
			{
				"x": -0.6311775904,
				"y": -1.510161114,
				"z": -1.8187384406,
				"element": "C" 
			},
			{
				"x": -0.9356900216,
				"y": -2.830378984,
				"z": -1.4903125315,
				"element": "C" 
			},
			{
				"x": -1.9669266267,
				"y": -3.4851641881,
				"z": -2.171435154,
				"element": "C" 
			},
			{
				"x": -2.3187186678,
				"y": -4.7933890959,
				"z": -1.9468068745,
				"element": "O" 
			},
			{
				"x": -2.0087288362,
				"y": -5.4189722169,
				"z": -0.748927633,
				"element": "C" 
			},
			{
				"x": -1.3267031201,
				"y": -6.6336514703,
				"z": -0.8149451886,
				"element": "C" 
			},
			{
				"x": -1.0751414885,
				"y": -7.3417320475,
				"z": 0.3613297991,
				"element": "C" 
			},
			{
				"x": -1.4957289191,
				"y": -6.8361527236,
				"z": 1.5929023671,
				"element": "C" 
			},
			{
				"x": -2.1792298449,
				"y": -5.6185991979,
				"z": 1.6446216374,
				"element": "C" 
			},
			{
				"x": -2.4444898099,
				"y": -4.9053003465,
				"z": 0.4754868136,
				"element": "C" 
			},
			{
				"x": -2.6678780541,
				"y": -2.8299693507,
				"z": -3.193448761,
				"element": "C" 
			},
			{
				"x": -2.3390047208,
				"y": -1.5242116191,
				"z": -3.5232330323,
				"element": "C" 
			},
			{
				"x": -1.1955781276,
				"y": 0.7467100335,
				"z": -0.4981004605,
				"element": "H" 
			},
			{
				"x": -0.2131443421,
				"y": 2.4869277677,
				"z": 0.9461305206,
				"element": "H" 
			},
			{
				"x": 2.7219111961,
				"y": 2.663705301,
				"z": 1.2468285623,
				"element": "H" 
			},
			{
				"x": 3.1943431179,
				"y": 2.6003062597,
				"z": 3.6888793969,
				"element": "H" 
			},
			{
				"x": 2.2574705551,
				"y": 4.3505778155,
				"z": 5.1860708857,
				"element": "H" 
			},
			{
				"x": 0.8468143587,
				"y": 6.1638323887,
				"z": 4.2327180036,
				"element": "H" 
			},
			{
				"x": 0.3674191126,
				"y": 6.2079292006,
				"z": 1.7800678127,
				"element": "H" 
			},
			{
				"x": 1.5224870397,
				"y": 4.3807151334,
				"z": -2.495263104,
				"element": "H" 
			},
			{
				"x": 0.488513198,
				"y": 2.6307292144,
				"z": -3.964036231,
				"element": "H" 
			},
			{
				"x": 0.1862733356,
				"y": -1.018361016,
				"z": -1.3024436073,
				"element": "H" 
			},
			{
				"x": -0.3722134014,
				"y": -3.3490131382,
				"z": -0.7233361661,
				"element": "H" 
			},
			{
				"x": -1.0103523087,
				"y": -7.007959947,
				"z": -1.7828847737,
				"element": "H" 
			},
			{
				"x": -0.5462518305,
				"y": -8.289048865,
				"z": 0.3124498818,
				"element": "H" 
			},
			{
				"x": -1.2964619754,
				"y": -7.3882613294,
				"z": 2.5062286828,
				"element": "H" 
			},
			{
				"x": -2.5173562281,
				"y": -5.2240441202,
				"z": 2.5984380464,
				"element": "H" 
			},
			{
				"x": -2.9863362716,
				"y": -3.9656881198,
				"z": 0.5040838602,
				"element": "H" 
			},
			{
				"x": -3.4547192134,
				"y": -3.3664305022,
				"z": -3.71327932,
				"element": "H" 
			},
			{
				"x": -2.8566881791,
				"y": -1.0091893859,
				"z": -4.3254404158,
				"element": "H" 
			}
		],
		 "valence_orbital": [ 
			{
				"type": "occ",
				"energy": -0.25675,
				"method": "rhf"
			},
			{
				"type": "occ",
				"energy": -0.25508,
				"method": "rhf"
			},
			{
				"type": "occ",
				"energy": -0.24239,
				"method": "rhf"
			},
			{
				"type": "occ",
				"energy": -0.22585,
				"method": "rhf"
			},
			{
				"type": "occ",
				"energy": -0.22507,
				"method": "rhf"
			},
			{
				"type": "unocc",
				"energy": -0.05542,
				"method": "rhf"
			},
			{
				"type": "unocc",
				"energy": -0.01919,
				"method": "rhf"
			},
			{
				"type": "unocc",
				"energy": -0.01576,
				"method": "rhf"
			},
			{
				"type": "unocc",
				"energy": -0.01233,
				"method": "rhf"
			},
			{
				"type": "unocc",
				"energy": -0.00654,
				"method": "rhf"
			}
		],
		"cosmo_sigma_profile": { 
			"-0.025": 0.0,
			"-0.024": 0.0,
			"-0.023": 0.0,
			"-0.022": 0.0,
			"-0.021": 0.0,
			"-0.02": 0.0,
			"-0.019": 0.0,
			"-0.018": 0.0,
			"-0.017": 0.0,
			"-0.016": 0.0,
			"-0.015": 0.0,
			"-0.014": 0.0,
			"-0.013": 0.0,
			"-0.012": 0.0,
			"-0.011": 0.0,
			"-0.01": 0.0,
			"-0.009": 0.0,
			"-0.008": 0.0,
			"-0.007": 6.11034380649,
			"-0.006": 29.6158334663,
			"-0.005": 32.7547882709,
			"-0.004": 37.0184567902,
			"-0.003": 29.8208134784,
			"-0.002": 28.3465973682,
			"-0.001": 31.1333421256,
			"0.0": 29.7462580366,
			"0.001": 30.2448571017,
			"0.002": 37.6212945331,
			"0.003": 46.4205390395,
			"0.004": 30.9624457276,
			"0.005": 20.3900564708,
			"0.006": 5.386283213,
			"0.007": 3.95256613214,
			"0.008": 4.40152836583,
			"0.009": 2.27206073677,
			"0.01": 2.03867497679,
			"0.011": 2.0697421235,
			"0.012": 3.86035876827,
			"0.013": 2.57619909335,
			"0.014": 0.0,
			"0.015": 0.0,
			"0.016": 0.0,
			"0.017": 0.0,
			"0.018": 0.0,
			"0.019": 0.0,
			"0.02": 0.0,
			"0.021": 0.0,
			"0.022": 0.0,
			"0.023": 0.0,
			"0.024": 0.0,
			"0.025": 0.0
		}
	}
}
