{
	 "smiles": "CCOC1=CC=C(Br)C=C1", 
	 "Tm": 277.15, 
	 "num_atms": 19, 
	 "gaussian": { 
		 "optdone": 1, 
		 "sigma_profile": "yes", 
		 "theory": "DFT", 
		 "functional": "B3LYP", 
		 "basiset": "6-31G**", 
		 "properties": { 
			 "R2extent": 3996.6522, 
			 "electric_dipole_moment_norm": 3.01593464452, 
			 "electric_quadrupole_moment_norm": 7.44778761915, 
			 "total_energy": -2956.89752693, 
			 "HOMO_LUMO_gap": 0.20428, 
			 "cosmo_polarized_energy": -5.67, 
			 "cosmo_cavitation_energy": 24.69, 
			 "cosmo_dispersion_energy": -18.76, 
			 "cosmo_repulsion_energy": 1.53, 
			 "cosmo_total_nonelectrostatic_energy": 7.46, 
			 "SMD_solvation_energy": 3.52 
		},
		"coords": [
			{
				"x": 1.0014549046,
				"y": -2.7994128646,
				"z": -0.8445800507,
				"element": "C" 
			},
			{
				"x": 0.6500959665,
				"y": -1.5808649495,
				"z": -1.6919190439,
				"element": "C" 
			},
			{
				"x": -0.4758686257,
				"y": -0.8617057056,
				"z": -1.1802908211,
				"element": "O" 
			},
			{
				"x": -0.3156812244,
				"y": 0.0096921557,
				"z": -0.1435851609,
				"element": "C" 
			},
			{
				"x": -1.4916402535,
				"y": 0.6332175546,
				"z": 0.3033452758,
				"element": "C" 
			},
			{
				"x": -1.4539632837,
				"y": 1.5558007211,
				"z": 1.3416493387,
				"element": "C" 
			},
			{
				"x": -0.2325981053,
				"y": 1.8630582225,
				"z": 1.9449549921,
				"element": "C" 
			},
			{
				"x": -0.1755483357,
				"y": 3.1313436071,
				"z": 3.3764497634,
				"element": "Br" 
			},
			{
				"x": 0.9402471764,
				"y": 1.2528843237,
				"z": 1.5154023099,
				"element": "C" 
			},
			{
				"x": 0.9031300795,
				"y": 0.3236116715,
				"z": 0.4716493998,
				"element": "C" 
			},
			{
				"x": 1.8215974554,
				"y": -3.3557000905,
				"z": -1.3107171058,
				"element": "H" 
			},
			{
				"x": 1.3109606784,
				"y": -2.5172801104,
				"z": 0.1653646634,
				"element": "H" 
			},
			{
				"x": 0.1370136607,
				"y": -3.4642712497,
				"z": -0.7624128456,
				"element": "H" 
			},
			{
				"x": 1.5089350883,
				"y": -0.908227359,
				"z": -1.8112078678,
				"element": "H" 
			},
			{
				"x": 0.3395281958,
				"y": -1.8926855418,
				"z": -2.6930194387,
				"element": "H" 
			},
			{
				"x": -2.4279032245,
				"y": 0.3804458496,
				"z": -0.1831577646,
				"element": "H" 
			},
			{
				"x": -2.3657647731,
				"y": 2.0345399728,
				"z": 1.6804823108,
				"element": "H" 
			},
			{
				"x": 1.8850614918,
				"y": 1.4935522182,
				"z": 1.9897110275,
				"element": "H" 
			},
			{
				"x": 1.8290431285,
				"y": -0.1424984256,
				"z": 0.157281018,
				"element": "H" 
			}
		],
		 "valence_orbital": [ 
			{
				"type": "occ",
				"energy": -0.32702,
				"method": "rhf"
			},
			{
				"type": "occ",
				"energy": -0.28618,
				"method": "rhf"
			},
			{
				"type": "occ",
				"energy": -0.28122,
				"method": "rhf"
			},
			{
				"type": "occ",
				"energy": -0.26108,
				"method": "rhf"
			},
			{
				"type": "occ",
				"energy": -0.21644,
				"method": "rhf"
			},
			{
				"type": "unocc",
				"energy": -0.01216,
				"method": "rhf"
			},
			{
				"type": "unocc",
				"energy": 0.00265,
				"method": "rhf"
			},
			{
				"type": "unocc",
				"energy": 0.01302,
				"method": "rhf"
			},
			{
				"type": "unocc",
				"energy": 0.08896,
				"method": "rhf"
			},
			{
				"type": "unocc",
				"energy": 0.10591,
				"method": "rhf"
			}
		],
		"cosmo_sigma_profile": { 
			"-0.025": 0.0,
			"-0.024": 0.0,
			"-0.023": 0.0,
			"-0.022": 0.0,
			"-0.021": 0.0,
			"-0.02": 0.0,
			"-0.019": 0.0,
			"-0.018": 0.0,
			"-0.017": 0.0,
			"-0.016": 0.0,
			"-0.015": 0.0,
			"-0.014": 0.0,
			"-0.013": 0.0,
			"-0.012": 0.0,
			"-0.011": 0.0,
			"-0.01": 0.0,
			"-0.009": 0.0,
			"-0.008": 0.378561266159,
			"-0.007": 4.65424229037,
			"-0.006": 9.22149324716,
			"-0.005": 12.9946947412,
			"-0.004": 16.3817341462,
			"-0.003": 19.1588982388,
			"-0.002": 15.8418545908,
			"-0.001": 13.024975572,
			"0.0": 16.5637118215,
			"0.001": 12.171024843,
			"0.002": 15.1009423419,
			"0.003": 20.4677274171,
			"0.004": 22.3202115613,
			"0.005": 13.9873079554,
			"0.006": 2.14844474252,
			"0.007": 0.921476816155,
			"0.008": 1.58413248363,
			"0.009": 1.15113183187,
			"0.01": 1.44353923549,
			"0.011": 0.144488374637,
			"0.012": 0.0,
			"0.013": 0.0,
			"0.014": 0.0,
			"0.015": 0.0,
			"0.016": 0.0,
			"0.017": 0.0,
			"0.018": 0.0,
			"0.019": 0.0,
			"0.02": 0.0,
			"0.021": 0.0,
			"0.022": 0.0,
			"0.023": 0.0,
			"0.024": 0.0,
			"0.025": 0.0
		}
	}
}
