{
	 "smiles": "CC(=O)OC1CCC2C3CCC4CC(CCC4(C)C3CCC12C)C(C)=O", 
	 "Tm": 413.15, 
	 "num_atms": 62, 
	 "gaussian": { 
		 "optdone": 1, 
		 "sigma_profile": "yes", 
		 "theory": "DFT", 
		 "functional": "B3LYP", 
		 "basiset": "6-31G**", 
		 "properties": { 
			 "R2extent": 13019.2849, 
			 "electric_dipole_moment_norm": 3.20961596768, 
			 "electric_quadrupole_moment_norm": 15.707207558, 
			 "total_energy": -1123.85164156, 
			 "HOMO_LUMO_gap": 0.22851, 
			 "cosmo_polarized_energy": -12.3, 
			 "cosmo_cavitation_energy": 52.86, 
			 "cosmo_dispersion_energy": -36.66, 
			 "cosmo_repulsion_energy": 2.71, 
			 "cosmo_total_nonelectrostatic_energy": 18.91, 
			 "SMD_solvation_energy": 8.97 
		},
		"coords": [
			{
				"x": 3.6489705166,
				"y": 3.6210672966,
				"z": 5.613007979,
				"element": "C" 
			},
			{
				"x": 2.4800293728,
				"y": 2.7543896387,
				"z": 5.2039588484,
				"element": "C" 
			},
			{
				"x": 2.1790179735,
				"y": 1.7009252877,
				"z": 5.7221537951,
				"element": "O" 
			},
			{
				"x": 1.8066142144,
				"y": 3.3246114915,
				"z": 4.1759444739,
				"element": "O" 
			},
			{
				"x": 0.6324459677,
				"y": 2.645323949,
				"z": 3.6738796179,
				"element": "C" 
			},
			{
				"x": -0.4328953466,
				"y": 3.6971165279,
				"z": 3.2808160675,
				"element": "C" 
			},
			{
				"x": -1.1896136647,
				"y": 3.0907172149,
				"z": 2.0624307528,
				"element": "C" 
			},
			{
				"x": -0.6032172607,
				"y": 1.669929156,
				"z": 1.9381353356,
				"element": "C" 
			},
			{
				"x": -0.8665865676,
				"y": 0.8300730927,
				"z": 0.674557938,
				"element": "C" 
			},
			{
				"x": -0.5374134904,
				"y": 1.5055609821,
				"z": -0.6914139867,
				"element": "C" 
			},
			{
				"x": 0.4115345277,
				"y": 0.6937769542,
				"z": -1.5813116099,
				"element": "C" 
			},
			{
				"x": -0.0248829034,
				"y": -0.771365396,
				"z": -1.7589368657,
				"element": "C" 
			},
			{
				"x": 1.060833517,
				"y": -1.5425218318,
				"z": -2.531249737,
				"element": "C" 
			},
			{
				"x": 0.7095886399,
				"y": -3.0338322961,
				"z": -2.7960601023,
				"element": "C" 
			},
			{
				"x": 0.2204562499,
				"y": -3.7334493437,
				"z": -1.4988743334,
				"element": "C" 
			},
			{
				"x": 0.3211537567,
				"y": -2.8272741268,
				"z": -0.262472771,
				"element": "C" 
			},
			{
				"x": -0.4439220475,
				"y": -1.4848337634,
				"z": -0.4067283357,
				"element": "C" 
			},
			{
				"x": -1.9576613841,
				"y": -1.8057299133,
				"z": -0.4845512705,
				"element": "C" 
			},
			{
				"x": -0.2075234429,
				"y": -0.5764626282,
				"z": 0.855560671,
				"element": "C" 
			},
			{
				"x": 1.2548289633,
				"y": -0.5017295308,
				"z": 1.3732627984,
				"element": "C" 
			},
			{
				"x": 1.4262713507,
				"y": 0.3937918834,
				"z": 2.6192851291,
				"element": "C" 
			},
			{
				"x": 0.8743438254,
				"y": 1.8098174702,
				"z": 2.3899650186,
				"element": "C" 
			},
			{
				"x": 1.7845192058,
				"y": 2.6004783711,
				"z": 1.4279467254,
				"element": "C" 
			},
			{
				"x": -0.3153830964,
				"y": -3.1147342476,
				"z": -3.9323708789,
				"element": "C" 
			},
			{
				"x": 0.2355174022,
				"y": -3.0922728451,
				"z": -5.3487330383,
				"element": "C" 
			},
			{
				"x": -1.5148577132,
				"y": -3.1884253069,
				"z": -3.7291569889,
				"element": "O" 
			},
			{
				"x": 4.3261807908,
				"y": 3.7633486601,
				"z": 4.7656161931,
				"element": "H" 
			},
			{
				"x": 4.1802377234,
				"y": 3.1481793998,
				"z": 6.4383278214,
				"element": "H" 
			},
			{
				"x": 3.2942143518,
				"y": 4.6110015219,
				"z": 5.9147302687,
				"element": "H" 
			},
			{
				"x": 0.2710519714,
				"y": 1.9868168215,
				"z": 4.4672850893,
				"element": "H" 
			},
			{
				"x": 0.066787269,
				"y": 4.6351313606,
				"z": 3.0219472007,
				"element": "H" 
			},
			{
				"x": -1.0984186993,
				"y": 3.9133047417,
				"z": 4.1215285547,
				"element": "H" 
			},
			{
				"x": -1.0070653772,
				"y": 3.6826622767,
				"z": 1.1597649126,
				"element": "H" 
			},
			{
				"x": -2.2737990251,
				"y": 3.0701964873,
				"z": 2.2117257431,
				"element": "H" 
			},
			{
				"x": -1.0740040846,
				"y": 1.0891982236,
				"z": 2.7487872049,
				"element": "H" 
			},
			{
				"x": -1.9482144058,
				"y": 0.6546936719,
				"z": 0.6770674204,
				"element": "H" 
			},
			{
				"x": -0.1202446149,
				"y": 2.5061487459,
				"z": -0.5446012093,
				"element": "H" 
			},
			{
				"x": -1.4745585595,
				"y": 1.6575922134,
				"z": -1.2415204289,
				"element": "H" 
			},
			{
				"x": 0.4739792609,
				"y": 1.1679395232,
				"z": -2.5695084166,
				"element": "H" 
			},
			{
				"x": 1.4298209714,
				"y": 0.7273506241,
				"z": -1.1759819504,
				"element": "H" 
			},
			{
				"x": -0.9187174709,
				"y": -0.755944949,
				"z": -2.3961533345,
				"element": "H" 
			},
			{
				"x": 2.002520705,
				"y": -1.5106963531,
				"z": -1.9695103574,
				"element": "H" 
			},
			{
				"x": 1.2648014576,
				"y": -1.0277573149,
				"z": -3.4790856575,
				"element": "H" 
			},
			{
				"x": 1.6264915959,
				"y": -3.5133884302,
				"z": -3.1623682634,
				"element": "H" 
			},
			{
				"x": 0.8132992882,
				"y": -4.6385617801,
				"z": -1.3265261154,
				"element": "H" 
			},
			{
				"x": -0.8121545594,
				"y": -4.059610823,
				"z": -1.6444105268,
				"element": "H" 
			},
			{
				"x": -0.0594905295,
				"y": -3.3652070871,
				"z": 0.6157002959,
				"element": "H" 
			},
			{
				"x": 1.380162912,
				"y": -2.6372183178,
				"z": -0.0626548459,
				"element": "H" 
			},
			{
				"x": -2.1839828035,
				"y": -2.4238260325,
				"z": -1.3565972037,
				"element": "H" 
			},
			{
				"x": -2.5588854606,
				"y": -0.8964265778,
				"z": -0.5789504256,
				"element": "H" 
			},
			{
				"x": -2.2948371969,
				"y": -2.3365678003,
				"z": 0.4139641681,
				"element": "H" 
			},
			{
				"x": -0.7693674985,
				"y": -1.0587975359,
				"z": 1.6706460879,
				"element": "H" 
			},
			{
				"x": 1.9368897492,
				"y": -0.1662591567,
				"z": 0.5848257004,
				"element": "H" 
			},
			{
				"x": 1.5896339892,
				"y": -1.5073457254,
				"z": 1.6451676329,
				"element": "H" 
			},
			{
				"x": 2.4843673808,
				"y": 0.422609794,
				"z": 2.9066622314,
				"element": "H" 
			},
			{
				"x": 0.8937902781,
				"y": -0.0605561396,
				"z": 3.4651479863,
				"element": "H" 
			},
			{
				"x": 2.7584720587,
				"y": 2.7645063587,
				"z": 1.8984819272,
				"element": "H" 
			},
			{
				"x": 1.3782290843,
				"y": 3.5850175595,
				"z": 1.1784911922,
				"element": "H" 
			},
			{
				"x": 1.9554447622,
				"y": 2.0665173755,
				"z": 0.4920897738,
				"element": "H" 
			},
			{
				"x": 0.6973006325,
				"y": -4.0638504831,
				"z": -5.5656417046,
				"element": "H" 
			},
			{
				"x": -0.5720642112,
				"y": -2.9176660804,
				"z": -6.0610994704,
				"element": "H" 
			},
			{
				"x": 1.0174596986,
				"y": -2.3358828591,
				"z": -5.4703927268,
				"element": "H" 
			}
		],
		 "valence_orbital": [ 
			{
				"type": "occ",
				"energy": -0.27836,
				"method": "rhf"
			},
			{
				"type": "occ",
				"energy": -0.26854,
				"method": "rhf"
			},
			{
				"type": "occ",
				"energy": -0.26747,
				"method": "rhf"
			},
			{
				"type": "occ",
				"energy": -0.26218,
				"method": "rhf"
			},
			{
				"type": "occ",
				"energy": -0.24216,
				"method": "rhf"
			},
			{
				"type": "unocc",
				"energy": -0.01365,
				"method": "rhf"
			},
			{
				"type": "unocc",
				"energy": 0.01661,
				"method": "rhf"
			},
			{
				"type": "unocc",
				"energy": 0.06538,
				"method": "rhf"
			},
			{
				"type": "unocc",
				"energy": 0.07724,
				"method": "rhf"
			},
			{
				"type": "unocc",
				"energy": 0.08314,
				"method": "rhf"
			}
		],
		"cosmo_sigma_profile": { 
			"-0.025": 0.0,
			"-0.024": 0.0,
			"-0.023": 0.0,
			"-0.022": 0.0,
			"-0.021": 0.0,
			"-0.02": 0.0,
			"-0.019": 0.0,
			"-0.018": 0.0,
			"-0.017": 0.0,
			"-0.016": 0.0,
			"-0.015": 0.0,
			"-0.014": 0.0,
			"-0.013": 0.0,
			"-0.012": 0.0,
			"-0.011": 0.0,
			"-0.01": 0.0,
			"-0.009": 0.0,
			"-0.008": 0.0,
			"-0.007": 0.404203142712,
			"-0.006": 6.96263503287,
			"-0.005": 13.1155504218,
			"-0.004": 21.0260300492,
			"-0.003": 39.4438765288,
			"-0.002": 66.1960620832,
			"-0.001": 76.2740640896,
			"0.0": 59.2632265606,
			"0.001": 43.0182764646,
			"0.002": 22.2979354281,
			"0.003": 8.78802164302,
			"0.004": 6.15924098324,
			"0.005": 5.10113856938,
			"0.006": 6.6706282284,
			"0.007": 4.27850999095,
			"0.008": 4.16475145217,
			"0.009": 3.75259438809,
			"0.01": 3.6821398533,
			"0.011": 4.24949217027,
			"0.012": 6.91215852705,
			"0.013": 3.90364538688,
			"0.014": 0.41264578282,
			"0.015": 0.0,
			"0.016": 0.0,
			"0.017": 0.0,
			"0.018": 0.0,
			"0.019": 0.0,
			"0.02": 0.0,
			"0.021": 0.0,
			"0.022": 0.0,
			"0.023": 0.0,
			"0.024": 0.0,
			"0.025": 0.0
		}
	}
}
