{
	 "smiles": "S(C1=CC=CC=C1)C1=NC2=C(C=CC=C2)C=C1", 
	 "Tm": 321.15, 
	 "num_atms": 28, 
	 "gaussian": { 
		 "optdone": 1, 
		 "sigma_profile": "yes", 
		 "theory": "DFT", 
		 "functional": "B3LYP", 
		 "basiset": "6-31G**", 
		 "properties": { 
			 "R2extent": 6093.3504, 
			 "electric_dipole_moment_norm": 3.52095364781, 
			 "electric_quadrupole_moment_norm": 17.7842022008, 
			 "total_energy": -1031.17147329, 
			 "HOMO_LUMO_gap": 0.16442, 
			 "cosmo_polarized_energy": -9.89, 
			 "cosmo_cavitation_energy": 33.95, 
			 "cosmo_dispersion_energy": -25.07, 
			 "cosmo_repulsion_energy": 1.88, 
			 "cosmo_total_nonelectrostatic_energy": 10.75, 
			 "SMD_solvation_energy": 3.6 
		},
		"coords": [
			{
				"x": 0.9593582288,
				"y": 1.9608439243,
				"z": 2.0791204131,
				"element": "S" 
			},
			{
				"x": 0.6563513164,
				"y": 3.238166532,
				"z": 0.8536656641,
				"element": "C" 
			},
			{
				"x": 1.6487653788,
				"y": 3.5663139746,
				"z": -0.0804396486,
				"element": "C" 
			},
			{
				"x": 1.4347603622,
				"y": 4.6000427456,
				"z": -0.9935458085,
				"element": "C" 
			},
			{
				"x": 0.2345070105,
				"y": 5.31382742,
				"z": -0.9756694798,
				"element": "C" 
			},
			{
				"x": -0.7531926996,
				"y": 4.9945193589,
				"z": -0.0414048047,
				"element": "C" 
			},
			{
				"x": -0.5442297171,
				"y": 3.9615182589,
				"z": 0.8737305483,
				"element": "C" 
			},
			{
				"x": 0.3577938383,
				"y": 0.455921178,
				"z": 1.3034681855,
				"element": "C" 
			},
			{
				"x": 0.5046324724,
				"y": -0.6021560289,
				"z": 2.0688199534,
				"element": "N" 
			},
			{
				"x": 0.0863901432,
				"y": -1.8114298581,
				"z": 1.5961620748,
				"element": "C" 
			},
			{
				"x": -0.503183914,
				"y": -1.962604231,
				"z": 0.3016751108,
				"element": "C" 
			},
			{
				"x": -0.9164470278,
				"y": -3.2490597184,
				"z": -0.1285743947,
				"element": "C" 
			},
			{
				"x": -0.7526168271,
				"y": -4.3446220284,
				"z": 0.6908985384,
				"element": "C" 
			},
			{
				"x": -0.1685953485,
				"y": -4.194798854,
				"z": 1.9731090148,
				"element": "C" 
			},
			{
				"x": 0.2427234781,
				"y": -2.9577315853,
				"z": 2.4188782935,
				"element": "C" 
			},
			{
				"x": -0.6395180803,
				"y": -0.7893007483,
				"z": -0.4860721281,
				"element": "C" 
			},
			{
				"x": -0.2152615813,
				"y": 0.4221448415,
				"z": -0.0003545234,
				"element": "C" 
			},
			{
				"x": 2.5821750203,
				"y": 3.012480368,
				"z": -0.084380892,
				"element": "H" 
			},
			{
				"x": 2.2071021194,
				"y": 4.849879957,
				"z": -1.7152760226,
				"element": "H" 
			},
			{
				"x": 0.0712847356,
				"y": 6.1202111709,
				"z": -1.6848262753,
				"element": "H" 
			},
			{
				"x": -1.6854193346,
				"y": 5.5516348978,
				"z": -0.0213977097,
				"element": "H" 
			},
			{
				"x": -1.3050238672,
				"y": 3.7129139399,
				"z": 1.6067929631,
				"element": "H" 
			},
			{
				"x": -1.3637589473,
				"y": -3.3561077912,
				"z": -1.1137887835,
				"element": "H" 
			},
			{
				"x": -1.0706647477,
				"y": -5.3278221939,
				"z": 0.3570129316,
				"element": "H" 
			},
			{
				"x": -0.0456438585,
				"y": -5.0673377441,
				"z": 2.6084210355,
				"element": "H" 
			},
			{
				"x": 0.6922599245,
				"y": -2.8199740088,
				"z": 3.3967507296,
				"element": "H" 
			},
			{
				"x": -1.0828451265,
				"y": -0.8602718531,
				"z": -1.4765960359,
				"element": "H" 
			},
			{
				"x": -0.310502951,
				"y": 1.3280980763,
				"z": -0.5854789495,
				"element": "H" 
			}
		],
		 "valence_orbital": [ 
			{
				"type": "occ",
				"energy": -0.26695,
				"method": "rhf"
			},
			{
				"type": "occ",
				"energy": -0.26315,
				"method": "rhf"
			},
			{
				"type": "occ",
				"energy": -0.24939,
				"method": "rhf"
			},
			{
				"type": "occ",
				"energy": -0.23535,
				"method": "rhf"
			},
			{
				"type": "occ",
				"energy": -0.21464,
				"method": "rhf"
			},
			{
				"type": "unocc",
				"energy": -0.05022,
				"method": "rhf"
			},
			{
				"type": "unocc",
				"energy": -0.02691,
				"method": "rhf"
			},
			{
				"type": "unocc",
				"energy": -0.01299,
				"method": "rhf"
			},
			{
				"type": "unocc",
				"energy": -0.01246,
				"method": "rhf"
			},
			{
				"type": "unocc",
				"energy": 0.02305,
				"method": "rhf"
			}
		],
		"cosmo_sigma_profile": { 
			"-0.025": 0.0,
			"-0.024": 0.0,
			"-0.023": 0.0,
			"-0.022": 0.0,
			"-0.021": 0.0,
			"-0.02": 0.0,
			"-0.019": 0.0,
			"-0.018": 0.0,
			"-0.017": 0.0,
			"-0.016": 0.0,
			"-0.015": 0.0,
			"-0.014": 0.0,
			"-0.013": 0.0,
			"-0.012": 0.0,
			"-0.011": 0.0,
			"-0.01": 0.0,
			"-0.009": 0.0,
			"-0.008": 0.456181611074,
			"-0.007": 6.30460906562,
			"-0.006": 20.3596091771,
			"-0.005": 23.2058421436,
			"-0.004": 21.0897667055,
			"-0.003": 16.2812797927,
			"-0.002": 15.7339286201,
			"-0.001": 18.9369759187,
			"0.0": 19.9477103003,
			"0.001": 25.1382219981,
			"0.002": 26.6593279305,
			"0.003": 26.0480789625,
			"0.004": 25.9972400409,
			"0.005": 9.81736246049,
			"0.006": 5.76667804678,
			"0.007": 5.69831610188,
			"0.008": 2.06022293078,
			"0.009": 1.32846920535,
			"0.01": 0.985006836561,
			"0.011": 1.20104634533,
			"0.012": 0.904778385391,
			"0.013": 0.967852822431,
			"0.014": 0.613177283264,
			"0.015": 0.0787414479954,
			"0.016": 0.0,
			"0.017": 0.0,
			"0.018": 0.0,
			"0.019": 0.0,
			"0.02": 0.0,
			"0.021": 0.0,
			"0.022": 0.0,
			"0.023": 0.0,
			"0.024": 0.0,
			"0.025": 0.0
		}
	}
}
