{
	 "smiles": "FC1=CC(=CC(F)=C1)C1=CC=NO1", 
	 "Tm": 350.15, 
	 "num_atms": 18, 
	 "gaussian": { 
		 "optdone": 1, 
		 "sigma_profile": "yes", 
		 "theory": "DFT", 
		 "functional": "B3LYP", 
		 "basiset": "6-31G**", 
		 "properties": { 
			 "R2extent": 3113.6832, 
			 "electric_dipole_moment_norm": 2.55738093173, 
			 "electric_quadrupole_moment_norm": 9.23588134235, 
			 "total_energy": -675.560190668, 
			 "HOMO_LUMO_gap": 0.18207, 
			 "cosmo_polarized_energy": -8.08, 
			 "cosmo_cavitation_energy": 24.41, 
			 "cosmo_dispersion_energy": -17.71, 
			 "cosmo_repulsion_energy": 1.32, 
			 "cosmo_total_nonelectrostatic_energy": 8.02, 
			 "SMD_solvation_energy": 5.17 
		},
		"coords": [
			{
				"x": -1.8440380765,
				"y": 1.7527264059,
				"z": -2.8745756668,
				"element": "F" 
			},
			{
				"x": -0.796425088,
				"y": 1.8090803548,
				"z": -2.031087313,
				"element": "C" 
			},
			{
				"x": -0.734476438,
				"y": 0.9030753483,
				"z": -0.9823470356,
				"element": "C" 
			},
			{
				"x": 0.3582768916,
				"y": 0.960844191,
				"z": -0.1014166744,
				"element": "C" 
			},
			{
				"x": 1.3622871615,
				"y": 1.9239374187,
				"z": -0.2915881678,
				"element": "C" 
			},
			{
				"x": 1.2474805585,
				"y": 2.8048492531,
				"z": -1.3583772417,
				"element": "C" 
			},
			{
				"x": 2.2085296276,
				"y": 3.7282233363,
				"z": -1.5419450926,
				"element": "F" 
			},
			{
				"x": 0.1798416912,
				"y": 2.7757664709,
				"z": -2.2491612703,
				"element": "C" 
			},
			{
				"x": 0.4478340414,
				"y": 0.0177328918,
				"z": 1.0119006511,
				"element": "C" 
			},
			{
				"x": -0.3485935909,
				"y": -1.0076302268,
				"z": 1.450128265,
				"element": "C" 
			},
			{
				"x": 0.3377508026,
				"y": -1.5037167392,
				"z": 2.5879859616,
				"element": "C" 
			},
			{
				"x": 1.4501543557,
				"y": -0.8480344995,
				"z": 2.8288912247,
				"element": "N" 
			},
			{
				"x": 1.5230805212,
				"y": 0.1202094651,
				"z": 1.8285021794,
				"element": "O" 
			},
			{
				"x": -1.5266160287,
				"y": 0.1735409175,
				"z": -0.8655573323,
				"element": "H" 
			},
			{
				"x": 2.2133462185,
				"y": 1.9872466503,
				"z": 0.3744078836,
				"element": "H" 
			},
			{
				"x": 0.1114295736,
				"y": 3.4732930286,
				"z": -3.0744557011,
				"element": "H" 
			},
			{
				"x": -1.2787111601,
				"y": -1.3589615034,
				"z": 1.0324231795,
				"element": "H" 
			},
			{
				"x": 0.0585489389,
				"y": -2.3193827633,
				"z": 3.2426721508,
				"element": "H" 
			}
		],
		 "valence_orbital": [ 
			{
				"type": "occ",
				"energy": -0.31329,
				"method": "rhf"
			},
			{
				"type": "occ",
				"energy": -0.31095,
				"method": "rhf"
			},
			{
				"type": "occ",
				"energy": -0.30182,
				"method": "rhf"
			},
			{
				"type": "occ",
				"energy": -0.26099,
				"method": "rhf"
			},
			{
				"type": "occ",
				"energy": -0.24568,
				"method": "rhf"
			},
			{
				"type": "unocc",
				"energy": -0.06361,
				"method": "rhf"
			},
			{
				"type": "unocc",
				"energy": -0.0139,
				"method": "rhf"
			},
			{
				"type": "unocc",
				"energy": 0.01371,
				"method": "rhf"
			},
			{
				"type": "unocc",
				"energy": 0.06575,
				"method": "rhf"
			},
			{
				"type": "unocc",
				"energy": 0.06859,
				"method": "rhf"
			}
		],
		"cosmo_sigma_profile": { 
			"-0.025": 0.0,
			"-0.024": 0.0,
			"-0.023": 0.0,
			"-0.022": 0.0,
			"-0.021": 0.0,
			"-0.02": 0.0,
			"-0.019": 0.0,
			"-0.018": 0.0,
			"-0.017": 0.0,
			"-0.016": 0.0,
			"-0.015": 0.0,
			"-0.014": 0.0,
			"-0.013": 0.0,
			"-0.012": 0.0,
			"-0.011": 0.0,
			"-0.01": 1.74846703231,
			"-0.009": 6.91881617851,
			"-0.008": 5.96109895912,
			"-0.007": 7.88340542766,
			"-0.006": 6.65690363455,
			"-0.005": 6.59137781433,
			"-0.004": 6.01871536539,
			"-0.003": 7.61629867822,
			"-0.002": 7.77288113594,
			"-0.001": 18.5391505469,
			"0.0": 31.0139745904,
			"0.001": 25.2968780536,
			"0.002": 14.6457779848,
			"0.003": 13.8686056336,
			"0.004": 17.8824885892,
			"0.005": 2.48101112927,
			"0.006": 2.99246806246,
			"0.007": 3.55757223583,
			"0.008": 2.22656301275,
			"0.009": 2.0505870208,
			"0.01": 1.41226396076,
			"0.011": 1.6253038102,
			"0.012": 1.36122117843,
			"0.013": 1.28369191058,
			"0.014": 0.669531806514,
			"0.015": 0.0,
			"0.016": 0.0,
			"0.017": 0.0,
			"0.018": 0.0,
			"0.019": 0.0,
			"0.02": 0.0,
			"0.021": 0.0,
			"0.022": 0.0,
			"0.023": 0.0,
			"0.024": 0.0,
			"0.025": 0.0
		}
	}
}
