{
	 "smiles": "O=C(C1=CC=CC=N1)C1=NC=CC=C1", 
	 "Tm": 327.15, 
	 "num_atms": 22, 
	 "gaussian": { 
		 "optdone": 1, 
		 "sigma_profile": "yes", 
		 "theory": "DFT", 
		 "functional": "B3LYP", 
		 "basiset": "6-31G**", 
		 "properties": { 
			 "R2extent": 3178.0447, 
			 "electric_dipole_moment_norm": 1.36014429014, 
			 "electric_quadrupole_moment_norm": 21.1973278144, 
			 "total_energy": -608.701455591, 
			 "HOMO_LUMO_gap": 0.16371, 
			 "cosmo_polarized_energy": -12.75, 
			 "cosmo_cavitation_energy": 27.39, 
			 "cosmo_dispersion_energy": -19.96, 
			 "cosmo_repulsion_energy": 1.57, 
			 "cosmo_total_nonelectrostatic_energy": 8.99, 
			 "SMD_solvation_energy": 3.3 
		},
		"coords": [
			{
				"x": -1.7045039671,
				"y": 0.8902516082,
				"z": 0.2909737292,
				"element": "O" 
			},
			{
				"x": -0.7432784926,
				"y": 0.1516515318,
				"z": 0.4611753582,
				"element": "C" 
			},
			{
				"x": 0.1182352965,
				"y": -0.2434279161,
				"z": -0.7077685167,
				"element": "C" 
			},
			{
				"x": -0.4588615592,
				"y": -0.2709430421,
				"z": -1.9836070534,
				"element": "C" 
			},
			{
				"x": 0.3490317605,
				"y": -0.5931113033,
				"z": -3.0706684883,
				"element": "C" 
			},
			{
				"x": 1.7013905346,
				"y": -0.8479314621,
				"z": -2.8444060855,
				"element": "C" 
			},
			{
				"x": 2.1859087422,
				"y": -0.766031501,
				"z": -1.5357913954,
				"element": "C" 
			},
			{
				"x": 1.4195381749,
				"y": -0.4798192391,
				"z": -0.4803639837,
				"element": "N" 
			},
			{
				"x": -0.4233693052,
				"y": -0.3613291413,
				"z": 1.8392982374,
				"element": "C" 
			},
			{
				"x": 0.1533332322,
				"y": -1.5685266535,
				"z": 1.9444142836,
				"element": "N" 
			},
			{
				"x": 0.3726920529,
				"y": -2.0399692234,
				"z": 3.1743722115,
				"element": "C" 
			},
			{
				"x": 0.0518809736,
				"y": -1.338939481,
				"z": 4.3403786388,
				"element": "C" 
			},
			{
				"x": -0.553930299,
				"y": -0.0885374819,
				"z": 4.2199243236,
				"element": "C" 
			},
			{
				"x": -0.8101484061,
				"y": 0.4071705946,
				"z": 2.9444592374,
				"element": "C" 
			},
			{
				"x": -1.5118613793,
				"y": -0.0386549525,
				"z": -2.0956543681,
				"element": "H" 
			},
			{
				"x": -0.0650923193,
				"y": -0.6392888507,
				"z": -4.0737255227,
				"element": "H" 
			},
			{
				"x": 2.3715661202,
				"y": -1.099984907,
				"z": -3.6604199682,
				"element": "H" 
			},
			{
				"x": 3.2402863916,
				"y": -0.9406942944,
				"z": -1.3286354072,
				"element": "H" 
			},
			{
				"x": 0.8289579947,
				"y": -3.0265359402,
				"z": 3.234705332,
				"element": "H" 
			},
			{
				"x": 0.2687137776,
				"y": -1.7686724951,
				"z": 5.3134445161,
				"element": "H" 
			},
			{
				"x": -0.8255325725,
				"y": 0.4848010468,
				"z": 5.1015541343,
				"element": "H" 
			},
			{
				"x": -1.2999567513,
				"y": 1.3608231035,
				"z": 2.7833407869,
				"element": "H" 
			}
		],
		 "valence_orbital": [ 
			{
				"type": "occ",
				"energy": -0.27407,
				"method": "rhf"
			},
			{
				"type": "occ",
				"energy": -0.26954,
				"method": "rhf"
			},
			{
				"type": "occ",
				"energy": -0.2646,
				"method": "rhf"
			},
			{
				"type": "occ",
				"energy": -0.26218,
				"method": "rhf"
			},
			{
				"type": "occ",
				"energy": -0.23505,
				"method": "rhf"
			},
			{
				"type": "unocc",
				"energy": -0.07134,
				"method": "rhf"
			},
			{
				"type": "unocc",
				"energy": -0.03064,
				"method": "rhf"
			},
			{
				"type": "unocc",
				"energy": -0.01991,
				"method": "rhf"
			},
			{
				"type": "unocc",
				"energy": -0.016,
				"method": "rhf"
			},
			{
				"type": "unocc",
				"energy": 0.04904,
				"method": "rhf"
			}
		],
		"cosmo_sigma_profile": { 
			"-0.025": 0.0,
			"-0.024": 0.0,
			"-0.023": 0.0,
			"-0.022": 0.0,
			"-0.021": 0.0,
			"-0.02": 0.0,
			"-0.019": 0.0,
			"-0.018": 0.0,
			"-0.017": 0.0,
			"-0.016": 0.0,
			"-0.015": 0.0,
			"-0.014": 0.0,
			"-0.013": 0.0,
			"-0.012": 0.0,
			"-0.011": 0.0,
			"-0.01": 0.0,
			"-0.009": 0.0,
			"-0.008": 2.77982382014,
			"-0.007": 15.1885499699,
			"-0.006": 18.4507463216,
			"-0.005": 17.4421551091,
			"-0.004": 11.6571170487,
			"-0.003": 14.1195914808,
			"-0.002": 12.9551169576,
			"-0.001": 11.9690663183,
			"0.0": 18.5576171303,
			"0.001": 28.2704084303,
			"0.002": 22.3757819267,
			"0.003": 5.49433939215,
			"0.004": 5.16660065505,
			"0.005": 3.95292983232,
			"0.006": 4.60813259208,
			"0.007": 2.95593299121,
			"0.008": 3.60732536296,
			"0.009": 3.65928694724,
			"0.01": 4.0502674731,
			"0.011": 5.75585197723,
			"0.012": 2.53808620108,
			"0.013": 1.76560124149,
			"0.014": 1.48459289778,
			"0.015": 2.40621953902,
			"0.016": 0.131873854847,
			"0.017": 0.0,
			"0.018": 0.0,
			"0.019": 0.0,
			"0.02": 0.0,
			"0.021": 0.0,
			"0.022": 0.0,
			"0.023": 0.0,
			"0.024": 0.0,
			"0.025": 0.0
		}
	}
}
