{
	 "smiles": "COC1=CC=CC=C1C=CC(O)=O", 
	 "Tm": 458.15, 
	 "num_atms": 23, 
	 "gaussian": { 
		 "optdone": 1, 
		 "sigma_profile": "yes", 
		 "theory": "DFT", 
		 "functional": "B3LYP", 
		 "basiset": "6-31G**", 
		 "properties": { 
			 "R2extent": 3430.9492, 
			 "electric_dipole_moment_norm": 6.94948425784, 
			 "electric_quadrupole_moment_norm": 24.8369154419, 
			 "total_energy": -612.744842359, 
			 "HOMO_LUMO_gap": 0.16417, 
			 "cosmo_polarized_energy": -16.96, 
			 "cosmo_cavitation_energy": 27.66, 
			 "cosmo_dispersion_energy": -20.08, 
			 "cosmo_repulsion_energy": 1.59, 
			 "cosmo_total_nonelectrostatic_energy": 9.17, 
			 "SMD_solvation_energy": 6.87 
		},
		"coords": [
			{
				"x": -1.1742906804,
				"y": -2.2342373244,
				"z": -1.7640668374,
				"element": "C" 
			},
			{
				"x": -0.6802755872,
				"y": -0.9335533009,
				"z": -1.4723860801,
				"element": "O" 
			},
			{
				"x": -0.2792025631,
				"y": -0.6502979408,
				"z": -0.2011897343,
				"element": "C" 
			},
			{
				"x": -0.330347291,
				"y": -1.5846043083,
				"z": 0.8385366791,
				"element": "C" 
			},
			{
				"x": 0.0945599576,
				"y": -1.2363766079,
				"z": 2.1221956362,
				"element": "C" 
			},
			{
				"x": 0.5747068528,
				"y": 0.0453998174,
				"z": 2.3839234127,
				"element": "C" 
			},
			{
				"x": 0.624154817,
				"y": 0.9720444448,
				"z": 1.3475563918,
				"element": "C" 
			},
			{
				"x": 0.206385527,
				"y": 0.6646833736,
				"z": 0.0387640714,
				"element": "C" 
			},
			{
				"x": 0.3084054403,
				"y": 1.7239448965,
				"z": -0.9579984348,
				"element": "C" 
			},
			{
				"x": -0.0051147748,
				"y": 1.7375140677,
				"z": -2.2693048486,
				"element": "C" 
			},
			{
				"x": 0.211802769,
				"y": 2.9846779205,
				"z": -3.0440923572,
				"element": "C" 
			},
			{
				"x": -0.1289587661,
				"y": 2.9184589905,
				"z": -4.3645909124,
				"element": "O" 
			},
			{
				"x": 0.6556633918,
				"y": 4.0186371185,
				"z": -2.5948624938,
				"element": "O" 
			},
			{
				"x": -0.4144546009,
				"y": -3.0036181598,
				"z": -1.5814011496,
				"element": "H" 
			},
			{
				"x": -1.4296827808,
				"y": -2.2261751179,
				"z": -2.8245655625,
				"element": "H" 
			},
			{
				"x": -2.0722114526,
				"y": -2.4644386342,
				"z": -1.178058801,
				"element": "H" 
			},
			{
				"x": -0.6998464288,
				"y": -2.5861977931,
				"z": 0.6571725635,
				"element": "H" 
			},
			{
				"x": 0.0463555929,
				"y": -1.9771989847,
				"z": 2.9149926243,
				"element": "H" 
			},
			{
				"x": 0.9057870104,
				"y": 0.319737543,
				"z": 3.3801561652,
				"element": "H" 
			},
			{
				"x": 0.9965447948,
				"y": 1.9745549295,
				"z": 1.5394294516,
				"element": "H" 
			},
			{
				"x": 0.7059716376,
				"y": 2.664165477,
				"z": -0.5767159413,
				"element": "H" 
			},
			{
				"x": -0.4088961888,
				"y": 0.8636858523,
				"z": -2.7657562883,
				"element": "H" 
			},
			{
				"x": -0.4656566768,
				"y": 2.0360937405,
				"z": -4.5726375548,
				"element": "H" 
			}
		],
		 "valence_orbital": [ 
			{
				"type": "occ",
				"energy": -0.3136,
				"method": "rhf"
			},
			{
				"type": "occ",
				"energy": -0.29534,
				"method": "rhf"
			},
			{
				"type": "occ",
				"energy": -0.25875,
				"method": "rhf"
			},
			{
				"type": "occ",
				"energy": -0.24937,
				"method": "rhf"
			},
			{
				"type": "occ",
				"energy": -0.2263,
				"method": "rhf"
			},
			{
				"type": "unocc",
				"energy": -0.06213,
				"method": "rhf"
			},
			{
				"type": "unocc",
				"energy": -0.00351,
				"method": "rhf"
			},
			{
				"type": "unocc",
				"energy": 0.02215,
				"method": "rhf"
			},
			{
				"type": "unocc",
				"energy": 0.06709,
				"method": "rhf"
			},
			{
				"type": "unocc",
				"energy": 0.07911,
				"method": "rhf"
			}
		],
		"cosmo_sigma_profile": { 
			"-0.025": 0.0,
			"-0.024": 0.0,
			"-0.023": 0.0,
			"-0.022": 0.0,
			"-0.021": 0.0,
			"-0.02": 0.0,
			"-0.019": 0.240432781233,
			"-0.018": 1.35146259397,
			"-0.017": 0.883341948469,
			"-0.016": 1.35037906231,
			"-0.015": 1.07304184597,
			"-0.014": 0.490801490546,
			"-0.013": 0.343159580971,
			"-0.012": 1.17844542513,
			"-0.011": 1.50980369828,
			"-0.01": 1.0178755268,
			"-0.009": 0.682212576224,
			"-0.008": 0.705348890761,
			"-0.007": 6.01027063724,
			"-0.006": 16.9206694928,
			"-0.005": 17.5849891658,
			"-0.004": 17.9673601895,
			"-0.003": 15.8277152763,
			"-0.002": 10.3295211302,
			"-0.001": 10.4235034839,
			"0.0": 11.4080073617,
			"0.001": 10.8840772935,
			"0.002": 17.7285763961,
			"0.003": 19.0045789515,
			"0.004": 16.3011204292,
			"0.005": 8.68872253785,
			"0.006": 3.23315655223,
			"0.007": 2.96149397316,
			"0.008": 2.23994967593,
			"0.009": 2.81733559125,
			"0.01": 3.50238705745,
			"0.011": 5.13953777113,
			"0.012": 5.56347621678,
			"0.013": 4.33159035517,
			"0.014": 1.12061748063,
			"0.015": 0.0,
			"0.016": 0.0,
			"0.017": 0.0,
			"0.018": 0.0,
			"0.019": 0.0,
			"0.02": 0.0,
			"0.021": 0.0,
			"0.022": 0.0,
			"0.023": 0.0,
			"0.024": 0.0,
			"0.025": 0.0
		}
	}
}
