{
	 "smiles": "O=C1NCNC1(C1=CC=CC=C1)C1=CC=CC=C1", 
	 "Tm": 456.15, 
	 "num_atms": 32, 
	 "gaussian": { 
		 "optdone": 1, 
		 "sigma_profile": "yes", 
		 "theory": "DFT", 
		 "functional": "B3LYP", 
		 "basiset": "6-31G**", 
		 "properties": { 
			 "R2extent": 4925.309, 
			 "electric_dipole_moment_norm": 2.91217717352, 
			 "electric_quadrupole_moment_norm": 10.9577177624, 
			 "total_energy": -764.76423051, 
			 "HOMO_LUMO_gap": 0.21734, 
			 "cosmo_polarized_energy": -13.9, 
			 "cosmo_cavitation_energy": 34.26, 
			 "cosmo_dispersion_energy": -24.49, 
			 "cosmo_repulsion_energy": 1.9, 
			 "cosmo_total_nonelectrostatic_energy": 11.67, 
			 "SMD_solvation_energy": 4.3 
		},
		"coords": [
			{
				"x": -1.8123975424,
				"y": 1.4804775382,
				"z": 2.6104721523,
				"element": "O" 
			},
			{
				"x": -1.7181643806,
				"y": 0.3436147727,
				"z": 2.1723316061,
				"element": "C" 
			},
			{
				"x": -2.0007056984,
				"y": -0.8027173742,
				"z": 2.8618610546,
				"element": "N" 
			},
			{
				"x": -1.969518889,
				"y": -1.9859821764,
				"z": 2.0053476108,
				"element": "C" 
			},
			{
				"x": -1.141027732,
				"y": -1.5807104971,
				"z": 0.872528051,
				"element": "N" 
			},
			{
				"x": -1.3126829751,
				"y": -0.1090954047,
				"z": 0.7351246984,
				"element": "C" 
			},
			{
				"x": -0.0182232605,
				"y": 0.5117733534,
				"z": 0.2012580993,
				"element": "C" 
			},
			{
				"x": 0.5716965883,
				"y": 1.6501339972,
				"z": 0.7644095755,
				"element": "C" 
			},
			{
				"x": 1.7541620959,
				"y": 2.1669843508,
				"z": 0.2281341869,
				"element": "C" 
			},
			{
				"x": 2.3612629086,
				"y": 1.5592481293,
				"z": -0.8701622739,
				"element": "C" 
			},
			{
				"x": 1.7743498245,
				"y": 0.4270523641,
				"z": -1.4397854871,
				"element": "C" 
			},
			{
				"x": 0.5923107428,
				"y": -0.0891483785,
				"z": -0.9117111115,
				"element": "C" 
			},
			{
				"x": -2.4938307049,
				"y": 0.2123807649,
				"z": -0.2066310449,
				"element": "C" 
			},
			{
				"x": -3.0166615928,
				"y": 1.5129185981,
				"z": -0.2592805589,
				"element": "C" 
			},
			{
				"x": -4.0605822626,
				"y": 1.8175838792,
				"z": -1.1312921238,
				"element": "C" 
			},
			{
				"x": -4.5971420307,
				"y": 0.8313710432,
				"z": -1.9629924722,
				"element": "C" 
			},
			{
				"x": -4.0811938921,
				"y": -0.4631819449,
				"z": -1.9135772753,
				"element": "C" 
			},
			{
				"x": -3.0352890643,
				"y": -0.7725854492,
				"z": -1.0402980525,
				"element": "C" 
			},
			{
				"x": -2.5137691038,
				"y": -0.7454227645,
				"z": 3.7306383193,
				"element": "H" 
			},
			{
				"x": -2.9791227678,
				"y": -2.2551544114,
				"z": 1.6649157757,
				"element": "H" 
			},
			{
				"x": -1.531203663,
				"y": -2.8484193939,
				"z": 2.5161703885,
				"element": "H" 
			},
			{
				"x": -0.1661938974,
				"y": -1.7467946275,
				"z": 1.109689759,
				"element": "H" 
			},
			{
				"x": 0.1018692441,
				"y": 2.1312662695,
				"z": 1.6136697532,
				"element": "H" 
			},
			{
				"x": 2.200584355,
				"y": 3.0500109561,
				"z": 0.6770147856,
				"element": "H" 
			},
			{
				"x": 3.2808284391,
				"y": 1.9649062939,
				"z": -1.2824021146,
				"element": "H" 
			},
			{
				"x": 2.2337505827,
				"y": -0.0525893918,
				"z": -2.299655784,
				"element": "H" 
			},
			{
				"x": 0.1329874046,
				"y": -0.96209898,
				"z": -1.3652500295,
				"element": "H" 
			},
			{
				"x": -2.6119151893,
				"y": 2.2775120476,
				"z": 0.395041847,
				"element": "H" 
			},
			{
				"x": -4.4562694499,
				"y": 2.8290203114,
				"z": -1.1604263057,
				"element": "H" 
			},
			{
				"x": -5.4101569004,
				"y": 1.0715529068,
				"z": -2.6423478359,
				"element": "H" 
			},
			{
				"x": -4.4908490624,
				"y": -1.2383584129,
				"z": -2.5556704676,
				"element": "H" 
			},
			{
				"x": -2.6258021257,
				"y": -1.7760483698,
				"z": -1.001324726,
				"element": "H" 
			}
		],
		 "valence_orbital": [ 
			{
				"type": "occ",
				"energy": -0.25305,
				"method": "rhf"
			},
			{
				"type": "occ",
				"energy": -0.24679,
				"method": "rhf"
			},
			{
				"type": "occ",
				"energy": -0.24247,
				"method": "rhf"
			},
			{
				"type": "occ",
				"energy": -0.23451,
				"method": "rhf"
			},
			{
				"type": "occ",
				"energy": -0.22815,
				"method": "rhf"
			},
			{
				"type": "unocc",
				"energy": -0.01081,
				"method": "rhf"
			},
			{
				"type": "unocc",
				"energy": -0.00533,
				"method": "rhf"
			},
			{
				"type": "unocc",
				"energy": 0.00679,
				"method": "rhf"
			},
			{
				"type": "unocc",
				"energy": 0.00995,
				"method": "rhf"
			},
			{
				"type": "unocc",
				"energy": 0.03479,
				"method": "rhf"
			}
		],
		"cosmo_sigma_profile": { 
			"-0.025": 0.0,
			"-0.024": 0.0,
			"-0.023": 0.0,
			"-0.022": 0.0,
			"-0.021": 0.0,
			"-0.02": 0.0,
			"-0.019": 0.0,
			"-0.018": 0.0,
			"-0.017": 0.0,
			"-0.016": 0.0,
			"-0.015": 0.524545932077,
			"-0.014": 1.59453125056,
			"-0.013": 1.02720154668,
			"-0.012": 1.52032548824,
			"-0.011": 1.90847773208,
			"-0.01": 2.48823513084,
			"-0.009": 1.92905368174,
			"-0.008": 2.57523699196,
			"-0.007": 4.11831623842,
			"-0.006": 10.6878012358,
			"-0.005": 20.941112651,
			"-0.004": 22.8559434558,
			"-0.003": 24.8956667084,
			"-0.002": 16.7849006569,
			"-0.001": 17.0341756285,
			"0.0": 16.6714476811,
			"0.001": 17.9922146563,
			"0.002": 16.7404636342,
			"0.003": 18.1357993719,
			"0.004": 18.3398555667,
			"0.005": 22.5880785618,
			"0.006": 14.8967378532,
			"0.007": 1.98013218868,
			"0.008": 1.93554063611,
			"0.009": 1.56203583137,
			"0.01": 2.20591470304,
			"0.011": 2.0735462573,
			"0.012": 2.13403134491,
			"0.013": 3.20304454931,
			"0.014": 1.5863007029,
			"0.015": 0.0299674842573,
			"0.016": 0.0,
			"0.017": 0.0,
			"0.018": 0.0,
			"0.019": 0.0,
			"0.02": 0.0,
			"0.021": 0.0,
			"0.022": 0.0,
			"0.023": 0.0,
			"0.024": 0.0,
			"0.025": 0.0
		}
	}
}
