{
	 "smiles": "COC1=CC=C(C=C1)C(C1=CC=C(OC)C=C1)C(Cl)(Cl)Cl", 
	 "Tm": 360.15, 
	 "num_atms": 36, 
	 "gaussian": { 
		 "optdone": 1, 
		 "sigma_profile": "yes", 
		 "theory": "DFT", 
		 "functional": "B3LYP", 
		 "basiset": "6-31G**", 
		 "properties": { 
			 "R2extent": 10444.8788, 
			 "electric_dipole_moment_norm": 2.69469645229, 
			 "electric_quadrupole_moment_norm": 31.41075792, 
			 "total_energy": -2149.72754288, 
			 "HOMO_LUMO_gap": 0.17561, 
			 "cosmo_polarized_energy": -11.35, 
			 "cosmo_cavitation_energy": 43.65, 
			 "cosmo_dispersion_energy": -30.57, 
			 "cosmo_repulsion_energy": 2.36, 
			 "cosmo_total_nonelectrostatic_energy": 15.43, 
			 "SMD_solvation_energy": 7.89 
		},
		"coords": [
			{
				"x": 2.1183965443,
				"y": -3.7271360686,
				"z": 3.2691442616,
				"element": "C" 
			},
			{
				"x": 2.2710459169,
				"y": -2.3666298567,
				"z": 2.8960690556,
				"element": "O" 
			},
			{
				"x": 1.7644436528,
				"y": -1.9660068305,
				"z": 1.6954891771,
				"element": "C" 
			},
			{
				"x": 1.9446933573,
				"y": -0.6110192696,
				"z": 1.3780680489,
				"element": "C" 
			},
			{
				"x": 1.4630414175,
				"y": -0.1015697039,
				"z": 0.1809957242,
				"element": "C" 
			},
			{
				"x": 0.7969418256,
				"y": -0.923112484,
				"z": -0.7439538341,
				"element": "C" 
			},
			{
				"x": 0.6143380306,
				"y": -2.2670485453,
				"z": -0.4059779671,
				"element": "C" 
			},
			{
				"x": 1.088054246,
				"y": -2.7971678169,
				"z": 0.7965789869,
				"element": "C" 
			},
			{
				"x": 0.234542507,
				"y": -0.3899985205,
				"z": -2.06181244,
				"element": "C" 
			},
			{
				"x": -0.5638784293,
				"y": 0.9036993709,
				"z": -1.89765236,
				"element": "C" 
			},
			{
				"x": -0.0142513385,
				"y": 2.1877001923,
				"z": -1.8265920793,
				"element": "C" 
			},
			{
				"x": -0.8139555993,
				"y": 3.315867952,
				"z": -1.6212593511,
				"element": "C" 
			},
			{
				"x": -2.1974951602,
				"y": 3.1747606086,
				"z": -1.4741337287,
				"element": "C" 
			},
			{
				"x": -3.0692030862,
				"y": 4.203160656,
				"z": -1.2686780791,
				"element": "O" 
			},
			{
				"x": -2.5479952108,
				"y": 5.5211609454,
				"z": -1.2003877539,
				"element": "C" 
			},
			{
				"x": -2.7653820046,
				"y": 1.894558101,
				"z": -1.5412718801,
				"element": "C" 
			},
			{
				"x": -1.9571550187,
				"y": 0.7868460233,
				"z": -1.7524612671,
				"element": "C" 
			},
			{
				"x": 1.2813508061,
				"y": -0.3885571774,
				"z": -3.2270645916,
				"element": "C" 
			},
			{
				"x": 1.8018420286,
				"y": -2.0911579882,
				"z": -3.5721217916,
				"element": "Cl" 
			},
			{
				"x": 2.7747953248,
				"y": 0.5629173412,
				"z": -2.8691683922,
				"element": "Cl" 
			},
			{
				"x": 0.5296999208,
				"y": 0.2635133345,
				"z": -4.7352071391,
				"element": "Cl" 
			},
			{
				"x": 2.5952445602,
				"y": -3.8274161471,
				"z": 4.2453313495,
				"element": "H" 
			},
			{
				"x": 2.6113105452,
				"y": -4.4003086025,
				"z": 2.5560188251,
				"element": "H" 
			},
			{
				"x": 1.0606331347,
				"y": -4.0078279323,
				"z": 3.3543335418,
				"element": "H" 
			},
			{
				"x": 2.4592094023,
				"y": 0.0237792619,
				"z": 2.0919282651,
				"element": "H" 
			},
			{
				"x": 1.5948803171,
				"y": 0.9536835935,
				"z": -0.0285997796,
				"element": "H" 
			},
			{
				"x": 0.0920393837,
				"y": -2.9258047872,
				"z": -1.0939971022,
				"element": "H" 
			},
			{
				"x": 0.9214361479,
				"y": -3.8447948309,
				"z": 1.0167482162,
				"element": "H" 
			},
			{
				"x": -0.484143508,
				"y": -1.1357816174,
				"z": -2.4168220895,
				"element": "H" 
			},
			{
				"x": 1.0517593443,
				"y": 2.3356713411,
				"z": -1.9499836012,
				"element": "H" 
			},
			{
				"x": -0.3444684959,
				"y": 4.2915886248,
				"z": -1.582298236,
				"element": "H" 
			},
			{
				"x": -2.0494024227,
				"y": 5.8086711962,
				"z": -2.1350089609,
				"element": "H" 
			},
			{
				"x": -3.404868434,
				"y": 6.1760438077,
				"z": -1.0351695668,
				"element": "H" 
			},
			{
				"x": -1.8416171512,
				"y": 5.6351074514,
				"z": -0.3679611103,
				"element": "H" 
			},
			{
				"x": -3.840208576,
				"y": 1.795073659,
				"z": -1.4312703222,
				"element": "H" 
			},
			{
				"x": -2.4184739783,
				"y": -0.1962652818,
				"z": -1.8028520284,
				"element": "H" 
			}
		],
		 "valence_orbital": [ 
			{
				"type": "occ",
				"energy": -0.29724,
				"method": "rhf"
			},
			{
				"type": "occ",
				"energy": -0.25379,
				"method": "rhf"
			},
			{
				"type": "occ",
				"energy": -0.25192,
				"method": "rhf"
			},
			{
				"type": "occ",
				"energy": -0.22702,
				"method": "rhf"
			},
			{
				"type": "occ",
				"energy": -0.21322,
				"method": "rhf"
			},
			{
				"type": "unocc",
				"energy": -0.03761,
				"method": "rhf"
			},
			{
				"type": "unocc",
				"energy": -0.01044,
				"method": "rhf"
			},
			{
				"type": "unocc",
				"energy": -0.00506,
				"method": "rhf"
			},
			{
				"type": "unocc",
				"energy": 0.00209,
				"method": "rhf"
			},
			{
				"type": "unocc",
				"energy": 0.00315,
				"method": "rhf"
			}
		],
		"cosmo_sigma_profile": { 
			"-0.025": 0.0,
			"-0.024": 0.0,
			"-0.023": 0.0,
			"-0.022": 0.0,
			"-0.021": 0.0,
			"-0.02": 0.0,
			"-0.019": 0.0,
			"-0.018": 0.0,
			"-0.017": 0.0,
			"-0.016": 0.0,
			"-0.015": 0.0,
			"-0.014": 0.0,
			"-0.013": 0.0,
			"-0.012": 0.0,
			"-0.011": 0.0,
			"-0.01": 0.0,
			"-0.009": 0.0,
			"-0.008": 1.63600595463,
			"-0.007": 4.45065428706,
			"-0.006": 19.3926519794,
			"-0.005": 32.7186202093,
			"-0.004": 32.8309674774,
			"-0.003": 31.8586876771,
			"-0.002": 21.3426720252,
			"-0.001": 21.1215274457,
			"0.0": 19.4316447684,
			"0.001": 21.2375065103,
			"0.002": 24.7127538336,
			"0.003": 39.91621035,
			"0.004": 38.841405855,
			"0.005": 25.330539349,
			"0.006": 6.87648575709,
			"0.007": 2.48667967477,
			"0.008": 2.88557078029,
			"0.009": 2.68764519889,
			"0.01": 3.13333164709,
			"0.011": 0.488314235706,
			"0.012": 0.0,
			"0.013": 0.0,
			"0.014": 0.0,
			"0.015": 0.0,
			"0.016": 0.0,
			"0.017": 0.0,
			"0.018": 0.0,
			"0.019": 0.0,
			"0.02": 0.0,
			"0.021": 0.0,
			"0.022": 0.0,
			"0.023": 0.0,
			"0.024": 0.0,
			"0.025": 0.0
		}
	}
}
