{
	 "smiles": "O=CC1=C(N=C2C=CC=CC2=C1)N1CCCCC1", 
	 "Tm": 392.15, 
	 "num_atms": 34, 
	 "gaussian": { 
		 "optdone": 1, 
		 "sigma_profile": "yes", 
		 "theory": "DFT", 
		 "functional": "B3LYP", 
		 "basiset": "6-31G**", 
		 "properties": { 
			 "R2extent": 5757.2722, 
			 "electric_dipole_moment_norm": 2.34126432937, 
			 "electric_quadrupole_moment_norm": 15.4907308178, 
			 "total_energy": -765.97673286, 
			 "HOMO_LUMO_gap": 0.14087, 
			 "cosmo_polarized_energy": -9.35, 
			 "cosmo_cavitation_energy": 35.59, 
			 "cosmo_dispersion_energy": -25.88, 
			 "cosmo_repulsion_energy": 1.98, 
			 "cosmo_total_nonelectrostatic_energy": 11.69, 
			 "SMD_solvation_energy": 4.25 
		},
		"coords": [
			{
				"x": 3.1372829271,
				"y": -1.1775216141,
				"z": -2.8405542557,
				"element": "O" 
			},
			{
				"x": 2.3840996061,
				"y": -0.5757187846,
				"z": -2.094081444,
				"element": "C" 
			},
			{
				"x": 0.9766486556,
				"y": -0.9681749917,
				"z": -1.8466087276,
				"element": "C" 
			},
			{
				"x": 0.1546533479,
				"y": -0.3546195402,
				"z": -0.8281780315,
				"element": "C" 
			},
			{
				"x": -1.1572024815,
				"y": -0.5105203783,
				"z": -0.795481875,
				"element": "N" 
			},
			{
				"x": -1.7566497794,
				"y": -1.3291519977,
				"z": -1.7056552732,
				"element": "C" 
			},
			{
				"x": -3.1675071873,
				"y": -1.4749765405,
				"z": -1.6688108447,
				"element": "C" 
			},
			{
				"x": -3.8031757744,
				"y": -2.3315262077,
				"z": -2.5424739548,
				"element": "C" 
			},
			{
				"x": -3.0677080168,
				"y": -3.0775631196,
				"z": -3.4967001929,
				"element": "C" 
			},
			{
				"x": -1.6981386266,
				"y": -2.9490748071,
				"z": -3.5641173124,
				"element": "C" 
			},
			{
				"x": -1.0155207089,
				"y": -2.0756384446,
				"z": -2.677773658,
				"element": "C" 
			},
			{
				"x": 0.3773108461,
				"y": -1.846542996,
				"z": -2.7260371743,
				"element": "C" 
			},
			{
				"x": 0.7465690099,
				"y": 0.471664228,
				"z": 0.1327593361,
				"element": "N" 
			},
			{
				"x": -0.1546520847,
				"y": 1.33715628,
				"z": 0.9074746271,
				"element": "C" 
			},
			{
				"x": 0.6391866072,
				"y": 2.4846649514,
				"z": 1.5414371041,
				"element": "C" 
			},
			{
				"x": 1.7889606711,
				"y": 1.9608055092,
				"z": 2.4124552366,
				"element": "C" 
			},
			{
				"x": 2.664467015,
				"y": 0.9859298959,
				"z": 1.6130658444,
				"element": "C" 
			},
			{
				"x": 1.808617356,
				"y": -0.1114779555,
				"z": 0.9767936692,
				"element": "C" 
			},
			{
				"x": 2.7101608062,
				"y": 0.3535043404,
				"z": -1.5865785986,
				"element": "H" 
			},
			{
				"x": -3.7173211007,
				"y": -0.9018593554,
				"z": -0.9295158333,
				"element": "H" 
			},
			{
				"x": -4.8834850353,
				"y": -2.4390352431,
				"z": -2.5009845906,
				"element": "H" 
			},
			{
				"x": -3.5888049664,
				"y": -3.7464370172,
				"z": -4.1748038666,
				"element": "H" 
			},
			{
				"x": -1.1222299748,
				"y": -3.5089519,
				"z": -4.296478436,
				"element": "H" 
			},
			{
				"x": 0.9932631673,
				"y": -2.3091000677,
				"z": -3.4930826886,
				"element": "H" 
			},
			{
				"x": -0.6745870033,
				"y": 0.756061222,
				"z": 1.6872162179,
				"element": "H" 
			},
			{
				"x": -0.9255807704,
				"y": 1.7159262128,
				"z": 0.2353146825,
				"element": "H" 
			},
			{
				"x": -0.0427483812,
				"y": 3.1051277169,
				"z": 2.1345540917,
				"element": "H" 
			},
			{
				"x": 1.0418284082,
				"y": 3.1196512826,
				"z": 0.7421677094,
				"element": "H" 
			},
			{
				"x": 2.3910164459,
				"y": 2.7907121145,
				"z": 2.7991783814,
				"element": "H" 
			},
			{
				"x": 1.3737373561,
				"y": 1.4384751393,
				"z": 3.2858859921,
				"element": "H" 
			},
			{
				"x": 3.4212817138,
				"y": 0.5234111243,
				"z": 2.2572156013,
				"element": "H" 
			},
			{
				"x": 3.197612007,
				"y": 1.5274658537,
				"z": 0.8212467019,
				"element": "H" 
			},
			{
				"x": 1.3463917551,
				"y": -0.7237491848,
				"z": 1.7719840529,
				"element": "H" 
			},
			{
				"x": 2.4253241902,
				"y": -0.7860157252,
				"z": 0.3802675091,
				"element": "H" 
			}
		],
		 "valence_orbital": [ 
			{
				"type": "occ",
				"energy": -0.27355,
				"method": "rhf"
			},
			{
				"type": "occ",
				"energy": -0.26731,
				"method": "rhf"
			},
			{
				"type": "occ",
				"energy": -0.24791,
				"method": "rhf"
			},
			{
				"type": "occ",
				"energy": -0.23799,
				"method": "rhf"
			},
			{
				"type": "occ",
				"energy": -0.21414,
				"method": "rhf"
			},
			{
				"type": "unocc",
				"energy": -0.07327,
				"method": "rhf"
			},
			{
				"type": "unocc",
				"energy": -0.0318,
				"method": "rhf"
			},
			{
				"type": "unocc",
				"energy": 0.01146,
				"method": "rhf"
			},
			{
				"type": "unocc",
				"energy": 0.02328,
				"method": "rhf"
			},
			{
				"type": "unocc",
				"energy": 0.08494,
				"method": "rhf"
			}
		],
		"cosmo_sigma_profile": { 
			"-0.025": 0.0,
			"-0.024": 0.0,
			"-0.023": 0.0,
			"-0.022": 0.0,
			"-0.021": 0.0,
			"-0.02": 0.0,
			"-0.019": 0.0,
			"-0.018": 0.0,
			"-0.017": 0.0,
			"-0.016": 0.0,
			"-0.015": 0.0,
			"-0.014": 0.0,
			"-0.013": 0.0,
			"-0.012": 0.0,
			"-0.011": 0.0,
			"-0.01": 0.0,
			"-0.009": 0.0,
			"-0.008": 0.411959226375,
			"-0.007": 3.78798006521,
			"-0.006": 9.98463953893,
			"-0.005": 15.1990985065,
			"-0.004": 16.9563898216,
			"-0.003": 30.8319395521,
			"-0.002": 39.3856422087,
			"-0.001": 33.3820243868,
			"0.0": 30.5072494158,
			"0.001": 22.3632259107,
			"0.002": 15.2723049793,
			"0.003": 16.557769487,
			"0.004": 13.9431463059,
			"0.005": 6.79271753598,
			"0.006": 3.08578511708,
			"0.007": 2.92916986603,
			"0.008": 3.53082884332,
			"0.009": 3.2053770884,
			"0.01": 3.2737269365,
			"0.011": 4.8353958124,
			"0.012": 4.11164075654,
			"0.013": 1.2335973369,
			"0.014": 0.0,
			"0.015": 0.0,
			"0.016": 0.0,
			"0.017": 0.0,
			"0.018": 0.0,
			"0.019": 0.0,
			"0.02": 0.0,
			"0.021": 0.0,
			"0.022": 0.0,
			"0.023": 0.0,
			"0.024": 0.0,
			"0.025": 0.0
		}
	}
}
