{
	 "smiles": "CC(C)(C(O)=O)C1=CC2=C(C=CC=C2)C=C1", 
	 "Tm": 420.15, 
	 "num_atms": 30, 
	 "gaussian": { 
		 "optdone": 1, 
		 "sigma_profile": "yes", 
		 "theory": "DFT", 
		 "functional": "B3LYP", 
		 "basiset": "6-31G**", 
		 "properties": { 
			 "R2extent": 4272.8764, 
			 "electric_dipole_moment_norm": 4.5711650364, 
			 "electric_quadrupole_moment_norm": 12.2985634588, 
			 "total_energy": -692.403289014, 
			 "HOMO_LUMO_gap": 0.1725, 
			 "cosmo_polarized_energy": -13.05, 
			 "cosmo_cavitation_energy": 32.51, 
			 "cosmo_dispersion_energy": -23.0, 
			 "cosmo_repulsion_energy": 1.76, 
			 "cosmo_total_nonelectrostatic_energy": 11.27, 
			 "SMD_solvation_energy": 6.29 
		},
		"coords": [
			{
				"x": 0.8883923661,
				"y": -0.617201617,
				"z": -2.4279840894,
				"element": "C" 
			},
			{
				"x": 0.5740235636,
				"y": 0.3200639841,
				"z": -1.2355035362,
				"element": "C" 
			},
			{
				"x": 1.8734789392,
				"y": 1.029956426,
				"z": -0.8016157712,
				"element": "C" 
			},
			{
				"x": -0.4038248588,
				"y": 1.380149381,
				"z": -1.8055909737,
				"element": "C" 
			},
			{
				"x": -1.7159766867,
				"y": 1.0375207257,
				"z": -1.8231333067,
				"element": "O" 
			},
			{
				"x": -0.0443752388,
				"y": 2.4255766091,
				"z": -2.2897150652,
				"element": "O" 
			},
			{
				"x": -0.0455630693,
				"y": -0.4171012301,
				"z": -0.0366219438,
				"element": "C" 
			},
			{
				"x": -0.6044308264,
				"y": 0.313525096,
				"z": 1.0015520815,
				"element": "C" 
			},
			{
				"x": -1.1513622431,
				"y": -0.3059055095,
				"z": 2.1542337017,
				"element": "C" 
			},
			{
				"x": -1.1229212212,
				"y": -1.7346380536,
				"z": 2.2528738461,
				"element": "C" 
			},
			{
				"x": -1.6696561767,
				"y": -2.3573972711,
				"z": 3.4075836824,
				"element": "C" 
			},
			{
				"x": -2.2185892953,
				"y": -1.6022835608,
				"z": 4.418712091,
				"element": "C" 
			},
			{
				"x": -2.2474760379,
				"y": -0.1878348138,
				"z": 4.3216602862,
				"element": "C" 
			},
			{
				"x": -1.7272163618,
				"y": 0.4450166524,
				"z": 3.2161512587,
				"element": "C" 
			},
			{
				"x": -0.5491837963,
				"y": -2.4700994006,
				"z": 1.1844561407,
				"element": "C" 
			},
			{
				"x": -0.0301194875,
				"y": -1.8359747135,
				"z": 0.0772396937,
				"element": "C" 
			},
			{
				"x": 0.0038172905,
				"y": -1.1665221621,
				"z": -2.7649222038,
				"element": "H" 
			},
			{
				"x": 1.6650230628,
				"y": -1.3399092851,
				"z": -2.1611543041,
				"element": "H" 
			},
			{
				"x": 1.2591671167,
				"y": -0.0234997165,
				"z": -3.267540808,
				"element": "H" 
			},
			{
				"x": 2.6053877309,
				"y": 0.2913215975,
				"z": -0.461207088,
				"element": "H" 
			},
			{
				"x": 2.2918650339,
				"y": 1.5939817395,
				"z": -1.6377842855,
				"element": "H" 
			},
			{
				"x": 1.6886926509,
				"y": 1.7297534139,
				"z": 0.0172910803,
				"element": "H" 
			},
			{
				"x": -1.8427666849,
				"y": 0.2308181037,
				"z": -1.2988800763,
				"element": "H" 
			},
			{
				"x": -0.6317741048,
				"y": 1.4000111077,
				"z": 0.9461609587,
				"element": "H" 
			},
			{
				"x": -1.6464205662,
				"y": -3.441791739,
				"z": 3.4785443196,
				"element": "H" 
			},
			{
				"x": -2.6333445862,
				"y": -2.0876181759,
				"z": 5.2973311328,
				"element": "H" 
			},
			{
				"x": -2.6842156129,
				"y": 0.3955528958,
				"z": 5.1269071769,
				"element": "H" 
			},
			{
				"x": -1.7491384834,
				"y": 1.5289820875,
				"z": 3.1396111227,
				"element": "H" 
			},
			{
				"x": -0.5243051668,
				"y": -3.5550029568,
				"z": 1.2486900141,
				"element": "H" 
			},
			{
				"x": 0.3983127504,
				"y": -2.4362496145,
				"z": -0.7171451353,
				"element": "H" 
			}
		],
		 "valence_orbital": [ 
			{
				"type": "occ",
				"energy": -0.30879,
				"method": "rhf"
			},
			{
				"type": "occ",
				"energy": -0.29462,
				"method": "rhf"
			},
			{
				"type": "occ",
				"energy": -0.26651,
				"method": "rhf"
			},
			{
				"type": "occ",
				"energy": -0.25042,
				"method": "rhf"
			},
			{
				"type": "occ",
				"energy": -0.2251,
				"method": "rhf"
			},
			{
				"type": "unocc",
				"energy": -0.0526,
				"method": "rhf"
			},
			{
				"type": "unocc",
				"energy": -0.02192,
				"method": "rhf"
			},
			{
				"type": "unocc",
				"energy": 0.01262,
				"method": "rhf"
			},
			{
				"type": "unocc",
				"energy": 0.01962,
				"method": "rhf"
			},
			{
				"type": "unocc",
				"energy": 0.07498,
				"method": "rhf"
			}
		],
		"cosmo_sigma_profile": { 
			"-0.025": 0.0,
			"-0.024": 0.0,
			"-0.023": 0.0,
			"-0.022": 0.0,
			"-0.021": 0.0,
			"-0.02": 0.0,
			"-0.019": 0.0,
			"-0.018": 0.0,
			"-0.017": 0.0,
			"-0.016": 0.0630023485737,
			"-0.015": 0.418340135133,
			"-0.014": 0.646027422943,
			"-0.013": 0.687335830112,
			"-0.012": 1.24750868092,
			"-0.011": 0.952336248006,
			"-0.01": 0.987699318816,
			"-0.009": 0.655689926864,
			"-0.008": 0.912160832408,
			"-0.007": 3.50835997746,
			"-0.006": 14.8269786429,
			"-0.005": 18.8429149182,
			"-0.004": 25.3495394993,
			"-0.003": 23.1653745115,
			"-0.002": 20.5344675888,
			"-0.001": 19.8177071008,
			"0.0": 19.6689037938,
			"0.001": 14.7503680884,
			"0.002": 13.1015956934,
			"0.003": 16.0526781251,
			"0.004": 21.3817723315,
			"0.005": 11.4975447764,
			"0.006": 2.85365765236,
			"0.007": 2.55518556543,
			"0.008": 3.10132059598,
			"0.009": 2.34815771344,
			"0.01": 5.06020511372,
			"0.011": 4.7640890111,
			"0.012": 5.72986251366,
			"0.013": 1.92279913349,
			"0.014": 0.096373840586,
			"0.015": 0.0,
			"0.016": 0.0,
			"0.017": 0.0,
			"0.018": 0.0,
			"0.019": 0.0,
			"0.02": 0.0,
			"0.021": 0.0,
			"0.022": 0.0,
			"0.023": 0.0,
			"0.024": 0.0,
			"0.025": 0.0
		}
	}
}
