{
	 "smiles": "CC(C)CN1C(N)=C(C(=O)CCl)C(=O)N(C)C1=O", 
	 "Tm": 378.15, 
	 "num_atms": 34, 
	 "gaussian": { 
		 "optdone": 1, 
		 "sigma_profile": "yes", 
		 "theory": "DFT", 
		 "functional": "B3LYP", 
		 "basiset": "6-31G**", 
		 "properties": { 
			 "R2extent": 5692.6628, 
			 "electric_dipole_moment_norm": 5.50494455376, 
			 "electric_quadrupole_moment_norm": 14.2892783971, 
			 "total_energy": -1278.99673608, 
			 "HOMO_LUMO_gap": 0.18503, 
			 "cosmo_polarized_energy": -16.82, 
			 "cosmo_cavitation_energy": 36.58, 
			 "cosmo_dispersion_energy": -26.3, 
			 "cosmo_repulsion_energy": 2.02, 
			 "cosmo_total_nonelectrostatic_energy": 12.3, 
			 "SMD_solvation_energy": 7.14 
		},
		"coords": [
			{
				"x": -1.9544369368,
				"y": -0.7157842741,
				"z": -3.1623697585,
				"element": "C" 
			},
			{
				"x": -0.4479999855,
				"y": -0.9880473045,
				"z": -3.0423368882,
				"element": "C" 
			},
			{
				"x": 0.3640097118,
				"y": 0.2555186494,
				"z": -3.4363719953,
				"element": "C" 
			},
			{
				"x": -0.059411289,
				"y": -1.6050200919,
				"z": -1.6762666987,
				"element": "C" 
			},
			{
				"x": -0.4840108154,
				"y": -0.8630733436,
				"z": -0.4645859427,
				"element": "N" 
			},
			{
				"x": 0.3180504758,
				"y": 0.0733277027,
				"z": 0.1532964382,
				"element": "C" 
			},
			{
				"x": 1.5102726485,
				"y": 0.3512317029,
				"z": -0.3876269424,
				"element": "N" 
			},
			{
				"x": -0.099358013,
				"y": 0.7229651197,
				"z": 1.3431873495,
				"element": "C" 
			},
			{
				"x": 0.7266145995,
				"y": 1.7893345786,
				"z": 1.8978219721,
				"element": "C" 
			},
			{
				"x": 1.8572587037,
				"y": 2.0717265588,
				"z": 1.4579364863,
				"element": "O" 
			},
			{
				"x": 0.2312179356,
				"y": 2.6612901666,
				"z": 3.047231114,
				"element": "C" 
			},
			{
				"x": -0.9258766409,
				"y": 3.9122930631,
				"z": 2.4104220089,
				"element": "Cl" 
			},
			{
				"x": -1.3449237093,
				"y": 0.3133800774,
				"z": 1.9737837901,
				"element": "C" 
			},
			{
				"x": -1.7924631368,
				"y": 0.7435104433,
				"z": 3.0316027039,
				"element": "O" 
			},
			{
				"x": -2.0795360874,
				"y": -0.6892509239,
				"z": 1.2868384601,
				"element": "N" 
			},
			{
				"x": -3.3414336038,
				"y": -1.1624305609,
				"z": 1.8710665386,
				"element": "C" 
			},
			{
				"x": -1.6921647902,
				"y": -1.3085280498,
				"z": 0.1223443399,
				"element": "C" 
			},
			{
				"x": -2.3468074682,
				"y": -2.2055436621,
				"z": -0.3878944903,
				"element": "O" 
			},
			{
				"x": -2.2014193272,
				"y": -0.4116946634,
				"z": -4.1845537006,
				"element": "H" 
			},
			{
				"x": -2.2617895742,
				"y": 0.0974800952,
				"z": -2.495524878,
				"element": "H" 
			},
			{
				"x": -2.5458000899,
				"y": -1.5968837507,
				"z": -2.9055401959,
				"element": "H" 
			},
			{
				"x": -0.1932708682,
				"y": -1.7807315016,
				"z": -3.7610270218,
				"element": "H" 
			},
			{
				"x": 0.1678509028,
				"y": 1.1018169879,
				"z": -2.7696193395,
				"element": "H" 
			},
			{
				"x": 1.4441741386,
				"y": 0.0578658692,
				"z": -3.4441118532,
				"element": "H" 
			},
			{
				"x": 0.0969602614,
				"y": 0.5747223901,
				"z": -4.4486319382,
				"element": "H" 
			},
			{
				"x": -0.5381640429,
				"y": -2.5796779373,
				"z": -1.5902892566,
				"element": "H" 
			},
			{
				"x": 1.0212830325,
				"y": -1.7662698526,
				"z": -1.6134369599,
				"element": "H" 
			},
			{
				"x": 1.7452229104,
				"y": 0.0709578612,
				"z": -1.3232353041,
				"element": "H" 
			},
			{
				"x": 2.0286604044,
				"y": 1.0868927202,
				"z": 0.1174000048,
				"element": "H" 
			},
			{
				"x": -0.3082954088,
				"y": 2.1026552888,
				"z": 3.8055278588,
				"element": "H" 
			},
			{
				"x": 1.0899195177,
				"y": 3.201644648,
				"z": 3.4413254805,
				"element": "H" 
			},
			{
				"x": -3.5478591293,
				"y": -0.5401686695,
				"z": 2.7376385192,
				"element": "H" 
			},
			{
				"x": -3.2497751099,
				"y": -2.2100888665,
				"z": 2.1670248046,
				"element": "H" 
			},
			{
				"x": -4.140299216,
				"y": -1.0799204709,
				"z": 1.1323752947,
				"element": "H" 
			}
		],
		 "valence_orbital": [ 
			{
				"type": "occ",
				"energy": -0.288,
				"method": "rhf"
			},
			{
				"type": "occ",
				"energy": -0.27393,
				"method": "rhf"
			},
			{
				"type": "occ",
				"energy": -0.26429,
				"method": "rhf"
			},
			{
				"type": "occ",
				"energy": -0.26034,
				"method": "rhf"
			},
			{
				"type": "occ",
				"energy": -0.24036,
				"method": "rhf"
			},
			{
				"type": "unocc",
				"energy": -0.05533,
				"method": "rhf"
			},
			{
				"type": "unocc",
				"energy": -0.01617,
				"method": "rhf"
			},
			{
				"type": "unocc",
				"energy": 0.00995,
				"method": "rhf"
			},
			{
				"type": "unocc",
				"energy": 0.0486,
				"method": "rhf"
			},
			{
				"type": "unocc",
				"energy": 0.05957,
				"method": "rhf"
			}
		],
		"cosmo_sigma_profile": { 
			"-0.025": 0.0,
			"-0.024": 0.0,
			"-0.023": 0.0,
			"-0.022": 0.0,
			"-0.021": 0.0,
			"-0.02": 0.0,
			"-0.019": 0.0,
			"-0.018": 0.0,
			"-0.017": 0.0,
			"-0.016": 0.0,
			"-0.015": 0.033656005209,
			"-0.014": 1.05168741143,
			"-0.013": 1.15672380364,
			"-0.012": 1.27744991796,
			"-0.011": 1.46307216549,
			"-0.01": 1.84760445722,
			"-0.009": 2.27293377083,
			"-0.008": 1.86911741215,
			"-0.007": 4.16886937181,
			"-0.006": 8.55636424845,
			"-0.005": 16.752119604,
			"-0.004": 30.4275174074,
			"-0.003": 32.4137907019,
			"-0.002": 29.3590889359,
			"-0.001": 23.6201240082,
			"0.0": 23.4269494473,
			"0.001": 19.6180077648,
			"0.002": 10.9834290653,
			"0.003": 11.5371086107,
			"0.004": 9.81967065772,
			"0.005": 13.0447653789,
			"0.006": 11.9702149334,
			"0.007": 5.23591471492,
			"0.008": 5.11310822294,
			"0.009": 5.719175698,
			"0.01": 4.6668155058,
			"0.011": 6.23784786796,
			"0.012": 6.30970674031,
			"0.013": 0.763968476512,
			"0.014": 0.0,
			"0.015": 0.0,
			"0.016": 0.0,
			"0.017": 0.0,
			"0.018": 0.0,
			"0.019": 0.0,
			"0.02": 0.0,
			"0.021": 0.0,
			"0.022": 0.0,
			"0.023": 0.0,
			"0.024": 0.0,
			"0.025": 0.0
		}
	}
}
