{
	 "smiles": "OC1=CC=C(F)C=C1", 
	 "Tm": 319.35, 
	 "num_atms": 13, 
	 "gaussian": { 
		 "optdone": 1, 
		 "sigma_profile": "yes", 
		 "theory": "DFT", 
		 "functional": "B3LYP", 
		 "basiset": "6-31G**", 
		 "properties": { 
			 "R2extent": 1522.7807, 
			 "electric_dipole_moment_norm": 1.96306223284, 
			 "electric_quadrupole_moment_norm": 7.60573480737, 
			 "total_energy": -406.701725101, 
			 "HOMO_LUMO_gap": 0.20658, 
			 "cosmo_polarized_energy": -7.93, 
			 "cosmo_cavitation_energy": 17.61, 
			 "cosmo_dispersion_energy": -13.18, 
			 "cosmo_repulsion_energy": 1.07, 
			 "cosmo_total_nonelectrostatic_energy": 5.5, 
			 "SMD_solvation_energy": 3.98 
		},
		"coords": [
			{
				"x": -2.1482265516,
				"y": 0.0030075079,
				"z": 0.3776567882,
				"element": "O" 
			},
			{
				"x": -1.1040912244,
				"y": -0.8046897637,
				"z": 0.0171678867,
				"element": "C" 
			},
			{
				"x": -1.2140952609,
				"y": -1.494137504,
				"z": -1.1964521753,
				"element": "C" 
			},
			{
				"x": -0.1851512938,
				"y": -2.3319426491,
				"z": -1.6194289907,
				"element": "C" 
			},
			{
				"x": 0.9471318377,
				"y": -2.4731438922,
				"z": -0.8232501481,
				"element": "C" 
			},
			{
				"x": 1.9462620206,
				"y": -3.2870724965,
				"z": -1.2346381536,
				"element": "F" 
			},
			{
				"x": 1.0755238633,
				"y": -1.798332663,
				"z": 0.3834200622,
				"element": "C" 
			},
			{
				"x": 0.0420603323,
				"y": -0.9593033021,
				"z": 0.8042798113,
				"element": "C" 
			},
			{
				"x": -1.9501240428,
				"y": 0.4177766516,
				"z": 1.2268943778,
				"element": "H" 
			},
			{
				"x": -2.1094619453,
				"y": -1.3630089703,
				"z": -1.7945795786,
				"element": "H" 
			},
			{
				"x": -0.2515619984,
				"y": -2.8745295433,
				"z": -2.5562933461,
				"element": "H" 
			},
			{
				"x": 1.9712544069,
				"y": -1.9303400774,
				"z": 0.9805021415,
				"element": "H" 
			},
			{
				"x": 0.1315798566,
				"y": -0.425483298,
				"z": 1.7479213247,
				"element": "H" 
			}
		],
		 "valence_orbital": [ 
			{
				"type": "occ",
				"energy": -0.36798,
				"method": "rhf"
			},
			{
				"type": "occ",
				"energy": -0.34293,
				"method": "rhf"
			},
			{
				"type": "occ",
				"energy": -0.32753,
				"method": "rhf"
			},
			{
				"type": "occ",
				"energy": -0.26128,
				"method": "rhf"
			},
			{
				"type": "occ",
				"energy": -0.21845,
				"method": "rhf"
			},
			{
				"type": "unocc",
				"energy": -0.01187,
				"method": "rhf"
			},
			{
				"type": "unocc",
				"energy": 0.01678,
				"method": "rhf"
			},
			{
				"type": "unocc",
				"energy": 0.06577,
				"method": "rhf"
			},
			{
				"type": "unocc",
				"energy": 0.08783,
				"method": "rhf"
			},
			{
				"type": "unocc",
				"energy": 0.139,
				"method": "rhf"
			}
		],
		"cosmo_sigma_profile": { 
			"-0.025": 0.0,
			"-0.024": 0.0,
			"-0.023": 0.0,
			"-0.022": 0.0,
			"-0.021": 0.0,
			"-0.02": 0.0,
			"-0.019": 0.0,
			"-0.018": 0.361743821544,
			"-0.017": 0.990500195723,
			"-0.016": 1.44660076889,
			"-0.015": 1.00950368732,
			"-0.014": 1.42657447005,
			"-0.013": 0.688880098961,
			"-0.012": 0.81853694066,
			"-0.011": 0.562215861598,
			"-0.01": 1.32111455186,
			"-0.009": 1.59719860861,
			"-0.008": 1.00838449583,
			"-0.007": 4.76631022047,
			"-0.006": 7.44574486694,
			"-0.005": 7.60798725288,
			"-0.004": 6.93807693039,
			"-0.003": 5.46589242131,
			"-0.002": 5.87825948747,
			"-0.001": 5.00544509558,
			"0.0": 6.42947063881,
			"0.001": 9.32050755178,
			"0.002": 12.2318909904,
			"0.003": 15.0520172947,
			"0.004": 19.227412548,
			"0.005": 14.3436111501,
			"0.006": 1.68826291204,
			"0.007": 1.03851005571,
			"0.008": 1.70591007542,
			"0.009": 1.45259055829,
			"0.01": 1.5050276783,
			"0.011": 1.89952647975,
			"0.012": 0.768626754667,
			"0.013": 0.0,
			"0.014": 0.0,
			"0.015": 0.0,
			"0.016": 0.0,
			"0.017": 0.0,
			"0.018": 0.0,
			"0.019": 0.0,
			"0.02": 0.0,
			"0.021": 0.0,
			"0.022": 0.0,
			"0.023": 0.0,
			"0.024": 0.0,
			"0.025": 0.0
		}
	}
}
