{
	 "smiles": "CC1=CC(C)=C(C)C(=C1C)S(Cl)(=O)=O", 
	 "Tm": 372.15, 
	 "num_atms": 27, 
	 "gaussian": { 
		 "optdone": 1, 
		 "sigma_profile": "yes", 
		 "theory": "DFT", 
		 "functional": "B3LYP", 
		 "basiset": "6-31G**", 
		 "properties": { 
			 "R2extent": 4288.7695, 
			 "electric_dipole_moment_norm": 5.70462238014, 
			 "electric_quadrupole_moment_norm": 14.5578710102, 
			 "total_energy": -1397.67485193, 
			 "HOMO_LUMO_gap": 0.16752, 
			 "cosmo_polarized_energy": -8.48, 
			 "cosmo_cavitation_energy": 31.52, 
			 "cosmo_dispersion_energy": -23.35, 
			 "cosmo_repulsion_energy": 1.76, 
			 "cosmo_total_nonelectrostatic_energy": 9.93, 
			 "SMD_solvation_energy": 4.2 
		},
		"coords": [
			{
				"x": -1.2173076254,
				"y": -2.2114024214,
				"z": 1.065503735,
				"element": "C" 
			},
			{
				"x": -0.4053491316,
				"y": -1.1133073575,
				"z": 0.4142042956,
				"element": "C" 
			},
			{
				"x": 0.9329497788,
				"y": -0.9590364682,
				"z": 0.774922917,
				"element": "C" 
			},
			{
				"x": 1.7780109736,
				"y": -0.0103962049,
				"z": 0.1995619956,
				"element": "C" 
			},
			{
				"x": 3.2283761251,
				"y": 0.0343869348,
				"z": 0.628080561,
				"element": "C" 
			},
			{
				"x": 1.2586425797,
				"y": 0.8813663092,
				"z": -0.7609522453,
				"element": "C" 
			},
			{
				"x": 2.2031685285,
				"y": 1.85354458,
				"z": -1.4367465434,
				"element": "C" 
			},
			{
				"x": -0.1238787345,
				"y": 0.7781971502,
				"z": -1.0476453353,
				"element": "C" 
			},
			{
				"x": -0.9652276829,
				"y": -0.2422501496,
				"z": -0.5428036976,
				"element": "C" 
			},
			{
				"x": -2.3955678179,
				"y": -0.4706667711,
				"z": -0.9854032632,
				"element": "C" 
			},
			{
				"x": -0.8755741245,
				"y": 2.0715759695,
				"z": -2.0678970481,
				"element": "S" 
			},
			{
				"x": -0.6403364342,
				"y": 1.2556809027,
				"z": -4.0536818451,
				"element": "Cl" 
			},
			{
				"x": -0.0754022793,
				"y": 3.2890932981,
				"z": -2.0397286489,
				"element": "O" 
			},
			{
				"x": -2.3123070814,
				"y": 2.1508986754,
				"z": -1.8381130623,
				"element": "O" 
			},
			{
				"x": -1.5015595282,
				"y": -2.9914510109,
				"z": 0.3493330477,
				"element": "H" 
			},
			{
				"x": -2.1419651726,
				"y": -1.8300398583,
				"z": 1.5106870813,
				"element": "H" 
			},
			{
				"x": -0.6394152129,
				"y": -2.6917641075,
				"z": 1.8589766713,
				"element": "H" 
			},
			{
				"x": 1.3452599234,
				"y": -1.6291388358,
				"z": 1.5254715355,
				"element": "H" 
			},
			{
				"x": 3.5299155307,
				"y": 1.0351669949,
				"z": 0.953914074,
				"element": "H" 
			},
			{
				"x": 3.4002253459,
				"y": -0.6525353286,
				"z": 1.4604949616,
				"element": "H" 
			},
			{
				"x": 3.9052067512,
				"y": -0.2584952875,
				"z": -0.1832661315,
				"element": "H" 
			},
			{
				"x": 2.1819956081,
				"y": 2.8381196971,
				"z": -0.9595531198,
				"element": "H" 
			},
			{
				"x": 1.9580681104,
				"y": 2.0095034115,
				"z": -2.4869062403,
				"element": "H" 
			},
			{
				"x": 3.2241687846,
				"y": 1.4742496156,
				"z": -1.3847392118,
				"element": "H" 
			},
			{
				"x": -2.6790672975,
				"y": -1.5072766455,
				"z": -0.8010598735,
				"element": "H" 
			},
			{
				"x": -2.5395482931,
				"y": -0.2686180801,
				"z": -2.0463950474,
				"element": "H" 
			},
			{
				"x": -3.095681624,
				"y": 0.1738949879,
				"z": -0.445059562,
				"element": "H" 
			}
		],
		 "valence_orbital": [ 
			{
				"type": "occ",
				"energy": -0.32415,
				"method": "rhf"
			},
			{
				"type": "occ",
				"energy": -0.31798,
				"method": "rhf"
			},
			{
				"type": "occ",
				"energy": -0.30544,
				"method": "rhf"
			},
			{
				"type": "occ",
				"energy": -0.27045,
				"method": "rhf"
			},
			{
				"type": "occ",
				"energy": -0.24928,
				"method": "rhf"
			},
			{
				"type": "unocc",
				"energy": -0.08176,
				"method": "rhf"
			},
			{
				"type": "unocc",
				"energy": -0.03921,
				"method": "rhf"
			},
			{
				"type": "unocc",
				"energy": -0.02233,
				"method": "rhf"
			},
			{
				"type": "unocc",
				"energy": 0.06212,
				"method": "rhf"
			},
			{
				"type": "unocc",
				"energy": 0.07509,
				"method": "rhf"
			}
		],
		"cosmo_sigma_profile": { 
			"-0.025": 0.0,
			"-0.024": 0.0,
			"-0.023": 0.0,
			"-0.022": 0.0,
			"-0.021": 0.0,
			"-0.02": 0.0,
			"-0.019": 0.0,
			"-0.018": 0.0,
			"-0.017": 0.0,
			"-0.016": 0.0,
			"-0.015": 0.0,
			"-0.014": 0.0,
			"-0.013": 0.0,
			"-0.012": 0.0,
			"-0.011": 0.0,
			"-0.01": 0.0,
			"-0.009": 0.0,
			"-0.008": 0.0,
			"-0.007": 0.328686004772,
			"-0.006": 5.11641477605,
			"-0.005": 14.7057559682,
			"-0.004": 20.5795745688,
			"-0.003": 26.5517784234,
			"-0.002": 28.3625745565,
			"-0.001": 34.2406886942,
			"0.0": 29.2178765996,
			"0.001": 16.9337885149,
			"0.002": 16.7234465664,
			"0.003": 17.4590655932,
			"0.004": 14.0475070481,
			"0.005": 5.41508272897,
			"0.006": 3.53782789699,
			"0.007": 4.64572440608,
			"0.008": 6.39184323777,
			"0.009": 6.68439440379,
			"0.01": 0.712650004158,
			"0.011": 0.0,
			"0.012": 0.0,
			"0.013": 0.0,
			"0.014": 0.0,
			"0.015": 0.0,
			"0.016": 0.0,
			"0.017": 0.0,
			"0.018": 0.0,
			"0.019": 0.0,
			"0.02": 0.0,
			"0.021": 0.0,
			"0.022": 0.0,
			"0.023": 0.0,
			"0.024": 0.0,
			"0.025": 0.0
		}
	}
}
