{
	 "smiles": "CC1CC1", 
	 "Tm": 96.15, 
	 "num_atms": 12, 
	 "gaussian": { 
		 "optdone": 1, 
		 "sigma_profile": "yes", 
		 "theory": "DFT", 
		 "functional": "B3LYP", 
		 "basiset": "6-31G**", 
		 "properties": { 
			 "R2extent": 605.3492, 
			 "electric_dipole_moment_norm": 0.107714483706, 
			 "electric_quadrupole_moment_norm": 1.25446730926, 
			 "total_energy": -157.220784597, 
			 "HOMO_LUMO_gap": 0.37458, 
			 "cosmo_polarized_energy": -1.16, 
			 "cosmo_cavitation_energy": 14.18, 
			 "cosmo_dispersion_energy": -10.69, 
			 "cosmo_repulsion_energy": 0.98, 
			 "cosmo_total_nonelectrostatic_energy": 4.47, 
			 "SMD_solvation_energy": 2.35 
		},
		"coords": [
			{
				"x": -0.5080528063,
				"y": 1.1434796507,
				"z": -1.4999936868,
				"element": "C" 
			},
			{
				"x": -1.3961133793,
				"y": 0.0572715042,
				"z": -0.9301221949,
				"element": "C" 
			},
			{
				"x": -0.8126325864,
				"y": -1.2794793584,
				"z": -0.5424258004,
				"element": "C" 
			},
			{
				"x": -1.7198684098,
				"y": -1.1697345835,
				"z": -1.7470076068,
				"element": "C" 
			},
			{
				"x": -1.0806277851,
				"y": 1.8459807562,
				"z": -2.1167092435,
				"element": "H" 
			},
			{
				"x": -0.0176630887,
				"y": 1.7174663081,
				"z": -0.7051691976,
				"element": "H" 
			},
			{
				"x": 0.2781663241,
				"y": 0.7138388195,
				"z": -2.131176128,
				"element": "H" 
			},
			{
				"x": -2.1992211605,
				"y": 0.4223652126,
				"z": -0.2920040847,
				"element": "H" 
			},
			{
				"x": -1.1935376386,
				"y": -1.7763884516,
				"z": 0.3450667669,
				"element": "H" 
			},
			{
				"x": 0.2480201399,
				"y": -1.4397037778,
				"z": -0.7175324324,
				"element": "H" 
			},
			{
				"x": -2.7182733906,
				"y": -1.5919528714,
				"z": -1.6794156344,
				"element": "H" 
			},
			{
				"x": -1.2694962187,
				"y": -1.2561432088,
				"z": -2.7324107574,
				"element": "H" 
			}
		],
		 "valence_orbital": [ 
			{
				"type": "occ",
				"energy": -0.385,
				"method": "rhf"
			},
			{
				"type": "occ",
				"energy": -0.35601,
				"method": "rhf"
			},
			{
				"type": "occ",
				"energy": -0.34473,
				"method": "rhf"
			},
			{
				"type": "occ",
				"energy": -0.28124,
				"method": "rhf"
			},
			{
				"type": "occ",
				"energy": -0.27215,
				"method": "rhf"
			},
			{
				"type": "unocc",
				"energy": 0.10243,
				"method": "rhf"
			},
			{
				"type": "unocc",
				"energy": 0.11366,
				"method": "rhf"
			},
			{
				"type": "unocc",
				"energy": 0.14278,
				"method": "rhf"
			},
			{
				"type": "unocc",
				"energy": 0.14874,
				"method": "rhf"
			},
			{
				"type": "unocc",
				"energy": 0.15746,
				"method": "rhf"
			}
		],
		"cosmo_sigma_profile": { 
			"-0.025": 0.0,
			"-0.024": 0.0,
			"-0.023": 0.0,
			"-0.022": 0.0,
			"-0.021": 0.0,
			"-0.02": 0.0,
			"-0.019": 0.0,
			"-0.018": 0.0,
			"-0.017": 0.0,
			"-0.016": 0.0,
			"-0.015": 0.0,
			"-0.014": 0.0,
			"-0.013": 0.0,
			"-0.012": 0.0,
			"-0.011": 0.0,
			"-0.01": 0.0,
			"-0.009": 0.0,
			"-0.008": 0.0,
			"-0.007": 0.0,
			"-0.006": 0.0,
			"-0.005": 0.0498410887513,
			"-0.004": 5.08737565632,
			"-0.003": 14.567153951,
			"-0.002": 16.9976522178,
			"-0.001": 14.3420707388,
			"0.0": 14.8169259176,
			"0.001": 16.7448735955,
			"0.002": 9.75401861702,
			"0.003": 5.83741796441,
			"0.004": 4.41499792058,
			"0.005": 5.01161034368,
			"0.006": 2.41478516544,
			"0.007": 0.363864370147,
			"0.008": 0.0,
			"0.009": 0.0,
			"0.01": 0.0,
			"0.011": 0.0,
			"0.012": 0.0,
			"0.013": 0.0,
			"0.014": 0.0,
			"0.015": 0.0,
			"0.016": 0.0,
			"0.017": 0.0,
			"0.018": 0.0,
			"0.019": 0.0,
			"0.02": 0.0,
			"0.021": 0.0,
			"0.022": 0.0,
			"0.023": 0.0,
			"0.024": 0.0,
			"0.025": 0.0
		}
	}
}
