{
	 "smiles": "OC(=O)COC1=C(C=CC=C1)C1=CC=CC=C1", 
	 "Tm": 376.15, 
	 "num_atms": 29, 
	 "gaussian": { 
		 "optdone": 1, 
		 "sigma_profile": "yes", 
		 "theory": "DFT", 
		 "functional": "B3LYP", 
		 "basiset": "6-31G**", 
		 "properties": { 
			 "R2extent": 4402.6208, 
			 "electric_dipole_moment_norm": 2.33738005682, 
			 "electric_quadrupole_moment_norm": 13.2242202311, 
			 "total_energy": -766.393134828, 
			 "HOMO_LUMO_gap": 0.19477, 
			 "cosmo_polarized_energy": -13.42, 
			 "cosmo_cavitation_energy": 33.51, 
			 "cosmo_dispersion_energy": -23.3, 
			 "cosmo_repulsion_energy": 1.82, 
			 "cosmo_total_nonelectrostatic_energy": 12.03, 
			 "SMD_solvation_energy": 6.91 
		},
		"coords": [
			{
				"x": -3.4976824963,
				"y": 1.7512496083,
				"z": 1.4481560344,
				"element": "O" 
			},
			{
				"x": -2.533355487,
				"y": 2.1446787981,
				"z": 0.5809884463,
				"element": "C" 
			},
			{
				"x": -2.0297626815,
				"y": 3.2404548325,
				"z": 0.5923602653,
				"element": "O" 
			},
			{
				"x": -2.1900927177,
				"y": 1.001760039,
				"z": -0.3563034388,
				"element": "C" 
			},
			{
				"x": -1.3464905921,
				"y": 1.4942294005,
				"z": -1.3776619781,
				"element": "O" 
			},
			{
				"x": -0.6932184714,
				"y": 0.5281643248,
				"z": -2.1257873008,
				"element": "C" 
			},
			{
				"x": 0.4465516186,
				"y": -0.1379742111,
				"z": -1.6269000065,
				"element": "C" 
			},
			{
				"x": 1.06600125,
				"y": -1.0689127205,
				"z": -2.4795332167,
				"element": "C" 
			},
			{
				"x": 0.5863840604,
				"y": -1.3282560124,
				"z": -3.7622140555,
				"element": "C" 
			},
			{
				"x": -0.5380058297,
				"y": -0.6503135338,
				"z": -4.2339321901,
				"element": "C" 
			},
			{
				"x": -1.1764673622,
				"y": 0.2753568155,
				"z": -3.4098093066,
				"element": "C" 
			},
			{
				"x": 1.0040310164,
				"y": 0.111904211,
				"z": -0.2689003316,
				"element": "C" 
			},
			{
				"x": 1.104721108,
				"y": 1.4097998572,
				"z": 0.2656585896,
				"element": "C" 
			},
			{
				"x": 1.6694122843,
				"y": 1.6166365178,
				"z": 1.5238671986,
				"element": "C" 
			},
			{
				"x": 2.1428224072,
				"y": 0.5391700956,
				"z": 2.2754492737,
				"element": "C" 
			},
			{
				"x": 2.0426227789,
				"y": -0.7541101556,
				"z": 1.7601150121,
				"element": "C" 
			},
			{
				"x": 1.4781364455,
				"y": -0.9644976327,
				"z": 0.5025772654,
				"element": "C" 
			},
			{
				"x": -3.6530446603,
				"y": 2.5044977555,
				"z": 2.0421451456,
				"element": "H" 
			},
			{
				"x": -3.1181291524,
				"y": 0.5790655395,
				"z": -0.7667389358,
				"element": "H" 
			},
			{
				"x": -1.7031275663,
				"y": 0.2165660965,
				"z": 0.237780592,
				"element": "H" 
			},
			{
				"x": 1.962211152,
				"y": -1.5736163973,
				"z": -2.1314231923,
				"element": "H" 
			},
			{
				"x": 1.0998394369,
				"y": -2.0459303101,
				"z": -4.3950850841,
				"element": "H" 
			},
			{
				"x": -0.915213776,
				"y": -0.8365530641,
				"z": -5.235098606,
				"element": "H" 
			},
			{
				"x": -2.0513346374,
				"y": 0.8232785258,
				"z": -3.7453779424,
				"element": "H" 
			},
			{
				"x": 0.7308285361,
				"y": 2.2538720223,
				"z": -0.3013779098,
				"element": "H" 
			},
			{
				"x": 1.7404098901,
				"y": 2.6273076853,
				"z": 1.9156439413,
				"element": "H" 
			},
			{
				"x": 2.5810294394,
				"y": 0.7053506755,
				"z": 3.2554336702,
				"element": "H" 
			},
			{
				"x": 2.3975060815,
				"y": -1.6021471026,
				"z": 2.3391617428,
				"element": "H" 
			},
			{
				"x": 1.3867179251,
				"y": -1.9763316605,
				"z": 0.118206318,
				"element": "H" 
			}
		],
		 "valence_orbital": [ 
			{
				"type": "occ",
				"energy": -0.27955,
				"method": "rhf"
			},
			{
				"type": "occ",
				"energy": -0.27112,
				"method": "rhf"
			},
			{
				"type": "occ",
				"energy": -0.24828,
				"method": "rhf"
			},
			{
				"type": "occ",
				"energy": -0.24496,
				"method": "rhf"
			},
			{
				"type": "occ",
				"energy": -0.22375,
				"method": "rhf"
			},
			{
				"type": "unocc",
				"energy": -0.02898,
				"method": "rhf"
			},
			{
				"type": "unocc",
				"energy": -0.00223,
				"method": "rhf"
			},
			{
				"type": "unocc",
				"energy": 0.00043,
				"method": "rhf"
			},
			{
				"type": "unocc",
				"energy": 0.00751,
				"method": "rhf"
			},
			{
				"type": "unocc",
				"energy": 0.02577,
				"method": "rhf"
			}
		],
		"cosmo_sigma_profile": { 
			"-0.025": 0.0,
			"-0.024": 0.0,
			"-0.023": 0.0,
			"-0.022": 0.0,
			"-0.021": 0.0,
			"-0.02": 0.0,
			"-0.019": 0.166121721327,
			"-0.018": 0.915150320237,
			"-0.017": 1.09948780435,
			"-0.016": 0.623105621891,
			"-0.015": 1.04820581435,
			"-0.014": 0.516560114372,
			"-0.013": 0.754234744475,
			"-0.012": 0.922543408672,
			"-0.011": 0.543539165455,
			"-0.01": 0.669563499215,
			"-0.009": 0.355386497879,
			"-0.008": 0.899342116764,
			"-0.007": 4.7133034618,
			"-0.006": 13.932332312,
			"-0.005": 22.991634446,
			"-0.004": 23.6846437295,
			"-0.003": 23.0772419398,
			"-0.002": 17.2411463597,
			"-0.001": 16.4362373207,
			"0.0": 13.6978449441,
			"0.001": 16.1675388236,
			"0.002": 16.8948064887,
			"0.003": 19.6742532832,
			"0.004": 20.1565477967,
			"0.005": 19.1002496907,
			"0.006": 7.50022198954,
			"0.007": 4.36739300108,
			"0.008": 3.6991818736,
			"0.009": 3.28592394365,
			"0.01": 3.1376723821,
			"0.011": 5.17783794515,
			"0.012": 2.9884956015,
			"0.013": 1.06367615123,
			"0.014": 0.160198025477,
			"0.015": 0.0,
			"0.016": 0.0,
			"0.017": 0.0,
			"0.018": 0.0,
			"0.019": 0.0,
			"0.02": 0.0,
			"0.021": 0.0,
			"0.022": 0.0,
			"0.023": 0.0,
			"0.024": 0.0,
			"0.0": 0.0
		}
	}
}
