{
	 "smiles": "CCCS(=O)(=O)NC1=CC(O)=CC=C1", 
	 "Tm": 375.15, 
	 "num_atms": 27, 
	 "gaussian": { 
		 "optdone": 1, 
		 "sigma_profile": "yes", 
		 "theory": "DFT", 
		 "functional": "B3LYP", 
		 "basiset": "6-31G**", 
		 "properties": { 
			 "R2extent": 3916.3828, 
			 "electric_dipole_moment_norm": 5.87438753659, 
			 "electric_quadrupole_moment_norm": 17.6621185739, 
			 "total_energy": -1029.34194574, 
			 "HOMO_LUMO_gap": 0.21337, 
			 "cosmo_polarized_energy": -19.68, 
			 "cosmo_cavitation_energy": 31.29, 
			 "cosmo_dispersion_energy": -22.84, 
			 "cosmo_repulsion_energy": 1.77, 
			 "cosmo_total_nonelectrostatic_energy": 10.21, 
			 "SMD_solvation_energy": 4.88 
		},
		"coords": [
			{
				"x": 3.2625120008,
				"y": 0.0828116329,
				"z": 0.6022821188,
				"element": "C" 
			},
			{
				"x": 1.9438223459,
				"y": 0.6559533185,
				"z": 0.0718717852,
				"element": "C" 
			},
			{
				"x": 1.2785242054,
				"y": -0.1728299161,
				"z": -1.0326939121,
				"element": "C" 
			},
			{
				"x": 0.4237933325,
				"y": -1.6819886046,
				"z": -0.4792412332,
				"element": "S" 
			},
			{
				"x": -0.1054810018,
				"y": -2.3224125963,
				"z": -1.6830144953,
				"element": "O" 
			},
			{
				"x": 1.2540927323,
				"y": -2.4190339967,
				"z": 0.477028141,
				"element": "O" 
			},
			{
				"x": -0.8743079029,
				"y": -1.1366108339,
				"z": 0.4622193955,
				"element": "N" 
			},
			{
				"x": -1.8674366815,
				"y": -0.2131231683,
				"z": 0.0561695851,
				"element": "C" 
			},
			{
				"x": -2.3687778579,
				"y": -0.2110521296,
				"z": -1.2495673525,
				"element": "C" 
			},
			{
				"x": -3.3618503501,
				"y": 0.7098688883,
				"z": -1.5989905347,
				"element": "C" 
			},
			{
				"x": -3.8027882496,
				"y": 0.6718421321,
				"z": -2.8894497509,
				"element": "O" 
			},
			{
				"x": -3.8748081604,
				"y": 1.6073875049,
				"z": -0.6557757449,
				"element": "C" 
			},
			{
				"x": -3.3756760904,
				"y": 1.5791244323,
				"z": 0.6461319711,
				"element": "C" 
			},
			{
				"x": -2.3700121866,
				"y": 0.688428634,
				"z": 1.0097614513,
				"element": "C" 
			},
			{
				"x": 3.1178737073,
				"y": -0.9041397322,
				"z": 1.0460203907,
				"element": "H" 
			},
			{
				"x": 3.9969154608,
				"y": -0.0138210171,
				"z": -0.2051982996,
				"element": "H" 
			},
			{
				"x": 3.6891104814,
				"y": 0.7466091343,
				"z": 1.3607555445,
				"element": "H" 
			},
			{
				"x": 2.1203548295,
				"y": 1.6530786377,
				"z": -0.3496684202,
				"element": "H" 
			},
			{
				"x": 1.2315890627,
				"y": 0.8061740307,
				"z": 0.8926668768,
				"element": "H" 
			},
			{
				"x": 0.5076098397,
				"y": 0.3943700885,
				"z": -1.5625463263,
				"element": "H" 
			},
			{
				"x": 1.9999717001,
				"y": -0.5322336295,
				"z": -1.7733562195,
				"element": "H" 
			},
			{
				"x": -0.62230307,
				"y": -1.127243052,
				"z": 1.4433267398,
				"element": "H" 
			},
			{
				"x": -2.0200267297,
				"y": -0.9250124161,
				"z": -1.9852765234,
				"element": "H" 
			},
			{
				"x": -4.5073445619,
				"y": 1.3226769626,
				"z": -3.003389973,
				"element": "H" 
			},
			{
				"x": -4.6533625865,
				"y": 2.3130958153,
				"z": -0.9349726041,
				"element": "H" 
			},
			{
				"x": -3.7694310577,
				"y": 2.2707426673,
				"z": 1.3850984283,
				"element": "H" 
			},
			{
				"x": -1.9775632113,
				"y": 0.684737213,
				"z": 2.0227089617,
				"element": "H" 
			}
		],
		 "valence_orbital": [ 
			{
				"type": "occ",
				"energy": -0.31143,
				"method": "rhf"
			},
			{
				"type": "occ",
				"energy": -0.30124,
				"method": "rhf"
			},
			{
				"type": "occ",
				"energy": -0.29627,
				"method": "rhf"
			},
			{
				"type": "occ",
				"energy": -0.24063,
				"method": "rhf"
			},
			{
				"type": "occ",
				"energy": -0.22453,
				"method": "rhf"
			},
			{
				"type": "unocc",
				"energy": -0.01116,
				"method": "rhf"
			},
			{
				"type": "unocc",
				"energy": 0.00219,
				"method": "rhf"
			},
			{
				"type": "unocc",
				"energy": 0.05323,
				"method": "rhf"
			},
			{
				"type": "unocc",
				"energy": 0.06561,
				"method": "rhf"
			},
			{
				"type": "unocc",
				"energy": 0.07277,
				"method": "rhf"
			}
		],
		"cosmo_sigma_profile": { 
			"-0.025": 0.0,
			"-0.024": 0.0,
			"-0.023": 0.0,
			"-0.022": 0.0,
			"-0.021": 0.0,
			"-0.02": 0.0,
			"-0.019": 0.0,
			"-0.018": 0.507026821039,
			"-0.017": 1.06544403092,
			"-0.016": 1.48508806383,
			"-0.015": 1.38841939598,
			"-0.014": 1.9553826549,
			"-0.013": 1.95499376402,
			"-0.012": 1.24707246797,
			"-0.011": 2.06885647431,
			"-0.01": 3.49669822077,
			"-0.009": 2.58244166454,
			"-0.008": 4.4139133838,
			"-0.007": 6.42126594637,
			"-0.006": 10.694442078,
			"-0.005": 14.0600853762,
			"-0.004": 18.3345500493,
			"-0.003": 17.9206265908,
			"-0.002": 15.7957526203,
			"-0.001": 16.6416085426,
			"0.0": 13.1040467386,
			"0.001": 15.4576696617,
			"0.002": 10.5852637767,
			"0.003": 11.9939747262,
			"0.004": 15.6957382697,
			"0.005": 13.4608223619,
			"0.006": 6.65287436414,
			"0.007": 5.58645941758,
			"0.008": 6.13573483489,
			"0.009": 5.34514635785,
			"0.01": 7.08579384262,
			"0.011": 9.94478536009,
			"0.012": 3.96646199629,
			"0.013": 0.0,
			"0.014": 0.0,
			"0.015": 0.0,
			"0.016": 0.0,
			"0.017": 0.0,
			"0.018": 0.0,
			"0.019": 0.0,
			"0.02": 0.0,
			"0.021": 0.0,
			"0.022": 0.0,
			"0.023": 0.0,
			"0.024": 0.0,
			"0.025": 0.0
		}
	}
}
