{
	 "smiles": "COC(=O)C1=C(O)C(N)=CC=C1", 
	 "Tm": 358.15, 
	 "num_atms": 21, 
	 "gaussian": { 
		 "optdone": 1, 
		 "sigma_profile": "yes", 
		 "theory": "DFT", 
		 "functional": "B3LYP", 
		 "basiset": "6-31G**", 
		 "properties": { 
			 "R2extent": 2427.7664, 
			 "electric_dipole_moment_norm": 1.55515584428, 
			 "electric_quadrupole_moment_norm": 14.6210681125, 
			 "total_energy": -590.7214067, 
			 "HOMO_LUMO_gap": 0.15198, 
			 "cosmo_polarized_energy": -9.68, 
			 "cosmo_cavitation_energy": 24.8, 
			 "cosmo_dispersion_energy": -18.93, 
			 "cosmo_repulsion_energy": 1.51, 
			 "cosmo_total_nonelectrostatic_energy": 7.38, 
			 "SMD_solvation_energy": 5.93 
		},
		"coords": [
			{
				"x": -0.6119873989,
				"y": -2.3352913556,
				"z": 2.5740326282,
				"element": "C" 
			},
			{
				"x": -0.7206371106,
				"y": -1.583366478,
				"z": 1.3541809079,
				"element": "O" 
			},
			{
				"x": -0.2597586366,
				"y": -0.322619389,
				"z": 1.4016459591,
				"element": "C" 
			},
			{
				"x": 0.2235085758,
				"y": 0.1497792068,
				"z": 2.4358036196,
				"element": "O" 
			},
			{
				"x": -0.3854322982,
				"y": 0.4156397217,
				"z": 0.1382838867,
				"element": "C" 
			},
			{
				"x": 0.0819638828,
				"y": 1.7456693567,
				"z": 0.1037790067,
				"element": "C" 
			},
			{
				"x": 0.6296343021,
				"y": 2.3717002013,
				"z": 1.168439725,
				"element": "O" 
			},
			{
				"x": -0.0193912898,
				"y": 2.5064805341,
				"z": -1.0886612297,
				"element": "C" 
			},
			{
				"x": 0.5070726414,
				"y": 3.7951010369,
				"z": -1.0956711123,
				"element": "N" 
			},
			{
				"x": -0.5960884802,
				"y": 1.9107567571,
				"z": -2.2098511099,
				"element": "C" 
			},
			{
				"x": -1.0627151597,
				"y": 0.5876294559,
				"z": -2.1751708593,
				"element": "C" 
			},
			{
				"x": -0.9592071648,
				"y": -0.1609079197,
				"z": -1.0161822574,
				"element": "C" 
			},
			{
				"x": 0.4330342249,
				"y": -2.4216846121,
				"z": 2.880960573,
				"element": "H" 
			},
			{
				"x": -1.177373011,
				"y": -1.8531219978,
				"z": 3.3750665645,
				"element": "H" 
			},
			{
				"x": -1.0278933017,
				"y": -3.3168124958,
				"z": 2.3479111499,
				"element": "H" 
			},
			{
				"x": 0.6210506782,
				"y": 1.7202320186,
				"z": 1.9122438393,
				"element": "H" 
			},
			{
				"x": 0.0780010377,
				"y": 4.4351776384,
				"z": -1.7484864876,
				"element": "H" 
			},
			{
				"x": 0.6330259182,
				"y": 4.1891159808,
				"z": -0.1731459753,
				"element": "H" 
			},
			{
				"x": -0.6761097209,
				"y": 2.4890492586,
				"z": -3.1272325762,
				"element": "H" 
			},
			{
				"x": -1.5050582951,
				"y": 0.15494312,
				"z": -3.0669600838,
				"element": "H" 
			},
			{
				"x": -1.3128393935,
				"y": -1.183670039,
				"z": -0.9739861685,
				"element": "H" 
			}
		],
		 "valence_orbital": [ 
			{
				"type": "occ",
				"energy": -0.31056,
				"method": "rhf"
			},
			{
				"type": "occ",
				"energy": -0.30725,
				"method": "rhf"
			},
			{
				"type": "occ",
				"energy": -0.28376,
				"method": "rhf"
			},
			{
				"type": "occ",
				"energy": -0.23658,
				"method": "rhf"
			},
			{
				"type": "occ",
				"energy": -0.1928,
				"method": "rhf"
			},
			{
				"type": "unocc",
				"energy": -0.04082,
				"method": "rhf"
			},
			{
				"type": "unocc",
				"energy": 0.02187,
				"method": "rhf"
			},
			{
				"type": "unocc",
				"energy": 0.06112,
				"method": "rhf"
			},
			{
				"type": "unocc",
				"energy": 0.09366,
				"method": "rhf"
			},
			{
				"type": "unocc",
				"energy": 0.10205,
				"method": "rhf"
			}
		],
		"cosmo_sigma_profile": { 
			"-0.025": 0.0,
			"-0.024": 0.0,
			"-0.023": 0.0,
			"-0.022": 0.0,
			"-0.021": 0.0,
			"-0.02": 0.0,
			"-0.019": 0.0,
			"-0.018": 0.0,
			"-0.017": 0.0,
			"-0.016": 0.0,
			"-0.015": 0.0,
			"-0.014": 0.0,
			"-0.013": 0.370617204076,
			"-0.012": 1.59564155347,
			"-0.011": 1.59063694853,
			"-0.01": 2.22401128338,
			"-0.009": 2.67022138547,
			"-0.008": 2.73664735792,
			"-0.007": 3.79633990188,
			"-0.006": 10.2216959048,
			"-0.005": 14.0828438872,
			"-0.004": 15.691566593,
			"-0.003": 16.0599447551,
			"-0.002": 13.904734524,
			"-0.001": 12.0550587346,
			"0.0": 9.41464090654,
			"0.001": 11.2583272936,
			"0.002": 13.8310747689,
			"0.003": 12.3658993239,
			"0.004": 13.0936915175,
			"0.005": 12.719880389,
			"0.006": 8.72848934423,
			"0.007": 4.61417853779,
			"0.008": 3.86281171471,
			"0.009": 3.46313175633,
			"0.01": 2.55073643561,
			"0.011": 2.26117338106,
			"0.012": 0.738393681714,
			"0.013": 0.708219697191,
			"0.014": 0.600056071626,
			"0.015": 0.0729871168776,
			"0.016": 0.0,
			"0.017": 0.0,
			"0.018": 0.0,
			"0.019": 0.0,
			"0.02": 0.0,
			"0.021": 0.0,
			"0.022": 0.0,
			"0.023": 0.0,
			"0.024": 0.0,
			"0.025": 0.0
		}
	}
}
