{
	 "smiles": "COC1=C(C)C=CC(=C1)C1(CC1)C(O)=O", 
	 "Tm": 401.15, 
	 "num_atms": 29, 
	 "gaussian": { 
		 "optdone": 1, 
		 "sigma_profile": "yes", 
		 "theory": "DFT", 
		 "functional": "B3LYP", 
		 "basiset": "6-31G**", 
		 "properties": { 
			 "R2extent": 4113.4299, 
			 "electric_dipole_moment_norm": 4.87191373692, 
			 "electric_quadrupole_moment_norm": 25.3090307793, 
			 "total_energy": -691.368278037, 
			 "HOMO_LUMO_gap": 0.21019, 
			 "cosmo_polarized_energy": -12.87, 
			 "cosmo_cavitation_energy": 32.21, 
			 "cosmo_dispersion_energy": -22.43, 
			 "cosmo_repulsion_energy": 1.77, 
			 "cosmo_total_nonelectrostatic_energy": 11.55, 
			 "SMD_solvation_energy": 7.24 
		},
		"coords": [
			{
				"x": 2.2925912774,
				"y": -2.5782284724,
				"z": 2.8374427201,
				"element": "C" 
			},
			{
				"x": 2.636674024,
				"y": -1.9498162378,
				"z": 1.6115701393,
				"element": "O" 
			},
			{
				"x": 1.6669968721,
				"y": -1.2746852647,
				"z": 0.9279779075,
				"element": "C" 
			},
			{
				"x": 2.0904558025,
				"y": -0.6827881357,
				"z": -0.2837099868,
				"element": "C" 
			},
			{
				"x": 3.5226436711,
				"y": -0.8216822604,
				"z": -0.7291318533,
				"element": "C" 
			},
			{
				"x": 1.144627691,
				"y": 0.0187711516,
				"z": -1.0283830603,
				"element": "C" 
			},
			{
				"x": -0.1828381632,
				"y": 0.1469833605,
				"z": -0.6051503995,
				"element": "C" 
			},
			{
				"x": -0.5943954,
				"y": -0.435673799,
				"z": 0.5979540391,
				"element": "C" 
			},
			{
				"x": 0.343834764,
				"y": -1.1557978716,
				"z": 1.3592314099,
				"element": "C" 
			},
			{
				"x": -2.0280293427,
				"y": -0.3507125783,
				"z": 1.0494840069,
				"element": "C" 
			},
			{
				"x": -2.3548462407,
				"y": 0.1502610233,
				"z": 2.4500431819,
				"element": "C" 
			},
			{
				"x": -2.6719954686,
				"y": 1.0155961186,
				"z": 1.275403428,
				"element": "C" 
			},
			{
				"x": -2.992565159,
				"y": -1.3959831329,
				"z": 0.5275226625,
				"element": "C" 
			},
			{
				"x": -2.5025456586,
				"y": -2.2602569806,
				"z": -0.3901901691,
				"element": "O" 
			},
			{
				"x": -4.1458452109,
				"y": -1.4702555408,
				"z": 0.887020718,
				"element": "O" 
			},
			{
				"x": 1.9427481004,
				"y": -1.8503661011,
				"z": 3.5804228984,
				"element": "H" 
			},
			{
				"x": 1.521214391,
				"y": -3.3456632307,
				"z": 2.6958019029,
				"element": "H" 
			},
			{
				"x": 3.2067659149,
				"y": -3.0503521573,
				"z": 3.2000161855,
				"element": "H" 
			},
			{
				"x": 4.2108742565,
				"y": -0.4026427527,
				"z": 0.0130417175,
				"element": "H" 
			},
			{
				"x": 3.8004711865,
				"y": -1.8745522271,
				"z": -0.8490162175,
				"element": "H" 
			},
			{
				"x": 3.686404254,
				"y": -0.3098758454,
				"z": -1.6808164052,
				"element": "H" 
			},
			{
				"x": 1.4545708343,
				"y": 0.4813245426,
				"z": -1.961945887,
				"element": "H" 
			},
			{
				"x": -0.8940769759,
				"y": 0.709649189,
				"z": -1.2028117922,
				"element": "H" 
			},
			{
				"x": 0.0207712552,
				"y": -1.6100780731,
				"z": 2.2885844712,
				"element": "H" 
			},
			{
				"x": -1.5122112392,
				"y": 0.423699338,
				"z": 3.0770162705,
				"element": "H" 
			},
			{
				"x": -3.1818659212,
				"y": -0.3413311508,
				"z": 2.9503846192,
				"element": "H" 
			},
			{
				"x": -3.7126424127,
				"y": 1.1091546919,
				"z": 0.9845330354,
				"element": "H" 
			},
			{
				"x": -2.0464281111,
				"y": 1.8821130316,
				"z": 1.0867710354,
				"element": "H" 
			},
			{
				"x": -1.5734589909,
				"y": -2.0418106346,
				"z": -0.5707665782,
				"element": "H" 
			}
		],
		 "valence_orbital": [ 
			{
				"type": "occ",
				"energy": -0.30956,
				"method": "rhf"
			},
			{
				"type": "occ",
				"energy": -0.28886,
				"method": "rhf"
			},
			{
				"type": "occ",
				"energy": -0.27176,
				"method": "rhf"
			},
			{
				"type": "occ",
				"energy": -0.25008,
				"method": "rhf"
			},
			{
				"type": "occ",
				"energy": -0.22811,
				"method": "rhf"
			},
			{
				"type": "unocc",
				"energy": -0.01792,
				"method": "rhf"
			},
			{
				"type": "unocc",
				"energy": -0.00519,
				"method": "rhf"
			},
			{
				"type": "unocc",
				"energy": 0.01908,
				"method": "rhf"
			},
			{
				"type": "unocc",
				"energy": 0.08833,
				"method": "rhf"
			},
			{
				"type": "unocc",
				"energy": 0.09672,
				"method": "rhf"
			}
		],
		"cosmo_sigma_profile": { 
			"-0.025": 0.0,
			"-0.024": 0.0,
			"-0.023": 0.0,
			"-0.022": 0.0,
			"-0.021": 0.0,
			"-0.02": 0.0,
			"-0.019": 0.0,
			"-0.018": 0.0,
			"-0.017": 0.0,
			"-0.016": 0.0,
			"-0.015": 0.0,
			"-0.014": 0.134226438877,
			"-0.013": 0.573380630751,
			"-0.012": 0.314278029003,
			"-0.011": 0.431075700448,
			"-0.01": 0.695654593157,
			"-0.009": 0.95936726445,
			"-0.008": 0.81306342784,
			"-0.007": 1.07174904533,
			"-0.006": 10.0710009602,
			"-0.005": 22.7240819102,
			"-0.004": 26.7482856663,
			"-0.003": 28.1611644544,
			"-0.002": 25.273183699,
			"-0.001": 20.9372629212,
			"0.0": 21.7302790058,
			"0.001": 15.7120800932,
			"0.002": 13.0749686476,
			"0.003": 13.2823733094,
			"0.004": 9.98093616461,
			"0.005": 7.60459914616,
			"0.006": 5.28871692794,
			"0.007": 3.60871477741,
			"0.008": 4.35757474636,
			"0.009": 3.70993327403,
			"0.01": 4.00539910316,
			"0.011": 4.75145021086,
			"0.012": 4.70738951173,
			"0.013": 3.21228969226,
			"0.014": 0.529767848576,
			"0.015": 0.0,
			"0.016": 0.0,
			"0.017": 0.0,
			"0.018": 0.0,
			"0.019": 0.0,
			"0.02": 0.0,
			"0.021": 0.0,
			"0.022": 0.0,
			"0.023": 0.0,
			"0.024": 0.0,
			"0.025": 0.0
		}
	}
}
