{
	 "smiles": "OC1=CC=C(C=C1)C1(CC2CC1C1CCCC21)C1=CC=C(O)C=C1", 
	 "Tm": 493.15, 
	 "num_atms": 48, 
	 "gaussian": { 
		 "optdone": 1, 
		 "sigma_profile": "yes", 
		 "theory": "DFT", 
		 "functional": "B3LYP", 
		 "basiset": "6-31G**", 
		 "properties": { 
			 "R2extent": 8799.2907, 
			 "electric_dipole_moment_norm": 0.692546958697, 
			 "electric_quadrupole_moment_norm": 13.4487868356, 
			 "total_energy": -1003.2455011, 
			 "HOMO_LUMO_gap": 0.19889, 
			 "cosmo_polarized_energy": -14.65, 
			 "cosmo_cavitation_energy": 45.47, 
			 "cosmo_dispersion_energy": -32.05, 
			 "cosmo_repulsion_energy": 2.43, 
			 "cosmo_total_nonelectrostatic_energy": 15.86, 
			 "SMD_solvation_energy": 7.08 
		},
		"coords": [
			{
				"x": 3.3567948976,
				"y": 1.6571126456,
				"z": 5.3636479411,
				"element": "O" 
			},
			{
				"x": 2.586636565,
				"y": 1.3627002129,
				"z": 4.2716894931,
				"element": "C" 
			},
			{
				"x": 3.1917290161,
				"y": 0.6956711573,
				"z": 3.2061931203,
				"element": "C" 
			},
			{
				"x": 2.4470307807,
				"y": 0.3729259958,
				"z": 2.0706382829,
				"element": "C" 
			},
			{
				"x": 1.0882582622,
				"y": 0.6980829393,
				"z": 1.9586564646,
				"element": "C" 
			},
			{
				"x": 0.5054898687,
				"y": 1.3729905486,
				"z": 3.0433470356,
				"element": "C" 
			},
			{
				"x": 1.2317238128,
				"y": 1.7018138904,
				"z": 4.1843448104,
				"element": "C" 
			},
			{
				"x": 0.2192291108,
				"y": 0.3954329858,
				"z": 0.7146813224,
				"element": "C" 
			},
			{
				"x": -1.0029559063,
				"y": -0.5294065408,
				"z": 1.1278605506,
				"element": "C" 
			},
			{
				"x": -0.776992169,
				"y": -1.8514963508,
				"z": 0.3569011067,
				"element": "C" 
			},
			{
				"x": 0.762448296,
				"y": -1.9332737555,
				"z": 0.336345988,
				"element": "C" 
			},
			{
				"x": 0.9409404532,
				"y": -0.545779229,
				"z": -0.3195663657,
				"element": "C" 
			},
			{
				"x": 0.0744928779,
				"y": -0.6854466103,
				"z": -1.598077915,
				"element": "C" 
			},
			{
				"x": 0.7422502547,
				"y": -1.431801019,
				"z": -2.7786104415,
				"element": "C" 
			},
			{
				"x": -0.3642862237,
				"y": -2.3489768212,
				"z": -3.3307550671,
				"element": "C" 
			},
			{
				"x": -1.0906307953,
				"y": -2.8376284673,
				"z": -2.064016315,
				"element": "C" 
			},
			{
				"x": -1.1164747723,
				"y": -1.6042985891,
				"z": -1.1302558173,
				"element": "C" 
			},
			{
				"x": -0.1482954617,
				"y": 1.7583041676,
				"z": 0.0948825115,
				"element": "C" 
			},
			{
				"x": -1.4382396194,
				"y": 2.3063641654,
				"z": 0.0809664902,
				"element": "C" 
			},
			{
				"x": -1.7031554386,
				"y": 3.5602565862,
				"z": -0.4724621534,
				"element": "C" 
			},
			{
				"x": -0.6687206591,
				"y": 4.3079474046,
				"z": -1.0350781255,
				"element": "C" 
			},
			{
				"x": -0.9773064546,
				"y": 5.5289734509,
				"z": -1.5692134001,
				"element": "O" 
			},
			{
				"x": 0.6308543285,
				"y": 3.7885901169,
				"z": -1.0273714788,
				"element": "C" 
			},
			{
				"x": 0.8770967014,
				"y": 2.5398552485,
				"z": -0.464704024,
				"element": "C" 
			},
			{
				"x": 2.812828735,
				"y": 2.116403168,
				"z": 6.0162994028,
				"element": "H" 
			},
			{
				"x": 4.2423981243,
				"y": 0.4335715824,
				"z": 3.2782310934,
				"element": "H" 
			},
			{
				"x": 2.9522505508,
				"y": -0.1523644878,
				"z": 1.2678612072,
				"element": "H" 
			},
			{
				"x": -0.5404625937,
				"y": 1.6628813978,
				"z": 2.9911415928,
				"element": "H" 
			},
			{
				"x": 0.7468961638,
				"y": 2.227310621,
				"z": 5.0052112253,
				"element": "H" 
			},
			{
				"x": -1.9761151362,
				"y": -0.1001857175,
				"z": 0.8804390163,
				"element": "H" 
			},
			{
				"x": -0.9928276827,
				"y": -0.7037488576,
				"z": 2.2066039756,
				"element": "H" 
			},
			{
				"x": -1.3013587673,
				"y": -2.7042257142,
				"z": 0.7995799507,
				"element": "H" 
			},
			{
				"x": 1.2024748738,
				"y": -2.0062456897,
				"z": 1.334248027,
				"element": "H" 
			},
			{
				"x": 1.1523705292,
				"y": -2.754773757,
				"z": -0.2720499748,
				"element": "H" 
			},
			{
				"x": 1.966325758,
				"y": -0.244033444,
				"z": -0.5461337685,
				"element": "H" 
			},
			{
				"x": -0.2815565567,
				"y": 0.2893540811,
				"z": -1.9386568851,
				"element": "H" 
			},
			{
				"x": 1.1445741132,
				"y": -0.7455813797,
				"z": -3.5312437968,
				"element": "H" 
			},
			{
				"x": 1.5823218168,
				"y": -2.0430538903,
				"z": -2.4239834175,
				"element": "H" 
			},
			{
				"x": 0.0200319179,
				"y": -3.1651735693,
				"z": -3.9520121039,
				"element": "H" 
			},
			{
				"x": -1.0548409104,
				"y": -1.7646755488,
				"z": -3.9527416557,
				"element": "H" 
			},
			{
				"x": -0.518550978,
				"y": -3.6536551606,
				"z": -1.6037062993,
				"element": "H" 
			},
			{
				"x": -2.0925777218,
				"y": -3.2290690588,
				"z": -2.2687811607,
				"element": "H" 
			},
			{
				"x": -2.0795020951,
				"y": -1.0895617911,
				"z": -1.2255911903,
				"element": "H" 
			},
			{
				"x": -2.2709547345,
				"y": 1.7617913096,
				"z": 0.5116410953,
				"element": "H" 
			},
			{
				"x": -2.7085412477,
				"y": 3.9688439127,
				"z": -0.4735895713,
				"element": "H" 
			},
			{
				"x": -0.1708949582,
				"y": 5.9335260712,
				"z": -1.9139833432,
				"element": "H" 
			},
			{
				"x": 1.4505170228,
				"y": 4.3635638501,
				"z": -1.4546519851,
				"element": "H" 
			},
			{
				"x": 1.8980760513,
				"y": 2.1697879397,
				"z": -0.4513754483,
				"element": "H" 
			}
		],
		 "valence_orbital": [ 
			{
				"type": "occ",
				"energy": -0.28782,
				"method": "rhf"
			},
			{
				"type": "occ",
				"energy": -0.2476,
				"method": "rhf"
			},
			{
				"type": "occ",
				"energy": -0.24537,
				"method": "rhf"
			},
			{
				"type": "occ",
				"energy": -0.22013,
				"method": "rhf"
			},
			{
				"type": "occ",
				"energy": -0.20171,
				"method": "rhf"
			},
			{
				"type": "unocc",
				"energy": -0.00282,
				"method": "rhf"
			},
			{
				"type": "unocc",
				"energy": 0.00154,
				"method": "rhf"
			},
			{
				"type": "unocc",
				"energy": 0.01081,
				"method": "rhf"
			},
			{
				"type": "unocc",
				"energy": 0.02918,
				"method": "rhf"
			},
			{
				"type": "unocc",
				"energy": 0.07316,
				"method": "rhf"
			}
		],
		"cosmo_sigma_profile": { 
			"-0.025": 0.0,
			"-0.024": 0.0,
			"-0.023": 0.0,
			"-0.022": 0.0,
			"-0.021": 0.0,
			"-0.02": 0.0,
			"-0.019": 0.0,
			"-0.018": 0.12038514542,
			"-0.017": 2.08874470798,
			"-0.016": 2.0899400249,
			"-0.015": 2.89907951361,
			"-0.014": 1.42329278833,
			"-0.013": 1.47877227259,
			"-0.012": 1.87308945474,
			"-0.011": 1.93101741087,
			"-0.01": 2.22417088628,
			"-0.009": 2.42027722224,
			"-0.008": 2.01950156746,
			"-0.007": 2.44571412578,
			"-0.006": 5.92347842291,
			"-0.005": 11.5191653774,
			"-0.004": 17.424794482,
			"-0.003": 22.0297578754,
			"-0.002": 33.765148735,
			"-0.001": 38.6916961006,
			"0.0": 46.6140445901,
			"0.001": 40.8383973084,
			"0.002": 25.9599484104,
			"0.003": 15.343004469,
			"0.004": 16.1718429809,
			"0.005": 19.8067802288,
			"0.006": 18.3330079065,
			"0.007": 5.05311130546,
			"0.008": 3.16954318883,
			"0.009": 2.80943578345,
			"0.01": 3.41954902241,
			"0.011": 3.54818179417,
			"0.012": 2.83051050152,
			"0.013": 0.00181832048132,
			"0.014": 0.0,
			"0.015": 0.0,
			"0.016": 0.0,
			"0.017": 0.0,
			"0.018": 0.0,
			"0.019": 0.0,
			"0.02": 0.0,
			"0.021": 0.0,
			"0.022": 0.0,
			"0.023": 0.0,
			"0.024": 0.0,
			"0.025": 0.0
		}
	}
}
