{
	 "smiles": "OC(=O)CN1C(=O)C2=C(C=C(Cl)C(Cl)=C2)C1=O", 
	 "Tm": 583.15, 
	 "num_atms": 22, 
	 "gaussian": { 
		 "optdone": 1, 
		 "sigma_profile": "yes", 
		 "theory": "DFT", 
		 "functional": "B3LYP", 
		 "basiset": "6-31G**", 
		 "properties": { 
			 "R2extent": 6707.8909, 
			 "electric_dipole_moment_norm": 3.66921596121, 
			 "electric_quadrupole_moment_norm": 22.141712693, 
			 "total_energy": -1660.13547411, 
			 "HOMO_LUMO_gap": 0.17157, 
			 "cosmo_polarized_energy": -20.87, 
			 "cosmo_cavitation_energy": 32.35, 
			 "cosmo_dispersion_energy": -23.07, 
			 "cosmo_repulsion_energy": 1.79, 
			 "cosmo_total_nonelectrostatic_energy": 11.07, 
			 "SMD_solvation_energy": 7.25 
		},
		"coords": [
			{
				"x": -1.536745957,
				"y": -3.7133753195,
				"z": 2.7021361809,
				"element": "O" 
			},
			{
				"x": -1.2885482465,
				"y": -2.4500046019,
				"z": 2.2824964542,
				"element": "C" 
			},
			{
				"x": -1.7042941912,
				"y": -1.4965892377,
				"z": 2.8831453908,
				"element": "O" 
			},
			{
				"x": -0.4468151258,
				"y": -2.3555184865,
				"z": 0.9988287987,
				"element": "C" 
			},
			{
				"x": -0.2236170905,
				"y": -0.9895772189,
				"z": 0.6139429282,
				"element": "N" 
			},
			{
				"x": 0.8083292331,
				"y": -0.1979455987,
				"z": 1.1501898287,
				"element": "C" 
			},
			{
				"x": 1.7065758831,
				"y": -0.6060040802,
				"z": 1.8550545561,
				"element": "O" 
			},
			{
				"x": 0.5471973146,
				"y": 1.1800100994,
				"z": 0.6401538436,
				"element": "C" 
			},
			{
				"x": -0.6190314635,
				"y": 1.1546695832,
				"z": -0.1261646608,
				"element": "C" 
			},
			{
				"x": -1.1121665633,
				"y": 2.296660059,
				"z": -0.7322492097,
				"element": "C" 
			},
			{
				"x": -0.3998578566,
				"y": 3.4903592697,
				"z": -0.5502609316,
				"element": "C" 
			},
			{
				"x": -1.0082738919,
				"y": 4.9366727558,
				"z": -1.3037747225,
				"element": "Cl" 
			},
			{
				"x": 0.7785014496,
				"y": 3.5159737365,
				"z": 0.2240696791,
				"element": "C" 
			},
			{
				"x": 1.6671756651,
				"y": 4.9948421815,
				"z": 0.4543277521,
				"element": "Cl" 
			},
			{
				"x": 1.2641132337,
				"y": 2.3483222118,
				"z": 0.8292103989,
				"element": "C" 
			},
			{
				"x": -1.1487616302,
				"y": -0.2404498729,
				"z": -0.1357633678,
				"element": "C" 
			},
			{
				"x": -2.1392485035,
				"y": -0.6895155551,
				"z": -0.6719229463,
				"element": "O" 
			},
			{
				"x": -1.1328237017,
				"y": -4.364116503,
				"z": 2.109451251,
				"element": "H" 
			},
			{
				"x": 0.5242557748,
				"y": -2.8342556624,
				"z": 1.1635592021,
				"element": "H" 
			},
			{
				"x": -0.968051825,
				"y": -2.866863751,
				"z": 0.1826510114,
				"element": "H" 
			},
			{
				"x": -2.0184030942,
				"y": 2.2799638916,
				"z": -1.3267845941,
				"element": "H" 
			},
			{
				"x": 2.1693905867,
				"y": 2.3710420995,
				"z": 1.4250031571,
				"element": "H" 
			}
		],
		 "valence_orbital": [ 
			{
				"type": "occ",
				"energy": -0.30527,
				"method": "rhf"
			},
			{
				"type": "occ",
				"energy": -0.29061,
				"method": "rhf"
			},
			{
				"type": "occ",
				"energy": -0.28855,
				"method": "rhf"
			},
			{
				"type": "occ",
				"energy": -0.28585,
				"method": "rhf"
			},
			{
				"type": "occ",
				"energy": -0.27138,
				"method": "rhf"
			},
			{
				"type": "unocc",
				"energy": -0.09981,
				"method": "rhf"
			},
			{
				"type": "unocc",
				"energy": -0.06444,
				"method": "rhf"
			},
			{
				"type": "unocc",
				"energy": -0.01446,
				"method": "rhf"
			},
			{
				"type": "unocc",
				"energy": -0.00511,
				"method": "rhf"
			},
			{
				"type": "unocc",
				"energy": 0.00416,
				"method": "rhf"
			}
		],
		"cosmo_sigma_profile": { 
			"-0.025": 0.0,
			"-0.024": 0.0,
			"-0.023": 0.0,
			"-0.022": 0.0,
			"-0.021": 0.166417783285,
			"-0.02": 0.980281256957,
			"-0.019": 1.48886937066,
			"-0.018": 1.37584091049,
			"-0.017": 0.912329847064,
			"-0.016": 1.46538734012,
			"-0.015": 0.926476673232,
			"-0.014": 1.73310459883,
			"-0.013": 1.18989772217,
			"-0.012": 1.46685468445,
			"-0.011": 1.36156867312,
			"-0.01": 2.7548756305,
			"-0.009": 5.32074218785,
			"-0.008": 5.75384866916,
			"-0.007": 6.15169558715,
			"-0.006": 8.00783266271,
			"-0.005": 8.18678542625,
			"-0.004": 12.320130124,
			"-0.003": 19.289233586,
			"-0.002": 29.9416360772,
			"-0.001": 20.7344642444,
			"0.0": 12.8996785582,
			"0.001": 14.9324252769,
			"0.002": 17.7392221869,
			"0.003": 22.7611919524,
			"0.004": 10.1239962503,
			"0.005": 5.08064115103,
			"0.006": 4.07106532414,
			"0.007": 6.48855912572,
			"0.008": 6.16298357525,
			"0.009": 9.145735735,
			"0.01": 13.1816085446,
			"0.011": 8.91234402193,
			"0.012": 1.89426202592,
			"0.013": 0.105620014012,
			"0.014": 0.0,
			"0.015": 0.0,
			"0.016": 0.0,
			"0.017": 0.0,
			"0.018": 0.0,
			"0.019": 0.0,
			"0.02": 0.0,
			"0.021": 0.0,
			"0.022": 0.0,
			"0.023": 0.0,
			"0.024": 0.0,
			"0.025": 0.0
		}
	}
}
