{
	 "smiles": "CCN(CC)S(=O)(=O)C1=CC(N)=C(C)C=C1", 
	 "Tm": 383.15, 
	 "num_atms": 34, 
	 "gaussian": { 
		 "optdone": 1, 
		 "sigma_profile": "yes", 
		 "theory": "DFT", 
		 "functional": "B3LYP", 
		 "basiset": "6-31G**", 
		 "properties": { 
			 "R2extent": 5252.7197, 
			 "electric_dipole_moment_norm": 4.55465343358, 
			 "electric_quadrupole_moment_norm": 24.4412922105, 
			 "total_energy": -1088.10413639, 
			 "HOMO_LUMO_gap": 0.18914, 
			 "cosmo_polarized_energy": -17.12, 
			 "cosmo_cavitation_energy": 36.85, 
			 "cosmo_dispersion_energy": -25.89, 
			 "cosmo_repulsion_energy": 1.99, 
			 "cosmo_total_nonelectrostatic_energy": 12.95, 
			 "SMD_solvation_energy": 5.02 
		},
		"coords": [
			{
				"x": -1.9941262246,
				"y": -1.4283850561,
				"z": 0.534068948,
				"element": "C" 
			},
			{
				"x": -0.4706474127,
				"y": -1.5421363453,
				"z": 0.4836858723,
				"element": "C" 
			},
			{
				"x": 0.064818688,
				"y": -1.1871917477,
				"z": -0.8463917077,
				"element": "N" 
			},
			{
				"x": -0.3034625324,
				"y": -2.0600056176,
				"z": -1.9827020584,
				"element": "C" 
			},
			{
				"x": 0.1556690479,
				"y": -3.5189336061,
				"z": -1.8838091696,
				"element": "C" 
			},
			{
				"x": 1.6919044654,
				"y": -0.6969817673,
				"z": -0.8229056882,
				"element": "S" 
			},
			{
				"x": 2.0943986354,
				"y": -0.5473923171,
				"z": -2.2267996515,
				"element": "O" 
			},
			{
				"x": 2.4924645572,
				"y": -1.5392056615,
				"z": 0.0818717578,
				"element": "O" 
			},
			{
				"x": 1.567868787,
				"y": 0.9300473481,
				"z": -0.0717454156,
				"element": "C" 
			},
			{
				"x": 2.2482139666,
				"y": 1.1640258373,
				"z": 1.1189824067,
				"element": "C" 
			},
			{
				"x": 2.2182998422,
				"y": 2.4412843667,
				"z": 1.7013382045,
				"element": "C" 
			},
			{
				"x": 2.8478618153,
				"y": 2.6657843818,
				"z": 2.9260166338,
				"element": "N" 
			},
			{
				"x": 1.494669126,
				"y": 3.4783004475,
				"z": 1.0670992541,
				"element": "C" 
			},
			{
				"x": 1.4401221647,
				"y": 4.8498201612,
				"z": 1.6903354012,
				"element": "C" 
			},
			{
				"x": 0.8331371131,
				"y": 3.2022155772,
				"z": -0.1340680214,
				"element": "C" 
			},
			{
				"x": 0.8579204006,
				"y": 1.9395915301,
				"z": -0.722353884,
				"element": "C" 
			},
			{
				"x": -2.3393459527,
				"y": -1.5937510097,
				"z": 1.5595685609,
				"element": "H" 
			},
			{
				"x": -2.3181134221,
				"y": -0.4331978445,
				"z": 0.2157805289,
				"element": "H" 
			},
			{
				"x": -2.4876273049,
				"y": -2.1706937953,
				"z": -0.1001257457,
				"element": "H" 
			},
			{
				"x": -0.0418034782,
				"y": -0.839465929,
				"z": 1.2036494163,
				"element": "H" 
			},
			{
				"x": -0.1452772874,
				"y": -2.5443928048,
				"z": 0.7922698159,
				"element": "H" 
			},
			{
				"x": -1.393416778,
				"y": -2.0075554223,
				"z": -2.0688133688,
				"element": "H" 
			},
			{
				"x": 0.1098238223,
				"y": -1.5975193767,
				"z": -2.880217782,
				"element": "H" 
			},
			{
				"x": 1.2455443353,
				"y": -3.5856275293,
				"z": -1.8253246646,
				"element": "H" 
			},
			{
				"x": -0.2641979246,
				"y": -4.0262930277,
				"z": -1.0095372919,
				"element": "H" 
			},
			{
				"x": -0.1714651148,
				"y": -4.0680180369,
				"z": -2.7732158647,
				"element": "H" 
			},
			{
				"x": 2.8004900744,
				"y": 0.3530714028,
				"z": 1.5832539478,
				"element": "H" 
			},
			{
				"x": 3.5441191522,
				"y": 1.9781401058,
				"z": 3.1790507682,
				"element": "H" 
			},
			{
				"x": 3.1724954856,
				"y": 3.608646375,
				"z": 3.0880203724,
				"element": "H" 
			},
			{
				"x": 0.7961546128,
				"y": 5.5193050512,
				"z": 1.1153347657,
				"element": "H" 
			},
			{
				"x": 2.4336487921,
				"y": 5.3180806489,
				"z": 1.7389162999,
				"element": "H" 
			},
			{
				"x": 1.055318754,
				"y": 4.8066884204,
				"z": 2.716795271,
				"element": "H" 
			},
			{
				"x": 0.2830581872,
				"y": 4.0042110165,
				"z": -0.6196761765,
				"element": "H" 
			},
			{
				"x": 0.3430816071,
				"y": 1.7421342245,
				"z": -1.6550517347,
				"element": "H" 
			}
		],
		 "valence_orbital": [ 
			{
				"type": "occ",
				"energy": -0.29329,
				"method": "rhf"
			},
			{
				"type": "occ",
				"energy": -0.28537,
				"method": "rhf"
			},
			{
				"type": "occ",
				"energy": -0.25896,
				"method": "rhf"
			},
			{
				"type": "occ",
				"energy": -0.23875,
				"method": "rhf"
			},
			{
				"type": "occ",
				"energy": -0.21289,
				"method": "rhf"
			},
			{
				"type": "unocc",
				"energy": -0.02375,
				"method": "rhf"
			},
			{
				"type": "unocc",
				"energy": 0.00135,
				"method": "rhf"
			},
			{
				"type": "unocc",
				"energy": 0.06676,
				"method": "rhf"
			},
			{
				"type": "unocc",
				"energy": 0.0724,
				"method": "rhf"
			},
			{
				"type": "unocc",
				"energy": 0.07694,
				"method": "rhf"
			}
		],
		"cosmo_sigma_profile": { 
			"-0.025": 0.0,
			"-0.024": 0.0,
			"-0.023": 0.0,
			"-0.022": 0.0,
			"-0.021": 0.0,
			"-0.02": 0.0,
			"-0.019": 0.0,
			"-0.018": 0.0,
			"-0.017": 0.0,
			"-0.016": 0.0,
			"-0.015": 0.0,
			"-0.014": 0.0,
			"-0.013": 0.805738322466,
			"-0.012": 2.74851466261,
			"-0.011": 2.85575779744,
			"-0.01": 3.21649747867,
			"-0.009": 3.10336695714,
			"-0.008": 2.80244372844,
			"-0.007": 2.8233480704,
			"-0.006": 6.80823427476,
			"-0.005": 13.1522935308,
			"-0.004": 27.1012779536,
			"-0.003": 29.9505878021,
			"-0.002": 28.9544885044,
			"-0.001": 27.6699875838,
			"0.0": 28.8899366638,
			"0.001": 19.2952053438,
			"0.002": 11.7402565961,
			"0.003": 14.0186092744,
			"0.004": 14.7954624982,
			"0.005": 8.72858688738,
			"0.006": 5.20749140226,
			"0.007": 3.73567627749,
			"0.008": 3.12196956071,
			"0.009": 4.51150843142,
			"0.01": 5.3480245252,
			"0.011": 9.79237849948,
			"0.012": 6.51458562954,
			"0.013": 1.05454316831,
			"0.014": 0.211103409347,
			"0.015": 0.0,
			"0.016": 0.0,
			"0.017": 0.0,
			"0.018": 0.0,
			"0.019": 0.0,
			"0.02": 0.0,
			"0.021": 0.0,
			"0.022": 0.0,
			"0.023": 0.0,
			"0.024": 0.0,
			"0.025": 0.0
		}
	}
}
