{
	 "smiles": "OCC(=O)N1CCC2=C1C=CC=C2", 
	 "Tm": 421.15, 
	 "num_atms": 24, 
	 "gaussian": { 
		 "optdone": 1, 
		 "sigma_profile": "yes", 
		 "theory": "DFT", 
		 "functional": "B3LYP", 
		 "basiset": "6-31G**", 
		 "properties": { 
			 "R2extent": 3515.7519, 
			 "electric_dipole_moment_norm": 2.47628600933, 
			 "electric_quadrupole_moment_norm": 4.64150047829, 
			 "total_energy": -592.894368351, 
			 "HOMO_LUMO_gap": 0.1938, 
			 "cosmo_polarized_energy": -12.25, 
			 "cosmo_cavitation_energy": 26.71, 
			 "cosmo_dispersion_energy": -19.98, 
			 "cosmo_repulsion_energy": 1.58, 
			 "cosmo_total_nonelectrostatic_energy": 8.31, 
			 "SMD_solvation_energy": 4.6 
		},
		"coords": [
			{
				"x": -0.0438423904,
				"y": -4.1827915951,
				"z": -2.261143387,
				"element": "O" 
			},
			{
				"x": -1.0508083723,
				"y": -3.578455517,
				"z": -1.4550328184,
				"element": "C" 
			},
			{
				"x": -0.5007168299,
				"y": -2.9007304607,
				"z": -0.1906186014,
				"element": "C" 
			},
			{
				"x": -0.828938197,
				"y": -3.3118430415,
				"z": 0.9201337454,
				"element": "O" 
			},
			{
				"x": 0.3711738795,
				"y": -1.8597739097,
				"z": -0.3825313698,
				"element": "N" 
			},
			{
				"x": 0.7170313644,
				"y": -1.2777013916,
				"z": -1.704865373,
				"element": "C" 
			},
			{
				"x": 1.9453550603,
				"y": -0.3827014736,
				"z": -1.4252778478,
				"element": "C" 
			},
			{
				"x": 1.9067578612,
				"y": -0.20123322,
				"z": 0.07549968,
				"element": "C" 
			},
			{
				"x": 1.0016323668,
				"y": -1.1106180843,
				"z": 0.642742513,
				"element": "C" 
			},
			{
				"x": 0.8177019065,
				"y": -1.1871241843,
				"z": 2.0251172985,
				"element": "C" 
			},
			{
				"x": 1.5608958733,
				"y": -0.315128703,
				"z": 2.8282541519,
				"element": "C" 
			},
			{
				"x": 2.4583596397,
				"y": 0.6007414807,
				"z": 2.2749777847,
				"element": "C" 
			},
			{
				"x": 2.6369079781,
				"y": 0.656906157,
				"z": 0.8872699471,
				"element": "C" 
			},
			{
				"x": 0.3698802943,
				"y": -4.880982912,
				"z": -1.7363349109,
				"element": "H" 
			},
			{
				"x": -1.7932105396,
				"y": -4.3047355881,
				"z": -1.1058857001,
				"element": "H" 
			},
			{
				"x": -1.5560022009,
				"y": -2.8508684031,
				"z": -2.099439886,
				"element": "H" 
			},
			{
				"x": 0.9120560947,
				"y": -2.0739249827,
				"z": -2.4219053115,
				"element": "H" 
			},
			{
				"x": -0.1257124299,
				"y": -0.6749008857,
				"z": -2.0671907771,
				"element": "H" 
			},
			{
				"x": 2.8737111682,
				"y": -0.8818600683,
				"z": -1.7313203592,
				"element": "H" 
			},
			{
				"x": 1.8902778482,
				"y": 0.5607433612,
				"z": -1.9764694098,
				"element": "H" 
			},
			{
				"x": 0.1216146462,
				"y": -1.8993555764,
				"z": 2.4441051672,
				"element": "H" 
			},
			{
				"x": 1.4293747909,
				"y": -0.3542881267,
				"z": 3.9058886427,
				"element": "H" 
			},
			{
				"x": 3.0199799572,
				"y": 1.2692779745,
				"z": 2.9205953622,
				"element": "H" 
			},
			{
				"x": 3.3390202306,
				"y": 1.3623491504,
				"z": 0.4504314592,
				"element": "H" 
			}
		],
		 "valence_orbital": [ 
			{
				"type": "occ",
				"energy": -0.299,
				"method": "rhf"
			},
			{
				"type": "occ",
				"energy": -0.29112,
				"method": "rhf"
			},
			{
				"type": "occ",
				"energy": -0.24536,
				"method": "rhf"
			},
			{
				"type": "occ",
				"energy": -0.24361,
				"method": "rhf"
			},
			{
				"type": "occ",
				"energy": -0.20941,
				"method": "rhf"
			},
			{
				"type": "unocc",
				"energy": -0.01561,
				"method": "rhf"
			},
			{
				"type": "unocc",
				"energy": -0.00022,
				"method": "rhf"
			},
			{
				"type": "unocc",
				"energy": 0.03283,
				"method": "rhf"
			},
			{
				"type": "unocc",
				"energy": 0.08136,
				"method": "rhf"
			},
			{
				"type": "unocc",
				"energy": 0.09754,
				"method": "rhf"
			}
		],
		"cosmo_sigma_profile": { 
			"-0.025": 0.0,
			"-0.024": 0.0,
			"-0.023": 0.0,
			"-0.022": 0.0,
			"-0.021": 0.0,
			"-0.02": 0.0,
			"-0.019": 0.0,
			"-0.018": 0.0,
			"-0.017": 0.159029013739,
			"-0.016": 1.07273184523,
			"-0.015": 1.03908227424,
			"-0.014": 1.02031836257,
			"-0.013": 0.875359937463,
			"-0.012": 1.18502732748,
			"-0.011": 0.585783621786,
			"-0.01": 1.00042788748,
			"-0.009": 0.954849305128,
			"-0.008": 1.00497634835,
			"-0.007": 3.11575735873,
			"-0.006": 7.729964255,
			"-0.005": 19.2206278389,
			"-0.004": 22.5057100119,
			"-0.003": 23.0295520512,
			"-0.002": 16.7896965224,
			"-0.001": 12.9066924751,
			"0.0": 9.66758338645,
			"0.001": 9.89013766788,
			"0.002": 10.1407610068,
			"0.003": 10.2213565167,
			"0.004": 12.1515283759,
			"0.005": 11.7466945755,
			"0.006": 9.95257886385,
			"0.007": 4.00319744013,
			"0.008": 2.46401503984,
			"0.009": 1.85326859458,
			"0.01": 1.77196704153,
			"0.011": 3.89445473791,
			"0.012": 3.0811026283,
			"0.013": 4.30082375524,
			"0.014": 2.08560544027,
			"0.015": 0.227291481382,
			"0.016": 0.0,
			"0.017": 0.0,
			"0.018": 0.0,
			"0.019": 0.0,
			"0.02": 0.0,
			"0.021": 0.0,
			"0.022": 0.0,
			"0.023": 0.0,
			"0.024": 0.0,
			"0.025": 0.0
		}
	}
}
