{
	 "smiles": "FC(F)(F)C1=CC=CC(C=CC(Cl)=O)=C1", 
	 "Tm": 303.15, 
	 "num_atms": 21, 
	 "gaussian": { 
		 "optdone": 1, 
		 "sigma_profile": "yes", 
		 "theory": "DFT", 
		 "functional": "B3LYP", 
		 "basiset": "6-31G**", 
		 "properties": { 
			 "R2extent": 5600.7625, 
			 "electric_dipole_moment_norm": 4.51892818929, 
			 "electric_quadrupole_moment_norm": 15.8404803652, 
			 "total_energy": -1219.61793936, 
			 "HOMO_LUMO_gap": 0.16427, 
			 "cosmo_polarized_energy": -9.17, 
			 "cosmo_cavitation_energy": 29.99, 
			 "cosmo_dispersion_energy": -21.12, 
			 "cosmo_repulsion_energy": 1.6, 
			 "cosmo_total_nonelectrostatic_energy": 10.47, 
			 "SMD_solvation_energy": 7.05 
		},
		"coords": [
			{
				"x": 3.615253804,
				"y": 2.6189919092,
				"z": -1.2406063537,
				"element": "F" 
			},
			{
				"x": 3.7005924054,
				"y": 1.6579497198,
				"z": -0.2936212819,
				"element": "C" 
			},
			{
				"x": 4.7950795859,
				"y": 1.9349644789,
				"z": 0.4483272457,
				"element": "F" 
			},
			{
				"x": 3.9219870041,
				"y": 0.4885133002,
				"z": -0.9298048205,
				"element": "F" 
			},
			{
				"x": 2.4563487131,
				"y": 1.6140755143,
				"z": 0.5562878173,
				"element": "C" 
			},
			{
				"x": 2.2806411578,
				"y": 2.5795436518,
				"z": 1.5564631276,
				"element": "C" 
			},
			{
				"x": 1.1140343769,
				"y": 2.5763127787,
				"z": 2.3165945813,
				"element": "C" 
			},
			{
				"x": 0.1309798666,
				"y": 1.616949318,
				"z": 2.0803770994,
				"element": "C" 
			},
			{
				"x": 0.2951607854,
				"y": 0.6409649843,
				"z": 1.081145891,
				"element": "C" 
			},
			{
				"x": -0.7702138053,
				"y": -0.3415359619,
				"z": 0.8857608041,
				"element": "C" 
			},
			{
				"x": -0.790335653,
				"y": -1.34548386,
				"z": -0.0126722712,
				"element": "C" 
			},
			{
				"x": -1.8719165394,
				"y": -2.3175756282,
				"z": -0.1884386035,
				"element": "C" 
			},
			{
				"x": -3.3145721389,
				"y": -2.114608913,
				"z": 0.9383287543,
				"element": "Cl" 
			},
			{
				"x": -1.8832608953,
				"y": -3.2057617528,
				"z": -0.9873239623,
				"element": "O" 
			},
			{
				"x": 1.4785383531,
				"y": 0.6552513286,
				"z": 0.3187340617,
				"element": "C" 
			},
			{
				"x": 3.0559285088,
				"y": 3.316476736,
				"z": 1.7373846045,
				"element": "H" 
			},
			{
				"x": 0.9715514,
				"y": 3.3188994551,
				"z": 3.0951254408,
				"element": "H" 
			},
			{
				"x": -0.7774180896,
				"y": 1.6163916466,
				"z": 2.6763888268,
				"element": "H" 
			},
			{
				"x": -1.6291435051,
				"y": -0.2356126756,
				"z": 1.5431732117,
				"element": "H" 
			},
			{
				"x": 0.026290729,
				"y": -1.5220211665,
				"z": -0.7064641594,
				"element": "H" 
			},
			{
				"x": 1.6447739364,
				"y": -0.0836848636,
				"z": -0.4561600135,
				"element": "H" 
			}
		],
		 "valence_orbital": [ 
			{
				"type": "occ",
				"energy": -0.32112,
				"method": "rhf"
			},
			{
				"type": "occ",
				"energy": -0.31873,
				"method": "rhf"
			},
			{
				"type": "occ",
				"energy": -0.29375,
				"method": "rhf"
			},
			{
				"type": "occ",
				"energy": -0.29112,
				"method": "rhf"
			},
			{
				"type": "occ",
				"energy": -0.2659,
				"method": "rhf"
			},
			{
				"type": "unocc",
				"energy": -0.10163,
				"method": "rhf"
			},
			{
				"type": "unocc",
				"energy": -0.04589,
				"method": "rhf"
			},
			{
				"type": "unocc",
				"energy": -0.01825,
				"method": "rhf"
			},
			{
				"type": "unocc",
				"energy": 0.01489,
				"method": "rhf"
			},
			{
				"type": "unocc",
				"energy": 0.0533,
				"method": "rhf"
			}
		],
		"cosmo_sigma_profile": { 
			"-0.025": 0.0,
			"-0.024": 0.0,
			"-0.023": 0.0,
			"-0.022": 0.0,
			"-0.021": 0.0,
			"-0.02": 0.0,
			"-0.019": 0.0,
			"-0.018": 0.0,
			"-0.017": 0.0,
			"-0.016": 0.0,
			"-0.015": 0.0,
			"-0.014": 0.0,
			"-0.013": 0.0,
			"-0.012": 0.0,
			"-0.011": 0.57637254962,
			"-0.01": 1.66960609639,
			"-0.009": 3.58802652723,
			"-0.008": 6.35907445202,
			"-0.007": 8.49363360981,
			"-0.006": 9.92071493399,
			"-0.005": 9.0443696138,
			"-0.004": 8.78703376436,
			"-0.003": 13.1365161853,
			"-0.002": 15.9478330087,
			"-0.001": 18.5388550234,
			"0.0": 22.686863899,
			"0.001": 28.9945204343,
			"0.002": 33.3865795618,
			"0.003": 29.2695618541,
			"0.004": 8.58748178272,
			"0.005": 8.61933813257,
			"0.006": 3.85972730457,
			"0.007": 2.37087691701,
			"0.008": 4.04352676568,
			"0.009": 5.05948970757,
			"0.01": 1.29355179812,
			"0.011": 0.0,
			"0.012": 0.0,
			"0.013": 0.0,
			"0.014": 0.0,
			"0.015": 0.0,
			"0.016": 0.0,
			"0.017": 0.0,
			"0.018": 0.0,
			"0.019": 0.0,
			"0.02": 0.0,
			"0.021": 0.0,
			"0.022": 0.0,
			"0.023": 0.0,
			"0.024": 0.0,
			"0.025": 0.0
		}
	}
}
