{
	 "smiles": "CC1CCOS(=O)O1", 
	 "Tm": 278.15, 
	 "num_atms": 16, 
	 "gaussian": { 
		 "optdone": 1, 
		 "sigma_profile": "yes", 
		 "theory": "DFT", 
		 "functional": "B3LYP", 
		 "basiset": "6-31G**", 
		 "properties": { 
			 "R2extent": 2950.017, 
			 "electric_dipole_moment_norm": 4.00603069883, 
			 "electric_quadrupole_moment_norm": 11.8257203979, 
			 "total_energy": -781.041360687, 
			 "HOMO_LUMO_gap": 0.25997, 
			 "cosmo_polarized_energy": -9.34, 
			 "cosmo_cavitation_energy": 19.56, 
			 "cosmo_dispersion_energy": -15.74, 
			 "cosmo_repulsion_energy": 1.25, 
			 "cosmo_total_nonelectrostatic_energy": 5.07, 
			 "SMD_solvation_energy": 1.96 
		},
		"coords": [
			{
				"x": -0.0772938143,
				"y": -0.6931455554,
				"z": -1.553201753,
				"element": "C" 
			},
			{
				"x": 0.1894150192,
				"y": 0.6824045836,
				"z": -2.1579451949,
				"element": "C" 
			},
			{
				"x": 0.6546307063,
				"y": 1.7410698197,
				"z": -1.1192656526,
				"element": "C" 
			},
			{
				"x": 2.1353078474,
				"y": 2.0678898348,
				"z": -1.2976521274,
				"element": "C" 
			},
			{
				"x": 2.8857022145,
				"y": 0.845947904,
				"z": -1.4610824278,
				"element": "O" 
			},
			{
				"x": 2.7246954289,
				"y": 0.1610169235,
				"z": -2.9973103906,
				"element": "S" 
			},
			{
				"x": 2.8280485178,
				"y": -1.2797736502,
				"z": -2.7405921873,
				"element": "O" 
			},
			{
				"x": 1.1425825964,
				"y": 0.6243430311,
				"z": -3.267153175,
				"element": "O" 
			},
			{
				"x": -0.3449074878,
				"y": -1.409240473,
				"z": -2.3341736604,
				"element": "H" 
			},
			{
				"x": -0.9115597909,
				"y": -0.6202965985,
				"z": -0.8466858815,
				"element": "H" 
			},
			{
				"x": 0.79782881,
				"y": -1.0728477887,
				"z": -1.0222599669,
				"element": "H" 
			},
			{
				"x": -0.7160119612,
				"y": 1.0309924074,
				"z": -2.6625513872,
				"element": "H" 
			},
			{
				"x": 0.0699514035,
				"y": 2.663067332,
				"z": -1.2126090398,
				"element": "H" 
			},
			{
				"x": 0.4889118752,
				"y": 1.3500951791,
				"z": -0.1100642271,
				"element": "H" 
			},
			{
				"x": 2.2969394707,
				"y": 2.7303510644,
				"z": -2.1573004506,
				"element": "H" 
			},
			{
				"x": 2.5527591642,
				"y": 2.5560259861,
				"z": -0.4140524778,
				"element": "H" 
			}
		],
		 "valence_orbital": [ 
			{
				"type": "occ",
				"energy": -0.34209,
				"method": "rhf"
			},
			{
				"type": "occ",
				"energy": -0.31782,
				"method": "rhf"
			},
			{
				"type": "occ",
				"energy": -0.30138,
				"method": "rhf"
			},
			{
				"type": "occ",
				"energy": -0.29859,
				"method": "rhf"
			},
			{
				"type": "occ",
				"energy": -0.2671,
				"method": "rhf"
			},
			{
				"type": "unocc",
				"energy": -0.00713,
				"method": "rhf"
			},
			{
				"type": "unocc",
				"energy": 0.03515,
				"method": "rhf"
			},
			{
				"type": "unocc",
				"energy": 0.07719,
				"method": "rhf"
			},
			{
				"type": "unocc",
				"energy": 0.08665,
				"method": "rhf"
			},
			{
				"type": "unocc",
				"energy": 0.11104,
				"method": "rhf"
			}
		],
		"cosmo_sigma_profile": { 
			"-0.025": 0.0,
			"-0.024": 0.0,
			"-0.023": 0.0,
			"-0.022": 0.0,
			"-0.021": 0.0,
			"-0.02": 0.0,
			"-0.019": 0.0,
			"-0.018": 0.0,
			"-0.017": 0.0,
			"-0.016": 0.0,
			"-0.015": 0.0,
			"-0.014": 0.0,
			"-0.013": 0.0,
			"-0.012": 0.0,
			"-0.011": 0.0,
			"-0.01": 0.0,
			"-0.009": 0.0,
			"-0.008": 0.0,
			"-0.007": 2.38045437295,
			"-0.006": 9.13262913095,
			"-0.005": 17.7077414886,
			"-0.004": 20.0476455924,
			"-0.003": 15.8715562646,
			"-0.002": 15.38782875,
			"-0.001": 12.9561642555,
			"0.0": 8.9960340536,
			"0.001": 6.55253061055,
			"0.002": 3.69372220328,
			"0.003": 3.78470528475,
			"0.004": 4.78199589064,
			"0.005": 3.35561926855,
			"0.006": 3.54380579227,
			"0.007": 4.18841950035,
			"0.008": 4.1213373918,
			"0.009": 4.38287649525,
			"0.01": 6.62598482686,
			"0.011": 6.69400602949,
			"0.012": 0.50062834655,
			"0.013": 0.0,
			"0.014": 0.0,
			"0.015": 0.0,
			"0.016": 0.0,
			"0.017": 0.0,
			"0.018": 0.0,
			"0.019": 0.0,
			"0.02": 0.0,
			"0.021": 0.0,
			"0.022": 0.0,
			"0.023": 0.0,
			"0.024": 0.0,
			"0.025": 0.0
		}
	}
}
