{
	 "smiles": "OC(=O)C1=CC2=C(N1)C=CC=C2OC(F)(F)F", 
	 "Tm": 463.15, 
	 "num_atms": 23, 
	 "gaussian": { 
		 "optdone": 1, 
		 "sigma_profile": "yes", 
		 "theory": "DFT", 
		 "functional": "B3LYP", 
		 "basiset": "6-31G**", 
		 "properties": { 
			 "R2extent": 4921.1447, 
			 "electric_dipole_moment_norm": 2.50651505681, 
			 "electric_quadrupole_moment_norm": 15.3477740028, 
			 "total_energy": -964.642737093, 
			 "HOMO_LUMO_gap": 0.16947, 
			 "cosmo_polarized_energy": -15.1, 
			 "cosmo_cavitation_energy": 29.97, 
			 "cosmo_dispersion_energy": -21.4, 
			 "cosmo_repulsion_energy": 1.59, 
			 "cosmo_total_nonelectrostatic_energy": 10.17, 
			 "SMD_solvation_energy": 7.39 
		},
		"coords": [
			{
				"x": -3.4309459524,
				"y": -1.4924267733,
				"z": 0.0111964224,
				"element": "O" 
			},
			{
				"x": -2.6217152217,
				"y": -0.8860083619,
				"z": 0.9095121983,
				"element": "C" 
			},
			{
				"x": -2.9920048614,
				"y": -0.6881544709,
				"z": 2.0476275921,
				"element": "O" 
			},
			{
				"x": -1.2821244176,
				"y": -0.4796060562,
				"z": 0.4458527457,
				"element": "C" 
			},
			{
				"x": -0.6247639431,
				"y": -0.5731466741,
				"z": -0.7651054596,
				"element": "C" 
			},
			{
				"x": 0.6647915466,
				"y": 0.0062271894,
				"z": -0.5752133409,
				"element": "C" 
			},
			{
				"x": 0.7429105357,
				"y": 0.4396489801,
				"z": 0.7819033997,
				"element": "C" 
			},
			{
				"x": -0.4552706552,
				"y": 0.1286448385,
				"z": 1.3694648779,
				"element": "N" 
			},
			{
				"x": 1.8874556317,
				"y": 1.0580118889,
				"z": 1.3064352873,
				"element": "C" 
			},
			{
				"x": 2.9628812558,
				"y": 1.2426425478,
				"z": 0.4505676607,
				"element": "C" 
			},
			{
				"x": 2.9177788422,
				"y": 0.8297130637,
				"z": -0.9001560285,
				"element": "C" 
			},
			{
				"x": 1.7835902057,
				"y": 0.2205945419,
				"z": -1.398760431,
				"element": "C" 
			},
			{
				"x": 1.7039130686,
				"y": -0.1129208057,
				"z": -2.7608708933,
				"element": "O" 
			},
			{
				"x": 2.1227887536,
				"y": -1.3511825626,
				"z": -3.1251799638,
				"element": "C" 
			},
			{
				"x": 1.3946876693,
				"y": -2.3280931204,
				"z": -2.544054179,
				"element": "F" 
			},
			{
				"x": 1.984906777,
				"y": -1.4513485641,
				"z": -4.4468323168,
				"element": "F" 
			},
			{
				"x": 3.4106387798,
				"y": -1.5750945477,
				"z": -2.8067848208,
				"element": "F" 
			},
			{
				"x": -2.9866647583,
				"y": -1.5824057669,
				"z": -0.8437251388,
				"element": "H" 
			},
			{
				"x": -0.9922935262,
				"y": -1.0047842308,
				"z": -1.6852151483,
				"element": "H" 
			},
			{
				"x": -0.7500529883,
				"y": 0.2932593063,
				"z": 2.3211003094,
				"element": "H" 
			},
			{
				"x": 1.9291624303,
				"y": 1.3821275673,
				"z": 2.3412472319,
				"element": "H" 
			},
			{
				"x": 3.8646467235,
				"y": 1.7191561223,
				"z": 0.8215127929,
				"element": "H" 
			},
			{
				"x": 3.7646841046,
				"y": 0.9913458885,
				"z": -1.5569227976,
				"element": "H" 
			}
		],
		 "valence_orbital": [ 
			{
				"type": "occ",
				"energy": -0.32552,
				"method": "rhf"
			},
			{
				"type": "occ",
				"energy": -0.30397,
				"method": "rhf"
			},
			{
				"type": "occ",
				"energy": -0.28958,
				"method": "rhf"
			},
			{
				"type": "occ",
				"energy": -0.24957,
				"method": "rhf"
			},
			{
				"type": "occ",
				"energy": -0.23402,
				"method": "rhf"
			},
			{
				"type": "unocc",
				"energy": -0.06455,
				"method": "rhf"
			},
			{
				"type": "unocc",
				"energy": -0.00336,
				"method": "rhf"
			},
			{
				"type": "unocc",
				"energy": 0.00794,
				"method": "rhf"
			},
			{
				"type": "unocc",
				"energy": 0.04584,
				"method": "rhf"
			},
			{
				"type": "unocc",
				"energy": 0.08401,
				"method": "rhf"
			}
		],
		"cosmo_sigma_profile": { 
			"-0.025": 0.0,
			"-0.024": 0.0,
			"-0.023": 0.0,
			"-0.022": 0.0,
			"-0.021": 0.0,
			"-0.02": 0.0539528751997,
			"-0.019": 0.638372210336,
			"-0.018": 1.32708733173,
			"-0.017": 0.929753328555,
			"-0.016": 1.08457584527,
			"-0.015": 1.84456746572,
			"-0.014": 1.65735239444,
			"-0.013": 2.42991672351,
			"-0.012": 2.62427733582,
			"-0.011": 1.51741326883,
			"-0.01": 2.22518100486,
			"-0.009": 1.98431147152,
			"-0.008": 3.03283890382,
			"-0.007": 7.26699610742,
			"-0.006": 8.09223557071,
			"-0.005": 8.05787592071,
			"-0.004": 9.22562701004,
			"-0.003": 10.3690935157,
			"-0.002": 11.117163459,
			"-0.001": 12.9121254087,
			"0.0": 15.0666688943,
			"0.001": 25.231888072,
			"0.002": 48.9766423156,
			"0.003": 22.6413603432,
			"0.004": 9.28276081257,
			"0.005": 3.45929449823,
			"0.006": 4.30572813127,
			"0.007": 3.60037056686,
			"0.008": 2.96259688843,
			"0.009": 2.9981947991,
			"0.01": 5.37621531449,
			"0.011": 4.46703751747,
			"0.012": 3.11479861989,
			"0.013": 1.24069710782,
			"0.014": 0.00651289283477,
			"0.015": 0.0,
			"0.016": 0.0,
			"0.017": 0.0,
			"0.018": 0.0,
			"0.019": 0.0,
			"0.02": 0.0,
			"0.021": 0.0,
			"0.022": 0.0,
			"0.023": 0.0,
			"0.024": 0.0,
			"0.025": 0.0
		}
	}
}
