{
	 "smiles": "NC1=CC(=C(F)C=C1)S(=O)(=O)N1CCOCC1", 
	 "Tm": 402.15, 
	 "num_atms": 30, 
	 "gaussian": { 
		 "optdone": 1, 
		 "sigma_profile": "yes", 
		 "theory": "DFT", 
		 "functional": "B3LYP", 
		 "basiset": "6-31G**", 
		 "properties": { 
			 "R2extent": 5366.1806, 
			 "electric_dipole_moment_norm": 5.76484901884, 
			 "electric_quadrupole_moment_norm": 25.7344383955, 
			 "total_energy": -1221.99607926, 
			 "HOMO_LUMO_gap": 0.18108, 
			 "cosmo_polarized_energy": -18.79, 
			 "cosmo_cavitation_energy": 33.87, 
			 "cosmo_dispersion_energy": -24.87, 
			 "cosmo_repulsion_energy": 1.87, 
			 "cosmo_total_nonelectrostatic_energy": 10.87, 
			 "SMD_solvation_energy": 4.73 
		},
		"coords": [
			{
				"x": 0.9720194125,
				"y": 0.8053914472,
				"z": 5.0947026872,
				"element": "N" 
			},
			{
				"x": 1.1418933861,
				"y": 0.8525737903,
				"z": 3.7119942589,
				"element": "C" 
			},
			{
				"x": 1.1860982073,
				"y": -0.3313137688,
				"z": 2.9560729643,
				"element": "C" 
			},
			{
				"x": 1.4180161413,
				"y": -0.2867534398,
				"z": 1.5825055239,
				"element": "C" 
			},
			{
				"x": 1.6076378673,
				"y": 0.9406568902,
				"z": 0.9483397615,
				"element": "C" 
			},
			{
				"x": 1.820218644,
				"y": 0.9895742833,
				"z": -0.3853982373,
				"element": "F" 
			},
			{
				"x": 1.561678666,
				"y": 2.1214379817,
				"z": 1.6747343588,
				"element": "C" 
			},
			{
				"x": 1.3327614159,
				"y": 2.0776010947,
				"z": 3.0485420475,
				"element": "C" 
			},
			{
				"x": 1.5069370031,
				"y": -1.8320028248,
				"z": 0.6637769863,
				"element": "S" 
			},
			{
				"x": 2.8189203228,
				"y": -1.90115229,
				"z": 0.0175755169,
				"element": "O" 
			},
			{
				"x": 1.0540652704,
				"y": -2.8765041768,
				"z": 1.58926708,
				"element": "O" 
			},
			{
				"x": 0.3562425051,
				"y": -1.676255977,
				"z": -0.5287107075,
				"element": "N" 
			},
			{
				"x": -1.0082826513,
				"y": -2.1642759721,
				"z": -0.2622234683,
				"element": "C" 
			},
			{
				"x": -1.8844409973,
				"y": -1.7940833206,
				"z": -1.4566779645,
				"element": "C" 
			},
			{
				"x": -1.4352039756,
				"y": -2.3692714946,
				"z": -2.6756361861,
				"element": "O" 
			},
			{
				"x": -0.0142927662,
				"y": -2.4517710503,
				"z": -2.8162380416,
				"element": "C" 
			},
			{
				"x": 0.7332324126,
				"y": -1.4568446809,
				"z": -1.9347103238,
				"element": "C" 
			},
			{
				"x": 0.5377480253,
				"y": -0.0339720401,
				"z": 5.4517407389,
				"element": "H" 
			},
			{
				"x": 0.5936203165,
				"y": 1.6412716563,
				"z": 5.5173816812,
				"element": "H" 
			},
			{
				"x": 1.0460467981,
				"y": -1.2997578451,
				"z": 3.4249108331,
				"element": "H" 
			},
			{
				"x": 1.7065632629,
				"y": 3.064647516,
				"z": 1.1589667485,
				"element": "H" 
			},
			{
				"x": 1.3063212772,
				"y": 3.004504208,
				"z": 3.6149120742,
				"element": "H" 
			},
			{
				"x": -1.0171512258,
				"y": -3.2490488744,
				"z": -0.1053715831,
				"element": "H" 
			},
			{
				"x": -1.4076662182,
				"y": -1.6914273018,
				"z": 0.6420584244,
				"element": "H" 
			},
			{
				"x": -2.9001370679,
				"y": -2.1667595032,
				"z": -1.2910601124,
				"element": "H" 
			},
			{
				"x": -1.9401211772,
				"y": -0.6972229719,
				"z": -1.5409444429,
				"element": "H" 
			},
			{
				"x": 0.2171817457,
				"y": -2.259140449,
				"z": -3.8699637187,
				"element": "H" 
			},
			{
				"x": 0.3204709974,
				"y": -3.4715622949,
				"z": -2.5763659243,
				"element": "H" 
			},
			{
				"x": 1.8095606826,
				"y": -1.6023990559,
				"z": -2.0372251773,
				"element": "H" 
			},
			{
				"x": 0.5021617194,
				"y": -0.4265395357,
				"z": -2.2307557979,
				"element": "H" 
			}
		],
		 "valence_orbital": [ 
			{
				"type": "occ",
				"energy": -0.29938,
				"method": "rhf"
			},
			{
				"type": "occ",
				"energy": -0.27641,
				"method": "rhf"
			},
			{
				"type": "occ",
				"energy": -0.25528,
				"method": "rhf"
			},
			{
				"type": "occ",
				"energy": -0.24401,
				"method": "rhf"
			},
			{
				"type": "occ",
				"energy": -0.21616,
				"method": "rhf"
			},
			{
				"type": "unocc",
				"energy": -0.03508,
				"method": "rhf"
			},
			{
				"type": "unocc",
				"energy": -0.00146,
				"method": "rhf"
			},
			{
				"type": "unocc",
				"energy": 0.0516,
				"method": "rhf"
			},
			{
				"type": "unocc",
				"energy": 0.06707,
				"method": "rhf"
			},
			{
				"type": "unocc",
				"energy": 0.07872,
				"method": "rhf"
			}
		],
		"cosmo_sigma_profile": { 
			"-0.025": 0.0,
			"-0.024": 0.0,
			"-0.023": 0.0,
			"-0.022": 0.0,
			"-0.021": 0.0,
			"-0.02": 0.0,
			"-0.019": 0.0,
			"-0.018": 0.0,
			"-0.017": 0.0,
			"-0.016": 0.0,
			"-0.015": 0.0,
			"-0.014": 0.0,
			"-0.013": 1.97545780538,
			"-0.012": 2.9586253934,
			"-0.011": 3.30211468895,
			"-0.01": 4.14454267732,
			"-0.009": 2.61305112387,
			"-0.008": 4.12195118566,
			"-0.007": 6.25769304697,
			"-0.006": 14.0189730792,
			"-0.005": 22.6858128293,
			"-0.004": 27.3433039006,
			"-0.003": 19.4991308994,
			"-0.002": 12.8659996348,
			"-0.001": 13.0956432304,
			"0.0": 12.8672840897,
			"0.001": 17.6725981792,
			"0.002": 18.1269882748,
			"0.003": 17.4151857289,
			"0.004": 11.8711380966,
			"0.005": 5.80668272126,
			"0.006": 5.95072711168,
			"0.007": 5.95564883336,
			"0.008": 5.42791122581,
			"0.009": 5.28792667854,
			"0.01": 9.88594720745,
			"0.011": 9.09789050191,
			"0.012": 4.57186893876,
			"0.013": 2.41739861508,
			"0.014": 0.351006598711,
			"0.015": 0.0,
			"0.016": 0.0,
			"0.017": 0.0,
			"0.018": 0.0,
			"0.019": 0.0,
			"0.02": 0.0,
			"0.021": 0.0,
			"0.022": 0.0,
			"0.023": 0.0,
			"0.024": 0.0,
			"0.025": 0.0
		}
	}
}
