{
	 "smiles": "NC1=C(N)C(=NN1C1=CC=CC=C1)C1=CC=CC=C1", 
	 "Tm": 363.15, 
	 "num_atms": 33, 
	 "gaussian": { 
		 "optdone": 1, 
		 "sigma_profile": "yes", 
		 "theory": "DFT", 
		 "functional": "B3LYP", 
		 "basiset": "6-31G**", 
		 "properties": { 
			 "R2extent": 6611.3356, 
			 "electric_dipole_moment_norm": 2.26526274414, 
			 "electric_quadrupole_moment_norm": 12.0575270018, 
			 "total_energy": -799.025271705, 
			 "HOMO_LUMO_gap": 0.17345, 
			 "cosmo_polarized_energy": -14.37, 
			 "cosmo_cavitation_energy": 36.63, 
			 "cosmo_dispersion_energy": -26.76, 
			 "cosmo_repulsion_energy": 2.04, 
			 "cosmo_total_nonelectrostatic_energy": 11.91, 
			 "SMD_solvation_energy": 5.49 
		},
		"coords": [
			{
				"x": 2.6640002931,
				"y": 2.5261952979,
				"z": 0.3918383774,
				"element": "N" 
			},
			{
				"x": 1.42354343,
				"y": 1.9213706746,
				"z": 0.2277769988,
				"element": "C" 
			},
			{
				"x": 0.4716195412,
				"y": 2.212222315,
				"z": -0.7355547398,
				"element": "C" 
			},
			{
				"x": 0.728950236,
				"y": 3.1663657783,
				"z": -1.762347331,
				"element": "N" 
			},
			{
				"x": -0.6149174267,
				"y": 1.3251274074,
				"z": -0.4597724828,
				"element": "C" 
			},
			{
				"x": -0.3398914296,
				"y": 0.5521225879,
				"z": 0.5917271732,
				"element": "N" 
			},
			{
				"x": 0.9014443754,
				"y": 0.9388776949,
				"z": 1.0258342006,
				"element": "N" 
			},
			{
				"x": 1.4841739219,
				"y": 0.2858199744,
				"z": 2.1415751058,
				"element": "C" 
			},
			{
				"x": 1.1392924196,
				"y": -1.0465947487,
				"z": 2.4045210342,
				"element": "C" 
			},
			{
				"x": 1.6959749734,
				"y": -1.6981608271,
				"z": 3.5018958365,
				"element": "C" 
			},
			{
				"x": 2.6019980187,
				"y": -1.0391245598,
				"z": 4.3372874242,
				"element": "C" 
			},
			{
				"x": 2.9356342288,
				"y": 0.289456179,
				"z": 4.0735288974,
				"element": "C" 
			},
			{
				"x": 2.3760819939,
				"y": 0.9613797859,
				"z": 2.9856734263,
				"element": "C" 
			},
			{
				"x": -1.8938644793,
				"y": 1.1549045571,
				"z": -1.1723974826,
				"element": "C" 
			},
			{
				"x": -2.6463864147,
				"y": -0.0197532735,
				"z": -0.9891775837,
				"element": "C" 
			},
			{
				"x": -3.8597516898,
				"y": -0.1981638777,
				"z": -1.6466920194,
				"element": "C" 
			},
			{
				"x": -4.3505339769,
				"y": 0.7889866294,
				"z": -2.5065798809,
				"element": "C" 
			},
			{
				"x": -3.6160958565,
				"y": 1.9597439235,
				"z": -2.6945334498,
				"element": "C" 
			},
			{
				"x": -2.4011312758,
				"y": 2.1427824414,
				"z": -2.0331032977,
				"element": "C" 
			},
			{
				"x": 3.4153566673,
				"y": 1.8780242813,
				"z": 0.6034171346,
				"element": "H" 
			},
			{
				"x": 2.8675846723,
				"y": 3.0670220628,
				"z": -0.4452099113,
				"element": "H" 
			},
			{
				"x": 0.4701961538,
				"y": 2.8149240829,
				"z": -2.6794919938,
				"element": "H" 
			},
			{
				"x": 0.2294780163,
				"y": 4.040329388,
				"z": -1.6168397467,
				"element": "H" 
			},
			{
				"x": 0.433529608,
				"y": -1.5423605172,
				"z": 1.7495421565,
				"element": "H" 
			},
			{
				"x": 1.4240654246,
				"y": -2.7307701044,
				"z": 3.7012238862,
				"element": "H" 
			},
			{
				"x": 3.037698086,
				"y": -1.5547161728,
				"z": 5.187748551,
				"element": "H" 
			},
			{
				"x": 3.6249988939,
				"y": 0.8185073401,
				"z": 4.7253397036,
				"element": "H" 
			},
			{
				"x": 2.6098972041,
				"y": 2.0040802248,
				"z": 2.8043464337,
				"element": "H" 
			},
			{
				"x": -2.2612270135,
				"y": -0.7831890424,
				"z": -0.322254864,
				"element": "H" 
			},
			{
				"x": -4.4248836201,
				"y": -1.1131829108,
				"z": -1.4915420193,
				"element": "H" 
			},
			{
				"x": -5.2959157282,
				"y": 0.6464388964,
				"z": -3.0221684733,
				"element": "H" 
			},
			{
				"x": -3.9908449697,
				"y": 2.7385654905,
				"z": -3.3530810972,
				"element": "H" 
			},
			{
				"x": -1.8517742775,
				"y": 3.0664690208,
				"z": -2.1760299665,
				"element": "H" 
			}
		],
		 "valence_orbital": [ 
			{
				"type": "occ",
				"energy": -0.25093,
				"method": "rhf"
			},
			{
				"type": "occ",
				"energy": -0.24721,
				"method": "rhf"
			},
			{
				"type": "occ",
				"energy": -0.2438,
				"method": "rhf"
			},
			{
				"type": "occ",
				"energy": -0.2063,
				"method": "rhf"
			},
			{
				"type": "occ",
				"energy": -0.19861,
				"method": "rhf"
			},
			{
				"type": "unocc",
				"energy": -0.02516,
				"method": "rhf"
			},
			{
				"type": "unocc",
				"energy": -0.0045,
				"method": "rhf"
			},
			{
				"type": "unocc",
				"energy": 0.00304,
				"method": "rhf"
			},
			{
				"type": "unocc",
				"energy": 0.00537,
				"method": "rhf"
			},
			{
				"type": "unocc",
				"energy": 0.05866,
				"method": "rhf"
			}
		],
		"cosmo_sigma_profile": { 
			"-0.025": 0.0,
			"-0.024": 0.0,
			"-0.023": 0.0,
			"-0.022": 0.0,
			"-0.021": 0.0,
			"-0.02": 0.0,
			"-0.019": 0.0,
			"-0.018": 0.0,
			"-0.017": 0.0,
			"-0.016": 0.0,
			"-0.015": 0.0,
			"-0.014": 0.0,
			"-0.013": 0.351279538123,
			"-0.012": 0.95132463399,
			"-0.011": 3.25143042101,
			"-0.01": 5.18850770906,
			"-0.009": 5.51543125096,
			"-0.008": 5.52214051814,
			"-0.007": 4.90879931567,
			"-0.006": 12.2047281686,
			"-0.005": 20.7808618509,
			"-0.004": 21.8667933848,
			"-0.003": 21.8028188312,
			"-0.002": 16.1669262025,
			"-0.001": 15.56026368,
			"0.0": 14.8915356081,
			"0.001": 17.4618348203,
			"0.002": 19.5249299948,
			"0.003": 22.5364083461,
			"0.004": 27.1923775434,
			"0.005": 24.9618005203,
			"0.006": 14.614650546,
			"0.007": 4.44557621033,
			"0.008": 3.15870899723,
			"0.009": 2.97554322702,
			"0.01": 1.60858088494,
			"0.011": 1.27239822066,
			"0.012": 2.56920720043,
			"0.013": 1.20535112069,
			"0.014": 0.39696929337,
			"0.015": 0.0245419233479,
			"0.016": 0.0,
			"0.017": 0.0,
			"0.018": 0.0,
			"0.019": 0.0,
			"0.02": 0.0,
			"0.021": 0.0,
			"0.022": 0.0,
			"0.023": 0.0,
			"0.024": 0.0,
			"0.025": 0.0
		}
	}
}
