{
	 "smiles": "C1=CC=C(C=C1)C1=C(N=C2C=CC=CC2=N1)C1=CC2=CC=CC=C2C=C1", 
	 "Tm": 395.15, 
	 "num_atms": 42, 
	 "gaussian": { 
		 "optdone": 1, 
		 "sigma_profile": "yes", 
		 "theory": "DFT", 
		 "functional": "B3LYP", 
		 "basiset": "6-31G**", 
		 "properties": { 
			 "R2extent": 10294.1548, 
			 "electric_dipole_moment_norm": 0.481040476467, 
			 "electric_quadrupole_moment_norm": 15.1891508848, 
			 "total_energy": -1033.72461729, 
			 "HOMO_LUMO_gap": 0.13941, 
			 "cosmo_polarized_energy": -10.62, 
			 "cosmo_cavitation_energy": 45.98, 
			 "cosmo_dispersion_energy": -32.22, 
			 "cosmo_repulsion_energy": 2.4, 
			 "cosmo_total_nonelectrostatic_energy": 16.16, 
			 "SMD_solvation_energy": 4.59 
		},
		"coords": [
			{
				"x": 2.0720929164,
				"y": -3.3361848068,
				"z": 0.5965255677,
				"element": "C" 
			},
			{
				"x": 0.9220639818,
				"y": -3.0835247085,
				"z": -0.1543993397,
				"element": "C" 
			},
			{
				"x": 0.0551366299,
				"y": -2.0554883403,
				"z": 0.2126813493,
				"element": "C" 
			},
			{
				"x": 0.3218328106,
				"y": -1.2688247451,
				"z": 1.344785147,
				"element": "C" 
			},
			{
				"x": 1.4689450507,
				"y": -1.5451716667,
				"z": 2.1054685226,
				"element": "C" 
			},
			{
				"x": 2.3422198434,
				"y": -2.5637849433,
				"z": 1.7282762708,
				"element": "C" 
			},
			{
				"x": -0.6239170041,
				"y": -0.2146669764,
				"z": 1.8105514849,
				"element": "C" 
			},
			{
				"x": -1.3207425232,
				"y": 0.7040977536,
				"z": 0.9267892458,
				"element": "C" 
			},
			{
				"x": -2.2937339364,
				"y": 1.4725916781,
				"z": 1.3881586521,
				"element": "N" 
			},
			{
				"x": -2.567481288,
				"y": 1.4551855902,
				"z": 2.7189469098,
				"element": "C" 
			},
			{
				"x": -3.6056352327,
				"y": 2.2682540608,
				"z": 3.24153893,
				"element": "C" 
			},
			{
				"x": -3.8347227182,
				"y": 2.2955783484,
				"z": 4.5997958255,
				"element": "C" 
			},
			{
				"x": -3.042131204,
				"y": 1.5181170298,
				"z": 5.4835754505,
				"element": "C" 
			},
			{
				"x": -2.0356151023,
				"y": 0.7112377075,
				"z": 4.9996649635,
				"element": "C" 
			},
			{
				"x": -1.7863267759,
				"y": 0.6568594786,
				"z": 3.6045981889,
				"element": "C" 
			},
			{
				"x": -0.8396309186,
				"y": -0.1867920935,
				"z": 3.11489399,
				"element": "N" 
			},
			{
				"x": -0.9869480985,
				"y": 0.9005016289,
				"z": -0.5112377283,
				"element": "C" 
			},
			{
				"x": 0.3191928459,
				"y": 0.9179850566,
				"z": -0.9687862457,
				"element": "C" 
			},
			{
				"x": 0.6231601432,
				"y": 1.1827611439,
				"z": -2.328907839,
				"element": "C" 
			},
			{
				"x": 1.9609888852,
				"y": 1.2069609776,
				"z": -2.810019364,
				"element": "C" 
			},
			{
				"x": 2.2279510653,
				"y": 1.4601688503,
				"z": -4.1365975753,
				"element": "C" 
			},
			{
				"x": 1.1679793532,
				"y": 1.7024232768,
				"z": -5.0452359563,
				"element": "C" 
			},
			{
				"x": -0.1386952758,
				"y": 1.6881179809,
				"z": -4.6096277846,
				"element": "C" 
			},
			{
				"x": -0.4475705395,
				"y": 1.4318125657,
				"z": -3.2476744678,
				"element": "C" 
			},
			{
				"x": -1.780789099,
				"y": 1.4182838816,
				"z": -2.7539876062,
				"element": "C" 
			},
			{
				"x": -2.043491973,
				"y": 1.1722850506,
				"z": -1.4288193251,
				"element": "C" 
			},
			{
				"x": 2.7500953469,
				"y": -4.1330114983,
				"z": 0.3043574116,
				"element": "H" 
			},
			{
				"x": 0.69682728,
				"y": -3.6893805314,
				"z": -1.027283404,
				"element": "H" 
			},
			{
				"x": -0.8375497241,
				"y": -1.8704413099,
				"z": -0.3752740949,
				"element": "H" 
			},
			{
				"x": 1.6595185603,
				"y": -0.9555102796,
				"z": 2.9959066507,
				"element": "H" 
			},
			{
				"x": 3.2316185371,
				"y": -2.7579363126,
				"z": 2.3210746923,
				"element": "H" 
			},
			{
				"x": -4.1885180558,
				"y": 2.8635971392,
				"z": 2.54607324,
				"element": "H" 
			},
			{
				"x": -4.6255145793,
				"y": 2.9207380714,
				"z": 5.0040102944,
				"element": "H" 
			},
			{
				"x": -3.238676269,
				"y": 1.5591336841,
				"z": 6.5509269909,
				"element": "H" 
			},
			{
				"x": -1.4246969781,
				"y": 0.096395375,
				"z": 5.6528148521,
				"element": "H" 
			},
			{
				"x": 1.1413540277,
				"y": 0.7364916408,
				"z": -0.2838809638,
				"element": "H" 
			},
			{
				"x": 2.7713328876,
				"y": 1.0182773905,
				"z": -2.1105725296,
				"element": "H" 
			},
			{
				"x": 3.2540001491,
				"y": 1.4744992394,
				"z": -4.4926145734,
				"element": "H" 
			},
			{
				"x": 1.3914226424,
				"y": 1.9011796694,
				"z": -6.0894929687,
				"element": "H" 
			},
			{
				"x": -0.9533055428,
				"y": 1.8755500969,
				"z": -5.3046377748,
				"element": "H" 
			},
			{
				"x": -2.597068159,
				"y": 1.6125256473,
				"z": -3.4451956211,
				"element": "H" 
			},
			{
				"x": -3.060371959,
				"y": 1.1857081989,
				"z": -1.0525694686,
				"element": "H" 
			}
		],
		 "valence_orbital": [ 
			{
				"type": "occ",
				"energy": -0.25096,
				"method": "rhf"
			},
			{
				"type": "occ",
				"energy": -0.24279,
				"method": "rhf"
			},
			{
				"type": "occ",
				"energy": -0.23344,
				"method": "rhf"
			},
			{
				"type": "occ",
				"energy": -0.22963,
				"method": "rhf"
			},
			{
				"type": "occ",
				"energy": -0.21022,
				"method": "rhf"
			},
			{
				"type": "unocc",
				"energy": -0.07081,
				"method": "rhf"
			},
			{
				"type": "unocc",
				"energy": -0.04997,
				"method": "rhf"
			},
			{
				"type": "unocc",
				"energy": -0.02899,
				"method": "rhf"
			},
			{
				"type": "unocc",
				"energy": -0.00458,
				"method": "rhf"
			},
			{
				"type": "unocc",
				"energy": 0.00237,
				"method": "rhf"
			}
		],
		"cosmo_sigma_profile": { 
			"-0.025": 0.0,
			"-0.024": 0.0,
			"-0.023": 0.0,
			"-0.022": 0.0,
			"-0.021": 0.0,
			"-0.02": 0.0,
			"-0.019": 0.0,
			"-0.018": 0.0,
			"-0.017": 0.0,
			"-0.016": 0.0,
			"-0.015": 0.0,
			"-0.014": 0.0,
			"-0.013": 0.0,
			"-0.012": 0.0,
			"-0.011": 0.0,
			"-0.01": 0.0,
			"-0.009": 0.0,
			"-0.008": 0.0,
			"-0.007": 2.52041479087,
			"-0.006": 23.6866970882,
			"-0.005": 32.2415420725,
			"-0.004": 33.4632489522,
			"-0.003": 27.8200388926,
			"-0.002": 26.3920522919,
			"-0.001": 25.3050044224,
			"0.0": 25.1417072403,
			"0.001": 24.9461330973,
			"0.002": 32.2936509129,
			"0.003": 39.3949786724,
			"0.004": 37.2169888124,
			"0.005": 22.3187152499,
			"0.006": 5.66315975004,
			"0.007": 3.2303914371,
			"0.008": 1.75688306398,
			"0.009": 2.34327795651,
			"0.01": 1.62958125112,
			"0.011": 1.35276818543,
			"0.012": 1.27961039262,
			"0.013": 0.768586825051,
			"0.014": 0.112056395461,
			"0.015": 0.0,
			"0.016": 0.0,
			"0.017": 0.0,
			"0.018": 0.0,
			"0.019": 0.0,
			"0.02": 0.0,
			"0.021": 0.0,
			"0.022": 0.0,
			"0.023": 0.0,
			"0.024": 0.0,
			"0.025": 0.0
		}
	}
}
