{
	 "smiles": "NC1=C(SC2=CC=CC=C2)C=CC(Cl)=C1", 
	 "Tm": 336.15, 
	 "num_atms": 25, 
	 "gaussian": { 
		 "optdone": 1, 
		 "sigma_profile": "yes", 
		 "theory": "DFT", 
		 "functional": "B3LYP", 
		 "basiset": "6-31G**", 
		 "properties": { 
			 "R2extent": 5478.9087, 
			 "electric_dipole_moment_norm": 2.82609973108, 
			 "electric_quadrupole_moment_norm": 7.2021679375, 
			 "total_energy": -1376.43967204, 
			 "HOMO_LUMO_gap": 0.18713, 
			 "cosmo_polarized_energy": -9.27, 
			 "cosmo_cavitation_energy": 32.33, 
			 "cosmo_dispersion_energy": -23.66, 
			 "cosmo_repulsion_energy": 1.82, 
			 "cosmo_total_nonelectrostatic_energy": 10.49, 
			 "SMD_solvation_energy": 4.62 
		},
		"coords": [
			{
				"x": 0.6646856757,
				"y": -2.8046985313,
				"z": 0.3421723198,
				"element": "N" 
			},
			{
				"x": 0.4890334409,
				"y": -2.3446696471,
				"z": -0.9428302157,
				"element": "C" 
			},
			{
				"x": -0.6397601907,
				"y": -1.5633045469,
				"z": -1.3070256515,
				"element": "C" 
			},
			{
				"x": -1.9016285706,
				"y": -1.1579422679,
				"z": -0.1089084088,
				"element": "S" 
			},
			{
				"x": -1.167950826,
				"y": 0.1686100534,
				"z": 0.8648203537,
				"element": "C" 
			},
			{
				"x": -0.0925683506,
				"y": 0.9472816797,
				"z": 0.4220106081,
				"element": "C" 
			},
			{
				"x": 0.396870426,
				"y": 1.9767456204,
				"z": 1.2280642307,
				"element": "C" 
			},
			{
				"x": -0.1844868171,
				"y": 2.2474675627,
				"z": 2.4677561691,
				"element": "C" 
			},
			{
				"x": -1.2624115507,
				"y": 1.4739120699,
				"z": 2.9038341768,
				"element": "C" 
			},
			{
				"x": -1.7499298955,
				"y": 0.4339754586,
				"z": 2.1130568353,
				"element": "C" 
			},
			{
				"x": -0.8089950231,
				"y": -1.1676619327,
				"z": -2.6386700999,
				"element": "C" 
			},
			{
				"x": 0.1068612203,
				"y": -1.5110996962,
				"z": -3.6302547534,
				"element": "C" 
			},
			{
				"x": 1.2179536466,
				"y": -2.2667859323,
				"z": -3.2537050185,
				"element": "C" 
			},
			{
				"x": 2.4051478874,
				"y": -2.712062916,
				"z": -4.4728114144,
				"element": "Cl" 
			},
			{
				"x": 1.4213086835,
				"y": -2.6813989735,
				"z": -1.9443949954,
				"element": "C" 
			},
			{
				"x": 1.59322061,
				"y": -3.0870217178,
				"z": 0.6142144233,
				"element": "H" 
			},
			{
				"x": 0.1135938055,
				"y": -2.3707238098,
				"z": 1.0671988284,
				"element": "H" 
			},
			{
				"x": 0.3575602107,
				"y": 0.7507199843,
				"z": -0.5452876456,
				"element": "H" 
			},
			{
				"x": 1.2341597969,
				"y": 2.5738522971,
				"z": 0.8773517156,
				"element": "H" 
			},
			{
				"x": 0.1982888397,
				"y": 3.0521351638,
				"z": 3.0882059311,
				"element": "H" 
			},
			{
				"x": -1.7221820254,
				"y": 1.6723741915,
				"z": 3.8679384329,
				"element": "H" 
			},
			{
				"x": -2.5800935145,
				"y": -0.173255694,
				"z": 2.463591644,
				"element": "H" 
			},
			{
				"x": -1.6811925843,
				"y": -0.5745843755,
				"z": -2.8947257176,
				"element": "H" 
			},
			{
				"x": -0.0311758064,
				"y": -1.2004134256,
				"z": -4.6585546644,
				"element": "H" 
			},
			{
				"x": 2.2914909118,
				"y": -3.2789506148,
				"z": -1.6934470835,
				"element": "H" 
			}
		],
		 "valence_orbital": [ 
			{
				"type": "occ",
				"energy": -0.29076,
				"method": "rhf"
			},
			{
				"type": "occ",
				"energy": -0.25703,
				"method": "rhf"
			},
			{
				"type": "occ",
				"energy": -0.25173,
				"method": "rhf"
			},
			{
				"type": "occ",
				"energy": -0.22136,
				"method": "rhf"
			},
			{
				"type": "occ",
				"energy": -0.21276,
				"method": "rhf"
			},
			{
				"type": "unocc",
				"energy": -0.02563,
				"method": "rhf"
			},
			{
				"type": "unocc",
				"energy": -0.00972,
				"method": "rhf"
			},
			{
				"type": "unocc",
				"energy": -0.00756,
				"method": "rhf"
			},
			{
				"type": "unocc",
				"energy": 0.00021,
				"method": "rhf"
			},
			{
				"type": "unocc",
				"energy": 0.02777,
				"method": "rhf"
			}
		],
		"cosmo_sigma_profile": { 
			"-0.025": 0.0,
			"-0.024": 0.0,
			"-0.023": 0.0,
			"-0.022": 0.0,
			"-0.021": 0.0,
			"-0.02": 0.0,
			"-0.019": 0.0,
			"-0.018": 0.0,
			"-0.017": 0.0,
			"-0.016": 0.0,
			"-0.015": 0.0,
			"-0.014": 0.463582572134,
			"-0.013": 1.44099036854,
			"-0.012": 1.66886241066,
			"-0.011": 2.05076917368,
			"-0.01": 2.58877769255,
			"-0.009": 2.74453382992,
			"-0.008": 2.27902598107,
			"-0.007": 4.29414981388,
			"-0.006": 12.5139740871,
			"-0.005": 15.4013711492,
			"-0.004": 17.3535418746,
			"-0.003": 13.9544851918,
			"-0.002": 14.8798452221,
			"-0.001": 15.4431672529,
			"0.0": 20.5322008116,
			"0.001": 19.6666582845,
			"0.002": 23.2067943889,
			"0.003": 28.7684272674,
			"0.004": 28.352849346,
			"0.005": 22.1516694388,
			"0.006": 7.17195222258,
			"0.007": 3.22382331812,
			"0.008": 0.95280271506,
			"0.009": 0.330658331898,
			"0.01": 1.23960985261,
			"0.011": 0.381124007264,
			"0.012": 0.15442356919,
			"0.013": 0.0,
			"0.014": 0.0,
			"0.015": 0.0,
			"0.016": 0.0,
			"0.017": 0.0,
			"0.018": 0.0,
			"0.019": 0.0,
			"0.02": 0.0,
			"0.021": 0.0,
			"0.022": 0.0,
			"0.023": 0.0,
			"0.024": 0.0,
			"0.025": 0.0
		}
	}
}
