{
	 "smiles": "CC1=CC(NC(=O)C2=NC=C(N=C2)C(C)(C)C)=CC=C1", 
	 "Tm": 368.15, 
	 "num_atms": 39, 
	 "gaussian": { 
		 "optdone": 1, 
		 "sigma_profile": "yes", 
		 "theory": "DFT", 
		 "functional": "B3LYP", 
		 "basiset": "6-31G**", 
		 "properties": { 
			 "R2extent": 10252.2004, 
			 "electric_dipole_moment_norm": 3.9160386183, 
			 "electric_quadrupole_moment_norm": 9.61259177433, 
			 "total_energy": -860.671942162, 
			 "HOMO_LUMO_gap": 0.14436, 
			 "cosmo_polarized_energy": -11.27, 
			 "cosmo_cavitation_energy": 41.89, 
			 "cosmo_dispersion_energy": -30.03, 
			 "cosmo_repulsion_energy": 2.28, 
			 "cosmo_total_nonelectrostatic_energy": 14.14, 
			 "SMD_solvation_energy": 6.02 
		},
		"coords": [
			{
				"x": -5.8814540429,
				"y": -3.8208340544,
				"z": 2.3964042503,
				"element": "C" 
			},
			{
				"x": -5.2153662875,
				"y": -2.496302068,
				"z": 2.6891935375,
				"element": "C" 
			},
			{
				"x": -4.0957160737,
				"y": -2.0849723204,
				"z": 1.9653867985,
				"element": "C" 
			},
			{
				"x": -3.4523635312,
				"y": -0.8668411792,
				"z": 2.2413383283,
				"element": "C" 
			},
			{
				"x": -2.3316354608,
				"y": -0.54134737,
				"z": 1.4549364354,
				"element": "N" 
			},
			{
				"x": -1.5326085356,
				"y": 0.5647412973,
				"z": 1.5099634448,
				"element": "C" 
			},
			{
				"x": -1.6516480338,
				"y": 1.5115561939,
				"z": 2.2832182468,
				"element": "O" 
			},
			{
				"x": -0.4232214124,
				"y": 0.5375368786,
				"z": 0.4888620556,
				"element": "C" 
			},
			{
				"x": -0.3236952713,
				"y": -0.5095754169,
				"z": -0.3383547008,
				"element": "N" 
			},
			{
				"x": 0.6734029256,
				"y": -0.4942482257,
				"z": -1.2273559172,
				"element": "C" 
			},
			{
				"x": 1.5919335534,
				"y": 0.5657620442,
				"z": -1.3092459041,
				"element": "C" 
			},
			{
				"x": 1.4788777075,
				"y": 1.6122287068,
				"z": -0.4705114187,
				"element": "N" 
			},
			{
				"x": 0.4852755136,
				"y": 1.5996258455,
				"z": 0.4167678376,
				"element": "C" 
			},
			{
				"x": 2.7484051285,
				"y": 0.6236279023,
				"z": -2.310920562,
				"element": "C" 
			},
			{
				"x": 2.5760147892,
				"y": 1.8924798064,
				"z": -3.1781982997,
				"element": "C" 
			},
			{
				"x": 4.0724750991,
				"y": 0.7228925745,
				"z": -1.5179019691,
				"element": "C" 
			},
			{
				"x": 2.7944428403,
				"y": -0.6141824434,
				"z": -3.2243508629,
				"element": "C" 
			},
			{
				"x": -3.9393156295,
				"y": -0.0388475723,
				"z": 3.2627828776,
				"element": "C" 
			},
			{
				"x": -5.0606723652,
				"y": -0.4518365637,
				"z": 3.9829374057,
				"element": "C" 
			},
			{
				"x": -5.6970286629,
				"y": -1.6604017468,
				"z": 3.7073013011,
				"element": "C" 
			},
			{
				"x": -5.5642541317,
				"y": -4.2266234076,
				"z": 1.4315159153,
				"element": "H" 
			},
			{
				"x": -5.6371529785,
				"y": -4.5655846806,
				"z": 3.1638324529,
				"element": "H" 
			},
			{
				"x": -6.9719041414,
				"y": -3.7228779505,
				"z": 2.3791998636,
				"element": "H" 
			},
			{
				"x": -3.7113668519,
				"y": -2.7198040208,
				"z": 1.1690990331,
				"element": "H" 
			},
			{
				"x": -2.0563739236,
				"y": -1.2057888629,
				"z": 0.7387551717,
				"element": "H" 
			},
			{
				"x": 0.73774842,
				"y": -1.3513553431,
				"z": -1.8893358516,
				"element": "H" 
			},
			{
				"x": 0.389570051,
				"y": 2.4416191171,
				"z": 1.0957871089,
				"element": "H" 
			},
			{
				"x": 1.6576040668,
				"y": 1.8432025833,
				"z": -3.7734170603,
				"element": "H" 
			},
			{
				"x": 3.4208732296,
				"y": 1.9940960792,
				"z": -3.8677114333,
				"element": "H" 
			},
			{
				"x": 2.5283597005,
				"y": 2.7848429277,
				"z": -2.5498276103,
				"element": "H" 
			},
			{
				"x": 4.0585643807,
				"y": 1.588889332,
				"z": -0.8520996945,
				"element": "H" 
			},
			{
				"x": 4.9169867627,
				"y": 0.8247484058,
				"z": -2.2077986662,
				"element": "H" 
			},
			{
				"x": 4.2380922725,
				"y": -0.1736326788,
				"z": -0.9104381442,
				"element": "H" 
			},
			{
				"x": 2.9375895573,
				"y": -1.5393510082,
				"z": -2.6555665477,
				"element": "H" 
			},
			{
				"x": 3.6352107077,
				"y": -0.5244483623,
				"z": -3.9191285835,
				"element": "H" 
			},
			{
				"x": 1.8837267068,
				"y": -0.7158852685,
				"z": -3.8245078319,
				"element": "H" 
			},
			{
				"x": -3.4452923988,
				"y": 0.8990482521,
				"z": 3.4728064044,
				"element": "H" 
			},
			{
				"x": -5.4426129424,
				"y": 0.1891904654,
				"z": 4.7727137955,
				"element": "H" 
			},
			{
				"x": -6.5708707381,
				"y": -1.9590478679,
				"z": 4.2805687934,
				"element": "H" 
			}
		],
		 "valence_orbital": [ 
			{
				"type": "occ",
				"energy": -0.27284,
				"method": "rhf"
			},
			{
				"type": "occ",
				"energy": -0.27182,
				"method": "rhf"
			},
			{
				"type": "occ",
				"energy": -0.24637,
				"method": "rhf"
			},
			{
				"type": "occ",
				"energy": -0.24036,
				"method": "rhf"
			},
			{
				"type": "occ",
				"energy": -0.21445,
				"method": "rhf"
			},
			{
				"type": "unocc",
				"energy": -0.07009,
				"method": "rhf"
			},
			{
				"type": "unocc",
				"energy": -0.04494,
				"method": "rhf"
			},
			{
				"type": "unocc",
				"energy": 0.00528,
				"method": "rhf"
			},
			{
				"type": "unocc",
				"energy": 0.00659,
				"method": "rhf"
			},
			{
				"type": "unocc",
				"energy": 0.05712,
				"method": "rhf"
			}
		],
		"cosmo_sigma_profile": { 
			"-0.025": 0.0,
			"-0.024": 0.0,
			"-0.023": 0.0,
			"-0.022": 0.0,
			"-0.021": 0.0,
			"-0.02": 0.0,
			"-0.019": 0.0,
			"-0.018": 0.0,
			"-0.017": 0.0,
			"-0.016": 0.0,
			"-0.015": 0.0,
			"-0.014": 0.0,
			"-0.013": 0.0,
			"-0.012": 0.355350946185,
			"-0.011": 1.19338028175,
			"-0.01": 0.911407927065,
			"-0.009": 1.23111192975,
			"-0.008": 1.21584394051,
			"-0.007": 3.28332435948,
			"-0.006": 6.25608174199,
			"-0.005": 11.6954255933,
			"-0.004": 21.1645204378,
			"-0.003": 41.1035937134,
			"-0.002": 41.9171002746,
			"-0.001": 37.9141893156,
			"0.0": 38.2494412686,
			"0.001": 34.0651429817,
			"0.002": 16.9633717143,
			"0.003": 15.6527192245,
			"0.004": 13.4699686118,
			"0.005": 14.4298574346,
			"0.006": 11.33269927,
			"0.007": 4.36468676174,
			"0.008": 1.75212260309,
			"0.009": 2.32674850644,
			"0.01": 3.16377908299,
			"0.011": 2.45022895965,
			"0.012": 3.43185794253,
			"0.013": 1.60049240953,
			"0.014": 0.0,
			"0.015": 0.0,
			"0.016": 0.0,
			"0.017": 0.0,
			"0.018": 0.0,
			"0.019": 0.0,
			"0.02": 0.0,
			"0.021": 0.0,
			"0.022": 0.0,
			"0.023": 0.0,
			"0.024": 0.0,
			"0.025": 0.0
		}
	}
}
