{
	 "smiles": "CNS(=O)(=O)C1=CSC(=C1)C(O)=O", 
	 "Tm": 444.15, 
	 "num_atms": 20, 
	 "gaussian": { 
		 "optdone": 1, 
		 "sigma_profile": "yes", 
		 "theory": "DFT", 
		 "functional": "B3LYP", 
		 "basiset": "6-31G**", 
		 "properties": { 
			 "R2extent": 4693.3655, 
			 "electric_dipole_moment_norm": 3.39188983901, 
			 "electric_quadrupole_moment_norm": 25.5374335921, 
			 "total_energy": -1384.79243053, 
			 "HOMO_LUMO_gap": 0.19328, 
			 "cosmo_polarized_energy": -25.02, 
			 "cosmo_cavitation_energy": 28.13, 
			 "cosmo_dispersion_energy": -21.16, 
			 "cosmo_repulsion_energy": 1.59, 
			 "cosmo_total_nonelectrostatic_energy": 8.56, 
			 "SMD_solvation_energy": 4.95 
		},
		"coords": [
			{
				"x": 0.6153601824,
				"y": 1.6401147167,
				"z": -1.1313889321,
				"element": "C" 
			},
			{
				"x": -0.1425119207,
				"y": 0.7717816244,
				"z": -2.0328452723,
				"element": "N" 
			},
			{
				"x": -0.141757341,
				"y": -0.8810269776,
				"z": -1.7814740081,
				"element": "S" 
			},
			{
				"x": 1.252686131,
				"y": -1.2744727436,
				"z": -1.592300427,
				"element": "O" 
			},
			{
				"x": -1.0057322559,
				"y": -1.4338755431,
				"z": -2.8240722143,
				"element": "O" 
			},
			{
				"x": -0.9733474017,
				"y": -1.1779162298,
				"z": -0.2261559096,
				"element": "C" 
			},
			{
				"x": -0.3203879108,
				"y": -1.2538174737,
				"z": 0.9804193569,
				"element": "C" 
			},
			{
				"x": -1.4162960381,
				"y": -1.5158078661,
				"z": 2.2807364659,
				"element": "S" 
			},
			{
				"x": -2.776910496,
				"y": -1.5440688395,
				"z": 1.1882124785,
				"element": "C" 
			},
			{
				"x": -2.3825954692,
				"y": -1.3429806769,
				"z": -0.1132587947,
				"element": "C" 
			},
			{
				"x": -4.1267175932,
				"y": -1.7399594554,
				"z": 1.7697516878,
				"element": "C" 
			},
			{
				"x": -5.1327031579,
				"y": -1.9924289923,
				"z": 0.8967270917,
				"element": "O" 
			},
			{
				"x": -4.3397931598,
				"y": -1.673977991,
				"z": 2.9578937205,
				"element": "O" 
			},
			{
				"x": 1.6399909711,
				"y": 1.2701391268,
				"z": -1.0737615358,
				"element": "H" 
			},
			{
				"x": 0.6357556854,
				"y": 2.6427283093,
				"z": -1.5644671481,
				"element": "H" 
			},
			{
				"x": 0.1923903164,
				"y": 1.6980932404,
				"z": -0.1187186046,
				"element": "H" 
			},
			{
				"x": -1.0654033908,
				"y": 1.0984240733,
				"z": -2.3007645945,
				"element": "H" 
			},
			{
				"x": 0.7467975419,
				"y": -1.1990818786,
				"z": 1.1454874069,
				"element": "H" 
			},
			{
				"x": -3.0418109632,
				"y": -1.3124370354,
				"z": -0.9738184919,
				"element": "H" 
			},
			{
				"x": -4.78891373,
				"y": -2.162629388,
				"z": 0.0085977246,
				"element": "H" 
			}
		],
		 "valence_orbital": [ 
			{
				"type": "occ",
				"energy": -0.31851,
				"method": "rhf"
			},
			{
				"type": "occ",
				"energy": -0.30582,
				"method": "rhf"
			},
			{
				"type": "occ",
				"energy": -0.2937,
				"method": "rhf"
			},
			{
				"type": "occ",
				"energy": -0.28849,
				"method": "rhf"
			},
			{
				"type": "occ",
				"energy": -0.27536,
				"method": "rhf"
			},
			{
				"type": "unocc",
				"energy": -0.08208,
				"method": "rhf"
			},
			{
				"type": "unocc",
				"energy": -0.02528,
				"method": "rhf"
			},
			{
				"type": "unocc",
				"energy": -0.00342,
				"method": "rhf"
			},
			{
				"type": "unocc",
				"energy": 0.03614,
				"method": "rhf"
			},
			{
				"type": "unocc",
				"energy": 0.0519,
				"method": "rhf"
			}
		],
		"cosmo_sigma_profile": { 
			"-0.025": 0.0,
			"-0.024": 0.0,
			"-0.023": 0.0,
			"-0.022": 0.0,
			"-0.021": 0.00440087307702,
			"-0.02": 0.584246903159,
			"-0.019": 1.04088014778,
			"-0.018": 1.0688858162,
			"-0.017": 0.991746279928,
			"-0.016": 0.95494809592,
			"-0.015": 2.17033752127,
			"-0.014": 2.83836614687,
			"-0.013": 2.57820952978,
			"-0.012": 2.35957333129,
			"-0.011": 3.51525781274,
			"-0.01": 3.88866778708,
			"-0.009": 4.22502935736,
			"-0.008": 5.30356646655,
			"-0.007": 5.51950464299,
			"-0.006": 7.3132973257,
			"-0.005": 9.65016037326,
			"-0.004": 13.9555284879,
			"-0.003": 17.6168084848,
			"-0.002": 13.6005160427,
			"-0.001": 15.3837640058,
			"0.0": 16.9622192915,
			"0.001": 11.2662242988,
			"0.002": 6.68041233702,
			"0.003": 4.63582997601,
			"0.004": 5.65997708909,
			"0.005": 6.57404130103,
			"0.006": 5.88127039976,
			"0.007": 7.63973491245,
			"0.008": 6.52545603584,
			"0.009": 8.6764196046,
			"0.01": 13.2612334477,
			"0.011": 13.933860659,
			"0.012": 4.215138797,
			"0.013": 0.357104935188,
			"0.014": 0.0,
			"0.015": 0.0,
			"0.016": 0.0,
			"0.017": 0.0,
			"0.018": 0.0,
			"0.019": 0.0,
			"0.02": 0.0,
			"0.021": 0.0,
			"0.022": 0.0,
			"0.023": 0.0,
			"0.024": 0.0,
			"0.025": 0.0
		}
	}
}
