{
	 "smiles": "COCCCNC1=C(N)N(CC2=CC=CC=C2)C(=O)NC1=O", 
	 "Tm": 422.15, 
	 "num_atms": 42, 
	 "gaussian": { 
		 "optdone": 1, 
		 "sigma_profile": "yes", 
		 "theory": "DFT", 
		 "functional": "B3LYP", 
		 "basiset": "6-31G**", 
		 "properties": { 
			 "R2extent": 9602.4995, 
			 "electric_dipole_moment_norm": 5.05500013254, 
			 "electric_quadrupole_moment_norm": 13.1894542851, 
			 "total_energy": -1028.35894723, 
			 "HOMO_LUMO_gap": 0.18721, 
			 "cosmo_polarized_energy": -18.43, 
			 "cosmo_cavitation_energy": 43.99, 
			 "cosmo_dispersion_energy": -31.15, 
			 "cosmo_repulsion_energy": 2.41, 
			 "cosmo_total_nonelectrostatic_energy": 15.25, 
			 "SMD_solvation_energy": 8.36 
		},
		"coords": [
			{
				"x": -3.5955157612,
				"y": -3.9833103252,
				"z": 1.0380285487,
				"element": "C" 
			},
			{
				"x": -3.2604007384,
				"y": -2.6125916122,
				"z": 1.0770279911,
				"element": "O" 
			},
			{
				"x": -3.3120039897,
				"y": -2.0631715167,
				"z": 2.3901251911,
				"element": "C" 
			},
			{
				"x": -2.9158526131,
				"y": -0.5918555927,
				"z": 2.3468927026,
				"element": "C" 
			},
			{
				"x": -1.4583522008,
				"y": -0.3389433475,
				"z": 1.931426865,
				"element": "C" 
			},
			{
				"x": -1.1454867961,
				"y": -0.6667639914,
				"z": 0.5243390511,
				"element": "N" 
			},
			{
				"x": -1.0094832901,
				"y": 0.4075619328,
				"z": -0.4014335466,
				"element": "C" 
			},
			{
				"x": 0.1694649607,
				"y": 0.4721643053,
				"z": -1.1222783826,
				"element": "C" 
			},
			{
				"x": 1.1226361213,
				"y": -0.5055864745,
				"z": -0.9828044142,
				"element": "N" 
			},
			{
				"x": 0.4185143605,
				"y": 1.4704711447,
				"z": -2.0555977346,
				"element": "N" 
			},
			{
				"x": 1.6115916608,
				"y": 1.4323904783,
				"z": -2.9211319327,
				"element": "C" 
			},
			{
				"x": 2.8866327841,
				"y": 1.9035664486,
				"z": -2.2447214022,
				"element": "C" 
			},
			{
				"x": 2.9600643476,
				"y": 3.1880623221,
				"z": -1.6855597652,
				"element": "C" 
			},
			{
				"x": 4.136355697,
				"y": 3.6252794687,
				"z": -1.0797870877,
				"element": "C" 
			},
			{
				"x": 5.2568524481,
				"y": 2.7900188904,
				"z": -1.027967682,
				"element": "C" 
			},
			{
				"x": 5.1960797222,
				"y": 1.5156923549,
				"z": -1.5900741291,
				"element": "C" 
			},
			{
				"x": 4.0148940901,
				"y": 1.0757903683,
				"z": -2.1951831521,
				"element": "C" 
			},
			{
				"x": -0.4930440623,
				"y": 2.5135507717,
				"z": -2.272042073,
				"element": "C" 
			},
			{
				"x": -0.2679519821,
				"y": 3.4321283586,
				"z": -3.0505936709,
				"element": "O" 
			},
			{
				"x": -1.6526457204,
				"y": 2.4115981296,
				"z": -1.5444973584,
				"element": "N" 
			},
			{
				"x": -2.0244469938,
				"y": 1.4123974887,
				"z": -0.6118676525,
				"element": "C" 
			},
			{
				"x": -3.1191249966,
				"y": 1.498593458,
				"z": -0.0611870235,
				"element": "O" 
			},
			{
				"x": -2.9009022068,
				"y": -4.5922748891,
				"z": 1.6382469162,
				"element": "H" 
			},
			{
				"x": -3.5391795788,
				"y": -4.3056865783,
				"z": -0.0044782443,
				"element": "H" 
			},
			{
				"x": -4.6167792394,
				"y": -4.1604315331,
				"z": 1.4096197032,
				"element": "H" 
			},
			{
				"x": -2.6350625583,
				"y": -2.6282706549,
				"z": 3.0558855555,
				"element": "H" 
			},
			{
				"x": -4.3316354626,
				"y": -2.1712421226,
				"z": 2.7959841571,
				"element": "H" 
			},
			{
				"x": -3.066273312,
				"y": -0.1857228909,
				"z": 3.3562468236,
				"element": "H" 
			},
			{
				"x": -3.5754406637,
				"y": -0.0454136385,
				"z": 1.6675170854,
				"element": "H" 
			},
			{
				"x": -1.2115499057,
				"y": 0.7137802194,
				"z": 2.099062318,
				"element": "H" 
			},
			{
				"x": -0.795145713,
				"y": -0.9260398211,
				"z": 2.5859610645,
				"element": "H" 
			},
			{
				"x": -1.7888853204,
				"y": -1.3843542919,
				"z": 0.1990279511,
				"element": "H" 
			},
			{
				"x": 2.0882232672,
				"y": -0.2016126987,
				"z": -0.9954163396,
				"element": "H" 
			},
			{
				"x": 0.8649902555,
				"y": -1.1043478834,
				"z": -0.2002126367,
				"element": "H" 
			},
			{
				"x": 1.7281915716,
				"y": 0.4088685453,
				"z": -3.2870648616,
				"element": "H" 
			},
			{
				"x": 1.373917535,
				"y": 2.0821183972,
				"z": -3.7650677206,
				"element": "H" 
			},
			{
				"x": 2.0949247489,
				"y": 3.8421682509,
				"z": -1.7436578712,
				"element": "H" 
			},
			{
				"x": 4.1827241431,
				"y": 4.622576875,
				"z": -0.6517547618,
				"element": "H" 
			},
			{
				"x": 6.1720559136,
				"y": 3.13470487,
				"z": -0.5555149319,
				"element": "H" 
			},
			{
				"x": 6.0635733402,
				"y": 0.862652621,
				"z": -1.5601494407,
				"element": "H" 
			},
			{
				"x": 3.9748431038,
				"y": 0.0849213755,
				"z": -2.6436974447,
				"element": "H" 
			},
			{
				"x": -2.3282669659,
				"y": 3.1504627878,
				"z": -1.6942506641,
				"element": "H" 
			}
		],
		 "valence_orbital": [ 
			{
				"type": "occ",
				"energy": -0.25849,
				"method": "rhf"
			},
			{
				"type": "occ",
				"energy": -0.25666,
				"method": "rhf"
			},
			{
				"type": "occ",
				"energy": -0.24668,
				"method": "rhf"
			},
			{
				"type": "occ",
				"energy": -0.22686,
				"method": "rhf"
			},
			{
				"type": "occ",
				"energy": -0.20445,
				"method": "rhf"
			},
			{
				"type": "unocc",
				"energy": -0.01724,
				"method": "rhf"
			},
			{
				"type": "unocc",
				"energy": -0.01448,
				"method": "rhf"
			},
			{
				"type": "unocc",
				"energy": -0.00542,
				"method": "rhf"
			},
			{
				"type": "unocc",
				"energy": 0.02471,
				"method": "rhf"
			},
			{
				"type": "unocc",
				"energy": 0.08189,
				"method": "rhf"
			}
		],
		"cosmo_sigma_profile": { 
			"-0.025": 0.0,
			"-0.024": 0.0,
			"-0.023": 0.0,
			"-0.022": 0.0,
			"-0.021": 0.0,
			"-0.02": 0.0,
			"-0.019": 0.0,
			"-0.018": 0.0,
			"-0.017": 0.0,
			"-0.016": 0.0543517390724,
			"-0.015": 0.596573304541,
			"-0.014": 0.890297074213,
			"-0.013": 0.82015171229,
			"-0.012": 0.629532847443,
			"-0.011": 1.25719976224,
			"-0.01": 2.02166922436,
			"-0.009": 2.94802025779,
			"-0.008": 2.71290708789,
			"-0.007": 6.1586267114,
			"-0.006": 12.3460822765,
			"-0.005": 15.7561793846,
			"-0.004": 27.7575145696,
			"-0.003": 46.171811416,
			"-0.002": 41.2516697934,
			"-0.001": 31.1812650915,
			"0.0": 25.3556672704,
			"0.001": 20.7958770344,
			"0.002": 17.8088116041,
			"0.003": 15.3088450855,
			"0.004": 15.592027343,
			"0.005": 14.653923197,
			"0.006": 7.7036489701,
			"0.007": 5.29771644099,
			"0.008": 3.81865279764,
			"0.009": 4.19100690401,
			"0.01": 4.32163397882,
			"0.011": 4.29538324627,
			"0.012": 5.34071010954,
			"0.013": 6.49573241255,
			"0.014": 3.20993146733,
			"0.015": 0.438809788493,
			"0.016": 0.0,
			"0.017": 0.0,
			"0.018": 0.0,
			"0.019": 0.0,
			"0.02": 0.0,
			"0.021": 0.0,
			"0.022": 0.0,
			"0.023": 0.0,
			"0.024": 0.0,
			"0.025": 0.0
		}
	}
}
