{
	 "smiles": "C(CNCC1=CC=CC=C1)NCC1=CC=CC=C1", 
	 "Tm": 298.15, 
	 "num_atms": 38, 
	 "gaussian": { 
		 "optdone": 1, 
		 "sigma_profile": "yes", 
		 "theory": "DFT", 
		 "functional": "B3LYP", 
		 "basiset": "6-31G**", 
		 "properties": { 
			 "R2extent": 6808.0846, 
			 "electric_dipole_moment_norm": 2.16230430097, 
			 "electric_quadrupole_moment_norm": 7.92509747069, 
			 "total_energy": -731.247427849, 
			 "HOMO_LUMO_gap": 0.20592, 
			 "cosmo_polarized_energy": -9.79, 
			 "cosmo_cavitation_energy": 39.88, 
			 "cosmo_dispersion_energy": -27.56, 
			 "cosmo_repulsion_energy": 2.16, 
			 "cosmo_total_nonelectrostatic_energy": 14.48, 
			 "SMD_solvation_energy": 3.54 
		},
		"coords": [
			{
				"x": 1.1449638781,
				"y": 1.2492853954,
				"z": -1.7553836568,
				"element": "C" 
			},
			{
				"x": 0.2319031991,
				"y": 1.114586982,
				"z": -0.5215885336,
				"element": "C" 
			},
			{
				"x": -0.6476252189,
				"y": -0.0527571631,
				"z": -0.5105717013,
				"element": "N" 
			},
			{
				"x": -1.7324040709,
				"y": -0.0361244239,
				"z": -1.4900398181,
				"element": "C" 
			},
			{
				"x": -2.8601971323,
				"y": 0.9087919427,
				"z": -1.105138154,
				"element": "C" 
			},
			{
				"x": -3.5591839455,
				"y": 1.6210395189,
				"z": -2.0865516119,
				"element": "C" 
			},
			{
				"x": -4.6308576509,
				"y": 2.4488401615,
				"z": -1.7448968916,
				"element": "C" 
			},
			{
				"x": -5.012396561,
				"y": 2.581571304,
				"z": -0.4091695062,
				"element": "C" 
			},
			{
				"x": -4.3151815481,
				"y": 1.8815091847,
				"z": 0.5789675883,
				"element": "C" 
			},
			{
				"x": -3.2486184441,
				"y": 1.0515138109,
				"z": 0.2337988975,
				"element": "C" 
			},
			{
				"x": 2.0139992758,
				"y": 0.0826456967,
				"z": -1.9571055846,
				"element": "N" 
			},
			{
				"x": 3.260785266,
				"y": 0.0796678094,
				"z": -1.1838622996,
				"element": "C" 
			},
			{
				"x": 3.1371224875,
				"y": -0.5441007749,
				"z": 0.1968731159,
				"element": "C" 
			},
			{
				"x": 2.5315139328,
				"y": -1.7983997559,
				"z": 0.3572838821,
				"element": "C" 
			},
			{
				"x": 2.4546590078,
				"y": -2.3965690155,
				"z": 1.6141402208,
				"element": "C" 
			},
			{
				"x": 2.9865505326,
				"y": -1.7502171951,
				"z": 2.7335604886,
				"element": "C" 
			},
			{
				"x": 3.5938919957,
				"y": -0.5034282057,
				"z": 2.584874564,
				"element": "C" 
			},
			{
				"x": 3.6668491788,
				"y": 0.0936802455,
				"z": 1.3236261108,
				"element": "C" 
			},
			{
				"x": 1.7248008737,
				"y": 2.1869719635,
				"z": -1.6629901426,
				"element": "H" 
			},
			{
				"x": 0.5252411237,
				"y": 1.3530777691,
				"z": -2.6533960422,
				"element": "H" 
			},
			{
				"x": 0.848796411,
				"y": 1.0774042382,
				"z": 0.3827414308,
				"element": "H" 
			},
			{
				"x": -0.3852637891,
				"y": 2.0174423712,
				"z": -0.4438795114,
				"element": "H" 
			},
			{
				"x": -0.0741835705,
				"y": -0.8792301425,
				"z": -0.6528965897,
				"element": "H" 
			},
			{
				"x": -2.131595406,
				"y": -1.0584844931,
				"z": -1.5370000204,
				"element": "H" 
			},
			{
				"x": -1.4108454291,
				"y": 0.2053459376,
				"z": -2.5196934524,
				"element": "H" 
			},
			{
				"x": -3.2615099666,
				"y": 1.5268187191,
				"z": -3.1288897498,
				"element": "H" 
			},
			{
				"x": -5.1612609615,
				"y": 2.9946556071,
				"z": -2.5206075738,
				"element": "H" 
			},
			{
				"x": -5.8425364105,
				"y": 3.2284710465,
				"z": -0.1392315653,
				"element": "H" 
			},
			{
				"x": -4.6037205919,
				"y": 1.9831392225,
				"z": 1.6219046038,
				"element": "H" 
			},
			{
				"x": -2.6928712832,
				"y": 0.5117695119,
				"z": 0.9942200165,
				"element": "H" 
			},
			{
				"x": 2.2441997064,
				"y": 0.0122892251,
				"z": -2.9418873468,
				"element": "H" 
			},
			{
				"x": 3.9932540838,
				"y": -0.5040130118,
				"z": -1.7568285646,
				"element": "H" 
			},
			{
				"x": 3.6860574741,
				"y": 1.0940236646,
				"z": -1.0800146523,
				"element": "H" 
			},
			{
				"x": 2.1181713783,
				"y": -2.2970428602,
				"z": -0.5151755699,
				"element": "H" 
			},
			{
				"x": 1.9806331522,
				"y": -3.3683338014,
				"z": 1.7222500351,
				"element": "H" 
			},
			{
				"x": 2.9249857714,
				"y": -2.2151551423,
				"z": 3.7133494185,
				"element": "H" 
			},
			{
				"x": 4.0064030467,
				"y": 0.0089117048,
				"z": 3.449660328,
				"element": "H" 
			},
			{
				"x": 4.1376702049,
				"y": 1.0681029527,
				"z": 1.2139478384,
				"element": "H" 
			}
		],
		 "valence_orbital": [ 
			{
				"type": "occ",
				"energy": -0.24111,
				"method": "rhf"
			},
			{
				"type": "occ",
				"energy": -0.23829,
				"method": "rhf"
			},
			{
				"type": "occ",
				"energy": -0.23355,
				"method": "rhf"
			},
			{
				"type": "occ",
				"energy": -0.22891,
				"method": "rhf"
			},
			{
				"type": "occ",
				"energy": -0.20779,
				"method": "rhf"
			},
			{
				"type": "unocc",
				"energy": -0.00187,
				"method": "rhf"
			},
			{
				"type": "unocc",
				"energy": 0.00247,
				"method": "rhf"
			},
			{
				"type": "unocc",
				"energy": 0.00904,
				"method": "rhf"
			},
			{
				"type": "unocc",
				"energy": 0.01024,
				"method": "rhf"
			},
			{
				"type": "unocc",
				"energy": 0.07451,
				"method": "rhf"
			}
		],
		"cosmo_sigma_profile": { 
			"-0.025": 0.0,
			"-0.024": 0.0,
			"-0.023": 0.0,
			"-0.022": 0.0,
			"-0.021": 0.0,
			"-0.02": 0.0,
			"-0.019": 0.0,
			"-0.018": 0.0,
			"-0.017": 0.0,
			"-0.016": 0.0,
			"-0.015": 0.0,
			"-0.014": 0.0,
			"-0.013": 0.0,
			"-0.012": 0.0,
			"-0.011": 0.209661400502,
			"-0.01": 1.12570564561,
			"-0.009": 1.50473991778,
			"-0.008": 1.29294968099,
			"-0.007": 1.57188533336,
			"-0.006": 4.53607438894,
			"-0.005": 20.1231598728,
			"-0.004": 30.4198164729,
			"-0.003": 35.6060981947,
			"-0.002": 32.8556609093,
			"-0.001": 35.0536018126,
			"0.0": 27.872403912,
			"0.001": 18.0526842822,
			"0.002": 17.0201598817,
			"0.003": 18.2237358851,
			"0.004": 18.5662936331,
			"0.005": 17.3823954542,
			"0.006": 17.1297897259,
			"0.007": 8.16762221051,
			"0.008": 2.12413257215,
			"0.009": 1.07298075159,
			"0.01": 1.11207376545,
			"0.011": 1.14059656322,
			"0.012": 0.806747305211,
			"0.013": 0.401744509215,
			"0.014": 0.569016328206,
			"0.015": 0.233057010914,
			"0.016": 0.0,
			"0.017": 0.0,
			"0.018": 0.0,
			"0.019": 0.0,
			"0.02": 0.0,
			"0.021": 0.0,
			"0.022": 0.0,
			"0.023": 0.0,
			"0.024": 0.0,
			"0.025": 0.0
		}
	}
}
