{
	 "smiles": "NS(=O)(=O)C1=CC2=C(S1)S(=O)CCC2O", 
	 "Tm": 438.15, 
	 "num_atms": 24, 
	 "gaussian": { 
		 "optdone": 1, 
		 "sigma_profile": "yes", 
		 "theory": "DFT", 
		 "functional": "B3LYP", 
		 "basiset": "6-31G**", 
		 "properties": { 
			 "R2extent": 5188.2669, 
			 "electric_dipole_moment_norm": 4.14999079156, 
			 "electric_quadrupole_moment_norm": 24.2672636739, 
			 "total_energy": -1822.22222177, 
			 "HOMO_LUMO_gap": 0.17169, 
			 "cosmo_polarized_energy": -30.61, 
			 "cosmo_cavitation_energy": 31.97, 
			 "cosmo_dispersion_energy": -24.69, 
			 "cosmo_repulsion_energy": 1.81, 
			 "cosmo_total_nonelectrostatic_energy": 9.09, 
			 "SMD_solvation_energy": 3.65 
		},
		"coords": [
			{
				"x": -3.5469860117,
				"y": 1.7915910572,
				"z": -0.9478713801,
				"element": "N" 
			},
			{
				"x": -3.0021568535,
				"y": 0.2120832572,
				"z": -1.0148182911,
				"element": "S" 
			},
			{
				"x": -3.4534770869,
				"y": -0.4248184038,
				"z": 0.2184338289,
				"element": "O" 
			},
			{
				"x": -3.3408180763,
				"y": -0.2701163014,
				"z": -2.3497063164,
				"element": "O" 
			},
			{
				"x": -1.2221532306,
				"y": 0.269493848,
				"z": -0.916099944,
				"element": "C" 
			},
			{
				"x": -0.4877940209,
				"y": 0.1006961644,
				"z": 0.2285354915,
				"element": "C" 
			},
			{
				"x": 0.9148790048,
				"y": 0.2400776948,
				"z": 0.010346439,
				"element": "C" 
			},
			{
				"x": 1.1992199286,
				"y": 0.5031684375,
				"z": -1.313171898,
				"element": "C" 
			},
			{
				"x": -0.2293556077,
				"y": 0.5763396559,
				"z": -2.306899518,
				"element": "S" 
			},
			{
				"x": 2.8076170279,
				"y": 0.8845633487,
				"z": -2.0657052949,
				"element": "S" 
			},
			{
				"x": 3.0364693305,
				"y": 2.3752620566,
				"z": -1.9998172241,
				"element": "O" 
			},
			{
				"x": 3.7673112261,
				"y": 0.1325197402,
				"z": -0.671513834,
				"element": "C" 
			},
			{
				"x": 3.3086423751,
				"y": 0.6605287517,
				"z": 0.6847932694,
				"element": "C" 
			},
			{
				"x": 1.9605900475,
				"y": 0.0739914859,
				"z": 1.1005493043,
				"element": "C" 
			},
			{
				"x": 1.5685850347,
				"y": 0.713461158,
				"z": 2.310017524,
				"element": "O" 
			},
			{
				"x": -3.3009999683,
				"y": 2.3385860674,
				"z": -1.7666279403,
				"element": "H" 
			},
			{
				"x": -3.3390538724,
				"y": 2.2549597573,
				"z": -0.0692867895,
				"element": "H" 
			},
			{
				"x": -0.9505492733,
				"y": -0.1132618423,
				"z": 1.1845481768,
				"element": "H" 
			},
			{
				"x": 3.6790025601,
				"y": -0.9561661503,
				"z": -0.7650449003,
				"element": "H" 
			},
			{
				"x": 4.800039796,
				"y": 0.4179458545,
				"z": -0.8881775288,
				"element": "H" 
			},
			{
				"x": 3.2286641139,
				"y": 1.7524111208,
				"z": 0.6370261067,
				"element": "H" 
			},
			{
				"x": 4.0483689299,
				"y": 0.4199570895,
				"z": 1.4545253998,
				"element": "H" 
			},
			{
				"x": 2.0929651317,
				"y": -1.0078692254,
				"z": 1.2729170298,
				"element": "H" 
			},
			{
				"x": 0.9874894949,
				"y": 0.1210953774,
				"z": 2.8020482893,
				"element": "H" 
			}
		],
		 "valence_orbital": [ 
			{
				"type": "occ",
				"energy": -0.30006,
				"method": "rhf"
			},
			{
				"type": "occ",
				"energy": -0.28611,
				"method": "rhf"
			},
			{
				"type": "occ",
				"energy": -0.27816,
				"method": "rhf"
			},
			{
				"type": "occ",
				"energy": -0.26523,
				"method": "rhf"
			},
			{
				"type": "occ",
				"energy": -0.24323,
				"method": "rhf"
			},
			{
				"type": "unocc",
				"energy": -0.07154,
				"method": "rhf"
			},
			{
				"type": "unocc",
				"energy": -0.01065,
				"method": "rhf"
			},
			{
				"type": "unocc",
				"energy": 7e-05,
				"method": "rhf"
			},
			{
				"type": "unocc",
				"energy": 0.02081,
				"method": "rhf"
			},
			{
				"type": "unocc",
				"energy": 0.02752,
				"method": "rhf"
			}
		],
		"cosmo_sigma_profile": { 
			"-0.025": 0.0,
			"-0.024": 0.0,
			"-0.023": 0.0,
			"-0.022": 0.0,
			"-0.021": 0.0,
			"-0.02": 0.0,
			"-0.019": 0.0,
			"-0.018": 0.0,
			"-0.017": 0.207650756838,
			"-0.016": 2.18181362169,
			"-0.015": 4.37891538163,
			"-0.014": 4.35491267419,
			"-0.013": 3.5508704095,
			"-0.012": 5.09691074321,
			"-0.011": 3.88921572122,
			"-0.01": 3.15933732342,
			"-0.009": 3.99122491266,
			"-0.008": 9.02985363416,
			"-0.007": 10.8797833159,
			"-0.006": 12.1872877016,
			"-0.005": 14.0879352525,
			"-0.004": 13.2228998866,
			"-0.003": 12.0343555022,
			"-0.002": 11.4648607228,
			"-0.001": 12.714684183,
			"0.0": 16.5055676143,
			"0.001": 14.8597376929,
			"0.002": 10.9865856545,
			"0.003": 7.25716422081,
			"0.004": 6.35752681933,
			"0.005": 5.98137862443,
			"0.006": 6.85266497937,
			"0.007": 6.50191904311,
			"0.008": 6.80093119273,
			"0.009": 7.67865102669,
			"0.01": 12.2817192309,
			"0.011": 10.9428993979,
			"0.012": 3.70252249764,
			"0.013": 5.21783646485,
			"0.014": 5.6656803546,
			"0.015": 2.35631959421,
			"0.016": 0.0116664486497,
			"0.017": 0.0,
			"0.018": 0.0,
			"0.019": 0.0,
			"0.02": 0.0,
			"0.021": 0.0,
			"0.022": 0.0,
			"0.023": 0.0,
			"0.024": 0.0,
			"0.025": 0.0
		}
	}
}
