{
	 "smiles": "ClC1=NC2=C(C=C1)C(Cl)=CC=C2Cl", 
	 "Tm": 359.15, 
	 "num_atms": 17, 
	 "gaussian": { 
		 "optdone": 1, 
		 "sigma_profile": "yes", 
		 "theory": "DFT", 
		 "functional": "B3LYP", 
		 "basiset": "6-31G**", 
		 "properties": { 
			 "R2extent": 3766.4794, 
			 "electric_dipole_moment_norm": 2.97736667208, 
			 "electric_quadrupole_moment_norm": 10.476503798, 
			 "total_energy": -1780.70196612, 
			 "HOMO_LUMO_gap": 0.16269, 
			 "cosmo_polarized_energy": -7.69, 
			 "cosmo_cavitation_energy": 26.97, 
			 "cosmo_dispersion_energy": -20.53, 
			 "cosmo_repulsion_energy": 1.62, 
			 "cosmo_total_nonelectrostatic_energy": 8.05, 
			 "SMD_solvation_energy": 2.44 
		},
		"coords": [
			{
				"x": -4.0503113108,
				"y": -1.2120111778,
				"z": 1.2526295946,
				"element": "Cl" 
			},
			{
				"x": -2.4919322649,
				"y": -0.8512536106,
				"z": 0.5180373862,
				"element": "C" 
			},
			{
				"x": -1.6058909726,
				"y": -0.2569962835,
				"z": 1.259167528,
				"element": "N" 
			},
			{
				"x": -0.3941417809,
				"y": 0.032677889,
				"z": 0.7151993457,
				"element": "C" 
			},
			{
				"x": -0.0743730242,
				"y": -0.2991752049,
				"z": -0.6443084617,
				"element": "C" 
			},
			{
				"x": -1.0844379358,
				"y": -0.9480472476,
				"z": -1.4039538919,
				"element": "C" 
			},
			{
				"x": -2.299946708,
				"y": -1.2307772967,
				"z": -0.834935669,
				"element": "C" 
			},
			{
				"x": 1.2138140776,
				"y": 0.0353018564,
				"z": -1.1437011629,
				"element": "C" 
			},
			{
				"x": 1.6398502866,
				"y": -0.3557774697,
				"z": -2.8030532859,
				"element": "Cl" 
			},
			{
				"x": 2.1443943604,
				"y": 0.6647094576,
				"z": -0.3494100085,
				"element": "C" 
			},
			{
				"x": 1.8291856841,
				"y": 0.990478519,
				"z": 0.9868318667,
				"element": "C" 
			},
			{
				"x": 0.5931110631,
				"y": 0.6851891461,
				"z": 1.5124966882,
				"element": "C" 
			},
			{
				"x": 0.2313752411,
				"y": 1.0991462684,
				"z": 3.1653825648,
				"element": "Cl" 
			},
			{
				"x": -0.8835495144,
				"y": -1.2160348726,
				"z": -2.4349870329,
				"element": "H" 
			},
			{
				"x": -3.0916369884,
				"y": -1.724154626,
				"z": -1.385103333,
				"element": "H" 
			},
			{
				"x": 3.1215311549,
				"y": 0.91165409,
				"z": -0.7482636743,
				"element": "H" 
			},
			{
				"x": 2.5684586321,
				"y": 1.4863705629,
				"z": 1.6055715459,
				"element": "H" 
			}
		],
		 "valence_orbital": [ 
			{
				"type": "occ",
				"energy": -0.31862,
				"method": "rhf"
			},
			{
				"type": "occ",
				"energy": -0.31487,
				"method": "rhf"
			},
			{
				"type": "occ",
				"energy": -0.28693,
				"method": "rhf"
			},
			{
				"type": "occ",
				"energy": -0.27183,
				"method": "rhf"
			},
			{
				"type": "occ",
				"energy": -0.24361,
				"method": "rhf"
			},
			{
				"type": "unocc",
				"energy": -0.08092,
				"method": "rhf"
			},
			{
				"type": "unocc",
				"energy": -0.0468,
				"method": "rhf"
			},
			{
				"type": "unocc",
				"energy": -0.00519,
				"method": "rhf"
			},
			{
				"type": "unocc",
				"energy": 0.00885,
				"method": "rhf"
			},
			{
				"type": "unocc",
				"energy": 0.02571,
				"method": "rhf"
			}
		],
		"cosmo_sigma_profile": { 
			"-0.025": 0.0,
			"-0.024": 0.0,
			"-0.023": 0.0,
			"-0.022": 0.0,
			"-0.021": 0.0,
			"-0.02": 0.0,
			"-0.019": 0.0,
			"-0.018": 0.0,
			"-0.017": 0.0,
			"-0.016": 0.0,
			"-0.015": 0.0,
			"-0.014": 0.0,
			"-0.013": 0.0,
			"-0.012": 0.0,
			"-0.011": 0.0,
			"-0.01": 0.0,
			"-0.009": 2.3745703411,
			"-0.008": 7.93941450151,
			"-0.007": 7.92536165596,
			"-0.006": 6.0130024655,
			"-0.005": 5.65242886552,
			"-0.004": 6.31043003071,
			"-0.003": 11.4878545548,
			"-0.002": 21.4403403534,
			"-0.001": 27.7848613604,
			"0.0": 29.3307051216,
			"0.001": 24.0446610442,
			"0.002": 14.8129236445,
			"0.003": 20.5898544188,
			"0.004": 21.6269289319,
			"0.005": 5.9585021455,
			"0.006": 2.59145931704,
			"0.007": 2.57299629735,
			"0.008": 1.47839915705,
			"0.009": 1.19212881267,
			"0.01": 1.46385696872,
			"0.011": 1.15435140512,
			"0.012": 1.26094260405,
			"0.013": 0.301326408662,
			"0.014": 0.0,
			"0.015": 0.0,
			"0.016": 0.0,
			"0.017": 0.0,
			"0.018": 0.0,
			"0.019": 0.0,
			"0.02": 0.0,
			"0.021": 0.0,
			"0.022": 0.0,
			"0.023": 0.0,
			"0.024": 0.0,
			"0.025": 0.0
		}
	}
}
