{
	 "smiles": "CN(C)C1=C(N)C=C(C=C1)S(N)(=O)=O", 
	 "Tm": 425.15, 
	 "num_atms": 27, 
	 "gaussian": { 
		 "optdone": 1, 
		 "sigma_profile": "yes", 
		 "theory": "DFT", 
		 "functional": "B3LYP", 
		 "basiset": "6-31G**", 
		 "properties": { 
			 "R2extent": 4851.7099, 
			 "electric_dipole_moment_norm": 6.63896360361, 
			 "electric_quadrupole_moment_norm": 28.1223912493, 
			 "total_energy": -1025.49305625, 
			 "HOMO_LUMO_gap": 0.1868, 
			 "cosmo_polarized_energy": -22.16, 
			 "cosmo_cavitation_energy": 31.25, 
			 "cosmo_dispersion_energy": -23.02, 
			 "cosmo_repulsion_energy": 1.78, 
			 "cosmo_total_nonelectrostatic_energy": 10.01, 
			 "SMD_solvation_energy": 4.53 
		},
		"coords": [
			{
				"x": -2.105441246,
				"y": 0.8867134306,
				"z": 1.157070694,
				"element": "C" 
			},
			{
				"x": -1.7008226902,
				"y": -0.4207606233,
				"z": 0.6525826669,
				"element": "N" 
			},
			{
				"x": -2.7919545572,
				"y": -1.25017646,
				"z": 0.1597543473,
				"element": "C" 
			},
			{
				"x": -0.4733009999,
				"y": -0.4794926461,
				"z": -0.0870149959,
				"element": "C" 
			},
			{
				"x": -0.2755846752,
				"y": 0.1943326529,
				"z": -1.3212316922,
				"element": "C" 
			},
			{
				"x": -1.2731543644,
				"y": 0.9912001916,
				"z": -1.8787823502,
				"element": "N" 
			},
			{
				"x": 0.9707309381,
				"y": 0.0882274846,
				"z": -1.9606244826,
				"element": "C" 
			},
			{
				"x": 1.982686597,
				"y": -0.6838508504,
				"z": -1.3972656646,
				"element": "C" 
			},
			{
				"x": 1.7986713551,
				"y": -1.3767261568,
				"z": -0.2001669383,
				"element": "C" 
			},
			{
				"x": 0.565361637,
				"y": -1.2549544098,
				"z": 0.4381173995,
				"element": "C" 
			},
			{
				"x": 3.5738214246,
				"y": -0.7638670875,
				"z": -2.2319453761,
				"element": "S" 
			},
			{
				"x": 4.5297254754,
				"y": 0.4502691147,
				"z": -1.5591269593,
				"element": "N" 
			},
			{
				"x": 3.3650643365,
				"y": -0.3700021479,
				"z": -3.6252421218,
				"element": "O" 
			},
			{
				"x": 4.2130225649,
				"y": -2.0217984365,
				"z": -1.8500041348,
				"element": "O" 
			},
			{
				"x": -2.8519090579,
				"y": 0.7453241997,
				"z": 1.9471382259,
				"element": "H" 
			},
			{
				"x": -1.2396798333,
				"y": 1.3889757053,
				"z": 1.5964322772,
				"element": "H" 
			},
			{
				"x": -2.5386821259,
				"y": 1.5652444941,
				"z": 0.4025340231,
				"element": "H" 
			},
			{
				"x": -3.5489034978,
				"y": -1.3562355918,
				"z": 0.9452040263,
				"element": "H" 
			},
			{
				"x": -2.4143203734,
				"y": -2.2459049393,
				"z": -0.0863302862,
				"element": "H" 
			},
			{
				"x": -3.3110722121,
				"y": -0.8580033728,
				"z": -0.7373524118,
				"element": "H" 
			},
			{
				"x": -1.1625917629,
				"y": 1.1817330942,
				"z": -2.865323844,
				"element": "H" 
			},
			{
				"x": -2.2198673611,
				"y": 0.7319149359,
				"z": -1.645080553,
				"element": "H" 
			},
			{
				"x": 1.1400129597,
				"y": 0.5783572999,
				"z": -2.9148260686,
				"element": "H" 
			},
			{
				"x": 2.5865865601,
				"y": -2.0029996365,
				"z": 0.2020107564,
				"element": "H" 
			},
			{
				"x": 0.3751646282,
				"y": -1.7689092882,
				"z": 1.3751881792,
				"element": "H" 
			},
			{
				"x": 4.1575465518,
				"y": 1.3779718073,
				"z": -1.7383735398,
				"element": "H" 
			},
			{
				"x": 4.7191897291,
				"y": 0.2897172361,
				"z": -0.5744411764,
				"element": "H" 
			}
		],
		 "valence_orbital": [ 
			{
				"type": "occ",
				"energy": -0.29768,
				"method": "rhf"
			},
			{
				"type": "occ",
				"energy": -0.29602,
				"method": "rhf"
			},
			{
				"type": "occ",
				"energy": -0.26155,
				"method": "rhf"
			},
			{
				"type": "occ",
				"energy": -0.22414,
				"method": "rhf"
			},
			{
				"type": "occ",
				"energy": -0.21912,
				"method": "rhf"
			},
			{
				"type": "unocc",
				"energy": -0.03232,
				"method": "rhf"
			},
			{
				"type": "unocc",
				"energy": -0.00606,
				"method": "rhf"
			},
			{
				"type": "unocc",
				"energy": 0.05466,
				"method": "rhf"
			},
			{
				"type": "unocc",
				"energy": 0.05669,
				"method": "rhf"
			},
			{
				"type": "unocc",
				"energy": 0.08304,
				"method": "rhf"
			}
		],
		"cosmo_sigma_profile": { 
			"-0.025": 0.0,
			"-0.024": 0.0,
			"-0.023": 0.0,
			"-0.022": 0.0,
			"-0.021": 0.0,
			"-0.02": 0.0,
			"-0.019": 0.0,
			"-0.018": 0.0,
			"-0.017": 0.0,
			"-0.016": 0.0292150027634,
			"-0.015": 1.69097299719,
			"-0.014": 2.40399659773,
			"-0.013": 4.0107623579,
			"-0.012": 4.07779569762,
			"-0.011": 5.12624833436,
			"-0.01": 6.11925968756,
			"-0.009": 4.99662192742,
			"-0.008": 4.74330793532,
			"-0.007": 4.89713737826,
			"-0.006": 6.52700323524,
			"-0.005": 7.96966603349,
			"-0.004": 15.3724697519,
			"-0.003": 16.6773851542,
			"-0.002": 17.1880554846,
			"-0.001": 22.9823537128,
			"0.0": 16.5482499832,
			"0.001": 10.6990874718,
			"0.002": 10.1513426074,
			"0.003": 13.9232966359,
			"0.004": 12.142762782,
			"0.005": 6.83724515876,
			"0.006": 6.15743768781,
			"0.007": 4.46380977974,
			"0.008": 6.2187036501,
			"0.009": 6.35987234689,
			"0.01": 7.66448251795,
			"0.011": 11.5719937156,
			"0.012": 7.98118051267,
			"0.013": 0.744769464911,
			"0.014": 0.0,
			"0.015": 0.0,
			"0.016": 0.0,
			"0.017": 0.0,
			"0.018": 0.0,
			"0.019": 0.0,
			"0.02": 0.0,
			"0.021": 0.0,
			"0.022": 0.0,
			"0.023": 0.0,
			"0.024": 0.0,
			"0.025": 0.0
		}
	}
}
