{
	 "smiles": "CSC1=C(C#N)C(Cl)=CC=C1", 
	 "Tm": 388.15, 
	 "num_atms": 17, 
	 "gaussian": { 
		 "optdone": 1, 
		 "sigma_profile": "yes", 
		 "theory": "DFT", 
		 "functional": "B3LYP", 
		 "basiset": "6-31G**", 
		 "properties": { 
			 "R2extent": 3149.3606, 
			 "electric_dipole_moment_norm": 4.62210376885, 
			 "electric_quadrupole_moment_norm": 14.431910896, 
			 "total_energy": -1221.57531475, 
			 "HOMO_LUMO_gap": 0.16968, 
			 "cosmo_polarized_energy": -9.41, 
			 "cosmo_cavitation_energy": 25.23, 
			 "cosmo_dispersion_energy": -18.43, 
			 "cosmo_repulsion_energy": 1.43, 
			 "cosmo_total_nonelectrostatic_energy": 8.23, 
			 "SMD_solvation_energy": 5.2 
		},
		"coords": [
			{
				"x": -0.5888097109,
				"y": 1.890110511,
				"z": 1.2669721198,
				"element": "C" 
			},
			{
				"x": -0.8599640752,
				"y": 1.5319114589,
				"z": -0.512198292,
				"element": "S" 
			},
			{
				"x": 0.3332028352,
				"y": 0.2470794544,
				"z": -0.8642092959,
				"element": "C" 
			},
			{
				"x": 1.7329918284,
				"y": 0.4310399085,
				"z": -0.7266970143,
				"element": "C" 
			},
			{
				"x": 2.2666111007,
				"y": 1.6745419028,
				"z": -0.2606503675,
				"element": "C" 
			},
			{
				"x": 2.6886043645,
				"y": 2.6867118868,
				"z": 0.127295168,
				"element": "N" 
			},
			{
				"x": 2.6014109423,
				"y": -0.6241227682,
				"z": -1.0731483213,
				"element": "C" 
			},
			{
				"x": 4.3278684817,
				"y": -0.4320639219,
				"z": -0.8874741655,
				"element": "Cl" 
			},
			{
				"x": 2.1097260958,
				"y": -1.8238528655,
				"z": -1.5805920722,
				"element": "C" 
			},
			{
				"x": 0.7344650064,
				"y": -1.9819745054,
				"z": -1.7405695646,
				"element": "C" 
			},
			{
				"x": -0.1453691284,
				"y": -0.9628397798,
				"z": -1.3775810302,
				"element": "C" 
			},
			{
				"x": -1.3922054541,
				"y": 2.5775322535,
				"z": 1.5414581461,
				"element": "H" 
			},
			{
				"x": -0.6796110418,
				"y": 0.9791588785,
				"z": 1.8611104415,
				"element": "H" 
			},
			{
				"x": 0.3717561379,
				"y": 2.3747727238,
				"z": 1.4400380146,
				"element": "H" 
			},
			{
				"x": 2.8005398598,
				"y": -2.6160341697,
				"z": -1.8446768686,
				"element": "H" 
			},
			{
				"x": 0.3457404874,
				"y": -2.9152618934,
				"z": -2.1362747821,
				"element": "H" 
			},
			{
				"x": -1.2161577296,
				"y": -1.1000090743,
				"z": -1.4799021158,
				"element": "H" 
			}
		],
		 "valence_orbital": [ 
			{
				"type": "occ",
				"energy": -0.33269,
				"method": "rhf"
			},
			{
				"type": "occ",
				"energy": -0.32625,
				"method": "rhf"
			},
			{
				"type": "occ",
				"energy": -0.28527,
				"method": "rhf"
			},
			{
				"type": "occ",
				"energy": -0.27006,
				"method": "rhf"
			},
			{
				"type": "occ",
				"energy": -0.23956,
				"method": "rhf"
			},
			{
				"type": "unocc",
				"energy": -0.06988,
				"method": "rhf"
			},
			{
				"type": "unocc",
				"energy": -0.04214,
				"method": "rhf"
			},
			{
				"type": "unocc",
				"energy": 0.00518,
				"method": "rhf"
			},
			{
				"type": "unocc",
				"energy": 0.02454,
				"method": "rhf"
			},
			{
				"type": "unocc",
				"energy": 0.04216,
				"method": "rhf"
			}
		],
		"cosmo_sigma_profile": { 
			"-0.025": 0.0,
			"-0.024": 0.0,
			"-0.023": 0.0,
			"-0.022": 0.0,
			"-0.021": 0.0,
			"-0.02": 0.0,
			"-0.019": 0.0,
			"-0.018": 0.0,
			"-0.017": 0.0,
			"-0.016": 0.0,
			"-0.015": 0.0,
			"-0.014": 0.0,
			"-0.013": 0.0,
			"-0.012": 0.0,
			"-0.011": 0.0,
			"-0.01": 0.0,
			"-0.009": 0.756450331564,
			"-0.008": 5.31975506155,
			"-0.007": 9.04349212062,
			"-0.006": 9.63602745875,
			"-0.005": 8.68978152555,
			"-0.004": 10.2374253886,
			"-0.003": 18.1655307233,
			"-0.002": 19.7268913368,
			"-0.001": 20.964807448,
			"0.0": 19.986430846,
			"0.001": 17.5550393313,
			"0.002": 12.2694169172,
			"0.003": 14.6274997047,
			"0.004": 8.74590562196,
			"0.005": 6.26020293137,
			"0.006": 6.02742628894,
			"0.007": 4.77906197446,
			"0.008": 4.86013181022,
			"0.009": 2.63140565976,
			"0.01": 2.60680469033,
			"0.011": 2.64815098557,
			"0.012": 1.83455416537,
			"0.013": 0.406817013989,
			"0.014": 0.0,
			"0.015": 0.0,
			"0.016": 0.0,
			"0.017": 0.0,
			"0.018": 0.0,
			"0.019": 0.0,
			"0.02": 0.0,
			"0.021": 0.0,
			"0.022": 0.0,
			"0.023": 0.0,
			"0.024": 0.0,
			"0.025": 0.0
		}
	}
}
