{
	 "smiles": "CCCCC(=O)OCC", 
	 "Tm": 182.05, 
	 "num_atms": 23, 
	 "gaussian": { 
		 "optdone": 1, 
		 "sigma_profile": "yes", 
		 "theory": "DFT", 
		 "functional": "B3LYP", 
		 "basiset": "6-31G**", 
		 "properties": { 
			 "R2extent": 1764.5302, 
			 "electric_dipole_moment_norm": 1.90666872057, 
			 "electric_quadrupole_moment_norm": 8.26683954604, 
			 "total_energy": -425.659079038, 
			 "HOMO_LUMO_gap": 0.27701, 
			 "cosmo_polarized_energy": -5.83, 
			 "cosmo_cavitation_energy": 26.48, 
			 "cosmo_dispersion_energy": -18.01, 
			 "cosmo_repulsion_energy": 1.54, 
			 "cosmo_total_nonelectrostatic_energy": 10.0, 
			 "SMD_solvation_energy": 5.2 
		},
		"coords": [
			{
				"x": -2.3916182731,
				"y": -1.792438739,
				"z": -1.9439456523,
				"element": "C" 
			},
			{
				"x": -1.394288229,
				"y": -2.0148971393,
				"z": -0.8012338794,
				"element": "C" 
			},
			{
				"x": -1.6743842245,
				"y": -1.1820549075,
				"z": 0.4607897122,
				"element": "C" 
			},
			{
				"x": -1.689918873,
				"y": 0.3487311123,
				"z": 0.2453389158,
				"element": "C" 
			},
			{
				"x": -0.3920547579,
				"y": 0.857269457,
				"z": -0.3455360758,
				"element": "C" 
			},
			{
				"x": -0.218436129,
				"y": 1.1522942738,
				"z": -1.5102228722,
				"element": "O" 
			},
			{
				"x": 0.5851415689,
				"y": 0.9109915694,
				"z": 0.5890558422,
				"element": "O" 
			},
			{
				"x": 1.8849833055,
				"y": 1.3365041089,
				"z": 0.1203402213,
				"element": "C" 
			},
			{
				"x": 2.8273481999,
				"y": 1.3200265169,
				"z": 1.3090084355,
				"element": "C" 
			},
			{
				"x": -2.3137495238,
				"y": -0.7786987212,
				"z": -2.3477537432,
				"element": "H" 
			},
			{
				"x": -2.2015042422,
				"y": -2.4880947531,
				"z": -2.7676288129,
				"element": "H" 
			},
			{
				"x": -3.4240235981,
				"y": -1.9495493021,
				"z": -1.6089300795,
				"element": "H" 
			},
			{
				"x": -0.3804666171,
				"y": -1.8018072655,
				"z": -1.1638923241,
				"element": "H" 
			},
			{
				"x": -1.3963132194,
				"y": -3.0739471446,
				"z": -0.5137344096,
				"element": "H" 
			},
			{
				"x": -2.6481662226,
				"y": -1.4694621954,
				"z": 0.8776486389,
				"element": "H" 
			},
			{
				"x": -0.9247543661,
				"y": -1.418680603,
				"z": 1.2247365913,
				"element": "H" 
			},
			{
				"x": -2.4912059221,
				"y": 0.6368733393,
				"z": -0.4385358959,
				"element": "H" 
			},
			{
				"x": -1.8614862729,
				"y": 0.8431422191,
				"z": 1.2069440795,
				"element": "H" 
			},
			{
				"x": 1.7930461743,
				"y": 2.3353619555,
				"z": -0.3180252756,
				"element": "H" 
			},
			{
				"x": 2.2136942151,
				"y": 0.6602175198,
				"z": -0.675340199,
				"element": "H" 
			},
			{
				"x": 2.4805765784,
				"y": 1.9998126411,
				"z": 2.0926830443,
				"element": "H" 
			},
			{
				"x": 3.8269142224,
				"y": 1.6373217655,
				"z": 0.9957164975,
				"element": "H" 
			},
			{
				"x": 2.9031662064,
				"y": 0.3151842921,
				"z": 1.7346172411,
				"element": "H" 
			}
		],
		 "valence_orbital": [ 
			{
				"type": "occ",
				"energy": -0.32909,
				"method": "rhf"
			},
			{
				"type": "occ",
				"energy": -0.32761,
				"method": "rhf"
			},
			{
				"type": "occ",
				"energy": -0.32245,
				"method": "rhf"
			},
			{
				"type": "occ",
				"energy": -0.2949,
				"method": "rhf"
			},
			{
				"type": "occ",
				"energy": -0.26209,
				"method": "rhf"
			},
			{
				"type": "unocc",
				"energy": 0.01492,
				"method": "rhf"
			},
			{
				"type": "unocc",
				"energy": 0.08902,
				"method": "rhf"
			},
			{
				"type": "unocc",
				"energy": 0.10359,
				"method": "rhf"
			},
			{
				"type": "unocc",
				"energy": 0.12542,
				"method": "rhf"
			},
			{
				"type": "unocc",
				"energy": 0.13184,
				"method": "rhf"
			}
		],
		"cosmo_sigma_profile": { 
			"-0.025": 0.0,
			"-0.024": 0.0,
			"-0.023": 0.0,
			"-0.022": 0.0,
			"-0.021": 0.0,
			"-0.02": 0.0,
			"-0.019": 0.0,
			"-0.018": 0.0,
			"-0.017": 0.0,
			"-0.016": 0.0,
			"-0.015": 0.0,
			"-0.014": 0.0,
			"-0.013": 0.0,
			"-0.012": 0.0,
			"-0.011": 0.0,
			"-0.01": 0.0,
			"-0.009": 0.0,
			"-0.008": 0.0,
			"-0.007": 0.0,
			"-0.006": 0.00765114989759,
			"-0.005": 4.85344221257,
			"-0.004": 14.2404378067,
			"-0.003": 24.4864640959,
			"-0.002": 33.5847007049,
			"-0.001": 32.4304675033,
			"0.0": 30.6128060754,
			"0.001": 18.7169228312,
			"0.002": 15.0815664739,
			"0.003": 5.35658703871,
			"0.004": 3.83061898458,
			"0.005": 3.47499548972,
			"0.006": 3.37626759479,
			"0.007": 2.92779332946,
			"0.008": 2.2571563676,
			"0.009": 2.12112853086,
			"0.01": 1.85154394582,
			"0.011": 2.65938284108,
			"0.012": 2.51155846891,
			"0.013": 0.815966234721,
			"0.014": 0.0,
			"0.015": 0.0,
			"0.016": 0.0,
			"0.017": 0.0,
			"0.018": 0.0,
			"0.019": 0.0,
			"0.02": 0.0,
			"0.021": 0.0,
			"0.022": 0.0,
			"0.023": 0.0,
			"0.024": 0.0,
			"0.025": 0.0
		}
	}
}
