{
	 "smiles": "OC(C1=C2C=CC=CC2=CC2=CC=CC=C12)C(F)(F)F", 
	 "Tm": 415.15, 
	 "num_atms": 31, 
	 "gaussian": { 
		 "optdone": 1, 
		 "sigma_profile": "yes", 
		 "theory": "DFT", 
		 "functional": "B3LYP", 
		 "basiset": "6-31G**", 
		 "properties": { 
			 "R2extent": 5098.7019, 
			 "electric_dipole_moment_norm": 3.33697666459, 
			 "electric_quadrupole_moment_norm": 10.7001655992, 
			 "total_energy": -991.083303277, 
			 "HOMO_LUMO_gap": 0.12876, 
			 "cosmo_polarized_energy": -10.04, 
			 "cosmo_cavitation_energy": 34.52, 
			 "cosmo_dispersion_energy": -24.86, 
			 "cosmo_repulsion_energy": 1.8, 
			 "cosmo_total_nonelectrostatic_energy": 11.45, 
			 "SMD_solvation_energy": 6.33 
		},
		"coords": [
			{
				"x": -0.5070896201,
				"y": 2.0814796033,
				"z": -2.2105421822,
				"element": "O" 
			},
			{
				"x": 0.55575762,
				"y": 1.3756447724,
				"z": -1.588130759,
				"element": "C" 
			},
			{
				"x": 0.1547043522,
				"y": 0.5462145252,
				"z": -0.3680943486,
				"element": "C" 
			},
			{
				"x": -1.0878692868,
				"y": -0.1430542452,
				"z": -0.3181335859,
				"element": "C" 
			},
			{
				"x": -1.997133534,
				"y": -0.2481823492,
				"z": -1.4271766531,
				"element": "C" 
			},
			{
				"x": -3.1851006524,
				"y": -0.9230604106,
				"z": -1.3156463004,
				"element": "C" 
			},
			{
				"x": -3.5715286279,
				"y": -1.5439394477,
				"z": -0.0952569829,
				"element": "C" 
			},
			{
				"x": -2.7370193506,
				"y": -1.4804433557,
				"z": 0.9857909272,
				"element": "C" 
			},
			{
				"x": -1.4828917701,
				"y": -0.7963734202,
				"z": 0.9126777122,
				"element": "C" 
			},
			{
				"x": -0.6344224312,
				"y": -0.7567159935,
				"z": 2.0202542271,
				"element": "C" 
			},
			{
				"x": 0.6119111041,
				"y": -0.1302607789,
				"z": 1.9707243766,
				"element": "C" 
			},
			{
				"x": 1.472507623,
				"y": -0.1288370512,
				"z": 3.1127846296,
				"element": "C" 
			},
			{
				"x": 2.7045794849,
				"y": 0.4631706492,
				"z": 3.070251145,
				"element": "C" 
			},
			{
				"x": 3.1441843538,
				"y": 1.0770479638,
				"z": 1.8649046454,
				"element": "C" 
			},
			{
				"x": 2.3450189322,
				"y": 1.1030349777,
				"z": 0.7511398541,
				"element": "C" 
			},
			{
				"x": 1.0322015703,
				"y": 0.5214385835,
				"z": 0.7496467222,
				"element": "C" 
			},
			{
				"x": 1.2328976271,
				"y": 0.5624240724,
				"z": -2.6989017207,
				"element": "C" 
			},
			{
				"x": 0.4428467373,
				"y": -0.3967632685,
				"z": -3.2153700341,
				"element": "F" 
			},
			{
				"x": 1.6152202777,
				"y": 1.3638373926,
				"z": -3.7109577146,
				"element": "F" 
			},
			{
				"x": 2.3420660773,
				"y": -0.0381457996,
				"z": -2.2122938415,
				"element": "F" 
			},
			{
				"x": -1.0839307149,
				"y": 2.4126936468,
				"z": -1.510346841,
				"element": "H" 
			},
			{
				"x": 1.320175714,
				"y": 2.0973416832,
				"z": -1.2801316579,
				"element": "H" 
			},
			{
				"x": -1.7313403297,
				"y": 0.2056193893,
				"z": -2.369747322,
				"element": "H" 
			},
			{
				"x": -3.8412971056,
				"y": -0.9898944338,
				"z": -2.1787747002,
				"element": "H" 
			},
			{
				"x": -4.5196005112,
				"y": -2.0696505161,
				"z": -0.0313175207,
				"element": "H" 
			},
			{
				"x": -3.0056432989,
				"y": -1.9562623765,
				"z": 1.9253347039,
				"element": "H" 
			},
			{
				"x": -0.9481914242,
				"y": -1.2376265107,
				"z": 2.9439945513,
				"element": "H" 
			},
			{
				"x": 1.12242737,
				"y": -0.6192406547,
				"z": 4.0173494018,
				"element": "H" 
			},
			{
				"x": 3.3520691723,
				"y": 0.4566113913,
				"z": 3.9418247489,
				"element": "H" 
			},
			{
				"x": 4.1343664497,
				"y": 1.5213810259,
				"z": 1.8220130246,
				"element": "H" 
			},
			{
				"x": 2.7476241915,
				"y": 1.5376109356,
				"z": -0.1542685052,
				"element": "H" 
			}
		],
		 "valence_orbital": [ 
			{
				"type": "occ",
				"energy": -0.30555,
				"method": "rhf"
			},
			{
				"type": "occ",
				"energy": -0.28021,
				"method": "rhf"
			},
			{
				"type": "occ",
				"energy": -0.26031,
				"method": "rhf"
			},
			{
				"type": "occ",
				"energy": -0.24644,
				"method": "rhf"
			},
			{
				"type": "occ",
				"energy": -0.20151,
				"method": "rhf"
			},
			{
				"type": "unocc",
				"energy": -0.07275,
				"method": "rhf"
			},
			{
				"type": "unocc",
				"energy": -0.02047,
				"method": "rhf"
			},
			{
				"type": "unocc",
				"energy": 0.00019,
				"method": "rhf"
			},
			{
				"type": "unocc",
				"energy": 0.02383,
				"method": "rhf"
			},
			{
				"type": "unocc",
				"energy": 0.05727,
				"method": "rhf"
			}
		],
		"cosmo_sigma_profile": { 
			"-0.025": 0.0,
			"-0.024": 0.0,
			"-0.023": 0.0,
			"-0.022": 0.0,
			"-0.021": 0.0,
			"-0.02": 0.0,
			"-0.019": 0.0,
			"-0.018": 0.0,
			"-0.017": 0.0725285388278,
			"-0.016": 0.819294379249,
			"-0.015": 0.869573101038,
			"-0.014": 0.748424508713,
			"-0.013": 0.609747179547,
			"-0.012": 1.05549328649,
			"-0.011": 1.02935022202,
			"-0.01": 1.25331109378,
			"-0.009": 1.92208502062,
			"-0.008": 3.09155987011,
			"-0.007": 5.31495659595,
			"-0.006": 16.3006230689,
			"-0.005": 17.6676873792,
			"-0.004": 17.6155102783,
			"-0.003": 15.9592734717,
			"-0.002": 11.2510405052,
			"-0.001": 12.5123490088,
			"0.0": 13.9916322156,
			"0.001": 17.1595773553,
			"0.002": 34.5537336311,
			"0.003": 55.1917151166,
			"0.004": 25.5426778978,
			"0.005": 13.2152743685,
			"0.006": 2.07874461125,
			"0.007": 1.20759294837,
			"0.008": 1.3852041035,
			"0.009": 1.31597321804,
			"0.01": 0.929673747047,
			"0.011": 1.65917464145,
			"0.012": 0.671324450135,
			"0.013": 0.0,
			"0.014": 0.0,
			"0.015": 0.0,
			"0.016": 0.0,
			"0.017": 0.0,
			"0.018": 0.0,
			"0.019": 0.0,
			"0.02": 0.0,
			"0.021": 0.0,
			"0.022": 0.0,
			"0.023": 0.0,
			"0.024": 0.0,
			"0.025": 0.0
		}
	}
}
