{
	 "smiles": "COC1=CC=C(Br)C(=C1)C(O)=O", 
	 "Tm": 431.15, 
	 "num_atms": 19, 
	 "gaussian": { 
		 "optdone": 1, 
		 "sigma_profile": "yes", 
		 "theory": "DFT", 
		 "functional": "B3LYP", 
		 "basiset": "6-31G**", 
		 "properties": { 
			 "R2extent": 4711.1392, 
			 "electric_dipole_moment_norm": 4.21782621382, 
			 "electric_quadrupole_moment_norm": 14.0711752558, 
			 "total_energy": -3106.1411794, 
			 "HOMO_LUMO_gap": 0.17205, 
			 "cosmo_polarized_energy": -12.14, 
			 "cosmo_cavitation_energy": 25.82, 
			 "cosmo_dispersion_energy": -19.66, 
			 "cosmo_repulsion_energy": 1.56, 
			 "cosmo_total_nonelectrostatic_energy": 7.72, 
			 "SMD_solvation_energy": 5.4 
		},
		"coords": [
			{
				"x": 0.5830056666,
				"y": 2.8535372046,
				"z": 2.7355589827,
				"element": "C" 
			},
			{
				"x": 1.3985567449,
				"y": 2.2608917868,
				"z": 1.7353615483,
				"element": "O" 
			},
			{
				"x": 1.2239903714,
				"y": 0.9382191989,
				"z": 1.4623226691,
				"element": "C" 
			},
			{
				"x": 0.2963688351,
				"y": 0.1042497783,
				"z": 2.0950951387,
				"element": "C" 
			},
			{
				"x": 0.2147983927,
				"y": -1.2374361868,
				"z": 1.7229425033,
				"element": "C" 
			},
			{
				"x": 1.0422815189,
				"y": -1.7696219624,
				"z": 0.7370894229,
				"element": "C" 
			},
			{
				"x": 0.7881658375,
				"y": -3.6166300176,
				"z": 0.3362910537,
				"element": "Br" 
			},
			{
				"x": 1.9828731855,
				"y": -0.9386573145,
				"z": 0.0914034778,
				"element": "C" 
			},
			{
				"x": 2.0516839019,
				"y": 0.408425967,
				"z": 0.4684140492,
				"element": "C" 
			},
			{
				"x": 2.9230461362,
				"y": -1.4267291064,
				"z": -0.9630254563,
				"element": "C" 
			},
			{
				"x": 3.5860464045,
				"y": -0.4046529496,
				"z": -1.5687712933,
				"element": "O" 
			},
			{
				"x": 3.1198617334,
				"y": -2.5800558738,
				"z": -1.2780127568,
				"element": "O" 
			},
			{
				"x": -0.4814983235,
				"y": 2.7994256548,
				"z": 2.4738674163,
				"element": "H" 
			},
			{
				"x": 0.8861811606,
				"y": 3.8998983808,
				"z": 2.788901801,
				"element": "H" 
			},
			{
				"x": 0.7378267042,
				"y": 2.3828468764,
				"z": 3.7148830745,
				"element": "H" 
			},
			{
				"x": -0.3635999241,
				"y": 0.4771289984,
				"z": 2.869150435,
				"element": "H" 
			},
			{
				"x": -0.5071628555,
				"y": -1.8841216049,
				"z": 2.2079732777,
				"element": "H" 
			},
			{
				"x": 2.7636815179,
				"y": 1.065485034,
				"z": -0.0136052209,
				"element": "H" 
			},
			{
				"x": 4.176192992,
				"y": -0.8306038641,
				"z": -2.2115401229,
				"element": "H" 
			}
		],
		 "valence_orbital": [ 
			{
				"type": "occ",
				"energy": -0.29656,
				"method": "rhf"
			},
			{
				"type": "occ",
				"energy": -0.29105,
				"method": "rhf"
			},
			{
				"type": "occ",
				"energy": -0.27297,
				"method": "rhf"
			},
			{
				"type": "occ",
				"energy": -0.25661,
				"method": "rhf"
			},
			{
				"type": "occ",
				"energy": -0.22577,
				"method": "rhf"
			},
			{
				"type": "unocc",
				"energy": -0.05372,
				"method": "rhf"
			},
			{
				"type": "unocc",
				"energy": -0.01222,
				"method": "rhf"
			},
			{
				"type": "unocc",
				"energy": 0.01156,
				"method": "rhf"
			},
			{
				"type": "unocc",
				"energy": 0.05509,
				"method": "rhf"
			},
			{
				"type": "unocc",
				"energy": 0.08003,
				"method": "rhf"
			}
		],
		"cosmo_sigma_profile": { 
			"-0.025": 0.0,
			"-0.024": 0.0,
			"-0.023": 0.0,
			"-0.022": 0.0,
			"-0.021": 0.0,
			"-0.02": 0.0,
			"-0.019": 0.224265456054,
			"-0.018": 0.691181379262,
			"-0.017": 1.2915502567,
			"-0.016": 0.466951497543,
			"-0.015": 0.600805725921,
			"-0.014": 0.832350075523,
			"-0.013": 0.259866837694,
			"-0.012": 0.741207532445,
			"-0.011": 1.08567119139,
			"-0.01": 0.286350996174,
			"-0.009": 0.4193490736,
			"-0.008": 2.58294336222,
			"-0.007": 6.81126079494,
			"-0.006": 11.9136021891,
			"-0.005": 12.4044368246,
			"-0.004": 14.3495787423,
			"-0.003": 15.1480406925,
			"-0.002": 11.7678285163,
			"-0.001": 10.9965775969,
			"0.0": 13.0886117489,
			"0.001": 20.1536313697,
			"0.002": 22.8971650989,
			"0.003": 11.8642274954,
			"0.004": 11.5830453686,
			"0.005": 9.96466920913,
			"0.006": 4.88946517786,
			"0.007": 4.65938697529,
			"0.008": 3.33733661954,
			"0.009": 3.03816618751,
			"0.01": 3.31526618864,
			"0.011": 4.45860716949,
			"0.012": 3.3958357626,
			"0.013": 0.00113202147585,
			"0.014": 0.0,
			"0.015": 0.0,
			"0.016": 0.0,
			"0.017": 0.0,
			"0.018": 0.0,
			"0.019": 0.0,
			"0.02": 0.0,
			"0.021": 0.0,
			"0.022": 0.0,
			"0.023": 0.0,
			"0.024": 0.0,
			"0.025": 0.0
		}
	}
}
