{
	 "smiles": "CC1=C(N)C=C(C=C1)S(N)(=O)=O", 
	 "Tm": 450.15, 
	 "num_atms": 22, 
	 "gaussian": { 
		 "optdone": 1, 
		 "sigma_profile": "yes", 
		 "theory": "DFT", 
		 "functional": "B3LYP", 
		 "basiset": "6-31G**", 
		 "properties": { 
			 "R2extent": 2988.7985, 
			 "electric_dipole_moment_norm": 7.67888540349, 
			 "electric_quadrupole_moment_norm": 7.60409687866, 
			 "total_energy": -930.850968298, 
			 "HOMO_LUMO_gap": 0.1898, 
			 "cosmo_polarized_energy": -22.68, 
			 "cosmo_cavitation_energy": 26.97, 
			 "cosmo_dispersion_energy": -20.37, 
			 "cosmo_repulsion_energy": 1.58, 
			 "cosmo_total_nonelectrostatic_energy": 8.18, 
			 "SMD_solvation_energy": 4.21 
		},
		"coords": [
			{
				"x": -1.0534811458,
				"y": -1.070592556,
				"z": 4.20778461,
				"element": "C" 
			},
			{
				"x": -0.9533593973,
				"y": -0.9146154569,
				"z": 2.7118418077,
				"element": "C" 
			},
			{
				"x": -0.9746951429,
				"y": 0.378047949,
				"z": 2.1319915343,
				"element": "C" 
			},
			{
				"x": -1.0379013167,
				"y": 1.5093809762,
				"z": 2.9406725729,
				"element": "N" 
			},
			{
				"x": -0.8651203572,
				"y": 0.5116429717,
				"z": 0.7392141124,
				"element": "C" 
			},
			{
				"x": -0.7285524346,
				"y": -0.6225411302,
				"z": -0.0574013482,
				"element": "C" 
			},
			{
				"x": -0.6960594364,
				"y": -1.9043255555,
				"z": 0.4913587869,
				"element": "C" 
			},
			{
				"x": -0.8125780438,
				"y": -2.0252514294,
				"z": 1.8762512929,
				"element": "C" 
			},
			{
				"x": -0.6345311856,
				"y": -0.4208764405,
				"z": -1.8413676669,
				"element": "S" 
			},
			{
				"x": -2.2060015124,
				"y": -0.596586186,
				"z": -2.4283783678,
				"element": "N" 
			},
			{
				"x": -0.2704831988,
				"y": 0.9694648809,
				"z": -2.1139024119,
				"element": "O" 
			},
			{
				"x": 0.1104776919,
				"y": -1.5577221963,
				"z": -2.3795157972,
				"element": "O" 
			},
			{
				"x": -0.9675786543,
				"y": -2.1192328453,
				"z": 4.5016276282,
				"element": "H" 
			},
			{
				"x": -2.0135876698,
				"y": -0.701874083,
				"z": 4.5963371412,
				"element": "H" 
			},
			{
				"x": -0.2625101708,
				"y": -0.5092509903,
				"z": 4.7204426403,
				"element": "H" 
			},
			{
				"x": -1.5061919901,
				"y": 1.4038815794,
				"z": 3.8286522225,
				"element": "H" 
			},
			{
				"x": -1.2821684679,
				"y": 2.3698059396,
				"z": 2.4715611609,
				"element": "H" 
			},
			{
				"x": -0.8534768422,
				"y": 1.4946982039,
				"z": 0.2783807181,
				"element": "H" 
			},
			{
				"x": -0.5530567133,
				"y": -2.7723730853,
				"z": -0.1418455795,
				"element": "H" 
			},
			{
				"x": -0.7812329266,
				"y": -3.0136932268,
				"z": 2.3274279256,
				"element": "H" 
			},
			{
				"x": -2.5745597611,
				"y": -1.5287955402,
				"z": -2.2657493336,
				"element": "H" 
			},
			{
				"x": -2.8269513242,
				"y": 0.131808221,
				"z": -2.089183649,
				"element": "H" 
			}
		],
		 "valence_orbital": [ 
			{
				"type": "occ",
				"energy": -0.30368,
				"method": "rhf"
			},
			{
				"type": "occ",
				"energy": -0.29649,
				"method": "rhf"
			},
			{
				"type": "occ",
				"energy": -0.29484,
				"method": "rhf"
			},
			{
				"type": "occ",
				"energy": -0.2584,
				"method": "rhf"
			},
			{
				"type": "occ",
				"energy": -0.21897,
				"method": "rhf"
			},
			{
				"type": "unocc",
				"energy": -0.02917,
				"method": "rhf"
			},
			{
				"type": "unocc",
				"energy": -0.00423,
				"method": "rhf"
			},
			{
				"type": "unocc",
				"energy": 0.05687,
				"method": "rhf"
			},
			{
				"type": "unocc",
				"energy": 0.06216,
				"method": "rhf"
			},
			{
				"type": "unocc",
				"energy": 0.08376,
				"method": "rhf"
			}
		],
		"cosmo_sigma_profile": { 
			"-0.025": 0.0,
			"-0.024": 0.0,
			"-0.023": 0.0,
			"-0.022": 0.0,
			"-0.021": 0.0,
			"-0.02": 0.0,
			"-0.019": 0.0,
			"-0.018": 0.0,
			"-0.017": 0.0,
			"-0.016": 0.00199901212256,
			"-0.015": 1.39177496515,
			"-0.014": 2.98503151992,
			"-0.013": 3.19295465158,
			"-0.012": 4.83705079907,
			"-0.011": 5.64679057449,
			"-0.01": 5.56303233252,
			"-0.009": 5.34705504656,
			"-0.008": 4.67537695164,
			"-0.007": 5.68068430672,
			"-0.006": 6.71991168311,
			"-0.005": 10.9130997305,
			"-0.004": 12.3681271214,
			"-0.003": 12.5739560465,
			"-0.002": 9.66789321625,
			"-0.001": 12.1156520215,
			"0.0": 11.6588916055,
			"0.001": 8.98310519822,
			"0.002": 8.73084131798,
			"0.003": 10.486074507,
			"0.004": 13.1029773552,
			"0.005": 9.11608536777,
			"0.006": 4.66204118366,
			"0.007": 4.33046179851,
			"0.008": 5.48703184279,
			"0.009": 5.48250337727,
			"0.01": 6.57352172417,
			"0.011": 11.1762625067,
			"0.012": 8.58629078106,
			"0.013": 1.02188289776,
			"0.014": 0.109049811343,
			"0.015": 0.0,
			"0.016": 0.0,
			"0.017": 0.0,
			"0.018": 0.0,
			"0.019": 0.0,
			"0.02": 0.0,
			"0.021": 0.0,
			"0.022": 0.0,
			"0.023": 0.0,
			"0.024": 0.0,
			"0.025": 0.0
		}
	}
}
