{
	 "smiles": "COC(=O)C1=C(N)C(C)=C(F)C=C1", 
	 "Tm": 309.15, 
	 "num_atms": 23, 
	 "gaussian": { 
		 "optdone": 1, 
		 "sigma_profile": "yes", 
		 "theory": "DFT", 
		 "functional": "B3LYP", 
		 "basiset": "6-31G**", 
		 "properties": { 
			 "R2extent": 3474.0885, 
			 "electric_dipole_moment_norm": 0.930001446235, 
			 "electric_quadrupole_moment_norm": 12.3736760334, 
			 "total_energy": -654.0491998, 
			 "HOMO_LUMO_gap": 0.17204, 
			 "cosmo_polarized_energy": -7.85, 
			 "cosmo_cavitation_energy": 26.75, 
			 "cosmo_dispersion_energy": -20.01, 
			 "cosmo_repulsion_energy": 1.55, 
			 "cosmo_total_nonelectrostatic_energy": 8.3, 
			 "SMD_solvation_energy": 6.36 
		},
		"coords": [
			{
				"x": -0.3115423429,
				"y": 2.9658676454,
				"z": 2.7810107618,
				"element": "C" 
			},
			{
				"x": 0.0325025795,
				"y": 1.9953731599,
				"z": 1.7830424603,
				"element": "O" 
			},
			{
				"x": 0.2608182682,
				"y": 0.7423706552,
				"z": 2.2439200559,
				"element": "C" 
			},
			{
				"x": 0.173647041,
				"y": 0.4812686671,
				"z": 3.4416708719,
				"element": "O" 
			},
			{
				"x": 0.6014879025,
				"y": -0.2124843164,
				"z": 1.177750293,
				"element": "C" 
			},
			{
				"x": 0.8858471795,
				"y": -1.5762255997,
				"z": 1.4967590691,
				"element": "C" 
			},
			{
				"x": 0.9050119777,
				"y": -2.0131778982,
				"z": 2.7881618045,
				"element": "N" 
			},
			{
				"x": 1.1841251227,
				"y": -2.4914858018,
				"z": 0.4490154859,
				"element": "C" 
			},
			{
				"x": 1.4960697269,
				"y": -3.9345942944,
				"z": 0.7476148735,
				"element": "C" 
			},
			{
				"x": 1.1891757481,
				"y": -2.005602173,
				"z": -0.848715862,
				"element": "C" 
			},
			{
				"x": 1.4723707676,
				"y": -2.8651367877,
				"z": -1.8543638801,
				"element": "F" 
			},
			{
				"x": 0.9230811031,
				"y": -0.6777900078,
				"z": -1.1917550071,
				"element": "C" 
			},
			{
				"x": 0.6319312962,
				"y": 0.2033933708,
				"z": -0.1670212071,
				"element": "C" 
			},
			{
				"x": 0.4900193043,
				"y": 3.0662941754,
				"z": 3.5172299399,
				"element": "H" 
			},
			{
				"x": -0.4538358837,
				"y": 3.9021208783,
				"z": 2.2409699382,
				"element": "H" 
			},
			{
				"x": -1.2300114249,
				"y": 2.6800600869,
				"z": 3.3001440836,
				"element": "H" 
			},
			{
				"x": 0.5872137417,
				"y": -1.3637486531,
				"z": 3.4980790154,
				"element": "H" 
			},
			{
				"x": 0.9169983374,
				"y": -3.0001371152,
				"z": 2.9784705913,
				"element": "H" 
			},
			{
				"x": 1.7346748871,
				"y": -4.4736915884,
				"z": -0.1691879245,
				"element": "H" 
			},
			{
				"x": 2.3526991397,
				"y": -4.0255468869,
				"z": 1.4274596043,
				"element": "H" 
			},
			{
				"x": 0.6457778541,
				"y": -4.4452867828,
				"z": 1.2200950429,
				"element": "H" 
			},
			{
				"x": 0.9487819604,
				"y": -0.3744697948,
				"z": -2.2313826864,
				"element": "H" 
			},
			{
				"x": 0.4153557137,
				"y": 1.2409290615,
				"z": -0.3896673243,
				"element": "H" 
			}
		],
		 "valence_orbital": [ 
			{
				"type": "occ",
				"energy": -0.31192,
				"method": "rhf"
			},
			{
				"type": "occ",
				"energy": -0.29841,
				"method": "rhf"
			},
			{
				"type": "occ",
				"energy": -0.27408,
				"method": "rhf"
			},
			{
				"type": "occ",
				"energy": -0.24246,
				"method": "rhf"
			},
			{
				"type": "occ",
				"energy": -0.20555,
				"method": "rhf"
			},
			{
				"type": "unocc",
				"energy": -0.03351,
				"method": "rhf"
			},
			{
				"type": "unocc",
				"energy": 0.01008,
				"method": "rhf"
			},
			{
				"type": "unocc",
				"energy": 0.06581,
				"method": "rhf"
			},
			{
				"type": "unocc",
				"energy": 0.08204,
				"method": "rhf"
			},
			{
				"type": "unocc",
				"energy": 0.10711,
				"method": "rhf"
			}
		],
		"cosmo_sigma_profile": { 
			"-0.025": 0.0,
			"-0.024": 0.0,
			"-0.023": 0.0,
			"-0.022": 0.0,
			"-0.021": 0.0,
			"-0.02": 0.0,
			"-0.019": 0.0,
			"-0.018": 0.0,
			"-0.017": 0.0,
			"-0.016": 0.0,
			"-0.015": 0.0,
			"-0.014": 0.0,
			"-0.013": 0.38112315081,
			"-0.012": 0.940313208306,
			"-0.011": 1.40057828053,
			"-0.01": 1.1819817514,
			"-0.009": 1.66277453104,
			"-0.008": 2.13349098007,
			"-0.007": 3.17985602524,
			"-0.006": 8.61373400522,
			"-0.005": 13.4979163386,
			"-0.004": 15.0017085018,
			"-0.003": 17.6114526301,
			"-0.002": 13.1113115144,
			"-0.001": 15.8164426366,
			"0.0": 17.2137883084,
			"0.001": 19.1142371373,
			"0.002": 18.3861227632,
			"0.003": 20.2641918592,
			"0.004": 18.9735988097,
			"0.005": 8.57255346107,
			"0.006": 3.37724623153,
			"0.007": 3.39694684024,
			"0.008": 1.70350238066,
			"0.009": 1.77554223733,
			"0.01": 2.13932484832,
			"0.011": 1.70383529332,
			"0.012": 1.59358798256,
			"0.013": 0.141915715979,
			"0.014": 0.0,
			"0.015": 0.0,
			"0.016": 0.0,
			"0.017": 0.0,
			"0.018": 0.0,
			"0.019": 0.0,
			"0.02": 0.0,
			"0.021": 0.0,
			"0.022": 0.0,
			"0.023": 0.0,
			"0.024": 0.0,
			"0.025": 0.0
		}
	}
}
