{
	 "smiles": "NNC(=S)NCCC1=NC=CC=C1", 
	 "Tm": 398.15, 
	 "num_atms": 25, 
	 "gaussian": { 
		 "optdone": 1, 
		 "sigma_profile": "yes", 
		 "theory": "DFT", 
		 "functional": "B3LYP", 
		 "basiset": "6-31G**", 
		 "properties": { 
			 "R2extent": 3884.6487, 
			 "electric_dipole_moment_norm": 6.24052248293, 
			 "electric_quadrupole_moment_norm": 31.6626041088, 
			 "total_energy": -929.265365378, 
			 "HOMO_LUMO_gap": 0.16036, 
			 "cosmo_polarized_energy": -19.47, 
			 "cosmo_cavitation_energy": 30.36, 
			 "cosmo_dispersion_energy": -22.17, 
			 "cosmo_repulsion_energy": 1.77, 
			 "cosmo_total_nonelectrostatic_energy": 9.96, 
			 "SMD_solvation_energy": 3.74 
		},
		"coords": [
			{
				"x": -1.7348001219,
				"y": -2.6848298851,
				"z": 1.6283384236,
				"element": "N" 
			},
			{
				"x": -2.8929656831,
				"y": -1.997331332,
				"z": 1.235494382,
				"element": "N" 
			},
			{
				"x": -2.9388067717,
				"y": -1.3151512346,
				"z": 0.0408000723,
				"element": "C" 
			},
			{
				"x": -4.4249085115,
				"y": -0.699762935,
				"z": -0.4825276158,
				"element": "S" 
			},
			{
				"x": -1.7616086712,
				"y": -1.1987006053,
				"z": -0.5937595891,
				"element": "N" 
			},
			{
				"x": -1.5371674869,
				"y": -0.413175268,
				"z": -1.794205062,
				"element": "C" 
			},
			{
				"x": -0.9688272732,
				"y": 0.9820939667,
				"z": -1.5048208988,
				"element": "C" 
			},
			{
				"x": 0.4410894096,
				"y": 0.9980635194,
				"z": -0.9435683229,
				"element": "C" 
			},
			{
				"x": 0.9698399524,
				"y": -0.165925325,
				"z": -0.5318976486,
				"element": "N" 
			},
			{
				"x": 2.2147825707,
				"y": -0.162158551,
				"z": -0.0341273411,
				"element": "C" 
			},
			{
				"x": 2.9960882852,
				"y": 0.9838313418,
				"z": 0.0827509739,
				"element": "C" 
			},
			{
				"x": 2.4479507938,
				"y": 2.1954656108,
				"z": -0.3433289928,
				"element": "C" 
			},
			{
				"x": 1.157993343,
				"y": 2.202598623,
				"z": -0.8624994764,
				"element": "C" 
			},
			{
				"x": -1.507612922,
				"y": -2.4518954781,
				"z": 2.590743352,
				"element": "H" 
			},
			{
				"x": -1.862887609,
				"y": -3.6920721322,
				"z": 1.5493404666,
				"element": "H" 
			},
			{
				"x": -3.7989683704,
				"y": -2.2330300883,
				"z": 1.6220789504,
				"element": "H" 
			},
			{
				"x": -0.9379208804,
				"y": -1.5431484653,
				"z": -0.1102053164,
				"element": "H" 
			},
			{
				"x": -0.8486977914,
				"y": -0.970033171,
				"z": -2.4378699632,
				"element": "H" 
			},
			{
				"x": -2.4959089121,
				"y": -0.3144143158,
				"z": -2.3061684263,
				"element": "H" 
			},
			{
				"x": -1.6462283945,
				"y": 1.497114085,
				"z": -0.8109532922,
				"element": "H" 
			},
			{
				"x": -0.985912871,
				"y": 1.5694564295,
				"z": -2.4321921901,
				"element": "H" 
			},
			{
				"x": 2.6020921049,
				"y": -1.1282585806,
				"z": 0.2850403244,
				"element": "H" 
			},
			{
				"x": 3.9993488493,
				"y": 0.9278096774,
				"z": 0.4926160726,
				"element": "H" 
			},
			{
				"x": 3.018934095,
				"y": 3.1171669757,
				"z": -0.2744374125,
				"element": "H" 
			},
			{
				"x": 0.7022028659,
				"y": 3.1264871378,
				"z": -1.2069414697,
				"element": "H" 
			}
		],
		 "valence_orbital": [ 
			{
				"type": "occ",
				"energy": -0.2661,
				"method": "rhf"
			},
			{
				"type": "occ",
				"energy": -0.25928,
				"method": "rhf"
			},
			{
				"type": "occ",
				"energy": -0.2445,
				"method": "rhf"
			},
			{
				"type": "occ",
				"energy": -0.19425,
				"method": "rhf"
			},
			{
				"type": "occ",
				"energy": -0.18899,
				"method": "rhf"
			},
			{
				"type": "unocc",
				"energy": -0.02863,
				"method": "rhf"
			},
			{
				"type": "unocc",
				"energy": -0.0169,
				"method": "rhf"
			},
			{
				"type": "unocc",
				"energy": 0.02334,
				"method": "rhf"
			},
			{
				"type": "unocc",
				"energy": 0.06204,
				"method": "rhf"
			},
			{
				"type": "unocc",
				"energy": 0.09016,
				"method": "rhf"
			}
		],
		"cosmo_sigma_profile": { 
			"-0.025": 0.0,
			"-0.024": 0.0,
			"-0.023": 0.0,
			"-0.022": 0.0,
			"-0.021": 0.0,
			"-0.02": 0.0,
			"-0.019": 0.0,
			"-0.018": 0.0,
			"-0.017": 0.0,
			"-0.016": 0.0,
			"-0.015": 0.0,
			"-0.014": 0.281540721687,
			"-0.013": 1.72992662322,
			"-0.012": 4.63132785047,
			"-0.011": 5.56258325532,
			"-0.01": 4.46221406299,
			"-0.009": 4.20029656815,
			"-0.008": 2.92210986576,
			"-0.007": 4.9359478463,
			"-0.006": 10.8133743596,
			"-0.005": 15.3555654707,
			"-0.004": 18.2567656541,
			"-0.003": 16.5546271891,
			"-0.002": 14.7989962076,
			"-0.001": 12.9144715493,
			"0.0": 13.6723567585,
			"0.001": 14.3901380029,
			"0.002": 15.8304010514,
			"0.003": 20.1902472572,
			"0.004": 12.0082112616,
			"0.005": 7.61150844553,
			"0.006": 4.91281087309,
			"0.007": 5.85351824806,
			"0.008": 4.96721795576,
			"0.009": 4.72828328021,
			"0.01": 4.02530403384,
			"0.011": 5.53532590822,
			"0.012": 7.85719431499,
			"0.013": 3.71379756618,
			"0.014": 0.0217852991972,
			"0.015": 0.0,
			"0.016": 0.0,
			"0.017": 0.0,
			"0.018": 0.0,
			"0.019": 0.0,
			"0.02": 0.0,
			"0.021": 0.0,
			"0.022": 0.0,
			"0.023": 0.0,
			"0.024": 0.0,
			"0.025": 0.0
		}
	}
}
