{
	 "smiles": "S1C=CC=C1C1=CC=CC=N1", 
	 "Tm": 336.15, 
	 "num_atms": 18, 
	 "gaussian": { 
		 "optdone": 1, 
		 "sigma_profile": "yes", 
		 "theory": "DFT", 
		 "functional": "B3LYP", 
		 "basiset": "6-31G**", 
		 "properties": { 
			 "R2extent": 2770.5144, 
			 "electric_dipole_moment_norm": 1.06285506067, 
			 "electric_quadrupole_moment_norm": 11.8831336212, 
			 "total_energy": -800.100912314, 
			 "HOMO_LUMO_gap": 0.16754, 
			 "cosmo_polarized_energy": -6.76, 
			 "cosmo_cavitation_energy": 23.64, 
			 "cosmo_dispersion_energy": -18.35, 
			 "cosmo_repulsion_energy": 1.4, 
			 "cosmo_total_nonelectrostatic_energy": 6.69, 
			 "SMD_solvation_energy": 3.0 
		},
		"coords": [
			{
				"x": 1.059893956,
				"y": -3.3621836982,
				"z": 0.0966982702,
				"element": "S" 
			},
			{
				"x": -0.2680039177,
				"y": -4.4317640932,
				"z": -0.2094644796,
				"element": "C" 
			},
			{
				"x": -1.3494226573,
				"y": -3.7620682231,
				"z": -0.7167185682,
				"element": "C" 
			},
			{
				"x": -1.1145565344,
				"y": -2.3669780618,
				"z": -0.8647219719,
				"element": "C" 
			},
			{
				"x": 0.145419017,
				"y": -1.978736779,
				"z": -0.4692928567,
				"element": "C" 
			},
			{
				"x": 0.6948955212,
				"y": -0.6177702159,
				"z": -0.4966662091,
				"element": "C" 
			},
			{
				"x": 2.0011884985,
				"y": -0.3202055654,
				"z": -0.0687313909,
				"element": "C" 
			},
			{
				"x": 2.4489459192,
				"y": 0.9954692394,
				"z": -0.1258890599,
				"element": "C" 
			},
			{
				"x": 1.5898877336,
				"y": 1.9834426363,
				"z": -0.6060481266,
				"element": "C" 
			},
			{
				"x": 0.3104608643,
				"y": 1.5939159403,
				"z": -1.008643253,
				"element": "C" 
			},
			{
				"x": -0.1358759332,
				"y": 0.3382343863,
				"z": -0.9610932624,
				"element": "N" 
			},
			{
				"x": -0.1697297901,
				"y": -5.4872758823,
				"z": 0.0032723753,
				"element": "H" 
			},
			{
				"x": -2.2825982159,
				"y": -4.2491261678,
				"z": -0.9760674961,
				"element": "H" 
			},
			{
				"x": -1.8317002816,
				"y": -1.651729619,
				"z": -1.246647365,
				"element": "H" 
			},
			{
				"x": 2.6529999013,
				"y": -1.1053580725,
				"z": 0.3016001724,
				"element": "H" 
			},
			{
				"x": 3.4547947463,
				"y": 1.2441972781,
				"z": 0.2002866046,
				"element": "H" 
			},
			{
				"x": 1.8963433,
				"y": 3.0223998557,
				"z": -0.6684238512,
				"element": "H" 
			},
			{
				"x": -0.3925421271,
				"y": 2.3333370422,
				"z": -1.3899495316,
				"element": "H" 
			}
		],
		 "valence_orbital": [ 
			{
				"type": "occ",
				"energy": -0.29194,
				"method": "rhf"
			},
			{
				"type": "occ",
				"energy": -0.2789,
				"method": "rhf"
			},
			{
				"type": "occ",
				"energy": -0.25585,
				"method": "rhf"
			},
			{
				"type": "occ",
				"energy": -0.25072,
				"method": "rhf"
			},
			{
				"type": "occ",
				"energy": -0.21516,
				"method": "rhf"
			},
			{
				"type": "unocc",
				"energy": -0.04762,
				"method": "rhf"
			},
			{
				"type": "unocc",
				"energy": -0.02009,
				"method": "rhf"
			},
			{
				"type": "unocc",
				"energy": 0.02466,
				"method": "rhf"
			},
			{
				"type": "unocc",
				"energy": 0.03043,
				"method": "rhf"
			},
			{
				"type": "unocc",
				"energy": 0.07849,
				"method": "rhf"
			}
		],
		"cosmo_sigma_profile": { 
			"-0.025": 0.0,
			"-0.024": 0.0,
			"-0.023": 0.0,
			"-0.022": 0.0,
			"-0.021": 0.0,
			"-0.02": 0.0,
			"-0.019": 0.0,
			"-0.018": 0.0,
			"-0.017": 0.0,
			"-0.016": 0.0,
			"-0.015": 0.0,
			"-0.014": 0.0,
			"-0.013": 0.0,
			"-0.012": 0.0,
			"-0.011": 0.0,
			"-0.01": 0.0,
			"-0.009": 0.789247718194,
			"-0.008": 2.14782881802,
			"-0.007": 7.3247213161,
			"-0.006": 13.6216568103,
			"-0.005": 13.9835439563,
			"-0.004": 13.7599442309,
			"-0.003": 10.4450618022,
			"-0.002": 10.2354056204,
			"-0.001": 11.219326734,
			"0.0": 11.7163643425,
			"0.001": 14.7874195902,
			"0.002": 21.6063739352,
			"0.003": 22.217180143,
			"0.004": 16.9246277583,
			"0.005": 10.6414931226,
			"0.006": 2.85887166799,
			"0.007": 1.65895250386,
			"0.008": 1.55488077674,
			"0.009": 1.74137616031,
			"0.01": 0.806130919368,
			"0.011": 1.44708137143,
			"0.012": 1.08592075079,
			"0.013": 0.39727114519,
			"0.014": 0.0,
			"0.015": 0.0,
			"0.016": 0.0,
			"0.017": 0.0,
			"0.018": 0.0,
			"0.019": 0.0,
			"0.02": 0.0,
			"0.021": 0.0,
			"0.022": 0.0,
			"0.023": 0.0,
			"0.024": 0.0,
			"0.025": 0.0
		}
	}
}
