{
	 "smiles": "CC(=O)C1=CC(=CC=C1)S(=O)(=O)NC(CC(N)=O)C(O)=O", 
	 "Tm": 465.15, 
	 "num_atms": 35, 
	 "gaussian": { 
		 "optdone": 1, 
		 "sigma_profile": "yes", 
		 "theory": "DFT", 
		 "functional": "B3LYP", 
		 "basiset": "6-31G**", 
		 "properties": { 
			 "R2extent": 8177.0002, 
			 "electric_dipole_moment_norm": 2.7435958631, 
			 "electric_quadrupole_moment_norm": 33.4485630203, 
			 "total_energy": -1424.7073398, 
			 "HOMO_LUMO_gap": 0.16845, 
			 "cosmo_polarized_energy": -29.1, 
			 "cosmo_cavitation_energy": 41.95, 
			 "cosmo_dispersion_energy": -28.15, 
			 "cosmo_repulsion_energy": 2.17, 
			 "cosmo_total_nonelectrostatic_energy": 15.97, 
			 "SMD_solvation_energy": 8.74 
		},
		"coords": [
			{
				"x": -1.4751421692,
				"y": -0.5942774286,
				"z": -3.2646054881,
				"element": "C" 
			},
			{
				"x": -0.5795858861,
				"y": 0.5699688451,
				"z": -3.643166316,
				"element": "C" 
			},
			{
				"x": -0.6096471192,
				"y": 1.0505852582,
				"z": -4.7641504835,
				"element": "O" 
			},
			{
				"x": 0.3566714887,
				"y": 1.1335211099,
				"z": -2.6077263071,
				"element": "C" 
			},
			{
				"x": 0.4381827682,
				"y": 0.6212865925,
				"z": -1.3060266973,
				"element": "C" 
			},
			{
				"x": 1.3309053697,
				"y": 1.1956675365,
				"z": -0.4026936013,
				"element": "C" 
			},
			{
				"x": 2.1583532939,
				"y": 2.2609359247,
				"z": -0.7657631625,
				"element": "C" 
			},
			{
				"x": 2.0740698563,
				"y": 2.766122108,
				"z": -2.0634767902,
				"element": "C" 
			},
			{
				"x": 1.1788023021,
				"y": 2.2094090456,
				"z": -2.9742384109,
				"element": "C" 
			},
			{
				"x": 1.4347553311,
				"y": 0.5464760745,
				"z": 1.2652693759,
				"element": "S" 
			},
			{
				"x": 2.8131870767,
				"y": 0.6913508263,
				"z": 1.7364779743,
				"element": "O" 
			},
			{
				"x": 0.7497650776,
				"y": -0.7582759962,
				"z": 1.2585699331,
				"element": "O" 
			},
			{
				"x": 0.5231010813,
				"y": 1.6358996589,
				"z": 2.1798340274,
				"element": "N" 
			},
			{
				"x": -0.844948236,
				"y": 1.2477827539,
				"z": 2.559811992,
				"element": "C" 
			},
			{
				"x": -0.9215987252,
				"y": 0.2616813043,
				"z": 3.7621122518,
				"element": "C" 
			},
			{
				"x": -2.1153231968,
				"y": -0.6915640805,
				"z": 3.6573344188,
				"element": "C" 
			},
			{
				"x": -1.9759717572,
				"y": -1.6283262007,
				"z": 2.672677143,
				"element": "N" 
			},
			{
				"x": -3.0998800204,
				"y": -0.6046489863,
				"z": 4.374269215,
				"element": "O" 
			},
			{
				"x": -1.6415936316,
				"y": 2.5203081862,
				"z": 2.8351137537,
				"element": "C" 
			},
			{
				"x": -1.0320924298,
				"y": 3.2832935685,
				"z": 3.7734916711,
				"element": "O" 
			},
			{
				"x": -2.685251258,
				"y": 2.8160561812,
				"z": 2.3070343274,
				"element": "O" 
			},
			{
				"x": -2.1386644058,
				"y": -0.325234981,
				"z": -2.4351287479,
				"element": "H" 
			},
			{
				"x": -0.8828580951,
				"y": -1.4584626994,
				"z": -2.94374504,
				"element": "H" 
			},
			{
				"x": -2.0753255165,
				"y": -0.869071829,
				"z": -4.1320599801,
				"element": "H" 
			},
			{
				"x": -0.1641399431,
				"y": -0.2217229713,
				"z": -0.9895783159,
				"element": "H" 
			},
			{
				"x": 2.8616850239,
				"y": 2.6714643401,
				"z": -0.0493878439,
				"element": "H" 
			},
			{
				"x": 2.7127741271,
				"y": 3.5913872032,
				"z": -2.3622585397,
				"element": "H" 
			},
			{
				"x": 1.098505489,
				"y": 2.58670415,
				"z": -3.9881722099,
				"element": "H" 
			},
			{
				"x": 1.0927268191,
				"y": 2.0036653198,
				"z": 2.9379624849,
				"element": "H" 
			},
			{
				"x": -1.3071281133,
				"y": 0.795156212,
				"z": 1.6824440986,
				"element": "H" 
			},
			{
				"x": -1.0019157279,
				"y": 0.8043188335,
				"z": 4.7054226455,
				"element": "H" 
			},
			{
				"x": 0.0000772956,
				"y": -0.3260044687,
				"z": 3.7750608078,
				"element": "H" 
			},
			{
				"x": -2.7138508301,
				"y": -2.3050937416,
				"z": 2.5519499793,
				"element": "H" 
			},
			{
				"x": -1.119411578,
				"y": -1.7165063045,
				"z": 2.1430542837,
				"element": "H" 
			},
			{
				"x": -1.5953337612,
				"y": 4.0638486551,
				"z": 3.9095875514,
				"element": "H" 
			}
		],
		 "valence_orbital": [ 
			{
				"type": "occ",
				"energy": -0.28827,
				"method": "rhf"
			},
			{
				"type": "occ",
				"energy": -0.27615,
				"method": "rhf"
			},
			{
				"type": "occ",
				"energy": -0.2677,
				"method": "rhf"
			},
			{
				"type": "occ",
				"energy": -0.26581,
				"method": "rhf"
			},
			{
				"type": "occ",
				"energy": -0.2478,
				"method": "rhf"
			},
			{
				"type": "unocc",
				"energy": -0.07935,
				"method": "rhf"
			},
			{
				"type": "unocc",
				"energy": -0.05212,
				"method": "rhf"
			},
			{
				"type": "unocc",
				"energy": -0.01551,
				"method": "rhf"
			},
			{
				"type": "unocc",
				"energy": 0.00829,
				"method": "rhf"
			},
			{
				"type": "unocc",
				"energy": 0.01758,
				"method": "rhf"
			}
		],
		"cosmo_sigma_profile": { 
			"-0.025": 0.0,
			"-0.024": 0.0,
			"-0.023": 0.0,
			"-0.022": 0.0,
			"-0.021": 0.0,
			"-0.02": 0.0,
			"-0.019": 0.504578115862,
			"-0.018": 1.15027608584,
			"-0.017": 0.771249871495,
			"-0.016": 0.703653264619,
			"-0.015": 1.01513840113,
			"-0.014": 2.36133921814,
			"-0.013": 2.29790130858,
			"-0.012": 2.24561980038,
			"-0.011": 3.22915524292,
			"-0.01": 4.01915352265,
			"-0.009": 3.7453825858,
			"-0.008": 7.53179200537,
			"-0.007": 17.7167841306,
			"-0.006": 21.3272999654,
			"-0.005": 18.9744368258,
			"-0.004": 21.1351998988,
			"-0.003": 20.5678947337,
			"-0.002": 20.8699363237,
			"-0.001": 20.9467099161,
			"0.0": 20.7729317642,
			"0.001": 24.2640777028,
			"0.002": 14.9148718435,
			"0.003": 10.7199143215,
			"0.004": 9.71304140127,
			"0.005": 9.50670317702,
			"0.006": 6.93465954942,
			"0.007": 6.60376625916,
			"0.008": 7.11371857475,
			"0.009": 8.77382001708,
			"0.01": 13.6959317245,
			"0.011": 13.1078660385,
			"0.012": 5.05318474872,
			"0.013": 5.38108250897,
			"0.014": 4.53250152988,
			"0.015": 0.796046859821,
			"0.016": 0.0,
			"0.017": 0.0,
			"0.018": 0.0,
			"0.019": 0.0,
			"0.02": 0.0,
			"0.021": 0.0,
			"0.022": 0.0,
			"0.023": 0.0,
			"0.024": 0.0,
			"0.025": 0.0
		}
	}
}
