{
	 "smiles": "OC(C(O)(C(F)(F)F)C(F)(F)F)(C(F)(F)F)C(F)(F)F", 
	 "Tm": 292.15, 
	 "num_atms": 22, 
	 "gaussian": { 
		 "optdone": 1, 
		 "sigma_profile": "yes", 
		 "theory": "DFT", 
		 "functional": "B3LYP", 
		 "basiset": "6-31G**", 
		 "properties": { 
			 "R2extent": 4155.342, 
			 "electric_dipole_moment_norm": 0.83196224674, 
			 "electric_quadrupole_moment_norm": 5.6593328105, 
			 "total_energy": -1578.34249539, 
			 "HOMO_LUMO_gap": 0.35826, 
			 "cosmo_polarized_energy": -7.42, 
			 "cosmo_cavitation_energy": 28.15, 
			 "cosmo_dispersion_energy": -19.99, 
			 "cosmo_repulsion_energy": 1.28, 
			 "cosmo_total_nonelectrostatic_energy": 9.44, 
			 "SMD_solvation_energy": 8.66 
		},
		"coords": [
			{
				"x": 1.269064912,
				"y": 0.8288847886,
				"z": -0.6811867052,
				"element": "O" 
			},
			{
				"x": 0.1579341192,
				"y": 0.7896128586,
				"z": 0.1678097844,
				"element": "C" 
			},
			{
				"x": -1.0870049615,
				"y": 0.5260112819,
				"z": -0.7900846199,
				"element": "C" 
			},
			{
				"x": -1.0000627736,
				"y": 1.5109082922,
				"z": -1.7797497971,
				"element": "O" 
			},
			{
				"x": -1.03193229,
				"y": -0.8744960918,
				"z": -1.5185947061,
				"element": "C" 
			},
			{
				"x": 0.1870544419,
				"y": -1.1980287499,
				"z": -1.9428705697,
				"element": "F" 
			},
			{
				"x": -1.8227607261,
				"y": -0.7972481814,
				"z": -2.6199958183,
				"element": "F" 
			},
			{
				"x": -1.5079594359,
				"y": -1.8705034315,
				"z": -0.7574692256,
				"element": "F" 
			},
			{
				"x": -2.4978582434,
				"y": 0.6680612813,
				"z": -0.1143334396,
				"element": "C" 
			},
			{
				"x": -2.6685618714,
				"y": 1.8950075202,
				"z": 0.3929135784,
				"element": "F" 
			},
			{
				"x": -3.4406351871,
				"y": 0.5036717896,
				"z": -1.0703303164,
				"element": "F" 
			},
			{
				"x": -2.7354420965,
				"y": -0.2259914884,
				"z": 0.8507338912,
				"element": "F" 
			},
			{
				"x": 0.0908573251,
				"y": 2.1801036295,
				"z": 0.9142434241,
				"element": "C" 
			},
			{
				"x": 1.3540352355,
				"y": 2.5063314165,
				"z": 1.2916477715,
				"element": "F" 
			},
			{
				"x": -0.6558469356,
				"y": 2.1324059431,
				"z": 2.026956652,
				"element": "F" 
			},
			{
				"x": -0.3468890286,
				"y": 3.1704942915,
				"z": 0.1408714319,
				"element": "F" 
			},
			{
				"x": 0.4300239452,
				"y": -0.3257028332,
				"z": 1.2399599858,
				"element": "C" 
			},
			{
				"x": 1.5608620548,
				"y": -0.0008018422,
				"z": 1.9072992009,
				"element": "F" 
			},
			{
				"x": -0.547629884,
				"y": -0.4700456995,
				"z": 2.1402701039,
				"element": "F" 
			},
			{
				"x": 0.6490491242,
				"y": -1.5111932161,
				"z": 0.6581450787,
				"element": "F" 
			},
			{
				"x": 2.0239625339,
				"y": 1.1419123885,
				"z": -0.161418243,
				"element": "H" 
			},
			{
				"x": -1.6451602583,
				"y": 1.2921060523,
				"z": -2.4682174617,
				"element": "H" 
			}
		],
		 "valence_orbital": [ 
			{
				"type": "occ",
				"energy": -0.41569,
				"method": "rhf"
			},
			{
				"type": "occ",
				"energy": -0.39631,
				"method": "rhf"
			},
			{
				"type": "occ",
				"energy": -0.3734,
				"method": "rhf"
			},
			{
				"type": "occ",
				"energy": -0.32439,
				"method": "rhf"
			},
			{
				"type": "occ",
				"energy": -0.32382,
				"method": "rhf"
			},
			{
				"type": "unocc",
				"energy": 0.03444,
				"method": "rhf"
			},
			{
				"type": "unocc",
				"energy": 0.05006,
				"method": "rhf"
			},
			{
				"type": "unocc",
				"energy": 0.06116,
				"method": "rhf"
			},
			{
				"type": "unocc",
				"energy": 0.09472,
				"method": "rhf"
			},
			{
				"type": "unocc",
				"energy": 0.09602,
				"method": "rhf"
			}
		],
		"cosmo_sigma_profile": { 
			"-0.025": 0.0,
			"-0.024": 0.0,
			"-0.023": 0.0,
			"-0.022": 0.0,
			"-0.021": 0.0,
			"-0.02": 0.0,
			"-0.019": 0.0,
			"-0.018": 0.340449340009,
			"-0.017": 1.30419245544,
			"-0.016": 1.04560573942,
			"-0.015": 1.2759669922,
			"-0.014": 1.34123844498,
			"-0.013": 1.06912487804,
			"-0.012": 1.80259527838,
			"-0.011": 1.82677025838,
			"-0.01": 1.27050265176,
			"-0.009": 1.48775454619,
			"-0.008": 2.21027326451,
			"-0.007": 1.98080692787,
			"-0.006": 2.8003123419,
			"-0.005": 2.03466724439,
			"-0.004": 2.53401487718,
			"-0.003": 4.86686785142,
			"-0.002": 10.3165092229,
			"-0.001": 15.5584415553,
			"0.0": 31.7218791454,
			"0.001": 85.8574060237,
			"0.002": 30.0612905591,
			"0.003": 3.91579913101,
			"0.004": 3.45847801082,
			"0.005": 2.1409816327,
			"0.006": 3.15921550185,
			"0.007": 3.30928864504,
			"0.008": 2.47033415825,
			"0.009": 1.44758702909,
			"0.01": 0.996813543599,
			"0.011": 1.07836457173,
			"0.012": 0.573354286328,
			"0.013": 0.00927575516483,
			"0.014": 0.0,
			"0.015": 0.0,
			"0.016": 0.0,
			"0.017": 0.0,
			"0.018": 0.0,
			"0.019": 0.0,
			"0.02": 0.0,
			"0.021": 0.0,
			"0.022": 0.0,
			"0.023": 0.0,
			"0.024": 0.0,
			"0.025": 0.0
		}
	}
}
