{
	 "smiles": "[O-][N+](=O)CC(C1=CC=CO1)C1=C(NC2=C1C=CC=C2)C1=CC=CC=C1", 
	 "Tm": 401.15, 
	 "num_atms": 41, 
	 "gaussian": { 
		 "optdone": 1, 
		 "sigma_profile": "yes", 
		 "theory": "DFT", 
		 "functional": "B3LYP", 
		 "basiset": "6-31G**", 
		 "properties": { 
			 "R2extent": 9276.9827, 
			 "electric_dipole_moment_norm": 5.45893583952, 
			 "electric_quadrupole_moment_norm": 26.548279229, 
			 "total_energy": -1106.83465929, 
			 "HOMO_LUMO_gap": 0.15125, 
			 "cosmo_polarized_energy": -16.55, 
			 "cosmo_cavitation_energy": 45.62, 
			 "cosmo_dispersion_energy": -30.25, 
			 "cosmo_repulsion_energy": 2.31, 
			 "cosmo_total_nonelectrostatic_energy": 17.68, 
			 "SMD_solvation_energy": 10.03 
		},
		"coords": [
			{
				"x": -4.2995896609,
				"y": 3.2304375352,
				"z": -1.8595266038,
				"element": "O" 
			},
			{
				"x": -3.7636378626,
				"y": 2.1292354229,
				"z": -1.8130022628,
				"element": "N" 
			},
			{
				"x": -4.0834095337,
				"y": 1.1501583453,
				"z": -2.4801811643,
				"element": "O" 
			},
			{
				"x": -2.6561708895,
				"y": 1.9500995794,
				"z": -0.7964850731,
				"element": "C" 
			},
			{
				"x": -1.4755416582,
				"y": 1.1178225292,
				"z": -1.3431157842,
				"element": "C" 
			},
			{
				"x": -0.6561463536,
				"y": 1.8863884565,
				"z": -2.3435960844,
				"element": "C" 
			},
			{
				"x": 0.6837708427,
				"y": 2.0514686199,
				"z": -2.5462941887,
				"element": "C" 
			},
			{
				"x": 0.8223607114,
				"y": 2.8749648375,
				"z": -3.7139428832,
				"element": "C" 
			},
			{
				"x": -0.4404563382,
				"y": 3.1520468626,
				"z": -4.1347783411,
				"element": "C" 
			},
			{
				"x": -1.3540359174,
				"y": 2.556132469,
				"z": -3.3137119131,
				"element": "O" 
			},
			{
				"x": -0.6335102217,
				"y": 0.5857783264,
				"z": -0.2082469604,
				"element": "C" 
			},
			{
				"x": -0.4264905949,
				"y": -0.7520409938,
				"z": 0.088474889,
				"element": "C" 
			},
			{
				"x": 0.2661117598,
				"y": -0.8407380345,
				"z": 1.2886100872,
				"element": "N" 
			},
			{
				"x": 0.5587488837,
				"y": 0.4222414099,
				"z": 1.7576271862,
				"element": "C" 
			},
			{
				"x": -0.0032450986,
				"y": 1.3526291637,
				"z": 0.8412266284,
				"element": "C" 
			},
			{
				"x": 0.1550292011,
				"y": 2.7283515406,
				"z": 1.0990204695,
				"element": "C" 
			},
			{
				"x": 0.8502221861,
				"y": 3.1286505764,
				"z": 2.2326700817,
				"element": "C" 
			},
			{
				"x": 1.3989090676,
				"y": 2.1846559098,
				"z": 3.1248791661,
				"element": "C" 
			},
			{
				"x": 1.262712401,
				"y": 0.8201163178,
				"z": 2.8986760533,
				"element": "C" 
			},
			{
				"x": -0.8189104533,
				"y": -1.9780552866,
				"z": -0.6215891501,
				"element": "C" 
			},
			{
				"x": -0.7111515997,
				"y": -2.0710003454,
				"z": -2.0207703327,
				"element": "C" 
			},
			{
				"x": -1.0779490727,
				"y": -3.2413674024,
				"z": -2.6831801158,
				"element": "C" 
			},
			{
				"x": -1.5422500691,
				"y": -4.3438984935,
				"z": -1.9630257105,
				"element": "C" 
			},
			{
				"x": -1.6410507321,
				"y": -4.2683863098,
				"z": -0.572082266,
				"element": "C" 
			},
			{
				"x": -1.2862012293,
				"y": -3.0963225505,
				"z": 0.093153746,
				"element": "C" 
			},
			{
				"x": -2.3827878183,
				"y": 2.9542695196,
				"z": -0.4800899414,
				"element": "H" 
			},
			{
				"x": -3.1273307529,
				"y": 1.4179494892,
				"z": 0.0335705615,
				"element": "H" 
			},
			{
				"x": -1.9436676133,
				"y": 0.2674374242,
				"z": -1.8525051648,
				"element": "H" 
			},
			{
				"x": 1.4727945979,
				"y": 1.6460975471,
				"z": -1.9310389936,
				"element": "H" 
			},
			{
				"x": 1.7415236465,
				"y": 3.2148461217,
				"z": -4.1690285905,
				"element": "H" 
			},
			{
				"x": -0.8487622957,
				"y": 3.7273013088,
				"z": -4.9509791309,
				"element": "H" 
			},
			{
				"x": 0.6634963475,
				"y": -1.6978529463,
				"z": 1.6395676995,
				"element": "H" 
			},
			{
				"x": -0.2376638902,
				"y": 3.4695656217,
				"z": 0.4101022185,
				"element": "H" 
			},
			{
				"x": 0.9805219237,
				"y": 4.1876844138,
				"z": 2.4343921801,
				"element": "H" 
			},
			{
				"x": 1.9393224278,
				"y": 2.5291751341,
				"z": 4.0014837844,
				"element": "H" 
			},
			{
				"x": 1.6864679454,
				"y": 0.090399957,
				"z": 3.58286556,
				"element": "H" 
			},
			{
				"x": -0.3126045544,
				"y": -1.2321692386,
				"z": -2.5828454732,
				"element": "H" 
			},
			{
				"x": -0.9887291835,
				"y": -3.2953468608,
				"z": -3.7641817094,
				"element": "H" 
			},
			{
				"x": -1.8238616736,
				"y": -5.2555644072,
				"z": -2.4814898626,
				"element": "H" 
			},
			{
				"x": -2.0063313363,
				"y": -5.11954595,
				"z": -0.0046515686,
				"element": "H" 
			},
			{
				"x": -1.3979055384,
				"y": -3.0332156198,
				"z": 1.1722189581,
				"element": "H" 
			}
		],
		 "valence_orbital": [ 
			{
				"type": "occ",
				"energy": -0.26762,
				"method": "rhf"
			},
			{
				"type": "occ",
				"energy": -0.26202,
				"method": "rhf"
			},
			{
				"type": "occ",
				"energy": -0.22492,
				"method": "rhf"
			},
			{
				"type": "occ",
				"energy": -0.22156,
				"method": "rhf"
			},
			{
				"type": "occ",
				"energy": -0.20675,
				"method": "rhf"
			},
			{
				"type": "unocc",
				"energy": -0.0555,
				"method": "rhf"
			},
			{
				"type": "unocc",
				"energy": -0.03984,
				"method": "rhf"
			},
			{
				"type": "unocc",
				"energy": -0.01432,
				"method": "rhf"
			},
			{
				"type": "unocc",
				"energy": 0.00317,
				"method": "rhf"
			},
			{
				"type": "unocc",
				"energy": 0.01339,
				"method": "rhf"
			}
		],
		"cosmo_sigma_profile": { 
			"-0.025": 0.0,
			"-0.024": 0.0,
			"-0.023": 0.0,
			"-0.022": 0.0,
			"-0.021": 0.0,
			"-0.02": 0.0,
			"-0.019": 0.0,
			"-0.018": 0.0,
			"-0.017": 0.0,
			"-0.016": 0.052313664999,
			"-0.015": 1.00052992068,
			"-0.014": 1.20120242083,
			"-0.013": 1.24971044013,
			"-0.012": 0.832348072174,
			"-0.011": 0.834904908742,
			"-0.01": 3.11399865825,
			"-0.009": 4.90926343866,
			"-0.008": 6.1014561949,
			"-0.007": 9.42780181125,
			"-0.006": 18.2102924121,
			"-0.005": 22.8702499117,
			"-0.004": 28.0068215513,
			"-0.003": 25.7593793167,
			"-0.002": 22.7470433696,
			"-0.001": 20.6276980281,
			"0.0": 21.6529233899,
			"0.001": 22.260985412,
			"0.002": 24.347848181,
			"0.003": 30.3886024454,
			"0.004": 27.3040587457,
			"0.005": 25.7178902611,
			"0.006": 17.0447014095,
			"0.007": 13.5487781439,
			"0.008": 9.24920278845,
			"0.009": 4.90711820061,
			"0.01": 2.08616718144,
			"0.011": 0.0527593208948,
			"0.012": 0.0,
			"0.013": 0.0,
			"0.014": 0.0,
			"0.015": 0.0,
			"0.016": 0.0,
			"0.017": 0.0,
			"0.018": 0.0,
			"0.019": 0.0,
			"0.02": 0.0,
			"0.021": 0.0,
			"0.022": 0.0,
			"0.023": 0.0,
			"0.024": 0.0,
			"0.025": 0.0
		}
	}
}
