{
	 "smiles": "NC(=O)CCCC(O)=O", 
	 "Tm": 357.15, 
	 "num_atms": 18, 
	 "gaussian": { 
		 "optdone": 1, 
		 "sigma_profile": "yes", 
		 "theory": "DFT", 
		 "functional": "B3LYP", 
		 "basiset": "6-31G**", 
		 "properties": { 
			 "R2extent": 1319.2037, 
			 "electric_dipole_moment_norm": 4.93165877266, 
			 "electric_quadrupole_moment_norm": 11.1051391094, 
			 "total_energy": -476.415756827, 
			 "HOMO_LUMO_gap": 0.26408, 
			 "cosmo_polarized_energy": -18.98, 
			 "cosmo_cavitation_energy": 21.78, 
			 "cosmo_dispersion_energy": -15.56, 
			 "cosmo_repulsion_energy": 1.32, 
			 "cosmo_total_nonelectrostatic_energy": 7.54, 
			 "SMD_solvation_energy": 5.29 
		},
		"coords": [
			{
				"x": 0.7442177533,
				"y": -3.114926359,
				"z": -0.0251348076,
				"element": "N" 
			},
			{
				"x": -0.0364309369,
				"y": -2.0279044049,
				"z": 0.2584335456,
				"element": "C" 
			},
			{
				"x": -0.3576065962,
				"y": -1.7381394271,
				"z": 1.4022105494,
				"element": "O" 
			},
			{
				"x": -0.5504502206,
				"y": -1.2662959374,
				"z": -0.9660476987,
				"element": "C" 
			},
			{
				"x": -1.0657417321,
				"y": 0.1389809214,
				"z": -0.6323257809,
				"element": "C" 
			},
			{
				"x": 0.0143933982,
				"y": 1.242182022,
				"z": -0.5604304055,
				"element": "C" 
			},
			{
				"x": 0.9898288837,
				"y": 1.082920082,
				"z": 0.5854069646,
				"element": "C" 
			},
			{
				"x": 1.9702435802,
				"y": 0.1841496269,
				"z": 0.2935152123,
				"element": "O" 
			},
			{
				"x": 0.9448472786,
				"y": 1.6693821696,
				"z": 1.6417180199,
				"element": "O" 
			},
			{
				"x": 1.150758328,
				"y": -3.2516293395,
				"z": -0.9364633506,
				"element": "H" 
			},
			{
				"x": 1.1380599043,
				"y": -3.6193774552,
				"z": 0.7550018913,
				"element": "H" 
			},
			{
				"x": 0.2222217824,
				"y": -1.2322187107,
				"z": -1.7441194982,
				"element": "H" 
			},
			{
				"x": -1.3745501478,
				"y": -1.8651428845,
				"z": -1.376037263,
				"element": "H" 
			},
			{
				"x": -1.7847956534,
				"y": 0.4440967244,
				"z": -1.3999377473,
				"element": "H" 
			},
			{
				"x": -1.6020910957,
				"y": 0.0920611378,
				"z": 0.3200466679,
				"element": "H" 
			},
			{
				"x": 0.5772169929,
				"y": 1.2674570348,
				"z": -1.500713736,
				"element": "H" 
			},
			{
				"x": -0.4722340653,
				"y": 2.2106162144,
				"z": -0.4232396756,
				"element": "H" 
			},
			{
				"x": 2.4979125464,
				"y": 0.099288585,
				"z": 1.1056171122,
				"element": "H" 
			}
		],
		 "valence_orbital": [ 
			{
				"type": "occ",
				"energy": -0.34208,
				"method": "rhf"
			},
			{
				"type": "occ",
				"energy": -0.30984,
				"method": "rhf"
			},
			{
				"type": "occ",
				"energy": -0.26961,
				"method": "rhf"
			},
			{
				"type": "occ",
				"energy": -0.26462,
				"method": "rhf"
			},
			{
				"type": "occ",
				"energy": -0.24948,
				"method": "rhf"
			},
			{
				"type": "unocc",
				"energy": 0.0146,
				"method": "rhf"
			},
			{
				"type": "unocc",
				"energy": 0.02847,
				"method": "rhf"
			},
			{
				"type": "unocc",
				"energy": 0.06977,
				"method": "rhf"
			},
			{
				"type": "unocc",
				"energy": 0.08685,
				"method": "rhf"
			},
			{
				"type": "unocc",
				"energy": 0.10637,
				"method": "rhf"
			}
		],
		"cosmo_sigma_profile": { 
			"-0.025": 0.0,
			"-0.024": 0.0,
			"-0.023": 0.0,
			"-0.022": 0.0,
			"-0.021": 0.0,
			"-0.02": 0.0,
			"-0.019": 0.0,
			"-0.018": 0.235051374131,
			"-0.017": 0.987316409927,
			"-0.016": 1.00764700508,
			"-0.015": 0.496260545584,
			"-0.014": 1.68307891546,
			"-0.013": 3.84544175659,
			"-0.012": 2.92061676341,
			"-0.011": 2.74032028553,
			"-0.01": 3.32911715173,
			"-0.009": 2.38308990525,
			"-0.008": 2.34746183235,
			"-0.007": 3.16843755962,
			"-0.006": 4.66509946831,
			"-0.005": 11.0367941446,
			"-0.004": 15.188652981,
			"-0.003": 16.4270957435,
			"-0.002": 14.0902309767,
			"-0.001": 10.2860517352,
			"0.0": 6.36592799123,
			"0.001": 3.86572292504,
			"0.002": 4.91088240237,
			"0.003": 4.66138271323,
			"0.004": 5.23417862969,
			"0.005": 4.77340310404,
			"0.006": 4.02475396893,
			"0.007": 4.97058004896,
			"0.008": 4.3336344964,
			"0.009": 4.13687671057,
			"0.01": 3.8354905323,
			"0.011": 5.17464246217,
			"0.012": 6.91991204596,
			"0.013": 4.10960292757,
			"0.014": 4.37812205167,
			"0.015": 0.942536364803,
			"0.016": 0.0,
			"0.017": 0.0,
			"0.018": 0.0,
			"0.019": 0.0,
			"0.02": 0.0,
			"0.021": 0.0,
			"0.022": 0.0,
			"0.023": 0.0,
			"0.024": 0.0,
			"0.025": 0.0
		}
	}
}
