{
	 "smiles": "OC1=C(C=CC=C1)C(=O)CCC1=CC=CC=C1", 
	 "Tm": 309.65, 
	 "num_atms": 31, 
	 "gaussian": { 
		 "optdone": 1, 
		 "sigma_profile": "yes", 
		 "theory": "DFT", 
		 "functional": "B3LYP", 
		 "basiset": "6-31G**", 
		 "properties": { 
			 "R2extent": 4538.4094, 
			 "electric_dipole_moment_norm": 4.40163130782, 
			 "electric_quadrupole_moment_norm": 16.9242306773, 
			 "total_energy": -730.481398651, 
			 "HOMO_LUMO_gap": 0.1811, 
			 "cosmo_polarized_energy": -15.22, 
			 "cosmo_cavitation_energy": 34.63, 
			 "cosmo_dispersion_energy": -23.96, 
			 "cosmo_repulsion_energy": 1.86, 
			 "cosmo_total_nonelectrostatic_energy": 12.53, 
			 "SMD_solvation_energy": 6.36 
		},
		"coords": [
			{
				"x": -0.1024262319,
				"y": 3.242624054,
				"z": 0.6676989632,
				"element": "O" 
			},
			{
				"x": -0.4652679166,
				"y": 2.4039331239,
				"z": 1.6850299823,
				"element": "C" 
			},
			{
				"x": 0.099251589,
				"y": 1.1122204976,
				"z": 1.7598579465,
				"element": "C" 
			},
			{
				"x": -0.2866456035,
				"y": 0.2956085044,
				"z": 2.8388641642,
				"element": "C" 
			},
			{
				"x": -1.2009963413,
				"y": 0.7133848223,
				"z": 3.7971233253,
				"element": "C" 
			},
			{
				"x": -1.7519258112,
				"y": 1.9941426069,
				"z": 3.7004783471,
				"element": "C" 
			},
			{
				"x": -1.3826443852,
				"y": 2.832598337,
				"z": 2.653970383,
				"element": "C" 
			},
			{
				"x": 1.1122787901,
				"y": 0.5176476329,
				"z": 0.8108649655,
				"element": "C" 
			},
			{
				"x": 1.7078592284,
				"y": -0.4965727037,
				"z": 1.1463596036,
				"element": "O" 
			},
			{
				"x": 1.3788744266,
				"y": 1.1260468639,
				"z": -0.5582004974,
				"element": "C" 
			},
			{
				"x": 0.1833417558,
				"y": 1.0047229924,
				"z": -1.5410420557,
				"element": "C" 
			},
			{
				"x": -0.1861451097,
				"y": -0.4218365112,
				"z": -1.8907561452,
				"element": "C" 
			},
			{
				"x": 0.5195348272,
				"y": -1.1204736308,
				"z": -2.8804152601,
				"element": "C" 
			},
			{
				"x": 0.195655573,
				"y": -2.4394096469,
				"z": -3.1977108969,
				"element": "C" 
			},
			{
				"x": -0.8460073831,
				"y": -3.0853413986,
				"z": -2.5283200534,
				"element": "C" 
			},
			{
				"x": -1.5582869227,
				"y": -2.4014828436,
				"z": -1.5424624155,
				"element": "C" 
			},
			{
				"x": -1.2300719119,
				"y": -1.0812358029,
				"z": -1.2288470326,
				"element": "C" 
			},
			{
				"x": -0.5675303067,
				"y": 4.0828829881,
				"z": 0.7734723065,
				"element": "H" 
			},
			{
				"x": 0.1699791838,
				"y": -0.68688992,
				"z": 2.890304519,
				"element": "H" 
			},
			{
				"x": -1.4817179403,
				"y": 0.0534114624,
				"z": 4.6116083542,
				"element": "H" 
			},
			{
				"x": -2.4672586114,
				"y": 2.3442533074,
				"z": 4.4391333896,
				"element": "H" 
			},
			{
				"x": -1.8031127399,
				"y": 3.834007779,
				"z": 2.5808033003,
				"element": "H" 
			},
			{
				"x": 1.6320934791,
				"y": 2.1840218295,
				"z": -0.449433793,
				"element": "H" 
			},
			{
				"x": 2.2440860391,
				"y": 0.5919426131,
				"z": -0.9596944965,
				"element": "H" 
			},
			{
				"x": -0.6821387459,
				"y": 1.5263760682,
				"z": -1.122547372,
				"element": "H" 
			},
			{
				"x": 0.4576614558,
				"y": 1.5448513562,
				"z": -2.4548706265,
				"element": "H" 
			},
			{
				"x": 1.3295828279,
				"y": -0.6231171644,
				"z": -3.4094727177,
				"element": "H" 
			},
			{
				"x": 0.7538082219,
				"y": -2.9619885265,
				"z": -3.9697422094,
				"element": "H" 
			},
			{
				"x": -1.1012489964,
				"y": -4.1119215832,
				"z": -2.7753203721,
				"element": "H" 
			},
			{
				"x": -2.3723101198,
				"y": -2.8940287575,
				"z": -1.0176682983,
				"element": "H" 
			},
			{
				"x": -1.79117232,
				"y": -0.5551783494,
				"z": -0.4602653083,
				"element": "H" 
			}
		],
		 "valence_orbital": [ 
			{
				"type": "occ",
				"energy": -0.25956,
				"method": "rhf"
			},
			{
				"type": "occ",
				"energy": -0.24149,
				"method": "rhf"
			},
			{
				"type": "occ",
				"energy": -0.24006,
				"method": "rhf"
			},
			{
				"type": "occ",
				"energy": -0.23603,
				"method": "rhf"
			},
			{
				"type": "occ",
				"energy": -0.23008,
				"method": "rhf"
			},
			{
				"type": "unocc",
				"energy": -0.04898,
				"method": "rhf"
			},
			{
				"type": "unocc",
				"energy": -0.00019,
				"method": "rhf"
			},
			{
				"type": "unocc",
				"energy": 0.00656,
				"method": "rhf"
			},
			{
				"type": "unocc",
				"energy": 0.00898,
				"method": "rhf"
			},
			{
				"type": "unocc",
				"energy": 0.039,
				"method": "rhf"
			}
		],
		"cosmo_sigma_profile": { 
			"-0.025": 0.0,
			"-0.024": 0.0,
			"-0.023": 0.0,
			"-0.022": 0.0,
			"-0.021": 0.0,
			"-0.02": 0.0,
			"-0.019": 0.16913226594,
			"-0.018": 0.83948139788,
			"-0.017": 1.26274231899,
			"-0.016": 1.09520988839,
			"-0.015": 1.12814717545,
			"-0.014": 0.792230382432,
			"-0.013": 0.925482590737,
			"-0.012": 0.739475547578,
			"-0.011": 1.50408368213,
			"-0.01": 1.17575089051,
			"-0.009": 0.611465340553,
			"-0.008": 1.37242958073,
			"-0.007": 2.300729073,
			"-0.006": 7.94871330366,
			"-0.005": 16.4374043567,
			"-0.004": 23.8873609664,
			"-0.003": 28.2451799462,
			"-0.002": 22.261083597,
			"-0.001": 20.716210549,
			"0.0": 19.0719445336,
			"0.001": 17.4263976561,
			"0.002": 18.4193866764,
			"0.003": 18.1241610091,
			"0.004": 21.458669891,
			"0.005": 15.1917695389,
			"0.006": 11.3564510653,
			"0.007": 6.47766711315,
			"0.008": 2.11218929018,
			"0.009": 1.77605360746,
			"0.01": 1.57865432541,
			"0.011": 2.61675611522,
			"0.012": 4.11462285609,
			"0.013": 2.06721725371,
			"0.014": 0.390526598265,
			"0.015": 0.0,
			"0.016": 0.0,
			"0.017": 0.0,
			"0.018": 0.0,
			"0.019": 0.0,
			"0.02": 0.0,
			"0.021": 0.0,
			"0.022": 0.0,
			"0.023": 0.0,
			"0.024": 0.0,
			"0.025": 0.0
		}
	}
}
