{
	 "smiles": "NC(=S)C1=CC=C(F)C=C1", 
	 "Tm": 423.15, 
	 "num_atms": 16, 
	 "gaussian": { 
		 "optdone": 1, 
		 "sigma_profile": "yes", 
		 "theory": "DFT", 
		 "functional": "B3LYP", 
		 "basiset": "6-31G**", 
		 "properties": { 
			 "R2extent": 2223.0177, 
			 "electric_dipole_moment_norm": 4.09972435781, 
			 "electric_quadrupole_moment_norm": 11.7125999415, 
			 "total_energy": -823.142729399, 
			 "HOMO_LUMO_gap": 0.14797, 
			 "cosmo_polarized_energy": -14.47, 
			 "cosmo_cavitation_energy": 22.47, 
			 "cosmo_dispersion_energy": -17.01, 
			 "cosmo_repulsion_energy": 1.31, 
			 "cosmo_total_nonelectrostatic_energy": 6.77, 
			 "SMD_solvation_energy": 3.54 
		},
		"coords": [
			{
				"x": -1.6707517623,
				"y": -0.6056470261,
				"z": 1.6702310151,
				"element": "N" 
			},
			{
				"x": -1.1560706937,
				"y": 0.4969949556,
				"z": 1.0752534699,
				"element": "C" 
			},
			{
				"x": -2.0932524187,
				"y": 1.8496127943,
				"z": 0.7963495135,
				"element": "S" 
			},
			{
				"x": 0.2725052275,
				"y": 0.3882789455,
				"z": 0.6721416436,
				"element": "C" 
			},
			{
				"x": 0.842648708,
				"y": -0.8528858927,
				"z": 0.3350041937,
				"element": "C" 
			},
			{
				"x": 2.1797904552,
				"y": -0.9500485836,
				"z": -0.0434551038,
				"element": "C" 
			},
			{
				"x": 2.9485568333,
				"y": 0.2080436489,
				"z": -0.073864231,
				"element": "C" 
			},
			{
				"x": 4.2431771428,
				"y": 0.1220606397,
				"z": -0.4314468629,
				"element": "F" 
			},
			{
				"x": 2.4170616148,
				"y": 1.454114479,
				"z": 0.2471958581,
				"element": "C" 
			},
			{
				"x": 1.0778302039,
				"y": 1.5380954261,
				"z": 0.6108341285,
				"element": "C" 
			},
			{
				"x": -2.6289415861,
				"y": -0.5664412917,
				"z": 1.9860593934,
				"element": "H" 
			},
			{
				"x": -1.0706811345,
				"y": -1.3227821041,
				"z": 2.0502233296,
				"element": "H" 
			},
			{
				"x": 0.2289762905,
				"y": -1.7484410494,
				"z": 0.3214972055,
				"element": "H" 
			},
			{
				"x": 2.6252624476,
				"y": -1.8983146555,
				"z": -0.323276383,
				"element": "H" 
			},
			{
				"x": 3.050890108,
				"y": 2.3331471529,
				"z": 0.2070197149,
				"element": "H" 
			},
			{
				"x": 0.6332985636,
				"y": 2.4964125611,
				"z": 0.855033115,
				"element": "H" 
			}
		],
		 "valence_orbital": [ 
			{
				"type": "occ",
				"energy": -0.35151,
				"method": "rhf"
			},
			{
				"type": "occ",
				"energy": -0.27518,
				"method": "rhf"
			},
			{
				"type": "occ",
				"energy": -0.26349,
				"method": "rhf"
			},
			{
				"type": "occ",
				"energy": -0.23172,
				"method": "rhf"
			},
			{
				"type": "occ",
				"energy": -0.21015,
				"method": "rhf"
			},
			{
				"type": "unocc",
				"energy": -0.06218,
				"method": "rhf"
			},
			{
				"type": "unocc",
				"energy": -0.02503,
				"method": "rhf"
			},
			{
				"type": "unocc",
				"energy": 0.01989,
				"method": "rhf"
			},
			{
				"type": "unocc",
				"energy": 0.06583,
				"method": "rhf"
			},
			{
				"type": "unocc",
				"energy": 0.08835,
				"method": "rhf"
			}
		],
		"cosmo_sigma_profile": { 
			"-0.025": 0.0,
			"-0.024": 0.0,
			"-0.023": 0.0,
			"-0.022": 0.0,
			"-0.021": 0.0,
			"-0.02": 0.0,
			"-0.019": 0.0,
			"-0.018": 0.0,
			"-0.017": 0.0,
			"-0.016": 0.152846208279,
			"-0.015": 1.90240313425,
			"-0.014": 2.75780125579,
			"-0.013": 2.01825200516,
			"-0.012": 2.59073140735,
			"-0.011": 2.86788800766,
			"-0.01": 2.39441070609,
			"-0.009": 1.62648897945,
			"-0.008": 4.77400503945,
			"-0.007": 6.70281463719,
			"-0.006": 7.47792579088,
			"-0.005": 7.9394755482,
			"-0.004": 6.43016698102,
			"-0.003": 6.80243523899,
			"-0.002": 7.29496323057,
			"-0.001": 10.3954870924,
			"0.0": 14.7198656508,
			"0.001": 13.6491691225,
			"0.002": 15.674166399,
			"0.003": 15.5676473493,
			"0.004": 13.9406514635,
			"0.005": 4.49644982425,
			"0.006": 3.9055936476,
			"0.007": 4.65316217049,
			"0.008": 6.85203458163,
			"0.009": 6.39468027718,
			"0.01": 3.92608589539,
			"0.011": 3.76072059271,
			"0.012": 1.32919248552,
			"0.013": 0.00558518232563,
			"0.014": 0.0,
			"0.015": 0.0,
			"0.016": 0.0,
			"0.017": 0.0,
			"0.018": 0.0,
			"0.019": 0.0,
			"0.02": 0.0,
			"0.021": 0.0,
			"0.022": 0.0,
			"0.023": 0.0,
			"0.024": 0.0,
			"0.025": 0.0
		}
	}
}
