{
	 "smiles": "CC(C)(C)OC(=O)NCC1=NNC=C1", 
	 "Tm": 378.15, 
	 "num_atms": 29, 
	 "gaussian": { 
		 "optdone": 1, 
		 "sigma_profile": "yes", 
		 "theory": "DFT", 
		 "functional": "B3LYP", 
		 "basiset": "6-31G**", 
		 "properties": { 
			 "R2extent": 4002.8762, 
			 "electric_dipole_moment_norm": 3.55620662504, 
			 "electric_quadrupole_moment_norm": 21.7912633289, 
			 "total_energy": -666.714657086, 
			 "HOMO_LUMO_gap": 0.25853, 
			 "cosmo_polarized_energy": -15.0, 
			 "cosmo_cavitation_energy": 32.19, 
			 "cosmo_dispersion_energy": -22.13, 
			 "cosmo_repulsion_energy": 1.76, 
			 "cosmo_total_nonelectrostatic_energy": 11.82, 
			 "SMD_solvation_energy": 5.38 
		},
		"coords": [
			{
				"x": -0.6575551009,
				"y": 2.5099556308,
				"z": -0.2008783738,
				"element": "C" 
			},
			{
				"x": -0.8195491417,
				"y": 1.0353555284,
				"z": -0.5859867334,
				"element": "C" 
			},
			{
				"x": -0.5770576452,
				"y": 0.8381204232,
				"z": -2.0848319224,
				"element": "C" 
			},
			{
				"x": -2.1876003751,
				"y": 0.4777165983,
				"z": -0.178122,
				"element": "C" 
			},
			{
				"x": 0.2545293897,
				"y": 0.2344495446,
				"z": 0.021193318,
				"element": "O" 
			},
			{
				"x": 0.4045667347,
				"y": 0.1868260447,
				"z": 1.3701438791,
				"element": "C" 
			},
			{
				"x": -0.3393860481,
				"y": 0.6976332157,
				"z": 2.1929125427,
				"element": "O" 
			},
			{
				"x": 1.5354765764,
				"y": -0.5035815042,
				"z": 1.7146524074,
				"element": "N" 
			},
			{
				"x": 2.3780026967,
				"y": -1.2951528667,
				"z": 0.8208787039,
				"element": "C" 
			},
			{
				"x": 1.954879359,
				"y": -2.734167954,
				"z": 0.6890053317,
				"element": "C" 
			},
			{
				"x": 2.7132383859,
				"y": -3.700386064,
				"z": 1.2120221839,
				"element": "N" 
			},
			{
				"x": 2.0463059985,
				"y": -4.8400304214,
				"z": 0.9324781648,
				"element": "N" 
			},
			{
				"x": 0.8880880053,
				"y": -4.6277501165,
				"z": 0.2521815644,
				"element": "C" 
			},
			{
				"x": 0.7917030988,
				"y": -3.2636946358,
				"z": 0.0732013412,
				"element": "C" 
			},
			{
				"x": -0.8094620118,
				"y": 2.6519704437,
				"z": 0.8692037166,
				"element": "H" 
			},
			{
				"x": 0.3431125883,
				"y": 2.8643241801,
				"z": -0.4682448179,
				"element": "H" 
			},
			{
				"x": -1.389078212,
				"y": 3.1147267325,
				"z": -0.7467255186,
				"element": "H" 
			},
			{
				"x": 0.4165791923,
				"y": 1.1985473626,
				"z": -2.3668161689,
				"element": "H" 
			},
			{
				"x": -1.3231830715,
				"y": 1.3920775895,
				"z": -2.6622960602,
				"element": "H" 
			},
			{
				"x": -0.6486352994,
				"y": -0.2200546242,
				"z": -2.353735828,
				"element": "H" 
			},
			{
				"x": -2.2594855914,
				"y": -0.5835079017,
				"z": -0.4381250195,
				"element": "H" 
			},
			{
				"x": -2.3484309014,
				"y": 0.5904214346,
				"z": 0.8939033976,
				"element": "H" 
			},
			{
				"x": -2.9777913742,
				"y": 1.0118267558,
				"z": -0.7160933299,
				"element": "H" 
			},
			{
				"x": 1.5925684125,
				"y": -0.6891044972,
				"z": 2.7056482798,
				"element": "H" 
			},
			{
				"x": 3.4020345067,
				"y": -1.2746180755,
				"z": 1.2047704852,
				"element": "H" 
			},
			{
				"x": 2.3731603762,
				"y": -0.8021654466,
				"z": -0.1524473502,
				"element": "H" 
			},
			{
				"x": 2.4365038514,
				"y": -5.7201848306,
				"z": 1.2302612313,
				"element": "H" 
			},
			{
				"x": 0.2436827531,
				"y": -5.4423417641,
				"z": -0.045276391,
				"element": "H" 
			},
			{
				"x": 0.0050828473,
				"y": -2.7175107819,
				"z": -0.4240770339,
				"element": "H" 
			}
		],
		 "valence_orbital": [ 
			{
				"type": "occ",
				"energy": -0.28418,
				"method": "rhf"
			},
			{
				"type": "occ",
				"energy": -0.26198,
				"method": "rhf"
			},
			{
				"type": "occ",
				"energy": -0.25295,
				"method": "rhf"
			},
			{
				"type": "occ",
				"energy": -0.24878,
				"method": "rhf"
			},
			{
				"type": "occ",
				"energy": -0.24064,
				"method": "rhf"
			},
			{
				"type": "unocc",
				"energy": 0.01789,
				"method": "rhf"
			},
			{
				"type": "unocc",
				"energy": 0.05043,
				"method": "rhf"
			},
			{
				"type": "unocc",
				"energy": 0.0713,
				"method": "rhf"
			},
			{
				"type": "unocc",
				"energy": 0.07456,
				"method": "rhf"
			},
			{
				"type": "unocc",
				"energy": 0.08365,
				"method": "rhf"
			}
		],
		"cosmo_sigma_profile": { 
			"-0.025": 0.0,
			"-0.024": 0.0,
			"-0.023": 0.0,
			"-0.022": 0.0,
			"-0.021": 0.0,
			"-0.02": 0.0,
			"-0.019": 0.0,
			"-0.018": 0.0,
			"-0.017": 0.241342217438,
			"-0.016": 1.66058644641,
			"-0.015": 1.5066115768,
			"-0.014": 1.62394501494,
			"-0.013": 2.18831970034,
			"-0.012": 1.39405624348,
			"-0.011": 1.63535694926,
			"-0.01": 2.87449561161,
			"-0.009": 3.02678842758,
			"-0.008": 3.91658667156,
			"-0.007": 3.07742876575,
			"-0.006": 3.82391380289,
			"-0.005": 6.49677833703,
			"-0.004": 17.8745779844,
			"-0.003": 24.5903384371,
			"-0.002": 19.8721628208,
			"-0.001": 21.4159913317,
			"0.0": 31.2486806213,
			"0.001": 26.6121328578,
			"0.002": 12.3861160739,
			"0.003": 10.0939718018,
			"0.004": 11.5303431502,
			"0.005": 10.7134900473,
			"0.006": 6.61804394742,
			"0.007": 3.27677455434,
			"0.008": 3.15778293506,
			"0.009": 2.44593642338,
			"0.01": 2.18378817925,
			"0.011": 2.7352358465,
			"0.012": 2.96582721146,
			"0.013": 3.31897224472,
			"0.014": 3.90568602498,
			"0.015": 1.41337922632,
			"0.016": 0.627755011148,
			"0.017": 0.0,
			"0.018": 0.0,
			"0.019": 0.0,
			"0.02": 0.0,
			"0.021": 0.0,
			"0.022": 0.0,
			"0.023": 0.0,
			"0.024": 0.0,
			"0.025": 0.0
		}
	}
}
