{
	 "smiles": "CN1N=NN=C1SC1=C(N)C=C(Cl)C=C1", 
	 "Tm": 402.15, 
	 "num_atms": 23, 
	 "gaussian": { 
		 "optdone": 1, 
		 "sigma_profile": "yes", 
		 "theory": "DFT", 
		 "functional": "B3LYP", 
		 "basiset": "6-31G**", 
		 "properties": { 
			 "R2extent": 5758.6914, 
			 "electric_dipole_moment_norm": 3.48983592021, 
			 "electric_quadrupole_moment_norm": 26.0215668164, 
			 "total_energy": -1441.75548735, 
			 "HOMO_LUMO_gap": 0.18539, 
			 "cosmo_polarized_energy": -14.51, 
			 "cosmo_cavitation_energy": 31.05, 
			 "cosmo_dispersion_energy": -23.14, 
			 "cosmo_repulsion_energy": 1.77, 
			 "cosmo_total_nonelectrostatic_energy": 9.68, 
			 "SMD_solvation_energy": 3.2 
		},
		"coords": [
			{
				"x": 0.5003673411,
				"y": -3.5724050824,
				"z": 1.7776339924,
				"element": "C" 
			},
			{
				"x": 1.2035267968,
				"y": -2.3338503701,
				"z": 1.481800707,
				"element": "N" 
			},
			{
				"x": 2.4803585264,
				"y": -2.1418320796,
				"z": 1.8893498113,
				"element": "N" 
			},
			{
				"x": 2.8243950621,
				"y": -0.9594198285,
				"z": 1.4922720802,
				"element": "N" 
			},
			{
				"x": 1.798646585,
				"y": -0.3486476676,
				"z": 0.8522272884,
				"element": "N" 
			},
			{
				"x": 0.7934211088,
				"y": -1.2129908677,
				"z": 0.841606187,
				"element": "C" 
			},
			{
				"x": -0.8270559797,
				"y": -0.9440695356,
				"z": 0.1903570935,
				"element": "S" 
			},
			{
				"x": -0.5411949865,
				"y": -0.5062044747,
				"z": -1.5290133091,
				"element": "C" 
			},
			{
				"x": 0.0223719182,
				"y": 0.7398092752,
				"z": -1.9121504113,
				"element": "C" 
			},
			{
				"x": 0.5220838999,
				"y": 1.6348700326,
				"z": -0.9928431486,
				"element": "N" 
			},
			{
				"x": 0.0185165364,
				"y": 1.0599575328,
				"z": -3.2868188242,
				"element": "C" 
			},
			{
				"x": -0.5200952421,
				"y": 0.1831591757,
				"z": -4.2170773701,
				"element": "C" 
			},
			{
				"x": -0.5019576943,
				"y": 0.6354206224,
				"z": -5.9151355736,
				"element": "Cl" 
			},
			{
				"x": -1.0607299174,
				"y": -1.0498955577,
				"z": -3.8479330078,
				"element": "C" 
			},
			{
				"x": -1.0578772344,
				"y": -1.3769634769,
				"z": -2.4956472462,
				"element": "C" 
			},
			{
				"x": 1.2331501687,
				"y": -4.378782319,
				"z": 1.7974351392,
				"element": "H" 
			},
			{
				"x": -0.2402388029,
				"y": -3.7519427215,
				"z": 0.9975115867,
				"element": "H" 
			},
			{
				"x": 0.0004522314,
				"y": -3.5084277013,
				"z": 2.7476908836,
				"element": "H" 
			},
			{
				"x": 1.0064294825,
				"y": 1.234814537,
				"z": -0.1914077616,
				"element": "H" 
			},
			{
				"x": 1.0152469842,
				"y": 2.421228727,
				"z": -1.3920255174,
				"element": "H" 
			},
			{
				"x": 0.4446119012,
				"y": 2.0020657891,
				"z": -3.6158155175,
				"element": "H" 
			},
			{
				"x": -1.4688227133,
				"y": -1.7241283386,
				"z": -4.5906305127,
				"element": "H" 
			},
			{
				"x": -1.4800059721,
				"y": -2.3236656706,
				"z": -2.1739865692,
				"element": "H" 
			}
		],
		 "valence_orbital": [ 
			{
				"type": "occ",
				"energy": -0.30733,
				"method": "rhf"
			},
			{
				"type": "occ",
				"energy": -0.29934,
				"method": "rhf"
			},
			{
				"type": "occ",
				"energy": -0.26942,
				"method": "rhf"
			},
			{
				"type": "occ",
				"energy": -0.25153,
				"method": "rhf"
			},
			{
				"type": "occ",
				"energy": -0.21926,
				"method": "rhf"
			},
			{
				"type": "unocc",
				"energy": -0.03387,
				"method": "rhf"
			},
			{
				"type": "unocc",
				"energy": -0.03186,
				"method": "rhf"
			},
			{
				"type": "unocc",
				"energy": -0.00812,
				"method": "rhf"
			},
			{
				"type": "unocc",
				"energy": -0.00652,
				"method": "rhf"
			},
			{
				"type": "unocc",
				"energy": 0.02477,
				"method": "rhf"
			}
		],
		"cosmo_sigma_profile": { 
			"-0.025": 0.0,
			"-0.024": 0.0,
			"-0.023": 0.0,
			"-0.022": 0.0,
			"-0.021": 0.0,
			"-0.02": 0.0,
			"-0.019": 0.0,
			"-0.018": 0.0,
			"-0.017": 0.0,
			"-0.016": 0.0,
			"-0.015": 0.0,
			"-0.014": 0.0579555901416,
			"-0.013": 1.39221003197,
			"-0.012": 2.00557742527,
			"-0.011": 1.51354405808,
			"-0.01": 1.42521255661,
			"-0.009": 2.35290602792,
			"-0.008": 7.83234808969,
			"-0.007": 13.1554238047,
			"-0.006": 14.7461755552,
			"-0.005": 17.4061771935,
			"-0.004": 14.4759918808,
			"-0.003": 10.5370373432,
			"-0.002": 13.2534836269,
			"-0.001": 11.9947343409,
			"0.0": 13.9187633471,
			"0.001": 17.3737499663,
			"0.002": 24.452432668,
			"0.003": 23.2558933233,
			"0.004": 18.7697171169,
			"0.005": 10.2363135247,
			"0.006": 5.34613858505,
			"0.007": 6.95851550377,
			"0.008": 6.49478817736,
			"0.009": 4.07948009635,
			"0.01": 4.04540333804,
			"0.011": 2.93777715925,
			"0.012": 2.2635644271,
			"0.013": 1.24514740196,
			"0.014": 0.118629019019,
			"0.015": 0.0,
			"0.016": 0.0,
			"0.017": 0.0,
			"0.018": 0.0,
			"0.019": 0.0,
			"0.02": 0.0,
			"0.021": 0.0,
			"0.022": 0.0,
			"0.023": 0.0,
			"0.024": 0.0,
			"0.025": 0.0
		}
	}
}
