{
	 "smiles": "OC(=O)C=CC1=CC=CC(Br)=C1", 
	 "Tm": 451.15, 
	 "num_atms": 19, 
	 "gaussian": { 
		 "optdone": 1, 
		 "sigma_profile": "yes", 
		 "theory": "DFT", 
		 "functional": "B3LYP", 
		 "basiset": "6-31G**", 
		 "properties": { 
			 "R2extent": 5269.6837, 
			 "electric_dipole_moment_norm": 3.5962303736, 
			 "electric_quadrupole_moment_norm": 19.7039696163, 
			 "total_energy": -3069.02175534, 
			 "HOMO_LUMO_gap": 0.16907, 
			 "cosmo_polarized_energy": -16.12, 
			 "cosmo_cavitation_energy": 26.87, 
			 "cosmo_dispersion_energy": -19.94, 
			 "cosmo_repulsion_energy": 1.59, 
			 "cosmo_total_nonelectrostatic_energy": 8.53, 
			 "SMD_solvation_energy": 4.79 
		},
		"coords": [
			{
				"x": -0.6583267933,
				"y": 0.1637696885,
				"z": 5.0529768659,
				"element": "O" 
			},
			{
				"x": -0.4855274278,
				"y": 0.7802484619,
				"z": 3.8509687141,
				"element": "C" 
			},
			{
				"x": -0.3054470285,
				"y": 1.976283462,
				"z": 3.8092809331,
				"element": "O" 
			},
			{
				"x": -0.5359400157,
				"y": -0.1053501777,
				"z": 2.6575773477,
				"element": "C" 
			},
			{
				"x": -0.3733841916,
				"y": 0.4242876663,
				"z": 1.4322398592,
				"element": "C" 
			},
			{
				"x": -0.387508405,
				"y": -0.2632860267,
				"z": 0.1405133386,
				"element": "C" 
			},
			{
				"x": -0.1961066915,
				"y": 0.4947497203,
				"z": -1.028116157,
				"element": "C" 
			},
			{
				"x": -0.200936907,
				"y": -0.1122013977,
				"z": -2.2822598446,
				"element": "C" 
			},
			{
				"x": -0.3964778895,
				"y": -1.4879707717,
				"z": -2.4005798789,
				"element": "C" 
			},
			{
				"x": -0.5865446874,
				"y": -2.2413053557,
				"z": -1.2396938981,
				"element": "C" 
			},
			{
				"x": -0.8556897312,
				"y": -4.1280921117,
				"z": -1.3866307077,
				"element": "Br" 
			},
			{
				"x": -0.5845918888,
				"y": -1.6522761343,
				"z": 0.0173513141,
				"element": "C" 
			},
			{
				"x": -0.7904056974,
				"y": -0.786497533,
				"z": 4.9309884952,
				"element": "H" 
			},
			{
				"x": -0.7047098889,
				"y": -1.1704094138,
				"z": 2.8029380617,
				"element": "H" 
			},
			{
				"x": -0.2110732842,
				"y": 1.500601585,
				"z": 1.4004531123,
				"element": "H" 
			},
			{
				"x": -0.0431307872,
				"y": 1.5667186345,
				"z": -0.9446027458,
				"element": "H" 
			},
			{
				"x": -0.0518927293,
				"y": 0.485913151,
				"z": -3.1759859343,
				"element": "H" 
			},
			{
				"x": -0.4020191365,
				"y": -1.9700328921,
				"z": -3.3712793924,
				"element": "H" 
			},
			{
				"x": -0.7352868194,
				"y": -2.2704505552,
				"z": 0.8942605169,
				"element": "H" 
			}
		],
		 "valence_orbital": [ 
			{
				"type": "occ",
				"energy": -0.30611,
				"method": "rhf"
			},
			{
				"type": "occ",
				"energy": -0.29858,
				"method": "rhf"
			},
			{
				"type": "occ",
				"energy": -0.27396,
				"method": "rhf"
			},
			{
				"type": "occ",
				"energy": -0.26269,
				"method": "rhf"
			},
			{
				"type": "occ",
				"energy": -0.2499,
				"method": "rhf"
			},
			{
				"type": "unocc",
				"energy": -0.08083,
				"method": "rhf"
			},
			{
				"type": "unocc",
				"energy": -0.02865,
				"method": "rhf"
			},
			{
				"type": "unocc",
				"energy": -0.00491,
				"method": "rhf"
			},
			{
				"type": "unocc",
				"energy": 0.00628,
				"method": "rhf"
			},
			{
				"type": "unocc",
				"energy": 0.05364,
				"method": "rhf"
			}
		],
		"cosmo_sigma_profile": { 
			"-0.025": 0.0,
			"-0.024": 0.0,
			"-0.023": 0.0,
			"-0.022": 0.0,
			"-0.021": 0.0,
			"-0.02": 0.0392442549554,
			"-0.019": 0.964132985708,
			"-0.018": 1.15783439882,
			"-0.017": 1.10603433927,
			"-0.016": 1.14138081155,
			"-0.015": 1.28000357495,
			"-0.014": 0.628368872163,
			"-0.013": 1.18056370703,
			"-0.012": 1.01179866718,
			"-0.011": 1.59347836252,
			"-0.01": 1.65795498227,
			"-0.009": 2.69280091471,
			"-0.008": 3.97344865481,
			"-0.007": 10.3523797823,
			"-0.006": 9.81352482782,
			"-0.005": 9.38548039573,
			"-0.004": 9.65580104097,
			"-0.003": 9.95475322822,
			"-0.002": 11.2530085488,
			"-0.001": 11.5743202726,
			"0.0": 15.2697559917,
			"0.001": 21.0865262638,
			"0.002": 26.0689943335,
			"0.003": 18.2794798995,
			"0.004": 13.4498225285,
			"0.005": 6.08187518123,
			"0.006": 2.35375907344,
			"0.007": 2.36246607667,
			"0.008": 2.78707936664,
			"0.009": 2.84646743841,
			"0.01": 3.82708841467,
			"0.011": 5.20233784441,
			"0.012": 5.75723675127,
			"0.013": 2.84250793576,
			"0.014": 0.410446112021,
			"0.015": 0.0,
			"0.016": 0.0,
			"0.017": 0.0,
			"0.018": 0.0,
			"0.019": 0.0,
			"0.02": 0.0,
			"0.021": 0.0,
			"0.022": 0.0,
			"0.023": 0.0,
			"0.024": 0.0,
			"0.025": 0.0
		}
	}
}
