{
	 "smiles": "OC(=O)C1=CC=C(O1)C1=C(F)C=CC=C1", 
	 "Tm": 447.15, 
	 "num_atms": 22, 
	 "gaussian": { 
		 "optdone": 1, 
		 "sigma_profile": "yes", 
		 "theory": "DFT", 
		 "functional": "B3LYP", 
		 "basiset": "6-31G**", 
		 "properties": { 
			 "R2extent": 5081.8728, 
			 "electric_dipole_moment_norm": 4.52319531968, 
			 "electric_quadrupole_moment_norm": 30.1626518285, 
			 "total_energy": -748.884047238, 
			 "HOMO_LUMO_gap": 0.16194, 
			 "cosmo_polarized_energy": -16.33, 
			 "cosmo_cavitation_energy": 27.97, 
			 "cosmo_dispersion_energy": -20.52, 
			 "cosmo_repulsion_energy": 1.56, 
			 "cosmo_total_nonelectrostatic_energy": 9.01, 
			 "SMD_solvation_energy": 6.86 
		},
		"coords": [
			{
				"x": -3.8919336737,
				"y": -4.4914846081,
				"z": 2.0691548448,
				"element": "O" 
			},
			{
				"x": -2.7069554564,
				"y": -3.8271763572,
				"z": 1.9712781826,
				"element": "C" 
			},
			{
				"x": -1.8334318095,
				"y": -4.0022246414,
				"z": 2.7859098114,
				"element": "O" 
			},
			{
				"x": -2.5873830302,
				"y": -2.9104047768,
				"z": 0.8234708105,
				"element": "C" 
			},
			{
				"x": -3.4109731706,
				"y": -2.5448803416,
				"z": -0.2144611294,
				"element": "C" 
			},
			{
				"x": -2.6925364584,
				"y": -1.6033585329,
				"z": -0.9963476358,
				"element": "C" 
			},
			{
				"x": -1.4653745139,
				"y": -1.4482721201,
				"z": -0.3867635208,
				"element": "C" 
			},
			{
				"x": -1.4032558247,
				"y": -2.2422354859,
				"z": 0.7174087702,
				"element": "O" 
			},
			{
				"x": -0.2825755677,
				"y": -0.6478663051,
				"z": -0.6703058018,
				"element": "C" 
			},
			{
				"x": -0.2168727227,
				"y": 0.2109197829,
				"z": -1.7776080773,
				"element": "C" 
			},
			{
				"x": -1.2829140495,
				"y": 0.2991180054,
				"z": -2.6073887242,
				"element": "F" 
			},
			{
				"x": 0.8995975359,
				"y": 0.9813265077,
				"z": -2.0651337766,
				"element": "C" 
			},
			{
				"x": 2.0090534986,
				"y": 0.9051913702,
				"z": -1.2225828695,
				"element": "C" 
			},
			{
				"x": 1.9815724896,
				"y": 0.0609225451,
				"z": -0.1092569593,
				"element": "C" 
			},
			{
				"x": 0.8519029754,
				"y": -0.7045079781,
				"z": 0.1627803629,
				"element": "C" 
			},
			{
				"x": -4.487778245,
				"y": -4.2487492096,
				"z": 1.3472147919,
				"element": "H" 
			},
			{
				"x": -4.4150639739,
				"y": -2.8966619603,
				"z": -0.4122107754,
				"element": "H" 
			},
			{
				"x": -3.0259726279,
				"y": -1.1018757796,
				"z": -1.8895514148,
				"element": "H" 
			},
			{
				"x": 0.8824423466,
				"y": 1.6242240439,
				"z": -2.9383464359,
				"element": "H" 
			},
			{
				"x": 2.8889040964,
				"y": 1.5035297813,
				"z": -1.4373669933,
				"element": "H" 
			},
			{
				"x": 2.8422781897,
				"y": -0.0014905467,
				"z": 0.5488324516,
				"element": "H" 
			},
			{
				"x": 0.827769992,
				"y": -1.3603433932,
				"z": 1.0257740885,
				"element": "H" 
			}
		],
		 "valence_orbital": [ 
			{
				"type": "occ",
				"energy": -0.30404,
				"method": "rhf"
			},
			{
				"type": "occ",
				"energy": -0.2969,
				"method": "rhf"
			},
			{
				"type": "occ",
				"energy": -0.27587,
				"method": "rhf"
			},
			{
				"type": "occ",
				"energy": -0.26158,
				"method": "rhf"
			},
			{
				"type": "occ",
				"energy": -0.2273,
				"method": "rhf"
			},
			{
				"type": "unocc",
				"energy": -0.06536,
				"method": "rhf"
			},
			{
				"type": "unocc",
				"energy": -0.01637,
				"method": "rhf"
			},
			{
				"type": "unocc",
				"energy": -0.01219,
				"method": "rhf"
			},
			{
				"type": "unocc",
				"energy": 0.04928,
				"method": "rhf"
			},
			{
				"type": "unocc",
				"energy": 0.05706,
				"method": "rhf"
			}
		],
		"cosmo_sigma_profile": { 
			"-0.025": 0.0,
			"-0.024": 0.0,
			"-0.023": 0.0,
			"-0.022": 0.0,
			"-0.021": 0.0,
			"-0.02": 0.0045806623387,
			"-0.019": 0.724413699839,
			"-0.018": 1.37839007869,
			"-0.017": 0.826348120522,
			"-0.016": 1.18411118665,
			"-0.015": 1.66491557688,
			"-0.014": 0.772067401409,
			"-0.013": 0.668376430988,
			"-0.012": 1.1928833027,
			"-0.011": 1.62981287629,
			"-0.01": 1.42681597905,
			"-0.009": 1.43479824164,
			"-0.008": 2.89213038304,
			"-0.007": 7.08392100922,
			"-0.006": 10.9873245481,
			"-0.005": 12.6754710435,
			"-0.004": 10.5019236208,
			"-0.003": 11.0857955576,
			"-0.002": 10.3392560416,
			"-0.001": 15.3187315077,
			"0.0": 26.0987966946,
			"0.001": 22.412723925,
			"0.002": 19.2935127884,
			"0.003": 18.5394774147,
			"0.004": 11.8469720521,
			"0.005": 2.86454105911,
			"0.006": 2.86694686468,
			"0.007": 2.42752217678,
			"0.008": 2.72246540445,
			"0.009": 4.01172804687,
			"0.01": 5.27549213585,
			"0.011": 5.42998391592,
			"0.012": 6.17804021082,
			"0.013": 2.17939457763,
			"0.014": 0.0455480857034,
			"0.015": 0.0,
			"0.016": 0.0,
			"0.017": 0.0,
			"0.018": 0.0,
			"0.019": 0.0,
			"0.02": 0.0,
			"0.021": 0.0,
			"0.022": 0.0,
			"0.023": 0.0,
			"0.024": 0.0,
			"0.025": 0.0
		}
	}
}
