{
	 "smiles": "NC1=CN=C(F)C=C1", 
	 "Tm": 364.15, 
	 "num_atms": 13, 
	 "gaussian": { 
		 "optdone": 1, 
		 "sigma_profile": "yes", 
		 "theory": "DFT", 
		 "functional": "B3LYP", 
		 "basiset": "6-31G**", 
		 "properties": { 
			 "R2extent": 2412.917, 
			 "electric_dipole_moment_norm": 4.37912448213, 
			 "electric_quadrupole_moment_norm": 14.6772002998, 
			 "total_energy": -402.881049124, 
			 "HOMO_LUMO_gap": 0.18677, 
			 "cosmo_polarized_energy": -11.27, 
			 "cosmo_cavitation_energy": 17.67, 
			 "cosmo_dispersion_energy": -13.27, 
			 "cosmo_repulsion_energy": 1.08, 
			 "cosmo_total_nonelectrostatic_energy": 5.48, 
			 "SMD_solvation_energy": 2.15 
		},
		"coords": [
			{
				"x": 0.4769809779,
				"y": 0.3424011967,
				"z": -1.1851124236,
				"element": "N" 
			},
			{
				"x": -0.5425701175,
				"y": -0.5826419509,
				"z": -1.4185619567,
				"element": "C" 
			},
			{
				"x": -1.4030062865,
				"y": -0.9968770998,
				"z": -0.3897338694,
				"element": "C" 
			},
			{
				"x": -2.4307298891,
				"y": -1.8346279638,
				"z": -0.5703923567,
				"element": "N" 
			},
			{
				"x": -2.6356464722,
				"y": -2.2909704339,
				"z": -1.7850367387,
				"element": "C" 
			},
			{
				"x": -3.6726916137,
				"y": -3.1355870014,
				"z": -1.9459983918,
				"element": "F" 
			},
			{
				"x": -1.8604389998,
				"y": -1.9668203089,
				"z": -2.8974892946,
				"element": "C" 
			},
			{
				"x": -0.796870313,
				"y": -1.0949689459,
				"z": -2.7034655074,
				"element": "C" 
			},
			{
				"x": 1.2630706442,
				"y": 0.2827553982,
				"z": -1.8178952928,
				"element": "H" 
			},
			{
				"x": 0.7804678914,
				"y": 0.4056279735,
				"z": -0.2226539726,
				"element": "H" 
			},
			{
				"x": -1.2528042566,
				"y": -0.6302632272,
				"z": 0.6252827457,
				"element": "H" 
			},
			{
				"x": -2.0903156576,
				"y": -2.38629803,
				"z": -3.8701608177,
				"element": "H" 
			},
			{
				"x": -0.1665459075,
				"y": -0.8060296067,
				"z": -3.5404821238,
				"element": "H" 
			}
		],
		 "valence_orbital": [ 
			{
				"type": "occ",
				"energy": -0.37344,
				"method": "rhf"
			},
			{
				"type": "occ",
				"energy": -0.32743,
				"method": "rhf"
			},
			{
				"type": "occ",
				"energy": -0.28337,
				"method": "rhf"
			},
			{
				"type": "occ",
				"energy": -0.26992,
				"method": "rhf"
			},
			{
				"type": "occ",
				"energy": -0.21354,
				"method": "rhf"
			},
			{
				"type": "unocc",
				"energy": -0.02677,
				"method": "rhf"
			},
			{
				"type": "unocc",
				"energy": 0.01046,
				"method": "rhf"
			},
			{
				"type": "unocc",
				"energy": 0.06966,
				"method": "rhf"
			},
			{
				"type": "unocc",
				"energy": 0.09991,
				"method": "rhf"
			},
			{
				"type": "unocc",
				"energy": 0.12182,
				"method": "rhf"
			}
		],
		"cosmo_sigma_profile": { 
			"-0.025": 0.0,
			"-0.024": 0.0,
			"-0.023": 0.0,
			"-0.022": 0.0,
			"-0.021": 0.0,
			"-0.02": 0.0,
			"-0.019": 0.0,
			"-0.018": 0.0,
			"-0.017": 0.0,
			"-0.016": 0.0,
			"-0.015": 0.0,
			"-0.014": 0.0,
			"-0.013": 1.52076316971,
			"-0.012": 3.33648637384,
			"-0.011": 3.30868218275,
			"-0.01": 3.14182916691,
			"-0.009": 3.11417345629,
			"-0.008": 4.91455003337,
			"-0.007": 6.65433865575,
			"-0.006": 6.05579111808,
			"-0.005": 7.1339025912,
			"-0.004": 4.44068013758,
			"-0.003": 4.61101062404,
			"-0.002": 4.02742929058,
			"-0.001": 5.87041600092,
			"0.0": 7.86828425348,
			"0.001": 11.2311109963,
			"0.002": 12.0621015978,
			"0.003": 11.4273437473,
			"0.004": 10.9973138235,
			"0.005": 8.93902393211,
			"0.006": 3.51031452112,
			"0.007": 3.05794356116,
			"0.008": 1.84688921996,
			"0.009": 2.66624764805,
			"0.01": 1.91571769278,
			"0.011": 1.66615679182,
			"0.012": 1.67196469475,
			"0.013": 1.91409960529,
			"0.014": 1.52023431055,
			"0.015": 0.711443002334,
			"0.016": 0.172024086761,
			"0.017": 0.0,
			"0.018": 0.0,
			"0.019": 0.0,
			"0.02": 0.0,
			"0.021": 0.0,
			"0.022": 0.0,
			"0.023": 0.0,
			"0.024": 0.0,
			"0.025": 0.0
		}
	}
}
