{
	 "smiles": "C(N1CCNCC1)C1=CC2=C(OCO2)C=C1", 
	 "Tm": 316.15, 
	 "num_atms": 32, 
	 "gaussian": { 
		 "optdone": 1, 
		 "sigma_profile": "yes", 
		 "theory": "DFT", 
		 "functional": "B3LYP", 
		 "basiset": "6-31G**", 
		 "properties": { 
			 "R2extent": 5646.9239, 
			 "electric_dipole_moment_norm": 1.26274970204, 
			 "electric_quadrupole_moment_norm": 10.3445934608, 
			 "total_energy": -726.824613305, 
			 "HOMO_LUMO_gap": 0.20008, 
			 "cosmo_polarized_energy": -9.46, 
			 "cosmo_cavitation_energy": 33.09, 
			 "cosmo_dispersion_energy": -24.59, 
			 "cosmo_repulsion_energy": 1.92, 
			 "cosmo_total_nonelectrostatic_energy": 10.42, 
			 "SMD_solvation_energy": 2.12 
		},
		"coords": [
			{
				"x": 0.4496897861,
				"y": 0.9160312415,
				"z": -1.3653111577,
				"element": "C" 
			},
			{
				"x": 0.251578646,
				"y": 1.5622419037,
				"z": -0.0656602047,
				"element": "N" 
			},
			{
				"x": -0.5107707276,
				"y": 0.759552858,
				"z": 0.9016071942,
				"element": "C" 
			},
			{
				"x": -2.0276219614,
				"y": 0.7977053162,
				"z": 0.6617823493,
				"element": "C" 
			},
			{
				"x": -2.4725029042,
				"y": 2.1943742517,
				"z": 0.666753329,
				"element": "N" 
			},
			{
				"x": -1.8063802313,
				"y": 2.9712818237,
				"z": -0.3813417399,
				"element": "C" 
			},
			{
				"x": -0.2907928232,
				"y": 2.9232876342,
				"z": -0.1339615801,
				"element": "C" 
			},
			{
				"x": 1.4036073468,
				"y": -0.2643167621,
				"z": -1.2891636234,
				"element": "C" 
			},
			{
				"x": 2.6001378736,
				"y": -0.1427884876,
				"z": -0.5472208874,
				"element": "C" 
			},
			{
				"x": 3.4610848189,
				"y": -1.2188959039,
				"z": -0.5554961852,
				"element": "C" 
			},
			{
				"x": 3.1811178684,
				"y": -2.390269234,
				"z": -1.2586496918,
				"element": "C" 
			},
			{
				"x": 4.1951180052,
				"y": -3.3003844767,
				"z": -1.0665040995,
				"element": "O" 
			},
			{
				"x": 5.215658713,
				"y": -2.5931718309,
				"z": -0.3532117293,
				"element": "C" 
			},
			{
				"x": 4.6633309535,
				"y": -1.3543845692,
				"z": 0.1018821865,
				"element": "O" 
			},
			{
				"x": 2.0173885633,
				"y": -2.5373527187,
				"z": -1.9843737224,
				"element": "C" 
			},
			{
				"x": 1.1281312399,
				"y": -1.4448601429,
				"z": -1.9832259952,
				"element": "C" 
			},
			{
				"x": 0.8771647036,
				"y": 1.6776597649,
				"z": -2.0318315049,
				"element": "H" 
			},
			{
				"x": -0.4836220192,
				"y": 0.5806368591,
				"z": -1.8507192009,
				"element": "H" 
			},
			{
				"x": -0.3114463602,
				"y": 1.1619098836,
				"z": 1.9028320898,
				"element": "H" 
			},
			{
				"x": -0.1424552772,
				"y": -0.2701933459,
				"z": 0.8737536388,
				"element": "H" 
			},
			{
				"x": -2.5393676843,
				"y": 0.257799976,
				"z": 1.4668893929,
				"element": "H" 
			},
			{
				"x": -2.2677185679,
				"y": 0.2752768495,
				"z": -0.2845875719,
				"element": "H" 
			},
			{
				"x": -3.4803977772,
				"y": 2.2396787819,
				"z": 0.5474607283,
				"element": "H" 
			},
			{
				"x": -2.0268786362,
				"y": 2.5985605076,
				"z": -1.4009236395,
				"element": "H" 
			},
			{
				"x": -2.1556790485,
				"y": 4.0093774408,
				"z": -0.3325122376,
				"element": "H" 
			},
			{
				"x": -0.0893877301,
				"y": 3.4118423164,
				"z": 0.8282568043,
				"element": "H" 
			},
			{
				"x": 0.2423030895,
				"y": 3.4807678919,
				"z": -0.9121344678,
				"element": "H" 
			},
			{
				"x": 2.8081173388,
				"y": 0.7594699897,
				"z": 0.0158534318,
				"element": "H" 
			},
			{
				"x": 5.5371192026,
				"y": -3.1879969823,
				"z": 0.5075124995,
				"element": "H" 
			},
			{
				"x": 6.0626561867,
				"y": -2.393348213,
				"z": -1.0263215518,
				"element": "H" 
			},
			{
				"x": 1.7970620101,
				"y": -3.4538103361,
				"z": -2.5201721772,
				"element": "H" 
			},
			{
				"x": 0.2007554028,
				"y": -1.5243822868,
				"z": -2.5439606761,
				"element": "H" 
			}
		],
		 "valence_orbital": [ 
			{
				"type": "occ",
				"energy": -0.30176,
				"method": "rhf"
			},
			{
				"type": "occ",
				"energy": -0.23917,
				"method": "rhf"
			},
			{
				"type": "occ",
				"energy": -0.22637,
				"method": "rhf"
			},
			{
				"type": "occ",
				"energy": -0.20081,
				"method": "rhf"
			},
			{
				"type": "occ",
				"energy": -0.19661,
				"method": "rhf"
			},
			{
				"type": "unocc",
				"energy": 0.00347,
				"method": "rhf"
			},
			{
				"type": "unocc",
				"energy": 0.01552,
				"method": "rhf"
			},
			{
				"type": "unocc",
				"energy": 0.07792,
				"method": "rhf"
			},
			{
				"type": "unocc",
				"energy": 0.10322,
				"method": "rhf"
			},
			{
				"type": "unocc",
				"energy": 0.11147,
				"method": "rhf"
			}
		],
		"cosmo_sigma_profile": { 
			"-0.025": 0.0,
			"-0.024": 0.0,
			"-0.023": 0.0,
			"-0.022": 0.0,
			"-0.021": 0.0,
			"-0.02": 0.0,
			"-0.019": 0.0,
			"-0.018": 0.0,
			"-0.017": 0.0,
			"-0.016": 0.0,
			"-0.015": 0.0,
			"-0.014": 0.0,
			"-0.013": 0.0,
			"-0.012": 0.0,
			"-0.011": 0.0,
			"-0.01": 0.696857154861,
			"-0.009": 1.19897551545,
			"-0.008": 3.17345367232,
			"-0.007": 7.33951771338,
			"-0.006": 10.4419634498,
			"-0.005": 10.9068895476,
			"-0.004": 17.4515760283,
			"-0.003": 22.8037294169,
			"-0.002": 32.641725464,
			"-0.001": 33.7185833431,
			"0.0": 23.4891812468,
			"0.001": 13.5713994671,
			"0.002": 12.6545716309,
			"0.003": 17.2270665233,
			"0.004": 13.4545137127,
			"0.005": 10.5896408474,
			"0.006": 5.33285237667,
			"0.007": 4.78736638624,
			"0.008": 4.25789686817,
			"0.009": 5.03221696082,
			"0.01": 3.64008507014,
			"0.011": 1.47105971649,
			"0.012": 0.888305534109,
			"0.013": 0.307264749644,
			"0.014": 0.235651461854,
			"0.015": 0.487002117447,
			"0.016": 0.725457107245,
			"0.017": 0.438224592542,
			"0.018": 0.350308693808,
			"0.019": 0.132957672906,
			"0.02": 0.0,
			"0.021": 0.0,
			"0.022": 0.0,
			"0.023": 0.0,
			"0.024": 0.0,
			"0.025": 0.0
		}
	}
}
