{
	 "smiles": "O=CC1=CC=CC=C1OCC1=CC=CC=C1", 
	 "Tm": 320.15, 
	 "num_atms": 28, 
	 "gaussian": { 
		 "optdone": 1, 
		 "sigma_profile": "yes", 
		 "theory": "DFT", 
		 "functional": "B3LYP", 
		 "basiset": "6-31G**", 
		 "properties": { 
			 "R2extent": 5137.0248, 
			 "electric_dipole_moment_norm": 4.90589512118, 
			 "electric_quadrupole_moment_norm": 20.5685557057, 
			 "total_energy": -691.151795883, 
			 "HOMO_LUMO_gap": 0.17755, 
			 "cosmo_polarized_energy": -10.37, 
			 "cosmo_cavitation_energy": 32.37, 
			 "cosmo_dispersion_energy": -22.83, 
			 "cosmo_repulsion_energy": 1.78, 
			 "cosmo_total_nonelectrostatic_energy": 11.32, 
			 "SMD_solvation_energy": 6.68 
		},
		"coords": [
			{
				"x": -4.8003444479,
				"y": 2.9791187523,
				"z": 2.018251684,
				"element": "O" 
			},
			{
				"x": -4.0284189807,
				"y": 2.3456923654,
				"z": 1.3169620249,
				"element": "C" 
			},
			{
				"x": -3.4035842399,
				"y": 1.0702543123,
				"z": 1.734818245,
				"element": "C" 
			},
			{
				"x": -3.7187604462,
				"y": 0.5382004863,
				"z": 2.9930897467,
				"element": "C" 
			},
			{
				"x": -3.1667884958,
				"y": -0.661772355,
				"z": 3.4247905783,
				"element": "C" 
			},
			{
				"x": -2.2781941302,
				"y": -1.340076616,
				"z": 2.5856449185,
				"element": "C" 
			},
			{
				"x": -1.9417316247,
				"y": -0.8345888208,
				"z": 1.3292920422,
				"element": "C" 
			},
			{
				"x": -2.5054333926,
				"y": 0.3719086653,
				"z": 0.8946041456,
				"element": "C" 
			},
			{
				"x": -2.2476627833,
				"y": 0.9436773414,
				"z": -0.3182348372,
				"element": "O" 
			},
			{
				"x": -1.4851841511,
				"y": 0.2296378201,
				"z": -1.2939474209,
				"element": "C" 
			},
			{
				"x": 0.0121363945,
				"y": 0.2619792975,
				"z": -1.058091755,
				"element": "C" 
			},
			{
				"x": 0.621459717,
				"y": 1.3732875738,
				"z": -0.4639725032,
				"element": "C" 
			},
			{
				"x": 2.0062905692,
				"y": 1.4138992145,
				"z": -0.3014607728,
				"element": "C" 
			},
			{
				"x": 2.7979778596,
				"y": 0.3494733546,
				"z": -0.73863843,
				"element": "C" 
			},
			{
				"x": 2.1967671149,
				"y": -0.7600103936,
				"z": -1.3349547069,
				"element": "C" 
			},
			{
				"x": 0.8100262581,
				"y": -0.8042527372,
				"z": -1.4891413183,
				"element": "C" 
			},
			{
				"x": -3.7543612045,
				"y": 2.7053816941,
				"z": 0.3079957631,
				"element": "H" 
			},
			{
				"x": -4.4127273203,
				"y": 1.1014075545,
				"z": 3.6093191645,
				"element": "H" 
			},
			{
				"x": -3.4179670331,
				"y": -1.0659104961,
				"z": 4.4001967707,
				"element": "H" 
			},
			{
				"x": -1.8307626039,
				"y": -2.2751298792,
				"z": 2.9111900889,
				"element": "H" 
			},
			{
				"x": -1.2277784214,
				"y": -1.3655094174,
				"z": 0.712578156,
				"element": "H" 
			},
			{
				"x": -1.7290800509,
				"y": 0.7361484346,
				"z": -2.2339514534,
				"element": "H" 
			},
			{
				"x": -1.8449082879,
				"y": -0.8039766298,
				"z": -1.3748921745,
				"element": "H" 
			},
			{
				"x": 0.0050715436,
				"y": 2.1991042106,
				"z": -0.1226060231,
				"element": "H" 
			},
			{
				"x": 2.4680736383,
				"y": 2.2787006668,
				"z": 0.1663424941,
				"element": "H" 
			},
			{
				"x": 3.8761222481,
				"y": 0.383263252,
				"z": -0.6119398307,
				"element": "H" 
			},
			{
				"x": 2.8045373448,
				"y": -1.5945344699,
				"z": -1.6727877734,
				"element": "H" 
			},
			{
				"x": 0.3456249264,
				"y": -1.6745731811,
				"z": -1.9480568232,
				"element": "H" 
			}
		],
		 "valence_orbital": [ 
			{
				"type": "occ",
				"energy": -0.26045,
				"method": "rhf"
			},
			{
				"type": "occ",
				"energy": -0.2596,
				"method": "rhf"
			},
			{
				"type": "occ",
				"energy": -0.25301,
				"method": "rhf"
			},
			{
				"type": "occ",
				"energy": -0.24234,
				"method": "rhf"
			},
			{
				"type": "occ",
				"energy": -0.23298,
				"method": "rhf"
			},
			{
				"type": "unocc",
				"energy": -0.05543,
				"method": "rhf"
			},
			{
				"type": "unocc",
				"energy": -0.01436,
				"method": "rhf"
			},
			{
				"type": "unocc",
				"energy": -0.01222,
				"method": "rhf"
			},
			{
				"type": "unocc",
				"energy": 0.00168,
				"method": "rhf"
			},
			{
				"type": "unocc",
				"energy": 0.04489,
				"method": "rhf"
			}
		],
		"cosmo_sigma_profile": { 
			"-0.025": 0.0,
			"-0.024": 0.0,
			"-0.023": 0.0,
			"-0.022": 0.0,
			"-0.021": 0.0,
			"-0.02": 0.0,
			"-0.019": 0.0,
			"-0.018": 0.0,
			"-0.017": 0.0,
			"-0.016": 0.0,
			"-0.015": 0.0,
			"-0.014": 0.0,
			"-0.013": 0.0,
			"-0.012": 0.0,
			"-0.011": 0.0,
			"-0.01": 0.0,
			"-0.009": 0.0,
			"-0.008": 0.00316490979489,
			"-0.007": 5.29440270091,
			"-0.006": 17.1742385251,
			"-0.005": 23.1696587546,
			"-0.004": 25.2020026744,
			"-0.003": 21.6910388655,
			"-0.002": 16.5496700676,
			"-0.001": 17.0082167857,
			"0.0": 17.433905172,
			"0.001": 20.0483079995,
			"0.002": 18.9784233098,
			"0.003": 22.7144857448,
			"0.004": 18.8607642731,
			"0.005": 12.3334535154,
			"0.006": 6.66235055293,
			"0.007": 1.29854724668,
			"0.008": 1.64653145462,
			"0.009": 1.92740427969,
			"0.01": 2.47046291404,
			"0.011": 3.36407540808,
			"0.012": 3.96282514345,
			"0.013": 1.49460937592,
			"0.014": 0.137298606341,
			"0.015": 0.0,
			"0.016": 0.0,
			"0.017": 0.0,
			"0.018": 0.0,
			"0.019": 0.0,
			"0.02": 0.0,
			"0.021": 0.0,
			"0.022": 0.0,
			"0.023": 0.0,
			"0.024": 0.0,
			"0.025": 0.0
		}
	}
}
