{
	 "smiles": "CC(C)CC1=CC=C(C=C1)C1=CSC(N)=N1", 
	 "Tm": 382.15, 
	 "num_atms": 32, 
	 "gaussian": { 
		 "optdone": 1, 
		 "sigma_profile": "yes", 
		 "theory": "DFT", 
		 "functional": "B3LYP", 
		 "basiset": "6-31G**", 
		 "properties": { 
			 "R2extent": 7498.8593, 
			 "electric_dipole_moment_norm": 1.67763204845, 
			 "electric_quadrupole_moment_norm": 17.2581442789, 
			 "total_energy": -1012.73814902, 
			 "HOMO_LUMO_gap": 0.17023, 
			 "cosmo_polarized_energy": -11.45, 
			 "cosmo_cavitation_energy": 36.44, 
			 "cosmo_dispersion_energy": -26.64, 
			 "cosmo_repulsion_energy": 2.04, 
			 "cosmo_total_nonelectrostatic_energy": 11.84, 
			 "SMD_solvation_energy": 4.61 
		},
		"coords": [
			{
				"x": -2.1377397388,
				"y": -4.1251917005,
				"z": -0.506804691,
				"element": "C" 
			},
			{
				"x": -1.2026684313,
				"y": -2.909969504,
				"z": -0.5821320525,
				"element": "C" 
			},
			{
				"x": -0.5091603468,
				"y": -2.8335887065,
				"z": -1.9487716864,
				"element": "C" 
			},
			{
				"x": -1.9800385674,
				"y": -1.6102481326,
				"z": -0.251216053,
				"element": "C" 
			},
			{
				"x": -1.115776168,
				"y": -0.3756012862,
				"z": -0.1155696632,
				"element": "C" 
			},
			{
				"x": -1.0545206422,
				"y": 0.5941065833,
				"z": -1.1265162368,
				"element": "C" 
			},
			{
				"x": -0.2451088631,
				"y": 1.7199975199,
				"z": -1.002572529,
				"element": "C" 
			},
			{
				"x": 0.5391933029,
				"y": 1.9217293769,
				"z": 0.144528673,
				"element": "C" 
			},
			{
				"x": 0.4780811226,
				"y": 0.9543250218,
				"z": 1.1615561844,
				"element": "C" 
			},
			{
				"x": -0.3346390036,
				"y": -0.1679708592,
				"z": 1.0302398853,
				"element": "C" 
			},
			{
				"x": 1.4048819872,
				"y": 3.1054089878,
				"z": 0.3061253407,
				"element": "C" 
			},
			{
				"x": 1.5668852571,
				"y": 4.1234036565,
				"z": -0.594902842,
				"element": "C" 
			},
			{
				"x": 2.6830647045,
				"y": 5.3167023806,
				"z": 0.0169036734,
				"element": "S" 
			},
			{
				"x": 2.8640840923,
				"y": 4.3167550361,
				"z": 1.4662392756,
				"element": "C" 
			},
			{
				"x": 3.6467424474,
				"y": 4.7321096006,
				"z": 2.5212058365,
				"element": "N" 
			},
			{
				"x": 2.1548734995,
				"y": 3.2298390895,
				"z": 1.4701501361,
				"element": "N" 
			},
			{
				"x": -2.6034124655,
				"y": -4.2136492027,
				"z": 0.4810595563,
				"element": "H" 
			},
			{
				"x": -2.942564991,
				"y": -4.0466730778,
				"z": -1.2481651172,
				"element": "H" 
			},
			{
				"x": -1.5947159714,
				"y": -5.055316101,
				"z": -0.7064329094,
				"element": "H" 
			},
			{
				"x": -0.424954469,
				"y": -3.0305876277,
				"z": 0.1858236881,
				"element": "H" 
			},
			{
				"x": -1.2465779289,
				"y": -2.724824726,
				"z": -2.7542760262,
				"element": "H" 
			},
			{
				"x": 0.0654901189,
				"y": -3.7446567695,
				"z": -2.1478593117,
				"element": "H" 
			},
			{
				"x": 0.1762730871,
				"y": -1.9830599004,
				"z": -2.0058631715,
				"element": "H" 
			},
			{
				"x": -2.7374124556,
				"y": -1.4465099369,
				"z": -1.029289092,
				"element": "H" 
			},
			{
				"x": -2.5290157853,
				"y": -1.7685743275,
				"z": 0.6863617603,
				"element": "H" 
			},
			{
				"x": -1.6548256526,
				"y": 0.4666045373,
				"z": -2.0240934152,
				"element": "H" 
			},
			{
				"x": -0.2309073424,
				"y": 2.4479339572,
				"z": -1.8084401829,
				"element": "H" 
			},
			{
				"x": 1.0736678827,
				"y": 1.1030441645,
				"z": 2.0550372256,
				"element": "H" 
			},
			{
				"x": -0.3681230708,
				"y": -0.8962147943,
				"z": 1.8377379223,
				"element": "H" 
			},
			{
				"x": 1.1182056748,
				"y": 4.2533667515,
				"z": -1.5677450831,
				"element": "H" 
			},
			{
				"x": 4.4704726396,
				"y": 5.269775563,
				"z": 2.2915989037,
				"element": "H" 
			},
			{
				"x": 3.815346077,
				"y": 3.9963344263,
				"z": 3.1950820018,
				"element": "H" 
			}
		],
		 "valence_orbital": [ 
			{
				"type": "occ",
				"energy": -0.2791,
				"method": "rhf"
			},
			{
				"type": "occ",
				"energy": -0.27075,
				"method": "rhf"
			},
			{
				"type": "occ",
				"energy": -0.24329,
				"method": "rhf"
			},
			{
				"type": "occ",
				"energy": -0.23917,
				"method": "rhf"
			},
			{
				"type": "occ",
				"energy": -0.19601,
				"method": "rhf"
			},
			{
				"type": "unocc",
				"energy": -0.02578,
				"method": "rhf"
			},
			{
				"type": "unocc",
				"energy": 0.00604,
				"method": "rhf"
			},
			{
				"type": "unocc",
				"energy": 0.01131,
				"method": "rhf"
			},
			{
				"type": "unocc",
				"energy": 0.02009,
				"method": "rhf"
			},
			{
				"type": "unocc",
				"energy": 0.07112,
				"method": "rhf"
			}
		],
		"cosmo_sigma_profile": { 
			"-0.025": 0.0,
			"-0.024": 0.0,
			"-0.023": 0.0,
			"-0.022": 0.0,
			"-0.021": 0.0,
			"-0.02": 0.0,
			"-0.019": 0.0,
			"-0.018": 0.0,
			"-0.017": 0.0,
			"-0.016": 0.0,
			"-0.015": 0.289335155738,
			"-0.014": 1.61354545854,
			"-0.013": 2.96310834461,
			"-0.012": 2.45274419645,
			"-0.011": 2.60403821996,
			"-0.01": 2.5854635431,
			"-0.009": 3.12854893493,
			"-0.008": 4.44854868933,
			"-0.007": 3.67926683413,
			"-0.006": 3.77448267923,
			"-0.005": 7.4282777818,
			"-0.004": 11.2630639332,
			"-0.003": 19.1740472194,
			"-0.002": 31.0455942659,
			"-0.001": 27.8026876042,
			"0.0": 26.7455411669,
			"0.001": 31.6572622236,
			"0.002": 26.3492421681,
			"0.003": 18.5414708577,
			"0.004": 22.2950293163,
			"0.005": 16.7556382989,
			"0.006": 10.5348891469,
			"0.007": 3.01921790329,
			"0.008": 2.43941438096,
			"0.009": 2.1455077785,
			"0.01": 2.45515920738,
			"0.011": 1.60445399667,
			"0.012": 0.824887946301,
			"0.013": 0.0,
			"0.014": 0.0,
			"0.015": 0.0,
			"0.016": 0.0,
			"0.017": 0.0,
			"0.018": 0.0,
			"0.019": 0.0,
			"0.02": 0.0,
			"0.021": 0.0,
			"0.022": 0.0,
			"0.023": 0.0,
			"0.024": 0.0,
			"0.025": 0.0
		}
	}
}
