{
	 "smiles": "CCC(C)C(C)=C", 
	 "Tm": 139.15, 
	 "num_atms": 21, 
	 "gaussian": { 
		 "optdone": 1, 
		 "sigma_profile": "yes", 
		 "theory": "DFT", 
		 "functional": "B3LYP", 
		 "basiset": "6-31G**", 
		 "properties": { 
			 "R2extent": 1209.3159, 
			 "electric_dipole_moment_norm": 0.466908310057, 
			 "electric_quadrupole_moment_norm": 1.76701878315, 
			 "total_energy": -275.178989597, 
			 "HOMO_LUMO_gap": 0.26603, 
			 "cosmo_polarized_energy": -1.58, 
			 "cosmo_cavitation_energy": 22.33, 
			 "cosmo_dispersion_energy": -15.68, 
			 "cosmo_repulsion_energy": 1.32, 
			 "cosmo_total_nonelectrostatic_energy": 7.97, 
			 "SMD_solvation_energy": 4.67 
		},
		"coords": [
			{
				"x": -2.0099963724,
				"y": 2.4755431508,
				"z": 1.4045880331,
				"element": "C" 
			},
			{
				"x": -2.3630569495,
				"y": 1.2629334632,
				"z": 0.5373698497,
				"element": "C" 
			},
			{
				"x": -1.2470704304,
				"y": 0.204673525,
				"z": 0.4389125555,
				"element": "C" 
			},
			{
				"x": -1.7656939823,
				"y": -1.06620758,
				"z": -0.2681276037,
				"element": "C" 
			},
			{
				"x": 0.0400197591,
				"y": 0.6823197393,
				"z": -0.2325861957,
				"element": "C" 
			},
			{
				"x": 1.310002357,
				"y": 0.0495627521,
				"z": 0.2842810935,
				"element": "C" 
			},
			{
				"x": 0.0656236414,
				"y": 1.5656750519,
				"z": -1.2363504878,
				"element": "C" 
			},
			{
				"x": -1.1382496452,
				"y": 3.0058743456,
				"z": 1.0107140291,
				"element": "H" 
			},
			{
				"x": -1.7788441756,
				"y": 2.1699430254,
				"z": 2.4317889173,
				"element": "H" 
			},
			{
				"x": -2.8438593011,
				"y": 3.1837927919,
				"z": 1.4506378122,
				"element": "H" 
			},
			{
				"x": -3.2548182768,
				"y": 0.7726982695,
				"z": 0.9494543041,
				"element": "H" 
			},
			{
				"x": -2.6479215996,
				"y": 1.5933837706,
				"z": -0.4699378327,
				"element": "H" 
			},
			{
				"x": -0.9839139251,
				"y": -0.0814714847,
				"z": 1.4689009661,
				"element": "H" 
			},
			{
				"x": -2.6166106111,
				"y": -1.4948971292,
				"z": 0.2728792377,
				"element": "H" 
			},
			{
				"x": -2.0919437433,
				"y": -0.8313529045,
				"z": -1.2869288138,
				"element": "H" 
			},
			{
				"x": -0.9914405376,
				"y": -1.8370621035,
				"z": -0.3375461214,
				"element": "H" 
			},
			{
				"x": 1.2519455393,
				"y": -1.046041449,
				"z": 0.2554989371,
				"element": "H" 
			},
			{
				"x": 1.4815027565,
				"y": 0.3230791781,
				"z": 1.3337041963,
				"element": "H" 
			},
			{
				"x": 2.184680926,
				"y": 0.3574214746,
				"z": -0.295141158,
				"element": "H" 
			},
			{
				"x": -0.8328148333,
				"y": 2.0392033627,
				"z": -1.6201183088,
				"element": "H" 
			},
			{
				"x": 0.9992594039,
				"y": 1.84802875,
				"z": -1.7151934096,
				"element": "H" 
			}
		],
		 "valence_orbital": [ 
			{
				"type": "occ",
				"energy": -0.34116,
				"method": "rhf"
			},
			{
				"type": "occ",
				"energy": -0.32915,
				"method": "rhf"
			},
			{
				"type": "occ",
				"energy": -0.317,
				"method": "rhf"
			},
			{
				"type": "occ",
				"energy": -0.30726,
				"method": "rhf"
			},
			{
				"type": "occ",
				"energy": -0.23844,
				"method": "rhf"
			},
			{
				"type": "unocc",
				"energy": 0.02759,
				"method": "rhf"
			},
			{
				"type": "unocc",
				"energy": 0.08627,
				"method": "rhf"
			},
			{
				"type": "unocc",
				"energy": 0.11506,
				"method": "rhf"
			},
			{
				"type": "unocc",
				"energy": 0.12242,
				"method": "rhf"
			},
			{
				"type": "unocc",
				"energy": 0.13276,
				"method": "rhf"
			}
		],
		"cosmo_sigma_profile": { 
			"-0.025": 0.0,
			"-0.024": 0.0,
			"-0.023": 0.0,
			"-0.022": 0.0,
			"-0.021": 0.0,
			"-0.02": 0.0,
			"-0.019": 0.0,
			"-0.018": 0.0,
			"-0.017": 0.0,
			"-0.016": 0.0,
			"-0.015": 0.0,
			"-0.014": 0.0,
			"-0.013": 0.0,
			"-0.012": 0.0,
			"-0.011": 0.0,
			"-0.01": 0.0,
			"-0.009": 0.0,
			"-0.008": 0.0,
			"-0.007": 0.0,
			"-0.006": 0.0,
			"-0.005": 0.00175550716636,
			"-0.004": 4.42800639344,
			"-0.003": 15.5768083512,
			"-0.002": 25.4566141872,
			"-0.001": 30.7722717159,
			"0.0": 30.0943382877,
			"0.001": 29.8332911338,
			"0.002": 18.9546394961,
			"0.003": 5.2278770845,
			"0.004": 4.43472368079,
			"0.005": 3.44695588489,
			"0.006": 2.66735718022,
			"0.007": 1.47281777876,
			"0.008": 0.182578249259,
			"0.009": 0.0,
			"0.01": 0.0,
			"0.011": 0.0,
			"0.012": 0.0,
			"0.013": 0.0,
			"0.014": 0.0,
			"0.015": 0.0,
			"0.016": 0.0,
			"0.017": 0.0,
			"0.018": 0.0,
			"0.019": 0.0,
			"0.02": 0.0,
			"0.021": 0.0,
			"0.022": 0.0,
			"0.023": 0.0,
			"0.024": 0.0,
			"0.025": 0.0
		}
	}
}
