{
	 "smiles": "CNC(=O)ON=C1C(Cl)C2CC(C#N)C1C2", 
	 "Tm": 417.15, 
	 "num_atms": 28, 
	 "gaussian": { 
		 "optdone": 1, 
		 "sigma_profile": "yes", 
		 "theory": "DFT", 
		 "functional": "B3LYP", 
		 "basiset": "6-31G**", 
		 "properties": { 
			 "R2extent": 4391.9709, 
			 "electric_dipole_moment_norm": 6.5246355768, 
			 "electric_quadrupole_moment_norm": 19.0293210496, 
			 "total_energy": -1163.12295251, 
			 "HOMO_LUMO_gap": 0.21359, 
			 "cosmo_polarized_energy": -25.01, 
			 "cosmo_cavitation_energy": 33.57, 
			 "cosmo_dispersion_energy": -22.98, 
			 "cosmo_repulsion_energy": 1.82, 
			 "cosmo_total_nonelectrostatic_energy": 12.41, 
			 "SMD_solvation_energy": 6.36 
		},
		"coords": [
			{
				"x": 2.5314082523,
				"y": -1.5808994721,
				"z": 2.7550275282,
				"element": "C" 
			},
			{
				"x": 1.7102788669,
				"y": -0.8570030066,
				"z": 3.7161607974,
				"element": "N" 
			},
			{
				"x": 0.6840898276,
				"y": -0.0094930304,
				"z": 3.4389731504,
				"element": "C" 
			},
			{
				"x": 0.0627841614,
				"y": 0.6483989238,
				"z": 4.2384759214,
				"element": "O" 
			},
			{
				"x": 0.4253868504,
				"y": -0.050828623,
				"z": 2.0673813883,
				"element": "O" 
			},
			{
				"x": -0.2655641507,
				"y": 1.0964852291,
				"z": 1.631233465,
				"element": "N" 
			},
			{
				"x": -0.6924494477,
				"y": 0.9299721583,
				"z": 0.4442456011,
				"element": "C" 
			},
			{
				"x": -1.4234266935,
				"y": 2.0372183257,
				"z": -0.3107576389,
				"element": "C" 
			},
			{
				"x": -0.5903289027,
				"y": 3.6437653394,
				"z": -0.2921869072,
				"element": "Cl" 
			},
			{
				"x": -1.576992614,
				"y": 1.4006874832,
				"z": -1.7122597952,
				"element": "C" 
			},
			{
				"x": -0.1872634166,
				"y": 1.2128258647,
				"z": -2.36765784,
				"element": "C" 
			},
			{
				"x": 0.4230813359,
				"y": -0.0066516557,
				"z": -1.5798209582,
				"element": "C" 
			},
			{
				"x": 1.7775589591,
				"y": 0.1990727923,
				"z": -1.0672296742,
				"element": "C" 
			},
			{
				"x": 2.8575632523,
				"y": 0.3329125534,
				"z": -0.6622930632,
				"element": "N" 
			},
			{
				"x": -0.6534571335,
				"y": -0.2761717217,
				"z": -0.4761141955,
				"element": "C" 
			},
			{
				"x": -1.9427748332,
				"y": -0.0449650367,
				"z": -1.3009270896,
				"element": "C" 
			},
			{
				"x": 2.0391416171,
				"y": -2.4913494317,
				"z": 2.3904277241,
				"element": "H" 
			},
			{
				"x": 3.4644415401,
				"y": -1.8682174569,
				"z": 3.2449752641,
				"element": "H" 
			},
			{
				"x": 2.7706878148,
				"y": -0.9475477223,
				"z": 1.8986116346,
				"element": "H" 
			},
			{
				"x": 1.8915949071,
				"y": -0.9582234544,
				"z": 4.702473143,
				"element": "H" 
			},
			{
				"x": -2.4037306964,
				"y": 2.2260105611,
				"z": 0.1335308592,
				"element": "H" 
			},
			{
				"x": -2.2955081857,
				"y": 1.9279972909,
				"z": -2.341416901,
				"element": "H" 
			},
			{
				"x": 0.4307351454,
				"y": 2.1081134838,
				"z": -2.2861861155,
				"element": "H" 
			},
			{
				"x": -0.2861144534,
				"y": 0.9670376158,
				"z": -3.4276731467,
				"element": "H" 
			},
			{
				"x": 0.4617179169,
				"y": -0.8875154927,
				"z": -2.2314392613,
				"element": "H" 
			},
			{
				"x": -0.5308145985,
				"y": -1.2263392141,
				"z": 0.0404870291,
				"element": "H" 
			},
			{
				"x": -2.8535933886,
				"y": -0.1146702489,
				"z": -0.6990839011,
				"element": "H" 
			},
			{
				"x": -2.0309519329,
				"y": -0.7243220543,
				"z": -2.1544570183,
				"element": "H" 
			}
		],
		 "valence_orbital": [ 
			{
				"type": "occ",
				"energy": -0.30551,
				"method": "rhf"
			},
			{
				"type": "occ",
				"energy": -0.28819,
				"method": "rhf"
			},
			{
				"type": "occ",
				"energy": -0.27242,
				"method": "rhf"
			},
			{
				"type": "occ",
				"energy": -0.26582,
				"method": "rhf"
			},
			{
				"type": "occ",
				"energy": -0.25164,
				"method": "rhf"
			},
			{
				"type": "unocc",
				"energy": -0.03805,
				"method": "rhf"
			},
			{
				"type": "unocc",
				"energy": 0.0175,
				"method": "rhf"
			},
			{
				"type": "unocc",
				"energy": 0.02416,
				"method": "rhf"
			},
			{
				"type": "unocc",
				"energy": 0.03741,
				"method": "rhf"
			},
			{
				"type": "unocc",
				"energy": 0.05253,
				"method": "rhf"
			}
		],
		"cosmo_sigma_profile": { 
			"-0.025": 0.0,
			"-0.024": 0.0,
			"-0.023": 0.0,
			"-0.022": 0.0,
			"-0.021": 0.0,
			"-0.02": 0.0,
			"-0.019": 0.0,
			"-0.018": 0.0,
			"-0.017": 0.0,
			"-0.016": 0.0,
			"-0.015": 0.40064327997,
			"-0.014": 1.44306617717,
			"-0.013": 0.662809764962,
			"-0.012": 1.47927845556,
			"-0.011": 1.00326341385,
			"-0.01": 1.43454340076,
			"-0.009": 6.57216972498,
			"-0.008": 9.09198783734,
			"-0.007": 10.8498403994,
			"-0.006": 18.8391308727,
			"-0.005": 18.1080241008,
			"-0.004": 19.7994805568,
			"-0.003": 18.1250001334,
			"-0.002": 20.9365906058,
			"-0.001": 15.4598121389,
			"0.0": 12.5479735261,
			"0.001": 13.6316394793,
			"0.002": 13.2061082414,
			"0.003": 12.1571524387,
			"0.004": 10.985102901,
			"0.005": 10.3891911741,
			"0.006": 8.07665014186,
			"0.007": 5.32402536206,
			"0.008": 4.59219546627,
			"0.009": 5.13251965003,
			"0.01": 4.85155964365,
			"0.011": 4.53175132811,
			"0.012": 6.00277729872,
			"0.013": 7.46094417939,
			"0.014": 2.2105690074,
			"0.015": 1.54880621052,
			"0.016": 1.05538939961,
			"0.017": 0.0782060472926,
			"0.018": 0.0,
			"0.019": 0.0,
			"0.02": 0.0,
			"0.021": 0.0,
			"0.022": 0.0,
			"0.023": 0.0,
			"0.024": 0.0,
			"0.025": 0.0
		}
	}
}
