{
	 "smiles": "CCOC(=O)C(OC(=O)C1=CC=CC=C1)C1=CC(C(OC(=O)C2=CC=CC=C2)C(=O)OCC)=C(C=C1[N+]([O-])=O)[N+]([O-])=O", 
	 "Tm": 406.15, 
	 "num_atms": 66, 
	 "gaussian": { 
		 "optdone": 1, 
		 "sigma_profile": "yes", 
		 "theory": "DFT", 
		 "functional": "B3LYP", 
		 "basiset": "6-31G**", 
		 "properties": { 
			 "R2extent": 26052.0643, 
			 "electric_dipole_moment_norm": 7.11197938692, 
			 "electric_quadrupole_moment_norm": 28.1529563188, 
			 "total_energy": -2093.46513905, 
			 "HOMO_LUMO_gap": 0.14812, 
			 "cosmo_polarized_energy": -24.94, 
			 "cosmo_cavitation_energy": 74.24, 
			 "cosmo_dispersion_energy": -45.51, 
			 "cosmo_repulsion_energy": 3.44, 
			 "cosmo_total_nonelectrostatic_energy": 32.17, 
			 "SMD_solvation_energy": 19.56 
		},
		"coords": [
			{
				"x": 1.5605998006,
				"y": 5.3798333003,
				"z": 5.8438075222,
				"element": "C" 
			},
			{
				"x": 1.5180473397,
				"y": 5.3549741616,
				"z": 4.3289189086,
				"element": "C" 
			},
			{
				"x": 1.108772072,
				"y": 4.0201656196,
				"z": 3.928798453,
				"element": "O" 
			},
			{
				"x": 1.0276754216,
				"y": 3.8125672285,
				"z": 2.6145557978,
				"element": "C" 
			},
			{
				"x": 1.2063428067,
				"y": 4.6476706986,
				"z": 1.7543535912,
				"element": "O" 
			},
			{
				"x": 0.5471326272,
				"y": 2.3992102605,
				"z": 2.2845701992,
				"element": "C" 
			},
			{
				"x": 0.9407222634,
				"y": 1.4687678702,
				"z": 3.2993664008,
				"element": "O" 
			},
			{
				"x": 0.013185827,
				"y": 0.5495778078,
				"z": 3.681433855,
				"element": "C" 
			},
			{
				"x": -1.0983082117,
				"y": 0.481138414,
				"z": 3.1881253856,
				"element": "O" 
			},
			{
				"x": 0.5265650489,
				"y": -0.340622438,
				"z": 4.7530529699,
				"element": "C" 
			},
			{
				"x": -0.3384100873,
				"y": -1.3172952983,
				"z": 5.2672542256,
				"element": "C" 
			},
			{
				"x": 0.0999779708,
				"y": -2.1740653214,
				"z": 6.2730737268,
				"element": "C" 
			},
			{
				"x": 1.4025854284,
				"y": -2.0605366047,
				"z": 6.7673947005,
				"element": "C" 
			},
			{
				"x": 2.2664537053,
				"y": -1.0886424724,
				"z": 6.2559041282,
				"element": "C" 
			},
			{
				"x": 1.8335120904,
				"y": -0.2263373512,
				"z": 5.2505201589,
				"element": "C" 
			},
			{
				"x": 0.9797440368,
				"y": 1.9199480781,
				"z": 0.9065947233,
				"element": "C" 
			},
			{
				"x": -0.0206920925,
				"y": 1.3663038378,
				"z": 0.0987686649,
				"element": "C" 
			},
			{
				"x": 0.2054689093,
				"y": 0.8753805084,
				"z": -1.1906520128,
				"element": "C" 
			},
			{
				"x": -0.9002891799,
				"y": 0.2071622108,
				"z": -2.0000087864,
				"element": "C" 
			},
			{
				"x": -0.3681824814,
				"y": -1.0470468726,
				"z": -2.4420040141,
				"element": "O" 
			},
			{
				"x": -1.0526416991,
				"y": -1.6329840352,
				"z": -3.4704915499,
				"element": "C" 
			},
			{
				"x": -2.0705079273,
				"y": -1.1532367307,
				"z": -3.9243166384,
				"element": "O" 
			},
			{
				"x": -0.4127081633,
				"y": -2.8888508138,
				"z": -3.9362195435,
				"element": "C" 
			},
			{
				"x": 0.8054703398,
				"y": -3.3513351551,
				"z": -3.4178408143,
				"element": "C" 
			},
			{
				"x": 1.3578551764,
				"y": -4.5358015643,
				"z": -3.9014459653,
				"element": "C" 
			},
			{
				"x": 0.6996640039,
				"y": -5.2613662404,
				"z": -4.8974613744,
				"element": "C" 
			},
			{
				"x": -0.5138864134,
				"y": -4.8009845608,
				"z": -5.4162165155,
				"element": "C" 
			},
			{
				"x": -1.0690964768,
				"y": -3.6171025798,
				"z": -4.9389807078,
				"element": "C" 
			},
			{
				"x": -2.2039478171,
				"y": 0.0530933445,
				"z": -1.2032122212,
				"element": "C" 
			},
			{
				"x": -2.9134652574,
				"y": 1.0092359172,
				"z": -0.9751180835,
				"element": "O" 
			},
			{
				"x": -2.404740126,
				"y": -1.1995783342,
				"z": -0.7896719077,
				"element": "O" 
			},
			{
				"x": -3.6024759338,
				"y": -1.4739259936,
				"z": -0.0083188651,
				"element": "C" 
			},
			{
				"x": -3.1958276781,
				"y": -1.9538235908,
				"z": 1.3745395497,
				"element": "C" 
			},
			{
				"x": 1.5158984302,
				"y": 0.9866144538,
				"z": -1.6801431774,
				"element": "C" 
			},
			{
				"x": 2.548251019,
				"y": 1.4987479594,
				"z": -0.9080140116,
				"element": "C" 
			},
			{
				"x": 2.2807860289,
				"y": 1.9548389018,
				"z": 0.3774468327,
				"element": "C" 
			},
			{
				"x": 3.4452543584,
				"y": 2.4545409644,
				"z": 1.1355444342,
				"element": "N" 
			},
			{
				"x": 3.3287212519,
				"y": 2.5826515537,
				"z": 2.353689041,
				"element": "O" 
			},
			{
				"x": 4.4727906259,
				"y": 2.6871169771,
				"z": 0.5060973262,
				"element": "O" 
			},
			{
				"x": 1.8780061275,
				"y": 0.5916020149,
				"z": -3.0557904364,
				"element": "N" 
			},
			{
				"x": 2.9760366114,
				"y": 0.0661790071,
				"z": -3.2152054865,
				"element": "O" 
			},
			{
				"x": 1.0768058485,
				"y": 0.8534311394,
				"z": -3.9487363106,
				"element": "O" 
			},
			{
				"x": 0.5768389891,
				"y": 5.1592972411,
				"z": 6.2678109415,
				"element": "H" 
			},
			{
				"x": 2.2750597013,
				"y": 4.645671073,
				"z": 6.22614228,
				"element": "H" 
			},
			{
				"x": 1.8687202397,
				"y": 6.3723243254,
				"z": 6.1868273964,
				"element": "H" 
			},
			{
				"x": 2.4950432475,
				"y": 5.5614993102,
				"z": 3.8827229243,
				"element": "H" 
			},
			{
				"x": 0.8036910463,
				"y": 6.0761837605,
				"z": 3.9205982012,
				"element": "H" 
			},
			{
				"x": -0.5471433079,
				"y": 2.4415473475,
				"z": 2.2806096291,
				"element": "H" 
			},
			{
				"x": -1.3448046477,
				"y": -1.3859339606,
				"z": 4.8686546255,
				"element": "H" 
			},
			{
				"x": -0.5703320705,
				"y": -2.9293724146,
				"z": 6.6721017051,
				"element": "H" 
			},
			{
				"x": 1.7444155964,
				"y": -2.7300012425,
				"z": 7.551632757,
				"element": "H" 
			},
			{
				"x": 3.2780141383,
				"y": -1.0028305484,
				"z": 6.6410765321,
				"element": "H" 
			},
			{
				"x": 2.4952347961,
				"y": 0.5309421099,
				"z": 4.8461765523,
				"element": "H" 
			},
			{
				"x": -1.0223310208,
				"y": 1.3187852825,
				"z": 0.5068976401,
				"element": "H" 
			},
			{
				"x": -1.1510225851,
				"y": 0.8219852454,
				"z": -2.8680408313,
				"element": "H" 
			},
			{
				"x": 1.3160395383,
				"y": -2.7811952984,
				"z": -2.6507478198,
				"element": "H" 
			},
			{
				"x": 2.3035238231,
				"y": -4.8913384514,
				"z": -3.5036578701,
				"element": "H" 
			},
			{
				"x": 1.1339296761,
				"y": -6.1841382735,
				"z": -5.271618649,
				"element": "H" 
			},
			{
				"x": -1.0234661738,
				"y": -5.3640750034,
				"z": -6.1923200467,
				"element": "H" 
			},
			{
				"x": -2.0073930563,
				"y": -3.2367711609,
				"z": -5.3281753215,
				"element": "H" 
			},
			{
				"x": -4.1408866997,
				"y": -2.2455931475,
				"z": -0.5649444023,
				"element": "H" 
			},
			{
				"x": -4.2074490091,
				"y": -0.5669643961,
				"z": 0.0304037793,
				"element": "H" 
			},
			{
				"x": -2.5595702179,
				"y": -2.8412533516,
				"z": 1.3074780746,
				"element": "H" 
			},
			{
				"x": -2.6557430454,
				"y": -1.1759079962,
				"z": 1.9216504545,
				"element": "H" 
			},
			{
				"x": -4.0922454885,
				"y": -2.2179672478,
				"z": 1.9456862754,
				"element": "H" 
			},
			{
				"x": 3.5545309055,
				"y": 1.5474905252,
				"z": -1.3009270008,
				"element": "H" 
			}
		],
		 "valence_orbital": [ 
			{
				"type": "occ",
				"energy": -0.28024,
				"method": "rhf"
			},
			{
				"type": "occ",
				"energy": -0.27118,
				"method": "rhf"
			},
			{
				"type": "occ",
				"energy": -0.2691,
				"method": "rhf"
			},
			{
				"type": "occ",
				"energy": -0.26391,
				"method": "rhf"
			},
			{
				"type": "occ",
				"energy": -0.2622,
				"method": "rhf"
			},
			{
				"type": "unocc",
				"energy": -0.11408,
				"method": "rhf"
			},
			{
				"type": "unocc",
				"energy": -0.09649,
				"method": "rhf"
			},
			{
				"type": "unocc",
				"energy": -0.06156,
				"method": "rhf"
			},
			{
				"type": "unocc",
				"energy": -0.05284,
				"method": "rhf"
			},
			{
				"type": "unocc",
				"energy": -0.04213,
				"method": "rhf"
			}
		],
		"cosmo_sigma_profile": { 
			"-0.025": 0.0,
			"-0.024": 0.0,
			"-0.023": 0.0,
			"-0.022": 0.0,
			"-0.021": 0.0,
			"-0.02": 0.0,
			"-0.019": 0.0,
			"-0.018": 0.0,
			"-0.017": 0.0,
			"-0.016": 0.0,
			"-0.015": 0.0,
			"-0.014": 0.0,
			"-0.013": 0.0,
			"-0.012": 0.0885762685218,
			"-0.011": 1.4119545258,
			"-0.01": 1.93228260956,
			"-0.009": 3.20057989647,
			"-0.008": 5.34400836903,
			"-0.007": 10.5334499871,
			"-0.006": 28.8436199939,
			"-0.005": 44.3842488267,
			"-0.004": 61.4971080591,
			"-0.003": 51.5766308404,
			"-0.002": 43.6156865453,
			"-0.001": 43.3919199288,
			"0.0": 44.6839894787,
			"0.001": 41.1017856609,
			"0.002": 38.6855534989,
			"0.003": 44.0711819151,
			"0.004": 31.4429948825,
			"0.005": 17.3590864115,
			"0.006": 19.8738287678,
			"0.007": 17.9919182763,
			"0.008": 13.8627949604,
			"0.009": 9.51488119744,
			"0.01": 9.21105300712,
			"0.011": 9.3292824426,
			"0.012": 0.789378315059,
			"0.013": 0.0,
			"0.014": 0.0,
			"0.015": 0.0,
			"0.016": 0.0,
			"0.017": 0.0,
			"0.018": 0.0,
			"0.019": 0.0,
			"0.02": 0.0,
			"0.021": 0.0,
			"0.022": 0.0,
			"0.023": 0.0,
			"0.024": 0.0,
			"0.025": 0.0
		}
	}
}
