{
	 "smiles": "CN(C)C1=C(C=O)C=C2C=CC=CC2=N1", 
	 "Tm": 325.65, 
	 "num_atms": 27, 
	 "gaussian": { 
		 "optdone": 1, 
		 "sigma_profile": "yes", 
		 "theory": "DFT", 
		 "functional": "B3LYP", 
		 "basiset": "6-31G**", 
		 "properties": { 
			 "R2extent": 3388.0814, 
			 "electric_dipole_moment_norm": 2.29483894424, 
			 "electric_quadrupole_moment_norm": 17.775618403, 
			 "total_energy": -649.231178874, 
			 "HOMO_LUMO_gap": 0.14028, 
			 "cosmo_polarized_energy": -9.56, 
			 "cosmo_cavitation_energy": 30.31, 
			 "cosmo_dispersion_energy": -22.0, 
			 "cosmo_repulsion_energy": 1.7, 
			 "cosmo_total_nonelectrostatic_energy": 10.0, 
			 "SMD_solvation_energy": 4.42 
		},
		"coords": [
			{
				"x": -1.4543493153,
				"y": 1.8492399798,
				"z": 2.3283805668,
				"element": "C" 
			},
			{
				"x": -0.3807618743,
				"y": 0.8598244595,
				"z": 2.3319407013,
				"element": "N" 
			},
			{
				"x": -0.4023469153,
				"y": 0.01992779,
				"z": 3.5321733525,
				"element": "C" 
			},
			{
				"x": -0.0598537158,
				"y": 0.2767312296,
				"z": 1.1054411637,
				"element": "C" 
			},
			{
				"x": 1.1678197697,
				"y": -0.4736147406,
				"z": 0.9605630774,
				"element": "C" 
			},
			{
				"x": 2.2594355794,
				"y": -0.4474064274,
				"z": 1.9623012039,
				"element": "C" 
			},
			{
				"x": 3.2303759276,
				"y": -1.1843709009,
				"z": 1.9306765297,
				"element": "O" 
			},
			{
				"x": 1.400228499,
				"y": -1.1117621704,
				"z": -0.241029742,
				"element": "C" 
			},
			{
				"x": 0.5037458225,
				"y": -0.9635635844,
				"z": -1.3220309491,
				"element": "C" 
			},
			{
				"x": 0.6950492217,
				"y": -1.5742099792,
				"z": -2.5889753391,
				"element": "C" 
			},
			{
				"x": -0.187699238,
				"y": -1.3326810811,
				"z": -3.6180354961,
				"element": "C" 
			},
			{
				"x": -1.2904908076,
				"y": -0.4658149196,
				"z": -3.416154247,
				"element": "C" 
			},
			{
				"x": -1.5017412789,
				"y": 0.1418986293,
				"z": -2.1967392049,
				"element": "C" 
			},
			{
				"x": -0.6171311589,
				"y": -0.0964703914,
				"z": -1.1131206253,
				"element": "C" 
			},
			{
				"x": -0.8839800474,
				"y": 0.4804735958,
				"z": 0.0920027135,
				"element": "N" 
			},
			{
				"x": -2.4485899878,
				"y": 1.3910194813,
				"z": 2.2257325479,
				"element": "H" 
			},
			{
				"x": -1.4152445646,
				"y": 2.400178971,
				"z": 3.2733028306,
				"element": "H" 
			},
			{
				"x": -1.3176846557,
				"y": 2.5432968633,
				"z": 1.4995405123,
				"element": "H" 
			},
			{
				"x": -0.1127769677,
				"y": 0.6058721151,
				"z": 4.4108301956,
				"element": "H" 
			},
			{
				"x": -1.4098991175,
				"y": -0.3889258265,
				"z": 3.7076324751,
				"element": "H" 
			},
			{
				"x": 0.2828653179,
				"y": -0.8220092453,
				"z": 3.438725633,
				"element": "H" 
			},
			{
				"x": 2.1699792054,
				"y": 0.3379625853,
				"z": 2.7385507151,
				"element": "H" 
			},
			{
				"x": 2.3215983233,
				"y": -1.677546241,
				"z": -0.3534145694,
				"element": "H" 
			},
			{
				"x": 1.5502037814,
				"y": -2.2298099349,
				"z": -2.7318018292,
				"element": "H" 
			},
			{
				"x": -0.0410823603,
				"y": -1.8007059824,
				"z": -4.5866253607,
				"element": "H" 
			},
			{
				"x": -1.9781678,
				"y": -0.2802277792,
				"z": -4.2365380743,
				"element": "H" 
			},
			{
				"x": -2.3451016427,
				"y": 0.8030935044,
				"z": -2.0268287813,
				"element": "H" 
			}
		],
		 "valence_orbital": [ 
			{
				"type": "occ",
				"energy": -0.27679,
				"method": "rhf"
			},
			{
				"type": "occ",
				"energy": -0.26878,
				"method": "rhf"
			},
			{
				"type": "occ",
				"energy": -0.24874,
				"method": "rhf"
			},
			{
				"type": "occ",
				"energy": -0.23863,
				"method": "rhf"
			},
			{
				"type": "occ",
				"energy": -0.21413,
				"method": "rhf"
			},
			{
				"type": "unocc",
				"energy": -0.07385,
				"method": "rhf"
			},
			{
				"type": "unocc",
				"energy": -0.03103,
				"method": "rhf"
			},
			{
				"type": "unocc",
				"energy": 0.0112,
				"method": "rhf"
			},
			{
				"type": "unocc",
				"energy": 0.02326,
				"method": "rhf"
			},
			{
				"type": "unocc",
				"energy": 0.0911,
				"method": "rhf"
			}
		],
		"cosmo_sigma_profile": { 
			"-0.025": 0.0,
			"-0.024": 0.0,
			"-0.023": 0.0,
			"-0.022": 0.0,
			"-0.021": 0.0,
			"-0.02": 0.0,
			"-0.019": 0.0,
			"-0.018": 0.0,
			"-0.017": 0.0,
			"-0.016": 0.0,
			"-0.015": 0.0,
			"-0.014": 0.0,
			"-0.013": 0.0,
			"-0.012": 0.0,
			"-0.011": 0.0,
			"-0.01": 0.0,
			"-0.009": 0.0,
			"-0.008": 0.384524894216,
			"-0.007": 4.21326373099,
			"-0.006": 12.4600250923,
			"-0.005": 17.5937583781,
			"-0.004": 23.5895164277,
			"-0.003": 24.823426049,
			"-0.002": 25.1122732996,
			"-0.001": 21.3118275035,
			"0.0": 16.4948045993,
			"0.001": 16.068665468,
			"0.002": 15.693051639,
			"0.003": 16.6547954682,
			"0.004": 14.5244248405,
			"0.005": 5.87642280952,
			"0.006": 3.38873311101,
			"0.007": 3.77850416528,
			"0.008": 2.96407778022,
			"0.009": 3.27845204169,
			"0.01": 3.35837652971,
			"0.011": 5.1339674804,
			"0.012": 4.00787382078,
			"0.013": 1.05934208499,
			"0.014": 0.0,
			"0.015": 0.0,
			"0.016": 0.0,
			"0.017": 0.0,
			"0.018": 0.0,
			"0.019": 0.0,
			"0.02": 0.0,
			"0.021": 0.0,
			"0.022": 0.0,
			"0.023": 0.0,
			"0.024": 0.0,
			"0.025": 0.0
		}
	}
}
