{
	 "smiles": "NS(=O)(=O)C1=CC2=C(S1)S(=O)(=O)CC(O)C2", 
	 "Tm": 447.15, 
	 "num_atms": 25, 
	 "gaussian": { 
		 "optdone": 1, 
		 "sigma_profile": "yes", 
		 "theory": "DFT", 
		 "functional": "B3LYP", 
		 "basiset": "6-31G**", 
		 "properties": { 
			 "R2extent": 8230.6087, 
			 "electric_dipole_moment_norm": 7.57971280327, 
			 "electric_quadrupole_moment_norm": 44.0239126823, 
			 "total_energy": -1897.42646507, 
			 "HOMO_LUMO_gap": 0.19219, 
			 "cosmo_polarized_energy": -36.25, 
			 "cosmo_cavitation_energy": 33.03, 
			 "cosmo_dispersion_energy": -25.32, 
			 "cosmo_repulsion_energy": 1.85, 
			 "cosmo_total_nonelectrostatic_energy": 9.57, 
			 "SMD_solvation_energy": 3.76 
		},
		"coords": [
			{
				"x": 3.01158608,
				"y": -0.0802093712,
				"z": 2.7762828544,
				"element": "N" 
			},
			{
				"x": 3.7314730914,
				"y": 1.033881464,
				"z": 1.7591953228,
				"element": "S" 
			},
			{
				"x": 4.6634088543,
				"y": 0.2806221471,
				"z": 0.9265937386,
				"element": "O" 
			},
			{
				"x": 4.1196510935,
				"y": 2.1543615501,
				"z": 2.6083353649,
				"element": "O" 
			},
			{
				"x": 2.4614709341,
				"y": 1.6288915039,
				"z": 0.6549440263,
				"element": "C" 
			},
			{
				"x": 2.2597359218,
				"y": 1.187899373,
				"z": -0.626337111,
				"element": "C" 
			},
			{
				"x": 1.149547375,
				"y": 1.8237948346,
				"z": -1.2601262934,
				"element": "C" 
			},
			{
				"x": 0.5518271781,
				"y": 2.732494419,
				"z": -0.4152108102,
				"element": "C" 
			},
			{
				"x": 1.3271914113,
				"y": 2.855222258,
				"z": 1.1350488748,
				"element": "S" 
			},
			{
				"x": -0.8924000893,
				"y": 3.7165097528,
				"z": -0.7876240317,
				"element": "S" 
			},
			{
				"x": -2.0299517983,
				"y": 3.1942157141,
				"z": -0.0250832484,
				"element": "O" 
			},
			{
				"x": -0.5289252972,
				"y": 5.1357495281,
				"z": -0.6700736026,
				"element": "O" 
			},
			{
				"x": -1.0991023267,
				"y": 3.3439793762,
				"z": -2.564242892,
				"element": "C" 
			},
			{
				"x": -0.7458456686,
				"y": 1.9129382379,
				"z": -2.9741913932,
				"element": "C" 
			},
			{
				"x": -1.6447763453,
				"y": 1.0524346082,
				"z": -2.3001418241,
				"element": "O" 
			},
			{
				"x": 0.727490325,
				"y": 1.5737174722,
				"z": -2.6862928262,
				"element": "C" 
			},
			{
				"x": 2.3491887584,
				"y": 0.3304745584,
				"z": 3.4261557736,
				"element": "H" 
			},
			{
				"x": 2.6642736768,
				"y": -0.9053522996,
				"z": 2.2991100713,
				"element": "H" 
			},
			{
				"x": 2.894113827,
				"y": 0.4446650787,
				"z": -1.0952250519,
				"element": "H" 
			},
			{
				"x": -0.4804114919,
				"y": 4.0709311996,
				"z": -3.0949631939,
				"element": "H" 
			},
			{
				"x": -2.1560821021,
				"y": 3.5486025375,
				"z": -2.7534222406,
				"element": "H" 
			},
			{
				"x": -0.8959143093,
				"y": 1.8583785375,
				"z": -4.0651996639,
				"element": "H" 
			},
			{
				"x": -1.4665530912,
				"y": 0.1434760779,
				"z": -2.5737676759,
				"element": "H" 
			},
			{
				"x": 0.9087994161,
				"y": 0.5233444468,
				"z": -2.9460288726,
				"element": "H" 
			},
			{
				"x": 1.3635045773,
				"y": 2.1620769951,
				"z": -3.3625352952,
				"element": "H" 
			}
		],
		 "valence_orbital": [ 
			{
				"type": "occ",
				"energy": -0.31173,
				"method": "rhf"
			},
			{
				"type": "occ",
				"energy": -0.30457,
				"method": "rhf"
			},
			{
				"type": "occ",
				"energy": -0.29357,
				"method": "rhf"
			},
			{
				"type": "occ",
				"energy": -0.28499,
				"method": "rhf"
			},
			{
				"type": "occ",
				"energy": -0.26584,
				"method": "rhf"
			},
			{
				"type": "unocc",
				"energy": -0.07365,
				"method": "rhf"
			},
			{
				"type": "unocc",
				"energy": -0.00813,
				"method": "rhf"
			},
			{
				"type": "unocc",
				"energy": 0.00622,
				"method": "rhf"
			},
			{
				"type": "unocc",
				"energy": 0.01109,
				"method": "rhf"
			},
			{
				"type": "unocc",
				"energy": 0.03116,
				"method": "rhf"
			}
		],
		"cosmo_sigma_profile": { 
			"-0.025": 0.0,
			"-0.024": 0.0,
			"-0.023": 0.0,
			"-0.022": 0.0,
			"-0.021": 0.0,
			"-0.02": 0.0,
			"-0.019": 0.0,
			"-0.018": 0.0,
			"-0.017": 0.541945728717,
			"-0.016": 2.49477418228,
			"-0.015": 4.15074321769,
			"-0.014": 3.99491766938,
			"-0.013": 3.73236433188,
			"-0.012": 3.77977536063,
			"-0.011": 3.34572018201,
			"-0.01": 4.68210324031,
			"-0.009": 10.3354844713,
			"-0.008": 11.3747360076,
			"-0.007": 15.330463364,
			"-0.006": 15.5165211189,
			"-0.005": 11.6046356318,
			"-0.004": 9.99960884884,
			"-0.003": 7.78167265832,
			"-0.002": 8.37303221334,
			"-0.001": 14.2212080965,
			"0.0": 13.5980918735,
			"0.001": 11.3626389214,
			"0.002": 7.86412027234,
			"0.003": 6.81647539928,
			"0.004": 5.26714497028,
			"0.005": 6.94419517134,
			"0.006": 7.41387076651,
			"0.007": 6.90852895873,
			"0.008": 7.55889190956,
			"0.009": 10.6831388931,
			"0.01": 18.4472324418,
			"0.011": 20.7870825988,
			"0.012": 5.78669540645,
			"0.013": 2.3425180117,
			"0.014": 0.873913695988,
			"0.015": 0.00498843604416,
			"0.016": 0.0,
			"0.017": 0.0,
			"0.018": 0.0,
			"0.019": 0.0,
			"0.02": 0.0,
			"0.021": 0.0,
			"0.022": 0.0,
			"0.023": 0.0,
			"0.024": 0.0,
			"0.025": 0.0
		}
	}
}
