{
	 "smiles": "OC1=CC=C(O)C2=C1C(=O)C(Cl)=C(Cl)C2=O", 
	 "Tm": 471.15, 
	 "num_atms": 20, 
	 "gaussian": { 
		 "optdone": 1, 
		 "sigma_profile": "yes", 
		 "theory": "DFT", 
		 "functional": "B3LYP", 
		 "basiset": "6-31G**", 
		 "properties": { 
			 "R2extent": 4164.0886, 
			 "electric_dipole_moment_norm": 2.04813211976, 
			 "electric_quadrupole_moment_norm": 10.6127648259, 
			 "total_energy": -1604.7525847, 
			 "HOMO_LUMO_gap": 0.09885, 
			 "cosmo_polarized_energy": -9.19, 
			 "cosmo_cavitation_energy": 28.06, 
			 "cosmo_dispersion_energy": -21.85, 
			 "cosmo_repulsion_energy": 1.64, 
			 "cosmo_total_nonelectrostatic_energy": 7.86, 
			 "SMD_solvation_energy": 5.65 
		},
		"coords": [
			{
				"x": -0.4574082814,
				"y": 3.4958500038,
				"z": 0.7692388823,
				"element": "O" 
			},
			{
				"x": -0.7934133979,
				"y": 2.6549629535,
				"z": -0.2090846044,
				"element": "C" 
			},
			{
				"x": -1.5118959322,
				"y": 3.1785088391,
				"z": -1.3184347579,
				"element": "C" 
			},
			{
				"x": -1.8885409629,
				"y": 2.3672223745,
				"z": -2.3599216436,
				"element": "C" 
			},
			{
				"x": -1.5702415745,
				"y": 0.9817034167,
				"z": -2.3571112437,
				"element": "C" 
			},
			{
				"x": -1.9648377823,
				"y": 0.2491114494,
				"z": -3.3985998942,
				"element": "O" 
			},
			{
				"x": -0.8594493011,
				"y": 0.4443789326,
				"z": -1.2677057466,
				"element": "C" 
			},
			{
				"x": -0.4688836584,
				"y": 1.285669104,
				"z": -0.1876927943,
				"element": "C" 
			},
			{
				"x": 0.2671262502,
				"y": 0.7498913282,
				"z": 0.9489188628,
				"element": "C" 
			},
			{
				"x": 0.6202497518,
				"y": 1.4609089541,
				"z": 1.9050214619,
				"element": "O" 
			},
			{
				"x": 0.5930867375,
				"y": -0.7054380896,
				"z": 0.9363942954,
				"element": "C" 
			},
			{
				"x": 1.4649504861,
				"y": -1.290489874,
				"z": 2.3039316338,
				"element": "Cl" 
			},
			{
				"x": 0.2204073926,
				"y": -1.5082998833,
				"z": -0.0943397489,
				"element": "C" 
			},
			{
				"x": 0.5816417388,
				"y": -3.1935491312,
				"z": -0.1393141098,
				"element": "Cl" 
			},
			{
				"x": -0.5336063378,
				"y": -0.9749418647,
				"z": -1.2653876565,
				"element": "C" 
			},
			{
				"x": -0.8617031506,
				"y": -1.7321448833,
				"z": -2.1945671448,
				"element": "O" 
			},
			{
				"x": 0.0321445773,
				"y": 2.9581053969,
				"z": 1.4478426158,
				"element": "H" 
			},
			{
				"x": -1.7506074493,
				"y": 4.2367217251,
				"z": -1.3125165467,
				"element": "H" 
			},
			{
				"x": -2.4369227854,
				"y": 2.7584352671,
				"z": -3.2102532389,
				"element": "H" 
			},
			{
				"x": -1.6573963206,
				"y": -0.680306019,
				"z": -3.2225186215,
				"element": "H" 
			}
		],
		 "valence_orbital": [ 
			{
				"type": "occ",
				"energy": -0.30367,
				"method": "rhf"
			},
			{
				"type": "occ",
				"energy": -0.30127,
				"method": "rhf"
			},
			{
				"type": "occ",
				"energy": -0.2902,
				"method": "rhf"
			},
			{
				"type": "occ",
				"energy": -0.27856,
				"method": "rhf"
			},
			{
				"type": "occ",
				"energy": -0.23701,
				"method": "rhf"
			},
			{
				"type": "unocc",
				"energy": -0.13816,
				"method": "rhf"
			},
			{
				"type": "unocc",
				"energy": -0.04668,
				"method": "rhf"
			},
			{
				"type": "unocc",
				"energy": -0.04594,
				"method": "rhf"
			},
			{
				"type": "unocc",
				"energy": -0.01136,
				"method": "rhf"
			},
			{
				"type": "unocc",
				"energy": 0.02938,
				"method": "rhf"
			}
		],
		"cosmo_sigma_profile": { 
			"-0.025": 0.0,
			"-0.024": 0.0,
			"-0.023": 0.0,
			"-0.022": 0.0,
			"-0.021": 0.0,
			"-0.02": 0.0,
			"-0.019": 0.0,
			"-0.018": 0.0,
			"-0.017": 0.0,
			"-0.016": 0.0,
			"-0.015": 0.0,
			"-0.014": 0.0,
			"-0.013": 0.0,
			"-0.012": 0.0,
			"-0.011": 0.0,
			"-0.01": 0.0,
			"-0.009": 1.82110165488,
			"-0.008": 5.64966991786,
			"-0.007": 6.49098747322,
			"-0.006": 9.03465851282,
			"-0.005": 14.8189458878,
			"-0.004": 18.5787407732,
			"-0.003": 16.3302712281,
			"-0.002": 22.0502286878,
			"-0.001": 23.9519612509,
			"0.0": 18.6089558056,
			"0.001": 14.6868992099,
			"0.002": 18.9165952671,
			"0.003": 14.6677461272,
			"0.004": 7.63120375763,
			"0.005": 5.42791360888,
			"0.006": 6.91784272464,
			"0.007": 5.3669794119,
			"0.008": 5.79161038949,
			"0.009": 7.65009766431,
			"0.01": 5.42609412715,
			"0.011": 2.1094766149,
			"0.012": 0.0435729736016,
			"0.013": 0.0,
			"0.014": 0.0,
			"0.015": 0.0,
			"0.016": 0.0,
			"0.017": 0.0,
			"0.018": 0.0,
			"0.019": 0.0,
			"0.02": 0.0,
			"0.021": 0.0,
			"0.022": 0.0,
			"0.023": 0.0,
			"0.024": 0.0,
			"0.025": 0.0
		}
	}
}
