{
	 "smiles": "CCCCCCCC(C)=C", 
	 "Tm": 209.15, 
	 "num_atms": 30, 
	 "gaussian": { 
		 "optdone": 1, 
		 "sigma_profile": "yes", 
		 "theory": "DFT", 
		 "functional": "B3LYP", 
		 "basiset": "6-31G**", 
		 "properties": { 
			 "R2extent": 2855.7397, 
			 "electric_dipole_moment_norm": 0.475746749858, 
			 "electric_quadrupole_moment_norm": 2.67006637183, 
			 "total_energy": -393.127336655, 
			 "HOMO_LUMO_gap": 0.26728, 
			 "cosmo_polarized_energy": -1.78, 
			 "cosmo_cavitation_energy": 31.05, 
			 "cosmo_dispersion_energy": -21.28, 
			 "cosmo_repulsion_energy": 1.79, 
			 "cosmo_total_nonelectrostatic_energy": 11.55, 
			 "SMD_solvation_energy": 5.36 
		},
		"coords": [
			{
				"x": 2.1613757686,
				"y": 2.4532154222,
				"z": 2.2270720051,
				"element": "C" 
			},
			{
				"x": 0.9851473828,
				"y": 1.7148234186,
				"z": 1.5795862324,
				"element": "C" 
			},
			{
				"x": 0.492645181,
				"y": 2.3890841998,
				"z": 0.2910513931,
				"element": "C" 
			},
			{
				"x": -0.7311085312,
				"y": 1.7237096481,
				"z": -0.3599740966,
				"element": "C" 
			},
			{
				"x": -0.4792215062,
				"y": 0.3130949144,
				"z": -0.9109753558,
				"element": "C" 
			},
			{
				"x": -1.7012409696,
				"y": -0.2783123013,
				"z": -1.6244886169,
				"element": "C" 
			},
			{
				"x": -1.4700949872,
				"y": -1.6938603008,
				"z": -2.1971459823,
				"element": "C" 
			},
			{
				"x": -1.1860120093,
				"y": -2.7633119702,
				"z": -1.1616307587,
				"element": "C" 
			},
			{
				"x": -2.3007821036,
				"y": -3.0848968158,
				"z": -0.1951308074,
				"element": "C" 
			},
			{
				"x": -0.012580013,
				"y": -3.4037938574,
				"z": -1.1161668979,
				"element": "C" 
			},
			{
				"x": 2.4921539207,
				"y": 1.9553618963,
				"z": 3.1445947066,
				"element": "H" 
			},
			{
				"x": 1.8889169984,
				"y": 3.4827869554,
				"z": 2.4866710146,
				"element": "H" 
			},
			{
				"x": 3.0203338219,
				"y": 2.5020710678,
				"z": 1.547838616,
				"element": "H" 
			},
			{
				"x": 1.2809980852,
				"y": 0.6794047032,
				"z": 1.3702159888,
				"element": "H" 
			},
			{
				"x": 0.152357367,
				"y": 1.6547015227,
				"z": 2.2942076201,
				"element": "H" 
			},
			{
				"x": 1.3165953893,
				"y": 2.4230907281,
				"z": -0.4365860555,
				"element": "H" 
			},
			{
				"x": 0.2466965126,
				"y": 3.4360985584,
				"z": 0.5160136984,
				"element": "H" 
			},
			{
				"x": -1.0856323733,
				"y": 2.364483024,
				"z": -1.1791333204,
				"element": "H" 
			},
			{
				"x": -1.5530180885,
				"y": 1.6866684343,
				"z": 0.3699339528,
				"element": "H" 
			},
			{
				"x": -0.1726448644,
				"y": -0.3613994773,
				"z": -0.1027786034,
				"element": "H" 
			},
			{
				"x": 0.366607983,
				"y": 0.3448252669,
				"z": -1.6135652142,
				"element": "H" 
			},
			{
				"x": -1.9939887882,
				"y": 0.3832543164,
				"z": -2.4506950552,
				"element": "H" 
			},
			{
				"x": -2.5565201134,
				"y": -0.2913600173,
				"z": -0.9355810683,
				"element": "H" 
			},
			{
				"x": -0.641520465,
				"y": -1.6570480705,
				"z": -2.9146953646,
				"element": "H" 
			},
			{
				"x": -2.3651532783,
				"y": -1.9835841645,
				"z": -2.7669933645,
				"element": "H" 
			},
			{
				"x": -3.212920826,
				"y": -3.3772968488,
				"z": -0.7317096539,
				"element": "H" 
			},
			{
				"x": -2.0257545897,
				"y": -3.9000627802,
				"z": 0.479424134,
				"element": "H" 
			},
			{
				"x": -2.5667795429,
				"y": -2.2158882574,
				"z": 0.4191567764,
				"element": "H" 
			},
			{
				"x": 0.1879814973,
				"y": -4.1789796128,
				"z": -0.3811849917,
				"element": "H" 
			},
			{
				"x": 0.787463142,
				"y": -3.1777796025,
				"z": -1.8160309308,
				"element": "H" 
			}
		],
		 "valence_orbital": [ 
			{
				"type": "occ",
				"energy": -0.31747,
				"method": "rhf"
			},
			{
				"type": "occ",
				"energy": -0.31486,
				"method": "rhf"
			},
			{
				"type": "occ",
				"energy": -0.30701,
				"method": "rhf"
			},
			{
				"type": "occ",
				"energy": -0.30411,
				"method": "rhf"
			},
			{
				"type": "occ",
				"energy": -0.23901,
				"method": "rhf"
			},
			{
				"type": "unocc",
				"energy": 0.02827,
				"method": "rhf"
			},
			{
				"type": "unocc",
				"energy": 0.08579,
				"method": "rhf"
			},
			{
				"type": "unocc",
				"energy": 0.09873,
				"method": "rhf"
			},
			{
				"type": "unocc",
				"energy": 0.11506,
				"method": "rhf"
			},
			{
				"type": "unocc",
				"energy": 0.117,
				"method": "rhf"
			}
		],
		"cosmo_sigma_profile": { 
			"-0.025": 0.0,
			"-0.024": 0.0,
			"-0.023": 0.0,
			"-0.022": 0.0,
			"-0.021": 0.0,
			"-0.02": 0.0,
			"-0.019": 0.0,
			"-0.018": 0.0,
			"-0.017": 0.0,
			"-0.016": 0.0,
			"-0.015": 0.0,
			"-0.014": 0.0,
			"-0.013": 0.0,
			"-0.012": 0.0,
			"-0.011": 0.0,
			"-0.01": 0.0,
			"-0.009": 0.0,
			"-0.008": 0.0,
			"-0.007": 0.0,
			"-0.006": 0.0,
			"-0.005": 0.0137309467287,
			"-0.004": 3.47717630972,
			"-0.003": 16.04367431,
			"-0.002": 32.2233999479,
			"-0.001": 50.4027773259,
			"0.0": 51.8610979254,
			"0.001": 43.7968123614,
			"0.002": 21.104317169,
			"0.003": 5.2123821407,
			"0.004": 4.93682963398,
			"0.005": 4.33845105293,
			"0.006": 3.36003357829,
			"0.007": 1.63414614422,
			"0.008": 0.371594383906,
			"0.009": 0.0,
			"0.01": 0.0,
			"0.011": 0.0,
			"0.012": 0.0,
			"0.013": 0.0,
			"0.014": 0.0,
			"0.015": 0.0,
			"0.016": 0.0,
			"0.017": 0.0,
			"0.018": 0.0,
			"0.019": 0.0,
			"0.02": 0.0,
			"0.021": 0.0,
			"0.022": 0.0,
			"0.023": 0.0,
			"0.024": 0.0,
			"0.025": 0.0
		}
	}
}
