{
	 "smiles": "OC(=O)CCNC(=O)C1=CC2=C(NN=N2)C=C1", 
	 "Tm": 503.15, 
	 "num_atms": 27, 
	 "gaussian": { 
		 "optdone": 1, 
		 "sigma_profile": "yes", 
		 "theory": "DFT", 
		 "functional": "B3LYP", 
		 "basiset": "6-31G**", 
		 "properties": { 
			 "R2extent": 6176.3203, 
			 "electric_dipole_moment_norm": 2.90756687455, 
			 "electric_quadrupole_moment_norm": 34.7369806921, 
			 "total_energy": -831.772189762, 
			 "HOMO_LUMO_gap": 0.19328, 
			 "cosmo_polarized_energy": -23.79, 
			 "cosmo_cavitation_energy": 32.6, 
			 "cosmo_dispersion_energy": -23.64, 
			 "cosmo_repulsion_energy": 1.84, 
			 "cosmo_total_nonelectrostatic_energy": 10.8, 
			 "SMD_solvation_energy": 4.82 
		},
		"coords": [
			{
				"x": -1.6707632307,
				"y": -3.4944810094,
				"z": -1.4332982751,
				"element": "O" 
			},
			{
				"x": -0.6690635352,
				"y": -2.6509300306,
				"z": -1.1060506157,
				"element": "C" 
			},
			{
				"x": 0.0005914966,
				"y": -2.080424861,
				"z": -1.9455859137,
				"element": "O" 
			},
			{
				"x": -0.5079658575,
				"y": -2.5125170676,
				"z": 0.391228659,
				"element": "C" 
			},
			{
				"x": 0.7579802547,
				"y": -1.7368076521,
				"z": 0.7769850517,
				"element": "C" 
			},
			{
				"x": 0.766877822,
				"y": -0.3715249663,
				"z": 0.2790538637,
				"element": "N" 
			},
			{
				"x": 0.2752861572,
				"y": 0.6569207143,
				"z": 1.0365958577,
				"element": "C" 
			},
			{
				"x": -0.1264644886,
				"y": 0.4927261507,
				"z": 2.1882341623,
				"element": "O" 
			},
			{
				"x": 0.2610110333,
				"y": 2.0155605845,
				"z": 0.3905561046,
				"element": "C" 
			},
			{
				"x": 1.0249109857,
				"y": 2.3363727532,
				"z": -0.727538224,
				"element": "C" 
			},
			{
				"x": 0.9329613482,
				"y": 3.6429306496,
				"z": -1.2272133694,
				"element": "C" 
			},
			{
				"x": 0.0963329537,
				"y": 4.5952903617,
				"z": -0.6098132101,
				"element": "C" 
			},
			{
				"x": 0.285625463,
				"y": 5.7084570528,
				"z": -1.3729471828,
				"element": "N" 
			},
			{
				"x": 1.1741553404,
				"y": 5.4640250117,
				"z": -2.3840339505,
				"element": "N" 
			},
			{
				"x": 1.5647542449,
				"y": 4.2375066334,
				"z": -2.3031358373,
				"element": "N" 
			},
			{
				"x": -0.6693139246,
				"y": 4.2881201938,
				"z": 0.5263257981,
				"element": "C" 
			},
			{
				"x": -0.5638419939,
				"y": 2.9958046233,
				"z": 1.0079009093,
				"element": "C" 
			},
			{
				"x": -1.7133977784,
				"y": -3.5078576084,
				"z": -2.4047726322,
				"element": "H" 
			},
			{
				"x": -1.3961951869,
				"y": -2.0054428246,
				"z": 0.7869343862,
				"element": "H" 
			},
			{
				"x": -0.5051225693,
				"y": -3.5148578655,
				"z": 0.8346491085,
				"element": "H" 
			},
			{
				"x": 0.8300641361,
				"y": -1.6857333903,
				"z": 1.8642448305,
				"element": "H" 
			},
			{
				"x": 1.6426199361,
				"y": -2.253224127,
				"z": 0.391312104,
				"element": "H" 
			},
			{
				"x": 0.8212224998,
				"y": -0.2745515569,
				"z": -0.725120879,
				"element": "H" 
			},
			{
				"x": 1.699064491,
				"y": 1.6287151083,
				"z": -1.1977317709,
				"element": "H" 
			},
			{
				"x": -0.1158214458,
				"y": 6.6299089247,
				"z": -1.2881020637,
				"element": "H" 
			},
			{
				"x": -1.3073384884,
				"y": 5.0209689401,
				"z": 1.0091668922,
				"element": "H" 
			},
			{
				"x": -1.1120696635,
				"y": 2.6890452575,
				"z": 1.8917561966,
				"element": "H" 
			}
		],
		 "valence_orbital": [ 
			{
				"type": "occ",
				"energy": -0.27477,
				"method": "rhf"
			},
			{
				"type": "occ",
				"energy": -0.26154,
				"method": "rhf"
			},
			{
				"type": "occ",
				"energy": -0.25841,
				"method": "rhf"
			},
			{
				"type": "occ",
				"energy": -0.24841,
				"method": "rhf"
			},
			{
				"type": "occ",
				"energy": -0.24678,
				"method": "rhf"
			},
			{
				"type": "unocc",
				"energy": -0.0535,
				"method": "rhf"
			},
			{
				"type": "unocc",
				"energy": -0.02484,
				"method": "rhf"
			},
			{
				"type": "unocc",
				"energy": -0.00514,
				"method": "rhf"
			},
			{
				"type": "unocc",
				"energy": 0.02763,
				"method": "rhf"
			},
			{
				"type": "unocc",
				"energy": 0.06538,
				"method": "rhf"
			}
		],
		"cosmo_sigma_profile": { 
			"-0.025": 0.0,
			"-0.024": 0.0,
			"-0.023": 0.0,
			"-0.022": 0.0,
			"-0.021": 0.0,
			"-0.02": 0.0,
			"-0.019": 0.00751854406123,
			"-0.018": 2.24529476566,
			"-0.017": 2.57053309837,
			"-0.016": 2.48028592719,
			"-0.015": 1.73456848513,
			"-0.014": 1.88964683726,
			"-0.013": 2.03617614819,
			"-0.012": 2.2083981875,
			"-0.011": 1.88176378089,
			"-0.01": 2.75998503714,
			"-0.009": 2.97514446682,
			"-0.008": 4.83623132924,
			"-0.007": 8.62203048889,
			"-0.006": 13.0367218112,
			"-0.005": 15.8811983752,
			"-0.004": 13.8954879394,
			"-0.003": 15.9860359248,
			"-0.002": 14.8863404583,
			"-0.001": 15.2945052442,
			"0.0": 17.7261898935,
			"0.001": 18.2104289666,
			"0.002": 16.2545621083,
			"0.003": 12.532495276,
			"0.004": 8.14624038903,
			"0.005": 6.24883807775,
			"0.006": 5.61175543539,
			"0.007": 5.96720165476,
			"0.008": 6.86673011017,
			"0.009": 7.21208821441,
			"0.01": 7.47166694899,
			"0.011": 7.1351374153,
			"0.012": 5.44801483851,
			"0.013": 5.36845317041,
			"0.014": 3.74903151401,
			"0.015": 1.07138758488,
			"0.016": 0.00584319160295,
			"0.017": 0.0,
			"0.018": 0.0,
			"0.019": 0.0,
			"0.02": 0.0,
			"0.021": 0.0,
			"0.022": 0.0,
			"0.023": 0.0,
			"0.024": 0.0,
			"0.025": 0.0
		}
	}
}
