{
	 "smiles": "OC(=O)CN1C(=O)CC2=C(C=CC=C2)C1=O", 
	 "Tm": 520.15, 
	 "num_atms": 25, 
	 "gaussian": { 
		 "optdone": 1, 
		 "sigma_profile": "yes", 
		 "theory": "DFT", 
		 "functional": "B3LYP", 
		 "basiset": "6-31G**", 
		 "properties": { 
			 "R2extent": 4000.8873, 
			 "electric_dipole_moment_norm": 5.07215296496, 
			 "electric_quadrupole_moment_norm": 10.7542885897, 
			 "total_energy": -780.290803732, 
			 "HOMO_LUMO_gap": 0.20111, 
			 "cosmo_polarized_energy": -17.26, 
			 "cosmo_cavitation_energy": 29.75, 
			 "cosmo_dispersion_energy": -21.49, 
			 "cosmo_repulsion_energy": 1.67, 
			 "cosmo_total_nonelectrostatic_energy": 9.92, 
			 "SMD_solvation_energy": 7.19 
		},
		"coords": [
			{
				"x": -2.0271495293,
				"y": 0.2572475605,
				"z": -1.2355462269,
				"element": "O" 
			},
			{
				"x": -1.9949665046,
				"y": -1.0076402354,
				"z": -0.7635107969,
				"element": "C" 
			},
			{
				"x": -2.790329098,
				"y": -1.8603827875,
				"z": -1.0804195627,
				"element": "O" 
			},
			{
				"x": -0.8907885681,
				"y": -1.2368772241,
				"z": 0.2567983622,
				"element": "C" 
			},
			{
				"x": 0.1868837947,
				"y": -0.2527385978,
				"z": 0.2224476001,
				"element": "N" 
			},
			{
				"x": 0.2388794802,
				"y": 0.704034346,
				"z": 1.2410897874,
				"element": "C" 
			},
			{
				"x": -0.5603063529,
				"y": 0.6965612091,
				"z": 2.1604719393,
				"element": "O" 
			},
			{
				"x": 1.3204779502,
				"y": 1.7649368926,
				"z": 1.1586779924,
				"element": "C" 
			},
			{
				"x": 2.3289854295,
				"y": 1.6387056892,
				"z": 0.0494225396,
				"element": "C" 
			},
			{
				"x": 2.1868660059,
				"y": 0.6405968264,
				"z": -0.9222099568,
				"element": "C" 
			},
			{
				"x": 3.1110498381,
				"y": 0.5284573233,
				"z": -1.9717396284,
				"element": "C" 
			},
			{
				"x": 4.1816844403,
				"y": 1.4099139099,
				"z": -2.0515932528,
				"element": "C" 
			},
			{
				"x": 4.3308711476,
				"y": 2.4082716048,
				"z": -1.0816010824,
				"element": "C" 
			},
			{
				"x": 3.4112959097,
				"y": 2.5213019716,
				"z": -0.0410611981,
				"element": "C" 
			},
			{
				"x": 1.0651597968,
				"y": -0.328549921,
				"z": -0.8747696898,
				"element": "C" 
			},
			{
				"x": 0.8863316054,
				"y": -1.1857062394,
				"z": -1.7269087526,
				"element": "O" 
			},
			{
				"x": -2.7719393232,
				"y": 0.290564616,
				"z": -1.8592142782,
				"element": "H" 
			},
			{
				"x": -0.4920096551,
				"y": -2.2354594983,
				"z": 0.0788019543,
				"element": "H" 
			},
			{
				"x": -1.3364019427,
				"y": -1.190801074,
				"z": 1.2524644211,
				"element": "H" 
			},
			{
				"x": 0.7907294354,
				"y": 2.7240588315,
				"z": 1.0870229291,
				"element": "H" 
			},
			{
				"x": 1.8100859174,
				"y": 1.7803343315,
				"z": 2.1391515111,
				"element": "H" 
			},
			{
				"x": 2.9629088942,
				"y": -0.2574847263,
				"z": -2.7041623891,
				"element": "H" 
			},
			{
				"x": 4.8992555545,
				"y": 1.3244350576,
				"z": -2.8616925369,
				"element": "H" 
			},
			{
				"x": 5.1667945709,
				"y": 3.0995657271,
				"z": -1.1379962153,
				"element": "H" 
			},
			{
				"x": 3.5319312031,
				"y": 3.2998544066,
				"z": 0.7078765303,
				"element": "H" 
			}
		],
		 "valence_orbital": [ 
			{
				"type": "occ",
				"energy": -0.28828,
				"method": "rhf"
			},
			{
				"type": "occ",
				"energy": -0.27431,
				"method": "rhf"
			},
			{
				"type": "occ",
				"energy": -0.27053,
				"method": "rhf"
			},
			{
				"type": "occ",
				"energy": -0.26891,
				"method": "rhf"
			},
			{
				"type": "occ",
				"energy": -0.26378,
				"method": "rhf"
			},
			{
				"type": "unocc",
				"energy": -0.06267,
				"method": "rhf"
			},
			{
				"type": "unocc",
				"energy": -0.02599,
				"method": "rhf"
			},
			{
				"type": "unocc",
				"energy": -0.01088,
				"method": "rhf"
			},
			{
				"type": "unocc",
				"energy": 0.01034,
				"method": "rhf"
			},
			{
				"type": "unocc",
				"energy": 0.05704,
				"method": "rhf"
			}
		],
		"cosmo_sigma_profile": { 
			"-0.025": 0.0,
			"-0.024": 0.0,
			"-0.023": 0.0,
			"-0.022": 0.0,
			"-0.021": 0.0,
			"-0.02": 0.0,
			"-0.019": 0.381657867665,
			"-0.018": 1.00505319017,
			"-0.017": 1.21491629996,
			"-0.016": 0.585987717663,
			"-0.015": 0.406946720353,
			"-0.014": 0.575139227803,
			"-0.013": 0.578734712255,
			"-0.012": 0.997825912169,
			"-0.011": 1.18974661817,
			"-0.01": 0.679443576316,
			"-0.009": 0.571580732314,
			"-0.008": 6.01848376291,
			"-0.007": 13.6119015534,
			"-0.006": 19.8201935038,
			"-0.005": 17.6721871794,
			"-0.004": 17.4510649384,
			"-0.003": 12.9205477518,
			"-0.002": 11.6012452656,
			"-0.001": 9.90867132803,
			"0.0": 11.6408725426,
			"0.001": 13.0688973207,
			"0.002": 14.396552221,
			"0.003": 17.2127509815,
			"0.004": 12.1774274063,
			"0.005": 7.26740384751,
			"0.006": 4.84149065797,
			"0.007": 4.39049507209,
			"0.008": 4.71814359024,
			"0.009": 4.5139348279,
			"0.01": 6.62458205779,
			"0.011": 12.1749254874,
			"0.012": 6.8199557853,
			"0.013": 0.602806703611,
			"0.014": 0.0,
			"0.015": 0.0,
			"0.016": 0.0,
			"0.017": 0.0,
			"0.018": 0.0,
			"0.019": 0.0,
			"0.02": 0.0,
			"0.021": 0.0,
			"0.022": 0.0,
			"0.023": 0.0,
			"0.024": 0.0,
			"0.025": 0.0
		}
	}
}
