{
	 "smiles": "OC(=O)C1=CN=C(N=C1)C1=CC=CC=C1", 
	 "Tm": 542.15, 
	 "num_atms": 23, 
	 "gaussian": { 
		 "optdone": 1, 
		 "sigma_profile": "yes", 
		 "theory": "DFT", 
		 "functional": "B3LYP", 
		 "basiset": "6-31G**", 
		 "properties": { 
			 "R2extent": 4198.4525, 
			 "electric_dipole_moment_norm": 1.3767816312, 
			 "electric_quadrupole_moment_norm": 16.4439670895, 
			 "total_energy": -683.962322314, 
			 "HOMO_LUMO_gap": 0.16508, 
			 "cosmo_polarized_energy": -11.0, 
			 "cosmo_cavitation_energy": 28.53, 
			 "cosmo_dispersion_energy": -21.25, 
			 "cosmo_repulsion_energy": 1.64, 
			 "cosmo_total_nonelectrostatic_energy": 8.91, 
			 "SMD_solvation_energy": 4.09 
		},
		"coords": [
			{
				"x": -0.4086126306,
				"y": 0.5632213538,
				"z": -4.416926176,
				"element": "O" 
			},
			{
				"x": -1.272086926,
				"y": -0.088348635,
				"z": -3.6007559036,
				"element": "C" 
			},
			{
				"x": -2.2912164656,
				"y": -0.6104436512,
				"z": -4.0058482796,
				"element": "O" 
			},
			{
				"x": -0.8328335285,
				"y": -0.0865527133,
				"z": -2.1873467506,
				"element": "C" 
			},
			{
				"x": 0.3436213664,
				"y": 0.517688778,
				"z": -1.7280144304,
				"element": "C" 
			},
			{
				"x": 0.7023258271,
				"y": 0.4963288224,
				"z": -0.4473898138,
				"element": "N" 
			},
			{
				"x": -0.1202253611,
				"y": -0.1390187997,
				"z": 0.4127593755,
				"element": "C" 
			},
			{
				"x": -1.2737870903,
				"y": -0.7507218604,
				"z": 0.0694829309,
				"element": "N" 
			},
			{
				"x": -1.6158225169,
				"y": -0.7192127662,
				"z": -1.2137827906,
				"element": "C" 
			},
			{
				"x": 0.2709095024,
				"y": -0.1677934476,
				"z": 1.8394937708,
				"element": "C" 
			},
			{
				"x": 1.4598039908,
				"y": 0.4497896974,
				"z": 2.2627236315,
				"element": "C" 
			},
			{
				"x": 1.8250707355,
				"y": 0.4208687511,
				"z": 3.6060503446,
				"element": "C" 
			},
			{
				"x": 1.0110799579,
				"y": -0.2228514857,
				"z": 4.5420613641,
				"element": "C" 
			},
			{
				"x": -0.172756844,
				"y": -0.8390175827,
				"z": 4.127569133,
				"element": "C" 
			},
			{
				"x": -0.5430017901,
				"y": -0.8132522943,
				"z": 2.7854957055,
				"element": "C" 
			},
			{
				"x": -0.7855063244,
				"y": 0.5042427331,
				"z": -5.3103266671,
				"element": "H" 
			},
			{
				"x": 1.0083937813,
				"y": 1.0304935048,
				"z": -2.4190449356,
				"element": "H" 
			},
			{
				"x": -2.5433722679,
				"y": -1.2088530847,
				"z": -1.5023536735,
				"element": "H" 
			},
			{
				"x": 2.0817479189,
				"y": 0.9454617637,
				"z": 1.5263587336,
				"element": "H" 
			},
			{
				"x": 2.7459557086,
				"y": 0.9009388974,
				"z": 3.9242299596,
				"element": "H" 
			},
			{
				"x": 1.2980027932,
				"y": -0.2441917544,
				"z": 5.5896142946,
				"element": "H" 
			},
			{
				"x": -0.8081246551,
				"y": -1.340335288,
				"z": 4.8519274787,
				"element": "H" 
			},
			{
				"x": -1.4583651816,
				"y": -1.2870409385,
				"z": 2.4503226986,
				"element": "H" 
			}
		],
		 "valence_orbital": [ 
			{
				"type": "occ",
				"energy": -0.30581,
				"method": "rhf"
			},
			{
				"type": "occ",
				"energy": -0.2869,
				"method": "rhf"
			},
			{
				"type": "occ",
				"energy": -0.25675,
				"method": "rhf"
			},
			{
				"type": "occ",
				"energy": -0.25471,
				"method": "rhf"
			},
			{
				"type": "occ",
				"energy": -0.24414,
				"method": "rhf"
			},
			{
				"type": "unocc",
				"energy": -0.07906,
				"method": "rhf"
			},
			{
				"type": "unocc",
				"energy": -0.04863,
				"method": "rhf"
			},
			{
				"type": "unocc",
				"energy": -0.00735,
				"method": "rhf"
			},
			{
				"type": "unocc",
				"energy": -0.0018,
				"method": "rhf"
			},
			{
				"type": "unocc",
				"energy": 0.05286,
				"method": "rhf"
			}
		],
		"cosmo_sigma_profile": { 
			"-0.025": 0.0,
			"-0.024": 0.0,
			"-0.023": 0.0,
			"-0.022": 0.0,
			"-0.021": 0.0,
			"-0.02": 0.0,
			"-0.019": 0.386923825193,
			"-0.018": 0.988400853005,
			"-0.017": 1.15054092633,
			"-0.016": 0.499796706155,
			"-0.015": 0.457799915918,
			"-0.014": 0.561065250644,
			"-0.013": 0.692696854943,
			"-0.012": 1.42553332668,
			"-0.011": 0.654635902141,
			"-0.01": 0.623567887017,
			"-0.009": 0.357782539063,
			"-0.008": 2.34256552642,
			"-0.007": 4.40515730377,
			"-0.006": 9.16059067347,
			"-0.005": 12.61021795,
			"-0.004": 16.5804321949,
			"-0.003": 22.5843441028,
			"-0.002": 21.0838104661,
			"-0.001": 14.3368647921,
			"0.0": 14.2769667439,
			"0.001": 13.7452950676,
			"0.002": 18.2712443853,
			"0.003": 15.4918759626,
			"0.004": 17.3419338084,
			"0.005": 11.2446910263,
			"0.006": 6.3024502611,
			"0.007": 3.8714289751,
			"0.008": 3.49889113681,
			"0.009": 4.7088130343,
			"0.01": 4.42732096926,
			"0.011": 4.87532553115,
			"0.012": 1.19654127965,
			"0.013": 0.0,
			"0.014": 0.0,
			"0.015": 0.0,
			"0.016": 0.0,
			"0.017": 0.0,
			"0.018": 0.0,
			"0.019": 0.0,
			"0.02": 0.0,
			"0.021": 0.0,
			"0.022": 0.0,
			"0.023": 0.0,
			"0.024": 0.0,
			"0.025": 0.0
		}
	}
}
