{
	 "smiles": "NC1=C2C=CNC2=CC=C1", 
	 "Tm": 380.65, 
	 "num_atms": 18, 
	 "gaussian": { 
		 "optdone": 1, 
		 "sigma_profile": "yes", 
		 "theory": "DFT", 
		 "functional": "B3LYP", 
		 "basiset": "6-31G**", 
		 "properties": { 
			 "R2extent": 1373.5249, 
			 "electric_dipole_moment_norm": 1.72314374328, 
			 "electric_quadrupole_moment_norm": 13.8351945472, 
			 "total_energy": -419.179261251, 
			 "HOMO_LUMO_gap": 0.18468, 
			 "cosmo_polarized_energy": -12.31, 
			 "cosmo_cavitation_energy": 21.36, 
			 "cosmo_dispersion_energy": -16.33, 
			 "cosmo_repulsion_energy": 1.31, 
			 "cosmo_total_nonelectrostatic_energy": 6.34, 
			 "SMD_solvation_energy": 3.53 
		},
		"coords": [
			{
				"x": -0.812226412,
				"y": 2.1280109106,
				"z": 0.1989154899,
				"element": "N" 
			},
			{
				"x": -0.5970969144,
				"y": 0.7821430043,
				"z": 0.5141722606,
				"element": "C" 
			},
			{
				"x": 0.6553609991,
				"y": 0.1794339639,
				"z": 0.245964226,
				"element": "C" 
			},
			{
				"x": 1.8973730967,
				"y": 0.6667230802,
				"z": -0.2912924021,
				"element": "C" 
			},
			{
				"x": 2.769326272,
				"y": -0.3897367042,
				"z": -0.3083844912,
				"element": "C" 
			},
			{
				"x": 2.1351496834,
				"y": -1.5133418693,
				"z": 0.1905568174,
				"element": "N" 
			},
			{
				"x": 0.8360731451,
				"y": -1.1978123262,
				"z": 0.5357468068,
				"element": "C" 
			},
			{
				"x": -0.1788517882,
				"y": -2.0057390845,
				"z": 1.068330179,
				"element": "C" 
			},
			{
				"x": -1.399239724,
				"y": -1.3889042863,
				"z": 1.3091817621,
				"element": "C" 
			},
			{
				"x": -1.6087303174,
				"y": -0.0221627379,
				"z": 1.0439609079,
				"element": "C" 
			},
			{
				"x": -1.5995757062,
				"y": 2.5447975302,
				"z": 0.6778707006,
				"element": "H" 
			},
			{
				"x": 0.0105018623,
				"y": 2.7115912671,
				"z": 0.2734283777,
				"element": "H" 
			},
			{
				"x": 2.117520107,
				"y": 1.6651832461,
				"z": -0.6419982513,
				"element": "H" 
			},
			{
				"x": 3.7959279314,
				"y": -0.4402090573,
				"z": -0.641558566,
				"element": "H" 
			},
			{
				"x": 2.5520361268,
				"y": -2.4251731868,
				"z": 0.2788613702,
				"element": "H" 
			},
			{
				"x": -0.0206011676,
				"y": -3.0586303528,
				"z": 1.2799789358,
				"element": "H" 
			},
			{
				"x": -2.2185563358,
				"y": -1.9708010953,
				"z": 1.722010147,
				"element": "H" 
			},
			{
				"x": -2.5797908582,
				"y": 0.4192276983,
				"z": 1.2551557296,
				"element": "H" 
			}
		],
		 "valence_orbital": [ 
			{
				"type": "occ",
				"energy": -0.33538,
				"method": "rhf"
			},
			{
				"type": "occ",
				"energy": -0.29117,
				"method": "rhf"
			},
			{
				"type": "occ",
				"energy": -0.24201,
				"method": "rhf"
			},
			{
				"type": "occ",
				"energy": -0.20949,
				"method": "rhf"
			},
			{
				"type": "occ",
				"energy": -0.17438,
				"method": "rhf"
			},
			{
				"type": "unocc",
				"energy": 0.0103,
				"method": "rhf"
			},
			{
				"type": "unocc",
				"energy": 0.04198,
				"method": "rhf"
			},
			{
				"type": "unocc",
				"energy": 0.08053,
				"method": "rhf"
			},
			{
				"type": "unocc",
				"energy": 0.08126,
				"method": "rhf"
			},
			{
				"type": "unocc",
				"energy": 0.09426,
				"method": "rhf"
			}
		],
		"cosmo_sigma_profile": { 
			"-0.025": 0.0,
			"-0.024": 0.0,
			"-0.023": 0.0,
			"-0.022": 0.0,
			"-0.021": 0.0,
			"-0.02": 0.0,
			"-0.019": 0.0,
			"-0.018": 0.0,
			"-0.017": 0.0,
			"-0.016": 0.0707335815336,
			"-0.015": 1.15416404237,
			"-0.014": 1.54978732935,
			"-0.013": 1.1526128433,
			"-0.012": 2.25022589716,
			"-0.011": 3.57825283965,
			"-0.01": 3.40891619771,
			"-0.009": 4.75124422661,
			"-0.008": 5.06100593054,
			"-0.007": 6.2559550101,
			"-0.006": 6.20035162997,
			"-0.005": 9.51412227939,
			"-0.004": 9.14312661256,
			"-0.003": 8.73602469586,
			"-0.002": 10.1059860167,
			"-0.001": 8.11933276228,
			"0.0": 7.24790071353,
			"0.001": 6.62846250907,
			"0.002": 7.23862075958,
			"0.003": 6.42538588434,
			"0.004": 7.48529612028,
			"0.005": 9.74096481432,
			"0.006": 12.5604980632,
			"0.007": 14.9658026185,
			"0.008": 10.2159248746,
			"0.009": 1.99066316945,
			"0.01": 0.406976436343,
			"0.011": 1.56514128657,
			"0.012": 0.455002104925,
			"0.013": 0.886795419853,
			"0.014": 0.37361680943,
			"0.015": 0.84814187872,
			"0.016": 0.00715828831841,
			"0.017": 0.0,
			"0.018": 0.0,
			"0.019": 0.0,
			"0.02": 0.0,
			"0.021": 0.0,
			"0.022": 0.0,
			"0.023": 0.0,
			"0.024": 0.0,
			"0.025": 0.0
		}
	}
}
