{
	 "smiles": "C1CN=C(C2=CC=CC=C2)C(=N1)C1=CC=CC=C1", 
	 "Tm": 435.15, 
	 "num_atms": 32, 
	 "gaussian": { 
		 "optdone": 1, 
		 "sigma_profile": "yes", 
		 "theory": "DFT", 
		 "functional": "B3LYP", 
		 "basiset": "6-31G**", 
		 "properties": { 
			 "R2extent": 4705.2503, 
			 "electric_dipole_moment_norm": 1.01969931843, 
			 "electric_quadrupole_moment_norm": 6.03541200831, 
			 "total_energy": -727.616861726, 
			 "HOMO_LUMO_gap": 0.16125, 
			 "cosmo_polarized_energy": -9.06, 
			 "cosmo_cavitation_energy": 34.89, 
			 "cosmo_dispersion_energy": -24.86, 
			 "cosmo_repulsion_energy": 1.94, 
			 "cosmo_total_nonelectrostatic_energy": 11.96, 
			 "SMD_solvation_energy": 0.44 
		},
		"coords": [
			{
				"x": 0.9502890561,
				"y": 2.3098764872,
				"z": 1.3599635519,
				"element": "C" 
			},
			{
				"x": 1.0583786057,
				"y": 2.8755850221,
				"z": -0.0504767062,
				"element": "C" 
			},
			{
				"x": 1.1214055609,
				"y": 1.7899934701,
				"z": -1.0266368261,
				"element": "N" 
			},
			{
				"x": 0.3991301256,
				"y": 0.7554725703,
				"z": -0.7755970281,
				"element": "C" 
			},
			{
				"x": 0.5403575639,
				"y": -0.4240458402,
				"z": -1.6761048037,
				"element": "C" 
			},
			{
				"x": 0.3925733732,
				"y": -1.7366671519,
				"z": -1.2010992696,
				"element": "C" 
			},
			{
				"x": 0.6034503111,
				"y": -2.8238557336,
				"z": -2.049340986,
				"element": "C" 
			},
			{
				"x": 0.9504844419,
				"y": -2.6156615261,
				"z": -3.3849111469,
				"element": "C" 
			},
			{
				"x": 1.0997803065,
				"y": -1.3119875525,
				"z": -3.8666685165,
				"element": "C" 
			},
			{
				"x": 0.9051516609,
				"y": -0.2254602676,
				"z": -3.0180792206,
				"element": "C" 
			},
			{
				"x": -0.5070719382,
				"y": 0.7333439947,
				"z": 0.4402017771,
				"element": "C" 
			},
			{
				"x": -0.2264049513,
				"y": 1.4505042966,
				"z": 1.4706656994,
				"element": "N" 
			},
			{
				"x": -1.7736765365,
				"y": -0.0522613655,
				"z": 0.4660926496,
				"element": "C" 
			},
			{
				"x": -2.2816062958,
				"y": -0.4984778193,
				"z": 1.6974826118,
				"element": "C" 
			},
			{
				"x": -3.4916577699,
				"y": -1.1846009268,
				"z": 1.7569883573,
				"element": "C" 
			},
			{
				"x": -4.2235006001,
				"y": -1.4214229107,
				"z": 0.5898271097,
				"element": "C" 
			},
			{
				"x": -3.7350411249,
				"y": -0.968623918,
				"z": -0.6365069308,
				"element": "C" 
			},
			{
				"x": -2.5153550258,
				"y": -0.294675659,
				"z": -0.7007802611,
				"element": "C" 
			},
			{
				"x": 0.8712878742,
				"y": 3.1053233492,
				"z": 2.1079210461,
				"element": "H" 
			},
			{
				"x": 1.8547151091,
				"y": 1.7281415457,
				"z": 1.5996461118,
				"element": "H" 
			},
			{
				"x": 0.1860466993,
				"y": 3.5133772258,
				"z": -0.2652068643,
				"element": "H" 
			},
			{
				"x": 1.9501983321,
				"y": 3.4997234482,
				"z": -0.1667736564,
				"element": "H" 
			},
			{
				"x": 0.1215665613,
				"y": -1.9116477558,
				"z": -0.165255408,
				"element": "H" 
			},
			{
				"x": 0.4945384034,
				"y": -3.8338696257,
				"z": -1.6650036899,
				"element": "H" 
			},
			{
				"x": 1.104743218,
				"y": -3.4631731153,
				"z": -4.0467300247,
				"element": "H" 
			},
			{
				"x": 1.3710661253,
				"y": -1.1432346677,
				"z": -4.9049947269,
				"element": "H" 
			},
			{
				"x": 1.0369218438,
				"y": 0.7906116331,
				"z": -3.3739076056,
				"element": "H" 
			},
			{
				"x": -1.7134665918,
				"y": -0.2908601003,
				"z": 2.5977553656,
				"element": "H" 
			},
			{
				"x": -3.8670643082,
				"y": -1.5333542282,
				"z": 2.7149198211,
				"element": "H" 
			},
			{
				"x": -5.1687217057,
				"y": -1.9547238499,
				"z": 0.6369701708,
				"element": "H" 
			},
			{
				"x": -4.3021566971,
				"y": -1.1405741209,
				"z": -1.5467359499,
				"element": "H" 
			},
			{
				"x": -2.1456616267,
				"y": 0.0509250918,
				"z": -1.6604246508,
				"element": "H" 
			}
		],
		 "valence_orbital": [ 
			{
				"type": "occ",
				"energy": -0.25646,
				"method": "rhf"
			},
			{
				"type": "occ",
				"energy": -0.24855,
				"method": "rhf"
			},
			{
				"type": "occ",
				"energy": -0.23849,
				"method": "rhf"
			},
			{
				"type": "occ",
				"energy": -0.23741,
				"method": "rhf"
			},
			{
				"type": "occ",
				"energy": -0.22733,
				"method": "rhf"
			},
			{
				"type": "unocc",
				"energy": -0.06608,
				"method": "rhf"
			},
			{
				"type": "unocc",
				"energy": -0.0262,
				"method": "rhf"
			},
			{
				"type": "unocc",
				"energy": -0.00713,
				"method": "rhf"
			},
			{
				"type": "unocc",
				"energy": 0.00281,
				"method": "rhf"
			},
			{
				"type": "unocc",
				"energy": 0.01554,
				"method": "rhf"
			}
		],
		"cosmo_sigma_profile": { 
			"-0.025": 0.0,
			"-0.024": 0.0,
			"-0.023": 0.0,
			"-0.022": 0.0,
			"-0.021": 0.0,
			"-0.02": 0.0,
			"-0.019": 0.0,
			"-0.018": 0.0,
			"-0.017": 0.0,
			"-0.016": 0.0,
			"-0.015": 0.0,
			"-0.014": 0.0,
			"-0.013": 0.0,
			"-0.012": 0.0,
			"-0.011": 0.0,
			"-0.01": 0.0,
			"-0.009": 0.0,
			"-0.008": 0.0,
			"-0.007": 0.204121701189,
			"-0.006": 9.99300783107,
			"-0.005": 26.8004394111,
			"-0.004": 35.3915152379,
			"-0.003": 31.5795589701,
			"-0.002": 23.0450744092,
			"-0.001": 18.9531216564,
			"0.0": 16.7017389372,
			"0.001": 15.5057366594,
			"0.002": 17.642135937,
			"0.003": 17.7339805666,
			"0.004": 20.7444088321,
			"0.005": 23.1587656694,
			"0.006": 4.8568463853,
			"0.007": 2.91695359737,
			"0.008": 2.68714576632,
			"0.009": 2.4520391797,
			"0.01": 2.14962744997,
			"0.011": 1.99590007944,
			"0.012": 1.20359145397,
			"0.013": 1.90515986658,
			"0.014": 1.11848000419,
			"0.015": 0.200548829481,
			"0.016": 0.0,
			"0.017": 0.0,
			"0.018": 0.0,
			"0.019": 0.0,
			"0.02": 0.0,
			"0.021": 0.0,
			"0.022": 0.0,
			"0.023": 0.0,
			"0.024": 0.0,
			"0.025": 0.0
		}
	}
}
