{
	 "smiles": "OC(=O)CN1C=CC(=N1)[N+]([O-])=O", 
	 "Tm": 446.15, 
	 "num_atms": 17, 
	 "gaussian": { 
		 "optdone": 1, 
		 "sigma_profile": "yes", 
		 "theory": "DFT", 
		 "functional": "B3LYP", 
		 "basiset": "6-31G**", 
		 "properties": { 
			 "R2extent": 3202.8343, 
			 "electric_dipole_moment_norm": 5.70993109416, 
			 "electric_quadrupole_moment_norm": 18.0385476932, 
			 "total_energy": -658.568506348, 
			 "HOMO_LUMO_gap": 0.18105, 
			 "cosmo_polarized_energy": -19.46, 
			 "cosmo_cavitation_energy": 23.23, 
			 "cosmo_dispersion_energy": -16.93, 
			 "cosmo_repulsion_energy": 1.36, 
			 "cosmo_total_nonelectrostatic_energy": 7.65, 
			 "SMD_solvation_energy": 7.62 
		},
		"coords": [
			{
				"x": 1.4299484871,
				"y": -0.0470323029,
				"z": 1.713260664,
				"element": "O" 
			},
			{
				"x": 0.5306547365,
				"y": -0.8845884458,
				"z": 1.1963592144,
				"element": "C" 
			},
			{
				"x": -0.0063182582,
				"y": -1.7566196367,
				"z": 1.8336556601,
				"element": "O" 
			},
			{
				"x": 0.2406667613,
				"y": -0.7711819191,
				"z": -0.3175935476,
				"element": "C" 
			},
			{
				"x": 0.3205058694,
				"y": 0.5757258791,
				"z": -0.8777913008,
				"element": "N" 
			},
			{
				"x": -0.5646535019,
				"y": 1.2021059264,
				"z": -1.7037443228,
				"element": "C" 
			},
			{
				"x": -0.0375623763,
				"y": 2.445315573,
				"z": -1.996288411,
				"element": "C" 
			},
			{
				"x": 1.1725366842,
				"y": 2.4613043091,
				"z": -1.2844273179,
				"element": "C" 
			},
			{
				"x": 1.3960369303,
				"y": 1.3333215537,
				"z": -0.6143975142,
				"element": "N" 
			},
			{
				"x": 2.1294392665,
				"y": 3.5497968224,
				"z": -1.2241286457,
				"element": "N" 
			},
			{
				"x": 1.8577388031,
				"y": 4.5393173419,
				"z": -1.9049701298,
				"element": "O" 
			},
			{
				"x": 3.1177548197,
				"y": 3.4077131769,
				"z": -0.512722871,
				"element": "O" 
			},
			{
				"x": 1.7495194195,
				"y": 0.5886458945,
				"z": 1.0321267729,
				"element": "H" 
			},
			{
				"x": -0.7640333189,
				"y": -1.1550721515,
				"z": -0.4881622809,
				"element": "H" 
			},
			{
				"x": 0.9534145404,
				"y": -1.4188131739,
				"z": -0.8415840177,
				"element": "H" 
			},
			{
				"x": -1.4804047001,
				"y": 0.7218715579,
				"z": -2.015441775,
				"element": "H" 
			},
			{
				"x": -0.4474441624,
				"y": 3.2268895951,
				"z": -2.6142501772,
				"element": "H" 
			}
		],
		 "valence_orbital": [ 
			{
				"type": "occ",
				"energy": -0.32176,
				"method": "rhf"
			},
			{
				"type": "occ",
				"energy": -0.31851,
				"method": "rhf"
			},
			{
				"type": "occ",
				"energy": -0.30631,
				"method": "rhf"
			},
			{
				"type": "occ",
				"energy": -0.30565,
				"method": "rhf"
			},
			{
				"type": "occ",
				"energy": -0.28204,
				"method": "rhf"
			},
			{
				"type": "unocc",
				"energy": -0.10099,
				"method": "rhf"
			},
			{
				"type": "unocc",
				"energy": -0.03108,
				"method": "rhf"
			},
			{
				"type": "unocc",
				"energy": -0.00691,
				"method": "rhf"
			},
			{
				"type": "unocc",
				"energy": 0.04192,
				"method": "rhf"
			},
			{
				"type": "unocc",
				"energy": 0.05642,
				"method": "rhf"
			}
		],
		"cosmo_sigma_profile": { 
			"-0.025": 0.0,
			"-0.024": 0.0,
			"-0.023": 0.0,
			"-0.022": 0.0,
			"-0.021": 0.0,
			"-0.02": 0.0,
			"-0.019": 0.0,
			"-0.018": 0.0,
			"-0.017": 0.0,
			"-0.016": 0.0,
			"-0.015": 0.0,
			"-0.014": 0.0,
			"-0.013": 0.634882409864,
			"-0.012": 2.35533143441,
			"-0.011": 4.04134722663,
			"-0.01": 7.45677593903,
			"-0.009": 7.16206635098,
			"-0.008": 9.53495778955,
			"-0.007": 10.8106449177,
			"-0.006": 8.43813272936,
			"-0.005": 9.07408946328,
			"-0.004": 7.84901856267,
			"-0.003": 9.17123343859,
			"-0.002": 9.07092760897,
			"-0.001": 10.043958842,
			"0.0": 8.60463767853,
			"0.001": 6.7197419044,
			"0.002": 4.64352491138,
			"0.003": 3.63755542271,
			"0.004": 5.44133155843,
			"0.005": 6.37741793445,
			"0.006": 6.44430422463,
			"0.007": 14.0715249868,
			"0.008": 10.9145100558,
			"0.009": 8.41140093161,
			"0.01": 5.91406175896,
			"0.011": 5.90611859459,
			"0.012": 3.50497296006,
			"0.013": 0.496772400777,
			"0.014": 0.0,
			"0.015": 0.0,
			"0.016": 0.0,
			"0.017": 0.0,
			"0.018": 0.0,
			"0.019": 0.0,
			"0.02": 0.0,
			"0.021": 0.0,
			"0.022": 0.0,
			"0.023": 0.0,
			"0.024": 0.0,
			"0.025": 0.0
		}
	}
}
