{
	 "smiles": "FC(F)=C(C(F)(F)F)C(F)(F)F", 
	 "Tm": 143.15, 
	 "num_atms": 12, 
	 "gaussian": { 
		 "optdone": 1, 
		 "sigma_profile": "yes", 
		 "theory": "DFT", 
		 "functional": "B3LYP", 
		 "basiset": "6-31G**", 
		 "properties": { 
			 "R2extent": 2169.4613, 
			 "electric_dipole_moment_norm": 1.63674968764, 
			 "electric_quadrupole_moment_norm": 2.99022073266, 
			 "total_energy": -951.108161421, 
			 "HOMO_LUMO_gap": 0.26958, 
			 "cosmo_polarized_energy": -2.54, 
			 "cosmo_cavitation_energy": 20.5, 
			 "cosmo_dispersion_energy": -13.96, 
			 "cosmo_repulsion_energy": 0.98, 
			 "cosmo_total_nonelectrostatic_energy": 7.52, 
			 "SMD_solvation_energy": 7.16 
		},
		"coords": [
			{
				"x": -1.6363232321,
				"y": -0.8482582989,
				"z": -1.1335482641,
				"element": "F" 
			},
			{
				"x": -0.5488305933,
				"y": -0.9038102825,
				"z": -0.4020343316,
				"element": "C" 
			},
			{
				"x": -0.7801677129,
				"y": -1.5517196431,
				"z": 0.7149067408,
				"element": "F" 
			},
			{
				"x": 0.6288296593,
				"y": -0.3748113383,
				"z": -0.746201348,
				"element": "C" 
			},
			{
				"x": 1.8467483154,
				"y": -0.4995321173,
				"z": 0.1371053636,
				"element": "C" 
			},
			{
				"x": 2.9474039383,
				"y": -0.6834492484,
				"z": -0.6180679618,
				"element": "F" 
			},
			{
				"x": 2.0411003408,
				"y": 0.6125338789,
				"z": 0.8720490932,
				"element": "F" 
			},
			{
				"x": 1.7576779579,
				"y": -1.5368071144,
				"z": 0.9883568905,
				"element": "F" 
			},
			{
				"x": 0.8152295852,
				"y": 0.3806377527,
				"z": -2.0399163384,
				"element": "C" 
			},
			{
				"x": 1.6389695316,
				"y": 1.4293873928,
				"z": -1.8471307192,
				"element": "F" 
			},
			{
				"x": 1.3657686914,
				"y": -0.3969920225,
				"z": -2.9921825397,
				"element": "F" 
			},
			{
				"x": -0.3446064815,
				"y": 0.856521041,
				"z": -2.5265365851,
				"element": "F" 
			}
		],
		 "valence_orbital": [ 
			{
				"type": "occ",
				"energy": -0.42389,
				"method": "rhf"
			},
			{
				"type": "occ",
				"energy": -0.41574,
				"method": "rhf"
			},
			{
				"type": "occ",
				"energy": -0.41251,
				"method": "rhf"
			},
			{
				"type": "occ",
				"energy": -0.39746,
				"method": "rhf"
			},
			{
				"type": "occ",
				"energy": -0.31229,
				"method": "rhf"
			},
			{
				"type": "unocc",
				"energy": -0.04271,
				"method": "rhf"
			},
			{
				"type": "unocc",
				"energy": 0.07166,
				"method": "rhf"
			},
			{
				"type": "unocc",
				"energy": 0.08888,
				"method": "rhf"
			},
			{
				"type": "unocc",
				"energy": 0.12887,
				"method": "rhf"
			},
			{
				"type": "unocc",
				"energy": 0.14478,
				"method": "rhf"
			}
		],
		"cosmo_sigma_profile": { 
			"-0.025": 0.0,
			"-0.024": 0.0,
			"-0.023": 0.0,
			"-0.022": 0.0,
			"-0.021": 0.0,
			"-0.02": 0.0,
			"-0.019": 0.0,
			"-0.018": 0.0,
			"-0.017": 0.0,
			"-0.016": 0.0,
			"-0.015": 0.0,
			"-0.014": 0.0,
			"-0.013": 0.0,
			"-0.012": 0.0,
			"-0.011": 0.0,
			"-0.01": 0.0,
			"-0.009": 0.0318466912725,
			"-0.008": 1.89796038458,
			"-0.007": 4.50306288238,
			"-0.006": 5.40916296097,
			"-0.005": 4.7539083795,
			"-0.004": 4.64467826062,
			"-0.003": 5.79811216109,
			"-0.002": 7.31636569144,
			"-0.001": 11.5314334262,
			"0.0": 23.3739238448,
			"0.001": 32.8052164338,
			"0.002": 58.9760835279,
			"0.003": 4.9116724144,
			"0.004": 0.0,
			"0.005": 0.0,
			"0.006": 0.0,
			"0.007": 0.0,
			"0.008": 0.0,
			"0.009": 0.0,
			"0.01": 0.0,
			"0.011": 0.0,
			"0.012": 0.0,
			"0.013": 0.0,
			"0.014": 0.0,
			"0.015": 0.0,
			"0.016": 0.0,
			"0.017": 0.0,
			"0.018": 0.0,
			"0.019": 0.0,
			"0.02": 0.0,
			"0.021": 0.0,
			"0.022": 0.0,
			"0.023": 0.0,
			"0.024": 0.0,
			"0.025": 0.0
		}
	}
}
