{
	 "smiles": "OC(=O)C1=CC=C(C=C1)N1CCCC1", 
	 "Tm": 503.15, 
	 "num_atms": 27, 
	 "gaussian": { 
		 "optdone": 1, 
		 "sigma_profile": "yes", 
		 "theory": "DFT", 
		 "functional": "B3LYP", 
		 "basiset": "6-31G**", 
		 "properties": { 
			 "R2extent": 4624.7353, 
			 "electric_dipole_moment_norm": 8.01209281836, 
			 "electric_quadrupole_moment_norm": 34.6788725866, 
			 "total_energy": -632.219616002, 
			 "HOMO_LUMO_gap": 0.17459, 
			 "cosmo_polarized_energy": -16.5, 
			 "cosmo_cavitation_energy": 29.38, 
			 "cosmo_dispersion_energy": -22.06, 
			 "cosmo_repulsion_energy": 1.72, 
			 "cosmo_total_nonelectrostatic_energy": 9.04, 
			 "SMD_solvation_energy": 4.77 
		},
		"coords": [
			{
				"x": -4.5208705888,
				"y": -1.1748022035,
				"z": -3.4949675356,
				"element": "O" 
			},
			{
				"x": -4.4586480253,
				"y": -0.527704013,
				"z": -2.2933396897,
				"element": "C" 
			},
			{
				"x": -5.4647078801,
				"y": -0.0328601365,
				"z": -1.8347927987,
				"element": "O" 
			},
			{
				"x": -3.1323888151,
				"y": -0.4805602176,
				"z": -1.6214494348,
				"element": "C" 
			},
			{
				"x": -1.9122168614,
				"y": -0.7364980851,
				"z": -2.2666851728,
				"element": "C" 
			},
			{
				"x": -0.7032275899,
				"y": -0.6652768794,
				"z": -1.5892800211,
				"element": "C" 
			},
			{
				"x": -0.6639966129,
				"y": -0.3271715351,
				"z": -0.2141130813,
				"element": "C" 
			},
			{
				"x": -1.896869637,
				"y": -0.0520806749,
				"z": 0.4310540501,
				"element": "C" 
			},
			{
				"x": -3.0917075567,
				"y": -0.1220271794,
				"z": -0.2640837394,
				"element": "C" 
			},
			{
				"x": 0.5236788517,
				"y": -0.2615278707,
				"z": 0.4668880769,
				"element": "N" 
			},
			{
				"x": 1.8334389415,
				"y": -0.4246223634,
				"z": -0.165586467,
				"element": "C" 
			},
			{
				"x": 2.821540248,
				"y": 0.0198171976,
				"z": 0.9231164977,
				"element": "C" 
			},
			{
				"x": 2.0903727585,
				"y": -0.3305785826,
				"z": 2.2286552279,
				"element": "C" 
			},
			{
				"x": 0.6225451523,
				"y": -0.0144165121,
				"z": 1.9065231938,
				"element": "C" 
			},
			{
				"x": -3.7002154298,
				"y": -1.6618924246,
				"z": -3.6485934148,
				"element": "H" 
			},
			{
				"x": -1.8820925172,
				"y": -0.9646976964,
				"z": -3.330389991,
				"element": "H" 
			},
			{
				"x": 0.2156775587,
				"y": -0.871955655,
				"z": -2.1249743388,
				"element": "H" 
			},
			{
				"x": -1.9090329064,
				"y": 0.2313293194,
				"z": 1.4770354161,
				"element": "H" 
			},
			{
				"x": -4.0298306772,
				"y": 0.1025699165,
				"z": 0.2326260732,
				"element": "H" 
			},
			{
				"x": 2.0039878205,
				"y": -1.4716931277,
				"z": -0.4613934962,
				"element": "H" 
			},
			{
				"x": 1.9129948449,
				"y": 0.1893354806,
				"z": -1.0707213781,
				"element": "H" 
			},
			{
				"x": 2.9823580622,
				"y": 1.1017530984,
				"z": 0.8597336631,
				"element": "H" 
			},
			{
				"x": 3.7944005069,
				"y": -0.4691504909,
				"z": 0.8271897996,
				"element": "H" 
			},
			{
				"x": 2.456782486,
				"y": 0.2289492508,
				"z": 3.0931574119,
				"element": "H" 
			},
			{
				"x": 2.201239707,
				"y": -1.3982537197,
				"z": 2.4484930882,
				"element": "H" 
			},
			{
				"x": 0.3733114069,
				"y": 1.0304785867,
				"z": 2.1486735653,
				"element": "H" 
			},
			{
				"x": -0.0708232471,
				"y": -0.6551634823,
				"z": 2.4638244953,
				"element": "H" 
			}
		],
		 "valence_orbital": [ 
			{
				"type": "occ",
				"energy": -0.30337,
				"method": "rhf"
			},
			{
				"type": "occ",
				"energy": -0.28906,
				"method": "rhf"
			},
			{
				"type": "occ",
				"energy": -0.2588,
				"method": "rhf"
			},
			{
				"type": "occ",
				"energy": -0.25394,
				"method": "rhf"
			},
			{
				"type": "occ",
				"energy": -0.20105,
				"method": "rhf"
			},
			{
				"type": "unocc",
				"energy": -0.02646,
				"method": "rhf"
			},
			{
				"type": "unocc",
				"energy": -0.00739,
				"method": "rhf"
			},
			{
				"type": "unocc",
				"energy": 0.06599,
				"method": "rhf"
			},
			{
				"type": "unocc",
				"energy": 0.06832,
				"method": "rhf"
			},
			{
				"type": "unocc",
				"energy": 0.07447,
				"method": "rhf"
			}
		],
		"cosmo_sigma_profile": { 
			"-0.025": 0.0,
			"-0.024": 0.0,
			"-0.023": 0.0,
			"-0.022": 0.0,
			"-0.021": 0.0,
			"-0.02": 0.0,
			"-0.019": 0.0,
			"-0.018": 0.412523512832,
			"-0.017": 0.812734314966,
			"-0.016": 0.808183987519,
			"-0.015": 1.05272165905,
			"-0.014": 0.81011394039,
			"-0.013": 0.720823062328,
			"-0.012": 1.2018279327,
			"-0.011": 1.12108746652,
			"-0.01": 1.21433181459,
			"-0.009": 1.09441171316,
			"-0.008": 0.83516426271,
			"-0.007": 2.25503083957,
			"-0.006": 4.61490794901,
			"-0.005": 11.7706613406,
			"-0.004": 23.1166760925,
			"-0.003": 32.7755318051,
			"-0.002": 28.0923386613,
			"-0.001": 18.7136289583,
			"0.0": 16.1524614047,
			"0.001": 9.85045060213,
			"0.002": 8.4176053974,
			"0.003": 10.8345866284,
			"0.004": 10.8574853502,
			"0.005": 12.3937700368,
			"0.006": 4.18724764847,
			"0.007": 2.07638844191,
			"0.008": 3.06098569206,
			"0.009": 2.6399763759,
			"0.01": 3.2297447037,
			"0.011": 5.0135209251,
			"0.012": 5.37996838069,
			"0.013": 4.75999037403,
			"0.014": 1.63220658995,
			"0.015": 0.0699959974266,
			"0.016": 0.0,
			"0.017": 0.0,
			"0.018": 0.0,
			"0.019": 0.0,
			"0.02": 0.0,
			"0.021": 0.0,
			"0.022": 0.0,
			"0.023": 0.0,
			"0.024": 0.0,
			"0.025": 0.0
		}
	}
}
