{
	 "smiles": "CC1=C(C=CC=C1)C1=NN(CCO)C(N)=C1", 
	 "Tm": 402.15, 
	 "num_atms": 31, 
	 "gaussian": { 
		 "optdone": 1, 
		 "sigma_profile": "yes", 
		 "theory": "DFT", 
		 "functional": "B3LYP", 
		 "basiset": "6-31G**", 
		 "properties": { 
			 "R2extent": 5025.1527, 
			 "electric_dipole_moment_norm": 4.18364037771, 
			 "electric_quadrupole_moment_norm": 15.6877034766, 
			 "total_energy": -705.780222782, 
			 "HOMO_LUMO_gap": 0.18937, 
			 "cosmo_polarized_energy": -15.67, 
			 "cosmo_cavitation_energy": 33.49, 
			 "cosmo_dispersion_energy": -24.55, 
			 "cosmo_repulsion_energy": 1.93, 
			 "cosmo_total_nonelectrostatic_energy": 10.87, 
			 "SMD_solvation_energy": 4.6 
		},
		"coords": [
			{
				"x": 1.1248013755,
				"y": 0.704197859,
				"z": -2.7702944898,
				"element": "C" 
			},
			{
				"x": -0.277958092,
				"y": 0.3327145319,
				"z": -2.3436759882,
				"element": "C" 
			},
			{
				"x": -0.7788562632,
				"y": 0.5683765896,
				"z": -1.0411213724,
				"element": "C" 
			},
			{
				"x": -2.0888642828,
				"y": 0.156387732,
				"z": -0.7327597539,
				"element": "C" 
			},
			{
				"x": -2.9003533403,
				"y": -0.4643879746,
				"z": -1.6761293783,
				"element": "C" 
			},
			{
				"x": -2.4124534855,
				"y": -0.6872977358,
				"z": -2.9642114834,
				"element": "C" 
			},
			{
				"x": -1.1144135426,
				"y": -0.2924107593,
				"z": -3.2796231316,
				"element": "C" 
			},
			{
				"x": 0.0051147826,
				"y": 1.2109784021,
				"z": 0.0372021347,
				"element": "C" 
			},
			{
				"x": -0.2648418195,
				"y": 0.8942715471,
				"z": 1.3094682974,
				"element": "N" 
			},
			{
				"x": 0.5571180073,
				"y": 1.6854200907,
				"z": 2.0543953918,
				"element": "N" 
			},
			{
				"x": 0.5269668128,
				"y": 1.5928846215,
				"z": 3.5001901098,
				"element": "C" 
			},
			{
				"x": 1.5856781573,
				"y": 0.6564126507,
				"z": 4.0714750207,
				"element": "C" 
			},
			{
				"x": 2.8664932681,
				"y": 1.2623876136,
				"z": 3.8852407455,
				"element": "O" 
			},
			{
				"x": 1.3603770164,
				"y": 2.4724706558,
				"z": 1.2825515283,
				"element": "C" 
			},
			{
				"x": 2.245737554,
				"y": 3.3780942319,
				"z": 1.8634293872,
				"element": "N" 
			},
			{
				"x": 1.0268145638,
				"y": 2.1989773496,
				"z": -0.0346445525,
				"element": "C" 
			},
			{
				"x": 1.2098793997,
				"y": 1.7714587477,
				"z": -3.0111405054,
				"element": "H" 
			},
			{
				"x": 1.8597309482,
				"y": 0.4916086234,
				"z": -1.9889922493,
				"element": "H" 
			},
			{
				"x": 1.4092954166,
				"y": 0.1494937151,
				"z": -3.6691075572,
				"element": "H" 
			},
			{
				"x": -2.4548174896,
				"y": 0.3380298544,
				"z": 0.2718393838,
				"element": "H" 
			},
			{
				"x": -3.9088288429,
				"y": -0.7674420724,
				"z": -1.4085326981,
				"element": "H" 
			},
			{
				"x": -3.0329528385,
				"y": -1.1680311129,
				"z": -3.7154540784,
				"element": "H" 
			},
			{
				"x": -0.7269876725,
				"y": -0.4796925021,
				"z": -4.2784619338,
				"element": "H" 
			},
			{
				"x": 0.6628771324,
				"y": 2.5961312274,
				"z": 3.9188173613,
				"element": "H" 
			},
			{
				"x": -0.4669974315,
				"y": 1.2300381547,
				"z": 3.7710143747,
				"element": "H" 
			},
			{
				"x": 1.5215897713,
				"y": -0.3113141323,
				"z": 3.5569142217,
				"element": "H" 
			},
			{
				"x": 1.3830368082,
				"y": 0.4959160975,
				"z": 5.141427989,
				"element": "H" 
			},
			{
				"x": 3.5475476802,
				"y": 0.5871593685,
				"z": 3.9853547189,
				"element": "H" 
			},
			{
				"x": 2.816619289,
				"y": 2.9402929076,
				"z": 2.5826817062,
				"element": "H" 
			},
			{
				"x": 2.8195652742,
				"y": 3.8448368172,
				"z": 1.1736563615,
				"element": "H" 
			},
			{
				"x": 1.4475818434,
				"y": 2.6696369003,
				"z": -0.9082095601,
				"element": "H" 
			}
		],
		 "valence_orbital": [ 
			{
				"type": "occ",
				"energy": -0.27087,
				"method": "rhf"
			},
			{
				"type": "occ",
				"energy": -0.25623,
				"method": "rhf"
			},
			{
				"type": "occ",
				"energy": -0.22648,
				"method": "rhf"
			},
			{
				"type": "occ",
				"energy": -0.209,
				"method": "rhf"
			},
			{
				"type": "occ",
				"energy": -0.19218,
				"method": "rhf"
			},
			{
				"type": "unocc",
				"energy": -0.00281,
				"method": "rhf"
			},
			{
				"type": "unocc",
				"energy": 0.01799,
				"method": "rhf"
			},
			{
				"type": "unocc",
				"energy": 0.04827,
				"method": "rhf"
			},
			{
				"type": "unocc",
				"energy": 0.06174,
				"method": "rhf"
			},
			{
				"type": "unocc",
				"energy": 0.09622,
				"method": "rhf"
			}
		],
		"cosmo_sigma_profile": { 
			"-0.025": 0.0,
			"-0.024": 0.0,
			"-0.023": 0.0,
			"-0.022": 0.0,
			"-0.021": 0.0,
			"-0.02": 0.0,
			"-0.019": 0.0,
			"-0.018": 0.0,
			"-0.017": 0.208163681865,
			"-0.016": 1.24208212747,
			"-0.015": 0.901367217229,
			"-0.014": 0.95227875078,
			"-0.013": 1.56913596888,
			"-0.012": 2.40722442855,
			"-0.011": 2.22036248883,
			"-0.01": 1.61233401131,
			"-0.009": 2.4766257305,
			"-0.008": 2.83824379749,
			"-0.007": 3.33936715592,
			"-0.006": 8.20012259948,
			"-0.005": 20.0270512359,
			"-0.004": 24.4106003523,
			"-0.003": 22.1331313535,
			"-0.002": 18.0660007888,
			"-0.001": 15.6168748196,
			"0.0": 19.5557082536,
			"0.001": 15.7596444002,
			"0.002": 11.4613940251,
			"0.003": 13.8984608487,
			"0.004": 16.0101682949,
			"0.005": 17.4980278609,
			"0.006": 17.0327489984,
			"0.007": 7.83616573157,
			"0.008": 3.24633956591,
			"0.009": 3.38153400042,
			"0.01": 2.85031592316,
			"0.011": 1.54469747589,
			"0.012": 2.42350504092,
			"0.013": 1.14257740732,
			"0.014": 1.51061905712,
			"0.015": 0.89102885084,
			"0.016": 0.196232504652,
			"0.017": 0.0,
			"0.018": 0.0,
			"0.019": 0.0,
			"0.02": 0.0,
			"0.021": 0.0,
			"0.022": 0.0,
			"0.023": 0.0,
			"0.024": 0.0,
			"0.025": 0.0
		}
	}
}
