{
	 "smiles": "CC(=O)C1=CC(Cl)=C(C)C=C1O", 
	 "Tm": 344.65, 
	 "num_atms": 21, 
	 "gaussian": { 
		 "optdone": 1, 
		 "sigma_profile": "yes", 
		 "theory": "DFT", 
		 "functional": "B3LYP", 
		 "basiset": "6-31G**", 
		 "properties": { 
			 "R2extent": 3229.928, 
			 "electric_dipole_moment_norm": 1.52983914187, 
			 "electric_quadrupole_moment_norm": 17.0796791595, 
			 "total_energy": -959.045376845, 
			 "HOMO_LUMO_gap": 0.15826, 
			 "cosmo_polarized_energy": -7.57, 
			 "cosmo_cavitation_energy": 26.27, 
			 "cosmo_dispersion_energy": -19.59, 
			 "cosmo_repulsion_energy": 1.54, 
			 "cosmo_total_nonelectrostatic_energy": 8.22, 
			 "SMD_solvation_energy": 5.16 
		},
		"coords": [
			{
				"x": -3.422036636,
				"y": 0.1903139618,
				"z": 2.6157658215,
				"element": "C" 
			},
			{
				"x": -2.0665799605,
				"y": 0.7769103586,
				"z": 2.9506255488,
				"element": "C" 
			},
			{
				"x": -1.9364442264,
				"y": 1.4314064848,
				"z": 3.9976891561,
				"element": "O" 
			},
			{
				"x": -0.9250986931,
				"y": 0.5713331046,
				"z": 2.0473728464,
				"element": "C" 
			},
			{
				"x": -1.0367676444,
				"y": -0.1655563132,
				"z": 0.8509499031,
				"element": "C" 
			},
			{
				"x": 0.0541731981,
				"y": -0.3417017059,
				"z": 0.0218796389,
				"element": "C" 
			},
			{
				"x": -0.152869424,
				"y": -1.2744644867,
				"z": -1.4606914213,
				"element": "Cl" 
			},
			{
				"x": 1.319317241,
				"y": 0.2059754296,
				"z": 0.3367449363,
				"element": "C" 
			},
			{
				"x": 2.5100358711,
				"y": 0.0161071321,
				"z": -0.5640184288,
				"element": "C" 
			},
			{
				"x": 1.4308647764,
				"y": 0.9334069533,
				"z": 1.5173221721,
				"element": "C" 
			},
			{
				"x": 0.3400377938,
				"y": 1.1294229761,
				"z": 2.380052416,
				"element": "C" 
			},
			{
				"x": 0.5368511422,
				"y": 1.8417744581,
				"z": 3.4938467328,
				"element": "O" 
			},
			{
				"x": -3.3681336609,
				"y": -0.9002167895,
				"z": 2.5312595956,
				"element": "H" 
			},
			{
				"x": -4.1211297205,
				"y": 0.4573768658,
				"z": 3.4084403532,
				"element": "H" 
			},
			{
				"x": -3.7919132997,
				"y": 0.5763567171,
				"z": 1.6600111577,
				"element": "H" 
			},
			{
				"x": -1.9867727562,
				"y": -0.6036561521,
				"z": 0.5688653481,
				"element": "H" 
			},
			{
				"x": 2.3163750023,
				"y": 0.4223402558,
				"z": -1.5624934832,
				"element": "H" 
			},
			{
				"x": 2.7373014521,
				"y": -1.0470625567,
				"z": -0.6963389793,
				"element": "H" 
			},
			{
				"x": 3.3920674092,
				"y": 0.5112949035,
				"z": -0.1525847254,
				"element": "H" 
			},
			{
				"x": 2.3818531062,
				"y": 1.37254828,
				"z": 1.8007820589,
				"element": "H" 
			},
			{
				"x": -0.3395309705,
				"y": 1.8670901228,
				"z": 3.9633193526,
				"element": "H" 
			}
		],
		 "valence_orbital": [ 
			{
				"type": "occ",
				"energy": -0.31787,
				"method": "rhf"
			},
			{
				"type": "occ",
				"energy": -0.31502,
				"method": "rhf"
			},
			{
				"type": "occ",
				"energy": -0.26988,
				"method": "rhf"
			},
			{
				"type": "occ",
				"energy": -0.26806,
				"method": "rhf"
			},
			{
				"type": "occ",
				"energy": -0.22738,
				"method": "rhf"
			},
			{
				"type": "unocc",
				"energy": -0.06912,
				"method": "rhf"
			},
			{
				"type": "unocc",
				"energy": -0.00806,
				"method": "rhf"
			},
			{
				"type": "unocc",
				"energy": 0.0254,
				"method": "rhf"
			},
			{
				"type": "unocc",
				"energy": 0.02638,
				"method": "rhf"
			},
			{
				"type": "unocc",
				"energy": 0.09593,
				"method": "rhf"
			}
		],
		"cosmo_sigma_profile": { 
			"-0.025": 0.0,
			"-0.024": 0.0,
			"-0.023": 0.0,
			"-0.022": 0.0,
			"-0.021": 0.0,
			"-0.02": 0.0,
			"-0.019": 0.0,
			"-0.018": 0.0,
			"-0.017": 0.0,
			"-0.016": 0.0,
			"-0.015": 0.0,
			"-0.014": 0.0,
			"-0.013": 0.0,
			"-0.012": 0.0,
			"-0.011": 0.0,
			"-0.01": 0.0,
			"-0.009": 0.0,
			"-0.008": 1.32390721018,
			"-0.007": 7.08210826032,
			"-0.006": 10.8352769779,
			"-0.005": 13.4434806456,
			"-0.004": 13.0353464479,
			"-0.003": 17.7672770001,
			"-0.002": 20.6678351708,
			"-0.001": 21.8165569822,
			"0.0": 15.4699962898,
			"0.001": 15.7602924741,
			"0.002": 23.0808943831,
			"0.003": 13.0490181726,
			"0.004": 9.23093689761,
			"0.005": 8.57453500004,
			"0.006": 3.8737541654,
			"0.007": 2.65272958056,
			"0.008": 2.35928719406,
			"0.009": 3.35250194729,
			"0.01": 2.9796705948,
			"0.011": 3.38140584418,
			"0.012": 1.3621066029,
			"0.013": 0.188640944573,
			"0.014": 0.0,
			"0.015": 0.0,
			"0.016": 0.0,
			"0.017": 0.0,
			"0.018": 0.0,
			"0.019": 0.0,
			"0.02": 0.0,
			"0.021": 0.0,
			"0.022": 0.0,
			"0.023": 0.0,
			"0.024": 0.0,
			"0.025": 0.0
		}
	}
}
