{
	 "smiles": "OC1=CC=C(O)C(O)=C1", 
	 "Tm": 413.15, 
	 "num_atms": 15, 
	 "gaussian": { 
		 "optdone": 1, 
		 "sigma_profile": "yes", 
		 "theory": "DFT", 
		 "functional": "B3LYP", 
		 "basiset": "6-31G**", 
		 "properties": { 
			 "R2extent": 1503.3484, 
			 "electric_dipole_moment_norm": 3.73640723958, 
			 "electric_quadrupole_moment_norm": 7.78782813562, 
			 "total_energy": -457.907958763, 
			 "HOMO_LUMO_gap": 0.19757, 
			 "cosmo_polarized_energy": -15.35, 
			 "cosmo_cavitation_energy": 19.2, 
			 "cosmo_dispersion_energy": -14.78, 
			 "cosmo_repulsion_energy": 1.22, 
			 "cosmo_total_nonelectrostatic_energy": 5.64, 
			 "SMD_solvation_energy": 4.25 
		},
		"coords": [
			{
				"x": 2.8622962244,
				"y": -1.4518412942,
				"z": -0.2623473767,
				"element": "O" 
			},
			{
				"x": 1.551044159,
				"y": -1.3167024172,
				"z": 0.1159611199,
				"element": "C" 
			},
			{
				"x": 0.622498396,
				"y": -2.204808524,
				"z": -0.430101084,
				"element": "C" 
			},
			{
				"x": -0.7236132337,
				"y": -2.1072699841,
				"z": -0.0757994327,
				"element": "C" 
			},
			{
				"x": -1.1583268191,
				"y": -1.1326878113,
				"z": 0.8189039056,
				"element": "C" 
			},
			{
				"x": -2.4811880878,
				"y": -1.0470760175,
				"z": 1.1586743138,
				"element": "O" 
			},
			{
				"x": -0.2185747706,
				"y": -0.2448166245,
				"z": 1.3624875172,
				"element": "C" 
			},
			{
				"x": -0.7300293077,
				"y": 0.686817813,
				"z": 2.2373123476,
				"element": "O" 
			},
			{
				"x": 1.1291018147,
				"y": -0.3310112535,
				"z": 1.0172467705,
				"element": "C" 
			},
			{
				"x": 3.3931286422,
				"y": -0.7811437173,
				"z": 0.1847589247,
				"element": "H" 
			},
			{
				"x": 0.9644909025,
				"y": -2.9622919511,
				"z": -1.1263149223,
				"element": "H" 
			},
			{
				"x": -1.457674313,
				"y": -2.7898079046,
				"z": -0.4912823967,
				"element": "H" 
			},
			{
				"x": -2.5719888679,
				"y": -0.3136364917,
				"z": 1.7840935573,
				"element": "H" 
			},
			{
				"x": -0.0230698015,
				"y": 1.2556060934,
				"z": 2.5644785808,
				"element": "H" 
			},
			{
				"x": 1.8453050625,
				"y": 0.3669700846,
				"z": 1.4491281749,
				"element": "H" 
			}
		],
		 "valence_orbital": [ 
			{
				"type": "occ",
				"energy": -0.35584,
				"method": "rhf"
			},
			{
				"type": "occ",
				"energy": -0.34297,
				"method": "rhf"
			},
			{
				"type": "occ",
				"energy": -0.29335,
				"method": "rhf"
			},
			{
				"type": "occ",
				"energy": -0.23729,
				"method": "rhf"
			},
			{
				"type": "occ",
				"energy": -0.1915,
				"method": "rhf"
			},
			{
				"type": "unocc",
				"energy": 0.00607,
				"method": "rhf"
			},
			{
				"type": "unocc",
				"energy": 0.03297,
				"method": "rhf"
			},
			{
				"type": "unocc",
				"energy": 0.05037,
				"method": "rhf"
			},
			{
				"type": "unocc",
				"energy": 0.06958,
				"method": "rhf"
			},
			{
				"type": "unocc",
				"energy": 0.09519,
				"method": "rhf"
			}
		],
		"cosmo_sigma_profile": { 
			"-0.025": 0.0,
			"-0.024": 0.0,
			"-0.023": 0.0,
			"-0.022": 0.0,
			"-0.021": 0.0,
			"-0.02": 0.0,
			"-0.019": 0.0348909610093,
			"-0.018": 1.09376211108,
			"-0.017": 2.37024654357,
			"-0.016": 2.1481499268,
			"-0.015": 2.48808087145,
			"-0.014": 2.24077703876,
			"-0.013": 2.63882468983,
			"-0.012": 1.80898935154,
			"-0.011": 2.11593472585,
			"-0.01": 3.5550077486,
			"-0.009": 3.69201567004,
			"-0.008": 2.39024922038,
			"-0.007": 2.21025960452,
			"-0.006": 3.91868409287,
			"-0.005": 6.28980941636,
			"-0.004": 6.51263138259,
			"-0.003": 5.43914538172,
			"-0.002": 4.99801909651,
			"-0.001": 5.22794627822,
			"0.0": 5.50088934572,
			"0.001": 6.70460221431,
			"0.002": 7.1900007626,
			"0.003": 9.98416571769,
			"0.004": 13.034282494,
			"0.005": 17.6006545727,
			"0.006": 9.15003048811,
			"0.007": 4.93924204383,
			"0.008": 3.45774097033,
			"0.009": 2.50463245837,
			"0.01": 3.55795810545,
			"0.011": 3.91087499181,
			"0.012": 3.43130104848,
			"0.013": 0.229585463884,
			"0.014": 0.0,
			"0.015": 0.0,
			"0.016": 0.0,
			"0.017": 0.0,
			"0.018": 0.0,
			"0.019": 0.0,
			"0.02": 0.0,
			"0.021": 0.0,
			"0.022": 0.0,
			"0.023": 0.0,
			"0.024": 0.0,
			"0.025": 0.0
		}
	}
}
