{
	 "smiles": "NC1=CC(C(O)=O)=C(OCC(F)(F)F)C=C1", 
	 "Tm": 464.15, 
	 "num_atms": 24, 
	 "gaussian": { 
		 "optdone": 1, 
		 "sigma_profile": "yes", 
		 "theory": "DFT", 
		 "functional": "B3LYP", 
		 "basiset": "6-31G**", 
		 "properties": { 
			 "R2extent": 4304.3658, 
			 "electric_dipole_moment_norm": 4.6632871164, 
			 "electric_quadrupole_moment_norm": 9.04415973598, 
			 "total_energy": -927.730908209, 
			 "HOMO_LUMO_gap": 0.16138, 
			 "cosmo_polarized_energy": -15.08, 
			 "cosmo_cavitation_energy": 30.15, 
			 "cosmo_dispersion_energy": -21.38, 
			 "cosmo_repulsion_energy": 1.62, 
			 "cosmo_total_nonelectrostatic_energy": 10.39, 
			 "SMD_solvation_energy": 7.39 
		},
		"coords": [
			{
				"x": -1.9680758253,
				"y": 2.6145730145,
				"z": 2.4773563741,
				"element": "N" 
			},
			{
				"x": -1.0291980793,
				"y": 1.8202930145,
				"z": 1.8176722543,
				"element": "C" 
			},
			{
				"x": -0.5851287814,
				"y": 0.6162544198,
				"z": 2.3770518196,
				"element": "C" 
			},
			{
				"x": 0.3972688744,
				"y": -0.1688680442,
				"z": 1.7535065331,
				"element": "C" 
			},
			{
				"x": 0.8348973825,
				"y": -1.4361973294,
				"z": 2.3961732729,
				"element": "C" 
			},
			{
				"x": 0.4323777654,
				"y": -1.530707803,
				"z": 3.691142823,
				"element": "O" 
			},
			{
				"x": 1.4732156343,
				"y": -2.3292261243,
				"z": 1.8718298899,
				"element": "O" 
			},
			{
				"x": 0.9535437548,
				"y": 0.2652574221,
				"z": 0.5315150768,
				"element": "C" 
			},
			{
				"x": 1.9910620565,
				"y": -0.3971332816,
				"z": -0.0893657985,
				"element": "O" 
			},
			{
				"x": 1.6759874176,
				"y": -1.5389432368,
				"z": -0.8689458113,
				"element": "C" 
			},
			{
				"x": 1.7157788482,
				"y": -1.1897520496,
				"z": -2.3474577284,
				"element": "C" 
			},
			{
				"x": 0.799047013,
				"y": -0.248680537,
				"z": -2.6693184806,
				"element": "F" 
			},
			{
				"x": 1.4448444396,
				"y": -2.2924697834,
				"z": -3.0819937324,
				"element": "F" 
			},
			{
				"x": 2.9200859871,
				"y": -0.7256417219,
				"z": -2.7258896934,
				"element": "F" 
			},
			{
				"x": 0.5193666959,
				"y": 1.4719268969,
				"z": -0.0210077253,
				"element": "C" 
			},
			{
				"x": -0.4547480278,
				"y": 2.239770858,
				"z": 0.6045147211,
				"element": "C" 
			},
			{
				"x": -2.5610813541,
				"y": 2.1265412202,
				"z": 3.1340360689,
				"element": "H" 
			},
			{
				"x": -2.4957828981,
				"y": 3.2410337107,
				"z": 1.8855416723,
				"element": "H" 
			},
			{
				"x": -0.99951558,
				"y": 0.2766606733,
				"z": 3.3197899196,
				"element": "H" 
			},
			{
				"x": 0.7534305676,
				"y": -2.3949937615,
				"z": 3.9966109499,
				"element": "H" 
			},
			{
				"x": 0.6907118483,
				"y": -1.9471524761,
				"z": -0.6328604221,
				"element": "H" 
			},
			{
				"x": 2.424510654,
				"y": -2.3087826038,
				"z": -0.6720521475,
				"element": "H" 
			},
			{
				"x": 0.9615648705,
				"y": 1.7927883069,
				"z": -0.9571261027,
				"element": "H" 
			},
			{
				"x": -0.7743632636,
				"y": 3.175749216,
				"z": 0.1532762669,
				"element": "H" 
			}
		],
		 "valence_orbital": [ 
			{
				"type": "occ",
				"energy": -0.30856,
				"method": "rhf"
			},
			{
				"type": "occ",
				"energy": -0.29079,
				"method": "rhf"
			},
			{
				"type": "occ",
				"energy": -0.2721,
				"method": "rhf"
			},
			{
				"type": "occ",
				"energy": -0.26479,
				"method": "rhf"
			},
			{
				"type": "occ",
				"energy": -0.21127,
				"method": "rhf"
			},
			{
				"type": "unocc",
				"energy": -0.04989,
				"method": "rhf"
			},
			{
				"type": "unocc",
				"energy": 0.00185,
				"method": "rhf"
			},
			{
				"type": "unocc",
				"energy": 0.054,
				"method": "rhf"
			},
			{
				"type": "unocc",
				"energy": 0.0698,
				"method": "rhf"
			},
			{
				"type": "unocc",
				"energy": 0.07821,
				"method": "rhf"
			}
		],
		"cosmo_sigma_profile": { 
			"-0.025": 0.0,
			"-0.024": 0.0,
			"-0.023": 0.0,
			"-0.022": 0.0,
			"-0.021": 0.0,
			"-0.02": 0.0,
			"-0.019": 0.0,
			"-0.018": 0.628775704931,
			"-0.017": 0.849468891323,
			"-0.016": 1.12839521691,
			"-0.015": 0.382550012205,
			"-0.014": 0.919776734899,
			"-0.013": 1.7614985361,
			"-0.012": 3.10045604253,
			"-0.011": 4.29495665523,
			"-0.01": 4.37827586654,
			"-0.009": 4.39205576266,
			"-0.008": 6.60033443896,
			"-0.007": 7.09866791879,
			"-0.006": 9.01523970081,
			"-0.005": 9.0385529053,
			"-0.004": 9.64409514677,
			"-0.003": 8.72165066769,
			"-0.002": 10.7390995484,
			"-0.001": 11.3191336094,
			"0.0": 12.2161547266,
			"0.001": 14.8937610399,
			"0.002": 23.9817394006,
			"0.003": 42.5995291589,
			"0.004": 15.6829924842,
			"0.005": 6.65625715413,
			"0.006": 5.51012629015,
			"0.007": 4.26635326984,
			"0.008": 3.90453088557,
			"0.009": 4.29325637768,
			"0.01": 4.93642607892,
			"0.011": 3.33072037733,
			"0.012": 2.37541471318,
			"0.013": 0.548862743046,
			"0.014": 0.518743236651,
			"0.015": 0.0481084048802,
			"0.016": 0.0,
			"0.017": 0.0,
			"0.018": 0.0,
			"0.019": 0.0,
			"0.02": 0.0,
			"0.021": 0.0,
			"0.022": 0.0,
			"0.023": 0.0,
			"0.024": 0.0,
			"0.025": 0.0
		}
	}
}
