{
	 "smiles": "CN1C2=C(C=CC=C2)C(C(O)=O)=C1C1=CC=CC=C1", 
	 "Tm": 466.15, 
	 "num_atms": 32, 
	 "gaussian": { 
		 "optdone": 1, 
		 "sigma_profile": "yes", 
		 "theory": "DFT", 
		 "functional": "B3LYP", 
		 "basiset": "6-31G**", 
		 "properties": { 
			 "R2extent": 5437.9367, 
			 "electric_dipole_moment_norm": 5.60448793468, 
			 "electric_quadrupole_moment_norm": 11.375156962, 
			 "total_energy": -822.759365588, 
			 "HOMO_LUMO_gap": 0.16981, 
			 "cosmo_polarized_energy": -16.03, 
			 "cosmo_cavitation_energy": 35.18, 
			 "cosmo_dispersion_energy": -25.26, 
			 "cosmo_repulsion_energy": 1.91, 
			 "cosmo_total_nonelectrostatic_energy": 11.83, 
			 "SMD_solvation_energy": 6.39 
		},
		"coords": [
			{
				"x": -2.4265811111,
				"y": -1.3621955112,
				"z": 1.0480147712,
				"element": "C" 
			},
			{
				"x": -1.8464423935,
				"y": -0.1805992287,
				"z": 0.4285477278,
				"element": "N" 
			},
			{
				"x": -2.5051047412,
				"y": 0.5592875623,
				"z": -0.5400341034,
				"element": "C" 
			},
			{
				"x": -1.6076334861,
				"y": 1.5404711445,
				"z": -1.031432492,
				"element": "C" 
			},
			{
				"x": -2.0406393263,
				"y": 2.3968618043,
				"z": -2.0617692358,
				"element": "C" 
			},
			{
				"x": -3.3384081644,
				"y": 2.2708156914,
				"z": -2.5439903454,
				"element": "C" 
			},
			{
				"x": -4.2160493127,
				"y": 1.2976641669,
				"z": -2.0297123064,
				"element": "C" 
			},
			{
				"x": -3.8095708268,
				"y": 0.4240962979,
				"z": -1.0261627625,
				"element": "C" 
			},
			{
				"x": -0.3667716593,
				"y": 1.3589528866,
				"z": -0.3141447716,
				"element": "C" 
			},
			{
				"x": 0.8450987363,
				"y": 2.1918299283,
				"z": -0.437924171,
				"element": "C" 
			},
			{
				"x": 0.6147220909,
				"y": 3.4897754183,
				"z": -0.8060063555,
				"element": "O" 
			},
			{
				"x": 1.9856639144,
				"y": 1.8250005424,
				"z": -0.2588574215,
				"element": "O" 
			},
			{
				"x": -0.5483968683,
				"y": 0.2925026945,
				"z": 0.565856173,
				"element": "C" 
			},
			{
				"x": 0.3656167933,
				"y": -0.2646791567,
				"z": 1.5839233293,
				"element": "C" 
			},
			{
				"x": -0.0452346103,
				"y": -0.3614926206,
				"z": 2.9264069707,
				"element": "C" 
			},
			{
				"x": 0.8066992866,
				"y": -0.8898547076,
				"z": 3.8946510161,
				"element": "C" 
			},
			{
				"x": 2.082104877,
				"y": -1.3312663261,
				"z": 3.5364845725,
				"element": "C" 
			},
			{
				"x": 2.5014906874,
				"y": -1.2326642268,
				"z": 2.2086989926,
				"element": "C" 
			},
			{
				"x": 1.6542327072,
				"y": -0.7017825545,
				"z": 1.2370515767,
				"element": "C" 
			},
			{
				"x": -2.8640223498,
				"y": -2.002872247,
				"z": 0.2761074334,
				"element": "H" 
			},
			{
				"x": -3.2101941158,
				"y": -1.0911128953,
				"z": 1.7642022697,
				"element": "H" 
			},
			{
				"x": -1.6510747664,
				"y": -1.9194355806,
				"z": 1.5699793915,
				"element": "H" 
			},
			{
				"x": -1.3651878262,
				"y": 3.1256352665,
				"z": -2.5002335414,
				"element": "H" 
			},
			{
				"x": -3.6785610955,
				"y": 2.9275498359,
				"z": -3.3390123123,
				"element": "H" 
			},
			{
				"x": -5.2238069244,
				"y": 1.2224283164,
				"z": -2.4267453769,
				"element": "H" 
			},
			{
				"x": -4.4852076925,
				"y": -0.3307978439,
				"z": -0.636784923,
				"element": "H" 
			},
			{
				"x": -0.3328083127,
				"y": 3.6783461658,
				"z": -0.7450806069,
				"element": "H" 
			},
			{
				"x": -1.0276537544,
				"y": 0.001934605,
				"z": 3.2143452001,
				"element": "H" 
			},
			{
				"x": 0.4774755866,
				"y": -0.948605779,
				"z": 4.9280502014,
				"element": "H" 
			},
			{
				"x": 2.7475392344,
				"y": -1.74277608,
				"z": 4.2899504796,
				"element": "H" 
			},
			{
				"x": 3.4954231022,
				"y": -1.5662123924,
				"z": 1.9256866726,
				"element": "H" 
			},
			{
				"x": 1.9896823218,
				"y": -0.6011051764,
				"z": 0.2131339473,
				"element": "H" 
			}
		],
		 "valence_orbital": [ 
			{
				"type": "occ",
				"energy": -0.26654,
				"method": "rhf"
			},
			{
				"type": "occ",
				"energy": -0.26049,
				"method": "rhf"
			},
			{
				"type": "occ",
				"energy": -0.2508,
				"method": "rhf"
			},
			{
				"type": "occ",
				"energy": -0.23001,
				"method": "rhf"
			},
			{
				"type": "occ",
				"energy": -0.21274,
				"method": "rhf"
			},
			{
				"type": "unocc",
				"energy": -0.04293,
				"method": "rhf"
			},
			{
				"type": "unocc",
				"energy": -0.00636,
				"method": "rhf"
			},
			{
				"type": "unocc",
				"energy": -0.00367,
				"method": "rhf"
			},
			{
				"type": "unocc",
				"energy": 0.00341,
				"method": "rhf"
			},
			{
				"type": "unocc",
				"energy": 0.01416,
				"method": "rhf"
			}
		],
		"cosmo_sigma_profile": { 
			"-0.025": 0.0,
			"-0.024": 0.0,
			"-0.023": 0.0,
			"-0.022": 0.0,
			"-0.021": 0.0,
			"-0.02": 0.0,
			"-0.019": 0.0,
			"-0.018": 0.0,
			"-0.017": 0.0,
			"-0.016": 0.239003805958,
			"-0.015": 0.757492030469,
			"-0.014": 0.690716860739,
			"-0.013": 0.927779452176,
			"-0.012": 0.615119272555,
			"-0.011": 1.28645041856,
			"-0.01": 0.862866299644,
			"-0.009": 0.638108634925,
			"-0.008": 1.13163979481,
			"-0.007": 2.75573688075,
			"-0.006": 19.1170854777,
			"-0.005": 26.8809865482,
			"-0.004": 27.1117582607,
			"-0.003": 26.5270706459,
			"-0.002": 18.0782153937,
			"-0.001": 15.5698160759,
			"0.0": 16.6047976446,
			"0.001": 16.4949082846,
			"0.002": 17.8576993955,
			"0.003": 16.5373458156,
			"0.004": 18.8667754894,
			"0.005": 18.0658516677,
			"0.006": 8.44426086938,
			"0.007": 2.61716733967,
			"0.008": 2.7245155548,
			"0.009": 3.50981793673,
			"0.01": 3.99771807644,
			"0.011": 4.560178618,
			"0.012": 4.48957707561,
			"0.013": 2.87913238761,
			"0.014": 1.14816407963,
			"0.015": 0.0,
			"0.016": 0.0,
			"0.017": 0.0,
			"0.018": 0.0,
			"0.019": 0.0,
			"0.02": 0.0,
			"0.021": 0.0,
			"0.022": 0.0,
			"0.023": 0.0,
			"0.024": 0.0,
			"0.025": 0.0
		}
	}
}
