{
	 "smiles": "FS(=O)(=O)CCN1N=NC(=N1)C1=CC=CC=C1", 
	 "Tm": 371.15, 
	 "num_atms": 26, 
	 "gaussian": { 
		 "optdone": 1, 
		 "sigma_profile": "yes", 
		 "theory": "DFT", 
		 "functional": "B3LYP", 
		 "basiset": "6-31G**", 
		 "properties": { 
			 "R2extent": 6317.7906, 
			 "electric_dipole_moment_norm": 2.85168900478, 
			 "electric_quadrupole_moment_norm": 30.2159405212, 
			 "total_energy": -1215.75553161, 
			 "HOMO_LUMO_gap": 0.19502, 
			 "cosmo_polarized_energy": -18.42, 
			 "cosmo_cavitation_energy": 33.54, 
			 "cosmo_dispersion_energy": -24.07, 
			 "cosmo_repulsion_energy": 1.79, 
			 "cosmo_total_nonelectrostatic_energy": 11.25, 
			 "SMD_solvation_energy": 2.7 
		},
		"coords": [
			{
				"x": 1.359996518,
				"y": 3.2515636527,
				"z": 4.6557753516,
				"element": "F" 
			},
			{
				"x": 0.4518750462,
				"y": 2.4295810262,
				"z": 3.5888283412,
				"element": "S" 
			},
			{
				"x": -0.9215611389,
				"y": 2.5363329812,
				"z": 4.0439722616,
				"element": "O" 
			},
			{
				"x": 0.8818717321,
				"y": 2.8549341139,
				"z": 2.2732608927,
				"element": "O" 
			},
			{
				"x": 1.1008247813,
				"y": 0.7916702359,
				"z": 4.0077373757,
				"element": "C" 
			},
			{
				"x": 0.2468532975,
				"y": -0.348039406,
				"z": 3.4426012829,
				"element": "C" 
			},
			{
				"x": 0.3631605955,
				"y": -0.5011310315,
				"z": 2.003442597,
				"element": "N" 
			},
			{
				"x": 1.3704110196,
				"y": -1.1674288988,
				"z": 1.4360861103,
				"element": "N" 
			},
			{
				"x": 1.1872797212,
				"y": -1.063565921,
				"z": 0.1482959521,
				"element": "N" 
			},
			{
				"x": 0.0560278691,
				"y": -0.3185118823,
				"z": -0.0328413211,
				"element": "C" 
			},
			{
				"x": -0.481254503,
				"y": 0.0475996013,
				"z": 1.133708187,
				"element": "N" 
			},
			{
				"x": -0.4972318482,
				"y": 0.0245870425,
				"z": -1.3458545237,
				"element": "C" 
			},
			{
				"x": -1.6397757938,
				"y": 0.8327969621,
				"z": -1.4475947328,
				"element": "C" 
			},
			{
				"x": -2.1574653861,
				"y": 1.1521520296,
				"z": -2.7004965568,
				"element": "C" 
			},
			{
				"x": -1.5424710182,
				"y": 0.6708881515,
				"z": -3.8592470556,
				"element": "C" 
			},
			{
				"x": -0.4041242675,
				"y": -0.1324851491,
				"z": -3.7604095451,
				"element": "C" 
			},
			{
				"x": 0.1193901493,
				"y": -0.456498644,
				"z": -2.5105437558,
				"element": "C" 
			},
			{
				"x": 1.095529605,
				"y": 0.7486699452,
				"z": 5.0993278847,
				"element": "H" 
			},
			{
				"x": 2.1292050937,
				"y": 0.7486832554,
				"z": 3.6430444168,
				"element": "H" 
			},
			{
				"x": 0.5876537024,
				"y": -1.2823513683,
				"z": 3.8938584708,
				"element": "H" 
			},
			{
				"x": -0.8090396606,
				"y": -0.2013674682,
				"z": 3.6752416443,
				"element": "H" 
			},
			{
				"x": -2.1099271251,
				"y": 1.2073233311,
				"z": -0.5443278318,
				"element": "H" 
			},
			{
				"x": -3.0410088267,
				"y": 1.7794418726,
				"z": -2.7731425013,
				"element": "H" 
			},
			{
				"x": -1.9482275813,
				"y": 0.9223179838,
				"z": -4.8349261624,
				"element": "H" 
			},
			{
				"x": 0.0774544727,
				"y": -0.5076076787,
				"z": -4.6586585173,
				"element": "H" 
			},
			{
				"x": 1.0032535459,
				"y": -1.079254737,
				"z": -2.4230382652,
				"element": "H" 
			}
		],
		 "valence_orbital": [ 
			{
				"type": "occ",
				"energy": -0.32435,
				"method": "rhf"
			},
			{
				"type": "occ",
				"energy": -0.31691,
				"method": "rhf"
			},
			{
				"type": "occ",
				"energy": -0.29696,
				"method": "rhf"
			},
			{
				"type": "occ",
				"energy": -0.25536,
				"method": "rhf"
			},
			{
				"type": "occ",
				"energy": -0.2412,
				"method": "rhf"
			},
			{
				"type": "unocc",
				"energy": -0.04618,
				"method": "rhf"
			},
			{
				"type": "unocc",
				"energy": -0.02958,
				"method": "rhf"
			},
			{
				"type": "unocc",
				"energy": -0.00351,
				"method": "rhf"
			},
			{
				"type": "unocc",
				"energy": -0.0027,
				"method": "rhf"
			},
			{
				"type": "unocc",
				"energy": 0.02336,
				"method": "rhf"
			}
		],
		"cosmo_sigma_profile": { 
			"-0.025": 0.0,
			"-0.024": 0.0,
			"-0.023": 0.0,
			"-0.022": 0.0,
			"-0.021": 0.0,
			"-0.02": 0.0,
			"-0.019": 0.0,
			"-0.018": 0.0,
			"-0.017": 0.0,
			"-0.016": 0.0,
			"-0.015": 0.0,
			"-0.014": 0.0,
			"-0.013": 0.0,
			"-0.012": 1.55569105331,
			"-0.011": 6.64570019345,
			"-0.01": 7.04101225313,
			"-0.009": 8.06058975774,
			"-0.008": 8.19760559613,
			"-0.007": 7.62550012668,
			"-0.006": 12.4222604368,
			"-0.005": 13.3216590088,
			"-0.004": 15.9709193876,
			"-0.003": 12.3879197836,
			"-0.002": 12.3384809174,
			"-0.001": 12.0208366844,
			"0.0": 13.0125979747,
			"0.001": 18.326498398,
			"0.002": 24.8678592881,
			"0.003": 19.6137299903,
			"0.004": 19.1102528926,
			"0.005": 11.3341633889,
			"0.006": 6.31588385244,
			"0.007": 8.9165898713,
			"0.008": 14.7016849627,
			"0.009": 9.36742210991,
			"0.01": 3.19106616075,
			"0.011": 1.58052799678,
			"0.012": 1.14159486226,
			"0.013": 0.451865202483,
			"0.014": 0.0,
			"0.015": 0.0,
			"0.016": 0.0,
			"0.017": 0.0,
			"0.018": 0.0,
			"0.019": 0.0,
			"0.02": 0.0,
			"0.021": 0.0,
			"0.022": 0.0,
			"0.023": 0.0,
			"0.024": 0.0,
			"0.025": 0.0
		}
	}
}
