{
	 "smiles": "OC(=O)CCC1=NC(=NO1)C1=CC=C(Cl)C=C1", 
	 "Tm": 426.15, 
	 "num_atms": 26, 
	 "gaussian": { 
		 "optdone": 1, 
		 "sigma_profile": "yes", 
		 "theory": "DFT", 
		 "functional": "B3LYP", 
		 "basiset": "6-31G**", 
		 "properties": { 
			 "R2extent": 7339.3236, 
			 "electric_dipole_moment_norm": 2.89843860208, 
			 "electric_quadrupole_moment_norm": 10.2041983747, 
			 "total_energy": -1219.94963378, 
			 "HOMO_LUMO_gap": 0.18921, 
			 "cosmo_polarized_energy": -14.87, 
			 "cosmo_cavitation_energy": 33.81, 
			 "cosmo_dispersion_energy": -24.3, 
			 "cosmo_repulsion_energy": 1.91, 
			 "cosmo_total_nonelectrostatic_energy": 11.42, 
			 "SMD_solvation_energy": 5.43 
		},
		"coords": [
			{
				"x": 2.6821154517,
				"y": 0.0457384566,
				"z": 0.9197169259,
				"element": "O" 
			},
			{
				"x": 2.5017979134,
				"y": -1.1651889208,
				"z": 0.3364810187,
				"element": "C" 
			},
			{
				"x": 2.2556629522,
				"y": -2.1660081086,
				"z": 0.9678281363,
				"element": "O" 
			},
			{
				"x": 2.7069522072,
				"y": -1.1195024017,
				"z": -1.1665972268,
				"element": "C" 
			},
			{
				"x": 2.4002446912,
				"y": 0.2233135148,
				"z": -1.8384626439,
				"element": "C" 
			},
			{
				"x": 0.9581464023,
				"y": 0.5992611316,
				"z": -1.7363063236,
				"element": "C" 
			},
			{
				"x": -0.016260612,
				"y": -0.0741427818,
				"z": -1.2034629119,
				"element": "N" 
			},
			{
				"x": -1.103211031,
				"y": 0.7579006181,
				"z": -1.4045139853,
				"element": "C" 
			},
			{
				"x": -0.814223466,
				"y": 1.8785833766,
				"z": -2.0279271569,
				"element": "N" 
			},
			{
				"x": 0.5699511023,
				"y": 1.7772908345,
				"z": -2.2528208597,
				"element": "O" 
			},
			{
				"x": -2.4594459823,
				"y": 0.416491301,
				"z": -0.9589403329,
				"element": "C" 
			},
			{
				"x": -2.684905702,
				"y": -0.7907976166,
				"z": -0.2835200261,
				"element": "C" 
			},
			{
				"x": -3.9652688474,
				"y": -1.1306288272,
				"z": 0.1475224266,
				"element": "C" 
			},
			{
				"x": -5.0213575179,
				"y": -0.2544648896,
				"z": -0.1013353258,
				"element": "C" 
			},
			{
				"x": -6.6378972299,
				"y": -0.6759761737,
				"z": 0.4385916029,
				"element": "Cl" 
			},
			{
				"x": -4.817467935,
				"y": 0.9533655072,
				"z": -0.7726002032,
				"element": "C" 
			},
			{
				"x": -3.5358371456,
				"y": 1.2847495306,
				"z": -1.1993321259,
				"element": "C" 
			},
			{
				"x": 2.5454361918,
				"y": -0.0904898876,
				"z": 1.8723142234,
				"element": "H" 
			},
			{
				"x": 3.7581698836,
				"y": -1.37362091,
				"z": -1.3497570325,
				"element": "H" 
			},
			{
				"x": 2.1034893274,
				"y": -1.9243693588,
				"z": -1.5902514391,
				"element": "H" 
			},
			{
				"x": 2.6730537731,
				"y": 0.1777847779,
				"z": -2.8995399538,
				"element": "H" 
			},
			{
				"x": 3.0012031274,
				"y": 1.0238881286,
				"z": -1.3959086746,
				"element": "H" 
			},
			{
				"x": -1.8504282558,
				"y": -1.4583607467,
				"z": -0.0987321799,
				"element": "H" 
			},
			{
				"x": -4.1435979205,
				"y": -2.0634063191,
				"z": 0.6705702856,
				"element": "H" 
			},
			{
				"x": -5.6521062264,
				"y": 1.6205357571,
				"z": -0.956172009,
				"element": "H" 
			},
			{
				"x": -3.3626151518,
				"y": 2.2194540075,
				"z": -1.7220442085,
				"element": "H" 
			}
		],
		 "valence_orbital": [ 
			{
				"type": "occ",
				"energy": -0.30358,
				"method": "rhf"
			},
			{
				"type": "occ",
				"energy": -0.29808,
				"method": "rhf"
			},
			{
				"type": "occ",
				"energy": -0.28076,
				"method": "rhf"
			},
			{
				"type": "occ",
				"energy": -0.27018,
				"method": "rhf"
			},
			{
				"type": "occ",
				"energy": -0.2438,
				"method": "rhf"
			},
			{
				"type": "unocc",
				"energy": -0.05459,
				"method": "rhf"
			},
			{
				"type": "unocc",
				"energy": -0.02119,
				"method": "rhf"
			},
			{
				"type": "unocc",
				"energy": -0.00904,
				"method": "rhf"
			},
			{
				"type": "unocc",
				"energy": 0.00328,
				"method": "rhf"
			},
			{
				"type": "unocc",
				"energy": 0.02648,
				"method": "rhf"
			}
		],
		"cosmo_sigma_profile": { 
			"-0.025": 0.0,
			"-0.024": 0.0,
			"-0.023": 0.0,
			"-0.022": 0.0,
			"-0.021": 0.0,
			"-0.02": 0.0,
			"-0.019": 0.0859496409951,
			"-0.018": 0.988895464194,
			"-0.017": 0.712965160832,
			"-0.016": 0.74297556271,
			"-0.015": 1.00741266494,
			"-0.014": 0.765446716838,
			"-0.013": 0.424267930921,
			"-0.012": 0.426735301107,
			"-0.011": 0.97630516731,
			"-0.01": 0.558626815809,
			"-0.009": 0.595555016179,
			"-0.008": 6.88389653795,
			"-0.007": 14.4594107369,
			"-0.006": 18.0571086984,
			"-0.005": 15.7564268362,
			"-0.004": 14.0648548713,
			"-0.003": 13.1619070625,
			"-0.002": 13.7763191936,
			"-0.001": 15.4144836729,
			"0.0": 20.1694625323,
			"0.001": 24.4657144603,
			"0.002": 25.9095596864,
			"0.003": 18.2820312882,
			"0.004": 16.8615798497,
			"0.005": 10.1141260248,
			"0.006": 8.78068238179,
			"0.007": 6.9306505841,
			"0.008": 4.04192090372,
			"0.009": 3.56422918638,
			"0.01": 3.29275041809,
			"0.011": 5.43059049519,
			"0.012": 5.38956521253,
			"0.013": 0.844975913037,
			"0.014": 0.0,
			"0.015": 0.0,
			"0.016": 0.0,
			"0.017": 0.0,
			"0.018": 0.0,
			"0.019": 0.0,
			"0.02": 0.0,
			"0.021": 0.0,
			"0.022": 0.0,
			"0.023": 0.0,
			"0.024": 0.0,
			"0.025": 0.0
		}
	}
}
