{
	 "smiles": "CC(C)S(=O)(=O)C1=CC(C(O)=O)=C(Cl)C=C1", 
	 "Tm": 403.15, 
	 "num_atms": 27, 
	 "gaussian": { 
		 "optdone": 1, 
		 "sigma_profile": "yes", 
		 "theory": "DFT", 
		 "functional": "B3LYP", 
		 "basiset": "6-31G**", 
		 "properties": { 
			 "R2extent": 5796.9767, 
			 "electric_dipole_moment_norm": 5.56973302233, 
			 "electric_quadrupole_moment_norm": 27.625865958, 
			 "total_energy": -1546.91839263, 
			 "HOMO_LUMO_gap": 0.20468, 
			 "cosmo_polarized_energy": -20.04, 
			 "cosmo_cavitation_energy": 33.44, 
			 "cosmo_dispersion_energy": -24.11, 
			 "cosmo_repulsion_energy": 1.82, 
			 "cosmo_total_nonelectrostatic_energy": 11.15, 
			 "SMD_solvation_energy": 5.92 
		},
		"coords": [
			{
				"x": -0.0790364864,
				"y": 0.7833365907,
				"z": 4.7608741949,
				"element": "C" 
			},
			{
				"x": 0.7775588091,
				"y": 1.862900324,
				"z": 4.0996514101,
				"element": "C" 
			},
			{
				"x": 2.2497005874,
				"y": 1.4847510286,
				"z": 3.9391525653,
				"element": "C" 
			},
			{
				"x": 0.0424242214,
				"y": 2.4116807246,
				"z": 2.5006060316,
				"element": "S" 
			},
			{
				"x": 0.9554629382,
				"y": 3.4034825858,
				"z": 1.9099549615,
				"element": "O" 
			},
			{
				"x": -1.373889862,
				"y": 2.7307335091,
				"z": 2.7562926034,
				"element": "O" 
			},
			{
				"x": 0.052561925,
				"y": 0.9617784382,
				"z": 1.4165795136,
				"element": "C" 
			},
			{
				"x": 1.1810361154,
				"y": 0.6724947948,
				"z": 0.6601797868,
				"element": "C" 
			},
			{
				"x": 1.2088405749,
				"y": -0.4259897345,
				"z": -0.2162979417,
				"element": "C" 
			},
			{
				"x": 2.5309075929,
				"y": -0.6043336227,
				"z": -0.9444801325,
				"element": "C" 
			},
			{
				"x": 2.5862293877,
				"y": -1.390361253,
				"z": -2.032046488,
				"element": "O" 
			},
			{
				"x": 3.5206449357,
				"y": -0.023695876,
				"z": -0.5630853616,
				"element": "O" 
			},
			{
				"x": 0.0437136085,
				"y": -1.2099034243,
				"z": -0.2925477582,
				"element": "C" 
			},
			{
				"x": -0.0741486286,
				"y": -2.6364804092,
				"z": -1.3299300002,
				"element": "Cl" 
			},
			{
				"x": -1.0965925501,
				"y": -0.9162801556,
				"z": 0.4588987449,
				"element": "C" 
			},
			{
				"x": -1.0984694427,
				"y": 0.1780350923,
				"z": 1.3171635354,
				"element": "C" 
			},
			{
				"x": -1.1194143636,
				"y": 1.1025504252,
				"z": 4.851317444,
				"element": "H" 
			},
			{
				"x": -0.0426233598,
				"y": -0.155564418,
				"z": 4.1988396656,
				"element": "H" 
			},
			{
				"x": 0.3089141097,
				"y": 0.5828666893,
				"z": 5.7645061616,
				"element": "H" 
			},
			{
				"x": 0.6954012874,
				"y": 2.7989107021,
				"z": 4.6667845135,
				"element": "H" 
			},
			{
				"x": 2.3673041608,
				"y": 0.5629687237,
				"z": 3.3608166018,
				"element": "H" 
			},
			{
				"x": 2.8135115321,
				"y": 2.2818093862,
				"z": 3.4503814174,
				"element": "H" 
			},
			{
				"x": 2.6839461709,
				"y": 1.3118321653,
				"z": 4.928929365,
				"element": "H" 
			},
			{
				"x": 2.0661691591,
				"y": 1.2953719111,
				"z": 0.7154340911,
				"element": "H" 
			},
			{
				"x": 1.7304483954,
				"y": -1.8065781516,
				"z": -2.2228754568,
				"element": "H" 
			},
			{
				"x": -1.9749627982,
				"y": -1.5441273202,
				"z": 0.3620062143,
				"element": "H" 
			},
			{
				"x": -1.9831380203,
				"y": 0.4389112741,
				"z": 1.8874943171,
				"element": "H" 
			}
		],
		 "valence_orbital": [ 
			{
				"type": "occ",
				"energy": -0.30378,
				"method": "rhf"
			},
			{
				"type": "occ",
				"energy": -0.30035,
				"method": "rhf"
			},
			{
				"type": "occ",
				"energy": -0.29462,
				"method": "rhf"
			},
			{
				"type": "occ",
				"energy": -0.28907,
				"method": "rhf"
			},
			{
				"type": "occ",
				"energy": -0.28536,
				"method": "rhf"
			},
			{
				"type": "unocc",
				"energy": -0.08068,
				"method": "rhf"
			},
			{
				"type": "unocc",
				"energy": -0.06066,
				"method": "rhf"
			},
			{
				"type": "unocc",
				"energy": -0.01461,
				"method": "rhf"
			},
			{
				"type": "unocc",
				"energy": 0.01806,
				"method": "rhf"
			},
			{
				"type": "unocc",
				"energy": 0.05288,
				"method": "rhf"
			}
		],
		"cosmo_sigma_profile": { 
			"-0.025": 0.0,
			"-0.024": 0.0,
			"-0.023": 0.0,
			"-0.022": 0.0,
			"-0.021": 0.0,
			"-0.02": 0.0,
			"-0.019": 0.0,
			"-0.018": 0.0,
			"-0.017": 0.0,
			"-0.016": 0.0,
			"-0.015": 0.000492408254639,
			"-0.014": 0.302797741093,
			"-0.013": 1.24845543792,
			"-0.012": 1.05961394869,
			"-0.011": 1.23813852968,
			"-0.01": 0.910067927551,
			"-0.009": 3.48811596163,
			"-0.008": 7.84144587402,
			"-0.007": 6.67670312814,
			"-0.006": 9.22491352232,
			"-0.005": 18.6451953232,
			"-0.004": 24.6677527992,
			"-0.003": 26.4315882306,
			"-0.002": 30.5768145706,
			"-0.001": 29.5880296218,
			"0.0": 17.0613800127,
			"0.001": 9.57627744155,
			"0.002": 10.3358296239,
			"0.003": 6.3076224426,
			"0.004": 4.55843863978,
			"0.005": 4.24809545608,
			"0.006": 4.37651949145,
			"0.007": 5.00249192775,
			"0.008": 5.45430515277,
			"0.009": 7.14831581185,
			"0.01": 10.627591871,
			"0.011": 12.3763955389,
			"0.012": 8.77621648815,
			"0.013": 0.528125181864,
			"0.014": 0.0,
			"0.015": 0.0,
			"0.016": 0.0,
			"0.017": 0.0,
			"0.018": 0.0,
			"0.019": 0.0,
			"0.02": 0.0,
			"0.021": 0.0,
			"0.022": 0.0,
			"0.023": 0.0,
			"0.024": 0.0,
			"0.025": 0.0
		}
	}
}
