{
	 "smiles": "CC(CCC(O)=O)C1CCC2C3CC(O)C4=CC(O)CCC4(C)C3CCC12C", 
	 "Tm": 473.15, 
	 "num_atms": 66, 
	 "gaussian": { 
		 "optdone": 1, 
		 "sigma_profile": "yes", 
		 "theory": "DFT", 
		 "functional": "B3LYP", 
		 "basiset": "6-31G**", 
		 "properties": { 
			 "R2extent": 13372.8411, 
			 "electric_dipole_moment_norm": 3.5745595393, 
			 "electric_quadrupole_moment_norm": 18.647036871, 
			 "total_energy": -1238.35196132, 
			 "HOMO_LUMO_gap": 0.24733, 
			 "cosmo_polarized_energy": -19.82, 
			 "cosmo_cavitation_energy": 56.94, 
			 "cosmo_dispersion_energy": -38.18, 
			 "cosmo_repulsion_energy": 2.85, 
			 "cosmo_total_nonelectrostatic_energy": 21.61, 
			 "SMD_solvation_energy": 8.9 
		},
		"coords": [
			{
				"x": -2.2813287497,
				"y": 1.9749446271,
				"z": 3.2736915808,
				"element": "C" 
			},
			{
				"x": -0.984229226,
				"y": 1.5370043401,
				"z": 2.566544017,
				"element": "C" 
			},
			{
				"x": -0.1972133424,
				"y": 0.5249446448,
				"z": 3.4277033792,
				"element": "C" 
			},
			{
				"x": 0.3560412597,
				"y": 1.1216856412,
				"z": 4.7254474529,
				"element": "C" 
			},
			{
				"x": 1.2363165208,
				"y": 0.1562583868,
				"z": 5.4890024652,
				"element": "C" 
			},
			{
				"x": 1.6359982657,
				"y": 0.6812319433,
				"z": 6.6748563491,
				"element": "O" 
			},
			{
				"x": 1.5719778641,
				"y": -0.9494994913,
				"z": 5.124370623,
				"element": "O" 
			},
			{
				"x": -1.1087700188,
				"y": 1.1008092375,
				"z": 1.0741809892,
				"element": "C" 
			},
			{
				"x": -1.5208942981,
				"y": 2.2739711524,
				"z": 0.1484929557,
				"element": "C" 
			},
			{
				"x": -2.047090998,
				"y": 1.6352054051,
				"z": -1.1633774031,
				"element": "C" 
			},
			{
				"x": -1.9226507666,
				"y": 0.0984423239,
				"z": -0.978085643,
				"element": "C" 
			},
			{
				"x": -0.6371244907,
				"y": -0.4651138541,
				"z": -1.6386656592,
				"element": "C" 
			},
			{
				"x": -0.68700561,
				"y": -0.3841419178,
				"z": -3.1736942088,
				"element": "C" 
			},
			{
				"x": 0.7125704036,
				"y": -0.6352528864,
				"z": -3.7768643012,
				"element": "C" 
			},
			{
				"x": 0.6473677531,
				"y": -1.1057210825,
				"z": -5.1264078034,
				"element": "O" 
			},
			{
				"x": 1.5512029516,
				"y": -1.5155000783,
				"z": -2.8532286547,
				"element": "C" 
			},
			{
				"x": 2.8616008458,
				"y": -1.2656862997,
				"z": -2.7258471362,
				"element": "C" 
			},
			{
				"x": 3.7880039944,
				"y": -1.9925587855,
				"z": -1.7873121648,
				"element": "C" 
			},
			{
				"x": 4.536002698,
				"y": -2.9407043123,
				"z": -2.5653452036,
				"element": "O" 
			},
			{
				"x": 2.9914694417,
				"y": -2.6716572018,
				"z": -0.668060411,
				"element": "C" 
			},
			{
				"x": 1.8296901576,
				"y": -3.4624266774,
				"z": -1.2707806446,
				"element": "C" 
			},
			{
				"x": 0.8137860859,
				"y": -2.6018512445,
				"z": -2.0710046864,
				"element": "C" 
			},
			{
				"x": 0.1388591986,
				"y": -3.5883770899,
				"z": -3.0670602229,
				"element": "C" 
			},
			{
				"x": -0.3429919912,
				"y": -1.9245274209,
				"z": -1.2003255032,
				"element": "C" 
			},
			{
				"x": -0.1921685424,
				"y": -1.9548277962,
				"z": 0.3293637877,
				"element": "C" 
			},
			{
				"x": -1.4994771445,
				"y": -1.4998504402,
				"z": 0.9907504784,
				"element": "C" 
			},
			{
				"x": -1.9945176758,
				"y": -0.0965479633,
				"z": 0.5773649281,
				"element": "C" 
			},
			{
				"x": -3.4699392277,
				"y": 0.0259376318,
				"z": 1.0185801336,
				"element": "C" 
			},
			{
				"x": -2.8851775643,
				"y": 1.1189429845,
				"z": 3.5885337044,
				"element": "H" 
			},
			{
				"x": -2.9069538986,
				"y": 2.6076485408,
				"z": 2.6385281839,
				"element": "H" 
			},
			{
				"x": -2.051543675,
				"y": 2.5577017786,
				"z": 4.1716987173,
				"element": "H" 
			},
			{
				"x": -0.3518063622,
				"y": 2.4380899438,
				"z": 2.5064531332,
				"element": "H" 
			},
			{
				"x": -0.8281748131,
				"y": -0.3336031975,
				"z": 3.6821266156,
				"element": "H" 
			},
			{
				"x": 0.6433442268,
				"y": 0.1206373772,
				"z": 2.8535699685,
				"element": "H" 
			},
			{
				"x": -0.4387574253,
				"y": 1.4496378038,
				"z": 5.4047643217,
				"element": "H" 
			},
			{
				"x": 0.9560085941,
				"y": 2.0196932824,
				"z": 4.5232504362,
				"element": "H" 
			},
			{
				"x": 2.1985749261,
				"y": 0.0064272256,
				"z": 7.0906436581,
				"element": "H" 
			},
			{
				"x": -0.0810837586,
				"y": 0.8357132487,
				"z": 0.7932622843,
				"element": "H" 
			},
			{
				"x": -2.2999080256,
				"y": 2.8853661736,
				"z": 0.6154679361,
				"element": "H" 
			},
			{
				"x": -0.6731208996,
				"y": 2.9448569682,
				"z": -0.0268597164,
				"element": "H" 
			},
			{
				"x": -3.0899494786,
				"y": 1.9166470874,
				"z": -1.3395524872,
				"element": "H" 
			},
			{
				"x": -1.4869996757,
				"y": 1.9864688383,
				"z": -2.0343211363,
				"element": "H" 
			},
			{
				"x": -2.7736091077,
				"y": -0.4187411969,
				"z": -1.4432633598,
				"element": "H" 
			},
			{
				"x": 0.2137709177,
				"y": 0.1516272038,
				"z": -1.309227735,
				"element": "H" 
			},
			{
				"x": -1.0585114416,
				"y": 0.5833211922,
				"z": -3.5240527483,
				"element": "H" 
			},
			{
				"x": -1.3968650742,
				"y": -1.1299790337,
				"z": -3.5543581815,
				"element": "H" 
			},
			{
				"x": 1.2288949615,
				"y": 0.3265703291,
				"z": -3.8652870615,
				"element": "H" 
			},
			{
				"x": 0.2869537773,
				"y": -2.001152737,
				"z": -5.1128313465,
				"element": "H" 
			},
			{
				"x": 3.3106328117,
				"y": -0.4861527265,
				"z": -3.3394893657,
				"element": "H" 
			},
			{
				"x": 4.4816999867,
				"y": -1.2573392158,
				"z": -1.3470728184,
				"element": "H" 
			},
			{
				"x": 5.2234883043,
				"y": -3.3043189921,
				"z": -1.9906680505,
				"element": "H" 
			},
			{
				"x": 2.6390596113,
				"y": -1.9071683337,
				"z": 0.032698667,
				"element": "H" 
			},
			{
				"x": 3.6511599044,
				"y": -3.3397192491,
				"z": -0.0986253613,
				"element": "H" 
			},
			{
				"x": 2.2724316381,
				"y": -4.1831657392,
				"z": -1.9677409689,
				"element": "H" 
			},
			{
				"x": 1.3100531527,
				"y": -4.0520524105,
				"z": -0.5096445791,
				"element": "H" 
			},
			{
				"x": -0.2790214714,
				"y": -4.4393188862,
				"z": -2.5164132505,
				"element": "H" 
			},
			{
				"x": 0.8685575139,
				"y": -3.981134955,
				"z": -3.7831817328,
				"element": "H" 
			},
			{
				"x": -0.6905041923,
				"y": -3.1380542415,
				"z": -3.6200644958,
				"element": "H" 
			},
			{
				"x": -1.2553334098,
				"y": -2.5018370479,
				"z": -1.4181765593,
				"element": "H" 
			},
			{
				"x": 0.0387732513,
				"y": -2.9627090695,
				"z": 0.6875133463,
				"element": "H" 
			},
			{
				"x": 0.6405563964,
				"y": -1.3160747074,
				"z": 0.6469000942,
				"element": "H" 
			},
			{
				"x": -2.2805203204,
				"y": -2.2236216269,
				"z": 0.7153707088,
				"element": "H" 
			},
			{
				"x": -1.4124960801,
				"y": -1.5626103381,
				"z": 2.0800266224,
				"element": "H" 
			},
			{
				"x": -3.5950057933,
				"y": -0.2266754226,
				"z": 2.0750967328,
				"element": "H" 
			},
			{
				"x": -3.8792543106,
				"y": 1.0286197721,
				"z": 0.866531084,
				"element": "H" 
			},
			{
				"x": -4.0890485553,
				"y": -0.6729314151,
				"z": 0.4445052461,
				"element": "H" 
			}
		],
		 "valence_orbital": [ 
			{
				"type": "occ",
				"energy": -0.27589,
				"method": "rhf"
			},
			{
				"type": "occ",
				"energy": -0.26807,
				"method": "rhf"
			},
			{
				"type": "occ",
				"energy": -0.25868,
				"method": "rhf"
			},
			{
				"type": "occ",
				"energy": -0.25193,
				"method": "rhf"
			},
			{
				"type": "occ",
				"energy": -0.23847,
				"method": "rhf"
			},
			{
				"type": "unocc",
				"energy": 0.00886,
				"method": "rhf"
			},
			{
				"type": "unocc",
				"energy": 0.00962,
				"method": "rhf"
			},
			{
				"type": "unocc",
				"energy": 0.06359,
				"method": "rhf"
			},
			{
				"type": "unocc",
				"energy": 0.07239,
				"method": "rhf"
			},
			{
				"type": "unocc",
				"energy": 0.07801,
				"method": "rhf"
			}
		],
		"cosmo_sigma_profile": { 
			"-0.025": 0.0,
			"-0.024": 0.0,
			"-0.023": 0.0,
			"-0.022": 0.0,
			"-0.021": 0.0,
			"-0.02": 0.0,
			"-0.019": 0.0,
			"-0.018": 0.253580083803,
			"-0.017": 1.10469824084,
			"-0.016": 0.591836615375,
			"-0.015": 1.79605829739,
			"-0.014": 2.12752403466,
			"-0.013": 1.25863228868,
			"-0.012": 1.56507002493,
			"-0.011": 2.53790835748,
			"-0.01": 3.52281012288,
			"-0.009": 2.68850795682,
			"-0.008": 2.46004875374,
			"-0.007": 3.14435875268,
			"-0.006": 4.61172437313,
			"-0.005": 10.3647797798,
			"-0.004": 16.5992202515,
			"-0.003": 42.0601113573,
			"-0.002": 65.2776274779,
			"-0.001": 71.943363549,
			"0.0": 56.4791104091,
			"0.001": 46.1272955903,
			"0.002": 25.0920956493,
			"0.003": 9.19586629327,
			"0.004": 5.65860828717,
			"0.005": 6.35281684142,
			"0.006": 3.91695345424,
			"0.007": 5.75142098959,
			"0.008": 6.22110339395,
			"0.009": 6.94517193014,
			"0.01": 5.17881817295,
			"0.011": 6.33600555569,
			"0.012": 7.70792730113,
			"0.013": 4.37613683309,
			"0.014": 4.22891436177,
			"0.015": 2.56666080522,
			"0.016": 0.0324168786152,
			"0.017": 0.0,
			"0.018": 0.0,
			"0.019": 0.0,
			"0.02": 0.0,
			"0.021": 0.0,
			"0.022": 0.0,
			"0.023": 0.0,
			"0.024": 0.0,
			"0.025": 0.0
		}
	}
}
