{
	 "smiles": "OC(=O)CCC(=O)NC1=CC=C(C=C1)S(=O)(=O)NC1=NC=CS1", 
	 "Tm": 467.15, 
	 "num_atms": 36, 
	 "gaussian": { 
		 "optdone": 1, 
		 "sigma_profile": "yes", 
		 "theory": "DFT", 
		 "functional": "B3LYP", 
		 "basiset": "6-31G**", 
		 "properties": { 
			 "R2extent": 13094.4202, 
			 "electric_dipole_moment_norm": 3.16131657858, 
			 "electric_quadrupole_moment_norm": 39.3385266814, 
			 "total_energy": -1839.90987569, 
			 "HOMO_LUMO_gap": 0.18103, 
			 "cosmo_polarized_energy": -30.25, 
			 "cosmo_cavitation_energy": 44.8, 
			 "cosmo_dispersion_energy": -32.3, 
			 "cosmo_repulsion_energy": 2.42, 
			 "cosmo_total_nonelectrostatic_energy": 14.92, 
			 "SMD_solvation_energy": 7.75 
		},
		"coords": [
			{
				"x": -3.8250669702,
				"y": -2.2308001197,
				"z": -0.0354123547,
				"element": "O" 
			},
			{
				"x": -3.8970975451,
				"y": -3.0460291924,
				"z": 1.04818628,
				"element": "C" 
			},
			{
				"x": -4.6658562614,
				"y": -3.9768468821,
				"z": 1.110746174,
				"element": "O" 
			},
			{
				"x": -2.8844870571,
				"y": -2.6891867479,
				"z": 2.1192112878,
				"element": "C" 
			},
			{
				"x": -2.3055595811,
				"y": -1.2750823136,
				"z": 2.0417191534,
				"element": "C" 
			},
			{
				"x": -3.3881753716,
				"y": -0.2279720902,
				"z": 2.2611896574,
				"element": "C" 
			},
			{
				"x": -4.4750717702,
				"y": -0.514781709,
				"z": 2.7407140213,
				"element": "O" 
			},
			{
				"x": -3.1516122106,
				"y": 1.0910922276,
				"z": 1.8946182624,
				"element": "N" 
			},
			{
				"x": -2.0819778873,
				"y": 1.7391163705,
				"z": 1.2559296034,
				"element": "C" 
			},
			{
				"x": -0.7355105579,
				"y": 1.3793674851,
				"z": 1.4386867816,
				"element": "C" 
			},
			{
				"x": 0.2755108311,
				"y": 2.0805302022,
				"z": 0.7889225168,
				"element": "C" 
			},
			{
				"x": -0.0543248107,
				"y": 3.1587824779,
				"z": -0.0328940102,
				"element": "C" 
			},
			{
				"x": -1.3832088443,
				"y": 3.5544180415,
				"z": -0.2029396973,
				"element": "C" 
			},
			{
				"x": -2.3884824242,
				"y": 2.8426422058,
				"z": 0.4374937523,
				"element": "C" 
			},
			{
				"x": 1.2336799428,
				"y": 4.0940939162,
				"z": -0.8335958863,
				"element": "S" 
			},
			{
				"x": 0.657736812,
				"y": 5.3370758829,
				"z": -1.3524520152,
				"element": "O" 
			},
			{
				"x": 2.4211981246,
				"y": 4.080671527,
				"z": 0.0127792332,
				"element": "O" 
			},
			{
				"x": 1.5459697196,
				"y": 3.2179106885,
				"z": -2.2890665876,
				"element": "N" 
			},
			{
				"x": 2.4252056217,
				"y": 2.1453639184,
				"z": -2.3584027969,
				"element": "C" 
			},
			{
				"x": 2.5826319142,
				"y": 1.265247306,
				"z": -1.415692656,
				"element": "N" 
			},
			{
				"x": 3.508574353,
				"y": 0.3156689101,
				"z": -1.792718131,
				"element": "C" 
			},
			{
				"x": 4.0522839907,
				"y": 0.4528522926,
				"z": -3.0321882224,
				"element": "C" 
			},
			{
				"x": 3.4083002037,
				"y": 1.8790951083,
				"z": -3.8027021346,
				"element": "S" 
			},
			{
				"x": -4.5043435458,
				"y": -2.5494104221,
				"z": -0.6533238904,
				"element": "H" 
			},
			{
				"x": -3.3784391682,
				"y": -2.8564679868,
				"z": 3.0778851778,
				"element": "H" 
			},
			{
				"x": -2.0717165856,
				"y": -3.4214653659,
				"z": 2.0419600005,
				"element": "H" 
			},
			{
				"x": -1.5473048042,
				"y": -1.1627832242,
				"z": 2.8264649713,
				"element": "H" 
			},
			{
				"x": -1.8034647264,
				"y": -1.105611814,
				"z": 1.0855888545,
				"element": "H" 
			},
			{
				"x": -4.0002701314,
				"y": 1.6366260093,
				"z": 1.9921812468,
				"element": "H" 
			},
			{
				"x": -0.4666732068,
				"y": 0.5755626828,
				"z": 2.1104172822,
				"element": "H" 
			},
			{
				"x": 1.3133122204,
				"y": 1.7977999021,
				"z": 0.916318006,
				"element": "H" 
			},
			{
				"x": -1.6180005352,
				"y": 4.4106482893,
				"z": -0.8250688389,
				"element": "H" 
			},
			{
				"x": -3.4261341808,
				"y": 3.1339598648,
				"z": 0.30126883,
				"element": "H" 
			},
			{
				"x": 1.5100710786,
				"y": 3.8551983532,
				"z": -3.076983131,
				"element": "H" 
			},
			{
				"x": 3.7459772852,
				"y": -0.4859296809,
				"z": -1.1034016631,
				"element": "H" 
			},
			{
				"x": 4.7650260788,
				"y": -0.1806561133,
				"z": -3.5391390773,
				"element": "H" 
			}
		],
		 "valence_orbital": [ 
			{
				"type": "occ",
				"energy": -0.28052,
				"method": "rhf"
			},
			{
				"type": "occ",
				"energy": -0.27532,
				"method": "rhf"
			},
			{
				"type": "occ",
				"energy": -0.27428,
				"method": "rhf"
			},
			{
				"type": "occ",
				"energy": -0.24882,
				"method": "rhf"
			},
			{
				"type": "occ",
				"energy": -0.23336,
				"method": "rhf"
			},
			{
				"type": "unocc",
				"energy": -0.05233,
				"method": "rhf"
			},
			{
				"type": "unocc",
				"energy": -0.03177,
				"method": "rhf"
			},
			{
				"type": "unocc",
				"energy": -0.02966,
				"method": "rhf"
			},
			{
				"type": "unocc",
				"energy": -0.00874,
				"method": "rhf"
			},
			{
				"type": "unocc",
				"energy": 0.00915,
				"method": "rhf"
			}
		],
		"cosmo_sigma_profile": { 
			"-0.025": 0.0,
			"-0.024": 0.0,
			"-0.023": 0.0,
			"-0.022": 0.0,
			"-0.021": 0.0,
			"-0.02": 0.0,
			"-0.019": 0.0,
			"-0.018": 0.619676101434,
			"-0.017": 1.84011980384,
			"-0.016": 1.64082057262,
			"-0.015": 2.69364483703,
			"-0.014": 3.18008840674,
			"-0.013": 3.56069741153,
			"-0.012": 1.97822860073,
			"-0.011": 2.82978320343,
			"-0.01": 3.95431785682,
			"-0.009": 7.16636777177,
			"-0.008": 10.5793153291,
			"-0.007": 16.0415856179,
			"-0.006": 17.7095427289,
			"-0.005": 21.1666960834,
			"-0.004": 18.9485775796,
			"-0.003": 17.0770900179,
			"-0.002": 15.6376832684,
			"-0.001": 17.6473937439,
			"0.0": 22.3368063415,
			"0.001": 23.7376699277,
			"0.002": 29.4468038524,
			"0.003": 20.1768470545,
			"0.004": 15.2854737393,
			"0.005": 11.6013954276,
			"0.006": 9.91721344423,
			"0.007": 10.596300818,
			"0.008": 6.84633083984,
			"0.009": 9.07154740889,
			"0.01": 14.6374834146,
			"0.011": 9.87005331407,
			"0.012": 8.80239300146,
			"0.013": 3.59650217235,
			"0.014": 0.0305537575314,
			"0.015": 0.0,
			"0.016": 0.0,
			"0.017": 0.0,
			"0.018": 0.0,
			"0.019": 0.0,
			"0.02": 0.0,
			"0.021": 0.0,
			"0.022": 0.0,
			"0.023": 0.0,
			"0.024": 0.0,
			"0.025": 0.0
		}
	}
}
