{
	 "smiles": "CCN(CC)S(=O)(=O)C1=CC=C(N)C=C1", 
	 "Tm": 373.15, 
	 "num_atms": 31, 
	 "gaussian": { 
		 "optdone": 1, 
		 "sigma_profile": "yes", 
		 "theory": "DFT", 
		 "functional": "B3LYP", 
		 "basiset": "6-31G**", 
		 "properties": { 
			 "R2extent": 4480.1387, 
			 "electric_dipole_moment_norm": 6.55606120929, 
			 "electric_quadrupole_moment_norm": 23.5039381664, 
			 "total_energy": -1048.78502535, 
			 "HOMO_LUMO_gap": 0.19953, 
			 "cosmo_polarized_energy": -18.12, 
			 "cosmo_cavitation_energy": 34.21, 
			 "cosmo_dispersion_energy": -24.47, 
			 "cosmo_repulsion_energy": 1.89, 
			 "cosmo_total_nonelectrostatic_energy": 11.63, 
			 "SMD_solvation_energy": 4.89 
		},
		"coords": [
			{
				"x": -2.6762693147,
				"y": -0.3531205607,
				"z": -2.0541891647,
				"element": "C" 
			},
			{
				"x": -1.4282468802,
				"y": -1.2223153991,
				"z": -1.8931065005,
				"element": "C" 
			},
			{
				"x": -0.9697409971,
				"y": -1.2624286615,
				"z": -0.4905845738,
				"element": "N" 
			},
			{
				"x": -1.8324399203,
				"y": -1.9477023487,
				"z": 0.4914343379,
				"element": "C" 
			},
			{
				"x": -2.119682918,
				"y": -3.428776692,
				"z": 0.2204267774,
				"element": "C" 
			},
			{
				"x": 0.6995258228,
				"y": -1.4411537023,
				"z": -0.2368320553,
				"element": "S" 
			},
			{
				"x": 1.3544838889,
				"y": -0.8259464959,
				"z": -1.3983654668,
				"element": "O" 
			},
			{
				"x": 1.0426276582,
				"y": -2.8197085259,
				"z": 0.1518242996,
				"element": "O" 
			},
			{
				"x": 0.9658922804,
				"y": -0.4151668523,
				"z": 1.1997547318,
				"element": "C" 
			},
			{
				"x": 0.750479735,
				"y": 0.9655229045,
				"z": 1.1209714794,
				"element": "C" 
			},
			{
				"x": 1.0071033903,
				"y": 1.7690502184,
				"z": 2.2213890549,
				"element": "C" 
			},
			{
				"x": 1.4919846373,
				"y": 1.2093568565,
				"z": 3.4226515309,
				"element": "C" 
			},
			{
				"x": 1.7953932519,
				"y": 2.020605849,
				"z": 4.5028715864,
				"element": "N" 
			},
			{
				"x": 1.7101731802,
				"y": -0.1799738569,
				"z": 3.4823074622,
				"element": "C" 
			},
			{
				"x": 1.4532264885,
				"y": -0.9847509755,
				"z": 2.3781737106,
				"element": "C" 
			},
			{
				"x": -3.5423897283,
				"y": -0.7621589673,
				"z": -1.5244429669,
				"element": "H" 
			},
			{
				"x": -2.4939244652,
				"y": 0.6593281763,
				"z": -1.6817017138,
				"element": "H" 
			},
			{
				"x": -2.9423135081,
				"y": -0.288593898,
				"z": -3.1142609557,
				"element": "H" 
			},
			{
				"x": -1.6205901566,
				"y": -2.2341969142,
				"z": -2.2763917804,
				"element": "H" 
			},
			{
				"x": -0.609975535,
				"y": -0.8059561543,
				"z": -2.4812266647,
				"element": "H" 
			},
			{
				"x": -1.3632867402,
				"y": -1.8318437065,
				"z": 1.4731730552,
				"element": "H" 
			},
			{
				"x": -2.7695105586,
				"y": -1.3818356913,
				"z": 0.5381815155,
				"element": "H" 
			},
			{
				"x": -2.7442455062,
				"y": -3.8333611176,
				"z": 1.024244222,
				"element": "H" 
			},
			{
				"x": -1.1899936237,
				"y": -3.9998915207,
				"z": 0.1788318008,
				"element": "H" 
			},
			{
				"x": -2.6622064637,
				"y": -3.5734244706,
				"z": -0.7190730917,
				"element": "H" 
			},
			{
				"x": 0.3816805368,
				"y": 1.4042423032,
				"z": 0.1999057255,
				"element": "H" 
			},
			{
				"x": 0.8429262977,
				"y": 2.841668192,
				"z": 2.1593415989,
				"element": "H" 
			},
			{
				"x": 1.8532467239,
				"y": 1.5740881802,
				"z": 5.406098753,
				"element": "H" 
			},
			{
				"x": 1.3558846657,
				"y": 2.928688987,
				"z": 4.5292658123,
				"element": "H" 
			},
			{
				"x": 2.0914831533,
				"y": -0.6239156083,
				"z": 4.3981265105,
				"element": "H" 
			},
			{
				"x": 1.6286046049,
				"y": -2.0542295477,
				"z": 2.4171009692,
				"element": "H" 
			}
		],
		 "valence_orbital": [ 
			{
				"type": "occ",
				"energy": -0.29224,
				"method": "rhf"
			},
			{
				"type": "occ",
				"energy": -0.28508,
				"method": "rhf"
			},
			{
				"type": "occ",
				"energy": -0.26356,
				"method": "rhf"
			},
			{
				"type": "occ",
				"energy": -0.24034,
				"method": "rhf"
			},
			{
				"type": "occ",
				"energy": -0.21661,
				"method": "rhf"
			},
			{
				"type": "unocc",
				"energy": -0.01708,
				"method": "rhf"
			},
			{
				"type": "unocc",
				"energy": -0.01155,
				"method": "rhf"
			},
			{
				"type": "unocc",
				"energy": 0.062,
				"method": "rhf"
			},
			{
				"type": "unocc",
				"energy": 0.07431,
				"method": "rhf"
			},
			{
				"type": "unocc",
				"energy": 0.0842,
				"method": "rhf"
			}
		],
		"cosmo_sigma_profile": { 
			"-0.025": 0.0,
			"-0.024": 0.0,
			"-0.023": 0.0,
			"-0.022": 0.0,
			"-0.021": 0.0,
			"-0.02": 0.0,
			"-0.019": 0.0,
			"-0.018": 0.0,
			"-0.017": 0.0,
			"-0.016": 0.0,
			"-0.015": 0.0,
			"-0.014": 0.334237420531,
			"-0.013": 2.24080140173,
			"-0.012": 3.58033343862,
			"-0.011": 2.72945279881,
			"-0.01": 3.31223393382,
			"-0.009": 2.8164451004,
			"-0.008": 3.02280811864,
			"-0.007": 5.12373920321,
			"-0.006": 7.64965558247,
			"-0.005": 10.1987847955,
			"-0.004": 19.4345998836,
			"-0.003": 27.1763332674,
			"-0.002": 26.8990754725,
			"-0.001": 22.3300404236,
			"0.0": 24.2477265179,
			"0.001": 19.6154859166,
			"0.002": 12.2874855578,
			"0.003": 12.6628887365,
			"0.004": 18.0511173922,
			"0.005": 7.28892635718,
			"0.006": 4.64947299164,
			"0.007": 3.69331428567,
			"0.008": 3.97652477724,
			"0.009": 4.10444522847,
			"0.01": 5.77044107373,
			"0.011": 7.61016268719,
			"0.012": 7.02974512965,
			"0.013": 1.3472516884,
			"0.014": 0.0,
			"0.015": 0.0,
			"0.016": 0.0,
			"0.017": 0.0,
			"0.018": 0.0,
			"0.019": 0.0,
			"0.02": 0.0,
			"0.021": 0.0,
			"0.022": 0.0,
			"0.023": 0.0,
			"0.024": 0.0,
			"0.025": 0.0
		}
	}
}
