{
	 "smiles": "OC(=O)C1CCC(CC1C(O)=O)C1=CC=CC=C1", 
	 "Tm": 461.15, 
	 "num_atms": 34, 
	 "gaussian": { 
		 "optdone": 1, 
		 "sigma_profile": "yes", 
		 "theory": "DFT", 
		 "functional": "B3LYP", 
		 "basiset": "6-31G**", 
		 "properties": { 
			 "R2extent": 6659.3843, 
			 "electric_dipole_moment_norm": 5.58441982394, 
			 "electric_quadrupole_moment_norm": 17.71672187, 
			 "total_energy": -844.06076276, 
			 "HOMO_LUMO_gap": 0.21368, 
			 "cosmo_polarized_energy": -21.78, 
			 "cosmo_cavitation_energy": 34.93, 
			 "cosmo_dispersion_energy": -25.24, 
			 "cosmo_repulsion_energy": 1.92, 
			 "cosmo_total_nonelectrostatic_energy": 11.6, 
			 "SMD_solvation_energy": 7.15 
		},
		"coords": [
			{
				"x": -3.3826646354,
				"y": -0.689675646,
				"z": -1.2911172855,
				"element": "O" 
			},
			{
				"x": -2.3540548395,
				"y": -0.1999690761,
				"z": -2.0100448271,
				"element": "C" 
			},
			{
				"x": -2.5814394715,
				"y": 0.261918782,
				"z": -3.1127717257,
				"element": "O" 
			},
			{
				"x": -0.9875865211,
				"y": -0.2544260656,
				"z": -1.3425259507,
				"element": "C" 
			},
			{
				"x": -0.5594395534,
				"y": -1.7081734639,
				"z": -0.9930178096,
				"element": "C" 
			},
			{
				"x": 0.9491866878,
				"y": -1.7911650457,
				"z": -0.6529600584,
				"element": "C" 
			},
			{
				"x": 1.498737924,
				"y": -0.4640723413,
				"z": -0.0822402069,
				"element": "C" 
			},
			{
				"x": 1.3150793775,
				"y": 0.7036461705,
				"z": -1.1008928507,
				"element": "C" 
			},
			{
				"x": 0.1407585344,
				"y": 0.5025950397,
				"z": -2.0862938974,
				"element": "C" 
			},
			{
				"x": 0.6174791904,
				"y": -0.1810767649,
				"z": -3.391611388,
				"element": "C" 
			},
			{
				"x": -0.2837672689,
				"y": -0.2642964755,
				"z": -4.376692146,
				"element": "O" 
			},
			{
				"x": 1.7474493666,
				"y": -0.5940190992,
				"z": -3.5492975359,
				"element": "O" 
			},
			{
				"x": 2.9446671662,
				"y": -0.6089416637,
				"z": 0.3662535686,
				"element": "C" 
			},
			{
				"x": 3.9634151634,
				"y": -0.8697596229,
				"z": -0.5645432212,
				"element": "C" 
			},
			{
				"x": 5.2846988513,
				"y": -1.0253122207,
				"z": -0.1463065144,
				"element": "C" 
			},
			{
				"x": 5.6138106477,
				"y": -0.9213306793,
				"z": 1.2076128918,
				"element": "C" 
			},
			{
				"x": 4.6103530236,
				"y": -0.6609431188,
				"z": 2.1407572879,
				"element": "C" 
			},
			{
				"x": 3.2873224357,
				"y": -0.5078525871,
				"z": 1.7199564952,
				"element": "C" 
			},
			{
				"x": -3.072040367,
				"y": -1.027709196,
				"z": -0.4385760974,
				"element": "H" 
			},
			{
				"x": -1.122225228,
				"y": 0.2875152397,
				"z": -0.3941762033,
				"element": "H" 
			},
			{
				"x": -1.1541874965,
				"y": -2.0688456124,
				"z": -0.1432206235,
				"element": "H" 
			},
			{
				"x": -0.7851523334,
				"y": -2.3725962434,
				"z": -1.834697372,
				"element": "H" 
			},
			{
				"x": 1.1178054092,
				"y": -2.5992962021,
				"z": 0.0656387776,
				"element": "H" 
			},
			{
				"x": 1.5119241438,
				"y": -2.0446066763,
				"z": -1.5539321737,
				"element": "H" 
			},
			{
				"x": 0.9088410948,
				"y": -0.2283540154,
				"z": 0.8147646112,
				"element": "H" 
			},
			{
				"x": 2.2266861491,
				"y": 0.8304977377,
				"z": -1.6853428848,
				"element": "H" 
			},
			{
				"x": 1.1583571165,
				"y": 1.6336835917,
				"z": -0.5432267525,
				"element": "H" 
			},
			{
				"x": -0.2518471483,
				"y": 1.4816136692,
				"z": -2.3881619194,
				"element": "H" 
			},
			{
				"x": -1.1567481873,
				"y": 0.0807457183,
				"z": -4.0770631352,
				"element": "H" 
			},
			{
				"x": 3.7180794164,
				"y": -0.9463423059,
				"z": -1.6206773215,
				"element": "H" 
			},
			{
				"x": 6.0599081999,
				"y": -1.2269486858,
				"z": -0.8803859546,
				"element": "H" 
			},
			{
				"x": 6.6440146272,
				"y": -1.040601023,
				"z": 1.5308302804,
				"element": "H" 
			},
			{
				"x": 4.8547410513,
				"y": -0.5750151186,
				"z": 3.19599361,
				"element": "H" 
			},
			{
				"x": 2.5103374734,
				"y": -0.304786999,
				"z": 2.4538683329,
				"element": "H" 
			}
		],
		 "valence_orbital": [ 
			{
				"type": "occ",
				"energy": -0.30383,
				"method": "rhf"
			},
			{
				"type": "occ",
				"energy": -0.3007,
				"method": "rhf"
			},
			{
				"type": "occ",
				"energy": -0.26523,
				"method": "rhf"
			},
			{
				"type": "occ",
				"energy": -0.24731,
				"method": "rhf"
			},
			{
				"type": "occ",
				"energy": -0.24018,
				"method": "rhf"
			},
			{
				"type": "unocc",
				"energy": -0.0265,
				"method": "rhf"
			},
			{
				"type": "unocc",
				"energy": -0.00151,
				"method": "rhf"
			},
			{
				"type": "unocc",
				"energy": 0.00138,
				"method": "rhf"
			},
			{
				"type": "unocc",
				"energy": 0.00436,
				"method": "rhf"
			},
			{
				"type": "unocc",
				"energy": 0.03176,
				"method": "rhf"
			}
		],
		"cosmo_sigma_profile": { 
			"-0.025": 0.0,
			"-0.024": 0.0,
			"-0.023": 0.0,
			"-0.022": 0.0,
			"-0.021": 0.0,
			"-0.02": 0.000467304414874,
			"-0.019": 0.795957792743,
			"-0.018": 1.03475567324,
			"-0.017": 1.25086277164,
			"-0.016": 1.63539513217,
			"-0.015": 0.795928168706,
			"-0.014": 1.28511550677,
			"-0.013": 0.859992664693,
			"-0.012": 1.21773933578,
			"-0.011": 1.01377850986,
			"-0.01": 1.50785029952,
			"-0.009": 1.97265152268,
			"-0.008": 4.14464671023,
			"-0.007": 7.99039639132,
			"-0.006": 10.7013376573,
			"-0.005": 18.9563401609,
			"-0.004": 21.5403916087,
			"-0.003": 25.3418220956,
			"-0.002": 20.65637386,
			"-0.001": 19.7998514436,
			"0.0": 17.1715645093,
			"0.001": 13.9238934512,
			"0.002": 10.4051842276,
			"0.003": 13.6003185126,
			"0.004": 11.7753860525,
			"0.005": 12.3901806109,
			"0.006": 13.1229615684,
			"0.007": 7.52894171046,
			"0.008": 5.81712985844,
			"0.009": 7.39913005406,
			"0.01": 5.94198961998,
			"0.011": 5.80102681374,
			"0.012": 4.43228596768,
			"0.013": 2.32290638694,
			"0.014": 0.791351893222,
			"0.015": 0.0,
			"0.016": 0.0,
			"0.017": 0.0,
			"0.018": 0.0,
			"0.019": 0.0,
			"0.02": 0.0,
			"0.021": 0.0,
			"0.022": 0.0,
			"0.023": 0.0,
			"0.024": 0.0,
			"0.025": 0.0
		}
	}
}
