{
	 "smiles": "CSC1=NC(=O)N(CC2=CC=CC=C2)C2=C1CCC2", 
	 "Tm": 368.15, 
	 "num_atms": 35, 
	 "gaussian": { 
		 "optdone": 1, 
		 "sigma_profile": "yes", 
		 "theory": "DFT", 
		 "functional": "B3LYP", 
		 "basiset": "6-31G**", 
		 "properties": { 
			 "R2extent": 6760.9805, 
			 "electric_dipole_moment_norm": 4.54062513427, 
			 "electric_quadrupole_moment_norm": 8.05763789147, 
			 "total_energy": -1164.17880635, 
			 "HOMO_LUMO_gap": 0.17492, 
			 "cosmo_polarized_energy": -16.07, 
			 "cosmo_cavitation_energy": 38.47, 
			 "cosmo_dispersion_energy": -27.97, 
			 "cosmo_repulsion_energy": 2.12, 
			 "cosmo_total_nonelectrostatic_energy": 12.62, 
			 "SMD_solvation_energy": 5.33 
		},
		"coords": [
			{
				"x": -4.013035095,
				"y": -2.0820920971,
				"z": 3.4403471282,
				"element": "C" 
			},
			{
				"x": -3.5020664401,
				"y": -0.3432256371,
				"z": 3.6442651359,
				"element": "S" 
			},
			{
				"x": -2.5425845236,
				"y": -0.0962999263,
				"z": 2.1737924067,
				"element": "C" 
			},
			{
				"x": -2.4044688008,
				"y": -1.0892560449,
				"z": 1.3254400589,
				"element": "N" 
			},
			{
				"x": -1.6718622194,
				"y": -0.9375876422,
				"z": 0.1693901036,
				"element": "C" 
			},
			{
				"x": -1.4716958277,
				"y": -1.8414197133,
				"z": -0.6334699642,
				"element": "O" 
			},
			{
				"x": -1.1195977085,
				"y": 0.3632521782,
				"z": -0.0961926603,
				"element": "N" 
			},
			{
				"x": -0.3949175237,
				"y": 0.5506710286,
				"z": -1.3693790401,
				"element": "C" 
			},
			{
				"x": 1.1101821043,
				"y": 0.3905127522,
				"z": -1.2565588769,
				"element": "C" 
			},
			{
				"x": 1.6672442988,
				"y": -0.832379415,
				"z": -0.8524015413,
				"element": "C" 
			},
			{
				"x": 3.0508214127,
				"y": -0.9773306054,
				"z": -0.7622456852,
				"element": "C" 
			},
			{
				"x": 3.8964725516,
				"y": 0.0889202371,
				"z": -1.0819715214,
				"element": "C" 
			},
			{
				"x": 3.3505410685,
				"y": 1.3032842442,
				"z": -1.4965706587,
				"element": "C" 
			},
			{
				"x": 1.9637149885,
				"y": 1.4512598233,
				"z": -1.5812071695,
				"element": "C" 
			},
			{
				"x": -1.2590759657,
				"y": 1.362655187,
				"z": 0.8124383606,
				"element": "C" 
			},
			{
				"x": -1.9580723633,
				"y": 1.1840765426,
				"z": 1.9771073937,
				"element": "C" 
			},
			{
				"x": -2.0119613913,
				"y": 2.454131418,
				"z": 2.7904562998,
				"element": "C" 
			},
			{
				"x": -0.9270042478,
				"y": 3.3374013248,
				"z": 2.1124689432,
				"element": "C" 
			},
			{
				"x": -0.740911037,
				"y": 2.772877846,
				"z": 0.6786654195,
				"element": "C" 
			},
			{
				"x": -4.6100454266,
				"y": -2.3234138897,
				"z": 4.3220817573,
				"element": "H" 
			},
			{
				"x": -3.13747379,
				"y": -2.7283440053,
				"z": 3.3825346405,
				"element": "H" 
			},
			{
				"x": -4.6066346034,
				"y": -2.1985095558,
				"z": 2.533834739,
				"element": "H" 
			},
			{
				"x": -0.8056248833,
				"y": -0.202721053,
				"z": -2.0439381962,
				"element": "H" 
			},
			{
				"x": -0.6421836322,
				"y": 1.5418659627,
				"z": -1.7586002687,
				"element": "H" 
			},
			{
				"x": 1.0071156653,
				"y": -1.66358742,
				"z": -0.6244385452,
				"element": "H" 
			},
			{
				"x": 3.4715339674,
				"y": -1.9286217214,
				"z": -0.4488007816,
				"element": "H" 
			},
			{
				"x": 4.9740554589,
				"y": -0.0295136852,
				"z": -1.0130071907,
				"element": "H" 
			},
			{
				"x": 3.9996979247,
				"y": 2.135506695,
				"z": -1.7538627903,
				"element": "H" 
			},
			{
				"x": 1.543013814,
				"y": 2.3981601368,
				"z": -1.9128830914,
				"element": "H" 
			},
			{
				"x": -1.8042013794,
				"y": 2.2940288737,
				"z": 3.8539923057,
				"element": "H" 
			},
			{
				"x": -3.0061286183,
				"y": 2.9186602148,
				"z": 2.7314929409,
				"element": "H" 
			},
			{
				"x": -1.1892744427,
				"y": 4.3982060766,
				"z": 2.1091407894,
				"element": "H" 
			},
			{
				"x": 0.0157584974,
				"y": 3.2352888544,
				"z": 2.6587615512,
				"element": "H" 
			},
			{
				"x": 0.2975572835,
				"y": 2.811831745,
				"z": 0.3380631748,
				"element": "H" 
			},
			{
				"x": -1.3430891157,
				"y": 3.3217112707,
				"z": -0.059445167,
				"element": "H" 
			}
		],
		 "valence_orbital": [ 
			{
				"type": "occ",
				"energy": -0.25756,
				"method": "rhf"
			},
			{
				"type": "occ",
				"energy": -0.25218,
				"method": "rhf"
			},
			{
				"type": "occ",
				"energy": -0.24576,
				"method": "rhf"
			},
			{
				"type": "occ",
				"energy": -0.23865,
				"method": "rhf"
			},
			{
				"type": "occ",
				"energy": -0.21736,
				"method": "rhf"
			},
			{
				"type": "unocc",
				"energy": -0.04244,
				"method": "rhf"
			},
			{
				"type": "unocc",
				"energy": -0.00909,
				"method": "rhf"
			},
			{
				"type": "unocc",
				"energy": -0.00492,
				"method": "rhf"
			},
			{
				"type": "unocc",
				"energy": 0.01645,
				"method": "rhf"
			},
			{
				"type": "unocc",
				"energy": 0.03268,
				"method": "rhf"
			}
		],
		"cosmo_sigma_profile": { 
			"-0.025": 0.0,
			"-0.024": 0.0,
			"-0.023": 0.0,
			"-0.022": 0.0,
			"-0.021": 0.0,
			"-0.02": 0.0,
			"-0.019": 0.0,
			"-0.018": 0.0,
			"-0.017": 0.0,
			"-0.016": 0.0,
			"-0.015": 0.0,
			"-0.014": 0.0,
			"-0.013": 0.0,
			"-0.012": 0.0,
			"-0.011": 0.0,
			"-0.01": 0.0,
			"-0.009": 0.0,
			"-0.008": 0.368475687607,
			"-0.007": 6.71646510541,
			"-0.006": 13.6138324035,
			"-0.005": 19.3841637077,
			"-0.004": 31.3741415082,
			"-0.003": 39.1320511625,
			"-0.002": 35.1376855415,
			"-0.001": 29.8304192547,
			"0.0": 22.2609888008,
			"0.001": 16.3193888857,
			"0.002": 15.3269267547,
			"0.003": 13.6114044932,
			"0.004": 14.4170107907,
			"0.005": 13.5950785233,
			"0.006": 10.4022403714,
			"0.007": 4.4708730361,
			"0.008": 2.30398785735,
			"0.009": 2.02245609697,
			"0.01": 1.62262870237,
			"0.011": 1.66348453627,
			"0.012": 2.5469986784,
			"0.013": 3.18593107395,
			"0.014": 3.37140978481,
			"0.015": 2.79303604588,
			"0.016": 1.782485133,
			"0.017": 0.192399829067,
			"0.018": 0.0,
			"0.019": 0.0,
			"0.02": 0.0,
			"0.021": 0.0,
			"0.022": 0.0,
			"0.023": 0.0,
			"0.024": 0.0,
			"0.025": 0.0
		}
	}
}
