{
	 "smiles": "OC1=CC=C(C=C1)N=C1C=CC(=O)C=C1", 
	 "Tm": 433.15, 
	 "num_atms": 24, 
	 "gaussian": { 
		 "optdone": 1, 
		 "sigma_profile": "yes", 
		 "theory": "DFT", 
		 "functional": "B3LYP", 
		 "basiset": "6-31G**", 
		 "properties": { 
			 "R2extent": 4879.3699, 
			 "electric_dipole_moment_norm": 5.25482429202, 
			 "electric_quadrupole_moment_norm": 11.4217300682, 
			 "total_energy": -667.853925609, 
			 "HOMO_LUMO_gap": 0.10631, 
			 "cosmo_polarized_energy": -15.33, 
			 "cosmo_cavitation_energy": 29.29, 
			 "cosmo_dispersion_energy": -21.46, 
			 "cosmo_repulsion_energy": 1.67, 
			 "cosmo_total_nonelectrostatic_energy": 9.49, 
			 "SMD_solvation_energy": 4.66 
		},
		"coords": [
			{
				"x": -1.4109847637,
				"y": 0.3924010804,
				"z": 5.0959420133,
				"element": "O" 
			},
			{
				"x": -0.9624626637,
				"y": 0.2648024938,
				"z": 3.8163238493,
				"element": "C" 
			},
			{
				"x": -0.7860809896,
				"y": 1.3609045231,
				"z": 2.9597219692,
				"element": "C" 
			},
			{
				"x": -0.3012640487,
				"y": 1.1654110872,
				"z": 1.6737100516,
				"element": "C" 
			},
			{
				"x": -0.0390447577,
				"y": -0.1297634498,
				"z": 1.1829086158,
				"element": "C" 
			},
			{
				"x": -0.2005301806,
				"y": -1.219970888,
				"z": 2.0683615561,
				"element": "C" 
			},
			{
				"x": -0.6472239356,
				"y": -1.0245986466,
				"z": 3.3684006843,
				"element": "C" 
			},
			{
				"x": 0.4715693661,
				"y": -0.2244652597,
				"z": -0.108064809,
				"element": "N" 
			},
			{
				"x": 0.1857055983,
				"y": -1.1787872119,
				"z": -0.9470850247,
				"element": "C" 
			},
			{
				"x": -0.8643293512,
				"y": -2.1949641882,
				"z": -0.7995711886,
				"element": "C" 
			},
			{
				"x": -1.0445075557,
				"y": -3.1505538272,
				"z": -1.7343556409,
				"element": "C" 
			},
			{
				"x": -0.1978339693,
				"y": -3.2367023647,
				"z": -2.9459957718,
				"element": "C" 
			},
			{
				"x": -0.3524274279,
				"y": -4.1295806544,
				"z": -3.7779122819,
				"element": "O" 
			},
			{
				"x": 0.8125102754,
				"y": -2.1727000631,
				"z": -3.11111006,
				"element": "C" 
			},
			{
				"x": 0.9670594314,
				"y": -1.2036259113,
				"z": -2.1867433784,
				"element": "C" 
			},
			{
				"x": -1.5731647017,
				"y": 1.3253154835,
				"z": 5.2882522652,
				"element": "H" 
			},
			{
				"x": -1.0089221821,
				"y": 2.3664229854,
				"z": 3.3102963021,
				"element": "H" 
			},
			{
				"x": -0.1369799632,
				"y": 2.0085772005,
				"z": 1.0109698435,
				"element": "H" 
			},
			{
				"x": 0.079747692,
				"y": -2.2172560924,
				"z": 1.746223809,
				"element": "H" 
			},
			{
				"x": -0.7488118695,
				"y": -1.8567012487,
				"z": 4.0571118467,
				"element": "H" 
			},
			{
				"x": -1.5250322245,
				"y": -2.1299126839,
				"z": 0.0580389749,
				"element": "H" 
			},
			{
				"x": -1.8377138142,
				"y": -3.8883061695,
				"z": -1.655614896,
				"element": "H" 
			},
			{
				"x": 1.413867231,
				"y": -2.2133456441,
				"z": -4.0140414152,
				"element": "H" 
			},
			{
				"x": 1.7055548048,
				"y": -0.4146005504,
				"z": -2.2930673147,
				"element": "H" 
			}
		],
		 "valence_orbital": [ 
			{
				"type": "occ",
				"energy": -0.28248,
				"method": "rhf"
			},
			{
				"type": "occ",
				"energy": -0.27092,
				"method": "rhf"
			},
			{
				"type": "occ",
				"energy": -0.26864,
				"method": "rhf"
			},
			{
				"type": "occ",
				"energy": -0.24652,
				"method": "rhf"
			},
			{
				"type": "occ",
				"energy": -0.21448,
				"method": "rhf"
			},
			{
				"type": "unocc",
				"energy": -0.10817,
				"method": "rhf"
			},
			{
				"type": "unocc",
				"energy": -0.01923,
				"method": "rhf"
			},
			{
				"type": "unocc",
				"energy": -0.01004,
				"method": "rhf"
			},
			{
				"type": "unocc",
				"energy": -0.00076,
				"method": "rhf"
			},
			{
				"type": "unocc",
				"energy": 0.04311,
				"method": "rhf"
			}
		],
		"cosmo_sigma_profile": { 
			"-0.025": 0.0,
			"-0.024": 0.0,
			"-0.023": 0.0,
			"-0.022": 0.0,
			"-0.021": 0.0,
			"-0.02": 0.0,
			"-0.019": 0.0507043871321,
			"-0.018": 1.04392735274,
			"-0.017": 1.07751553534,
			"-0.016": 1.05536729992,
			"-0.015": 1.23832059152,
			"-0.014": 1.3705329467,
			"-0.013": 0.56847425594,
			"-0.012": 0.867541903039,
			"-0.011": 0.893785499948,
			"-0.01": 1.32067764736,
			"-0.009": 1.11737801242,
			"-0.008": 1.67345821999,
			"-0.007": 8.86739974949,
			"-0.006": 15.195612395,
			"-0.005": 15.9730199313,
			"-0.004": 13.1514034342,
			"-0.003": 10.9567967421,
			"-0.002": 14.8145844048,
			"-0.001": 17.8375537115,
			"0.0": 19.5767289581,
			"0.001": 18.5518229589,
			"0.002": 19.6644082121,
			"0.003": 17.5609753395,
			"0.004": 11.5631763334,
			"0.005": 3.93696262429,
			"0.006": 5.07648297422,
			"0.007": 4.00575214517,
			"0.008": 3.65387789045,
			"0.009": 3.72638873698,
			"0.01": 4.20291169161,
			"0.011": 4.31600985863,
			"0.012": 5.35023331349,
			"0.013": 4.0236475813,
			"0.014": 1.18946747239,
			"0.015": 0.0,
			"0.016": 0.0,
			"0.017": 0.0,
			"0.018": 0.0,
			"0.019": 0.0,
			"0.02": 0.0,
			"0.021": 0.0,
			"0.022": 0.0,
			"0.023": 0.0,
			"0.024": 0.0,
			"0.025": 0.0
		}
	}
}
