{
	 "smiles": "NC(=O)C1=CC2=CC=CC=C2S1", 
	 "Tm": 450.15, 
	 "num_atms": 19, 
	 "gaussian": { 
		 "optdone": 1, 
		 "sigma_profile": "yes", 
		 "theory": "DFT", 
		 "functional": "B3LYP", 
		 "basiset": "6-31G**", 
		 "properties": { 
			 "R2extent": 2650.317, 
			 "electric_dipole_moment_norm": 4.1822321277, 
			 "electric_quadrupole_moment_norm": 20.9560218345, 
			 "total_energy": -875.358103963, 
			 "HOMO_LUMO_gap": 0.16872, 
			 "cosmo_polarized_energy": -14.97, 
			 "cosmo_cavitation_energy": 25.0, 
			 "cosmo_dispersion_energy": -19.2, 
			 "cosmo_repulsion_energy": 1.47, 
			 "cosmo_total_nonelectrostatic_energy": 7.27, 
			 "SMD_solvation_energy": 4.49 
		},
		"coords": [
			{
				"x": 2.6788799911,
				"y": 0.808826524,
				"z": 3.2349084325,
				"element": "N" 
			},
			{
				"x": 2.5093067125,
				"y": 1.3682373446,
				"z": 1.9911488686,
				"element": "C" 
			},
			{
				"x": 3.1926889354,
				"y": 2.3037647718,
				"z": 1.5918848044,
				"element": "O" 
			},
			{
				"x": 1.4198621968,
				"y": 0.7922974035,
				"z": 1.162078998,
				"element": "C" 
			},
			{
				"x": 0.4217968663,
				"y": -0.0806364462,
				"z": 1.4933167227,
				"element": "C" 
			},
			{
				"x": -0.4516446215,
				"y": -0.3844509615,
				"z": 0.3962147951,
				"element": "C" 
			},
			{
				"x": -1.5750274067,
				"y": -1.2342635265,
				"z": 0.3592649927,
				"element": "C" 
			},
			{
				"x": -2.2795720571,
				"y": -1.381709158,
				"z": -0.825423197,
				"element": "C" 
			},
			{
				"x": -1.8845967059,
				"y": -0.6905180755,
				"z": -1.9878565517,
				"element": "C" 
			},
			{
				"x": -0.7824189298,
				"y": 0.1556753134,
				"z": -1.9780485401,
				"element": "C" 
			},
			{
				"x": -0.0682433983,
				"y": 0.3071882583,
				"z": -0.7830611047,
				"element": "C" 
			},
			{
				"x": 1.3395994064,
				"y": 1.3141656487,
				"z": -0.5135417971,
				"element": "S" 
			},
			{
				"x": 3.4956734807,
				"y": 1.1214322693,
				"z": 3.7397848296,
				"element": "H" 
			},
			{
				"x": 2.3572911908,
				"y": -0.1281389957,
				"z": 3.420893508,
				"element": "H" 
			},
			{
				"x": 0.2795776067,
				"y": -0.4848792655,
				"z": 2.4901219618,
				"element": "H" 
			},
			{
				"x": -1.8805712525,
				"y": -1.7671322557,
				"z": 1.2554700976,
				"element": "H" 
			},
			{
				"x": -3.1454676254,
				"y": -2.0358939064,
				"z": -0.8610995912,
				"element": "H" 
			},
			{
				"x": -2.4502732965,
				"y": -0.8198033618,
				"z": -2.9058053438,
				"element": "H" 
			},
			{
				"x": -0.4832610931,
				"y": 0.6875384192,
				"z": -2.8759518854,
				"element": "H" 
			}
		],
		 "valence_orbital": [ 
			{
				"type": "occ",
				"energy": -0.2905,
				"method": "rhf"
			},
			{
				"type": "occ",
				"energy": -0.27731,
				"method": "rhf"
			},
			{
				"type": "occ",
				"energy": -0.25905,
				"method": "rhf"
			},
			{
				"type": "occ",
				"energy": -0.24036,
				"method": "rhf"
			},
			{
				"type": "occ",
				"energy": -0.22492,
				"method": "rhf"
			},
			{
				"type": "unocc",
				"energy": -0.0562,
				"method": "rhf"
			},
			{
				"type": "unocc",
				"energy": -0.00769,
				"method": "rhf"
			},
			{
				"type": "unocc",
				"energy": 0.01755,
				"method": "rhf"
			},
			{
				"type": "unocc",
				"energy": 0.02496,
				"method": "rhf"
			},
			{
				"type": "unocc",
				"energy": 0.06825,
				"method": "rhf"
			}
		],
		"cosmo_sigma_profile": { 
			"-0.025": 0.0,
			"-0.024": 0.0,
			"-0.023": 0.0,
			"-0.022": 0.0,
			"-0.021": 0.0,
			"-0.02": 0.0,
			"-0.019": 0.0,
			"-0.018": 0.0,
			"-0.017": 0.0,
			"-0.016": 0.0,
			"-0.015": 0.288204444038,
			"-0.014": 2.22391493713,
			"-0.013": 2.60380244725,
			"-0.012": 2.61537113014,
			"-0.011": 2.80916217056,
			"-0.01": 2.74828946395,
			"-0.009": 2.7376824988,
			"-0.008": 2.98247775565,
			"-0.007": 6.24175273067,
			"-0.006": 11.9701134537,
			"-0.005": 12.1172978693,
			"-0.004": 9.88883826698,
			"-0.003": 10.140197976,
			"-0.002": 8.63197696806,
			"-0.001": 9.58714895637,
			"0.0": 9.34139897088,
			"0.001": 13.5386300633,
			"0.002": 20.3825143578,
			"0.003": 19.3954142025,
			"0.004": 18.7531991066,
			"0.005": 11.2690242085,
			"0.006": 2.39939679771,
			"0.007": 2.4840130086,
			"0.008": 2.18395991311,
			"0.009": 1.69917630883,
			"0.01": 1.36244772712,
			"0.011": 1.93188591455,
			"0.012": 2.90389942757,
			"0.013": 5.60971924915,
			"0.014": 1.85343641071,
			"0.015": 0.0167595625918,
			"0.016": 0.0,
			"0.017": 0.0,
			"0.018": 0.0,
			"0.019": 0.0,
			"0.02": 0.0,
			"0.021": 0.0,
			"0.022": 0.0,
			"0.023": 0.0,
			"0.024": 0.0,
			"0.025": 0.0
		}
	}
}
