{
	 "smiles": "OC1=C(CBr)C=C(C=C1)[N+]([O-])=O", 
	 "Tm": 420.15, 
	 "num_atms": 18, 
	 "gaussian": { 
		 "optdone": 1, 
		 "sigma_profile": "yes", 
		 "theory": "DFT", 
		 "functional": "B3LYP", 
		 "basiset": "6-31G**", 
		 "properties": { 
			 "R2extent": 4072.6293, 
			 "electric_dipole_moment_norm": 5.32490869875, 
			 "electric_quadrupole_moment_norm": 19.8915193077, 
			 "total_energy": -3122.09043121, 
			 "HOMO_LUMO_gap": 0.1709, 
			 "cosmo_polarized_energy": -16.14, 
			 "cosmo_cavitation_energy": 25.64, 
			 "cosmo_dispersion_energy": -18.97, 
			 "cosmo_repulsion_energy": 1.53, 
			 "cosmo_total_nonelectrostatic_energy": 8.19, 
			 "SMD_solvation_energy": 5.86 
		},
		"coords": [
			{
				"x": 1.0695950402,
				"y": -1.8598414421,
				"z": 1.0924092915,
				"element": "O" 
			},
			{
				"x": 0.0765106623,
				"y": -0.953826416,
				"z": 0.92322644,
				"element": "C" 
			},
			{
				"x": 0.2091906284,
				"y": 0.2744698541,
				"z": 1.6090641115,
				"element": "C" 
			},
			{
				"x": 1.4001529177,
				"y": 0.5338622951,
				"z": 2.4682941145,
				"element": "C" 
			},
			{
				"x": 2.962416416,
				"y": 1.1974781804,
				"z": 1.4036982015,
				"element": "Br" 
			},
			{
				"x": -0.7964496072,
				"y": 1.2275002957,
				"z": 1.4632036457,
				"element": "C" 
			},
			{
				"x": -1.9035252755,
				"y": 0.9602821066,
				"z": 0.6598376902,
				"element": "C" 
			},
			{
				"x": -2.0377096846,
				"y": -0.2497885823,
				"z": -0.0191589802,
				"element": "C" 
			},
			{
				"x": -1.0418154381,
				"y": -1.2077811999,
				"z": 0.1177812355,
				"element": "C" 
			},
			{
				"x": -2.9524174928,
				"y": 1.9730487647,
				"z": 0.5284671877,
				"element": "N" 
			},
			{
				"x": -2.8131257078,
				"y": 3.0260190078,
				"z": 1.1518990853,
				"element": "O" 
			},
			{
				"x": -3.9127232376,
				"y": 1.7100309541,
				"z": -0.197049185,
				"element": "O" 
			},
			{
				"x": 0.8866341007,
				"y": -2.6532879299,
				"z": 0.5718205891,
				"element": "H" 
			},
			{
				"x": 1.2139904784,
				"y": 1.316524665,
				"z": 3.2002598953,
				"element": "H" 
			},
			{
				"x": 1.7708733572,
				"y": -0.3660132307,
				"z": 2.9526169288,
				"element": "H" 
			},
			{
				"x": -0.7314343016,
				"y": 2.1843441601,
				"z": 1.9676182961,
				"element": "H" 
			},
			{
				"x": -2.9114420795,
				"y": -0.422034915,
				"z": -0.6347837024,
				"element": "H" 
			},
			{
				"x": -1.1286207762,
				"y": -2.159486568,
				"z": -0.400504845,
				"element": "H" 
			}
		],
		 "valence_orbital": [ 
			{
				"type": "occ",
				"energy": -0.29037,
				"method": "rhf"
			},
			{
				"type": "occ",
				"energy": -0.28788,
				"method": "rhf"
			},
			{
				"type": "occ",
				"energy": -0.27593,
				"method": "rhf"
			},
			{
				"type": "occ",
				"energy": -0.2748,
				"method": "rhf"
			},
			{
				"type": "occ",
				"energy": -0.25819,
				"method": "rhf"
			},
			{
				"type": "unocc",
				"energy": -0.08729,
				"method": "rhf"
			},
			{
				"type": "unocc",
				"energy": -0.05451,
				"method": "rhf"
			},
			{
				"type": "unocc",
				"energy": -0.00796,
				"method": "rhf"
			},
			{
				"type": "unocc",
				"energy": 0.02292,
				"method": "rhf"
			},
			{
				"type": "unocc",
				"energy": 0.04057,
				"method": "rhf"
			}
		],
		"cosmo_sigma_profile": { 
			"-0.025": 0.0,
			"-0.024": 0.0,
			"-0.023": 0.0,
			"-0.022": 0.0,
			"-0.021": 0.0,
			"-0.02": 0.0813738700155,
			"-0.019": 1.13710070063,
			"-0.018": 1.40024874107,
			"-0.017": 1.14110744379,
			"-0.016": 1.06421508137,
			"-0.015": 1.22425500923,
			"-0.014": 1.09852454052,
			"-0.013": 0.638442672808,
			"-0.012": 0.898679568672,
			"-0.011": 1.14323186881,
			"-0.01": 1.341678296,
			"-0.009": 3.67630568771,
			"-0.008": 6.59999935561,
			"-0.007": 6.96776667001,
			"-0.006": 9.67421727726,
			"-0.005": 8.55907969662,
			"-0.004": 8.63077145821,
			"-0.003": 9.04572546294,
			"-0.002": 11.7385760045,
			"-0.001": 14.4121012917,
			"0.0": 17.8544555645,
			"0.001": 14.4031489989,
			"0.002": 10.4178942773,
			"0.003": 9.13829238171,
			"0.004": 7.78691804469,
			"0.005": 12.0125305839,
			"0.006": 14.9531661844,
			"0.007": 11.1518366252,
			"0.008": 10.7629609372,
			"0.009": 5.04774586245,
			"0.01": 3.51161320208,
			"0.011": 0.806737831018,
			"0.012": 0.0,
			"0.013": 0.0,
			"0.014": 0.0,
			"0.015": 0.0,
			"0.016": 0.0,
			"0.017": 0.0,
			"0.018": 0.0,
			"0.019": 0.0,
			"0.02": 0.0,
			"0.021": 0.0,
			"0.022": 0.0,
			"0.023": 0.0,
			"0.024": 0.0,
			"0.025": 0.0
		}
	}
}
