{
	 "smiles": "COC(=O)C1=C(Cl)C(OC)=C(OC)C=C1", 
	 "Tm": 320.15, 
	 "num_atms": 26, 
	 "gaussian": { 
		 "optdone": 1, 
		 "sigma_profile": "yes", 
		 "theory": "DFT", 
		 "functional": "B3LYP", 
		 "basiset": "6-31G**", 
		 "properties": { 
			 "R2extent": 5069.9614, 
			 "electric_dipole_moment_norm": 1.87354463518, 
			 "electric_quadrupole_moment_norm": 12.0569499074, 
			 "total_energy": -1148.74743843, 
			 "HOMO_LUMO_gap": 0.1979, 
			 "cosmo_polarized_energy": -9.71, 
			 "cosmo_cavitation_energy": 31.82, 
			 "cosmo_dispersion_energy": -22.67, 
			 "cosmo_repulsion_energy": 1.79, 
			 "cosmo_total_nonelectrostatic_energy": 10.93, 
			 "SMD_solvation_energy": 8.39 
		},
		"coords": [
			{
				"x": 4.2085241617,
				"y": 2.1562289327,
				"z": -3.1620877267,
				"element": "C" 
			},
			{
				"x": 2.9856035029,
				"y": 1.7809871482,
				"z": -2.5082130091,
				"element": "O" 
			},
			{
				"x": 2.5339067121,
				"y": 0.5503624218,
				"z": -2.8016042771,
				"element": "C" 
			},
			{
				"x": 3.1261389042,
				"y": -0.2137597506,
				"z": -3.5411579916,
				"element": "O" 
			},
			{
				"x": 1.2663912153,
				"y": 0.1740288241,
				"z": -2.0959473647,
				"element": "C" 
			},
			{
				"x": 0.3060555859,
				"y": 1.0412754196,
				"z": -1.5344581259,
				"element": "C" 
			},
			{
				"x": 0.3969075437,
				"y": 2.7845072112,
				"z": -1.6567191299,
				"element": "Cl" 
			},
			{
				"x": -0.8273055963,
				"y": 0.5269449854,
				"z": -0.88178944,
				"element": "C" 
			},
			{
				"x": -1.7472861753,
				"y": 1.3745182103,
				"z": -0.3240880306,
				"element": "O" 
			},
			{
				"x": -2.9546994456,
				"y": 1.5298109657,
				"z": -1.0857884353,
				"element": "C" 
			},
			{
				"x": -1.0014353712,
				"y": -0.8669964093,
				"z": -0.7780784735,
				"element": "C" 
			},
			{
				"x": -2.1093741045,
				"y": -1.3970662891,
				"z": -0.1725114109,
				"element": "O" 
			},
			{
				"x": -2.2168364929,
				"y": -1.1771835061,
				"z": 1.2425618628,
				"element": "C" 
			},
			{
				"x": -0.0718839253,
				"y": -1.7291700945,
				"z": -1.359243227,
				"element": "C" 
			},
			{
				"x": 1.0352219491,
				"y": -1.2086961361,
				"z": -2.0133128525,
				"element": "C" 
			},
			{
				"x": 4.4143357573,
				"y": 3.1737747913,
				"z": -2.8309211239,
				"element": "H" 
			},
			{
				"x": 5.0205216179,
				"y": 1.4844060502,
				"z": -2.8727639763,
				"element": "H" 
			},
			{
				"x": 4.0916972491,
				"y": 2.1197013262,
				"z": -4.2479093267,
				"element": "H" 
			},
			{
				"x": -2.7393579519,
				"y": 1.9687913719,
				"z": -2.0662824409,
				"element": "H" 
			},
			{
				"x": -3.4649898578,
				"y": 0.5694568339,
				"z": -1.2108779875,
				"element": "H" 
			},
			{
				"x": -3.5864836239,
				"y": 2.2125344145,
				"z": -0.5150004957,
				"element": "H" 
			},
			{
				"x": -2.2493082025,
				"y": -0.1106412151,
				"z": 1.4788467114,
				"element": "H" 
			},
			{
				"x": -1.3765421344,
				"y": -1.6471384936,
				"z": 1.767706775,
				"element": "H" 
			},
			{
				"x": -3.147839923,
				"y": -1.6562801864,
				"z": 1.5503678656,
				"element": "H" 
			},
			{
				"x": -0.2359941757,
				"y": -2.7987192495,
				"z": -1.2847452014,
				"element": "H" 
			},
			{
				"x": 1.7675327808,
				"y": -1.862577577,
				"z": -2.4723831678,
				"element": "H" 
			}
		],
		 "valence_orbital": [ 
			{
				"type": "occ",
				"energy": -0.29284,
				"method": "rhf"
			},
			{
				"type": "occ",
				"energy": -0.27999,
				"method": "rhf"
			},
			{
				"type": "occ",
				"energy": -0.27162,
				"method": "rhf"
			},
			{
				"type": "occ",
				"energy": -0.2472,
				"method": "rhf"
			},
			{
				"type": "occ",
				"energy": -0.24388,
				"method": "rhf"
			},
			{
				"type": "unocc",
				"energy": -0.04598,
				"method": "rhf"
			},
			{
				"type": "unocc",
				"energy": -0.01498,
				"method": "rhf"
			},
			{
				"type": "unocc",
				"energy": 0.02837,
				"method": "rhf"
			},
			{
				"type": "unocc",
				"energy": 0.05034,
				"method": "rhf"
			},
			{
				"type": "unocc",
				"energy": 0.08789,
				"method": "rhf"
			}
		],
		"cosmo_sigma_profile": { 
			"-0.025": 0.0,
			"-0.024": 0.0,
			"-0.023": 0.0,
			"-0.022": 0.0,
			"-0.021": 0.0,
			"-0.02": 0.0,
			"-0.019": 0.0,
			"-0.018": 0.0,
			"-0.017": 0.0,
			"-0.016": 0.0,
			"-0.015": 0.0,
			"-0.014": 0.0,
			"-0.013": 0.0,
			"-0.012": 0.0,
			"-0.011": 0.0,
			"-0.01": 0.0,
			"-0.009": 0.0,
			"-0.008": 0.211673823736,
			"-0.007": 3.21627590865,
			"-0.006": 11.3445204803,
			"-0.005": 19.0745411901,
			"-0.004": 25.8298418734,
			"-0.003": 33.4575015769,
			"-0.002": 22.7450896642,
			"-0.001": 18.9655466748,
			"0.0": 19.7866037248,
			"0.001": 18.2353417651,
			"0.002": 18.0398814778,
			"0.003": 12.5887326535,
			"0.004": 10.2169941809,
			"0.005": 9.29731935453,
			"0.006": 5.47087840231,
			"0.007": 5.59033645522,
			"0.008": 5.5863343077,
			"0.009": 3.56798852292,
			"0.01": 3.75567953446,
			"0.011": 4.83335694111,
			"0.012": 3.41176528805,
			"0.013": 0.00749953742122,
			"0.014": 0.0,
			"0.015": 0.0,
			"0.016": 0.0,
			"0.017": 0.0,
			"0.018": 0.0,
			"0.019": 0.0,
			"0.02": 0.0,
			"0.021": 0.0,
			"0.022": 0.0,
			"0.023": 0.0,
			"0.024": 0.0,
			"0.025": 0.0
		}
	}
}
