{
	 "smiles": "NS(=O)(=O)NCC1=NC=CC=C1", 
	 "Tm": 412.15, 
	 "num_atms": 21, 
	 "gaussian": { 
		 "optdone": 1, 
		 "sigma_profile": "yes", 
		 "theory": "DFT", 
		 "functional": "B3LYP", 
		 "basiset": "6-31G**", 
		 "properties": { 
			 "R2extent": 2890.0498, 
			 "electric_dipole_moment_norm": 3.77545101147, 
			 "electric_quadrupole_moment_norm": 17.7058723177, 
			 "total_energy": -946.879230652, 
			 "HOMO_LUMO_gap": 0.22836, 
			 "cosmo_polarized_energy": -18.1, 
			 "cosmo_cavitation_energy": 26.54, 
			 "cosmo_dispersion_energy": -19.87, 
			 "cosmo_repulsion_energy": 1.56, 
			 "cosmo_total_nonelectrostatic_energy": 8.23, 
			 "SMD_solvation_energy": 2.31 
		},
		"coords": [
			{
				"x": -0.7166828874,
				"y": 3.8654729388,
				"z": -0.9715195649,
				"element": "N" 
			},
			{
				"x": -1.0223999679,
				"y": 2.2044517898,
				"z": -1.0039154578,
				"element": "S" 
			},
			{
				"x": -2.385590022,
				"y": 1.8892851767,
				"z": -1.4311446354,
				"element": "O" 
			},
			{
				"x": 0.1294096233,
				"y": 1.637692583,
				"z": -1.7074225712,
				"element": "O" 
			},
			{
				"x": -1.0065715372,
				"y": 1.9289905216,
				"z": 0.6519359676,
				"element": "N" 
			},
			{
				"x": 0.3127117818,
				"y": 1.7836450893,
				"z": 1.2828572037,
				"element": "C" 
			},
			{
				"x": 0.8071619523,
				"y": 0.3456185447,
				"z": 1.2988036339,
				"element": "C" 
			},
			{
				"x": -0.1485622445,
				"y": -0.5899291108,
				"z": 1.3750239206,
				"element": "N" 
			},
			{
				"x": 0.2240903786,
				"y": -1.873975454,
				"z": 1.4300695051,
				"element": "C" 
			},
			{
				"x": 1.5562010053,
				"y": -2.2855089032,
				"z": 1.4207948223,
				"element": "C" 
			},
			{
				"x": 2.5477401161,
				"y": -1.307252174,
				"z": 1.3438065757,
				"element": "C" 
			},
			{
				"x": 2.1692775979,
				"y": 0.0320003734,
				"z": 1.280423455,
				"element": "C" 
			},
			{
				"x": -0.4178029952,
				"y": 4.1567659806,
				"z": -1.8991041332,
				"element": "H" 
			},
			{
				"x": -1.5469618302,
				"y": 4.3748863644,
				"z": -0.6778945611,
				"element": "H" 
			},
			{
				"x": -1.5685735234,
				"y": 1.0927145124,
				"z": 0.8266279172,
				"element": "H" 
			},
			{
				"x": 0.2157045997,
				"y": 2.1403691754,
				"z": 2.3164476639,
				"element": "H" 
			},
			{
				"x": 1.0264429576,
				"y": 2.4419643439,
				"z": 0.7834497568,
				"element": "H" 
			},
			{
				"x": -0.5807347849,
				"y": -2.6044921669,
				"z": 1.4833143564,
				"element": "H" 
			},
			{
				"x": 1.8051228426,
				"y": -3.3407090258,
				"z": 1.4655416962,
				"element": "H" 
			},
			{
				"x": 3.5980156164,
				"y": -1.5835196332,
				"z": 1.3231316419,
				"element": "H" 
			},
			{
				"x": 2.9120013211,
				"y": 0.8206290738,
				"z": 1.2060728074,
				"element": "H" 
			}
		],
		 "valence_orbital": [ 
			{
				"type": "occ",
				"energy": -0.29434,
				"method": "rhf"
			},
			{
				"type": "occ",
				"energy": -0.29012,
				"method": "rhf"
			},
			{
				"type": "occ",
				"energy": -0.26999,
				"method": "rhf"
			},
			{
				"type": "occ",
				"energy": -0.26557,
				"method": "rhf"
			},
			{
				"type": "occ",
				"energy": -0.26133,
				"method": "rhf"
			},
			{
				"type": "unocc",
				"energy": -0.03297,
				"method": "rhf"
			},
			{
				"type": "unocc",
				"energy": -0.01878,
				"method": "rhf"
			},
			{
				"type": "unocc",
				"energy": 0.05657,
				"method": "rhf"
			},
			{
				"type": "unocc",
				"energy": 0.08941,
				"method": "rhf"
			},
			{
				"type": "unocc",
				"energy": 0.09568,
				"method": "rhf"
			}
		],
		"cosmo_sigma_profile": { 
			"-0.025": 0.0,
			"-0.024": 0.0,
			"-0.023": 0.0,
			"-0.022": 0.0,
			"-0.021": 0.0,
			"-0.02": 0.0,
			"-0.019": 0.0,
			"-0.018": 0.0,
			"-0.017": 0.0,
			"-0.016": 0.0516258146772,
			"-0.015": 2.03925393247,
			"-0.014": 2.96206496518,
			"-0.013": 2.33111217433,
			"-0.012": 2.72160438243,
			"-0.011": 2.25307136301,
			"-0.01": 1.98776213347,
			"-0.009": 2.24761198054,
			"-0.008": 2.38503064767,
			"-0.007": 11.3793572875,
			"-0.006": 15.7000786484,
			"-0.005": 15.2487289374,
			"-0.004": 11.8901972119,
			"-0.003": 10.7418781607,
			"-0.002": 8.86279808274,
			"-0.001": 9.24870423658,
			"0.0": 9.98175129083,
			"0.001": 10.3090248826,
			"0.002": 14.4076685295,
			"0.003": 13.8771110547,
			"0.004": 7.29256621122,
			"0.005": 6.04468926441,
			"0.006": 5.79989951792,
			"0.007": 4.84064510465,
			"0.008": 6.46122432257,
			"0.009": 4.92681143157,
			"0.01": 9.02300048418,
			"0.011": 11.8444919547,
			"0.012": 4.12230987426,
			"0.013": 0.0,
			"0.014": 0.0,
			"0.015": 0.0,
			"0.016": 0.0,
			"0.017": 0.0,
			"0.018": 0.0,
			"0.019": 0.0,
			"0.02": 0.0,
			"0.021": 0.0,
			"0.022": 0.0,
			"0.023": 0.0,
			"0.024": 0.0,
			"0.025": 0.0
		}
	}
}
