{
	 "smiles": "OCCOC1=C(O)C=CC=C1", 
	 "Tm": 372.65, 
	 "num_atms": 21, 
	 "gaussian": { 
		 "optdone": 1, 
		 "sigma_profile": "yes", 
		 "theory": "DFT", 
		 "functional": "B3LYP", 
		 "basiset": "6-31G**", 
		 "properties": { 
			 "R2extent": 2291.0013, 
			 "electric_dipole_moment_norm": 1.9082460769, 
			 "electric_quadrupole_moment_norm": 6.81843708191, 
			 "total_energy": -536.523778025, 
			 "HOMO_LUMO_gap": 0.21273, 
			 "cosmo_polarized_energy": -10.9, 
			 "cosmo_cavitation_energy": 24.35, 
			 "cosmo_dispersion_energy": -18.08, 
			 "cosmo_repulsion_energy": 1.47, 
			 "cosmo_total_nonelectrostatic_energy": 7.75, 
			 "SMD_solvation_energy": 4.74 
		},
		"coords": [
			{
				"x": 2.7148095739,
				"y": 1.4627693886,
				"z": -0.9351444873,
				"element": "O" 
			},
			{
				"x": 1.9759876945,
				"y": 1.1583666307,
				"z": 0.2328483778,
				"element": "C" 
			},
			{
				"x": 1.7855304812,
				"y": -0.3463198404,
				"z": 0.3953773424,
				"element": "C" 
			},
			{
				"x": 1.095202332,
				"y": -0.8988552932,
				"z": -0.7334885318,
				"element": "O" 
			},
			{
				"x": -0.2853791818,
				"y": -0.9685067491,
				"z": -0.7343951939,
				"element": "C" 
			},
			{
				"x": -0.8018286658,
				"y": -1.7370595748,
				"z": -1.7980950025,
				"element": "C" 
			},
			{
				"x": 0.0435690548,
				"y": -2.326185028,
				"z": -2.6891042218,
				"element": "O" 
			},
			{
				"x": -2.1780164973,
				"y": -1.8937175783,
				"z": -1.9326847521,
				"element": "C" 
			},
			{
				"x": -3.0423214981,
				"y": -1.2947791051,
				"z": -1.0115679631,
				"element": "C" 
			},
			{
				"x": -2.5313199666,
				"y": -0.5411248696,
				"z": 0.0421922922,
				"element": "C" 
			},
			{
				"x": -1.1474981946,
				"y": -0.3733496122,
				"z": 0.1828451666,
				"element": "C" 
			},
			{
				"x": 2.2400853213,
				"y": 1.0581782385,
				"z": -1.6743602678,
				"element": "H" 
			},
			{
				"x": 2.5528214997,
				"y": 1.5386282068,
				"z": 1.0832590162,
				"element": "H" 
			},
			{
				"x": 1.00028451,
				"y": 1.667843852,
				"z": 0.2376006059,
				"element": "H" 
			},
			{
				"x": 1.2643852627,
				"y": -0.5985600246,
				"z": 1.3265336456,
				"element": "H" 
			},
			{
				"x": 2.7633982659,
				"y": -0.8360658814,
				"z": 0.3961882627,
				"element": "H" 
			},
			{
				"x": 0.9457965061,
				"y": -2.1390093887,
				"z": -2.387299706,
				"element": "H" 
			},
			{
				"x": -2.5513456061,
				"y": -2.491604399,
				"z": -2.757669897,
				"element": "H" 
			},
			{
				"x": -4.1147444617,
				"y": -1.4219124357,
				"z": -1.1225858914,
				"element": "H" 
			},
			{
				"x": -3.1990461519,
				"y": -0.0739234612,
				"z": 0.7591039026,
				"element": "H" 
			},
			{
				"x": -0.7598702782,
				"y": 0.2234869246,
				"z": 1.0004473027,
				"element": "H" 
			}
		],
		 "valence_orbital": [ 
			{
				"type": "occ",
				"energy": -0.33237,
				"method": "rhf"
			},
			{
				"type": "occ",
				"energy": -0.32327,
				"method": "rhf"
			},
			{
				"type": "occ",
				"energy": -0.27622,
				"method": "rhf"
			},
			{
				"type": "occ",
				"energy": -0.24023,
				"method": "rhf"
			},
			{
				"type": "occ",
				"energy": -0.21002,
				"method": "rhf"
			},
			{
				"type": "unocc",
				"energy": 0.00271,
				"method": "rhf"
			},
			{
				"type": "unocc",
				"energy": 0.01468,
				"method": "rhf"
			},
			{
				"type": "unocc",
				"energy": 0.06123,
				"method": "rhf"
			},
			{
				"type": "unocc",
				"energy": 0.08573,
				"method": "rhf"
			},
			{
				"type": "unocc",
				"energy": 0.1082,
				"method": "rhf"
			}
		],
		"cosmo_sigma_profile": { 
			"-0.025": 0.0,
			"-0.024": 0.0,
			"-0.023": 0.0,
			"-0.022": 0.0,
			"-0.021": 0.0,
			"-0.02": 0.0,
			"-0.019": 0.0,
			"-0.018": 0.0,
			"-0.017": 0.0,
			"-0.016": 0.0,
			"-0.015": 0.0,
			"-0.014": 1.02321943236,
			"-0.013": 1.26153496547,
			"-0.012": 0.432740215133,
			"-0.011": 1.18921557433,
			"-0.01": 1.76307925069,
			"-0.009": 1.23475799222,
			"-0.008": 2.61543472911,
			"-0.007": 4.87803672452,
			"-0.006": 11.5307689775,
			"-0.005": 17.2595703819,
			"-0.004": 17.0961995917,
			"-0.003": 17.210129428,
			"-0.002": 11.6090530573,
			"-0.001": 10.5337654118,
			"0.0": 9.36944926372,
			"0.001": 10.5557581359,
			"0.002": 9.67462588974,
			"0.003": 9.89550200464,
			"0.004": 10.912927061,
			"0.005": 10.5487421414,
			"0.006": 9.59975727724,
			"0.007": 4.54698180425,
			"0.008": 1.66366641854,
			"0.009": 2.54657921991,
			"0.01": 3.54754673692,
			"0.011": 2.84791315113,
			"0.012": 2.68052159526,
			"0.013": 1.89930031769,
			"0.014": 2.31914082786,
			"0.015": 0.284291790685,
			"0.016": 0.0,
			"0.017": 0.0,
			"0.018": 0.0,
			"0.019": 0.0,
			"0.02": 0.0,
			"0.021": 0.0,
			"0.022": 0.0,
			"0.023": 0.0,
			"0.024": 0.0,
			"0.025": 0.0
		}
	}
}
