{
	 "smiles": "OC(=O)C1=C(Br)N(N=C1)C1=CC=CC=C1", 
	 "Tm": 488.15, 
	 "num_atms": 22, 
	 "gaussian": { 
		 "optdone": 1, 
		 "sigma_profile": "yes", 
		 "theory": "DFT", 
		 "functional": "B3LYP", 
		 "basiset": "6-31G**", 
		 "properties": { 
			 "R2extent": 4691.7222, 
			 "electric_dipole_moment_norm": 6.49875646182, 
			 "electric_quadrupole_moment_norm": 17.7964904796, 
			 "total_energy": -3216.6138895, 
			 "HOMO_LUMO_gap": 0.20653, 
			 "cosmo_polarized_energy": -14.62, 
			 "cosmo_cavitation_energy": 29.32, 
			 "cosmo_dispersion_energy": -21.72, 
			 "cosmo_repulsion_energy": 1.68, 
			 "cosmo_total_nonelectrostatic_energy": 9.28, 
			 "SMD_solvation_energy": 4.66 
		},
		"coords": [
			{
				"x": -4.1404623997,
				"y": -1.5395377071,
				"z": -0.926281979,
				"element": "O" 
			},
			{
				"x": -3.6666254975,
				"y": -1.3100046183,
				"z": 0.3202877683,
				"element": "C" 
			},
			{
				"x": -4.3027085108,
				"y": -1.6583379405,
				"z": 1.2892577398,
				"element": "O" 
			},
			{
				"x": -2.3581912555,
				"y": -0.6273448742,
				"z": 0.4627380981,
				"element": "C" 
			},
			{
				"x": -1.4236894345,
				"y": -0.1344723155,
				"z": -0.441979138,
				"element": "C" 
			},
			{
				"x": -1.5132165153,
				"y": -0.0729788229,
				"z": -2.3235821841,
				"element": "Br" 
			},
			{
				"x": -0.3900497772,
				"y": 0.4005155907,
				"z": 0.2661473357,
				"element": "N" 
			},
			{
				"x": -0.6141895722,
				"y": 0.2911902885,
				"z": 1.6099256743,
				"element": "N" 
			},
			{
				"x": -1.780387042,
				"y": -0.3228785942,
				"z": 1.7204628158,
				"element": "C" 
			},
			{
				"x": 0.800287035,
				"y": 1.050186903,
				"z": -0.1866726337,
				"element": "C" 
			},
			{
				"x": 1.617143631,
				"y": 0.4523131141,
				"z": -1.149106112,
				"element": "C" 
			},
			{
				"x": 2.7780587729,
				"y": 1.1083275002,
				"z": -1.559289811,
				"element": "C" 
			},
			{
				"x": 3.1287571995,
				"y": 2.3375122549,
				"z": -0.9988793097,
				"element": "C" 
			},
			{
				"x": 2.3154457952,
				"y": 2.9143757346,
				"z": -0.0204742387,
				"element": "C" 
			},
			{
				"x": 1.1463216545,
				"y": 2.2758455299,
				"z": 0.3881061987,
				"element": "C" 
			},
			{
				"x": -3.5352397606,
				"y": -1.1993813676,
				"z": -1.6047400149,
				"element": "H" 
			},
			{
				"x": -2.2008512531,
				"y": -0.5482098572,
				"z": 2.6901942006,
				"element": "H" 
			},
			{
				"x": 1.3588443071,
				"y": -0.517553786,
				"z": -1.5584037029,
				"element": "H" 
			},
			{
				"x": 3.4154318908,
				"y": 0.6472038217,
				"z": -2.3074315213,
				"element": "H" 
			},
			{
				"x": 4.0365047069,
				"y": 2.8407266257,
				"z": -1.3175472171,
				"element": "H" 
			},
			{
				"x": 2.5881473768,
				"y": 3.8665207665,
				"z": 0.4241150879,
				"element": "H" 
			},
			{
				"x": 0.5044686484,
				"y": 2.7050817537,
				"z": 1.1487529432,
				"element": "H" 
			}
		],
		 "valence_orbital": [ 
			{
				"type": "occ",
				"energy": -0.29952,
				"method": "rhf"
			},
			{
				"type": "occ",
				"energy": -0.27412,
				"method": "rhf"
			},
			{
				"type": "occ",
				"energy": -0.27374,
				"method": "rhf"
			},
			{
				"type": "occ",
				"energy": -0.268,
				"method": "rhf"
			},
			{
				"type": "occ",
				"energy": -0.25685,
				"method": "rhf"
			},
			{
				"type": "unocc",
				"energy": -0.05032,
				"method": "rhf"
			},
			{
				"type": "unocc",
				"energy": -0.03043,
				"method": "rhf"
			},
			{
				"type": "unocc",
				"energy": -0.02395,
				"method": "rhf"
			},
			{
				"type": "unocc",
				"energy": -0.01897,
				"method": "rhf"
			},
			{
				"type": "unocc",
				"energy": 0.00529,
				"method": "rhf"
			}
		],
		"cosmo_sigma_profile": { 
			"-0.025": 0.0,
			"-0.024": 0.0,
			"-0.023": 0.0,
			"-0.022": 0.0,
			"-0.021": 0.0,
			"-0.02": 0.0,
			"-0.019": 0.0,
			"-0.018": 0.0,
			"-0.017": 0.0,
			"-0.016": 0.0,
			"-0.015": 0.0,
			"-0.014": 0.0,
			"-0.013": 0.0,
			"-0.012": 0.609969038566,
			"-0.011": 1.34765320814,
			"-0.01": 2.28608080655,
			"-0.009": 2.4275179516,
			"-0.008": 3.12645464604,
			"-0.007": 10.7797715639,
			"-0.006": 15.6084070633,
			"-0.005": 17.0865460358,
			"-0.004": 16.5650978843,
			"-0.003": 16.7116873202,
			"-0.002": 16.8027914115,
			"-0.001": 17.0006959469,
			"0.0": 19.1008382427,
			"0.001": 17.8783881009,
			"0.002": 13.6748304213,
			"0.003": 15.5303565188,
			"0.004": 13.021001393,
			"0.005": 4.20849618746,
			"0.006": 3.41149269265,
			"0.007": 3.71942052671,
			"0.008": 4.74958371448,
			"0.009": 3.64928725768,
			"0.01": 5.71342817883,
			"0.011": 6.46719150618,
			"0.012": 5.70867277187,
			"0.013": 2.30876103776,
			"0.014": 0.245823402859,
			"0.015": 0.0,
			"0.016": 0.0,
			"0.017": 0.0,
			"0.018": 0.0,
			"0.019": 0.0,
			"0.02": 0.0,
			"0.021": 0.0,
			"0.022": 0.0,
			"0.023": 0.0,
			"0.024": 0.0,
			"0.025": 0.0
		}
	}
}
