{
	 "smiles": "CC1(C)[C@H]2CC[C@H](O2)[C@@H](Cl)C1O", 
	 "Tm": 344.65, 
	 "num_atms": 27, 
	 "gaussian": { 
		 "optdone": 1, 
		 "sigma_profile": "yes", 
		 "theory": "DFT", 
		 "functional": "B3LYP", 
		 "basiset": "6-31G**", 
		 "properties": { 
			 "R2extent": 2456.1141, 
			 "electric_dipole_moment_norm": 1.61365527297, 
			 "electric_quadrupole_moment_norm": 4.9181531066, 
			 "total_energy": -962.624679083, 
			 "HOMO_LUMO_gap": 0.2649, 
			 "cosmo_polarized_energy": -7.43, 
			 "cosmo_cavitation_energy": 26.71, 
			 "cosmo_dispersion_energy": -20.39, 
			 "cosmo_repulsion_energy": 1.57, 
			 "cosmo_total_nonelectrostatic_energy": 7.9, 
			 "SMD_solvation_energy": 3.5 
		},
		"coords": [
			{
				"x": -0.115767205,
				"y": -1.3502722831,
				"z": 0.8974369695,
				"element": "C" 
			},
			{
				"x": -0.4473088092,
				"y": 0.11804822,
				"z": 0.5770773986,
				"element": "C" 
			},
			{
				"x": -0.4612641272,
				"y": 0.9075495578,
				"z": 1.902629733,
				"element": "C" 
			},
			{
				"x": 0.5804535757,
				"y": 0.8011118001,
				"z": -0.3892466791,
				"element": "C" 
			},
			{
				"x": 1.245356577,
				"y": -0.0794427496,
				"z": -1.4852119924,
				"element": "C" 
			},
			{
				"x": 0.4634253943,
				"y": 0.2825034266,
				"z": -2.7710876566,
				"element": "C" 
			},
			{
				"x": -0.7282807394,
				"y": 1.0694698634,
				"z": -2.2094933493,
				"element": "C" 
			},
			{
				"x": -0.1324251379,
				"y": 1.811485468,
				"z": -1.1388266603,
				"element": "O" 
			},
			{
				"x": -1.9021790605,
				"y": 0.2298120286,
				"z": -1.6049874548,
				"element": "C" 
			},
			{
				"x": -1.9712971709,
				"y": -1.5178070368,
				"z": -2.2047828873,
				"element": "Cl" 
			},
			{
				"x": -1.8691853883,
				"y": 0.2817779392,
				"z": -0.0608308475,
				"element": "C" 
			},
			{
				"x": -2.8550998298,
				"y": -0.5358302119,
				"z": 0.5325953039,
				"element": "O" 
			},
			{
				"x": -0.7854922123,
				"y": -1.717999774,
				"z": 1.6800811768,
				"element": "H" 
			},
			{
				"x": 0.9096026884,
				"y": -1.439306712,
				"z": 1.2734343473,
				"element": "H" 
			},
			{
				"x": -0.215265107,
				"y": -2.0131147347,
				"z": 0.034578985,
				"element": "H" 
			},
			{
				"x": -1.293873588,
				"y": 0.5808751144,
				"z": 2.5333638405,
				"element": "H" 
			},
			{
				"x": 0.4703830699,
				"y": 0.755276241,
				"z": 2.459461383,
				"element": "H" 
			},
			{
				"x": -0.5725617506,
				"y": 1.9812228244,
				"z": 1.7159544136,
				"element": "H" 
			},
			{
				"x": 1.3324383228,
				"y": 1.3295819085,
				"z": 0.2034113061,
				"element": "H" 
			},
			{
				"x": 2.3035967128,
				"y": 0.1764383803,
				"z": -1.5822783718,
				"element": "H" 
			},
			{
				"x": 1.1896760685,
				"y": -1.1449996244,
				"z": -1.2624153729,
				"element": "H" 
			},
			{
				"x": 1.0453335331,
				"y": 0.96163884,
				"z": -3.4000932421,
				"element": "H" 
			},
			{
				"x": 0.1825614662,
				"y": -0.5830665114,
				"z": -3.3704067074,
				"element": "H" 
			},
			{
				"x": -1.1337233192,
				"y": 1.794816119,
				"z": -2.9190471138,
				"element": "H" 
			},
			{
				"x": -2.8649457551,
				"y": 0.6178230482,
				"z": -1.9375955897,
				"element": "H" 
			},
			{
				"x": -2.1848645091,
				"y": 1.3063413496,
				"z": 0.1593661264,
				"element": "H" 
			},
			{
				"x": -2.744993699,
				"y": -1.4315324912,
				"z": 0.1815129413,
				"element": "H" 
			}
		],
		 "valence_orbital": [ 
			{
				"type": "occ",
				"energy": -0.31431,
				"method": "rhf"
			},
			{
				"type": "occ",
				"energy": -0.30896,
				"method": "rhf"
			},
			{
				"type": "occ",
				"energy": -0.30067,
				"method": "rhf"
			},
			{
				"type": "occ",
				"energy": -0.26615,
				"method": "rhf"
			},
			{
				"type": "occ",
				"energy": -0.25579,
				"method": "rhf"
			},
			{
				"type": "unocc",
				"energy": 0.00911,
				"method": "rhf"
			},
			{
				"type": "unocc",
				"energy": 0.06506,
				"method": "rhf"
			},
			{
				"type": "unocc",
				"energy": 0.08861,
				"method": "rhf"
			},
			{
				"type": "unocc",
				"energy": 0.10481,
				"method": "rhf"
			},
			{
				"type": "unocc",
				"energy": 0.11328,
				"method": "rhf"
			}
		],
		"cosmo_sigma_profile": { 
			"-0.025": 0.0,
			"-0.024": 0.0,
			"-0.023": 0.0,
			"-0.022": 0.0,
			"-0.021": 0.0,
			"-0.02": 0.0,
			"-0.019": 0.0,
			"-0.018": 0.0,
			"-0.017": 0.0,
			"-0.016": 0.0,
			"-0.015": 0.0,
			"-0.014": 0.0,
			"-0.013": 0.081373365074,
			"-0.012": 0.411333617634,
			"-0.011": 0.383753861945,
			"-0.01": 0.397243334313,
			"-0.009": 0.682223340951,
			"-0.008": 1.0878514507,
			"-0.007": 5.41444802151,
			"-0.006": 6.69138204743,
			"-0.005": 5.8738117762,
			"-0.004": 12.1905725771,
			"-0.003": 25.0505372267,
			"-0.002": 25.7228155702,
			"-0.001": 24.5539399946,
			"0.0": 25.1853573761,
			"0.001": 19.9625137052,
			"0.002": 10.2916145935,
			"0.003": 9.61163503454,
			"0.004": 6.71954262312,
			"0.005": 4.858676553,
			"0.006": 5.6784464005,
			"0.007": 2.407265534,
			"0.008": 2.18758435557,
			"0.009": 1.70870610827,
			"0.01": 2.05250598327,
			"0.011": 2.36732273191,
			"0.012": 2.3604699681,
			"0.013": 3.27864365945,
			"0.014": 1.05711341615,
			"0.015": 0.0,
			"0.016": 0.0,
			"0.017": 0.0,
			"0.018": 0.0,
			"0.019": 0.0,
			"0.02": 0.0,
			"0.021": 0.0,
			"0.022": 0.0,
			"0.023": 0.0,
			"0.024": 0.0,
			"0.025": 0.0
		}
	}
}
