{
	 "smiles": "COC(=O)CCCC1=NN=C(N)S1", 
	 "Tm": 423.15, 
	 "num_atms": 24, 
	 "gaussian": { 
		 "optdone": 1, 
		 "sigma_profile": "yes", 
		 "theory": "DFT", 
		 "functional": "B3LYP", 
		 "basiset": "6-31G**", 
		 "properties": { 
			 "R2extent": 4473.5763, 
			 "electric_dipole_moment_norm": 2.54532498907, 
			 "electric_quadrupole_moment_norm": 19.0482700354, 
			 "total_energy": -986.252662183, 
			 "HOMO_LUMO_gap": 0.21374, 
			 "cosmo_polarized_energy": -16.83, 
			 "cosmo_cavitation_energy": 29.92, 
			 "cosmo_dispersion_energy": -22.18, 
			 "cosmo_repulsion_energy": 1.77, 
			 "cosmo_total_nonelectrostatic_energy": 9.51, 
			 "SMD_solvation_energy": 4.42 
		},
		"coords": [
			{
				"x": 2.0195598609,
				"y": 3.5644178117,
				"z": -1.8789397273,
				"element": "C" 
			},
			{
				"x": 2.1088014853,
				"y": 2.1955429735,
				"z": -1.4533694768,
				"element": "O" 
			},
			{
				"x": 1.161249586,
				"y": 1.7973293944,
				"z": -0.5749642165,
				"element": "C" 
			},
			{
				"x": 0.288894798,
				"y": 2.5355952118,
				"z": -0.1627980315,
				"element": "O" 
			},
			{
				"x": 1.3549873915,
				"y": 0.344139101,
				"z": -0.1941939559,
				"element": "C" 
			},
			{
				"x": 0.3212868371,
				"y": -0.1756892745,
				"z": 0.810154184,
				"element": "C" 
			},
			{
				"x": -1.1202449461,
				"y": -0.255471544,
				"z": 0.2785936947,
				"element": "C" 
			},
			{
				"x": -1.3222863191,
				"y": -1.2918301401,
				"z": -0.7913136099,
				"element": "C" 
			},
			{
				"x": -0.4252972868,
				"y": -2.126844308,
				"z": -1.2097221508,
				"element": "N" 
			},
			{
				"x": -0.8496707259,
				"y": -2.9765250667,
				"z": -2.2006284331,
				"element": "N" 
			},
			{
				"x": -2.0998896763,
				"y": -2.7847384176,
				"z": -2.5199829244,
				"element": "C" 
			},
			{
				"x": -2.7781372193,
				"y": -3.5670512668,
				"z": -3.4256561918,
				"element": "N" 
			},
			{
				"x": -2.8877193742,
				"y": -1.4957971228,
				"z": -1.6126143389,
				"element": "S" 
			},
			{
				"x": 2.8479169037,
				"y": 3.7124164443,
				"z": -2.5718320543,
				"element": "H" 
			},
			{
				"x": 1.0652152621,
				"y": 3.7527395216,
				"z": -2.3775663743,
				"element": "H" 
			},
			{
				"x": 2.1083372,
				"y": 4.2416133615,
				"z": -1.0255581714,
				"element": "H" 
			},
			{
				"x": 1.3526549904,
				"y": -0.2629100584,
				"z": -1.1050368231,
				"element": "H" 
			},
			{
				"x": 2.3666517618,
				"y": 0.2495414149,
				"z": 0.219058441,
				"element": "H" 
			},
			{
				"x": 0.3129299061,
				"y": 0.4799890484,
				"z": 1.6868851609,
				"element": "H" 
			},
			{
				"x": 0.6361338436,
				"y": -1.1686828908,
				"z": 1.1440147417,
				"element": "H" 
			},
			{
				"x": -1.7948023023,
				"y": -0.4852299405,
				"z": 1.1139261814,
				"element": "H" 
			},
			{
				"x": -1.4255062531,
				"y": 0.7280525042,
				"z": -0.0946057494,
				"element": "H" 
			},
			{
				"x": -3.4855297037,
				"y": -3.1083413554,
				"z": -3.9819681349,
				"element": "H" 
			},
			{
				"x": -2.1572360197,
				"y": -4.1584654018,
				"z": -3.9642820394,
				"element": "H" 
			}
		],
		 "valence_orbital": [ 
			{
				"type": "occ",
				"energy": -0.29375,
				"method": "rhf"
			},
			{
				"type": "occ",
				"energy": -0.28347,
				"method": "rhf"
			},
			{
				"type": "occ",
				"energy": -0.26833,
				"method": "rhf"
			},
			{
				"type": "occ",
				"energy": -0.25554,
				"method": "rhf"
			},
			{
				"type": "occ",
				"energy": -0.22949,
				"method": "rhf"
			},
			{
				"type": "unocc",
				"energy": -0.01575,
				"method": "rhf"
			},
			{
				"type": "unocc",
				"energy": 0.00011,
				"method": "rhf"
			},
			{
				"type": "unocc",
				"energy": 0.01576,
				"method": "rhf"
			},
			{
				"type": "unocc",
				"energy": 0.04908,
				"method": "rhf"
			},
			{
				"type": "unocc",
				"energy": 0.06669,
				"method": "rhf"
			}
		],
		"cosmo_sigma_profile": { 
			"-0.025": 0.0,
			"-0.024": 0.0,
			"-0.023": 0.0,
			"-0.022": 0.0,
			"-0.021": 0.0,
			"-0.02": 0.0,
			"-0.019": 0.0,
			"-0.018": 0.0,
			"-0.017": 0.0,
			"-0.016": 0.0,
			"-0.015": 0.663534227654,
			"-0.014": 2.37869993207,
			"-0.013": 3.39970761124,
			"-0.012": 2.14041324829,
			"-0.011": 2.83359973573,
			"-0.01": 2.26150530028,
			"-0.009": 1.9776025547,
			"-0.008": 1.54717152777,
			"-0.007": 2.25516578894,
			"-0.006": 8.17135134489,
			"-0.005": 16.5612172827,
			"-0.004": 21.0175942885,
			"-0.003": 27.3481253723,
			"-0.002": 19.7173733151,
			"-0.001": 16.6024378781,
			"0.0": 16.2245226654,
			"0.001": 13.3591006191,
			"0.002": 11.5524435795,
			"0.003": 10.0857193398,
			"0.004": 7.63172842038,
			"0.005": 6.09354989244,
			"0.006": 5.4942786783,
			"0.007": 5.49271843465,
			"0.008": 4.7521723411,
			"0.009": 6.19562327624,
			"0.01": 4.00899715918,
			"0.011": 5.03953297052,
			"0.012": 7.00092673683,
			"0.013": 2.86389054927,
			"0.014": 2.25942468778,
			"0.015": 1.02048935441,
			"0.016": 0.43281468561,
			"0.017": 0.0,
			"0.018": 0.0,
			"0.019": 0.0,
			"0.02": 0.0,
			"0.021": 0.0,
			"0.022": 0.0,
			"0.023": 0.0,
			"0.024": 0.0,
			"0.025": 0.0
		}
	}
}
