{
	 "smiles": "CC1=C(C)C(O)=NC(=N1)C1=NC=CC=C1", 
	 "Tm": 419.15, 
	 "num_atms": 26, 
	 "gaussian": { 
		 "optdone": 1, 
		 "sigma_profile": "yes", 
		 "theory": "DFT", 
		 "functional": "B3LYP", 
		 "basiset": "6-31G**", 
		 "properties": { 
			 "R2extent": 3927.6989, 
			 "electric_dipole_moment_norm": 1.87192812095, 
			 "electric_quadrupole_moment_norm": 12.5068580395, 
			 "total_energy": -665.299493881, 
			 "HOMO_LUMO_gap": 0.18182, 
			 "cosmo_polarized_energy": -14.52, 
			 "cosmo_cavitation_energy": 30.27, 
			 "cosmo_dispersion_energy": -22.37, 
			 "cosmo_repulsion_energy": 1.75, 
			 "cosmo_total_nonelectrostatic_energy": 9.64, 
			 "SMD_solvation_energy": 2.37 
		},
		"coords": [
			{
				"x": -3.0178722351,
				"y": 1.6630299652,
				"z": -1.6962374631,
				"element": "C" 
			},
			{
				"x": -1.6003724749,
				"y": 1.1529355054,
				"z": -1.6727242142,
				"element": "C" 
			},
			{
				"x": -0.8980230722,
				"y": 0.9158448571,
				"z": -2.8630445742,
				"element": "C" 
			},
			{
				"x": -1.4851454948,
				"y": 1.144789698,
				"z": -4.2301240833,
				"element": "C" 
			},
			{
				"x": 0.4109943744,
				"y": 0.4425559504,
				"z": -2.6780859123,
				"element": "C" 
			},
			{
				"x": 1.1780633374,
				"y": 0.1806380769,
				"z": -3.7595619424,
				"element": "O" 
			},
			{
				"x": 0.9575112586,
				"y": 0.2304795362,
				"z": -1.486127691,
				"element": "N" 
			},
			{
				"x": 0.1910860639,
				"y": 0.4921868547,
				"z": -0.4121813725,
				"element": "C" 
			},
			{
				"x": -1.0628800798,
				"y": 0.9437896636,
				"z": -0.4578169404,
				"element": "N" 
			},
			{
				"x": 0.8135889231,
				"y": 0.250833584,
				"z": 0.9265281037,
				"element": "C" 
			},
			{
				"x": 0.0640006876,
				"y": 0.5056429042,
				"z": 2.0114597674,
				"element": "N" 
			},
			{
				"x": 0.6095051092,
				"y": 0.2937744195,
				"z": 3.2103370697,
				"element": "C" 
			},
			{
				"x": 1.9112587758,
				"y": -0.1763182545,
				"z": 3.4024660569,
				"element": "C" 
			},
			{
				"x": 2.685246427,
				"y": -0.4392629019,
				"z": 2.2733801001,
				"element": "C" 
			},
			{
				"x": 2.1315576476,
				"y": -0.2236700476,
				"z": 1.0146084263,
				"element": "C" 
			},
			{
				"x": -3.6792852566,
				"y": 0.9728284063,
				"z": -2.233158501,
				"element": "H" 
			},
			{
				"x": -3.3773094547,
				"y": 1.777858871,
				"z": -0.6734570389,
				"element": "H" 
			},
			{
				"x": -3.0834502837,
				"y": 2.6296022607,
				"z": -2.2096532724,
				"element": "H" 
			},
			{
				"x": -0.764889794,
				"y": 0.8978600084,
				"z": -5.0107033106,
				"element": "H" 
			},
			{
				"x": -2.3807075638,
				"y": 0.5318960937,
				"z": -4.3869807876,
				"element": "H" 
			},
			{
				"x": -1.7874218845,
				"y": 2.1902175069,
				"z": -4.3640338456,
				"element": "H" 
			},
			{
				"x": 2.0291754111,
				"y": -0.1299989457,
				"z": -3.4118281196,
				"element": "H" 
			},
			{
				"x": -0.0262964574,
				"y": 0.5107103905,
				"z": 4.0677613556,
				"element": "H" 
			},
			{
				"x": 2.2994053094,
				"y": -0.3290586043,
				"z": 4.4047260631,
				"element": "H" 
			},
			{
				"x": 3.7032278925,
				"y": -0.8061368513,
				"z": 2.3702284146,
				"element": "H" 
			},
			{
				"x": 2.6902328339,
				"y": -0.4122289474,
				"z": 0.1064237116,
				"element": "H" 
			}
		],
		 "valence_orbital": [ 
			{
				"type": "occ",
				"energy": -0.28346,
				"method": "rhf"
			},
			{
				"type": "occ",
				"energy": -0.26587,
				"method": "rhf"
			},
			{
				"type": "occ",
				"energy": -0.25493,
				"method": "rhf"
			},
			{
				"type": "occ",
				"energy": -0.23582,
				"method": "rhf"
			},
			{
				"type": "occ",
				"energy": -0.23311,
				"method": "rhf"
			},
			{
				"type": "unocc",
				"energy": -0.05129,
				"method": "rhf"
			},
			{
				"type": "unocc",
				"energy": -0.02076,
				"method": "rhf"
			},
			{
				"type": "unocc",
				"energy": -0.00551,
				"method": "rhf"
			},
			{
				"type": "unocc",
				"energy": 0.03191,
				"method": "rhf"
			},
			{
				"type": "unocc",
				"energy": 0.07829,
				"method": "rhf"
			}
		],
		"cosmo_sigma_profile": { 
			"-0.025": 0.0,
			"-0.024": 0.0,
			"-0.023": 0.0,
			"-0.022": 0.0,
			"-0.021": 0.0,
			"-0.02": 0.0,
			"-0.019": 0.0,
			"-0.018": 0.10002717499,
			"-0.017": 0.6129067709,
			"-0.016": 0.66264882382,
			"-0.015": 1.04546852099,
			"-0.014": 0.859252428125,
			"-0.013": 0.483098071173,
			"-0.012": 0.164670533194,
			"-0.011": 0.823083031344,
			"-0.01": 0.759009889132,
			"-0.009": 0.56658497189,
			"-0.008": 1.03125784685,
			"-0.007": 4.803411308,
			"-0.006": 8.81516620529,
			"-0.005": 19.3602960142,
			"-0.004": 18.1954544614,
			"-0.003": 16.0509080049,
			"-0.002": 17.1676178837,
			"-0.001": 26.5253168297,
			"0.0": 29.6881185893,
			"0.001": 17.4252796853,
			"0.002": 22.5826862183,
			"0.003": 12.7913048121,
			"0.004": 7.13174478834,
			"0.005": 5.90917585124,
			"0.006": 5.02459444696,
			"0.007": 4.61596247116,
			"0.008": 3.57970984542,
			"0.009": 2.73025733773,
			"0.01": 1.58303249626,
			"0.011": 0.987865505313,
			"0.012": 1.42765782402,
			"0.013": 1.21244923272,
			"0.014": 0.757761151639,
			"0.015": 0.613486208019,
			"0.016": 1.32168078282,
			"0.017": 0.955070803156,
			"0.018": 1.01321175818,
			"0.019": 0.631675390222,
			"0.02": 0.393563240734,
			"0.021": 0.932430580477,
			"0.022": 0.352044254617,
			"0.023": 0.00079307636981,
			"0.024": 0.0,
			"0.025": 0.0
		}
	}
}
