{
	 "smiles": "CCCCOC(=O)CCCC", 
	 "Tm": 180.35, 
	 "num_atms": 29, 
	 "gaussian": { 
		 "optdone": 1, 
		 "sigma_profile": "yes", 
		 "theory": "DFT", 
		 "functional": "B3LYP", 
		 "basiset": "6-31G**", 
		 "properties": { 
			 "R2extent": 3307.1534, 
			 "electric_dipole_moment_norm": 2.06990440842, 
			 "electric_quadrupole_moment_norm": 11.1746411754, 
			 "total_energy": -504.289747323, 
			 "HOMO_LUMO_gap": 0.27719, 
			 "cosmo_polarized_energy": -6.28, 
			 "cosmo_cavitation_energy": 30.82, 
			 "cosmo_dispersion_energy": -21.19, 
			 "cosmo_repulsion_energy": 1.78, 
			 "cosmo_total_nonelectrostatic_energy": 11.41, 
			 "SMD_solvation_energy": 5.66 
		},
		"coords": [
			{
				"x": 0.4485331899,
				"y": 3.3421129779,
				"z": -1.8341190747,
				"element": "C" 
			},
			{
				"x": 1.1151648492,
				"y": 2.0506228266,
				"z": -1.3512528062,
				"element": "C" 
			},
			{
				"x": 0.8952517718,
				"y": 0.8717150717,
				"z": -2.3082180091,
				"element": "C" 
			},
			{
				"x": 1.5487305122,
				"y": -0.4243733446,
				"z": -1.8542929,
				"element": "C" 
			},
			{
				"x": 0.9156560341,
				"y": -0.8361604368,
				"z": -0.6204508787,
				"element": "O" 
			},
			{
				"x": 1.410362557,
				"y": -1.9560726377,
				"z": -0.0440954779,
				"element": "C" 
			},
			{
				"x": 2.3350538571,
				"y": -2.5900452561,
				"z": -0.5081733507,
				"element": "O" 
			},
			{
				"x": 0.6883376709,
				"y": -2.2772100071,
				"z": 1.2509694719,
				"element": "C" 
			},
			{
				"x": -0.8494415444,
				"y": -2.3586522381,
				"z": 1.1625009446,
				"element": "C" 
			},
			{
				"x": -1.403578358,
				"y": -3.615469793,
				"z": 0.4705768647,
				"element": "C" 
			},
			{
				"x": -1.0868760179,
				"y": -3.7354238663,
				"z": -1.0254429776,
				"element": "C" 
			},
			{
				"x": 0.8362723581,
				"y": 3.6491026737,
				"z": -2.8123916781,
				"element": "H" 
			},
			{
				"x": 0.62254482,
				"y": 4.1661218419,
				"z": -1.1347245663,
				"element": "H" 
			},
			{
				"x": -0.6354699631,
				"y": 3.2151366642,
				"z": -1.9343765154,
				"element": "H" 
			},
			{
				"x": 2.1942433785,
				"y": 2.2165305061,
				"z": -1.2283387343,
				"element": "H" 
			},
			{
				"x": 0.7309425622,
				"y": 1.7815375148,
				"z": -0.3607478059,
				"element": "H" 
			},
			{
				"x": -0.179930086,
				"y": 0.699002243,
				"z": -2.4471466419,
				"element": "H" 
			},
			{
				"x": 1.3011949053,
				"y": 1.1170460542,
				"z": -3.298984278,
				"element": "H" 
			},
			{
				"x": 2.6222863082,
				"y": -0.3005002511,
				"z": -1.6755507803,
				"element": "H" 
			},
			{
				"x": 1.4280957391,
				"y": -1.2222776606,
				"z": -2.5940925757,
				"element": "H" 
			},
			{
				"x": 1.1123653328,
				"y": -3.2121524907,
				"z": 1.6277256702,
				"element": "H" 
			},
			{
				"x": 0.9570346827,
				"y": -1.484823839,
				"z": 1.9614416699,
				"element": "H" 
			},
			{
				"x": -1.2243577465,
				"y": -1.4590175061,
				"z": 0.6610792817,
				"element": "H" 
			},
			{
				"x": -1.2403395014,
				"y": -2.3285274714,
				"z": 2.1867722335,
				"element": "H" 
			},
			{
				"x": -1.0300573978,
				"y": -4.5062035227,
				"z": 0.9941189443,
				"element": "H" 
			},
			{
				"x": -2.4928484609,
				"y": -3.6213392286,
				"z": 0.6056620359,
				"element": "H" 
			},
			{
				"x": -0.0152548038,
				"y": -3.8575520049,
				"z": -1.2085450136,
				"element": "H" 
			},
			{
				"x": -1.4234571093,
				"y": -2.8477947035,
				"z": -1.5732364224,
				"element": "H" 
			},
			{
				"x": -1.59185954,
				"y": -4.6047321155,
				"z": -1.4594666299,
				"element": "H" 
			}
		],
		 "valence_orbital": [ 
			{
				"type": "occ",
				"energy": -0.32977,
				"method": "rhf"
			},
			{
				"type": "occ",
				"energy": -0.32344,
				"method": "rhf"
			},
			{
				"type": "occ",
				"energy": -0.31854,
				"method": "rhf"
			},
			{
				"type": "occ",
				"energy": -0.29347,
				"method": "rhf"
			},
			{
				"type": "occ",
				"energy": -0.26122,
				"method": "rhf"
			},
			{
				"type": "unocc",
				"energy": 0.01597,
				"method": "rhf"
			},
			{
				"type": "unocc",
				"energy": 0.08256,
				"method": "rhf"
			},
			{
				"type": "unocc",
				"energy": 0.09807,
				"method": "rhf"
			},
			{
				"type": "unocc",
				"energy": 0.11075,
				"method": "rhf"
			},
			{
				"type": "unocc",
				"energy": 0.12149,
				"method": "rhf"
			}
		],
		"cosmo_sigma_profile": { 
			"-0.025": 0.0,
			"-0.024": 0.0,
			"-0.023": 0.0,
			"-0.022": 0.0,
			"-0.021": 0.0,
			"-0.02": 0.0,
			"-0.019": 0.0,
			"-0.018": 0.0,
			"-0.017": 0.0,
			"-0.016": 0.0,
			"-0.015": 0.0,
			"-0.014": 0.0,
			"-0.013": 0.0,
			"-0.012": 0.0,
			"-0.011": 0.0,
			"-0.01": 0.0,
			"-0.009": 0.0,
			"-0.008": 0.0,
			"-0.007": 0.0,
			"-0.006": 1.46021917894,
			"-0.005": 5.05380376253,
			"-0.004": 12.0512459137,
			"-0.003": 27.4087531035,
			"-0.002": 38.5456698752,
			"-0.001": 40.1094068301,
			"0.0": 39.332482706,
			"0.001": 30.5702410958,
			"0.002": 13.1487984159,
			"0.003": 4.64744355939,
			"0.004": 3.76191481574,
			"0.005": 3.25296612807,
			"0.006": 3.14076469479,
			"0.007": 1.43776633052,
			"0.008": 1.12782620336,
			"0.009": 1.87940099066,
			"0.01": 1.55737921655,
			"0.011": 1.75155561018,
			"0.012": 4.41548961792,
			"0.013": 3.00686088969,
			"0.014": 0.218591692429,
			"0.015": 0.0,
			"0.016": 0.0,
			"0.017": 0.0,
			"0.018": 0.0,
			"0.019": 0.0,
			"0.02": 0.0,
			"0.021": 0.0,
			"0.022": 0.0,
			"0.023": 0.0,
			"0.024": 0.0,
			"0.025": 0.0
		}
	}
}
