{
	 "smiles": "O=C(NCCNC(=O)C1=CC=CC=C1)C1=CC=CC=C1", 
	 "Tm": 517.15, 
	 "num_atms": 36, 
	 "gaussian": { 
		 "optdone": 1, 
		 "sigma_profile": "yes", 
		 "theory": "DFT", 
		 "functional": "B3LYP", 
		 "basiset": "6-31G**", 
		 "properties": { 
			 "R2extent": 8515.2577, 
			 "electric_dipole_moment_norm": 5.58106223312, 
			 "electric_quadrupole_moment_norm": 18.5383153056, 
			 "total_energy": -879.327983681, 
			 "HOMO_LUMO_gap": 0.19438, 
			 "cosmo_polarized_energy": -22.57, 
			 "cosmo_cavitation_energy": 40.88, 
			 "cosmo_dispersion_energy": -28.27, 
			 "cosmo_repulsion_energy": 2.2, 
			 "cosmo_total_nonelectrostatic_energy": 14.82, 
			 "SMD_solvation_energy": 6.66 
		},
		"coords": [
			{
				"x": 0.6008096973,
				"y": -1.1447547119,
				"z": 0.0802269567,
				"element": "O" 
			},
			{
				"x": 1.2520890584,
				"y": -0.1598151745,
				"z": 0.419144877,
				"element": "C" 
			},
			{
				"x": 1.0767468626,
				"y": 1.0618486417,
				"z": -0.1823842522,
				"element": "N" 
			},
			{
				"x": 0.0760259023,
				"y": 1.2456849996,
				"z": -1.221445956,
				"element": "C" 
			},
			{
				"x": -1.3556290528,
				"y": 1.3772390743,
				"z": -0.6615045242,
				"element": "C" 
			},
			{
				"x": -2.3239392864,
				"y": 1.6821705589,
				"z": -1.7075477418,
				"element": "N" 
			},
			{
				"x": -3.1451341683,
				"y": 0.8030116471,
				"z": -2.3894730699,
				"element": "C" 
			},
			{
				"x": -3.4881157925,
				"y": 1.0425999834,
				"z": -3.5430319233,
				"element": "O" 
			},
			{
				"x": -3.6593939361,
				"y": -0.4080646657,
				"z": -1.6662641115,
				"element": "C" 
			},
			{
				"x": -3.8524883654,
				"y": -1.5777895022,
				"z": -2.4137285297,
				"element": "C" 
			},
			{
				"x": -4.3841602176,
				"y": -2.7165708244,
				"z": -1.8135656332,
				"element": "C" 
			},
			{
				"x": -4.755612415,
				"y": -2.6895218077,
				"z": -0.4666367978,
				"element": "C" 
			},
			{
				"x": -4.5955539911,
				"y": -1.518709649,
				"z": 0.2762619174,
				"element": "C" 
			},
			{
				"x": -4.0457044872,
				"y": -0.3826668675,
				"z": -0.3187744388,
				"element": "C" 
			},
			{
				"x": 2.2839656074,
				"y": -0.2260913326,
				"z": 1.5097043289,
				"element": "C" 
			},
			{
				"x": 3.3275930976,
				"y": 0.7007457532,
				"z": 1.6458954463,
				"element": "C" 
			},
			{
				"x": 4.2524981305,
				"y": 0.5724577107,
				"z": 2.6824103796,
				"element": "C" 
			},
			{
				"x": 4.1430602551,
				"y": -0.482335557,
				"z": 3.5905700925,
				"element": "C" 
			},
			{
				"x": 3.1135924593,
				"y": -1.4171003085,
				"z": 3.4517689384,
				"element": "C" 
			},
			{
				"x": 2.1936060129,
				"y": -1.2933556722,
				"z": 2.4133917487,
				"element": "C" 
			},
			{
				"x": 1.4588734606,
				"y": 1.8800567519,
				"z": 0.2663921805,
				"element": "H" 
			},
			{
				"x": 0.3425987213,
				"y": 2.1388136907,
				"z": -1.7981524181,
				"element": "H" 
			},
			{
				"x": 0.1191250407,
				"y": 0.3835564416,
				"z": -1.8915686123,
				"element": "H" 
			},
			{
				"x": -1.3792949289,
				"y": 2.1638923216,
				"z": 0.1045011336,
				"element": "H" 
			},
			{
				"x": -1.6222538545,
				"y": 0.4365650574,
				"z": -0.1812952453,
				"element": "H" 
			},
			{
				"x": -2.0927341487,
				"y": 2.4717269194,
				"z": -2.3013934085,
				"element": "H" 
			},
			{
				"x": -3.5851881701,
				"y": -1.5727368988,
				"z": -3.4651976282,
				"element": "H" 
			},
			{
				"x": -4.516529148,
				"y": -3.6234050076,
				"z": -2.3964739855,
				"element": "H" 
			},
			{
				"x": -5.1761411636,
				"y": -3.5758717001,
				"z": -0.0001852392,
				"element": "H" 
			},
			{
				"x": -4.9025029946,
				"y": -1.4875786409,
				"z": 1.3177006079,
				"element": "H" 
			},
			{
				"x": -3.944249595,
				"y": 0.5329151439,
				"z": 0.2558394257,
				"element": "H" 
			},
			{
				"x": 3.4486992884,
				"y": 1.5041929089,
				"z": 0.9245389569,
				"element": "H" 
			},
			{
				"x": 5.0629676832,
				"y": 1.2895562862,
				"z": 2.7746011109,
				"element": "H" 
			},
			{
				"x": 4.8628234408,
				"y": -0.5803873338,
				"z": 4.3981681753,
				"element": "H" 
			},
			{
				"x": 3.031245663,
				"y": -2.2434276406,
				"z": 4.151796,
				"element": "H" 
			},
			{
				"x": 1.3943053342,
				"y": -2.0138505952,
				"z": 2.2768112391,
				"element": "H" 
			}
		],
		 "valence_orbital": [ 
			{
				"type": "occ",
				"energy": -0.25753,
				"method": "rhf"
			},
			{
				"type": "occ",
				"energy": -0.25229,
				"method": "rhf"
			},
			{
				"type": "occ",
				"energy": -0.25116,
				"method": "rhf"
			},
			{
				"type": "occ",
				"energy": -0.24425,
				"method": "rhf"
			},
			{
				"type": "occ",
				"energy": -0.23527,
				"method": "rhf"
			},
			{
				"type": "unocc",
				"energy": -0.04089,
				"method": "rhf"
			},
			{
				"type": "unocc",
				"energy": -0.02642,
				"method": "rhf"
			},
			{
				"type": "unocc",
				"energy": -0.01353,
				"method": "rhf"
			},
			{
				"type": "unocc",
				"energy": -0.0017,
				"method": "rhf"
			},
			{
				"type": "unocc",
				"energy": 0.05135,
				"method": "rhf"
			}
		],
		"cosmo_sigma_profile": { 
			"-0.025": 0.0,
			"-0.024": 0.0,
			"-0.023": 0.0,
			"-0.022": 0.0,
			"-0.021": 0.0,
			"-0.02": 0.0,
			"-0.019": 0.0,
			"-0.018": 0.0,
			"-0.017": 0.0,
			"-0.016": 0.0,
			"-0.015": 0.226769788365,
			"-0.014": 0.808829098926,
			"-0.013": 2.10209394636,
			"-0.012": 2.66001971383,
			"-0.011": 2.4408775845,
			"-0.01": 2.67229205724,
			"-0.009": 3.71254940042,
			"-0.008": 2.58393924593,
			"-0.007": 5.6917284784,
			"-0.006": 20.3629500887,
			"-0.005": 27.3481440833,
			"-0.004": 28.6027640346,
			"-0.003": 23.1519917215,
			"-0.002": 22.7483788141,
			"-0.001": 20.114555176,
			"0.0": 17.2087436254,
			"0.001": 20.3908269143,
			"0.002": 20.8111035684,
			"0.003": 21.5429480059,
			"0.004": 26.6967047427,
			"0.005": 15.1154903418,
			"0.006": 4.08907989439,
			"0.007": 3.51489761308,
			"0.008": 2.93664384534,
			"0.009": 2.62772853204,
			"0.01": 2.8392620934,
			"0.011": 3.62345416074,
			"0.012": 3.37103378406,
			"0.013": 7.56056799539,
			"0.014": 7.63866112469,
			"0.015": 0.514351874044,
			"0.016": 0.0,
			"0.017": 0.0,
			"0.018": 0.0,
			"0.019": 0.0,
			"0.02": 0.0,
			"0.021": 0.0,
			"0.022": 0.0,
			"0.023": 0.0,
			"0.024": 0.0,
			"0.025": 0.0
		}
	}
}
