{
	 "smiles": "CC(=O)NC1=CC=C(S)C=C1", 
	 "Tm": 425.15, 
	 "num_atms": 20, 
	 "gaussian": { 
		 "optdone": 1, 
		 "sigma_profile": "yes", 
		 "theory": "DFT", 
		 "functional": "B3LYP", 
		 "basiset": "6-31G**", 
		 "properties": { 
			 "R2extent": 3142.7766, 
			 "electric_dipole_moment_norm": 2.95223418109, 
			 "electric_quadrupole_moment_norm": 13.4814519804, 
			 "total_energy": -838.455906496, 
			 "HOMO_LUMO_gap": 0.18977, 
			 "cosmo_polarized_energy": -14.45, 
			 "cosmo_cavitation_energy": 25.76, 
			 "cosmo_dispersion_energy": -19.67, 
			 "cosmo_repulsion_energy": 1.53, 
			 "cosmo_total_nonelectrostatic_energy": 7.61, 
			 "SMD_solvation_energy": 4.69 
		},
		"coords": [
			{
				"x": 3.3235689434,
				"y": 0.3476302212,
				"z": 1.6194700521,
				"element": "C" 
			},
			{
				"x": 2.0110967125,
				"y": -0.1779410573,
				"z": 1.0542131954,
				"element": "C" 
			},
			{
				"x": 1.859211181,
				"y": -1.3624184603,
				"z": 0.7900410243,
				"element": "O" 
			},
			{
				"x": 1.040560832,
				"y": 0.7839899517,
				"z": 0.8753401212,
				"element": "N" 
			},
			{
				"x": -0.2715091135,
				"y": 0.6342775385,
				"z": 0.3771657361,
				"element": "C" 
			},
			{
				"x": -1.0702703945,
				"y": 1.7851116386,
				"z": 0.2939301937,
				"element": "C" 
			},
			{
				"x": -2.3729337212,
				"y": 1.7182328826,
				"z": -0.1859046115,
				"element": "C" 
			},
			{
				"x": -2.9124506429,
				"y": 0.4925896042,
				"z": -0.5970641531,
				"element": "C" 
			},
			{
				"x": -4.5940338305,
				"y": 0.4752528515,
				"z": -1.2053745585,
				"element": "S" 
			},
			{
				"x": -2.1152735662,
				"y": -0.6541665656,
				"z": -0.5139209045,
				"element": "C" 
			},
			{
				"x": -0.808164724,
				"y": -0.5948166156,
				"z": -0.0334399576,
				"element": "C" 
			},
			{
				"x": 4.1265030504,
				"y": 0.105122059,
				"z": 0.9180709053,
				"element": "H" 
			},
			{
				"x": 3.3341557381,
				"y": 1.4241945969,
				"z": 1.8116092771,
				"element": "H" 
			},
			{
				"x": 3.5370933255,
				"y": -0.1807280838,
				"z": 2.5526207171,
				"element": "H" 
			},
			{
				"x": 1.292890506,
				"y": 1.7266935185,
				"z": 1.1327599467,
				"element": "H" 
			},
			{
				"x": -0.6689667008,
				"y": 2.7461734497,
				"z": 0.6085094584,
				"element": "H" 
			},
			{
				"x": -2.9688713191,
				"y": 2.6245784232,
				"z": -0.2390924662,
				"element": "H" 
			},
			{
				"x": -4.6612919269,
				"y": -0.8462446939,
				"z": -1.4533994599,
				"element": "H" 
			},
			{
				"x": -2.509772087,
				"y": -1.6168025265,
				"z": -0.8265915158,
				"element": "H" 
			},
			{
				"x": -0.1998422625,
				"y": -1.4859287327,
				"z": 0.0273569996,
				"element": "H" 
			}
		],
		 "valence_orbital": [ 
			{
				"type": "occ",
				"energy": -0.32182,
				"method": "rhf"
			},
			{
				"type": "occ",
				"energy": -0.2682,
				"method": "rhf"
			},
			{
				"type": "occ",
				"energy": -0.25785,
				"method": "rhf"
			},
			{
				"type": "occ",
				"energy": -0.25465,
				"method": "rhf"
			},
			{
				"type": "occ",
				"energy": -0.20458,
				"method": "rhf"
			},
			{
				"type": "unocc",
				"energy": -0.01481,
				"method": "rhf"
			},
			{
				"type": "unocc",
				"energy": -0.00792,
				"method": "rhf"
			},
			{
				"type": "unocc",
				"energy": 0.01653,
				"method": "rhf"
			},
			{
				"type": "unocc",
				"energy": 0.04217,
				"method": "rhf"
			},
			{
				"type": "unocc",
				"energy": 0.05811,
				"method": "rhf"
			}
		],
		"cosmo_sigma_profile": { 
			"-0.025": 0.0,
			"-0.024": 0.0,
			"-0.023": 0.0,
			"-0.022": 0.0,
			"-0.021": 0.0,
			"-0.02": 0.0,
			"-0.019": 0.0,
			"-0.018": 0.0,
			"-0.017": 0.0,
			"-0.016": 0.227545236874,
			"-0.015": 0.926408267911,
			"-0.014": 1.28291758474,
			"-0.013": 1.63333843192,
			"-0.012": 1.2722887303,
			"-0.011": 1.94144623889,
			"-0.01": 4.52460851591,
			"-0.009": 4.00202368657,
			"-0.008": 3.88171258004,
			"-0.007": 6.33160327619,
			"-0.006": 9.95398859052,
			"-0.005": 12.3664894567,
			"-0.004": 13.1424733992,
			"-0.003": 13.1232629275,
			"-0.002": 13.0914651171,
			"-0.001": 12.1255322071,
			"0.0": 9.82382032485,
			"0.001": 9.19339915811,
			"0.002": 11.5578044646,
			"0.003": 15.611226675,
			"0.004": 15.4604854289,
			"0.005": 17.2773828566,
			"0.006": 5.2593809597,
			"0.007": 5.2625379977,
			"0.008": 3.99333226914,
			"0.009": 2.93096523321,
			"0.01": 2.05366200152,
			"0.011": 1.98482715748,
			"0.012": 2.03236470308,
			"0.013": 3.27575333331,
			"0.014": 1.97453061616,
			"0.015": 0.343802996088,
			"0.016": 0.0,
			"0.017": 0.0,
			"0.018": 0.0,
			"0.019": 0.0,
			"0.02": 0.0,
			"0.021": 0.0,
			"0.022": 0.0,
			"0.023": 0.0,
			"0.024": 0.0,
			"0.025": 0.0
		}
	}
}
