{
	 "smiles": "CC(C)CC(C)C(C)C", 
	 "Tm": 145.15, 
	 "num_atms": 29, 
	 "gaussian": { 
		 "optdone": 1, 
		 "sigma_profile": "yes", 
		 "theory": "DFT", 
		 "functional": "B3LYP", 
		 "basiset": "6-31G**", 
		 "properties": { 
			 "R2extent": 2125.0166, 
			 "electric_dipole_moment_norm": 0.03727921673, 
			 "electric_quadrupole_moment_norm": 0.714643708431, 
			 "total_energy": -355.04249231, 
			 "HOMO_LUMO_gap": 0.36686, 
			 "cosmo_polarized_energy": -0.83, 
			 "cosmo_cavitation_energy": 28.17, 
			 "cosmo_dispersion_energy": -19.73, 
			 "cosmo_repulsion_energy": 1.62, 
			 "cosmo_total_nonelectrostatic_energy": 10.06, 
			 "SMD_solvation_energy": 4.94 
		},
		"coords": [
			{
				"x": 0.341146417,
				"y": 0.6024264103,
				"z": 2.3825458695,
				"element": "C" 
			},
			{
				"x": 0.6146537975,
				"y": -0.2582503685,
				"z": 1.1396732574,
				"element": "C" 
			},
			{
				"x": 0.4565125611,
				"y": -1.7495965825,
				"z": 1.4755065683,
				"element": "C" 
			},
			{
				"x": -0.293219101,
				"y": 0.112519245,
				"z": -0.0528194805,
				"element": "C" 
			},
			{
				"x": -0.1884153173,
				"y": 1.5554134535,
				"z": -0.5931563492,
				"element": "C" 
			},
			{
				"x": 1.2223662817,
				"y": 1.86419215,
				"z": -1.1232717184,
				"element": "C" 
			},
			{
				"x": -1.3130161577,
				"y": 1.8502728167,
				"z": -1.6296691747,
				"element": "C" 
			},
			{
				"x": -1.4745471872,
				"y": 3.3563574631,
				"z": -1.8930591244,
				"element": "C" 
			},
			{
				"x": -1.1582055826,
				"y": 1.0897416699,
				"z": -2.9574472557,
				"element": "C" 
			},
			{
				"x": 0.9764470184,
				"y": 0.2929294194,
				"z": 3.2197252041,
				"element": "H" 
			},
			{
				"x": -0.7030093872,
				"y": 0.5016498842,
				"z": 2.704580877,
				"element": "H" 
			},
			{
				"x": 0.5317582982,
				"y": 1.6648074212,
				"z": 2.2015800526,
				"element": "H" 
			},
			{
				"x": 1.6604758736,
				"y": -0.0991710204,
				"z": 0.841929825,
				"element": "H" 
			},
			{
				"x": 1.1222678213,
				"y": -2.0462055059,
				"z": 2.2934396007,
				"element": "H" 
			},
			{
				"x": -0.5712227302,
				"y": -1.974430945,
				"z": 1.7868102613,
				"element": "H" 
			},
			{
				"x": 0.6862429385,
				"y": -2.3814046958,
				"z": 0.6103407799,
				"element": "H" 
			},
			{
				"x": -1.3361134987,
				"y": -0.0751022966,
				"z": 0.2441382323,
				"element": "H" 
			},
			{
				"x": -0.081057929,
				"y": -0.5903190943,
				"z": -0.8701074925,
				"element": "H" 
			},
			{
				"x": -0.3799487187,
				"y": 2.2381059729,
				"z": 0.2469541229,
				"element": "H" 
			},
			{
				"x": 1.2845207133,
				"y": 2.8688660073,
				"z": -1.5527511155,
				"element": "H" 
			},
			{
				"x": 1.9668057255,
				"y": 1.8111813369,
				"z": -0.3230316757,
				"element": "H" 
			},
			{
				"x": 1.5252923865,
				"y": 1.1507636837,
				"z": -1.8980001206,
				"element": "H" 
			},
			{
				"x": -2.2490331071,
				"y": 1.506420662,
				"z": -1.1647163127,
				"element": "H" 
			},
			{
				"x": -2.3452366757,
				"y": 3.5484590378,
				"z": -2.5296840592,
				"element": "H" 
			},
			{
				"x": -1.6146873943,
				"y": 3.9130145655,
				"z": -0.9596016133,
				"element": "H" 
			},
			{
				"x": -0.6013323079,
				"y": 3.7768487051,
				"z": -2.4043455646,
				"element": "H" 
			},
			{
				"x": -0.2684346279,
				"y": 1.4169421008,
				"z": -3.5067653631,
				"element": "H" 
			},
			{
				"x": -2.0236788002,
				"y": 1.2705416944,
				"z": -3.6042668525,
				"element": "H" 
			},
			{
				"x": -1.08083131,
				"y": 0.008226809,
				"z": -2.8090313785,
				"element": "H" 
			}
		],
		 "valence_orbital": [ 
			{
				"type": "occ",
				"energy": -0.32666,
				"method": "rhf"
			},
			{
				"type": "occ",
				"energy": -0.31528,
				"method": "rhf"
			},
			{
				"type": "occ",
				"energy": -0.30712,
				"method": "rhf"
			},
			{
				"type": "occ",
				"energy": -0.29795,
				"method": "rhf"
			},
			{
				"type": "occ",
				"energy": -0.29071,
				"method": "rhf"
			},
			{
				"type": "unocc",
				"energy": 0.07615,
				"method": "rhf"
			},
			{
				"type": "unocc",
				"energy": 0.10273,
				"method": "rhf"
			},
			{
				"type": "unocc",
				"energy": 0.11421,
				"method": "rhf"
			},
			{
				"type": "unocc",
				"energy": 0.11848,
				"method": "rhf"
			},
			{
				"type": "unocc",
				"energy": 0.13137,
				"method": "rhf"
			}
		],
		"cosmo_sigma_profile": { 
			"-0.025": 0.0,
			"-0.024": 0.0,
			"-0.023": 0.0,
			"-0.022": 0.0,
			"-0.021": 0.0,
			"-0.02": 0.0,
			"-0.019": 0.0,
			"-0.018": 0.0,
			"-0.017": 0.0,
			"-0.016": 0.0,
			"-0.015": 0.0,
			"-0.014": 0.0,
			"-0.013": 0.0,
			"-0.012": 0.0,
			"-0.011": 0.0,
			"-0.01": 0.0,
			"-0.009": 0.0,
			"-0.008": 0.0,
			"-0.007": 0.0,
			"-0.006": 0.0,
			"-0.005": 0.0,
			"-0.004": 0.0,
			"-0.003": 4.22334032909,
			"-0.002": 31.5237271992,
			"-0.001": 47.6048104329,
			"0.0": 49.4487073339,
			"0.001": 45.0616155677,
			"0.002": 33.7945151136,
			"0.003": 3.49241985662,
			"0.004": 0.0,
			"0.005": 0.0,
			"0.006": 0.0,
			"0.007": 0.0,
			"0.008": 0.0,
			"0.009": 0.0,
			"0.01": 0.0,
			"0.011": 0.0,
			"0.012": 0.0,
			"0.013": 0.0,
			"0.014": 0.0,
			"0.015": 0.0,
			"0.016": 0.0,
			"0.017": 0.0,
			"0.018": 0.0,
			"0.019": 0.0,
			"0.02": 0.0,
			"0.021": 0.0,
			"0.022": 0.0,
			"0.023": 0.0,
			"0.024": 0.0,
			"0.025": 0.0
		}
	}
}
