{
	 "smiles": "NC1=C(C=CC=C1)C(=O)NCC#C", 
	 "Tm": 370.15, 
	 "num_atms": 23, 
	 "gaussian": { 
		 "optdone": 1, 
		 "sigma_profile": "yes", 
		 "theory": "DFT", 
		 "functional": "B3LYP", 
		 "basiset": "6-31G**", 
		 "properties": { 
			 "R2extent": 3090.9451, 
			 "electric_dipole_moment_norm": 1.5335698419, 
			 "electric_quadrupole_moment_norm": 15.3281030894, 
			 "total_energy": -571.765955702, 
			 "HOMO_LUMO_gap": 0.16899, 
			 "cosmo_polarized_energy": -12.59, 
			 "cosmo_cavitation_energy": 27.96, 
			 "cosmo_dispersion_energy": -20.13, 
			 "cosmo_repulsion_energy": 1.59, 
			 "cosmo_total_nonelectrostatic_energy": 9.42, 
			 "SMD_solvation_energy": 5.89 
		},
		"coords": [
			{
				"x": -0.5716947396,
				"y": -0.4952614547,
				"z": 2.6063451013,
				"element": "N" 
			},
			{
				"x": 0.6409643715,
				"y": -0.5085380031,
				"z": 1.966188846,
				"element": "C" 
			},
			{
				"x": 0.7979951225,
				"y": 0.0063295296,
				"z": 0.6457273462,
				"element": "C" 
			},
			{
				"x": 2.0689577786,
				"y": -0.0409358584,
				"z": 0.0440237453,
				"element": "C" 
			},
			{
				"x": 3.1674617124,
				"y": -0.6014080716,
				"z": 0.6811040837,
				"element": "C" 
			},
			{
				"x": 3.0001633015,
				"y": -1.1350258752,
				"z": 1.9657500593,
				"element": "C" 
			},
			{
				"x": 1.7667959198,
				"y": -1.087371012,
				"z": 2.5949904584,
				"element": "C" 
			},
			{
				"x": -0.369554478,
				"y": 0.60488138,
				"z": -0.05965026,
				"element": "C" 
			},
			{
				"x": -1.3833420727,
				"y": 1.0152668767,
				"z": 0.52464432,
				"element": "O" 
			},
			{
				"x": -0.284777971,
				"y": 0.6984211722,
				"z": -1.4239172251,
				"element": "N" 
			},
			{
				"x": -1.4009721654,
				"y": 1.2372914141,
				"z": -2.1942175173,
				"element": "C" 
			},
			{
				"x": -0.9702525999,
				"y": 1.6654600872,
				"z": -3.5246823671,
				"element": "C" 
			},
			{
				"x": -0.6205306081,
				"y": 1.9968609189,
				"z": -4.6314044046,
				"element": "C" 
			},
			{
				"x": -0.5711370907,
				"y": -0.6554823428,
				"z": 3.6012700559,
				"element": "H" 
			},
			{
				"x": -1.2571153714,
				"y": 0.1493002767,
				"z": 2.2279882361,
				"element": "H" 
			},
			{
				"x": 2.2068601319,
				"y": 0.4127555904,
				"z": -0.9333042687,
				"element": "H" 
			},
			{
				"x": 4.1378330502,
				"y": -0.6142922365,
				"z": 0.1961761284,
				"element": "H" 
			},
			{
				"x": 3.8449840317,
				"y": -1.5802459403,
				"z": 2.4843165858,
				"element": "H" 
			},
			{
				"x": 1.6488179376,
				"y": -1.4955710729,
				"z": 3.5958312326,
				"element": "H" 
			},
			{
				"x": 0.4109037187,
				"y": 0.1645725492,
				"z": -1.9207350232,
				"element": "H" 
			},
			{
				"x": -2.2123335433,
				"y": 0.4994798771,
				"z": -2.2860255529,
				"element": "H" 
			},
			{
				"x": -1.8173330365,
				"y": 2.0757102603,
				"z": -1.6268973664,
				"element": "H" 
			},
			{
				"x": -0.3142934,
				"y": 2.3043019349,
				"z": -5.6045222137,
				"element": "H" 
			}
		],
		 "valence_orbital": [ 
			{
				"type": "occ",
				"energy": -0.27684,
				"method": "rhf"
			},
			{
				"type": "occ",
				"energy": -0.26473,
				"method": "rhf"
			},
			{
				"type": "occ",
				"energy": -0.25093,
				"method": "rhf"
			},
			{
				"type": "occ",
				"energy": -0.24891,
				"method": "rhf"
			},
			{
				"type": "occ",
				"energy": -0.20008,
				"method": "rhf"
			},
			{
				"type": "unocc",
				"energy": -0.03109,
				"method": "rhf"
			},
			{
				"type": "unocc",
				"energy": 0.01289,
				"method": "rhf"
			},
			{
				"type": "unocc",
				"energy": 0.03604,
				"method": "rhf"
			},
			{
				"type": "unocc",
				"energy": 0.04748,
				"method": "rhf"
			},
			{
				"type": "unocc",
				"energy": 0.06404,
				"method": "rhf"
			}
		],
		"cosmo_sigma_profile": { 
			"-0.025": 0.0,
			"-0.024": 0.0,
			"-0.023": 0.0,
			"-0.022": 0.0,
			"-0.021": 0.0,
			"-0.02": 0.0,
			"-0.019": 0.0,
			"-0.018": 0.0,
			"-0.017": 0.0,
			"-0.016": 0.0,
			"-0.015": 0.0501582213144,
			"-0.014": 0.655467198381,
			"-0.013": 1.52901562005,
			"-0.012": 2.72017025281,
			"-0.011": 4.05086119501,
			"-0.01": 3.12062617369,
			"-0.009": 4.20709298529,
			"-0.008": 4.87090472968,
			"-0.007": 5.98573361144,
			"-0.006": 11.1843786913,
			"-0.005": 14.2320354212,
			"-0.004": 14.0865894977,
			"-0.003": 13.8184868006,
			"-0.002": 10.4050328664,
			"-0.001": 11.0504966831,
			"0.0": 11.4876445141,
			"0.001": 13.0915648464,
			"0.002": 12.550698716,
			"0.003": 15.0105388892,
			"0.004": 16.7209582724,
			"0.005": 18.5892582007,
			"0.006": 16.0963654541,
			"0.007": 4.95006863198,
			"0.008": 2.13194686892,
			"0.009": 2.25013133817,
			"0.01": 2.0644846496,
			"0.011": 2.08404635362,
			"0.012": 2.75631852327,
			"0.013": 2.31079589004,
			"0.014": 0.19763023759,
			"0.015": 0.0,
			"0.016": 0.0,
			"0.017": 0.0,
			"0.018": 0.0,
			"0.019": 0.0,
			"0.02": 0.0,
			"0.021": 0.0,
			"0.022": 0.0,
			"0.023": 0.0,
			"0.024": 0.0,
			"0.025": 0.0
		}
	}
}
