{
	 "smiles": "OC(=O)C1CCCN(C1)S(=O)(=O)C1=CC=CS1", 
	 "Tm": 410.15, 
	 "num_atms": 30, 
	 "gaussian": { 
		 "optdone": 1, 
		 "sigma_profile": "yes", 
		 "theory": "DFT", 
		 "functional": "B3LYP", 
		 "basiset": "6-31G**", 
		 "properties": { 
			 "R2extent": 5036.0574, 
			 "electric_dipole_moment_norm": 6.55322362582, 
			 "electric_quadrupole_moment_norm": 18.9682337654, 
			 "total_energy": -1540.84770968, 
			 "HOMO_LUMO_gap": 0.19337, 
			 "cosmo_polarized_energy": -19.9, 
			 "cosmo_cavitation_energy": 35.31, 
			 "cosmo_dispersion_energy": -25.27, 
			 "cosmo_repulsion_energy": 1.88, 
			 "cosmo_total_nonelectrostatic_energy": 11.92, 
			 "SMD_solvation_energy": 5.08 
		},
		"coords": [
			{
				"x": 2.3462500966,
				"y": 0.8543238769,
				"z": 3.4502612067,
				"element": "O" 
			},
			{
				"x": 1.6091755572,
				"y": -0.2510004994,
				"z": 3.1814841246,
				"element": "C" 
			},
			{
				"x": 1.5711069414,
				"y": -1.2056683325,
				"z": 3.9274896331,
				"element": "O" 
			},
			{
				"x": 0.8512692692,
				"y": -0.1152536274,
				"z": 1.876619032,
				"element": "C" 
			},
			{
				"x": -0.2976878029,
				"y": 0.9138279769,
				"z": 2.0191724193,
				"element": "C" 
			},
			{
				"x": -1.1203191412,
				"y": 0.9931931644,
				"z": 0.7254346645,
				"element": "C" 
			},
			{
				"x": -1.6276183114,
				"y": -0.3933392143,
				"z": 0.307890203,
				"element": "C" 
			},
			{
				"x": -0.5356150428,
				"y": -1.3743990997,
				"z": 0.2333844598,
				"element": "N" 
			},
			{
				"x": 0.3047407584,
				"y": -1.4842250557,
				"z": 1.4312043057,
				"element": "C" 
			},
			{
				"x": 0.0105309338,
				"y": -1.9150519408,
				"z": -1.2483027283,
				"element": "S" 
			},
			{
				"x": -1.1678619438,
				"y": -2.0062670094,
				"z": -2.1107364454,
				"element": "O" 
			},
			{
				"x": 0.889980293,
				"y": -3.0512838219,
				"z": -0.971984459,
				"element": "O" 
			},
			{
				"x": 1.0392976982,
				"y": -0.6569337776,
				"z": -1.9790552963,
				"element": "C" 
			},
			{
				"x": 0.6201573745,
				"y": 0.3325591034,
				"z": -2.8327644392,
				"element": "C" 
			},
			{
				"x": 1.6825932237,
				"y": 1.2005342185,
				"z": -3.2179117628,
				"element": "C" 
			},
			{
				"x": 2.880718317,
				"y": 0.8498172677,
				"z": -2.6534461054,
				"element": "C" 
			},
			{
				"x": 2.7470330151,
				"y": -0.5561977481,
				"z": -1.651518288,
				"element": "S" 
			},
			{
				"x": 2.775517466,
				"y": 0.6918081188,
				"z": 4.3074794951,
				"element": "H" 
			},
			{
				"x": 1.5553381729,
				"y": 0.2630033591,
				"z": 1.1251413334,
				"element": "H" 
			},
			{
				"x": -0.9487870843,
				"y": 0.6046172218,
				"z": 2.8488326063,
				"element": "H" 
			},
			{
				"x": 0.1131083057,
				"y": 1.893291112,
				"z": 2.2809542616,
				"element": "H" 
			},
			{
				"x": -0.5056304073,
				"y": 1.4138172454,
				"z": -0.0796269589,
				"element": "H" 
			},
			{
				"x": -1.9753223918,
				"y": 1.6650284057,
				"z": 0.8647929129,
				"element": "H" 
			},
			{
				"x": -2.3471119457,
				"y": -0.7665924494,
				"z": 1.0501794696,
				"element": "H" 
			},
			{
				"x": -2.1424006974,
				"y": -0.3732644728,
				"z": -0.6533216835,
				"element": "H" 
			},
			{
				"x": 1.1051661058,
				"y": -2.1980408021,
				"z": 1.2371080757,
				"element": "H" 
			},
			{
				"x": -0.3066015171,
				"y": -1.9072115431,
				"z": 2.2372231357,
				"element": "H" 
			},
			{
				"x": -0.4025629011,
				"y": 0.4100278973,
				"z": -3.1807253148,
				"element": "H" 
			},
			{
				"x": 1.5628280125,
				"y": 2.0395622082,
				"z": -3.8934447177,
				"element": "H" 
			},
			{
				"x": 3.8448076459,
				"y": 1.3223182181,
				"z": -2.7856131397,
				"element": "H" 
			}
		],
		 "valence_orbital": [ 
			{
				"type": "occ",
				"energy": -0.30354,
				"method": "rhf"
			},
			{
				"type": "occ",
				"energy": -0.28465,
				"method": "rhf"
			},
			{
				"type": "occ",
				"energy": -0.27475,
				"method": "rhf"
			},
			{
				"type": "occ",
				"energy": -0.27236,
				"method": "rhf"
			},
			{
				"type": "occ",
				"energy": -0.24169,
				"method": "rhf"
			},
			{
				"type": "unocc",
				"energy": -0.04832,
				"method": "rhf"
			},
			{
				"type": "unocc",
				"energy": -0.00141,
				"method": "rhf"
			},
			{
				"type": "unocc",
				"energy": 0.01185,
				"method": "rhf"
			},
			{
				"type": "unocc",
				"energy": 0.03408,
				"method": "rhf"
			},
			{
				"type": "unocc",
				"energy": 0.04997,
				"method": "rhf"
			}
		],
		"cosmo_sigma_profile": { 
			"-0.025": 0.0,
			"-0.024": 0.0,
			"-0.023": 0.0,
			"-0.022": 0.0,
			"-0.021": 0.0,
			"-0.02": 0.0,
			"-0.019": 0.0430102421192,
			"-0.018": 0.722071521979,
			"-0.017": 0.967489578016,
			"-0.016": 0.791485121815,
			"-0.015": 0.776345727113,
			"-0.014": 0.589177419537,
			"-0.013": 0.979195643779,
			"-0.012": 0.616605177759,
			"-0.011": 0.893533775023,
			"-0.01": 1.11586091668,
			"-0.009": 2.82527702905,
			"-0.008": 4.86900103658,
			"-0.007": 7.51289764826,
			"-0.006": 9.53233475263,
			"-0.005": 20.6363816165,
			"-0.004": 26.664124709,
			"-0.003": 27.2237812256,
			"-0.002": 23.0717283357,
			"-0.001": 19.8511196744,
			"0.0": 16.5691126307,
			"0.001": 15.4970697007,
			"0.002": 15.7555777354,
			"0.003": 14.558565004,
			"0.004": 9.89394663835,
			"0.005": 7.86366109762,
			"0.006": 5.6523437653,
			"0.007": 6.0829750096,
			"0.008": 6.29830685295,
			"0.009": 6.20912293867,
			"0.01": 9.90413882332,
			"0.011": 11.7505084145,
			"0.012": 5.47122048268,
			"0.013": 0.026337163699,
			"0.014": 0.0,
			"0.015": 0.0,
			"0.016": 0.0,
			"0.017": 0.0,
			"0.018": 0.0,
			"0.019": 0.0,
			"0.02": 0.0,
			"0.021": 0.0,
			"0.022": 0.0,
			"0.023": 0.0,
			"0.024": 0.0,
			"0.0": 0.0
		}
	}
}
