{
	 "smiles": "CC1=CC=C(COC2=CC(N)=CC=C2)C=C1", 
	 "Tm": 355.15, 
	 "num_atms": 31, 
	 "gaussian": { 
		 "optdone": 1, 
		 "sigma_profile": "yes", 
		 "theory": "DFT", 
		 "functional": "B3LYP", 
		 "basiset": "6-31G**", 
		 "properties": { 
			 "R2extent": 5198.5025, 
			 "electric_dipole_moment_norm": 0.778106888544, 
			 "electric_quadrupole_moment_norm": 12.4862723705, 
			 "total_energy": -672.507550233, 
			 "HOMO_LUMO_gap": 0.19312, 
			 "cosmo_polarized_energy": -11.54, 
			 "cosmo_cavitation_energy": 34.41, 
			 "cosmo_dispersion_energy": -24.65, 
			 "cosmo_repulsion_energy": 1.94, 
			 "cosmo_total_nonelectrostatic_energy": 11.7, 
			 "SMD_solvation_energy": 5.89 
		},
		"coords": [
			{
				"x": -4.0289006204,
				"y": -3.2443147795,
				"z": -1.1890960981,
				"element": "C" 
			},
			{
				"x": -2.9992750979,
				"y": -2.5489467249,
				"z": -0.3295265379,
				"element": "C" 
			},
			{
				"x": -1.7125967937,
				"y": -2.2826758661,
				"z": -0.8186943793,
				"element": "C" 
			},
			{
				"x": -0.7664858172,
				"y": -1.6172490203,
				"z": -0.0416687655,
				"element": "C" 
			},
			{
				"x": -1.0832814524,
				"y": -1.1910175132,
				"z": 1.252818609,
				"element": "C" 
			},
			{
				"x": -0.0441519492,
				"y": -0.5231212314,
				"z": 2.1329598266,
				"element": "C" 
			},
			{
				"x": 0.9482363884,
				"y": 0.2073218475,
				"z": 1.4183869091,
				"element": "O" 
			},
			{
				"x": 0.6512671301,
				"y": 1.466044448,
				"z": 0.9581813514,
				"element": "C" 
			},
			{
				"x": 1.7374508596,
				"y": 2.1612395218,
				"z": 0.4161471236,
				"element": "C" 
			},
			{
				"x": 1.5757714488,
				"y": 3.4595454934,
				"z": -0.0808361159,
				"element": "C" 
			},
			{
				"x": 2.6492583718,
				"y": 4.1308336868,
				"z": -0.6733553856,
				"element": "N" 
			},
			{
				"x": 0.3031402031,
				"y": 4.0596339153,
				"z": -0.0219150205,
				"element": "C" 
			},
			{
				"x": -0.7655457081,
				"y": 3.3544621448,
				"z": 0.5180222997,
				"element": "C" 
			},
			{
				"x": -0.6172215882,
				"y": 2.0551809299,
				"z": 1.0132514609,
				"element": "C" 
			},
			{
				"x": -2.3652590877,
				"y": -1.4507925506,
				"z": 1.7474365435,
				"element": "C" 
			},
			{
				"x": -3.3068804521,
				"y": -2.1247699584,
				"z": 0.9688771434,
				"element": "C" 
			},
			{
				"x": -4.7962953495,
				"y": -3.7316084671,
				"z": -0.5802870958,
				"element": "H" 
			},
			{
				"x": -3.569360452,
				"y": -4.0056406887,
				"z": -1.8273754807,
				"element": "H" 
			},
			{
				"x": -4.5398129636,
				"y": -2.5335722759,
				"z": -1.8509179211,
				"element": "H" 
			},
			{
				"x": -1.4475397266,
				"y": -2.6030349901,
				"z": -1.8236858809,
				"element": "H" 
			},
			{
				"x": 0.223925953,
				"y": -1.4167216717,
				"z": -0.4382603318,
				"element": "H" 
			},
			{
				"x": 0.5280584134,
				"y": -1.2841627748,
				"z": 2.6761049673,
				"element": "H" 
			},
			{
				"x": -0.5282649191,
				"y": 0.1172863949,
				"z": 2.8822666421,
				"element": "H" 
			},
			{
				"x": 2.7061223035,
				"y": 1.6706328864,
				"z": 0.392371686,
				"element": "H" 
			},
			{
				"x": 3.5635436378,
				"y": 3.8158543127,
				"z": -0.3789253465,
				"element": "H" 
			},
			{
				"x": 2.5790415624,
				"y": 5.1390821986,
				"z": -0.6577039925,
				"element": "H" 
			},
			{
				"x": 0.1618271041,
				"y": 5.0655035777,
				"z": -0.4081176669,
				"element": "H" 
			},
			{
				"x": -1.7459990511,
				"y": 3.8217780914,
				"z": 0.5532285427,
				"element": "H" 
			},
			{
				"x": -1.4742352597,
				"y": 1.5191562204,
				"z": 1.3992940792,
				"element": "H" 
			},
			{
				"x": -2.6328960888,
				"y": -1.1269184345,
				"z": 2.7512631626,
				"element": "H" 
			},
			{
				"x": -4.2974409987,
				"y": -2.3174087222,
				"z": 1.3741556717,
				"element": "H" 
			}
		],
		 "valence_orbital": [ 
			{
				"type": "occ",
				"energy": -0.28418,
				"method": "rhf"
			},
			{
				"type": "occ",
				"energy": -0.24564,
				"method": "rhf"
			},
			{
				"type": "occ",
				"energy": -0.23227,
				"method": "rhf"
			},
			{
				"type": "occ",
				"energy": -0.21413,
				"method": "rhf"
			},
			{
				"type": "occ",
				"energy": -0.19374,
				"method": "rhf"
			},
			{
				"type": "unocc",
				"energy": -0.00062,
				"method": "rhf"
			},
			{
				"type": "unocc",
				"energy": 0.00209,
				"method": "rhf"
			},
			{
				"type": "unocc",
				"energy": 0.01748,
				"method": "rhf"
			},
			{
				"type": "unocc",
				"energy": 0.03237,
				"method": "rhf"
			},
			{
				"type": "unocc",
				"energy": 0.08776,
				"method": "rhf"
			}
		],
		"cosmo_sigma_profile": { 
			"-0.025": 0.0,
			"-0.024": 0.0,
			"-0.023": 0.0,
			"-0.022": 0.0,
			"-0.021": 0.0,
			"-0.02": 0.0,
			"-0.019": 0.0,
			"-0.018": 0.0,
			"-0.017": 0.0,
			"-0.016": 0.0,
			"-0.015": 0.0,
			"-0.014": 0.0,
			"-0.013": 0.137836030829,
			"-0.012": 2.23802662596,
			"-0.011": 2.30738837648,
			"-0.01": 2.43188049217,
			"-0.009": 4.27477649593,
			"-0.008": 2.49633049558,
			"-0.007": 2.06151049572,
			"-0.006": 9.93666350216,
			"-0.005": 18.088757101,
			"-0.004": 25.4233628896,
			"-0.003": 25.4876312129,
			"-0.002": 20.6073672213,
			"-0.001": 18.8718557133,
			"0.0": 20.5938678146,
			"0.001": 15.2071106925,
			"0.002": 14.0867567772,
			"0.003": 13.2884880861,
			"0.004": 16.7000765007,
			"0.005": 17.4057853505,
			"0.006": 19.7813261873,
			"0.007": 11.2387378125,
			"0.008": 2.24947111834,
			"0.009": 1.94579173959,
			"0.01": 2.04686032248,
			"0.011": 1.35122484267,
			"0.012": 0.736733939052,
			"0.013": 0.369939114384,
			"0.014": 0.864686671504,
			"0.015": 0.334389180699,
			"0.016": 0.0,
			"0.017": 0.0,
			"0.018": 0.0,
			"0.019": 0.0,
			"0.02": 0.0,
			"0.021": 0.0,
			"0.022": 0.0,
			"0.023": 0.0,
			"0.024": 0.0,
			"0.025": 0.0
		}
	}
}
