{
	 "smiles": "ClC1=CN=CC(Cl)=N1", 
	 "Tm": 328.35, 
	 "num_atms": 10, 
	 "gaussian": { 
		 "optdone": 1, 
		 "sigma_profile": "yes", 
		 "theory": "DFT", 
		 "functional": "B3LYP", 
		 "basiset": "6-31G**", 
		 "properties": { 
			 "R2extent": 1802.0981, 
			 "electric_dipole_moment_norm": 1.42674915455, 
			 "electric_quadrupole_moment_norm": 4.14517625922, 
			 "total_energy": -1183.49933459, 
			 "HOMO_LUMO_gap": 0.20017, 
			 "cosmo_polarized_energy": -5.35, 
			 "cosmo_cavitation_energy": 18.63, 
			 "cosmo_dispersion_energy": -14.39, 
			 "cosmo_repulsion_energy": 1.2, 
			 "cosmo_total_nonelectrostatic_energy": 5.44, 
			 "SMD_solvation_energy": 0.01 
		},
		"coords": [
			{
				"x": 2.4123781892,
				"y": 0.9222640864,
				"z": -0.9188153483,
				"element": "Cl" 
			},
			{
				"x": 1.4853243937,
				"y": -0.3173600892,
				"z": -0.1057538299,
				"element": "C" 
			},
			{
				"x": 1.921578704,
				"y": -0.810358705,
				"z": 1.1299962566,
				"element": "C" 
			},
			{
				"x": 1.2241082112,
				"y": -1.7561670069,
				"z": 1.7616504905,
				"element": "N" 
			},
			{
				"x": 0.1120646072,
				"y": -2.2058843957,
				"z": 1.1776042848,
				"element": "C" 
			},
			{
				"x": -0.2947557122,
				"y": -1.6900540872,
				"z": -0.0588669589,
				"element": "C" 
			},
			{
				"x": -1.7549154618,
				"y": -2.2917994416,
				"z": -0.8091772109,
				"element": "Cl" 
			},
			{
				"x": 0.3847738314,
				"y": -0.7518073254,
				"z": -0.6996245113,
				"element": "N" 
			},
			{
				"x": 2.8276997903,
				"y": -0.4387325516,
				"z": 1.5981992984,
				"element": "H" 
			},
			{
				"x": -0.461456553,
				"y": -2.9755004839,
				"z": 1.6846875291,
				"element": "H" 
			}
		],
		 "valence_orbital": [ 
			{
				"type": "occ",
				"energy": -0.33469,
				"method": "rhf"
			},
			{
				"type": "occ",
				"energy": -0.33003,
				"method": "rhf"
			},
			{
				"type": "occ",
				"energy": -0.3262,
				"method": "rhf"
			},
			{
				"type": "occ",
				"energy": -0.2861,
				"method": "rhf"
			},
			{
				"type": "occ",
				"energy": -0.27755,
				"method": "rhf"
			},
			{
				"type": "unocc",
				"energy": -0.07738,
				"method": "rhf"
			},
			{
				"type": "unocc",
				"energy": -0.05372,
				"method": "rhf"
			},
			{
				"type": "unocc",
				"energy": 0.00669,
				"method": "rhf"
			},
			{
				"type": "unocc",
				"energy": 0.03028,
				"method": "rhf"
			},
			{
				"type": "unocc",
				"energy": 0.09751,
				"method": "rhf"
			}
		],
		"cosmo_sigma_profile": { 
			"-0.025": 0.0,
			"-0.024": 0.0,
			"-0.023": 0.0,
			"-0.022": 0.0,
			"-0.021": 0.0,
			"-0.02": 0.0,
			"-0.019": 0.0,
			"-0.018": 0.0,
			"-0.017": 0.0,
			"-0.016": 0.0,
			"-0.015": 0.0,
			"-0.014": 0.0,
			"-0.013": 0.0,
			"-0.012": 0.0,
			"-0.011": 0.0,
			"-0.01": 0.945375426505,
			"-0.009": 3.72494697097,
			"-0.008": 3.22632536889,
			"-0.007": 3.72504280112,
			"-0.006": 4.50017878146,
			"-0.005": 5.91567599199,
			"-0.004": 10.801795041,
			"-0.003": 15.7807660963,
			"-0.002": 11.8164670916,
			"-0.001": 11.2577609145,
			"0.0": 10.4647443746,
			"0.001": 12.5929485084,
			"0.002": 13.6418040834,
			"0.003": 20.7823325666,
			"0.004": 9.17168302221,
			"0.005": 4.1365040511,
			"0.006": 2.63152513617,
			"0.007": 2.31267009215,
			"0.008": 1.93978835021,
			"0.009": 1.7015226234,
			"0.01": 1.94032762809,
			"0.011": 1.32909986244,
			"0.012": 0.798345029169,
			"0.013": 0.690228060509,
			"0.014": 0.00613919610956,
			"0.015": 0.0,
			"0.016": 0.0,
			"0.017": 0.0,
			"0.018": 0.0,
			"0.019": 0.0,
			"0.02": 0.0,
			"0.021": 0.0,
			"0.022": 0.0,
			"0.023": 0.0,
			"0.024": 0.0,
			"0.025": 0.0
		}
	}
}
