{
	 "smiles": "NC1=CC=C2C=C3C=CC=CC3=CC2=C1", 
	 "Tm": 510.15, 
	 "num_atms": 26, 
	 "gaussian": { 
		 "optdone": 1, 
		 "sigma_profile": "yes", 
		 "theory": "DFT", 
		 "functional": "B3LYP", 
		 "basiset": "6-31G**", 
		 "properties": { 
			 "R2extent": 4251.1392, 
			 "electric_dipole_moment_norm": 2.30462446399, 
			 "electric_quadrupole_moment_norm": 12.5884509663, 
			 "total_energy": -594.892657159, 
			 "HOMO_LUMO_gap": 0.12605, 
			 "cosmo_polarized_energy": -10.68, 
			 "cosmo_cavitation_energy": 29.34, 
			 "cosmo_dispersion_energy": -22.02, 
			 "cosmo_repulsion_energy": 1.67, 
			 "cosmo_total_nonelectrostatic_energy": 8.99, 
			 "SMD_solvation_energy": 4.29 
		},
		"coords": [
			{
				"x": -2.4639899028,
				"y": -0.78217481,
				"z": 2.3481706091,
				"element": "N" 
			},
			{
				"x": -1.3620285527,
				"y": -0.6450454157,
				"z": 1.5036974625,
				"element": "C" 
			},
			{
				"x": -0.9054479662,
				"y": -1.7998713682,
				"z": 0.7832618786,
				"element": "C" 
			},
			{
				"x": 0.1348589004,
				"y": -1.7120350897,
				"z": -0.0971190327,
				"element": "C" 
			},
			{
				"x": 0.8023638,
				"y": -0.470455135,
				"z": -0.3397439912,
				"element": "C" 
			},
			{
				"x": 1.8684041183,
				"y": -0.3574218904,
				"z": -1.2376038038,
				"element": "C" 
			},
			{
				"x": 2.5142023854,
				"y": 0.8654843844,
				"z": -1.466231089,
				"element": "C" 
			},
			{
				"x": 3.6044057232,
				"y": 0.9965964303,
				"z": -2.3807605206,
				"element": "C" 
			},
			{
				"x": 4.215254255,
				"y": 2.2069731664,
				"z": -2.5822361143,
				"element": "C" 
			},
			{
				"x": 3.7690869676,
				"y": 3.3631588674,
				"z": -1.8771717869,
				"element": "C" 
			},
			{
				"x": 2.7266597668,
				"y": 3.2794654459,
				"z": -0.9912722157,
				"element": "C" 
			},
			{
				"x": 2.0610859964,
				"y": 2.0363707967,
				"z": -0.7509306102,
				"element": "C" 
			},
			{
				"x": 0.9927248428,
				"y": 1.9206453304,
				"z": 0.1485196743,
				"element": "C" 
			},
			{
				"x": 0.3451183848,
				"y": 0.6981986799,
				"z": 0.3777383671,
				"element": "C" 
			},
			{
				"x": -0.7380959953,
				"y": 0.5671661349,
				"z": 1.2955862557,
				"element": "C" 
			},
			{
				"x": -2.5806621715,
				"y": -1.6976852198,
				"z": 2.7603801632,
				"element": "H" 
			},
			{
				"x": -2.5792644164,
				"y": -0.0437873629,
				"z": 3.0287650335,
				"element": "H" 
			},
			{
				"x": -1.4089472317,
				"y": -2.750024436,
				"z": 0.9448337446,
				"element": "H" 
			},
			{
				"x": 0.4704762998,
				"y": -2.5966084268,
				"z": -0.6324271522,
				"element": "H" 
			},
			{
				"x": 2.2052517294,
				"y": -1.2425994958,
				"z": -1.7733334199,
				"element": "H" 
			},
			{
				"x": 3.9408584984,
				"y": 0.112084448,
				"z": -2.9161729368,
				"element": "H" 
			},
			{
				"x": 5.0428700717,
				"y": 2.2925934313,
				"z": -3.2804445433,
				"element": "H" 
			},
			{
				"x": 4.2633260299,
				"y": 4.3154506994,
				"z": -2.0478936476,
				"element": "H" 
			},
			{
				"x": 2.3868460754,
				"y": 4.1615398164,
				"z": -0.454220465,
				"element": "H" 
			},
			{
				"x": 0.6562313163,
				"y": 2.8061138394,
				"z": 0.6834755563,
				"element": "H" 
			},
			{
				"x": -1.073588925,
				"y": 1.4503671795,
				"z": 1.8348325842,
				"element": "H" 
			}
		],
		 "valence_orbital": [ 
			{
				"type": "occ",
				"energy": -0.28979,
				"method": "rhf"
			},
			{
				"type": "occ",
				"energy": -0.27057,
				"method": "rhf"
			},
			{
				"type": "occ",
				"energy": -0.24438,
				"method": "rhf"
			},
			{
				"type": "occ",
				"energy": -0.21404,
				"method": "rhf"
			},
			{
				"type": "occ",
				"energy": -0.17806,
				"method": "rhf"
			},
			{
				"type": "unocc",
				"energy": -0.05201,
				"method": "rhf"
			},
			{
				"type": "unocc",
				"energy": -0.00129,
				"method": "rhf"
			},
			{
				"type": "unocc",
				"energy": 0.01552,
				"method": "rhf"
			},
			{
				"type": "unocc",
				"energy": 0.0515,
				"method": "rhf"
			},
			{
				"type": "unocc",
				"energy": 0.07122,
				"method": "rhf"
			}
		],
		"cosmo_sigma_profile": { 
			"-0.025": 0.0,
			"-0.024": 0.0,
			"-0.023": 0.0,
			"-0.022": 0.0,
			"-0.021": 0.0,
			"-0.02": 0.0,
			"-0.019": 0.0,
			"-0.018": 0.0,
			"-0.017": 0.0,
			"-0.016": 0.0,
			"-0.015": 0.0,
			"-0.014": 0.0,
			"-0.013": 0.431723330293,
			"-0.012": 2.63956395489,
			"-0.011": 3.07401206913,
			"-0.01": 2.98501770857,
			"-0.009": 2.81912413299,
			"-0.008": 2.63059980116,
			"-0.007": 4.0117865028,
			"-0.006": 9.60296905722,
			"-0.005": 22.0242131241,
			"-0.004": 17.5130521353,
			"-0.003": 16.6918351286,
			"-0.002": 12.3435604377,
			"-0.001": 11.0748105457,
			"0.0": 10.2893668406,
			"0.001": 10.4122675917,
			"0.002": 11.8124937194,
			"0.003": 13.0288441614,
			"0.004": 26.6623964912,
			"0.005": 35.9865736691,
			"0.006": 12.6553926224,
			"0.007": 1.09907552995,
			"0.008": 0.484957580144,
			"0.009": 0.921806091688,
			"0.01": 0.994055618741,
			"0.011": 0.635506070506,
			"0.012": 0.645006379485,
			"0.013": 0.517047475565,
			"0.014": 0.626964485691,
			"0.015": 0.0166525289806,
			"0.016": 0.0,
			"0.017": 0.0,
			"0.018": 0.0,
			"0.019": 0.0,
			"0.02": 0.0,
			"0.021": 0.0,
			"0.022": 0.0,
			"0.023": 0.0,
			"0.024": 0.0,
			"0.025": 0.0
		}
	}
}
