{
	 "smiles": "OC(=O)CCSC1=CC2=C(OCCO2)C=C1", 
	 "Tm": 361.15, 
	 "num_atms": 28, 
	 "gaussian": { 
		 "optdone": 1, 
		 "sigma_profile": "yes", 
		 "theory": "DFT", 
		 "functional": "B3LYP", 
		 "basiset": "6-31G**", 
		 "properties": { 
			 "R2extent": 6074.6733, 
			 "electric_dipole_moment_norm": 4.55771174385, 
			 "electric_quadrupole_moment_norm": 17.4517739336, 
			 "total_energy": -1125.48128992, 
			 "HOMO_LUMO_gap": 0.20428, 
			 "cosmo_polarized_energy": -15.61, 
			 "cosmo_cavitation_energy": 33.58, 
			 "cosmo_dispersion_energy": -24.46, 
			 "cosmo_repulsion_energy": 1.9, 
			 "cosmo_total_nonelectrostatic_energy": 11.02, 
			 "SMD_solvation_energy": 6.6 
		},
		"coords": [
			{
				"x": -4.609466186,
				"y": 2.3674481054,
				"z": -1.273622867,
				"element": "O" 
			},
			{
				"x": -4.0266039209,
				"y": 3.2001760917,
				"z": -0.3791092045,
				"element": "C" 
			},
			{
				"x": -4.1959695734,
				"y": 4.3992694461,
				"z": -0.3954118674,
				"element": "O" 
			},
			{
				"x": -3.2007278381,
				"y": 2.4422015462,
				"z": 0.6409324059,
				"element": "C" 
			},
			{
				"x": -2.0680236605,
				"y": 3.2903702755,
				"z": 1.2137025623,
				"element": "C" 
			},
			{
				"x": -0.6922427636,
				"y": 3.6078977468,
				"z": 0.024804356,
				"element": "S" 
			},
			{
				"x": 0.0746431615,
				"y": 1.9869510364,
				"z": -0.0530377342,
				"element": "C" 
			},
			{
				"x": -0.1838439601,
				"y": 1.1427454441,
				"z": -1.1391188366,
				"element": "C" 
			},
			{
				"x": 0.4365615479,
				"y": -0.1040680059,
				"z": -1.2289193527,
				"element": "C" 
			},
			{
				"x": 1.31457038,
				"y": -0.5242630984,
				"z": -0.2148979221,
				"element": "C" 
			},
			{
				"x": 1.930977114,
				"y": -1.7491874471,
				"z": -0.2503344058,
				"element": "O" 
			},
			{
				"x": 1.3579466137,
				"y": -2.6611036153,
				"z": -1.1887542637,
				"element": "C" 
			},
			{
				"x": 1.0911898504,
				"y": -1.9570641324,
				"z": -2.5092852133,
				"element": "C" 
			},
			{
				"x": 0.158815285,
				"y": -0.8929174878,
				"z": -2.3187471332,
				"element": "O" 
			},
			{
				"x": 1.5847774544,
				"y": 0.3247853634,
				"z": 0.8603326506,
				"element": "C" 
			},
			{
				"x": 0.9794696585,
				"y": 1.5757640231,
				"z": 0.9384805709,
				"element": "C" 
			},
			{
				"x": -5.1413845446,
				"y": 2.9323197258,
				"z": -1.8597198912,
				"element": "H" 
			},
			{
				"x": -3.8881488998,
				"y": 2.1528589985,
				"z": 1.4492744562,
				"element": "H" 
			},
			{
				"x": -2.8295190365,
				"y": 1.5132259015,
				"z": 0.200659382,
				"element": "H" 
			},
			{
				"x": -1.6518834366,
				"y": 2.8263573714,
				"z": 2.1110958693,
				"element": "H" 
			},
			{
				"x": -2.4433223374,
				"y": 4.2828136636,
				"z": 1.4752814792,
				"element": "H" 
			},
			{
				"x": -0.858500718,
				"y": 1.4445635013,
				"z": -1.9329131459,
				"element": "H" 
			},
			{
				"x": 0.420450401,
				"y": -3.0689603506,
				"z": -0.7868976301,
				"element": "H" 
			},
			{
				"x": 2.0777159894,
				"y": -3.4746319238,
				"z": -1.3091356716,
				"element": "H" 
			},
			{
				"x": 0.6421619198,
				"y": -2.6365713868,
				"z": -3.2379361219,
				"element": "H" 
			},
			{
				"x": 2.0308687211,
				"y": -1.562258897,
				"z": -2.9192442606,
				"element": "H" 
			},
			{
				"x": 2.2775013174,
				"y": -0.0169921015,
				"z": 1.6228024334,
				"element": "H" 
			},
			{
				"x": 1.2064874615,
				"y": 2.2375702057,
				"z": 1.7677193558,
				"element": "H" 
			}
		],
		 "valence_orbital": [ 
			{
				"type": "occ",
				"energy": -0.30094,
				"method": "rhf"
			},
			{
				"type": "occ",
				"energy": -0.27447,
				"method": "rhf"
			},
			{
				"type": "occ",
				"energy": -0.24105,
				"method": "rhf"
			},
			{
				"type": "occ",
				"energy": -0.22657,
				"method": "rhf"
			},
			{
				"type": "occ",
				"energy": -0.21441,
				"method": "rhf"
			},
			{
				"type": "unocc",
				"energy": -0.01013,
				"method": "rhf"
			},
			{
				"type": "unocc",
				"energy": -0.00082,
				"method": "rhf"
			},
			{
				"type": "unocc",
				"energy": 0.01043,
				"method": "rhf"
			},
			{
				"type": "unocc",
				"energy": 0.05487,
				"method": "rhf"
			},
			{
				"type": "unocc",
				"energy": 0.07491,
				"method": "rhf"
			}
		],
		"cosmo_sigma_profile": { 
			"-0.025": 0.0,
			"-0.024": 0.0,
			"-0.023": 0.0,
			"-0.022": 0.0,
			"-0.021": 0.0,
			"-0.02": 0.0,
			"-0.019": 0.0298014864782,
			"-0.018": 0.662535938986,
			"-0.017": 1.09994614694,
			"-0.016": 1.15239630349,
			"-0.015": 0.360475088109,
			"-0.014": 0.292296778081,
			"-0.013": 0.207990013919,
			"-0.012": 1.00306850088,
			"-0.011": 1.46934864567,
			"-0.01": 0.7234782803,
			"-0.009": 0.409401512703,
			"-0.008": 1.42320478072,
			"-0.007": 11.1540175251,
			"-0.006": 21.0137724424,
			"-0.005": 21.4813702877,
			"-0.004": 22.0554010544,
			"-0.003": 19.9624365675,
			"-0.002": 17.3321095228,
			"-0.001": 12.7245587257,
			"0.0": 10.8470370449,
			"0.001": 13.3676736483,
			"0.002": 16.0707688221,
			"0.003": 19.0853782526,
			"0.004": 16.2475360245,
			"0.005": 11.5660551,
			"0.006": 9.19422513948,
			"0.007": 7.14953875449,
			"0.008": 7.92034055026,
			"0.009": 7.88674089325,
			"0.01": 5.93010036494,
			"0.011": 3.87310657635,
			"0.012": 4.00150923051,
			"0.013": 0.065331510539,
			"0.014": 0.0,
			"0.015": 0.0,
			"0.016": 0.0,
			"0.017": 0.0,
			"0.018": 0.0,
			"0.019": 0.0,
			"0.02": 0.0,
			"0.021": 0.0,
			"0.022": 0.0,
			"0.023": 0.0,
			"0.024": 0.0,
			"0.025": 0.0
		}
	}
}
