{
	 "smiles": "COC1=CC=C(C=C1)C(=O)C=C1NC(=O)CS1", 
	 "Tm": 484.15, 
	 "num_atms": 28, 
	 "gaussian": { 
		 "optdone": 1, 
		 "sigma_profile": "yes", 
		 "theory": "DFT", 
		 "functional": "B3LYP", 
		 "basiset": "6-31G**", 
		 "properties": { 
			 "R2extent": 5914.5255, 
			 "electric_dipole_moment_norm": 4.32744383788, 
			 "electric_quadrupole_moment_norm": 13.3417167407, 
			 "total_energy": -1142.50133143, 
			 "HOMO_LUMO_gap": 0.16903, 
			 "cosmo_polarized_energy": -20.13, 
			 "cosmo_cavitation_energy": 34.3, 
			 "cosmo_dispersion_energy": -25.1, 
			 "cosmo_repulsion_energy": 1.92, 
			 "cosmo_total_nonelectrostatic_energy": 11.12, 
			 "SMD_solvation_energy": 7.6 
		},
		"coords": [
			{
				"x": -3.9173756934,
				"y": -2.4599351849,
				"z": 0.3567017249,
				"element": "C" 
			},
			{
				"x": -2.6331973324,
				"y": -2.836944579,
				"z": 0.8326279978,
				"element": "O" 
			},
			{
				"x": -1.6572323453,
				"y": -1.8917684253,
				"z": 0.8851800235,
				"element": "C" 
			},
			{
				"x": -0.4116194741,
				"y": -2.3321313986,
				"z": 1.3704045664,
				"element": "C" 
			},
			{
				"x": 0.6451184383,
				"y": -1.4454128045,
				"z": 1.4701199662,
				"element": "C" 
			},
			{
				"x": 0.5052891409,
				"y": -0.1051296288,
				"z": 1.0602450304,
				"element": "C" 
			},
			{
				"x": -0.741370233,
				"y": 0.3232500804,
				"z": 0.5896528911,
				"element": "C" 
			},
			{
				"x": -1.8236222561,
				"y": -0.5542816723,
				"z": 0.504126922,
				"element": "C" 
			},
			{
				"x": 1.6526584797,
				"y": 0.8268478943,
				"z": 1.2642721434,
				"element": "C" 
			},
			{
				"x": 2.4580427737,
				"y": 0.6262564722,
				"z": 2.1719878305,
				"element": "O" 
			},
			{
				"x": 1.8433248702,
				"y": 2.0197743509,
				"z": 0.4097331736,
				"element": "C" 
			},
			{
				"x": 1.6461720978,
				"y": 2.1617314092,
				"z": -0.9216699849,
				"element": "C" 
			},
			{
				"x": 2.0544485697,
				"y": 3.2990270762,
				"z": -1.6142935941,
				"element": "N" 
			},
			{
				"x": 1.9344793324,
				"y": 3.3619952313,
				"z": -2.9865719932,
				"element": "C" 
			},
			{
				"x": 2.2674586473,
				"y": 4.3087543915,
				"z": -3.6687874469,
				"element": "O" 
			},
			{
				"x": 1.3337733877,
				"y": 2.0626092735,
				"z": -3.5160253824,
				"element": "C" 
			},
			{
				"x": 0.9344146719,
				"y": 0.9987557835,
				"z": -2.0750068041,
				"element": "S" 
			},
			{
				"x": -4.372224083,
				"y": -1.6885132149,
				"z": 0.9906560839,
				"element": "H" 
			},
			{
				"x": -3.8733767043,
				"y": -2.0961169313,
				"z": -0.6775320126,
				"element": "H" 
			},
			{
				"x": -4.5285490935,
				"y": -3.3626298152,
				"z": 0.3949258166,
				"element": "H" 
			},
			{
				"x": -0.3121002062,
				"y": -3.3709303361,
				"z": 1.6675500675,
				"element": "H" 
			},
			{
				"x": 1.601778516,
				"y": -1.7662659261,
				"z": 1.8687809136,
				"element": "H" 
			},
			{
				"x": -0.8819221263,
				"y": 1.3627162974,
				"z": 0.3112046787,
				"element": "H" 
			},
			{
				"x": -2.7795793866,
				"y": -0.1883497559,
				"z": 0.1496138478,
				"element": "H" 
			},
			{
				"x": 2.4015387409,
				"y": 2.8099982848,
				"z": 0.9071847832,
				"element": "H" 
			},
			{
				"x": 2.477338286,
				"y": 4.0783742129,
				"z": -1.1264676865,
				"element": "H" 
			},
			{
				"x": 0.4343528439,
				"y": 2.2850690487,
				"z": -4.0940057654,
				"element": "H" 
			},
			{
				"x": 2.0580801382,
				"y": 1.5741498662,
				"z": -4.1730077909,
				"element": "H" 
			}
		],
		 "valence_orbital": [ 
			{
				"type": "occ",
				"energy": -0.27655,
				"method": "rhf"
			},
			{
				"type": "occ",
				"energy": -0.25846,
				"method": "rhf"
			},
			{
				"type": "occ",
				"energy": -0.24565,
				"method": "rhf"
			},
			{
				"type": "occ",
				"energy": -0.2285,
				"method": "rhf"
			},
			{
				"type": "occ",
				"energy": -0.22622,
				"method": "rhf"
			},
			{
				"type": "unocc",
				"energy": -0.05719,
				"method": "rhf"
			},
			{
				"type": "unocc",
				"energy": -0.01415,
				"method": "rhf"
			},
			{
				"type": "unocc",
				"energy": -0.0123,
				"method": "rhf"
			},
			{
				"type": "unocc",
				"energy": 0.00983,
				"method": "rhf"
			},
			{
				"type": "unocc",
				"energy": 0.02128,
				"method": "rhf"
			}
		],
		"cosmo_sigma_profile": { 
			"-0.025": 0.0,
			"-0.024": 0.0,
			"-0.023": 0.0,
			"-0.022": 0.0,
			"-0.021": 0.0,
			"-0.02": 0.0,
			"-0.019": 0.0,
			"-0.018": 0.0,
			"-0.017": 0.662403454183,
			"-0.016": 1.47010944564,
			"-0.015": 1.30097220195,
			"-0.014": 1.08594263876,
			"-0.013": 1.18574736422,
			"-0.012": 1.27006958026,
			"-0.011": 0.887502976636,
			"-0.01": 0.954879434426,
			"-0.009": 4.24271580208,
			"-0.008": 6.27294297389,
			"-0.007": 9.84791165504,
			"-0.006": 18.2379634937,
			"-0.005": 22.3268889176,
			"-0.004": 20.4764185745,
			"-0.003": 17.4989735691,
			"-0.002": 14.9059638669,
			"-0.001": 16.612848139,
			"0.0": 13.9636105736,
			"0.001": 13.5511147981,
			"0.002": 17.0083455638,
			"0.003": 17.9536829422,
			"0.004": 19.2373548732,
			"0.005": 9.38659087024,
			"0.006": 5.40084683821,
			"0.007": 4.57021637365,
			"0.008": 4.5423748339,
			"0.009": 4.184435891,
			"0.01": 4.58944818216,
			"0.011": 6.10801299966,
			"0.012": 8.18395881457,
			"0.013": 5.73959770639,
			"0.014": 1.7747847816,
			"0.015": 0.0951086667595,
			"0.016": 0.0,
			"0.017": 0.0,
			"0.018": 0.0,
			"0.019": 0.0,
			"0.02": 0.0,
			"0.021": 0.0,
			"0.022": 0.0,
			"0.023": 0.0,
			"0.024": 0.0,
			"0.025": 0.0
		}
	}
}
