{
	 "smiles": "OC(=O)COC1=C2C=CC=CC2=C(Cl)C=C1", 
	 "Tm": 436.15, 
	 "num_atms": 25, 
	 "gaussian": { 
		 "optdone": 1, 
		 "sigma_profile": "yes", 
		 "theory": "DFT", 
		 "functional": "B3LYP", 
		 "basiset": "6-31G**", 
		 "properties": { 
			 "R2extent": 4792.8348, 
			 "electric_dipole_moment_norm": 3.45895663315, 
			 "electric_quadrupole_moment_norm": 19.7099626816, 
			 "total_energy": -1148.57288416, 
			 "HOMO_LUMO_gap": 0.16667, 
			 "cosmo_polarized_energy": -13.93, 
			 "cosmo_cavitation_energy": 31.27, 
			 "cosmo_dispersion_energy": -22.95, 
			 "cosmo_repulsion_energy": 1.79, 
			 "cosmo_total_nonelectrostatic_energy": 10.11, 
			 "SMD_solvation_energy": 6.25 
		},
		"coords": [
			{
				"x": -0.1947719198,
				"y": -1.373268324,
				"z": 5.2766605878,
				"element": "O" 
			},
			{
				"x": 0.2570279698,
				"y": -0.8602978713,
				"z": 4.1076448467,
				"element": "C" 
			},
			{
				"x": 0.726762721,
				"y": 0.2434458628,
				"z": 3.9906863414,
				"element": "O" 
			},
			{
				"x": 0.1033201793,
				"y": -1.8961000366,
				"z": 2.997772831,
				"element": "C" 
			},
			{
				"x": 0.4878796444,
				"y": -1.4062750856,
				"z": 1.7386264169,
				"element": "O" 
			},
			{
				"x": -0.3702298051,
				"y": -0.5947959944,
				"z": 1.0429727517,
				"element": "C" 
			},
			{
				"x": 0.0933441712,
				"y": -0.2122241656,
				"z": -0.2562991818,
				"element": "C" 
			},
			{
				"x": 1.3570138574,
				"y": -0.6336303169,
				"z": -0.7446395174,
				"element": "C" 
			},
			{
				"x": 1.7885969181,
				"y": -0.2582901174,
				"z": -1.9973844782,
				"element": "C" 
			},
			{
				"x": 0.9722493399,
				"y": 0.5551131176,
				"z": -2.8149273498,
				"element": "C" 
			},
			{
				"x": -0.2594806232,
				"y": 0.9810445309,
				"z": -2.3695342537,
				"element": "C" 
			},
			{
				"x": -0.7368511799,
				"y": 0.6146884713,
				"z": -1.0838604898,
				"element": "C" 
			},
			{
				"x": -2.0018380073,
				"y": 1.0220614283,
				"z": -0.5643593422,
				"element": "C" 
			},
			{
				"x": -3.0686902612,
				"y": 2.0365748022,
				"z": -1.5340517039,
				"element": "Cl" 
			},
			{
				"x": -2.4168549282,
				"y": 0.6441757588,
				"z": 0.6876116094,
				"element": "C" 
			},
			{
				"x": -1.5976653613,
				"y": -0.1702367433,
				"z": 1.5036312798,
				"element": "C" 
			},
			{
				"x": -0.0458559562,
				"y": -0.6922364752,
				"z": 5.9542885021,
				"element": "H" 
			},
			{
				"x": -0.9200671064,
				"y": -2.2921544203,
				"z": 3.000953227,
				"element": "H" 
			},
			{
				"x": 0.7756762581,
				"y": -2.7301878543,
				"z": 3.222453758,
				"element": "H" 
			},
			{
				"x": 1.976243795,
				"y": -1.2543422587,
				"z": -0.10826512,
				"element": "H" 
			},
			{
				"x": 2.7588670118,
				"y": -0.5865041123,
				"z": -2.3581998103,
				"element": "H" 
			},
			{
				"x": 1.3186388923,
				"y": 0.8478720411,
				"z": -3.8018251127,
				"element": "H" 
			},
			{
				"x": -0.8830453933,
				"y": 1.6057544129,
				"z": -2.9982462721,
				"element": "H" 
			},
			{
				"x": -3.3801591482,
				"y": 0.974058754,
				"z": 1.059924874,
				"element": "H" 
			},
			{
				"x": -1.9569110684,
				"y": -0.432745404,
				"z": 2.4909656061,
				"element": "H" 
			}
		],
		 "valence_orbital": [ 
			{
				"type": "occ",
				"energy": -0.30628,
				"method": "rhf"
			},
			{
				"type": "occ",
				"energy": -0.29101,
				"method": "rhf"
			},
			{
				"type": "occ",
				"energy": -0.26409,
				"method": "rhf"
			},
			{
				"type": "occ",
				"energy": -0.25044,
				"method": "rhf"
			},
			{
				"type": "occ",
				"energy": -0.20658,
				"method": "rhf"
			},
			{
				"type": "unocc",
				"energy": -0.03991,
				"method": "rhf"
			},
			{
				"type": "unocc",
				"energy": -0.01764,
				"method": "rhf"
			},
			{
				"type": "unocc",
				"energy": -0.00565,
				"method": "rhf"
			},
			{
				"type": "unocc",
				"energy": 0.03545,
				"method": "rhf"
			},
			{
				"type": "unocc",
				"energy": 0.03697,
				"method": "rhf"
			}
		],
		"cosmo_sigma_profile": { 
			"-0.025": 0.0,
			"-0.024": 0.0,
			"-0.023": 0.0,
			"-0.022": 0.0,
			"-0.021": 0.0,
			"-0.02": 0.0,
			"-0.019": 0.350115673872,
			"-0.018": 0.901127646134,
			"-0.017": 1.31418630027,
			"-0.016": 0.592672267585,
			"-0.015": 0.968128111334,
			"-0.014": 0.298924014927,
			"-0.013": 0.232031601148,
			"-0.012": 1.18601808639,
			"-0.011": 0.959688277946,
			"-0.01": 2.16916435514,
			"-0.009": 4.72520360573,
			"-0.008": 5.42621168137,
			"-0.007": 8.60825537914,
			"-0.006": 13.6378915097,
			"-0.005": 13.5536992925,
			"-0.004": 14.2807780032,
			"-0.003": 10.8514034982,
			"-0.002": 11.108564224,
			"-0.001": 11.733480717,
			"0.0": 13.201145779,
			"0.001": 17.6082003374,
			"0.002": 27.7852648082,
			"0.003": 29.9999614537,
			"0.004": 23.1754461725,
			"0.005": 13.8372255556,
			"0.006": 3.96841281075,
			"0.007": 3.88989991202,
			"0.008": 3.32882879562,
			"0.009": 3.44424517857,
			"0.01": 3.027556302,
			"0.011": 5.64078241248,
			"0.012": 1.12361732981,
			"0.013": 0.0,
			"0.014": 0.0,
			"0.015": 0.0,
			"0.016": 0.0,
			"0.017": 0.0,
			"0.018": 0.0,
			"0.019": 0.0,
			"0.02": 0.0,
			"0.021": 0.0,
			"0.022": 0.0,
			"0.023": 0.0,
			"0.024": 0.0,
			"0.025": 0.0
		}
	}
}
