{
	 "smiles": "NC1=C(C=C(O)C=C1)C(=O)NCC1=CC=CC=C1", 
	 "Tm": 428.15, 
	 "num_atms": 32, 
	 "gaussian": { 
		 "optdone": 1, 
		 "sigma_profile": "yes", 
		 "theory": "DFT", 
		 "functional": "B3LYP", 
		 "basiset": "6-31G**", 
		 "properties": { 
			 "R2extent": 6276.5227, 
			 "electric_dipole_moment_norm": 4.19758540235, 
			 "electric_quadrupole_moment_norm": 7.66297467633, 
			 "total_energy": -801.886896444, 
			 "HOMO_LUMO_gap": 0.1617, 
			 "cosmo_polarized_energy": -19.2, 
			 "cosmo_cavitation_energy": 35.69, 
			 "cosmo_dispersion_energy": -25.32, 
			 "cosmo_repulsion_energy": 1.96, 
			 "cosmo_total_nonelectrostatic_energy": 12.33, 
			 "SMD_solvation_energy": 6.64 
		},
		"coords": [
			{
				"x": 1.2492028151,
				"y": 0.9029225905,
				"z": -0.6689563289,
				"element": "N" 
			},
			{
				"x": 0.962657277,
				"y": 0.7656513701,
				"z": -2.0250733841,
				"element": "C" 
			},
			{
				"x": -0.3558201636,
				"y": 0.789056657,
				"z": -2.5370414518,
				"element": "C" 
			},
			{
				"x": -0.5658546688,
				"y": 0.8056797311,
				"z": -3.9272656494,
				"element": "C" 
			},
			{
				"x": 0.4944900576,
				"y": 0.7279846741,
				"z": -4.8204890165,
				"element": "C" 
			},
			{
				"x": 0.3348215055,
				"y": 0.7139126972,
				"z": -6.1829834543,
				"element": "O" 
			},
			{
				"x": 1.8007968797,
				"y": 0.6590926933,
				"z": -4.3183249523,
				"element": "C" 
			},
			{
				"x": 2.0239421875,
				"y": 0.6900493521,
				"z": -2.9502886314,
				"element": "C" 
			},
			{
				"x": -1.5908125769,
				"y": 0.8903156865,
				"z": -1.6937764245,
				"element": "C" 
			},
			{
				"x": -2.5144350477,
				"y": 1.6393136146,
				"z": -1.9881701099,
				"element": "O" 
			},
			{
				"x": -1.6684611676,
				"y": 0.1168956526,
				"z": -0.5351606517,
				"element": "N" 
			},
			{
				"x": -1.1676790166,
				"y": -1.2530757495,
				"z": -0.4287738592,
				"element": "C" 
			},
			{
				"x": -0.7930036279,
				"y": -1.6594542951,
				"z": 0.9876237502,
				"element": "C" 
			},
			{
				"x": -0.740846939,
				"y": -0.7458943756,
				"z": 2.0454689656,
				"element": "C" 
			},
			{
				"x": -0.3720598565,
				"y": -1.162591653,
				"z": 3.3283935281,
				"element": "C" 
			},
			{
				"x": -0.0511205698,
				"y": -2.4972866144,
				"z": 3.5691575192,
				"element": "C" 
			},
			{
				"x": -0.1050300335,
				"y": -3.4181385228,
				"z": 2.5186390949,
				"element": "C" 
			},
			{
				"x": -0.4760272162,
				"y": -3.0019650075,
				"z": 1.2419615174,
				"element": "C" 
			},
			{
				"x": 2.1273928681,
				"y": 0.5138365628,
				"z": -0.3593971105,
				"element": "H" 
			},
			{
				"x": 0.4886312005,
				"y": 0.7538971476,
				"z": -0.0226842533,
				"element": "H" 
			},
			{
				"x": -1.5903694955,
				"y": 0.877956709,
				"z": -4.2833131807,
				"element": "H" 
			},
			{
				"x": -0.6044183297,
				"y": 0.8065104614,
				"z": -6.3874776603,
				"element": "H" 
			},
			{
				"x": 2.6302370267,
				"y": 0.5974017706,
				"z": -5.0154656605,
				"element": "H" 
			},
			{
				"x": 3.0442679404,
				"y": 0.6761226023,
				"z": -2.5752480856,
				"element": "H" 
			},
			{
				"x": -2.5703610097,
				"y": 0.2681058266,
				"z": -0.0937422155,
				"element": "H" 
			},
			{
				"x": -1.9121195813,
				"y": -1.964277563,
				"z": -0.8175751107,
				"element": "H" 
			},
			{
				"x": -0.2955274331,
				"y": -1.3426600071,
				"z": -1.0821419296,
				"element": "H" 
			},
			{
				"x": -0.9978221585,
				"y": 0.2943272728,
				"z": 1.8690493784,
				"element": "H" 
			},
			{
				"x": -0.3399128334,
				"y": -0.4393374791,
				"z": 4.1383764537,
				"element": "H" 
			},
			{
				"x": 0.2340236708,
				"y": -2.8211515503,
				"z": 4.5657866657,
				"element": "H" 
			},
			{
				"x": 0.1388755777,
				"y": -4.4617880716,
				"z": 2.696030283,
				"element": "H" 
			},
			{
				"x": -0.5210572815,
				"y": -3.7260121831,
				"z": 0.4311619646,
				"element": "H" 
			}
		],
		 "valence_orbital": [ 
			{
				"type": "occ",
				"energy": -0.26071,
				"method": "rhf"
			},
			{
				"type": "occ",
				"energy": -0.25985,
				"method": "rhf"
			},
			{
				"type": "occ",
				"energy": -0.24888,
				"method": "rhf"
			},
			{
				"type": "occ",
				"energy": -0.24072,
				"method": "rhf"
			},
			{
				"type": "occ",
				"energy": -0.18863,
				"method": "rhf"
			},
			{
				"type": "unocc",
				"energy": -0.02693,
				"method": "rhf"
			},
			{
				"type": "unocc",
				"energy": -0.01455,
				"method": "rhf"
			},
			{
				"type": "unocc",
				"energy": -0.00918,
				"method": "rhf"
			},
			{
				"type": "unocc",
				"energy": 0.01783,
				"method": "rhf"
			},
			{
				"type": "unocc",
				"energy": 0.05148,
				"method": "rhf"
			}
		],
		"cosmo_sigma_profile": { 
			"-0.025": 0.0,
			"-0.024": 0.0,
			"-0.023": 0.0,
			"-0.022": 0.0,
			"-0.021": 0.0,
			"-0.02": 0.0,
			"-0.019": 0.0,
			"-0.018": 0.194791170415,
			"-0.017": 0.872363706476,
			"-0.016": 1.17125358338,
			"-0.015": 1.07109609075,
			"-0.014": 1.10291083162,
			"-0.013": 1.68523439711,
			"-0.012": 3.37513510381,
			"-0.011": 2.80611582277,
			"-0.01": 3.04252324148,
			"-0.009": 3.93647582222,
			"-0.008": 3.41782348985,
			"-0.007": 4.50789425528,
			"-0.006": 13.9118207008,
			"-0.005": 25.5583298834,
			"-0.004": 23.3170611579,
			"-0.003": 20.3625431092,
			"-0.002": 17.893337548,
			"-0.001": 14.6198304508,
			"0.0": 13.0682905524,
			"0.001": 13.2129443094,
			"0.002": 13.8447842062,
			"0.003": 14.0672769302,
			"0.004": 19.8996208785,
			"0.005": 20.178894333,
			"0.006": 12.7452081676,
			"0.007": 5.15890624021,
			"0.008": 3.35251203207,
			"0.009": 3.69177329746,
			"0.01": 3.59244524617,
			"0.011": 4.67631515661,
			"0.012": 4.28564230865,
			"0.013": 6.30004885747,
			"0.014": 2.70267630742,
			"0.015": 0.161640116268,
			"0.016": 0.0,
			"0.017": 0.0,
			"0.018": 0.0,
			"0.019": 0.0,
			"0.02": 0.0,
			"0.021": 0.0,
			"0.022": 0.0,
			"0.023": 0.0,
			"0.024": 0.0,
			"0.025": 0.0
		}
	}
}
