{
	 "smiles": "C(NC1=NC=NC2=C1N=CN2)C1=CC=CO1", 
	 "Tm": 543.15, 
	 "num_atms": 25, 
	 "gaussian": { 
		 "optdone": 1, 
		 "sigma_profile": "yes", 
		 "theory": "DFT", 
		 "functional": "B3LYP", 
		 "basiset": "6-31G**", 
		 "properties": { 
			 "R2extent": 4077.9255, 
			 "electric_dipole_moment_norm": 2.87982977622, 
			 "electric_quadrupole_moment_norm": 16.9541313788, 
			 "total_energy": -735.456773201, 
			 "HOMO_LUMO_gap": 0.19187, 
			 "cosmo_polarized_energy": -16.02, 
			 "cosmo_cavitation_energy": 29.94, 
			 "cosmo_dispersion_energy": -21.92, 
			 "cosmo_repulsion_energy": 1.69, 
			 "cosmo_total_nonelectrostatic_energy": 9.71, 
			 "SMD_solvation_energy": 1.6 
		},
		"coords": [
			{
				"x": 2.6706580402,
				"y": -0.2568756572,
				"z": -0.4345411448,
				"element": "C" 
			},
			{
				"x": 1.6536597564,
				"y": -0.9584595186,
				"z": -1.2207777824,
				"element": "N" 
			},
			{
				"x": 0.5293717095,
				"y": -0.3927047428,
				"z": -1.7345577011,
				"element": "C" 
			},
			{
				"x": -0.4190807123,
				"y": -1.2448266512,
				"z": -2.1790402356,
				"element": "N" 
			},
			{
				"x": -1.5295282686,
				"y": -0.7509755105,
				"z": -2.7402580262,
				"element": "C" 
			},
			{
				"x": -1.8687428123,
				"y": 0.5279931079,
				"z": -2.9360726817,
				"element": "N" 
			},
			{
				"x": -0.9178301733,
				"y": 1.3493831066,
				"z": -2.4805159556,
				"element": "C" 
			},
			{
				"x": 0.2976859641,
				"y": 0.9984941384,
				"z": -1.8708217261,
				"element": "C" 
			},
			{
				"x": 1.0247709794,
				"y": 2.1353651623,
				"z": -1.5361870835,
				"element": "N" 
			},
			{
				"x": 0.2724917392,
				"y": 3.1323460325,
				"z": -1.9311283825,
				"element": "C" 
			},
			{
				"x": -0.9110666752,
				"y": 2.726847089,
				"z": -2.5085260978,
				"element": "N" 
			},
			{
				"x": 2.3386018356,
				"y": -0.1164292101,
				"z": 1.0164313656,
				"element": "C" 
			},
			{
				"x": 1.8952501727,
				"y": 0.9235044109,
				"z": 1.778957791,
				"element": "C" 
			},
			{
				"x": 1.726302576,
				"y": 0.4122208697,
				"z": 3.1084129531,
				"element": "C" 
			},
			{
				"x": 2.0759892787,
				"y": -0.9019199424,
				"z": 3.0545869882,
				"element": "C" 
			},
			{
				"x": 2.4535149699,
				"y": -1.2440742016,
				"z": 1.7889780633,
				"element": "O" 
			},
			{
				"x": 3.6088624346,
				"y": -0.8099973183,
				"z": -0.5499077863,
				"element": "H" 
			},
			{
				"x": 2.806217278,
				"y": 0.7389720484,
				"z": -0.8567377777,
				"element": "H" 
			},
			{
				"x": 1.5727275326,
				"y": -1.9598908233,
				"z": -1.0994062838,
				"element": "H" 
			},
			{
				"x": -2.2507472624,
				"y": -1.4924886957,
				"z": -3.0787587718,
				"element": "H" 
			},
			{
				"x": 0.5236776511,
				"y": 4.1796905846,
				"z": -1.828977624,
				"element": "H" 
			},
			{
				"x": -1.6444674346,
				"y": 3.308551412,
				"z": -2.8847826736,
				"element": "H" 
			},
			{
				"x": 1.7054909945,
				"y": 1.9250202804,
				"z": 1.4213948468,
				"element": "H" 
			},
			{
				"x": 1.3910030913,
				"y": 0.9524394869,
				"z": 3.9821730216,
				"element": "H" 
			},
			{
				"x": 2.1166873349,
				"y": -1.6926854581,
				"z": 3.7876627048,
				"element": "H" 
			}
		],
		 "valence_orbital": [ 
			{
				"type": "occ",
				"energy": -0.27324,
				"method": "rhf"
			},
			{
				"type": "occ",
				"energy": -0.26234,
				"method": "rhf"
			},
			{
				"type": "occ",
				"energy": -0.24701,
				"method": "rhf"
			},
			{
				"type": "occ",
				"energy": -0.22438,
				"method": "rhf"
			},
			{
				"type": "occ",
				"energy": -0.21123,
				"method": "rhf"
			},
			{
				"type": "unocc",
				"energy": -0.01936,
				"method": "rhf"
			},
			{
				"type": "unocc",
				"energy": 0.00804,
				"method": "rhf"
			},
			{
				"type": "unocc",
				"energy": 0.01383,
				"method": "rhf"
			},
			{
				"type": "unocc",
				"energy": 0.04014,
				"method": "rhf"
			},
			{
				"type": "unocc",
				"energy": 0.07425,
				"method": "rhf"
			}
		],
		"cosmo_sigma_profile": { 
			"-0.025": 0.0,
			"-0.024": 0.0,
			"-0.023": 0.0,
			"-0.022": 0.0,
			"-0.021": 0.0,
			"-0.02": 0.0,
			"-0.019": 0.0,
			"-0.018": 0.0317456594922,
			"-0.017": 1.44389216033,
			"-0.016": 1.69725158881,
			"-0.015": 0.938077355327,
			"-0.014": 1.32348048619,
			"-0.013": 2.40718749677,
			"-0.012": 1.35094628802,
			"-0.011": 2.05329613083,
			"-0.01": 4.28739893465,
			"-0.009": 4.0517364581,
			"-0.008": 4.89290787018,
			"-0.007": 7.82938940858,
			"-0.006": 11.3060448193,
			"-0.005": 8.88520600588,
			"-0.004": 11.7689246513,
			"-0.003": 12.9093748095,
			"-0.002": 11.6871477168,
			"-0.001": 11.4224788732,
			"0.0": 21.3377942504,
			"0.001": 20.0165924665,
			"0.002": 16.8169322197,
			"0.003": 16.9804247793,
			"0.004": 17.4007125077,
			"0.005": 12.5614904121,
			"0.006": 8.61591744127,
			"0.007": 6.01143586174,
			"0.008": 3.90693064772,
			"0.009": 2.46418614161,
			"0.01": 3.81921490556,
			"0.011": 2.72819706751,
			"0.012": 2.52779770208,
			"0.013": 1.82228652031,
			"0.014": 1.6479362525,
			"0.015": 1.54324715628,
			"0.016": 0.532678782451,
			"0.017": 0.0,
			"0.018": 0.0,
			"0.019": 0.0,
			"0.02": 0.0,
			"0.021": 0.0,
			"0.022": 0.0,
			"0.023": 0.0,
			"0.024": 0.0,
			"0.025": 0.0
		}
	}
}
