{
	 "smiles": "CCOC1=CC=C(C=C1)N1C(=O)C2=C(C=C(C=C2)C(O)=O)C1=O", 
	 "Tm": 539.15, 
	 "num_atms": 36, 
	 "gaussian": { 
		 "optdone": 1, 
		 "sigma_profile": "yes", 
		 "theory": "DFT", 
		 "functional": "B3LYP", 
		 "basiset": "6-31G**", 
		 "properties": { 
			 "R2extent": 11585.0205, 
			 "electric_dipole_moment_norm": 2.94886285541, 
			 "electric_quadrupole_moment_norm": 46.3421634039, 
			 "total_energy": -1086.54324741, 
			 "HOMO_LUMO_gap": 0.11561, 
			 "cosmo_polarized_energy": -23.2, 
			 "cosmo_cavitation_energy": 41.79, 
			 "cosmo_dispersion_energy": -30.03, 
			 "cosmo_repulsion_energy": 2.25, 
			 "cosmo_total_nonelectrostatic_energy": 14.02, 
			 "SMD_solvation_energy": 9.76 
		},
		"coords": [
			{
				"x": 3.1734497214,
				"y": -5.355778052,
				"z": -2.0333081957,
				"element": "C" 
			},
			{
				"x": 2.783763126,
				"y": -4.4254343963,
				"z": -3.1773107241,
				"element": "C" 
			},
			{
				"x": 3.0859004568,
				"y": -3.0549107364,
				"z": -2.8979271074,
				"element": "O" 
			},
			{
				"x": 2.2449658201,
				"y": -2.3146950335,
				"z": -2.1219346216,
				"element": "C" 
			},
			{
				"x": 2.6555367986,
				"y": -0.9942088517,
				"z": -1.8802181972,
				"element": "C" 
			},
			{
				"x": 1.8776178037,
				"y": -0.1403444941,
				"z": -1.1120107055,
				"element": "C" 
			},
			{
				"x": 0.6606914809,
				"y": -0.589010838,
				"z": -0.5797722229,
				"element": "C" 
			},
			{
				"x": 0.2442191164,
				"y": -1.898915317,
				"z": -0.8220049159,
				"element": "C" 
			},
			{
				"x": 1.0333355344,
				"y": -2.7639357633,
				"z": -1.5808872799,
				"element": "C" 
			},
			{
				"x": -0.1449231862,
				"y": 0.2874417903,
				"z": 0.210850889,
				"element": "N" 
			},
			{
				"x": -0.3748003655,
				"y": 1.6491817033,
				"z": -0.0935506015,
				"element": "C" 
			},
			{
				"x": 0.0680826698,
				"y": 2.2595815325,
				"z": -1.0438309759,
				"element": "O" 
			},
			{
				"x": -1.2583822286,
				"y": 2.1647486502,
				"z": 0.9934295499,
				"element": "C" 
			},
			{
				"x": -1.5211759302,
				"y": 1.1240633333,
				"z": 1.8833438819,
				"element": "C" 
			},
			{
				"x": -2.3257775596,
				"y": 1.3033759503,
				"z": 2.9948909955,
				"element": "C" 
			},
			{
				"x": -2.8570535849,
				"y": 2.58747837,
				"z": 3.2136252153,
				"element": "C" 
			},
			{
				"x": -2.5989381683,
				"y": 3.6292453272,
				"z": 2.3048224905,
				"element": "C" 
			},
			{
				"x": -1.7942120406,
				"y": 3.4300525573,
				"z": 1.1768013185,
				"element": "C" 
			},
			{
				"x": -3.7385226297,
				"y": 2.7695941067,
				"z": 4.4184859892,
				"element": "C" 
			},
			{
				"x": -3.8771508003,
				"y": 4.0347909728,
				"z": 4.8926744552,
				"element": "O" 
			},
			{
				"x": -4.3091650022,
				"y": 1.8514981064,
				"z": 4.955571876,
				"element": "O" 
			},
			{
				"x": -0.8116387933,
				"y": -0.0981282056,
				"z": 1.4014581011,
				"element": "C" 
			},
			{
				"x": -0.7985225547,
				"y": -1.2011696476,
				"z": 1.9033900367,
				"element": "O" 
			},
			{
				"x": 2.6040702308,
				"y": -5.1432007507,
				"z": -1.1245380365,
				"element": "H" 
			},
			{
				"x": 2.9874966289,
				"y": -6.3968818085,
				"z": -2.3177704902,
				"element": "H" 
			},
			{
				"x": 4.2368681415,
				"y": -5.2462859914,
				"z": -1.8026131179,
				"element": "H" 
			},
			{
				"x": 3.3722985888,
				"y": -4.6550344655,
				"z": -4.0699294031,
				"element": "H" 
			},
			{
				"x": 1.7256121345,
				"y": -4.5345840368,
				"z": -3.4464977894,
				"element": "H" 
			},
			{
				"x": 3.595250158,
				"y": -0.6592947554,
				"z": -2.3061337718,
				"element": "H" 
			},
			{
				"x": 2.203675928,
				"y": 0.8773365466,
				"z": -0.9371422204,
				"element": "H" 
			},
			{
				"x": -0.6885372139,
				"y": -2.2562100809,
				"z": -0.4037891897,
				"element": "H" 
			},
			{
				"x": 0.688187881,
				"y": -3.7780193384,
				"z": -1.7400468457,
				"element": "H" 
			},
			{
				"x": -2.5505300414,
				"y": 0.4969694196,
				"z": 3.6839613221,
				"element": "H" 
			},
			{
				"x": -3.0593608031,
				"y": 4.6032399844,
				"z": 2.4495915461,
				"element": "H" 
			},
			{
				"x": -1.59990324,
				"y": 4.2279335185,
				"z": 0.4678788603,
				"element": "H" 
			},
			{
				"x": -3.2327280769,
				"y": 4.6257106935,
				"z": 4.4792398849,
				"element": "H" 
			}
		],
		 "valence_orbital": [ 
			{
				"type": "occ",
				"energy": -0.29051,
				"method": "rhf"
			},
			{
				"type": "occ",
				"energy": -0.2838,
				"method": "rhf"
			},
			{
				"type": "occ",
				"energy": -0.27657,
				"method": "rhf"
			},
			{
				"type": "occ",
				"energy": -0.25695,
				"method": "rhf"
			},
			{
				"type": "occ",
				"energy": -0.21697,
				"method": "rhf"
			},
			{
				"type": "unocc",
				"energy": -0.10136,
				"method": "rhf"
			},
			{
				"type": "unocc",
				"energy": -0.06587,
				"method": "rhf"
			},
			{
				"type": "unocc",
				"energy": -0.02253,
				"method": "rhf"
			},
			{
				"type": "unocc",
				"energy": -0.00778,
				"method": "rhf"
			},
			{
				"type": "unocc",
				"energy": 0.00203,
				"method": "rhf"
			}
		],
		"cosmo_sigma_profile": { 
			"-0.025": 0.0,
			"-0.024": 0.0,
			"-0.023": 0.0,
			"-0.022": 0.0,
			"-0.021": 0.0,
			"-0.02": 0.0974383663346,
			"-0.019": 0.977774942649,
			"-0.018": 1.15834687424,
			"-0.017": 0.812178138222,
			"-0.016": 0.978881589688,
			"-0.015": 0.584468248689,
			"-0.014": 1.15843578423,
			"-0.013": 1.44242661313,
			"-0.012": 1.78025225897,
			"-0.011": 0.891282368354,
			"-0.01": 1.44663207815,
			"-0.009": 2.57219391817,
			"-0.008": 5.25132904768,
			"-0.007": 9.38082575988,
			"-0.006": 16.7270504907,
			"-0.005": 22.1992955352,
			"-0.004": 26.1485027336,
			"-0.003": 28.2354231545,
			"-0.002": 26.5148805641,
			"-0.001": 27.5003811018,
			"0.0": 26.7310165687,
			"0.001": 15.1666228795,
			"0.002": 12.08162418,
			"0.003": 14.7792387975,
			"0.004": 17.2955864266,
			"0.005": 12.2920351856,
			"0.006": 7.23506482666,
			"0.007": 6.26859685086,
			"0.008": 8.87400355407,
			"0.009": 9.5809030187,
			"0.01": 14.2073206362,
			"0.011": 11.8127798181,
			"0.012": 2.87936084156,
			"0.013": 0.336295062817,
			"0.014": 0.0,
			"0.015": 0.0,
			"0.016": 0.0,
			"0.017": 0.0,
			"0.018": 0.0,
			"0.019": 0.0,
			"0.02": 0.0,
			"0.021": 0.0,
			"0.022": 0.0,
			"0.023": 0.0,
			"0.024": 0.0,
			"0.025": 0.0
		}
	}
}
