{
	 "smiles": "COC1=C(N)C=C(C=C1)C(=O)N1CCOCC1", 
	 "Tm": 424.15, 
	 "num_atms": 33, 
	 "gaussian": { 
		 "optdone": 1, 
		 "sigma_profile": "yes", 
		 "theory": "DFT", 
		 "functional": "B3LYP", 
		 "basiset": "6-31G**", 
		 "properties": { 
			 "R2extent": 5798.0746, 
			 "electric_dipole_moment_norm": 3.94632851395, 
			 "electric_quadrupole_moment_norm": 20.5330679634, 
			 "total_energy": -802.075104254, 
			 "HOMO_LUMO_gap": 0.181, 
			 "cosmo_polarized_energy": -17.91, 
			 "cosmo_cavitation_energy": 35.02, 
			 "cosmo_dispersion_energy": -25.69, 
			 "cosmo_repulsion_energy": 2.01, 
			 "cosmo_total_nonelectrostatic_energy": 11.34, 
			 "SMD_solvation_energy": 6.09 
		},
		"coords": [
			{
				"x": 1.2267096737,
				"y": -4.7251629278,
				"z": 3.7776970631,
				"element": "C" 
			},
			{
				"x": 0.7357146222,
				"y": -4.3833956793,
				"z": 2.4912163161,
				"element": "O" 
			},
			{
				"x": 0.8318646926,
				"y": -3.0771756779,
				"z": 2.0865758046,
				"element": "C" 
			},
			{
				"x": 0.3544260871,
				"y": -2.8363001497,
				"z": 0.7747631544,
				"element": "C" 
			},
			{
				"x": -0.2022705176,
				"y": -3.8897953715,
				"z": 0.0500950383,
				"element": "N" 
			},
			{
				"x": 0.4170680548,
				"y": -1.5342768404,
				"z": 0.2746012775,
				"element": "C" 
			},
			{
				"x": 0.9443152506,
				"y": -0.481084701,
				"z": 1.0395463342,
				"element": "C" 
			},
			{
				"x": 1.4324834733,
				"y": -0.7455052732,
				"z": 2.3208138709,
				"element": "C" 
			},
			{
				"x": 1.3652546226,
				"y": -2.037836001,
				"z": 2.8463994126,
				"element": "C" 
			},
			{
				"x": 1.1053698745,
				"y": 0.9134088437,
				"z": 0.5087859402,
				"element": "C" 
			},
			{
				"x": 2.1092557774,
				"y": 1.5753797971,
				"z": 0.7721978051,
				"element": "O" 
			},
			{
				"x": 0.1209347965,
				"y": 1.4358158382,
				"z": -0.3052519081,
				"element": "N" 
			},
			{
				"x": 0.3711920414,
				"y": 2.7824812932,
				"z": -0.8379235066,
				"element": "C" 
			},
			{
				"x": -0.6928987107,
				"y": 3.1299141384,
				"z": -1.8707035744,
				"element": "C" 
			},
			{
				"x": -2.0175315392,
				"y": 3.1146094903,
				"z": -1.3389154781,
				"element": "O" 
			},
			{
				"x": -2.2051098178,
				"y": 2.2050308456,
				"z": -0.2595441752,
				"element": "C" 
			},
			{
				"x": -1.2789884179,
				"y": 0.9923260819,
				"z": -0.3393406365,
				"element": "C" 
			},
			{
				"x": 1.0609783062,
				"y": -5.7976957499,
				"z": 3.8907302817,
				"element": "H" 
			},
			{
				"x": 0.6856907808,
				"y": -4.1910152821,
				"z": 4.5688412876,
				"element": "H" 
			},
			{
				"x": 2.2993245702,
				"y": -4.5119848074,
				"z": 3.8697019666,
				"element": "H" 
			},
			{
				"x": -0.139465329,
				"y": -3.7950551165,
				"z": -0.953970278,
				"element": "H" 
			},
			{
				"x": 0.0831470482,
				"y": -4.8030463928,
				"z": 0.3763861334,
				"element": "H" 
			},
			{
				"x": 0.0704777555,
				"y": -1.3514356276,
				"z": -0.7386106855,
				"element": "H" 
			},
			{
				"x": 1.8746622734,
				"y": 0.0612530245,
				"z": 2.8940723658,
				"element": "H" 
			},
			{
				"x": 1.7415556268,
				"y": -2.2276674903,
				"z": 3.8448900256,
				"element": "H" 
			},
			{
				"x": 0.3780042118,
				"y": 3.5243959477,
				"z": -0.0280304721,
				"element": "H" 
			},
			{
				"x": 1.3662672819,
				"y": 2.8052742784,
				"z": -1.2904708641,
				"element": "H" 
			},
			{
				"x": -0.6207922969,
				"y": 2.4333484555,
				"z": -2.7209593419,
				"element": "H" 
			},
			{
				"x": -0.518482379,
				"y": 4.1398567145,
				"z": -2.2554202124,
				"element": "H" 
			},
			{
				"x": -2.0488706896,
				"y": 2.7167682603,
				"z": 0.7029615188,
				"element": "H" 
			},
			{
				"x": -3.2493743916,
				"y": 1.8761991688,
				"z": -0.2975293578,
				"element": "H" 
			},
			{
				"x": -1.4965865208,
				"y": 0.4339478879,
				"z": -1.2607279701,
				"element": "H" 
			},
			{
				"x": -1.4753262113,
				"y": 0.3252230226,
				"z": 0.5020228643,
				"element": "H" 
			}
		],
		 "valence_orbital": [ 
			{
				"type": "occ",
				"energy": -0.25279,
				"method": "rhf"
			},
			{
				"type": "occ",
				"energy": -0.24367,
				"method": "rhf"
			},
			{
				"type": "occ",
				"energy": -0.23305,
				"method": "rhf"
			},
			{
				"type": "occ",
				"energy": -0.22967,
				"method": "rhf"
			},
			{
				"type": "occ",
				"energy": -0.19516,
				"method": "rhf"
			},
			{
				"type": "unocc",
				"energy": -0.01416,
				"method": "rhf"
			},
			{
				"type": "unocc",
				"energy": 0.00959,
				"method": "rhf"
			},
			{
				"type": "unocc",
				"energy": 0.06549,
				"method": "rhf"
			},
			{
				"type": "unocc",
				"energy": 0.08149,
				"method": "rhf"
			},
			{
				"type": "unocc",
				"energy": 0.08385,
				"method": "rhf"
			}
		],
		"cosmo_sigma_profile": { 
			"-0.025": 0.0,
			"-0.024": 0.0,
			"-0.023": 0.0,
			"-0.022": 0.0,
			"-0.021": 0.0,
			"-0.02": 0.0,
			"-0.019": 0.0,
			"-0.018": 0.0,
			"-0.017": 0.0,
			"-0.016": 0.0,
			"-0.015": 0.0,
			"-0.014": 0.0,
			"-0.013": 0.188238702688,
			"-0.012": 1.47579592803,
			"-0.011": 1.44982831334,
			"-0.01": 2.50814462016,
			"-0.009": 2.88711098891,
			"-0.008": 2.47506243355,
			"-0.007": 3.14437184057,
			"-0.006": 11.9917007175,
			"-0.005": 30.3794248817,
			"-0.004": 37.215240126,
			"-0.003": 29.5990301218,
			"-0.002": 20.8385272306,
			"-0.001": 12.9988641326,
			"0.0": 11.3527430939,
			"0.001": 13.3961379903,
			"0.002": 11.1799851902,
			"0.003": 11.4298793397,
			"0.004": 11.5667511705,
			"0.005": 13.0724800638,
			"0.006": 8.3387323512,
			"0.007": 5.02854575209,
			"0.008": 4.96487500655,
			"0.009": 3.49449967598,
			"0.01": 3.15571696209,
			"0.011": 3.82583562546,
			"0.012": 4.29484112336,
			"0.013": 4.52700301843,
			"0.014": 6.19487809898,
			"0.015": 2.1383934362,
			"0.016": 0.0883098908312,
			"0.017": 0.0,
			"0.018": 0.0,
			"0.019": 0.0,
			"0.02": 0.0,
			"0.021": 0.0,
			"0.022": 0.0,
			"0.023": 0.0,
			"0.024": 0.0,
			"0.025": 0.0
		}
	}
}
