{
	 "smiles": "FC1=CC(C#N)=C(C=C1)C#N", 
	 "Tm": 374.15, 
	 "num_atms": 14, 
	 "gaussian": { 
		 "optdone": 1, 
		 "sigma_profile": "yes", 
		 "theory": "DFT", 
		 "functional": "B3LYP", 
		 "basiset": "6-31G**", 
		 "properties": { 
			 "R2extent": 2459.9208, 
			 "electric_dipole_moment_norm": 5.93372513435, 
			 "electric_quadrupole_moment_norm": 14.6691707526, 
			 "total_energy": -515.952996641, 
			 "HOMO_LUMO_gap": 0.19314, 
			 "cosmo_polarized_energy": -13.4, 
			 "cosmo_cavitation_energy": 21.88, 
			 "cosmo_dispersion_energy": -14.65, 
			 "cosmo_repulsion_energy": 1.16, 
			 "cosmo_total_nonelectrostatic_energy": 8.39, 
			 "SMD_solvation_energy": 7.0 
		},
		"coords": [
			{
				"x": 3.7038983832,
				"y": 0.6160867146,
				"z": 1.9701197269,
				"element": "F" 
			},
			{
				"x": 2.9510422399,
				"y": 0.7233140678,
				"z": 0.867002261,
				"element": "C" 
			},
			{
				"x": 1.5938073966,
				"y": 0.4407310374,
				"z": 0.9558377336,
				"element": "C" 
			},
			{
				"x": 0.8030641894,
				"y": 0.5515293886,
				"z": -0.1946451489,
				"element": "C" 
			},
			{
				"x": -0.5977776966,
				"y": 0.2609540631,
				"z": -0.1077555955,
				"element": "C" 
			},
			{
				"x": -1.730771367,
				"y": 0.0197372676,
				"z": -0.0104825819,
				"element": "N" 
			},
			{
				"x": 1.390449979,
				"y": 0.9461722724,
				"z": -1.4218388241,
				"element": "C" 
			},
			{
				"x": 2.7659659013,
				"y": 1.2226054492,
				"z": -1.4685679259,
				"element": "C" 
			},
			{
				"x": 3.55245659,
				"y": 1.112964216,
				"z": -0.3267433292,
				"element": "C" 
			},
			{
				"x": 0.6048526726,
				"y": 1.0672418022,
				"z": -2.6125978767,
				"element": "C" 
			},
			{
				"x": -0.0073026112,
				"y": 1.1741847483,
				"z": -3.5954315089,
				"element": "N" 
			},
			{
				"x": 1.161351373,
				"y": 0.1402659164,
				"z": 1.9025854871,
				"element": "H" 
			},
			{
				"x": 3.2111870341,
				"y": 1.5243062112,
				"z": -2.4099813937,
				"element": "H" 
			},
			{
				"x": 4.6156759157,
				"y": 1.3233068452,
				"z": -0.3483010236,
				"element": "H" 
			}
		],
		 "valence_orbital": [ 
			{
				"type": "occ",
				"energy": -0.36069,
				"method": "rhf"
			},
			{
				"type": "occ",
				"energy": -0.35475,
				"method": "rhf"
			},
			{
				"type": "occ",
				"energy": -0.3495,
				"method": "rhf"
			},
			{
				"type": "occ",
				"energy": -0.30287,
				"method": "rhf"
			},
			{
				"type": "occ",
				"energy": -0.2846,
				"method": "rhf"
			},
			{
				"type": "unocc",
				"energy": -0.09146,
				"method": "rhf"
			},
			{
				"type": "unocc",
				"energy": -0.0672,
				"method": "rhf"
			},
			{
				"type": "unocc",
				"energy": 0.00485,
				"method": "rhf"
			},
			{
				"type": "unocc",
				"energy": 0.02284,
				"method": "rhf"
			},
			{
				"type": "unocc",
				"energy": 0.05091,
				"method": "rhf"
			}
		],
		"cosmo_sigma_profile": { 
			"-0.025": 0.0,
			"-0.024": 0.0,
			"-0.023": 0.0,
			"-0.022": 0.0,
			"-0.021": 0.0,
			"-0.02": 0.0,
			"-0.019": 0.0,
			"-0.018": 0.0,
			"-0.017": 0.0,
			"-0.016": 0.0,
			"-0.015": 0.0,
			"-0.014": 0.0,
			"-0.013": 0.0,
			"-0.012": 0.0,
			"-0.011": 0.592151728611,
			"-0.01": 4.14819957243,
			"-0.009": 6.75531201038,
			"-0.008": 6.9307891115,
			"-0.007": 5.15542134418,
			"-0.006": 6.05936463976,
			"-0.005": 8.41453204672,
			"-0.004": 10.8724094091,
			"-0.003": 20.7444948963,
			"-0.002": 17.983028013,
			"-0.001": 11.7593940653,
			"0.0": 6.07689401848,
			"0.001": 5.88952286709,
			"0.002": 8.94683507081,
			"0.003": 11.8357984479,
			"0.004": 6.38281030881,
			"0.005": 4.22526931084,
			"0.006": 4.73104453641,
			"0.007": 6.69804557083,
			"0.008": 5.89072776862,
			"0.009": 6.44690263179,
			"0.01": 5.12875173858,
			"0.011": 5.07397861527,
			"0.012": 2.76671177951,
			"0.013": 0.12557533575,
			"0.014": 0.0,
			"0.015": 0.0,
			"0.016": 0.0,
			"0.017": 0.0,
			"0.018": 0.0,
			"0.019": 0.0,
			"0.02": 0.0,
			"0.021": 0.0,
			"0.022": 0.0,
			"0.023": 0.0,
			"0.024": 0.0,
			"0.025": 0.0
		}
	}
}
