{
	 "smiles": "CC(C)(C)C1=NN(CC2=CC=CC=C2)C(=C1)C(O)=O", 
	 "Tm": 399.15, 
	 "num_atms": 37, 
	 "gaussian": { 
		 "optdone": 1, 
		 "sigma_profile": "yes", 
		 "theory": "DFT", 
		 "functional": "B3LYP", 
		 "basiset": "6-31G**", 
		 "properties": { 
			 "R2extent": 6719.955, 
			 "electric_dipole_moment_norm": 3.04560324402, 
			 "electric_quadrupole_moment_norm": 15.9538774102, 
			 "total_energy": -842.404534538, 
			 "HOMO_LUMO_gap": 0.19818, 
			 "cosmo_polarized_energy": -14.27, 
			 "cosmo_cavitation_energy": 39.79, 
			 "cosmo_dispersion_energy": -26.95, 
			 "cosmo_repulsion_energy": 2.09, 
			 "cosmo_total_nonelectrostatic_energy": 14.92, 
			 "SMD_solvation_energy": 6.91 
		},
		"coords": [
			{
				"x": 2.049881861,
				"y": -0.4257798179,
				"z": 1.5556093629,
				"element": "C" 
			},
			{
				"x": 2.3749144885,
				"y": -0.4778923124,
				"z": 0.0516192303,
				"element": "C" 
			},
			{
				"x": 3.6344687423,
				"y": 0.3751393969,
				"z": -0.2295208311,
				"element": "C" 
			},
			{
				"x": 2.6472960042,
				"y": -1.9409837062,
				"z": -0.3629263132,
				"element": "C" 
			},
			{
				"x": 1.2155930714,
				"y": 0.0695827016,
				"z": -0.763849562,
				"element": "C" 
			},
			{
				"x": 0.1749162433,
				"y": 0.6830692491,
				"z": -0.1844172317,
				"element": "N" 
			},
			{
				"x": -0.6338510346,
				"y": 1.0858707214,
				"z": -1.1773141923,
				"element": "N" 
			},
			{
				"x": -1.9233241893,
				"y": 1.7044925401,
				"z": -0.8329695751,
				"element": "C" 
			},
			{
				"x": -3.0503578814,
				"y": 0.6960341917,
				"z": -0.7119590203,
				"element": "C" 
			},
			{
				"x": -3.1095508874,
				"y": -0.1684760772,
				"z": 0.3895642431,
				"element": "C" 
			},
			{
				"x": -4.144808436,
				"y": -1.0953487234,
				"z": 0.5038432955,
				"element": "C" 
			},
			{
				"x": -5.1338896081,
				"y": -1.1660952659,
				"z": -0.4810653721,
				"element": "C" 
			},
			{
				"x": -5.0797312254,
				"y": -0.3093029919,
				"z": -1.5809662409,
				"element": "C" 
			},
			{
				"x": -4.040898905,
				"y": 0.6172051171,
				"z": -1.6978044747,
				"element": "C" 
			},
			{
				"x": -0.1507734494,
				"y": 0.7206828842,
				"z": -2.4035438931,
				"element": "C" 
			},
			{
				"x": 1.0552190587,
				"y": 0.0670729268,
				"z": -2.1658783833,
				"element": "C" 
			},
			{
				"x": -0.8181391168,
				"y": 1.0550507267,
				"z": -3.6796203267,
				"element": "C" 
			},
			{
				"x": -0.3772470513,
				"y": 0.3585911938,
				"z": -4.7574443051,
				"element": "O" 
			},
			{
				"x": -1.6860300048,
				"y": 1.8909549341,
				"z": -3.8123327645,
				"element": "O" 
			},
			{
				"x": 2.895739866,
				"y": -0.8159820215,
				"z": 2.1314825651,
				"element": "H" 
			},
			{
				"x": 1.8497398735,
				"y": 0.5972925836,
				"z": 1.8838662192,
				"element": "H" 
			},
			{
				"x": 1.1667348819,
				"y": -1.0265762375,
				"z": 1.7916716283,
				"element": "H" 
			},
			{
				"x": 3.9022815279,
				"y": 0.3568650032,
				"z": -1.2913122351,
				"element": "H" 
			},
			{
				"x": 3.4730018494,
				"y": 1.4187131326,
				"z": 0.0585142519,
				"element": "H" 
			},
			{
				"x": 4.4893428945,
				"y": -0.0072947522,
				"z": 0.3393337344,
				"element": "H" 
			},
			{
				"x": 2.904830287,
				"y": -2.019976964,
				"z": -1.4245976183,
				"element": "H" 
			},
			{
				"x": 3.486183338,
				"y": -2.3484059538,
				"z": 0.2117387691,
				"element": "H" 
			},
			{
				"x": 1.7717531652,
				"y": -2.5723174174,
				"z": -0.180538958,
				"element": "H" 
			},
			{
				"x": -2.1448262973,
				"y": 2.4435601239,
				"z": -1.6010524217,
				"element": "H" 
			},
			{
				"x": -1.7469220514,
				"y": 2.2095420833,
				"z": 0.1189060737,
				"element": "H" 
			},
			{
				"x": -2.3359297038,
				"y": -0.114560002,
				"z": 1.1507603326,
				"element": "H" 
			},
			{
				"x": -4.1834371145,
				"y": -1.7595082499,
				"z": 1.362760743,
				"element": "H" 
			},
			{
				"x": -5.9428211687,
				"y": -1.885454156,
				"z": -0.3895079686,
				"element": "H" 
			},
			{
				"x": -5.8448331866,
				"y": -0.3607501056,
				"z": -2.3504387211,
				"element": "H" 
			},
			{
				"x": -3.9898246566,
				"y": 1.2763959106,
				"z": -2.5594092425,
				"element": "H" 
			},
			{
				"x": 1.7518785368,
				"y": -0.3090500925,
				"z": -2.9025706553,
				"element": "H" 
			},
			{
				"x": 0.2095202791,
				"y": -0.3564605732,
				"z": -4.4730301423,
				"element": "H" 
			}
		],
		 "valence_orbital": [ 
			{
				"type": "occ",
				"energy": -0.28404,
				"method": "rhf"
			},
			{
				"type": "occ",
				"energy": -0.26425,
				"method": "rhf"
			},
			{
				"type": "occ",
				"energy": -0.25592,
				"method": "rhf"
			},
			{
				"type": "occ",
				"energy": -0.24968,
				"method": "rhf"
			},
			{
				"type": "occ",
				"energy": -0.24433,
				"method": "rhf"
			},
			{
				"type": "unocc",
				"energy": -0.04615,
				"method": "rhf"
			},
			{
				"type": "unocc",
				"energy": -0.00756,
				"method": "rhf"
			},
			{
				"type": "unocc",
				"energy": -0.00071,
				"method": "rhf"
			},
			{
				"type": "unocc",
				"energy": 0.03606,
				"method": "rhf"
			},
			{
				"type": "unocc",
				"energy": 0.06058,
				"method": "rhf"
			}
		],
		"cosmo_sigma_profile": { 
			"-0.025": 0.0,
			"-0.024": 0.0,
			"-0.023": 0.0,
			"-0.022": 0.0,
			"-0.021": 0.0,
			"-0.02": 0.0,
			"-0.019": 0.225221368846,
			"-0.018": 0.758058576315,
			"-0.017": 0.958311135658,
			"-0.016": 1.23170218516,
			"-0.015": 0.954691706353,
			"-0.014": 1.20078105519,
			"-0.013": 0.845998588628,
			"-0.012": 1.2653186835,
			"-0.011": 0.950332727699,
			"-0.01": 1.10630263759,
			"-0.009": 1.0707598095,
			"-0.008": 1.65019711219,
			"-0.007": 2.7552385642,
			"-0.006": 6.81776528992,
			"-0.005": 14.5242068368,
			"-0.004": 18.8742467446,
			"-0.003": 31.8081988496,
			"-0.002": 31.1588672998,
			"-0.001": 29.9894179274,
			"0.0": 27.8087621342,
			"0.001": 34.9254099319,
			"0.002": 23.8706937448,
			"0.003": 16.9750782688,
			"0.004": 14.6243251823,
			"0.005": 14.1362333034,
			"0.006": 8.08406493705,
			"0.007": 4.14279552291,
			"0.008": 3.77213713169,
			"0.009": 4.34989478706,
			"0.01": 5.91426230951,
			"0.011": 3.8124856596,
			"0.012": 2.49478528421,
			"0.013": 0.86674246556,
			"0.014": 0.0,
			"0.015": 0.0,
			"0.016": 0.0,
			"0.017": 0.0,
			"0.018": 0.0,
			"0.019": 0.0,
			"0.02": 0.0,
			"0.021": 0.0,
			"0.022": 0.0,
			"0.023": 0.0,
			"0.024": 0.0,
			"0.025": 0.0
		}
	}
}
