{
	 "smiles": "OC(=O)C1=CC(=CC=C1)N1CCCC1=O", 
	 "Tm": 475.15, 
	 "num_atms": 26, 
	 "gaussian": { 
		 "optdone": 1, 
		 "sigma_profile": "yes", 
		 "theory": "DFT", 
		 "functional": "B3LYP", 
		 "basiset": "6-31G**", 
		 "properties": { 
			 "R2extent": 4057.8469, 
			 "electric_dipole_moment_norm": 8.25963475887, 
			 "electric_quadrupole_moment_norm": 16.458660564, 
			 "total_energy": -706.253984828, 
			 "HOMO_LUMO_gap": 0.18629, 
			 "cosmo_polarized_energy": -18.2, 
			 "cosmo_cavitation_energy": 29.35, 
			 "cosmo_dispersion_energy": -21.87, 
			 "cosmo_repulsion_energy": 1.69, 
			 "cosmo_total_nonelectrostatic_energy": 9.17, 
			 "SMD_solvation_energy": 6.08 
		},
		"coords": [
			{
				"x": 4.0532377057,
				"y": -2.0127007777,
				"z": -0.3994408595,
				"element": "O" 
			},
			{
				"x": 3.3537958579,
				"y": -1.810494547,
				"z": -1.5440884009,
				"element": "C" 
			},
			{
				"x": 3.8935132203,
				"y": -1.9664087273,
				"z": -2.6153632969,
				"element": "O" 
			},
			{
				"x": 1.9133988208,
				"y": -1.401841982,
				"z": -1.408518202,
				"element": "C" 
			},
			{
				"x": 1.3824325703,
				"y": -0.9314998184,
				"z": -0.2041665316,
				"element": "C" 
			},
			{
				"x": 0.0290963601,
				"y": -0.5551612631,
				"z": -0.122107914,
				"element": "C" 
			},
			{
				"x": -0.767685135,
				"y": -0.6520608993,
				"z": -1.2761433446,
				"element": "C" 
			},
			{
				"x": -0.2243399264,
				"y": -1.1153554957,
				"z": -2.4751258428,
				"element": "C" 
			},
			{
				"x": 1.1119660822,
				"y": -1.4886739758,
				"z": -2.5537507462,
				"element": "C" 
			},
			{
				"x": -0.5369187175,
				"y": -0.0852684041,
				"z": 1.0856815719,
				"element": "N" 
			},
			{
				"x": -1.9651378902,
				"y": 0.2490115558,
				"z": 1.1822972229,
				"element": "C" 
			},
			{
				"x": -2.2063092702,
				"y": 0.4398463694,
				"z": 2.6907199451,
				"element": "C" 
			},
			{
				"x": -0.8336687891,
				"y": 0.8552692052,
				"z": 3.2275618949,
				"element": "C" 
			},
			{
				"x": 0.1579033004,
				"y": 0.2381639796,
				"z": 2.247744481,
				"element": "C" 
			},
			{
				"x": 1.3513907438,
				"y": 0.0800808178,
				"z": 2.4497981035,
				"element": "O" 
			},
			{
				"x": 3.471109423,
				"y": -1.9548461873,
				"z": 0.3710305627,
				"element": "H" 
			},
			{
				"x": 1.9892170387,
				"y": -0.7983279364,
				"z": 0.6815323756,
				"element": "H" 
			},
			{
				"x": -1.8094415785,
				"y": -0.3565718301,
				"z": -1.2538903377,
				"element": "H" 
			},
			{
				"x": -0.8593693969,
				"y": -1.1775482135,
				"z": -3.3537849009,
				"element": "H" 
			},
			{
				"x": 1.5551434989,
				"y": -1.8435002451,
				"z": -3.4769276717,
				"element": "H" 
			},
			{
				"x": -2.182055369,
				"y": 1.162643235,
				"z": 0.6117805067,
				"element": "H" 
			},
			{
				"x": -2.5755377982,
				"y": -0.5584904126,
				"z": 0.7682957932,
				"element": "H" 
			},
			{
				"x": -2.5123607949,
				"y": -0.5112726394,
				"z": 3.1371403373,
				"element": "H" 
			},
			{
				"x": -2.9952584047,
				"y": 1.1693001396,
				"z": 2.8862750379,
				"element": "H" 
			},
			{
				"x": -0.6171293272,
				"y": 0.5191162966,
				"z": 4.2433211877,
				"element": "H" 
			},
			{
				"x": -0.6920922244,
				"y": 1.9431917558,
				"z": 3.2049290284,
				"element": "H" 
			}
		],
		 "valence_orbital": [ 
			{
				"type": "occ",
				"energy": -0.30351,
				"method": "rhf"
			},
			{
				"type": "occ",
				"energy": -0.27104,
				"method": "rhf"
			},
			{
				"type": "occ",
				"energy": -0.26574,
				"method": "rhf"
			},
			{
				"type": "occ",
				"energy": -0.26299,
				"method": "rhf"
			},
			{
				"type": "occ",
				"energy": -0.23357,
				"method": "rhf"
			},
			{
				"type": "unocc",
				"energy": -0.04728,
				"method": "rhf"
			},
			{
				"type": "unocc",
				"energy": -0.02717,
				"method": "rhf"
			},
			{
				"type": "unocc",
				"energy": 0.02049,
				"method": "rhf"
			},
			{
				"type": "unocc",
				"energy": 0.06122,
				"method": "rhf"
			},
			{
				"type": "unocc",
				"energy": 0.06856,
				"method": "rhf"
			}
		],
		"cosmo_sigma_profile": { 
			"-0.025": 0.0,
			"-0.024": 0.0,
			"-0.023": 0.0,
			"-0.022": 0.0,
			"-0.021": 0.0,
			"-0.02": 0.0,
			"-0.019": 0.0,
			"-0.018": 0.144208850359,
			"-0.017": 0.518757332108,
			"-0.016": 1.05529499529,
			"-0.015": 0.798030551757,
			"-0.014": 0.791876198761,
			"-0.013": 0.406394368841,
			"-0.012": 1.31196270299,
			"-0.011": 1.41365330782,
			"-0.01": 0.841110999062,
			"-0.009": 0.860307081063,
			"-0.008": 1.77215555978,
			"-0.007": 5.35362456558,
			"-0.006": 13.3040890827,
			"-0.005": 23.6599421509,
			"-0.004": 26.238439993,
			"-0.003": 18.4526217309,
			"-0.002": 16.8397854107,
			"-0.001": 13.6599163664,
			"0.0": 12.090887052,
			"0.001": 11.6607760987,
			"0.002": 13.6699325081,
			"0.003": 14.5531245152,
			"0.004": 8.11302714015,
			"0.005": 3.7673347323,
			"0.006": 3.90690116654,
			"0.007": 3.99394287152,
			"0.008": 3.52945669328,
			"0.009": 5.51972228313,
			"0.01": 4.84922969943,
			"0.011": 8.19124141877,
			"0.012": 7.51210500335,
			"0.013": 4.08576992812,
			"0.014": 0.928706516415,
			"0.015": 0.0,
			"0.016": 0.0,
			"0.017": 0.0,
			"0.018": 0.0,
			"0.019": 0.0,
			"0.02": 0.0,
			"0.021": 0.0,
			"0.022": 0.0,
			"0.023": 0.0,
			"0.024": 0.0,
			"0.025": 0.0
		}
	}
}
