{
	 "smiles": "CC(=C(C#N)C#N)C1=CC=C(Cl)C=C1", 
	 "Tm": 366.15, 
	 "num_atms": 21, 
	 "gaussian": { 
		 "optdone": 1, 
		 "sigma_profile": "yes", 
		 "theory": "DFT", 
		 "functional": "B3LYP", 
		 "basiset": "6-31G**", 
		 "properties": { 
			 "R2extent": 4881.9117, 
			 "electric_dipole_moment_norm": 5.3879125726, 
			 "electric_quadrupole_moment_norm": 24.0735783983, 
			 "total_energy": -993.033336038, 
			 "HOMO_LUMO_gap": 0.15781, 
			 "cosmo_polarized_energy": -13.93, 
			 "cosmo_cavitation_energy": 29.41, 
			 "cosmo_dispersion_energy": -20.11, 
			 "cosmo_repulsion_energy": 1.59, 
			 "cosmo_total_nonelectrostatic_energy": 10.89, 
			 "SMD_solvation_energy": 7.27 
		},
		"coords": [
			{
				"x": 1.2392708745,
				"y": 1.5757010807,
				"z": 0.2946029287,
				"element": "C" 
			},
			{
				"x": 1.5156057911,
				"y": 0.0951137347,
				"z": 0.3481623787,
				"element": "C" 
			},
			{
				"x": 2.7292251181,
				"y": -0.3870852604,
				"z": -0.0724460428,
				"element": "C" 
			},
			{
				"x": 3.7279595517,
				"y": 0.4822909664,
				"z": -0.6272751711,
				"element": "C" 
			},
			{
				"x": 4.5430750754,
				"y": 1.1789838875,
				"z": -1.0792588045,
				"element": "N" 
			},
			{
				"x": 3.1403337097,
				"y": -1.7572411679,
				"z": 0.0386254033,
				"element": "C" 
			},
			{
				"x": 3.5214328988,
				"y": -2.853846425,
				"z": 0.1157541856,
				"element": "N" 
			},
			{
				"x": 0.4456089476,
				"y": -0.7756944501,
				"z": 0.8765154623,
				"element": "C" 
			},
			{
				"x": 0.1852406536,
				"y": -2.0493740995,
				"z": 0.3364455117,
				"element": "C" 
			},
			{
				"x": -0.8450397278,
				"y": -2.8436651224,
				"z": 0.8299267822,
				"element": "C" 
			},
			{
				"x": -1.6296467572,
				"y": -2.3713247277,
				"z": 1.8821818898,
				"element": "C" 
			},
			{
				"x": -2.9231331486,
				"y": -3.3679329198,
				"z": 2.5119229166,
				"element": "Cl" 
			},
			{
				"x": -1.4032009405,
				"y": -1.10940819,
				"z": 2.4337099365,
				"element": "C" 
			},
			{
				"x": -0.3810387551,
				"y": -0.3177988205,
				"z": 1.9212622536,
				"element": "C" 
			},
			{
				"x": 0.2507276081,
				"y": 1.7653646768,
				"z": -0.1334186024,
				"element": "H" 
			},
			{
				"x": 1.2398331714,
				"y": 1.9990704382,
				"z": 1.3064623919,
				"element": "H" 
			},
			{
				"x": 1.9908322884,
				"y": 2.1125823655,
				"z": -0.2847048806,
				"element": "H" 
			},
			{
				"x": 0.7731672361,
				"y": -2.4197741377,
				"z": -0.4945310777,
				"element": "H" 
			},
			{
				"x": -1.0413987067,
				"y": -3.8185914558,
				"z": 0.3986243559,
				"element": "H" 
			},
			{
				"x": -2.0205670585,
				"y": -0.7536880861,
				"z": 3.2507735234,
				"element": "H" 
			},
			{
				"x": -0.2135878299,
				"y": 0.659517713,
				"z": 2.3604646587,
				"element": "H" 
			}
		],
		 "valence_orbital": [ 
			{
				"type": "occ",
				"energy": -0.34173,
				"method": "rhf"
			},
			{
				"type": "occ",
				"energy": -0.33142,
				"method": "rhf"
			},
			{
				"type": "occ",
				"energy": -0.29948,
				"method": "rhf"
			},
			{
				"type": "occ",
				"energy": -0.28927,
				"method": "rhf"
			},
			{
				"type": "occ",
				"energy": -0.25936,
				"method": "rhf"
			},
			{
				"type": "unocc",
				"energy": -0.10155,
				"method": "rhf"
			},
			{
				"type": "unocc",
				"energy": -0.04057,
				"method": "rhf"
			},
			{
				"type": "unocc",
				"energy": -0.0221,
				"method": "rhf"
			},
			{
				"type": "unocc",
				"energy": -0.00891,
				"method": "rhf"
			},
			{
				"type": "unocc",
				"energy": 0.01131,
				"method": "rhf"
			}
		],
		"cosmo_sigma_profile": { 
			"-0.025": 0.0,
			"-0.024": 0.0,
			"-0.023": 0.0,
			"-0.022": 0.0,
			"-0.021": 0.0,
			"-0.02": 0.0,
			"-0.019": 0.0,
			"-0.018": 0.0,
			"-0.017": 0.0,
			"-0.016": 0.0,
			"-0.015": 0.0,
			"-0.014": 0.0,
			"-0.013": 0.0,
			"-0.012": 0.0,
			"-0.011": 0.0,
			"-0.01": 0.516604371579,
			"-0.009": 2.4592567765,
			"-0.008": 7.4133152969,
			"-0.007": 11.7905496174,
			"-0.006": 10.5822058417,
			"-0.005": 15.4259148846,
			"-0.004": 21.6025467351,
			"-0.003": 20.8105481303,
			"-0.002": 14.5535884223,
			"-0.001": 12.7133677599,
			"0.0": 16.9734500624,
			"0.001": 21.6048487487,
			"0.002": 17.581197228,
			"0.003": 12.1132159444,
			"0.004": 13.1929385901,
			"0.005": 5.19408075792,
			"0.006": 5.06997786699,
			"0.007": 5.16393263342,
			"0.008": 6.1555932676,
			"0.009": 5.87318350205,
			"0.01": 5.13137751993,
			"0.011": 5.07472429155,
			"0.012": 3.64887283477,
			"0.013": 0.343348397988,
			"0.014": 0.0,
			"0.015": 0.0,
			"0.016": 0.0,
			"0.017": 0.0,
			"0.018": 0.0,
			"0.019": 0.0,
			"0.02": 0.0,
			"0.021": 0.0,
			"0.022": 0.0,
			"0.023": 0.0,
			"0.024": 0.0,
			"0.025": 0.0
		}
	}
}
