{
	 "smiles": "OC(=O)C1=CC=C(C=C1)N=C=S", 
	 "Tm": 493.15, 
	 "num_atms": 17, 
	 "gaussian": { 
		 "optdone": 1, 
		 "sigma_profile": "yes", 
		 "theory": "DFT", 
		 "functional": "B3LYP", 
		 "basiset": "6-31G**", 
		 "properties": { 
			 "R2extent": 4735.7925, 
			 "electric_dipole_moment_norm": 2.50220761129, 
			 "electric_quadrupole_moment_norm": 19.1159264942, 
			 "total_energy": -911.264553194, 
			 "HOMO_LUMO_gap": 0.16425, 
			 "cosmo_polarized_energy": -10.23, 
			 "cosmo_cavitation_energy": 25.65, 
			 "cosmo_dispersion_energy": -19.14, 
			 "cosmo_repulsion_energy": 1.5, 
			 "cosmo_total_nonelectrostatic_energy": 8.0, 
			 "SMD_solvation_energy": 6.3 
		},
		"coords": [
			{
				"x": 2.928748302,
				"y": -1.2226389242,
				"z": -2.1262205495,
				"element": "O" 
			},
			{
				"x": 1.7915518066,
				"y": -1.3532346863,
				"z": -1.3990340746,
				"element": "C" 
			},
			{
				"x": 1.3379161388,
				"y": -2.4381651998,
				"z": -1.093137308,
				"element": "O" 
			},
			{
				"x": 1.1840801159,
				"y": -0.0476794938,
				"z": -1.0316241853,
				"element": "C" 
			},
			{
				"x": 1.7512027904,
				"y": 1.1773883731,
				"z": -1.4120481567,
				"element": "C" 
			},
			{
				"x": 1.1476128473,
				"y": 2.3737573826,
				"z": -1.0456816521,
				"element": "C" 
			},
			{
				"x": -0.0377900487,
				"y": 2.3510282067,
				"z": -0.289213225,
				"element": "C" 
			},
			{
				"x": -0.6116088308,
				"y": 1.1252890136,
				"z": 0.095420552,
				"element": "C" 
			},
			{
				"x": 0.0018553674,
				"y": -0.0620754431,
				"z": -0.2775836773,
				"element": "C" 
			},
			{
				"x": -0.636153494,
				"y": 3.5275330564,
				"z": 0.0738968644,
				"element": "N" 
			},
			{
				"x": -1.1557538837,
				"y": 4.5484160609,
				"z": 0.3885846429,
				"element": "C" 
			},
			{
				"x": -1.8519094975,
				"y": 5.9159195119,
				"z": 0.80998549,
				"element": "S" 
			},
			{
				"x": 3.2339015016,
				"y": -2.1268742258,
				"z": -2.3068761586,
				"element": "H" 
			},
			{
				"x": 2.6649657231,
				"y": 1.1871140289,
				"z": -1.9946896298,
				"element": "H" 
			},
			{
				"x": 1.575823809,
				"y": 3.327610602,
				"z": -1.3332321267,
				"element": "H" 
			},
			{
				"x": -1.5259364521,
				"y": 1.1257605438,
				"z": 0.6784202693,
				"element": "H" 
			},
			{
				"x": -0.4205061953,
				"y": -1.0197488068,
				"z": 0.0065329251,
				"element": "H" 
			}
		],
		 "valence_orbital": [ 
			{
				"type": "occ",
				"energy": -0.30161,
				"method": "rhf"
			},
			{
				"type": "occ",
				"energy": -0.28784,
				"method": "rhf"
			},
			{
				"type": "occ",
				"energy": -0.28216,
				"method": "rhf"
			},
			{
				"type": "occ",
				"energy": -0.26001,
				"method": "rhf"
			},
			{
				"type": "occ",
				"energy": -0.24175,
				"method": "rhf"
			},
			{
				"type": "unocc",
				"energy": -0.0775,
				"method": "rhf"
			},
			{
				"type": "unocc",
				"energy": -0.02937,
				"method": "rhf"
			},
			{
				"type": "unocc",
				"energy": -0.0037,
				"method": "rhf"
			},
			{
				"type": "unocc",
				"energy": 0.00092,
				"method": "rhf"
			},
			{
				"type": "unocc",
				"energy": 0.06603,
				"method": "rhf"
			}
		],
		"cosmo_sigma_profile": { 
			"-0.025": 0.0,
			"-0.024": 0.0,
			"-0.023": 0.0,
			"-0.022": 0.0,
			"-0.021": 0.0,
			"-0.02": 0.0,
			"-0.019": 0.12170858669,
			"-0.018": 1.0661606979,
			"-0.017": 0.953829299353,
			"-0.016": 0.6555158263,
			"-0.015": 0.697407375154,
			"-0.014": 0.833489237987,
			"-0.013": 0.31274572244,
			"-0.012": 0.640695866916,
			"-0.011": 0.761943070079,
			"-0.01": 0.866531022326,
			"-0.009": 0.650009962362,
			"-0.008": 3.85508664918,
			"-0.007": 8.41736347729,
			"-0.006": 9.04776301126,
			"-0.005": 6.99458363345,
			"-0.004": 8.19756341844,
			"-0.003": 11.1092347986,
			"-0.002": 18.5587191851,
			"-0.001": 20.0374599864,
			"0.0": 19.3954975241,
			"0.001": 21.6543224532,
			"0.002": 17.5536256405,
			"0.003": 8.22376145982,
			"0.004": 9.88437450896,
			"0.005": 14.2622503593,
			"0.006": 11.0881649781,
			"0.007": 2.46681684376,
			"0.008": 1.37228280884,
			"0.009": 1.54690000144,
			"0.01": 2.11288977174,
			"0.011": 4.44870715851,
			"0.012": 2.95078889669,
			"0.013": 0.00970986164925,
			"0.014": 0.0,
			"0.015": 0.0,
			"0.016": 0.0,
			"0.017": 0.0,
			"0.018": 0.0,
			"0.019": 0.0,
			"0.02": 0.0,
			"0.021": 0.0,
			"0.022": 0.0,
			"0.023": 0.0,
			"0.024": 0.0,
			"0.025": 0.0
		}
	}
}
