{
	 "smiles": "O=S(=O)(N1CCNCC1)C1=CC2=C(CCC2)C=C1", 
	 "Tm": 364.15, 
	 "num_atms": 36, 
	 "gaussian": { 
		 "optdone": 1, 
		 "sigma_profile": "yes", 
		 "theory": "DFT", 
		 "functional": "B3LYP", 
		 "basiset": "6-31G**", 
		 "properties": { 
			 "R2extent": 5778.2646, 
			 "electric_dipole_moment_norm": 6.58350255335, 
			 "electric_quadrupole_moment_norm": 19.4754795114, 
			 "total_energy": -1164.3013698, 
			 "HOMO_LUMO_gap": 0.1935, 
			 "cosmo_polarized_energy": -15.62, 
			 "cosmo_cavitation_energy": 37.84, 
			 "cosmo_dispersion_energy": -27.05, 
			 "cosmo_repulsion_energy": 2.07, 
			 "cosmo_total_nonelectrostatic_energy": 12.86, 
			 "SMD_solvation_energy": 1.4 
		},
		"coords": [
			{
				"x": -0.8151598953,
				"y": 3.1865085589,
				"z": -2.2592104287,
				"element": "O" 
			},
			{
				"x": -1.0165858883,
				"y": 1.7480247935,
				"z": -2.4570463077,
				"element": "S" 
			},
			{
				"x": -2.0059974619,
				"y": 1.2155956516,
				"z": -3.3983915295,
				"element": "O" 
			},
			{
				"x": 0.461794201,
				"y": 1.1406440169,
				"z": -2.9511415454,
				"element": "N" 
			},
			{
				"x": 0.5719422299,
				"y": -0.2106657919,
				"z": -3.5178110158,
				"element": "C" 
			},
			{
				"x": 1.2829210919,
				"y": -1.163745283,
				"z": -2.5518086862,
				"element": "C" 
			},
			{
				"x": 2.5743656938,
				"y": -0.5826410322,
				"z": -2.1768655418,
				"element": "N" 
			},
			{
				"x": 2.4051313573,
				"y": 0.6940797501,
				"z": -1.4790125721,
				"element": "C" 
			},
			{
				"x": 1.7185410069,
				"y": 1.6875951389,
				"z": -2.4216709793,
				"element": "C" 
			},
			{
				"x": -1.4159447183,
				"y": 1.0573010041,
				"z": -0.8420157235,
				"element": "C" 
			},
			{
				"x": -0.999329675,
				"y": 1.7326848628,
				"z": 0.3111869137,
				"element": "C" 
			},
			{
				"x": -1.2799827985,
				"y": 1.1621956307,
				"z": 1.5497048177,
				"element": "C" 
			},
			{
				"x": -1.9718381691,
				"y": -0.0566043032,
				"z": 1.634136622,
				"element": "C" 
			},
			{
				"x": -2.175643347,
				"y": -0.447750978,
				"z": 3.0824287268,
				"element": "C" 
			},
			{
				"x": -1.1575907234,
				"y": 0.4455791186,
				"z": 3.8363033014,
				"element": "C" 
			},
			{
				"x": -0.9700392322,
				"y": 1.6922702955,
				"z": 2.9345845046,
				"element": "C" 
			},
			{
				"x": -2.3986301086,
				"y": -0.7104573832,
				"z": 0.4789217103,
				"element": "C" 
			},
			{
				"x": -2.1185404095,
				"y": -0.149921375,
				"z": -0.7697447877,
				"element": "C" 
			},
			{
				"x": 1.159661533,
				"y": -0.1324364864,
				"z": -4.4414798844,
				"element": "H" 
			},
			{
				"x": -0.4246628638,
				"y": -0.5654150258,
				"z": -3.7830736403,
				"element": "H" 
			},
			{
				"x": 0.6258460199,
				"y": -1.3512960642,
				"z": -1.6823768306,
				"element": "H" 
			},
			{
				"x": 1.4570258039,
				"y": -2.1223931177,
				"z": -3.0532813682,
				"element": "H" 
			},
			{
				"x": 3.0905977003,
				"y": -1.2325486856,
				"z": -1.591500701,
				"element": "H" 
			},
			{
				"x": 3.3922821064,
				"y": 1.0815491616,
				"z": -1.2028636255,
				"element": "H" 
			},
			{
				"x": 1.8062998394,
				"y": 0.6035530956,
				"z": -0.5536723724,
				"element": "H" 
			},
			{
				"x": 1.5114708745,
				"y": 2.6398716531,
				"z": -1.9320059961,
				"element": "H" 
			},
			{
				"x": 2.3775984773,
				"y": 1.8837803726,
				"z": -3.2771669548,
				"element": "H" 
			},
			{
				"x": -0.4916010569,
				"y": 2.6877155936,
				"z": 0.2233134932,
				"element": "H" 
			},
			{
				"x": -3.2050319719,
				"y": -0.216637521,
				"z": 3.3910308262,
				"element": "H" 
			},
			{
				"x": -2.0245849403,
				"y": -1.5166306262,
				"z": 3.2662764283,
				"element": "H" 
			},
			{
				"x": -1.4815970644,
				"y": 0.6980220377,
				"z": 4.8494296467,
				"element": "H" 
			},
			{
				"x": -0.2033528206,
				"y": -0.0865348145,
				"z": 3.919871613,
				"element": "H" 
			},
			{
				"x": 0.0296409707,
				"y": 2.1311703104,
				"z": 3.0161435199,
				"element": "H" 
			},
			{
				"x": -1.6853588775,
				"y": 2.4823858895,
				"z": 3.2025427147,
				"element": "H" 
			},
			{
				"x": -2.9496974819,
				"y": -1.6451459685,
				"z": 0.5407228438,
				"element": "H" 
			},
			{
				"x": -2.4593494016,
				"y": -0.6252024794,
				"z": -1.6828571909,
				"element": "H" 
			}
		],
		 "valence_orbital": [ 
			{
				"type": "occ",
				"energy": -0.29205,
				"method": "rhf"
			},
			{
				"type": "occ",
				"energy": -0.26754,
				"method": "rhf"
			},
			{
				"type": "occ",
				"energy": -0.25689,
				"method": "rhf"
			},
			{
				"type": "occ",
				"energy": -0.24368,
				"method": "rhf"
			},
			{
				"type": "occ",
				"energy": -0.22358,
				"method": "rhf"
			},
			{
				"type": "unocc",
				"energy": -0.03008,
				"method": "rhf"
			},
			{
				"type": "unocc",
				"energy": -0.01752,
				"method": "rhf"
			},
			{
				"type": "unocc",
				"energy": 0.06134,
				"method": "rhf"
			},
			{
				"type": "unocc",
				"energy": 0.07868,
				"method": "rhf"
			},
			{
				"type": "unocc",
				"energy": 0.08837,
				"method": "rhf"
			}
		],
		"cosmo_sigma_profile": { 
			"-0.025": 0.0,
			"-0.024": 0.0,
			"-0.023": 0.0,
			"-0.022": 0.0,
			"-0.021": 0.0,
			"-0.02": 0.0,
			"-0.019": 0.0,
			"-0.018": 0.0,
			"-0.017": 0.0,
			"-0.016": 0.0,
			"-0.015": 0.0,
			"-0.014": 0.0,
			"-0.013": 0.0,
			"-0.012": 0.0,
			"-0.011": 0.185041590039,
			"-0.01": 1.38855237797,
			"-0.009": 1.43533542139,
			"-0.008": 1.33223305445,
			"-0.007": 1.57557526911,
			"-0.006": 6.55158083385,
			"-0.005": 14.4828520671,
			"-0.004": 34.986987259,
			"-0.003": 38.8640543817,
			"-0.002": 40.2792498204,
			"-0.001": 35.3211049752,
			"0.0": 26.5884439229,
			"0.001": 13.5496156141,
			"0.002": 11.5750423062,
			"0.003": 13.0630392953,
			"0.004": 8.62780253737,
			"0.005": 5.31305957031,
			"0.006": 5.37999756328,
			"0.007": 4.01921112459,
			"0.008": 4.23698258345,
			"0.009": 4.23831077608,
			"0.01": 5.74937372512,
			"0.011": 8.11024008724,
			"0.012": 7.18760638504,
			"0.013": 0.662678238042,
			"0.014": 0.351638299729,
			"0.015": 0.29574799295,
			"0.016": 0.738780570347,
			"0.017": 0.372802914896,
			"0.018": 0.0916701578061,
			"0.019": 0.0,
			"0.02": 0.0,
			"0.021": 0.0,
			"0.022": 0.0,
			"0.023": 0.0,
			"0.024": 0.0,
			"0.025": 0.0
		}
	}
}
