{
	 "smiles": "BrCC1=CC=C(CBr)C=C1", 
	 "Tm": 416.15, 
	 "num_atms": 18, 
	 "gaussian": { 
		 "optdone": 1, 
		 "sigma_profile": "yes", 
		 "theory": "DFT", 
		 "functional": "B3LYP", 
		 "basiset": "6-31G**", 
		 "properties": { 
			 "R2extent": 5744.6264, 
			 "electric_dipole_moment_norm": 3.60301286564, 
			 "electric_quadrupole_moment_norm": 10.1756133447, 
			 "total_energy": -5452.49338387, 
			 "HOMO_LUMO_gap": 0.19368, 
			 "cosmo_polarized_energy": -9.38, 
			 "cosmo_cavitation_energy": 26.68, 
			 "cosmo_dispersion_energy": -19.81, 
			 "cosmo_repulsion_energy": 1.63, 
			 "cosmo_total_nonelectrostatic_energy": 8.5, 
			 "SMD_solvation_energy": 1.98 
		},
		"coords": [
			{
				"x": 1.1469335438,
				"y": 3.3298157215,
				"z": 1.5490494867,
				"element": "Br" 
			},
			{
				"x": 0.3270844286,
				"y": 1.5250690698,
				"z": 1.8619830351,
				"element": "C" 
			},
			{
				"x": 0.1510219102,
				"y": 0.7566295436,
				"z": 0.5933562538,
				"element": "C" 
			},
			{
				"x": 1.1634125271,
				"y": -0.0932244011,
				"z": 0.12627426,
				"element": "C" 
			},
			{
				"x": 0.9912996236,
				"y": -0.8247947406,
				"z": -1.0447876625,
				"element": "C" 
			},
			{
				"x": -0.1978808774,
				"y": -0.726370953,
				"z": -1.7806546422,
				"element": "C" 
			},
			{
				"x": -0.3912318516,
				"y": -1.5281382719,
				"z": -3.0259310277,
				"element": "C" 
			},
			{
				"x": 0.2383123399,
				"y": -0.5523022513,
				"z": -4.6625972304,
				"element": "Br" 
			},
			{
				"x": -1.2081647239,
				"y": 0.1275055704,
				"z": -1.3164039033,
				"element": "C" 
			},
			{
				"x": -1.0360586402,
				"y": 0.8590677593,
				"z": -0.1453112832,
				"element": "C" 
			},
			{
				"x": -0.6174926135,
				"y": 1.7435568293,
				"z": 2.3566663627,
				"element": "H" 
			},
			{
				"x": 1.009201836,
				"y": 1.0394309391,
				"z": 2.5573642693,
				"element": "H" 
			},
			{
				"x": 2.0912057972,
				"y": -0.179921463,
				"z": 0.6853698326,
				"element": "H" 
			},
			{
				"x": 1.785586065,
				"y": -1.4789830261,
				"z": -1.3941457888,
				"element": "H" 
			},
			{
				"x": -1.438476592,
				"y": -1.7432816693,
				"z": -3.2300398082,
				"element": "H" 
			},
			{
				"x": 0.1865451974,
				"y": -2.4505454576,
				"z": -3.0269642555,
				"element": "H" 
			},
			{
				"x": -2.1340195931,
				"y": 0.2179416849,
				"z": -1.8781115244,
				"element": "H" 
			},
			{
				"x": -1.8283783772,
				"y": 1.517045116,
				"z": 0.2013836262,
				"element": "H" 
			}
		],
		 "valence_orbital": [ 
			{
				"type": "occ",
				"energy": -0.27557,
				"method": "rhf"
			},
			{
				"type": "occ",
				"energy": -0.27299,
				"method": "rhf"
			},
			{
				"type": "occ",
				"energy": -0.2724,
				"method": "rhf"
			},
			{
				"type": "occ",
				"energy": -0.2644,
				"method": "rhf"
			},
			{
				"type": "occ",
				"energy": -0.25068,
				"method": "rhf"
			},
			{
				"type": "unocc",
				"energy": -0.057,
				"method": "rhf"
			},
			{
				"type": "unocc",
				"energy": -0.01819,
				"method": "rhf"
			},
			{
				"type": "unocc",
				"energy": -0.00529,
				"method": "rhf"
			},
			{
				"type": "unocc",
				"energy": 0.03753,
				"method": "rhf"
			},
			{
				"type": "unocc",
				"energy": 0.0824,
				"method": "rhf"
			}
		],
		"cosmo_sigma_profile": { 
			"-0.025": 0.0,
			"-0.024": 0.0,
			"-0.023": 0.0,
			"-0.022": 0.0,
			"-0.021": 0.0,
			"-0.02": 0.0,
			"-0.019": 0.0,
			"-0.018": 0.0,
			"-0.017": 0.0,
			"-0.016": 0.0,
			"-0.015": 0.0,
			"-0.014": 0.0,
			"-0.013": 0.0,
			"-0.012": 0.0,
			"-0.011": 0.0,
			"-0.01": 0.0,
			"-0.009": 0.0,
			"-0.008": 5.76339795099,
			"-0.007": 15.5257733715,
			"-0.006": 17.7351807321,
			"-0.005": 14.0033874706,
			"-0.004": 14.7435932798,
			"-0.003": 9.81966410143,
			"-0.002": 10.7108123304,
			"-0.001": 10.5345728406,
			"0.0": 10.8392421828,
			"0.001": 11.8546511084,
			"0.002": 12.9040186921,
			"0.003": 15.2930108101,
			"0.004": 22.2274431624,
			"0.005": 15.307736185,
			"0.006": 23.051742562,
			"0.007": 8.75816852096,
			"0.008": 0.0,
			"0.009": 0.0,
			"0.01": 0.0,
			"0.011": 0.0,
			"0.012": 0.0,
			"0.013": 0.0,
			"0.014": 0.0,
			"0.015": 0.0,
			"0.016": 0.0,
			"0.017": 0.0,
			"0.018": 0.0,
			"0.019": 0.0,
			"0.02": 0.0,
			"0.021": 0.0,
			"0.022": 0.0,
			"0.023": 0.0,
			"0.024": 0.0,
			"0.025": 0.0
		}
	}
}
