{
	 "smiles": "ClS(=O)(=O)C1=CC2=C(C=C1)C1=C(C2)C=CC=C1", 
	 "Tm": 431.15, 
	 "num_atms": 26, 
	 "gaussian": { 
		 "optdone": 1, 
		 "sigma_profile": "yes", 
		 "theory": "DFT", 
		 "functional": "B3LYP", 
		 "basiset": "6-31G**", 
		 "properties": { 
			 "R2extent": 7680.5257, 
			 "electric_dipole_moment_norm": 6.827096686, 
			 "electric_quadrupole_moment_norm": 25.6342503639, 
			 "total_energy": -1509.58609155, 
			 "HOMO_LUMO_gap": 0.15447, 
			 "cosmo_polarized_energy": -10.82, 
			 "cosmo_cavitation_energy": 33.57, 
			 "cosmo_dispersion_energy": -25.08, 
			 "cosmo_repulsion_energy": 1.87, 
			 "cosmo_total_nonelectrostatic_energy": 10.37, 
			 "SMD_solvation_energy": 3.61 
		},
		"coords": [
			{
				"x": -5.6273835988,
				"y": -1.4005117744,
				"z": -1.0013107062,
				"element": "Cl" 
			},
			{
				"x": -4.3754830574,
				"y": -0.0825775447,
				"z": -2.1365585313,
				"element": "S" 
			},
			{
				"x": -5.0343919607,
				"y": 1.2176728252,
				"z": -2.1037574651,
				"element": "O" 
			},
			{
				"x": -4.0949417471,
				"y": -0.7811922602,
				"z": -3.3855115374,
				"element": "O" 
			},
			{
				"x": -2.9031908707,
				"y": -0.0348669045,
				"z": -1.1364830816,
				"element": "C" 
			},
			{
				"x": -1.8998702202,
				"y": -0.9807692962,
				"z": -1.3814013775,
				"element": "C" 
			},
			{
				"x": -0.7584418904,
				"y": -0.9187086601,
				"z": -0.5969623856,
				"element": "C" 
			},
			{
				"x": -0.6274280351,
				"y": 0.0658152958,
				"z": 0.4096238915,
				"element": "C" 
			},
			{
				"x": -1.6445712191,
				"y": 0.9993503727,
				"z": 0.6338684379,
				"element": "C" 
			},
			{
				"x": -2.7975913835,
				"y": 0.9477267757,
				"z": -0.1463788269,
				"element": "C" 
			},
			{
				"x": 0.670872164,
				"y": -0.1105320733,
				"z": 1.0677177088,
				"element": "C" 
			},
			{
				"x": 1.3352119033,
				"y": -1.1997260118,
				"z": 0.4653003963,
				"element": "C" 
			},
			{
				"x": 0.4790182679,
				"y": -1.790416389,
				"z": -0.6355720451,
				"element": "C" 
			},
			{
				"x": 2.5969650758,
				"y": -1.5841395818,
				"z": 0.906547028,
				"element": "C" 
			},
			{
				"x": 3.1922882472,
				"y": -0.8730649046,
				"z": 1.9536413872,
				"element": "C" 
			},
			{
				"x": 2.5330524832,
				"y": 0.2084881987,
				"z": 2.5515054616,
				"element": "C" 
			},
			{
				"x": 1.2673407244,
				"y": 0.5988000494,
				"z": 2.1139110262,
				"element": "C" 
			},
			{
				"x": -2.0238392426,
				"y": -1.7194094188,
				"z": -2.1661528637,
				"element": "H" 
			},
			{
				"x": -1.545316214,
				"y": 1.7608599976,
				"z": 1.4011673216,
				"element": "H" 
			},
			{
				"x": -3.6024782816,
				"y": 1.6600123239,
				"z": -0.0050574598,
				"element": "H" 
			},
			{
				"x": 0.9762169421,
				"y": -1.7482423465,
				"z": -1.6135066341,
				"element": "H" 
			},
			{
				"x": 0.2401998257,
				"y": -2.8462461988,
				"z": -0.4526559395,
				"element": "H" 
			},
			{
				"x": 3.1161332966,
				"y": -2.4218684361,
				"z": 0.4487634255,
				"element": "H" 
			},
			{
				"x": 4.1774223121,
				"y": -1.1625344802,
				"z": 2.3075394678,
				"element": "H" 
			},
			{
				"x": 3.0124882633,
				"y": 0.7474982796,
				"z": 3.3631902517,
				"element": "H" 
			},
			{
				"x": 0.7596182155,
				"y": 1.4380821626,
				"z": 2.5807330495,
				"element": "H" 
			}
		],
		 "valence_orbital": [ 
			{
				"type": "occ",
				"energy": -0.30683,
				"method": "rhf"
			},
			{
				"type": "occ",
				"energy": -0.30492,
				"method": "rhf"
			},
			{
				"type": "occ",
				"energy": -0.28015,
				"method": "rhf"
			},
			{
				"type": "occ",
				"energy": -0.26378,
				"method": "rhf"
			},
			{
				"type": "occ",
				"energy": -0.24268,
				"method": "rhf"
			},
			{
				"type": "unocc",
				"energy": -0.08821,
				"method": "rhf"
			},
			{
				"type": "unocc",
				"energy": -0.05309,
				"method": "rhf"
			},
			{
				"type": "unocc",
				"energy": -0.0376,
				"method": "rhf"
			},
			{
				"type": "unocc",
				"energy": -0.0141,
				"method": "rhf"
			},
			{
				"type": "unocc",
				"energy": 0.00622,
				"method": "rhf"
			}
		],
		"cosmo_sigma_profile": { 
			"-0.025": 0.0,
			"-0.024": 0.0,
			"-0.023": 0.0,
			"-0.022": 0.0,
			"-0.021": 0.0,
			"-0.02": 0.0,
			"-0.019": 0.0,
			"-0.018": 0.0,
			"-0.017": 0.0,
			"-0.016": 0.0,
			"-0.015": 0.0,
			"-0.014": 0.0,
			"-0.013": 0.0,
			"-0.012": 0.0,
			"-0.011": 0.0,
			"-0.01": 0.0,
			"-0.009": 0.0672688686489,
			"-0.008": 2.92069771153,
			"-0.007": 8.30104875583,
			"-0.006": 18.2603838279,
			"-0.005": 20.7938782599,
			"-0.004": 21.6017626306,
			"-0.003": 17.343701516,
			"-0.002": 15.0821617752,
			"-0.001": 17.577225023,
			"0.0": 20.0076527051,
			"0.001": 27.3155441028,
			"0.002": 23.8523192077,
			"0.003": 19.1896224437,
			"0.004": 23.7447107026,
			"0.005": 11.3248015211,
			"0.006": 4.16466095642,
			"0.007": 5.18770857585,
			"0.008": 9.62348267915,
			"0.009": 6.18617456221,
			"0.01": 0.20707909578,
			"0.011": 0.0,
			"0.012": 0.0,
			"0.013": 0.0,
			"0.014": 0.0,
			"0.015": 0.0,
			"0.016": 0.0,
			"0.017": 0.0,
			"0.018": 0.0,
			"0.019": 0.0,
			"0.02": 0.0,
			"0.021": 0.0,
			"0.022": 0.0,
			"0.023": 0.0,
			"0.024": 0.0,
			"0.025": 0.0
		}
	}
}
