{
	 "smiles": "BrCC(=O)C1=CC(=CC=C1)C(=O)CBr", 
	 "Tm": 364.15, 
	 "num_atms": 22, 
	 "gaussian": { 
		 "optdone": 1, 
		 "sigma_profile": "yes", 
		 "theory": "DFT", 
		 "functional": "B3LYP", 
		 "basiset": "6-31G**", 
		 "properties": { 
			 "R2extent": 7812.6896, 
			 "electric_dipole_moment_norm": 0.0127718440329, 
			 "electric_quadrupole_moment_norm": 17.891871944, 
			 "total_energy": -5679.13739643, 
			 "HOMO_LUMO_gap": 0.17568, 
			 "cosmo_polarized_energy": -12.04, 
			 "cosmo_cavitation_energy": 31.47, 
			 "cosmo_dispersion_energy": -22.31, 
			 "cosmo_repulsion_energy": 1.76, 
			 "cosmo_total_nonelectrostatic_energy": 10.91, 
			 "SMD_solvation_energy": 4.25 
		},
		"coords": [
			{
				"x": -0.5327803815,
				"y": -1.1193161252,
				"z": 3.46746664,
				"element": "Br" 
			},
			{
				"x": 1.0724417436,
				"y": -0.77054186,
				"z": 2.3597386824,
				"element": "C" 
			},
			{
				"x": 0.7549505634,
				"y": -0.9178894856,
				"z": 0.8744705703,
				"element": "C" 
			},
			{
				"x": 1.1987060953,
				"y": -1.8837642614,
				"z": 0.2758946874,
				"element": "O" 
			},
			{
				"x": -0.0446854525,
				"y": 0.1339706916,
				"z": 0.1752849291,
				"element": "C" 
			},
			{
				"x": -0.5609603553,
				"y": 1.2570614191,
				"z": 0.833319426,
				"element": "C" 
			},
			{
				"x": -1.2795249454,
				"y": 2.2280843411,
				"z": 0.1250489313,
				"element": "C" 
			},
			{
				"x": -1.4763309094,
				"y": 2.0675754276,
				"z": -1.2560248349,
				"element": "C" 
			},
			{
				"x": -0.9677430874,
				"y": 0.9512275973,
				"z": -1.915905532,
				"element": "C" 
			},
			{
				"x": -0.2564714429,
				"y": -0.0127199928,
				"z": -1.2051087016,
				"element": "C" 
			},
			{
				"x": -1.8793287643,
				"y": 3.4302759055,
				"z": 0.7805225523,
				"element": "C" 
			},
			{
				"x": -2.507318922,
				"y": 4.2577593565,
				"z": 0.1409734564,
				"element": "O" 
			},
			{
				"x": -1.7528212027,
				"y": 3.6165712225,
				"z": 2.2897764718,
				"element": "C" 
			},
			{
				"x": 0.0899613082,
				"y": 4.1472237189,
				"z": 2.7877753488,
				"element": "Br" 
			},
			{
				"x": 1.8012154965,
				"y": -1.5279055341,
				"z": 2.6364067387,
				"element": "H" 
			},
			{
				"x": 1.4171316403,
				"y": 0.2268773289,
				"z": 2.6323529648,
				"element": "H" 
			},
			{
				"x": -0.4034275628,
				"y": 1.3754850141,
				"z": 1.8974735417,
				"element": "H" 
			},
			{
				"x": -2.0355888936,
				"y": 2.8311173771,
				"z": -1.7862550687,
				"element": "H" 
			},
			{
				"x": -1.12564682,
				"y": 0.8325085397,
				"z": -2.9833835571,
				"element": "H" 
			},
			{
				"x": 0.1515439491,
				"y": -0.8899319535,
				"z": -1.6959578503,
				"element": "H" 
			},
			{
				"x": -1.9712191657,
				"y": 2.7124362903,
				"z": 2.8579599632,
				"element": "H" 
			},
			{
				"x": -2.3967028908,
				"y": 4.4375949824,
				"z": 2.5940706403,
				"element": "H" 
			}
		],
		 "valence_orbital": [ 
			{
				"type": "occ",
				"energy": -0.29274,
				"method": "rhf"
			},
			{
				"type": "occ",
				"energy": -0.2789,
				"method": "rhf"
			},
			{
				"type": "occ",
				"energy": -0.27832,
				"method": "rhf"
			},
			{
				"type": "occ",
				"energy": -0.27228,
				"method": "rhf"
			},
			{
				"type": "occ",
				"energy": -0.26699,
				"method": "rhf"
			},
			{
				"type": "unocc",
				"energy": -0.09131,
				"method": "rhf"
			},
			{
				"type": "unocc",
				"energy": -0.07972,
				"method": "rhf"
			},
			{
				"type": "unocc",
				"energy": -0.02687,
				"method": "rhf"
			},
			{
				"type": "unocc",
				"energy": -0.02276,
				"method": "rhf"
			},
			{
				"type": "unocc",
				"energy": 0.02123,
				"method": "rhf"
			}
		],
		"cosmo_sigma_profile": { 
			"-0.025": 0.0,
			"-0.024": 0.0,
			"-0.023": 0.0,
			"-0.022": 0.0,
			"-0.021": 0.0,
			"-0.02": 0.0,
			"-0.019": 0.0,
			"-0.018": 0.0,
			"-0.017": 0.0,
			"-0.016": 0.0,
			"-0.015": 0.0,
			"-0.014": 0.0,
			"-0.013": 0.0,
			"-0.012": 0.0,
			"-0.011": 0.0,
			"-0.01": 0.0532713202906,
			"-0.009": 4.25997539257,
			"-0.008": 10.9907474995,
			"-0.007": 14.1471856629,
			"-0.006": 15.9009862372,
			"-0.005": 13.5772510933,
			"-0.004": 11.7422434467,
			"-0.003": 9.96885825595,
			"-0.002": 14.5971787511,
			"-0.001": 16.8763253256,
			"0.0": 23.3331060396,
			"0.001": 27.1922657681,
			"0.002": 19.3551486687,
			"0.003": 16.9942511117,
			"0.004": 16.8312802074,
			"0.005": 14.9725287112,
			"0.006": 2.77306459324,
			"0.007": 4.7162423734,
			"0.008": 2.70471313271,
			"0.009": 4.09706412869,
			"0.01": 7.0387181344,
			"0.011": 5.66442157431,
			"0.012": 0.844064678447,
			"0.013": 0.0,
			"0.014": 0.0,
			"0.015": 0.0,
			"0.016": 0.0,
			"0.017": 0.0,
			"0.018": 0.0,
			"0.019": 0.0,
			"0.02": 0.0,
			"0.021": 0.0,
			"0.022": 0.0,
			"0.023": 0.0,
			"0.024": 0.0,
			"0.025": 0.0
		}
	}
}
