{
	 "smiles": "OC(=O)C1=C(OC2=CN=CC=C2)N=CC=C1", 
	 "Tm": 464.15, 
	 "num_atms": 24, 
	 "gaussian": { 
		 "optdone": 1, 
		 "sigma_profile": "yes", 
		 "theory": "DFT", 
		 "functional": "B3LYP", 
		 "basiset": "6-31G**", 
		 "properties": { 
			 "R2extent": 4019.1122, 
			 "electric_dipole_moment_norm": 1.76415802297, 
			 "electric_quadrupole_moment_norm": 16.2232715483, 
			 "total_energy": -759.160183295, 
			 "HOMO_LUMO_gap": 0.18044, 
			 "cosmo_polarized_energy": -14.71, 
			 "cosmo_cavitation_energy": 29.99, 
			 "cosmo_dispersion_energy": -21.64, 
			 "cosmo_repulsion_energy": 1.69, 
			 "cosmo_total_nonelectrostatic_energy": 10.05, 
			 "SMD_solvation_energy": 4.52 
		},
		"coords": [
			{
				"x": 2.2798863341,
				"y": -1.3043531472,
				"z": 1.0191852554,
				"element": "O" 
			},
			{
				"x": 1.2179983505,
				"y": -1.6782483111,
				"z": 1.7604416899,
				"element": "C" 
			},
			{
				"x": 1.2640605093,
				"y": -2.6316662025,
				"z": 2.5166887977,
				"element": "O" 
			},
			{
				"x": -0.0047026195,
				"y": -0.8445104964,
				"z": 1.5842071712,
				"element": "C" 
			},
			{
				"x": -0.1651294596,
				"y": 0.2771487161,
				"z": 0.7330582538,
				"element": "C" 
			},
			{
				"x": 0.897919682,
				"y": 0.6855263148,
				"z": -0.006967781,
				"element": "O" 
			},
			{
				"x": 0.7502394079,
				"y": 1.7029971536,
				"z": -0.9425044104,
				"element": "C" 
			},
			{
				"x": 0.0035878378,
				"y": 1.5180269511,
				"z": -2.1085790723,
				"element": "C" 
			},
			{
				"x": -0.0715185431,
				"y": 2.4409093505,
				"z": -3.0692772217,
				"element": "N" 
			},
			{
				"x": 0.6077231757,
				"y": 3.5830856901,
				"z": -2.892457379,
				"element": "C" 
			},
			{
				"x": 1.3849263318,
				"y": 3.8487131842,
				"z": -1.7654735652,
				"element": "C" 
			},
			{
				"x": 1.4593177377,
				"y": 2.8836016713,
				"z": -0.7610010596,
				"element": "C" 
			},
			{
				"x": -1.2969056373,
				"y": 0.9637617064,
				"z": 0.6334097441,
				"element": "N" 
			},
			{
				"x": -2.3445115139,
				"y": 0.5798495902,
				"z": 1.3706114777,
				"element": "C" 
			},
			{
				"x": -2.3119822683,
				"y": -0.503921174,
				"z": 2.2448182787,
				"element": "C" 
			},
			{
				"x": -1.120750178,
				"y": -1.215302787,
				"z": 2.3428616367,
				"element": "C" 
			},
			{
				"x": 2.9812497618,
				"y": -1.9399709388,
				"z": 1.2418470201,
				"element": "H" 
			},
			{
				"x": -0.5465209362,
				"y": 0.5923412674,
				"z": -2.2608231717,
				"element": "H" 
			},
			{
				"x": 0.5294218028,
				"y": 4.3157947289,
				"z": -3.6930452736,
				"element": "H" 
			},
			{
				"x": 1.920509402,
				"y": 4.7884785233,
				"z": -1.6748247691,
				"element": "H" 
			},
			{
				"x": 2.0498827886,
				"y": 3.0279781945,
				"z": 0.1377578743,
				"element": "H" 
			},
			{
				"x": -3.248317609,
				"y": 1.1744561474,
				"z": 1.2520103559,
				"element": "H" 
			},
			{
				"x": -3.1860434697,
				"y": -0.7785032136,
				"z": 2.8244857974,
				"element": "H" 
			},
			{
				"x": -1.0175408873,
				"y": -2.0718929192,
				"z": 3.0002703506,
				"element": "H" 
			}
		],
		 "valence_orbital": [ 
			{
				"type": "occ",
				"energy": -0.28766,
				"method": "rhf"
			},
			{
				"type": "occ",
				"energy": -0.27637,
				"method": "rhf"
			},
			{
				"type": "occ",
				"energy": -0.26784,
				"method": "rhf"
			},
			{
				"type": "occ",
				"energy": -0.25467,
				"method": "rhf"
			},
			{
				"type": "occ",
				"energy": -0.24297,
				"method": "rhf"
			},
			{
				"type": "unocc",
				"energy": -0.06253,
				"method": "rhf"
			},
			{
				"type": "unocc",
				"energy": -0.02721,
				"method": "rhf"
			},
			{
				"type": "unocc",
				"energy": -0.02266,
				"method": "rhf"
			},
			{
				"type": "unocc",
				"energy": -0.0076,
				"method": "rhf"
			},
			{
				"type": "unocc",
				"energy": 0.04238,
				"method": "rhf"
			}
		],
		"cosmo_sigma_profile": { 
			"-0.025": 0.0,
			"-0.024": 0.0,
			"-0.023": 0.0,
			"-0.022": 0.0,
			"-0.021": 0.0,
			"-0.02": 0.0,
			"-0.019": 0.0680887802485,
			"-0.018": 0.694630729161,
			"-0.017": 0.706372555306,
			"-0.016": 1.38277226184,
			"-0.015": 0.490751384706,
			"-0.014": 0.968202490839,
			"-0.013": 0.431046463901,
			"-0.012": 0.745905047488,
			"-0.011": 0.645803684762,
			"-0.01": 0.875358435328,
			"-0.009": 0.334963679033,
			"-0.008": 4.13360048476,
			"-0.007": 14.4420358122,
			"-0.006": 15.6229841788,
			"-0.005": 15.2168727573,
			"-0.004": 11.0240737929,
			"-0.003": 13.2500947338,
			"-0.002": 17.6799389847,
			"-0.001": 17.0155184411,
			"0.0": 22.716613887,
			"0.001": 20.1309009977,
			"0.002": 18.8388801418,
			"0.003": 9.4267325651,
			"0.004": 6.62458977931,
			"0.005": 6.5776195506,
			"0.006": 5.27553822081,
			"0.007": 4.4792886008,
			"0.008": 5.78525904759,
			"0.009": 4.81727792862,
			"0.01": 5.60186908054,
			"0.011": 7.44996359499,
			"0.012": 5.04682491315,
			"0.013": 0.623587912615,
			"0.014": 1.25986284824,
			"0.015": 0.750537061234,
			"0.016": 0.630985357179,
			"0.017": 0.0804508006858,
			"0.018": 0.0,
			"0.019": 0.0,
			"0.02": 0.0,
			"0.021": 0.0,
			"0.022": 0.0,
			"0.023": 0.0,
			"0.024": 0.0,
			"0.025": 0.0
		}
	}
}
