{
	 "smiles": "OCC1=CC=CC=C1O", 
	 "Tm": 359.15, 
	 "num_atms": 17, 
	 "gaussian": { 
		 "optdone": 1, 
		 "sigma_profile": "yes", 
		 "theory": "DFT", 
		 "functional": "B3LYP", 
		 "basiset": "6-31G**", 
		 "properties": { 
			 "R2extent": 1694.1417, 
			 "electric_dipole_moment_norm": 2.62573637862, 
			 "electric_quadrupole_moment_norm": 5.08873928984, 
			 "total_energy": -421.999184055, 
			 "HOMO_LUMO_gap": 0.21965, 
			 "cosmo_polarized_energy": -11.21, 
			 "cosmo_cavitation_energy": 20.5, 
			 "cosmo_dispersion_energy": -15.48, 
			 "cosmo_repulsion_energy": 1.28, 
			 "cosmo_total_nonelectrostatic_energy": 6.29, 
			 "SMD_solvation_energy": 3.88 
		},
		"coords": [
			{
				"x": 3.1270806957,
				"y": 0.8937556656,
				"z": 1.6893090373,
				"element": "O" 
			},
			{
				"x": 2.3035075701,
				"y": -0.131741599,
				"z": 1.152375527,
				"element": "C" 
			},
			{
				"x": 1.5406057088,
				"y": 0.290552389,
				"z": -0.0894785835,
				"element": "C" 
			},
			{
				"x": 1.3987345605,
				"y": 1.6339539082,
				"z": -0.4405812273,
				"element": "C" 
			},
			{
				"x": 0.6974840831,
				"y": 2.0178677179,
				"z": -1.5869135757,
				"element": "C" 
			},
			{
				"x": 0.1215590858,
				"y": 1.042315114,
				"z": -2.3988696355,
				"element": "C" 
			},
			{
				"x": 0.2440680828,
				"y": -0.307597947,
				"z": -2.0635106522,
				"element": "C" 
			},
			{
				"x": 0.9461571749,
				"y": -0.6795991709,
				"z": -0.9150827489,
				"element": "C" 
			},
			{
				"x": 1.0897158764,
				"y": -1.9893524413,
				"z": -0.5337567269,
				"element": "O" 
			},
			{
				"x": 3.8016025538,
				"y": 1.0977047633,
				"z": 1.0278382681,
				"element": "H" 
			},
			{
				"x": 2.8793614687,
				"y": -1.0432148832,
				"z": 0.9367981564,
				"element": "H" 
			},
			{
				"x": 1.6018238208,
				"y": -0.3945207192,
				"z": 1.9529896192,
				"element": "H" 
			},
			{
				"x": 1.8499021185,
				"y": 2.379370686,
				"z": 0.2067834517,
				"element": "H" 
			},
			{
				"x": 0.6015417339,
				"y": 3.0692348101,
				"z": -1.8400373936,
				"element": "H" 
			},
			{
				"x": -0.4261111445,
				"y": 1.3234671778,
				"z": -3.2937147837,
				"element": "H" 
			},
			{
				"x": -0.2055045155,
				"y": -1.0737393503,
				"z": -2.6927016439,
				"element": "H" 
			},
			{
				"x": 0.6618711262,
				"y": -2.557256121,
				"z": -1.1873470886,
				"element": "H" 
			}
		],
		 "valence_orbital": [ 
			{
				"type": "occ",
				"energy": -0.33277,
				"method": "rhf"
			},
			{
				"type": "occ",
				"energy": -0.32407,
				"method": "rhf"
			},
			{
				"type": "occ",
				"energy": -0.27179,
				"method": "rhf"
			},
			{
				"type": "occ",
				"energy": -0.24406,
				"method": "rhf"
			},
			{
				"type": "occ",
				"energy": -0.21928,
				"method": "rhf"
			},
			{
				"type": "unocc",
				"energy": 0.00037,
				"method": "rhf"
			},
			{
				"type": "unocc",
				"energy": 0.01306,
				"method": "rhf"
			},
			{
				"type": "unocc",
				"energy": 0.06678,
				"method": "rhf"
			},
			{
				"type": "unocc",
				"energy": 0.08641,
				"method": "rhf"
			},
			{
				"type": "unocc",
				"energy": 0.09988,
				"method": "rhf"
			}
		],
		"cosmo_sigma_profile": { 
			"-0.025": 0.0,
			"-0.024": 0.0,
			"-0.023": 0.0,
			"-0.022": 0.0,
			"-0.021": 0.0,
			"-0.02": 0.0,
			"-0.019": 0.0,
			"-0.018": 0.2845538479,
			"-0.017": 1.10756147464,
			"-0.016": 1.29973123856,
			"-0.015": 1.76033502755,
			"-0.014": 2.15354368295,
			"-0.013": 1.32911850917,
			"-0.012": 1.65364445787,
			"-0.011": 2.06079638713,
			"-0.01": 1.59933817016,
			"-0.009": 2.08789227532,
			"-0.008": 2.37039919903,
			"-0.007": 2.20444648964,
			"-0.006": 4.0360521585,
			"-0.005": 8.74090091611,
			"-0.004": 10.7583678771,
			"-0.003": 11.8743344144,
			"-0.002": 11.3125828799,
			"-0.001": 8.97228951544,
			"0.0": 7.61819936181,
			"0.001": 8.22930531589,
			"0.002": 8.4020281389,
			"0.003": 11.013791163,
			"0.004": 10.2025886593,
			"0.005": 10.1997522075,
			"0.006": 10.7224344742,
			"0.007": 5.62035512225,
			"0.008": 2.47172611029,
			"0.009": 3.06172187835,
			"0.01": 2.39013504808,
			"0.011": 1.10496018033,
			"0.012": 1.85966049391,
			"0.013": 1.53748107302,
			"0.014": 1.83532479756,
			"0.015": 0.128985424187,
			"0.016": 0.0,
			"0.017": 0.0,
			"0.018": 0.0,
			"0.019": 0.0,
			"0.02": 0.0,
			"0.021": 0.0,
			"0.022": 0.0,
			"0.023": 0.0,
			"0.024": 0.0,
			"0.025": 0.0
		}
	}
}
