{
	 "smiles": "CC(C)(C)OC(=O)NC1=CC=C(CC#N)C=C1", 
	 "Tm": 393.15, 
	 "num_atms": 33, 
	 "gaussian": { 
		 "optdone": 1, 
		 "sigma_profile": "yes", 
		 "theory": "DFT", 
		 "functional": "B3LYP", 
		 "basiset": "6-31G**", 
		 "properties": { 
			 "R2extent": 8574.1364, 
			 "electric_dipole_moment_norm": 4.3434241803, 
			 "electric_quadrupole_moment_norm": 24.5165934816, 
			 "total_energy": -765.005282964, 
			 "HOMO_LUMO_gap": 0.2094, 
			 "cosmo_polarized_energy": -14.6, 
			 "cosmo_cavitation_energy": 37.14, 
			 "cosmo_dispersion_energy": -26.08, 
			 "cosmo_repulsion_energy": 2.03, 
			 "cosmo_total_nonelectrostatic_energy": 13.08, 
			 "SMD_solvation_energy": 8.55 
		},
		"coords": [
			{
				"x": -3.390842242,
				"y": 1.2576767043,
				"z": -1.4655357927,
				"element": "C" 
			},
			{
				"x": -2.5970025969,
				"y": -0.0147822005,
				"z": -1.7787534554,
				"element": "C" 
			},
			{
				"x": -3.4261513225,
				"y": -1.2861437827,
				"z": -1.5702019524,
				"element": "C" 
			},
			{
				"x": -2.0249728912,
				"y": 0.0356687851,
				"z": -3.1976610003,
				"element": "C" 
			},
			{
				"x": -1.3801095126,
				"y": -0.0658910162,
				"z": -0.94780827,
				"element": "O" 
			},
			{
				"x": -1.4588595584,
				"y": -0.1217118749,
				"z": 0.402705265,
				"element": "C" 
			},
			{
				"x": -2.4788932026,
				"y": -0.1337880789,
				"z": 1.0692515267,
				"element": "O" 
			},
			{
				"x": -0.1738110097,
				"y": -0.1623965742,
				"z": 0.8977594532,
				"element": "N" 
			},
			{
				"x": 0.245054828,
				"y": -0.2273295221,
				"z": 2.2377425244,
				"element": "C" 
			},
			{
				"x": 1.6266914428,
				"y": -0.2551647434,
				"z": 2.4826845411,
				"element": "C" 
			},
			{
				"x": 2.1181880138,
				"y": -0.3214542328,
				"z": 3.7823912972,
				"element": "C" 
			},
			{
				"x": 1.2441097333,
				"y": -0.3640659565,
				"z": 4.872470216,
				"element": "C" 
			},
			{
				"x": 1.7408184274,
				"y": -0.388598542,
				"z": 6.3130969397,
				"element": "C" 
			},
			{
				"x": 3.0816259103,
				"y": -0.9574524621,
				"z": 6.4790129463,
				"element": "C" 
			},
			{
				"x": 4.1489249944,
				"y": -1.3962463653,
				"z": 6.6026435731,
				"element": "N" 
			},
			{
				"x": -0.131363613,
				"y": -0.3411771414,
				"z": 4.6205220877,
				"element": "C" 
			},
			{
				"x": -0.6406107483,
				"y": -0.2714157357,
				"z": 3.3258860698,
				"element": "C" 
			},
			{
				"x": -4.2274543213,
				"y": 1.3481501893,
				"z": -2.1657969719,
				"element": "H" 
			},
			{
				"x": -2.7548546383,
				"y": 2.1409793568,
				"z": -1.5812559161,
				"element": "H" 
			},
			{
				"x": -3.7846163247,
				"y": 1.2353304963,
				"z": -0.4491519384,
				"element": "H" 
			},
			{
				"x": -3.820484705,
				"y": -1.336369972,
				"z": -0.5550391259,
				"element": "H" 
			},
			{
				"x": -4.2640714347,
				"y": -1.2957230135,
				"z": -2.2746701457,
				"element": "H" 
			},
			{
				"x": -2.8147217771,
				"y": -2.174254707,
				"z": -1.7585484659,
				"element": "H" 
			},
			{
				"x": -1.4204446709,
				"y": -0.8525455002,
				"z": -3.4029933901,
				"element": "H" 
			},
			{
				"x": -1.3956007995,
				"y": 0.9205154514,
				"z": -3.3299618046,
				"element": "H" 
			},
			{
				"x": -2.8384051385,
				"y": 0.0771326708,
				"z": -3.9278729529,
				"element": "H" 
			},
			{
				"x": 0.5505817153,
				"y": -0.1446533337,
				"z": 0.1944806798,
				"element": "H" 
			},
			{
				"x": 2.3227661048,
				"y": -0.2282854686,
				"z": 1.6476179596,
				"element": "H" 
			},
			{
				"x": 3.1915891912,
				"y": -0.3515069595,
				"z": 3.9446217182,
				"element": "H" 
			},
			{
				"x": 1.0485654189,
				"y": -0.9624744693,
				"z": 6.9401321437,
				"element": "H" 
			},
			{
				"x": 1.760256653,
				"y": 0.6276472299,
				"z": 6.7313058872,
				"element": "H" 
			},
			{
				"x": -0.8310683416,
				"y": -0.3795627861,
				"z": 5.4522259231,
				"element": "H" 
			},
			{
				"x": -1.7064335842,
				"y": -0.2571064454,
				"z": 3.1473004307,
				"element": "H" 
			}
		],
		 "valence_orbital": [ 
			{
				"type": "occ",
				"energy": -0.31165,
				"method": "rhf"
			},
			{
				"type": "occ",
				"energy": -0.29915,
				"method": "rhf"
			},
			{
				"type": "occ",
				"energy": -0.27489,
				"method": "rhf"
			},
			{
				"type": "occ",
				"energy": -0.25964,
				"method": "rhf"
			},
			{
				"type": "occ",
				"energy": -0.22328,
				"method": "rhf"
			},
			{
				"type": "unocc",
				"energy": -0.01388,
				"method": "rhf"
			},
			{
				"type": "unocc",
				"energy": -0.01084,
				"method": "rhf"
			},
			{
				"type": "unocc",
				"energy": 0.03359,
				"method": "rhf"
			},
			{
				"type": "unocc",
				"energy": 0.04234,
				"method": "rhf"
			},
			{
				"type": "unocc",
				"energy": 0.05551,
				"method": "rhf"
			}
		],
		"cosmo_sigma_profile": { 
			"-0.025": 0.0,
			"-0.024": 0.0,
			"-0.023": 0.0,
			"-0.022": 0.0,
			"-0.021": 0.0,
			"-0.02": 0.0,
			"-0.019": 0.0,
			"-0.018": 0.0,
			"-0.017": 0.0,
			"-0.016": 0.0,
			"-0.015": 0.397711152591,
			"-0.014": 0.946187354698,
			"-0.013": 1.40122322376,
			"-0.012": 1.25921212847,
			"-0.011": 0.587914672528,
			"-0.01": 1.37858571008,
			"-0.009": 3.31905992801,
			"-0.008": 8.08584882987,
			"-0.007": 7.09133628215,
			"-0.006": 10.8295151112,
			"-0.005": 11.1473774758,
			"-0.004": 21.3389443385,
			"-0.003": 23.7664139029,
			"-0.002": 22.2970073622,
			"-0.001": 23.7422843294,
			"0.0": 33.1032021532,
			"0.001": 27.0791096443,
			"0.002": 15.1944689303,
			"0.003": 14.2864813301,
			"0.004": 14.3565865043,
			"0.005": 14.392896226,
			"0.006": 6.98821226321,
			"0.007": 5.20652956875,
			"0.008": 4.37206404805,
			"0.009": 4.98325660174,
			"0.01": 5.51980827573,
			"0.011": 5.12243244102,
			"0.012": 3.72164379889,
			"0.013": 1.93629851304,
			"0.014": 0.328807637661,
			"0.015": 0.0505896375142,
			"0.016": 0.0,
			"0.017": 0.0,
			"0.018": 0.0,
			"0.019": 0.0,
			"0.02": 0.0,
			"0.021": 0.0,
			"0.022": 0.0,
			"0.023": 0.0,
			"0.024": 0.0,
			"0.025": 0.0
		}
	}
}
