{
	 "smiles": "O=C1NCCS1", 
	 "Tm": 325.15, 
	 "num_atms": 11, 
	 "gaussian": { 
		 "optdone": 1, 
		 "sigma_profile": "yes", 
		 "theory": "DFT", 
		 "functional": "B3LYP", 
		 "basiset": "6-31G**", 
		 "properties": { 
			 "R2extent": 2232.9148, 
			 "electric_dipole_moment_norm": 4.83159636766, 
			 "electric_quadrupole_moment_norm": 19.2607963418, 
			 "total_energy": -645.508362639, 
			 "HOMO_LUMO_gap": 0.25905, 
			 "cosmo_polarized_energy": -11.97, 
			 "cosmo_cavitation_energy": 15.89, 
			 "cosmo_dispersion_energy": -12.93, 
			 "cosmo_repulsion_energy": 1.07, 
			 "cosmo_total_nonelectrostatic_energy": 4.03, 
			 "SMD_solvation_energy": 2.44 
		},
		"coords": [
			{
				"x": 3.835098709,
				"y": 0.2323760938,
				"z": 1.1736112322,
				"element": "O" 
			},
			{
				"x": 2.73349977,
				"y": 0.0236125182,
				"z": 1.6244702741,
				"element": "C" 
			},
			{
				"x": 1.5322274882,
				"y": 0.3929366616,
				"z": 1.0624380508,
				"element": "N" 
			},
			{
				"x": 0.3347179833,
				"y": -0.2468675696,
				"z": 1.5851762213,
				"element": "C" 
			},
			{
				"x": 0.6050418874,
				"y": -0.4565931687,
				"z": 3.0821410354,
				"element": "C" 
			},
			{
				"x": 2.3995328442,
				"y": -0.8365159902,
				"z": 3.1999659084,
				"element": "S" 
			},
			{
				"x": 1.580983977,
				"y": 0.6797720482,
				"z": 0.0934651819,
				"element": "H" 
			},
			{
				"x": -0.538152807,
				"y": 0.3954328105,
				"z": 1.4327307696,
				"element": "H" 
			},
			{
				"x": 0.1451316181,
				"y": -1.2117768515,
				"z": 1.0924750786,
				"element": "H" 
			},
			{
				"x": 0.0200527261,
				"y": -1.2830834729,
				"z": 3.4878680406,
				"element": "H" 
			},
			{
				"x": 0.3928658038,
				"y": 0.4507069205,
				"z": 3.6531582068,
				"element": "H" 
			}
		],
		 "valence_orbital": [ 
			{
				"type": "occ",
				"energy": -0.39898,
				"method": "rhf"
			},
			{
				"type": "occ",
				"energy": -0.34258,
				"method": "rhf"
			},
			{
				"type": "occ",
				"energy": -0.27437,
				"method": "rhf"
			},
			{
				"type": "occ",
				"energy": -0.2595,
				"method": "rhf"
			},
			{
				"type": "occ",
				"energy": -0.24608,
				"method": "rhf"
			},
			{
				"type": "unocc",
				"energy": 0.01297,
				"method": "rhf"
			},
			{
				"type": "unocc",
				"energy": 0.02287,
				"method": "rhf"
			},
			{
				"type": "unocc",
				"energy": 0.06887,
				"method": "rhf"
			},
			{
				"type": "unocc",
				"energy": 0.07544,
				"method": "rhf"
			},
			{
				"type": "unocc",
				"energy": 0.10813,
				"method": "rhf"
			}
		],
		"cosmo_sigma_profile": { 
			"-0.025": 0.0,
			"-0.024": 0.0,
			"-0.023": 0.0,
			"-0.022": 0.0,
			"-0.021": 0.0,
			"-0.02": 0.0,
			"-0.019": 0.0,
			"-0.018": 0.0,
			"-0.017": 0.0,
			"-0.016": 0.000550064727477,
			"-0.015": 0.746713538812,
			"-0.014": 1.28324310057,
			"-0.013": 1.25808229445,
			"-0.012": 0.94209259786,
			"-0.011": 0.949037439611,
			"-0.01": 0.993316301518,
			"-0.009": 1.05634162173,
			"-0.008": 1.39869940989,
			"-0.007": 4.73475299592,
			"-0.006": 11.2697519161,
			"-0.005": 14.1143646613,
			"-0.004": 11.4408236228,
			"-0.003": 8.96649299333,
			"-0.002": 4.64322290928,
			"-0.001": 2.74086837951,
			"0.0": 3.84722507246,
			"0.001": 4.76069920099,
			"0.002": 6.15807399964,
			"0.003": 6.68278195715,
			"0.004": 6.91873087821,
			"0.005": 5.40260374157,
			"0.006": 4.72694084774,
			"0.007": 5.07375962249,
			"0.008": 2.46632939689,
			"0.009": 1.33690575885,
			"0.01": 1.69363281283,
			"0.011": 2.79346257995,
			"0.012": 5.84723281676,
			"0.013": 3.48515960025,
			"0.014": 0.0768106988194,
			"0.015": 0.0,
			"0.016": 0.0,
			"0.017": 0.0,
			"0.018": 0.0,
			"0.019": 0.0,
			"0.02": 0.0,
			"0.021": 0.0,
			"0.022": 0.0,
			"0.023": 0.0,
			"0.024": 0.0,
			"0.025": 0.0
		}
	}
}
