{
	 "smiles": "NC1=NC(=CS1)C1=CC=C(F)C(F)=C1", 
	 "Tm": 389.15, 
	 "num_atms": 20, 
	 "gaussian": { 
		 "optdone": 1, 
		 "sigma_profile": "yes", 
		 "theory": "DFT", 
		 "functional": "B3LYP", 
		 "basiset": "6-31G**", 
		 "properties": { 
			 "R2extent": 4373.5053, 
			 "electric_dipole_moment_norm": 3.90982807934, 
			 "electric_quadrupole_moment_norm": 16.1401644195, 
			 "total_energy": -1053.92635896, 
			 "HOMO_LUMO_gap": 0.17116, 
			 "cosmo_polarized_energy": -11.15, 
			 "cosmo_cavitation_energy": 27.57, 
			 "cosmo_dispersion_energy": -20.8, 
			 "cosmo_repulsion_energy": 1.53, 
			 "cosmo_total_nonelectrostatic_energy": 8.31, 
			 "SMD_solvation_energy": 4.36 
		},
		"coords": [
			{
				"x": 0.188373505,
				"y": -2.79903075,
				"z": -4.4438737966,
				"element": "N" 
			},
			{
				"x": -0.293116358,
				"y": -2.5579759925,
				"z": -3.1782263059,
				"element": "C" 
			},
			{
				"x": 0.1786187256,
				"y": -1.6470936776,
				"z": -2.3814743403,
				"element": "N" 
			},
			{
				"x": -0.551326638,
				"y": -1.5762476454,
				"z": -1.2023914484,
				"element": "C" 
			},
			{
				"x": -1.5900972321,
				"y": -2.462369608,
				"z": -1.1089068849,
				"element": "C" 
			},
			{
				"x": -1.7007189016,
				"y": -3.4315339472,
				"z": -2.5551124501,
				"element": "S" 
			},
			{
				"x": -0.1464820742,
				"y": -0.5898090991,
				"z": -0.1827218516,
				"element": "C" 
			},
			{
				"x": -0.8321628977,
				"y": -0.4465566012,
				"z": 1.0350815677,
				"element": "C" 
			},
			{
				"x": -0.4259371191,
				"y": 0.4932203912,
				"z": 1.9798266655,
				"element": "C" 
			},
			{
				"x": 0.6724387561,
				"y": 1.3016785703,
				"z": 1.7158811901,
				"element": "C" 
			},
			{
				"x": 1.0826656698,
				"y": 2.2155393951,
				"z": 2.6127448085,
				"element": "F" 
			},
			{
				"x": 1.3597032588,
				"y": 1.1691507708,
				"z": 0.5105246477,
				"element": "C" 
			},
			{
				"x": 2.420254345,
				"y": 1.9632665129,
				"z": 0.2762746846,
				"element": "F" 
			},
			{
				"x": 0.9618442215,
				"y": 0.2370206885,
				"z": -0.433385087,
				"element": "C" 
			},
			{
				"x": 0.1000537304,
				"y": -3.7407591683,
				"z": -4.7975547355,
				"element": "H" 
			},
			{
				"x": 1.0940009687,
				"y": -2.3795011113,
				"z": -4.6092007124,
				"element": "H" 
			},
			{
				"x": -2.2872255147,
				"y": -2.6190946378,
				"z": -0.3001148543,
				"element": "H" 
			},
			{
				"x": -1.693024242,
				"y": -1.0686152905,
				"z": 1.2551959454,
				"element": "H" 
			},
			{
				"x": -0.9486859769,
				"y": 0.6120748047,
				"z": 2.9228244397,
				"element": "H" 
			},
			{
				"x": 1.5072237734,
				"y": 0.1483363954,
				"z": -1.3647914822,
				"element": "H" 
			}
		],
		 "valence_orbital": [ 
			{
				"type": "occ",
				"energy": -0.28865,
				"method": "rhf"
			},
			{
				"type": "occ",
				"energy": -0.28031,
				"method": "rhf"
			},
			{
				"type": "occ",
				"energy": -0.25518,
				"method": "rhf"
			},
			{
				"type": "occ",
				"energy": -0.24856,
				"method": "rhf"
			},
			{
				"type": "occ",
				"energy": -0.20577,
				"method": "rhf"
			},
			{
				"type": "unocc",
				"energy": -0.03461,
				"method": "rhf"
			},
			{
				"type": "unocc",
				"energy": -0.00884,
				"method": "rhf"
			},
			{
				"type": "unocc",
				"energy": 0.00331,
				"method": "rhf"
			},
			{
				"type": "unocc",
				"energy": 0.01358,
				"method": "rhf"
			},
			{
				"type": "unocc",
				"energy": 0.06398,
				"method": "rhf"
			}
		],
		"cosmo_sigma_profile": { 
			"-0.025": 0.0,
			"-0.024": 0.0,
			"-0.023": 0.0,
			"-0.022": 0.0,
			"-0.021": 0.0,
			"-0.02": 0.0,
			"-0.019": 0.0,
			"-0.018": 0.0,
			"-0.017": 0.0,
			"-0.016": 0.0,
			"-0.015": 0.528322200109,
			"-0.014": 2.10899245346,
			"-0.013": 3.02251560005,
			"-0.012": 2.09726818291,
			"-0.011": 2.79112042817,
			"-0.01": 3.00002416447,
			"-0.009": 4.65205566144,
			"-0.008": 4.75871460851,
			"-0.007": 5.8371582432,
			"-0.006": 7.5341877606,
			"-0.005": 7.34977904134,
			"-0.004": 6.56827033697,
			"-0.003": 7.31406048382,
			"-0.002": 7.08204990488,
			"-0.001": 12.5619580197,
			"0.0": 17.5553275674,
			"0.001": 21.5704889275,
			"0.002": 22.2007238631,
			"0.003": 34.5152048374,
			"0.004": 32.2101387962,
			"0.005": 5.75500142535,
			"0.006": 2.95261984775,
			"0.007": 3.00968734688,
			"0.008": 2.1204847518,
			"0.009": 1.99598660299,
			"0.01": 2.15682898856,
			"0.011": 1.02265496706,
			"0.012": 0.202805755264,
			"0.013": 0.0,
			"0.014": 0.0,
			"0.015": 0.0,
			"0.016": 0.0,
			"0.017": 0.0,
			"0.018": 0.0,
			"0.019": 0.0,
			"0.02": 0.0,
			"0.021": 0.0,
			"0.022": 0.0,
			"0.023": 0.0,
			"0.024": 0.0,
			"0.025": 0.0
		}
	}
}
