{
	 "smiles": "COC1=CC=C(C=CC(=O)NC2=CC=CC=C2C(O)=O)C=C1OC", 
	 "Tm": 485.15, 
	 "num_atms": 41, 
	 "gaussian": { 
		 "optdone": 1, 
		 "sigma_profile": "yes", 
		 "theory": "DFT", 
		 "functional": "B3LYP", 
		 "basiset": "6-31G**", 
		 "properties": { 
			 "R2extent": 11447.2812, 
			 "electric_dipole_moment_norm": 4.46911595844, 
			 "electric_quadrupole_moment_norm": 14.3416285268, 
			 "total_energy": -1127.01499007, 
			 "HOMO_LUMO_gap": 0.1498, 
			 "cosmo_polarized_energy": -20.21, 
			 "cosmo_cavitation_energy": 46.17, 
			 "cosmo_dispersion_energy": -31.77, 
			 "cosmo_repulsion_energy": 2.46, 
			 "cosmo_total_nonelectrostatic_energy": 16.85, 
			 "SMD_solvation_energy": 11.12 
		},
		"coords": [
			{
				"x": -4.5991380296,
				"y": 3.1369145575,
				"z": 2.1340996818,
				"element": "C" 
			},
			{
				"x": -3.6641831427,
				"y": 3.9046238463,
				"z": 1.3687440346,
				"element": "O" 
			},
			{
				"x": -2.5514369533,
				"y": 3.2521076991,
				"z": 0.9129050267,
				"element": "C" 
			},
			{
				"x": -1.2998164506,
				"y": 3.7097589895,
				"z": 1.3272295822,
				"element": "C" 
			},
			{
				"x": -0.1247713073,
				"y": 3.1362017935,
				"z": 0.8524380248,
				"element": "C" 
			},
			{
				"x": -0.1782424214,
				"y": 2.0655008738,
				"z": -0.0536875583,
				"element": "C" 
			},
			{
				"x": 1.0109523817,
				"y": 1.3962282303,
				"z": -0.5838654527,
				"element": "C" 
			},
			{
				"x": 2.2978427598,
				"y": 1.656841699,
				"z": -0.2827018763,
				"element": "C" 
			},
			{
				"x": 3.46701589,
				"y": 1.0652409757,
				"z": -0.9755339588,
				"element": "C" 
			},
			{
				"x": 4.4644367321,
				"y": 1.7468116841,
				"z": -1.183564619,
				"element": "O" 
			},
			{
				"x": 3.4174944842,
				"y": -0.2284665547,
				"z": -1.5033936828,
				"element": "N" 
			},
			{
				"x": 2.7254311331,
				"y": -1.3789223693,
				"z": -1.1108481359,
				"element": "C" 
			},
			{
				"x": 2.2227303316,
				"y": -1.5063764928,
				"z": 0.1993597981,
				"element": "C" 
			},
			{
				"x": 1.5282619159,
				"y": -2.6398372836,
				"z": 0.599017299,
				"element": "C" 
			},
			{
				"x": 1.3211223868,
				"y": -3.7016352386,
				"z": -0.2879689076,
				"element": "C" 
			},
			{
				"x": 1.8355346329,
				"y": -3.6074777351,
				"z": -1.5711909261,
				"element": "C" 
			},
			{
				"x": 2.5436817001,
				"y": -2.4712276531,
				"z": -2.0053153139,
				"element": "C" 
			},
			{
				"x": 3.0415334834,
				"y": -2.552927413,
				"z": -3.4039375245,
				"element": "C" 
			},
			{
				"x": 3.9444355748,
				"y": -1.5906375827,
				"z": -3.7485397346,
				"element": "O" 
			},
			{
				"x": 2.7177015295,
				"y": -3.4090369754,
				"z": -4.203421733,
				"element": "O" 
			},
			{
				"x": -1.4421463137,
				"y": 1.6079764843,
				"z": -0.4797554603,
				"element": "C" 
			},
			{
				"x": -2.6226522015,
				"y": 2.1896115053,
				"z": -0.0183848771,
				"element": "C" 
			},
			{
				"x": -3.8750365385,
				"y": 1.8167297024,
				"z": -0.4143619476,
				"element": "O" 
			},
			{
				"x": -3.9956284232,
				"y": 0.7900359279,
				"z": -1.388030389,
				"element": "C" 
			},
			{
				"x": -4.112479967,
				"y": 2.6982134264,
				"z": 3.0146285708,
				"element": "H" 
			},
			{
				"x": -5.0571145981,
				"y": 2.3453891314,
				"z": 1.5359271091,
				"element": "H" 
			},
			{
				"x": -5.366057632,
				"y": 3.8411020637,
				"z": 2.4622456902,
				"element": "H" 
			},
			{
				"x": -1.2760306566,
				"y": 4.5377855193,
				"z": 2.0283235537,
				"element": "H" 
			},
			{
				"x": 0.8301466271,
				"y": 3.5225268311,
				"z": 1.1920055006,
				"element": "H" 
			},
			{
				"x": 0.8060714716,
				"y": 0.60650409,
				"z": -1.3041115746,
				"element": "H" 
			},
			{
				"x": 2.5741303498,
				"y": 2.4662705991,
				"z": 0.386149788,
				"element": "H" 
			},
			{
				"x": 4.1154815226,
				"y": -0.3605986348,
				"z": -2.2253815425,
				"element": "H" 
			},
			{
				"x": 2.388858244,
				"y": -0.7028775506,
				"z": 0.9049292834,
				"element": "H" 
			},
			{
				"x": 1.1604690421,
				"y": -2.7001174377,
				"z": 1.6194901869,
				"element": "H" 
			},
			{
				"x": 0.7822149023,
				"y": -4.5897816624,
				"z": 0.0251810476,
				"element": "H" 
			},
			{
				"x": 1.7098611566,
				"y": -4.4136867539,
				"z": -2.2853200821,
				"element": "H" 
			},
			{
				"x": 4.1879785668,
				"y": -1.7733517138,
				"z": -4.6713197217,
				"element": "H" 
			},
			{
				"x": -1.4837703171,
				"y": 0.7901378939,
				"z": -1.1901941559,
				"element": "H" 
			},
			{
				"x": -3.4963501824,
				"y": 1.0645537062,
				"z": -2.3255802429,
				"element": "H" 
			},
			{
				"x": -3.5857791857,
				"y": -0.1619958654,
				"z": -1.0271835882,
				"element": "H" 
			},
			{
				"x": -5.0648524983,
				"y": 0.6745876869,
				"z": -1.570681172,
				"element": "H" 
			}
		],
		 "valence_orbital": [ 
			{
				"type": "occ",
				"energy": -0.26517,
				"method": "rhf"
			},
			{
				"type": "occ",
				"energy": -0.25741,
				"method": "rhf"
			},
			{
				"type": "occ",
				"energy": -0.24409,
				"method": "rhf"
			},
			{
				"type": "occ",
				"energy": -0.2271,
				"method": "rhf"
			},
			{
				"type": "occ",
				"energy": -0.21378,
				"method": "rhf"
			},
			{
				"type": "unocc",
				"energy": -0.06398,
				"method": "rhf"
			},
			{
				"type": "unocc",
				"energy": -0.05108,
				"method": "rhf"
			},
			{
				"type": "unocc",
				"energy": -0.01291,
				"method": "rhf"
			},
			{
				"type": "unocc",
				"energy": -0.00148,
				"method": "rhf"
			},
			{
				"type": "unocc",
				"energy": 0.02914,
				"method": "rhf"
			}
		],
		"cosmo_sigma_profile": { 
			"-0.025": 0.0,
			"-0.024": 0.0,
			"-0.023": 0.0,
			"-0.022": 0.0,
			"-0.021": 0.0,
			"-0.02": 0.0,
			"-0.019": 0.267908292173,
			"-0.018": 0.900585193496,
			"-0.017": 0.706355421734,
			"-0.016": 1.06359687895,
			"-0.015": 0.62896454866,
			"-0.014": 0.407039894731,
			"-0.013": 0.874077821345,
			"-0.012": 1.15340921617,
			"-0.011": 0.561874481487,
			"-0.01": 0.314314501764,
			"-0.009": 0.581118347839,
			"-0.008": 3.51228286501,
			"-0.007": 9.06507792521,
			"-0.006": 22.2491873056,
			"-0.005": 28.0113453972,
			"-0.004": 30.7832050503,
			"-0.003": 32.1600891763,
			"-0.002": 28.7916223233,
			"-0.001": 23.1232062072,
			"0.0": 24.108908824,
			"0.001": 24.7988124427,
			"0.002": 27.1389438538,
			"0.003": 30.5348697143,
			"0.004": 21.6780045082,
			"0.005": 7.66296111304,
			"0.006": 5.52744440193,
			"0.007": 4.12761958913,
			"0.008": 4.86426185513,
			"0.009": 5.32145892253,
			"0.01": 6.47144389745,
			"0.011": 7.15228409024,
			"0.012": 6.85547078669,
			"0.013": 5.28918061165,
			"0.014": 1.98554387816,
			"0.015": 0.0214783506551,
			"0.016": 0.0,
			"0.017": 0.0,
			"0.018": 0.0,
			"0.019": 0.0,
			"0.02": 0.0,
			"0.021": 0.0,
			"0.022": 0.0,
			"0.023": 0.0,
			"0.024": 0.0,
			"0.025": 0.0
		}
	}
}
