{
	 "smiles": "COC(=O)C1=C(Cl)N=C2C=CC=CC2=C1", 
	 "Tm": 356.15, 
	 "num_atms": 23, 
	 "gaussian": { 
		 "optdone": 1, 
		 "sigma_profile": "yes", 
		 "theory": "DFT", 
		 "functional": "B3LYP", 
		 "basiset": "6-31G**", 
		 "properties": { 
			 "R2extent": 6119.2995, 
			 "electric_dipole_moment_norm": 5.10350776035, 
			 "electric_quadrupole_moment_norm": 24.2041617897, 
			 "total_energy": -1089.39385407, 
			 "HOMO_LUMO_gap": 0.17003, 
			 "cosmo_polarized_energy": -11.96, 
			 "cosmo_cavitation_energy": 29.64, 
			 "cosmo_dispersion_energy": -22.04, 
			 "cosmo_repulsion_energy": 1.71, 
			 "cosmo_total_nonelectrostatic_energy": 9.31, 
			 "SMD_solvation_energy": 4.75 
		},
		"coords": [
			{
				"x": -0.1201829893,
				"y": 2.8855971745,
				"z": -2.7438953365,
				"element": "C" 
			},
			{
				"x": 0.3927691522,
				"y": 1.9446115671,
				"z": -1.7866755323,
				"element": "O" 
			},
			{
				"x": 1.6702085867,
				"y": 2.173051764,
				"z": -1.3899423471,
				"element": "C" 
			},
			{
				"x": 2.3422008985,
				"y": 3.0817380505,
				"z": -1.8238280857,
				"element": "O" 
			},
			{
				"x": 2.0880966975,
				"y": 1.1843151448,
				"z": -0.3476697179,
				"element": "C" 
			},
			{
				"x": 3.4551417808,
				"y": 0.8654137376,
				"z": -0.0441335326,
				"element": "C" 
			},
			{
				"x": 4.7636354102,
				"y": 1.5380112189,
				"z": -1.0030127265,
				"element": "Cl" 
			},
			{
				"x": 3.8263087113,
				"y": 0.0504991541,
				"z": 0.900469112,
				"element": "N" 
			},
			{
				"x": 2.8776689975,
				"y": -0.552293766,
				"z": 1.6739628479,
				"element": "C" 
			},
			{
				"x": 3.2914627276,
				"y": -1.4253704854,
				"z": 2.7110778787,
				"element": "C" 
			},
			{
				"x": 2.3502911676,
				"y": -2.0531158047,
				"z": 3.4983588792,
				"element": "C" 
			},
			{
				"x": 0.9652179345,
				"y": -1.8389900619,
				"z": 3.2858362985,
				"element": "C" 
			},
			{
				"x": 0.5374203993,
				"y": -0.9945011464,
				"z": 2.2856484569,
				"element": "C" 
			},
			{
				"x": 1.4832727409,
				"y": -0.3325887271,
				"z": 1.4599776118,
				"element": "C" 
			},
			{
				"x": 1.125311708,
				"y": 0.5539277445,
				"z": 0.419192906,
				"element": "C" 
			},
			{
				"x": 0.4848886276,
				"y": 2.8747060499,
				"z": -3.6535346712,
				"element": "H" 
			},
			{
				"x": -1.1387392728,
				"y": 2.5612268656,
				"z": -2.9563020316,
				"element": "H" 
			},
			{
				"x": -0.116031082,
				"y": 3.897568551,
				"z": -2.3310271412,
				"element": "H" 
			},
			{
				"x": 4.3558712429,
				"y": -1.5765865297,
				"z": 2.8550310634,
				"element": "H" 
			},
			{
				"x": 2.6695211028,
				"y": -2.7219128988,
				"z": 4.2922993627,
				"element": "H" 
			},
			{
				"x": 0.2418525792,
				"y": -2.3453735308,
				"z": 3.9176001516,
				"element": "H" 
			},
			{
				"x": -0.5224340417,
				"y": -0.8240074676,
				"z": 2.1165930585,
				"element": "H" 
			},
			{
				"x": 0.0783469208,
				"y": 0.7543733957,
				"z": 0.2194734957,
				"element": "H" 
			}
		],
		 "valence_orbital": [ 
			{
				"type": "occ",
				"energy": -0.30594,
				"method": "rhf"
			},
			{
				"type": "occ",
				"energy": -0.2767,
				"method": "rhf"
			},
			{
				"type": "occ",
				"energy": -0.27188,
				"method": "rhf"
			},
			{
				"type": "occ",
				"energy": -0.25952,
				"method": "rhf"
			},
			{
				"type": "occ",
				"energy": -0.24573,
				"method": "rhf"
			},
			{
				"type": "unocc",
				"energy": -0.0757,
				"method": "rhf"
			},
			{
				"type": "unocc",
				"energy": -0.04586,
				"method": "rhf"
			},
			{
				"type": "unocc",
				"energy": 0.00461,
				"method": "rhf"
			},
			{
				"type": "unocc",
				"energy": 0.02023,
				"method": "rhf"
			},
			{
				"type": "unocc",
				"energy": 0.03924,
				"method": "rhf"
			}
		],
		"cosmo_sigma_profile": { 
			"-0.025": 0.0,
			"-0.024": 0.0,
			"-0.023": 0.0,
			"-0.022": 0.0,
			"-0.021": 0.0,
			"-0.02": 0.0,
			"-0.019": 0.0,
			"-0.018": 0.0,
			"-0.017": 0.0,
			"-0.016": 0.0,
			"-0.015": 0.0,
			"-0.014": 0.0,
			"-0.013": 0.0,
			"-0.012": 0.0,
			"-0.011": 0.0,
			"-0.01": 0.0,
			"-0.009": 1.00261227786,
			"-0.008": 2.42728361949,
			"-0.007": 8.31568023095,
			"-0.006": 14.8184431449,
			"-0.005": 17.3691021511,
			"-0.004": 18.9194789373,
			"-0.003": 19.615289963,
			"-0.002": 18.2586764897,
			"-0.001": 19.1158789591,
			"0.0": 18.2541616022,
			"0.001": 18.3615353712,
			"0.002": 18.9699303525,
			"0.003": 17.4671644122,
			"0.004": 11.3162706871,
			"0.005": 7.96761667915,
			"0.006": 4.31638572848,
			"0.007": 4.08243595341,
			"0.008": 3.62413405563,
			"0.009": 3.37874990127,
			"0.01": 3.6557839367,
			"0.011": 4.42589953925,
			"0.012": 4.04695066293,
			"0.013": 0.90580792124,
			"0.014": 0.102583164197,
			"0.015": 0.0,
			"0.016": 0.0,
			"0.017": 0.0,
			"0.018": 0.0,
			"0.019": 0.0,
			"0.02": 0.0,
			"0.021": 0.0,
			"0.022": 0.0,
			"0.023": 0.0,
			"0.024": 0.0,
			"0.025": 0.0
		}
	}
}
