{
	 "smiles": "OCC1=CC(Br)=C(O)C=C1", 
	 "Tm": 403.15, 
	 "num_atms": 17, 
	 "gaussian": { 
		 "optdone": 1, 
		 "sigma_profile": "yes", 
		 "theory": "DFT", 
		 "functional": "B3LYP", 
		 "basiset": "6-31G**", 
		 "properties": { 
			 "R2extent": 3050.848, 
			 "electric_dipole_moment_norm": 2.04960224678, 
			 "electric_quadrupole_moment_norm": 15.1960070397, 
			 "total_energy": -2992.79808409, 
			 "HOMO_LUMO_gap": 0.2079, 
			 "cosmo_polarized_energy": -13.19, 
			 "cosmo_cavitation_energy": 23.38, 
			 "cosmo_dispersion_energy": -17.83, 
			 "cosmo_repulsion_energy": 1.46, 
			 "cosmo_total_nonelectrostatic_energy": 7.01, 
			 "SMD_solvation_energy": 3.34 
		},
		"coords": [
			{
				"x": 0.1950065762,
				"y": 2.6439323809,
				"z": 2.5252605258,
				"element": "O" 
			},
			{
				"x": -0.102366294,
				"y": 2.3178677397,
				"z": 1.1745544259,
				"element": "C" 
			},
			{
				"x": -0.7622151155,
				"y": 0.9616795607,
				"z": 1.0133228339,
				"element": "C" 
			},
			{
				"x": -0.5280480818,
				"y": 0.180533767,
				"z": -0.1228467565,
				"element": "C" 
			},
			{
				"x": -1.1609806026,
				"y": -1.0481956857,
				"z": -0.2886467449,
				"element": "C" 
			},
			{
				"x": -0.8145167996,
				"y": -2.0851755846,
				"z": -1.8497141042,
				"element": "Br" 
			},
			{
				"x": -2.0422454963,
				"y": -1.5358670916,
				"z": 0.687083291,
				"element": "C" 
			},
			{
				"x": -2.6352146524,
				"y": -2.7435872605,
				"z": 0.4908095753,
				"element": "O" 
			},
			{
				"x": -2.2680676857,
				"y": -0.7565767019,
				"z": 1.8288138463,
				"element": "C" 
			},
			{
				"x": -1.6392124438,
				"y": 0.4750655179,
				"z": 1.9887921518,
				"element": "C" 
			},
			{
				"x": 0.7794173417,
				"y": 1.9539752278,
				"z": 2.8673491823,
				"element": "H" 
			},
			{
				"x": -0.7785036547,
				"y": 3.1115782935,
				"z": 0.834721013,
				"element": "H" 
			},
			{
				"x": 0.7936385708,
				"y": 2.370282889,
				"z": 0.5362325819,
				"element": "H" 
			},
			{
				"x": 0.1558528868,
				"y": 0.5246384123,
				"z": -0.8926000297,
				"element": "H" 
			},
			{
				"x": -3.2092483379,
				"y": -2.9377733364,
				"z": 1.2431924092,
				"element": "H" 
			},
			{
				"x": -2.9465676898,
				"y": -1.1257705156,
				"z": 2.5955596124,
				"element": "H" 
			},
			{
				"x": -1.8185285215,
				"y": 1.0670923875,
				"z": 2.8805161865,
				"element": "H" 
			}
		],
		 "valence_orbital": [ 
			{
				"type": "occ",
				"energy": -0.3105,
				"method": "rhf"
			},
			{
				"type": "occ",
				"energy": -0.28273,
				"method": "rhf"
			},
			{
				"type": "occ",
				"energy": -0.27722,
				"method": "rhf"
			},
			{
				"type": "occ",
				"energy": -0.25014,
				"method": "rhf"
			},
			{
				"type": "occ",
				"energy": -0.22461,
				"method": "rhf"
			},
			{
				"type": "unocc",
				"energy": -0.01671,
				"method": "rhf"
			},
			{
				"type": "unocc",
				"energy": -0.00337,
				"method": "rhf"
			},
			{
				"type": "unocc",
				"energy": 0.01128,
				"method": "rhf"
			},
			{
				"type": "unocc",
				"energy": 0.06108,
				"method": "rhf"
			},
			{
				"type": "unocc",
				"energy": 0.08344,
				"method": "rhf"
			}
		],
		"cosmo_sigma_profile": { 
			"-0.025": 0.0,
			"-0.024": 0.0,
			"-0.023": 0.0,
			"-0.022": 0.0,
			"-0.021": 0.0,
			"-0.02": 0.0,
			"-0.019": 0.0712335022187,
			"-0.018": 0.888056348319,
			"-0.017": 1.54367521909,
			"-0.016": 0.998081036015,
			"-0.015": 1.68906320203,
			"-0.014": 2.39190539172,
			"-0.013": 1.80730658597,
			"-0.012": 1.56718127477,
			"-0.011": 1.72117615561,
			"-0.01": 2.25943750768,
			"-0.009": 1.81731129895,
			"-0.008": 2.0497388174,
			"-0.007": 3.60510266862,
			"-0.006": 5.90419665285,
			"-0.005": 11.5008614079,
			"-0.004": 11.5841783671,
			"-0.003": 10.4655780604,
			"-0.002": 10.3329835624,
			"-0.001": 8.53699785599,
			"0.0": 9.76246525677,
			"0.001": 10.0973834104,
			"0.002": 14.5140121511,
			"0.003": 18.6741514793,
			"0.004": 18.4123053213,
			"0.005": 12.3678917531,
			"0.006": 3.74459045657,
			"0.007": 2.93331778588,
			"0.008": 3.00422663065,
			"0.009": 2.94726535828,
			"0.01": 3.3386313547,
			"0.011": 3.4900559637,
			"0.012": 1.04677301499,
			"0.013": 1.65863910329,
			"0.014": 1.92887972762,
			"0.015": 0.0556199132443,
			"0.016": 0.0,
			"0.017": 0.0,
			"0.018": 0.0,
			"0.019": 0.0,
			"0.02": 0.0,
			"0.021": 0.0,
			"0.022": 0.0,
			"0.023": 0.0,
			"0.024": 0.0,
			"0.025": 0.0
		}
	}
}
