{
	 "smiles": "CN1C=CSC1=NC(=O)C1=CC=CC=C1", 
	 "Tm": 387.0, 
	 "num_atms": 25, 
	 "gaussian": { 
		 "optdone": 1, 
		 "sigma_profile": "yes", 
		 "theory": "DFT", 
		 "functional": "B3LYP", 
		 "basiset": "6-31G**", 
		 "properties": { 
			 "R2extent": 4435.8321, 
			 "electric_dipole_moment_norm": 4.40980941425, 
			 "electric_quadrupole_moment_norm": 16.2476904574, 
			 "total_energy": -1008.10056534, 
			 "HOMO_LUMO_gap": 0.17156, 
			 "cosmo_polarized_energy": -13.86, 
			 "cosmo_cavitation_energy": 30.86, 
			 "cosmo_dispersion_energy": -23.02, 
			 "cosmo_repulsion_energy": 1.74, 
			 "cosmo_total_nonelectrostatic_energy": 9.58, 
			 "SMD_solvation_energy": 5.15 
		},
		"coords": [
			{
				"x": 1.8593075845,
				"y": -1.9292276132,
				"z": -1.7772323665,
				"element": "C" 
			},
			{
				"x": 1.811224118,
				"y": -2.0049250366,
				"z": -0.3158363226,
				"element": "N" 
			},
			{
				"x": 2.6821841909,
				"y": -2.809697966,
				"z": 0.4154130779,
				"element": "C" 
			},
			{
				"x": 2.615174985,
				"y": -2.6430709749,
				"z": 1.748765611,
				"element": "C" 
			},
			{
				"x": 1.4180013261,
				"y": -1.4346189282,
				"z": 2.1622961128,
				"element": "S" 
			},
			{
				"x": 1.0215774452,
				"y": -1.1746763612,
				"z": 0.4475652363,
				"element": "C" 
			},
			{
				"x": 0.1664009655,
				"y": -0.2641074295,
				"z": 0.1063077778,
				"element": "N" 
			},
			{
				"x": -0.6650273647,
				"y": -0.3142535908,
				"z": -0.9920728645,
				"element": "C" 
			},
			{
				"x": -0.9610410827,
				"y": -1.3455111088,
				"z": -1.605862865,
				"element": "O" 
			},
			{
				"x": -1.2716161203,
				"y": 1.0048667734,
				"z": -1.3682293178,
				"element": "C" 
			},
			{
				"x": -0.9926532045,
				"y": 2.1835746334,
				"z": -0.662739241,
				"element": "C" 
			},
			{
				"x": -1.5684200789,
				"y": 3.3903283561,
				"z": -1.0587168038,
				"element": "C" 
			},
			{
				"x": -2.4270206228,
				"y": 3.4290497758,
				"z": -2.1601904398,
				"element": "C" 
			},
			{
				"x": -2.7102203607,
				"y": 2.2560039991,
				"z": -2.8657774058,
				"element": "C" 
			},
			{
				"x": -2.1355196958,
				"y": 1.0499854943,
				"z": -2.4714346244,
				"element": "C" 
			},
			{
				"x": 2.0165164241,
				"y": -0.8902756345,
				"z": -2.0817425967,
				"element": "H" 
			},
			{
				"x": 2.6984980214,
				"y": -2.5327069123,
				"z": -2.1252157132,
				"element": "H" 
			},
			{
				"x": 0.9158424161,
				"y": -2.2741732519,
				"z": -2.2022449662,
				"element": "H" 
			},
			{
				"x": 3.332539144,
				"y": -3.4849412823,
				"z": -0.1236602159,
				"element": "H" 
			},
			{
				"x": 3.1943520039,
				"y": -3.1524772929,
				"z": 2.5037174763,
				"element": "H" 
			},
			{
				"x": -0.3299542195,
				"y": 2.1365063799,
				"z": 0.1943557692,
				"element": "H" 
			},
			{
				"x": -1.3503102056,
				"y": 4.3006450163,
				"z": -0.5071848764,
				"element": "H" 
			},
			{
				"x": -2.8757563473,
				"y": 4.3700195232,
				"z": -2.4668626123,
				"element": "H" 
			},
			{
				"x": -3.3792466624,
				"y": 2.2841371092,
				"z": -3.7213500473,
				"element": "H" 
			},
			{
				"x": -2.3405326594,
				"y": 0.1253463224,
				"z": -3.0004677821,
				"element": "H" 
			}
		],
		 "valence_orbital": [ 
			{
				"type": "occ",
				"energy": -0.27215,
				"method": "rhf"
			},
			{
				"type": "occ",
				"energy": -0.24368,
				"method": "rhf"
			},
			{
				"type": "occ",
				"energy": -0.24059,
				"method": "rhf"
			},
			{
				"type": "occ",
				"energy": -0.23227,
				"method": "rhf"
			},
			{
				"type": "occ",
				"energy": -0.21412,
				"method": "rhf"
			},
			{
				"type": "unocc",
				"energy": -0.04256,
				"method": "rhf"
			},
			{
				"type": "unocc",
				"energy": -0.00697,
				"method": "rhf"
			},
			{
				"type": "unocc",
				"energy": 0.00515,
				"method": "rhf"
			},
			{
				"type": "unocc",
				"energy": 0.00875,
				"method": "rhf"
			},
			{
				"type": "unocc",
				"energy": 0.01893,
				"method": "rhf"
			}
		],
		"cosmo_sigma_profile": { 
			"-0.025": 0.0,
			"-0.024": 0.0,
			"-0.023": 0.0,
			"-0.022": 0.0,
			"-0.021": 0.0,
			"-0.02": 0.0,
			"-0.019": 0.0,
			"-0.018": 0.0,
			"-0.017": 0.0,
			"-0.016": 0.0,
			"-0.015": 0.0,
			"-0.014": 0.0,
			"-0.013": 0.0,
			"-0.012": 0.0,
			"-0.011": 0.530142994731,
			"-0.01": 4.14590290826,
			"-0.009": 5.24263244678,
			"-0.008": 4.65377062341,
			"-0.007": 5.27451451492,
			"-0.006": 11.2983901761,
			"-0.005": 15.7851130557,
			"-0.004": 19.3751785509,
			"-0.003": 20.6975626585,
			"-0.002": 14.7291487686,
			"-0.001": 14.1468317656,
			"0.0": 15.1597282213,
			"0.001": 18.822917525,
			"0.002": 20.3788903059,
			"0.003": 22.7888759079,
			"0.004": 18.1034582695,
			"0.005": 14.6561397405,
			"0.006": 5.37107368915,
			"0.007": 3.7991500101,
			"0.008": 3.04938315395,
			"0.009": 2.36592819073,
			"0.01": 1.85775201161,
			"0.011": 1.50488750298,
			"0.012": 1.69695717536,
			"0.013": 3.24769826087,
			"0.014": 1.62496818155,
			"0.015": 0.0,
			"0.016": 0.0,
			"0.017": 0.0,
			"0.018": 0.0,
			"0.019": 0.0,
			"0.02": 0.0,
			"0.021": 0.0,
			"0.022": 0.0,
			"0.023": 0.0,
			"0.024": 0.0,
			"0.025": 0.0
		}
	}
}
