{
	 "smiles": "NC(=O)C1=CC(I)=NC=C1", 
	 "Tm": 438.15, 
	 "num_atms": 15, 
	 "gaussian": { 
		 "optdone": 1, 
		 "sigma_profile": "no", 
		 "theory": "DFT", 
		 "functional": "B3LYP", 
		 "basiset": "6-31G**", 
		 "properties": { 
			 "R2extent": 2100.3983, 
			 "electric_dipole_moment_norm": 4.99828987055, 
			 "electric_quadrupole_moment_norm": 18.5888225837, 
			 "total_energy": -427.77225174, 
			 "HOMO_LUMO_gap": 0.18265, 
			 "cosmo_polarized_energy": -103992.32, 
			 "cosmo_cavitation_energy": 23.2, 
			 "cosmo_dispersion_energy": -18.69, 
			 "cosmo_repulsion_energy": 1.49, 
			 "cosmo_total_nonelectrostatic_energy": 6.0, 
			 "SMD_solvation_energy": 2.51 
		},
		"coords": [
			{
				"x": 0.1602223504,
				"y": -2.3225026766,
				"z": 2.6058694691,
				"element": "N" 
			},
			{
				"x": -0.4019224685,
				"y": -2.158546319,
				"z": 1.3674467479,
				"element": "C" 
			},
			{
				"x": -0.4440320979,
				"y": -3.0559868118,
				"z": 0.5384651501,
				"element": "O" 
			},
			{
				"x": -0.9975672177,
				"y": -0.7998530499,
				"z": 1.0859249043,
				"element": "C" 
			},
			{
				"x": -1.215903478,
				"y": -0.4605897061,
				"z": -0.2508636824,
				"element": "C" 
			},
			{
				"x": -1.7660170285,
				"y": 0.7943835307,
				"z": -0.5193584192,
				"element": "C" 
			},
			{
				"x": -2.0882810506,
				"y": 1.3489319662,
				"z": -2.5571312655,
				"element": "I" 
			},
			{
				"x": -2.1084640584,
				"y": 1.6774942699,
				"z": 0.4028327863,
				"element": "N" 
			},
			{
				"x": -1.9148943597,
				"y": 1.3360882041,
				"z": 1.68513933,
				"element": "C" 
			},
			{
				"x": -1.3638352267,
				"y": 0.1186342931,
				"z": 2.0778842791,
				"element": "C" 
			},
			{
				"x": 0.6474514424,
				"y": -3.1942132202,
				"z": 2.7566211018,
				"element": "H" 
			},
			{
				"x": 0.4517111692,
				"y": -1.5292715059,
				"z": 3.1548967343,
				"element": "H" 
			},
			{
				"x": -0.9619640025,
				"y": -1.1658488465,
				"z": -1.0319943257,
				"element": "H" 
			},
			{
				"x": -2.2198449519,
				"y": 2.0725794057,
				"z": 2.4248525038,
				"element": "H" 
			},
			{
				"x": -1.2605590217,
				"y": -0.1099995338,
				"z": 3.133514686,
				"element": "H" 
			}
		],
		 "valence_orbital": [ 
			{
				"type": "occ",
				"energy": -0.29103,
				"method": "rhf"
			},
			{
				"type": "occ",
				"energy": -0.28343,
				"method": "rhf"
			},
			{
				"type": "occ",
				"energy": -0.26914,
				"method": "rhf"
			},
			{
				"type": "occ",
				"energy": -0.26402,
				"method": "rhf"
			},
			{
				"type": "occ",
				"energy": -0.25239,
				"method": "rhf"
			},
			{
				"type": "unocc",
				"energy": -0.06974,
				"method": "rhf"
			},
			{
				"type": "unocc",
				"energy": -0.04044,
				"method": "rhf"
			},
			{
				"type": "unocc",
				"energy": -0.03758,
				"method": "rhf"
			},
			{
				"type": "unocc",
				"energy": 0.03333,
				"method": "rhf"
			},
			{
				"type": "unocc",
				"energy": 0.05304,
				"method": "rhf"
			}
		],
		"cosmo_sigma_profile": { 
			"0.0": 0.0,
			"0.0": 0.0,
			"0.0": 0.0,
			"0.0": 0.0,
			"0.0": 0.0,
			"0.0": 0.0,
			"0.0": 0.0,
			"0.0": 0.0,
			"0.0": 0.0,
			"0.0": 0.0,
			"0.0": 0.0,
			"0.0": 0.0,
			"0.0": 0.0,
			"0.0": 0.0,
			"0.0": 0.0,
			"0.0": 0.0,
			"0.0": 0.0,
			"0.0": 0.0,
			"0.0": 0.0,
			"0.0": 0.0,
			"0.0": 0.0,
			"0.0": 0.0,
			"0.0": 0.0,
			"0.0": 0.0,
			"0.0": 0.0,
			"0.0": 0.0,
			"0.0": 0.0,
			"0.0": 0.0,
			"0.0": 0.0,
			"0.0": 0.0,
			"0.0": 0.0,
			"0.0": 0.0,
			"0.0": 0.0,
			"0.0": 0.0,
			"0.0": 0.0,
			"0.0": 0.0,
			"0.0": 0.0,
			"0.0": 0.0,
			"0.0": 0.0,
			"0.0": 0.0,
			"0.0": 0.0,
			"0.0": 0.0,
			"0.0": 0.0,
			"0.0": 0.0,
			"0.0": 0.0,
			"0.0": 0.0,
			"0.0": 0.0,
			"0.0": 0.0,
			"0.0": 0.0,
			"0.0": 0.0,
			"0.0": 0.0
		}
	}
}
