{
	 "smiles": "NC(=O)C(F)(F)C(F)(F)C(F)(F)C(F)(F)C(F)(F)C(F)(F)F", 
	 "Tm": 409.15, 
	 "num_atms": 24, 
	 "gaussian": { 
		 "optdone": 1, 
		 "sigma_profile": "yes", 
		 "theory": "DFT", 
		 "functional": "B3LYP", 
		 "basiset": "6-31G**", 
		 "properties": { 
			 "R2extent": 6524.6454, 
			 "electric_dipole_moment_norm": 3.45414932364, 
			 "electric_quadrupole_moment_norm": 21.7109355314, 
			 "total_energy": -1695.80627405, 
			 "HOMO_LUMO_gap": 0.26243, 
			 "cosmo_polarized_energy": -10.75, 
			 "cosmo_cavitation_energy": 32.76, 
			 "cosmo_dispersion_energy": -21.88, 
			 "cosmo_repulsion_energy": 1.45, 
			 "cosmo_total_nonelectrostatic_energy": 12.33, 
			 "SMD_solvation_energy": 10.41 
		},
		"coords": [
			{
				"x": 3.4608634804,
				"y": 0.8113410637,
				"z": -1.868140308,
				"element": "N" 
			},
			{
				"x": 2.3061728965,
				"y": 1.0022611247,
				"z": -2.5517206999,
				"element": "C" 
			},
			{
				"x": 2.1321147854,
				"y": 1.7993048525,
				"z": -3.4500382129,
				"element": "O" 
			},
			{
				"x": 1.1521746921,
				"y": 0.0684563055,
				"z": -2.0839671642,
				"element": "C" 
			},
			{
				"x": 0.2127243299,
				"y": 0.0092232803,
				"z": -3.0445034289,
				"element": "F" 
			},
			{
				"x": 1.6605836928,
				"y": -1.1896797464,
				"z": -1.8833065045,
				"element": "F" 
			},
			{
				"x": 0.4562586844,
				"y": 0.4328058403,
				"z": -0.7405756827,
				"element": "C" 
			},
			{
				"x": -0.4241804004,
				"y": -0.5557830945,
				"z": -0.4618600584,
				"element": "F" 
			},
			{
				"x": 1.4089993201,
				"y": 0.4544452852,
				"z": 0.2298015608,
				"element": "F" 
			},
			{
				"x": -0.2994368332,
				"y": 1.7841945702,
				"z": -0.7307124011,
				"element": "C" 
			},
			{
				"x": -1.3486854073,
				"y": 1.7068589799,
				"z": -1.578598919,
				"element": "F" 
			},
			{
				"x": 0.5597697466,
				"y": 2.7353410782,
				"z": -1.1766432352,
				"element": "F" 
			},
			{
				"x": -0.8202886262,
				"y": 2.3169939179,
				"z": 0.6398587052,
				"element": "C" 
			},
			{
				"x": -1.4162255827,
				"y": 3.5022869828,
				"z": 0.3711585196,
				"element": "F" 
			},
			{
				"x": 0.2532967244,
				"y": 2.5394729053,
				"z": 1.4331148424,
				"element": "F" 
			},
			{
				"x": -1.8177437764,
				"y": 1.4762575747,
				"z": 1.4858815207,
				"element": "C" 
			},
			{
				"x": -1.1996322453,
				"y": 0.3445809507,
				"z": 1.8942766257,
				"element": "F" 
			},
			{
				"x": -2.1043565679,
				"y": 2.231807616,
				"z": 2.5725764112,
				"element": "F" 
			},
			{
				"x": -3.1719539654,
				"y": 1.0867636427,
				"z": 0.8416600005,
				"element": "C" 
			},
			{
				"x": -3.77436582,
				"y": 2.1646828397,
				"z": 0.3268612591,
				"element": "F" 
			},
			{
				"x": -3.9571078766,
				"y": 0.5608251969,
				"z": 1.7894996495,
				"element": "F" 
			},
			{
				"x": -2.9984743631,
				"y": 0.1769611171,
				"z": -0.123297028,
				"element": "F" 
			},
			{
				"x": 3.5639237373,
				"y": 0.0665731035,
				"z": -1.1978376524,
				"element": "H" 
			},
			{
				"x": 4.2692693745,
				"y": 1.350224613,
				"z": -2.1404877997,
				"element": "H" 
			}
		],
		 "valence_orbital": [ 
			{
				"type": "occ",
				"energy": -0.39892,
				"method": "rhf"
			},
			{
				"type": "occ",
				"energy": -0.37355,
				"method": "rhf"
			},
			{
				"type": "occ",
				"energy": -0.35241,
				"method": "rhf"
			},
			{
				"type": "occ",
				"energy": -0.29767,
				"method": "rhf"
			},
			{
				"type": "occ",
				"energy": -0.28299,
				"method": "rhf"
			},
			{
				"type": "unocc",
				"energy": -0.02056,
				"method": "rhf"
			},
			{
				"type": "unocc",
				"energy": 0.01339,
				"method": "rhf"
			},
			{
				"type": "unocc",
				"energy": 0.02528,
				"method": "rhf"
			},
			{
				"type": "unocc",
				"energy": 0.05454,
				"method": "rhf"
			},
			{
				"type": "unocc",
				"energy": 0.0677,
				"method": "rhf"
			}
		],
		"cosmo_sigma_profile": { 
			"-0.025": 0.0,
			"-0.024": 0.0,
			"-0.023": 0.0,
			"-0.022": 0.0,
			"-0.021": 0.0,
			"-0.02": 0.0,
			"-0.019": 0.0,
			"-0.018": 0.0,
			"-0.017": 0.0,
			"-0.016": 0.91169081484,
			"-0.015": 2.43560344796,
			"-0.014": 1.87897249729,
			"-0.013": 2.02969911967,
			"-0.012": 3.11429401018,
			"-0.011": 1.35803268686,
			"-0.01": 1.83444905889,
			"-0.009": 1.99962813523,
			"-0.008": 1.24560343756,
			"-0.007": 1.05099136236,
			"-0.006": 2.6777855717,
			"-0.005": 3.26980278957,
			"-0.004": 2.69523703586,
			"-0.003": 6.18872272378,
			"-0.002": 12.951502539,
			"-0.001": 25.7739180406,
			"0.0": 60.5820403215,
			"0.001": 86.530922375,
			"0.002": 19.3486832147,
			"0.003": 2.84729781327,
			"0.004": 2.01407559368,
			"0.005": 2.22076701494,
			"0.006": 1.56493468553,
			"0.007": 1.9781509807,
			"0.008": 1.42517480781,
			"0.009": 1.96733310797,
			"0.01": 2.02930133478,
			"0.011": 4.34215260774,
			"0.012": 3.93021952544,
			"0.013": 0.327389319582,
			"0.014": 0.0,
			"0.015": 0.0,
			"0.016": 0.0,
			"0.017": 0.0,
			"0.018": 0.0,
			"0.019": 0.0,
			"0.02": 0.0,
			"0.021": 0.0,
			"0.022": 0.0,
			"0.023": 0.0,
			"0.024": 0.0,
			"0.025": 0.0
		}
	}
}
