{
	 "smiles": "[O-][N+](=O)C1=CC(Cl)=NC(Cl)=C1", 
	 "Tm": 369.15, 
	 "num_atms": 13, 
	 "gaussian": { 
		 "optdone": 1, 
		 "sigma_profile": "yes", 
		 "theory": "DFT", 
		 "functional": "B3LYP", 
		 "basiset": "6-31G**", 
		 "properties": { 
			 "R2extent": 3040.6177, 
			 "electric_dipole_moment_norm": 0.306465936117, 
			 "electric_quadrupole_moment_norm": 12.753452787, 
			 "total_energy": -1371.95803339, 
			 "HOMO_LUMO_gap": 0.16225, 
			 "cosmo_polarized_energy": -7.87, 
			 "cosmo_cavitation_energy": 22.8, 
			 "cosmo_dispersion_energy": -17.17, 
			 "cosmo_repulsion_energy": 1.4, 
			 "cosmo_total_nonelectrostatic_energy": 7.02, 
			 "SMD_solvation_energy": 4.37 
		},
		"coords": [
			{
				"x": 1.5795831423,
				"y": -3.6051638229,
				"z": -1.9052222261,
				"element": "O" 
			},
			{
				"x": 0.8856539224,
				"y": -3.5021286854,
				"z": -0.8989352383,
				"element": "N" 
			},
			{
				"x": 0.3364882961,
				"y": -4.426737133,
				"z": -0.3087828496,
				"element": "O" 
			},
			{
				"x": 0.6944247928,
				"y": -2.139462001,
				"z": -0.3465824992,
				"element": "C" 
			},
			{
				"x": 1.3002309299,
				"y": -1.0654408067,
				"z": -0.9853906824,
				"element": "C" 
			},
			{
				"x": 1.074386678,
				"y": 0.1855428467,
				"z": -0.406836154,
				"element": "C" 
			},
			{
				"x": 1.7972133365,
				"y": 1.5964009818,
				"z": -1.1423198955,
				"element": "Cl" 
			},
			{
				"x": 0.3399068069,
				"y": 0.3869450624,
				"z": 0.6774537366,
				"element": "N" 
			},
			{
				"x": -0.218232215,
				"y": -0.66836947,
				"z": 1.2523502725,
				"element": "C" 
			},
			{
				"x": -1.1807849726,
				"y": -0.3708939941,
				"z": 2.6802441973,
				"element": "Cl" 
			},
			{
				"x": -0.0844378342,
				"y": -1.9802242637,
				"z": 0.7921098166,
				"element": "C" 
			},
			{
				"x": 1.9041611943,
				"y": -1.2025359156,
				"z": -1.8711607059,
				"element": "H" 
			},
			{
				"x": -0.5506940773,
				"y": -2.8243327985,
				"z": 1.280172228,
				"element": "H" 
			}
		],
		 "valence_orbital": [ 
			{
				"type": "occ",
				"energy": -0.33426,
				"method": "rhf"
			},
			{
				"type": "occ",
				"energy": -0.32856,
				"method": "rhf"
			},
			{
				"type": "occ",
				"energy": -0.32292,
				"method": "rhf"
			},
			{
				"type": "occ",
				"energy": -0.32141,
				"method": "rhf"
			},
			{
				"type": "occ",
				"energy": -0.28748,
				"method": "rhf"
			},
			{
				"type": "unocc",
				"energy": -0.12523,
				"method": "rhf"
			},
			{
				"type": "unocc",
				"energy": -0.06524,
				"method": "rhf"
			},
			{
				"type": "unocc",
				"energy": -0.03994,
				"method": "rhf"
			},
			{
				"type": "unocc",
				"energy": -0.00797,
				"method": "rhf"
			},
			{
				"type": "unocc",
				"energy": 0.02358,
				"method": "rhf"
			}
		],
		"cosmo_sigma_profile": { 
			"-0.025": 0.0,
			"-0.024": 0.0,
			"-0.023": 0.0,
			"-0.022": 0.0,
			"-0.021": 0.0,
			"-0.02": 0.0,
			"-0.019": 0.0,
			"-0.018": 0.0,
			"-0.017": 0.0,
			"-0.016": 0.0,
			"-0.015": 0.0,
			"-0.014": 0.0,
			"-0.013": 0.0,
			"-0.012": 0.0,
			"-0.011": 0.061677244345,
			"-0.01": 1.98856982317,
			"-0.009": 3.89633827187,
			"-0.008": 4.15143093221,
			"-0.007": 4.78054355903,
			"-0.006": 6.81686442702,
			"-0.005": 9.55203993206,
			"-0.004": 17.9043877323,
			"-0.003": 17.3660251947,
			"-0.002": 11.0571124602,
			"-0.001": 9.99198941028,
			"0.0": 11.1557651704,
			"0.001": 10.1743773101,
			"0.002": 17.8184415722,
			"0.003": 20.8202959807,
			"0.004": 8.49746134752,
			"0.005": 7.53861098601,
			"0.006": 10.3909300064,
			"0.007": 7.30222256616,
			"0.008": 4.39546280539,
			"0.009": 2.25429938531,
			"0.01": 0.921800178426,
			"0.011": 0.55165340738,
			"0.012": 0.0463101688118,
			"0.013": 0.0,
			"0.014": 0.0,
			"0.015": 0.0,
			"0.016": 0.0,
			"0.017": 0.0,
			"0.018": 0.0,
			"0.019": 0.0,
			"0.02": 0.0,
			"0.021": 0.0,
			"0.022": 0.0,
			"0.023": 0.0,
			"0.024": 0.0,
			"0.025": 0.0
		}
	}
}
