{
	 "smiles": "CC(C)C(NC(=O)C(C)(C)Br)C(C)C", 
	 "Tm": 354.15, 
	 "num_atms": 36, 
	 "gaussian": { 
		 "optdone": 1, 
		 "sigma_profile": "yes", 
		 "theory": "DFT", 
		 "functional": "B3LYP", 
		 "basiset": "6-31G**", 
		 "properties": { 
			 "R2extent": 5608.0576, 
			 "electric_dipole_moment_norm": 5.69461524688, 
			 "electric_quadrupole_moment_norm": 14.2903174027, 
			 "total_energy": -3133.8342547, 
			 "HOMO_LUMO_gap": 0.23699, 
			 "cosmo_polarized_energy": -13.9, 
			 "cosmo_cavitation_energy": 36.16, 
			 "cosmo_dispersion_energy": -24.69, 
			 "cosmo_repulsion_energy": 1.91, 
			 "cosmo_total_nonelectrostatic_energy": 13.38, 
			 "SMD_solvation_energy": 5.95 
		},
		"coords": [
			{
				"x": -0.9703013288,
				"y": -2.5682544456,
				"z": 0.234392301,
				"element": "C" 
			},
			{
				"x": 0.2876484999,
				"y": -1.8287855829,
				"z": -0.2521186497,
				"element": "C" 
			},
			{
				"x": 1.4711280808,
				"y": -2.176534006,
				"z": 0.6648993842,
				"element": "C" 
			},
			{
				"x": 0.0991506899,
				"y": -0.2757893495,
				"z": -0.432974448,
				"element": "C" 
			},
			{
				"x": -0.9519165031,
				"y": 0.261735854,
				"z": 0.4376831251,
				"element": "N" 
			},
			{
				"x": -1.078385604,
				"y": 1.2160492449,
				"z": 1.4293667891,
				"element": "C" 
			},
			{
				"x": -2.2026096253,
				"y": 1.4801598693,
				"z": 1.8285125719,
				"element": "O" 
			},
			{
				"x": 0.1873672772,
				"y": 1.8996584909,
				"z": 2.0312882396,
				"element": "C" 
			},
			{
				"x": 0.8906823281,
				"y": 2.8340413005,
				"z": 1.0413264992,
				"element": "C" 
			},
			{
				"x": 1.1572427446,
				"y": 0.9014193147,
				"z": 2.6695561698,
				"element": "C" 
			},
			{
				"x": -0.4499779425,
				"y": 3.0768756474,
				"z": 3.529435683,
				"element": "Br" 
			},
			{
				"x": -0.156654992,
				"y": 0.094834187,
				"z": -1.9309114178,
				"element": "C" 
			},
			{
				"x": -1.4485519777,
				"y": -0.5052910293,
				"z": -2.5111254545,
				"element": "C" 
			},
			{
				"x": -0.121983772,
				"y": 1.6083824385,
				"z": -2.1804904789,
				"element": "C" 
			},
			{
				"x": -1.235105716,
				"y": -2.2673581258,
				"z": 1.2527101828,
				"element": "H" 
			},
			{
				"x": -0.7852704016,
				"y": -3.6472984461,
				"z": 0.2437267551,
				"element": "H" 
			},
			{
				"x": -1.8422323147,
				"y": -2.3950273874,
				"z": -0.4033713811,
				"element": "H" 
			},
			{
				"x": 0.5359606482,
				"y": -2.2187562634,
				"z": -1.248100882,
				"element": "H" 
			},
			{
				"x": 1.6562432893,
				"y": -3.2560275619,
				"z": 0.6592799294,
				"element": "H" 
			},
			{
				"x": 2.3947912672,
				"y": -1.6823541401,
				"z": 0.3424984692,
				"element": "H" 
			},
			{
				"x": 1.2730971687,
				"y": -1.8871486579,
				"z": 1.7017443223,
				"element": "H" 
			},
			{
				"x": 1.0387120273,
				"y": 0.2060787911,
				"z": -0.1543306722,
				"element": "H" 
			},
			{
				"x": -1.8839171403,
				"y": -0.0684191185,
				"z": 0.21678779,
				"element": "H" 
			},
			{
				"x": 1.3594781918,
				"y": 2.2640211209,
				"z": 0.2348446001,
				"element": "H" 
			},
			{
				"x": 1.6729177564,
				"y": 3.3958958406,
				"z": 1.556944637,
				"element": "H" 
			},
			{
				"x": 0.1888629088,
				"y": 3.545937622,
				"z": 0.6014164142,
				"element": "H" 
			},
			{
				"x": 1.6360316557,
				"y": 0.2839129379,
				"z": 1.9063672132,
				"element": "H" 
			},
			{
				"x": 1.9403576336,
				"y": 1.4392639384,
				"z": 3.2088900532,
				"element": "H" 
			},
			{
				"x": 0.6426615965,
				"y": 0.2464724973,
				"z": 3.376764318,
				"element": "H" 
			},
			{
				"x": 0.6858816998,
				"y": -0.3500706802,
				"z": -2.4794217075,
				"element": "H" 
			},
			{
				"x": -1.468034774,
				"y": -1.5967085428,
				"z": -2.4524092923,
				"element": "H" 
			},
			{
				"x": -1.5432800222,
				"y": -0.2344969742,
				"z": -3.5674933007,
				"element": "H" 
			},
			{
				"x": -2.3403191338,
				"y": -0.1176092999,
				"z": -2.00455311,
				"element": "H" 
			},
			{
				"x": -0.9033491772,
				"y": 2.1241929186,
				"z": -1.6129520958,
				"element": "H" 
			},
			{
				"x": -0.286539189,
				"y": 1.8226315011,
				"z": -3.2415199765,
				"element": "H" 
			},
			{
				"x": 0.8427141502,
				"y": 2.0452660964,
				"z": -1.9046625806,
				"element": "H" 
			}
		],
		 "valence_orbital": [ 
			{
				"type": "occ",
				"energy": -0.3212,
				"method": "rhf"
			},
			{
				"type": "occ",
				"energy": -0.26435,
				"method": "rhf"
			},
			{
				"type": "occ",
				"energy": -0.26071,
				"method": "rhf"
			},
			{
				"type": "occ",
				"energy": -0.24642,
				"method": "rhf"
			},
			{
				"type": "occ",
				"energy": -0.23997,
				"method": "rhf"
			},
			{
				"type": "unocc",
				"energy": -0.00298,
				"method": "rhf"
			},
			{
				"type": "unocc",
				"energy": 0.02175,
				"method": "rhf"
			},
			{
				"type": "unocc",
				"energy": 0.05578,
				"method": "rhf"
			},
			{
				"type": "unocc",
				"energy": 0.07967,
				"method": "rhf"
			},
			{
				"type": "unocc",
				"energy": 0.09225,
				"method": "rhf"
			}
		],
		"cosmo_sigma_profile": { 
			"-0.025": 0.0,
			"-0.024": 0.0,
			"-0.023": 0.0,
			"-0.022": 0.0,
			"-0.021": 0.0,
			"-0.02": 0.0,
			"-0.019": 0.0,
			"-0.018": 0.0,
			"-0.017": 0.0,
			"-0.016": 0.0,
			"-0.015": 0.0,
			"-0.014": 0.0,
			"-0.013": 0.0,
			"-0.012": 0.0,
			"-0.011": 0.111043339457,
			"-0.01": 0.741225608287,
			"-0.009": 1.38063277273,
			"-0.008": 2.67055077822,
			"-0.007": 3.34524082464,
			"-0.006": 3.44578722106,
			"-0.005": 9.04949323644,
			"-0.004": 17.5557878399,
			"-0.003": 35.2725757513,
			"-0.002": 45.4161587354,
			"-0.001": 42.6629111972,
			"0.0": 31.3897212796,
			"0.001": 29.3355910279,
			"0.002": 11.6169580231,
			"0.003": 4.98286797001,
			"0.004": 4.85273519145,
			"0.005": 5.97701144571,
			"0.006": 7.85576657699,
			"0.007": 4.32387530784,
			"0.008": 2.75186288379,
			"0.009": 1.09078786192,
			"0.01": 1.54683288844,
			"0.011": 2.01329126908,
			"0.012": 2.89190249841,
			"0.013": 3.75573233012,
			"0.014": 4.99520694929,
			"0.015": 1.42625596226,
			"0.016": 0.0164399464535,
			"0.017": 0.0,
			"0.018": 0.0,
			"0.019": 0.0,
			"0.02": 0.0,
			"0.021": 0.0,
			"0.022": 0.0,
			"0.023": 0.0,
			"0.024": 0.0,
			"0.025": 0.0
		}
	}
}
