{
	 "smiles": "NC1=C(Cl)C=C(C=C1)C1=NC(=NO1)C1CC1", 
	 "Tm": 371.15, 
	 "num_atms": 26, 
	 "gaussian": { 
		 "optdone": 1, 
		 "sigma_profile": "yes", 
		 "theory": "DFT", 
		 "functional": "B3LYP", 
		 "basiset": "6-31G**", 
		 "properties": { 
			 "R2extent": 6627.6224, 
			 "electric_dipole_moment_norm": 4.43583752069, 
			 "electric_quadrupole_moment_norm": 25.6720672087, 
			 "total_energy": -1124.81803688, 
			 "HOMO_LUMO_gap": 0.16857, 
			 "cosmo_polarized_energy": -12.86, 
			 "cosmo_cavitation_energy": 32.55, 
			 "cosmo_dispersion_energy": -24.13, 
			 "cosmo_repulsion_energy": 1.88, 
			 "cosmo_total_nonelectrostatic_energy": 10.3, 
			 "SMD_solvation_energy": 3.29 
		},
		"coords": [
			{
				"x": -1.9124660027,
				"y": -4.9653792968,
				"z": -2.5303165391,
				"element": "N" 
			},
			{
				"x": -1.6433648238,
				"y": -3.7201073518,
				"z": -2.0151174241,
				"element": "C" 
			},
			{
				"x": -2.6743857288,
				"y": -2.8239253921,
				"z": -1.6547026595,
				"element": "C" 
			},
			{
				"x": -4.3498342647,
				"y": -3.3497331347,
				"z": -1.8077160542,
				"element": "Cl" 
			},
			{
				"x": -2.4074242724,
				"y": -1.5499654874,
				"z": -1.1798848686,
				"element": "C" 
			},
			{
				"x": -1.0798524931,
				"y": -1.1168768265,
				"z": -1.0436436824,
				"element": "C" 
			},
			{
				"x": -0.0381495539,
				"y": -1.9927568511,
				"z": -1.3936847375,
				"element": "C" 
			},
			{
				"x": -0.3158789832,
				"y": -3.2630968842,
				"z": -1.8668437641,
				"element": "C" 
			},
			{
				"x": -0.7698077732,
				"y": 0.2147345542,
				"z": -0.5465458971,
				"element": "C" 
			},
			{
				"x": 0.4094040006,
				"y": 0.7522941598,
				"z": -0.3660514006,
				"element": "N" 
			},
			{
				"x": 0.0963799454,
				"y": 2.0047910658,
				"z": 0.1136533535,
				"element": "C" 
			},
			{
				"x": -1.1895749459,
				"y": 2.2452650261,
				"z": 0.2296505949,
				"element": "N" 
			},
			{
				"x": -1.7797912575,
				"y": 1.0401299872,
				"z": -0.2147548071,
				"element": "O" 
			},
			{
				"x": 1.1119215156,
				"y": 3.0079944322,
				"z": 0.4728724824,
				"element": "C" 
			},
			{
				"x": 2.3992607038,
				"y": 3.0781145037,
				"z": -0.3285670476,
				"element": "C" 
			},
			{
				"x": 2.4281137423,
				"y": 2.5474840414,
				"z": 1.0728753218,
				"element": "C" 
			},
			{
				"x": -2.8409628835,
				"y": -5.3355217436,
				"z": -2.3923460605,
				"element": "H" 
			},
			{
				"x": -1.1687225577,
				"y": -5.6456142604,
				"z": -2.5091818081,
				"element": "H" 
			},
			{
				"x": -3.2274848195,
				"y": -0.8940138784,
				"z": -0.9124092619,
				"element": "H" 
			},
			{
				"x": 0.9877143139,
				"y": -1.6580829273,
				"z": -1.2861783765,
				"element": "H" 
			},
			{
				"x": 0.4971877284,
				"y": -3.9306257458,
				"z": -2.1390830276,
				"element": "H" 
			},
			{
				"x": 0.6924810186,
				"y": 3.940790201,
				"z": 0.8345860767,
				"element": "H" 
			},
			{
				"x": 2.8067092888,
				"y": 4.0649535761,
				"z": -0.5245817622,
				"element": "H" 
			},
			{
				"x": 2.5082982513,
				"y": 2.3653026599,
				"z": -1.1392166496,
				"element": "H" 
			},
			{
				"x": 2.8558128068,
				"y": 3.1627117853,
				"z": 1.8582809374,
				"element": "H" 
			},
			{
				"x": 2.5566170442,
				"y": 1.4781337872,
				"z": 1.2037070615,
				"element": "H" 
			}
		],
		 "valence_orbital": [ 
			{
				"type": "occ",
				"energy": -0.29669,
				"method": "rhf"
			},
			{
				"type": "occ",
				"energy": -0.28733,
				"method": "rhf"
			},
			{
				"type": "occ",
				"energy": -0.2652,
				"method": "rhf"
			},
			{
				"type": "occ",
				"energy": -0.25916,
				"method": "rhf"
			},
			{
				"type": "occ",
				"energy": -0.21613,
				"method": "rhf"
			},
			{
				"type": "unocc",
				"energy": -0.04756,
				"method": "rhf"
			},
			{
				"type": "unocc",
				"energy": -0.01934,
				"method": "rhf"
			},
			{
				"type": "unocc",
				"energy": 0.02195,
				"method": "rhf"
			},
			{
				"type": "unocc",
				"energy": 0.02442,
				"method": "rhf"
			},
			{
				"type": "unocc",
				"energy": 0.06252,
				"method": "rhf"
			}
		],
		"cosmo_sigma_profile": { 
			"-0.025": 0.0,
			"-0.024": 0.0,
			"-0.023": 0.0,
			"-0.022": 0.0,
			"-0.021": 0.0,
			"-0.02": 0.0,
			"-0.019": 0.0,
			"-0.018": 0.0,
			"-0.017": 0.0,
			"-0.016": 0.0,
			"-0.015": 0.0,
			"-0.014": 1.37577051096,
			"-0.013": 1.58963587292,
			"-0.012": 2.82780379478,
			"-0.011": 2.999603962,
			"-0.01": 2.58976731138,
			"-0.009": 1.91155316167,
			"-0.008": 2.69965546916,
			"-0.007": 4.72100600611,
			"-0.006": 9.12622908248,
			"-0.005": 14.67355712,
			"-0.004": 13.4709949983,
			"-0.003": 13.1805329008,
			"-0.002": 18.229853121,
			"-0.001": 21.1842031511,
			"0.0": 22.180864064,
			"0.001": 28.9287145312,
			"0.002": 28.9088834855,
			"0.003": 22.6133528385,
			"0.004": 15.4968858425,
			"0.005": 8.13451585418,
			"0.006": 4.79864560843,
			"0.007": 5.10652063548,
			"0.008": 4.42949981237,
			"0.009": 3.15772214585,
			"0.01": 2.98204486477,
			"0.011": 2.11491635936,
			"0.012": 1.03010511815,
			"0.013": 1.31920769955,
			"0.014": 0.93183304847,
			"0.015": 0.0,
			"0.016": 0.0,
			"0.017": 0.0,
			"0.018": 0.0,
			"0.019": 0.0,
			"0.02": 0.0,
			"0.021": 0.0,
			"0.022": 0.0,
			"0.023": 0.0,
			"0.024": 0.0,
			"0.025": 0.0
		}
	}
}
