{
	 "smiles": "FC(F)(F)C1=CC(=C(C=C1)C(F)(F)F)S(Cl)(=O)=O", 
	 "Tm": 334.15, 
	 "num_atms": 21, 
	 "gaussian": { 
		 "optdone": 1, 
		 "sigma_profile": "yes", 
		 "theory": "DFT", 
		 "functional": "B3LYP", 
		 "basiset": "6-31G**", 
		 "properties": { 
			 "R2extent": 5576.1328, 
			 "electric_dipole_moment_norm": 4.51006444632, 
			 "electric_quadrupole_moment_norm": 7.17107711505, 
			 "total_energy": -1914.45566983, 
			 "HOMO_LUMO_gap": 0.20741, 
			 "cosmo_polarized_energy": -9.49, 
			 "cosmo_cavitation_energy": 31.58, 
			 "cosmo_dispersion_energy": -22.52, 
			 "cosmo_repulsion_energy": 1.58, 
			 "cosmo_total_nonelectrostatic_energy": 10.63, 
			 "SMD_solvation_energy": 6.39 
		},
		"coords": [
			{
				"x": -4.0560482767,
				"y": 1.2581352673,
				"z": -0.1526561238,
				"element": "F" 
			},
			{
				"x": -3.3504241227,
				"y": 0.9654497246,
				"z": 0.9561834054,
				"element": "C" 
			},
			{
				"x": -3.1480637228,
				"y": 2.1197539646,
				"z": 1.6247676217,
				"element": "F" 
			},
			{
				"x": -4.1123173544,
				"y": 0.1758981448,
				"z": 1.7404228448,
				"element": "F" 
			},
			{
				"x": -2.0376463487,
				"y": 0.2984009654,
				"z": 0.6199174349,
				"element": "C" 
			},
			{
				"x": -1.4121231506,
				"y": 0.5712217095,
				"z": -0.5960391439,
				"element": "C" 
			},
			{
				"x": -0.1778009549,
				"y": -0.0083517812,
				"z": -0.8860310498,
				"element": "C" 
			},
			{
				"x": 0.4586714305,
				"y": -0.8649533917,
				"z": 0.0334983513,
				"element": "C" 
			},
			{
				"x": -0.193864244,
				"y": -1.1245095557,
				"z": 1.24167485,
				"element": "C" 
			},
			{
				"x": -1.4287853281,
				"y": -0.5521844258,
				"z": 1.5388650322,
				"element": "C" 
			},
			{
				"x": 1.7903239128,
				"y": -1.5639127072,
				"z": -0.2063213791,
				"element": "C" 
			},
			{
				"x": 2.7216681766,
				"y": -0.7214947784,
				"z": -0.6813297701,
				"element": "F" 
			},
			{
				"x": 2.2697246527,
				"y": -2.0739426643,
				"z": 0.9501358475,
				"element": "F" 
			},
			{
				"x": 1.6574001549,
				"y": -2.5867248373,
				"z": -1.064670182,
				"element": "F" 
			},
			{
				"x": 0.4662154022,
				"y": 0.4197647809,
				"z": -2.5289543837,
				"element": "S" 
			},
			{
				"x": 1.81291672,
				"y": 1.9845990123,
				"z": -2.0554989934,
				"element": "Cl" 
			},
			{
				"x": -0.6187714167,
				"y": 1.0429825459,
				"z": -3.2759414869,
				"element": "O" 
			},
			{
				"x": 1.2378592672,
				"y": -0.6825689262,
				"z": -3.0773136449,
				"element": "O" 
			},
			{
				"x": -1.8845570372,
				"y": 1.2174371513,
				"z": -1.3254321581,
				"element": "H" 
			},
			{
				"x": 0.2794298903,
				"y": -1.784724849,
				"z": 1.957233723,
				"element": "H" 
			},
			{
				"x": -1.9174076506,
				"y": -0.7747753496,
				"z": 2.4808892049,
				"element": "H" 
			}
		],
		 "valence_orbital": [ 
			{
				"type": "occ",
				"energy": -0.34969,
				"method": "rhf"
			},
			{
				"type": "occ",
				"energy": -0.34651,
				"method": "rhf"
			},
			{
				"type": "occ",
				"energy": -0.32504,
				"method": "rhf"
			},
			{
				"type": "occ",
				"energy": -0.31787,
				"method": "rhf"
			},
			{
				"type": "occ",
				"energy": -0.31506,
				"method": "rhf"
			},
			{
				"type": "unocc",
				"energy": -0.10765,
				"method": "rhf"
			},
			{
				"type": "unocc",
				"energy": -0.0795,
				"method": "rhf"
			},
			{
				"type": "unocc",
				"energy": -0.0654,
				"method": "rhf"
			},
			{
				"type": "unocc",
				"energy": 0.03016,
				"method": "rhf"
			},
			{
				"type": "unocc",
				"energy": 0.04954,
				"method": "rhf"
			}
		],
		"cosmo_sigma_profile": { 
			"-0.025": 0.0,
			"-0.024": 0.0,
			"-0.023": 0.0,
			"-0.022": 0.0,
			"-0.021": 0.0,
			"-0.02": 0.0,
			"-0.019": 0.0,
			"-0.018": 0.0,
			"-0.017": 0.0,
			"-0.016": 0.0,
			"-0.015": 0.0,
			"-0.014": 0.0,
			"-0.013": 0.0,
			"-0.012": 0.0,
			"-0.011": 0.0,
			"-0.01": 1.0635769451,
			"-0.009": 4.49790065019,
			"-0.008": 4.88470713809,
			"-0.007": 6.96901622842,
			"-0.006": 6.88646579545,
			"-0.005": 8.61252113848,
			"-0.004": 13.960397497,
			"-0.003": 21.2373444356,
			"-0.002": 21.2793444063,
			"-0.001": 16.6096933596,
			"0.0": 14.5332104482,
			"0.001": 26.8658651174,
			"0.002": 57.7814560914,
			"0.003": 22.7475451241,
			"0.004": 4.25391180432,
			"0.005": 3.96487924895,
			"0.006": 6.17958014426,
			"0.007": 7.89382043159,
			"0.008": 6.83939799034,
			"0.009": 0.681319410328,
			"0.01": 0.0,
			"0.011": 0.0,
			"0.012": 0.0,
			"0.013": 0.0,
			"0.014": 0.0,
			"0.015": 0.0,
			"0.016": 0.0,
			"0.017": 0.0,
			"0.018": 0.0,
			"0.019": 0.0,
			"0.02": 0.0,
			"0.021": 0.0,
			"0.022": 0.0,
			"0.023": 0.0,
			"0.024": 0.0,
			"0.025": 0.0
		}
	}
}
