{
	 "smiles": "OC(=O)CCNC(=O)C1=COC=C1", 
	 "Tm": 428.15, 
	 "num_atms": 22, 
	 "gaussian": { 
		 "optdone": 1, 
		 "sigma_profile": "yes", 
		 "theory": "DFT", 
		 "functional": "B3LYP", 
		 "basiset": "6-31G**", 
		 "properties": { 
			 "R2extent": 3962.5181, 
			 "electric_dipole_moment_norm": 3.58710315436, 
			 "electric_quadrupole_moment_norm": 8.6724812574, 
			 "total_energy": -665.928755019, 
			 "HOMO_LUMO_gap": 0.22125, 
			 "cosmo_polarized_energy": -15.94, 
			 "cosmo_cavitation_energy": 27.33, 
			 "cosmo_dispersion_energy": -19.63, 
			 "cosmo_repulsion_energy": 1.56, 
			 "cosmo_total_nonelectrostatic_energy": 9.27, 
			 "SMD_solvation_energy": 7.2 
		},
		"coords": [
			{
				"x": 3.5982453926,
				"y": 2.8321573294,
				"z": 0.4145690264,
				"element": "O" 
			},
			{
				"x": 2.7009980206,
				"y": 1.9542897657,
				"z": -0.0815648679,
				"element": "C" 
			},
			{
				"x": 2.9303086145,
				"y": 1.2801456851,
				"z": -1.0678008817,
				"element": "O" 
			},
			{
				"x": 1.4293767457,
				"y": 1.9174324102,
				"z": 0.7369629942,
				"element": "C" 
			},
			{
				"x": 0.2952956219,
				"y": 1.1550273415,
				"z": 0.0400774639,
				"element": "C" 
			},
			{
				"x": 0.6212490962,
				"y": -0.2342678932,
				"z": -0.2150397016,
				"element": "N" 
			},
			{
				"x": 0.0329521441,
				"y": -1.2595615894,
				"z": 0.4737855514,
				"element": "C" 
			},
			{
				"x": -0.8469938905,
				"y": -1.0811887779,
				"z": 1.3158631362,
				"element": "O" 
			},
			{
				"x": 0.5185017734,
				"y": -2.6207220368,
				"z": 0.135223688,
				"element": "C" 
			},
			{
				"x": 0.0373568856,
				"y": -3.7480949886,
				"z": 0.7397818161,
				"element": "C" 
			},
			{
				"x": 0.6481870706,
				"y": -4.8538800608,
				"z": 0.2503991667,
				"element": "O" 
			},
			{
				"x": 1.54416139,
				"y": -4.4308552422,
				"z": -0.6922281258,
				"element": "C" 
			},
			{
				"x": 1.5104072548,
				"y": -3.0777043136,
				"z": -0.8069755952,
				"element": "C" 
			},
			{
				"x": 4.3856076921,
				"y": 2.7726104382,
				"z": -0.1530239876,
				"element": "H" 
			},
			{
				"x": 1.6665316219,
				"y": 1.4497355024,
				"z": 1.7006783753,
				"element": "H" 
			},
			{
				"x": 1.1299557676,
				"y": 2.9474874787,
				"z": 0.9606115965,
				"element": "H" 
			},
			{
				"x": -0.5925939786,
				"y": 1.1580846245,
				"z": 0.674584938,
				"element": "H" 
			},
			{
				"x": 0.0461583433,
				"y": 1.6520102583,
				"z": -0.904836566,
				"element": "H" 
			},
			{
				"x": 1.396291815,
				"y": -0.405299095,
				"z": -0.8386400072,
				"element": "H" 
			},
			{
				"x": -0.7102258086,
				"y": -3.8945687689,
				"z": 1.5024241441,
				"element": "H" 
			},
			{
				"x": 2.1147966992,
				"y": -5.205720532,
				"z": -1.1796879127,
				"element": "H" 
			},
			{
				"x": 2.1153317286,
				"y": -2.4868175357,
				"z": -1.4804642511,
				"element": "H" 
			}
		],
		 "valence_orbital": [ 
			{
				"type": "occ",
				"energy": -0.2927,
				"method": "rhf"
			},
			{
				"type": "occ",
				"energy": -0.28009,
				"method": "rhf"
			},
			{
				"type": "occ",
				"energy": -0.24864,
				"method": "rhf"
			},
			{
				"type": "occ",
				"energy": -0.24557,
				"method": "rhf"
			},
			{
				"type": "occ",
				"energy": -0.2334,
				"method": "rhf"
			},
			{
				"type": "unocc",
				"energy": -0.01215,
				"method": "rhf"
			},
			{
				"type": "unocc",
				"energy": -0.00613,
				"method": "rhf"
			},
			{
				"type": "unocc",
				"energy": 0.02408,
				"method": "rhf"
			},
			{
				"type": "unocc",
				"energy": 0.06778,
				"method": "rhf"
			},
			{
				"type": "unocc",
				"energy": 0.09485,
				"method": "rhf"
			}
		],
		"cosmo_sigma_profile": { 
			"-0.025": 0.0,
			"-0.024": 0.0,
			"-0.023": 0.0,
			"-0.022": 0.0,
			"-0.021": 0.0,
			"-0.02": 0.0,
			"-0.019": 0.13434266299,
			"-0.018": 0.755754085784,
			"-0.017": 0.831429917844,
			"-0.016": 1.07416651844,
			"-0.015": 0.536534781433,
			"-0.014": 0.816691692668,
			"-0.013": 0.58768310751,
			"-0.012": 0.91300114231,
			"-0.011": 1.49111580835,
			"-0.01": 2.18085674137,
			"-0.009": 5.25907198133,
			"-0.008": 5.49791240386,
			"-0.007": 8.69089192813,
			"-0.006": 12.284502482,
			"-0.005": 13.9153167787,
			"-0.004": 13.3587299422,
			"-0.003": 13.8750570169,
			"-0.002": 13.6220127642,
			"-0.001": 10.8582197568,
			"0.0": 11.2869674789,
			"0.001": 12.8571727057,
			"0.002": 16.0674529441,
			"0.003": 14.1049430188,
			"0.004": 10.2072182456,
			"0.005": 6.28687341352,
			"0.006": 5.74937075795,
			"0.007": 5.54482384701,
			"0.008": 4.95120517024,
			"0.009": 4.84765483499,
			"0.01": 3.85559543184,
			"0.011": 3.90772454104,
			"0.012": 2.60751422546,
			"0.013": 2.73391124254,
			"0.014": 5.50486099761,
			"0.015": 0.410033180967,
			"0.016": 0.0,
			"0.017": 0.0,
			"0.018": 0.0,
			"0.019": 0.0,
			"0.02": 0.0,
			"0.021": 0.0,
			"0.022": 0.0,
			"0.023": 0.0,
			"0.024": 0.0,
			"0.025": 0.0
		}
	}
}
