{
	 "smiles": "NC(=S)C1=CC2=NON=C2C=C1", 
	 "Tm": 407.15, 
	 "num_atms": 17, 
	 "gaussian": { 
		 "optdone": 1, 
		 "sigma_profile": "yes", 
		 "theory": "DFT", 
		 "functional": "B3LYP", 
		 "basiset": "6-31G**", 
		 "properties": { 
			 "R2extent": 3123.6346, 
			 "electric_dipole_moment_norm": 3.59975951558, 
			 "electric_quadrupole_moment_norm": 22.8357252642, 
			 "total_energy": -907.331668449, 
			 "HOMO_LUMO_gap": 0.12013, 
			 "cosmo_polarized_energy": -17.02, 
			 "cosmo_cavitation_energy": 23.98, 
			 "cosmo_dispersion_energy": -18.39, 
			 "cosmo_repulsion_energy": 1.4, 
			 "cosmo_total_nonelectrostatic_energy": 6.99, 
			 "SMD_solvation_energy": 2.45 
		},
		"coords": [
			{
				"x": 2.8420454574,
				"y": 0.0165639156,
				"z": 0.2206420741,
				"element": "N" 
			},
			{
				"x": 1.704540644,
				"y": 0.6675660294,
				"z": -0.1058662657,
				"element": "C" 
			},
			{
				"x": 1.6527595937,
				"y": 1.8265675552,
				"z": -1.3010121846,
				"element": "S" 
			},
			{
				"x": 0.5104730311,
				"y": 0.3079870491,
				"z": 0.7154508208,
				"element": "C" 
			},
			{
				"x": 0.655028739,
				"y": -0.013551802,
				"z": 2.0473688876,
				"element": "C" 
			},
			{
				"x": -0.526569799,
				"y": -0.3164271259,
				"z": 2.7807572325,
				"element": "C" 
			},
			{
				"x": -0.6761018595,
				"y": -0.6511633999,
				"z": 4.0521212929,
				"element": "N" 
			},
			{
				"x": -2.0215256527,
				"y": -0.8345535399,
				"z": 4.2017459137,
				"element": "O" 
			},
			{
				"x": -2.7308412117,
				"y": -0.619883291,
				"z": 3.0492301842,
				"element": "N" 
			},
			{
				"x": -1.8159806071,
				"y": -0.2954245551,
				"z": 2.1524077831,
				"element": "C" 
			},
			{
				"x": -1.9436111267,
				"y": 0.0455177704,
				"z": 0.7725323859,
				"element": "C" 
			},
			{
				"x": -0.7977222771,
				"y": 0.3451658529,
				"z": 0.0942527649,
				"element": "C" 
			},
			{
				"x": 3.6809750254,
				"y": 0.2269206461,
				"z": -0.3006279377,
				"element": "H" 
			},
			{
				"x": 2.829042378,
				"y": -0.8073284809,
				"z": 0.8036714533,
				"element": "H" 
			},
			{
				"x": 1.6161947409,
				"y": 0.0006093414,
				"z": 2.548447802,
				"element": "H" 
			},
			{
				"x": -2.9162539469,
				"y": 0.0664712464,
				"z": 0.2949035943,
				"element": "H" 
			},
			{
				"x": -0.8356531288,
				"y": 0.6285627883,
				"z": -0.9511258014,
				"element": "H" 
			}
		],
		 "valence_orbital": [ 
			{
				"type": "occ",
				"energy": -0.32834,
				"method": "rhf"
			},
			{
				"type": "occ",
				"energy": -0.30357,
				"method": "rhf"
			},
			{
				"type": "occ",
				"energy": -0.26443,
				"method": "rhf"
			},
			{
				"type": "occ",
				"energy": -0.24892,
				"method": "rhf"
			},
			{
				"type": "occ",
				"energy": -0.2271,
				"method": "rhf"
			},
			{
				"type": "unocc",
				"energy": -0.10697,
				"method": "rhf"
			},
			{
				"type": "unocc",
				"energy": -0.05817,
				"method": "rhf"
			},
			{
				"type": "unocc",
				"energy": -0.00617,
				"method": "rhf"
			},
			{
				"type": "unocc",
				"energy": 0.01372,
				"method": "rhf"
			},
			{
				"type": "unocc",
				"energy": 0.05729,
				"method": "rhf"
			}
		],
		"cosmo_sigma_profile": { 
			"-0.025": 0.0,
			"-0.024": 0.0,
			"-0.023": 0.0,
			"-0.022": 0.0,
			"-0.021": 0.0,
			"-0.02": 0.0,
			"-0.019": 0.0,
			"-0.018": 0.0,
			"-0.017": 0.0145674293938,
			"-0.016": 1.1180677207,
			"-0.015": 2.44955527289,
			"-0.014": 2.98209083185,
			"-0.013": 2.34380041265,
			"-0.012": 3.14494640775,
			"-0.011": 2.43593374002,
			"-0.01": 2.19120238357,
			"-0.009": 4.7901752697,
			"-0.008": 5.02879581035,
			"-0.007": 5.33165972189,
			"-0.006": 5.72981311244,
			"-0.005": 6.2364643293,
			"-0.004": 7.79465298414,
			"-0.003": 13.2331463703,
			"-0.002": 14.2809351104,
			"-0.001": 13.4878457882,
			"0.0": 10.8140154212,
			"0.001": 9.95357621219,
			"0.002": 9.22667289897,
			"0.003": 7.51006232689,
			"0.004": 10.3943547521,
			"0.005": 12.1701345015,
			"0.006": 9.03029829576,
			"0.007": 8.99132799944,
			"0.008": 8.70232554954,
			"0.009": 6.80532517411,
			"0.01": 5.71026012355,
			"0.011": 4.00271590773,
			"0.012": 0.47004394747,
			"0.013": 0.0,
			"0.014": 0.0,
			"0.015": 0.0,
			"0.016": 0.0,
			"0.017": 0.0,
			"0.018": 0.0,
			"0.019": 0.0,
			"0.02": 0.0,
			"0.021": 0.0,
			"0.022": 0.0,
			"0.023": 0.0,
			"0.024": 0.0,
			"0.025": 0.0
		}
	}
}
