{
	 "smiles": "CC(C)NC(=O)NN", 
	 "Tm": 351.15, 
	 "num_atms": 19, 
	 "gaussian": { 
		 "optdone": 1, 
		 "sigma_profile": "yes", 
		 "theory": "DFT", 
		 "functional": "B3LYP", 
		 "basiset": "6-31G**", 
		 "properties": { 
			 "R2extent": 1379.8665, 
			 "electric_dipole_moment_norm": 3.8294246056, 
			 "electric_quadrupole_moment_norm": 4.40313796059, 
			 "total_energy": -398.52885055, 
			 "HOMO_LUMO_gap": 0.28599, 
			 "cosmo_polarized_energy": -15.32, 
			 "cosmo_cavitation_energy": 21.62, 
			 "cosmo_dispersion_energy": -15.88, 
			 "cosmo_repulsion_energy": 1.36, 
			 "cosmo_total_nonelectrostatic_energy": 7.1, 
			 "SMD_solvation_energy": 4.66 
		},
		"coords": [
			{
				"x": -1.0515947464,
				"y": -0.4281573528,
				"z": 1.5016623112,
				"element": "C" 
			},
			{
				"x": 0.0994826133,
				"y": -0.7746785441,
				"z": 0.5492588061,
				"element": "C" 
			},
			{
				"x": 1.3132778182,
				"y": 0.1466875265,
				"z": 0.7411347153,
				"element": "C" 
			},
			{
				"x": -0.3623384728,
				"y": -0.811549633,
				"z": -0.851937976,
				"element": "N" 
			},
			{
				"x": -0.7976861207,
				"y": 0.3123058058,
				"z": -1.5159104567,
				"element": "C" 
			},
			{
				"x": -1.0123694651,
				"y": 1.3990588841,
				"z": -0.9873314603,
				"element": "O" 
			},
			{
				"x": -0.993653003,
				"y": 0.1451945703,
				"z": -2.8883963551,
				"element": "N" 
			},
			{
				"x": -1.1943608492,
				"y": -1.096890514,
				"z": -3.5179272263,
				"element": "N" 
			},
			{
				"x": -1.4069154519,
				"y": 0.586476697,
				"z": 1.3143705306,
				"element": "H" 
			},
			{
				"x": -1.8868461663,
				"y": -1.12173485,
				"z": 1.3643733269,
				"element": "H" 
			},
			{
				"x": -0.7118711699,
				"y": -0.499501061,
				"z": 2.5400937612,
				"element": "H" 
			},
			{
				"x": 0.4112740762,
				"y": -1.8054628933,
				"z": 0.75934019,
				"element": "H" 
			},
			{
				"x": 1.6686070494,
				"y": 0.0974998488,
				"z": 1.7758508806,
				"element": "H" 
			},
			{
				"x": 1.0409605311,
				"y": 1.1791250328,
				"z": 0.5118241628,
				"element": "H" 
			},
			{
				"x": 2.1383411213,
				"y": -0.1508380804,
				"z": 0.0850331872,
				"element": "H" 
			},
			{
				"x": 0.0251733036,
				"y": -1.5441514217,
				"z": -1.4279927166,
				"element": "H" 
			},
			{
				"x": -1.5413770723,
				"y": 0.8979384852,
				"z": -3.2848029889,
				"element": "H" 
			},
			{
				"x": -0.3010718275,
				"y": -1.5255260367,
				"z": -3.7446887865,
				"element": "H" 
			},
			{
				"x": -1.7342321681,
				"y": -1.7276964637,
				"z": -2.9280539053,
				"element": "H" 
			}
		],
		 "valence_orbital": [ 
			{
				"type": "occ",
				"energy": -0.33776,
				"method": "rhf"
			},
			{
				"type": "occ",
				"energy": -0.29212,
				"method": "rhf"
			},
			{
				"type": "occ",
				"energy": -0.25416,
				"method": "rhf"
			},
			{
				"type": "occ",
				"energy": -0.2507,
				"method": "rhf"
			},
			{
				"type": "occ",
				"energy": -0.24081,
				"method": "rhf"
			},
			{
				"type": "unocc",
				"energy": 0.04518,
				"method": "rhf"
			},
			{
				"type": "unocc",
				"energy": 0.06349,
				"method": "rhf"
			},
			{
				"type": "unocc",
				"energy": 0.09304,
				"method": "rhf"
			},
			{
				"type": "unocc",
				"energy": 0.11693,
				"method": "rhf"
			},
			{
				"type": "unocc",
				"energy": 0.12756,
				"method": "rhf"
			}
		],
		"cosmo_sigma_profile": { 
			"-0.025": 0.0,
			"-0.024": 0.0,
			"-0.023": 0.0,
			"-0.022": 0.0,
			"-0.021": 0.0,
			"-0.02": 0.0,
			"-0.019": 0.0,
			"-0.018": 0.0,
			"-0.017": 0.0,
			"-0.016": 0.0,
			"-0.015": 0.0,
			"-0.014": 0.33150056853,
			"-0.013": 2.79388717076,
			"-0.012": 3.7526693104,
			"-0.011": 5.2595614903,
			"-0.01": 5.04350710276,
			"-0.009": 3.34614635506,
			"-0.008": 3.4236416456,
			"-0.007": 2.73643085061,
			"-0.006": 3.03050260068,
			"-0.005": 5.25616331524,
			"-0.004": 5.26990560254,
			"-0.003": 12.4860704352,
			"-0.002": 14.2209111964,
			"-0.001": 14.5603260536,
			"0.0": 13.695229942,
			"0.001": 16.5174265687,
			"0.002": 11.6258627472,
			"0.003": 5.00084716172,
			"0.004": 4.0488886848,
			"0.005": 4.21063145768,
			"0.006": 4.31192074459,
			"0.007": 3.53284917714,
			"0.008": 2.86491686608,
			"0.009": 2.93777506994,
			"0.01": 1.7891106435,
			"0.011": 2.35301384016,
			"0.012": 2.40375399012,
			"0.013": 2.13672634368,
			"0.014": 3.67343315844,
			"0.015": 4.03859883715,
			"0.016": 0.667909645664,
			"0.017": 0.0593606607242,
			"0.018": 0.0,
			"0.019": 0.0,
			"0.02": 0.0,
			"0.021": 0.0,
			"0.022": 0.0,
			"0.023": 0.0,
			"0.024": 0.0,
			"0.025": 0.0
		}
	}
}
