{
	 "smiles": "NC(=O)C1=CC(=CN1)C1=CSC(N)=N1", 
	 "Tm": 509.15, 
	 "num_atms": 22, 
	 "gaussian": { 
		 "optdone": 1, 
		 "sigma_profile": "yes", 
		 "theory": "DFT", 
		 "functional": "B3LYP", 
		 "basiset": "6-31G**", 
		 "properties": { 
			 "R2extent": 4519.2774, 
			 "electric_dipole_moment_norm": 3.08878090677, 
			 "electric_quadrupole_moment_norm": 21.156586435, 
			 "total_energy": -1002.10479058, 
			 "HOMO_LUMO_gap": 0.1763, 
			 "cosmo_polarized_energy": -21.34, 
			 "cosmo_cavitation_energy": 29.1, 
			 "cosmo_dispersion_energy": -22.15, 
			 "cosmo_repulsion_energy": 1.71, 
			 "cosmo_total_nonelectrostatic_energy": 8.66, 
			 "SMD_solvation_energy": 4.28 
		},
		"coords": [
			{
				"x": 2.0862158385,
				"y": 0.390396187,
				"z": 3.4120050426,
				"element": "N" 
			},
			{
				"x": 0.72954168,
				"y": 0.3663003134,
				"z": 3.2314324949,
				"element": "C" 
			},
			{
				"x": -0.0643264445,
				"y": 0.5734302491,
				"z": 4.1509267897,
				"element": "O" 
			},
			{
				"x": 0.2493763404,
				"y": 0.1044403809,
				"z": 1.8659426849,
				"element": "C" 
			},
			{
				"x": 0.8404186673,
				"y": -0.1290026274,
				"z": 0.6337981121,
				"element": "C" 
			},
			{
				"x": -0.2015046822,
				"y": -0.3190469172,
				"z": -0.3159710902,
				"element": "C" 
			},
			{
				"x": -1.4039022805,
				"y": -0.1917265405,
				"z": 0.379490387,
				"element": "C" 
			},
			{
				"x": -1.1129820633,
				"y": 0.0612998043,
				"z": 1.6823111811,
				"element": "N" 
			},
			{
				"x": -0.0100929294,
				"y": -0.5922781448,
				"z": -1.7391602548,
				"element": "C" 
			},
			{
				"x": -0.9897820408,
				"y": -0.7773919628,
				"z": -2.6762280473,
				"element": "C" 
			},
			{
				"x": -0.2849585601,
				"y": -1.0832949106,
				"z": -4.2451729984,
				"element": "S" 
			},
			{
				"x": 1.3087959824,
				"y": -0.9134608093,
				"z": -3.4964846803,
				"element": "C" 
			},
			{
				"x": 2.4604456411,
				"y": -1.1107468986,
				"z": -4.2280962749,
				"element": "N" 
			},
			{
				"x": 1.2921035475,
				"y": -0.6674966579,
				"z": -2.2210255258,
				"element": "N" 
			},
			{
				"x": 2.4137820533,
				"y": 0.4423650103,
				"z": 4.3644296426,
				"element": "H" 
			},
			{
				"x": 2.7113865051,
				"y": 0.0221982466,
				"z": 2.7131664845,
				"element": "H" 
			},
			{
				"x": 1.8948138939,
				"y": -0.1581040773,
				"z": 0.4011374204,
				"element": "H" 
			},
			{
				"x": -2.4250309122,
				"y": -0.2647290005,
				"z": 0.0355954686,
				"element": "H" 
			},
			{
				"x": -1.7491290104,
				"y": 0.2120725912,
				"z": 2.4528338815,
				"element": "H" 
			},
			{
				"x": -2.0623139684,
				"y": -0.7497511833,
				"z": -2.5548621793,
				"element": "H" 
			},
			{
				"x": 3.2890528568,
				"y": -0.7954914223,
				"z": -3.7402899174,
				"element": "H" 
			},
			{
				"x": 2.4324898854,
				"y": -0.8333816302,
				"z": -5.1990786215,
				"element": "H" 
			}
		],
		 "valence_orbital": [ 
			{
				"type": "occ",
				"energy": -0.26592,
				"method": "rhf"
			},
			{
				"type": "occ",
				"energy": -0.2519,
				"method": "rhf"
			},
			{
				"type": "occ",
				"energy": -0.24665,
				"method": "rhf"
			},
			{
				"type": "occ",
				"energy": -0.22742,
				"method": "rhf"
			},
			{
				"type": "occ",
				"energy": -0.19105,
				"method": "rhf"
			},
			{
				"type": "unocc",
				"energy": -0.01475,
				"method": "rhf"
			},
			{
				"type": "unocc",
				"energy": -0.00931,
				"method": "rhf"
			},
			{
				"type": "unocc",
				"energy": 0.01308,
				"method": "rhf"
			},
			{
				"type": "unocc",
				"energy": 0.0361,
				"method": "rhf"
			},
			{
				"type": "unocc",
				"energy": 0.07138,
				"method": "rhf"
			}
		],
		"cosmo_sigma_profile": { 
			"-0.025": 0.0,
			"-0.024": 0.0,
			"-0.023": 0.0,
			"-0.022": 0.0,
			"-0.021": 0.0,
			"-0.02": 0.0,
			"-0.019": 0.0,
			"-0.018": 0.0,
			"-0.017": 0.0,
			"-0.016": 0.0,
			"-0.015": 0.838407347679,
			"-0.014": 3.86313803388,
			"-0.013": 5.83238557819,
			"-0.012": 6.25953871275,
			"-0.011": 5.71672210705,
			"-0.01": 5.38958580451,
			"-0.009": 6.236745485,
			"-0.008": 10.4332309696,
			"-0.007": 8.74084500244,
			"-0.006": 6.85914339329,
			"-0.005": 6.51309571669,
			"-0.004": 6.43185535663,
			"-0.003": 7.57378449454,
			"-0.002": 8.22869808237,
			"-0.001": 8.1646064324,
			"0.0": 9.337814986,
			"0.001": 12.4465093762,
			"0.002": 17.1957173008,
			"0.003": 15.2605339536,
			"0.004": 18.8903871194,
			"0.005": 20.090690063,
			"0.006": 12.7569017615,
			"0.007": 4.79678565421,
			"0.008": 4.25951267123,
			"0.009": 3.87573510971,
			"0.01": 2.8847227312,
			"0.011": 3.12818595053,
			"0.012": 4.22056174548,
			"0.013": 3.13223609,
			"0.014": 3.95734532755,
			"0.015": 1.18941100849,
			"0.016": 0.0,
			"0.017": 0.0,
			"0.018": 0.0,
			"0.019": 0.0,
			"0.02": 0.0,
			"0.021": 0.0,
			"0.022": 0.0,
			"0.023": 0.0,
			"0.024": 0.0,
			"0.025": 0.0
		}
	}
}
