{
	 "smiles": "CC(C)C1=CC=C(C=C[N+]([O-])=O)C=C1", 
	 "Tm": 309.65, 
	 "num_atms": 27, 
	 "gaussian": { 
		 "optdone": 1, 
		 "sigma_profile": "yes", 
		 "theory": "DFT", 
		 "functional": "B3LYP", 
		 "basiset": "6-31G**", 
		 "properties": { 
			 "R2extent": 4461.2676, 
			 "electric_dipole_moment_norm": 5.4187520233, 
			 "electric_quadrupole_moment_norm": 20.0327258435, 
			 "total_energy": -632.094818884, 
			 "HOMO_LUMO_gap": 0.15078, 
			 "cosmo_polarized_energy": -10.0, 
			 "cosmo_cavitation_energy": 30.88, 
			 "cosmo_dispersion_energy": -22.08, 
			 "cosmo_repulsion_energy": 1.74, 
			 "cosmo_total_nonelectrostatic_energy": 10.55, 
			 "SMD_solvation_energy": 7.9 
		},
		"coords": [
			{
				"x": -2.4038419077,
				"y": 2.0395326112,
				"z": 1.618234107,
				"element": "C" 
			},
			{
				"x": -2.3498176283,
				"y": 1.3317142823,
				"z": 0.25044467,
				"element": "C" 
			},
			{
				"x": -3.4920109195,
				"y": 0.3067501789,
				"z": 0.1105232277,
				"element": "C" 
			},
			{
				"x": -0.9910209056,
				"y": 0.6966686219,
				"z": -0.0003310522,
				"element": "C" 
			},
			{
				"x": -0.1864073133,
				"y": 1.1203687849,
				"z": -1.0668024428,
				"element": "C" 
			},
			{
				"x": 1.0555981464,
				"y": 0.542888908,
				"z": -1.298284905,
				"element": "C" 
			},
			{
				"x": 1.5555349126,
				"y": -0.4904044389,
				"z": -0.4747214645,
				"element": "C" 
			},
			{
				"x": 2.875106508,
				"y": -0.9996104246,
				"z": -0.8368477862,
				"element": "C" 
			},
			{
				"x": 3.7660538025,
				"y": -1.930977137,
				"z": -0.4286043179,
				"element": "C" 
			},
			{
				"x": 3.7058455913,
				"y": -2.8793830212,
				"z": 0.6580501929,
				"element": "N" 
			},
			{
				"x": 4.7014879722,
				"y": -3.6009238936,
				"z": 0.7789495933,
				"element": "O" 
			},
			{
				"x": 2.716343254,
				"y": -2.9431981195,
				"z": 1.3948417975,
				"element": "O" 
			},
			{
				"x": 0.7436965828,
				"y": -0.9157731312,
				"z": 0.5992232024,
				"element": "C" 
			},
			{
				"x": -0.4960932322,
				"y": -0.3293272712,
				"z": 0.8214318257,
				"element": "C" 
			},
			{
				"x": -2.2814415342,
				"y": 1.3265838284,
				"z": 2.4406203341,
				"element": "H" 
			},
			{
				"x": -3.3690533139,
				"y": 2.5393276316,
				"z": 1.7524554498,
				"element": "H" 
			},
			{
				"x": -1.6145785845,
				"y": 2.7921768687,
				"z": 1.7081736957,
				"element": "H" 
			},
			{
				"x": -2.4953841668,
				"y": 2.096566421,
				"z": -0.5235102689,
				"element": "H" 
			},
			{
				"x": -3.4160225692,
				"y": -0.4800611628,
				"z": 0.8686368455,
				"element": "H" 
			},
			{
				"x": -4.4632991719,
				"y": 0.7968780098,
				"z": 0.2362679623,
				"element": "H" 
			},
			{
				"x": -3.4771322268,
				"y": -0.1737887765,
				"z": -0.8725066007,
				"element": "H" 
			},
			{
				"x": -0.538969434,
				"y": 1.9128189304,
				"z": -1.7219540691,
				"element": "H" 
			},
			{
				"x": 1.6567798654,
				"y": 0.8942903057,
				"z": -2.1331741137,
				"element": "H" 
			},
			{
				"x": 3.2766009483,
				"y": -0.4726977831,
				"z": -1.7026979908,
				"element": "H" 
			},
			{
				"x": 4.7050965152,
				"y": -2.0491064068,
				"z": -0.9515271085,
				"element": "H" 
			},
			{
				"x": 1.0974118591,
				"y": -1.7030469629,
				"z": 1.2470341743,
				"element": "H" 
			},
			{
				"x": -1.09288305,
				"y": -0.6821668534,
				"z": 1.6579750421,
				"element": "H" 
			}
		],
		 "valence_orbital": [ 
			{
				"type": "occ",
				"energy": -0.29956,
				"method": "rhf"
			},
			{
				"type": "occ",
				"energy": -0.2982,
				"method": "rhf"
			},
			{
				"type": "occ",
				"energy": -0.27689,
				"method": "rhf"
			},
			{
				"type": "occ",
				"energy": -0.26407,
				"method": "rhf"
			},
			{
				"type": "occ",
				"energy": -0.24492,
				"method": "rhf"
			},
			{
				"type": "unocc",
				"energy": -0.09414,
				"method": "rhf"
			},
			{
				"type": "unocc",
				"energy": -0.02177,
				"method": "rhf"
			},
			{
				"type": "unocc",
				"energy": -0.0136,
				"method": "rhf"
			},
			{
				"type": "unocc",
				"energy": 0.05473,
				"method": "rhf"
			},
			{
				"type": "unocc",
				"energy": 0.07018,
				"method": "rhf"
			}
		],
		"cosmo_sigma_profile": { 
			"-0.025": 0.0,
			"-0.024": 0.0,
			"-0.023": 0.0,
			"-0.022": 0.0,
			"-0.021": 0.0,
			"-0.02": 0.0,
			"-0.019": 0.0,
			"-0.018": 0.0,
			"-0.017": 0.0,
			"-0.016": 0.0,
			"-0.015": 0.0,
			"-0.014": 0.0,
			"-0.013": 0.0,
			"-0.012": 0.0,
			"-0.011": 0.0,
			"-0.01": 0.0522015088765,
			"-0.009": 3.71653272558,
			"-0.008": 5.35625578382,
			"-0.007": 4.17615314517,
			"-0.006": 6.73385511226,
			"-0.005": 11.1446661371,
			"-0.004": 14.6622902708,
			"-0.003": 21.9956062408,
			"-0.002": 24.2436102814,
			"-0.001": 25.535266761,
			"0.0": 26.4714927789,
			"0.001": 28.5989464481,
			"0.002": 15.3354938274,
			"0.003": 14.1338827494,
			"0.004": 11.8695119659,
			"0.005": 3.15595705698,
			"0.006": 3.42272829002,
			"0.007": 3.93898496935,
			"0.008": 5.77616307713,
			"0.009": 7.17391061742,
			"0.01": 4.61673400354,
			"0.011": 2.51099727381,
			"0.012": 0.0646567673485,
			"0.013": 0.0,
			"0.014": 0.0,
			"0.015": 0.0,
			"0.016": 0.0,
			"0.017": 0.0,
			"0.018": 0.0,
			"0.019": 0.0,
			"0.02": 0.0,
			"0.021": 0.0,
			"0.022": 0.0,
			"0.023": 0.0,
			"0.024": 0.0,
			"0.025": 0.0
		}
	}
}
