{
	 "smiles": "NC1=C(F)C=CC(=C1)[N+]([O-])=O", 
	 "Tm": 374.15, 
	 "num_atms": 16, 
	 "gaussian": { 
		 "optdone": 1, 
		 "sigma_profile": "yes", 
		 "theory": "DFT", 
		 "functional": "B3LYP", 
		 "basiset": "6-31G**", 
		 "properties": { 
			 "R2extent": 3426.201, 
			 "electric_dipole_moment_norm": 4.60057790826, 
			 "electric_quadrupole_moment_norm": 20.8727397818, 
			 "total_energy": -591.338827448, 
			 "HOMO_LUMO_gap": 0.1458, 
			 "cosmo_polarized_energy": -11.17, 
			 "cosmo_cavitation_energy": 21.59, 
			 "cosmo_dispersion_energy": -16.03, 
			 "cosmo_repulsion_energy": 1.27, 
			 "cosmo_total_nonelectrostatic_energy": 6.83, 
			 "SMD_solvation_energy": 6.47 
		},
		"coords": [
			{
				"x": -0.9793386106,
				"y": 1.8471917526,
				"z": -1.4718606567,
				"element": "N" 
			},
			{
				"x": -0.7829895951,
				"y": 0.4947907665,
				"z": -1.6919939635,
				"element": "C" 
			},
			{
				"x": 0.525842944,
				"y": -0.0190967639,
				"z": -1.7637752416,
				"element": "C" 
			},
			{
				"x": 1.5388188896,
				"y": 0.8747507071,
				"z": -1.680506552,
				"element": "F" 
			},
			{
				"x": 0.8074255095,
				"y": -1.3649242164,
				"z": -1.9245245412,
				"element": "C" 
			},
			{
				"x": -0.2435321049,
				"y": -2.2767189171,
				"z": -2.0233770107,
				"element": "C" 
			},
			{
				"x": -1.542643752,
				"y": -1.7797451998,
				"z": -1.9583130648,
				"element": "C" 
			},
			{
				"x": -1.8318528837,
				"y": -0.4254545995,
				"z": -1.7956961647,
				"element": "C" 
			},
			{
				"x": -2.6668036669,
				"y": -2.7216044975,
				"z": -2.0673944759,
				"element": "N" 
			},
			{
				"x": -2.4014557128,
				"y": -3.9155984025,
				"z": -2.2042408693,
				"element": "O" 
			},
			{
				"x": -3.8077992594,
				"y": -2.2608555574,
				"z": -2.0164055309,
				"element": "O" 
			},
			{
				"x": -0.1909701281,
				"y": 2.4391925978,
				"z": -1.6893564406,
				"element": "H" 
			},
			{
				"x": -1.8685452775,
				"y": 2.2242415921,
				"z": -1.7644388187,
				"element": "H" 
			},
			{
				"x": 1.8427451586,
				"y": -1.6833405005,
				"z": -1.9737932455,
				"element": "H" 
			},
			{
				"x": -0.0741865152,
				"y": -3.3372073552,
				"z": -2.1503604831,
				"element": "H" 
			},
			{
				"x": -2.8657149954,
				"y": -0.1060214063,
				"z": -1.7477629409,
				"element": "H" 
			}
		],
		 "valence_orbital": [ 
			{
				"type": "occ",
				"energy": -0.30641,
				"method": "rhf"
			},
			{
				"type": "occ",
				"energy": -0.30491,
				"method": "rhf"
			},
			{
				"type": "occ",
				"energy": -0.28755,
				"method": "rhf"
			},
			{
				"type": "occ",
				"energy": -0.27531,
				"method": "rhf"
			},
			{
				"type": "occ",
				"energy": -0.23032,
				"method": "rhf"
			},
			{
				"type": "unocc",
				"energy": -0.08452,
				"method": "rhf"
			},
			{
				"type": "unocc",
				"energy": -0.02009,
				"method": "rhf"
			},
			{
				"type": "unocc",
				"energy": 0.01278,
				"method": "rhf"
			},
			{
				"type": "unocc",
				"energy": 0.06306,
				"method": "rhf"
			},
			{
				"type": "unocc",
				"energy": 0.08039,
				"method": "rhf"
			}
		],
		"cosmo_sigma_profile": { 
			"-0.025": 0.0,
			"-0.024": 0.0,
			"-0.023": 0.0,
			"-0.022": 0.0,
			"-0.021": 0.0,
			"-0.02": 0.0,
			"-0.019": 0.0,
			"-0.018": 0.0,
			"-0.017": 0.0,
			"-0.016": 0.0,
			"-0.015": 0.0,
			"-0.014": 0.81567412077,
			"-0.013": 1.95088838825,
			"-0.012": 2.8785705245,
			"-0.011": 2.54523574393,
			"-0.01": 2.88495417514,
			"-0.009": 2.41793981666,
			"-0.008": 4.63955338154,
			"-0.007": 6.33241674207,
			"-0.006": 6.52453113632,
			"-0.005": 7.12658742583,
			"-0.004": 6.22575802057,
			"-0.003": 7.34512637756,
			"-0.002": 7.29191939049,
			"-0.001": 14.164758615,
			"0.0": 16.3963966937,
			"0.001": 17.1595858971,
			"0.002": 13.704298418,
			"0.003": 10.3468055552,
			"0.004": 6.93984779839,
			"0.005": 3.50478046568,
			"0.006": 4.2949838978,
			"0.007": 7.39349120348,
			"0.008": 9.98581336722,
			"0.009": 4.65530577875,
			"0.01": 4.0874989913,
			"0.011": 1.04954475105,
			"0.012": 0.48394805351,
			"0.013": 0.0611225681549,
			"0.014": 0.0,
			"0.015": 0.0,
			"0.016": 0.0,
			"0.017": 0.0,
			"0.018": 0.0,
			"0.019": 0.0,
			"0.02": 0.0,
			"0.021": 0.0,
			"0.022": 0.0,
			"0.023": 0.0,
			"0.024": 0.0,
			"0.025": 0.0
		}
	}
}
