{
	 "smiles": "CCOC(=O)C(O)C1=CC=CC=C1", 
	 "Tm": 310.15, 
	 "num_atms": 25, 
	 "gaussian": { 
		 "optdone": 1, 
		 "sigma_profile": "yes", 
		 "theory": "DFT", 
		 "functional": "B3LYP", 
		 "basiset": "6-31G**", 
		 "properties": { 
			 "R2extent": 2992.3567, 
			 "electric_dipole_moment_norm": 2.49008711093, 
			 "electric_quadrupole_moment_norm": 8.44702811704, 
			 "total_energy": -613.973199374, 
			 "HOMO_LUMO_gap": 0.23238, 
			 "cosmo_polarized_energy": -9.35, 
			 "cosmo_cavitation_energy": 28.7, 
			 "cosmo_dispersion_energy": -20.59, 
			 "cosmo_repulsion_energy": 1.66, 
			 "cosmo_total_nonelectrostatic_energy": 9.77, 
			 "SMD_solvation_energy": 5.87 
		},
		"coords": [
			{
				"x": 3.7572363808,
				"y": 0.2846079786,
				"z": 2.1642909676,
				"element": "C" 
			},
			{
				"x": 3.2837715487,
				"y": -0.082699361,
				"z": 0.7672205223,
				"element": "C" 
			},
			{
				"x": 1.937275576,
				"y": -0.6255914588,
				"z": 0.7962117931,
				"element": "O" 
			},
			{
				"x": 0.918851879,
				"y": 0.2600042928,
				"z": 0.7506590536,
				"element": "C" 
			},
			{
				"x": 1.0544991821,
				"y": 1.461586004,
				"z": 0.6790292626,
				"element": "O" 
			},
			{
				"x": -0.4317551164,
				"y": -0.4666410716,
				"z": 0.7489885732,
				"element": "C" 
			},
			{
				"x": -0.3772296027,
				"y": -1.6868268818,
				"z": 1.4580809053,
				"element": "O" 
			},
			{
				"x": -0.9308829471,
				"y": -0.6192813013,
				"z": -0.6954662357,
				"element": "C" 
			},
			{
				"x": -1.3546327511,
				"y": -1.8677658981,
				"z": -1.1582592177,
				"element": "C" 
			},
			{
				"x": -1.8288133621,
				"y": -2.0110986031,
				"z": -2.4642761787,
				"element": "C" 
			},
			{
				"x": -1.8862672421,
				"y": -0.9082088329,
				"z": -3.3163793403,
				"element": "C" 
			},
			{
				"x": -1.4697688827,
				"y": 0.3428272605,
				"z": -2.8543858487,
				"element": "C" 
			},
			{
				"x": -0.9947986855,
				"y": 0.4889432918,
				"z": -1.5514350046,
				"element": "C" 
			},
			{
				"x": 4.7978574485,
				"y": 0.6230380558,
				"z": 2.1240471572,
				"element": "H" 
			},
			{
				"x": 3.7019580769,
				"y": -0.5772049763,
				"z": 2.8356680018,
				"element": "H" 
			},
			{
				"x": 3.1496636694,
				"y": 1.0941427972,
				"z": 2.575903246,
				"element": "H" 
			},
			{
				"x": 3.2912940794,
				"y": 0.7843541264,
				"z": 0.1030903285,
				"element": "H" 
			},
			{
				"x": 3.887719382,
				"y": -0.8817778126,
				"z": 0.331591176,
				"element": "H" 
			},
			{
				"x": -1.1236606124,
				"y": 0.1824081894,
				"z": 1.2967659411,
				"element": "H" 
			},
			{
				"x": 0.4539158151,
				"y": -2.117835628,
				"z": 1.2120700144,
				"element": "H" 
			},
			{
				"x": -1.3243174085,
				"y": -2.7169357955,
				"z": -0.484487421,
				"element": "H" 
			},
			{
				"x": -2.1566278096,
				"y": -2.9866617504,
				"z": -2.8127367144,
				"element": "H" 
			},
			{
				"x": -2.2561430492,
				"y": -1.0200160345,
				"z": -4.3316246133,
				"element": "H" 
			},
			{
				"x": -1.5146573263,
				"y": 1.2081106821,
				"z": -3.5098575782,
				"element": "H" 
			},
			{
				"x": -0.6675882421,
				"y": 1.4615227276,
				"z": -1.19620879,
				"element": "H" 
			}
		],
		 "valence_orbital": [ 
			{
				"type": "occ",
				"energy": -0.31234,
				"method": "rhf"
			},
			{
				"type": "occ",
				"energy": -0.29967,
				"method": "rhf"
			},
			{
				"type": "occ",
				"energy": -0.26633,
				"method": "rhf"
			},
			{
				"type": "occ",
				"energy": -0.24798,
				"method": "rhf"
			},
			{
				"type": "occ",
				"energy": -0.24193,
				"method": "rhf"
			},
			{
				"type": "unocc",
				"energy": -0.00955,
				"method": "rhf"
			},
			{
				"type": "unocc",
				"energy": -0.00094,
				"method": "rhf"
			},
			{
				"type": "unocc",
				"energy": 0.01415,
				"method": "rhf"
			},
			{
				"type": "unocc",
				"energy": 0.08259,
				"method": "rhf"
			},
			{
				"type": "unocc",
				"energy": 0.10174,
				"method": "rhf"
			}
		],
		"cosmo_sigma_profile": { 
			"-0.025": 0.0,
			"-0.024": 0.0,
			"-0.023": 0.0,
			"-0.022": 0.0,
			"-0.021": 0.0,
			"-0.02": 0.0,
			"-0.019": 0.0,
			"-0.018": 0.0,
			"-0.017": 0.0,
			"-0.016": 0.0,
			"-0.015": 0.0,
			"-0.014": 0.132849926162,
			"-0.013": 0.407760390588,
			"-0.012": 0.621948529997,
			"-0.011": 0.953015642148,
			"-0.01": 0.297599056451,
			"-0.009": 0.683601295713,
			"-0.008": 0.870701398141,
			"-0.007": 3.04456557188,
			"-0.006": 8.51908166555,
			"-0.005": 15.5699794358,
			"-0.004": 26.0458537915,
			"-0.003": 23.6424700804,
			"-0.002": 20.2750265297,
			"-0.001": 18.7693820882,
			"0.0": 17.345071799,
			"0.001": 13.9356775124,
			"0.002": 13.2930093333,
			"0.003": 12.0836567172,
			"0.004": 11.0817529175,
			"0.005": 11.3603684018,
			"0.006": 8.77594476975,
			"0.007": 2.50729072299,
			"0.008": 2.16436416332,
			"0.009": 2.17359117201,
			"0.01": 3.42850962281,
			"0.011": 4.73799406547,
			"0.012": 2.77352033049,
			"0.013": 1.58750144293,
			"0.014": 0.039696764895,
			"0.015": 0.0,
			"0.016": 0.0,
			"0.017": 0.0,
			"0.018": 0.0,
			"0.019": 0.0,
			"0.02": 0.0,
			"0.021": 0.0,
			"0.022": 0.0,
			"0.023": 0.0,
			"0.024": 0.0,
			"0.025": 0.0
		}
	}
}
