{
	 "smiles": "CN(C)C(=O)C1=CC(F)=C(NN)C(F)=C1", 
	 "Tm": 348.15, 
	 "num_atms": 26, 
	 "gaussian": { 
		 "optdone": 1, 
		 "sigma_profile": "yes", 
		 "theory": "DFT", 
		 "functional": "B3LYP", 
		 "basiset": "6-31G**", 
		 "properties": { 
			 "R2extent": 3947.3933, 
			 "electric_dipole_moment_norm": 3.69910147333, 
			 "electric_quadrupole_moment_norm": 14.2910441847, 
			 "total_energy": -788.701567039, 
			 "HOMO_LUMO_gap": 0.18341, 
			 "cosmo_polarized_energy": -14.0, 
			 "cosmo_cavitation_energy": 30.49, 
			 "cosmo_dispersion_energy": -21.84, 
			 "cosmo_repulsion_energy": 1.68, 
			 "cosmo_total_nonelectrostatic_energy": 10.32, 
			 "SMD_solvation_energy": 6.83 
		},
		"coords": [
			{
				"x": -1.5409053051,
				"y": -1.2361247673,
				"z": 4.1817917852,
				"element": "C" 
			},
			{
				"x": -0.7589862168,
				"y": -0.8303436872,
				"z": 3.0201880468,
				"element": "N" 
			},
			{
				"x": 0.6413274519,
				"y": -1.2320054641,
				"z": 3.0568004411,
				"element": "C" 
			},
			{
				"x": -1.4514729655,
				"y": -0.4852685905,
				"z": 1.8777712973,
				"element": "C" 
			},
			{
				"x": -2.6745342077,
				"y": -0.5902134971,
				"z": 1.8062385746,
				"element": "O" 
			},
			{
				"x": -0.68748437,
				"y": 0.0884772601,
				"z": 0.7161594313,
				"element": "C" 
			},
			{
				"x": -1.1642419424,
				"y": -0.1971456648,
				"z": -0.5696516282,
				"element": "C" 
			},
			{
				"x": -0.5650835596,
				"y": 0.3776540433,
				"z": -1.6760607552,
				"element": "C" 
			},
			{
				"x": -1.0597650946,
				"y": 0.093826132,
				"z": -2.9071526908,
				"element": "F" 
			},
			{
				"x": 0.522332064,
				"y": 1.2638128105,
				"z": -1.5820804678,
				"element": "C" 
			},
			{
				"x": 1.1156601805,
				"y": 1.8979361523,
				"z": -2.6685413461,
				"element": "N" 
			},
			{
				"x": 1.331415248,
				"y": 1.2113128718,
				"z": -3.8929506256,
				"element": "N" 
			},
			{
				"x": 0.9474050146,
				"y": 1.5457526812,
				"z": -0.2728891692,
				"element": "C" 
			},
			{
				"x": 1.9777852235,
				"y": 2.4209388769,
				"z": -0.1447823049,
				"element": "F" 
			},
			{
				"x": 0.3766175404,
				"y": 0.9920033284,
				"z": 0.8583294386,
				"element": "C" 
			},
			{
				"x": -1.0409560452,
				"y": -0.8919795551,
				"z": 5.093605366,
				"element": "H" 
			},
			{
				"x": -1.6459492346,
				"y": -2.3287832534,
				"z": 4.2347868226,
				"element": "H" 
			},
			{
				"x": -2.5346259565,
				"y": -0.7973289991,
				"z": 4.1129542552,
				"element": "H" 
			},
			{
				"x": 0.7195785468,
				"y": -2.2895048615,
				"z": 3.3438926719,
				"element": "H" 
			},
			{
				"x": 1.2047711486,
				"y": -0.6422006674,
				"z": 3.791098829,
				"element": "H" 
			},
			{
				"x": 1.1058941059,
				"y": -1.1119729655,
				"z": 2.0802636542,
				"element": "H" 
			},
			{
				"x": -2.023071855,
				"y": -0.8447594124,
				"z": -0.7003749648,
				"element": "H" 
			},
			{
				"x": 1.9300434198,
				"y": 2.4387163517,
				"z": -2.41079618,
				"element": "H" 
			},
			{
				"x": 1.5823300251,
				"y": 0.2384653719,
				"z": -3.7096188728,
				"element": "H" 
			},
			{
				"x": 0.4497069769,
				"y": 1.1951292353,
				"z": -4.3966270892,
				"element": "H" 
			},
			{
				"x": 0.756109807,
				"y": 1.2847062701,
				"z": 1.830345481,
				"element": "H" 
			}
		],
		 "valence_orbital": [ 
			{
				"type": "occ",
				"energy": -0.27136,
				"method": "rhf"
			},
			{
				"type": "occ",
				"energy": -0.25914,
				"method": "rhf"
			},
			{
				"type": "occ",
				"energy": -0.25293,
				"method": "rhf"
			},
			{
				"type": "occ",
				"energy": -0.2385,
				"method": "rhf"
			},
			{
				"type": "occ",
				"energy": -0.21674,
				"method": "rhf"
			},
			{
				"type": "unocc",
				"energy": -0.03333,
				"method": "rhf"
			},
			{
				"type": "unocc",
				"energy": -0.00744,
				"method": "rhf"
			},
			{
				"type": "unocc",
				"energy": 0.04914,
				"method": "rhf"
			},
			{
				"type": "unocc",
				"energy": 0.06486,
				"method": "rhf"
			},
			{
				"type": "unocc",
				"energy": 0.08437,
				"method": "rhf"
			}
		],
		"cosmo_sigma_profile": { 
			"-0.025": 0.0,
			"-0.024": 0.0,
			"-0.023": 0.0,
			"-0.022": 0.0,
			"-0.021": 0.0,
			"-0.02": 0.0,
			"-0.019": 0.0,
			"-0.018": 0.0,
			"-0.017": 0.0,
			"-0.016": 0.0,
			"-0.015": 0.0,
			"-0.014": 0.0,
			"-0.013": 0.0026700638543,
			"-0.012": 0.597826915784,
			"-0.011": 2.04726366026,
			"-0.01": 2.74826615193,
			"-0.009": 3.0162982056,
			"-0.008": 4.66734376288,
			"-0.007": 5.84474812988,
			"-0.006": 6.20563785861,
			"-0.005": 14.714991969,
			"-0.004": 22.078994685,
			"-0.003": 22.8783960339,
			"-0.002": 23.0730517787,
			"-0.001": 19.2788715089,
			"0.0": 17.8012741799,
			"0.001": 19.8171202412,
			"0.002": 14.1053440029,
			"0.003": 13.8141063434,
			"0.004": 14.4392859644,
			"0.005": 3.73674070345,
			"0.006": 3.25090766092,
			"0.007": 3.38196044485,
			"0.008": 2.97989792935,
			"0.009": 2.50014436009,
			"0.01": 2.64042054207,
			"0.011": 3.2218012252,
			"0.012": 2.35990421303,
			"0.013": 3.92964081973,
			"0.014": 4.63441426801,
			"0.015": 0.959019299087,
			"0.016": 0.694007095173,
			"0.017": 0.357129333025,
			"0.018": 0.0,
			"0.019": 0.0,
			"0.02": 0.0,
			"0.021": 0.0,
			"0.022": 0.0,
			"0.023": 0.0,
			"0.024": 0.0,
			"0.025": 0.0
		}
	}
}
