{
	 "smiles": "CCCCCCCOC1=C(OCC)C=C(C=O)C=C1", 
	 "Tm": 318.15, 
	 "num_atms": 43, 
	 "gaussian": { 
		 "optdone": 1, 
		 "sigma_profile": "yes", 
		 "theory": "DFT", 
		 "functional": "B3LYP", 
		 "basiset": "6-31G**", 
		 "properties": { 
			 "R2extent": 7252.9664, 
			 "electric_dipole_moment_norm": 2.7196042304, 
			 "electric_quadrupole_moment_norm": 23.5318251302, 
			 "total_energy": -849.836686519, 
			 "HOMO_LUMO_gap": 0.17047, 
			 "cosmo_polarized_energy": -9.99, 
			 "cosmo_cavitation_energy": 45.35, 
			 "cosmo_dispersion_energy": -29.49, 
			 "cosmo_repulsion_energy": 2.34, 
			 "cosmo_total_nonelectrostatic_energy": 18.2, 
			 "SMD_solvation_energy": 8.59 
		},
		"coords": [
			{
				"x": 2.6144199381,
				"y": 4.1336577359,
				"z": 1.3127269173,
				"element": "C" 
			},
			{
				"x": 1.7739764346,
				"y": 3.2789374834,
				"z": 2.2690336412,
				"element": "C" 
			},
			{
				"x": 0.254740146,
				"y": 3.4027629299,
				"z": 2.0651061924,
				"element": "C" 
			},
			{
				"x": -0.2570255194,
				"y": 2.8633493921,
				"z": 0.7219810348,
				"element": "C" 
			},
			{
				"x": -1.7854030649,
				"y": 2.9488719487,
				"z": 0.6006325981,
				"element": "C" 
			},
			{
				"x": -2.3743461168,
				"y": 2.5191145838,
				"z": -0.7536557906,
				"element": "C" 
			},
			{
				"x": -2.2276724334,
				"y": 1.0439442905,
				"z": -1.106944864,
				"element": "C" 
			},
			{
				"x": -0.8671349016,
				"y": 0.7965112487,
				"z": -1.5242113018,
				"element": "O" 
			},
			{
				"x": -0.5292886964,
				"y": -0.5001071516,
				"z": -1.7904514472,
				"element": "C" 
			},
			{
				"x": -0.4255092529,
				"y": -1.4649422028,
				"z": -0.7513771241,
				"element": "C" 
			},
			{
				"x": -0.7231534886,
				"y": -1.0234912288,
				"z": 0.5032403123,
				"element": "O" 
			},
			{
				"x": -0.5873115361,
				"y": -1.9390997855,
				"z": 1.5952227176,
				"element": "C" 
			},
			{
				"x": -0.9451881966,
				"y": -1.1939104094,
				"z": 2.8683302532,
				"element": "C" 
			},
			{
				"x": -0.0235714424,
				"y": -2.7586598982,
				"z": -1.064567725,
				"element": "C" 
			},
			{
				"x": 0.2912216843,
				"y": -3.1028366481,
				"z": -2.3914226429,
				"element": "C" 
			},
			{
				"x": 0.7206890612,
				"y": -4.4799667497,
				"z": -2.702733042,
				"element": "C" 
			},
			{
				"x": 0.8251708162,
				"y": -5.3774360046,
				"z": -1.8854681406,
				"element": "O" 
			},
			{
				"x": 0.2059641734,
				"y": -2.1480830088,
				"z": -3.4072645676,
				"element": "C" 
			},
			{
				"x": -0.2081204068,
				"y": -0.8522110882,
				"z": -3.1003705631,
				"element": "C" 
			},
			{
				"x": 2.4753043756,
				"y": 3.8346525087,
				"z": 0.2689767826,
				"element": "H" 
			},
			{
				"x": 2.345435514,
				"y": 5.1936936566,
				"z": 1.3925046228,
				"element": "H" 
			},
			{
				"x": 3.6821225928,
				"y": 4.0449198351,
				"z": 1.539563759,
				"element": "H" 
			},
			{
				"x": 2.0659640431,
				"y": 2.2245519533,
				"z": 2.1669103134,
				"element": "H" 
			},
			{
				"x": 2.0143625813,
				"y": 3.5613395121,
				"z": 3.3022913722,
				"element": "H" 
			},
			{
				"x": -0.2540010868,
				"y": 2.8656665563,
				"z": 2.8783618184,
				"element": "H" 
			},
			{
				"x": -0.0384423509,
				"y": 4.4576987022,
				"z": 2.1725422246,
				"element": "H" 
			},
			{
				"x": 0.0620752749,
				"y": 1.8230903515,
				"z": 0.5969865422,
				"element": "H" 
			},
			{
				"x": 0.1969579116,
				"y": 3.4224828539,
				"z": -0.1063527324,
				"element": "H" 
			},
			{
				"x": -2.2459895126,
				"y": 2.3445694708,
				"z": 1.3957142905,
				"element": "H" 
			},
			{
				"x": -2.0993423282,
				"y": 3.9843370673,
				"z": 0.792771798,
				"element": "H" 
			},
			{
				"x": -1.9360880233,
				"y": 3.1126406681,
				"z": -1.56630316,
				"element": "H" 
			},
			{
				"x": -3.449853167,
				"y": 2.7402596169,
				"z": -0.7541885105,
				"element": "H" 
			},
			{
				"x": -2.4768181916,
				"y": 0.4078121654,
				"z": -0.250910358,
				"element": "H" 
			},
			{
				"x": -2.8940508652,
				"y": 0.782147949,
				"z": -1.9407820095,
				"element": "H" 
			},
			{
				"x": 0.4442734873,
				"y": -2.3138879947,
				"z": 1.6342581876,
				"element": "H" 
			},
			{
				"x": -1.2525423827,
				"y": -2.7997519026,
				"z": 1.4419574903,
				"element": "H" 
			},
			{
				"x": -0.848719083,
				"y": -1.8612024074,
				"z": 3.7301703907,
				"element": "H" 
			},
			{
				"x": -0.2802471841,
				"y": -0.3384767106,
				"z": 3.0158646238,
				"element": "H" 
			},
			{
				"x": -1.975340431,
				"y": -0.8287149625,
				"z": 2.828301472,
				"element": "H" 
			},
			{
				"x": 0.0711368348,
				"y": -3.5309564763,
				"z": -0.3108434798,
				"element": "H" 
			},
			{
				"x": 0.953912895,
				"y": -4.6578582269,
				"z": -3.776421669,
				"element": "H" 
			},
			{
				"x": 0.4554251438,
				"y": -2.4183865906,
				"z": -4.430002216,
				"element": "H" 
			},
			{
				"x": -0.2849932454,
				"y": -0.083933033,
				"z": -3.862778011,
				"element": "H" 
			}
		],
		 "valence_orbital": [ 
			{
				"type": "occ",
				"energy": -0.30331,
				"method": "rhf"
			},
			{
				"type": "occ",
				"energy": -0.27876,
				"method": "rhf"
			},
			{
				"type": "occ",
				"energy": -0.25072,
				"method": "rhf"
			},
			{
				"type": "occ",
				"energy": -0.25,
				"method": "rhf"
			},
			{
				"type": "occ",
				"energy": -0.22672,
				"method": "rhf"
			},
			{
				"type": "unocc",
				"energy": -0.05625,
				"method": "rhf"
			},
			{
				"type": "unocc",
				"energy": -0.00089,
				"method": "rhf"
			},
			{
				"type": "unocc",
				"energy": 0.04743,
				"method": "rhf"
			},
			{
				"type": "unocc",
				"energy": 0.07081,
				"method": "rhf"
			},
			{
				"type": "unocc",
				"energy": 0.08768,
				"method": "rhf"
			}
		],
		"cosmo_sigma_profile": { 
			"-0.025": 0.0,
			"-0.024": 0.0,
			"-0.023": 0.0,
			"-0.022": 0.0,
			"-0.021": 0.0,
			"-0.02": 0.0,
			"-0.019": 0.0,
			"-0.018": 0.0,
			"-0.017": 0.0,
			"-0.016": 0.0,
			"-0.015": 0.0,
			"-0.014": 0.0,
			"-0.013": 0.0,
			"-0.012": 0.0,
			"-0.011": 0.0,
			"-0.01": 0.0,
			"-0.009": 0.0,
			"-0.008": 0.20587145698,
			"-0.007": 4.55859653604,
			"-0.006": 9.87096628608,
			"-0.005": 15.0075114077,
			"-0.004": 20.9444555701,
			"-0.003": 29.2671635177,
			"-0.002": 42.8258476984,
			"-0.001": 47.4516116536,
			"0.0": 52.5597881258,
			"0.001": 42.1457711606,
			"0.002": 28.6023351757,
			"0.003": 16.8064044195,
			"0.004": 9.58117355059,
			"0.005": 6.15783257625,
			"0.006": 5.25973057475,
			"0.007": 3.55794423113,
			"0.008": 3.71091033046,
			"0.009": 2.75145735837,
			"0.01": 3.23947364353,
			"0.011": 4.32026133952,
			"0.012": 3.803100383,
			"0.013": 1.32318275906,
			"0.014": 0.0478949202195,
			"0.015": 0.0,
			"0.016": 0.0,
			"0.017": 0.0,
			"0.018": 0.0,
			"0.019": 0.0,
			"0.02": 0.0,
			"0.021": 0.0,
			"0.022": 0.0,
			"0.023": 0.0,
			"0.024": 0.0,
			"0.025": 0.0
		}
	}
}
