{
	 "smiles": "CC(C)(N1N=C2C=CC=CC2=N1)C(O)=O", 
	 "Tm": 425.15, 
	 "num_atms": 26, 
	 "gaussian": { 
		 "optdone": 1, 
		 "sigma_profile": "yes", 
		 "theory": "DFT", 
		 "functional": "B3LYP", 
		 "basiset": "6-31G**", 
		 "properties": { 
			 "R2extent": 3760.2767, 
			 "electric_dipole_moment_norm": 4.95234518385, 
			 "electric_quadrupole_moment_norm": 18.280886217, 
			 "total_energy": -702.384262742, 
			 "HOMO_LUMO_gap": 0.17848, 
			 "cosmo_polarized_energy": -11.38, 
			 "cosmo_cavitation_energy": 29.53, 
			 "cosmo_dispersion_energy": -21.44, 
			 "cosmo_repulsion_energy": 1.66, 
			 "cosmo_total_nonelectrostatic_energy": 9.74, 
			 "SMD_solvation_energy": 4.71 
		},
		"coords": [
			{
				"x": -0.1125813542,
				"y": 1.3449058346,
				"z": -3.4596278211,
				"element": "C" 
			},
			{
				"x": -1.1930339668,
				"y": 0.9529968946,
				"z": -2.4510052796,
				"element": "C" 
			},
			{
				"x": -1.9897654458,
				"y": -0.2810554977,
				"z": -2.9311435488,
				"element": "C" 
			},
			{
				"x": -0.5493794067,
				"y": 0.6023141766,
				"z": -1.1520428333,
				"element": "N" 
			},
			{
				"x": 0.7332520059,
				"y": 0.2992668467,
				"z": -1.0578857145,
				"element": "N" 
			},
			{
				"x": 0.8814194773,
				"y": -0.0446471493,
				"z": 0.2442391074,
				"element": "C" 
			},
			{
				"x": 2.0309058067,
				"y": -0.4566894916,
				"z": 0.9562406702,
				"element": "C" 
			},
			{
				"x": 1.8656668332,
				"y": -0.7381422999,
				"z": 2.2949810338,
				"element": "C" 
			},
			{
				"x": 0.598022706,
				"y": -0.6196816109,
				"z": 2.9401154154,
				"element": "C" 
			},
			{
				"x": -0.5344222488,
				"y": -0.2187238862,
				"z": 2.2641283374,
				"element": "C" 
			},
			{
				"x": -0.3825912495,
				"y": 0.0701179456,
				"z": 0.8892865069,
				"element": "C" 
			},
			{
				"x": -1.27925657,
				"y": 0.4760256133,
				"z": -0.0386603228,
				"element": "N" 
			},
			{
				"x": -2.214171705,
				"y": 2.1319478392,
				"z": -2.2960851254,
				"element": "C" 
			},
			{
				"x": -2.8869834893,
				"y": 2.2330387116,
				"z": -1.1499307061,
				"element": "O" 
			},
			{
				"x": -2.4346102669,
				"y": 2.8556767503,
				"z": -3.2390277884,
				"element": "O" 
			},
			{
				"x": -0.6094469815,
				"y": 1.6682034405,
				"z": -4.373805925,
				"element": "H" 
			},
			{
				"x": 0.5451019016,
				"y": 0.500152648,
				"z": -3.6683478544,
				"element": "H" 
			},
			{
				"x": 0.4939803704,
				"y": 2.1726656065,
				"z": -3.08639681,
				"element": "H" 
			},
			{
				"x": -2.7533830917,
				"y": -0.5647585468,
				"z": -2.2028928013,
				"element": "H" 
			},
			{
				"x": -1.3106544273,
				"y": -1.1250302103,
				"z": -3.081270914,
				"element": "H" 
			},
			{
				"x": -2.4785284037,
				"y": -0.0444074683,
				"z": -3.8791580954,
				"element": "H" 
			},
			{
				"x": 2.9918657131,
				"y": -0.5427100358,
				"z": 0.4611239218,
				"element": "H" 
			},
			{
				"x": 2.7193412973,
				"y": -1.0590422462,
				"z": 2.8840744734,
				"element": "H" 
			},
			{
				"x": 0.5314287521,
				"y": -0.8544157838,
				"z": 3.9982169754,
				"element": "H" 
			},
			{
				"x": -1.4971984671,
				"y": -0.1281178014,
				"z": 2.7549405954,
				"element": "H" 
			},
			{
				"x": -2.5353777893,
				"y": 1.5798097205,
				"z": -0.492565497,
				"element": "H" 
			}
		],
		 "valence_orbital": [ 
			{
				"type": "occ",
				"energy": -0.31545,
				"method": "rhf"
			},
			{
				"type": "occ",
				"energy": -0.30738,
				"method": "rhf"
			},
			{
				"type": "occ",
				"energy": -0.27891,
				"method": "rhf"
			},
			{
				"type": "occ",
				"energy": -0.25972,
				"method": "rhf"
			},
			{
				"type": "occ",
				"energy": -0.24684,
				"method": "rhf"
			},
			{
				"type": "unocc",
				"energy": -0.06836,
				"method": "rhf"
			},
			{
				"type": "unocc",
				"energy": 0.00408,
				"method": "rhf"
			},
			{
				"type": "unocc",
				"energy": 0.00765,
				"method": "rhf"
			},
			{
				"type": "unocc",
				"energy": 0.01384,
				"method": "rhf"
			},
			{
				"type": "unocc",
				"energy": 0.08566,
				"method": "rhf"
			}
		],
		"cosmo_sigma_profile": { 
			"-0.025": 0.0,
			"-0.024": 0.0,
			"-0.023": 0.0,
			"-0.022": 0.0,
			"-0.021": 0.0,
			"-0.02": 0.0,
			"-0.019": 0.0,
			"-0.018": 0.0,
			"-0.017": 0.0,
			"-0.016": 0.0,
			"-0.015": 0.0,
			"-0.014": 0.0,
			"-0.013": 0.0,
			"-0.012": 0.0,
			"-0.011": 0.0,
			"-0.01": 0.0,
			"-0.009": 0.0,
			"-0.008": 1.13181786398,
			"-0.007": 7.01140189204,
			"-0.006": 13.5989694077,
			"-0.005": 21.3398859981,
			"-0.004": 23.8913476719,
			"-0.003": 18.8971073857,
			"-0.002": 22.0781965948,
			"-0.001": 19.0874257457,
			"0.0": 15.0362805892,
			"0.001": 15.4234385819,
			"0.002": 15.5364275682,
			"0.003": 14.1236102791,
			"0.004": 11.0378072883,
			"0.005": 4.47766558336,
			"0.006": 3.61987047263,
			"0.007": 3.5418086727,
			"0.008": 3.83071651394,
			"0.009": 4.25046282797,
			"0.01": 5.65214656777,
			"0.011": 6.39063907713,
			"0.012": 4.13672609356,
			"0.013": 1.11559228129,
			"0.014": 0.0,
			"0.015": 0.0,
			"0.016": 0.0,
			"0.017": 0.0,
			"0.018": 0.0,
			"0.019": 0.0,
			"0.02": 0.0,
			"0.021": 0.0,
			"0.022": 0.0,
			"0.023": 0.0,
			"0.024": 0.0,
			"0.025": 0.0
		}
	}
}
