{
	 "smiles": "CCCCCCCCCCCCCCCCOC1=CC=C(N)C=C1", 
	 "Tm": 333.15, 
	 "num_atms": 63, 
	 "gaussian": { 
		 "optdone": 1, 
		 "sigma_profile": "yes", 
		 "theory": "DFT", 
		 "functional": "B3LYP", 
		 "basiset": "6-31G**", 
		 "properties": { 
			 "R2extent": 23202.684, 
			 "electric_dipole_moment_norm": 1.71098402389, 
			 "electric_quadrupole_moment_norm": 20.7798520194, 
			 "total_energy": -991.85320788, 
			 "HOMO_LUMO_gap": 0.18746, 
			 "cosmo_polarized_energy": -10.35, 
			 "cosmo_cavitation_energy": 61.41, 
			 "cosmo_dispersion_energy": -41.6, 
			 "cosmo_repulsion_energy": 3.28, 
			 "cosmo_total_nonelectrostatic_energy": 23.09, 
			 "SMD_solvation_energy": 8.31 
		},
		"coords": [
			{
				"x": 6.6945961488,
				"y": 3.2276986239,
				"z": -0.8615743832,
				"element": "C" 
			},
			{
				"x": 5.8887189701,
				"y": 4.0737548856,
				"z": -1.8528562417,
				"element": "C" 
			},
			{
				"x": 5.2524905953,
				"y": 3.2403881519,
				"z": -2.9746006108,
				"element": "C" 
			},
			{
				"x": 4.4546798592,
				"y": 4.0659137004,
				"z": -4.0022395485,
				"element": "C" 
			},
			{
				"x": 3.1191457568,
				"y": 4.6718136783,
				"z": -3.5111402888,
				"element": "C" 
			},
			{
				"x": 1.8654470145,
				"y": 3.8125769414,
				"z": -3.7704635311,
				"element": "C" 
			},
			{
				"x": 1.7642623618,
				"y": 2.4641264993,
				"z": -3.0358338393,
				"element": "C" 
			},
			{
				"x": 1.6764119924,
				"y": 2.5777246294,
				"z": -1.5051930885,
				"element": "C" 
			},
			{
				"x": 1.49911808,
				"y": 1.2341874956,
				"z": -0.76067647,
				"element": "C" 
			},
			{
				"x": 0.0480727578,
				"y": 0.8117667633,
				"z": -0.4645465783,
				"element": "C" 
			},
			{
				"x": -0.8280510552,
				"y": 0.5147683236,
				"z": -1.6910573762,
				"element": "C" 
			},
			{
				"x": -2.205921089,
				"y": -0.0819707644,
				"z": -1.3542464655,
				"element": "C" 
			},
			{
				"x": -3.1460219901,
				"y": 0.8795630159,
				"z": -0.607660708,
				"element": "C" 
			},
			{
				"x": -4.5852240886,
				"y": 0.3658186668,
				"z": -0.3887696389,
				"element": "C" 
			},
			{
				"x": -4.8345685848,
				"y": -0.4893911732,
				"z": 0.866257883,
				"element": "C" 
			},
			{
				"x": -4.1618146248,
				"y": -1.8577451544,
				"z": 0.8786220462,
				"element": "C" 
			},
			{
				"x": -4.6640624899,
				"y": -2.5627185409,
				"z": 2.0086166346,
				"element": "O" 
			},
			{
				"x": -4.192270005,
				"y": -3.8278369203,
				"z": 2.2499168532,
				"element": "C" 
			},
			{
				"x": -4.7026370821,
				"y": -4.4673502919,
				"z": 3.3879506331,
				"element": "C" 
			},
			{
				"x": -4.2926413055,
				"y": -5.7509285243,
				"z": 3.7237040834,
				"element": "C" 
			},
			{
				"x": -3.3550538414,
				"y": -6.441094245,
				"z": 2.9343952869,
				"element": "C" 
			},
			{
				"x": -2.989193629,
				"y": -7.7632401595,
				"z": 3.2434902416,
				"element": "N" 
			},
			{
				"x": -2.8504086324,
				"y": -5.7945380637,
				"z": 1.8002416451,
				"element": "C" 
			},
			{
				"x": -3.2609809849,
				"y": -4.5032214618,
				"z": 1.4556567198,
				"element": "C" 
			},
			{
				"x": 7.1446331996,
				"y": 3.8464683289,
				"z": -0.0781854386,
				"element": "H" 
			},
			{
				"x": 6.0602802814,
				"y": 2.4803354204,
				"z": -0.3710074365,
				"element": "H" 
			},
			{
				"x": 7.5049453528,
				"y": 2.689630615,
				"z": -1.3669307049,
				"element": "H" 
			},
			{
				"x": 6.5415594758,
				"y": 4.8360625534,
				"z": -2.300205836,
				"element": "H" 
			},
			{
				"x": 5.1114169145,
				"y": 4.6249810405,
				"z": -1.3078386666,
				"element": "H" 
			},
			{
				"x": 6.0524929785,
				"y": 2.703441472,
				"z": -3.5030377643,
				"element": "H" 
			},
			{
				"x": 4.6151678166,
				"y": 2.4654909206,
				"z": -2.5302025851,
				"element": "H" 
			},
			{
				"x": 5.1058692892,
				"y": 4.8775004811,
				"z": -4.3540334175,
				"element": "H" 
			},
			{
				"x": 4.2556090167,
				"y": 3.4446807045,
				"z": -4.8860913461,
				"element": "H" 
			},
			{
				"x": 3.1889852044,
				"y": 4.9256728478,
				"z": -2.4461247847,
				"element": "H" 
			},
			{
				"x": 2.9615862963,
				"y": 5.6282516754,
				"z": -4.0251470864,
				"element": "H" 
			},
			{
				"x": 0.9793539376,
				"y": 4.4115548736,
				"z": -3.5166249591,
				"element": "H" 
			},
			{
				"x": 1.7993857972,
				"y": 3.6246420372,
				"z": -4.851122926,
				"element": "H" 
			},
			{
				"x": 2.6194851294,
				"y": 1.8279783736,
				"z": -3.3000289898,
				"element": "H" 
			},
			{
				"x": 0.8803246016,
				"y": 1.9382986429,
				"z": -3.4151530627,
				"element": "H" 
			},
			{
				"x": 0.8531321734,
				"y": 3.2557633096,
				"z": -1.2363771465,
				"element": "H" 
			},
			{
				"x": 2.5885834484,
				"y": 3.0632744456,
				"z": -1.1380046741,
				"element": "H" 
			},
			{
				"x": 2.0224015577,
				"y": 1.2936079442,
				"z": 0.2018327604,
				"element": "H" 
			},
			{
				"x": 2.0038591197,
				"y": 0.4362528228,
				"z": -1.3240174344,
				"element": "H" 
			},
			{
				"x": -0.423448967,
				"y": 1.5934952905,
				"z": 0.1458442485,
				"element": "H" 
			},
			{
				"x": 0.0755655145,
				"y": -0.0875133343,
				"z": 0.1674811608,
				"element": "H" 
			},
			{
				"x": -0.2933901025,
				"y": -0.1858281603,
				"z": -2.3469687476,
				"element": "H" 
			},
			{
				"x": -0.9740388183,
				"y": 1.4313978191,
				"z": -2.2777289387,
				"element": "H" 
			},
			{
				"x": -2.6949458193,
				"y": -0.3860867263,
				"z": -2.2898139401,
				"element": "H" 
			},
			{
				"x": -2.0597557068,
				"y": -1.0036932228,
				"z": -0.7763316654,
				"element": "H" 
			},
			{
				"x": -2.7141588393,
				"y": 1.1588739027,
				"z": 0.3623900676,
				"element": "H" 
			},
			{
				"x": -3.1970507412,
				"y": 1.8097554126,
				"z": -1.1900789584,
				"element": "H" 
			},
			{
				"x": -4.9158920756,
				"y": -0.1846898996,
				"z": -1.2812045336,
				"element": "H" 
			},
			{
				"x": -5.2508696286,
				"y": 1.2341645043,
				"z": -0.3145393643,
				"element": "H" 
			},
			{
				"x": -4.5224131672,
				"y": 0.0637693135,
				"z": 1.7610230313,
				"element": "H" 
			},
			{
				"x": -5.9129406889,
				"y": -0.6595613697,
				"z": 0.9694012464,
				"element": "H" 
			},
			{
				"x": -3.0693364774,
				"y": -1.7688776938,
				"z": 0.9527218545,
				"element": "H" 
			},
			{
				"x": -4.3902032495,
				"y": -2.4094573402,
				"z": -0.0466521858,
				"element": "H" 
			},
			{
				"x": -5.4240605887,
				"y": -3.9360967347,
				"z": 4.0006599995,
				"element": "H" 
			},
			{
				"x": -4.7058691056,
				"y": -6.2310661181,
				"z": 4.6076867339,
				"element": "H" 
			},
			{
				"x": -3.0617779554,
				"y": -7.9890916408,
				"z": 4.2271934705,
				"element": "H" 
			},
			{
				"x": -2.0820550569,
				"y": -8.0321123262,
				"z": 2.8847573635,
				"element": "H" 
			},
			{
				"x": -2.1278797125,
				"y": -6.3062193932,
				"z": 1.1686072625,
				"element": "H" 
			},
			{
				"x": -2.8440445388,
				"y": -4.0408168681,
				"z": 0.5686601356,
				"element": "H" 
			}
		],
		 "valence_orbital": [ 
			{
				"type": "occ",
				"energy": -0.29608,
				"method": "rhf"
			},
			{
				"type": "occ",
				"energy": -0.294,
				"method": "rhf"
			},
			{
				"type": "occ",
				"energy": -0.26826,
				"method": "rhf"
			},
			{
				"type": "occ",
				"energy": -0.24041,
				"method": "rhf"
			},
			{
				"type": "occ",
				"energy": -0.17981,
				"method": "rhf"
			},
			{
				"type": "unocc",
				"energy": 0.00765,
				"method": "rhf"
			},
			{
				"type": "unocc",
				"energy": 0.03647,
				"method": "rhf"
			},
			{
				"type": "unocc",
				"energy": 0.07186,
				"method": "rhf"
			},
			{
				"type": "unocc",
				"energy": 0.07993,
				"method": "rhf"
			},
			{
				"type": "unocc",
				"energy": 0.08753,
				"method": "rhf"
			}
		],
		"cosmo_sigma_profile": { 
			"-0.025": 0.0,
			"-0.024": 0.0,
			"-0.023": 0.0,
			"-0.022": 0.0,
			"-0.021": 0.0,
			"-0.02": 0.0,
			"-0.019": 0.0,
			"-0.018": 0.0,
			"-0.017": 0.0,
			"-0.016": 0.0,
			"-0.015": 0.0,
			"-0.014": 0.0,
			"-0.013": 0.0,
			"-0.012": 1.05137786425,
			"-0.011": 2.59798302198,
			"-0.01": 2.81927349083,
			"-0.009": 3.39984474884,
			"-0.008": 2.86055973247,
			"-0.007": 3.31840790906,
			"-0.006": 4.58397796395,
			"-0.005": 9.19338700181,
			"-0.004": 12.6866650576,
			"-0.003": 19.9022974123,
			"-0.002": 54.2476684537,
			"-0.001": 92.9834606451,
			"0.0": 92.4822752848,
			"0.001": 73.5030307046,
			"0.002": 35.9169807752,
			"0.003": 8.18466870172,
			"0.004": 7.99234329935,
			"0.005": 11.2552802312,
			"0.006": 11.7686868851,
			"0.007": 10.0995102868,
			"0.008": 2.54664566223,
			"0.009": 2.80795250375,
			"0.01": 1.89088377849,
			"0.011": 2.02527970356,
			"0.012": 0.762481829913,
			"0.013": 0.716928764956,
			"0.014": 0.374918989802,
			"0.015": 0.737113531766,
			"0.016": 0.47567329896,
			"0.017": 0.0,
			"0.018": 0.0,
			"0.019": 0.0,
			"0.02": 0.0,
			"0.021": 0.0,
			"0.022": 0.0,
			"0.023": 0.0,
			"0.024": 0.0,
			"0.025": 0.0
		}
	}
}
