{
	 "smiles": "CCC1=NC(N)=NC(O)=C1C", 
	 "Tm": 576.15, 
	 "num_atms": 22, 
	 "gaussian": { 
		 "optdone": 1, 
		 "sigma_profile": "yes", 
		 "theory": "DFT", 
		 "functional": "B3LYP", 
		 "basiset": "6-31G**", 
		 "properties": { 
			 "R2extent": 2039.4507, 
			 "electric_dipole_moment_norm": 1.09806462925, 
			 "electric_quadrupole_moment_norm": 8.71147509495, 
			 "total_energy": -512.893236292, 
			 "HOMO_LUMO_gap": 0.20093, 
			 "cosmo_polarized_energy": -10.4, 
			 "cosmo_cavitation_energy": 25.27, 
			 "cosmo_dispersion_energy": -18.66, 
			 "cosmo_repulsion_energy": 1.54, 
			 "cosmo_total_nonelectrostatic_energy": 8.15, 
			 "SMD_solvation_energy": 2.18 
		},
		"coords": [
			{
				"x": -2.5892108759,
				"y": 1.0505429975,
				"z": -1.3505762762,
				"element": "C" 
			},
			{
				"x": -1.8136458724,
				"y": 1.2770696928,
				"z": -0.0400006622,
				"element": "C" 
			},
			{
				"x": -0.3398033392,
				"y": 0.9771967852,
				"z": -0.1986606898,
				"element": "C" 
			},
			{
				"x": 0.3841639807,
				"y": 1.9652555346,
				"z": -0.7555367626,
				"element": "N" 
			},
			{
				"x": 1.6887223539,
				"y": 1.7250341385,
				"z": -0.9360359681,
				"element": "C" 
			},
			{
				"x": 2.4445061266,
				"y": 2.7410777475,
				"z": -1.4589526267,
				"element": "N" 
			},
			{
				"x": 2.3375544458,
				"y": 0.5888269827,
				"z": -0.6212652482,
				"element": "N" 
			},
			{
				"x": 1.5923078761,
				"y": -0.3657459004,
				"z": -0.0745779686,
				"element": "C" 
			},
			{
				"x": 2.2295618801,
				"y": -1.5129894389,
				"z": 0.2498761576,
				"element": "O" 
			},
			{
				"x": 0.2128674074,
				"y": -0.2551072813,
				"z": 0.1764171161,
				"element": "C" 
			},
			{
				"x": -0.5725878318,
				"y": -1.3849532117,
				"z": 0.7967910651,
				"element": "C" 
			},
			{
				"x": -2.1694091376,
				"y": 1.668294338,
				"z": -2.149632586,
				"element": "H" 
			},
			{
				"x": -2.5375192757,
				"y": 0.0043353225,
				"z": -1.6703158914,
				"element": "H" 
			},
			{
				"x": -3.6444106282,
				"y": 1.3149643299,
				"z": -1.2286393512,
				"element": "H" 
			},
			{
				"x": -1.9080509726,
				"y": 2.3267248215,
				"z": 0.2553202607,
				"element": "H" 
			},
			{
				"x": -2.2460089283,
				"y": 0.6677253019,
				"z": 0.7592665195,
				"element": "H" 
			},
			{
				"x": 1.9370714631,
				"y": 3.4870798598,
				"z": -1.9077505847,
				"element": "H" 
			},
			{
				"x": 3.3473001867,
				"y": 2.4932491675,
				"z": -1.8312123828,
				"element": "H" 
			},
			{
				"x": 3.1565328555,
				"y": -1.3778832401,
				"z": -0.0039210962,
				"element": "H" 
			},
			{
				"x": -1.4743297629,
				"y": -1.6179195757,
				"z": 0.2207537644,
				"element": "H" 
			},
			{
				"x": -0.8926459909,
				"y": -1.1470106682,
				"z": 1.8188762484,
				"element": "H" 
			},
			{
				"x": 0.0347340397,
				"y": -2.2899677038,
				"z": 0.8462769629,
				"element": "H" 
			}
		],
		 "valence_orbital": [ 
			{
				"type": "occ",
				"energy": -0.30525,
				"method": "rhf"
			},
			{
				"type": "occ",
				"energy": -0.29252,
				"method": "rhf"
			},
			{
				"type": "occ",
				"energy": -0.26829,
				"method": "rhf"
			},
			{
				"type": "occ",
				"energy": -0.24328,
				"method": "rhf"
			},
			{
				"type": "occ",
				"energy": -0.21093,
				"method": "rhf"
			},
			{
				"type": "unocc",
				"energy": -0.01,
				"method": "rhf"
			},
			{
				"type": "unocc",
				"energy": 0.0189,
				"method": "rhf"
			},
			{
				"type": "unocc",
				"energy": 0.08493,
				"method": "rhf"
			},
			{
				"type": "unocc",
				"energy": 0.09862,
				"method": "rhf"
			},
			{
				"type": "unocc",
				"energy": 0.10262,
				"method": "rhf"
			}
		],
		"cosmo_sigma_profile": { 
			"-0.025": 0.0,
			"-0.024": 0.0,
			"-0.023": 0.0,
			"-0.022": 0.0,
			"-0.021": 0.0,
			"-0.02": 0.0,
			"-0.019": 0.0,
			"-0.018": 0.0111173175065,
			"-0.017": 0.419901138877,
			"-0.016": 0.790935423631,
			"-0.015": 0.886300487459,
			"-0.014": 0.620163252933,
			"-0.013": 2.01179958089,
			"-0.012": 3.03718253675,
			"-0.011": 2.36461566034,
			"-0.01": 2.81919052472,
			"-0.009": 3.21882405468,
			"-0.008": 1.99387770672,
			"-0.007": 1.64877496788,
			"-0.006": 2.00536099212,
			"-0.005": 2.3856887728,
			"-0.004": 8.09197468287,
			"-0.003": 18.8950095654,
			"-0.002": 18.0452257707,
			"-0.001": 18.3087415285,
			"0.0": 23.5087834244,
			"0.001": 24.0750180017,
			"0.002": 15.5021775044,
			"0.003": 7.12419615864,
			"0.004": 5.69063412506,
			"0.005": 5.18002628683,
			"0.006": 5.19495488418,
			"0.007": 5.7336531326,
			"0.008": 5.71064904864,
			"0.009": 4.55113193835,
			"0.01": 2.74895544492,
			"0.011": 2.52436581565,
			"0.012": 1.47803658708,
			"0.013": 0.612694843423,
			"0.014": 0.429773542406,
			"0.015": 0.604747159347,
			"0.016": 0.101786339593,
			"0.017": 0.0,
			"0.018": 0.0,
			"0.019": 0.0,
			"0.02": 0.0,
			"0.021": 0.0,
			"0.022": 0.0,
			"0.023": 0.0,
			"0.024": 0.0,
			"0.025": 0.0
		}
	}
}
