{
	 "smiles": "BrC1=CC=CC(C=O)=C1", 
	 "Tm": 293.15, 
	 "num_atms": 14, 
	 "gaussian": { 
		 "optdone": 1, 
		 "sigma_profile": "yes", 
		 "theory": "DFT", 
		 "functional": "B3LYP", 
		 "basiset": "6-31G**", 
		 "properties": { 
			 "R2extent": 3021.8213, 
			 "electric_dipole_moment_norm": 3.55675001371, 
			 "electric_quadrupole_moment_norm": 10.9216298024, 
			 "total_energy": -2916.37589657, 
			 "HOMO_LUMO_gap": 0.18248, 
			 "cosmo_polarized_energy": -7.67, 
			 "cosmo_cavitation_energy": 21.16, 
			 "cosmo_dispersion_energy": -15.9, 
			 "cosmo_repulsion_energy": 1.3, 
			 "cosmo_total_nonelectrostatic_energy": 6.55, 
			 "SMD_solvation_energy": 3.61 
		},
		"coords": [
			{
				"x": -0.6400508405,
				"y": 0.4021182859,
				"z": -3.2198228864,
				"element": "Br" 
			},
			{
				"x": -0.6250389873,
				"y": -0.3246895276,
				"z": -1.4530144811,
				"element": "C" 
			},
			{
				"x": 0.3369851709,
				"y": 0.1223566594,
				"z": -0.541412178,
				"element": "C" 
			},
			{
				"x": 0.3542413152,
				"y": -0.4040026508,
				"z": 0.7510689666,
				"element": "C" 
			},
			{
				"x": -0.581403271,
				"y": -1.3673102576,
				"z": 1.1266466667,
				"element": "C" 
			},
			{
				"x": -1.5391010029,
				"y": -1.8064794196,
				"z": 0.2051624802,
				"element": "C" 
			},
			{
				"x": -2.535882472,
				"y": -2.8312841795,
				"z": 0.6016498199,
				"element": "C" 
			},
			{
				"x": -3.4006733209,
				"y": -3.2697305972,
				"z": -0.1306828905,
				"element": "O" 
			},
			{
				"x": -1.5637315717,
				"y": -1.2827810204,
				"z": -1.0961957103,
				"element": "C" 
			},
			{
				"x": 1.0603401431,
				"y": 0.8716887708,
				"z": -0.8426870902,
				"element": "H" 
			},
			{
				"x": 1.1005746618,
				"y": -0.0576615399,
				"z": 1.4593977594,
				"element": "H" 
			},
			{
				"x": -0.572980816,
				"y": -1.7810178826,
				"z": 2.1318800494,
				"element": "H" 
			},
			{
				"x": -2.4387495072,
				"y": -3.1870758497,
				"z": 1.6513147069,
				"element": "H" 
			},
			{
				"x": -2.3140295015,
				"y": -1.6371307913,
				"z": -1.7937052126,
				"element": "H" 
			}
		],
		 "valence_orbital": [ 
			{
				"type": "occ",
				"energy": -0.32379,
				"method": "rhf"
			},
			{
				"type": "occ",
				"energy": -0.29568,
				"method": "rhf"
			},
			{
				"type": "occ",
				"energy": -0.27762,
				"method": "rhf"
			},
			{
				"type": "occ",
				"energy": -0.26459,
				"method": "rhf"
			},
			{
				"type": "occ",
				"energy": -0.25728,
				"method": "rhf"
			},
			{
				"type": "unocc",
				"energy": -0.0748,
				"method": "rhf"
			},
			{
				"type": "unocc",
				"energy": -0.02873,
				"method": "rhf"
			},
			{
				"type": "unocc",
				"energy": -0.00144,
				"method": "rhf"
			},
			{
				"type": "unocc",
				"energy": 0.02619,
				"method": "rhf"
			},
			{
				"type": "unocc",
				"energy": 0.09219,
				"method": "rhf"
			}
		],
		"cosmo_sigma_profile": { 
			"-0.025": 0.0,
			"-0.024": 0.0,
			"-0.023": 0.0,
			"-0.022": 0.0,
			"-0.021": 0.0,
			"-0.02": 0.0,
			"-0.019": 0.0,
			"-0.018": 0.0,
			"-0.017": 0.0,
			"-0.016": 0.0,
			"-0.015": 0.0,
			"-0.014": 0.0,
			"-0.013": 0.0,
			"-0.012": 0.0,
			"-0.011": 0.0,
			"-0.01": 0.0,
			"-0.009": 0.432565143089,
			"-0.008": 4.47653821712,
			"-0.007": 9.78267163731,
			"-0.006": 11.1640363492,
			"-0.005": 9.63612147178,
			"-0.004": 9.98537991182,
			"-0.003": 9.12007452558,
			"-0.002": 10.3209344195,
			"-0.001": 10.5806983076,
			"0.0": 14.3164529458,
			"0.001": 20.6519232407,
			"0.002": 19.4392837211,
			"0.003": 10.2351446803,
			"0.004": 12.9100485354,
			"0.005": 3.85494242152,
			"0.006": 2.02652908968,
			"0.007": 1.82745971507,
			"0.008": 1.06005223517,
			"0.009": 2.43782560335,
			"0.01": 2.94614784064,
			"0.011": 4.38171455189,
			"0.012": 1.77518281529,
			"0.013": 0.359906183081,
			"0.014": 0.0,
			"0.015": 0.0,
			"0.016": 0.0,
			"0.017": 0.0,
			"0.018": 0.0,
			"0.019": 0.0,
			"0.02": 0.0,
			"0.021": 0.0,
			"0.022": 0.0,
			"0.023": 0.0,
			"0.024": 0.0,
			"0.025": 0.0
		}
	}
}
