{
	 "smiles": "CN(C)C1=CC=C(C=C1)N=NC1=CC=CC=C1C(O)=O", 
	 "Tm": 455.15, 
	 "num_atms": 35, 
	 "gaussian": { 
		 "optdone": 1, 
		 "sigma_profile": "yes", 
		 "theory": "DFT", 
		 "functional": "B3LYP", 
		 "basiset": "6-31G**", 
		 "properties": { 
			 "R2extent": 8890.0713, 
			 "electric_dipole_moment_norm": 9.65872300617, 
			 "electric_quadrupole_moment_norm": 29.6714568156, 
			 "total_energy": -895.31413707, 
			 "HOMO_LUMO_gap": 0.1146, 
			 "cosmo_polarized_energy": -17.76, 
			 "cosmo_cavitation_energy": 39.06, 
			 "cosmo_dispersion_energy": -28.47, 
			 "cosmo_repulsion_energy": 2.13, 
			 "cosmo_total_nonelectrostatic_energy": 12.72, 
			 "SMD_solvation_energy": 6.62 
		},
		"coords": [
			{
				"x": -0.268903083,
				"y": 3.9318420999,
				"z": 3.6903318151,
				"element": "C" 
			},
			{
				"x": -1.3711498972,
				"y": 3.0069035088,
				"z": 3.4661259352,
				"element": "N" 
			},
			{
				"x": -2.5280188583,
				"y": 3.0452632167,
				"z": 4.3485188032,
				"element": "C" 
			},
			{
				"x": -1.3287507062,
				"y": 2.1147489297,
				"z": 2.4234530337,
				"element": "C" 
			},
			{
				"x": -2.3929101296,
				"y": 1.2068117717,
				"z": 2.183941029,
				"element": "C" 
			},
			{
				"x": -2.3320913238,
				"y": 0.3147842904,
				"z": 1.1288233025,
				"element": "C" 
			},
			{
				"x": -1.2217494277,
				"y": 0.2668260179,
				"z": 0.2655568228,
				"element": "C" 
			},
			{
				"x": -0.1628768932,
				"y": 1.1734183287,
				"z": 0.4922133647,
				"element": "C" 
			},
			{
				"x": -0.2137553857,
				"y": 2.0720296533,
				"z": 1.5382069002,
				"element": "C" 
			},
			{
				"x": -1.2904568215,
				"y": -0.6837200217,
				"z": -0.7500562314,
				"element": "N" 
			},
			{
				"x": -0.2715207383,
				"y": -0.8048138174,
				"z": -1.4938473704,
				"element": "N" 
			},
			{
				"x": -0.3685846378,
				"y": -1.7592440126,
				"z": -2.5357533146,
				"element": "C" 
			},
			{
				"x": -1.5408765177,
				"y": -2.4943012836,
				"z": -2.7866084251,
				"element": "C" 
			},
			{
				"x": -1.582393632,
				"y": -3.4125183096,
				"z": -3.8265264907,
				"element": "C" 
			},
			{
				"x": -0.4563748795,
				"y": -3.611130766,
				"z": -4.6353947042,
				"element": "C" 
			},
			{
				"x": 0.7050671867,
				"y": -2.8854530352,
				"z": -4.3934304598,
				"element": "C" 
			},
			{
				"x": 0.7750040261,
				"y": -1.9537358037,
				"z": -3.3499286451,
				"element": "C" 
			},
			{
				"x": 2.1011310123,
				"y": -1.2330574574,
				"z": -3.1932242692,
				"element": "C" 
			},
			{
				"x": 2.2092846439,
				"y": -0.3548329748,
				"z": -2.1894778408,
				"element": "O" 
			},
			{
				"x": 3.0269122176,
				"y": -1.4503145063,
				"z": -3.948943332,
				"element": "O" 
			},
			{
				"x": -0.1218571959,
				"y": 4.6066094034,
				"z": 2.8370654836,
				"element": "H" 
			},
			{
				"x": -0.4866943696,
				"y": 4.5415382928,
				"z": 4.5671760116,
				"element": "H" 
			},
			{
				"x": 0.6743713639,
				"y": 3.4019697485,
				"z": 3.873412374,
				"element": "H" 
			},
			{
				"x": -2.6792322165,
				"y": 2.0864645796,
				"z": 4.8610610133,
				"element": "H" 
			},
			{
				"x": -2.374591574,
				"y": 3.8117782132,
				"z": 5.1080428905,
				"element": "H" 
			},
			{
				"x": -3.4486598378,
				"y": 3.2887464816,
				"z": 3.8022778354,
				"element": "H" 
			},
			{
				"x": -3.2655903185,
				"y": 1.2035243359,
				"z": 2.8242725791,
				"element": "H" 
			},
			{
				"x": -3.1469847598,
				"y": -0.3787308114,
				"z": 0.9464494766,
				"element": "H" 
			},
			{
				"x": 0.6969229332,
				"y": 1.1774421177,
				"z": -0.1679219164,
				"element": "H" 
			},
			{
				"x": 0.6145034256,
				"y": 2.7557404293,
				"z": 1.6751231933,
				"element": "H" 
			},
			{
				"x": -2.4005347019,
				"y": -2.3217619319,
				"z": -2.1502778758,
				"element": "H" 
			},
			{
				"x": -2.4931369429,
				"y": -3.9750927816,
				"z": -4.0119309787,
				"element": "H" 
			},
			{
				"x": -0.4888128658,
				"y": -4.3282289533,
				"z": -5.4502011491,
				"element": "H" 
			},
			{
				"x": 1.5924536065,
				"y": -3.0162361523,
				"z": -5.0026260785,
				"element": "H" 
			},
			{
				"x": 1.3380572984,
				"y": -0.3299688004,
				"z": -1.7072027821,
				"element": "H" 
			}
		],
		 "valence_orbital": [ 
			{
				"type": "occ",
				"energy": -0.25718,
				"method": "rhf"
			},
			{
				"type": "occ",
				"energy": -0.2533,
				"method": "rhf"
			},
			{
				"type": "occ",
				"energy": -0.24792,
				"method": "rhf"
			},
			{
				"type": "occ",
				"energy": -0.23834,
				"method": "rhf"
			},
			{
				"type": "occ",
				"energy": -0.2058,
				"method": "rhf"
			},
			{
				"type": "unocc",
				"energy": -0.0912,
				"method": "rhf"
			},
			{
				"type": "unocc",
				"energy": -0.02851,
				"method": "rhf"
			},
			{
				"type": "unocc",
				"energy": -0.01451,
				"method": "rhf"
			},
			{
				"type": "unocc",
				"energy": 0.00673,
				"method": "rhf"
			},
			{
				"type": "unocc",
				"energy": 0.04225,
				"method": "rhf"
			}
		],
		"cosmo_sigma_profile": { 
			"-0.025": 0.0,
			"-0.024": 0.0,
			"-0.023": 0.0,
			"-0.022": 0.0,
			"-0.021": 0.0,
			"-0.02": 0.0,
			"-0.019": 0.0,
			"-0.018": 0.0,
			"-0.017": 0.0,
			"-0.016": 0.0,
			"-0.015": 0.0,
			"-0.014": 0.0,
			"-0.013": 0.0,
			"-0.012": 0.0,
			"-0.011": 0.0,
			"-0.01": 0.0,
			"-0.009": 0.0,
			"-0.008": 1.09607306175,
			"-0.007": 6.37835585363,
			"-0.006": 19.3563583862,
			"-0.005": 31.50834696,
			"-0.004": 28.3818701352,
			"-0.003": 26.1982628314,
			"-0.002": 26.9385317489,
			"-0.001": 17.5230015055,
			"0.0": 18.8877119866,
			"0.001": 25.8944954656,
			"0.002": 27.6940090162,
			"0.003": 29.5660690221,
			"0.004": 16.0114791736,
			"0.005": 4.59974632502,
			"0.006": 4.15293541773,
			"0.007": 3.48625814266,
			"0.008": 2.38461524239,
			"0.009": 2.89691075101,
			"0.01": 3.13130613691,
			"0.011": 4.15725014663,
			"0.012": 6.88239296903,
			"0.013": 4.05963090396,
			"0.014": 1.609380734,
			"0.015": 0.0348437709432,
			"0.016": 0.0,
			"0.017": 0.0,
			"0.018": 0.0,
			"0.019": 0.0,
			"0.02": 0.0,
			"0.021": 0.0,
			"0.022": 0.0,
			"0.023": 0.0,
			"0.024": 0.0,
			"0.025": 0.0
		}
	}
}
