{
	 "smiles": "OC1=C(Cl)C=C2C(OC(=O)C=C2C2=CC=CC=C2)=C1", 
	 "Tm": 534.15, 
	 "num_atms": 28, 
	 "gaussian": { 
		 "optdone": 1, 
		 "sigma_profile": "yes", 
		 "theory": "DFT", 
		 "functional": "B3LYP", 
		 "basiset": "6-31G**", 
		 "properties": { 
			 "R2extent": 7750.8211, 
			 "electric_dipole_moment_norm": 5.34371279917, 
			 "electric_quadrupole_moment_norm": 22.1741063096, 
			 "total_energy": -1262.89142436, 
			 "HOMO_LUMO_gap": 0.15779, 
			 "cosmo_polarized_energy": -13.48, 
			 "cosmo_cavitation_energy": 34.67, 
			 "cosmo_dispersion_energy": -25.36, 
			 "cosmo_repulsion_energy": 1.94, 
			 "cosmo_total_nonelectrostatic_energy": 11.25, 
			 "SMD_solvation_energy": 6.9 
		},
		"coords": [
			{
				"x": -1.4429034692,
				"y": -4.4631624358,
				"z": -3.9058069272,
				"element": "O" 
			},
			{
				"x": -1.2570662418,
				"y": -3.7066991602,
				"z": -2.8043389201,
				"element": "C" 
			},
			{
				"x": -0.4502150744,
				"y": -2.5482589856,
				"z": -2.7930309544,
				"element": "C" 
			},
			{
				"x": 0.3592097249,
				"y": -2.0817983308,
				"z": -4.2874358929,
				"element": "Cl" 
			},
			{
				"x": -0.2864531498,
				"y": -1.7953949582,
				"z": -1.6449153326,
				"element": "C" 
			},
			{
				"x": -0.9318740136,
				"y": -2.16198771,
				"z": -0.4492509422,
				"element": "C" 
			},
			{
				"x": -1.7152123441,
				"y": -3.33843739,
				"z": -0.4648565003,
				"element": "C" 
			},
			{
				"x": -2.3370016807,
				"y": -3.8020999453,
				"z": 0.6524294277,
				"element": "O" 
			},
			{
				"x": -2.2109684783,
				"y": -3.1719905466,
				"z": 1.8958225024,
				"element": "C" 
			},
			{
				"x": -2.7727951658,
				"y": -3.6768133971,
				"z": 2.8385867005,
				"element": "O" 
			},
			{
				"x": -1.4238649212,
				"y": -1.9502796749,
				"z": 1.9128504988,
				"element": "C" 
			},
			{
				"x": -0.8145853611,
				"y": -1.4373425954,
				"z": 0.8083263452,
				"element": "C" 
			},
			{
				"x": -0.0497115985,
				"y": -0.1654108221,
				"z": 0.9086463036,
				"element": "C" 
			},
			{
				"x": 0.9416259202,
				"y": -0.0192724249,
				"z": 1.8920669895,
				"element": "C" 
			},
			{
				"x": 1.6391355657,
				"y": 1.1810496057,
				"z": 2.0241003689,
				"element": "C" 
			},
			{
				"x": 1.3515529055,
				"y": 2.2561130147,
				"z": 1.1813920469,
				"element": "C" 
			},
			{
				"x": 0.3621713992,
				"y": 2.1246959833,
				"z": 0.2048422301,
				"element": "C" 
			},
			{
				"x": -0.3312132946,
				"y": 0.922865523,
				"z": 0.0652446357,
				"element": "C" 
			},
			{
				"x": -1.884230875,
				"y": -4.0949082395,
				"z": -1.6215405866,
				"element": "C" 
			},
			{
				"x": -0.9414052923,
				"y": -4.0792717249,
				"z": -4.6422223061,
				"element": "H" 
			},
			{
				"x": 0.3519085077,
				"y": -0.9212056311,
				"z": -1.668522653,
				"element": "H" 
			},
			{
				"x": -1.3801169922,
				"y": -1.4433132947,
				"z": 2.8691519285,
				"element": "H" 
			},
			{
				"x": 1.1719562388,
				"y": -0.8577207437,
				"z": 2.5424369804,
				"element": "H" 
			},
			{
				"x": 2.4087535814,
				"y": 1.2747908012,
				"z": 2.7845910157,
				"element": "H" 
			},
			{
				"x": 1.8937896313,
				"y": 3.1912494467,
				"z": 1.2855023981,
				"element": "H" 
			},
			{
				"x": 0.1247750684,
				"y": 2.9605307049,
				"z": -0.4467053572,
				"element": "H" 
			},
			{
				"x": -1.1132053165,
				"y": 0.834741251,
				"z": -0.6828755203,
				"element": "H" 
			},
			{
				"x": -2.4947552742,
				"y": -4.9895683197,
				"z": -1.6020884789,
				"element": "H" 
			}
		],
		 "valence_orbital": [ 
			{
				"type": "occ",
				"energy": -0.27487,
				"method": "rhf"
			},
			{
				"type": "occ",
				"energy": -0.26867,
				"method": "rhf"
			},
			{
				"type": "occ",
				"energy": -0.26262,
				"method": "rhf"
			},
			{
				"type": "occ",
				"energy": -0.25519,
				"method": "rhf"
			},
			{
				"type": "occ",
				"energy": -0.22992,
				"method": "rhf"
			},
			{
				"type": "unocc",
				"energy": -0.07213,
				"method": "rhf"
			},
			{
				"type": "unocc",
				"energy": -0.02932,
				"method": "rhf"
			},
			{
				"type": "unocc",
				"energy": -0.02062,
				"method": "rhf"
			},
			{
				"type": "unocc",
				"energy": -0.01679,
				"method": "rhf"
			},
			{
				"type": "unocc",
				"energy": 0.00753,
				"method": "rhf"
			}
		],
		"cosmo_sigma_profile": { 
			"-0.025": 0.0,
			"-0.024": 0.0,
			"-0.023": 0.0,
			"-0.022": 0.0,
			"-0.021": 0.0,
			"-0.02": 0.0,
			"-0.019": 0.0,
			"-0.018": 0.0,
			"-0.017": 0.000285938260018,
			"-0.016": 0.257350246212,
			"-0.015": 0.695333772987,
			"-0.014": 0.702896324685,
			"-0.013": 1.08585403596,
			"-0.012": 0.289290730647,
			"-0.011": 0.950329436824,
			"-0.01": 1.32714611607,
			"-0.009": 0.859807194866,
			"-0.008": 2.48847808795,
			"-0.007": 4.50920080541,
			"-0.006": 15.9981146329,
			"-0.005": 19.4868969835,
			"-0.004": 20.5116273201,
			"-0.003": 19.5006701007,
			"-0.002": 20.8424327152,
			"-0.001": 23.2679065784,
			"0.0": 29.8759522655,
			"0.001": 28.5232487644,
			"0.002": 17.891689708,
			"0.003": 17.9852756885,
			"0.004": 16.465554449,
			"0.005": 7.15081918212,
			"0.006": 4.00188393782,
			"0.007": 3.36281464719,
			"0.008": 3.53929164057,
			"0.009": 4.28081182143,
			"0.01": 3.10708645872,
			"0.011": 4.08823839345,
			"0.012": 6.27189919127,
			"0.013": 2.52701590469,
			"0.014": 0.064979492631,
			"0.015": 0.0,
			"0.016": 0.0,
			"0.017": 0.0,
			"0.018": 0.0,
			"0.019": 0.0,
			"0.02": 0.0,
			"0.021": 0.0,
			"0.022": 0.0,
			"0.023": 0.0,
			"0.024": 0.0,
			"0.025": 0.0
		}
	}
}
