{
	 "smiles": "CC1=C(N=NN1C1=CC(Cl)=CC=C1)C(O)=O", 
	 "Tm": 453.15, 
	 "num_atms": 24, 
	 "gaussian": { 
		 "optdone": 1, 
		 "sigma_profile": "yes", 
		 "theory": "DFT", 
		 "functional": "B3LYP", 
		 "basiset": "6-31G**", 
		 "properties": { 
			 "R2extent": 6183.9476, 
			 "electric_dipole_moment_norm": 5.50342278678, 
			 "electric_quadrupole_moment_norm": 14.8510352579, 
			 "total_energy": -1160.76284604, 
			 "HOMO_LUMO_gap": 0.20782, 
			 "cosmo_polarized_energy": -15.26, 
			 "cosmo_cavitation_energy": 31.07, 
			 "cosmo_dispersion_energy": -22.78, 
			 "cosmo_repulsion_energy": 1.77, 
			 "cosmo_total_nonelectrostatic_energy": 10.06, 
			 "SMD_solvation_energy": 5.12 
		},
		"coords": [
			{
				"x": -1.5896405016,
				"y": 0.8953730863,
				"z": -1.1930316771,
				"element": "C" 
			},
			{
				"x": -1.0251735111,
				"y": 1.3047422469,
				"z": 0.1256463541,
				"element": "C" 
			},
			{
				"x": -0.8188903079,
				"y": 2.565082396,
				"z": 0.6625647857,
				"element": "C" 
			},
			{
				"x": -0.3238430623,
				"y": 2.438736676,
				"z": 1.9284786572,
				"element": "N" 
			},
			{
				"x": -0.2019362901,
				"y": 1.1866388766,
				"z": 2.2256056927,
				"element": "N" 
			},
			{
				"x": -0.622552971,
				"y": 0.472237834,
				"z": 1.1314603981,
				"element": "N" 
			},
			{
				"x": -0.6287775424,
				"y": -0.9521860669,
				"z": 1.2023624261,
				"element": "C" 
			},
			{
				"x": -1.068538293,
				"y": -1.5516605173,
				"z": 2.3863567181,
				"element": "C" 
			},
			{
				"x": -1.0614254545,
				"y": -2.9413519884,
				"z": 2.469319909,
				"element": "C" 
			},
			{
				"x": -1.6082249929,
				"y": -3.7082539889,
				"z": 3.9473504342,
				"element": "Cl" 
			},
			{
				"x": -0.6394719006,
				"y": -3.7339103496,
				"z": 1.4003741458,
				"element": "C" 
			},
			{
				"x": -0.2028132083,
				"y": -3.1122009305,
				"z": 0.2311816466,
				"element": "C" 
			},
			{
				"x": -0.1847099084,
				"y": -1.7216120754,
				"z": 0.1245010814,
				"element": "C" 
			},
			{
				"x": -1.0822558923,
				"y": 3.8983367097,
				"z": 0.0784878629,
				"element": "C" 
			},
			{
				"x": -0.7688082292,
				"y": 4.9241687943,
				"z": 0.8947113334,
				"element": "O" 
			},
			{
				"x": -1.5415235247,
				"y": 4.072115534,
				"z": -1.0300327923,
				"element": "O" 
			},
			{
				"x": -2.2663206289,
				"y": 0.0420764129,
				"z": -1.0920816378,
				"element": "H" 
			},
			{
				"x": -0.7998698623,
				"y": 0.6182526623,
				"z": -1.9000910281,
				"element": "H" 
			},
			{
				"x": -2.1217136622,
				"y": 1.7482360675,
				"z": -1.6159324952,
				"element": "H" 
			},
			{
				"x": -1.3976540116,
				"y": -0.9401418015,
				"z": 3.2166197023,
				"element": "H" 
			},
			{
				"x": -0.6493977991,
				"y": -4.8142409519,
				"z": 1.4882948628,
				"element": "H" 
			},
			{
				"x": 0.1401756082,
				"y": -3.7180345961,
				"z": -0.6014014535,
				"element": "H" 
			},
			{
				"x": 0.1899835641,
				"y": -1.2445100365,
				"z": -0.7728995666,
				"element": "H" 
			},
			{
				"x": -0.4230176179,
				"y": 4.5576060066,
				"z": 1.7294546401,
				"element": "H" 
			}
		],
		 "valence_orbital": [ 
			{
				"type": "occ",
				"energy": -0.2985,
				"method": "rhf"
			},
			{
				"type": "occ",
				"energy": -0.28392,
				"method": "rhf"
			},
			{
				"type": "occ",
				"energy": -0.27805,
				"method": "rhf"
			},
			{
				"type": "occ",
				"energy": -0.27465,
				"method": "rhf"
			},
			{
				"type": "occ",
				"energy": -0.26829,
				"method": "rhf"
			},
			{
				"type": "unocc",
				"energy": -0.06047,
				"method": "rhf"
			},
			{
				"type": "unocc",
				"energy": -0.04079,
				"method": "rhf"
			},
			{
				"type": "unocc",
				"energy": -0.03262,
				"method": "rhf"
			},
			{
				"type": "unocc",
				"energy": -0.01254,
				"method": "rhf"
			},
			{
				"type": "unocc",
				"energy": 0.01248,
				"method": "rhf"
			}
		],
		"cosmo_sigma_profile": { 
			"-0.025": 0.0,
			"-0.024": 0.0,
			"-0.023": 0.0,
			"-0.022": 0.0,
			"-0.021": 0.0,
			"-0.02": 0.0,
			"-0.019": 0.0,
			"-0.018": 0.0,
			"-0.017": 0.0,
			"-0.016": 0.0,
			"-0.015": 0.134609541838,
			"-0.014": 0.709616073852,
			"-0.013": 0.716977840573,
			"-0.012": 0.564440279404,
			"-0.011": 0.479224833731,
			"-0.01": 1.4523384468,
			"-0.009": 2.67449313,
			"-0.008": 7.05719667869,
			"-0.007": 11.6096657228,
			"-0.006": 13.7161853711,
			"-0.005": 13.7219055023,
			"-0.004": 15.510292886,
			"-0.003": 20.3427579427,
			"-0.002": 21.3879433282,
			"-0.001": 15.2365584985,
			"0.0": 15.9697775262,
			"0.001": 20.8955777471,
			"0.002": 18.842638068,
			"0.003": 12.3041498501,
			"0.004": 13.8114845523,
			"0.005": 5.41338882088,
			"0.006": 4.54617776796,
			"0.007": 5.05350848625,
			"0.008": 6.05931829074,
			"0.009": 7.28865840219,
			"0.01": 7.27113722257,
			"0.011": 4.83367743835,
			"0.012": 3.52676696376,
			"0.013": 1.18300111677,
			"0.014": 0.00176526429222,
			"0.015": 0.0,
			"0.016": 0.0,
			"0.017": 0.0,
			"0.018": 0.0,
			"0.019": 0.0,
			"0.02": 0.0,
			"0.021": 0.0,
			"0.022": 0.0,
			"0.023": 0.0,
			"0.024": 0.0,
			"0.025": 0.0
		}
	}
}
