{
	 "smiles": "CC1=CC=CC(=N1)C(=O)C(=O)C1=CC=CC=C1", 
	 "Tm": 350.0, 
	 "num_atms": 28, 
	 "gaussian": { 
		 "optdone": 1, 
		 "sigma_profile": "yes", 
		 "theory": "DFT", 
		 "functional": "B3LYP", 
		 "basiset": "6-31G**", 
		 "properties": { 
			 "R2extent": 5425.3308, 
			 "electric_dipole_moment_norm": 3.83195179119, 
			 "electric_quadrupole_moment_norm": 27.0085129054, 
			 "total_energy": -745.309867713, 
			 "HOMO_LUMO_gap": 0.15436, 
			 "cosmo_polarized_energy": -13.13, 
			 "cosmo_cavitation_energy": 33.76, 
			 "cosmo_dispersion_energy": -23.56, 
			 "cosmo_repulsion_energy": 1.85, 
			 "cosmo_total_nonelectrostatic_energy": 12.05, 
			 "SMD_solvation_energy": 5.83 
		},
		"coords": [
			{
				"x": 1.433805192,
				"y": 1.7139502064,
				"z": -2.5052788633,
				"element": "C" 
			},
			{
				"x": 0.3866558816,
				"y": 0.6312415171,
				"z": -2.5722562627,
				"element": "C" 
			},
			{
				"x": 0.3481486528,
				"y": -0.3001457525,
				"z": -3.6224659298,
				"element": "C" 
			},
			{
				"x": -0.6342033328,
				"y": -1.2897493922,
				"z": -3.6303260017,
				"element": "C" 
			},
			{
				"x": -1.5586355624,
				"y": -1.32603614,
				"z": -2.5909541828,
				"element": "C" 
			},
			{
				"x": -1.4541936669,
				"y": -0.3491981015,
				"z": -1.5959633629,
				"element": "C" 
			},
			{
				"x": -0.5101253917,
				"y": 0.6020143931,
				"z": -1.5764209574,
				"element": "N" 
			},
			{
				"x": -2.4072789904,
				"y": -0.3586600298,
				"z": -0.4428246303,
				"element": "C" 
			},
			{
				"x": -3.1640533389,
				"y": -1.290056939,
				"z": -0.2206242636,
				"element": "O" 
			},
			{
				"x": -2.4927574431,
				"y": 0.9124772024,
				"z": 0.4218981507,
				"element": "C" 
			},
			{
				"x": -2.9707905145,
				"y": 1.9013206772,
				"z": -0.1111599831,
				"element": "O" 
			},
			{
				"x": -2.1007987137,
				"y": 0.8603076581,
				"z": 1.8533493468,
				"element": "C" 
			},
			{
				"x": -2.1938733228,
				"y": 2.0404408917,
				"z": 2.6088598847,
				"element": "C" 
			},
			{
				"x": -1.8175657893,
				"y": 2.0449593089,
				"z": 3.9475228074,
				"element": "C" 
			},
			{
				"x": -1.3466527093,
				"y": 0.8701435924,
				"z": 4.5442334354,
				"element": "C" 
			},
			{
				"x": -1.2539958339,
				"y": -0.3074860109,
				"z": 3.7995037737,
				"element": "C" 
			},
			{
				"x": -1.6286416656,
				"y": -0.3152773303,
				"z": 2.4564577682,
				"element": "C" 
			},
			{
				"x": 0.9572139426,
				"y": 2.697701672,
				"z": -2.4534544187,
				"element": "H" 
			},
			{
				"x": 2.0380920051,
				"y": 1.6029996919,
				"z": -1.5988900423,
				"element": "H" 
			},
			{
				"x": 2.0987663958,
				"y": 1.6898875172,
				"z": -3.3721888604,
				"element": "H" 
			},
			{
				"x": 1.0829506793,
				"y": -0.2447754636,
				"z": -4.4198431079,
				"element": "H" 
			},
			{
				"x": -0.6746237359,
				"y": -2.0183849553,
				"z": -4.4348415364,
				"element": "H" 
			},
			{
				"x": -2.3433000403,
				"y": -2.0714036071,
				"z": -2.527645699,
				"element": "H" 
			},
			{
				"x": -2.5618445577,
				"y": 2.9367107268,
				"z": 2.1202381511,
				"element": "H" 
			},
			{
				"x": -1.8888000071,
				"y": 2.9593250901,
				"z": 4.5292940729,
				"element": "H" 
			},
			{
				"x": -1.0530473872,
				"y": 0.873772597,
				"z": 5.5902168577,
				"element": "H" 
			},
			{
				"x": -0.8932877286,
				"y": -1.2195135489,
				"z": 4.265647014,
				"element": "H" 
			},
			{
				"x": -1.570463017,
				"y": -1.2350654712,
				"z": 1.8843168396,
				"element": "H" 
			}
		],
		 "valence_orbital": [ 
			{
				"type": "occ",
				"energy": -0.27187,
				"method": "rhf"
			},
			{
				"type": "occ",
				"energy": -0.26567,
				"method": "rhf"
			},
			{
				"type": "occ",
				"energy": -0.26062,
				"method": "rhf"
			},
			{
				"type": "occ",
				"energy": -0.25816,
				"method": "rhf"
			},
			{
				"type": "occ",
				"energy": -0.23028,
				"method": "rhf"
			},
			{
				"type": "unocc",
				"energy": -0.07592,
				"method": "rhf"
			},
			{
				"type": "unocc",
				"energy": -0.0571,
				"method": "rhf"
			},
			{
				"type": "unocc",
				"energy": -0.03029,
				"method": "rhf"
			},
			{
				"type": "unocc",
				"energy": -0.00861,
				"method": "rhf"
			},
			{
				"type": "unocc",
				"energy": 0.02288,
				"method": "rhf"
			}
		],
		"cosmo_sigma_profile": { 
			"-0.025": 0.0,
			"-0.024": 0.0,
			"-0.023": 0.0,
			"-0.022": 0.0,
			"-0.021": 0.0,
			"-0.02": 0.0,
			"-0.019": 0.0,
			"-0.018": 0.0,
			"-0.017": 0.0,
			"-0.016": 0.0,
			"-0.015": 0.0,
			"-0.014": 0.0,
			"-0.013": 0.0,
			"-0.012": 0.0,
			"-0.011": 0.0,
			"-0.01": 0.0,
			"-0.009": 0.0,
			"-0.008": 1.45450288483,
			"-0.007": 11.3607430333,
			"-0.006": 18.9265237984,
			"-0.005": 21.0633469484,
			"-0.004": 19.4464009453,
			"-0.003": 16.5081840292,
			"-0.002": 18.7615566727,
			"-0.001": 23.7727482535,
			"0.0": 26.0382296465,
			"0.001": 25.7388285827,
			"0.002": 19.6869552324,
			"0.003": 19.4869444386,
			"0.004": 8.92469179542,
			"0.005": 4.64339311885,
			"0.006": 4.70907029388,
			"0.007": 3.74221527466,
			"0.008": 4.43565346026,
			"0.009": 6.01436715995,
			"0.01": 8.931956242,
			"0.011": 7.01692885479,
			"0.012": 0.599345430507,
			"0.013": 0.0,
			"0.014": 0.0,
			"0.015": 0.0,
			"0.016": 0.0,
			"0.017": 0.0,
			"0.018": 0.0,
			"0.019": 0.0,
			"0.02": 0.0,
			"0.021": 0.0,
			"0.022": 0.0,
			"0.023": 0.0,
			"0.024": 0.0,
			"0.025": 0.0
		}
	}
}
