{
	 "smiles": "C1=CC=C(C=C1)C#CC1=CC=CC=C1", 
	 "Tm": 334.65, 
	 "num_atms": 24, 
	 "gaussian": { 
		 "optdone": 1, 
		 "sigma_profile": "yes", 
		 "theory": "DFT", 
		 "functional": "B3LYP", 
		 "basiset": "6-31G**", 
		 "properties": { 
			 "R2extent": 4695.2477, 
			 "electric_dipole_moment_norm": 0.000781024967591, 
			 "electric_quadrupole_moment_norm": 12.6729974895, 
			 "total_energy": -539.466130801, 
			 "HOMO_LUMO_gap": 0.16276, 
			 "cosmo_polarized_energy": -6.16, 
			 "cosmo_cavitation_energy": 29.77, 
			 "cosmo_dispersion_energy": -21.5, 
			 "cosmo_repulsion_energy": 1.7, 
			 "cosmo_total_nonelectrostatic_energy": 9.97, 
			 "SMD_solvation_energy": 5.12 
		},
		"coords": [
			{
				"x": -3.7780805709,
				"y": 3.0302699775,
				"z": 1.6744214868,
				"element": "C" 
			},
			{
				"x": -4.1271366048,
				"y": 1.9965895899,
				"z": 0.8014068173,
				"element": "C" 
			},
			{
				"x": -3.1392339011,
				"y": 1.2500543955,
				"z": 0.165157333,
				"element": "C" 
			},
			{
				"x": -1.7762472696,
				"y": 1.5284877311,
				"z": 0.3944822322,
				"element": "C" 
			},
			{
				"x": -1.4352582852,
				"y": 2.5736501639,
				"z": 1.2772028426,
				"element": "C" 
			},
			{
				"x": -2.4302588267,
				"y": 3.3146834276,
				"z": 1.9088247369,
				"element": "C" 
			},
			{
				"x": -0.7615429812,
				"y": 0.7671771686,
				"z": -0.2545284929,
				"element": "C" 
			},
			{
				"x": 0.105176524,
				"y": 0.1176351715,
				"z": -0.8084989949,
				"element": "C" 
			},
			{
				"x": 1.1205632963,
				"y": -0.6430914838,
				"z": -1.4571444909,
				"element": "C" 
			},
			{
				"x": 2.4833475756,
				"y": -0.3641485131,
				"z": -1.2271114629,
				"element": "C" 
			},
			{
				"x": 3.4718442571,
				"y": -1.1101642899,
				"z": -1.863007319,
				"element": "C" 
			},
			{
				"x": 3.1235947976,
				"y": -2.1438171988,
				"z": -2.7364050576,
				"element": "C" 
			},
			{
				"x": 1.7760130663,
				"y": -2.4287026239,
				"z": -2.9715078726,
				"element": "C" 
			},
			{
				"x": 0.7803938052,
				"y": -1.6881707405,
				"z": -2.3402274648,
				"element": "C" 
			},
			{
				"x": -4.5515668359,
				"y": 3.6105221198,
				"z": 2.1689495958,
				"element": "H" 
			},
			{
				"x": -5.1734512712,
				"y": 1.771487456,
				"z": 0.6157424915,
				"element": "H" 
			},
			{
				"x": -3.406878735,
				"y": 0.4465938237,
				"z": -0.5135078086,
				"element": "H" 
			},
			{
				"x": -0.3875052026,
				"y": 2.7919280797,
				"z": 1.4570416873,
				"element": "H" 
			},
			{
				"x": -2.1535833327,
				"y": 4.1171754888,
				"z": 2.5865962134,
				"element": "H" 
			},
			{
				"x": 2.7502976573,
				"y": 0.4393146668,
				"z": -0.5481747401,
				"element": "H" 
			},
			{
				"x": 4.5179859724,
				"y": -0.884678483,
				"z": -1.6768381756,
				"element": "H" 
			},
			{
				"x": 3.8975294968,
				"y": -2.7236969869,
				"z": -3.2306686682,
				"element": "H" 
			},
			{
				"x": 1.4999745697,
				"y": -3.2312192928,
				"z": -3.6495101995,
				"element": "H" 
			},
			{
				"x": -0.2671772014,
				"y": -1.9068796477,
				"z": -2.5205946893,
				"element": "H" 
			}
		],
		 "valence_orbital": [ 
			{
				"type": "occ",
				"energy": -0.26826,
				"method": "rhf"
			},
			{
				"type": "occ",
				"energy": -0.26405,
				"method": "rhf"
			},
			{
				"type": "occ",
				"energy": -0.25452,
				"method": "rhf"
			},
			{
				"type": "occ",
				"energy": -0.25445,
				"method": "rhf"
			},
			{
				"type": "occ",
				"energy": -0.20929,
				"method": "rhf"
			},
			{
				"type": "unocc",
				"energy": -0.04653,
				"method": "rhf"
			},
			{
				"type": "unocc",
				"energy": -0.0032,
				"method": "rhf"
			},
			{
				"type": "unocc",
				"energy": -0.00307,
				"method": "rhf"
			},
			{
				"type": "unocc",
				"energy": 0.00988,
				"method": "rhf"
			},
			{
				"type": "unocc",
				"energy": 0.05551,
				"method": "rhf"
			}
		],
		"cosmo_sigma_profile": { 
			"-0.025": 0.0,
			"-0.024": 0.0,
			"-0.023": 0.0,
			"-0.022": 0.0,
			"-0.021": 0.0,
			"-0.02": 0.0,
			"-0.019": 0.0,
			"-0.018": 0.0,
			"-0.017": 0.0,
			"-0.016": 0.0,
			"-0.015": 0.0,
			"-0.014": 0.0,
			"-0.013": 0.0,
			"-0.012": 0.0,
			"-0.011": 0.0,
			"-0.01": 0.0,
			"-0.009": 0.0,
			"-0.008": 0.0,
			"-0.007": 1.08197734324,
			"-0.006": 17.5356953265,
			"-0.005": 20.376768556,
			"-0.004": 23.5298536819,
			"-0.003": 16.037501271,
			"-0.002": 15.7194769556,
			"-0.001": 11.6591548132,
			"0.0": 14.6722369008,
			"0.001": 15.4437225848,
			"0.002": 18.4551596517,
			"0.003": 28.0262624751,
			"0.004": 30.7918161919,
			"0.005": 22.9899139025,
			"0.006": 4.23405280155,
			"0.007": 0.0292899500739,
			"0.008": 0.0,
			"0.009": 0.0,
			"0.01": 0.0,
			"0.011": 0.0,
			"0.012": 0.0,
			"0.013": 0.0,
			"0.014": 0.0,
			"0.015": 0.0,
			"0.016": 0.0,
			"0.017": 0.0,
			"0.018": 0.0,
			"0.019": 0.0,
			"0.02": 0.0,
			"0.021": 0.0,
			"0.022": 0.0,
			"0.023": 0.0,
			"0.024": 0.0,
			"0.025": 0.0
		}
	}
}
