{
	 "smiles": "OC(=O)C1(CCOCC1)C1=CC=C(F)C=C1", 
	 "Tm": 430.15, 
	 "num_atms": 29, 
	 "gaussian": { 
		 "optdone": 1, 
		 "sigma_profile": "yes", 
		 "theory": "DFT", 
		 "functional": "B3LYP", 
		 "basiset": "6-31G**", 
		 "properties": { 
			 "R2extent": 3770.8606, 
			 "electric_dipole_moment_norm": 1.4355810113, 
			 "electric_quadrupole_moment_norm": 8.95181468698, 
			 "total_energy": -790.620485846, 
			 "HOMO_LUMO_gap": 0.21989, 
			 "cosmo_polarized_energy": -12.13, 
			 "cosmo_cavitation_energy": 31.16, 
			 "cosmo_dispersion_energy": -22.28, 
			 "cosmo_repulsion_energy": 1.71, 
			 "cosmo_total_nonelectrostatic_energy": 10.59, 
			 "SMD_solvation_energy": 6.6 
		},
		"coords": [
			{
				"x": 1.8723458418,
				"y": -1.4458516318,
				"z": -0.2511507303,
				"element": "O" 
			},
			{
				"x": 1.9360821407,
				"y": -0.1071011077,
				"z": -0.4424055921,
				"element": "C" 
			},
			{
				"x": 2.6692396515,
				"y": 0.3938521673,
				"z": -1.2678380746,
				"element": "O" 
			},
			{
				"x": 0.9628165029,
				"y": 0.6605142688,
				"z": 0.4621694003,
				"element": "C" 
			},
			{
				"x": 1.013268329,
				"y": 0.085801254,
				"z": 1.903292117,
				"element": "C" 
			},
			{
				"x": 0.3060705276,
				"y": 0.9920871222,
				"z": 2.9200071091,
				"element": "C" 
			},
			{
				"x": 0.8216746528,
				"y": 2.3139002173,
				"z": 2.9006012681,
				"element": "O" 
			},
			{
				"x": 0.6663201694,
				"y": 2.9104803082,
				"z": 1.6188304562,
				"element": "C" 
			},
			{
				"x": 1.431907254,
				"y": 2.1387080812,
				"z": 0.5443474361,
				"element": "C" 
			},
			{
				"x": -0.4156393021,
				"y": 0.5328689168,
				"z": -0.2284988928,
				"element": "C" 
			},
			{
				"x": -1.4870478769,
				"y": -0.1859210309,
				"z": 0.3194210313,
				"element": "C" 
			},
			{
				"x": -2.7070961632,
				"y": -0.2997656143,
				"z": -0.3496473728,
				"element": "C" 
			},
			{
				"x": -2.8503749688,
				"y": 0.3035728513,
				"z": -1.5913218772,
				"element": "C" 
			},
			{
				"x": -4.026295827,
				"y": 0.1991302736,
				"z": -2.2435998503,
				"element": "F" 
			},
			{
				"x": -1.8068468888,
				"y": 1.0067148043,
				"z": -2.1816356903,
				"element": "C" 
			},
			{
				"x": -0.59870995,
				"y": 1.1127033999,
				"z": -1.4961802549,
				"element": "C" 
			},
			{
				"x": 2.4896595808,
				"y": -1.8384646393,
				"z": -0.8912889362,
				"element": "H" 
			},
			{
				"x": 0.61026895,
				"y": -0.9297084433,
				"z": 1.9422785567,
				"element": "H" 
			},
			{
				"x": 2.0662312583,
				"y": 0.0115965529,
				"z": 2.1977956109,
				"element": "H" 
			},
			{
				"x": -0.7801837548,
				"y": 1.0123624553,
				"z": 2.739138392,
				"element": "H" 
			},
			{
				"x": 0.4685900188,
				"y": 0.6133274145,
				"z": 3.9337697104,
				"element": "H" 
			},
			{
				"x": -0.4029949809,
				"y": 2.9776682638,
				"z": 1.3578043123,
				"element": "H" 
			},
			{
				"x": 1.0556304895,
				"y": 3.9288940704,
				"z": 1.7064997545,
				"element": "H" 
			},
			{
				"x": 1.3338571103,
				"y": 2.6376102339,
				"z": -0.4224404261,
				"element": "H" 
			},
			{
				"x": 2.4974895035,
				"y": 2.1501271109,
				"z": 0.7958628113,
				"element": "H" 
			},
			{
				"x": -1.3881749919,
				"y": -0.673348406,
				"z": 1.2816714327,
				"element": "H" 
			},
			{
				"x": -3.5374494763,
				"y": -0.8500157796,
				"z": 0.0795082746,
				"element": "H" 
			},
			{
				"x": -1.9446272875,
				"y": 1.453577777,
				"z": -3.1603090187,
				"element": "H" 
			},
			{
				"x": 0.2237894873,
				"y": 1.6375791092,
				"z": -1.9712809574,
				"element": "H" 
			}
		],
		 "valence_orbital": [ 
			{
				"type": "occ",
				"energy": -0.30649,
				"method": "rhf"
			},
			{
				"type": "occ",
				"energy": -0.28084,
				"method": "rhf"
			},
			{
				"type": "occ",
				"energy": -0.26541,
				"method": "rhf"
			},
			{
				"type": "occ",
				"energy": -0.25638,
				"method": "rhf"
			},
			{
				"type": "occ",
				"energy": -0.24041,
				"method": "rhf"
			},
			{
				"type": "unocc",
				"energy": -0.02052,
				"method": "rhf"
			},
			{
				"type": "unocc",
				"energy": -0.01589,
				"method": "rhf"
			},
			{
				"type": "unocc",
				"energy": 0.01911,
				"method": "rhf"
			},
			{
				"type": "unocc",
				"energy": 0.06912,
				"method": "rhf"
			},
			{
				"type": "unocc",
				"energy": 0.08035,
				"method": "rhf"
			}
		],
		"cosmo_sigma_profile": { 
			"-0.025": 0.0,
			"-0.024": 0.0,
			"-0.023": 0.0,
			"-0.022": 0.0,
			"-0.021": 0.0,
			"-0.02": 0.0,
			"-0.019": 0.0952185164299,
			"-0.018": 0.693379141132,
			"-0.017": 1.12217599041,
			"-0.016": 0.673008708149,
			"-0.015": 1.404407134,
			"-0.014": 0.429708607879,
			"-0.013": 0.0374342327813,
			"-0.012": 0.658980032169,
			"-0.011": 0.857906765718,
			"-0.01": 1.0685902024,
			"-0.009": 0.449343042147,
			"-0.008": 1.32848398203,
			"-0.007": 6.22476210788,
			"-0.006": 10.6316545416,
			"-0.005": 15.6225125038,
			"-0.004": 20.5325428919,
			"-0.003": 22.8848564294,
			"-0.002": 21.3468862019,
			"-0.001": 16.3910222374,
			"0.0": 14.8528006069,
			"0.001": 17.6643963694,
			"0.002": 14.6968416631,
			"0.003": 16.8783432546,
			"0.004": 20.3537250959,
			"0.005": 8.30562156604,
			"0.006": 3.33465182178,
			"0.007": 5.55266061887,
			"0.008": 3.38346601743,
			"0.009": 2.58699477604,
			"0.01": 3.01100783492,
			"0.011": 4.7009689279,
			"0.012": 5.0350930118,
			"0.013": 1.93737649308,
			"0.014": 0.822922928084,
			"0.015": 0.0,
			"0.016": 0.0,
			"0.017": 0.0,
			"0.018": 0.0,
			"0.019": 0.0,
			"0.02": 0.0,
			"0.021": 0.0,
			"0.022": 0.0,
			"0.023": 0.0,
			"0.024": 0.0,
			"0.025": 0.0
		}
	}
}
