{
	 "smiles": "COC1=C(CC(O)=O)C=C(C=C1)C(C)=O", 
	 "Tm": 396.15, 
	 "num_atms": 27, 
	 "gaussian": { 
		 "optdone": 1, 
		 "sigma_profile": "yes", 
		 "theory": "DFT", 
		 "functional": "B3LYP", 
		 "basiset": "6-31G**", 
		 "properties": { 
			 "R2extent": 3947.5505, 
			 "electric_dipole_moment_norm": 5.07629790792, 
			 "electric_quadrupole_moment_norm": 27.27781834, 
			 "total_energy": -727.30784048, 
			 "HOMO_LUMO_gap": 0.18547, 
			 "cosmo_polarized_energy": -18.91, 
			 "cosmo_cavitation_energy": 31.15, 
			 "cosmo_dispersion_energy": -22.05, 
			 "cosmo_repulsion_energy": 1.72, 
			 "cosmo_total_nonelectrostatic_energy": 10.83, 
			 "SMD_solvation_energy": 7.82 
		},
		"coords": [
			{
				"x": -1.3948084675,
				"y": 1.9735258023,
				"z": 2.2361911772,
				"element": "C" 
			},
			{
				"x": -0.2180116951,
				"y": 1.6716954957,
				"z": 1.4843530206,
				"element": "O" 
			},
			{
				"x": -0.2566424656,
				"y": 0.6461797137,
				"z": 0.5669363306,
				"element": "C" 
			},
			{
				"x": 0.9679573241,
				"y": 0.3591460717,
				"z": -0.0700248023,
				"element": "C" 
			},
			{
				"x": 2.2345584016,
				"y": 1.1158680761,
				"z": 0.2803023435,
				"element": "C" 
			},
			{
				"x": 2.3474262856,
				"y": 2.4986099966,
				"z": -0.3829481908,
				"element": "C" 
			},
			{
				"x": 1.4079570246,
				"y": 3.3972645688,
				"z": -0.0180841707,
				"element": "O" 
			},
			{
				"x": 3.2157226725,
				"y": 2.7837309275,
				"z": -1.1699898107,
				"element": "O" 
			},
			{
				"x": 0.9826974457,
				"y": -0.6529670039,
				"z": -1.0287814659,
				"element": "C" 
			},
			{
				"x": -0.1699989156,
				"y": -1.3831663895,
				"z": -1.3572408759,
				"element": "C" 
			},
			{
				"x": -1.3656726277,
				"y": -1.0814805847,
				"z": -0.6946524334,
				"element": "C" 
			},
			{
				"x": -1.4163732448,
				"y": -0.073914003,
				"z": 0.2628747877,
				"element": "C" 
			},
			{
				"x": -0.182411734,
				"y": -2.4759962442,
				"z": -2.3814598271,
				"element": "C" 
			},
			{
				"x": 1.1029175627,
				"y": -2.8027243286,
				"z": -3.1221307461,
				"element": "C" 
			},
			{
				"x": -1.2114367986,
				"y": -3.0922768776,
				"z": -2.6168740559,
				"element": "O" 
			},
			{
				"x": -1.7204572268,
				"y": 1.1030637859,
				"z": 2.8151874515,
				"element": "H" 
			},
			{
				"x": -2.2087237443,
				"y": 2.3089681741,
				"z": 1.5841491615,
				"element": "H" 
			},
			{
				"x": -1.1156326114,
				"y": 2.7796413494,
				"z": 2.9151420397,
				"element": "H" 
			},
			{
				"x": 3.10814152,
				"y": 0.5481471158,
				"z": -0.0414318585,
				"element": "H" 
			},
			{
				"x": 2.2964257748,
				"y": 1.251750488,
				"z": 1.366961202,
				"element": "H" 
			},
			{
				"x": 0.7907744891,
				"y": 2.9890190327,
				"z": 0.6176559576,
				"element": "H" 
			},
			{
				"x": 1.9248563806,
				"y": -0.8721394764,
				"z": -1.5214287671,
				"element": "H" 
			},
			{
				"x": -2.2526301355,
				"y": -1.6514758604,
				"z": -0.9494706393,
				"element": "H" 
			},
			{
				"x": -2.3536970286,
				"y": 0.1475467362,
				"z": 0.7587515165,
				"element": "H" 
			},
			{
				"x": 1.4773994943,
				"y": -1.9288237144,
				"z": -3.6665447433,
				"element": "H" 
			},
			{
				"x": 0.9031062586,
				"y": -3.610148289,
				"z": -3.8268927262,
				"element": "H" 
			},
			{
				"x": 1.8896560614,
				"y": -3.1156445628,
				"z": -2.4265498753,
				"element": "H" 
			}
		],
		 "valence_orbital": [ 
			{
				"type": "occ",
				"energy": -0.30468,
				"method": "rhf"
			},
			{
				"type": "occ",
				"energy": -0.2814,
				"method": "rhf"
			},
			{
				"type": "occ",
				"energy": -0.26057,
				"method": "rhf"
			},
			{
				"type": "occ",
				"energy": -0.25165,
				"method": "rhf"
			},
			{
				"type": "occ",
				"energy": -0.24378,
				"method": "rhf"
			},
			{
				"type": "unocc",
				"energy": -0.05831,
				"method": "rhf"
			},
			{
				"type": "unocc",
				"energy": -0.02642,
				"method": "rhf"
			},
			{
				"type": "unocc",
				"energy": 0.01737,
				"method": "rhf"
			},
			{
				"type": "unocc",
				"energy": 0.03697,
				"method": "rhf"
			},
			{
				"type": "unocc",
				"energy": 0.06671,
				"method": "rhf"
			}
		],
		"cosmo_sigma_profile": { 
			"-0.025": 0.0,
			"-0.024": 0.0,
			"-0.023": 0.0,
			"-0.022": 0.0,
			"-0.021": 0.0,
			"-0.02": 0.0,
			"-0.019": 0.0,
			"-0.018": 0.0,
			"-0.017": 0.0,
			"-0.016": 0.0,
			"-0.015": 0.0,
			"-0.014": 0.0,
			"-0.013": 0.0,
			"-0.012": 0.0,
			"-0.011": 0.0,
			"-0.01": 0.0,
			"-0.009": 0.724452239098,
			"-0.008": 3.61358456699,
			"-0.007": 14.9357565672,
			"-0.006": 24.3398467512,
			"-0.005": 25.0447395207,
			"-0.004": 21.5295578832,
			"-0.003": 17.6136071165,
			"-0.002": 15.5564583237,
			"-0.001": 16.300309563,
			"0.0": 13.6555968661,
			"0.001": 10.6653755614,
			"0.002": 14.3481608864,
			"0.003": 13.0647742043,
			"0.004": 5.19070003446,
			"0.005": 3.21023445324,
			"0.006": 5.28183737355,
			"0.007": 3.49430598914,
			"0.008": 3.36824871851,
			"0.009": 4.80355642918,
			"0.01": 6.44587597292,
			"0.011": 8.34973233052,
			"0.012": 10.6426718061,
			"0.013": 4.78165446666,
			"0.014": 0.485755022872,
			"0.015": 0.0,
			"0.016": 0.0,
			"0.017": 0.0,
			"0.018": 0.0,
			"0.019": 0.0,
			"0.02": 0.0,
			"0.021": 0.0,
			"0.022": 0.0,
			"0.023": 0.0,
			"0.024": 0.0,
			"0.025": 0.0
		}
	}
}
