{
	 "smiles": "CC(C)(C)OC(=O)NNC(=O)C(F)(F)F", 
	 "Tm": 393.15, 
	 "num_atms": 26, 
	 "gaussian": { 
		 "optdone": 1, 
		 "sigma_profile": "yes", 
		 "theory": "DFT", 
		 "functional": "B3LYP", 
		 "basiset": "6-31G**", 
		 "properties": { 
			 "R2extent": 6090.9416, 
			 "electric_dipole_moment_norm": 2.29198592055, 
			 "electric_quadrupole_moment_norm": 17.5771417537, 
			 "total_energy": -908.074766903, 
			 "HOMO_LUMO_gap": 0.24632, 
			 "cosmo_polarized_energy": -12.88, 
			 "cosmo_cavitation_energy": 30.86, 
			 "cosmo_dispersion_energy": -20.63, 
			 "cosmo_repulsion_energy": 1.58, 
			 "cosmo_total_nonelectrostatic_energy": 11.82, 
			 "SMD_solvation_energy": 8.65 
		},
		"coords": [
			{
				"x": 1.5473142412,
				"y": 2.5543141062,
				"z": 0.9601254158,
				"element": "C" 
			},
			{
				"x": 1.3404691744,
				"y": 1.4408811445,
				"z": -0.0681274589,
				"element": "C" 
			},
			{
				"x": 0.5604501623,
				"y": 0.2707596839,
				"z": 0.537467826,
				"element": "C" 
			},
			{
				"x": 2.6721206692,
				"y": 1.0041252134,
				"z": -0.6843122527,
				"element": "C" 
			},
			{
				"x": 0.5109142201,
				"y": 2.1102292325,
				"z": -1.0967525536,
				"element": "O" 
			},
			{
				"x": 0.0787349606,
				"y": 1.4396994944,
				"z": -2.1709223167,
				"element": "C" 
			},
			{
				"x": 0.3327811321,
				"y": 0.3001638415,
				"z": -2.5059278531,
				"element": "O" 
			},
			{
				"x": -0.7326523706,
				"y": 2.2519323109,
				"z": -2.9578975921,
				"element": "N" 
			},
			{
				"x": -1.1819993629,
				"y": 3.4978767325,
				"z": -2.5803923949,
				"element": "N" 
			},
			{
				"x": -2.2107582405,
				"y": 3.7257831786,
				"z": -1.7009805206,
				"element": "C" 
			},
			{
				"x": -2.4477867893,
				"y": 4.814994703,
				"z": -1.2254722382,
				"element": "O" 
			},
			{
				"x": -3.1229184848,
				"y": 2.5067918743,
				"z": -1.3964348752,
				"element": "C" 
			},
			{
				"x": -2.4692982303,
				"y": 1.5714347696,
				"z": -0.6743245342,
				"element": "F" 
			},
			{
				"x": -4.186401829,
				"y": 2.902174905,
				"z": -0.7004586965,
				"element": "F" 
			},
			{
				"x": -3.5516814507,
				"y": 1.9264715475,
				"z": -2.5382567936,
				"element": "F" 
			},
			{
				"x": 0.5884842087,
				"y": 2.8948928751,
				"z": 1.3609271117,
				"element": "H" 
			},
			{
				"x": 2.1589492056,
				"y": 2.1866757794,
				"z": 1.7891049924,
				"element": "H" 
			},
			{
				"x": 2.0565461345,
				"y": 3.410177435,
				"z": 0.5077796298,
				"element": "H" 
			},
			{
				"x": -0.4151079523,
				"y": 0.61127867,
				"z": 0.8961370429,
				"element": "H" 
			},
			{
				"x": 0.4100653606,
				"y": -0.5234566028,
				"z": -0.1945521674,
				"element": "H" 
			},
			{
				"x": 1.1164884983,
				"y": -0.1356695199,
				"z": 1.3881226981,
				"element": "H" 
			},
			{
				"x": 3.3232628604,
				"y": 0.6068137791,
				"z": 0.1008299874,
				"element": "H" 
			},
			{
				"x": 2.5208675102,
				"y": 0.2322774768,
				"z": -1.4394082506,
				"element": "H" 
			},
			{
				"x": 3.1787966409,
				"y": 1.858466798,
				"z": -1.1441628574,
				"element": "H" 
			},
			{
				"x": -1.1770509985,
				"y": 1.8075109184,
				"z": -3.7485356149,
				"element": "H" 
			},
			{
				"x": -0.5485892702,
				"y": 4.2795996532,
				"z": -2.7078757336,
				"element": "H" 
			}
		],
		 "valence_orbital": [ 
			{
				"type": "occ",
				"energy": -0.31266,
				"method": "rhf"
			},
			{
				"type": "occ",
				"energy": -0.30853,
				"method": "rhf"
			},
			{
				"type": "occ",
				"energy": -0.30265,
				"method": "rhf"
			},
			{
				"type": "occ",
				"energy": -0.27995,
				"method": "rhf"
			},
			{
				"type": "occ",
				"energy": -0.27403,
				"method": "rhf"
			},
			{
				"type": "unocc",
				"energy": -0.02771,
				"method": "rhf"
			},
			{
				"type": "unocc",
				"energy": 0.03443,
				"method": "rhf"
			},
			{
				"type": "unocc",
				"energy": 0.07276,
				"method": "rhf"
			},
			{
				"type": "unocc",
				"energy": 0.07668,
				"method": "rhf"
			},
			{
				"type": "unocc",
				"energy": 0.0869,
				"method": "rhf"
			}
		],
		"cosmo_sigma_profile": { 
			"-0.025": 0.0,
			"-0.024": 0.0,
			"-0.023": 0.0,
			"-0.022": 0.0,
			"-0.021": 0.0,
			"-0.02": 0.0,
			"-0.019": 0.0,
			"-0.018": 0.0,
			"-0.017": 0.0,
			"-0.016": 0.886266244299,
			"-0.015": 2.32584678534,
			"-0.014": 1.45251974256,
			"-0.013": 1.68847697309,
			"-0.012": 0.990659811446,
			"-0.011": 2.07574169732,
			"-0.01": 2.1307712961,
			"-0.009": 1.5056616964,
			"-0.008": 1.70985368308,
			"-0.007": 2.4780435076,
			"-0.006": 2.51272597969,
			"-0.005": 6.07427842852,
			"-0.004": 16.5863729042,
			"-0.003": 19.7615467612,
			"-0.002": 21.5257606523,
			"-0.001": 25.2989215274,
			"0.0": 33.7727395301,
			"0.001": 30.5537325315,
			"0.002": 23.8817100607,
			"0.003": 6.03128506479,
			"0.004": 3.89288065251,
			"0.005": 4.9437443288,
			"0.006": 3.70446656112,
			"0.007": 2.34006519754,
			"0.008": 2.45407219628,
			"0.009": 4.27760355866,
			"0.01": 5.90769100765,
			"0.011": 6.24671547122,
			"0.012": 3.97498706153,
			"0.013": 1.57631879408,
			"0.014": 0.0,
			"0.015": 0.0,
			"0.016": 0.0,
			"0.017": 0.0,
			"0.018": 0.0,
			"0.019": 0.0,
			"0.02": 0.0,
			"0.021": 0.0,
			"0.022": 0.0,
			"0.023": 0.0,
			"0.024": 0.0,
			"0.025": 0.0
		}
	}
}
