{
	 "smiles": "CC1=NC(O)=NC(C)=C1CC(O)=O", 
	 "Tm": 545.15, 
	 "num_atms": 23, 
	 "gaussian": { 
		 "optdone": 1, 
		 "sigma_profile": "yes", 
		 "theory": "DFT", 
		 "functional": "B3LYP", 
		 "basiset": "6-31G**", 
		 "properties": { 
			 "R2extent": 2673.5445, 
			 "electric_dipole_moment_norm": 2.27028988678, 
			 "electric_quadrupole_moment_norm": 13.935198756, 
			 "total_energy": -646.090887347, 
			 "HOMO_LUMO_gap": 0.21111, 
			 "cosmo_polarized_energy": -15.66, 
			 "cosmo_cavitation_energy": 26.8, 
			 "cosmo_dispersion_energy": -19.64, 
			 "cosmo_repulsion_energy": 1.56, 
			 "cosmo_total_nonelectrostatic_energy": 8.73, 
			 "SMD_solvation_energy": 3.61 
		},
		"coords": [
			{
				"x": -1.6339572853,
				"y": 1.95129522,
				"z": 1.4920014089,
				"element": "C" 
			},
			{
				"x": -0.3199578026,
				"y": 1.2144681524,
				"z": 1.4455232159,
				"element": "C" 
			},
			{
				"x": 0.6128514854,
				"y": 1.6113278473,
				"z": 2.3238969993,
				"element": "N" 
			},
			{
				"x": 1.7774074685,
				"y": 0.9577917044,
				"z": 2.2938832814,
				"element": "C" 
			},
			{
				"x": 2.7162521711,
				"y": 1.3558079213,
				"z": 3.1710459529,
				"element": "O" 
			},
			{
				"x": 2.1245226331,
				"y": -0.047372341,
				"z": 1.4945041252,
				"element": "N" 
			},
			{
				"x": 1.1952509729,
				"y": -0.4480532594,
				"z": 0.6152747859,
				"element": "C" 
			},
			{
				"x": 1.5955755431,
				"y": -1.5911877782,
				"z": -0.2832367478,
				"element": "C" 
			},
			{
				"x": -0.0739512733,
				"y": 0.1601374369,
				"z": 0.5460607339,
				"element": "C" 
			},
			{
				"x": -1.1304823845,
				"y": -0.2891250567,
				"z": -0.4507855265,
				"element": "C" 
			},
			{
				"x": -1.103684912,
				"y": 0.5618092153,
				"z": -1.7114835456,
				"element": "C" 
			},
			{
				"x": -0.2447815016,
				"y": 0.0698541348,
				"z": -2.63701396,
				"element": "O" 
			},
			{
				"x": -1.7374244015,
				"y": 1.5788318417,
				"z": -1.8903640097,
				"element": "O" 
			},
			{
				"x": -2.4332228094,
				"y": 1.2951492789,
				"z": 1.859932525,
				"element": "H" 
			},
			{
				"x": -1.9323216417,
				"y": 2.3006817294,
				"z": 0.4998945096,
				"element": "H" 
			},
			{
				"x": -1.5475440657,
				"y": 2.7987538435,
				"z": 2.1728609153,
				"element": "H" 
			},
			{
				"x": 2.3183743231,
				"y": 2.0846120857,
				"z": 3.672122548,
				"element": "H" 
			},
			{
				"x": 2.6371407696,
				"y": -1.8476691687,
				"z": -0.0884332096,
				"element": "H" 
			},
			{
				"x": 1.4731409106,
				"y": -1.3310516974,
				"z": -1.3386583803,
				"element": "H" 
			},
			{
				"x": 0.9781420219,
				"y": -2.4776006192,
				"z": -0.0920669677,
				"element": "H" 
			},
			{
				"x": -0.9785696373,
				"y": -1.3348775487,
				"z": -0.7252594834,
				"element": "H" 
			},
			{
				"x": -2.1295914964,
				"y": -0.1898245951,
				"z": -0.0215164194,
				"element": "H" 
			},
			{
				"x": -0.254269088,
				"y": 0.6969416531,
				"z": -3.3804827514,
				"element": "H" 
			}
		],
		 "valence_orbital": [ 
			{
				"type": "occ",
				"energy": -0.31344,
				"method": "rhf"
			},
			{
				"type": "occ",
				"energy": -0.30083,
				"method": "rhf"
			},
			{
				"type": "occ",
				"energy": -0.29031,
				"method": "rhf"
			},
			{
				"type": "occ",
				"energy": -0.25005,
				"method": "rhf"
			},
			{
				"type": "occ",
				"energy": -0.24215,
				"method": "rhf"
			},
			{
				"type": "unocc",
				"energy": -0.03104,
				"method": "rhf"
			},
			{
				"type": "unocc",
				"energy": -0.01838,
				"method": "rhf"
			},
			{
				"type": "unocc",
				"energy": 0.00722,
				"method": "rhf"
			},
			{
				"type": "unocc",
				"energy": 0.06445,
				"method": "rhf"
			},
			{
				"type": "unocc",
				"energy": 0.09189,
				"method": "rhf"
			}
		],
		"cosmo_sigma_profile": { 
			"-0.025": 0.0,
			"-0.024": 0.0,
			"-0.023": 0.0,
			"-0.022": 0.0,
			"-0.021": 0.0,
			"-0.02": 0.0,
			"-0.019": 0.170871534175,
			"-0.018": 0.832135674807,
			"-0.017": 1.92682840641,
			"-0.016": 1.63306843183,
			"-0.015": 0.885306944088,
			"-0.014": 1.1133034656,
			"-0.013": 1.81450757202,
			"-0.012": 1.19708602902,
			"-0.011": 2.02039639991,
			"-0.01": 1.67363460089,
			"-0.009": 0.690934143716,
			"-0.008": 0.756527295486,
			"-0.007": 5.62709442291,
			"-0.006": 9.85273571745,
			"-0.005": 11.4939202376,
			"-0.004": 11.3292262017,
			"-0.003": 12.8949008866,
			"-0.002": 18.5788248447,
			"-0.001": 27.2760428211,
			"0.0": 20.7616058039,
			"0.001": 11.4475098563,
			"0.002": 7.16266934297,
			"0.003": 6.35910604424,
			"0.004": 6.85752903041,
			"0.005": 6.28066196589,
			"0.006": 5.14003521171,
			"0.007": 4.33308400199,
			"0.008": 5.62397450334,
			"0.009": 5.67092564354,
			"0.01": 5.16007756709,
			"0.011": 8.04117190872,
			"0.012": 4.3154415927,
			"0.013": 1.20883477477,
			"0.014": 0.967114958165,
			"0.015": 0.886406948142,
			"0.016": 0.171983156123,
			"0.017": 0.0,
			"0.018": 0.0,
			"0.019": 0.0,
			"0.02": 0.0,
			"0.021": 0.0,
			"0.022": 0.0,
			"0.023": 0.0,
			"0.024": 0.0,
			"0.025": 0.0
		}
	}
}
