{
	 "smiles": "[O-][N+](=O)C1=CC=C(C=C1)S(F)(=O)=O", 
	 "Tm": 351.15, 
	 "num_atms": 17, 
	 "gaussian": { 
		 "optdone": 1, 
		 "sigma_profile": "yes", 
		 "theory": "DFT", 
		 "functional": "B3LYP", 
		 "basiset": "6-31G**", 
		 "properties": { 
			 "R2extent": 3962.1913, 
			 "electric_dipole_moment_norm": 0.835251010176, 
			 "electric_quadrupole_moment_norm": 26.2306448304, 
			 "total_energy": -1084.55041054, 
			 "HOMO_LUMO_gap": 0.19, 
			 "cosmo_polarized_energy": -11.69, 
			 "cosmo_cavitation_energy": 24.8, 
			 "cosmo_dispersion_energy": -18.79, 
			 "cosmo_repulsion_energy": 1.4, 
			 "cosmo_total_nonelectrostatic_energy": 7.42, 
			 "SMD_solvation_energy": 6.11 
		},
		"coords": [
			{
				"x": 0.1978971857,
				"y": 1.6412027539,
				"z": 2.7065226313,
				"element": "O" 
			},
			{
				"x": -0.2320854177,
				"y": 0.6524131398,
				"z": 2.1185427444,
				"element": "N" 
			},
			{
				"x": -0.8096601457,
				"y": -0.2936456936,
				"z": 2.6473905544,
				"element": "O" 
			},
			{
				"x": -0.0374159785,
				"y": 0.5958566089,
				"z": 0.6529342739,
				"element": "C" 
			},
			{
				"x": 0.6126622629,
				"y": 1.6564007521,
				"z": 0.0257648102,
				"element": "C" 
			},
			{
				"x": 0.7959297011,
				"y": 1.6036902918,
				"z": -1.3536043383,
				"element": "C" 
			},
			{
				"x": 0.3234849903,
				"y": 0.4907437374,
				"z": -2.0527307153,
				"element": "C" 
			},
			{
				"x": -0.3345500995,
				"y": -0.5663193045,
				"z": -1.420080808,
				"element": "C" 
			},
			{
				"x": -0.5174029044,
				"y": -0.5128417635,
				"z": -0.0406992793,
				"element": "C" 
			},
			{
				"x": 0.5587828039,
				"y": 0.4223132322,
				"z": -3.819460556,
				"element": "S" 
			},
			{
				"x": 1.9956848445,
				"y": -0.3250443252,
				"z": -3.8520446105,
				"element": "F" 
			},
			{
				"x": 0.7886341895,
				"y": 1.7560976197,
				"z": -4.3385454959,
				"element": "O" 
			},
			{
				"x": -0.3884848644,
				"y": -0.5038847952,
				"z": -4.4077920688,
				"element": "O" 
			},
			{
				"x": 0.9578175049,
				"y": 2.496320533,
				"z": 0.6151084696,
				"element": "H" 
			},
			{
				"x": 1.2855376021,
				"y": 2.4131813563,
				"z": -1.8827559405,
				"element": "H" 
			},
			{
				"x": -0.7034023243,
				"y": -1.4046783837,
				"z": -1.9998331331,
				"element": "H" 
			},
			{
				"x": -1.0221293506,
				"y": -1.3042057593,
				"z": 0.498683462,
				"element": "H" 
			}
		],
		 "valence_orbital": [ 
			{
				"type": "occ",
				"energy": -0.33479,
				"method": "rhf"
			},
			{
				"type": "occ",
				"energy": -0.33175,
				"method": "rhf"
			},
			{
				"type": "occ",
				"energy": -0.32128,
				"method": "rhf"
			},
			{
				"type": "occ",
				"energy": -0.31652,
				"method": "rhf"
			},
			{
				"type": "occ",
				"energy": -0.31281,
				"method": "rhf"
			},
			{
				"type": "unocc",
				"energy": -0.12281,
				"method": "rhf"
			},
			{
				"type": "unocc",
				"energy": -0.06231,
				"method": "rhf"
			},
			{
				"type": "unocc",
				"energy": -0.05156,
				"method": "rhf"
			},
			{
				"type": "unocc",
				"energy": 0.00747,
				"method": "rhf"
			},
			{
				"type": "unocc",
				"energy": 0.03914,
				"method": "rhf"
			}
		],
		"cosmo_sigma_profile": { 
			"-0.025": 0.0,
			"-0.024": 0.0,
			"-0.023": 0.0,
			"-0.022": 0.0,
			"-0.021": 0.0,
			"-0.02": 0.0,
			"-0.019": 0.0,
			"-0.018": 0.0,
			"-0.017": 0.0,
			"-0.016": 0.0,
			"-0.015": 0.0,
			"-0.014": 0.0,
			"-0.013": 0.0,
			"-0.012": 0.0,
			"-0.011": 0.0,
			"-0.01": 1.4422865716,
			"-0.009": 6.74575822807,
			"-0.008": 8.67695770706,
			"-0.007": 8.32425030353,
			"-0.006": 9.98325891194,
			"-0.005": 8.54738197418,
			"-0.004": 11.0888980398,
			"-0.003": 16.2751558891,
			"-0.002": 19.8537469343,
			"-0.001": 15.1658388137,
			"0.0": 6.77418857677,
			"0.001": 8.33208861944,
			"0.002": 15.01663693,
			"0.003": 7.15165741141,
			"0.004": 4.79887580415,
			"0.005": 6.72647679805,
			"0.006": 10.7794796252,
			"0.007": 13.3648005738,
			"0.008": 15.1049859316,
			"0.009": 6.40127662266,
			"0.01": 0.246098258692,
			"0.011": 0.0,
			"0.012": 0.0,
			"0.013": 0.0,
			"0.014": 0.0,
			"0.015": 0.0,
			"0.016": 0.0,
			"0.017": 0.0,
			"0.018": 0.0,
			"0.019": 0.0,
			"0.02": 0.0,
			"0.021": 0.0,
			"0.022": 0.0,
			"0.023": 0.0,
			"0.024": 0.0,
			"0.025": 0.0
		}
	}
}
