{
	 "smiles": "NC1=NN=CC=C1", 
	 "Tm": 443.15, 
	 "num_atms": 12, 
	 "gaussian": { 
		 "optdone": 1, 
		 "sigma_profile": "yes", 
		 "theory": "DFT", 
		 "functional": "B3LYP", 
		 "basiset": "6-31G**", 
		 "properties": { 
			 "R2extent": 662.8734, 
			 "electric_dipole_moment_norm": 4.2231180199, 
			 "electric_quadrupole_moment_norm": 9.63550306626, 
			 "total_energy": -319.654950396, 
			 "HOMO_LUMO_gap": 0.18297, 
			 "cosmo_polarized_energy": -14.26, 
			 "cosmo_cavitation_energy": 16.15, 
			 "cosmo_dispersion_energy": -12.39, 
			 "cosmo_repulsion_energy": 1.05, 
			 "cosmo_total_nonelectrostatic_energy": 4.81, 
			 "SMD_solvation_energy": 1.32 
		},
		"coords": [
			{
				"x": 0.1501335571,
				"y": 2.0509713633,
				"z": 0.78567746,
				"element": "N" 
			},
			{
				"x": 0.0962463154,
				"y": 0.6946228632,
				"z": 0.5442114863,
				"element": "C" 
			},
			{
				"x": -0.6755610246,
				"y": -0.0147119487,
				"z": 1.3869937472,
				"element": "N" 
			},
			{
				"x": -0.8401256998,
				"y": -1.3224559156,
				"z": 1.1986362333,
				"element": "N" 
			},
			{
				"x": -0.2274134538,
				"y": -1.9303118011,
				"z": 0.1841941192,
				"element": "C" 
			},
			{
				"x": 0.601676212,
				"y": -1.2518769709,
				"z": -0.7219476111,
				"element": "C" 
			},
			{
				"x": 0.7716805437,
				"y": 0.1037841139,
				"z": -0.5456500517,
				"element": "C" 
			},
			{
				"x": 0.9793390694,
				"y": 2.5445207924,
				"z": 0.4912406089,
				"element": "H" 
			},
			{
				"x": -0.2057682702,
				"y": 2.3161082667,
				"z": 1.694321508,
				"element": "H" 
			},
			{
				"x": -0.4073354696,
				"y": -2.998370888,
				"z": 0.1010708832,
				"element": "H" 
			},
			{
				"x": 1.0880013938,
				"y": -1.7828210711,
				"z": -1.5347015449,
				"element": "H" 
			},
			{
				"x": 1.3885268266,
				"y": 0.7011411958,
				"z": -1.2110468383,
				"element": "H" 
			}
		],
		 "valence_orbital": [ 
			{
				"type": "occ",
				"energy": -0.34081,
				"method": "rhf"
			},
			{
				"type": "occ",
				"energy": -0.30914,
				"method": "rhf"
			},
			{
				"type": "occ",
				"energy": -0.29832,
				"method": "rhf"
			},
			{
				"type": "occ",
				"energy": -0.23023,
				"method": "rhf"
			},
			{
				"type": "occ",
				"energy": -0.22313,
				"method": "rhf"
			},
			{
				"type": "unocc",
				"energy": -0.04016,
				"method": "rhf"
			},
			{
				"type": "unocc",
				"energy": -0.00231,
				"method": "rhf"
			},
			{
				"type": "unocc",
				"energy": 0.07746,
				"method": "rhf"
			},
			{
				"type": "unocc",
				"energy": 0.09786,
				"method": "rhf"
			},
			{
				"type": "unocc",
				"energy": 0.13812,
				"method": "rhf"
			}
		],
		"cosmo_sigma_profile": { 
			"-0.025": 0.0,
			"-0.024": 0.0,
			"-0.023": 0.0,
			"-0.022": 0.0,
			"-0.021": 0.0,
			"-0.02": 0.0,
			"-0.019": 0.0,
			"-0.018": 0.0,
			"-0.017": 0.0,
			"-0.016": 0.0,
			"-0.015": 0.0,
			"-0.014": 0.739020463526,
			"-0.013": 2.17193406793,
			"-0.012": 2.30208437605,
			"-0.011": 2.55381966693,
			"-0.01": 3.24282477711,
			"-0.009": 2.61167711519,
			"-0.008": 5.13284235656,
			"-0.007": 7.64635691347,
			"-0.006": 8.85654916014,
			"-0.005": 5.93583174063,
			"-0.004": 5.86164832902,
			"-0.003": 4.33307491046,
			"-0.002": 5.2859014452,
			"-0.001": 6.17164130496,
			"0.0": 7.84217706942,
			"0.001": 11.6361997193,
			"0.002": 8.17371565207,
			"0.003": 4.40966406866,
			"0.004": 2.72496945856,
			"0.005": 2.8696846793,
			"0.006": 3.19390077554,
			"0.007": 2.65149555336,
			"0.008": 3.20425278986,
			"0.009": 1.83466091301,
			"0.01": 2.43063182914,
			"0.011": 2.20076379129,
			"0.012": 2.90045432313,
			"0.013": 2.06559962059,
			"0.014": 2.88672644732,
			"0.015": 2.6069621753,
			"0.016": 1.77486197526,
			"0.017": 0.83503584676,
			"0.018": 0.0,
			"0.019": 0.0,
			"0.02": 0.0,
			"0.021": 0.0,
			"0.022": 0.0,
			"0.023": 0.0,
			"0.024": 0.0,
			"0.025": 0.0
		}
	}
}
