{
	 "smiles": "OC(=O)C1CC(=NO1)C1=C(F)C=CC(F)=C1", 
	 "Tm": 409.15, 
	 "num_atms": 23, 
	 "gaussian": { 
		 "optdone": 1, 
		 "sigma_profile": "yes", 
		 "theory": "DFT", 
		 "functional": "B3LYP", 
		 "basiset": "6-31G**", 
		 "properties": { 
			 "R2extent": 4353.0969, 
			 "electric_dipole_moment_norm": 3.79763676383, 
			 "electric_quadrupole_moment_norm": 18.5711303846, 
			 "total_energy": -865.325464514, 
			 "HOMO_LUMO_gap": 0.17653, 
			 "cosmo_polarized_energy": -14.05, 
			 "cosmo_cavitation_energy": 28.99, 
			 "cosmo_dispersion_energy": -21.07, 
			 "cosmo_repulsion_energy": 1.59, 
			 "cosmo_total_nonelectrostatic_energy": 9.51, 
			 "SMD_solvation_energy": 6.51 
		},
		"coords": [
			{
				"x": -2.6340502465,
				"y": 3.0514264192,
				"z": 1.3384145131,
				"element": "O" 
			},
			{
				"x": -1.3328681532,
				"y": 3.2954292893,
				"z": 1.1310155902,
				"element": "C" 
			},
			{
				"x": -0.66118049,
				"y": 3.9883121148,
				"z": 1.8555371488,
				"element": "O" 
			},
			{
				"x": -0.7512631594,
				"y": 2.6438711766,
				"z": -0.1381183864,
				"element": "C" 
			},
			{
				"x": 0.5211034133,
				"y": 1.8422251349,
				"z": 0.1385757836,
				"element": "C" 
			},
			{
				"x": -0.0431368841,
				"y": 0.4366915405,
				"z": 0.0998670542,
				"element": "C" 
			},
			{
				"x": -1.2493991977,
				"y": 0.3773129865,
				"z": -0.3483434308,
				"element": "N" 
			},
			{
				"x": -1.6966478398,
				"y": 1.6761803973,
				"z": -0.6694803657,
				"element": "O" 
			},
			{
				"x": 0.6472514557,
				"y": -0.8009710599,
				"z": 0.4926074159,
				"element": "C" 
			},
			{
				"x": 2.0004130001,
				"y": -0.8217981342,
				"z": 0.8558374293,
				"element": "C" 
			},
			{
				"x": 2.7157624371,
				"y": 0.3268509369,
				"z": 0.8422661473,
				"element": "F" 
			},
			{
				"x": 2.6572655064,
				"y": -1.988735026,
				"z": 1.2298310853,
				"element": "C" 
			},
			{
				"x": 1.9584311392,
				"y": -3.1920691025,
				"z": 1.2469129793,
				"element": "C" 
			},
			{
				"x": 0.612356062,
				"y": -3.1852846937,
				"z": 0.884142773,
				"element": "C" 
			},
			{
				"x": -0.0692317517,
				"y": -4.3472236315,
				"z": 0.8996225474,
				"element": "F" 
			},
			{
				"x": -0.046524437,
				"y": -2.0263463401,
				"z": 0.5133002204,
				"element": "C" 
			},
			{
				"x": -2.9232813987,
				"y": 2.4252951739,
				"z": 0.6463069192,
				"element": "H" 
			},
			{
				"x": -0.6227835372,
				"y": 3.4244469332,
				"z": -0.8927003387,
				"element": "H" 
			},
			{
				"x": 0.9691152621,
				"y": 2.1095035526,
				"z": 1.0966904601,
				"element": "H" 
			},
			{
				"x": 1.287214339,
				"y": 1.9708063147,
				"z": -0.632177356,
				"element": "H" 
			},
			{
				"x": 3.7057957946,
				"y": -1.9369165015,
				"z": 1.5003754657,
				"element": "H" 
			},
			{
				"x": 2.4358561537,
				"y": -4.1219142546,
				"z": 1.5344402888,
				"element": "H" 
			},
			{
				"x": -1.0944974681,
				"y": -2.0584932264,
				"z": 0.241276056,
				"element": "H" 
			}
		],
		 "valence_orbital": [ 
			{
				"type": "occ",
				"energy": -0.32023,
				"method": "rhf"
			},
			{
				"type": "occ",
				"energy": -0.31319,
				"method": "rhf"
			},
			{
				"type": "occ",
				"energy": -0.28084,
				"method": "rhf"
			},
			{
				"type": "occ",
				"energy": -0.26457,
				"method": "rhf"
			},
			{
				"type": "occ",
				"energy": -0.24779,
				"method": "rhf"
			},
			{
				"type": "unocc",
				"energy": -0.07126,
				"method": "rhf"
			},
			{
				"type": "unocc",
				"energy": -0.01827,
				"method": "rhf"
			},
			{
				"type": "unocc",
				"energy": -0.00233,
				"method": "rhf"
			},
			{
				"type": "unocc",
				"energy": 0.02128,
				"method": "rhf"
			},
			{
				"type": "unocc",
				"energy": 0.05667,
				"method": "rhf"
			}
		],
		"cosmo_sigma_profile": { 
			"-0.025": 0.0,
			"-0.024": 0.0,
			"-0.023": 0.0,
			"-0.022": 0.0,
			"-0.021": 0.0,
			"-0.02": 0.0,
			"-0.019": 0.0,
			"-0.018": 0.0,
			"-0.017": 0.0,
			"-0.016": 0.0,
			"-0.015": 0.195802061306,
			"-0.014": 0.578801820842,
			"-0.013": 0.631301006052,
			"-0.012": 0.623781546793,
			"-0.011": 0.874774184675,
			"-0.01": 3.62893109356,
			"-0.009": 5.77329033515,
			"-0.008": 10.2787199665,
			"-0.007": 13.1360292053,
			"-0.006": 11.348405208,
			"-0.005": 9.20409829312,
			"-0.004": 11.4457250867,
			"-0.003": 11.297539341,
			"-0.002": 8.97009972507,
			"-0.001": 15.940265104,
			"0.0": 23.7376624861,
			"0.001": 20.2645024977,
			"0.002": 12.5145720364,
			"0.003": 13.7701377715,
			"0.004": 16.2288559418,
			"0.005": 5.13801671724,
			"0.006": 3.47735957757,
			"0.007": 3.88023424471,
			"0.008": 7.47340373826,
			"0.009": 7.29260739512,
			"0.01": 5.11512399777,
			"0.011": 6.17644848544,
			"0.012": 3.43164538126,
			"0.013": 0.506500885156,
			"0.014": 0.0,
			"0.015": 0.0,
			"0.016": 0.0,
			"0.017": 0.0,
			"0.018": 0.0,
			"0.019": 0.0,
			"0.02": 0.0,
			"0.021": 0.0,
			"0.022": 0.0,
			"0.023": 0.0,
			"0.024": 0.0,
			"0.025": 0.0
		}
	}
}
