{
	 "smiles": "FC(F)(F)C1=C(C#N)C(Cl)=NC(Cl)=C1", 
	 "Tm": 312.15, 
	 "num_atms": 15, 
	 "gaussian": { 
		 "optdone": 1, 
		 "sigma_profile": "yes", 
		 "theory": "DFT", 
		 "functional": "B3LYP", 
		 "basiset": "6-31G**", 
		 "properties": { 
			 "R2extent": 3700.8333, 
			 "electric_dipole_moment_norm": 3.29989372556, 
			 "electric_quadrupole_moment_norm": 9.6793407384, 
			 "total_energy": -1596.72548805, 
			 "HOMO_LUMO_gap": 0.18597, 
			 "cosmo_polarized_energy": -8.82, 
			 "cosmo_cavitation_energy": 26.5, 
			 "cosmo_dispersion_energy": -18.63, 
			 "cosmo_repulsion_energy": 1.42, 
			 "cosmo_total_nonelectrostatic_energy": 9.29, 
			 "SMD_solvation_energy": 4.86 
		},
		"coords": [
			{
				"x": 0.0611351419,
				"y": 2.8906589916,
				"z": 1.6196076379,
				"element": "F" 
			},
			{
				"x": 0.8946907081,
				"y": 1.9055319342,
				"z": 1.9944612529,
				"element": "C" 
			},
			{
				"x": 0.5920022181,
				"y": 1.5616709239,
				"z": 3.2577656641,
				"element": "F" 
			},
			{
				"x": 2.1481771671,
				"y": 2.3969774242,
				"z": 1.9869602778,
				"element": "F" 
			},
			{
				"x": 0.7691974196,
				"y": 0.7105521139,
				"z": 1.0656750056,
				"element": "C" 
			},
			{
				"x": -0.4660257467,
				"y": 0.0430610612,
				"z": 0.9245455534,
				"element": "C" 
			},
			{
				"x": -1.6366173284,
				"y": 0.4511035597,
				"z": 1.6350354985,
				"element": "C" 
			},
			{
				"x": -2.5934750771,
				"y": 0.776728913,
				"z": 2.2087706745,
				"element": "N" 
			},
			{
				"x": -0.492523527,
				"y": -1.0568865854,
				"z": 0.0407172717,
				"element": "C" 
			},
			{
				"x": -1.9725135461,
				"y": -1.9387809405,
				"z": -0.1949272859,
				"element": "Cl" 
			},
			{
				"x": 0.559772586,
				"y": -1.4768965213,
				"z": -0.6411112186,
				"element": "N" 
			},
			{
				"x": 1.7035883995,
				"y": -0.8319668271,
				"z": -0.4886502572,
				"element": "C" 
			},
			{
				"x": 3.0672363713,
				"y": -1.415779044,
				"z": -1.4043905272,
				"element": "Cl" 
			},
			{
				"x": 1.8747730489,
				"y": 0.2724859083,
				"z": 0.3518942482,
				"element": "C" 
			},
			{
				"x": 2.8324821648,
				"y": 0.7661390882,
				"z": 0.4419462045,
				"element": "H" 
			}
		],
		 "valence_orbital": [ 
			{
				"type": "occ",
				"energy": -0.35224,
				"method": "rhf"
			},
			{
				"type": "occ",
				"energy": -0.34601,
				"method": "rhf"
			},
			{
				"type": "occ",
				"energy": -0.33274,
				"method": "rhf"
			},
			{
				"type": "occ",
				"energy": -0.32495,
				"method": "rhf"
			},
			{
				"type": "occ",
				"energy": -0.29081,
				"method": "rhf"
			},
			{
				"type": "unocc",
				"energy": -0.10484,
				"method": "rhf"
			},
			{
				"type": "unocc",
				"energy": -0.08281,
				"method": "rhf"
			},
			{
				"type": "unocc",
				"energy": -0.01359,
				"method": "rhf"
			},
			{
				"type": "unocc",
				"energy": 0.00673,
				"method": "rhf"
			},
			{
				"type": "unocc",
				"energy": 0.01681,
				"method": "rhf"
			}
		],
		"cosmo_sigma_profile": { 
			"-0.025": 0.0,
			"-0.024": 0.0,
			"-0.023": 0.0,
			"-0.022": 0.0,
			"-0.021": 0.0,
			"-0.02": 0.0,
			"-0.019": 0.0,
			"-0.018": 0.0,
			"-0.017": 0.0,
			"-0.016": 0.0,
			"-0.015": 0.0,
			"-0.014": 0.0,
			"-0.013": 0.0,
			"-0.012": 0.0,
			"-0.011": 0.35252137099,
			"-0.01": 1.38606132951,
			"-0.009": 1.1562055097,
			"-0.008": 2.47915401674,
			"-0.007": 6.30307370855,
			"-0.006": 12.3241772536,
			"-0.005": 15.3025689769,
			"-0.004": 13.4585790391,
			"-0.003": 11.2676075846,
			"-0.002": 11.9220547351,
			"-0.001": 12.2534736372,
			"0.0": 18.7199330422,
			"0.001": 33.2889623046,
			"0.002": 36.8503990921,
			"0.003": 11.5599719853,
			"0.004": 5.61335846052,
			"0.005": 5.17765490931,
			"0.006": 4.48521733856,
			"0.007": 3.82821170002,
			"0.008": 4.02628345246,
			"0.009": 3.55587322221,
			"0.01": 3.01864767555,
			"0.011": 1.99078169457,
			"0.012": 0.312814803593,
			"0.013": 0.0,
			"0.014": 0.0,
			"0.015": 0.0,
			"0.016": 0.0,
			"0.017": 0.0,
			"0.018": 0.0,
			"0.019": 0.0,
			"0.02": 0.0,
			"0.021": 0.0,
			"0.022": 0.0,
			"0.023": 0.0,
			"0.024": 0.0,
			"0.025": 0.0
		}
	}
}
