{
	 "smiles": "CC1=CC(NS(=O)(=O)C2=CC(N)=C(C)C=C2)=CC=C1", 
	 "Tm": 369.15, 
	 "num_atms": 35, 
	 "gaussian": { 
		 "optdone": 1, 
		 "sigma_profile": "yes", 
		 "theory": "DFT", 
		 "functional": "B3LYP", 
		 "basiset": "6-31G**", 
		 "properties": { 
			 "R2extent": 6028.9407, 
			 "electric_dipole_moment_norm": 7.083011493, 
			 "electric_quadrupole_moment_norm": 18.3454719386, 
			 "total_energy": -1201.22194599, 
			 "HOMO_LUMO_gap": 0.18394, 
			 "cosmo_polarized_energy": -20.14, 
			 "cosmo_cavitation_energy": 39.73, 
			 "cosmo_dispersion_energy": -27.49, 
			 "cosmo_repulsion_energy": 2.1, 
			 "cosmo_total_nonelectrostatic_energy": 14.35, 
			 "SMD_solvation_energy": 5.79 
		},
		"coords": [
			{
				"x": -2.4458304035,
				"y": 3.142019417,
				"z": -0.3736656245,
				"element": "C" 
			},
			{
				"x": -2.2621998867,
				"y": 1.6907424871,
				"z": 0.007120652,
				"element": "C" 
			},
			{
				"x": -1.6750705449,
				"y": 0.7947715441,
				"z": -0.8923812284,
				"element": "C" 
			},
			{
				"x": -1.5247547215,
				"y": -0.557745556,
				"z": -0.5569854445,
				"element": "C" 
			},
			{
				"x": -0.9634654284,
				"y": -1.4743201456,
				"z": -1.4893821983,
				"element": "N" 
			},
			{
				"x": 0.5903030663,
				"y": -1.2885473709,
				"z": -2.1653323058,
				"element": "S" 
			},
			{
				"x": 0.7740295383,
				"y": -2.5117029376,
				"z": -2.9471895894,
				"element": "O" 
			},
			{
				"x": 0.6386990017,
				"y": 0.0434269046,
				"z": -2.7684200308,
				"element": "O" 
			},
			{
				"x": 1.7466395656,
				"y": -1.3182595225,
				"z": -0.7954670557,
				"element": "C" 
			},
			{
				"x": 2.0431250014,
				"y": -0.1269021713,
				"z": -0.1371928557,
				"element": "C" 
			},
			{
				"x": 2.9092308564,
				"y": -0.1384072319,
				"z": 0.9663398234,
				"element": "C" 
			},
			{
				"x": 3.2604424013,
				"y": 1.0561324624,
				"z": 1.5915862494,
				"element": "N" 
			},
			{
				"x": 3.4746094763,
				"y": -1.3639954179,
				"z": 1.3967270808,
				"element": "C" 
			},
			{
				"x": 4.4242212701,
				"y": -1.3848482579,
				"z": 2.5670988424,
				"element": "C" 
			},
			{
				"x": 3.1515060576,
				"y": -2.534853944,
				"z": 0.7064237901,
				"element": "C" 
			},
			{
				"x": 2.2885375302,
				"y": -2.5377629544,
				"z": -0.3892169267,
				"element": "C" 
			},
			{
				"x": -1.9807060497,
				"y": -1.0238880853,
				"z": 0.6826387508,
				"element": "C" 
			},
			{
				"x": -2.5884552535,
				"y": -0.1376162892,
				"z": 1.5703620465,
				"element": "C" 
			},
			{
				"x": -2.7201088258,
				"y": 1.2111901249,
				"z": 1.2427576966,
				"element": "C" 
			},
			{
				"x": -3.4313073054,
				"y": 3.3085965364,
				"z": -0.826097101,
				"element": "H" 
			},
			{
				"x": -2.3770051431,
				"y": 3.7968049532,
				"z": 0.5006578991,
				"element": "H" 
			},
			{
				"x": -1.6958763575,
				"y": 3.4634504536,
				"z": -1.1019166726,
				"element": "H" 
			},
			{
				"x": -1.3321490315,
				"y": 1.1349156104,
				"z": -1.8628709962,
				"element": "H" 
			},
			{
				"x": -1.102982713,
				"y": -2.4527866673,
				"z": -1.2568652498,
				"element": "H" 
			},
			{
				"x": 1.6208856412,
				"y": 0.806559174,
				"z": -0.4938981607,
				"element": "H" 
			},
			{
				"x": 2.6443767016,
				"y": 1.8357222276,
				"z": 1.4083609099,
				"element": "H" 
			},
			{
				"x": 3.5142979861,
				"y": 0.9903099903,
				"z": 2.5667485491,
				"element": "H" 
			},
			{
				"x": 4.8184665302,
				"y": -2.3893414383,
				"z": 2.7373188669,
				"element": "H" 
			},
			{
				"x": 5.2736128695,
				"y": -0.7102996935,
				"z": 2.4028115914,
				"element": "H" 
			},
			{
				"x": 3.935003322,
				"y": -1.065499257,
				"z": 3.4984537618,
				"element": "H" 
			},
			{
				"x": 3.5977044526,
				"y": -3.4706258631,
				"z": 1.0331582368,
				"element": "H" 
			},
			{
				"x": 2.0634688785,
				"y": -3.4478891173,
				"z": -0.9324813223,
				"element": "H" 
			},
			{
				"x": -1.8569893251,
				"y": -2.0708041693,
				"z": 0.9475312938,
				"element": "H" 
			},
			{
				"x": -2.946969134,
				"y": -0.5013746131,
				"z": 2.5291530341,
				"element": "H" 
			},
			{
				"x": -3.1863900231,
				"y": 1.8963288177,
				"z": 1.9460136874,
				"element": "H" 
			}
		],
		 "valence_orbital": [ 
			{
				"type": "occ",
				"energy": -0.29751,
				"method": "rhf"
			},
			{
				"type": "occ",
				"energy": -0.25854,
				"method": "rhf"
			},
			{
				"type": "occ",
				"energy": -0.24738,
				"method": "rhf"
			},
			{
				"type": "occ",
				"energy": -0.22885,
				"method": "rhf"
			},
			{
				"type": "occ",
				"energy": -0.21552,
				"method": "rhf"
			},
			{
				"type": "unocc",
				"energy": -0.03158,
				"method": "rhf"
			},
			{
				"type": "unocc",
				"energy": -0.00584,
				"method": "rhf"
			},
			{
				"type": "unocc",
				"energy": -0.00345,
				"method": "rhf"
			},
			{
				"type": "unocc",
				"energy": -0.00059,
				"method": "rhf"
			},
			{
				"type": "unocc",
				"energy": 0.06444,
				"method": "rhf"
			}
		],
		"cosmo_sigma_profile": { 
			"-0.025": 0.0,
			"-0.024": 0.0,
			"-0.023": 0.0,
			"-0.022": 0.0,
			"-0.021": 0.0,
			"-0.02": 0.0,
			"-0.019": 0.0,
			"-0.018": 0.0,
			"-0.017": 0.0,
			"-0.016": 0.141781814627,
			"-0.015": 0.784347363796,
			"-0.014": 0.944621387024,
			"-0.013": 1.98734457362,
			"-0.012": 3.64381339518,
			"-0.011": 4.5567700865,
			"-0.01": 4.39837804836,
			"-0.009": 3.64661331661,
			"-0.008": 4.99111875029,
			"-0.007": 4.59473819527,
			"-0.006": 10.4342089478,
			"-0.005": 16.1479222236,
			"-0.004": 26.677173633,
			"-0.003": 21.9176413749,
			"-0.002": 22.0953956536,
			"-0.001": 24.1168737147,
			"0.0": 25.4710271094,
			"0.001": 17.6617111563,
			"0.002": 16.2128081869,
			"0.003": 20.8742003606,
			"0.004": 23.5824713721,
			"0.005": 17.131606097,
			"0.006": 8.43651267068,
			"0.007": 5.27369681079,
			"0.008": 5.07473008175,
			"0.009": 4.38085810227,
			"0.01": 7.61400705207,
			"0.011": 8.56426393393,
			"0.012": 3.06828464969,
			"0.013": 0.656777344057,
			"0.014": 0.110544932471,
			"0.015": 0.0,
			"0.016": 0.0,
			"0.017": 0.0,
			"0.018": 0.0,
			"0.019": 0.0,
			"0.02": 0.0,
			"0.021": 0.0,
			"0.022": 0.0,
			"0.023": 0.0,
			"0.024": 0.0,
			"0.025": 0.0
		}
	}
}
