{
	 "smiles": "ClC1=CC2=C(C=CN2)C=C1", 
	 "Tm": 362.65, 
	 "num_atms": 16, 
	 "gaussian": { 
		 "optdone": 1, 
		 "sigma_profile": "yes", 
		 "theory": "DFT", 
		 "functional": "B3LYP", 
		 "basiset": "6-31G**", 
		 "properties": { 
			 "R2extent": 3152.4401, 
			 "electric_dipole_moment_norm": 3.4395200043, 
			 "electric_quadrupole_moment_norm": 14.0541270284, 
			 "total_energy": -823.413837732, 
			 "HOMO_LUMO_gap": 0.19045, 
			 "cosmo_polarized_energy": -8.89, 
			 "cosmo_cavitation_energy": 21.7, 
			 "cosmo_dispersion_energy": -16.65, 
			 "cosmo_repulsion_energy": 1.34, 
			 "cosmo_total_nonelectrostatic_energy": 6.39, 
			 "SMD_solvation_energy": 3.4 
		},
		"coords": [
			{
				"x": -3.0747639955,
				"y": 2.6047553756,
				"z": -3.3780486458,
				"element": "Cl" 
			},
			{
				"x": -1.858597993,
				"y": 1.8618222331,
				"z": -2.3411948947,
				"element": "C" 
			},
			{
				"x": -1.6103914022,
				"y": 2.4204613178,
				"z": -1.0951758243,
				"element": "C" 
			},
			{
				"x": -0.636203766,
				"y": 1.7929526715,
				"z": -0.3118976146,
				"element": "C" 
			},
			{
				"x": 0.0767830022,
				"y": 0.6401312426,
				"z": -0.7487577608,
				"element": "C" 
			},
			{
				"x": 0.9815992389,
				"y": 0.2843814718,
				"z": 0.3091475985,
				"element": "C" 
			},
			{
				"x": 0.7998960146,
				"y": 1.1935732535,
				"z": 1.3165940247,
				"element": "C" 
			},
			{
				"x": -0.1740663472,
				"y": 2.1059624721,
				"z": 0.9489277831,
				"element": "N" 
			},
			{
				"x": -0.2124228478,
				"y": 0.1136040631,
				"z": -2.0193121329,
				"element": "C" 
			},
			{
				"x": -1.1761268164,
				"y": 0.7226703917,
				"z": -2.8111963121,
				"element": "C" 
			},
			{
				"x": -2.1503734888,
				"y": 3.2982744816,
				"z": -0.7575046831,
				"element": "H" 
			},
			{
				"x": 1.6777120649,
				"y": -0.5419309189,
				"z": 0.3182612319,
				"element": "H" 
			},
			{
				"x": 1.2863996295,
				"y": 1.2721009592,
				"z": 2.2782617117,
				"element": "H" 
			},
			{
				"x": -0.4934031462,
				"y": 2.8757757984,
				"z": 1.5136419882,
				"element": "H" 
			},
			{
				"x": 0.3118078652,
				"y": -0.7645919165,
				"z": -2.3849777728,
				"element": "H" 
			},
			{
				"x": -1.4135480122,
				"y": 0.3317571034,
				"z": -3.7940686971,
				"element": "H" 
			}
		],
		 "valence_orbital": [ 
			{
				"type": "occ",
				"energy": -0.31087,
				"method": "rhf"
			},
			{
				"type": "occ",
				"energy": -0.30388,
				"method": "rhf"
			},
			{
				"type": "occ",
				"energy": -0.27727,
				"method": "rhf"
			},
			{
				"type": "occ",
				"energy": -0.22665,
				"method": "rhf"
			},
			{
				"type": "occ",
				"energy": -0.20733,
				"method": "rhf"
			},
			{
				"type": "unocc",
				"energy": -0.01688,
				"method": "rhf"
			},
			{
				"type": "unocc",
				"energy": 0.01911,
				"method": "rhf"
			},
			{
				"type": "unocc",
				"energy": 0.03779,
				"method": "rhf"
			},
			{
				"type": "unocc",
				"energy": 0.06356,
				"method": "rhf"
			},
			{
				"type": "unocc",
				"energy": 0.07381,
				"method": "rhf"
			}
		],
		"cosmo_sigma_profile": { 
			"-0.025": 0.0,
			"-0.024": 0.0,
			"-0.023": 0.0,
			"-0.022": 0.0,
			"-0.021": 0.0,
			"-0.02": 0.0,
			"-0.019": 0.0,
			"-0.018": 0.0,
			"-0.017": 0.0,
			"-0.016": 0.813532312048,
			"-0.015": 1.72529777203,
			"-0.014": 1.26720254771,
			"-0.013": 1.06525382197,
			"-0.012": 1.53715492498,
			"-0.011": 1.00314559644,
			"-0.01": 1.77054781829,
			"-0.009": 1.90225571767,
			"-0.008": 3.86778177212,
			"-0.007": 4.73346297351,
			"-0.006": 7.46983617162,
			"-0.005": 8.42933804832,
			"-0.004": 8.4220407607,
			"-0.003": 9.09787832722,
			"-0.002": 8.12597395124,
			"-0.001": 9.12585037608,
			"0.0": 8.90660034696,
			"0.001": 9.59227728998,
			"0.002": 11.4905213343,
			"0.003": 17.2493397374,
			"0.004": 22.2413770453,
			"0.005": 25.9834885077,
			"0.006": 9.7330810996,
			"0.007": 1.23131331477,
			"0.008": 0.0,
			"0.009": 0.0,
			"0.01": 0.0,
			"0.011": 0.0,
			"0.012": 0.0,
			"0.013": 0.0,
			"0.014": 0.0,
			"0.015": 0.0,
			"0.016": 0.0,
			"0.017": 0.0,
			"0.018": 0.0,
			"0.019": 0.0,
			"0.02": 0.0,
			"0.021": 0.0,
			"0.022": 0.0,
			"0.023": 0.0,
			"0.024": 0.0,
			"0.025": 0.0
		}
	}
}
