{
	 "smiles": "CC1=CC=C(C=C1)C(=O)C=CC1=CC=CS1", 
	 "Tm": 352.15, 
	 "num_atms": 28, 
	 "gaussian": { 
		 "optdone": 1, 
		 "sigma_profile": "yes", 
		 "theory": "DFT", 
		 "functional": "B3LYP", 
		 "basiset": "6-31G**", 
		 "properties": { 
			 "R2extent": 4918.7095, 
			 "electric_dipole_moment_norm": 3.46025447186, 
			 "electric_quadrupole_moment_norm": 13.1236521727, 
			 "total_energy": -1014.10374585, 
			 "HOMO_LUMO_gap": 0.15491, 
			 "cosmo_polarized_energy": -10.09, 
			 "cosmo_cavitation_energy": 33.84, 
			 "cosmo_dispersion_energy": -23.82, 
			 "cosmo_repulsion_energy": 1.83, 
			 "cosmo_total_nonelectrostatic_energy": 11.84, 
			 "SMD_solvation_energy": 6.21 
		},
		"coords": [
			{
				"x": 1.0110134615,
				"y": -3.4655152654,
				"z": -1.5700058026,
				"element": "C" 
			},
			{
				"x": 1.064275669,
				"y": -1.9572001039,
				"z": -1.5513291642,
				"element": "C" 
			},
			{
				"x": 1.1912768694,
				"y": -1.2526665051,
				"z": -0.3469830983,
				"element": "C" 
			},
			{
				"x": 1.2621666854,
				"y": 0.1388388452,
				"z": -0.3311074934,
				"element": "C" 
			},
			{
				"x": 1.2078816014,
				"y": 0.8645494168,
				"z": -1.5288825155,
				"element": "C" 
			},
			{
				"x": 1.0897436079,
				"y": 0.1635106208,
				"z": -2.7403640993,
				"element": "C" 
			},
			{
				"x": 1.012164101,
				"y": -1.2231934,
				"z": -2.7482776476,
				"element": "C" 
			},
			{
				"x": 1.3226493413,
				"y": 2.353836214,
				"z": -1.5832055982,
				"element": "C" 
			},
			{
				"x": 1.4893017083,
				"y": 2.9347759324,
				"z": -2.6512745189,
				"element": "O" 
			},
			{
				"x": 1.3252867543,
				"y": 3.1683574207,
				"z": -0.3242183195,
				"element": "C" 
			},
			{
				"x": 0.3619416904,
				"y": 3.2898913068,
				"z": 0.6113784696,
				"element": "C" 
			},
			{
				"x": -0.9549355568,
				"y": 2.6691320989,
				"z": 0.6326304425,
				"element": "C" 
			},
			{
				"x": -1.7429874826,
				"y": 2.2052433275,
				"z": -0.3999696432,
				"element": "C" 
			},
			{
				"x": -2.9945125541,
				"y": 1.6845218543,
				"z": 0.03087948,
				"element": "C" 
			},
			{
				"x": -3.1655254612,
				"y": 1.7607284966,
				"z": 1.3878987913,
				"element": "C" 
			},
			{
				"x": -1.7936566842,
				"y": 2.4755561471,
				"z": 2.1628197732,
				"element": "S" 
			},
			{
				"x": 0.2844427768,
				"y": -3.83064522,
				"z": -2.3029347541,
				"element": "H" 
			},
			{
				"x": 1.9852220971,
				"y": -3.8896312745,
				"z": -1.8438798267,
				"element": "H" 
			},
			{
				"x": 0.7405077356,
				"y": -3.8701914796,
				"z": -0.590795612,
				"element": "H" 
			},
			{
				"x": 1.2349453306,
				"y": -1.8016385975,
				"z": 0.5902113466,
				"element": "H" 
			},
			{
				"x": 1.3645635746,
				"y": 0.6640214873,
				"z": 0.612352569,
				"element": "H" 
			},
			{
				"x": 1.060581359,
				"y": 0.7332896366,
				"z": -3.6633852343,
				"element": "H" 
			},
			{
				"x": 0.9118618374,
				"y": -1.7512349978,
				"z": -3.6935764919,
				"element": "H" 
			},
			{
				"x": 2.1933917295,
				"y": 3.8192884202,
				"z": -0.2432196227,
				"element": "H" 
			},
			{
				"x": 0.5679139862,
				"y": 3.9676578164,
				"z": 1.4391494812,
				"element": "H" 
			},
			{
				"x": -1.4434586762,
				"y": 2.2649807442,
				"z": -1.4390473799,
				"element": "H" 
			},
			{
				"x": -3.7422732398,
				"y": 1.2805530934,
				"z": -0.6419481925,
				"element": "H" 
			},
			{
				"x": -4.0149822618,
				"y": 1.4417839647,
				"z": 1.9757846615,
				"element": "H" 
			}
		],
		 "valence_orbital": [ 
			{
				"type": "occ",
				"energy": -0.25832,
				"method": "rhf"
			},
			{
				"type": "occ",
				"energy": -0.2545,
				"method": "rhf"
			},
			{
				"type": "occ",
				"energy": -0.25104,
				"method": "rhf"
			},
			{
				"type": "occ",
				"energy": -0.24338,
				"method": "rhf"
			},
			{
				"type": "occ",
				"energy": -0.21911,
				"method": "rhf"
			},
			{
				"type": "unocc",
				"energy": -0.0642,
				"method": "rhf"
			},
			{
				"type": "unocc",
				"energy": -0.03621,
				"method": "rhf"
			},
			{
				"type": "unocc",
				"energy": -0.00456,
				"method": "rhf"
			},
			{
				"type": "unocc",
				"energy": 0.01916,
				"method": "rhf"
			},
			{
				"type": "unocc",
				"energy": 0.02154,
				"method": "rhf"
			}
		],
		"cosmo_sigma_profile": { 
			"-0.025": 0.0,
			"-0.024": 0.0,
			"-0.023": 0.0,
			"-0.022": 0.0,
			"-0.021": 0.0,
			"-0.02": 0.0,
			"-0.019": 0.0,
			"-0.018": 0.0,
			"-0.017": 0.0,
			"-0.016": 0.0,
			"-0.015": 0.0,
			"-0.014": 0.0,
			"-0.013": 0.0,
			"-0.012": 0.0,
			"-0.011": 0.0,
			"-0.01": 0.0,
			"-0.009": 0.808447851782,
			"-0.008": 2.69259694926,
			"-0.007": 6.76416069206,
			"-0.006": 12.9675755073,
			"-0.005": 18.9536357819,
			"-0.004": 25.0872043243,
			"-0.003": 21.3937642281,
			"-0.002": 22.0200666927,
			"-0.001": 23.3904574236,
			"0.0": 22.1420275761,
			"0.001": 17.2882038958,
			"0.002": 20.0275539826,
			"0.003": 21.5895742409,
			"0.004": 26.1734664745,
			"0.005": 13.1451393717,
			"0.006": 2.40408202087,
			"0.007": 1.47209674485,
			"0.008": 1.70648056728,
			"0.009": 1.48878168373,
			"0.01": 1.92069425581,
			"0.011": 2.79836476145,
			"0.012": 4.35355076063,
			"0.013": 2.0321152902,
			"0.014": 0.349567829567,
			"0.015": 0.0,
			"0.016": 0.0,
			"0.017": 0.0,
			"0.018": 0.0,
			"0.019": 0.0,
			"0.02": 0.0,
			"0.021": 0.0,
			"0.022": 0.0,
			"0.023": 0.0,
			"0.024": 0.0,
			"0.025": 0.0
		}
	}
}
