{
	 "smiles": "CS(=O)(=O)NC1=C(N)C=CC=C1", 
	 "Tm": 376.15, 
	 "num_atms": 22, 
	 "gaussian": { 
		 "optdone": 1, 
		 "sigma_profile": "yes", 
		 "theory": "DFT", 
		 "functional": "B3LYP", 
		 "basiset": "6-31G**", 
		 "properties": { 
			 "R2extent": 2563.2861, 
			 "electric_dipole_moment_norm": 4.74558520838, 
			 "electric_quadrupole_moment_norm": 11.1028416939, 
			 "total_energy": -930.846797201, 
			 "HOMO_LUMO_gap": 0.19726, 
			 "cosmo_polarized_energy": -17.62, 
			 "cosmo_cavitation_energy": 26.89, 
			 "cosmo_dispersion_energy": -19.9, 
			 "cosmo_repulsion_energy": 1.54, 
			 "cosmo_total_nonelectrostatic_energy": 8.54, 
			 "SMD_solvation_energy": 4.38 
		},
		"coords": [
			{
				"x": 0.6672684393,
				"y": 2.5365193782,
				"z": 0.2728001105,
				"element": "C" 
			},
			{
				"x": 0.9706179125,
				"y": 1.5125940016,
				"z": 1.7210631524,
				"element": "S" 
			},
			{
				"x": 0.6159292455,
				"y": 2.2467953601,
				"z": 2.9385628437,
				"element": "O" 
			},
			{
				"x": 2.3092061209,
				"y": 0.9349485869,
				"z": 1.5662147828,
				"element": "O" 
			},
			{
				"x": -0.2611916728,
				"y": 0.349159026,
				"z": 1.5655952496,
				"element": "N" 
			},
			{
				"x": -0.1614545263,
				"y": -0.7436613743,
				"z": 0.6300280074,
				"element": "C" 
			},
			{
				"x": -1.2502000963,
				"y": -0.9167232106,
				"z": -0.2575790522,
				"element": "C" 
			},
			{
				"x": -2.3704934262,
				"y": -0.1067327122,
				"z": -0.1588939392,
				"element": "N" 
			},
			{
				"x": -1.1884853246,
				"y": -1.9676945698,
				"z": -1.190830135,
				"element": "C" 
			},
			{
				"x": -0.0865460794,
				"y": -2.8148421616,
				"z": -1.233584281,
				"element": "C" 
			},
			{
				"x": 0.9800779782,
				"y": -2.6471800551,
				"z": -0.3454604508,
				"element": "C" 
			},
			{
				"x": 0.9324477323,
				"y": -1.6145598823,
				"z": 0.5885533111,
				"element": "C" 
			},
			{
				"x": 0.7020699746,
				"y": 1.9006259018,
				"z": -0.6133414263,
				"element": "H" 
			},
			{
				"x": 1.4684202113,
				"y": 3.2761899933,
				"z": 0.2355378096,
				"element": "H" 
			},
			{
				"x": -0.3034565424,
				"y": 3.0204974348,
				"z": 0.3777830148,
				"element": "H" 
			},
			{
				"x": -0.573660238,
				"y": 0.1162523729,
				"z": 2.5065150122,
				"element": "H" 
			},
			{
				"x": -2.9312680242,
				"y": -0.0098863717,
				"z": -0.9921646044,
				"element": "H" 
			},
			{
				"x": -2.2297841039,
				"y": 0.7492241256,
				"z": 0.3593335802,
				"element": "H" 
			},
			{
				"x": -2.0203600125,
				"y": -2.1157360614,
				"z": -1.8747564847,
				"element": "H" 
			},
			{
				"x": -0.0628204688,
				"y": -3.6171058838,
				"z": -1.9659219885,
				"element": "H" 
			},
			{
				"x": 1.8359548248,
				"y": -3.3132321895,
				"z": -0.3775528976,
				"element": "H" 
			},
			{
				"x": 1.751328076,
				"y": -1.4531517088,
				"z": 1.2800983853,
				"element": "H" 
			}
		],
		 "valence_orbital": [ 
			{
				"type": "occ",
				"energy": -0.31258,
				"method": "rhf"
			},
			{
				"type": "occ",
				"energy": -0.30154,
				"method": "rhf"
			},
			{
				"type": "occ",
				"energy": -0.28002,
				"method": "rhf"
			},
			{
				"type": "occ",
				"energy": -0.25159,
				"method": "rhf"
			},
			{
				"type": "occ",
				"energy": -0.21009,
				"method": "rhf"
			},
			{
				"type": "unocc",
				"energy": -0.01283,
				"method": "rhf"
			},
			{
				"type": "unocc",
				"energy": 0.00958,
				"method": "rhf"
			},
			{
				"type": "unocc",
				"energy": 0.05508,
				"method": "rhf"
			},
			{
				"type": "unocc",
				"energy": 0.07044,
				"method": "rhf"
			},
			{
				"type": "unocc",
				"energy": 0.08147,
				"method": "rhf"
			}
		],
		"cosmo_sigma_profile": { 
			"-0.025": 0.0,
			"-0.024": 0.0,
			"-0.023": 0.0,
			"-0.022": 0.0,
			"-0.021": 0.0,
			"-0.02": 0.0,
			"-0.019": 0.0,
			"-0.018": 0.0,
			"-0.017": 0.0,
			"-0.016": 0.0,
			"-0.015": 0.434494996924,
			"-0.014": 1.32007349125,
			"-0.013": 0.894415053215,
			"-0.012": 2.55211268188,
			"-0.011": 2.44998357428,
			"-0.01": 3.0653048618,
			"-0.009": 5.23688304676,
			"-0.008": 8.58052537161,
			"-0.007": 8.89549028254,
			"-0.006": 9.88662276558,
			"-0.005": 15.5633903475,
			"-0.004": 17.8397719598,
			"-0.003": 15.2197614491,
			"-0.002": 10.749577707,
			"-0.001": 8.36959748435,
			"0.0": 9.39896248766,
			"0.001": 7.62190077918,
			"0.002": 8.00943778158,
			"0.003": 8.11316662679,
			"0.004": 9.51141231965,
			"0.005": 10.7458903832,
			"0.006": 11.3779667507,
			"0.007": 4.2975464383,
			"0.008": 4.33415277673,
			"0.009": 4.33600953351,
			"0.01": 5.39999161633,
			"0.011": 11.7667864225,
			"0.012": 6.57199159082,
			"0.013": 0.605130212612,
			"0.014": 0.16431837284,
			"0.015": 0.0,
			"0.016": 0.0,
			"0.017": 0.0,
			"0.018": 0.0,
			"0.019": 0.0,
			"0.02": 0.0,
			"0.021": 0.0,
			"0.022": 0.0,
			"0.023": 0.0,
			"0.024": 0.0,
			"0.025": 0.0
		}
	}
}
