{
	 "smiles": "CSC1=NC2=C(N1)C=CC=C2", 
	 "Tm": 477.15, 
	 "num_atms": 19, 
	 "gaussian": { 
		 "optdone": 1, 
		 "sigma_profile": "yes", 
		 "theory": "DFT", 
		 "functional": "B3LYP", 
		 "basiset": "6-31G**", 
		 "properties": { 
			 "R2extent": 2355.1136, 
			 "electric_dipole_moment_norm": 1.71855848024, 
			 "electric_quadrupole_moment_norm": 9.21725259174, 
			 "total_energy": -817.374680972, 
			 "HOMO_LUMO_gap": 0.19721, 
			 "cosmo_polarized_energy": -11.25, 
			 "cosmo_cavitation_energy": 24.49, 
			 "cosmo_dispersion_energy": -19.0, 
			 "cosmo_repulsion_energy": 1.47, 
			 "cosmo_total_nonelectrostatic_energy": 6.97, 
			 "SMD_solvation_energy": 2.43 
		},
		"coords": [
			{
				"x": 0.9737270657,
				"y": 2.2117205381,
				"z": -3.052718061,
				"element": "C" 
			},
			{
				"x": 0.7728533877,
				"y": 2.4904472318,
				"z": -1.2594194442,
				"element": "S" 
			},
			{
				"x": 0.3108553316,
				"y": 0.8596799824,
				"z": -0.7739820262,
				"element": "C" 
			},
			{
				"x": 0.1810223587,
				"y": -0.1774044713,
				"z": -1.5628126293,
				"element": "N" 
			},
			{
				"x": -0.1938123996,
				"y": -1.218970103,
				"z": -0.7188186085,
				"element": "C" 
			},
			{
				"x": -0.2851654785,
				"y": -0.7646943746,
				"z": 0.6189059414,
				"element": "C" 
			},
			{
				"x": 0.0463952186,
				"y": 0.5818918464,
				"z": 0.5518996366,
				"element": "N" 
			},
			{
				"x": -0.6427624979,
				"y": -1.6013810622,
				"z": 1.6750469461,
				"element": "C" 
			},
			{
				"x": -0.9129387318,
				"y": -2.9322136509,
				"z": 1.3561931636,
				"element": "C" 
			},
			{
				"x": -0.8274013598,
				"y": -3.402265384,
				"z": 0.0321873739,
				"element": "C" 
			},
			{
				"x": -0.469138753,
				"y": -2.5580980957,
				"z": -1.0164802338,
				"element": "C" 
			},
			{
				"x": 1.2668826452,
				"y": 3.1753450093,
				"z": -3.4732738036,
				"element": "H" 
			},
			{
				"x": 1.7477931573,
				"y": 1.4659458398,
				"z": -3.2320980639,
				"element": "H" 
			},
			{
				"x": 0.0327533203,
				"y": 1.8760424122,
				"z": -3.4879490703,
				"element": "H" 
			},
			{
				"x": 0.0879438347,
				"y": 1.2354120606,
				"z": 1.318200476,
				"element": "H" 
			},
			{
				"x": -0.7094620761,
				"y": -1.2410670507,
				"z": 2.6972851627,
				"element": "H" 
			},
			{
				"x": -1.1953946785,
				"y": -3.6196814639,
				"z": 2.1479240434,
				"element": "H" 
			},
			{
				"x": -1.0460589762,
				"y": -4.4461177314,
				"z": -0.1726665592,
				"element": "H" 
			},
			{
				"x": -0.4016913682,
				"y": -2.9153915329,
				"z": -2.0389242436,
				"element": "H" 
			}
		],
		 "valence_orbital": [ 
			{
				"type": "occ",
				"energy": -0.30619,
				"method": "rhf"
			},
			{
				"type": "occ",
				"energy": -0.27388,
				"method": "rhf"
			},
			{
				"type": "occ",
				"energy": -0.26799,
				"method": "rhf"
			},
			{
				"type": "occ",
				"energy": -0.22491,
				"method": "rhf"
			},
			{
				"type": "occ",
				"energy": -0.20706,
				"method": "rhf"
			},
			{
				"type": "unocc",
				"energy": -0.00985,
				"method": "rhf"
			},
			{
				"type": "unocc",
				"energy": 0.01644,
				"method": "rhf"
			},
			{
				"type": "unocc",
				"energy": 0.02409,
				"method": "rhf"
			},
			{
				"type": "unocc",
				"energy": 0.05684,
				"method": "rhf"
			},
			{
				"type": "unocc",
				"energy": 0.0793,
				"method": "rhf"
			}
		],
		"cosmo_sigma_profile": { 
			"-0.025": 0.0,
			"-0.024": 0.0,
			"-0.023": 0.0,
			"-0.022": 0.0,
			"-0.021": 0.0,
			"-0.02": 0.0,
			"-0.019": 0.0,
			"-0.018": 0.0,
			"-0.017": 0.502806464519,
			"-0.016": 1.56234272408,
			"-0.015": 1.53395718479,
			"-0.014": 1.35519576553,
			"-0.013": 1.03998919119,
			"-0.012": 1.09572034069,
			"-0.011": 1.36730088967,
			"-0.01": 1.13927054689,
			"-0.009": 0.913807185057,
			"-0.008": 1.83696929141,
			"-0.007": 4.20283112627,
			"-0.006": 8.05865900398,
			"-0.005": 13.087319522,
			"-0.004": 13.1955353991,
			"-0.003": 15.3894161179,
			"-0.002": 14.5904418492,
			"-0.001": 10.3842783451,
			"0.0": 9.38291804732,
			"0.001": 13.8051599512,
			"0.002": 13.6074225212,
			"0.003": 13.2943569044,
			"0.004": 14.5325969791,
			"0.005": 13.3251552132,
			"0.006": 13.5439524993,
			"0.007": 5.76513166919,
			"0.008": 1.94234027822,
			"0.009": 1.30529483339,
			"0.01": 1.71287399444,
			"0.011": 0.763757781737,
			"0.012": 1.39123155205,
			"0.013": 0.71926482843,
			"0.014": 0.921169970334,
			"0.015": 0.681374866627,
			"0.016": 0.0947389914547,
			"0.017": 0.0,
			"0.018": 0.0,
			"0.019": 0.0,
			"0.02": 0.0,
			"0.021": 0.0,
			"0.022": 0.0,
			"0.023": 0.0,
			"0.024": 0.0,
			"0.025": 0.0
		}
	}
}
