{
	 "smiles": "CN1C=CC(=CC1=O)C(O)=O", 
	 "Tm": 493.15, 
	 "num_atms": 18, 
	 "gaussian": { 
		 "optdone": 1, 
		 "sigma_profile": "yes", 
		 "theory": "DFT", 
		 "functional": "B3LYP", 
		 "basiset": "6-31G**", 
		 "properties": { 
			 "R2extent": 1939.1072, 
			 "electric_dipole_moment_norm": 6.86466155466, 
			 "electric_quadrupole_moment_norm": 8.43243217287, 
			 "total_energy": -551.391788601, 
			 "HOMO_LUMO_gap": 0.1584, 
			 "cosmo_polarized_energy": -21.57, 
			 "cosmo_cavitation_energy": 22.73, 
			 "cosmo_dispersion_energy": -16.82, 
			 "cosmo_repulsion_energy": 1.34, 
			 "cosmo_total_nonelectrostatic_energy": 7.25, 
			 "SMD_solvation_energy": 6.24 
		},
		"coords": [
			{
				"x": 1.0462683827,
				"y": 2.3261817623,
				"z": 1.7392578002,
				"element": "C" 
			},
			{
				"x": 0.4507923488,
				"y": 1.197498614,
				"z": 1.0231229544,
				"element": "N" 
			},
			{
				"x": -0.8503446435,
				"y": 1.2165003528,
				"z": 0.6206931246,
				"element": "C" 
			},
			{
				"x": -1.412605724,
				"y": 0.1735817429,
				"z": -0.0589199889,
				"element": "C" 
			},
			{
				"x": -0.6042688556,
				"y": -0.9735212102,
				"z": -0.3325173529,
				"element": "C" 
			},
			{
				"x": 0.6956764132,
				"y": -1.0158418517,
				"z": 0.0915742791,
				"element": "C" 
			},
			{
				"x": 1.3153617681,
				"y": 0.0883401906,
				"z": 0.79686926,
				"element": "C" 
			},
			{
				"x": 2.4760645205,
				"y": 0.1365902959,
				"z": 1.1928839291,
				"element": "O" 
			},
			{
				"x": -1.1453265222,
				"y": -2.1646500792,
				"z": -1.0802702712,
				"element": "C" 
			},
			{
				"x": -2.1746732932,
				"y": -1.9123555104,
				"z": -1.9317239068,
				"element": "O" 
			},
			{
				"x": -0.7134919271,
				"y": -3.2835348044,
				"z": -0.9568739832,
				"element": "O" 
			},
			{
				"x": 1.9036267636,
				"y": 2.7073775165,
				"z": 1.1800102146,
				"element": "H" 
			},
			{
				"x": 0.2981502724,
				"y": 3.1101725391,
				"z": 1.8611267736,
				"element": "H" 
			},
			{
				"x": 1.4080579169,
				"y": 1.9951567142,
				"z": 2.7152461536,
				"element": "H" 
			},
			{
				"x": -1.4135692804,
				"y": 2.106511213,
				"z": 0.879874181,
				"element": "H" 
			},
			{
				"x": -2.4661305037,
				"y": 0.2127054749,
				"z": -0.3095344608,
				"element": "H" 
			},
			{
				"x": 1.3117223226,
				"y": -1.8866955455,
				"z": -0.0962367492,
				"element": "H" 
			},
			{
				"x": -2.298809959,
				"y": -0.9579174147,
				"z": -2.0324819572,
				"element": "H" 
			}
		],
		 "valence_orbital": [ 
			{
				"type": "occ",
				"energy": -0.32881,
				"method": "rhf"
			},
			{
				"type": "occ",
				"energy": -0.30986,
				"method": "rhf"
			},
			{
				"type": "occ",
				"energy": -0.28264,
				"method": "rhf"
			},
			{
				"type": "occ",
				"energy": -0.26161,
				"method": "rhf"
			},
			{
				"type": "occ",
				"energy": -0.23221,
				"method": "rhf"
			},
			{
				"type": "unocc",
				"energy": -0.07381,
				"method": "rhf"
			},
			{
				"type": "unocc",
				"energy": -0.01693,
				"method": "rhf"
			},
			{
				"type": "unocc",
				"energy": 0.03745,
				"method": "rhf"
			},
			{
				"type": "unocc",
				"energy": 0.05387,
				"method": "rhf"
			},
			{
				"type": "unocc",
				"energy": 0.07822,
				"method": "rhf"
			}
		],
		"cosmo_sigma_profile": { 
			"-0.025": 0.0,
			"-0.024": 0.0,
			"-0.023": 0.0,
			"-0.022": 0.0,
			"-0.021": 0.0,
			"-0.02": 0.0,
			"-0.019": 0.0165360162826,
			"-0.018": 1.04339858742,
			"-0.017": 1.16303442858,
			"-0.016": 0.839967049491,
			"-0.015": 1.32307324498,
			"-0.014": 0.901166142571,
			"-0.013": 0.784626220957,
			"-0.012": 1.10120065134,
			"-0.011": 2.25731144152,
			"-0.01": 3.88113353283,
			"-0.009": 4.27837446602,
			"-0.008": 6.13625122527,
			"-0.007": 6.10202908932,
			"-0.006": 8.4998704849,
			"-0.005": 10.4324060035,
			"-0.004": 11.7772149431,
			"-0.003": 16.6025698235,
			"-0.002": 12.4331220287,
			"-0.001": 9.51890650077,
			"0.0": 8.94584798012,
			"0.001": 9.7309180181,
			"0.002": 7.35866259063,
			"0.003": 4.46698101459,
			"0.004": 3.1641344978,
			"0.005": 3.61784618534,
			"0.006": 3.68996650756,
			"0.007": 3.66977523683,
			"0.008": 4.59484557722,
			"0.009": 5.52020312958,
			"0.01": 5.77250986751,
			"0.011": 7.79399042465,
			"0.012": 4.21943344018,
			"0.013": 3.7499376238,
			"0.014": 4.90867549928,
			"0.015": 1.24706597609,
			"0.016": 0.0135729126209,
			"0.017": 0.0,
			"0.018": 0.0,
			"0.019": 0.0,
			"0.02": 0.0,
			"0.021": 0.0,
			"0.022": 0.0,
			"0.023": 0.0,
			"0.024": 0.0,
			"0.025": 0.0
		}
	}
}
