{
	 "smiles": "NC1=C2N=CNC2=CC=C1", 
	 "Tm": 384.15, 
	 "num_atms": 17, 
	 "gaussian": { 
		 "optdone": 1, 
		 "sigma_profile": "yes", 
		 "theory": "DFT", 
		 "functional": "B3LYP", 
		 "basiset": "6-31G**", 
		 "properties": { 
			 "R2extent": 1276.2794, 
			 "electric_dipole_moment_norm": 3.21835493692, 
			 "electric_quadrupole_moment_norm": 17.9853167534, 
			 "total_energy": -435.213075169, 
			 "HOMO_LUMO_gap": 0.20699, 
			 "cosmo_polarized_energy": -18.73, 
			 "cosmo_cavitation_energy": 20.92, 
			 "cosmo_dispersion_energy": -15.98, 
			 "cosmo_repulsion_energy": 1.3, 
			 "cosmo_total_nonelectrostatic_energy": 6.25, 
			 "SMD_solvation_energy": 1.96 
		},
		"coords": [
			{
				"x": 2.2973299133,
				"y": 0.2380168988,
				"z": -0.2914274982,
				"element": "N" 
			},
			{
				"x": 1.0338765632,
				"y": -0.2051334714,
				"z": 0.2309592286,
				"element": "C" 
			},
			{
				"x": -0.1573674066,
				"y": 0.1667376971,
				"z": -0.4230309079,
				"element": "C" 
			},
			{
				"x": -0.3454103313,
				"y": 0.9395094494,
				"z": -1.562955271,
				"element": "N" 
			},
			{
				"x": -1.6398783683,
				"y": 0.9708770898,
				"z": -1.7324482913,
				"element": "C" 
			},
			{
				"x": -2.342425637,
				"y": 0.267158479,
				"z": -0.7781975347,
				"element": "N" 
			},
			{
				"x": -1.406895616,
				"y": -0.2689747934,
				"z": 0.0898265532,
				"element": "C" 
			},
			{
				"x": -1.5289199413,
				"y": -1.0631218853,
				"z": 1.2310379967,
				"element": "C" 
			},
			{
				"x": -0.3425251136,
				"y": -1.4210775526,
				"z": 1.8643451315,
				"element": "C" 
			},
			{
				"x": 0.9075685696,
				"y": -1.0000673896,
				"z": 1.3729002946,
				"element": "C" 
			},
			{
				"x": 2.7962260283,
				"y": 0.7782210788,
				"z": 0.4111931891,
				"element": "H" 
			},
			{
				"x": 2.8849101983,
				"y": -0.5624148051,
				"z": -0.5115458517,
				"element": "H" 
			},
			{
				"x": -2.1508784723,
				"y": 1.4894080918,
				"z": -2.5342237389,
				"element": "H" 
			},
			{
				"x": -3.3435492346,
				"y": 0.1641107422,
				"z": -0.7245566757,
				"element": "H" 
			},
			{
				"x": -2.4938670258,
				"y": -1.3871317119,
				"z": 1.6090175208,
				"element": "H" 
			},
			{
				"x": -0.37953295,
				"y": -2.0384972098,
				"z": 2.7571696065,
				"element": "H" 
			},
			{
				"x": 1.8112388241,
				"y": -1.3016207077,
				"z": 1.8972362484,
				"element": "H" 
			}
		],
		 "valence_orbital": [ 
			{
				"type": "occ",
				"energy": -0.29747,
				"method": "rhf"
			},
			{
				"type": "occ",
				"energy": -0.26264,
				"method": "rhf"
			},
			{
				"type": "occ",
				"energy": -0.23618,
				"method": "rhf"
			},
			{
				"type": "occ",
				"energy": -0.22485,
				"method": "rhf"
			},
			{
				"type": "occ",
				"energy": -0.21746,
				"method": "rhf"
			},
			{
				"type": "unocc",
				"energy": -0.01047,
				"method": "rhf"
			},
			{
				"type": "unocc",
				"energy": 0.02279,
				"method": "rhf"
			},
			{
				"type": "unocc",
				"energy": 0.06111,
				"method": "rhf"
			},
			{
				"type": "unocc",
				"energy": 0.07676,
				"method": "rhf"
			},
			{
				"type": "unocc",
				"energy": 0.10064,
				"method": "rhf"
			}
		],
		"cosmo_sigma_profile": { 
			"-0.025": 0.0,
			"-0.024": 0.0,
			"-0.023": 0.0,
			"-0.022": 0.0,
			"-0.021": 0.0,
			"-0.02": 0.0,
			"-0.019": 0.0,
			"-0.018": 0.0,
			"-0.017": 0.456605007991,
			"-0.016": 1.69876094677,
			"-0.015": 1.47197597663,
			"-0.014": 1.271469917,
			"-0.013": 1.18323135866,
			"-0.012": 1.48556270614,
			"-0.011": 2.29344364856,
			"-0.01": 4.60181885739,
			"-0.009": 6.31678380583,
			"-0.008": 5.30142493825,
			"-0.007": 5.15005381211,
			"-0.006": 7.41283193343,
			"-0.005": 9.71696752965,
			"-0.004": 10.0274725283,
			"-0.003": 9.9667629556,
			"-0.002": 7.38661849766,
			"-0.001": 6.33863432176,
			"0.0": 6.22190261645,
			"0.001": 7.78946656201,
			"0.002": 10.6116626514,
			"0.003": 9.10630082985,
			"0.004": 9.92298749219,
			"0.005": 9.47288063714,
			"0.006": 8.76037516326,
			"0.007": 2.86694612574,
			"0.008": 1.48312287226,
			"0.009": 1.61360429952,
			"0.01": 0.97047534683,
			"0.011": 1.98520620924,
			"0.012": 2.09230651373,
			"0.013": 1.39801242125,
			"0.014": 1.77913009487,
			"0.015": 1.05843864145,
			"0.016": 1.31879375286,
			"0.017": 1.49028534088,
			"0.018": 1.74425856448,
			"0.019": 1.42561019805,
			"0.02": 1.0972234586,
			"0.021": 0.697357834227,
			"0.022": 0.0,
			"0.023": 0.0,
			"0.024": 0.0,
			"0.025": 0.0
		}
	}
}
