{
	 "smiles": "COC1=CC=C(CCCC(O)=O)C=C1", 
	 "Tm": 331.35, 
	 "num_atms": 28, 
	 "gaussian": { 
		 "optdone": 1, 
		 "sigma_profile": "yes", 
		 "theory": "DFT", 
		 "functional": "B3LYP", 
		 "basiset": "6-31G**", 
		 "properties": { 
			 "R2extent": 4709.9691, 
			 "electric_dipole_moment_norm": 5.2737956976, 
			 "electric_quadrupole_moment_norm": 22.3173660538, 
			 "total_energy": -653.285232604, 
			 "HOMO_LUMO_gap": 0.21198, 
			 "cosmo_polarized_energy": -17.25, 
			 "cosmo_cavitation_energy": 31.86, 
			 "cosmo_dispersion_energy": -22.52, 
			 "cosmo_repulsion_energy": 1.81, 
			 "cosmo_total_nonelectrostatic_energy": 11.14, 
			 "SMD_solvation_energy": 7.0 
		},
		"coords": [
			{
				"x": -1.6647331846,
				"y": -2.80092362,
				"z": -2.2877333702,
				"element": "C" 
			},
			{
				"x": -1.8060394355,
				"y": -2.5661938365,
				"z": -0.8966604767,
				"element": "O" 
			},
			{
				"x": -1.3383047314,
				"y": -1.386819609,
				"z": -0.3909783161,
				"element": "C" 
			},
			{
				"x": -0.7174387748,
				"y": -0.3849892522,
				"z": -1.1429260286,
				"element": "C" 
			},
			{
				"x": -0.2819267894,
				"y": 0.7838219053,
				"z": -0.5075619013,
				"element": "C" 
			},
			{
				"x": -0.4478449195,
				"y": 0.9861505064,
				"z": 0.8644829188,
				"element": "C" 
			},
			{
				"x": 0.0369545352,
				"y": 2.2489204933,
				"z": 1.5485581684,
				"element": "C" 
			},
			{
				"x": 1.2591653229,
				"y": 2.0444848491,
				"z": 2.4669362142,
				"element": "C" 
			},
			{
				"x": 2.50759176,
				"y": 1.5763116206,
				"z": 1.7183811484,
				"element": "C" 
			},
			{
				"x": 3.7050613578,
				"y": 1.3647167517,
				"z": 2.6345340273,
				"element": "C" 
			},
			{
				"x": 4.8384267462,
				"y": 0.9274680808,
				"z": 2.0158112245,
				"element": "O" 
			},
			{
				"x": 3.7070431911,
				"y": 1.5573475843,
				"z": 3.8242119913,
				"element": "O" 
			},
			{
				"x": -1.0773500935,
				"y": -0.0349532407,
				"z": 1.5989117969,
				"element": "C" 
			},
			{
				"x": -1.5160426918,
				"y": -1.2021396556,
				"z": 0.9892339102,
				"element": "C" 
			},
			{
				"x": -2.2002103895,
				"y": -2.0495788392,
				"z": -2.8828256128,
				"element": "H" 
			},
			{
				"x": -0.6100662161,
				"y": -2.8122312,
				"z": -2.5929930339,
				"element": "H" 
			},
			{
				"x": -2.1014265735,
				"y": -3.7832496837,
				"z": -2.4746228172,
				"element": "H" 
			},
			{
				"x": -0.57173402,
				"y": -0.4957475849,
				"z": -2.211065589,
				"element": "H" 
			},
			{
				"x": 0.1914819698,
				"y": 1.5580658538,
				"z": -1.1073145166,
				"element": "H" 
			},
			{
				"x": -0.7746074609,
				"y": 2.6715252199,
				"z": 2.1541777759,
				"element": "H" 
			},
			{
				"x": 0.2757233116,
				"y": 3.0041747403,
				"z": 0.7889421252,
				"element": "H" 
			},
			{
				"x": 1.0223410566,
				"y": 1.3140772098,
				"z": 3.2479423584,
				"element": "H" 
			},
			{
				"x": 1.4859238994,
				"y": 2.9802925915,
				"z": 2.9884563446,
				"element": "H" 
			},
			{
				"x": 2.7927033257,
				"y": 2.3069498948,
				"z": 0.9467633739,
				"element": "H" 
			},
			{
				"x": 2.3050642283,
				"y": 0.6378375744,
				"z": 1.1844993686,
				"element": "H" 
			},
			{
				"x": 4.6748528137,
				"y": 0.8096170051,
				"z": 1.0692760801,
				"element": "H" 
			},
			{
				"x": -1.231542587,
				"y": 0.0913482769,
				"z": 2.668063059,
				"element": "H" 
			},
			{
				"x": -2.0057656508,
				"y": -1.9865836361,
				"z": 1.5571997767,
				"element": "H" 
			}
		],
		 "valence_orbital": [ 
			{
				"type": "occ",
				"energy": -0.31325,
				"method": "rhf"
			},
			{
				"type": "occ",
				"energy": -0.31127,
				"method": "rhf"
			},
			{
				"type": "occ",
				"energy": -0.26777,
				"method": "rhf"
			},
			{
				"type": "occ",
				"energy": -0.25337,
				"method": "rhf"
			},
			{
				"type": "occ",
				"energy": -0.21742,
				"method": "rhf"
			},
			{
				"type": "unocc",
				"energy": -0.00544,
				"method": "rhf"
			},
			{
				"type": "unocc",
				"energy": 0.00805,
				"method": "rhf"
			},
			{
				"type": "unocc",
				"energy": 0.01574,
				"method": "rhf"
			},
			{
				"type": "unocc",
				"energy": 0.05829,
				"method": "rhf"
			},
			{
				"type": "unocc",
				"energy": 0.08385,
				"method": "rhf"
			}
		],
		"cosmo_sigma_profile": { 
			"-0.025": 0.0,
			"-0.024": 0.0,
			"-0.023": 0.0,
			"-0.022": 0.0,
			"-0.021": 0.0,
			"-0.02": 0.0,
			"-0.019": 0.247162308556,
			"-0.018": 0.891681306175,
			"-0.017": 1.35546065679,
			"-0.016": 0.605215382088,
			"-0.015": 1.46169098536,
			"-0.014": 1.21202782043,
			"-0.013": 0.9325740518,
			"-0.012": 0.852831810864,
			"-0.011": 1.46981476812,
			"-0.01": 1.4481436947,
			"-0.009": 0.630349102023,
			"-0.008": 1.99287935763,
			"-0.007": 2.51803020996,
			"-0.006": 7.39642754814,
			"-0.005": 20.1009585343,
			"-0.004": 24.9274461535,
			"-0.003": 29.0584848628,
			"-0.002": 22.3719006955,
			"-0.001": 17.5730703292,
			"0.0": 12.9934176999,
			"0.001": 10.90894088,
			"0.002": 9.80092783499,
			"0.003": 10.867021584,
			"0.004": 12.3015824059,
			"0.005": 11.9192132593,
			"0.006": 10.7398606328,
			"0.007": 4.35246476758,
			"0.008": 4.02251753181,
			"0.009": 4.61010386547,
			"0.01": 5.90956524112,
			"0.011": 6.42841216484,
			"0.012": 5.82592311028,
			"0.013": 2.66457529429,
			"0.014": 0.187920477816,
			"0.015": 0.0,
			"0.016": 0.0,
			"0.017": 0.0,
			"0.018": 0.0,
			"0.019": 0.0,
			"0.02": 0.0,
			"0.021": 0.0,
			"0.022": 0.0,
			"0.023": 0.0,
			"0.024": 0.0,
			"0.025": 0.0
		}
	}
}
