{
	 "smiles": "OC(=O)C1=C(O)C=C(NC(=O)C2=CC(F)=CC(F)=C2)C=C1", 
	 "Tm": 543.15, 
	 "num_atms": 30, 
	 "gaussian": { 
		 "optdone": 1, 
		 "sigma_profile": "yes", 
		 "theory": "DFT", 
		 "functional": "B3LYP", 
		 "basiset": "6-31G**", 
		 "properties": { 
			 "R2extent": 10822.3289, 
			 "electric_dipole_moment_norm": 5.9216726767, 
			 "electric_quadrupole_moment_norm": 43.7125190596, 
			 "total_energy": -1094.26145065, 
			 "HOMO_LUMO_gap": 0.16604, 
			 "cosmo_polarized_energy": -24.11, 
			 "cosmo_cavitation_energy": 37.03, 
			 "cosmo_dispersion_energy": -26.97, 
			 "cosmo_repulsion_energy": 1.96, 
			 "cosmo_total_nonelectrostatic_energy": 12.02, 
			 "SMD_solvation_energy": 9.12 
		},
		"coords": [
			{
				"x": -5.2116851877,
				"y": -0.6814493894,
				"z": 5.0776123221,
				"element": "O" 
			},
			{
				"x": -5.0429159058,
				"y": -1.1637480706,
				"z": 3.8305760532,
				"element": "C" 
			},
			{
				"x": -5.8849756116,
				"y": -1.8794717902,
				"z": 3.3311849856,
				"element": "O" 
			},
			{
				"x": -3.7895488365,
				"y": -0.7876221693,
				"z": 3.0900849057,
				"element": "C" 
			},
			{
				"x": -2.7534121038,
				"y": 0.0309663556,
				"z": 3.5749839103,
				"element": "C" 
			},
			{
				"x": -2.8735998227,
				"y": 0.5483276759,
				"z": 4.8421983397,
				"element": "O" 
			},
			{
				"x": -1.6241978616,
				"y": 0.3271760624,
				"z": 2.8118084563,
				"element": "C" 
			},
			{
				"x": -1.5087149158,
				"y": -0.2028102867,
				"z": 1.521709871,
				"element": "C" 
			},
			{
				"x": -0.4000778222,
				"y": 0.0391567898,
				"z": 0.6932518221,
				"element": "N" 
			},
			{
				"x": 0.6992105825,
				"y": 0.8355126208,
				"z": 0.938188575,
				"element": "C" 
			},
			{
				"x": 0.8431780172,
				"y": 1.5047385399,
				"z": 1.9546141979,
				"element": "O" 
			},
			{
				"x": 1.7310441318,
				"y": 0.849794466,
				"z": -0.1582104596,
				"element": "C" 
			},
			{
				"x": 2.5603647145,
				"y": 1.9755008515,
				"z": -0.2229491979,
				"element": "C" 
			},
			{
				"x": 3.5314069954,
				"y": 2.03446783,
				"z": -1.2132033548,
				"element": "C" 
			},
			{
				"x": 4.321524494,
				"y": 3.1187255074,
				"z": -1.2888253289,
				"element": "F" 
			},
			{
				"x": 3.7226475096,
				"y": 1.0108025791,
				"z": -2.1365489876,
				"element": "C" 
			},
			{
				"x": 2.8954271664,
				"y": -0.1009155678,
				"z": -2.0321520323,
				"element": "C" 
			},
			{
				"x": 3.0685125473,
				"y": -1.1176528821,
				"z": -2.895175716,
				"element": "F" 
			},
			{
				"x": 1.9022945979,
				"y": -0.2066257064,
				"z": -1.0645068729,
				"element": "C" 
			},
			{
				"x": -2.5317688539,
				"y": -1.0245100502,
				"z": 1.0144414794,
				"element": "C" 
			},
			{
				"x": -3.6423072725,
				"y": -1.3016439751,
				"z": 1.7929088378,
				"element": "C" 
			},
			{
				"x": -4.4539221788,
				"y": -0.1267330479,
				"z": 5.3339791043,
				"element": "H" 
			},
			{
				"x": -2.1070244004,
				"y": 1.0951550031,
				"z": 5.0579635874,
				"element": "H" 
			},
			{
				"x": -0.8405832859,
				"y": 0.9661178665,
				"z": 3.1985184072,
				"element": "H" 
			},
			{
				"x": -0.4650357949,
				"y": -0.3638441963,
				"z": -0.2300861796,
				"element": "H" 
			},
			{
				"x": 2.4436031296,
				"y": 2.7801222729,
				"z": 0.4923266631,
				"element": "H" 
			},
			{
				"x": 4.4897807358,
				"y": 1.0732392258,
				"z": -2.8985345741,
				"element": "H" 
			},
			{
				"x": 1.326662535,
				"y": -1.1241138149,
				"z": -1.0134728057,
				"element": "H" 
			},
			{
				"x": -2.4492781845,
				"y": -1.4413106013,
				"z": 0.0141845566,
				"element": "H" 
			},
			{
				"x": -4.4420091185,
				"y": -1.9324520985,
				"z": 1.4208294346,
				"element": "H" 
			}
		],
		 "valence_orbital": [ 
			{
				"type": "occ",
				"energy": -0.28109,
				"method": "rhf"
			},
			{
				"type": "occ",
				"energy": -0.2709,
				"method": "rhf"
			},
			{
				"type": "occ",
				"energy": -0.26216,
				"method": "rhf"
			},
			{
				"type": "occ",
				"energy": -0.26019,
				"method": "rhf"
			},
			{
				"type": "occ",
				"energy": -0.24087,
				"method": "rhf"
			},
			{
				"type": "unocc",
				"energy": -0.07483,
				"method": "rhf"
			},
			{
				"type": "unocc",
				"energy": -0.0378,
				"method": "rhf"
			},
			{
				"type": "unocc",
				"energy": -0.0261,
				"method": "rhf"
			},
			{
				"type": "unocc",
				"energy": -0.01404,
				"method": "rhf"
			},
			{
				"type": "unocc",
				"energy": 0.03022,
				"method": "rhf"
			}
		],
		"cosmo_sigma_profile": { 
			"-0.025": 0.0,
			"-0.024": 0.0,
			"-0.023": 0.0,
			"-0.022": 0.0,
			"-0.021": 0.0,
			"-0.02": 0.176490969798,
			"-0.019": 1.28702375573,
			"-0.018": 1.22392991482,
			"-0.017": 0.835167605992,
			"-0.016": 2.25110770695,
			"-0.015": 2.08500767184,
			"-0.014": 2.59291028183,
			"-0.013": 2.29960899015,
			"-0.012": 2.0561017625,
			"-0.011": 2.98483792056,
			"-0.01": 2.81167731337,
			"-0.009": 4.74985880711,
			"-0.008": 5.69630201602,
			"-0.007": 7.34813576006,
			"-0.006": 8.87064407987,
			"-0.005": 10.0704772696,
			"-0.004": 12.0360880729,
			"-0.003": 12.1535794911,
			"-0.002": 16.4280724932,
			"-0.001": 26.086708346,
			"0.0": 32.5690557959,
			"0.001": 26.7521728177,
			"0.002": 24.7757379631,
			"0.003": 25.5612969534,
			"0.004": 19.5736741947,
			"0.005": 3.90363030722,
			"0.006": 3.68682988896,
			"0.007": 5.35605623854,
			"0.008": 3.05903345852,
			"0.009": 3.40272000664,
			"0.01": 6.0881541721,
			"0.011": 7.07124079848,
			"0.012": 8.05359064099,
			"0.013": 3.53168323729,
			"0.014": 1.23330611407,
			"0.015": 0.0,
			"0.016": 0.0,
			"0.017": 0.0,
			"0.018": 0.0,
			"0.019": 0.0,
			"0.02": 0.0,
			"0.021": 0.0,
			"0.022": 0.0,
			"0.023": 0.0,
			"0.024": 0.0,
			"0.025": 0.0
		}
	}
}
