{
	 "smiles": "FC1=CC(=CC(F)=C1)C1=NNC=C1C=O", 
	 "Tm": 452.65, 
	 "num_atms": 21, 
	 "gaussian": { 
		 "optdone": 1, 
		 "sigma_profile": "yes", 
		 "theory": "DFT", 
		 "functional": "B3LYP", 
		 "basiset": "6-31G**", 
		 "properties": { 
			 "R2extent": 4128.4637, 
			 "electric_dipole_moment_norm": 3.16478019932, 
			 "electric_quadrupole_moment_norm": 24.5598303219, 
			 "total_energy": -769.045795274, 
			 "HOMO_LUMO_gap": 0.19141, 
			 "cosmo_polarized_energy": -14.17, 
			 "cosmo_cavitation_energy": 27.75, 
			 "cosmo_dispersion_energy": -19.81, 
			 "cosmo_repulsion_energy": 1.49, 
			 "cosmo_total_nonelectrostatic_energy": 9.43, 
			 "SMD_solvation_energy": 6.15 
		},
		"coords": [
			{
				"x": 1.3580270809,
				"y": 0.4506661468,
				"z": 3.8396981379,
				"element": "F" 
			},
			{
				"x": 1.0632964351,
				"y": -0.2112553218,
				"z": 2.7046637405,
				"element": "C" 
			},
			{
				"x": 1.243660148,
				"y": 0.4365870309,
				"z": 1.4881236765,
				"element": "C" 
			},
			{
				"x": 0.9331887389,
				"y": -0.2463164539,
				"z": 0.3016716946,
				"element": "C" 
			},
			{
				"x": 0.4342839632,
				"y": -1.5570602308,
				"z": 0.3647426968,
				"element": "C" 
			},
			{
				"x": 0.2691505782,
				"y": -2.1546042224,
				"z": 1.6062193832,
				"element": "C" 
			},
			{
				"x": -0.2038978283,
				"y": -3.4139967689,
				"z": 1.6638918444,
				"element": "F" 
			},
			{
				"x": 0.5799417128,
				"y": -1.5103481268,
				"z": 2.7997361703,
				"element": "C" 
			},
			{
				"x": 1.0976565972,
				"y": 0.3991835097,
				"z": -1.0144398119,
				"element": "C" 
			},
			{
				"x": 0.2405567935,
				"y": 0.1126639928,
				"z": -1.9970759518,
				"element": "N" 
			},
			{
				"x": 0.6620088346,
				"y": 0.8546146503,
				"z": -3.0479833429,
				"element": "N" 
			},
			{
				"x": 1.7469117306,
				"y": 1.6033472565,
				"z": -2.7801284163,
				"element": "C" 
			},
			{
				"x": 2.0851030748,
				"y": 1.3412229448,
				"z": -1.4571156458,
				"element": "C" 
			},
			{
				"x": 3.2763291567,
				"y": 1.8785332712,
				"z": -0.7964997544,
				"element": "C" 
			},
			{
				"x": 4.0119119781,
				"y": 2.706799513,
				"z": -1.3086293632,
				"element": "O" 
			},
			{
				"x": 1.583513809,
				"y": 1.4648073596,
				"z": 1.4845060823,
				"element": "H" 
			},
			{
				"x": 0.1818142766,
				"y": -2.0975939311,
				"z": -0.5388211255,
				"element": "H" 
			},
			{
				"x": 0.446481061,
				"y": -1.9966160021,
				"z": 3.7580529771,
				"element": "H" 
			},
			{
				"x": 0.1435437791,
				"y": 0.8044720945,
				"z": -3.9123333714,
				"element": "H" 
			},
			{
				"x": 2.2222776997,
				"y": 2.2447062777,
				"z": -3.5070374376,
				"element": "H" 
			},
			{
				"x": 3.4957403802,
				"y": 1.4704870102,
				"z": 0.2101578174,
				"element": "H" 
			}
		],
		 "valence_orbital": [ 
			{
				"type": "occ",
				"energy": -0.30216,
				"method": "rhf"
			},
			{
				"type": "occ",
				"energy": -0.27037,
				"method": "rhf"
			},
			{
				"type": "occ",
				"energy": -0.25923,
				"method": "rhf"
			},
			{
				"type": "occ",
				"energy": -0.25141,
				"method": "rhf"
			},
			{
				"type": "occ",
				"energy": -0.24879,
				"method": "rhf"
			},
			{
				"type": "unocc",
				"energy": -0.05738,
				"method": "rhf"
			},
			{
				"type": "unocc",
				"energy": -0.03628,
				"method": "rhf"
			},
			{
				"type": "unocc",
				"energy": -0.00811,
				"method": "rhf"
			},
			{
				"type": "unocc",
				"energy": 0.01947,
				"method": "rhf"
			},
			{
				"type": "unocc",
				"energy": 0.05916,
				"method": "rhf"
			}
		],
		"cosmo_sigma_profile": { 
			"-0.025": 0.0,
			"-0.024": 0.0,
			"-0.023": 0.0,
			"-0.022": 0.0,
			"-0.021": 0.0,
			"-0.02": 0.0,
			"-0.019": 0.0,
			"-0.018": 1.14755476429,
			"-0.017": 1.97401126385,
			"-0.016": 1.13003863478,
			"-0.015": 1.3261745445,
			"-0.014": 0.782255562383,
			"-0.013": 1.19825069804,
			"-0.012": 1.43221101437,
			"-0.011": 1.38197591992,
			"-0.01": 2.8533774956,
			"-0.009": 3.30223665609,
			"-0.008": 6.34860591566,
			"-0.007": 6.25689183479,
			"-0.006": 7.53420688646,
			"-0.005": 8.53357335891,
			"-0.004": 7.56541285239,
			"-0.003": 8.53241934263,
			"-0.002": 9.47235114841,
			"-0.001": 13.898433327,
			"0.0": 26.2012376761,
			"0.001": 29.4861573648,
			"0.002": 16.1587507221,
			"0.003": 14.474119797,
			"0.004": 22.5750363397,
			"0.005": 4.37074551905,
			"0.006": 2.57431601092,
			"0.007": 2.24909494115,
			"0.008": 3.24075030552,
			"0.009": 3.04936319241,
			"0.01": 3.26021063082,
			"0.011": 4.13577456423,
			"0.012": 4.96769157856,
			"0.013": 2.30725964499,
			"0.014": 0.613233530678,
			"0.015": 0.0,
			"0.016": 0.0,
			"0.017": 0.0,
			"0.018": 0.0,
			"0.019": 0.0,
			"0.02": 0.0,
			"0.021": 0.0,
			"0.022": 0.0,
			"0.023": 0.0,
			"0.024": 0.0,
			"0.025": 0.0
		}
	}
}
