{
	 "smiles": "FC(F)(F)CNC(=O)OCC(F)(F)F", 
	 "Tm": 327.15, 
	 "num_atms": 19, 
	 "gaussian": { 
		 "optdone": 1, 
		 "sigma_profile": "yes", 
		 "theory": "DFT", 
		 "functional": "B3LYP", 
		 "basiset": "6-31G**", 
		 "properties": { 
			 "R2extent": 4063.7319, 
			 "electric_dipole_moment_norm": 1.6442683905, 
			 "electric_quadrupole_moment_norm": 11.1498195645, 
			 "total_energy": -997.815699077, 
			 "HOMO_LUMO_gap": 0.31448, 
			 "cosmo_polarized_energy": -10.64, 
			 "cosmo_cavitation_energy": 27.15, 
			 "cosmo_dispersion_energy": -18.1, 
			 "cosmo_repulsion_energy": 1.35, 
			 "cosmo_total_nonelectrostatic_energy": 10.4, 
			 "SMD_solvation_energy": 7.62 
		},
		"coords": [
			{
				"x": 2.9957568946,
				"y": 3.4752034282,
				"z": -0.7351821737,
				"element": "F" 
			},
			{
				"x": 3.0392814125,
				"y": 2.1894374206,
				"z": -1.1514716021,
				"element": "C" 
			},
			{
				"x": 3.3810642789,
				"y": 1.4319261973,
				"z": -0.0930863998,
				"element": "F" 
			},
			{
				"x": 4.0145255906,
				"y": 2.0860397003,
				"z": -2.0763209016,
				"element": "F" 
			},
			{
				"x": 1.7013859122,
				"y": 1.7664059453,
				"z": -1.7445419338,
				"element": "C" 
			},
			{
				"x": 0.6169148098,
				"y": 1.8747261993,
				"z": -0.7966861512,
				"element": "N" 
			},
			{
				"x": 0.1799892507,
				"y": 0.8859212725,
				"z": 0.0414338984,
				"element": "C" 
			},
			{
				"x": -0.6237197123,
				"y": 1.0498148354,
				"z": 0.9344300764,
				"element": "O" 
			},
			{
				"x": 0.7599312533,
				"y": -0.3133320574,
				"z": -0.2781093493,
				"element": "O" 
			},
			{
				"x": 0.2722735088,
				"y": -1.4460767518,
				"z": 0.4311015109,
				"element": "C" 
			},
			{
				"x": -0.6106121707,
				"y": -2.2734443805,
				"z": -0.4871998984,
				"element": "C" 
			},
			{
				"x": -1.0746297877,
				"y": -3.3473616057,
				"z": 0.1847101517,
				"element": "F" 
			},
			{
				"x": 0.0669379466,
				"y": -2.717826233,
				"z": -1.5637987379,
				"element": "F" 
			},
			{
				"x": -1.6634063393,
				"y": -1.5632448874,
				"z": -0.9311592524,
				"element": "F" 
			},
			{
				"x": 1.7854183145,
				"y": 0.7361712923,
				"z": -2.0886120756,
				"element": "H" 
			},
			{
				"x": 1.506938695,
				"y": 2.4060794771,
				"z": -2.6102929485,
				"element": "H" 
			},
			{
				"x": 0.3057534229,
				"y": 2.7962480261,
				"z": -0.5255710457,
				"element": "H" 
			},
			{
				"x": -0.3068025635,
				"y": -1.1328955662,
				"z": 1.3013555944,
				"element": "H" 
			},
			{
				"x": 1.1302992831,
				"y": -2.0489923124,
				"z": 0.734701238,
				"element": "H" 
			}
		],
		 "valence_orbital": [ 
			{
				"type": "occ",
				"energy": -0.39363,
				"method": "rhf"
			},
			{
				"type": "occ",
				"energy": -0.37659,
				"method": "rhf"
			},
			{
				"type": "occ",
				"energy": -0.32093,
				"method": "rhf"
			},
			{
				"type": "occ",
				"energy": -0.29712,
				"method": "rhf"
			},
			{
				"type": "occ",
				"energy": -0.28409,
				"method": "rhf"
			},
			{
				"type": "unocc",
				"energy": 0.03039,
				"method": "rhf"
			},
			{
				"type": "unocc",
				"energy": 0.06219,
				"method": "rhf"
			},
			{
				"type": "unocc",
				"energy": 0.09239,
				"method": "rhf"
			},
			{
				"type": "unocc",
				"energy": 0.1084,
				"method": "rhf"
			},
			{
				"type": "unocc",
				"energy": 0.11317,
				"method": "rhf"
			}
		],
		"cosmo_sigma_profile": { 
			"-0.025": 0.0,
			"-0.024": 0.0,
			"-0.023": 0.0,
			"-0.022": 0.0,
			"-0.021": 0.0,
			"-0.02": 0.0,
			"-0.019": 0.0,
			"-0.018": 0.0,
			"-0.017": 0.0,
			"-0.016": 0.135635731914,
			"-0.015": 0.761670038414,
			"-0.014": 1.05599712742,
			"-0.013": 0.779748931685,
			"-0.012": 1.0173739507,
			"-0.011": 1.62091497741,
			"-0.01": 1.75806274007,
			"-0.009": 5.81708559728,
			"-0.008": 8.85373904683,
			"-0.007": 7.62461591392,
			"-0.006": 8.39133327811,
			"-0.005": 6.58414791948,
			"-0.004": 6.35505080196,
			"-0.003": 6.87021133452,
			"-0.002": 7.70911022416,
			"-0.001": 10.2487642624,
			"0.0": 12.6791368999,
			"0.001": 16.4135057637,
			"0.002": 45.8716792025,
			"0.003": 45.2759974254,
			"0.004": 4.21666364718,
			"0.005": 1.73101291461,
			"0.006": 1.47498732915,
			"0.007": 0.367397913333,
			"0.008": 1.15172248854,
			"0.009": 1.85720589533,
			"0.01": 1.39816541535,
			"0.011": 2.83965723751,
			"0.012": 4.66281168528,
			"0.013": 0.676434746001,
			"0.014": 0.0,
			"0.015": 0.0,
			"0.016": 0.0,
			"0.017": 0.0,
			"0.018": 0.0,
			"0.019": 0.0,
			"0.02": 0.0,
			"0.021": 0.0,
			"0.022": 0.0,
			"0.023": 0.0,
			"0.024": 0.0,
			"0.025": 0.0
		}
	}
}
