{
	 "smiles": "SC1=NC2=C(N1)C=CC(=C2)S(=O)(=O)N1CCOCC1", 
	 "Tm": 559.15, 
	 "num_atms": 32, 
	 "gaussian": { 
		 "optdone": 1, 
		 "sigma_profile": "yes", 
		 "theory": "DFT", 
		 "functional": "B3LYP", 
		 "basiset": "6-31G**", 
		 "properties": { 
			 "R2extent": 8004.1259, 
			 "electric_dipole_moment_norm": 6.46038485309, 
			 "electric_quadrupole_moment_norm": 31.7132024372, 
			 "total_energy": -1613.22261973, 
			 "HOMO_LUMO_gap": 0.18852, 
			 "cosmo_polarized_energy": -24.22, 
			 "cosmo_cavitation_energy": 37.57, 
			 "cosmo_dispersion_energy": -27.98, 
			 "cosmo_repulsion_energy": 2.05, 
			 "cosmo_total_nonelectrostatic_energy": 11.64, 
			 "SMD_solvation_energy": 1.8 
		},
		"coords": [
			{
				"x": 0.2039891392,
				"y": 5.2465342002,
				"z": -4.658364324,
				"element": "S" 
			},
			{
				"x": 0.4165139359,
				"y": 4.1731013243,
				"z": -3.2728997921,
				"element": "C" 
			},
			{
				"x": 1.0549674052,
				"y": 3.0318354608,
				"z": -3.2744123923,
				"element": "N" 
			},
			{
				"x": 0.9452531551,
				"y": 2.5687886714,
				"z": -1.9689188384,
				"element": "C" 
			},
			{
				"x": 0.2092671874,
				"y": 3.4843901896,
				"z": -1.1753956004,
				"element": "C" 
			},
			{
				"x": -0.1196550039,
				"y": 4.5096449863,
				"z": -2.0457221179,
				"element": "N" 
			},
			{
				"x": -0.0379553794,
				"y": 3.2780675946,
				"z": 0.181708193,
				"element": "C" 
			},
			{
				"x": 0.4641160626,
				"y": 2.1067201782,
				"z": 0.7428539511,
				"element": "C" 
			},
			{
				"x": 1.1852561134,
				"y": 1.1859142286,
				"z": -0.042793649,
				"element": "C" 
			},
			{
				"x": 1.4487275604,
				"y": 1.3983197566,
				"z": -1.3956851368,
				"element": "C" 
			},
			{
				"x": 1.7658462649,
				"y": -0.3353795156,
				"z": 0.7256155579,
				"element": "S" 
			},
			{
				"x": 2.8919441427,
				"y": -0.8130931231,
				"z": -0.0803366822,
				"element": "O" 
			},
			{
				"x": 1.8807701844,
				"y": -0.0662782547,
				"z": 2.1618539181,
				"element": "O" 
			},
			{
				"x": 0.5707736979,
				"y": -1.4994956727,
				"z": 0.5753444806,
				"element": "N" 
			},
			{
				"x": -0.5930467767,
				"y": -1.5102952315,
				"z": 1.4713526686,
				"element": "C" 
			},
			{
				"x": -1.8624964931,
				"y": -1.1011714469,
				"z": 0.7208139517,
				"element": "C" 
			},
			{
				"x": -2.0467018962,
				"y": -1.8985917055,
				"z": -0.4431936919,
				"element": "O" 
			},
			{
				"x": -0.9567074989,
				"y": -1.7578688995,
				"z": -1.3482801045,
				"element": "C" 
			},
			{
				"x": 0.3565787872,
				"y": -2.1996097857,
				"z": -0.6986139507,
				"element": "C" 
			},
			{
				"x": 0.9195009274,
				"y": 4.4557232102,
				"z": -5.4788954649,
				"element": "H" 
			},
			{
				"x": -0.6344708509,
				"y": 5.3485226566,
				"z": -1.8259857751,
				"element": "H" 
			},
			{
				"x": -0.5829148178,
				"y": 3.9972571393,
				"z": 0.7848865205,
				"element": "H" 
			},
			{
				"x": 0.333256519,
				"y": 1.9071673163,
				"z": 1.8000999222,
				"element": "H" 
			},
			{
				"x": 2.0427370239,
				"y": 0.6986972707,
				"z": -1.9716696854,
				"element": "H" 
			},
			{
				"x": -0.3946999116,
				"y": -0.861359012,
				"z": 2.3261111765,
				"element": "H" 
			},
			{
				"x": -0.7101216424,
				"y": -2.5345297324,
				"z": 1.8495032827,
				"element": "H" 
			},
			{
				"x": -2.7457919806,
				"y": -1.2577937654,
				"z": 1.3477319749,
				"element": "H" 
			},
			{
				"x": -1.8112930264,
				"y": -0.0346634465,
				"z": 0.4471795141,
				"element": "H" 
			},
			{
				"x": -1.1877601672,
				"y": -2.3876985281,
				"z": -2.2127444978,
				"element": "H" 
			},
			{
				"x": -0.8771765653,
				"y": -0.7126596559,
				"z": -1.687833976,
				"element": "H" 
			},
			{
				"x": 0.3107363828,
				"y": -3.2750392006,
				"z": -0.481875168,
				"element": "H" 
			},
			{
				"x": 1.2139575208,
				"y": -2.0291572074,
				"z": -1.3520342646,
				"element": "H" 
			}
		],
		 "valence_orbital": [ 
			{
				"type": "occ",
				"energy": -0.29467,
				"method": "rhf"
			},
			{
				"type": "occ",
				"energy": -0.28474,
				"method": "rhf"
			},
			{
				"type": "occ",
				"energy": -0.25824,
				"method": "rhf"
			},
			{
				"type": "occ",
				"energy": -0.23833,
				"method": "rhf"
			},
			{
				"type": "occ",
				"energy": -0.228,
				"method": "rhf"
			},
			{
				"type": "unocc",
				"energy": -0.03948,
				"method": "rhf"
			},
			{
				"type": "unocc",
				"energy": -0.0202,
				"method": "rhf"
			},
			{
				"type": "unocc",
				"energy": -0.01236,
				"method": "rhf"
			},
			{
				"type": "unocc",
				"energy": 0.03033,
				"method": "rhf"
			},
			{
				"type": "unocc",
				"energy": 0.05042,
				"method": "rhf"
			}
		],
		"cosmo_sigma_profile": { 
			"-0.025": 0.0,
			"-0.024": 0.0,
			"-0.023": 0.0,
			"-0.022": 0.0,
			"-0.021": 0.0,
			"-0.02": 0.0,
			"-0.019": 0.0,
			"-0.018": 0.453584949522,
			"-0.017": 1.85260275968,
			"-0.016": 1.52872145809,
			"-0.015": 1.32963162821,
			"-0.014": 1.27402475112,
			"-0.013": 1.56642255791,
			"-0.012": 2.87550420362,
			"-0.011": 2.43473166951,
			"-0.01": 2.23267634422,
			"-0.009": 2.77964907083,
			"-0.008": 3.81167638542,
			"-0.007": 5.07433702826,
			"-0.006": 16.9320575536,
			"-0.005": 27.3748835413,
			"-0.004": 20.5383733328,
			"-0.003": 23.2674139723,
			"-0.002": 18.6110394585,
			"-0.001": 16.5175910262,
			"0.0": 19.3899038882,
			"0.001": 18.6800290069,
			"0.002": 19.9228995389,
			"0.003": 14.9395991237,
			"0.004": 10.8761058474,
			"0.005": 10.3759498281,
			"0.006": 8.93691446262,
			"0.007": 6.09021292928,
			"0.008": 5.9315731863,
			"0.009": 5.62944191634,
			"0.01": 7.85611792175,
			"0.011": 10.0877866855,
			"0.012": 7.60362830629,
			"0.013": 2.30302819502,
			"0.014": 1.00261834866,
			"0.015": 0.874693497528,
			"0.016": 0.313312142486,
			"0.017": 0.0,
			"0.018": 0.0,
			"0.019": 0.0,
			"0.02": 0.0,
			"0.021": 0.0,
			"0.022": 0.0,
			"0.023": 0.0,
			"0.024": 0.0,
			"0.025": 0.0
		}
	}
}
