{
	 "smiles": "OC1=CC=CC(C=O)=C1", 
	 "Tm": 379.15, 
	 "num_atms": 15, 
	 "gaussian": { 
		 "optdone": 1, 
		 "sigma_profile": "yes", 
		 "theory": "DFT", 
		 "functional": "B3LYP", 
		 "basiset": "6-31G**", 
		 "properties": { 
			 "R2extent": 1438.4076, 
			 "electric_dipole_moment_norm": 4.15371925267, 
			 "electric_quadrupole_moment_norm": 6.7350024484, 
			 "total_energy": -420.794339696, 
			 "HOMO_LUMO_gap": 0.17411, 
			 "cosmo_polarized_energy": -11.8, 
			 "cosmo_cavitation_energy": 19.75, 
			 "cosmo_dispersion_energy": -14.58, 
			 "cosmo_repulsion_energy": 1.19, 
			 "cosmo_total_nonelectrostatic_energy": 6.35, 
			 "SMD_solvation_energy": 4.89 
		},
		"coords": [
			{
				"x": 0.7658986781,
				"y": 0.5679531877,
				"z": 3.6390709108,
				"element": "O" 
			},
			{
				"x": 0.6666661994,
				"y": 0.6771877024,
				"z": 2.2822574103,
				"element": "C" 
			},
			{
				"x": 0.7166185046,
				"y": 1.9050965762,
				"z": 1.6123066106,
				"element": "C" 
			},
			{
				"x": 0.6090354077,
				"y": 1.9501298781,
				"z": 0.2184739532,
				"element": "C" 
			},
			{
				"x": 0.4517749677,
				"y": 0.7805387111,
				"z": -0.5160870708,
				"element": "C" 
			},
			{
				"x": 0.4019889544,
				"y": -0.4495438373,
				"z": 0.1583436384,
				"element": "C" 
			},
			{
				"x": 0.2349126031,
				"y": -1.7113219836,
				"z": -0.6016365565,
				"element": "C" 
			},
			{
				"x": 0.1329733367,
				"y": -1.7806037839,
				"z": -1.8112328691,
				"element": "O" 
			},
			{
				"x": 0.5087074075,
				"y": -0.5036035883,
				"z": 1.5508632,
				"element": "C" 
			},
			{
				"x": 0.870945999,
				"y": 1.4472039364,
				"z": 4.0252066324,
				"element": "H" 
			},
			{
				"x": 0.8395554519,
				"y": 2.825402249,
				"z": 2.1799117398,
				"element": "H" 
			},
			{
				"x": 0.6497131647,
				"y": 2.911076727,
				"z": -0.2859130458,
				"element": "H" 
			},
			{
				"x": 0.3661024557,
				"y": 0.788856896,
				"z": -1.5970775678,
				"element": "H" 
			},
			{
				"x": 0.2082847314,
				"y": -2.6293798414,
				"z": 0.0273345794,
				"element": "H" 
			},
			{
				"x": 0.4709221381,
				"y": -1.4524928294,
				"z": 2.0785784351,
				"element": "H" 
			}
		],
		 "valence_orbital": [ 
			{
				"type": "occ",
				"energy": -0.35745,
				"method": "rhf"
			},
			{
				"type": "occ",
				"energy": -0.34018,
				"method": "rhf"
			},
			{
				"type": "occ",
				"energy": -0.26775,
				"method": "rhf"
			},
			{
				"type": "occ",
				"energy": -0.2543,
				"method": "rhf"
			},
			{
				"type": "occ",
				"energy": -0.23621,
				"method": "rhf"
			},
			{
				"type": "unocc",
				"energy": -0.0621,
				"method": "rhf"
			},
			{
				"type": "unocc",
				"energy": -0.00609,
				"method": "rhf"
			},
			{
				"type": "unocc",
				"energy": 0.04473,
				"method": "rhf"
			},
			{
				"type": "unocc",
				"energy": 0.05934,
				"method": "rhf"
			},
			{
				"type": "unocc",
				"energy": 0.09288,
				"method": "rhf"
			}
		],
		"cosmo_sigma_profile": { 
			"-0.025": 0.0,
			"-0.024": 0.0,
			"-0.023": 0.0,
			"-0.022": 0.0,
			"-0.021": 0.0,
			"-0.02": 0.0,
			"-0.019": 0.0355361976407,
			"-0.018": 0.676238142395,
			"-0.017": 1.40846563575,
			"-0.016": 1.26817977651,
			"-0.015": 0.819643588156,
			"-0.014": 1.05074950364,
			"-0.013": 1.04862510283,
			"-0.012": 0.906603018427,
			"-0.011": 0.938083945044,
			"-0.01": 1.2170429223,
			"-0.009": 0.916377851887,
			"-0.008": 2.2017923589,
			"-0.007": 6.59581654985,
			"-0.006": 10.3244619459,
			"-0.005": 9.40001302398,
			"-0.004": 9.12888596308,
			"-0.003": 7.54276867632,
			"-0.002": 8.13533788336,
			"-0.001": 7.25840267568,
			"0.0": 8.00623671598,
			"0.001": 8.99035700859,
			"0.002": 14.7829654532,
			"0.003": 14.5935994247,
			"0.004": 10.3315060244,
			"0.005": 4.23775763679,
			"0.006": 2.44732615894,
			"0.007": 2.88391602658,
			"0.008": 3.19757287255,
			"0.009": 3.8530660799,
			"0.01": 4.27527147005,
			"0.011": 5.52990078774,
			"0.012": 3.26417241634,
			"0.013": 0.762124192553,
			"0.014": 0.0,
			"0.015": 0.0,
			"0.016": 0.0,
			"0.017": 0.0,
			"0.018": 0.0,
			"0.019": 0.0,
			"0.02": 0.0,
			"0.021": 0.0,
			"0.022": 0.0,
			"0.023": 0.0,
			"0.024": 0.0,
			"0.025": 0.0
		}
	}
}
