{
	 "smiles": "NC(=O)CCC1CCCCC1", 
	 "Tm": 390.15, 
	 "num_atms": 28, 
	 "gaussian": { 
		 "optdone": 1, 
		 "sigma_profile": "yes", 
		 "theory": "DFT", 
		 "functional": "B3LYP", 
		 "basiset": "6-31G**", 
		 "properties": { 
			 "R2extent": 2922.8215, 
			 "electric_dipole_moment_norm": 3.44487664511, 
			 "electric_quadrupole_moment_norm": 21.3149578351, 
			 "total_energy": -483.212310514, 
			 "HOMO_LUMO_gap": 0.27675, 
			 "cosmo_polarized_energy": -11.98, 
			 "cosmo_cavitation_energy": 28.53, 
			 "cosmo_dispersion_energy": -20.91, 
			 "cosmo_repulsion_energy": 1.72, 
			 "cosmo_total_nonelectrostatic_energy": 9.34, 
			 "SMD_solvation_energy": 4.62 
		},
		"coords": [
			{
				"x": 3.6337161,
				"y": -2.9616209335,
				"z": -0.2030387726,
				"element": "N" 
			},
			{
				"x": 2.3313647929,
				"y": -2.8341979957,
				"z": -0.6055320271,
				"element": "C" 
			},
			{
				"x": 1.6757382865,
				"y": -3.7928864318,
				"z": -0.9880507432,
				"element": "O" 
			},
			{
				"x": 1.7742324031,
				"y": -1.4110441129,
				"z": -0.5572653388,
				"element": "C" 
			},
			{
				"x": 0.2640037446,
				"y": -1.3900497287,
				"z": -0.297030463,
				"element": "C" 
			},
			{
				"x": -0.3858942224,
				"y": 0.00050194,
				"z": -0.4137786885,
				"element": "C" 
			},
			{
				"x": 0.0000212185,
				"y": 0.957203794,
				"z": 0.7528869808,
				"element": "C" 
			},
			{
				"x": -1.0585418507,
				"y": 0.9600839468,
				"z": 1.864971598,
				"element": "C" 
			},
			{
				"x": -2.409014358,
				"y": 1.5095787224,
				"z": 1.3504533872,
				"element": "C" 
			},
			{
				"x": -2.6438079918,
				"y": 1.161516894,
				"z": -0.1400918616,
				"element": "C" 
			},
			{
				"x": -1.9257134845,
				"y": -0.13887904,
				"z": -0.5220594101,
				"element": "C" 
			},
			{
				"x": 4.2000762227,
				"y": -2.1696445013,
				"z": 0.0525857564,
				"element": "H" 
			},
			{
				"x": 4.0726653717,
				"y": -3.8647157284,
				"z": -0.3003765012,
				"element": "H" 
			},
			{
				"x": 2.3209690097,
				"y": -0.8166315988,
				"z": 0.1845433939,
				"element": "H" 
			},
			{
				"x": 1.983251507,
				"y": -0.952036698,
				"z": -1.5344965309,
				"element": "H" 
			},
			{
				"x": 0.060113305,
				"y": -1.8072011645,
				"z": 0.6988862422,
				"element": "H" 
			},
			{
				"x": -0.2013917926,
				"y": -2.0794548742,
				"z": -1.0093601366,
				"element": "H" 
			},
			{
				"x": -0.0296121157,
				"y": 0.4557965516,
				"z": -1.3495770357,
				"element": "H" 
			},
			{
				"x": 0.1122224412,
				"y": 1.9802989243,
				"z": 0.3712102411,
				"element": "H" 
			},
			{
				"x": 0.9787004183,
				"y": 0.6830687117,
				"z": 1.1639813342,
				"element": "H" 
			},
			{
				"x": -1.1905945467,
				"y": -0.0649711174,
				"z": 2.2347079597,
				"element": "H" 
			},
			{
				"x": -0.7125818426,
				"y": 1.5473075237,
				"z": 2.723250837,
				"element": "H" 
			},
			{
				"x": -3.2225240019,
				"y": 1.1021532355,
				"z": 1.9625882598,
				"element": "H" 
			},
			{
				"x": -2.4429525566,
				"y": 2.5979112089,
				"z": 1.4814809439,
				"element": "H" 
			},
			{
				"x": -2.2676338653,
				"y": 1.972775576,
				"z": -0.7774807721,
				"element": "H" 
			},
			{
				"x": -3.7170579664,
				"y": 1.0862744457,
				"z": -0.3477651163,
				"element": "H" 
			},
			{
				"x": -2.1935996612,
				"y": -0.450359065,
				"z": -1.5383138156,
				"element": "H" 
			},
			{
				"x": -2.2680545647,
				"y": -0.9456784842,
				"z": 0.141270279,
				"element": "H" 
			}
		],
		 "valence_orbital": [ 
			{
				"type": "occ",
				"energy": -0.29247,
				"method": "rhf"
			},
			{
				"type": "occ",
				"energy": -0.29157,
				"method": "rhf"
			},
			{
				"type": "occ",
				"energy": -0.28938,
				"method": "rhf"
			},
			{
				"type": "occ",
				"energy": -0.26313,
				"method": "rhf"
			},
			{
				"type": "occ",
				"energy": -0.24239,
				"method": "rhf"
			},
			{
				"type": "unocc",
				"energy": 0.03436,
				"method": "rhf"
			},
			{
				"type": "unocc",
				"energy": 0.07166,
				"method": "rhf"
			},
			{
				"type": "unocc",
				"energy": 0.08027,
				"method": "rhf"
			},
			{
				"type": "unocc",
				"energy": 0.10135,
				"method": "rhf"
			},
			{
				"type": "unocc",
				"energy": 0.11549,
				"method": "rhf"
			}
		],
		"cosmo_sigma_profile": { 
			"-0.025": 0.0,
			"-0.024": 0.0,
			"-0.023": 0.0,
			"-0.022": 0.0,
			"-0.021": 0.0,
			"-0.02": 0.0,
			"-0.019": 0.0,
			"-0.018": 0.0,
			"-0.017": 0.0,
			"-0.016": 0.0,
			"-0.015": 0.0435866782676,
			"-0.014": 0.992122706273,
			"-0.013": 2.71510819968,
			"-0.012": 1.80700122426,
			"-0.011": 2.17825398509,
			"-0.01": 3.08875793655,
			"-0.009": 2.41417106042,
			"-0.008": 1.89202999213,
			"-0.007": 1.77368352111,
			"-0.006": 2.3676811225,
			"-0.005": 4.35349033199,
			"-0.004": 5.74027718121,
			"-0.003": 7.67720563665,
			"-0.002": 27.1154066968,
			"-0.001": 39.2752019753,
			"0.0": 40.5290884801,
			"0.001": 29.1819559268,
			"0.002": 14.64699593,
			"0.003": 2.8574266163,
			"0.004": 3.09393798788,
			"0.005": 2.29763234307,
			"0.006": 1.94617461762,
			"0.007": 2.13198186956,
			"0.008": 1.33870913863,
			"0.009": 1.87209229735,
			"0.01": 1.4525250247,
			"0.011": 1.64952525007,
			"0.012": 1.38691345377,
			"0.013": 2.51881560649,
			"0.014": 5.75183895111,
			"0.015": 2.9069888737,
			"0.016": 0.00248266466249,
			"0.017": 0.0,
			"0.018": 0.0,
			"0.019": 0.0,
			"0.02": 0.0,
			"0.021": 0.0,
			"0.022": 0.0,
			"0.023": 0.0,
			"0.024": 0.0,
			"0.025": 0.0
		}
	}
}
