{
	 "smiles": "NC(CC(O)=O)C(=O)NC(CC1=CC=CC=C1)C(O)=O", 
	 "Tm": 511.15, 
	 "num_atms": 36, 
	 "gaussian": { 
		 "optdone": 1, 
		 "sigma_profile": "yes", 
		 "theory": "DFT", 
		 "functional": "B3LYP", 
		 "basiset": "6-31G**", 
		 "properties": { 
			 "R2extent": 5828.9632, 
			 "electric_dipole_moment_norm": 3.65037710244, 
			 "electric_quadrupole_moment_norm": 12.739498193, 
			 "total_energy": -990.689086881, 
			 "HOMO_LUMO_gap": 0.21044, 
			 "cosmo_polarized_energy": -25.61, 
			 "cosmo_cavitation_energy": 39.25, 
			 "cosmo_dispersion_energy": -25.91, 
			 "cosmo_repulsion_energy": 1.99, 
			 "cosmo_total_nonelectrostatic_energy": 15.32, 
			 "SMD_solvation_energy": 7.49 
		},
		"coords": [
			{
				"x": 1.5257231311,
				"y": 0.5743145953,
				"z": -2.2099589005,
				"element": "N" 
			},
			{
				"x": 0.10471966,
				"y": 0.8830536618,
				"z": -2.3036375144,
				"element": "C" 
			},
			{
				"x": -0.6142965287,
				"y": -0.1649305578,
				"z": -3.2022865836,
				"element": "C" 
			},
			{
				"x": -0.9105745944,
				"y": -1.4562751328,
				"z": -2.462815023,
				"element": "C" 
			},
			{
				"x": 0.2266254442,
				"y": -2.0908098467,
				"z": -2.0653975105,
				"element": "O" 
			},
			{
				"x": -2.0139249705,
				"y": -1.8686018728,
				"z": -2.1890292911,
				"element": "O" 
			},
			{
				"x": -0.6960931642,
				"y": 1.0050401195,
				"z": -0.9869630651,
				"element": "C" 
			},
			{
				"x": -1.6937188341,
				"y": 1.7102269795,
				"z": -0.9008917822,
				"element": "O" 
			},
			{
				"x": -0.2459766219,
				"y": 0.2265410582,
				"z": 0.0490047386,
				"element": "N" 
			},
			{
				"x": -1.1053607296,
				"y": -0.0798272253,
				"z": 1.169846908,
				"element": "C" 
			},
			{
				"x": -0.7164737229,
				"y": 0.7040033426,
				"z": 2.4603032077,
				"element": "C" 
			},
			{
				"x": 0.6850172315,
				"y": 0.4297951304,
				"z": 2.9597916372,
				"element": "C" 
			},
			{
				"x": 0.9479996603,
				"y": -0.6493112165,
				"z": 3.8158770826,
				"element": "C" 
			},
			{
				"x": 2.2463157186,
				"y": -0.9133956673,
				"z": 4.2533098042,
				"element": "C" 
			},
			{
				"x": 3.3035284836,
				"y": -0.0996550907,
				"z": 3.8422540531,
				"element": "C" 
			},
			{
				"x": 3.0539868228,
				"y": 0.9796469408,
				"z": 2.9928152217,
				"element": "C" 
			},
			{
				"x": 1.7544719439,
				"y": 1.2409251542,
				"z": 2.5559283201,
				"element": "C" 
			},
			{
				"x": -1.1006705618,
				"y": -1.5985790192,
				"z": 1.3878822016,
				"element": "C" 
			},
			{
				"x": -1.9666422284,
				"y": -2.063425214,
				"z": 2.314134669,
				"element": "O" 
			},
			{
				"x": -0.3677507348,
				"y": -2.3651990985,
				"z": 0.8059547729,
				"element": "O" 
			},
			{
				"x": 1.6864564747,
				"y": -0.4056951896,
				"z": -1.9985780569,
				"element": "H" 
			},
			{
				"x": 1.9931084754,
				"y": 1.1466062577,
				"z": -1.5141841521,
				"element": "H" 
			},
			{
				"x": -0.0116838904,
				"y": 1.8552680439,
				"z": -2.7941737386,
				"element": "H" 
			},
			{
				"x": 0.0313012962,
				"y": -0.3605755958,
				"z": -4.0646626365,
				"element": "H" 
			},
			{
				"x": -1.5696937127,
				"y": 0.2350125886,
				"z": -3.5418257416,
				"element": "H" 
			},
			{
				"x": -0.038169232,
				"y": -2.7611507211,
				"z": -1.4080158111,
				"element": "H" 
			},
			{
				"x": 0.4903754637,
				"y": -0.4418624681,
				"z": -0.1366004924,
				"element": "H" 
			},
			{
				"x": -2.1197046208,
				"y": 0.2324771807,
				"z": 0.8866924311,
				"element": "H" 
			},
			{
				"x": -1.4475314448,
				"y": 0.486019559,
				"z": 3.2499021119,
				"element": "H" 
			},
			{
				"x": -0.8343333789,
				"y": 1.763304112,
				"z": 2.2144321113,
				"element": "H" 
			},
			{
				"x": 0.1318343382,
				"y": -1.2886955072,
				"z": 4.1430960575,
				"element": "H" 
			},
			{
				"x": 2.4304230139,
				"y": -1.75264395,
				"z": 4.9177338646,
				"element": "H" 
			},
			{
				"x": 4.3137542259,
				"y": -0.3021590384,
				"z": 4.1857970488,
				"element": "H" 
			},
			{
				"x": 3.8699332808,
				"y": 1.6223915249,
				"z": 2.6744615814,
				"element": "H" 
			},
			{
				"x": 1.5627872866,
				"y": 2.0864729594,
				"z": 1.9007373122,
				"element": "H" 
			},
			{
				"x": -2.5227629804,
				"y": -1.3467067968,
				"z": 2.6528651644,
				"element": "H" 
			}
		],
		 "valence_orbital": [ 
			{
				"type": "occ",
				"energy": -0.2754,
				"method": "rhf"
			},
			{
				"type": "occ",
				"energy": -0.27073,
				"method": "rhf"
			},
			{
				"type": "occ",
				"energy": -0.25902,
				"method": "rhf"
			},
			{
				"type": "occ",
				"energy": -0.2538,
				"method": "rhf"
			},
			{
				"type": "occ",
				"energy": -0.23294,
				"method": "rhf"
			},
			{
				"type": "unocc",
				"energy": -0.0225,
				"method": "rhf"
			},
			{
				"type": "unocc",
				"energy": -0.01398,
				"method": "rhf"
			},
			{
				"type": "unocc",
				"energy": -0.0057,
				"method": "rhf"
			},
			{
				"type": "unocc",
				"energy": 0.00185,
				"method": "rhf"
			},
			{
				"type": "unocc",
				"energy": 0.01229,
				"method": "rhf"
			}
		],
		"cosmo_sigma_profile": { 
			"-0.025": 0.0,
			"-0.024": 0.0,
			"-0.023": 0.0,
			"-0.022": 0.0,
			"-0.021": 0.0,
			"-0.02": 0.238365431336,
			"-0.019": 1.53175315174,
			"-0.018": 1.17908600821,
			"-0.017": 1.25134227206,
			"-0.016": 0.983814788168,
			"-0.015": 1.68654087098,
			"-0.014": 0.969739979685,
			"-0.013": 1.5176742632,
			"-0.012": 2.32721604613,
			"-0.011": 2.68511142321,
			"-0.01": 4.53064434976,
			"-0.009": 4.21736347691,
			"-0.008": 5.03984497892,
			"-0.007": 7.60808366403,
			"-0.006": 13.529043299,
			"-0.005": 24.7194425712,
			"-0.004": 24.2646196304,
			"-0.003": 24.4925919251,
			"-0.002": 17.9410132406,
			"-0.001": 16.1340994782,
			"0.0": 16.3482063844,
			"0.001": 14.6603739078,
			"0.002": 16.2871246801,
			"0.003": 12.7007587062,
			"0.004": 14.9033040823,
			"0.005": 15.1027065104,
			"0.006": 12.2601140436,
			"0.007": 7.11129582771,
			"0.008": 6.14711299747,
			"0.009": 7.13466556566,
			"0.01": 6.71849171409,
			"0.011": 7.18986835918,
			"0.012": 6.26180599893,
			"0.013": 5.20895046839,
			"0.014": 2.40835551252,
			"0.015": 0.820593799938,
			"0.016": 0.491674072598,
			"0.017": 0.385182046837,
			"0.018": 0.28845405597,
			"0.019": 0.0,
			"0.02": 0.0,
			"0.021": 0.0,
			"0.022": 0.0,
			"0.023": 0.0,
			"0.024": 0.0,
			"0.025": 0.0
		}
	}
}
