{
	 "smiles": "CN(C)C1=CC=CC(O)=C1", 
	 "Tm": 357.15, 
	 "num_atms": 21, 
	 "gaussian": { 
		 "optdone": 1, 
		 "sigma_profile": "yes", 
		 "theory": "DFT", 
		 "functional": "B3LYP", 
		 "basiset": "6-31G**", 
		 "properties": { 
			 "R2extent": 1958.1397, 
			 "electric_dipole_moment_norm": 3.08301355657, 
			 "electric_quadrupole_moment_norm": 8.68174566432, 
			 "total_energy": -441.443197725, 
			 "HOMO_LUMO_gap": 0.20185, 
			 "cosmo_polarized_energy": -9.92, 
			 "cosmo_cavitation_energy": 23.47, 
			 "cosmo_dispersion_energy": -17.62, 
			 "cosmo_repulsion_energy": 1.41, 
			 "cosmo_total_nonelectrostatic_energy": 7.26, 
			 "SMD_solvation_energy": 3.96 
		},
		"coords": [
			{
				"x": -2.2264277546,
				"y": 0.3377392152,
				"z": -0.02974549,
				"element": "C" 
			},
			{
				"x": -1.0207035805,
				"y": 0.2455123673,
				"z": -0.8354952654,
				"element": "N" 
			},
			{
				"x": -0.978104947,
				"y": -0.7622942913,
				"z": -1.8796239436,
				"element": "C" 
			},
			{
				"x": 0.1733234677,
				"y": 0.7510857764,
				"z": -0.3272288046,
				"element": "C" 
			},
			{
				"x": 0.1948706179,
				"y": 1.5553495281,
				"z": 0.8343664174,
				"element": "C" 
			},
			{
				"x": 1.3987917769,
				"y": 2.0763915199,
				"z": 1.3042446796,
				"element": "C" 
			},
			{
				"x": 2.6103087428,
				"y": 1.824928113,
				"z": 0.6664907063,
				"element": "C" 
			},
			{
				"x": 2.596116359,
				"y": 1.0198513442,
				"z": -0.4756563187,
				"element": "C" 
			},
			{
				"x": 3.7973360867,
				"y": 0.7747235417,
				"z": -1.0853481764,
				"element": "O" 
			},
			{
				"x": 1.4041729935,
				"y": 0.4839961751,
				"z": -0.9670230833,
				"element": "C" 
			},
			{
				"x": -2.1469126156,
				"y": -0.1977924749,
				"z": 0.9296484998,
				"element": "H" 
			},
			{
				"x": -3.0627034093,
				"y": -0.0854779556,
				"z": -0.5889549162,
				"element": "H" 
			},
			{
				"x": -2.4735927962,
				"y": 1.3826955919,
				"z": 0.1875457332,
				"element": "H" 
			},
			{
				"x": -0.4534970802,
				"y": -1.6817312004,
				"z": -1.5728089231,
				"element": "H" 
			},
			{
				"x": -0.4838932277,
				"y": -0.3766015708,
				"z": -2.7789919619,
				"element": "H" 
			},
			{
				"x": -1.9979902236,
				"y": -1.0305874036,
				"z": -2.1603952801,
				"element": "H" 
			},
			{
				"x": -0.71851201,
				"y": 1.7751723313,
				"z": 1.3712781661,
				"element": "H" 
			},
			{
				"x": 1.3875209912,
				"y": 2.6938941753,
				"z": 2.1984843464,
				"element": "H" 
			},
			{
				"x": 3.5499269147,
				"y": 2.2253909794,
				"z": 1.0292922789,
				"element": "H" 
			},
			{
				"x": 3.6482910155,
				"y": 0.2152993363,
				"z": -1.8583308731,
				"element": "H" 
			},
			{
				"x": 1.4425786788,
				"y": -0.1427450984,
				"z": -1.8517477911,
				"element": "H" 
			}
		],
		 "valence_orbital": [ 
			{
				"type": "occ",
				"energy": -0.33624,
				"method": "rhf"
			},
			{
				"type": "occ",
				"energy": -0.32969,
				"method": "rhf"
			},
			{
				"type": "occ",
				"energy": -0.26951,
				"method": "rhf"
			},
			{
				"type": "occ",
				"energy": -0.21618,
				"method": "rhf"
			},
			{
				"type": "occ",
				"energy": -0.18393,
				"method": "rhf"
			},
			{
				"type": "unocc",
				"energy": 0.01792,
				"method": "rhf"
			},
			{
				"type": "unocc",
				"energy": 0.03253,
				"method": "rhf"
			},
			{
				"type": "unocc",
				"energy": 0.07547,
				"method": "rhf"
			},
			{
				"type": "unocc",
				"energy": 0.08765,
				"method": "rhf"
			},
			{
				"type": "unocc",
				"energy": 0.11198,
				"method": "rhf"
			}
		],
		"cosmo_sigma_profile": { 
			"-0.025": 0.0,
			"-0.024": 0.0,
			"-0.023": 0.0,
			"-0.022": 0.0,
			"-0.021": 0.0,
			"-0.02": 0.0,
			"-0.019": 0.0,
			"-0.018": 0.0280627101543,
			"-0.017": 0.795402104487,
			"-0.016": 0.951866565018,
			"-0.015": 1.18818913482,
			"-0.014": 1.03570491627,
			"-0.013": 0.657606834203,
			"-0.012": 1.32827211712,
			"-0.011": 0.717187222725,
			"-0.01": 0.596449929324,
			"-0.009": 1.42538302447,
			"-0.008": 1.09119890348,
			"-0.007": 1.08486680169,
			"-0.006": 4.06289568222,
			"-0.005": 11.8898692403,
			"-0.004": 14.6540090594,
			"-0.003": 18.4000718995,
			"-0.002": 21.5997521761,
			"-0.001": 20.6181039324,
			"0.0": 10.6007668706,
			"0.001": 5.64712819439,
			"0.002": 6.57736077371,
			"0.003": 6.3173686912,
			"0.004": 8.51105783442,
			"0.005": 10.1189896659,
			"0.006": 11.8204648645,
			"0.007": 11.4982655927,
			"0.008": 5.20507862414,
			"0.009": 1.15909429033,
			"0.01": 1.55562864311,
			"0.011": 1.89585614444,
			"0.012": 1.90520648144,
			"0.013": 0.133520547493,
			"0.014": 0.0,
			"0.015": 0.0,
			"0.016": 0.0,
			"0.017": 0.0,
			"0.018": 0.0,
			"0.019": 0.0,
			"0.02": 0.0,
			"0.021": 0.0,
			"0.022": 0.0,
			"0.023": 0.0,
			"0.024": 0.0,
			"0.025": 0.0
		}
	}
}
