{
	 "smiles": "OP(O)(=O)OC1=CC=C(C=C1)C1(OC(=O)C2=CC=CC=C12)C1=CC=C(OP(O)(O)=O)C=C1", 
	 "Tm": 471.15, 
	 "num_atms": 48, 
	 "gaussian": { 
		 "optdone": 1, 
		 "sigma_profile": "yes", 
		 "theory": "DFT", 
		 "functional": "B3LYP", 
		 "basiset": "6-31G**", 
		 "properties": { 
			 "R2extent": 20725.447, 
			 "electric_dipole_moment_norm": 6.62808400294, 
			 "electric_quadrupole_moment_norm": 30.2380100625, 
			 "total_energy": -2206.89109402, 
			 "HOMO_LUMO_gap": 0.18802, 
			 "cosmo_polarized_energy": -40.2, 
			 "cosmo_cavitation_energy": 57.75, 
			 "cosmo_dispersion_energy": -40.0, 
			 "cosmo_repulsion_energy": 3.05, 
			 "cosmo_total_nonelectrostatic_energy": 20.8, 
			 "SMD_solvation_energy": 15.96 
		},
		"coords": [
			{
				"x": -2.1619558495,
				"y": -3.3687826535,
				"z": -3.470085348,
				"element": "O" 
			},
			{
				"x": -0.7366611614,
				"y": -3.7752215781,
				"z": -4.1168689309,
				"element": "P" 
			},
			{
				"x": -0.0823368994,
				"y": -4.6682035976,
				"z": -2.9447966239,
				"element": "O" 
			},
			{
				"x": -0.800265333,
				"y": -4.3805520207,
				"z": -5.4588068844,
				"element": "O" 
			},
			{
				"x": 0.1611704563,
				"y": -2.4402673572,
				"z": -4.0625758504,
				"element": "O" 
			},
			{
				"x": 0.1524073101,
				"y": -1.4588490517,
				"z": -3.0720348369,
				"element": "C" 
			},
			{
				"x": 0.1803380014,
				"y": -0.1359842399,
				"z": -3.5068428667,
				"element": "C" 
			},
			{
				"x": 0.2234908945,
				"y": 0.8960768997,
				"z": -2.5712129038,
				"element": "C" 
			},
			{
				"x": 0.2450245596,
				"y": 0.6149514305,
				"z": -1.2005015819,
				"element": "C" 
			},
			{
				"x": 0.2324367172,
				"y": -0.7233415536,
				"z": -0.7873059474,
				"element": "C" 
			},
			{
				"x": 0.1875489034,
				"y": -1.7652504387,
				"z": -1.7125539403,
				"element": "C" 
			},
			{
				"x": 0.2168473102,
				"y": 1.7398618098,
				"z": -0.1596618575,
				"element": "C" 
			},
			{
				"x": 0.6725476469,
				"y": 2.9767235586,
				"z": -0.795222564,
				"element": "O" 
			},
			{
				"x": -0.2777497749,
				"y": 3.9707311395,
				"z": -0.7375367486,
				"element": "C" 
			},
			{
				"x": -0.0866314819,
				"y": 5.0774581949,
				"z": -1.1749709505,
				"element": "O" 
			},
			{
				"x": -1.4783987838,
				"y": 3.3954248439,
				"z": -0.095378743,
				"element": "C" 
			},
			{
				"x": -2.7160600301,
				"y": 3.9928094577,
				"z": 0.1358737274,
				"element": "C" 
			},
			{
				"x": -3.7110886325,
				"y": 3.2136981361,
				"z": 0.7244040889,
				"element": "C" 
			},
			{
				"x": -3.4598368683,
				"y": 1.8732299166,
				"z": 1.0550683015,
				"element": "C" 
			},
			{
				"x": -2.2143794823,
				"y": 1.2848360446,
				"z": 0.8138092049,
				"element": "C" 
			},
			{
				"x": -1.217640117,
				"y": 2.0723697655,
				"z": 0.2409943914,
				"element": "C" 
			},
			{
				"x": 1.1717004462,
				"y": 1.4755408024,
				"z": 1.0091203783,
				"element": "C" 
			},
			{
				"x": 2.5294192939,
				"y": 1.2693831991,
				"z": 0.7205659072,
				"element": "C" 
			},
			{
				"x": 3.4627395769,
				"y": 1.0686472929,
				"z": 1.7327623315,
				"element": "C" 
			},
			{
				"x": 3.0234747131,
				"y": 1.0575102677,
				"z": 3.0588260818,
				"element": "C" 
			},
			{
				"x": 3.9039691582,
				"y": 0.9099281788,
				"z": 4.1328063394,
				"element": "O" 
			},
			{
				"x": 5.0945783253,
				"y": -0.1782972175,
				"z": 4.168903671,
				"element": "P" 
			},
			{
				"x": 4.268841142,
				"y": -1.5449361681,
				"z": 4.3689747498,
				"element": "O" 
			},
			{
				"x": 5.6942366915,
				"y": 0.1137971946,
				"z": 5.6313334567,
				"element": "O" 
			},
			{
				"x": 6.0812594803,
				"y": -0.1707080441,
				"z": 3.0666696033,
				"element": "O" 
			},
			{
				"x": 1.6850599709,
				"y": 1.2631745228,
				"z": 3.373686331,
				"element": "C" 
			},
			{
				"x": 0.7645107286,
				"y": 1.4788661479,
				"z": 2.3464214673,
				"element": "C" 
			},
			{
				"x": -2.8013811449,
				"y": -3.1799504214,
				"z": -4.1719818461,
				"element": "H" 
			},
			{
				"x": -0.2490108135,
				"y": -5.6094832503,
				"z": -3.0965799312,
				"element": "H" 
			},
			{
				"x": 0.1743156915,
				"y": 0.0713943702,
				"z": -4.5715509526,
				"element": "H" 
			},
			{
				"x": 0.2559241777,
				"y": 1.9246997808,
				"z": -2.9104048154,
				"element": "H" 
			},
			{
				"x": 0.2807265038,
				"y": -0.9627360249,
				"z": 0.2705021881,
				"element": "H" 
			},
			{
				"x": 0.1953628872,
				"y": -2.7978117916,
				"z": -1.3838306985,
				"element": "H" 
			},
			{
				"x": -2.8847543526,
				"y": 5.0279937141,
				"z": -0.1434421069,
				"element": "H" 
			},
			{
				"x": -4.6899086104,
				"y": 3.6398217686,
				"z": 0.9220627755,
				"element": "H" 
			},
			{
				"x": -4.2508386738,
				"y": 1.2782241163,
				"z": 1.5024412439,
				"element": "H" 
			},
			{
				"x": -2.041465674,
				"y": 0.2417658525,
				"z": 1.059493564,
				"element": "H" 
			},
			{
				"x": 2.8624069455,
				"y": 1.2801327511,
				"z": -0.3122432622,
				"element": "H" 
			},
			{
				"x": 4.5128551572,
				"y": 0.9217857015,
				"z": 1.5081391525,
				"element": "H" 
			},
			{
				"x": 4.7780310488,
				"y": -2.2987244421,
				"z": 4.0381257185,
				"element": "H" 
			},
			{
				"x": 6.5185187125,
				"y": 0.6157628923,
				"z": 5.5596570472,
				"element": "H" 
			},
			{
				"x": 1.376722784,
				"y": 1.2586913311,
				"z": 4.413421586,
				"element": "H" 
			},
			{
				"x": -0.2746015515,
				"y": 1.6516087687,
				"z": 2.6023268841,
				"element": "H" 
			}
		],
		 "valence_orbital": [ 
			{
				"type": "occ",
				"energy": -0.27328,
				"method": "rhf"
			},
			{
				"type": "occ",
				"energy": -0.26757,
				"method": "rhf"
			},
			{
				"type": "occ",
				"energy": -0.26378,
				"method": "rhf"
			},
			{
				"type": "occ",
				"energy": -0.25132,
				"method": "rhf"
			},
			{
				"type": "occ",
				"energy": -0.24285,
				"method": "rhf"
			},
			{
				"type": "unocc",
				"energy": -0.05483,
				"method": "rhf"
			},
			{
				"type": "unocc",
				"energy": -0.03357,
				"method": "rhf"
			},
			{
				"type": "unocc",
				"energy": -0.02348,
				"method": "rhf"
			},
			{
				"type": "unocc",
				"energy": -0.01809,
				"method": "rhf"
			},
			{
				"type": "unocc",
				"energy": -0.00903,
				"method": "rhf"
			}
		],
		"cosmo_sigma_profile": { 
			"-0.025": 0.0,
			"-0.024": 0.0,
			"-0.023": 0.0,
			"-0.022": 0.0,
			"-0.021": 0.0246025564479,
			"-0.02": 2.65957839965,
			"-0.019": 4.90131553636,
			"-0.018": 3.68001944775,
			"-0.017": 3.27000096165,
			"-0.016": 3.77409928124,
			"-0.015": 3.97779132944,
			"-0.014": 2.62558563619,
			"-0.013": 2.27794019407,
			"-0.012": 2.59002488865,
			"-0.011": 3.76061242804,
			"-0.01": 2.15234679693,
			"-0.009": 2.52549148991,
			"-0.008": 3.15903430278,
			"-0.007": 15.5444219921,
			"-0.006": 25.7391543819,
			"-0.005": 26.0204184823,
			"-0.004": 21.7267084536,
			"-0.003": 22.0978452949,
			"-0.002": 24.5267873698,
			"-0.001": 24.0038898462,
			"0.0": 27.3986496848,
			"0.001": 29.3372714377,
			"0.002": 41.6336345622,
			"0.003": 39.8044338604,
			"0.004": 16.7775554461,
			"0.005": 13.2731036629,
			"0.006": 10.158729294,
			"0.007": 12.4300804887,
			"0.008": 11.6493615957,
			"0.009": 11.5708447287,
			"0.01": 7.53894022099,
			"0.011": 8.03613606307,
			"0.012": 7.91275635303,
			"0.013": 9.75666574311,
			"0.014": 8.24444244364,
			"0.015": 0.0401569849474,
			"0.016": 0.0,
			"0.017": 0.0,
			"0.018": 0.0,
			"0.019": 0.0,
			"0.02": 0.0,
			"0.021": 0.0,
			"0.022": 0.0,
			"0.023": 0.0,
			"0.024": 0.0,
			"0.025": 0.0
		}
	}
}
