{
	 "smiles": "BrC1=CC=CC=C1COC(=O)ON1C(=O)CCC1=O", 
	 "Tm": 380.15, 
	 "num_atms": 29, 
	 "gaussian": { 
		 "optdone": 1, 
		 "sigma_profile": "yes", 
		 "theory": "DFT", 
		 "functional": "B3LYP", 
		 "basiset": "6-31G**", 
		 "properties": { 
			 "R2extent": 10525.1916, 
			 "electric_dipole_moment_norm": 2.84712409986, 
			 "electric_quadrupole_moment_norm": 14.9960390794, 
			 "total_energy": -3465.55338292, 
			 "HOMO_LUMO_gap": 0.21621, 
			 "cosmo_polarized_energy": -16.34, 
			 "cosmo_cavitation_energy": 37.38, 
			 "cosmo_dispersion_energy": -26.36, 
			 "cosmo_repulsion_energy": 2.05, 
			 "cosmo_total_nonelectrostatic_energy": 13.07, 
			 "SMD_solvation_energy": 8.26 
		},
		"coords": [
			{
				"x": -2.2142627899,
				"y": -1.9500733536,
				"z": 5.3777128464,
				"element": "Br" 
			},
			{
				"x": -2.7882175729,
				"y": -2.1723051345,
				"z": 3.5592139832,
				"element": "C" 
			},
			{
				"x": -4.0953656906,
				"y": -2.5935063477,
				"z": 3.3301358283,
				"element": "C" 
			},
			{
				"x": -4.5378020564,
				"y": -2.7603444436,
				"z": 2.0177493233,
				"element": "C" 
			},
			{
				"x": -3.6709427016,
				"y": -2.5053768845,
				"z": 0.9562488554,
				"element": "C" 
			},
			{
				"x": -2.3632453605,
				"y": -2.0866705971,
				"z": 1.2025739599,
				"element": "C" 
			},
			{
				"x": -1.8971578593,
				"y": -1.9101133754,
				"z": 2.510843448,
				"element": "C" 
			},
			{
				"x": -0.4859940546,
				"y": -1.4494119373,
				"z": 2.8082967295,
				"element": "C" 
			},
			{
				"x": 0.3105328604,
				"y": -1.3452538334,
				"z": 1.6091393209,
				"element": "O" 
			},
			{
				"x": 0.3082143142,
				"y": -0.1600231635,
				"z": 1.008223824,
				"element": "C" 
			},
			{
				"x": -0.2153492337,
				"y": 0.8656004688,
				"z": 1.3450252014,
				"element": "O" 
			},
			{
				"x": 1.06069616,
				"y": -0.3373685583,
				"z": -0.1456979843,
				"element": "O" 
			},
			{
				"x": 1.0276066352,
				"y": 0.7805855796,
				"z": -0.9431424933,
				"element": "N" 
			},
			{
				"x": -0.0472292703,
				"y": 1.0055727659,
				"z": -1.8084463735,
				"element": "C" 
			},
			{
				"x": -0.9941932069,
				"y": 0.2674571165,
				"z": -1.9401852445,
				"element": "O" 
			},
			{
				"x": 0.2567765089,
				"y": 2.3305013914,
				"z": -2.4967647633,
				"element": "C" 
			},
			{
				"x": 1.5646473558,
				"y": 2.8493391771,
				"z": -1.8584518466,
				"element": "C" 
			},
			{
				"x": 1.9744054114,
				"y": 1.8063274802,
				"z": -0.8231419259,
				"element": "C" 
			},
			{
				"x": 2.9020597229,
				"y": 1.8123349892,
				"z": -0.0533921234,
				"element": "O" 
			},
			{
				"x": -4.7536983031,
				"y": -2.7857307582,
				"z": 4.1696298682,
				"element": "H" 
			},
			{
				"x": -5.556505657,
				"y": -3.087237144,
				"z": 1.8328053613,
				"element": "H" 
			},
			{
				"x": -4.007636678,
				"y": -2.630073109,
				"z": -0.0680661515,
				"element": "H" 
			},
			{
				"x": -1.6998126673,
				"y": -1.8933010806,
				"z": 0.3668540887,
				"element": "H" 
			},
			{
				"x": -0.4890621574,
				"y": -0.485194607,
				"z": 3.3230215325,
				"element": "H" 
			},
			{
				"x": 0.0408020335,
				"y": -2.1765774145,
				"z": 3.4299448544,
				"element": "H" 
			},
			{
				"x": -0.5926576478,
				"y": 3.000811145,
				"z": -2.3416664288,
				"element": "H" 
			},
			{
				"x": 0.3408821706,
				"y": 2.1572192788,
				"z": -3.5732656435,
				"element": "H" 
			},
			{
				"x": 2.3789881894,
				"y": 2.9677336895,
				"z": -2.5785612409,
				"element": "H" 
			},
			{
				"x": 1.441521545,
				"y": 3.8078786601,
				"z": -1.347736806,
				"element": "H" 
			}
		],
		 "valence_orbital": [ 
			{
				"type": "occ",
				"energy": -0.29486,
				"method": "rhf"
			},
			{
				"type": "occ",
				"energy": -0.29344,
				"method": "rhf"
			},
			{
				"type": "occ",
				"energy": -0.2715,
				"method": "rhf"
			},
			{
				"type": "occ",
				"energy": -0.26204,
				"method": "rhf"
			},
			{
				"type": "occ",
				"energy": -0.24756,
				"method": "rhf"
			},
			{
				"type": "unocc",
				"energy": -0.03135,
				"method": "rhf"
			},
			{
				"type": "unocc",
				"energy": -0.01932,
				"method": "rhf"
			},
			{
				"type": "unocc",
				"energy": -0.01553,
				"method": "rhf"
			},
			{
				"type": "unocc",
				"energy": 0.00045,
				"method": "rhf"
			},
			{
				"type": "unocc",
				"energy": 0.011,
				"method": "rhf"
			}
		],
		"cosmo_sigma_profile": { 
			"-0.025": 0.0,
			"-0.024": 0.0,
			"-0.023": 0.0,
			"-0.022": 0.0,
			"-0.021": 0.0,
			"-0.02": 0.0,
			"-0.019": 0.0,
			"-0.018": 0.0,
			"-0.017": 0.0,
			"-0.016": 0.0,
			"-0.015": 0.0,
			"-0.014": 0.0,
			"-0.013": 0.0,
			"-0.012": 0.0,
			"-0.011": 0.0,
			"-0.01": 0.022981025881,
			"-0.009": 1.08352725462,
			"-0.008": 15.1434398649,
			"-0.007": 20.3466502642,
			"-0.006": 18.3090495586,
			"-0.005": 20.7931111551,
			"-0.004": 20.2129532384,
			"-0.003": 16.5362286571,
			"-0.002": 13.6309877939,
			"-0.001": 15.3894769403,
			"0.0": 16.4713410115,
			"0.001": 21.3377329081,
			"0.002": 23.6044289632,
			"0.003": 23.8068747435,
			"0.004": 21.2707357733,
			"0.005": 11.9772779969,
			"0.006": 6.64255431606,
			"0.007": 5.1874034427,
			"0.008": 5.47590170738,
			"0.009": 7.52320882028,
			"0.01": 8.94973083605,
			"0.011": 7.06554025489,
			"0.012": 1.62887354518,
			"0.013": 0.0,
			"0.014": 0.0,
			"0.015": 0.0,
			"0.016": 0.0,
			"0.017": 0.0,
			"0.018": 0.0,
			"0.019": 0.0,
			"0.02": 0.0,
			"0.021": 0.0,
			"0.022": 0.0,
			"0.023": 0.0,
			"0.024": 0.0,
			"0.025": 0.0
		}
	}
}
