{
	 "smiles": "[O-][N+](=O)C1=CC(=CC=C1C(Cl)=CC1=CC=CC(C=C(Cl)C2=C(C=C(C=C2)C#N)[N+]([O-])=O)=C1)C#N", 
	 "Tm": 541.15, 
	 "num_atms": 46, 
	 "gaussian": { 
		 "optdone": 1, 
		 "sigma_profile": "yes", 
		 "theory": "DFT", 
		 "functional": "B3LYP", 
		 "basiset": "6-31G**", 
		 "properties": { 
			 "R2extent": 15432.0196, 
			 "electric_dipole_moment_norm": 6.36682569732, 
			 "electric_quadrupole_moment_norm": 25.4737249198, 
			 "total_energy": -2361.78552176, 
			 "HOMO_LUMO_gap": 0.11828, 
			 "cosmo_polarized_energy": -26.26, 
			 "cosmo_cavitation_energy": 59.07, 
			 "cosmo_dispersion_energy": -34.91, 
			 "cosmo_repulsion_energy": 2.64, 
			 "cosmo_total_nonelectrostatic_energy": 26.79, 
			 "SMD_solvation_energy": 15.38 
		},
		"coords": [
			{
				"x": -0.2908995195,
				"y": -4.6386717331,
				"z": 1.0560353006,
				"element": "O" 
			},
			{
				"x": -0.7515722588,
				"y": -4.0961395779,
				"z": 0.0567671921,
				"element": "N" 
			},
			{
				"x": -0.5576590748,
				"y": -4.4591203221,
				"z": -1.1022000803,
				"element": "O" 
			},
			{
				"x": -1.6378531111,
				"y": -2.9305073799,
				"z": 0.2540063359,
				"element": "C" 
			},
			{
				"x": -2.6023712189,
				"y": -2.7206569263,
				"z": -0.7257066041,
				"element": "C" 
			},
			{
				"x": -3.5085745217,
				"y": -1.6637262221,
				"z": -0.583825631,
				"element": "C" 
			},
			{
				"x": -3.4261340418,
				"y": -0.8230022895,
				"z": 0.5382709297,
				"element": "C" 
			},
			{
				"x": -2.4464365906,
				"y": -1.0494093867,
				"z": 1.4983688248,
				"element": "C" 
			},
			{
				"x": -1.5196537747,
				"y": -2.0971004569,
				"z": 1.3804583894,
				"element": "C" 
			},
			{
				"x": -0.4679823766,
				"y": -2.2522340817,
				"z": 2.4223474985,
				"element": "C" 
			},
			{
				"x": -1.0848574241,
				"y": -2.9247883914,
				"z": 3.9329658051,
				"element": "Cl" 
			},
			{
				"x": 0.8308872419,
				"y": -1.9335572594,
				"z": 2.331924303,
				"element": "C" 
			},
			{
				"x": 1.5388226198,
				"y": -1.3484040388,
				"z": 1.1755033376,
				"element": "C" 
			},
			{
				"x": 2.8314043908,
				"y": -1.8151267682,
				"z": 0.8767800103,
				"element": "C" 
			},
			{
				"x": 3.530705259,
				"y": -1.3130540204,
				"z": -0.2190913905,
				"element": "C" 
			},
			{
				"x": 2.9703699792,
				"y": -0.3152834112,
				"z": -1.0140534507,
				"element": "C" 
			},
			{
				"x": 1.7055180387,
				"y": 0.211963929,
				"z": -0.7018009681,
				"element": "C" 
			},
			{
				"x": 1.1463669215,
				"y": 1.2933747613,
				"z": -1.5375832636,
				"element": "C" 
			},
			{
				"x": 0.5034247169,
				"y": 2.3837558948,
				"z": -1.0958985668,
				"element": "C" 
			},
			{
				"x": -0.1241238744,
				"y": 3.5532769154,
				"z": -2.2588594951,
				"element": "Cl" 
			},
			{
				"x": 0.4107348796,
				"y": 2.8493662808,
				"z": 0.3160670983,
				"element": "C" 
			},
			{
				"x": -0.7565805661,
				"y": 2.917444519,
				"z": 1.1021025114,
				"element": "C" 
			},
			{
				"x": -0.7584181724,
				"y": 3.4533636243,
				"z": 2.3869273477,
				"element": "C" 
			},
			{
				"x": 0.4336068552,
				"y": 3.9400639293,
				"z": 2.9331504828,
				"element": "C" 
			},
			{
				"x": 1.6185681795,
				"y": 3.8669999449,
				"z": 2.1825390624,
				"element": "C" 
			},
			{
				"x": 1.5939548554,
				"y": 3.3328747817,
				"z": 0.9003126456,
				"element": "C" 
			},
			{
				"x": 0.4436524007,
				"y": 4.4987465262,
				"z": 4.2540019049,
				"element": "C" 
			},
			{
				"x": 0.4601171208,
				"y": 4.9520597403,
				"z": 5.3244220973,
				"element": "N" 
			},
			{
				"x": -2.0348304864,
				"y": 2.3525678761,
				"z": 0.6284165156,
				"element": "N" 
			},
			{
				"x": -2.9930551034,
				"y": 2.3821190153,
				"z": 1.4043264293,
				"element": "O" 
			},
			{
				"x": -2.0655274901,
				"y": 1.8531466491,
				"z": -0.492024244,
				"element": "O" 
			},
			{
				"x": 0.9959003362,
				"y": -0.3265758357,
				"z": 0.3817254295,
				"element": "C" 
			},
			{
				"x": -4.5134168847,
				"y": -1.4455231477,
				"z": -1.5837845183,
				"element": "C" 
			},
			{
				"x": -5.331138358,
				"y": -1.2730810756,
				"z": -2.3919955819,
				"element": "N" 
			},
			{
				"x": -2.6376366909,
				"y": -3.3804700524,
				"z": -1.583173776,
				"element": "H" 
			},
			{
				"x": -4.1002666436,
				"y": 0.0191446033,
				"z": 0.6406046226,
				"element": "H" 
			},
			{
				"x": -2.3805577671,
				"y": -0.3885202079,
				"z": 2.3563152552,
				"element": "H" 
			},
			{
				"x": 1.4537908086,
				"y": -2.1796834292,
				"z": 3.1885365891,
				"element": "H" 
			},
			{
				"x": 3.2713463146,
				"y": -2.5962170243,
				"z": 1.4901104686,
				"element": "H" 
			},
			{
				"x": 4.5163330466,
				"y": -1.7028096234,
				"z": -0.454796995,
				"element": "H" 
			},
			{
				"x": 3.5194470441,
				"y": 0.0753233244,
				"z": -1.8662696186,
				"element": "H" 
			},
			{
				"x": 1.2704614762,
				"y": 1.1902774376,
				"z": -2.6130106484,
				"element": "H" 
			},
			{
				"x": -1.6833839738,
				"y": 3.4756242489,
				"z": 2.947866132,
				"element": "H" 
			},
			{
				"x": 2.547285945,
				"y": 4.2354431259,
				"z": 2.6044444814,
				"element": "H" 
			},
			{
				"x": 2.5067214528,
				"y": 3.2913324508,
				"z": 0.3169253239,
				"element": "H" 
			},
			{
				"x": 0.0023100404,
				"y": 0.0469930837,
				"z": 0.5941525079,
				"element": "H" 
			}
		],
		 "valence_orbital": [ 
			{
				"type": "occ",
				"energy": -0.29744,
				"method": "rhf"
			},
			{
				"type": "occ",
				"energy": -0.29256,
				"method": "rhf"
			},
			{
				"type": "occ",
				"energy": -0.28855,
				"method": "rhf"
			},
			{
				"type": "occ",
				"energy": -0.25775,
				"method": "rhf"
			},
			{
				"type": "occ",
				"energy": -0.24653,
				"method": "rhf"
			},
			{
				"type": "unocc",
				"energy": -0.12825,
				"method": "rhf"
			},
			{
				"type": "unocc",
				"energy": -0.10536,
				"method": "rhf"
			},
			{
				"type": "unocc",
				"energy": -0.09235,
				"method": "rhf"
			},
			{
				"type": "unocc",
				"energy": -0.08027,
				"method": "rhf"
			},
			{
				"type": "unocc",
				"energy": -0.05903,
				"method": "rhf"
			}
		],
		"cosmo_sigma_profile": { 
			"-0.025": 0.0,
			"-0.024": 0.0,
			"-0.023": 0.0,
			"-0.022": 0.0,
			"-0.021": 0.0,
			"-0.02": 0.0,
			"-0.019": 0.0,
			"-0.018": 0.0,
			"-0.017": 0.0,
			"-0.016": 0.0,
			"-0.015": 0.0,
			"-0.014": 0.0,
			"-0.013": 0.0,
			"-0.012": 0.0,
			"-0.011": 8.16675726064e-05,
			"-0.01": 3.6687195062,
			"-0.009": 8.96613622102,
			"-0.008": 15.233636829,
			"-0.007": 21.3764996827,
			"-0.006": 25.0208723414,
			"-0.005": 25.5384399677,
			"-0.004": 29.0082852155,
			"-0.003": 37.5726984472,
			"-0.002": 39.4049191935,
			"-0.001": 32.747034758,
			"0.0": 29.5726659382,
			"0.001": 29.5872965882,
			"0.002": 27.5997971825,
			"0.003": 30.0189390728,
			"0.004": 32.545139941,
			"0.005": 16.9591636039,
			"0.006": 19.4951673077,
			"0.007": 22.7519529564,
			"0.008": 12.2680610896,
			"0.009": 9.12396786096,
			"0.01": 5.91132154898,
			"0.011": 4.79768088396,
			"0.012": 3.73730513959,
			"0.013": 0.349613930423,
			"0.014": 0.0,
			"0.015": 0.0,
			"0.016": 0.0,
			"0.017": 0.0,
			"0.018": 0.0,
			"0.019": 0.0,
			"0.02": 0.0,
			"0.021": 0.0,
			"0.022": 0.0,
			"0.023": 0.0,
			"0.024": 0.0,
			"0.025": 0.0
		}
	}
}
