{
	 "smiles": "NC1=C(O)C=CC(=C1)S(=O)(=O)N1CCCC1", 
	 "Tm": 437.15, 
	 "num_atms": 30, 
	 "gaussian": { 
		 "optdone": 1, 
		 "sigma_profile": "yes", 
		 "theory": "DFT", 
		 "functional": "B3LYP", 
		 "basiset": "6-31G**", 
		 "properties": { 
			 "R2extent": 4514.4455, 
			 "electric_dipole_moment_norm": 5.49694822515, 
			 "electric_quadrupole_moment_norm": 25.4823213554, 
			 "total_energy": -1122.79447901, 
			 "HOMO_LUMO_gap": 0.20588, 
			 "cosmo_polarized_energy": -19.03, 
			 "cosmo_cavitation_energy": 33.32, 
			 "cosmo_dispersion_energy": -24.59, 
			 "cosmo_repulsion_energy": 1.9, 
			 "cosmo_total_nonelectrostatic_energy": 10.63, 
			 "SMD_solvation_energy": 4.06 
		},
		"coords": [
			{
				"x": -0.603850656,
				"y": -3.9066031658,
				"z": 0.0039460408,
				"element": "N" 
			},
			{
				"x": -0.0429831202,
				"y": -2.770501963,
				"z": -0.6816591182,
				"element": "C" 
			},
			{
				"x": -0.2573207601,
				"y": -2.7526990608,
				"z": -2.0768895096,
				"element": "C" 
			},
			{
				"x": -0.9629492443,
				"y": -3.7498184651,
				"z": -2.6466993793,
				"element": "O" 
			},
			{
				"x": 0.2639950476,
				"y": -1.715355632,
				"z": -2.8597219793,
				"element": "C" 
			},
			{
				"x": 0.9762817462,
				"y": -0.6865680508,
				"z": -2.2524777321,
				"element": "C" 
			},
			{
				"x": 1.1619773506,
				"y": -0.6881803472,
				"z": -0.8638411707,
				"element": "C" 
			},
			{
				"x": 0.6624761108,
				"y": -1.7335992155,
				"z": -0.0788376498,
				"element": "C" 
			},
			{
				"x": 2.0258905211,
				"y": 0.6688804627,
				"z": -0.0760429063,
				"element": "S" 
			},
			{
				"x": 2.9634129957,
				"y": 1.220152325,
				"z": -1.0576639926,
				"element": "O" 
			},
			{
				"x": 2.4528716559,
				"y": 0.1983229336,
				"z": 1.2449934017,
				"element": "O" 
			},
			{
				"x": 0.8980973799,
				"y": 1.8668592394,
				"z": 0.2060327847,
				"element": "N" 
			},
			{
				"x": 0.3903456288,
				"y": 2.6889376852,
				"z": -0.9068586923,
				"element": "C" 
			},
			{
				"x": -0.6327967094,
				"y": 3.5764467997,
				"z": -0.191921274,
				"element": "C" 
			},
			{
				"x": -1.279747248,
				"y": 2.6106006134,
				"z": 0.8181501425,
				"element": "C" 
			},
			{
				"x": -0.1271546558,
				"y": 1.6822340348,
				"z": 1.2602439515,
				"element": "C" 
			},
			{
				"x": 0.1179848739,
				"y": -4.5715951162,
				"z": 0.2735239821,
				"element": "H" 
			},
			{
				"x": -1.0933687756,
				"y": -3.6314782325,
				"z": 0.8503523326,
				"element": "H" 
			},
			{
				"x": -1.2535483167,
				"y": -4.303909271,
				"z": -1.8918251374,
				"element": "H" 
			},
			{
				"x": 0.1054882207,
				"y": -1.7349947505,
				"z": -3.9325489523,
				"element": "H" 
			},
			{
				"x": 1.413017301,
				"y": 0.1066154916,
				"z": -2.8493129401,
				"element": "H" 
			},
			{
				"x": 0.8598586609,
				"y": -1.7439811585,
				"z": 0.9885876993,
				"element": "H" 
			},
			{
				"x": -0.1011134136,
				"y": 2.076810698,
				"z": -1.6802376324,
				"element": "H" 
			},
			{
				"x": 1.2116332496,
				"y": 3.2392292247,
				"z": -1.3681455316,
				"element": "H" 
			},
			{
				"x": -1.3548403789,
				"y": 4.0199581441,
				"z": -0.882884203,
				"element": "H" 
			},
			{
				"x": -0.1148479429,
				"y": 4.3881000073,
				"z": 0.329604838,
				"element": "H" 
			},
			{
				"x": -1.7419730282,
				"y": 3.1235659317,
				"z": 1.6655987377,
				"element": "H" 
			},
			{
				"x": -2.0603965146,
				"y": 2.0243233014,
				"z": 0.3213277136,
				"element": "H" 
			},
			{
				"x": 0.2971764034,
				"y": 1.9640607108,
				"z": 2.2279258335,
				"element": "H" 
			},
			{
				"x": -0.4584163821,
				"y": 0.6390868255,
				"z": 1.3309803428,
				"element": "H" 
			}
		],
		 "valence_orbital": [ 
			{
				"type": "occ",
				"energy": -0.29061,
				"method": "rhf"
			},
			{
				"type": "occ",
				"energy": -0.28553,
				"method": "rhf"
			},
			{
				"type": "occ",
				"energy": -0.26441,
				"method": "rhf"
			},
			{
				"type": "occ",
				"energy": -0.25385,
				"method": "rhf"
			},
			{
				"type": "occ",
				"energy": -0.22823,
				"method": "rhf"
			},
			{
				"type": "unocc",
				"energy": -0.02235,
				"method": "rhf"
			},
			{
				"type": "unocc",
				"energy": -0.01942,
				"method": "rhf"
			},
			{
				"type": "unocc",
				"energy": 0.05895,
				"method": "rhf"
			},
			{
				"type": "unocc",
				"energy": 0.06679,
				"method": "rhf"
			},
			{
				"type": "unocc",
				"energy": 0.08614,
				"method": "rhf"
			}
		],
		"cosmo_sigma_profile": { 
			"-0.025": 0.0,
			"-0.024": 0.0,
			"-0.023": 0.0,
			"-0.022": 0.0,
			"-0.021": 0.0,
			"-0.02": 0.0,
			"-0.019": 0.0,
			"-0.018": 0.0,
			"-0.017": 0.0,
			"-0.016": 0.0,
			"-0.015": 0.0,
			"-0.014": 0.0,
			"-0.013": 0.162872775792,
			"-0.012": 2.7505331869,
			"-0.011": 3.22544943434,
			"-0.01": 4.30297478769,
			"-0.009": 3.7465347056,
			"-0.008": 2.84558828414,
			"-0.007": 6.16916569285,
			"-0.006": 6.60735449667,
			"-0.005": 11.8817705017,
			"-0.004": 28.4625128879,
			"-0.003": 31.8491383716,
			"-0.002": 27.0665242736,
			"-0.001": 17.1087598764,
			"0.0": 14.9707686003,
			"0.001": 10.4470214353,
			"0.002": 14.5594252371,
			"0.003": 14.22285015,
			"0.004": 7.02173916191,
			"0.005": 5.9506970925,
			"0.006": 6.88611494999,
			"0.007": 5.59788267326,
			"0.008": 7.09966600998,
			"0.009": 4.94809163642,
			"0.01": 6.01418599019,
			"0.011": 10.3333030793,
			"0.012": 7.56725441957,
			"0.013": 0.642292184975,
			"0.014": 0.0,
			"0.015": 0.0,
			"0.016": 0.0,
			"0.017": 0.0,
			"0.018": 0.0,
			"0.019": 0.0,
			"0.02": 0.0,
			"0.021": 0.0,
			"0.022": 0.0,
			"0.023": 0.0,
			"0.024": 0.0,
			"0.025": 0.0
		}
	}
}
