{
	 "smiles": "O=S(=O)(N1CCCC1)C1=CC2=C(NCCC2)C=C1", 
	 "Tm": 404.15, 
	 "num_atms": 36, 
	 "gaussian": { 
		 "optdone": 1, 
		 "sigma_profile": "yes", 
		 "theory": "DFT", 
		 "functional": "B3LYP", 
		 "basiset": "6-31G**", 
		 "properties": { 
			 "R2extent": 6005.3651, 
			 "electric_dipole_moment_norm": 8.01454681064, 
			 "electric_quadrupole_moment_norm": 19.7540425564, 
			 "total_energy": -1164.31490345, 
			 "HOMO_LUMO_gap": 0.19058, 
			 "cosmo_polarized_energy": -18.62, 
			 "cosmo_cavitation_energy": 37.49, 
			 "cosmo_dispersion_energy": -27.71, 
			 "cosmo_repulsion_energy": 2.12, 
			 "cosmo_total_nonelectrostatic_energy": 11.9, 
			 "SMD_solvation_energy": 2.58 
		},
		"coords": [
			{
				"x": -3.4207562184,
				"y": -1.0752830435,
				"z": 0.9754372767,
				"element": "O" 
			},
			{
				"x": -2.9120527775,
				"y": -0.2775032308,
				"z": -0.1447628431,
				"element": "S" 
			},
			{
				"x": -3.4689978686,
				"y": -0.3757856457,
				"z": -1.4971176673,
				"element": "O" 
			},
			{
				"x": -3.108689249,
				"y": 1.3209595694,
				"z": 0.3122394536,
				"element": "N" 
			},
			{
				"x": -2.8064375295,
				"y": 1.7339235167,
				"z": 1.6932564848,
				"element": "C" 
			},
			{
				"x": -3.0432327501,
				"y": 3.2452950987,
				"z": 1.6220452603,
				"element": "C" 
			},
			{
				"x": -2.473789823,
				"y": 3.6171341789,
				"z": 0.2402149513,
				"element": "C" 
			},
			{
				"x": -2.799816649,
				"y": 2.4008606916,
				"z": -0.6551243376,
				"element": "C" 
			},
			{
				"x": -1.1563401882,
				"y": -0.5786122566,
				"z": -0.267263667,
				"element": "C" 
			},
			{
				"x": -0.4350026773,
				"y": -0.9739588926,
				"z": 0.8645895141,
				"element": "C" 
			},
			{
				"x": 0.9416162246,
				"y": -1.174854354,
				"z": 0.8102303931,
				"element": "C" 
			},
			{
				"x": 1.6126590404,
				"y": -0.987500193,
				"z": -0.4250531348,
				"element": "C" 
			},
			{
				"x": 2.9680878807,
				"y": -1.230025701,
				"z": -0.5310847644,
				"element": "N" 
			},
			{
				"x": 3.8058425443,
				"y": -1.4290202998,
				"z": 0.6420894913,
				"element": "C" 
			},
			{
				"x": 3.0490992387,
				"y": -2.2734099148,
				"z": 1.6697912718,
				"element": "C" 
			},
			{
				"x": 1.725851918,
				"y": -1.5899838384,
				"z": 2.0413673298,
				"element": "C" 
			},
			{
				"x": 0.8734336329,
				"y": -0.6021415415,
				"z": -1.5626873797,
				"element": "C" 
			},
			{
				"x": -0.4964431546,
				"y": -0.3973844644,
				"z": -1.4886518366,
				"element": "C" 
			},
			{
				"x": -3.4643754507,
				"y": 1.212645349,
				"z": 2.3901784648,
				"element": "H" 
			},
			{
				"x": -1.7611655371,
				"y": 1.5182996439,
				"z": 1.9695687325,
				"element": "H" 
			},
			{
				"x": -2.5609122648,
				"y": 3.7830632221,
				"z": 2.4430745587,
				"element": "H" 
			},
			{
				"x": -4.1179923755,
				"y": 3.451040478,
				"z": 1.6630094809,
				"element": "H" 
			},
			{
				"x": -1.3883401473,
				"y": 3.7474122039,
				"z": 0.3102145017,
				"element": "H" 
			},
			{
				"x": -2.8912241751,
				"y": 4.5453443916,
				"z": -0.158954412,
				"element": "H" 
			},
			{
				"x": -1.951693417,
				"y": 2.1427845555,
				"z": -1.3006140806,
				"element": "H" 
			},
			{
				"x": -3.6693381772,
				"y": 2.5673636339,
				"z": -1.2969760221,
				"element": "H" 
			},
			{
				"x": -0.9668785516,
				"y": -1.1535409892,
				"z": 1.7942501641,
				"element": "H" 
			},
			{
				"x": 3.4201094947,
				"y": -0.8913299068,
				"z": -1.3669169999,
				"element": "H" 
			},
			{
				"x": 4.7241898521,
				"y": -1.935460723,
				"z": 0.3270388758,
				"element": "H" 
			},
			{
				"x": 4.102155102,
				"y": -0.4699201284,
				"z": 1.1001860296,
				"element": "H" 
			},
			{
				"x": 3.6709471083,
				"y": -2.4175969486,
				"z": 2.5591177192,
				"element": "H" 
			},
			{
				"x": 2.8521962704,
				"y": -3.2620736221,
				"z": 1.2398173892,
				"element": "H" 
			},
			{
				"x": 1.9400845493,
				"y": -0.7047713251,
				"z": 2.6576033782,
				"element": "H" 
			},
			{
				"x": 1.1154330652,
				"y": -2.2533257803,
				"z": 2.6639689228,
				"element": "H" 
			},
			{
				"x": 1.387751014,
				"y": -0.4838440814,
				"z": -2.5134631338,
				"element": "H" 
			},
			{
				"x": -1.0654779542,
				"y": -0.1335996523,
				"z": -2.3733193656,
				"element": "H" 
			}
		],
		 "valence_orbital": [ 
			{
				"type": "occ",
				"energy": -0.28161,
				"method": "rhf"
			},
			{
				"type": "occ",
				"energy": -0.27929,
				"method": "rhf"
			},
			{
				"type": "occ",
				"energy": -0.25255,
				"method": "rhf"
			},
			{
				"type": "occ",
				"energy": -0.24177,
				"method": "rhf"
			},
			{
				"type": "occ",
				"energy": -0.20295,
				"method": "rhf"
			},
			{
				"type": "unocc",
				"energy": -0.01237,
				"method": "rhf"
			},
			{
				"type": "unocc",
				"energy": -0.00937,
				"method": "rhf"
			},
			{
				"type": "unocc",
				"energy": 0.06821,
				"method": "rhf"
			},
			{
				"type": "unocc",
				"energy": 0.07657,
				"method": "rhf"
			},
			{
				"type": "unocc",
				"energy": 0.08783,
				"method": "rhf"
			}
		],
		"cosmo_sigma_profile": { 
			"-0.025": 0.0,
			"-0.024": 0.0,
			"-0.023": 0.0,
			"-0.022": 0.0,
			"-0.021": 0.0,
			"-0.02": 0.0,
			"-0.019": 0.0,
			"-0.018": 0.0,
			"-0.017": 0.0,
			"-0.016": 0.0,
			"-0.015": 0.0,
			"-0.014": 0.113700963872,
			"-0.013": 1.2839538058,
			"-0.012": 1.56201802135,
			"-0.011": 1.18384108845,
			"-0.01": 1.4037093998,
			"-0.009": 1.19564409471,
			"-0.008": 1.96071309859,
			"-0.007": 1.67558690693,
			"-0.006": 4.20491365431,
			"-0.005": 10.9206817429,
			"-0.004": 30.8415396382,
			"-0.003": 49.1945322743,
			"-0.002": 43.1171662867,
			"-0.001": 32.1980694896,
			"0.0": 18.0111160943,
			"0.001": 9.11947989346,
			"0.002": 9.18703878898,
			"0.003": 10.0152594325,
			"0.004": 13.4300495287,
			"0.005": 10.8304569049,
			"0.006": 4.93065645826,
			"0.007": 4.83202632422,
			"0.008": 5.71770682462,
			"0.009": 5.0054385859,
			"0.01": 3.3530391041,
			"0.011": 8.06313030071,
			"0.012": 8.32014146823,
			"0.013": 2.30941857567,
			"0.014": 0.0,
			"0.015": 0.0,
			"0.016": 0.0,
			"0.017": 0.0,
			"0.018": 0.0,
			"0.019": 0.0,
			"0.02": 0.0,
			"0.021": 0.0,
			"0.022": 0.0,
			"0.023": 0.0,
			"0.024": 0.0,
			"0.025": 0.0
		}
	}
}
