{
	 "smiles": "CC1=CC(OCC(=O)N2CC3=C(CC2C(O)=O)C=CC=C3)=CC(C)=C1", 
	 "Tm": 436.15, 
	 "num_atms": 46, 
	 "gaussian": { 
		 "optdone": 1, 
		 "sigma_profile": "yes", 
		 "theory": "DFT", 
		 "functional": "B3LYP", 
		 "basiset": "6-31G**", 
		 "properties": { 
			 "R2extent": 9938.307, 
			 "electric_dipole_moment_norm": 3.18458867203, 
			 "electric_quadrupole_moment_norm": 5.72007198119, 
			 "total_energy": -1130.46357275, 
			 "HOMO_LUMO_gap": 0.19976, 
			 "cosmo_polarized_energy": -18.59, 
			 "cosmo_cavitation_energy": 48.48, 
			 "cosmo_dispersion_energy": -32.3, 
			 "cosmo_repulsion_energy": 2.47, 
			 "cosmo_total_nonelectrostatic_energy": 18.65, 
			 "SMD_solvation_energy": 9.02 
		},
		"coords": [
			{
				"x": -1.3867869031,
				"y": 2.9362411558,
				"z": 5.04594988,
				"element": "C" 
			},
			{
				"x": -0.6839234814,
				"y": 2.9067698829,
				"z": 3.7084114923,
				"element": "C" 
			},
			{
				"x": -1.3290819696,
				"y": 2.4246501142,
				"z": 2.5729203086,
				"element": "C" 
			},
			{
				"x": -0.6626687291,
				"y": 2.3975305219,
				"z": 1.3402453364,
				"element": "C" 
			},
			{
				"x": -1.4085030218,
				"y": 1.9014139526,
				"z": 0.2896179508,
				"element": "O" 
			},
			{
				"x": -0.901564653,
				"y": 2.0346668131,
				"z": -1.0322162567,
				"element": "C" 
			},
			{
				"x": 0.2057050812,
				"y": 1.0397498084,
				"z": -1.4296566566,
				"element": "C" 
			},
			{
				"x": 1.2601780261,
				"y": 1.4718433241,
				"z": -1.8887651172,
				"element": "O" 
			},
			{
				"x": -0.0405259822,
				"y": -0.3033108749,
				"z": -1.3156919063,
				"element": "N" 
			},
			{
				"x": 1.0722911074,
				"y": -1.2083619107,
				"z": -1.6365071412,
				"element": "C" 
			},
			{
				"x": 0.6350665366,
				"y": -2.6155191786,
				"z": -1.9833981568,
				"element": "C" 
			},
			{
				"x": -0.710786239,
				"y": -3.0080612131,
				"z": -1.9712494349,
				"element": "C" 
			},
			{
				"x": -1.7823837689,
				"y": -2.0031369339,
				"z": -1.615324932,
				"element": "C" 
			},
			{
				"x": -1.2330617775,
				"y": -0.8804464588,
				"z": -0.714895551,
				"element": "C" 
			},
			{
				"x": -0.9452141424,
				"y": -1.3629607544,
				"z": 0.7124895147,
				"element": "C" 
			},
			{
				"x": -2.0633296665,
				"y": -1.8680512335,
				"z": 1.2845224262,
				"element": "O" 
			},
			{
				"x": 0.1181806379,
				"y": -1.3003737334,
				"z": 1.2824055649,
				"element": "O" 
			},
			{
				"x": -1.0455763066,
				"y": -4.3302603474,
				"z": -2.2948223449,
				"element": "C" 
			},
			{
				"x": -0.0629073696,
				"y": -5.2556789193,
				"z": -2.634230545,
				"element": "C" 
			},
			{
				"x": 1.2792074166,
				"y": -4.8646967519,
				"z": -2.6441202714,
				"element": "C" 
			},
			{
				"x": 1.6200945744,
				"y": -3.5558540503,
				"z": -2.3163328986,
				"element": "C" 
			},
			{
				"x": 0.6503999635,
				"y": 2.8493603609,
				"z": 1.2287575195,
				"element": "C" 
			},
			{
				"x": 1.3093589808,
				"y": 3.3422406049,
				"z": 2.3690415094,
				"element": "C" 
			},
			{
				"x": 2.734397028,
				"y": 3.8315591632,
				"z": 2.2513164052,
				"element": "C" 
			},
			{
				"x": 0.6386244398,
				"y": 3.3671378622,
				"z": 3.5908401043,
				"element": "C" 
			},
			{
				"x": -1.3782930802,
				"y": 3.9432068405,
				"z": 5.4782672079,
				"element": "H" 
			},
			{
				"x": -0.8937464006,
				"y": 2.2740394232,
				"z": 5.7675776413,
				"element": "H" 
			},
			{
				"x": -2.4291372011,
				"y": 2.6174981659,
				"z": 4.9587737101,
				"element": "H" 
			},
			{
				"x": -2.3542702419,
				"y": 2.0694663133,
				"z": 2.6172287624,
				"element": "H" 
			},
			{
				"x": -1.7688880162,
				"y": 1.9054844677,
				"z": -1.6892346183,
				"element": "H" 
			},
			{
				"x": -0.4854687256,
				"y": 3.0311765415,
				"z": -1.2027856654,
				"element": "H" 
			},
			{
				"x": 1.7652922868,
				"y": -1.2373629012,
				"z": -0.7862361688,
				"element": "H" 
			},
			{
				"x": 1.6144387232,
				"y": -0.7577950987,
				"z": -2.4717120437,
				"element": "H" 
			},
			{
				"x": -2.1787843991,
				"y": -1.5315631413,
				"z": -2.5240117262,
				"element": "H" 
			},
			{
				"x": -2.623070366,
				"y": -2.4926232885,
				"z": -1.1158250894,
				"element": "H" 
			},
			{
				"x": -1.9976607046,
				"y": -0.1111601874,
				"z": -0.6097273784,
				"element": "H" 
			},
			{
				"x": -1.8106024568,
				"y": -2.1373357982,
				"z": 2.1837827498,
				"element": "H" 
			},
			{
				"x": -2.0905965991,
				"y": -4.6308376708,
				"z": -2.2757501355,
				"element": "H" 
			},
			{
				"x": -0.3385286392,
				"y": -6.2765304781,
				"z": -2.8821718067,
				"element": "H" 
			},
			{
				"x": 2.0556573452,
				"y": -5.5787981298,
				"z": -2.9026279569,
				"element": "H" 
			},
			{
				"x": 2.6645454565,
				"y": -3.2524833742,
				"z": -2.3173695277,
				"element": "H" 
			},
			{
				"x": 1.1817080053,
				"y": 2.8053036398,
				"z": 0.2843187719,
				"element": "H" 
			},
			{
				"x": 2.8080802459,
				"y": 4.6808829801,
				"z": 1.5621122954,
				"element": "H" 
			},
			{
				"x": 3.3920370813,
				"y": 3.0463355068,
				"z": 1.861804978,
				"element": "H" 
			},
			{
				"x": 3.1281403264,
				"y": 4.1510105496,
				"z": 3.2200269008,
				"element": "H" 
			},
			{
				"x": 1.1503575782,
				"y": 3.7474344357,
				"z": 4.4720522997,
				"element": "H" 
			}
		],
		 "valence_orbital": [ 
			{
				"type": "occ",
				"energy": -0.25414,
				"method": "rhf"
			},
			{
				"type": "occ",
				"energy": -0.24563,
				"method": "rhf"
			},
			{
				"type": "occ",
				"energy": -0.23725,
				"method": "rhf"
			},
			{
				"type": "occ",
				"energy": -0.22967,
				"method": "rhf"
			},
			{
				"type": "occ",
				"energy": -0.21267,
				"method": "rhf"
			},
			{
				"type": "unocc",
				"energy": -0.01291,
				"method": "rhf"
			},
			{
				"type": "unocc",
				"energy": -0.00257,
				"method": "rhf"
			},
			{
				"type": "unocc",
				"energy": 0.00365,
				"method": "rhf"
			},
			{
				"type": "unocc",
				"energy": 0.00665,
				"method": "rhf"
			},
			{
				"type": "unocc",
				"energy": 0.01097,
				"method": "rhf"
			}
		],
		"cosmo_sigma_profile": { 
			"-0.025": 0.0,
			"-0.024": 0.0,
			"-0.023": 0.0,
			"-0.022": 0.0,
			"-0.021": 0.0,
			"-0.02": 0.0,
			"-0.019": 0.325418278804,
			"-0.018": 0.758748320215,
			"-0.017": 1.03144408609,
			"-0.016": 1.0136455408,
			"-0.015": 0.848882872431,
			"-0.014": 0.357602409935,
			"-0.013": 0.427015815393,
			"-0.012": 0.775850711775,
			"-0.011": 1.13225551256,
			"-0.01": 0.661147693613,
			"-0.009": 2.38041384289,
			"-0.008": 5.03259718323,
			"-0.007": 4.66827818192,
			"-0.006": 11.4514852562,
			"-0.005": 26.358429946,
			"-0.004": 33.5232537369,
			"-0.003": 36.6505871853,
			"-0.002": 32.371027602,
			"-0.001": 31.5435436042,
			"0.0": 33.0548143443,
			"0.001": 26.1200293824,
			"0.002": 21.1954770345,
			"0.003": 20.7075555495,
			"0.004": 18.7430500594,
			"0.005": 21.0185944924,
			"0.006": 20.5253765799,
			"0.007": 5.72908219955,
			"0.008": 3.85979626697,
			"0.009": 4.08167760646,
			"0.01": 3.58559748774,
			"0.011": 4.96668421239,
			"0.012": 2.83082237477,
			"0.013": 4.57318939041,
			"0.014": 0.952675685057,
			"0.015": 0.0,
			"0.016": 0.0,
			"0.017": 0.0,
			"0.018": 0.0,
			"0.019": 0.0,
			"0.02": 0.0,
			"0.021": 0.0,
			"0.022": 0.0,
			"0.023": 0.0,
			"0.024": 0.0,
			"0.025": 0.0
		}
	}
}
