{
	 "smiles": "BrC1=CC=C(OCCN2C=CC=CC2=O)C=C1", 
	 "Tm": 385.15, 
	 "num_atms": 29, 
	 "gaussian": { 
		 "optdone": 1, 
		 "sigma_profile": "yes", 
		 "theory": "DFT", 
		 "functional": "B3LYP", 
		 "basiset": "6-31G**", 
		 "properties": { 
			 "R2extent": 8703.5372, 
			 "electric_dipole_moment_norm": 1.98207569482, 
			 "electric_quadrupole_moment_norm": 20.8456615916, 
			 "total_energy": -3279.21202303, 
			 "HOMO_LUMO_gap": 0.17567, 
			 "cosmo_polarized_energy": -14.66, 
			 "cosmo_cavitation_energy": 35.49, 
			 "cosmo_dispersion_energy": -25.51, 
			 "cosmo_repulsion_energy": 1.97, 
			 "cosmo_total_nonelectrostatic_energy": 11.96, 
			 "SMD_solvation_energy": 5.66 
		},
		"coords": [
			{
				"x": -5.5113883049,
				"y": -1.1516508495,
				"z": 1.1913506215,
				"element": "Br" 
			},
			{
				"x": -3.6948472117,
				"y": -0.5729573001,
				"z": 1.3361714319,
				"element": "C" 
			},
			{
				"x": -3.2984202861,
				"y": 0.6160918627,
				"z": 0.7349532507,
				"element": "C" 
			},
			{
				"x": -1.9699662026,
				"y": 1.0411459996,
				"z": 0.8345139682,
				"element": "C" 
			},
			{
				"x": -1.0400707845,
				"y": 0.2695104112,
				"z": 1.543207277,
				"element": "C" 
			},
			{
				"x": 0.2769182903,
				"y": 0.5852267082,
				"z": 1.7240271101,
				"element": "O" 
			},
			{
				"x": 0.8289605921,
				"y": 1.74218744,
				"z": 1.0976248046,
				"element": "C" 
			},
			{
				"x": 1.1605643601,
				"y": 1.5097761706,
				"z": -0.3785628983,
				"element": "C" 
			},
			{
				"x": 2.1964705199,
				"y": 0.4897386662,
				"z": -0.5575793382,
				"element": "N" 
			},
			{
				"x": 1.8594122099,
				"y": -0.8066731567,
				"z": -0.830934286,
				"element": "C" 
			},
			{
				"x": 2.807652317,
				"y": -1.7759075502,
				"z": -0.9877879063,
				"element": "C" 
			},
			{
				"x": 4.1754853476,
				"y": -1.4077466482,
				"z": -0.8540375459,
				"element": "C" 
			},
			{
				"x": 4.5285209029,
				"y": -0.118726214,
				"z": -0.570151474,
				"element": "C" 
			},
			{
				"x": 3.5408304998,
				"y": 0.9217154512,
				"z": -0.3807243098,
				"element": "C" 
			},
			{
				"x": 3.7691038374,
				"y": 2.0978690907,
				"z": -0.0899073258,
				"element": "O" 
			},
			{
				"x": -1.455219954,
				"y": -0.9293879629,
				"z": 2.1440843236,
				"element": "C" 
			},
			{
				"x": -2.775523647,
				"y": -1.3507052234,
				"z": 2.0438905116,
				"element": "C" 
			},
			{
				"x": -4.0165769768,
				"y": 1.2157935251,
				"z": 0.1871828302,
				"element": "H" 
			},
			{
				"x": -1.6866997549,
				"y": 1.9729646335,
				"z": 0.359964415,
				"element": "H" 
			},
			{
				"x": 0.163121498,
				"y": 2.6071027075,
				"z": 1.2048661765,
				"element": "H" 
			},
			{
				"x": 1.7516066301,
				"y": 1.9557929078,
				"z": 1.6388850219,
				"element": "H" 
			},
			{
				"x": 0.2744594715,
				"y": 1.1993994825,
				"z": -0.9373197821,
				"element": "H" 
			},
			{
				"x": 1.5433485025,
				"y": 2.4434208382,
				"z": -0.7968421302,
				"element": "H" 
			},
			{
				"x": 0.7973755078,
				"y": -1.0077826121,
				"z": -0.9170089306,
				"element": "H" 
			},
			{
				"x": 2.5108726198,
				"y": -2.7932432857,
				"z": -1.2096265927,
				"element": "H" 
			},
			{
				"x": 4.946497174,
				"y": -2.1635613322,
				"z": -0.9792248114,
				"element": "H" 
			},
			{
				"x": 5.5623156256,
				"y": 0.1873132629,
				"z": -0.459525063,
				"element": "H" 
			},
			{
				"x": -0.7234580388,
				"y": -1.5139167997,
				"z": 2.6917839708,
				"element": "H" 
			},
			{
				"x": -3.090444745,
				"y": -2.2761902233,
				"z": 2.5125266809,
				"element": "H" 
			}
		],
		 "valence_orbital": [ 
			{
				"type": "occ",
				"energy": -0.2879,
				"method": "rhf"
			},
			{
				"type": "occ",
				"energy": -0.27011,
				"method": "rhf"
			},
			{
				"type": "occ",
				"energy": -0.25104,
				"method": "rhf"
			},
			{
				"type": "occ",
				"energy": -0.22656,
				"method": "rhf"
			},
			{
				"type": "occ",
				"energy": -0.21643,
				"method": "rhf"
			},
			{
				"type": "unocc",
				"energy": -0.04076,
				"method": "rhf"
			},
			{
				"type": "unocc",
				"energy": -0.02145,
				"method": "rhf"
			},
			{
				"type": "unocc",
				"energy": -0.00693,
				"method": "rhf"
			},
			{
				"type": "unocc",
				"energy": 0.0061,
				"method": "rhf"
			},
			{
				"type": "unocc",
				"energy": 0.01328,
				"method": "rhf"
			}
		],
		"cosmo_sigma_profile": { 
			"-0.025": 0.0,
			"-0.024": 0.0,
			"-0.023": 0.0,
			"-0.022": 0.0,
			"-0.021": 0.0,
			"-0.02": 0.0,
			"-0.019": 0.0,
			"-0.018": 0.0,
			"-0.017": 0.0,
			"-0.016": 0.0,
			"-0.015": 0.0,
			"-0.014": 0.0,
			"-0.013": 0.0,
			"-0.012": 0.0,
			"-0.011": 0.0,
			"-0.01": 0.106944813743,
			"-0.009": 2.50477506443,
			"-0.008": 5.66693500818,
			"-0.007": 14.7043933787,
			"-0.006": 20.9631246136,
			"-0.005": 21.3967474243,
			"-0.004": 19.2003784727,
			"-0.003": 17.9477785285,
			"-0.002": 15.535343452,
			"-0.001": 16.418769549,
			"0.0": 16.9598323127,
			"0.001": 19.491512934,
			"0.002": 23.6110623317,
			"0.003": 30.0653752893,
			"0.004": 25.7989347143,
			"0.005": 12.9465263705,
			"0.006": 3.29025971202,
			"0.007": 2.62306910088,
			"0.008": 1.84851497783,
			"0.009": 2.31735436736,
			"0.01": 1.96108720862,
			"0.011": 1.22108387626,
			"0.012": 1.29332049473,
			"0.013": 1.88694998137,
			"0.014": 4.00031605386,
			"0.015": 2.88604887583,
			"0.016": 0.570927911748,
			"0.017": 0.0,
			"0.018": 0.0,
			"0.019": 0.0,
			"0.02": 0.0,
			"0.021": 0.0,
			"0.022": 0.0,
			"0.023": 0.0,
			"0.024": 0.0,
			"0.025": 0.0
		}
	}
}
