{
	 "smiles": "FC1=C(F)C(F)=C(OC(=O)C2=CC=NC=C2)C(F)=C1F", 
	 "Tm": 324.65, 
	 "num_atms": 24, 
	 "gaussian": { 
		 "optdone": 1, 
		 "sigma_profile": "yes", 
		 "theory": "DFT", 
		 "functional": "B3LYP", 
		 "basiset": "6-31G**", 
		 "properties": { 
			 "R2extent": 7331.0673, 
			 "electric_dipole_moment_norm": 1.132664871, 
			 "electric_quadrupole_moment_norm": 9.67408855397, 
			 "total_energy": -1164.00909215, 
			 "HOMO_LUMO_gap": 0.18457, 
			 "cosmo_polarized_energy": -7.95, 
			 "cosmo_cavitation_energy": 33.88, 
			 "cosmo_dispersion_energy": -23.02, 
			 "cosmo_repulsion_energy": 1.65, 
			 "cosmo_total_nonelectrostatic_energy": 12.51, 
			 "SMD_solvation_energy": 7.86 
		},
		"coords": [
			{
				"x": -2.7473877042,
				"y": 2.7266493165,
				"z": -3.8169364543,
				"element": "F" 
			},
			{
				"x": -2.0998788211,
				"y": 1.7803255655,
				"z": -3.1338679078,
				"element": "C" 
			},
			{
				"x": -2.7517615568,
				"y": 1.091050107,
				"z": -2.1124279811,
				"element": "C" 
			},
			{
				"x": -4.0213208098,
				"y": 1.3820612769,
				"z": -1.8152251434,
				"element": "F" 
			},
			{
				"x": -2.0731865946,
				"y": 0.1028519099,
				"z": -1.4032059249,
				"element": "C" 
			},
			{
				"x": -2.692808367,
				"y": -0.55023477,
				"z": -0.4166012034,
				"element": "F" 
			},
			{
				"x": -0.7514900408,
				"y": -0.2092073094,
				"z": -1.7171128684,
				"element": "C" 
			},
			{
				"x": -0.104040093,
				"y": -1.2340662066,
				"z": -1.0573026826,
				"element": "O" 
			},
			{
				"x": 0.5947221986,
				"y": -0.8869850517,
				"z": 0.0840713573,
				"element": "C" 
			},
			{
				"x": 0.6492148223,
				"y": 0.243061755,
				"z": 0.4993895506,
				"element": "O" 
			},
			{
				"x": 1.2473456347,
				"y": -2.0721300589,
				"z": 0.7035132936,
				"element": "C" 
			},
			{
				"x": 1.150146288,
				"y": -3.3632861892,
				"z": 0.1751305443,
				"element": "C" 
			},
			{
				"x": 1.8056853794,
				"y": -4.3981163395,
				"z": 0.8434840457,
				"element": "C" 
			},
			{
				"x": 2.5221866616,
				"y": -4.2267750907,
				"z": 1.9611720212,
				"element": "N" 
			},
			{
				"x": 2.6061805598,
				"y": -2.9843711936,
				"z": 2.4554666505,
				"element": "C" 
			},
			{
				"x": 1.9927175382,
				"y": -1.8779203047,
				"z": 1.870877241,
				"element": "C" 
			},
			{
				"x": -0.1024319432,
				"y": 0.4925835501,
				"z": -2.7315114842,
				"element": "C" 
			},
			{
				"x": 1.1712698324,
				"y": 0.2139012133,
				"z": -3.0211099166,
				"element": "F" 
			},
			{
				"x": -0.774195096,
				"y": 1.4821152322,
				"z": -3.4453535922,
				"element": "C" 
			},
			{
				"x": -0.1523987929,
				"y": 2.1471514079,
				"z": -4.4230567839,
				"element": "F" 
			},
			{
				"x": 0.5826253317,
				"y": -3.5564032997,
				"z": -0.7271389091,
				"element": "H" 
			},
			{
				"x": 1.7510214847,
				"y": -5.4148889526,
				"z": 0.4598776566,
				"element": "H" 
			},
			{
				"x": 3.193240901,
				"y": -2.8680829657,
				"z": 3.3640826279,
				"element": "H" 
			},
			{
				"x": 2.0821431868,
				"y": -0.8857836021,
				"z": 2.298785863,
				"element": "H" 
			}
		],
		 "valence_orbital": [ 
			{
				"type": "occ",
				"energy": -0.30763,
				"method": "rhf"
			},
			{
				"type": "occ",
				"energy": -0.28189,
				"method": "rhf"
			},
			{
				"type": "occ",
				"energy": -0.27469,
				"method": "rhf"
			},
			{
				"type": "occ",
				"energy": -0.26993,
				"method": "rhf"
			},
			{
				"type": "occ",
				"energy": -0.26689,
				"method": "rhf"
			},
			{
				"type": "unocc",
				"energy": -0.08232,
				"method": "rhf"
			},
			{
				"type": "unocc",
				"energy": -0.03438,
				"method": "rhf"
			},
			{
				"type": "unocc",
				"energy": -0.02973,
				"method": "rhf"
			},
			{
				"type": "unocc",
				"energy": -0.0267,
				"method": "rhf"
			},
			{
				"type": "unocc",
				"energy": -0.00709,
				"method": "rhf"
			}
		],
		"cosmo_sigma_profile": { 
			"-0.025": 0.0,
			"-0.024": 0.0,
			"-0.023": 0.0,
			"-0.022": 0.0,
			"-0.021": 0.0,
			"-0.02": 0.0,
			"-0.019": 0.0,
			"-0.018": 0.0,
			"-0.017": 0.0,
			"-0.016": 0.0,
			"-0.015": 0.0,
			"-0.014": 0.0,
			"-0.013": 0.0,
			"-0.012": 0.0,
			"-0.011": 0.0,
			"-0.01": 0.0,
			"-0.009": 0.0,
			"-0.008": 2.18146148732,
			"-0.007": 8.60254744676,
			"-0.006": 8.92868926949,
			"-0.005": 10.666771437,
			"-0.004": 26.1734949604,
			"-0.003": 20.3435229641,
			"-0.002": 19.3698549367,
			"-0.001": 24.2787721068,
			"0.0": 26.7357204778,
			"0.001": 28.6281594055,
			"0.002": 55.4195646688,
			"0.003": 17.3189632583,
			"0.004": 3.3204273669,
			"0.005": 2.49396262353,
			"0.006": 2.89640753978,
			"0.007": 2.95957287149,
			"0.008": 3.59132794612,
			"0.009": 3.71554179045,
			"0.01": 3.79750112288,
			"0.011": 0.694510270252,
			"0.012": 0.761214650176,
			"0.013": 0.877431768124,
			"0.014": 1.03438822043,
			"0.015": 0.684945461058,
			"0.016": 0.352339052853,
			"0.017": 0.0,
			"0.018": 0.0,
			"0.019": 0.0,
			"0.02": 0.0,
			"0.021": 0.0,
			"0.022": 0.0,
			"0.023": 0.0,
			"0.024": 0.0,
			"0.025": 0.0
		}
	}
}
