{
	 "smiles": "OC(=O)C1=NC=CC(=C1)N1C=CN=C1", 
	 "Tm": 468.15, 
	 "num_atms": 21, 
	 "gaussian": { 
		 "optdone": 1, 
		 "sigma_profile": "yes", 
		 "theory": "DFT", 
		 "functional": "B3LYP", 
		 "basiset": "6-31G**", 
		 "properties": { 
			 "R2extent": 4293.1721, 
			 "electric_dipole_moment_norm": 3.6291350278, 
			 "electric_quadrupole_moment_norm": 29.3243360631, 
			 "total_energy": -661.877312211, 
			 "HOMO_LUMO_gap": 0.17207, 
			 "cosmo_polarized_energy": -17.28, 
			 "cosmo_cavitation_energy": 26.22, 
			 "cosmo_dispersion_energy": -19.6, 
			 "cosmo_repulsion_energy": 1.49, 
			 "cosmo_total_nonelectrostatic_energy": 8.11, 
			 "SMD_solvation_energy": 4.25 
		},
		"coords": [
			{
				"x": -0.0402206366,
				"y": 1.2120741976,
				"z": -5.7332236129,
				"element": "O" 
			},
			{
				"x": -0.4452675723,
				"y": 1.4158158536,
				"z": -4.473038242,
				"element": "C" 
			},
			{
				"x": -1.2932601338,
				"y": 2.2223795489,
				"z": -4.1645387005,
				"element": "O" 
			},
			{
				"x": 0.2596183362,
				"y": 0.5389264961,
				"z": -3.4635545843,
				"element": "C" 
			},
			{
				"x": 1.1748900836,
				"y": -0.3046444399,
				"z": -3.9619584394,
				"element": "N" 
			},
			{
				"x": 1.8113502304,
				"y": -1.0903940064,
				"z": -3.0872541263,
				"element": "C" 
			},
			{
				"x": 1.5698618837,
				"y": -1.0698858913,
				"z": -1.7164618451,
				"element": "C" 
			},
			{
				"x": 0.6090313937,
				"y": -0.1825018629,
				"z": -1.2045148912,
				"element": "C" 
			},
			{
				"x": -0.0614656885,
				"y": 0.6434973317,
				"z": -2.1152961682,
				"element": "C" 
			},
			{
				"x": 0.3277373337,
				"y": -0.1227015304,
				"z": 0.172204794,
				"element": "N" 
			},
			{
				"x": -0.5955839603,
				"y": 0.7078551939,
				"z": 0.8073545452,
				"element": "C" 
			},
			{
				"x": -0.5133598672,
				"y": 0.4076959857,
				"z": 2.1359803834,
				"element": "C" 
			},
			{
				"x": 0.4273887797,
				"y": -0.5809908834,
				"z": 2.3613166748,
				"element": "N" 
			},
			{
				"x": 0.9078401742,
				"y": -0.8746408531,
				"z": 1.1828698092,
				"element": "C" 
			},
			{
				"x": 0.6456491187,
				"y": 0.5122499922,
				"z": -5.691546159,
				"element": "H" 
			},
			{
				"x": 2.5525541177,
				"y": -1.7727166003,
				"z": -3.4958100811,
				"element": "H" 
			},
			{
				"x": 2.1283625689,
				"y": -1.7387994001,
				"z": -1.0745156031,
				"element": "H" 
			},
			{
				"x": -0.8179914336,
				"y": 1.3606854986,
				"z": -1.8261596655,
				"element": "H" 
			},
			{
				"x": -1.2061852037,
				"y": 1.4134812874,
				"z": 0.2703126506,
				"element": "H" 
			},
			{
				"x": -1.076247,
				"y": 0.8445678958,
				"z": 2.948662202,
				"element": "H" 
			},
			{
				"x": 1.6697974755,
				"y": -1.6142538138,
				"z": 0.9902710595,
				"element": "H" 
			}
		],
		 "valence_orbital": [ 
			{
				"type": "occ",
				"energy": -0.29659,
				"method": "rhf"
			},
			{
				"type": "occ",
				"energy": -0.28817,
				"method": "rhf"
			},
			{
				"type": "occ",
				"energy": -0.27847,
				"method": "rhf"
			},
			{
				"type": "occ",
				"energy": -0.2763,
				"method": "rhf"
			},
			{
				"type": "occ",
				"energy": -0.25117,
				"method": "rhf"
			},
			{
				"type": "unocc",
				"energy": -0.0791,
				"method": "rhf"
			},
			{
				"type": "unocc",
				"energy": -0.05936,
				"method": "rhf"
			},
			{
				"type": "unocc",
				"energy": 0.00478,
				"method": "rhf"
			},
			{
				"type": "unocc",
				"energy": 0.04947,
				"method": "rhf"
			},
			{
				"type": "unocc",
				"energy": 0.0552,
				"method": "rhf"
			}
		],
		"cosmo_sigma_profile": { 
			"-0.025": 0.0,
			"-0.024": 0.0,
			"-0.023": 0.0,
			"-0.022": 0.0,
			"-0.021": 0.0,
			"-0.02": 0.0,
			"-0.019": 0.0,
			"-0.018": 0.0,
			"-0.017": 0.0,
			"-0.016": 0.0,
			"-0.015": 0.0,
			"-0.014": 0.0,
			"-0.013": 0.459999362992,
			"-0.012": 2.38878395269,
			"-0.011": 4.63940359763,
			"-0.01": 4.46769452917,
			"-0.009": 4.73609095749,
			"-0.008": 7.99269498495,
			"-0.007": 8.83877755474,
			"-0.006": 7.89189307666,
			"-0.005": 10.4191122599,
			"-0.004": 12.067749017,
			"-0.003": 12.3696881068,
			"-0.002": 18.3408026858,
			"-0.001": 20.5466290983,
			"0.0": 13.5578977961,
			"0.001": 8.67714119308,
			"0.002": 9.07556955503,
			"0.003": 7.87347080719,
			"0.004": 9.72527142215,
			"0.005": 6.40778799845,
			"0.006": 5.06406953124,
			"0.007": 3.29683011895,
			"0.008": 5.59882754159,
			"0.009": 5.63038299707,
			"0.01": 5.61757983843,
			"0.011": 6.06233503032,
			"0.012": 4.49442035363,
			"0.013": 2.15310208639,
			"0.014": 1.34368228486,
			"0.015": 0.81687350741,
			"0.016": 1.08067486659,
			"0.017": 0.735626307289,
			"0.018": 0.0,
			"0.019": 0.0,
			"0.02": 0.0,
			"0.021": 0.0,
			"0.022": 0.0,
			"0.023": 0.0,
			"0.024": 0.0,
			"0.025": 0.0
		}
	}
}
