{
	 "smiles": "FC1=CC=C(C=C1)C(=O)C1=NC=CC=C1", 
	 "Tm": 357.15, 
	 "num_atms": 23, 
	 "gaussian": { 
		 "optdone": 1, 
		 "sigma_profile": "yes", 
		 "theory": "DFT", 
		 "functional": "B3LYP", 
		 "basiset": "6-31G**", 
		 "properties": { 
			 "R2extent": 4074.1035, 
			 "electric_dipole_moment_norm": 3.26305984469, 
			 "electric_quadrupole_moment_norm": 8.67164926758, 
			 "total_energy": -691.903411966, 
			 "HOMO_LUMO_gap": 0.16878, 
			 "cosmo_polarized_energy": -8.08, 
			 "cosmo_cavitation_energy": 28.41, 
			 "cosmo_dispersion_energy": -20.85, 
			 "cosmo_repulsion_energy": 1.57, 
			 "cosmo_total_nonelectrostatic_energy": 9.13, 
			 "SMD_solvation_energy": 5.31 
		},
		"coords": [
			{
				"x": 4.1457713436,
				"y": -0.9477943259,
				"z": -2.8103427698,
				"element": "F" 
			},
			{
				"x": 2.8764166027,
				"y": -0.7286257527,
				"z": -2.4182660433,
				"element": "C" 
			},
			{
				"x": 1.8358588252,
				"y": -1.1147758804,
				"z": -3.259767238,
				"element": "C" 
			},
			{
				"x": 0.5310005235,
				"y": -0.8805903836,
				"z": -2.8471323018,
				"element": "C" 
			},
			{
				"x": 0.2536824013,
				"y": -0.2794501358,
				"z": -1.6034577348,
				"element": "C" 
			},
			{
				"x": 1.3311448789,
				"y": 0.0970378307,
				"z": -0.7808015988,
				"element": "C" 
			},
			{
				"x": 2.6451765931,
				"y": -0.1240775272,
				"z": -1.1882081672,
				"element": "C" 
			},
			{
				"x": -1.1926061769,
				"y": -0.04788754,
				"z": -1.2960817055,
				"element": "C" 
			},
			{
				"x": -2.033530526,
				"y": -0.2163665356,
				"z": -2.1757579592,
				"element": "O" 
			},
			{
				"x": -1.6978902634,
				"y": 0.3902506667,
				"z": 0.0653433117,
				"element": "C" 
			},
			{
				"x": -0.8898137363,
				"y": 0.3455283045,
				"z": 1.1366219058,
				"element": "N" 
			},
			{
				"x": -1.3944561979,
				"y": 0.7020370023,
				"z": 2.3217798322,
				"element": "C" 
			},
			{
				"x": -2.7131654574,
				"y": 1.1221906653,
				"z": 2.5025658058,
				"element": "C" 
			},
			{
				"x": -3.5499932341,
				"y": 1.1712047851,
				"z": 1.3876563053,
				"element": "C" 
			},
			{
				"x": -3.0384602586,
				"y": 0.795715085,
				"z": 0.1496756037,
				"element": "C" 
			},
			{
				"x": 2.060569813,
				"y": -1.5829335786,
				"z": -4.2119622873,
				"element": "H" 
			},
			{
				"x": -0.3050969786,
				"y": -1.1555392973,
				"z": -3.4800815117,
				"element": "H" 
			},
			{
				"x": 1.1347025821,
				"y": 0.5479256586,
				"z": 0.1814630971,
				"element": "H" 
			},
			{
				"x": 3.4866589471,
				"y": 0.1631590474,
				"z": -0.567137255,
				"element": "H" 
			},
			{
				"x": -0.7122425383,
				"y": 0.6483899532,
				"z": 3.1681797681,
				"element": "H" 
			},
			{
				"x": -3.0683192344,
				"y": 1.4014969221,
				"z": 3.4894787934,
				"element": "H" 
			},
			{
				"x": -4.5829631404,
				"y": 1.4931344269,
				"z": 1.4827587089,
				"element": "H" 
			},
			{
				"x": -3.640644768,
				"y": 0.7982706092,
				"z": -0.7506265595,
				"element": "H" 
			}
		],
		 "valence_orbital": [ 
			{
				"type": "occ",
				"energy": -0.27964,
				"method": "rhf"
			},
			{
				"type": "occ",
				"energy": -0.2722,
				"method": "rhf"
			},
			{
				"type": "occ",
				"energy": -0.26151,
				"method": "rhf"
			},
			{
				"type": "occ",
				"energy": -0.25178,
				"method": "rhf"
			},
			{
				"type": "occ",
				"energy": -0.24534,
				"method": "rhf"
			},
			{
				"type": "unocc",
				"energy": -0.07656,
				"method": "rhf"
			},
			{
				"type": "unocc",
				"energy": -0.03354,
				"method": "rhf"
			},
			{
				"type": "unocc",
				"energy": -0.01445,
				"method": "rhf"
			},
			{
				"type": "unocc",
				"energy": -0.00939,
				"method": "rhf"
			},
			{
				"type": "unocc",
				"energy": 0.05852,
				"method": "rhf"
			}
		],
		"cosmo_sigma_profile": { 
			"-0.025": 0.0,
			"-0.024": 0.0,
			"-0.023": 0.0,
			"-0.022": 0.0,
			"-0.021": 0.0,
			"-0.02": 0.0,
			"-0.019": 0.0,
			"-0.018": 0.0,
			"-0.017": 0.0,
			"-0.016": 0.0,
			"-0.015": 0.0,
			"-0.014": 0.0,
			"-0.013": 0.0,
			"-0.012": 0.0,
			"-0.011": 0.0,
			"-0.01": 0.0,
			"-0.009": 0.0,
			"-0.008": 2.55936757014,
			"-0.007": 10.6353716864,
			"-0.006": 13.156972396,
			"-0.005": 15.0250651013,
			"-0.004": 11.2432926283,
			"-0.003": 12.8719901511,
			"-0.002": 13.5883168209,
			"-0.001": 16.4783752695,
			"0.0": 24.3979169926,
			"0.001": 27.8279555929,
			"0.002": 27.1061372492,
			"0.003": 18.9506605371,
			"0.004": 13.8518447286,
			"0.005": 3.86243204978,
			"0.006": 2.94872533122,
			"0.007": 2.55623223016,
			"0.008": 2.5447041345,
			"0.009": 2.44212727782,
			"0.01": 2.45052843028,
			"0.011": 3.5498783383,
			"0.012": 1.88406800706,
			"0.013": 0.0,
			"0.014": 0.0,
			"0.015": 0.0,
			"0.016": 0.0,
			"0.017": 0.0,
			"0.018": 0.0,
			"0.019": 0.0,
			"0.02": 0.0,
			"0.021": 0.0,
			"0.022": 0.0,
			"0.023": 0.0,
			"0.024": 0.0,
			"0.025": 0.0
		}
	}
}
