{
	 "smiles": "NC1=C(C=C(NC(=O)C2=CC=C(F)C=C2)C=C1)C(F)(F)F", 
	 "Tm": 394.15, 
	 "num_atms": 31, 
	 "gaussian": { 
		 "optdone": 1, 
		 "sigma_profile": "yes", 
		 "theory": "DFT", 
		 "functional": "B3LYP", 
		 "basiset": "6-31G**", 
		 "properties": { 
			 "R2extent": 6863.5649, 
			 "electric_dipole_moment_norm": 4.71381361214, 
			 "electric_quadrupole_moment_norm": 16.5692002471, 
			 "total_energy": -1123.62363718, 
			 "HOMO_LUMO_gap": 0.174, 
			 "cosmo_polarized_energy": -15.48, 
			 "cosmo_cavitation_energy": 37.68, 
			 "cosmo_dispersion_energy": -25.36, 
			 "cosmo_repulsion_energy": 1.88, 
			 "cosmo_total_nonelectrostatic_energy": 14.2, 
			 "SMD_solvation_energy": 8.41 
		},
		"coords": [
			{
				"x": 0.046344898,
				"y": -0.4022039832,
				"z": 4.6866249858,
				"element": "N" 
			},
			{
				"x": -0.3027800784,
				"y": -0.1137927807,
				"z": 3.3781885973,
				"element": "C" 
			},
			{
				"x": 0.1673690011,
				"y": -0.8807202077,
				"z": 2.2846543754,
				"element": "C" 
			},
			{
				"x": -0.2520872817,
				"y": -0.5995174188,
				"z": 0.9837774631,
				"element": "C" 
			},
			{
				"x": -1.1176336591,
				"y": 0.4637027949,
				"z": 0.7191315476,
				"element": "C" 
			},
			{
				"x": -1.5734340826,
				"y": 0.7606855733,
				"z": -0.5956527755,
				"element": "N" 
			},
			{
				"x": -0.8958199924,
				"y": 0.7013878224,
				"z": -1.8025845781,
				"element": "C" 
			},
			{
				"x": -1.5249934064,
				"y": 0.5450116782,
				"z": -2.844004264,
				"element": "O" 
			},
			{
				"x": 0.5912050387,
				"y": 0.8928440672,
				"z": -1.8210228221,
				"element": "C" 
			},
			{
				"x": 1.2923795503,
				"y": 0.3221809412,
				"z": -2.8939496558,
				"element": "C" 
			},
			{
				"x": 2.6653452024,
				"y": 0.5047140098,
				"z": -3.0275545355,
				"element": "C" 
			},
			{
				"x": 3.3253676502,
				"y": 1.289929124,
				"z": -2.0872946749,
				"element": "C" 
			},
			{
				"x": 4.6534834846,
				"y": 1.4786754653,
				"z": -2.2110896446,
				"element": "F" 
			},
			{
				"x": 2.6568487243,
				"y": 1.8937633506,
				"z": -1.0272788945,
				"element": "C" 
			},
			{
				"x": 1.285167983,
				"y": 1.6874643175,
				"z": -0.8960099512,
				"element": "C" 
			},
			{
				"x": -1.5874023519,
				"y": 1.225177072,
				"z": 1.7976026282,
				"element": "C" 
			},
			{
				"x": -1.196628075,
				"y": 0.93658834,
				"z": 3.0978665367,
				"element": "C" 
			},
			{
				"x": 1.0760798986,
				"y": -2.0518846061,
				"z": 2.525537825,
				"element": "C" 
			},
			{
				"x": 1.5355030897,
				"y": -2.5972393181,
				"z": 1.3843233188,
				"element": "F" 
			},
			{
				"x": 2.1727374548,
				"y": -1.6947580087,
				"z": 3.2617596208,
				"element": "F" 
			},
			{
				"x": 0.4678252995,
				"y": -3.0356169249,
				"z": 3.2268874861,
				"element": "F" 
			},
			{
				"x": -0.120980737,
				"y": 0.3331724207,
				"z": 5.3572635954,
				"element": "H" 
			},
			{
				"x": 0.9190043699,
				"y": -0.8881033041,
				"z": 4.8300208533,
				"element": "H" 
			},
			{
				"x": 0.1079241977,
				"y": -1.217749624,
				"z": 0.1708760719,
				"element": "H" 
			},
			{
				"x": -2.5752928297,
				"y": 0.7178430563,
				"z": -0.7459385315,
				"element": "H" 
			},
			{
				"x": 0.7379379406,
				"y": -0.2576383249,
				"z": -3.62371971,
				"element": "H" 
			},
			{
				"x": 3.2246107543,
				"y": 0.061400618,
				"z": -3.8441456125,
				"element": "H" 
			},
			{
				"x": 3.2092756265,
				"y": 2.5128627623,
				"z": -0.3289897124,
				"element": "H" 
			},
			{
				"x": 0.7549576985,
				"y": 2.1608089099,
				"z": -0.0776317304,
				"element": "H" 
			},
			{
				"x": -2.2609863621,
				"y": 2.0560968238,
				"z": 1.6080362417,
				"element": "H" 
			},
			{
				"x": -1.5768290064,
				"y": 1.5373153537,
				"z": 3.9198159457,
				"element": "H" 
			}
		],
		 "valence_orbital": [ 
			{
				"type": "occ",
				"energy": -0.27507,
				"method": "rhf"
			},
			{
				"type": "occ",
				"energy": -0.26736,
				"method": "rhf"
			},
			{
				"type": "occ",
				"energy": -0.2594,
				"method": "rhf"
			},
			{
				"type": "occ",
				"energy": -0.24539,
				"method": "rhf"
			},
			{
				"type": "occ",
				"energy": -0.21332,
				"method": "rhf"
			},
			{
				"type": "unocc",
				"energy": -0.03932,
				"method": "rhf"
			},
			{
				"type": "unocc",
				"energy": -0.03269,
				"method": "rhf"
			},
			{
				"type": "unocc",
				"energy": -0.01406,
				"method": "rhf"
			},
			{
				"type": "unocc",
				"energy": -0.00644,
				"method": "rhf"
			},
			{
				"type": "unocc",
				"energy": 0.0548,
				"method": "rhf"
			}
		],
		"cosmo_sigma_profile": { 
			"-0.025": 0.0,
			"-0.024": 0.0,
			"-0.023": 0.0,
			"-0.022": 0.0,
			"-0.021": 0.0,
			"-0.02": 0.0,
			"-0.019": 0.0,
			"-0.018": 0.0,
			"-0.017": 0.0,
			"-0.016": 0.0,
			"-0.015": 0.0625676052687,
			"-0.014": 0.879227427883,
			"-0.013": 2.50156117874,
			"-0.012": 2.31182561267,
			"-0.011": 3.30186219745,
			"-0.01": 4.51505870365,
			"-0.009": 2.44676102317,
			"-0.008": 4.99540367705,
			"-0.007": 10.4178915938,
			"-0.006": 13.9759640282,
			"-0.005": 14.1528521046,
			"-0.004": 13.8340964191,
			"-0.003": 12.8486425939,
			"-0.002": 15.6963211302,
			"-0.001": 17.598299326,
			"0.0": 24.6851259459,
			"0.001": 26.5788294136,
			"0.002": 39.7397112992,
			"0.003": 44.1946723868,
			"0.004": 19.2680910872,
			"0.005": 4.2509974706,
			"0.006": 3.42782153988,
			"0.007": 1.74053234429,
			"0.008": 2.272532126,
			"0.009": 1.81505974362,
			"0.01": 1.86092718505,
			"0.011": 2.50225222695,
			"0.012": 2.97670432746,
			"0.013": 5.29527832783,
			"0.014": 2.01826735204,
			"0.015": 0.0,
			"0.016": 0.0,
			"0.017": 0.0,
			"0.018": 0.0,
			"0.019": 0.0,
			"0.02": 0.0,
			"0.021": 0.0,
			"0.022": 0.0,
			"0.023": 0.0,
			"0.024": 0.0,
			"0.025": 0.0
		}
	}
}
