{
	 "smiles": "CN(C)CC1=CNC2=C1C=CC=C2", 
	 "Tm": 411.15, 
	 "num_atms": 27, 
	 "gaussian": { 
		 "optdone": 1, 
		 "sigma_profile": "yes", 
		 "theory": "DFT", 
		 "functional": "B3LYP", 
		 "basiset": "6-31G**", 
		 "properties": { 
			 "R2extent": 2818.6043, 
			 "electric_dipole_moment_norm": 2.4972720917, 
			 "electric_quadrupole_moment_norm": 9.45775861555, 
			 "total_energy": -537.103058711, 
			 "HOMO_LUMO_gap": 0.18831, 
			 "cosmo_polarized_energy": -9.69, 
			 "cosmo_cavitation_energy": 29.01, 
			 "cosmo_dispersion_energy": -20.84, 
			 "cosmo_repulsion_energy": 1.63, 
			 "cosmo_total_nonelectrostatic_energy": 9.81, 
			 "SMD_solvation_energy": 2.1 
		},
		"coords": [
			{
				"x": -2.2548230802,
				"y": 0.6595340926,
				"z": -1.7618241305,
				"element": "C" 
			},
			{
				"x": -2.8014166949,
				"y": -0.3833041894,
				"z": -0.9050821174,
				"element": "N" 
			},
			{
				"x": -3.2278549021,
				"y": 0.1369322289,
				"z": 0.3842486998,
				"element": "C" 
			},
			{
				"x": -1.940153376,
				"y": -1.572226828,
				"z": -0.7953446062,
				"element": "C" 
			},
			{
				"x": -0.592632014,
				"y": -1.404907948,
				"z": -0.1285615627,
				"element": "C" 
			},
			{
				"x": -0.3285259156,
				"y": -1.5447376228,
				"z": 1.2133334992,
				"element": "C" 
			},
			{
				"x": 1.0091978993,
				"y": -1.3073301968,
				"z": 1.4663856794,
				"element": "N" 
			},
			{
				"x": 1.6491996485,
				"y": -1.0115869854,
				"z": 0.2802007728,
				"element": "C" 
			},
			{
				"x": 0.6679224255,
				"y": -1.0625516107,
				"z": -0.7493811584,
				"element": "C" 
			},
			{
				"x": 1.072677856,
				"y": -0.8138209468,
				"z": -2.0738432233,
				"element": "C" 
			},
			{
				"x": 2.4057984904,
				"y": -0.5219367636,
				"z": -2.3333439527,
				"element": "C" 
			},
			{
				"x": 3.3566543012,
				"y": -0.4698030096,
				"z": -1.2932627298,
				"element": "C" 
			},
			{
				"x": 2.9924521686,
				"y": -0.7143674468,
				"z": 0.0256318771,
				"element": "C" 
			},
			{
				"x": -2.023300872,
				"y": 0.2421032917,
				"z": -2.7477597515,
				"element": "H" 
			},
			{
				"x": -3.007252498,
				"y": 1.4438895448,
				"z": -1.9003237326,
				"element": "H" 
			},
			{
				"x": -1.3380731012,
				"y": 1.1340063242,
				"z": -1.3691324854,
				"element": "H" 
			},
			{
				"x": -3.709243205,
				"y": -0.6600669514,
				"z": 0.9627526597,
				"element": "H" 
			},
			{
				"x": -3.9669994395,
				"y": 0.930283505,
				"z": 0.2282996625,
				"element": "H" 
			},
			{
				"x": -2.4072032936,
				"y": 0.553562699,
				"z": 0.9967833737,
				"element": "H" 
			},
			{
				"x": -1.7945550052,
				"y": -1.9605003351,
				"z": -1.8108454054,
				"element": "H" 
			},
			{
				"x": -2.5157774975,
				"y": -2.3313003721,
				"z": -0.251270978,
				"element": "H" 
			},
			{
				"x": -0.9977550915,
				"y": -1.8127211153,
				"z": 2.0194782738,
				"element": "H" 
			},
			{
				"x": 1.449114798,
				"y": -1.3580827808,
				"z": 2.3704087695,
				"element": "H" 
			},
			{
				"x": 0.3524840633,
				"y": -0.8499376655,
				"z": -2.8860618813,
				"element": "H" 
			},
			{
				"x": 2.7244659623,
				"y": -0.3290722177,
				"z": -3.3536378867,
				"element": "H" 
			},
			{
				"x": 4.3914842179,
				"y": -0.2367266542,
				"z": -1.5266111933,
				"element": "H" 
			},
			{
				"x": 3.7248141553,
				"y": -0.6777300462,
				"z": 0.8275635278,
				"element": "H" 
			}
		],
		 "valence_orbital": [ 
			{
				"type": "occ",
				"energy": -0.32646,
				"method": "rhf"
			},
			{
				"type": "occ",
				"energy": -0.26829,
				"method": "rhf"
			},
			{
				"type": "occ",
				"energy": -0.21697,
				"method": "rhf"
			},
			{
				"type": "occ",
				"energy": -0.20434,
				"method": "rhf"
			},
			{
				"type": "occ",
				"energy": -0.19389,
				"method": "rhf"
			},
			{
				"type": "unocc",
				"energy": -0.00558,
				"method": "rhf"
			},
			{
				"type": "unocc",
				"energy": 0.03128,
				"method": "rhf"
			},
			{
				"type": "unocc",
				"energy": 0.06205,
				"method": "rhf"
			},
			{
				"type": "unocc",
				"energy": 0.08081,
				"method": "rhf"
			},
			{
				"type": "unocc",
				"energy": 0.09167,
				"method": "rhf"
			}
		],
		"cosmo_sigma_profile": { 
			"-0.025": 0.0,
			"-0.024": 0.0,
			"-0.023": 0.0,
			"-0.022": 0.0,
			"-0.021": 0.0,
			"-0.02": 0.0,
			"-0.019": 0.0,
			"-0.018": 0.0,
			"-0.017": 0.0,
			"-0.016": 0.175555713254,
			"-0.015": 1.37506497466,
			"-0.014": 1.60645141335,
			"-0.013": 1.13110268088,
			"-0.012": 1.24561108726,
			"-0.011": 0.999896888226,
			"-0.01": 1.35182670488,
			"-0.009": 1.46797136352,
			"-0.008": 1.75875634712,
			"-0.007": 3.56435877907,
			"-0.006": 3.67679721175,
			"-0.005": 6.97370152533,
			"-0.004": 18.0638364105,
			"-0.003": 24.3768178664,
			"-0.002": 21.2379719209,
			"-0.001": 20.0933742747,
			"0.0": 24.2297028819,
			"0.001": 17.5983823192,
			"0.002": 11.4552640783,
			"0.003": 11.2074311216,
			"0.004": 10.7818480977,
			"0.005": 14.1674525249,
			"0.006": 12.2198366745,
			"0.007": 9.48649540074,
			"0.008": 3.11415581902,
			"0.009": 0.742421535643,
			"0.01": 0.494183469374,
			"0.011": 0.766219612462,
			"0.012": 0.566989828808,
			"0.013": 0.609646369402,
			"0.014": 0.464084739761,
			"0.015": 0.554012166719,
			"0.016": 0.475708792039,
			"0.017": 0.312383551944,
			"0.018": 0.0,
			"0.019": 0.0,
			"0.02": 0.0,
			"0.021": 0.0,
			"0.022": 0.0,
			"0.023": 0.0,
			"0.024": 0.0,
			"0.025": 0.0
		}
	}
}
