{
	 "smiles": "O=CC1=NC2=NC=CC=C2C=C1", 
	 "Tm": 413.15, 
	 "num_atms": 18, 
	 "gaussian": { 
		 "optdone": 1, 
		 "sigma_profile": "yes", 
		 "theory": "DFT", 
		 "functional": "B3LYP", 
		 "basiset": "6-31G**", 
		 "properties": { 
			 "R2extent": 2152.9956, 
			 "electric_dipole_moment_norm": 6.77721493609, 
			 "electric_quadrupole_moment_norm": 8.85926857026, 
			 "total_energy": -531.278490948, 
			 "HOMO_LUMO_gap": 0.1587, 
			 "cosmo_polarized_energy": -19.48, 
			 "cosmo_cavitation_energy": 23.28, 
			 "cosmo_dispersion_energy": -17.28, 
			 "cosmo_repulsion_energy": 1.35, 
			 "cosmo_total_nonelectrostatic_energy": 7.34, 
			 "SMD_solvation_energy": 2.06 
		},
		"coords": [
			{
				"x": 0.6338152242,
				"y": 0.0399338431,
				"z": 3.1979319096,
				"element": "O" 
			},
			{
				"x": 1.3145965417,
				"y": -0.1919202086,
				"z": 2.2261054526,
				"element": "C" 
			},
			{
				"x": 0.8023040618,
				"y": -0.2945108128,
				"z": 0.8170767881,
				"element": "C" 
			},
			{
				"x": -0.4935507749,
				"y": -0.1199475934,
				"z": 0.6158365642,
				"element": "N" 
			},
			{
				"x": -0.9586524239,
				"y": -0.2117325687,
				"z": -0.6534645249,
				"element": "C" 
			},
			{
				"x": -2.3008505368,
				"y": -0.0244340149,
				"z": -0.8119950178,
				"element": "N" 
			},
			{
				"x": -2.7911253214,
				"y": -0.1056491324,
				"z": -2.0299207528,
				"element": "C" 
			},
			{
				"x": -2.0218043781,
				"y": -0.3750228953,
				"z": -3.1947911857,
				"element": "C" 
			},
			{
				"x": -0.6695470374,
				"y": -0.5668607036,
				"z": -3.059278374,
				"element": "C" 
			},
			{
				"x": -0.093025894,
				"y": -0.4891783468,
				"z": -1.7655135774,
				"element": "C" 
			},
			{
				"x": 1.2866780809,
				"y": -0.6695406471,
				"z": -1.5084808427,
				"element": "C" 
			},
			{
				"x": 1.7387165603,
				"y": -0.572489349,
				"z": -0.2141918149,
				"element": "C" 
			},
			{
				"x": 2.414193223,
				"y": -0.3496156353,
				"z": 2.3145748439,
				"element": "H" 
			},
			{
				"x": -3.8655774242,
				"y": 0.0480805558,
				"z": -2.127429477,
				"element": "H" 
			},
			{
				"x": -2.5078027551,
				"y": -0.4248177301,
				"z": -4.1638265454,
				"element": "H" 
			},
			{
				"x": -0.0365200284,
				"y": -0.7756520605,
				"z": -3.9181527522,
				"element": "H" 
			},
			{
				"x": 1.9650045309,
				"y": -0.880711741,
				"z": -2.3314555517,
				"element": "H" 
			},
			{
				"x": 2.7890483515,
				"y": -0.7036309595,
				"z": 0.0290748579,
				"element": "H" 
			}
		],
		 "valence_orbital": [ 
			{
				"type": "occ",
				"energy": -0.28353,
				"method": "rhf"
			},
			{
				"type": "occ",
				"energy": -0.27367,
				"method": "rhf"
			},
			{
				"type": "occ",
				"energy": -0.26897,
				"method": "rhf"
			},
			{
				"type": "occ",
				"energy": -0.2642,
				"method": "rhf"
			},
			{
				"type": "occ",
				"energy": -0.25238,
				"method": "rhf"
			},
			{
				"type": "unocc",
				"energy": -0.09368,
				"method": "rhf"
			},
			{
				"type": "unocc",
				"energy": -0.05344,
				"method": "rhf"
			},
			{
				"type": "unocc",
				"energy": -0.01358,
				"method": "rhf"
			},
			{
				"type": "unocc",
				"energy": 0.01399,
				"method": "rhf"
			},
			{
				"type": "unocc",
				"energy": 0.07976,
				"method": "rhf"
			}
		],
		"cosmo_sigma_profile": { 
			"-0.025": 0.0,
			"-0.024": 0.0,
			"-0.023": 0.0,
			"-0.022": 0.0,
			"-0.021": 0.0,
			"-0.02": 0.0,
			"-0.019": 0.0,
			"-0.018": 0.0,
			"-0.017": 0.0,
			"-0.016": 0.0,
			"-0.015": 0.0,
			"-0.014": 0.0,
			"-0.013": 0.0,
			"-0.012": 0.0,
			"-0.011": 0.0,
			"-0.01": 0.0530725902505,
			"-0.009": 4.20640885355,
			"-0.008": 11.7163736215,
			"-0.007": 14.377641555,
			"-0.006": 13.961551124,
			"-0.005": 10.5888961653,
			"-0.004": 9.90036454456,
			"-0.003": 9.57769243199,
			"-0.002": 13.1176280272,
			"-0.001": 18.2141642456,
			"0.0": 17.8081964109,
			"0.001": 12.2407390363,
			"0.002": 4.41146992201,
			"0.003": 4.03786080938,
			"0.004": 3.48828207296,
			"0.005": 2.35813587997,
			"0.006": 2.71302962265,
			"0.007": 3.53157754533,
			"0.008": 3.1007189512,
			"0.009": 4.08276655833,
			"0.01": 4.53567928045,
			"0.011": 5.14897944533,
			"0.012": 3.70947271713,
			"0.013": 2.48506053104,
			"0.014": 1.61601044581,
			"0.015": 2.58684965627,
			"0.016": 3.07415353851,
			"0.017": 1.80262702186,
			"0.018": 0.0273144055545,
			"0.019": 0.0,
			"0.02": 0.0,
			"0.021": 0.0,
			"0.022": 0.0,
			"0.023": 0.0,
			"0.024": 0.0,
			"0.025": 0.0
		}
	}
}
