{
	 "smiles": "CC1CCCC(NC(=O)CCl)C1C", 
	 "Tm": 399.15, 
	 "num_atms": 31, 
	 "gaussian": { 
		 "optdone": 1, 
		 "sigma_profile": "yes", 
		 "theory": "DFT", 
		 "functional": "B3LYP", 
		 "basiset": "6-31G**", 
		 "properties": { 
			 "R2extent": 4150.5674, 
			 "electric_dipole_moment_norm": 2.14026349079, 
			 "electric_quadrupole_moment_norm": 6.12050039131, 
			 "total_energy": -982.11484007, 
			 "HOMO_LUMO_gap": 0.26642, 
			 "cosmo_polarized_energy": -9.25, 
			 "cosmo_cavitation_energy": 32.53, 
			 "cosmo_dispersion_energy": -22.51, 
			 "cosmo_repulsion_energy": 1.8, 
			 "cosmo_total_nonelectrostatic_energy": 11.83, 
			 "SMD_solvation_energy": 5.2 
		},
		"coords": [
			{
				"x": 1.1712758504,
				"y": -1.6132842564,
				"z": 1.4159564793,
				"element": "C" 
			},
			{
				"x": 0.0058173803,
				"y": -0.9984599144,
				"z": 0.6288991259,
				"element": "C" 
			},
			{
				"x": -0.145003444,
				"y": -1.6703223658,
				"z": -0.7540473175,
				"element": "C" 
			},
			{
				"x": -1.0753062743,
				"y": -0.8733498113,
				"z": -1.6758877724,
				"element": "C" 
			},
			{
				"x": -0.5378247291,
				"y": 0.5527676086,
				"z": -1.9550237407,
				"element": "C" 
			},
			{
				"x": 0.4483856254,
				"y": 1.0698401876,
				"z": -0.8824110833,
				"element": "C" 
			},
			{
				"x": 1.830937116,
				"y": 0.7341376241,
				"z": -1.2594295108,
				"element": "N" 
			},
			{
				"x": 2.876307629,
				"y": 1.4905191994,
				"z": -0.8619368413,
				"element": "C" 
			},
			{
				"x": 2.7919519006,
				"y": 2.4802861547,
				"z": -0.1412720199,
				"element": "O" 
			},
			{
				"x": 4.2798041094,
				"y": 1.101504358,
				"z": -1.3373082714,
				"element": "C" 
			},
			{
				"x": 4.4093904727,
				"y": -0.3537613574,
				"z": -2.421975514,
				"element": "Cl" 
			},
			{
				"x": 0.1103836017,
				"y": 0.5626365947,
				"z": 0.5416405906,
				"element": "C" 
			},
			{
				"x": -1.1604624157,
				"y": 1.2534198937,
				"z": 1.0653125777,
				"element": "C" 
			},
			{
				"x": 1.2270699093,
				"y": -1.2020946302,
				"z": 2.4297976976,
				"element": "H" 
			},
			{
				"x": 2.128149779,
				"y": -1.4108269384,
				"z": 0.9218329786,
				"element": "H" 
			},
			{
				"x": 1.0636656519,
				"y": -2.7008012899,
				"z": 1.5014901042,
				"element": "H" 
			},
			{
				"x": -0.9167585487,
				"y": -1.2235322403,
				"z": 1.1825304287,
				"element": "H" 
			},
			{
				"x": -0.5280466224,
				"y": -2.6889967996,
				"z": -0.6199956147,
				"element": "H" 
			},
			{
				"x": 0.8411497823,
				"y": -1.7883012104,
				"z": -1.224738772,
				"element": "H" 
			},
			{
				"x": -1.2302284787,
				"y": -1.4055570036,
				"z": -2.6207475097,
				"element": "H" 
			},
			{
				"x": -2.0617677497,
				"y": -0.8105218832,
				"z": -1.1995166014,
				"element": "H" 
			},
			{
				"x": -1.3754011716,
				"y": 1.2536782477,
				"z": -2.025705784,
				"element": "H" 
			},
			{
				"x": -0.0367901556,
				"y": 0.5918975219,
				"z": -2.9293915178,
				"element": "H" 
			},
			{
				"x": 0.4194119477,
				"y": 2.1637595767,
				"z": -0.8575038488,
				"element": "H" 
			},
			{
				"x": 2.0107680285,
				"y": -0.0484528507,
				"z": -1.8714815893,
				"element": "H" 
			},
			{
				"x": 4.7035225128,
				"y": 1.9452019033,
				"z": -1.8821003567,
				"element": "H" 
			},
			{
				"x": 4.8974579979,
				"y": 0.9011763687,
				"z": -0.461730273,
				"element": "H" 
			},
			{
				"x": 0.9380948415,
				"y": 0.8933123125,
				"z": 1.1790737577,
				"element": "H" 
			},
			{
				"x": -1.0587286795,
				"y": 2.3439206409,
				"z": 1.0395934946,
				"element": "H" 
			},
			{
				"x": -1.3548784962,
				"y": 0.9627943986,
				"z": 2.1029726305,
				"element": "H" 
			},
			{
				"x": -2.0472473711,
				"y": 0.9841099608,
				"z": 0.4805040734,
				"element": "H" 
			}
		],
		 "valence_orbital": [ 
			{
				"type": "occ",
				"energy": -0.31006,
				"method": "rhf"
			},
			{
				"type": "occ",
				"energy": -0.30358,
				"method": "rhf"
			},
			{
				"type": "occ",
				"energy": -0.29751,
				"method": "rhf"
			},
			{
				"type": "occ",
				"energy": -0.25583,
				"method": "rhf"
			},
			{
				"type": "occ",
				"energy": -0.25141,
				"method": "rhf"
			},
			{
				"type": "unocc",
				"energy": 0.01501,
				"method": "rhf"
			},
			{
				"type": "unocc",
				"energy": 0.02131,
				"method": "rhf"
			},
			{
				"type": "unocc",
				"energy": 0.06748,
				"method": "rhf"
			},
			{
				"type": "unocc",
				"energy": 0.08524,
				"method": "rhf"
			},
			{
				"type": "unocc",
				"energy": 0.09854,
				"method": "rhf"
			}
		],
		"cosmo_sigma_profile": { 
			"-0.025": 0.0,
			"-0.024": 0.0,
			"-0.023": 0.0,
			"-0.022": 0.0,
			"-0.021": 0.0,
			"-0.02": 0.0,
			"-0.019": 0.0,
			"-0.018": 0.0,
			"-0.017": 0.0,
			"-0.016": 0.0,
			"-0.015": 0.0,
			"-0.014": 0.0,
			"-0.013": 0.0,
			"-0.012": 0.0,
			"-0.011": 0.0786797674865,
			"-0.01": 0.997767769765,
			"-0.009": 2.80372707209,
			"-0.008": 5.22335566877,
			"-0.007": 4.47103066329,
			"-0.006": 4.91299642968,
			"-0.005": 5.68677742439,
			"-0.004": 6.84649736423,
			"-0.003": 21.4853536192,
			"-0.002": 34.8878954293,
			"-0.001": 42.0366322222,
			"0.0": 38.424149474,
			"0.001": 30.5924227477,
			"0.002": 12.8592289183,
			"0.003": 6.08551322221,
			"0.004": 6.12879486654,
			"0.005": 7.23365267663,
			"0.006": 5.81048505561,
			"0.007": 1.72221631644,
			"0.008": 1.33658147039,
			"0.009": 1.87897037591,
			"0.01": 1.18649977164,
			"0.011": 1.24325474678,
			"0.012": 1.97410966749,
			"0.013": 3.93766172421,
			"0.014": 4.03705027697,
			"0.015": 0.156351433847,
			"0.016": 0.0,
			"0.017": 0.0,
			"0.018": 0.0,
			"0.019": 0.0,
			"0.02": 0.0,
			"0.021": 0.0,
			"0.022": 0.0,
			"0.023": 0.0,
			"0.024": 0.0,
			"0.025": 0.0
		}
	}
}
