{
	 "smiles": "CC1=CC(C)=C(CO)C(C)=C1", 
	 "Tm": 360.15, 
	 "num_atms": 25, 
	 "gaussian": { 
		 "optdone": 1, 
		 "sigma_profile": "yes", 
		 "theory": "DFT", 
		 "functional": "B3LYP", 
		 "basiset": "6-31G**", 
		 "properties": { 
			 "R2extent": 2478.9805, 
			 "electric_dipole_moment_norm": 1.97655417836, 
			 "electric_quadrupole_moment_norm": 4.65822912382, 
			 "total_energy": -464.733460429, 
			 "HOMO_LUMO_gap": 0.2235, 
			 "cosmo_polarized_energy": -6.75, 
			 "cosmo_cavitation_energy": 26.93, 
			 "cosmo_dispersion_energy": -19.37, 
			 "cosmo_repulsion_energy": 1.55, 
			 "cosmo_total_nonelectrostatic_energy": 9.12, 
			 "SMD_solvation_energy": 4.65 
		},
		"coords": [
			{
				"x": 2.1931253134,
				"y": -3.1531402316,
				"z": 2.8482113217,
				"element": "C" 
			},
			{
				"x": 1.3680271365,
				"y": -2.1088040396,
				"z": 2.1334884498,
				"element": "C" 
			},
			{
				"x": 0.9825106552,
				"y": -2.2848409599,
				"z": 0.8012713937,
				"element": "C" 
			},
			{
				"x": 0.243145868,
				"y": -1.3176042,
				"z": 0.1129730934,
				"element": "C" 
			},
			{
				"x": -0.1339411789,
				"y": -1.5584450238,
				"z": -1.3337058815,
				"element": "C" 
			},
			{
				"x": -0.1382829912,
				"y": -0.1349213553,
				"z": 0.7821209471,
				"element": "C" 
			},
			{
				"x": -0.9041940888,
				"y": 0.940561213,
				"z": 0.0456104976,
				"element": "C" 
			},
			{
				"x": -0.0390751339,
				"y": 1.8841897636,
				"z": -0.6106679793,
				"element": "O" 
			},
			{
				"x": 0.2596409403,
				"y": 0.0695001849,
				"z": 2.1207373763,
				"element": "C" 
			},
			{
				"x": -0.0997625893,
				"y": 1.3401968714,
				"z": 2.8618463937,
				"element": "C" 
			},
			{
				"x": 0.9987832436,
				"y": -0.9221107658,
				"z": 2.7736676592,
				"element": "C" 
			},
			{
				"x": 3.2669420754,
				"y": -2.9709673003,
				"z": 2.7134849244,
				"element": "H" 
			},
			{
				"x": 1.9969215105,
				"y": -3.1507392784,
				"z": 3.924697839,
				"element": "H" 
			},
			{
				"x": 1.9849005174,
				"y": -4.1576041036,
				"z": 2.4673982266,
				"element": "H" 
			},
			{
				"x": 1.2677709251,
				"y": -3.1974385515,
				"z": 0.2819311207,
				"element": "H" 
			},
			{
				"x": 0.410096114,
				"y": -2.4157081369,
				"z": -1.7388039415,
				"element": "H" 
			},
			{
				"x": 0.0893539732,
				"y": -0.6879625754,
				"z": -1.9583465071,
				"element": "H" 
			},
			{
				"x": -1.20514396,
				"y": -1.7674674874,
				"z": -1.4448885373,
				"element": "H" 
			},
			{
				"x": -1.5499199956,
				"y": 1.4946117776,
				"z": 0.736089561,
				"element": "H" 
			},
			{
				"x": -1.5594737618,
				"y": 0.49633901,
				"z": -0.7119528928,
				"element": "H" 
			},
			{
				"x": 0.8677938167,
				"y": 1.610247797,
				"z": -0.4273746952,
				"element": "H" 
			},
			{
				"x": 0.4555165083,
				"y": 1.4120283418,
				"z": 3.8007230935,
				"element": "H" 
			},
			{
				"x": -1.1679897758,
				"y": 1.3779659653,
				"z": 3.1088410791,
				"element": "H" 
			},
			{
				"x": 0.1231095898,
				"y": 2.2306813764,
				"z": 2.2659238742,
				"element": "H" 
			},
			{
				"x": 1.2968452878,
				"y": -0.7614682914,
				"z": 3.8077235837,
				"element": "H" 
			}
		],
		 "valence_orbital": [ 
			{
				"type": "occ",
				"energy": -0.32992,
				"method": "rhf"
			},
			{
				"type": "occ",
				"energy": -0.31032,
				"method": "rhf"
			},
			{
				"type": "occ",
				"energy": -0.2597,
				"method": "rhf"
			},
			{
				"type": "occ",
				"energy": -0.23582,
				"method": "rhf"
			},
			{
				"type": "occ",
				"energy": -0.23202,
				"method": "rhf"
			},
			{
				"type": "unocc",
				"energy": -0.00852,
				"method": "rhf"
			},
			{
				"type": "unocc",
				"energy": 0.00461,
				"method": "rhf"
			},
			{
				"type": "unocc",
				"energy": 0.09111,
				"method": "rhf"
			},
			{
				"type": "unocc",
				"energy": 0.09992,
				"method": "rhf"
			},
			{
				"type": "unocc",
				"energy": 0.11585,
				"method": "rhf"
			}
		],
		"cosmo_sigma_profile": { 
			"-0.025": 0.0,
			"-0.024": 0.0,
			"-0.023": 0.0,
			"-0.022": 0.0,
			"-0.021": 0.0,
			"-0.02": 0.0,
			"-0.019": 0.0,
			"-0.018": 0.0,
			"-0.017": 0.0,
			"-0.016": 0.0,
			"-0.015": 0.0542465966923,
			"-0.014": 0.318604295308,
			"-0.013": 0.844595263172,
			"-0.012": 0.898592603932,
			"-0.011": 0.00394538089548,
			"-0.01": 0.486639680035,
			"-0.009": 0.720095493554,
			"-0.008": 1.12139709065,
			"-0.007": 0.997995148595,
			"-0.006": 0.699006439636,
			"-0.005": 3.36129036608,
			"-0.004": 21.3575142202,
			"-0.003": 27.0737367312,
			"-0.002": 27.2636399581,
			"-0.001": 25.0545217396,
			"0.0": 29.6813011151,
			"0.001": 18.3951112343,
			"0.002": 9.42282475361,
			"0.003": 7.15326644479,
			"0.004": 6.74895597961,
			"0.005": 7.08883481567,
			"0.006": 8.19778904126,
			"0.007": 3.13976156491,
			"0.008": 0.78368926642,
			"0.009": 1.19197275579,
			"0.01": 1.66150504075,
			"0.011": 0.599385832684,
			"0.012": 0.955169917124,
			"0.013": 1.54872762991,
			"0.014": 2.05963039319,
			"0.015": 1.74002882653,
			"0.016": 0.0204756737373,
			"0.017": 0.0,
			"0.018": 0.0,
			"0.019": 0.0,
			"0.02": 0.0,
			"0.021": 0.0,
			"0.022": 0.0,
			"0.023": 0.0,
			"0.024": 0.0,
			"0.025": 0.0
		}
	}
}
