{
	 "smiles": "CNS(=O)(=O)C1=CC(C)=C(Br)C=C1", 
	 "Tm": 351.15, 
	 "num_atms": 23, 
	 "gaussian": { 
		 "optdone": 1, 
		 "sigma_profile": "yes", 
		 "theory": "DFT", 
		 "functional": "B3LYP", 
		 "basiset": "6-31G**", 
		 "properties": { 
			 "R2extent": 5462.9225, 
			 "electric_dipole_moment_norm": 4.85859126599, 
			 "electric_quadrupole_moment_norm": 15.0141206406, 
			 "total_energy": -3485.60370431, 
			 "HOMO_LUMO_gap": 0.2084, 
			 "cosmo_polarized_energy": -15.25, 
			 "cosmo_cavitation_energy": 30.16, 
			 "cosmo_dispersion_energy": -22.52, 
			 "cosmo_repulsion_energy": 1.74, 
			 "cosmo_total_nonelectrostatic_energy": 9.38, 
			 "SMD_solvation_energy": 3.07 
		},
		"coords": [
			{
				"x": 2.4725767417,
				"y": 1.0087448826,
				"z": -0.3767741757,
				"element": "C" 
			},
			{
				"x": 1.9106613321,
				"y": 0.1423424795,
				"z": -1.4132070681,
				"element": "N" 
			},
			{
				"x": 1.2469146201,
				"y": -1.3370532444,
				"z": -0.9813798705,
				"element": "S" 
			},
			{
				"x": 0.7738894347,
				"y": -1.9254003856,
				"z": -2.2346689149,
				"element": "O" 
			},
			{
				"x": 2.2257659827,
				"y": -1.9894490754,
				"z": -0.1116035098,
				"element": "O" 
			},
			{
				"x": -0.2020749065,
				"y": -0.986021814,
				"z": 0.0269292744,
				"element": "C" 
			},
			{
				"x": -1.4401182951,
				"y": -0.8167059105,
				"z": -0.5945814397,
				"element": "C" 
			},
			{
				"x": -2.5875973321,
				"y": -0.5111426234,
				"z": 0.1477015503,
				"element": "C" 
			},
			{
				"x": -3.9195765026,
				"y": -0.343432147,
				"z": -0.5353929582,
				"element": "C" 
			},
			{
				"x": -2.4279024537,
				"y": -0.381971326,
				"z": 1.5378410161,
				"element": "C" 
			},
			{
				"x": -3.9378484343,
				"y": 0.0395390738,
				"z": 2.6331997264,
				"element": "Br" 
			},
			{
				"x": -1.1973626682,
				"y": -0.5601117832,
				"z": 2.1692194629,
				"element": "C" 
			},
			{
				"x": -0.0695356722,
				"y": -0.8675236778,
				"z": 1.410754898,
				"element": "C" 
			},
			{
				"x": 1.7181613986,
				"y": 1.4405846767,
				"z": 0.2957614414,
				"element": "H" 
			},
			{
				"x": 3.0133225109,
				"y": 1.8205135864,
				"z": -0.8692839402,
				"element": "H" 
			},
			{
				"x": 3.1863129351,
				"y": 0.4280375706,
				"z": 0.2094754603,
				"element": "H" 
			},
			{
				"x": 1.3315817036,
				"y": 0.6026518338,
				"z": -2.1085351977,
				"element": "H" 
			},
			{
				"x": -1.5167910823,
				"y": -0.950794,
				"z": -1.6689586109,
				"element": "H" 
			},
			{
				"x": -3.822373676,
				"y": -0.4902469012,
				"z": -1.6134410091,
				"element": "H" 
			},
			{
				"x": -4.6521404171,
				"y": -1.0623085952,
				"z": -0.1538953746,
				"element": "H" 
			},
			{
				"x": -4.3335928733,
				"y": 0.6545813436,
				"z": -0.3569468885,
				"element": "H" 
			},
			{
				"x": -1.1264150902,
				"y": -0.46667475,
				"z": 3.2467371414,
				"element": "H" 
			},
			{
				"x": 0.8900427441,
				"y": -1.0398592133,
				"z": 1.8849489868,
				"element": "H" 
			}
		],
		 "valence_orbital": [ 
			{
				"type": "occ",
				"energy": -0.30401,
				"method": "rhf"
			},
			{
				"type": "occ",
				"energy": -0.29917,
				"method": "rhf"
			},
			{
				"type": "occ",
				"energy": -0.28593,
				"method": "rhf"
			},
			{
				"type": "occ",
				"energy": -0.27411,
				"method": "rhf"
			},
			{
				"type": "occ",
				"energy": -0.25657,
				"method": "rhf"
			},
			{
				"type": "unocc",
				"energy": -0.04817,
				"method": "rhf"
			},
			{
				"type": "unocc",
				"energy": -0.03033,
				"method": "rhf"
			},
			{
				"type": "unocc",
				"energy": -0.00487,
				"method": "rhf"
			},
			{
				"type": "unocc",
				"energy": 0.05909,
				"method": "rhf"
			},
			{
				"type": "unocc",
				"energy": 0.07731,
				"method": "rhf"
			}
		],
		"cosmo_sigma_profile": { 
			"-0.025": 0.0,
			"-0.024": 0.0,
			"-0.023": 0.0,
			"-0.022": 0.0,
			"-0.021": 0.0,
			"-0.02": 0.0,
			"-0.019": 0.0,
			"-0.018": 0.0,
			"-0.017": 0.0,
			"-0.016": 0.000616284427752,
			"-0.015": 0.819167719144,
			"-0.014": 1.24564797771,
			"-0.013": 1.37709633992,
			"-0.012": 1.14476097861,
			"-0.011": 1.19075098999,
			"-0.01": 1.23541532844,
			"-0.009": 0.653175693849,
			"-0.008": 3.48096433819,
			"-0.007": 7.52159130362,
			"-0.006": 10.3879882511,
			"-0.005": 13.2539289904,
			"-0.004": 18.484292255,
			"-0.003": 22.7986126156,
			"-0.002": 20.8031979851,
			"-0.001": 18.4761333397,
			"0.0": 17.0613083541,
			"0.001": 21.6315578423,
			"0.002": 17.4861486233,
			"0.003": 10.7698844674,
			"0.004": 11.8444940508,
			"0.005": 4.00499014196,
			"0.006": 4.37628888864,
			"0.007": 4.35064544817,
			"0.008": 4.40701332734,
			"0.009": 3.40996836633,
			"0.01": 7.4170451118,
			"0.011": 9.17935633622,
			"0.012": 4.05795748877,
			"0.013": 0.0,
			"0.014": 0.0,
			"0.015": 0.0,
			"0.016": 0.0,
			"0.017": 0.0,
			"0.018": 0.0,
			"0.019": 0.0,
			"0.02": 0.0,
			"0.021": 0.0,
			"0.022": 0.0,
			"0.023": 0.0,
			"0.024": 0.0,
			"0.025": 0.0
		}
	}
}
