{
	 "smiles": "C1CSC1", 
	 "Tm": 199.95, 
	 "num_atms": 10, 
	 "gaussian": { 
		 "optdone": 1, 
		 "sigma_profile": "yes", 
		 "theory": "DFT", 
		 "functional": "B3LYP", 
		 "basiset": "6-31G**", 
		 "properties": { 
			 "R2extent": 874.4365, 
			 "electric_dipole_moment_norm": 2.0588711883, 
			 "electric_quadrupole_moment_norm": 7.32498336517, 
			 "total_energy": -516.099269096, 
			 "HOMO_LUMO_gap": 0.22352, 
			 "cosmo_polarized_energy": -3.85, 
			 "cosmo_cavitation_energy": 13.91, 
			 "cosmo_dispersion_energy": -11.43, 
			 "cosmo_repulsion_energy": 0.98, 
			 "cosmo_total_nonelectrostatic_energy": 3.46, 
			 "SMD_solvation_energy": 1.9 
		},
		"coords": [
			{
				"x": 0.3789857924,
				"y": 0.0373830243,
				"z": -0.9252849195,
				"element": "C" 
			},
			{
				"x": 0.1678061791,
				"y": 0.7414799477,
				"z": -2.2838959232,
				"element": "C" 
			},
			{
				"x": 0.8535682649,
				"y": 2.3369045866,
				"z": -1.6142315665,
				"element": "S" 
			},
			{
				"x": 0.5443867794,
				"y": 1.3226831374,
				"z": -0.0845686516,
				"element": "C" 
			},
			{
				"x": -0.4342517934,
				"y": -0.6254456687,
				"z": -0.6108696214,
				"element": "H" 
			},
			{
				"x": 1.3073785292,
				"y": -0.5402555325,
				"z": -0.9316025783,
				"element": "H" 
			},
			{
				"x": -0.8833797273,
				"y": 0.8531943268,
				"z": -2.5620234609,
				"element": "H" 
			},
			{
				"x": 0.7264614452,
				"y": 0.3394539171,
				"z": -3.1311866035,
				"element": "H" 
			},
			{
				"x": -0.3732703184,
				"y": 1.6405167988,
				"z": 0.4171400199,
				"element": "H" 
			},
			{
				"x": 1.370314849,
				"y": 1.3331854626,
				"z": 0.629123305,
				"element": "H" 
			}
		],
		 "valence_orbital": [ 
			{
				"type": "occ",
				"energy": -0.37947,
				"method": "rhf"
			},
			{
				"type": "occ",
				"energy": -0.35757,
				"method": "rhf"
			},
			{
				"type": "occ",
				"energy": -0.33346,
				"method": "rhf"
			},
			{
				"type": "occ",
				"energy": -0.2902,
				"method": "rhf"
			},
			{
				"type": "occ",
				"energy": -0.21723,
				"method": "rhf"
			},
			{
				"type": "unocc",
				"energy": 0.00629,
				"method": "rhf"
			},
			{
				"type": "unocc",
				"energy": 0.06498,
				"method": "rhf"
			},
			{
				"type": "unocc",
				"energy": 0.09499,
				"method": "rhf"
			},
			{
				"type": "unocc",
				"energy": 0.10284,
				"method": "rhf"
			},
			{
				"type": "unocc",
				"energy": 0.15263,
				"method": "rhf"
			}
		],
		"cosmo_sigma_profile": { 
			"-0.025": 0.0,
			"-0.024": 0.0,
			"-0.023": 0.0,
			"-0.022": 0.0,
			"-0.021": 0.0,
			"-0.02": 0.0,
			"-0.019": 0.0,
			"-0.018": 0.0,
			"-0.017": 0.0,
			"-0.016": 0.0,
			"-0.015": 0.0,
			"-0.014": 0.0,
			"-0.013": 0.0,
			"-0.012": 0.0,
			"-0.011": 0.0,
			"-0.01": 0.0,
			"-0.009": 0.0,
			"-0.008": 0.0,
			"-0.007": 0.0,
			"-0.006": 0.211241070792,
			"-0.005": 6.25568745167,
			"-0.004": 13.2389422103,
			"-0.003": 16.6272492954,
			"-0.002": 17.261864371,
			"-0.001": 17.8592617189,
			"0.0": 7.00192476822,
			"0.001": 3.56938638035,
			"0.002": 2.91854210058,
			"0.003": 3.59221061213,
			"0.004": 2.46293469225,
			"0.005": 4.00555931227,
			"0.006": 3.71706349935,
			"0.007": 3.27416947102,
			"0.008": 1.88471505764,
			"0.009": 2.38089788078,
			"0.01": 2.37763506239,
			"0.011": 2.08947680773,
			"0.012": 0.732131768136,
			"0.013": 0.0,
			"0.014": 0.0,
			"0.015": 0.0,
			"0.016": 0.0,
			"0.017": 0.0,
			"0.018": 0.0,
			"0.019": 0.0,
			"0.02": 0.0,
			"0.021": 0.0,
			"0.022": 0.0,
			"0.023": 0.0,
			"0.024": 0.0,
			"0.025": 0.0
		}
	}
}
