{
	 "smiles": "FC(F)(F)C1=NC(Br)=CC=C1", 
	 "Tm": 322.65, 
	 "num_atms": 14, 
	 "gaussian": { 
		 "optdone": 1, 
		 "sigma_profile": "yes", 
		 "theory": "DFT", 
		 "functional": "B3LYP", 
		 "basiset": "6-31G**", 
		 "properties": { 
			 "R2extent": 3103.7939, 
			 "electric_dipole_moment_norm": 4.11583740447, 
			 "electric_quadrupole_moment_norm": 7.27068648891, 
			 "total_energy": -3156.11978447, 
			 "HOMO_LUMO_gap": 0.20998, 
			 "cosmo_polarized_energy": -7.13, 
			 "cosmo_cavitation_energy": 22.7, 
			 "cosmo_dispersion_energy": -16.75, 
			 "cosmo_repulsion_energy": 1.3, 
			 "cosmo_total_nonelectrostatic_energy": 7.25, 
			 "SMD_solvation_energy": 2.75 
		},
		"coords": [
			{
				"x": -1.1626700399,
				"y": -0.7880040885,
				"z": 2.8386610864,
				"element": "F" 
			},
			{
				"x": -1.5919725441,
				"y": -0.0590974486,
				"z": 1.7934589514,
				"element": "C" 
			},
			{
				"x": -1.0758507417,
				"y": 1.1765805048,
				"z": 1.9156427479,
				"element": "F" 
			},
			{
				"x": -2.9369504819,
				"y": 0.0459828269,
				"z": 1.8904252049,
				"element": "F" 
			},
			{
				"x": -1.1889139901,
				"y": -0.695331875,
				"z": 0.4770340004,
				"element": "C" 
			},
			{
				"x": 0.1325399455,
				"y": -0.8357942648,
				"z": 0.3053149122,
				"element": "N" 
			},
			{
				"x": 0.5412341904,
				"y": -1.3829800677,
				"z": -0.8199051438,
				"element": "C" 
			},
			{
				"x": 2.4332777078,
				"y": -1.5794011374,
				"z": -1.0556447106,
				"element": "Br" 
			},
			{
				"x": -0.3075014015,
				"y": -1.8251246909,
				"z": -1.8424162144,
				"element": "C" 
			},
			{
				"x": -1.674770066,
				"y": -1.6709239622,
				"z": -1.6458386394,
				"element": "C" 
			},
			{
				"x": -2.1370087505,
				"y": -1.0926853119,
				"z": -0.459615,
				"element": "C" 
			},
			{
				"x": 0.0972617161,
				"y": -2.2672782205,
				"z": -2.7442969088,
				"element": "H" 
			},
			{
				"x": -2.3752589846,
				"y": -1.997612443,
				"z": -2.4082567245,
				"element": "H" 
			},
			{
				"x": -3.1934165595,
				"y": -0.9546298213,
				"z": -0.2675635617,
				"element": "H" 
			}
		],
		 "valence_orbital": [ 
			{
				"type": "occ",
				"energy": -0.33434,
				"method": "rhf"
			},
			{
				"type": "occ",
				"energy": -0.31491,
				"method": "rhf"
			},
			{
				"type": "occ",
				"energy": -0.29877,
				"method": "rhf"
			},
			{
				"type": "occ",
				"energy": -0.29086,
				"method": "rhf"
			},
			{
				"type": "occ",
				"energy": -0.27004,
				"method": "rhf"
			},
			{
				"type": "unocc",
				"energy": -0.06006,
				"method": "rhf"
			},
			{
				"type": "unocc",
				"energy": -0.04526,
				"method": "rhf"
			},
			{
				"type": "unocc",
				"energy": -0.00162,
				"method": "rhf"
			},
			{
				"type": "unocc",
				"energy": 0.08613,
				"method": "rhf"
			},
			{
				"type": "unocc",
				"energy": 0.09994,
				"method": "rhf"
			}
		],
		"cosmo_sigma_profile": { 
			"-0.025": 0.0,
			"-0.024": 0.0,
			"-0.023": 0.0,
			"-0.022": 0.0,
			"-0.021": 0.0,
			"-0.02": 0.0,
			"-0.019": 0.0,
			"-0.018": 0.0,
			"-0.017": 0.0,
			"-0.016": 0.0,
			"-0.015": 0.0,
			"-0.014": 0.0,
			"-0.013": 0.0,
			"-0.012": 0.0,
			"-0.011": 0.0,
			"-0.01": 0.0,
			"-0.009": 3.1003638216,
			"-0.008": 6.56984051117,
			"-0.007": 6.91936038995,
			"-0.006": 4.97529264685,
			"-0.005": 5.78679298908,
			"-0.004": 8.09554578806,
			"-0.003": 9.79064493213,
			"-0.002": 14.2084572006,
			"-0.001": 17.0703569837,
			"0.0": 17.1854183562,
			"0.001": 11.6309063003,
			"0.002": 28.6901491107,
			"0.003": 26.1365499145,
			"0.004": 13.1225794659,
			"0.005": 4.59819210993,
			"0.006": 2.85466367915,
			"0.007": 1.74773464256,
			"0.008": 1.14632285712,
			"0.009": 1.45796619454,
			"0.01": 0.704334794171,
			"0.011": 0.830993013448,
			"0.012": 0.224518102282,
			"0.013": 0.0,
			"0.014": 0.0,
			"0.015": 0.0,
			"0.016": 0.0,
			"0.017": 0.0,
			"0.018": 0.0,
			"0.019": 0.0,
			"0.02": 0.0,
			"0.021": 0.0,
			"0.022": 0.0,
			"0.023": 0.0,
			"0.024": 0.0,
			"0.025": 0.0
		}
	}
}
