{
	 "smiles": "CCCCCCCCC(NC(=O)OCC1C2=C(C=CC=C2)C2=C1C=CC=C2)C(O)=O", 
	 "Tm": 416.15, 
	 "num_atms": 61, 
	 "gaussian": { 
		 "optdone": 1, 
		 "sigma_profile": "yes", 
		 "theory": "DFT", 
		 "functional": "B3LYP", 
		 "basiset": "6-31G**", 
		 "properties": { 
			 "R2extent": 20436.2508, 
			 "electric_dipole_moment_norm": 2.53018233335, 
			 "electric_quadrupole_moment_norm": 26.8348777443, 
			 "total_energy": -1327.0694083, 
			 "HOMO_LUMO_gap": 0.18441, 
			 "cosmo_polarized_energy": -20.38, 
			 "cosmo_cavitation_energy": 63.59, 
			 "cosmo_dispersion_energy": -42.22, 
			 "cosmo_repulsion_energy": 3.27, 
			 "cosmo_total_nonelectrostatic_energy": 24.64, 
			 "SMD_solvation_energy": 10.48 
		},
		"coords": [
			{
				"x": 5.1831438593,
				"y": -4.9968657711,
				"z": 1.4056820237,
				"element": "C" 
			},
			{
				"x": 4.0029053196,
				"y": -5.1513292965,
				"z": 0.4412375941,
				"element": "C" 
			},
			{
				"x": 3.2240331136,
				"y": -3.8476404374,
				"z": 0.2219868162,
				"element": "C" 
			},
			{
				"x": 2.0415034049,
				"y": -4.0039481627,
				"z": -0.7444662563,
				"element": "C" 
			},
			{
				"x": 1.1858597118,
				"y": -2.7400962044,
				"z": -0.9306166747,
				"element": "C" 
			},
			{
				"x": 1.9060665126,
				"y": -1.5724083659,
				"z": -1.6201135942,
				"element": "C" 
			},
			{
				"x": 0.9907639054,
				"y": -0.3637002064,
				"z": -1.8563763302,
				"element": "C" 
			},
			{
				"x": 1.717375475,
				"y": 0.8045400286,
				"z": -2.5316618551,
				"element": "C" 
			},
			{
				"x": 0.8063263525,
				"y": 2.0287633682,
				"z": -2.8051691853,
				"element": "C" 
			},
			{
				"x": 0.260869469,
				"y": 2.6082684742,
				"z": -1.593164992,
				"element": "N" 
			},
			{
				"x": -1.0567847902,
				"y": 2.4317171553,
				"z": -1.2740459342,
				"element": "C" 
			},
			{
				"x": -1.8080091434,
				"y": 1.6297630721,
				"z": -1.8056782706,
				"element": "O" 
			},
			{
				"x": -1.402463194,
				"y": 3.2633830551,
				"z": -0.2571186147,
				"element": "O" 
			},
			{
				"x": -2.7564615353,
				"y": 3.1378745094,
				"z": 0.2221069393,
				"element": "C" 
			},
			{
				"x": -2.908813241,
				"y": 1.983081437,
				"z": 1.2263742278,
				"element": "C" 
			},
			{
				"x": -4.3481256809,
				"y": 1.8420557179,
				"z": 1.6967488747,
				"element": "C" 
			},
			{
				"x": -4.4195715864,
				"y": 1.9717246486,
				"z": 3.0992110432,
				"element": "C" 
			},
			{
				"x": -5.6490135457,
				"y": 1.880092002,
				"z": 3.75509734,
				"element": "C" 
			},
			{
				"x": -6.8025452393,
				"y": 1.6607701176,
				"z": 2.9982874987,
				"element": "C" 
			},
			{
				"x": -6.7303542793,
				"y": 1.5303590274,
				"z": 1.6072012885,
				"element": "C" 
			},
			{
				"x": -5.4986833484,
				"y": 1.6196357173,
				"z": 0.9474888889,
				"element": "C" 
			},
			{
				"x": -3.0619473435,
				"y": 2.1841233991,
				"z": 3.6186744437,
				"element": "C" 
			},
			{
				"x": -2.1594325684,
				"y": 2.1891508487,
				"z": 2.5336952385,
				"element": "C" 
			},
			{
				"x": -0.7970239167,
				"y": 2.3686491966,
				"z": 2.7532030982,
				"element": "C" 
			},
			{
				"x": -0.3387231212,
				"y": 2.544212275,
				"z": 4.0642642561,
				"element": "C" 
			},
			{
				"x": -1.2334986831,
				"y": 2.5381135113,
				"z": 5.1397341311,
				"element": "C" 
			},
			{
				"x": -2.601727023,
				"y": 2.3577122942,
				"z": 4.925626435,
				"element": "C" 
			},
			{
				"x": 1.5977656317,
				"y": 3.1210902262,
				"z": -3.535236109,
				"element": "C" 
			},
			{
				"x": 1.9732425433,
				"y": 2.8339256488,
				"z": -4.8028413472,
				"element": "O" 
			},
			{
				"x": 1.9165978399,
				"y": 4.1667225795,
				"z": -3.0227717468,
				"element": "O" 
			},
			{
				"x": 5.9043086624,
				"y": -4.2592231225,
				"z": 1.0351418049,
				"element": "H" 
			},
			{
				"x": 5.7167220847,
				"y": -5.9433510652,
				"z": 1.541393863,
				"element": "H" 
			},
			{
				"x": 4.846630943,
				"y": -4.6606384961,
				"z": 2.393135955,
				"element": "H" 
			},
			{
				"x": 3.3177785342,
				"y": -5.9216902024,
				"z": 0.820779971,
				"element": "H" 
			},
			{
				"x": 4.3672036376,
				"y": -5.5216501094,
				"z": -0.5268877766,
				"element": "H" 
			},
			{
				"x": 2.8533894767,
				"y": -3.4803027742,
				"z": 1.1901577294,
				"element": "H" 
			},
			{
				"x": 3.9154277461,
				"y": -3.0792002812,
				"z": -0.1491899121,
				"element": "H" 
			},
			{
				"x": 2.414913981,
				"y": -4.3362724195,
				"z": -1.7240221281,
				"element": "H" 
			},
			{
				"x": 1.3945321036,
				"y": -4.8129422116,
				"z": -0.379162617,
				"element": "H" 
			},
			{
				"x": 0.8125861951,
				"y": -2.4069160675,
				"z": 0.0481285693,
				"element": "H" 
			},
			{
				"x": 0.2960704993,
				"y": -3.0001343153,
				"z": -1.5196980908,
				"element": "H" 
			},
			{
				"x": 2.7695716661,
				"y": -1.2569390766,
				"z": -1.0199828161,
				"element": "H" 
			},
			{
				"x": 2.3136814485,
				"y": -1.9175356157,
				"z": -2.5818306522,
				"element": "H" 
			},
			{
				"x": 0.1288239584,
				"y": -0.6621407993,
				"z": -2.4670364881,
				"element": "H" 
			},
			{
				"x": 0.5786695148,
				"y": -0.0237229482,
				"z": -0.8993132916,
				"element": "H" 
			},
			{
				"x": 2.5595680257,
				"y": 1.1342042076,
				"z": -1.9098813761,
				"element": "H" 
			},
			{
				"x": 2.1518936928,
				"y": 0.463771587,
				"z": -3.4820834287,
				"element": "H" 
			},
			{
				"x": -0.0381557442,
				"y": 1.7082740485,
				"z": -3.4292621157,
				"element": "H" 
			},
			{
				"x": 0.7117784948,
				"y": 3.4599079721,
				"z": -1.2779913826,
				"element": "H" 
			},
			{
				"x": -2.9760003878,
				"y": 4.0954671848,
				"z": 0.6980122221,
				"element": "H" 
			},
			{
				"x": -3.4219438505,
				"y": 2.9863687245,
				"z": -0.6302737289,
				"element": "H" 
			},
			{
				"x": -2.5794764116,
				"y": 1.0675357052,
				"z": 0.7174857805,
				"element": "H" 
			},
			{
				"x": -5.7125104622,
				"y": 1.9762733067,
				"z": 4.8355142393,
				"element": "H" 
			},
			{
				"x": -7.7657773095,
				"y": 1.5877111695,
				"z": 3.4952952567,
				"element": "H" 
			},
			{
				"x": -7.6366409096,
				"y": 1.3554828835,
				"z": 1.0346648193,
				"element": "H" 
			},
			{
				"x": -5.4478170075,
				"y": 1.507612402,
				"z": -0.13249533,
				"element": "H" 
			},
			{
				"x": -0.1001070424,
				"y": 2.3798393658,
				"z": 1.9212992135,
				"element": "H" 
			},
			{
				"x": 0.722417904,
				"y": 2.6862152715,
				"z": 4.2482215754,
				"element": "H" 
			},
			{
				"x": -0.8602313965,
				"y": 2.6738952603,
				"z": 6.1508944676,
				"element": "H" 
			},
			{
				"x": -3.2922173697,
				"y": 2.3520911743,
				"z": 5.7646124139,
				"element": "H" 
			},
			{
				"x": 1.6115344241,
				"y": 1.9796693758,
				"z": -5.0794859741,
				"element": "H" 
			}
		],
		 "valence_orbital": [ 
			{
				"type": "occ",
				"energy": -0.27879,
				"method": "rhf"
			},
			{
				"type": "occ",
				"energy": -0.26634,
				"method": "rhf"
			},
			{
				"type": "occ",
				"energy": -0.24927,
				"method": "rhf"
			},
			{
				"type": "occ",
				"energy": -0.24195,
				"method": "rhf"
			},
			{
				"type": "occ",
				"energy": -0.21428,
				"method": "rhf"
			},
			{
				"type": "unocc",
				"energy": -0.02987,
				"method": "rhf"
			},
			{
				"type": "unocc",
				"energy": -0.01109,
				"method": "rhf"
			},
			{
				"type": "unocc",
				"energy": -0.00514,
				"method": "rhf"
			},
			{
				"type": "unocc",
				"energy": 0.00863,
				"method": "rhf"
			},
			{
				"type": "unocc",
				"energy": 0.03485,
				"method": "rhf"
			}
		],
		"cosmo_sigma_profile": { 
			"-0.025": 0.0,
			"-0.024": 0.0,
			"-0.023": 0.0,
			"-0.022": 0.0,
			"-0.021": 0.0,
			"-0.02": 0.221445564454,
			"-0.019": 1.07653785462,
			"-0.018": 1.20460456115,
			"-0.017": 1.42257859636,
			"-0.016": 0.793839939135,
			"-0.015": 0.613078772809,
			"-0.014": 1.23891176426,
			"-0.013": 1.2883759247,
			"-0.012": 1.16431208811,
			"-0.011": 1.4504720149,
			"-0.01": 1.67469468978,
			"-0.009": 1.62904627507,
			"-0.008": 2.39608383541,
			"-0.007": 2.77231139211,
			"-0.006": 13.169316539,
			"-0.005": 25.5893869826,
			"-0.004": 29.7274442686,
			"-0.003": 36.115444563,
			"-0.002": 52.4991735544,
			"-0.001": 63.4460064281,
			"0.0": 58.9069611053,
			"0.001": 48.8300841977,
			"0.002": 33.1399260473,
			"0.003": 20.8372257079,
			"0.004": 22.7179898071,
			"0.005": 22.1839065626,
			"0.006": 17.4178120737,
			"0.007": 4.98015505253,
			"0.008": 4.83598914076,
			"0.009": 6.16856878964,
			"0.01": 6.04421476064,
			"0.011": 5.61122314886,
			"0.012": 4.57399139954,
			"0.013": 2.70976208707,
			"0.014": 0.0,
			"0.015": 0.0,
			"0.016": 0.0,
			"0.017": 0.0,
			"0.018": 0.0,
			"0.019": 0.0,
			"0.02": 0.0,
			"0.021": 0.0,
			"0.022": 0.0,
			"0.023": 0.0,
			"0.024": 0.0,
			"0.025": 0.0
		}
	}
}
