{
	 "smiles": "CC1=NC=NC(NN)=C1", 
	 "Tm": 373.15, 
	 "num_atms": 17, 
	 "gaussian": { 
		 "optdone": 1, 
		 "sigma_profile": "yes", 
		 "theory": "DFT", 
		 "functional": "B3LYP", 
		 "basiset": "6-31G**", 
		 "properties": { 
			 "R2extent": 1586.9581, 
			 "electric_dipole_moment_norm": 2.04710674612, 
			 "electric_quadrupole_moment_norm": 9.40781547863, 
			 "total_energy": -414.337582517, 
			 "HOMO_LUMO_gap": 0.21255, 
			 "cosmo_polarized_energy": -11.27, 
			 "cosmo_cavitation_energy": 20.94, 
			 "cosmo_dispersion_energy": -15.81, 
			 "cosmo_repulsion_energy": 1.31, 
			 "cosmo_total_nonelectrostatic_energy": 6.45, 
			 "SMD_solvation_energy": 1.84 
		},
		"coords": [
			{
				"x": 1.3193710871,
				"y": -0.4921256942,
				"z": -3.517716527,
				"element": "C" 
			},
			{
				"x": 0.6590210891,
				"y": -0.2708284842,
				"z": -2.183604345,
				"element": "C" 
			},
			{
				"x": 1.439596235,
				"y": -0.4573439537,
				"z": -1.0904530319,
				"element": "N" 
			},
			{
				"x": 0.8466867667,
				"y": -0.2624845582,
				"z": 0.0822163743,
				"element": "C" 
			},
			{
				"x": -0.4211580999,
				"y": 0.0967739316,
				"z": 0.3194054553,
				"element": "N" 
			},
			{
				"x": -1.1844288312,
				"y": 0.2853067483,
				"z": -0.7692584492,
				"element": "C" 
			},
			{
				"x": -2.482229302,
				"y": 0.678016168,
				"z": -0.5688532871,
				"element": "N" 
			},
			{
				"x": -3.0850941117,
				"y": 0.6759525044,
				"z": 0.7044641036,
				"element": "N" 
			},
			{
				"x": -0.6703351463,
				"y": 0.1017245221,
				"z": -2.0720337088,
				"element": "C" 
			},
			{
				"x": 0.6290020485,
				"y": -0.3300631321,
				"z": -4.3492979449,
				"element": "H" 
			},
			{
				"x": 1.7132147428,
				"y": -1.5119888689,
				"z": -3.5758882969,
				"element": "H" 
			},
			{
				"x": 2.1733511968,
				"y": 0.1840477703,
				"z": -3.6285996673,
				"element": "H" 
			},
			{
				"x": 1.4647203514,
				"y": -0.4148710092,
				"z": 0.9666475585,
				"element": "H" 
			},
			{
				"x": -3.1353069388,
				"y": 0.5756138154,
				"z": -1.3310681407,
				"element": "H" 
			},
			{
				"x": -2.7258509675,
				"y": -0.1289312942,
				"z": 1.2194680578,
				"element": "H" 
			},
			{
				"x": -2.7358544288,
				"y": 1.4902604829,
				"z": 1.2080602331,
				"element": "H" 
			},
			{
				"x": -1.2926056913,
				"y": 0.2519410517,
				"z": -2.9491883837,
				"element": "H" 
			}
		],
		 "valence_orbital": [ 
			{
				"type": "occ",
				"energy": -0.29217,
				"method": "rhf"
			},
			{
				"type": "occ",
				"energy": -0.28008,
				"method": "rhf"
			},
			{
				"type": "occ",
				"energy": -0.27485,
				"method": "rhf"
			},
			{
				"type": "occ",
				"energy": -0.24671,
				"method": "rhf"
			},
			{
				"type": "occ",
				"energy": -0.22922,
				"method": "rhf"
			},
			{
				"type": "unocc",
				"energy": -0.01667,
				"method": "rhf"
			},
			{
				"type": "unocc",
				"energy": -0.00665,
				"method": "rhf"
			},
			{
				"type": "unocc",
				"energy": 0.08596,
				"method": "rhf"
			},
			{
				"type": "unocc",
				"energy": 0.09391,
				"method": "rhf"
			},
			{
				"type": "unocc",
				"energy": 0.11341,
				"method": "rhf"
			}
		],
		"cosmo_sigma_profile": { 
			"-0.025": 0.0,
			"-0.024": 0.0,
			"-0.023": 0.0,
			"-0.022": 0.0,
			"-0.021": 0.0,
			"-0.02": 0.0,
			"-0.019": 0.0,
			"-0.018": 0.0,
			"-0.017": 0.0,
			"-0.016": 0.0,
			"-0.015": 0.0136641983441,
			"-0.014": 1.12833648047,
			"-0.013": 1.2664591178,
			"-0.012": 1.50650361369,
			"-0.011": 2.07829367302,
			"-0.01": 3.48875492112,
			"-0.009": 3.56825071024,
			"-0.008": 2.66859144351,
			"-0.007": 4.81110320036,
			"-0.006": 6.76771125831,
			"-0.005": 9.47436439998,
			"-0.004": 10.4664819138,
			"-0.003": 9.32955930177,
			"-0.002": 10.9026826452,
			"-0.001": 13.3056710504,
			"0.0": 14.2713269516,
			"0.001": 13.4675169291,
			"0.002": 12.633150382,
			"0.003": 8.62452731818,
			"0.004": 4.30075398584,
			"0.005": 4.02460628026,
			"0.006": 3.64837881956,
			"0.007": 3.50965912325,
			"0.008": 2.74409257224,
			"0.009": 3.33858552995,
			"0.01": 1.98704281342,
			"0.011": 3.0511419675,
			"0.012": 1.93220597945,
			"0.013": 1.73245348976,
			"0.014": 1.57624204176,
			"0.015": 1.76906382978,
			"0.016": 1.41948761089,
			"0.017": 0.856407791461,
			"0.018": 0.0,
			"0.019": 0.0,
			"0.02": 0.0,
			"0.021": 0.0,
			"0.022": 0.0,
			"0.023": 0.0,
			"0.024": 0.0,
			"0.025": 0.0
		}
	}
}
