{
	 "smiles": "OC(=O)CC1=CNC2=C1C=C(C=C2)[N+]([O-])=O", 
	 "Tm": 463.15, 
	 "num_atms": 24, 
	 "gaussian": { 
		 "optdone": 1, 
		 "sigma_profile": "yes", 
		 "theory": "DFT", 
		 "functional": "B3LYP", 
		 "basiset": "6-31G**", 
		 "properties": { 
			 "R2extent": 4827.3109, 
			 "electric_dipole_moment_norm": 7.76444759465, 
			 "electric_quadrupole_moment_norm": 27.8422583962, 
			 "total_energy": -796.207002079, 
			 "HOMO_LUMO_gap": 0.15433, 
			 "cosmo_polarized_energy": -22.24, 
			 "cosmo_cavitation_energy": 29.94, 
			 "cosmo_dispersion_energy": -21.52, 
			 "cosmo_repulsion_energy": 1.69, 
			 "cosmo_total_nonelectrostatic_energy": 10.11, 
			 "SMD_solvation_energy": 8.34 
		},
		"coords": [
			{
				"x": 4.1501643132,
				"y": -0.1005598488,
				"z": 1.536644133,
				"element": "O" 
			},
			{
				"x": 2.9079500472,
				"y": -0.6423190438,
				"z": 1.5051870273,
				"element": "C" 
			},
			{
				"x": 2.7098258452,
				"y": -1.8329216438,
				"z": 1.5746416077,
				"element": "O" 
			},
			{
				"x": 1.8553385381,
				"y": 0.4446324288,
				"z": 1.3402904231,
				"element": "C" 
			},
			{
				"x": 0.4472776371,
				"y": -0.0105432919,
				"z": 1.5666953957,
				"element": "C" 
			},
			{
				"x": -0.3941555158,
				"y": 0.4372234679,
				"z": 2.5511289144,
				"element": "C" 
			},
			{
				"x": -1.6334520163,
				"y": -0.1687682348,
				"z": 2.4294034382,
				"element": "N" 
			},
			{
				"x": -1.6168645465,
				"y": -1.023852709,
				"z": 1.3547640211,
				"element": "C" 
			},
			{
				"x": -0.313699431,
				"y": -0.9535394272,
				"z": 0.782253977,
				"element": "C" 
			},
			{
				"x": -0.0207845043,
				"y": -1.736956637,
				"z": -0.3391195111,
				"element": "C" 
			},
			{
				"x": -1.0326633865,
				"y": -2.5416084503,
				"z": -0.8469069148,
				"element": "C" 
			},
			{
				"x": -2.3212623727,
				"y": -2.6110324162,
				"z": -0.2805798056,
				"element": "C" 
			},
			{
				"x": -2.624317456,
				"y": -1.8482177324,
				"z": 0.8342929819,
				"element": "C" 
			},
			{
				"x": -0.7472483095,
				"y": -3.3629859436,
				"z": -2.0271122928,
				"element": "N" 
			},
			{
				"x": 0.374034758,
				"y": -3.2793431617,
				"z": -2.5315794879,
				"element": "O" 
			},
			{
				"x": -1.647257032,
				"y": -4.0902468389,
				"z": -2.4530426042,
				"element": "O" 
			},
			{
				"x": 4.7691990483,
				"y": -0.8469046599,
				"z": 1.6064237335,
				"element": "H" 
			},
			{
				"x": 2.113989313,
				"y": 1.2704157649,
				"z": 2.0107864125,
				"element": "H" 
			},
			{
				"x": 1.9841421308,
				"y": 0.8430833163,
				"z": 0.3235528863,
				"element": "H" 
			},
			{
				"x": -0.2097453458,
				"y": 1.1539416008,
				"z": 3.3392174094,
				"element": "H" 
			},
			{
				"x": -2.420026872,
				"y": -0.0094209821,
				"z": 3.0377601052,
				"element": "H" 
			},
			{
				"x": 0.9564141897,
				"y": -1.7474033903,
				"z": -0.8036525706,
				"element": "H" 
			},
			{
				"x": -3.0528652737,
				"y": -3.2675217074,
				"z": -0.7329487957,
				"element": "H" 
			},
			{
				"x": -3.6109937585,
				"y": -1.8906504597,
				"z": 1.2851995163,
				"element": "H" 
			}
		],
		 "valence_orbital": [ 
			{
				"type": "occ",
				"energy": -0.29029,
				"method": "rhf"
			},
			{
				"type": "occ",
				"energy": -0.28353,
				"method": "rhf"
			},
			{
				"type": "occ",
				"energy": -0.27365,
				"method": "rhf"
			},
			{
				"type": "occ",
				"energy": -0.24619,
				"method": "rhf"
			},
			{
				"type": "occ",
				"energy": -0.2243,
				"method": "rhf"
			},
			{
				"type": "unocc",
				"energy": -0.06997,
				"method": "rhf"
			},
			{
				"type": "unocc",
				"energy": -0.02697,
				"method": "rhf"
			},
			{
				"type": "unocc",
				"energy": 0.0036,
				"method": "rhf"
			},
			{
				"type": "unocc",
				"energy": 0.02988,
				"method": "rhf"
			},
			{
				"type": "unocc",
				"energy": 0.04682,
				"method": "rhf"
			}
		],
		"cosmo_sigma_profile": { 
			"-0.025": 0.0,
			"-0.024": 0.0,
			"-0.023": 0.0,
			"-0.022": 0.0,
			"-0.021": 0.0,
			"-0.02": 0.0,
			"-0.019": 0.0,
			"-0.018": 0.776952996343,
			"-0.017": 1.030491963,
			"-0.016": 2.91804415074,
			"-0.015": 2.62912610482,
			"-0.014": 2.0929136554,
			"-0.013": 1.51724539572,
			"-0.012": 1.42621271157,
			"-0.011": 2.76443951938,
			"-0.01": 1.9304031328,
			"-0.009": 3.42567740605,
			"-0.008": 6.05144801068,
			"-0.007": 11.7624964504,
			"-0.006": 12.1657232777,
			"-0.005": 11.1237822832,
			"-0.004": 11.2402319169,
			"-0.003": 11.418200949,
			"-0.002": 10.7648686389,
			"-0.001": 10.9253274203,
			"0.0": 12.4459725898,
			"0.001": 15.6155019066,
			"0.002": 19.384836449,
			"0.003": 18.5530193936,
			"0.004": 9.09628077383,
			"0.005": 5.56744526471,
			"0.006": 6.3356459263,
			"0.007": 6.55814424131,
			"0.008": 13.7708854825,
			"0.009": 8.8844429529,
			"0.01": 7.5494465263,
			"0.011": 6.15806904438,
			"0.012": 3.43985898582,
			"0.013": 0.0464122731104,
			"0.014": 0.0,
			"0.015": 0.0,
			"0.016": 0.0,
			"0.017": 0.0,
			"0.018": 0.0,
			"0.019": 0.0,
			"0.02": 0.0,
			"0.021": 0.0,
			"0.022": 0.0,
			"0.023": 0.0,
			"0.024": 0.0,
			"0.025": 0.0
		}
	}
}
