{
	 "smiles": "OC1=C2N=C(C=O)C=CC2=CC=C1", 
	 "Tm": 371.15, 
	 "num_atms": 20, 
	 "gaussian": { 
		 "optdone": 1, 
		 "sigma_profile": "yes", 
		 "theory": "DFT", 
		 "functional": "B3LYP", 
		 "basiset": "6-31G**", 
		 "properties": { 
			 "R2extent": 3162.4258, 
			 "electric_dipole_moment_norm": 2.94112512655, 
			 "electric_quadrupole_moment_norm": 11.5577526786, 
			 "total_energy": -590.483729906, 
			 "HOMO_LUMO_gap": 0.13724, 
			 "cosmo_polarized_energy": -8.73, 
			 "cosmo_cavitation_energy": 24.82, 
			 "cosmo_dispersion_energy": -18.51, 
			 "cosmo_repulsion_energy": 1.43, 
			 "cosmo_total_nonelectrostatic_energy": 7.75, 
			 "SMD_solvation_energy": 4.64 
		},
		"coords": [
			{
				"x": 1.1944183633,
				"y": -1.2104943541,
				"z": 2.680017381,
				"element": "O" 
			},
			{
				"x": 1.4877094232,
				"y": -1.6079697688,
				"z": 1.4268124057,
				"element": "C" 
			},
			{
				"x": 0.4502842801,
				"y": -1.5851181787,
				"z": 0.4390160881,
				"element": "C" 
			},
			{
				"x": -0.766613097,
				"y": -1.1577253702,
				"z": 0.8506701252,
				"element": "N" 
			},
			{
				"x": -1.7508335732,
				"y": -1.123593217,
				"z": -0.0376428664,
				"element": "C" 
			},
			{
				"x": -3.06878781,
				"y": -0.6470242795,
				"z": 0.4621780236,
				"element": "C" 
			},
			{
				"x": -4.0641065759,
				"y": -0.5598849148,
				"z": -0.2294887658,
				"element": "O" 
			},
			{
				"x": -1.5883544229,
				"y": -1.5123561482,
				"z": -1.393089221,
				"element": "C" 
			},
			{
				"x": -0.3557608302,
				"y": -1.9470668502,
				"z": -1.817210761,
				"element": "C" 
			},
			{
				"x": 0.729226408,
				"y": -2.0008095773,
				"z": -0.9008713139,
				"element": "C" 
			},
			{
				"x": 2.037778838,
				"y": -2.4307730261,
				"z": -1.2272072127,
				"element": "C" 
			},
			{
				"x": 3.0155959198,
				"y": -2.4407640798,
				"z": -0.2506639175,
				"element": "C" 
			},
			{
				"x": 2.7549516467,
				"y": -2.0330078093,
				"z": 1.0769496302,
				"element": "C" 
			},
			{
				"x": 0.2489390197,
				"y": -0.9644333069,
				"z": 2.6623057467,
				"element": "H" 
			},
			{
				"x": -3.0638891291,
				"y": -0.3739541025,
				"z": 1.5377119009,
				"element": "H" 
			},
			{
				"x": -2.4461789217,
				"y": -1.4535478403,
				"z": -2.0535879249,
				"element": "H" 
			},
			{
				"x": -0.1965366361,
				"y": -2.2521987378,
				"z": -2.8481742831,
				"element": "H" 
			},
			{
				"x": 2.259913976,
				"y": -2.7483425953,
				"z": -2.2413729682,
				"element": "H" 
			},
			{
				"x": 4.0191735449,
				"y": -2.7710410007,
				"z": -0.5029175172,
				"element": "H" 
			},
			{
				"x": 3.5364695765,
				"y": -2.0482948426,
				"z": 1.82866545,
				"element": "H" 
			}
		],
		 "valence_orbital": [ 
			{
				"type": "occ",
				"energy": -0.30614,
				"method": "rhf"
			},
			{
				"type": "occ",
				"energy": -0.29753,
				"method": "rhf"
			},
			{
				"type": "occ",
				"energy": -0.26691,
				"method": "rhf"
			},
			{
				"type": "occ",
				"energy": -0.26246,
				"method": "rhf"
			},
			{
				"type": "occ",
				"energy": -0.22341,
				"method": "rhf"
			},
			{
				"type": "unocc",
				"energy": -0.08617,
				"method": "rhf"
			},
			{
				"type": "unocc",
				"energy": -0.04942,
				"method": "rhf"
			},
			{
				"type": "unocc",
				"energy": 0.00469,
				"method": "rhf"
			},
			{
				"type": "unocc",
				"energy": 0.02393,
				"method": "rhf"
			},
			{
				"type": "unocc",
				"energy": 0.08956,
				"method": "rhf"
			}
		],
		"cosmo_sigma_profile": { 
			"-0.025": 0.0,
			"-0.024": 0.0,
			"-0.023": 0.0,
			"-0.022": 0.0,
			"-0.021": 0.0,
			"-0.02": 0.0,
			"-0.019": 0.0,
			"-0.018": 0.0,
			"-0.017": 0.0,
			"-0.016": 0.0,
			"-0.015": 0.0,
			"-0.014": 0.0,
			"-0.013": 0.184673344655,
			"-0.012": 0.406770833661,
			"-0.011": 0.748115376282,
			"-0.01": 0.595847771366,
			"-0.009": 0.818946368412,
			"-0.008": 2.24556845197,
			"-0.007": 7.8582121646,
			"-0.006": 13.6508165674,
			"-0.005": 12.8789515881,
			"-0.004": 13.8875344917,
			"-0.003": 11.146538443,
			"-0.002": 10.8768409205,
			"-0.001": 16.698245761,
			"0.0": 21.2190788243,
			"0.001": 19.120482652,
			"0.002": 15.198456784,
			"0.003": 14.0295247068,
			"0.004": 11.1139342635,
			"0.005": 3.03360717759,
			"0.006": 1.98962303359,
			"0.007": 3.13122951254,
			"0.008": 3.3790220636,
			"0.009": 4.21461975472,
			"0.01": 4.94168147568,
			"0.011": 5.21598072725,
			"0.012": 1.46221420387,
			"0.013": 0.0830577328202,
			"0.014": 0.0,
			"0.015": 0.0,
			"0.016": 0.0,
			"0.017": 0.0,
			"0.018": 0.0,
			"0.019": 0.0,
			"0.02": 0.0,
			"0.021": 0.0,
			"0.022": 0.0,
			"0.023": 0.0,
			"0.024": 0.0,
			"0.025": 0.0
		}
	}
}
