{
	 "smiles": "[O-][N+](=O)C1=CC=C(CC#N)C=C1", 
	 "Tm": 389.15, 
	 "num_atms": 18, 
	 "gaussian": { 
		 "optdone": 1, 
		 "sigma_profile": "yes", 
		 "theory": "DFT", 
		 "functional": "B3LYP", 
		 "basiset": "6-31G**", 
		 "properties": { 
			 "R2extent": 3271.1775, 
			 "electric_dipole_moment_norm": 4.26911351102, 
			 "electric_quadrupole_moment_norm": 22.4719013437, 
			 "total_energy": -568.298156339, 
			 "HOMO_LUMO_gap": 0.19242, 
			 "cosmo_polarized_energy": -15.61, 
			 "cosmo_cavitation_energy": 24.6, 
			 "cosmo_dispersion_energy": -17.19, 
			 "cosmo_repulsion_energy": 1.38, 
			 "cosmo_total_nonelectrostatic_energy": 8.79, 
			 "SMD_solvation_energy": 7.99 
		},
		"coords": [
			{
				"x": -2.9104491927,
				"y": 1.4724090264,
				"z": 1.2042525715,
				"element": "O" 
			},
			{
				"x": -2.5248473912,
				"y": 0.5412993075,
				"z": 0.4992639741,
				"element": "N" 
			},
			{
				"x": -3.0997369607,
				"y": -0.5397746418,
				"z": 0.383303497,
				"element": "O" 
			},
			{
				"x": -1.2794232884,
				"y": 0.7352086322,
				"z": -0.2631683549,
				"element": "C" 
			},
			{
				"x": -0.8138896523,
				"y": -0.3011193172,
				"z": -1.0690099283,
				"element": "C" 
			},
			{
				"x": 0.3670970656,
				"y": -0.1116917794,
				"z": -1.781274478,
				"element": "C" 
			},
			{
				"x": 1.0712249083,
				"y": 1.095411762,
				"z": -1.68808391,
				"element": "C" 
			},
			{
				"x": 2.3585462593,
				"y": 1.2959944692,
				"z": -2.4766609946,
				"element": "C" 
			},
			{
				"x": 2.1171223616,
				"y": 1.8624958563,
				"z": -3.8105947581,
				"element": "C" 
			},
			{
				"x": 1.918573113,
				"y": 2.3102470974,
				"z": -4.8625316581,
				"element": "N" 
			},
			{
				"x": 0.5767684589,
				"y": 2.1200114478,
				"z": -0.8712003467,
				"element": "C" 
			},
			{
				"x": -0.6026231581,
				"y": 1.9475065425,
				"z": -0.1520224827,
				"element": "C" 
			},
			{
				"x": -1.3729593318,
				"y": -1.2266691851,
				"z": -1.1238623016,
				"element": "H" 
			},
			{
				"x": 0.743117025,
				"y": -0.909880681,
				"z": -2.414657852,
				"element": "H" 
			},
			{
				"x": 2.8845032447,
				"y": 0.3427912942,
				"z": -2.5998545305,
				"element": "H" 
			},
			{
				"x": 3.0370966383,
				"y": 1.9665104231,
				"z": -1.9377760542,
				"element": "H" 
			},
			{
				"x": 1.1160809674,
				"y": 3.0597688321,
				"z": -0.7958934747,
				"element": "H" 
			},
			{
				"x": -1.0017010669,
				"y": 2.7246809138,
				"z": 0.4874710818,
				"element": "H" 
			}
		],
		 "valence_orbital": [ 
			{
				"type": "occ",
				"energy": -0.31832,
				"method": "rhf"
			},
			{
				"type": "occ",
				"energy": -0.3156,
				"method": "rhf"
			},
			{
				"type": "occ",
				"energy": -0.29968,
				"method": "rhf"
			},
			{
				"type": "occ",
				"energy": -0.29272,
				"method": "rhf"
			},
			{
				"type": "occ",
				"energy": -0.29207,
				"method": "rhf"
			},
			{
				"type": "unocc",
				"energy": -0.09965,
				"method": "rhf"
			},
			{
				"type": "unocc",
				"energy": -0.04384,
				"method": "rhf"
			},
			{
				"type": "unocc",
				"energy": -0.01791,
				"method": "rhf"
			},
			{
				"type": "unocc",
				"energy": 0.02411,
				"method": "rhf"
			},
			{
				"type": "unocc",
				"energy": 0.0268,
				"method": "rhf"
			}
		],
		"cosmo_sigma_profile": { 
			"-0.025": 0.0,
			"-0.024": 0.0,
			"-0.023": 0.0,
			"-0.022": 0.0,
			"-0.021": 0.0,
			"-0.02": 0.0,
			"-0.019": 0.0,
			"-0.018": 0.0,
			"-0.017": 0.0,
			"-0.016": 0.0,
			"-0.015": 0.0,
			"-0.014": 0.0,
			"-0.013": 0.0,
			"-0.012": 0.0,
			"-0.011": 0.0,
			"-0.01": 2.68529620994,
			"-0.009": 8.43549744587,
			"-0.008": 11.0572327623,
			"-0.007": 12.2707256456,
			"-0.006": 13.1266177229,
			"-0.005": 8.86231135875,
			"-0.004": 8.59038172881,
			"-0.003": 9.02077795894,
			"-0.002": 10.7585823991,
			"-0.001": 13.1450636638,
			"0.0": 15.1944121989,
			"0.001": 16.3866854524,
			"0.002": 6.46961668901,
			"0.003": 4.5054286342,
			"0.004": 4.48759354875,
			"0.005": 5.53998610261,
			"0.006": 6.41680798544,
			"0.007": 10.8968263365,
			"0.008": 10.793715044,
			"0.009": 7.66841747182,
			"0.01": 5.39525297518,
			"0.011": 2.90048462279,
			"0.012": 2.34585874976,
			"0.013": 1.58125803099,
			"0.014": 0.0698626345492,
			"0.015": 0.0,
			"0.016": 0.0,
			"0.017": 0.0,
			"0.018": 0.0,
			"0.019": 0.0,
			"0.02": 0.0,
			"0.021": 0.0,
			"0.022": 0.0,
			"0.023": 0.0,
			"0.024": 0.0,
			"0.025": 0.0
		}
	}
}
