{
	 "smiles": "N#CCCN(CCC#N)C1=CC=CC=C1", 
	 "Tm": 357.15, 
	 "num_atms": 28, 
	 "gaussian": { 
		 "optdone": 1, 
		 "sigma_profile": "yes", 
		 "theory": "DFT", 
		 "functional": "B3LYP", 
		 "basiset": "6-31G**", 
		 "properties": { 
			 "R2extent": 4006.497, 
			 "electric_dipole_moment_norm": 6.78399554614, 
			 "electric_quadrupole_moment_norm": 23.2974500841, 
			 "total_energy": -629.319321577, 
			 "HOMO_LUMO_gap": 0.2047, 
			 "cosmo_polarized_energy": -18.64, 
			 "cosmo_cavitation_energy": 32.84, 
			 "cosmo_dispersion_energy": -21.72, 
			 "cosmo_repulsion_energy": 1.71, 
			 "cosmo_total_nonelectrostatic_energy": 12.82, 
			 "SMD_solvation_energy": 6.99 
		},
		"coords": [
			{
				"x": 1.0569635113,
				"y": 4.1501271697,
				"z": 1.034898558,
				"element": "N" 
			},
			{
				"x": 1.6774381721,
				"y": 3.2118333125,
				"z": 0.7455021486,
				"element": "C" 
			},
			{
				"x": 2.4539016863,
				"y": 2.0412529326,
				"z": 0.3343526702,
				"element": "C" 
			},
			{
				"x": 1.9728620094,
				"y": 1.4072826383,
				"z": -1.00555118,
				"element": "C" 
			},
			{
				"x": 0.745946313,
				"y": 0.6211136817,
				"z": -0.9364845312,
				"element": "N" 
			},
			{
				"x": -0.5191024479,
				"y": 1.3422512065,
				"z": -0.7932379434,
				"element": "C" 
			},
			{
				"x": -0.7370015566,
				"y": 2.3611414164,
				"z": -1.9344440703,
				"element": "C" 
			},
			{
				"x": -2.1221716568,
				"y": 2.8348544992,
				"z": -1.962163922,
				"element": "C" 
			},
			{
				"x": -3.2257633152,
				"y": 3.1934461057,
				"z": -1.9775801494,
				"element": "N" 
			},
			{
				"x": 0.8462785979,
				"y": -0.6347531156,
				"z": -0.2729175342,
				"element": "C" 
			},
			{
				"x": -0.0045537308,
				"y": -0.995658395,
				"z": 0.7858038229,
				"element": "C" 
			},
			{
				"x": 0.1002038367,
				"y": -2.2530139016,
				"z": 1.3859001685,
				"element": "C" 
			},
			{
				"x": 1.0621842132,
				"y": -3.1669303433,
				"z": 0.9618747304,
				"element": "C" 
			},
			{
				"x": 1.9170021064,
				"y": -2.813496105,
				"z": -0.0860793814,
				"element": "C" 
			},
			{
				"x": 1.8078350736,
				"y": -1.5703150631,
				"z": -0.7015033789,
				"element": "C" 
			},
			{
				"x": 3.4998459952,
				"y": 2.3528938948,
				"z": 0.2277519064,
				"element": "H" 
			},
			{
				"x": 2.4215395129,
				"y": 1.2865639559,
				"z": 1.128064097,
				"element": "H" 
			},
			{
				"x": 2.7787975389,
				"y": 0.759104607,
				"z": -1.3532609755,
				"element": "H" 
			},
			{
				"x": 1.8645552538,
				"y": 2.1924121524,
				"z": -1.75822283,
				"element": "H" 
			},
			{
				"x": -1.3171162127,
				"y": 0.5980912777,
				"z": -0.8465873953,
				"element": "H" 
			},
			{
				"x": -0.6259860351,
				"y": 1.8655878193,
				"z": 0.1679846937,
				"element": "H" 
			},
			{
				"x": -0.5050792832,
				"y": 1.8897400357,
				"z": -2.8963076366,
				"element": "H" 
			},
			{
				"x": -0.0860198978,
				"y": 3.234138432,
				"z": -1.8200986302,
				"element": "H" 
			},
			{
				"x": -0.7466817968,
				"y": -0.2972476532,
				"z": 1.1559462551,
				"element": "H" 
			},
			{
				"x": -0.5722633452,
				"y": -2.5071948386,
				"z": 2.200352182,
				"element": "H" 
			},
			{
				"x": 1.1436522464,
				"y": -4.1409555422,
				"z": 1.4340170465,
				"element": "H" 
			},
			{
				"x": 2.6630564185,
				"y": -3.5185753587,
				"z": -0.4418143813,
				"element": "H" 
			},
			{
				"x": 2.4500767927,
				"y": -1.3337948211,
				"z": -1.5441943398,
				"element": "H" 
			}
		],
		 "valence_orbital": [ 
			{
				"type": "occ",
				"energy": -0.32553,
				"method": "rhf"
			},
			{
				"type": "occ",
				"energy": -0.32308,
				"method": "rhf"
			},
			{
				"type": "occ",
				"energy": -0.28938,
				"method": "rhf"
			},
			{
				"type": "occ",
				"energy": -0.26174,
				"method": "rhf"
			},
			{
				"type": "occ",
				"energy": -0.21905,
				"method": "rhf"
			},
			{
				"type": "unocc",
				"energy": -0.01435,
				"method": "rhf"
			},
			{
				"type": "unocc",
				"energy": -0.00851,
				"method": "rhf"
			},
			{
				"type": "unocc",
				"energy": 0.01757,
				"method": "rhf"
			},
			{
				"type": "unocc",
				"energy": 0.02815,
				"method": "rhf"
			},
			{
				"type": "unocc",
				"energy": 0.03092,
				"method": "rhf"
			}
		],
		"cosmo_sigma_profile": { 
			"-0.025": 0.0,
			"-0.024": 0.0,
			"-0.023": 0.0,
			"-0.022": 0.0,
			"-0.021": 0.0,
			"-0.02": 0.0,
			"-0.019": 0.0,
			"-0.018": 0.0,
			"-0.017": 0.0,
			"-0.016": 0.0,
			"-0.015": 0.0,
			"-0.014": 0.0,
			"-0.013": 0.0,
			"-0.012": 0.0,
			"-0.011": 0.0,
			"-0.01": 0.0910570997744,
			"-0.009": 2.32429945956,
			"-0.008": 9.25467111028,
			"-0.007": 15.6269733677,
			"-0.006": 20.3342605882,
			"-0.005": 27.958322092,
			"-0.004": 22.106513499,
			"-0.003": 19.7305481188,
			"-0.002": 14.0730981994,
			"-0.001": 12.1796826704,
			"0.0": 9.36610699763,
			"0.001": 10.0226380841,
			"0.002": 10.0007392912,
			"0.003": 10.2784492407,
			"0.004": 12.8333574855,
			"0.005": 11.6436706662,
			"0.006": 14.241353582,
			"0.007": 6.71121606471,
			"0.008": 5.7753222528,
			"0.009": 6.94934200238,
			"0.01": 5.63994862308,
			"0.011": 5.79842880178,
			"0.012": 4.91371984379,
			"0.013": 4.05724467811,
			"0.014": 0.626448560912,
			"0.015": 0.0,
			"0.016": 0.0,
			"0.017": 0.0,
			"0.018": 0.0,
			"0.019": 0.0,
			"0.02": 0.0,
			"0.021": 0.0,
			"0.022": 0.0,
			"0.023": 0.0,
			"0.024": 0.0,
			"0.025": 0.0
		}
	}
}
