{
	 "smiles": "NC1=CC2=C(SC3=NCCN23)C=C1", 
	 "Tm": 475.15, 
	 "num_atms": 22, 
	 "gaussian": { 
		 "optdone": 1, 
		 "sigma_profile": "yes", 
		 "theory": "DFT", 
		 "functional": "B3LYP", 
		 "basiset": "6-31G**", 
		 "properties": { 
			 "R2extent": 3520.1568, 
			 "electric_dipole_moment_norm": 4.8919954262, 
			 "electric_quadrupole_moment_norm": 15.393057476, 
			 "total_energy": -910.814960455, 
			 "HOMO_LUMO_gap": 0.17962, 
			 "cosmo_polarized_energy": -14.17, 
			 "cosmo_cavitation_energy": 26.75, 
			 "cosmo_dispersion_energy": -20.81, 
			 "cosmo_repulsion_energy": 1.59, 
			 "cosmo_total_nonelectrostatic_energy": 7.53, 
			 "SMD_solvation_energy": -0.38 
		},
		"coords": [
			{
				"x": 1.8289853616,
				"y": 1.8271837611,
				"z": 0.9235971128,
				"element": "N" 
			},
			{
				"x": 0.5304362113,
				"y": 1.3404111942,
				"z": 0.7543593468,
				"element": "C" 
			},
			{
				"x": 0.286089073,
				"y": 0.2929290519,
				"z": -0.1536683572,
				"element": "C" 
			},
			{
				"x": -1.023067881,
				"y": -0.1386919446,
				"z": -0.3513512423,
				"element": "C" 
			},
			{
				"x": -2.0977055233,
				"y": 0.4530700957,
				"z": 0.3481685159,
				"element": "C" 
			},
			{
				"x": -3.6617509948,
				"y": -0.3071051362,
				"z": -0.0751123726,
				"element": "S" 
			},
			{
				"x": -2.8194892274,
				"y": -1.4354558746,
				"z": -1.1507576014,
				"element": "C" 
			},
			{
				"x": -3.2396921712,
				"y": -2.4308811259,
				"z": -1.8309161195,
				"element": "N" 
			},
			{
				"x": -2.0439685272,
				"y": -2.9513912311,
				"z": -2.5297769194,
				"element": "C" 
			},
			{
				"x": -0.7947269527,
				"y": -2.1769674061,
				"z": -1.9737615179,
				"element": "C" 
			},
			{
				"x": -1.4609398215,
				"y": -1.1312804987,
				"z": -1.2057586556,
				"element": "N" 
			},
			{
				"x": -1.8555924489,
				"y": 1.4878269548,
				"z": 1.2391800249,
				"element": "C" 
			},
			{
				"x": -0.5454084982,
				"y": 1.929726075,
				"z": 1.4423161767,
				"element": "C" 
			},
			{
				"x": 2.5659154399,
				"y": 1.165899806,
				"z": 0.7206727367,
				"element": "H" 
			},
			{
				"x": 1.9916436232,
				"y": 2.311636272,
				"z": 1.7955507415,
				"element": "H" 
			},
			{
				"x": 1.1056460069,
				"y": -0.1636427321,
				"z": -0.7008157572,
				"element": "H" 
			},
			{
				"x": -1.95413838,
				"y": -4.0303260047,
				"z": -2.3697033766,
				"element": "H" 
			},
			{
				"x": -2.1555766197,
				"y": -2.7903187899,
				"z": -3.6089883692,
				"element": "H" 
			},
			{
				"x": -0.165424535,
				"y": -2.7979959795,
				"z": -1.3223238299,
				"element": "H" 
			},
			{
				"x": -0.1656412542,
				"y": -1.7561087137,
				"z": -2.7646924174,
				"element": "H" 
			},
			{
				"x": -2.6717386262,
				"y": 1.9508848373,
				"z": 1.7853900207,
				"element": "H" 
			},
			{
				"x": -0.3545542547,
				"y": 2.7418973891,
				"z": 2.1378918603,
				"element": "H" 
			}
		],
		 "valence_orbital": [ 
			{
				"type": "occ",
				"energy": -0.29421,
				"method": "rhf"
			},
			{
				"type": "occ",
				"energy": -0.26638,
				"method": "rhf"
			},
			{
				"type": "occ",
				"energy": -0.25163,
				"method": "rhf"
			},
			{
				"type": "occ",
				"energy": -0.21708,
				"method": "rhf"
			},
			{
				"type": "occ",
				"energy": -0.18128,
				"method": "rhf"
			},
			{
				"type": "unocc",
				"energy": -0.00166,
				"method": "rhf"
			},
			{
				"type": "unocc",
				"energy": 0.01349,
				"method": "rhf"
			},
			{
				"type": "unocc",
				"energy": 0.01693,
				"method": "rhf"
			},
			{
				"type": "unocc",
				"energy": 0.0404,
				"method": "rhf"
			},
			{
				"type": "unocc",
				"energy": 0.07221,
				"method": "rhf"
			}
		],
		"cosmo_sigma_profile": { 
			"-0.025": 0.0,
			"-0.024": 0.0,
			"-0.023": 0.0,
			"-0.022": 0.0,
			"-0.021": 0.0,
			"-0.02": 0.0,
			"-0.019": 0.0,
			"-0.018": 0.0,
			"-0.017": 0.0,
			"-0.016": 0.0,
			"-0.015": 0.0,
			"-0.014": 0.0,
			"-0.013": 0.338473093964,
			"-0.012": 2.76033690708,
			"-0.011": 2.61112347094,
			"-0.01": 3.00107064189,
			"-0.009": 3.18671403593,
			"-0.008": 3.14005129162,
			"-0.007": 5.19734158182,
			"-0.006": 10.1471028254,
			"-0.005": 19.6957140436,
			"-0.004": 19.8001546467,
			"-0.003": 15.8626016691,
			"-0.002": 10.4761605319,
			"-0.001": 11.2478288986,
			"0.0": 9.42489683606,
			"0.001": 13.0535409834,
			"0.002": 12.6063565597,
			"0.003": 13.5840720305,
			"0.004": 13.1825229895,
			"0.005": 14.7841592875,
			"0.006": 10.98043805,
			"0.007": 3.18716449868,
			"0.008": 2.56284555914,
			"0.009": 1.59916498241,
			"0.01": 1.72454601723,
			"0.011": 1.55461603136,
			"0.012": 2.7704398542,
			"0.013": 1.11279238043,
			"0.014": 1.76386798475,
			"0.015": 1.42503030717,
			"0.016": 0.971501689662,
			"0.017": 1.17380272765,
			"0.018": 0.417208565081,
			"0.019": 0.0,
			"0.02": 0.0,
			"0.021": 0.0,
			"0.022": 0.0,
			"0.023": 0.0,
			"0.024": 0.0,
			"0.025": 0.0
		}
	}
}
