{
	 "smiles": "COC1=C(Cl)C=C(C=C1)S(Cl)(=O)=O", 
	 "Tm": 354.15, 
	 "num_atms": 19, 
	 "gaussian": { 
		 "optdone": 1, 
		 "sigma_profile": "yes", 
		 "theory": "DFT", 
		 "functional": "B3LYP", 
		 "basiset": "6-31G**", 
		 "properties": { 
			 "R2extent": 4191.5503, 
			 "electric_dipole_moment_norm": 6.64618604088, 
			 "electric_quadrupole_moment_norm": 15.7010273339, 
			 "total_energy": -1814.5205361, 
			 "HOMO_LUMO_gap": 0.16993, 
			 "cosmo_polarized_energy": -11.72, 
			 "cosmo_cavitation_energy": 28.86, 
			 "cosmo_dispersion_energy": -21.71, 
			 "cosmo_repulsion_energy": 1.69, 
			 "cosmo_total_nonelectrostatic_energy": 8.85, 
			 "SMD_solvation_energy": 4.26 
		},
		"coords": [
			{
				"x": -1.4525979722,
				"y": 3.2565975683,
				"z": 1.9470258979,
				"element": "C" 
			},
			{
				"x": -1.4547297722,
				"y": 1.8308907308,
				"z": 1.9351563486,
				"element": "O" 
			},
			{
				"x": -0.662589107,
				"y": 1.1836904399,
				"z": 1.0612865068,
				"element": "C" 
			},
			{
				"x": -0.7054775511,
				"y": -0.2308173058,
				"z": 1.0960905398,
				"element": "C" 
			},
			{
				"x": -1.7590852925,
				"y": -1.0282975718,
				"z": 2.2336576954,
				"element": "Cl" 
			},
			{
				"x": 0.0746977448,
				"y": -0.9867422872,
				"z": 0.2354062213,
				"element": "C" 
			},
			{
				"x": 0.9056663659,
				"y": -0.3250011848,
				"z": -0.6737233047,
				"element": "C" 
			},
			{
				"x": 0.9707378513,
				"y": 1.064921428,
				"z": -0.7332518007,
				"element": "C" 
			},
			{
				"x": 0.1826099014,
				"y": 1.8149852585,
				"z": 0.1348085245,
				"element": "C" 
			},
			{
				"x": 1.9003131752,
				"y": -1.2896753546,
				"z": -1.7870760372,
				"element": "S" 
			},
			{
				"x": 3.6885235898,
				"y": -1.5628835276,
				"z": -0.6470180625,
				"element": "Cl" 
			},
			{
				"x": 2.2779843647,
				"y": -0.4679029543,
				"z": -2.9303825937,
				"element": "O" 
			},
			{
				"x": 1.3149513982,
				"y": -2.6161065042,
				"z": -1.9354473466,
				"element": "O" 
			},
			{
				"x": -2.1579231141,
				"y": 3.543413407,
				"z": 2.7266825815,
				"element": "H" 
			},
			{
				"x": -0.4593172551,
				"y": 3.651150182,
				"z": 2.1899599708,
				"element": "H" 
			},
			{
				"x": -1.7862409868,
				"y": 3.6632026297,
				"z": 0.9853992778,
				"element": "H" 
			},
			{
				"x": 0.0299429131,
				"y": -2.0689552793,
				"z": 0.2615886366,
				"element": "H" 
			},
			{
				"x": 1.6181914933,
				"y": 1.5517439645,
				"z": -1.4533783661,
				"element": "H" 
			},
			{
				"x": 0.2247422536,
				"y": 2.895786361,
				"z": 0.0863153105,
				"element": "H" 
			}
		],
		 "valence_orbital": [ 
			{
				"type": "occ",
				"energy": -0.32835,
				"method": "rhf"
			},
			{
				"type": "occ",
				"energy": -0.32468,
				"method": "rhf"
			},
			{
				"type": "occ",
				"energy": -0.31203,
				"method": "rhf"
			},
			{
				"type": "occ",
				"energy": -0.28525,
				"method": "rhf"
			},
			{
				"type": "occ",
				"energy": -0.25907,
				"method": "rhf"
			},
			{
				"type": "unocc",
				"energy": -0.08914,
				"method": "rhf"
			},
			{
				"type": "unocc",
				"energy": -0.04546,
				"method": "rhf"
			},
			{
				"type": "unocc",
				"energy": -0.0398,
				"method": "rhf"
			},
			{
				"type": "unocc",
				"energy": 0.00986,
				"method": "rhf"
			},
			{
				"type": "unocc",
				"energy": 0.05998,
				"method": "rhf"
			}
		],
		"cosmo_sigma_profile": { 
			"-0.025": 0.0,
			"-0.024": 0.0,
			"-0.023": 0.0,
			"-0.022": 0.0,
			"-0.021": 0.0,
			"-0.02": 0.0,
			"-0.019": 0.0,
			"-0.018": 0.0,
			"-0.017": 0.0,
			"-0.016": 0.0,
			"-0.015": 0.0,
			"-0.014": 0.0,
			"-0.013": 0.0,
			"-0.012": 0.0,
			"-0.011": 0.0,
			"-0.01": 0.0,
			"-0.009": 3.28613875751,
			"-0.008": 6.04156541706,
			"-0.007": 11.7526340179,
			"-0.006": 13.7821615662,
			"-0.005": 12.2139686461,
			"-0.004": 13.596276748,
			"-0.003": 10.9800526282,
			"-0.002": 14.8743792436,
			"-0.001": 21.0988987154,
			"0.0": 23.5263734705,
			"0.001": 16.1263348462,
			"0.002": 13.6922291977,
			"0.003": 19.6880881326,
			"0.004": 20.4344431001,
			"0.005": 5.32674481603,
			"0.006": 5.00864077309,
			"0.007": 7.64680883083,
			"0.008": 11.5255354282,
			"0.009": 5.97995934123,
			"0.01": 0.0166288437482,
			"0.011": 0.0,
			"0.012": 0.0,
			"0.013": 0.0,
			"0.014": 0.0,
			"0.015": 0.0,
			"0.016": 0.0,
			"0.017": 0.0,
			"0.018": 0.0,
			"0.019": 0.0,
			"0.02": 0.0,
			"0.021": 0.0,
			"0.022": 0.0,
			"0.023": 0.0,
			"0.024": 0.0,
			"0.025": 0.0
		}
	}
}
