{
	 "smiles": "CCC(=O)CNC(=O)CCl", 
	 "Tm": 355.15, 
	 "num_atms": 20, 
	 "gaussian": { 
		 "optdone": 1, 
		 "sigma_profile": "yes", 
		 "theory": "DFT", 
		 "functional": "B3LYP", 
		 "basiset": "6-31G**", 
		 "properties": { 
			 "R2extent": 2419.5236, 
			 "electric_dipole_moment_norm": 2.12152243919, 
			 "electric_quadrupole_moment_norm": 9.53108386072, 
			 "total_energy": -900.075309622, 
			 "HOMO_LUMO_gap": 0.22427, 
			 "cosmo_polarized_energy": -13.4, 
			 "cosmo_cavitation_energy": 25.65, 
			 "cosmo_dispersion_energy": -18.38, 
			 "cosmo_repulsion_energy": 1.55, 
			 "cosmo_total_nonelectrostatic_energy": 8.82, 
			 "SMD_solvation_energy": 5.16 
		},
		"coords": [
			{
				"x": 0.4776831692,
				"y": 3.3799332338,
				"z": -1.9507476953,
				"element": "C" 
			},
			{
				"x": 0.2122866707,
				"y": 2.0002630571,
				"z": -1.3528287867,
				"element": "C" 
			},
			{
				"x": 0.9685451162,
				"y": 0.8866702877,
				"z": -2.0544494377,
				"element": "C" 
			},
			{
				"x": 1.7809944486,
				"y": 1.0877122648,
				"z": -2.935797131,
				"element": "O" 
			},
			{
				"x": 0.6317442035,
				"y": -0.5631163626,
				"z": -1.6649315856,
				"element": "C" 
			},
			{
				"x": 0.2718519441,
				"y": -0.7803955815,
				"z": -0.2746750582,
				"element": "N" 
			},
			{
				"x": -1.0209067301,
				"y": -0.8725007841,
				"z": 0.1221307573,
				"element": "C" 
			},
			{
				"x": -1.9852794855,
				"y": -0.7368609409,
				"z": -0.6218814303,
				"element": "O" 
			},
			{
				"x": -1.3069934034,
				"y": -1.165629,
				"z": 1.595822642,
				"element": "C" 
			},
			{
				"x": 0.133065503,
				"y": -1.3390226601,
				"z": 2.6886151606,
				"element": "Cl" 
			},
			{
				"x": -0.0704190512,
				"y": 4.1501128255,
				"z": -1.4006132501,
				"element": "H" 
			},
			{
				"x": 1.5431329881,
				"y": 3.6216132146,
				"z": -1.9185606989,
				"element": "H" 
			},
			{
				"x": 0.1677534891,
				"y": 3.4184954858,
				"z": -2.9986070363,
				"element": "H" 
			},
			{
				"x": -0.8552788679,
				"y": 1.7412703496,
				"z": -1.3721729289,
				"element": "H" 
			},
			{
				"x": 0.4895154507,
				"y": 1.9704486911,
				"z": -0.2895489318,
				"element": "H" 
			},
			{
				"x": 1.4811775155,
				"y": -1.1920649465,
				"z": -1.9428646875,
				"element": "H" 
			},
			{
				"x": -0.2325437842,
				"y": -0.8629949436,
				"z": -2.2696350235,
				"element": "H" 
			},
			{
				"x": 0.999018469,
				"y": -0.9069035933,
				"z": 0.41521345,
				"element": "H" 
			},
			{
				"x": -1.9188484436,
				"y": -0.3566160297,
				"z": 1.9951074093,
				"element": "H" 
			},
			{
				"x": -1.8718992016,
				"y": -2.0962145677,
				"z": 1.6559242627,
				"element": "H" 
			}
		],
		 "valence_orbital": [ 
			{
				"type": "occ",
				"energy": -0.33468,
				"method": "rhf"
			},
			{
				"type": "occ",
				"energy": -0.32161,
				"method": "rhf"
			},
			{
				"type": "occ",
				"energy": -0.29071,
				"method": "rhf"
			},
			{
				"type": "occ",
				"energy": -0.27307,
				"method": "rhf"
			},
			{
				"type": "occ",
				"energy": -0.24599,
				"method": "rhf"
			},
			{
				"type": "unocc",
				"energy": -0.02172,
				"method": "rhf"
			},
			{
				"type": "unocc",
				"energy": 0.00367,
				"method": "rhf"
			},
			{
				"type": "unocc",
				"energy": 0.00611,
				"method": "rhf"
			},
			{
				"type": "unocc",
				"energy": 0.07933,
				"method": "rhf"
			},
			{
				"type": "unocc",
				"energy": 0.09838,
				"method": "rhf"
			}
		],
		"cosmo_sigma_profile": { 
			"-0.025": 0.0,
			"-0.024": 0.0,
			"-0.023": 0.0,
			"-0.022": 0.0,
			"-0.021": 0.0,
			"-0.02": 0.0,
			"-0.019": 0.0,
			"-0.018": 0.0,
			"-0.017": 0.0,
			"-0.016": 0.0,
			"-0.015": 0.0197938651978,
			"-0.014": 0.626634357288,
			"-0.013": 0.933451291637,
			"-0.012": 0.867288896392,
			"-0.011": 0.848945165294,
			"-0.01": 1.30656910318,
			"-0.009": 4.56702541983,
			"-0.008": 6.2093238179,
			"-0.007": 7.64476331774,
			"-0.006": 10.2757008294,
			"-0.005": 11.2305713413,
			"-0.004": 14.445940429,
			"-0.003": 17.0698062026,
			"-0.002": 16.9629663876,
			"-0.001": 17.1788605733,
			"0.0": 13.4589891381,
			"0.001": 13.4117540591,
			"0.002": 7.63690988651,
			"0.003": 7.13507081788,
			"0.004": 7.28297435568,
			"0.005": 10.0932103285,
			"0.006": 5.49162253304,
			"0.007": 1.94200960224,
			"0.008": 2.71697154636,
			"0.009": 3.30683443818,
			"0.01": 3.66453912117,
			"0.011": 4.92980536727,
			"0.012": 6.57417826069,
			"0.013": 5.28285939766,
			"0.014": 0.811264223918,
			"0.015": 0.0,
			"0.016": 0.0,
			"0.017": 0.0,
			"0.018": 0.0,
			"0.019": 0.0,
			"0.02": 0.0,
			"0.021": 0.0,
			"0.022": 0.0,
			"0.023": 0.0,
			"0.024": 0.0,
			"0.025": 0.0
		}
	}
}
