{
	 "smiles": "CC(C)(C)OC(=O)NC1CCCN(CC2=CC=CC=C2)C1", 
	 "Tm": 392.15, 
	 "num_atms": 47, 
	 "gaussian": { 
		 "optdone": 1, 
		 "sigma_profile": "yes", 
		 "theory": "DFT", 
		 "functional": "B3LYP", 
		 "basiset": "6-31G**", 
		 "properties": { 
			 "R2extent": 9135.0406, 
			 "electric_dipole_moment_norm": 2.94600063476, 
			 "electric_quadrupole_moment_norm": 12.5356295634, 
			 "total_energy": -923.476873438, 
			 "HOMO_LUMO_gap": 0.21665, 
			 "cosmo_polarized_energy": -10.92, 
			 "cosmo_cavitation_energy": 46.91, 
			 "cosmo_dispersion_energy": -31.22, 
			 "cosmo_repulsion_energy": 2.42, 
			 "cosmo_total_nonelectrostatic_energy": 18.1, 
			 "SMD_solvation_energy": 7.27 
		},
		"coords": [
			{
				"x": -2.0809616392,
				"y": -1.0971703993,
				"z": -4.1999288335,
				"element": "C" 
			},
			{
				"x": -1.6208111858,
				"y": -2.2131103848,
				"z": -3.2551226087,
				"element": "C" 
			},
			{
				"x": -0.355245597,
				"y": -2.8883324663,
				"z": -3.7912489694,
				"element": "C" 
			},
			{
				"x": -2.7224698338,
				"y": -3.2487124596,
				"z": -3.0028728911,
				"element": "C" 
			},
			{
				"x": -1.1644099414,
				"y": -1.6412138902,
				"z": -1.9817844652,
				"element": "O" 
			},
			{
				"x": -2.0158200265,
				"y": -0.9305738267,
				"z": -1.1940949509,
				"element": "C" 
			},
			{
				"x": -3.198709264,
				"y": -0.7238350211,
				"z": -1.4215931657,
				"element": "O" 
			},
			{
				"x": -1.3662158658,
				"y": -0.4533614913,
				"z": -0.0934856298,
				"element": "N" 
			},
			{
				"x": 0.0118178247,
				"y": -0.7246739844,
				"z": 0.3068223664,
				"element": "C" 
			},
			{
				"x": 0.1725951135,
				"y": -2.0919655185,
				"z": 1.0013693337,
				"element": "C" 
			},
			{
				"x": -0.542020907,
				"y": -2.098900143,
				"z": 2.3590192022,
				"element": "C" 
			},
			{
				"x": -0.1215735817,
				"y": -0.8982475077,
				"z": 3.2137681443,
				"element": "C" 
			},
			{
				"x": -0.3335586422,
				"y": 0.3618626808,
				"z": 2.4911054757,
				"element": "N" 
			},
			{
				"x": -0.0821176542,
				"y": 1.529745884,
				"z": 3.3413879211,
				"element": "C" 
			},
			{
				"x": -0.5965033779,
				"y": 2.8263330301,
				"z": 2.7456833948,
				"element": "C" 
			},
			{
				"x": -1.9363317907,
				"y": 2.9389319041,
				"z": 2.3470297251,
				"element": "C" 
			},
			{
				"x": -2.4248521728,
				"y": 4.1352379296,
				"z": 1.8245720771,
				"element": "C" 
			},
			{
				"x": -1.5805434517,
				"y": 5.2419653964,
				"z": 1.6961826232,
				"element": "C" 
			},
			{
				"x": -0.246653432,
				"y": 5.1414714019,
				"z": 2.090878621,
				"element": "C" 
			},
			{
				"x": 0.2405622699,
				"y": 3.9388145894,
				"z": 2.6094185471,
				"element": "C" 
			},
			{
				"x": 0.4595154595,
				"y": 0.3934817752,
				"z": 1.2580456645,
				"element": "C" 
			},
			{
				"x": -2.9686544845,
				"y": -0.5995301586,
				"z": -3.8093615439,
				"element": "H" 
			},
			{
				"x": -2.3125694724,
				"y": -1.5191847852,
				"z": -5.1834742738,
				"element": "H" 
			},
			{
				"x": -1.2852252907,
				"y": -0.3561021729,
				"z": -4.3271865916,
				"element": "H" 
			},
			{
				"x": -0.0020809592,
				"y": -3.6554267554,
				"z": -3.0956433021,
				"element": "H" 
			},
			{
				"x": -0.5612349782,
				"y": -3.3635008591,
				"z": -4.7550708014,
				"element": "H" 
			},
			{
				"x": 0.4445146411,
				"y": -2.1549140645,
				"z": -3.9305996483,
				"element": "H" 
			},
			{
				"x": -3.6152348565,
				"y": -2.7734217541,
				"z": -2.5965156264,
				"element": "H" 
			},
			{
				"x": -2.9805295521,
				"y": -3.7490743012,
				"z": -3.9421145713,
				"element": "H" 
			},
			{
				"x": -2.3730111236,
				"y": -4.0101639523,
				"z": -2.297945898,
				"element": "H" 
			},
			{
				"x": -1.9543977261,
				"y": 0.0208763761,
				"z": 0.5770329749,
				"element": "H" 
			},
			{
				"x": 0.6345766341,
				"y": -0.6967015861,
				"z": -0.5914452675,
				"element": "H" 
			},
			{
				"x": 1.2452002469,
				"y": -2.2821535153,
				"z": 1.1452652763,
				"element": "H" 
			},
			{
				"x": -0.2100799452,
				"y": -2.8819347328,
				"z": 0.3479776407,
				"element": "H" 
			},
			{
				"x": -0.3279404477,
				"y": -3.0262658574,
				"z": 2.9022729173,
				"element": "H" 
			},
			{
				"x": -1.6263488652,
				"y": -2.0605305995,
				"z": 2.2034283033,
				"element": "H" 
			},
			{
				"x": -0.7111181624,
				"y": -0.8685830352,
				"z": 4.1371449349,
				"element": "H" 
			},
			{
				"x": 0.9411522051,
				"y": -1.0101653443,
				"z": 3.5124590321,
				"element": "H" 
			},
			{
				"x": 0.9932981348,
				"y": 1.6371979188,
				"z": 3.5807381484,
				"element": "H" 
			},
			{
				"x": -0.5930403017,
				"y": 1.3465114876,
				"z": 4.2954396071,
				"element": "H" 
			},
			{
				"x": -2.5913866362,
				"y": 2.0780085887,
				"z": 2.4470058298,
				"element": "H" 
			},
			{
				"x": -3.4648014732,
				"y": 4.2059518236,
				"z": 1.5183852578,
				"element": "H" 
			},
			{
				"x": -1.9613759143,
				"y": 6.1744473759,
				"z": 1.2894785341,
				"element": "H" 
			},
			{
				"x": 0.4177593967,
				"y": 5.9952927716,
				"z": 1.991295256,
				"element": "H" 
			},
			{
				"x": 1.2825834172,
				"y": 3.8631966135,
				"z": 2.9114978225,
				"element": "H" 
			},
			{
				"x": 0.321507811,
				"y": 1.3656460726,
				"z": 0.7770619552,
				"element": "H" 
			},
			{
				"x": 1.5404453984,
				"y": 0.2732769469,
				"z": 1.469522452,
				"element": "H" 
			}
		],
		 "valence_orbital": [ 
			{
				"type": "occ",
				"energy": -0.25001,
				"method": "rhf"
			},
			{
				"type": "occ",
				"energy": -0.24954,
				"method": "rhf"
			},
			{
				"type": "occ",
				"energy": -0.2446,
				"method": "rhf"
			},
			{
				"type": "occ",
				"energy": -0.2415,
				"method": "rhf"
			},
			{
				"type": "occ",
				"energy": -0.22145,
				"method": "rhf"
			},
			{
				"type": "unocc",
				"energy": -0.0048,
				"method": "rhf"
			},
			{
				"type": "unocc",
				"energy": 0.00038,
				"method": "rhf"
			},
			{
				"type": "unocc",
				"energy": 0.06576,
				"method": "rhf"
			},
			{
				"type": "unocc",
				"energy": 0.07751,
				"method": "rhf"
			},
			{
				"type": "unocc",
				"energy": 0.08958,
				"method": "rhf"
			}
		],
		"cosmo_sigma_profile": { 
			"-0.025": 0.0,
			"-0.024": 0.0,
			"-0.023": 0.0,
			"-0.022": 0.0,
			"-0.021": 0.0,
			"-0.02": 0.0,
			"-0.019": 0.0,
			"-0.018": 0.0,
			"-0.017": 0.0,
			"-0.016": 0.0,
			"-0.015": 0.0,
			"-0.014": 0.0,
			"-0.013": 0.0,
			"-0.012": 0.0,
			"-0.011": 0.0,
			"-0.01": 0.0,
			"-0.009": 0.0624677155795,
			"-0.008": 0.436027953387,
			"-0.007": 0.566699058833,
			"-0.006": 2.35474951596,
			"-0.005": 11.4339462774,
			"-0.004": 28.014880251,
			"-0.003": 47.5913223275,
			"-0.002": 50.7396793369,
			"-0.001": 52.4555245233,
			"0.0": 48.5641685144,
			"0.001": 36.9074818892,
			"0.002": 16.4791897877,
			"0.003": 15.2636726522,
			"0.004": 11.9129799131,
			"0.005": 13.6354617907,
			"0.006": 11.4713848635,
			"0.007": 3.07300209454,
			"0.008": 1.87243945015,
			"0.009": 1.24338217255,
			"0.01": 1.22753165158,
			"0.011": 1.3551737082,
			"0.012": 1.75577004551,
			"0.013": 2.30560615849,
			"0.014": 3.52818596724,
			"0.015": 0.797511009147,
			"0.016": 0.0,
			"0.017": 0.0,
			"0.018": 0.0,
			"0.019": 0.0,
			"0.02": 0.0,
			"0.021": 0.0,
			"0.022": 0.0,
			"0.023": 0.0,
			"0.024": 0.0,
			"0.025": 0.0
		}
	}
}
