{
	 "smiles": "CC(Cl)C(=O)NC(=O)NC1CCCCC1", 
	 "Tm": 372.15, 
	 "num_atms": 32, 
	 "gaussian": { 
		 "optdone": 1, 
		 "sigma_profile": "yes", 
		 "theory": "DFT", 
		 "functional": "B3LYP", 
		 "basiset": "6-31G**", 
		 "properties": { 
			 "R2extent": 7862.9759, 
			 "electric_dipole_moment_norm": 4.59107666131, 
			 "electric_quadrupole_moment_norm": 11.9743695822, 
			 "total_energy": -1111.50579651, 
			 "HOMO_LUMO_gap": 0.23203, 
			 "cosmo_polarized_energy": -14.72, 
			 "cosmo_cavitation_energy": 34.55, 
			 "cosmo_dispersion_energy": -24.77, 
			 "cosmo_repulsion_energy": 1.98, 
			 "cosmo_total_nonelectrostatic_energy": 11.75, 
			 "SMD_solvation_energy": 5.91 
		},
		"coords": [
			{
				"x": -4.8348899661,
				"y": -3.5811896116,
				"z": 2.7093532946,
				"element": "C" 
			},
			{
				"x": -4.1488253781,
				"y": -4.0744766196,
				"z": 1.4381472443,
				"element": "C" 
			},
			{
				"x": -4.9332357931,
				"y": -3.39230964,
				"z": -0.064423493,
				"element": "Cl" 
			},
			{
				"x": -2.6268990872,
				"y": -3.8973685736,
				"z": 1.4249087676,
				"element": "C" 
			},
			{
				"x": -1.9260962864,
				"y": -4.8626714023,
				"z": 1.6821167723,
				"element": "O" 
			},
			{
				"x": -2.009066868,
				"y": -2.6990863117,
				"z": 1.0830451833,
				"element": "N" 
			},
			{
				"x": -2.4993815143,
				"y": -1.3745253951,
				"z": 1.069323147,
				"element": "C" 
			},
			{
				"x": -3.5384108579,
				"y": -1.0297887361,
				"z": 1.6093034463,
				"element": "O" 
			},
			{
				"x": -1.6715436113,
				"y": -0.4903329806,
				"z": 0.4300751068,
				"element": "N" 
			},
			{
				"x": -0.5805376374,
				"y": -0.7776430954,
				"z": -0.512329912,
				"element": "C" 
			},
			{
				"x": 0.8000527746,
				"y": -0.7994921153,
				"z": 0.1827973532,
				"element": "C" 
			},
			{
				"x": 1.2311836983,
				"y": 0.5954173273,
				"z": 0.6600732539,
				"element": "C" 
			},
			{
				"x": 1.2291210138,
				"y": 1.608037243,
				"z": -0.4956614705,
				"element": "C" 
			},
			{
				"x": -0.1395326121,
				"y": 1.6580345412,
				"z": -1.1923596651,
				"element": "C" 
			},
			{
				"x": -0.5885652198,
				"y": 0.2604728866,
				"z": -1.652631407,
				"element": "C" 
			},
			{
				"x": -4.7494496697,
				"y": -2.4995998577,
				"z": 2.7993628259,
				"element": "H" 
			},
			{
				"x": -5.8881911118,
				"y": -3.8714885394,
				"z": 2.692205621,
				"element": "H" 
			},
			{
				"x": -4.358868161,
				"y": -4.0614417791,
				"z": 3.5719947074,
				"element": "H" 
			},
			{
				"x": -4.2723001795,
				"y": -5.1526682219,
				"z": 1.3416979501,
				"element": "H" 
			},
			{
				"x": -1.0060083291,
				"y": -2.8255528736,
				"z": 1.0211673869,
				"element": "H" 
			},
			{
				"x": -2.0375647746,
				"y": 0.4506671437,
				"z": 0.4651478178,
				"element": "H" 
			},
			{
				"x": -0.7815684565,
				"y": -1.7623106979,
				"z": -0.9487667245,
				"element": "H" 
			},
			{
				"x": 0.7874548655,
				"y": -1.4986655393,
				"z": 1.0286414175,
				"element": "H" 
			},
			{
				"x": 1.5364373218,
				"y": -1.1886038686,
				"z": -0.5333451076,
				"element": "H" 
			},
			{
				"x": 2.2250247089,
				"y": 0.540377035,
				"z": 1.1180962468,
				"element": "H" 
			},
			{
				"x": 0.5443197793,
				"y": 0.9344541303,
				"z": 1.4469582868,
				"element": "H" 
			},
			{
				"x": 1.9957942473,
				"y": 1.3210971551,
				"z": -1.2293827362,
				"element": "H" 
			},
			{
				"x": 1.5047523811,
				"y": 2.6037220024,
				"z": -0.1298253382,
				"element": "H" 
			},
			{
				"x": -0.1081359265,
				"y": 2.3332174658,
				"z": -2.0548819891,
				"element": "H" 
			},
			{
				"x": -0.8810548427,
				"y": 2.0895587402,
				"z": -0.5041694121,
				"element": "H" 
			},
			{
				"x": -1.5856029993,
				"y": 0.2969425634,
				"z": -2.1055763049,
				"element": "H" 
			},
			{
				"x": 0.0998884919,
				"y": -0.095682375,
				"z": -2.4292622695,
				"element": "H" 
			}
		],
		 "valence_orbital": [ 
			{
				"type": "occ",
				"energy": -0.29527,
				"method": "rhf"
			},
			{
				"type": "occ",
				"energy": -0.28424,
				"method": "rhf"
			},
			{
				"type": "occ",
				"energy": -0.2721,
				"method": "rhf"
			},
			{
				"type": "occ",
				"energy": -0.26358,
				"method": "rhf"
			},
			{
				"type": "occ",
				"energy": -0.25878,
				"method": "rhf"
			},
			{
				"type": "unocc",
				"energy": -0.02675,
				"method": "rhf"
			},
			{
				"type": "unocc",
				"energy": 0.03112,
				"method": "rhf"
			},
			{
				"type": "unocc",
				"energy": 0.05426,
				"method": "rhf"
			},
			{
				"type": "unocc",
				"energy": 0.0636,
				"method": "rhf"
			},
			{
				"type": "unocc",
				"energy": 0.07394,
				"method": "rhf"
			}
		],
		"cosmo_sigma_profile": { 
			"-0.025": 0.0,
			"-0.024": 0.0,
			"-0.023": 0.0,
			"-0.022": 0.0,
			"-0.021": 0.0,
			"-0.02": 0.0,
			"-0.019": 0.0,
			"-0.018": 0.0,
			"-0.017": 0.0,
			"-0.016": 0.0,
			"-0.015": 0.0,
			"-0.014": 0.0,
			"-0.013": 0.238190254543,
			"-0.012": 2.26681923306,
			"-0.011": 2.38263271566,
			"-0.01": 2.93192073176,
			"-0.009": 2.66592691577,
			"-0.008": 3.22920923048,
			"-0.007": 4.35396605801,
			"-0.006": 6.15311796115,
			"-0.005": 9.95061813133,
			"-0.004": 16.2012235768,
			"-0.003": 28.3826531914,
			"-0.002": 33.1291243963,
			"-0.001": 35.6044092224,
			"0.0": 33.2732169492,
			"0.001": 18.751850596,
			"0.002": 9.5336457698,
			"0.003": 6.84106857408,
			"0.004": 7.07837111064,
			"0.005": 8.51954249809,
			"0.006": 8.61843077873,
			"0.007": 3.73748870403,
			"0.008": 3.51614517598,
			"0.009": 2.94763165057,
			"0.01": 4.0811866608,
			"0.011": 6.23239503616,
			"0.012": 6.22231847831,
			"0.013": 2.84554704608,
			"0.014": 1.35545178189,
			"0.015": 0.0,
			"0.016": 0.0,
			"0.017": 0.0,
			"0.018": 0.0,
			"0.019": 0.0,
			"0.02": 0.0,
			"0.021": 0.0,
			"0.022": 0.0,
			"0.023": 0.0,
			"0.024": 0.0,
			"0.025": 0.0
		}
	}
}
