{
	 "smiles": "CC1OC2=C(NC1=O)C=C(Cl)C=C2", 
	 "Tm": 445.15, 
	 "num_atms": 21, 
	 "gaussian": { 
		 "optdone": 1, 
		 "sigma_profile": "yes", 
		 "theory": "DFT", 
		 "functional": "B3LYP", 
		 "basiset": "6-31G**", 
		 "properties": { 
			 "R2extent": 3458.2371, 
			 "electric_dipole_moment_norm": 1.30156474292, 
			 "electric_quadrupole_moment_norm": 12.3382768149, 
			 "total_energy": -1013.18416374, 
			 "HOMO_LUMO_gap": 0.19379, 
			 "cosmo_polarized_energy": -11.48, 
			 "cosmo_cavitation_energy": 26.78, 
			 "cosmo_dispersion_energy": -19.89, 
			 "cosmo_repulsion_energy": 1.58, 
			 "cosmo_total_nonelectrostatic_energy": 8.47, 
			 "SMD_solvation_energy": 4.97 
		},
		"coords": [
			{
				"x": -0.4227040438,
				"y": 1.0538165778,
				"z": -2.6113050015,
				"element": "C" 
			},
			{
				"x": -0.4446762253,
				"y": 2.1833365029,
				"z": -1.5780286794,
				"element": "C" 
			},
			{
				"x": -1.294087759,
				"y": 1.8568812935,
				"z": -0.4609168596,
				"element": "O" 
			},
			{
				"x": -0.7526188459,
				"y": 1.0538118297,
				"z": 0.5046793409,
				"element": "C" 
			},
			{
				"x": 0.6266287301,
				"y": 1.0928949919,
				"z": 0.7701583669,
				"element": "C" 
			},
			{
				"x": 1.416783455,
				"y": 1.9537058377,
				"z": -0.0055459421,
				"element": "N" 
			},
			{
				"x": 0.978264639,
				"y": 2.5612216465,
				"z": -1.1565110866,
				"element": "C" 
			},
			{
				"x": 1.6783576632,
				"y": 3.3028587581,
				"z": -1.8248744123,
				"element": "O" 
			},
			{
				"x": 1.165039858,
				"y": 0.311074677,
				"z": 1.7930304393,
				"element": "C" 
			},
			{
				"x": 0.3138601594,
				"y": -0.4896289942,
				"z": 2.5542778933,
				"element": "C" 
			},
			{
				"x": 0.9958030328,
				"y": -1.4651607592,
				"z": 3.8478790829,
				"element": "Cl" 
			},
			{
				"x": -1.0570631871,
				"y": -0.5303734375,
				"z": 2.3081290753,
				"element": "C" 
			},
			{
				"x": -1.583830191,
				"y": 0.2426840383,
				"z": 1.2715585518,
				"element": "C" 
			},
			{
				"x": 0.0119269962,
				"y": 0.1420915729,
				"z": -2.1898861993,
				"element": "H" 
			},
			{
				"x": 0.1722456495,
				"y": 1.3560172971,
				"z": -3.477231775,
				"element": "H" 
			},
			{
				"x": -1.4422252897,
				"y": 0.8339990631,
				"z": -2.9385780121,
				"element": "H" 
			},
			{
				"x": -0.8872561682,
				"y": 3.0813631979,
				"z": -2.0136625648,
				"element": "H" 
			},
			{
				"x": 2.3763807911,
				"y": 2.1384926071,
				"z": 0.2582429646,
				"element": "H" 
			},
			{
				"x": 2.2301015255,
				"y": 0.3329669519,
				"z": 1.9984767393,
				"element": "H" 
			},
			{
				"x": -1.7019123241,
				"y": -1.1600118299,
				"z": 2.9097067666,
				"element": "H" 
			},
			{
				"x": -2.6463184658,
				"y": 0.2345581773,
				"z": 1.0533013121,
				"element": "H" 
			}
		],
		 "valence_orbital": [ 
			{
				"type": "occ",
				"energy": -0.31777,
				"method": "rhf"
			},
			{
				"type": "occ",
				"energy": -0.30693,
				"method": "rhf"
			},
			{
				"type": "occ",
				"energy": -0.26707,
				"method": "rhf"
			},
			{
				"type": "occ",
				"energy": -0.25209,
				"method": "rhf"
			},
			{
				"type": "occ",
				"energy": -0.22194,
				"method": "rhf"
			},
			{
				"type": "unocc",
				"energy": -0.02815,
				"method": "rhf"
			},
			{
				"type": "unocc",
				"energy": -0.01624,
				"method": "rhf"
			},
			{
				"type": "unocc",
				"energy": 0.02139,
				"method": "rhf"
			},
			{
				"type": "unocc",
				"energy": 0.02368,
				"method": "rhf"
			},
			{
				"type": "unocc",
				"energy": 0.07055,
				"method": "rhf"
			}
		],
		"cosmo_sigma_profile": { 
			"-0.025": 0.0,
			"-0.024": 0.0,
			"-0.023": 0.0,
			"-0.022": 0.0,
			"-0.021": 0.0,
			"-0.02": 0.0,
			"-0.019": 0.0,
			"-0.018": 0.0,
			"-0.017": 0.0,
			"-0.016": 0.547948867425,
			"-0.015": 1.49084462729,
			"-0.014": 1.64719172687,
			"-0.013": 0.848173549549,
			"-0.012": 1.25004104658,
			"-0.011": 1.38468491353,
			"-0.01": 1.25458308047,
			"-0.009": 1.51176753987,
			"-0.008": 2.56697191582,
			"-0.007": 6.95350792848,
			"-0.006": 7.39767738901,
			"-0.005": 13.0580208498,
			"-0.004": 14.2127943346,
			"-0.003": 13.8954414519,
			"-0.002": 15.9247788606,
			"-0.001": 17.1254496719,
			"0.0": 15.440714142,
			"0.001": 14.8366787904,
			"0.002": 19.5891318896,
			"0.003": 17.9957167635,
			"0.004": 14.0422022938,
			"0.005": 9.61825997483,
			"0.006": 2.27993751039,
			"0.007": 2.39133980829,
			"0.008": 2.18381101446,
			"0.009": 2.79811395812,
			"0.01": 2.374588741,
			"0.011": 1.97499607093,
			"0.012": 4.56681909179,
			"0.013": 4.07914197867,
			"0.014": 0.497470312355,
			"0.015": 0.0,
			"0.016": 0.0,
			"0.017": 0.0,
			"0.018": 0.0,
			"0.019": 0.0,
			"0.02": 0.0,
			"0.021": 0.0,
			"0.022": 0.0,
			"0.023": 0.0,
			"0.024": 0.0,
			"0.025": 0.0
		}
	}
}
