{
	 "smiles": "[O-][N+](=O)C1=CC=C(Cl)C2=NON=C12", 
	 "Tm": 371.15, 
	 "num_atms": 15, 
	 "gaussian": { 
		 "optdone": 1, 
		 "sigma_profile": "yes", 
		 "theory": "DFT", 
		 "functional": "B3LYP", 
		 "basiset": "6-31G**", 
		 "properties": { 
			 "R2extent": 2761.7358, 
			 "electric_dipole_moment_norm": 4.70335161454, 
			 "electric_quadrupole_moment_norm": 8.44915064311, 
			 "total_energy": -1079.74471262, 
			 "HOMO_LUMO_gap": 0.14432, 
			 "cosmo_polarized_energy": -12.46, 
			 "cosmo_cavitation_energy": 23.26, 
			 "cosmo_dispersion_energy": -17.57, 
			 "cosmo_repulsion_energy": 1.37, 
			 "cosmo_total_nonelectrostatic_energy": 7.06, 
			 "SMD_solvation_energy": 5.54 
		},
		"coords": [
			{
				"x": -1.342589766,
				"y": 2.5445591573,
				"z": 1.5337698543,
				"element": "O" 
			},
			{
				"x": -1.2858954615,
				"y": 1.3359864331,
				"z": 1.7376307844,
				"element": "N" 
			},
			{
				"x": -1.9448309374,
				"y": 0.7159617717,
				"z": 2.5730139508,
				"element": "O" 
			},
			{
				"x": -0.3509017282,
				"y": 0.5688228372,
				"z": 0.9134486564,
				"element": "C" 
			},
			{
				"x": -0.242534441,
				"y": -0.7839088044,
				"z": 1.0961308612,
				"element": "C" 
			},
			{
				"x": 0.6498890834,
				"y": -1.5892219963,
				"z": 0.3253381393,
				"element": "C" 
			},
			{
				"x": 1.4466624289,
				"y": -1.0357880531,
				"z": -0.6435779896,
				"element": "C" 
			},
			{
				"x": 2.5356417434,
				"y": -1.9869631982,
				"z": -1.5928064395,
				"element": "Cl" 
			},
			{
				"x": 1.356530714,
				"y": 0.373926165,
				"z": -0.8577742237,
				"element": "C" 
			},
			{
				"x": 2.0051155635,
				"y": 1.1403994343,
				"z": -1.7154572243,
				"element": "N" 
			},
			{
				"x": 1.5277749499,
				"y": 2.3896552459,
				"z": -1.481622596,
				"element": "O" 
			},
			{
				"x": 0.585231289,
				"y": 2.4465307519,
				"z": -0.4914271776,
				"element": "N" 
			},
			{
				"x": 0.4604109684,
				"y": 1.1930309522,
				"z": -0.0848317647,
				"element": "C" 
			},
			{
				"x": -0.8627623731,
				"y": -1.245050837,
				"z": 1.8557863772,
				"element": "H" 
			},
			{
				"x": 0.6934579668,
				"y": -2.6555398595,
				"z": 0.5141787919,
				"element": "H" 
			}
		],
		 "valence_orbital": [ 
			{
				"type": "occ",
				"energy": -0.33303,
				"method": "rhf"
			},
			{
				"type": "occ",
				"energy": -0.32262,
				"method": "rhf"
			},
			{
				"type": "occ",
				"energy": -0.32242,
				"method": "rhf"
			},
			{
				"type": "occ",
				"energy": -0.30639,
				"method": "rhf"
			},
			{
				"type": "occ",
				"energy": -0.28141,
				"method": "rhf"
			},
			{
				"type": "unocc",
				"energy": -0.13709,
				"method": "rhf"
			},
			{
				"type": "unocc",
				"energy": -0.08146,
				"method": "rhf"
			},
			{
				"type": "unocc",
				"energy": -0.03405,
				"method": "rhf"
			},
			{
				"type": "unocc",
				"energy": -0.00893,
				"method": "rhf"
			},
			{
				"type": "unocc",
				"energy": -0.00592,
				"method": "rhf"
			}
		],
		"cosmo_sigma_profile": { 
			"-0.025": 0.0,
			"-0.024": 0.0,
			"-0.023": 0.0,
			"-0.022": 0.0,
			"-0.021": 0.0,
			"-0.02": 0.0,
			"-0.019": 0.0,
			"-0.018": 0.0,
			"-0.017": 0.0,
			"-0.016": 0.0,
			"-0.015": 0.0,
			"-0.014": 0.0,
			"-0.013": 0.0,
			"-0.012": 0.0,
			"-0.011": 0.539614667124,
			"-0.01": 4.47446826341,
			"-0.009": 4.05188053647,
			"-0.008": 4.45727353229,
			"-0.007": 7.28538438647,
			"-0.006": 10.6844854907,
			"-0.005": 13.173680493,
			"-0.004": 13.8644461609,
			"-0.003": 15.9540750409,
			"-0.002": 10.4994041099,
			"-0.001": 8.51759030526,
			"0.0": 9.36424788333,
			"0.001": 9.40283101854,
			"0.002": 14.8839825841,
			"0.003": 10.7634089752,
			"0.004": 9.89762666557,
			"0.005": 6.50141522194,
			"0.006": 6.60751722202,
			"0.007": 11.2022638687,
			"0.008": 8.58808453922,
			"0.009": 6.04110204553,
			"0.01": 2.59448480514,
			"0.011": 1.72992997639,
			"0.012": 0.504708080799,
			"0.013": 0.0,
			"0.014": 0.0,
			"0.015": 0.0,
			"0.016": 0.0,
			"0.017": 0.0,
			"0.018": 0.0,
			"0.019": 0.0,
			"0.02": 0.0,
			"0.021": 0.0,
			"0.022": 0.0,
			"0.023": 0.0,
			"0.024": 0.0,
			"0.025": 0.0
		}
	}
}
