{
	 "smiles": "COC(=O)C1=CC=C(OC)C(Br)=C1", 
	 "Tm": 370.15, 
	 "num_atms": 22, 
	 "gaussian": { 
		 "optdone": 1, 
		 "sigma_profile": "yes", 
		 "theory": "DFT", 
		 "functional": "B3LYP", 
		 "basiset": "6-31G**", 
		 "properties": { 
			 "R2extent": 4902.7424, 
			 "electric_dipole_moment_norm": 1.58691309466, 
			 "electric_quadrupole_moment_norm": 20.4996588616, 
			 "total_energy": -3145.45544313, 
			 "HOMO_LUMO_gap": 0.18947, 
			 "cosmo_polarized_energy": -10.0, 
			 "cosmo_cavitation_energy": 28.92, 
			 "cosmo_dispersion_energy": -21.55, 
			 "cosmo_repulsion_energy": 1.72, 
			 "cosmo_total_nonelectrostatic_energy": 9.08, 
			 "SMD_solvation_energy": 6.31 
		},
		"coords": [
			{
				"x": -2.971224206,
				"y": 3.8925908199,
				"z": 1.8040709725,
				"element": "C" 
			},
			{
				"x": -2.1294796784,
				"y": 3.117166563,
				"z": 0.937969725,
				"element": "O" 
			},
			{
				"x": -1.6995559344,
				"y": 1.9415816931,
				"z": 1.453334714,
				"element": "C" 
			},
			{
				"x": -1.9972614816,
				"y": 1.5573151297,
				"z": 2.568582577,
				"element": "O" 
			},
			{
				"x": -0.8344562755,
				"y": 1.1894643992,
				"z": 0.5081193993,
				"element": "C" 
			},
			{
				"x": -0.3220064628,
				"y": -0.0451129903,
				"z": 0.9172525664,
				"element": "C" 
			},
			{
				"x": 0.4933203601,
				"y": -0.79127725,
				"z": 0.0725699951,
				"element": "C" 
			},
			{
				"x": 0.8154328006,
				"y": -0.3150825812,
				"z": -1.2078985567,
				"element": "C" 
			},
			{
				"x": 1.5984266556,
				"y": -0.9716449403,
				"z": -2.0927605926,
				"element": "O" 
			},
			{
				"x": 2.1434299294,
				"y": -2.231980814,
				"z": -1.7217100543,
				"element": "C" 
			},
			{
				"x": 0.2943272919,
				"y": 0.9316017069,
				"z": -1.6133403442,
				"element": "C" 
			},
			{
				"x": 0.7132559735,
				"y": 1.6058658023,
				"z": -3.3460264211,
				"element": "Br" 
			},
			{
				"x": -0.517679536,
				"y": 1.6735873955,
				"z": -0.7705910669,
				"element": "C" 
			},
			{
				"x": -2.4422727502,
				"y": 4.1518618982,
				"z": 2.7247384109,
				"element": "H" 
			},
			{
				"x": -3.2240209552,
				"y": 4.7912546485,
				"z": 1.24152568,
				"element": "H" 
			},
			{
				"x": -3.8747114221,
				"y": 3.3351080817,
				"z": 2.0639113202,
				"element": "H" 
			},
			{
				"x": -0.5732115164,
				"y": -0.4096024003,
				"z": 1.9073296081,
				"element": "H" 
			},
			{
				"x": 0.8794579267,
				"y": -1.7453100718,
				"z": 0.4101670582,
				"element": "H" 
			},
			{
				"x": 2.7982660306,
				"y": -2.1443209439,
				"z": -0.8463991326,
				"element": "H" 
			},
			{
				"x": 1.3547515124,
				"y": -2.9652624121,
				"z": -1.514467776,
				"element": "H" 
			},
			{
				"x": 2.7290355686,
				"y": -2.5636218361,
				"z": -2.5795234531,
				"element": "H" 
			},
			{
				"x": -0.9069238307,
				"y": 2.6278181022,
				"z": -1.1015546294,
				"element": "H" 
			}
		],
		 "valence_orbital": [ 
			{
				"type": "occ",
				"energy": -0.30035,
				"method": "rhf"
			},
			{
				"type": "occ",
				"energy": -0.28311,
				"method": "rhf"
			},
			{
				"type": "occ",
				"energy": -0.27235,
				"method": "rhf"
			},
			{
				"type": "occ",
				"energy": -0.25549,
				"method": "rhf"
			},
			{
				"type": "occ",
				"energy": -0.23148,
				"method": "rhf"
			},
			{
				"type": "unocc",
				"energy": -0.04201,
				"method": "rhf"
			},
			{
				"type": "unocc",
				"energy": -0.01791,
				"method": "rhf"
			},
			{
				"type": "unocc",
				"energy": 0.00876,
				"method": "rhf"
			},
			{
				"type": "unocc",
				"energy": 0.05943,
				"method": "rhf"
			},
			{
				"type": "unocc",
				"energy": 0.08956,
				"method": "rhf"
			}
		],
		"cosmo_sigma_profile": { 
			"-0.025": 0.0,
			"-0.024": 0.0,
			"-0.023": 0.0,
			"-0.022": 0.0,
			"-0.021": 0.0,
			"-0.02": 0.0,
			"-0.019": 0.0,
			"-0.018": 0.0,
			"-0.017": 0.0,
			"-0.016": 0.0,
			"-0.015": 0.0,
			"-0.014": 0.0,
			"-0.013": 0.0,
			"-0.012": 0.0,
			"-0.011": 0.0,
			"-0.01": 0.0,
			"-0.009": 0.0,
			"-0.008": 1.07560529679,
			"-0.007": 6.30690605775,
			"-0.006": 17.3702301163,
			"-0.005": 18.4267583709,
			"-0.004": 21.4211333133,
			"-0.003": 19.3760153806,
			"-0.002": 13.1246721914,
			"-0.001": 13.875871243,
			"0.0": 16.4083022709,
			"0.001": 21.5716410755,
			"0.002": 22.624442854,
			"0.003": 14.6882557784,
			"0.004": 13.4513743148,
			"0.005": 10.1730461094,
			"0.006": 4.7783328452,
			"0.007": 2.82326301522,
			"0.008": 3.28061272347,
			"0.009": 3.01957103581,
			"0.01": 2.79021524943,
			"0.011": 2.47784387395,
			"0.012": 4.60021136143,
			"0.013": 0.484740292631,
			"0.014": 0.0,
			"0.015": 0.0,
			"0.016": 0.0,
			"0.017": 0.0,
			"0.018": 0.0,
			"0.019": 0.0,
			"0.02": 0.0,
			"0.021": 0.0,
			"0.022": 0.0,
			"0.023": 0.0,
			"0.024": 0.0,
			"0.025": 0.0
		}
	}
}
