{
	 "smiles": "CC(C)C1=C(C=NN1C1=CC(Cl)=CC=C1)C(O)=O", 
	 "Tm": 435.15, 
	 "num_atms": 31, 
	 "gaussian": { 
		 "optdone": 1, 
		 "sigma_profile": "yes", 
		 "theory": "DFT", 
		 "functional": "B3LYP", 
		 "basiset": "6-31G**", 
		 "properties": { 
			 "R2extent": 6374.8839, 
			 "electric_dipole_moment_norm": 6.65202405738, 
			 "electric_quadrupole_moment_norm": 13.6335716381, 
			 "total_energy": -1223.35539084, 
			 "HOMO_LUMO_gap": 0.20379, 
			 "cosmo_polarized_energy": -17.82, 
			 "cosmo_cavitation_energy": 35.93, 
			 "cosmo_dispersion_energy": -25.41, 
			 "cosmo_repulsion_energy": 1.96, 
			 "cosmo_total_nonelectrostatic_energy": 12.48, 
			 "SMD_solvation_energy": 6.22 
		},
		"coords": [
			{
				"x": 0.4300453643,
				"y": -2.8614150081,
				"z": 0.4863192292,
				"element": "C" 
			},
			{
				"x": -0.1621858923,
				"y": -1.4405482881,
				"z": 0.5827189664,
				"element": "C" 
			},
			{
				"x": -1.4283150709,
				"y": -1.4145061996,
				"z": 1.4675411916,
				"element": "C" 
			},
			{
				"x": -0.3516650869,
				"y": -0.8110638458,
				"z": -0.7841151188,
				"element": "C" 
			},
			{
				"x": -0.9082660397,
				"y": -1.2784660516,
				"z": -1.9824747121,
				"element": "C" 
			},
			{
				"x": -0.5971828732,
				"y": -0.2866225429,
				"z": -2.9466427153,
				"element": "C" 
			},
			{
				"x": 0.0671942501,
				"y": 0.7263850432,
				"z": -2.426058866,
				"element": "N" 
			},
			{
				"x": 0.2106113022,
				"y": 0.4035841362,
				"z": -1.1051757565,
				"element": "N" 
			},
			{
				"x": 0.9569409069,
				"y": 1.3068100382,
				"z": -0.290746832,
				"element": "C" 
			},
			{
				"x": 2.1789429144,
				"y": 1.7780155957,
				"z": -0.7819705136,
				"element": "C" 
			},
			{
				"x": 2.9068745892,
				"y": 2.680117978,
				"z": -0.0119202984,
				"element": "C" 
			},
			{
				"x": 4.4417970115,
				"y": 3.2749936521,
				"z": -0.6190008732,
				"element": "Cl" 
			},
			{
				"x": 2.44856562,
				"y": 3.1148115841,
				"z": 1.2331449903,
				"element": "C" 
			},
			{
				"x": 1.2238141107,
				"y": 2.6405318149,
				"z": 1.7005077837,
				"element": "C" 
			},
			{
				"x": 0.4669590785,
				"y": 1.7468477744,
				"z": 0.9419527162,
				"element": "C" 
			},
			{
				"x": -1.6227908367,
				"y": -2.5170049657,
				"z": -2.3637302714,
				"element": "C" 
			},
			{
				"x": -2.3002323552,
				"y": -3.1843979213,
				"z": -1.384471013,
				"element": "O" 
			},
			{
				"x": -1.6415507744,
				"y": -2.9391604019,
				"z": -3.4965090319,
				"element": "O" 
			},
			{
				"x": -0.25508997,
				"y": -3.5550619125,
				"z": -0.0069655288,
				"element": "H" 
			},
			{
				"x": 0.6356137212,
				"y": -3.2459959954,
				"z": 1.4905119847,
				"element": "H" 
			},
			{
				"x": 1.3685850098,
				"y": -2.8560939353,
				"z": -0.0745733166,
				"element": "H" 
			},
			{
				"x": 0.5809105263,
				"y": -0.8230933746,
				"z": 1.0963711271,
				"element": "H" 
			},
			{
				"x": -1.1681644411,
				"y": -1.6887820475,
				"z": 2.4946581167,
				"element": "H" 
			},
			{
				"x": -1.8994691945,
				"y": -0.4276843552,
				"z": 1.4866074352,
				"element": "H" 
			},
			{
				"x": -2.1900985871,
				"y": -2.1355143226,
				"z": 1.1465154681,
				"element": "H" 
			},
			{
				"x": -0.8599745884,
				"y": -0.2996936933,
				"z": -3.9951805132,
				"element": "H" 
			},
			{
				"x": 2.5344895029,
				"y": 1.448380523,
				"z": -1.7497888226,
				"element": "H" 
			},
			{
				"x": 3.0362231974,
				"y": 3.8156742252,
				"z": 1.8148755457,
				"element": "H" 
			},
			{
				"x": 0.846644491,
				"y": 2.9848487729,
				"z": 2.6583428865,
				"element": "H" 
			},
			{
				"x": -0.5048171095,
				"y": 1.4174122856,
				"z": 1.2902590791,
				"element": "H" 
			},
			{
				"x": -2.3548087766,
				"y": -2.6312085621,
				"z": -0.593602337,
				"element": "H" 
			}
		],
		 "valence_orbital": [ 
			{
				"type": "occ",
				"energy": -0.29837,
				"method": "rhf"
			},
			{
				"type": "occ",
				"energy": -0.27283,
				"method": "rhf"
			},
			{
				"type": "occ",
				"energy": -0.26787,
				"method": "rhf"
			},
			{
				"type": "occ",
				"energy": -0.2623,
				"method": "rhf"
			},
			{
				"type": "occ",
				"energy": -0.25257,
				"method": "rhf"
			},
			{
				"type": "unocc",
				"energy": -0.04878,
				"method": "rhf"
			},
			{
				"type": "unocc",
				"energy": -0.03357,
				"method": "rhf"
			},
			{
				"type": "unocc",
				"energy": -0.01695,
				"method": "rhf"
			},
			{
				"type": "unocc",
				"energy": 0.00838,
				"method": "rhf"
			},
			{
				"type": "unocc",
				"energy": 0.01954,
				"method": "rhf"
			}
		],
		"cosmo_sigma_profile": { 
			"-0.025": 0.0,
			"-0.024": 0.0,
			"-0.023": 0.0,
			"-0.022": 0.0,
			"-0.021": 0.0,
			"-0.02": 0.0,
			"-0.019": 0.0,
			"-0.018": 0.0,
			"-0.017": 0.0,
			"-0.016": 0.0,
			"-0.015": 0.145671119835,
			"-0.014": 0.97978005117,
			"-0.013": 1.0664247332,
			"-0.012": 1.57150550612,
			"-0.011": 1.42291354917,
			"-0.01": 0.781576129733,
			"-0.009": 1.05698622512,
			"-0.008": 5.94796565254,
			"-0.007": 11.2559973204,
			"-0.006": 10.4625680503,
			"-0.005": 13.8402645291,
			"-0.004": 22.5886324553,
			"-0.003": 23.099038065,
			"-0.002": 26.319310163,
			"-0.001": 24.2977208041,
			"0.0": 24.2175460559,
			"0.001": 22.7594960435,
			"0.002": 22.987963931,
			"0.003": 16.0138296436,
			"0.004": 13.8859219302,
			"0.005": 6.95203353411,
			"0.006": 3.97549111192,
			"0.007": 4.28562860103,
			"0.008": 3.39539044667,
			"0.009": 4.25468929881,
			"0.01": 5.52818982362,
			"0.011": 6.17461593768,
			"0.012": 6.4677246828,
			"0.013": 2.88163257589,
			"0.014": 0.563119627594,
			"0.015": 0.0844256774751,
			"0.016": 0.0,
			"0.017": 0.0,
			"0.018": 0.0,
			"0.019": 0.0,
			"0.02": 0.0,
			"0.021": 0.0,
			"0.022": 0.0,
			"0.023": 0.0,
			"0.024": 0.0,
			"0.025": 0.0
		}
	}
}
