{
	 "smiles": "CN(C)C(=O)C1CNC2=C(O1)C=CC=C2", 
	 "Tm": 364.15, 
	 "num_atms": 29, 
	 "gaussian": { 
		 "optdone": 1, 
		 "sigma_profile": "yes", 
		 "theory": "DFT", 
		 "functional": "B3LYP", 
		 "basiset": "6-31G**", 
		 "properties": { 
			 "R2extent": 4378.2347, 
			 "electric_dipole_moment_norm": 2.94933660337, 
			 "electric_quadrupole_moment_norm": 14.1469656075, 
			 "total_energy": -687.554445063, 
			 "HOMO_LUMO_gap": 0.19695, 
			 "cosmo_polarized_energy": -13.43, 
			 "cosmo_cavitation_energy": 31.26, 
			 "cosmo_dispersion_energy": -22.86, 
			 "cosmo_repulsion_energy": 1.77, 
			 "cosmo_total_nonelectrostatic_energy": 10.17, 
			 "SMD_solvation_energy": 4.89 
		},
		"coords": [
			{
				"x": -2.210890262,
				"y": 1.2715499118,
				"z": 1.7766975237,
				"element": "C" 
			},
			{
				"x": -1.339713162,
				"y": 0.3142674374,
				"z": 2.4421978066,
				"element": "N" 
			},
			{
				"x": -1.3997086749,
				"y": 0.3242975948,
				"z": 3.8980280476,
				"element": "C" 
			},
			{
				"x": -0.4632690202,
				"y": -0.537514526,
				"z": 1.8285466463,
				"element": "C" 
			},
			{
				"x": 0.294622613,
				"y": -1.2755120881,
				"z": 2.4556127068,
				"element": "O" 
			},
			{
				"x": -0.4092343027,
				"y": -0.5357447728,
				"z": 0.2910081301,
				"element": "C" 
			},
			{
				"x": 0.6208585306,
				"y": -1.5444831531,
				"z": -0.2241950385,
				"element": "C" 
			},
			{
				"x": 0.5796885848,
				"y": -1.5892306978,
				"z": -1.6771282785,
				"element": "N" 
			},
			{
				"x": -0.6083894252,
				"y": -1.3032962955,
				"z": -2.3390213999,
				"element": "C" 
			},
			{
				"x": -1.7626059121,
				"y": -0.9833036165,
				"z": -1.5948255753,
				"element": "C" 
			},
			{
				"x": -1.7068915537,
				"y": -0.8786468192,
				"z": -0.214621065,
				"element": "O" 
			},
			{
				"x": -2.9845104904,
				"y": -0.7626916613,
				"z": -2.224092449,
				"element": "C" 
			},
			{
				"x": -3.0808953873,
				"y": -0.8347340739,
				"z": -3.6143067111,
				"element": "C" 
			},
			{
				"x": -1.9378106752,
				"y": -1.1134917534,
				"z": -4.3681969958,
				"element": "C" 
			},
			{
				"x": -0.7177067022,
				"y": -1.3490463214,
				"z": -3.7384454622,
				"element": "C" 
			},
			{
				"x": -1.9401248457,
				"y": 2.2966724732,
				"z": 2.0627756283,
				"element": "H" 
			},
			{
				"x": -2.1588729256,
				"y": 1.1699439242,
				"z": 0.6966508195,
				"element": "H" 
			},
			{
				"x": -3.2523215692,
				"y": 1.100953895,
				"z": 2.0763388245,
				"element": "H" 
			},
			{
				"x": -1.1097545183,
				"y": 1.308477533,
				"z": 4.2877541824,
				"element": "H" 
			},
			{
				"x": -2.4197567277,
				"y": 0.1065340873,
				"z": 4.2370318156,
				"element": "H" 
			},
			{
				"x": -0.7161038262,
				"y": -0.4320145661,
				"z": 4.2791761846,
				"element": "H" 
			},
			{
				"x": -0.1382247865,
				"y": 0.4689986891,
				"z": -0.071484477,
				"element": "H" 
			},
			{
				"x": 0.3921222679,
				"y": -2.5214736087,
				"z": 0.2152362839,
				"element": "H" 
			},
			{
				"x": 1.6203837017,
				"y": -1.2653859776,
				"z": 0.1154326979,
				"element": "H" 
			},
			{
				"x": 1.4340061825,
				"y": -1.4016325085,
				"z": -2.1773993552,
				"element": "H" 
			},
			{
				"x": -3.8461324424,
				"y": -0.5279952775,
				"z": -1.6064878527,
				"element": "H" 
			},
			{
				"x": -4.0355465745,
				"y": -0.6631917995,
				"z": -4.1012313067,
				"element": "H" 
			},
			{
				"x": -1.9957869808,
				"y": -1.159249314,
				"z": -5.4517228087,
				"element": "H" 
			},
			{
				"x": 0.1658688844,
				"y": -1.5893567147,
				"z": -4.3250285222,
				"element": "H" 
			}
		],
		 "valence_orbital": [ 
			{
				"type": "occ",
				"energy": -0.28832,
				"method": "rhf"
			},
			{
				"type": "occ",
				"energy": -0.25212,
				"method": "rhf"
			},
			{
				"type": "occ",
				"energy": -0.24187,
				"method": "rhf"
			},
			{
				"type": "occ",
				"energy": -0.22539,
				"method": "rhf"
			},
			{
				"type": "occ",
				"energy": -0.18857,
				"method": "rhf"
			},
			{
				"type": "unocc",
				"energy": 0.00838,
				"method": "rhf"
			},
			{
				"type": "unocc",
				"energy": 0.01263,
				"method": "rhf"
			},
			{
				"type": "unocc",
				"energy": 0.0243,
				"method": "rhf"
			},
			{
				"type": "unocc",
				"energy": 0.0805,
				"method": "rhf"
			},
			{
				"type": "unocc",
				"energy": 0.08916,
				"method": "rhf"
			}
		],
		"cosmo_sigma_profile": { 
			"-0.025": 0.0,
			"-0.024": 0.0,
			"-0.023": 0.0,
			"-0.022": 0.0,
			"-0.021": 0.0,
			"-0.02": 0.0,
			"-0.019": 0.0,
			"-0.018": 0.0,
			"-0.017": 0.0,
			"-0.016": 0.0,
			"-0.015": 0.0,
			"-0.014": 0.0322588459398,
			"-0.013": 1.05486727457,
			"-0.012": 1.35489812397,
			"-0.011": 1.23753649639,
			"-0.01": 1.34725650959,
			"-0.009": 1.84587083025,
			"-0.008": 1.58575531924,
			"-0.007": 3.95484966898,
			"-0.006": 9.87638493693,
			"-0.005": 21.4478408562,
			"-0.004": 22.1967163798,
			"-0.003": 25.6604364467,
			"-0.002": 27.7190714276,
			"-0.001": 17.2999154902,
			"0.0": 13.400758062,
			"0.001": 11.2403598537,
			"0.002": 11.2856664987,
			"0.003": 10.458532128,
			"0.004": 10.7608508038,
			"0.005": 11.3639805385,
			"0.006": 12.0636798572,
			"0.007": 10.1656868186,
			"0.008": 3.60457371101,
			"0.009": 3.23997459107,
			"0.01": 2.62060851809,
			"0.011": 1.76849097409,
			"0.012": 2.07161496726,
			"0.013": 3.87440107996,
			"0.014": 2.23294836845,
			"0.015": 0.0,
			"0.016": 0.0,
			"0.017": 0.0,
			"0.018": 0.0,
			"0.019": 0.0,
			"0.02": 0.0,
			"0.021": 0.0,
			"0.022": 0.0,
			"0.023": 0.0,
			"0.024": 0.0,
			"0.025": 0.0
		}
	}
}
