{
	 "smiles": "OC(=O)C1=NC=CC=C1N1CCCCC1", 
	 "Tm": 379.15, 
	 "num_atms": 29, 
	 "gaussian": { 
		 "optdone": 1, 
		 "sigma_profile": "yes", 
		 "theory": "DFT", 
		 "functional": "B3LYP", 
		 "basiset": "6-31G**", 
		 "properties": { 
			 "R2extent": 3311.5011, 
			 "electric_dipole_moment_norm": 5.63040474655, 
			 "electric_quadrupole_moment_norm": 12.5680927964, 
			 "total_energy": -687.566472651, 
			 "HOMO_LUMO_gap": 0.15665, 
			 "cosmo_polarized_energy": -12.45, 
			 "cosmo_cavitation_energy": 30.13, 
			 "cosmo_dispersion_energy": -22.58, 
			 "cosmo_repulsion_energy": 1.76, 
			 "cosmo_total_nonelectrostatic_energy": 9.31, 
			 "SMD_solvation_energy": 4.24 
		},
		"coords": [
			{
				"x": 2.5057307409,
				"y": -2.4934851103,
				"z": 0.1028170695,
				"element": "O" 
			},
			{
				"x": 1.8219689484,
				"y": -1.3375105511,
				"z": 0.1475749359,
				"element": "C" 
			},
			{
				"x": 2.3201997444,
				"y": -0.3157747542,
				"z": 0.5732801742,
				"element": "O" 
			},
			{
				"x": 0.44116803,
				"y": -1.446929346,
				"z": -0.4553332239,
				"element": "C" 
			},
			{
				"x": 0.2765597305,
				"y": -2.6015914,
				"z": -1.1285531936,
				"element": "N" 
			},
			{
				"x": -0.7687858696,
				"y": -2.7849015224,
				"z": -1.9266052757,
				"element": "C" 
			},
			{
				"x": -1.7090832654,
				"y": -1.7694514174,
				"z": -2.1263633725,
				"element": "C" 
			},
			{
				"x": -1.5909035134,
				"y": -0.589837889,
				"z": -1.4121228378,
				"element": "C" 
			},
			{
				"x": -0.5345335869,
				"y": -0.403396516,
				"z": -0.4806905531,
				"element": "C" 
			},
			{
				"x": -0.4983893657,
				"y": 0.7108561513,
				"z": 0.3245408793,
				"element": "N" 
			},
			{
				"x": -0.0265496883,
				"y": 0.6422438667,
				"z": 1.7233112507,
				"element": "C" 
			},
			{
				"x": -1.0026986001,
				"y": 1.3720312608,
				"z": 2.6519743052,
				"element": "C" 
			},
			{
				"x": -1.1048943702,
				"y": 2.8719697636,
				"z": 2.3003637083,
				"element": "C" 
			},
			{
				"x": -0.8773486356,
				"y": 3.0958739619,
				"z": 0.7890487119,
				"element": "C" 
			},
			{
				"x": -1.3144931087,
				"y": 1.878955789,
				"z": -0.0295792665,
				"element": "C" 
			},
			{
				"x": 1.9183511482,
				"y": -3.1187022162,
				"z": -0.3793001008,
				"element": "H" 
			},
			{
				"x": -0.8412802853,
				"y": -3.7411284549,
				"z": -2.4377326354,
				"element": "H" 
			},
			{
				"x": -2.5345161659,
				"y": -1.9127956889,
				"z": -2.8169885844,
				"element": "H" 
			},
			{
				"x": -2.3425674173,
				"y": 0.1795943726,
				"z": -1.5360042868,
				"element": "H" 
			},
			{
				"x": 0.0417984001,
				"y": -0.4113649636,
				"z": 2.0058386805,
				"element": "H" 
			},
			{
				"x": 0.9831266632,
				"y": 1.0517007169,
				"z": 1.8095780788,
				"element": "H" 
			},
			{
				"x": -1.9887304331,
				"y": 0.8973289034,
				"z": 2.5768563522,
				"element": "H" 
			},
			{
				"x": -0.6713933899,
				"y": 1.2378029346,
				"z": 3.6871730951,
				"element": "H" 
			},
			{
				"x": -2.0883708035,
				"y": 3.2526628155,
				"z": 2.5981373211,
				"element": "H" 
			},
			{
				"x": -0.3645053144,
				"y": 3.4462739805,
				"z": 2.8675447545,
				"element": "H" 
			},
			{
				"x": 0.1838858583,
				"y": 3.2780189804,
				"z": 0.5871408194,
				"element": "H" 
			},
			{
				"x": -1.421980942,
				"y": 3.9780098687,
				"z": 0.4367482894,
				"element": "H" 
			},
			{
				"x": -1.1840211619,
				"y": 2.0822140715,
				"z": -1.0978554691,
				"element": "H" 
			},
			{
				"x": -2.3900433466,
				"y": 1.6924323926,
				"z": 0.1352003735,
				"element": "H" 
			}
		],
		 "valence_orbital": [ 
			{
				"type": "occ",
				"energy": -0.29429,
				"method": "rhf"
			},
			{
				"type": "occ",
				"energy": -0.28406,
				"method": "rhf"
			},
			{
				"type": "occ",
				"energy": -0.27979,
				"method": "rhf"
			},
			{
				"type": "occ",
				"energy": -0.25062,
				"method": "rhf"
			},
			{
				"type": "occ",
				"energy": -0.20837,
				"method": "rhf"
			},
			{
				"type": "unocc",
				"energy": -0.05172,
				"method": "rhf"
			},
			{
				"type": "unocc",
				"energy": -0.01729,
				"method": "rhf"
			},
			{
				"type": "unocc",
				"energy": 0.05912,
				"method": "rhf"
			},
			{
				"type": "unocc",
				"energy": 0.06985,
				"method": "rhf"
			},
			{
				"type": "unocc",
				"energy": 0.0914,
				"method": "rhf"
			}
		],
		"cosmo_sigma_profile": { 
			"-0.025": 0.0,
			"-0.024": 0.0,
			"-0.023": 0.0,
			"-0.022": 0.0,
			"-0.021": 0.0,
			"-0.02": 0.0,
			"-0.019": 0.0,
			"-0.018": 0.0,
			"-0.017": 0.0,
			"-0.016": 0.0,
			"-0.015": 0.0,
			"-0.014": 0.0,
			"-0.013": 0.0,
			"-0.012": 0.0,
			"-0.011": 0.163487547504,
			"-0.01": 0.375475586461,
			"-0.009": 0.677312080081,
			"-0.008": 1.33278975214,
			"-0.007": 5.35195766347,
			"-0.006": 8.7178262011,
			"-0.005": 11.6162201993,
			"-0.004": 15.9270068991,
			"-0.003": 27.3892657913,
			"-0.002": 38.3463530975,
			"-0.001": 25.0385956346,
			"0.0": 22.1650088964,
			"0.001": 18.5763006312,
			"0.002": 12.7973301588,
			"0.003": 8.81190715611,
			"0.004": 5.24883025342,
			"0.005": 4.11298577403,
			"0.006": 3.707593995,
			"0.007": 2.24585619973,
			"0.008": 3.3191715437,
			"0.009": 2.65151717127,
			"0.01": 4.15872327622,
			"0.011": 5.17834999312,
			"0.012": 5.40199880725,
			"0.013": 2.48468900516,
			"0.014": 1.42214320853,
			"0.015": 0.0501850743436,
			"0.016": 0.0,
			"0.017": 0.0,
			"0.018": 0.0,
			"0.019": 0.0,
			"0.02": 0.0,
			"0.021": 0.0,
			"0.022": 0.0,
			"0.023": 0.0,
			"0.024": 0.0,
			"0.025": 0.0
		}
	}
}
