{
	 "smiles": "NC1=C(C=C(Cl)C=C1)C1=NC(=NO1)C1CCCC1", 
	 "Tm": 381.15, 
	 "num_atms": 32, 
	 "gaussian": { 
		 "optdone": 1, 
		 "sigma_profile": "yes", 
		 "theory": "DFT", 
		 "functional": "B3LYP", 
		 "basiset": "6-31G**", 
		 "properties": { 
			 "R2extent": 7755.9067, 
			 "electric_dipole_moment_norm": 4.86384296005, 
			 "electric_quadrupole_moment_norm": 12.2441651471, 
			 "total_energy": -1203.4825829, 
			 "HOMO_LUMO_gap": 0.15167, 
			 "cosmo_polarized_energy": -10.16, 
			 "cosmo_cavitation_energy": 36.68, 
			 "cosmo_dispersion_energy": -27.08, 
			 "cosmo_repulsion_energy": 2.11, 
			 "cosmo_total_nonelectrostatic_energy": 11.71, 
			 "SMD_solvation_energy": 4.09 
		},
		"coords": [
			{
				"x": 2.7794775076,
				"y": -0.1426165054,
				"z": 1.9089589116,
				"element": "N" 
			},
			{
				"x": 1.7912553573,
				"y": -0.8656355412,
				"z": 2.5079722711,
				"element": "C" 
			},
			{
				"x": 0.5556148767,
				"y": -1.1452608475,
				"z": 1.8528227718,
				"element": "C" 
			},
			{
				"x": -0.4512951728,
				"y": -1.8679031715,
				"z": 2.5236014278,
				"element": "C" 
			},
			{
				"x": -0.2501421713,
				"y": -2.3169570475,
				"z": 3.8152073995,
				"element": "C" 
			},
			{
				"x": -1.5127654222,
				"y": -3.2194608439,
				"z": 4.6423512418,
				"element": "Cl" 
			},
			{
				"x": 0.9609354703,
				"y": -2.0587087568,
				"z": 4.4721562949,
				"element": "C" 
			},
			{
				"x": 1.9572482075,
				"y": -1.3475123964,
				"z": 3.8273712633,
				"element": "C" 
			},
			{
				"x": 0.3196330652,
				"y": -0.7040771835,
				"z": 0.4905407567,
				"element": "C" 
			},
			{
				"x": 1.1298085599,
				"y": -0.0504081298,
				"z": -0.3127508499,
				"element": "N" 
			},
			{
				"x": 0.3859578231,
				"y": 0.0843557288,
				"z": -1.4651098465,
				"element": "C" 
			},
			{
				"x": -0.8107145318,
				"y": -0.4438022626,
				"z": -1.3986355085,
				"element": "N" 
			},
			{
				"x": -0.8643535984,
				"y": -0.9745933493,
				"z": -0.0915431499,
				"element": "O" 
			},
			{
				"x": 0.8866474366,
				"y": 0.7693329345,
				"z": -2.6957486891,
				"element": "C" 
			},
			{
				"x": 2.1642515079,
				"y": 0.1407069827,
				"z": -3.2952618391,
				"element": "C" 
			},
			{
				"x": 2.6555293925,
				"y": 1.2232949497,
				"z": -4.2686432906,
				"element": "C" 
			},
			{
				"x": 2.3652616889,
				"y": 2.5660831168,
				"z": -3.548205718,
				"element": "C" 
			},
			{
				"x": 1.2903942284,
				"y": 2.2517113975,
				"z": -2.4674814162,
				"element": "C" 
			},
			{
				"x": 2.6757186946,
				"y": 0.1091023331,
				"z": 0.932545596,
				"element": "H" 
			},
			{
				"x": 3.6840420943,
				"y": -0.0889257868,
				"z": 2.3461009233,
				"element": "H" 
			},
			{
				"x": -1.3846905594,
				"y": -2.071157139,
				"z": 2.0124952479,
				"element": "H" 
			},
			{
				"x": 1.1136514782,
				"y": -2.416382552,
				"z": 5.4847309536,
				"element": "H" 
			},
			{
				"x": 2.8920497066,
				"y": -1.1457891503,
				"z": 4.343211351,
				"element": "H" 
			},
			{
				"x": 0.0840034171,
				"y": 0.717351435,
				"z": -3.4399175549,
				"element": "H" 
			},
			{
				"x": 2.896264529,
				"y": -0.0224165286,
				"z": -2.4949976506,
				"element": "H" 
			},
			{
				"x": 1.9743852105,
				"y": -0.8247318974,
				"z": -3.7743385864,
				"element": "H" 
			},
			{
				"x": 3.7097659804,
				"y": 1.1048992496,
				"z": -4.5368204571,
				"element": "H" 
			},
			{
				"x": 2.0797130617,
				"y": 1.1633416227,
				"z": -5.1999364087,
				"element": "H" 
			},
			{
				"x": 3.2722122388,
				"y": 2.9582296813,
				"z": -3.0770695756,
				"element": "H" 
			},
			{
				"x": 2.0236165386,
				"y": 3.3303103695,
				"z": -4.2525910976,
				"element": "H" 
			},
			{
				"x": 0.4224939261,
				"y": 2.9149465195,
				"z": -2.5230653818,
				"element": "H" 
			},
			{
				"x": 1.7122294579,
				"y": 2.3586727691,
				"z": -1.4632493898,
				"element": "H" 
			}
		],
		 "valence_orbital": [ 
			{
				"type": "occ",
				"energy": -0.30425,
				"method": "rhf"
			},
			{
				"type": "occ",
				"energy": -0.2998,
				"method": "rhf"
			},
			{
				"type": "occ",
				"energy": -0.29347,
				"method": "rhf"
			},
			{
				"type": "occ",
				"energy": -0.25515,
				"method": "rhf"
			},
			{
				"type": "occ",
				"energy": -0.20856,
				"method": "rhf"
			},
			{
				"type": "unocc",
				"energy": -0.05689,
				"method": "rhf"
			},
			{
				"type": "unocc",
				"energy": -0.001,
				"method": "rhf"
			},
			{
				"type": "unocc",
				"energy": 0.01577,
				"method": "rhf"
			},
			{
				"type": "unocc",
				"energy": 0.03182,
				"method": "rhf"
			},
			{
				"type": "unocc",
				"energy": 0.05531,
				"method": "rhf"
			}
		],
		"cosmo_sigma_profile": { 
			"-0.025": 0.0,
			"-0.024": 0.0,
			"-0.023": 0.0,
			"-0.022": 0.0,
			"-0.021": 0.0,
			"-0.02": 0.0,
			"-0.019": 0.0,
			"-0.018": 0.0,
			"-0.017": 0.0,
			"-0.016": 0.0,
			"-0.015": 0.00144706765879,
			"-0.014": 0.780148693318,
			"-0.013": 1.34593250929,
			"-0.012": 1.94763417059,
			"-0.011": 1.26198009723,
			"-0.01": 1.09747335948,
			"-0.009": 2.01863050358,
			"-0.008": 3.45041174666,
			"-0.007": 5.02233968359,
			"-0.006": 5.94307921489,
			"-0.005": 6.23530781073,
			"-0.004": 9.00805090146,
			"-0.003": 22.9699417329,
			"-0.002": 35.0315055659,
			"-0.001": 37.9348475361,
			"0.0": 32.6469809203,
			"0.001": 30.3271307138,
			"0.002": 24.6147787892,
			"0.003": 24.9689927705,
			"0.004": 15.0566970042,
			"0.005": 12.6417646128,
			"0.006": 5.14343943176,
			"0.007": 3.42361133704,
			"0.008": 2.94231097309,
			"0.009": 1.47050323431,
			"0.01": 1.4062302326,
			"0.011": 1.37178481922,
			"0.012": 1.32469378809,
			"0.013": 1.27398349067,
			"0.014": 0.416126264017,
			"0.015": 0.0,
			"0.016": 0.0,
			"0.017": 0.0,
			"0.018": 0.0,
			"0.019": 0.0,
			"0.02": 0.0,
			"0.021": 0.0,
			"0.022": 0.0,
			"0.023": 0.0,
			"0.024": 0.0,
			"0.025": 0.0
		}
	}
}
