{
	 "smiles": "CNCC1=C(N=CN=C1Cl)N(C)C", 
	 "Tm": 317.15, 
	 "num_atms": 26, 
	 "gaussian": { 
		 "optdone": 1, 
		 "sigma_profile": "yes", 
		 "theory": "DFT", 
		 "functional": "B3LYP", 
		 "basiset": "6-31G**", 
		 "properties": { 
			 "R2extent": 3265.808, 
			 "electric_dipole_moment_norm": 3.69018873366, 
			 "electric_quadrupole_moment_norm": 7.28905322864, 
			 "total_energy": -991.86537092, 
			 "HOMO_LUMO_gap": 0.18881, 
			 "cosmo_polarized_energy": -9.72, 
			 "cosmo_cavitation_energy": 29.62, 
			 "cosmo_dispersion_energy": -21.06, 
			 "cosmo_repulsion_energy": 1.67, 
			 "cosmo_total_nonelectrostatic_energy": 10.23, 
			 "SMD_solvation_energy": 0.67 
		},
		"coords": [
			{
				"x": 3.3113658331,
				"y": -0.5517037816,
				"z": 0.3117965812,
				"element": "C" 
			},
			{
				"x": 2.2883854081,
				"y": -0.2927076518,
				"z": 1.3227004629,
				"element": "N" 
			},
			{
				"x": 1.6740290779,
				"y": 1.0289421222,
				"z": 1.2249635971,
				"element": "C" 
			},
			{
				"x": 0.8335536047,
				"y": 1.2758019463,
				"z": -0.0292926191,
				"element": "C" 
			},
			{
				"x": -0.1735104099,
				"y": 0.3739828992,
				"z": -0.4883506932,
				"element": "C" 
			},
			{
				"x": -0.7007509987,
				"y": 0.4686092734,
				"z": -1.7211318704,
				"element": "N" 
			},
			{
				"x": -0.3114195693,
				"y": 1.4937996721,
				"z": -2.4729318293,
				"element": "C" 
			},
			{
				"x": 0.5242763717,
				"y": 2.4690364864,
				"z": -2.1186125143,
				"element": "N" 
			},
			{
				"x": 1.0755845847,
				"y": 2.3263563252,
				"z": -0.9193298643,
				"element": "C" 
			},
			{
				"x": 2.2138526922,
				"y": 3.6104371359,
				"z": -0.489528477,
				"element": "Cl" 
			},
			{
				"x": -0.610289646,
				"y": -0.7022427536,
				"z": 0.2919186901,
				"element": "N" 
			},
			{
				"x": -1.3494330967,
				"y": -1.7552314339,
				"z": -0.4079462386,
				"element": "C" 
			},
			{
				"x": -1.1936281153,
				"y": -0.414179926,
				"z": 1.6071073614,
				"element": "C" 
			},
			{
				"x": 3.7164566941,
				"y": -1.5566073463,
				"z": 0.4647603471,
				"element": "H" 
			},
			{
				"x": 4.1348743524,
				"y": 0.160051928,
				"z": 0.4372264145,
				"element": "H" 
			},
			{
				"x": 2.9647953459,
				"y": -0.4802150328,
				"z": -0.7332168047,
				"element": "H" 
			},
			{
				"x": 1.5638147065,
				"y": -1.0025791617,
				"z": 1.2541947041,
				"element": "H" 
			},
			{
				"x": 2.4743646706,
				"y": 1.7709720499,
				"z": 1.248874549,
				"element": "H" 
			},
			{
				"x": 1.0853063625,
				"y": 1.2048877177,
				"z": 2.132262695,
				"element": "H" 
			},
			{
				"x": -0.7324585769,
				"y": 1.5554790469,
				"z": -3.4744982278,
				"element": "H" 
			},
			{
				"x": -1.4020287672,
				"y": -2.6261029439,
				"z": 0.2525111006,
				"element": "H" 
			},
			{
				"x": -2.3701010985,
				"y": -1.4487901827,
				"z": -0.6744624629,
				"element": "H" 
			},
			{
				"x": -0.830389807,
				"y": -2.0309023867,
				"z": -1.3253744411,
				"element": "H" 
			},
			{
				"x": -2.2547343986,
				"y": -0.1360530362,
				"z": 1.5161210177,
				"element": "H" 
			},
			{
				"x": -0.6745317253,
				"y": 0.4018954379,
				"z": 2.1042396635,
				"element": "H" 
			},
			{
				"x": -1.1251834947,
				"y": -1.3028364041,
				"z": 2.2417988585,
				"element": "H" 
			}
		],
		 "valence_orbital": [ 
			{
				"type": "occ",
				"energy": -0.31077,
				"method": "rhf"
			},
			{
				"type": "occ",
				"energy": -0.2771,
				"method": "rhf"
			},
			{
				"type": "occ",
				"energy": -0.26316,
				"method": "rhf"
			},
			{
				"type": "occ",
				"energy": -0.23769,
				"method": "rhf"
			},
			{
				"type": "occ",
				"energy": -0.22303,
				"method": "rhf"
			},
			{
				"type": "unocc",
				"energy": -0.03422,
				"method": "rhf"
			},
			{
				"type": "unocc",
				"energy": -0.03319,
				"method": "rhf"
			},
			{
				"type": "unocc",
				"energy": 0.03151,
				"method": "rhf"
			},
			{
				"type": "unocc",
				"energy": 0.07083,
				"method": "rhf"
			},
			{
				"type": "unocc",
				"energy": 0.10304,
				"method": "rhf"
			}
		],
		"cosmo_sigma_profile": { 
			"-0.025": 0.0,
			"-0.024": 0.0,
			"-0.023": 0.0,
			"-0.022": 0.0,
			"-0.021": 0.0,
			"-0.02": 0.0,
			"-0.019": 0.0,
			"-0.018": 0.0,
			"-0.017": 0.0,
			"-0.016": 0.0,
			"-0.015": 0.0,
			"-0.014": 0.0,
			"-0.013": 0.0,
			"-0.012": 0.0,
			"-0.011": 0.0,
			"-0.01": 0.0,
			"-0.009": 0.0,
			"-0.008": 1.7458475149,
			"-0.007": 4.20573338986,
			"-0.006": 4.53749054892,
			"-0.005": 11.7153885683,
			"-0.004": 20.6631976664,
			"-0.003": 27.9815823051,
			"-0.002": 35.7898132958,
			"-0.001": 32.5392944505,
			"0.0": 21.3444226431,
			"0.001": 12.0884125016,
			"0.002": 10.0555631947,
			"0.003": 9.54216872073,
			"0.004": 10.4621284488,
			"0.005": 5.89686353381,
			"0.006": 5.3130545279,
			"0.007": 3.30172917799,
			"0.008": 3.2452614734,
			"0.009": 2.40037738677,
			"0.01": 3.13125938217,
			"0.011": 3.14607078343,
			"0.012": 1.65246674156,
			"0.013": 1.6815517846,
			"0.014": 1.08931131927,
			"0.015": 1.34304115255,
			"0.016": 0.398543532446,
			"0.017": 0.595495491316,
			"0.018": 0.259148639474,
			"0.019": 0.0099000976561,
			"0.02": 0.0,
			"0.021": 0.0,
			"0.022": 0.0,
			"0.023": 0.0,
			"0.024": 0.0,
			"0.025": 0.0
		}
	}
}
