{
	 "smiles": "OC1=CC=C(OCC(F)(F)F)C=C1", 
	 "Tm": 334.15, 
	 "num_atms": 20, 
	 "gaussian": { 
		 "optdone": 1, 
		 "sigma_profile": "yes", 
		 "theory": "DFT", 
		 "functional": "B3LYP", 
		 "basiset": "6-31G**", 
		 "properties": { 
			 "R2extent": 4492.2444, 
			 "electric_dipole_moment_norm": 2.03891102307, 
			 "electric_quadrupole_moment_norm": 12.7422964928, 
			 "total_energy": -759.023543411, 
			 "HOMO_LUMO_gap": 0.19807, 
			 "cosmo_polarized_energy": -10.95, 
			 "cosmo_cavitation_energy": 26.18, 
			 "cosmo_dispersion_energy": -18.78, 
			 "cosmo_repulsion_energy": 1.44, 
			 "cosmo_total_nonelectrostatic_energy": 8.84, 
			 "SMD_solvation_energy": 6.19 
		},
		"coords": [
			{
				"x": 0.0064228379,
				"y": 3.1602080245,
				"z": 1.0480283278,
				"element": "O" 
			},
			{
				"x": 0.0536578816,
				"y": 1.8124417186,
				"z": 0.8112452898,
				"element": "C" 
			},
			{
				"x": -0.9268503824,
				"y": 1.0149628145,
				"z": 1.4020938515,
				"element": "C" 
			},
			{
				"x": -0.9331635178,
				"y": -0.3667688677,
				"z": 1.1989826515,
				"element": "C" 
			},
			{
				"x": 0.0484109668,
				"y": -0.9588510411,
				"z": 0.3984984864,
				"element": "C" 
			},
			{
				"x": 0.1352654203,
				"y": -2.3068755989,
				"z": 0.1328365236,
				"element": "O" 
			},
			{
				"x": -0.8297020442,
				"y": -3.1538928861,
				"z": 0.7040058995,
				"element": "C" 
			},
			{
				"x": -0.5139853103,
				"y": -4.5716757937,
				"z": 0.2616026411,
				"element": "C" 
			},
			{
				"x": -1.4289871924,
				"y": -5.4105692045,
				"z": 0.7975547742,
				"element": "F" 
			},
			{
				"x": 0.7027348983,
				"y": -4.9665958082,
				"z": 0.6736860122,
				"element": "F" 
			},
			{
				"x": -0.5633382813,
				"y": -4.7028236217,
				"z": -1.0750132723,
				"element": "F" 
			},
			{
				"x": 1.0320455238,
				"y": -0.1608478529,
				"z": -0.1945120501,
				"element": "C" 
			},
			{
				"x": 1.0351118199,
				"y": 1.2148278875,
				"z": 0.0100290136,
				"element": "C" 
			},
			{
				"x": 0.7363841604,
				"y": 3.5887016034,
				"z": 0.5833278543,
				"element": "H" 
			},
			{
				"x": -1.6834808645,
				"y": 1.4852548967,
				"z": 2.0211682933,
				"element": "H" 
			},
			{
				"x": -1.7076053499,
				"y": -0.9602450689,
				"z": 1.671107571,
				"element": "H" 
			},
			{
				"x": -1.8463648006,
				"y": -2.9119684959,
				"z": 0.3666083693,
				"element": "H" 
			},
			{
				"x": -0.8071523846,
				"y": -3.1283375079,
				"z": 1.8016448934,
				"element": "H" 
			},
			{
				"x": 1.7865953698,
				"y": -0.6355046919,
				"z": -0.8127701302,
				"element": "H" 
			},
			{
				"x": 1.8051012491,
				"y": 1.8259594942,
				"z": -0.4562249999,
				"element": "H" 
			}
		],
		 "valence_orbital": [ 
			{
				"type": "occ",
				"energy": -0.3605,
				"method": "rhf"
			},
			{
				"type": "occ",
				"energy": -0.33837,
				"method": "rhf"
			},
			{
				"type": "occ",
				"energy": -0.30609,
				"method": "rhf"
			},
			{
				"type": "occ",
				"energy": -0.26029,
				"method": "rhf"
			},
			{
				"type": "occ",
				"energy": -0.20937,
				"method": "rhf"
			},
			{
				"type": "unocc",
				"energy": -0.0113,
				"method": "rhf"
			},
			{
				"type": "unocc",
				"energy": 0.01797,
				"method": "rhf"
			},
			{
				"type": "unocc",
				"energy": 0.06584,
				"method": "rhf"
			},
			{
				"type": "unocc",
				"energy": 0.08516,
				"method": "rhf"
			},
			{
				"type": "unocc",
				"energy": 0.09117,
				"method": "rhf"
			}
		],
		"cosmo_sigma_profile": { 
			"-0.025": 0.0,
			"-0.024": 0.0,
			"-0.023": 0.0,
			"-0.022": 0.0,
			"-0.021": 0.0,
			"-0.02": 0.0,
			"-0.019": 0.0,
			"-0.018": 0.191261091416,
			"-0.017": 1.12145425782,
			"-0.016": 1.11712143299,
			"-0.015": 1.21973740894,
			"-0.014": 0.647765227278,
			"-0.013": 1.14758850526,
			"-0.012": 0.908734176567,
			"-0.011": 1.1397051746,
			"-0.01": 0.900253236458,
			"-0.009": 1.78369608788,
			"-0.008": 8.80576991591,
			"-0.007": 9.31262470318,
			"-0.006": 9.68089675699,
			"-0.005": 10.5937939966,
			"-0.004": 8.66814194356,
			"-0.003": 7.44613852174,
			"-0.002": 5.90546587753,
			"-0.001": 7.57407710759,
			"0.0": 9.27096621717,
			"0.001": 10.6732272469,
			"0.002": 26.1697086603,
			"0.003": 35.5181064991,
			"0.004": 16.9385988233,
			"0.005": 14.6815595185,
			"0.006": 4.91675755837,
			"0.007": 3.82771214478,
			"0.008": 2.70006696199,
			"0.009": 1.40973942475,
			"0.01": 1.18050809269,
			"0.011": 2.33135893958,
			"0.012": 0.992588684149,
			"0.013": 0.0,
			"0.014": 0.0,
			"0.015": 0.0,
			"0.016": 0.0,
			"0.017": 0.0,
			"0.018": 0.0,
			"0.019": 0.0,
			"0.02": 0.0,
			"0.021": 0.0,
			"0.022": 0.0,
			"0.023": 0.0,
			"0.024": 0.0,
			"0.025": 0.0
		}
	}
}
