{
	 "smiles": "CC12CCC3C(C=CC4=CC(=O)CCC34C)C1CCC21CCC(=O)O1", 
	 "Tm": 423.15, 
	 "num_atms": 53, 
	 "gaussian": { 
		 "optdone": 1, 
		 "sigma_profile": "yes", 
		 "theory": "DFT", 
		 "functional": "B3LYP", 
		 "basiset": "6-31G**", 
		 "properties": { 
			 "R2extent": 8684.6611, 
			 "electric_dipole_moment_norm": 8.82334755634, 
			 "electric_quadrupole_moment_norm": 20.1629043858, 
			 "total_energy": -1080.89139519, 
			 "HOMO_LUMO_gap": 0.16471, 
			 "cosmo_polarized_energy": -18.91, 
			 "cosmo_cavitation_energy": 47.0, 
			 "cosmo_dispersion_energy": -32.38, 
			 "cosmo_repulsion_energy": 2.36, 
			 "cosmo_total_nonelectrostatic_energy": 16.98, 
			 "SMD_solvation_energy": 8.1 
		},
		"coords": [
			{
				"x": -2.1420208717,
				"y": 1.5291079248,
				"z": 2.7694663973,
				"element": "C" 
			},
			{
				"x": -0.969154442,
				"y": 1.2666319613,
				"z": 1.792442924,
				"element": "C" 
			},
			{
				"x": -0.1240341912,
				"y": 0.1138883874,
				"z": 2.3849214881,
				"element": "C" 
			},
			{
				"x": 0.7732470144,
				"y": -0.6544109392,
				"z": 1.4037228261,
				"element": "C" 
			},
			{
				"x": -0.015471045,
				"y": -1.1161886075,
				"z": 0.1679177783,
				"element": "C" 
			},
			{
				"x": -0.641768027,
				"y": 0.1020230339,
				"z": -0.5490093857,
				"element": "C" 
			},
			{
				"x": -1.4195139398,
				"y": -0.3739749226,
				"z": -1.7519512583,
				"element": "C" 
			},
			{
				"x": -0.9879179062,
				"y": -1.3983193984,
				"z": -2.5046577713,
				"element": "C" 
			},
			{
				"x": 0.2980455996,
				"y": -2.0283260539,
				"z": -2.2248319368,
				"element": "C" 
			},
			{
				"x": 1.0496757559,
				"y": -2.5150644988,
				"z": -3.2447063799,
				"element": "C" 
			},
			{
				"x": 2.4424024321,
				"y": -2.9541852623,
				"z": -3.0946604036,
				"element": "C" 
			},
			{
				"x": 3.0704364822,
				"y": -3.4436177077,
				"z": -4.026606417,
				"element": "O" 
			},
			{
				"x": 3.093052288,
				"y": -2.7381450372,
				"z": -1.7304433839,
				"element": "C" 
			},
			{
				"x": 2.3191077403,
				"y": -1.7933620792,
				"z": -0.7971090377,
				"element": "C" 
			},
			{
				"x": 0.7955640365,
				"y": -2.0875502124,
				"z": -0.7740143231,
				"element": "C" 
			},
			{
				"x": 0.5396089675,
				"y": -3.5283219929,
				"z": -0.2519549251,
				"element": "C" 
			},
			{
				"x": -1.5652220133,
				"y": 0.9251139538,
				"z": 0.3887847975,
				"element": "C" 
			},
			{
				"x": -1.9318765649,
				"y": 2.3083071513,
				"z": -0.2306259667,
				"element": "C" 
			},
			{
				"x": -1.1498978378,
				"y": 3.3762363999,
				"z": 0.5758728853,
				"element": "C" 
			},
			{
				"x": -0.2147005541,
				"y": 2.6150780123,
				"z": 1.5310225105,
				"element": "C" 
			},
			{
				"x": 0.2711184011,
				"y": 3.4418524567,
				"z": 2.7518371187,
				"element": "C" 
			},
			{
				"x": 1.76565098,
				"y": 3.1338926193,
				"z": 2.8701675482,
				"element": "C" 
			},
			{
				"x": 2.1437219164,
				"y": 2.5836105398,
				"z": 1.5031641786,
				"element": "C" 
			},
			{
				"x": 3.2426110344,
				"y": 2.3572396287,
				"z": 1.0649738968,
				"element": "O" 
			},
			{
				"x": 1.0134429078,
				"y": 2.3369867013,
				"z": 0.7861242842,
				"element": "O" 
			},
			{
				"x": -2.7598104483,
				"y": 2.3835139065,
				"z": 2.4781606761,
				"element": "H" 
			},
			{
				"x": -1.7864962658,
				"y": 1.7066858972,
				"z": 3.7895702894,
				"element": "H" 
			},
			{
				"x": -2.793156667,
				"y": 0.6502965867,
				"z": 2.8043142579,
				"element": "H" 
			},
			{
				"x": 0.4705764168,
				"y": 0.4867436657,
				"z": 3.2294127398,
				"element": "H" 
			},
			{
				"x": -0.8279343798,
				"y": -0.6056201155,
				"z": 2.8248012708,
				"element": "H" 
			},
			{
				"x": 1.1877857638,
				"y": -1.5216688856,
				"z": 1.9322405791,
				"element": "H" 
			},
			{
				"x": 1.6218106403,
				"y": -0.0415400462,
				"z": 1.0938932919,
				"element": "H" 
			},
			{
				"x": -0.8718299508,
				"y": -1.7036085783,
				"z": 0.5327461084,
				"element": "H" 
			},
			{
				"x": 0.169923785,
				"y": 0.7600499359,
				"z": -0.8903812324,
				"element": "H" 
			},
			{
				"x": -2.3324589554,
				"y": 0.1508271921,
				"z": -2.0263924787,
				"element": "H" 
			},
			{
				"x": -1.518801615,
				"y": -1.6912721983,
				"z": -3.4077261318,
				"element": "H" 
			},
			{
				"x": 0.6631939826,
				"y": -2.5250534843,
				"z": -4.2614560958,
				"element": "H" 
			},
			{
				"x": 4.1094736512,
				"y": -2.3722517138,
				"z": -1.9075437623,
				"element": "H" 
			},
			{
				"x": 3.2114971395,
				"y": -3.7278799322,
				"z": -1.2708347527,
				"element": "H" 
			},
			{
				"x": 2.7359298181,
				"y": -1.8728037081,
				"z": 0.2112092051,
				"element": "H" 
			},
			{
				"x": 2.475533413,
				"y": -0.7566487348,
				"z": -1.1188794046,
				"element": "H" 
			},
			{
				"x": 1.0895617981,
				"y": -4.2799142951,
				"z": -0.8222088037,
				"element": "H" 
			},
			{
				"x": 0.8370724348,
				"y": -3.6132110221,
				"z": 0.7995335616,
				"element": "H" 
			},
			{
				"x": -0.5240427421,
				"y": -3.7768542081,
				"z": -0.3217604409,
				"element": "H" 
			},
			{
				"x": -2.4706998302,
				"y": 0.3227105345,
				"z": 0.5383307888,
				"element": "H" 
			},
			{
				"x": -1.6655148582,
				"y": 2.343199074,
				"z": -1.2907888531,
				"element": "H" 
			},
			{
				"x": -3.0083093562,
				"y": 2.4955135147,
				"z": -0.1749851985,
				"element": "H" 
			},
			{
				"x": -0.559746206,
				"y": 4.0456265649,
				"z": -0.055762279,
				"element": "H" 
			},
			{
				"x": -1.8288308724,
				"y": 4.0050312198,
				"z": 1.160741657,
				"element": "H" 
			},
			{
				"x": -0.2887443656,
				"y": 3.2116074201,
				"z": 3.6590188118,
				"element": "H" 
			},
			{
				"x": 0.1213825514,
				"y": 4.5058291375,
				"z": 2.5423754641,
				"element": "H" 
			},
			{
				"x": 2.3905210288,
				"y": 3.9983857678,
				"z": 3.1050707984,
				"element": "H" 
			},
			{
				"x": 1.9888059261,
				"y": 2.3644044467,
				"z": 3.6171524889,
				"element": "H" 
			}
		],
		 "valence_orbital": [ 
			{
				"type": "occ",
				"energy": -0.28749,
				"method": "rhf"
			},
			{
				"type": "occ",
				"energy": -0.28329,
				"method": "rhf"
			},
			{
				"type": "occ",
				"energy": -0.26937,
				"method": "rhf"
			},
			{
				"type": "occ",
				"energy": -0.22874,
				"method": "rhf"
			},
			{
				"type": "occ",
				"energy": -0.22045,
				"method": "rhf"
			},
			{
				"type": "unocc",
				"energy": -0.05574,
				"method": "rhf"
			},
			{
				"type": "unocc",
				"energy": 0.00627,
				"method": "rhf"
			},
			{
				"type": "unocc",
				"energy": 0.03074,
				"method": "rhf"
			},
			{
				"type": "unocc",
				"energy": 0.0526,
				"method": "rhf"
			},
			{
				"type": "unocc",
				"energy": 0.07278,
				"method": "rhf"
			}
		],
		"cosmo_sigma_profile": { 
			"-0.025": 0.0,
			"-0.024": 0.0,
			"-0.023": 0.0,
			"-0.022": 0.0,
			"-0.021": 0.0,
			"-0.02": 0.0,
			"-0.019": 0.0,
			"-0.018": 0.0,
			"-0.017": 0.0,
			"-0.016": 0.0,
			"-0.015": 0.0,
			"-0.014": 0.0,
			"-0.013": 0.0,
			"-0.012": 0.0,
			"-0.011": 0.0,
			"-0.01": 0.0,
			"-0.009": 0.0,
			"-0.008": 0.0274318969784,
			"-0.007": 1.39460532347,
			"-0.006": 8.58694262246,
			"-0.005": 21.6621650182,
			"-0.004": 31.1067743642,
			"-0.003": 53.0507145524,
			"-0.002": 60.2101308723,
			"-0.001": 46.9078416899,
			"0.0": 36.3532988084,
			"0.001": 24.8978750201,
			"0.002": 11.2429936253,
			"0.003": 9.80792163963,
			"0.004": 8.86199006545,
			"0.005": 5.33763964656,
			"0.006": 3.2776925848,
			"0.007": 3.24263262065,
			"0.008": 4.09946213552,
			"0.009": 3.82025043947,
			"0.01": 3.60905771808,
			"0.011": 4.36028617221,
			"0.012": 9.17388500778,
			"0.013": 7.67785733369,
			"0.014": 4.28274485356,
			"0.015": 1.16207984791,
			"0.016": 0.0,
			"0.017": 0.0,
			"0.018": 0.0,
			"0.019": 0.0,
			"0.02": 0.0,
			"0.021": 0.0,
			"0.022": 0.0,
			"0.023": 0.0,
			"0.024": 0.0,
			"0.025": 0.0
		}
	}
}
