{
	 "smiles": "CC1CCC2=C(C3=C1C=C(C)O3)C1=C(O2)C(Br)=CC(Br)=C1", 
	 "Tm": 394.15, 
	 "num_atms": 35, 
	 "gaussian": { 
		 "optdone": 1, 
		 "sigma_profile": "yes", 
		 "theory": "DFT", 
		 "functional": "B3LYP", 
		 "basiset": "6-31G**", 
		 "properties": { 
			 "R2extent": 14128.1299, 
			 "electric_dipole_moment_norm": 4.34982878973, 
			 "electric_quadrupole_moment_norm": 7.82517394311, 
			 "total_energy": -5949.50473903, 
			 "HOMO_LUMO_gap": 0.15725, 
			 "cosmo_polarized_energy": -6.49, 
			 "cosmo_cavitation_energy": 42.17, 
			 "cosmo_dispersion_energy": -30.86, 
			 "cosmo_repulsion_energy": 2.38, 
			 "cosmo_total_nonelectrostatic_energy": 13.69, 
			 "SMD_solvation_energy": 4.79 
		},
		"coords": [
			{
				"x": -0.4937760128,
				"y": 3.9038771764,
				"z": -2.1487850871,
				"element": "C" 
			},
			{
				"x": -1.2727783913,
				"y": 2.5996627158,
				"z": -1.8780363396,
				"element": "C" 
			},
			{
				"x": -2.2792492456,
				"y": 2.7448410163,
				"z": -0.7110555373,
				"element": "C" 
			},
			{
				"x": -1.721806235,
				"y": 3.1976103969,
				"z": 0.6525004771,
				"element": "C" 
			},
			{
				"x": -0.8041692838,
				"y": 2.2223664392,
				"z": 1.3069437971,
				"element": "C" 
			},
			{
				"x": 0.0095687253,
				"y": 1.2345980771,
				"z": 0.8164976157,
				"element": "C" 
			},
			{
				"x": 0.1782178304,
				"y": 0.8940094689,
				"z": -0.5766783346,
				"element": "C" 
			},
			{
				"x": -0.3389289568,
				"y": 1.4228823573,
				"z": -1.7336563811,
				"element": "C" 
			},
			{
				"x": 0.2195699113,
				"y": 0.6373492615,
				"z": -2.7980286024,
				"element": "C" 
			},
			{
				"x": 1.0285104494,
				"y": -0.3040475791,
				"z": -2.2335390341,
				"element": "C" 
			},
			{
				"x": 1.8747492326,
				"y": -1.3992903819,
				"z": -2.7787218047,
				"element": "C" 
			},
			{
				"x": 1.0115979832,
				"y": -0.1584347092,
				"z": -0.8721801126,
				"element": "O" 
			},
			{
				"x": 0.6550443994,
				"y": 0.6369040653,
				"z": 1.9719807909,
				"element": "C" 
			},
			{
				"x": 0.1555314091,
				"y": 1.3455117659,
				"z": 3.0799414663,
				"element": "C" 
			},
			{
				"x": -0.7261188105,
				"y": 2.3028334755,
				"z": 2.6824692739,
				"element": "O" 
			},
			{
				"x": 0.5443528077,
				"y": 1.059817314,
				"z": 4.3828285978,
				"element": "C" 
			},
			{
				"x": -0.1573947522,
				"y": 2.0409900335,
				"z": 5.8491937892,
				"element": "Br" 
			},
			{
				"x": 1.4636394583,
				"y": 0.0331022102,
				"z": 4.5817777165,
				"element": "C" 
			},
			{
				"x": 1.9623753908,
				"y": -0.6726726908,
				"z": 3.4752308145,
				"element": "C" 
			},
			{
				"x": 3.2250216633,
				"y": -2.0748805129,
				"z": 3.7982421464,
				"element": "Br" 
			},
			{
				"x": 1.5806332174,
				"y": -0.3975450923,
				"z": 2.1675282618,
				"element": "C" 
			},
			{
				"x": 0.1898055749,
				"y": 4.1396837771,
				"z": -1.3274401724,
				"element": "H" 
			},
			{
				"x": -1.1795431159,
				"y": 4.7492896657,
				"z": -2.2791410935,
				"element": "H" 
			},
			{
				"x": 0.1094431022,
				"y": 3.8130959293,
				"z": -3.0569556107,
				"element": "H" 
			},
			{
				"x": -1.8847333776,
				"y": 2.4035358648,
				"z": -2.7692386209,
				"element": "H" 
			},
			{
				"x": -3.0307489277,
				"y": 3.4844512244,
				"z": -1.0109079185,
				"element": "H" 
			},
			{
				"x": -2.810461195,
				"y": 1.7951166818,
				"z": -0.5811203446,
				"element": "H" 
			},
			{
				"x": -1.2171434559,
				"y": 4.1690584312,
				"z": 0.5520648936,
				"element": "H" 
			},
			{
				"x": -2.5601008049,
				"y": 3.3734005936,
				"z": 1.3369875559,
				"element": "H" 
			},
			{
				"x": 0.0327263484,
				"y": 0.7616857674,
				"z": -3.856229667,
				"element": "H" 
			},
			{
				"x": 1.5593053918,
				"y": -2.3781986731,
				"z": -2.3990476889,
				"element": "H" 
			},
			{
				"x": 2.9285838182,
				"y": -1.2664730518,
				"z": -2.5070535849,
				"element": "H" 
			},
			{
				"x": 1.8026837576,
				"y": -1.4160647191,
				"z": -3.8685777532,
				"element": "H" 
			},
			{
				"x": 1.789428782,
				"y": -0.2168551141,
				"z": 5.5829484341,
				"element": "H" 
			},
			{
				"x": 1.9800633116,
				"y": -0.957411185,
				"z": 1.333158057,
				"element": "H" 
			}
		],
		 "valence_orbital": [ 
			{
				"type": "occ",
				"energy": -0.28302,
				"method": "rhf"
			},
			{
				"type": "occ",
				"energy": -0.26918,
				"method": "rhf"
			},
			{
				"type": "occ",
				"energy": -0.24465,
				"method": "rhf"
			},
			{
				"type": "occ",
				"energy": -0.23299,
				"method": "rhf"
			},
			{
				"type": "occ",
				"energy": -0.19392,
				"method": "rhf"
			},
			{
				"type": "unocc",
				"energy": -0.03667,
				"method": "rhf"
			},
			{
				"type": "unocc",
				"energy": -0.0104,
				"method": "rhf"
			},
			{
				"type": "unocc",
				"energy": -0.00645,
				"method": "rhf"
			},
			{
				"type": "unocc",
				"energy": -0.00335,
				"method": "rhf"
			},
			{
				"type": "unocc",
				"energy": 0.02762,
				"method": "rhf"
			}
		],
		"cosmo_sigma_profile": { 
			"-0.025": 0.0,
			"-0.024": 0.0,
			"-0.023": 0.0,
			"-0.022": 0.0,
			"-0.021": 0.0,
			"-0.02": 0.0,
			"-0.019": 0.0,
			"-0.018": 0.0,
			"-0.017": 0.0,
			"-0.016": 0.0,
			"-0.015": 0.0,
			"-0.014": 0.0,
			"-0.013": 0.0,
			"-0.012": 0.0,
			"-0.011": 0.0,
			"-0.01": 0.0,
			"-0.009": 0.0,
			"-0.008": 0.816443719115,
			"-0.007": 1.44842377281,
			"-0.006": 4.15718243175,
			"-0.005": 14.5108501747,
			"-0.004": 23.5662020095,
			"-0.003": 36.2026315153,
			"-0.002": 36.0050665354,
			"-0.001": 35.44442757,
			"0.0": 36.2440661702,
			"0.001": 37.6026028575,
			"0.002": 39.6638381374,
			"0.003": 29.3016753217,
			"0.004": 27.447559631,
			"0.005": 13.5075451797,
			"0.006": 4.3175065938,
			"0.007": 1.67489059277,
			"0.008": 0.508199332312,
			"0.009": 0.0,
			"0.01": 0.0,
			"0.011": 0.0,
			"0.012": 0.0,
			"0.013": 0.0,
			"0.014": 0.0,
			"0.015": 0.0,
			"0.016": 0.0,
			"0.017": 0.0,
			"0.018": 0.0,
			"0.019": 0.0,
			"0.02": 0.0,
			"0.021": 0.0,
			"0.022": 0.0,
			"0.023": 0.0,
			"0.024": 0.0,
			"0.025": 0.0
		}
	}
}
