{
	 "smiles": "CC(=O)C=C1/CC2=CC=CC=C12", 
	 "Tm": 352.45, 
	 "num_atms": 22, 
	 "gaussian": { 
		 "optdone": 1, 
		 "sigma_profile": "yes", 
		 "theory": "DFT", 
		 "functional": "B3LYP", 
		 "basiset": "6-31G**", 
		 "properties": { 
			 "R2extent": 2793.1081, 
			 "electric_dipole_moment_norm": 4.32398385173, 
			 "electric_quadrupole_moment_norm": 9.66330141256, 
			 "total_energy": -500.368577177, 
			 "HOMO_LUMO_gap": 0.16898, 
			 "cosmo_polarized_energy": -9.83, 
			 "cosmo_cavitation_energy": 26.22, 
			 "cosmo_dispersion_energy": -18.93, 
			 "cosmo_repulsion_energy": 1.51, 
			 "cosmo_total_nonelectrostatic_energy": 8.79, 
			 "SMD_solvation_energy": 4.76 
		},
		"coords": [
			{
				"x": 0.556410033,
				"y": -2.7004428841,
				"z": -0.3305278251,
				"element": "C" 
			},
			{
				"x": 1.5206878897,
				"y": -1.6903114777,
				"z": 0.2723228405,
				"element": "C" 
			},
			{
				"x": 2.6818438384,
				"y": -2.0017129543,
				"z": 0.5064467104,
				"element": "O" 
			},
			{
				"x": 1.0610181863,
				"y": -0.3183130645,
				"z": 0.5807448953,
				"element": "C" 
			},
			{
				"x": -0.1636389336,
				"y": 0.2064585914,
				"z": 0.3960468455,
				"element": "C" 
			},
			{
				"x": -1.5326604665,
				"y": -0.2834241063,
				"z": -0.1564651412,
				"element": "C" 
			},
			{
				"x": -2.0106080496,
				"y": 1.1337637138,
				"z": 0.1609324772,
				"element": "C" 
			},
			{
				"x": -3.0963374513,
				"y": 1.9921156479,
				"z": 0.1232996763,
				"element": "C" 
			},
			{
				"x": -2.8646613656,
				"y": 3.2908424648,
				"z": 0.6074446356,
				"element": "C" 
			},
			{
				"x": -1.6098093891,
				"y": 3.6906891804,
				"z": 1.0981500409,
				"element": "C" 
			},
			{
				"x": -0.5173708733,
				"y": 2.8151826532,
				"z": 1.132207801,
				"element": "C" 
			},
			{
				"x": -0.7580555358,
				"y": 1.5304237586,
				"z": 0.6499392338,
				"element": "C" 
			},
			{
				"x": 0.1650473059,
				"y": -2.3467262042,
				"z": -1.2901451442,
				"element": "H" 
			},
			{
				"x": -0.3005786849,
				"y": -2.8690176599,
				"z": 0.3300245153,
				"element": "H" 
			},
			{
				"x": 1.0878768044,
				"y": -3.6408319636,
				"z": -0.480876987,
				"element": "H" 
			},
			{
				"x": 1.8403832517,
				"y": 0.3096360181,
				"z": 1.0073868451,
				"element": "H" 
			},
			{
				"x": -2.0057902905,
				"y": -1.0879459584,
				"z": 0.4171897978,
				"element": "H" 
			},
			{
				"x": -1.5345770773,
				"y": -0.5633938339,
				"z": -1.2156201863,
				"element": "H" 
			},
			{
				"x": -4.0734568829,
				"y": 1.702181908,
				"z": -0.2519375649,
				"element": "H" 
			},
			{
				"x": -3.6777899852,
				"y": 4.011519359,
				"z": 0.6042568511,
				"element": "H" 
			},
			{
				"x": -1.4893853975,
				"y": 4.7079248571,
				"z": 1.4597476754,
				"element": "H" 
			},
			{
				"x": 0.4476530736,
				"y": 3.1349819546,
				"z": 1.5135320076,
				"element": "H" 
			}
		],
		 "valence_orbital": [ 
			{
				"type": "occ",
				"energy": -0.33217,
				"method": "rhf"
			},
			{
				"type": "occ",
				"energy": -0.29805,
				"method": "rhf"
			},
			{
				"type": "occ",
				"energy": -0.26071,
				"method": "rhf"
			},
			{
				"type": "occ",
				"energy": -0.23858,
				"method": "rhf"
			},
			{
				"type": "occ",
				"energy": -0.23592,
				"method": "rhf"
			},
			{
				"type": "unocc",
				"energy": -0.06694,
				"method": "rhf"
			},
			{
				"type": "unocc",
				"energy": -0.01409,
				"method": "rhf"
			},
			{
				"type": "unocc",
				"energy": 0.01207,
				"method": "rhf"
			},
			{
				"type": "unocc",
				"energy": 0.07695,
				"method": "rhf"
			},
			{
				"type": "unocc",
				"energy": 0.08441,
				"method": "rhf"
			}
		],
		"cosmo_sigma_profile": { 
			"-0.025": 0.0,
			"-0.024": 0.0,
			"-0.023": 0.0,
			"-0.022": 0.0,
			"-0.021": 0.0,
			"-0.02": 0.0,
			"-0.019": 0.0,
			"-0.018": 0.0,
			"-0.017": 0.0,
			"-0.016": 0.0,
			"-0.015": 0.0,
			"-0.014": 0.0,
			"-0.013": 0.0,
			"-0.012": 0.0,
			"-0.011": 0.0,
			"-0.01": 0.0,
			"-0.009": 0.0,
			"-0.008": 0.0,
			"-0.007": 1.27646748645,
			"-0.006": 14.8814798482,
			"-0.005": 20.7301637421,
			"-0.004": 21.3877486267,
			"-0.003": 16.3558607992,
			"-0.002": 20.0809453143,
			"-0.001": 17.0725476074,
			"0.0": 15.3323639469,
			"0.001": 12.4332752791,
			"0.002": 14.7938675127,
			"0.003": 14.3271999967,
			"0.004": 12.9169195158,
			"0.005": 7.4506139702,
			"0.006": 1.41823583067,
			"0.007": 1.7017818127,
			"0.008": 1.72086436928,
			"0.009": 1.33076971629,
			"0.01": 1.71233363391,
			"0.011": 2.31469378495,
			"0.012": 3.57598686657,
			"0.013": 4.27264507565,
			"0.014": 2.18358698957,
			"0.015": 0.0630058187496,
			"0.016": 0.0,
			"0.017": 0.0,
			"0.018": 0.0,
			"0.019": 0.0,
			"0.02": 0.0,
			"0.021": 0.0,
			"0.022": 0.0,
			"0.023": 0.0,
			"0.024": 0.0,
			"0.025": 0.0
		}
	}
}
