{
	 "smiles": "CC1=C(SC(=N1)C(=C/C1=CC=CC=C1Cl)C#N)N=NC1=CC=C(Cl)C=C1", 
	 "Tm": 472.15, 
	 "num_atms": 38, 
	 "gaussian": { 
		 "optdone": 1, 
		 "sigma_profile": "yes", 
		 "theory": "DFT", 
		 "functional": "B3LYP", 
		 "basiset": "6-31G**", 
		 "properties": { 
			 "R2extent": 18036.9156, 
			 "electric_dipole_moment_norm": 5.31481848232, 
			 "electric_quadrupole_moment_norm": 20.1225370543, 
			 "total_energy": -2268.74727124, 
			 "HOMO_LUMO_gap": 0.11415, 
			 "cosmo_polarized_energy": -13.21, 
			 "cosmo_cavitation_energy": 50.69, 
			 "cosmo_dispersion_energy": -34.58, 
			 "cosmo_repulsion_energy": 2.59, 
			 "cosmo_total_nonelectrostatic_energy": 18.7, 
			 "SMD_solvation_energy": 7.06 
		},
		"coords": [
			{
				"x": -1.1261108894,
				"y": 0.835184297,
				"z": -0.4680311507,
				"element": "C" 
			},
			{
				"x": -0.1621413442,
				"y": -0.2677383961,
				"z": -0.158279536,
				"element": "C" 
			},
			{
				"x": 1.1386105294,
				"y": -0.4017905757,
				"z": -0.657268548,
				"element": "C" 
			},
			{
				"x": 1.8773424421,
				"y": -1.8543319849,
				"z": -0.0257314098,
				"element": "S" 
			},
			{
				"x": 0.4035002161,
				"y": -2.1660700666,
				"z": 0.8594422198,
				"element": "C" 
			},
			{
				"x": -0.5417952926,
				"y": -1.267702704,
				"z": 0.68058976,
				"element": "N" 
			},
			{
				"x": 0.2549683346,
				"y": -3.3569471248,
				"z": 1.7006174424,
				"element": "C" 
			},
			{
				"x": -0.7476162287,
				"y": -3.6143476511,
				"z": 2.5841955513,
				"element": "C" 
			},
			{
				"x": -1.8758172636,
				"y": -2.7687155335,
				"z": 3.0120433714,
				"element": "C" 
			},
			{
				"x": -3.1716463155,
				"y": -3.3035210484,
				"z": 2.8841002591,
				"element": "C" 
			},
			{
				"x": -4.2990787369,
				"y": -2.5937780754,
				"z": 3.2848280315,
				"element": "C" 
			},
			{
				"x": -4.1509762354,
				"y": -1.3321438135,
				"z": 3.862310535,
				"element": "C" 
			},
			{
				"x": -2.8773837539,
				"y": -0.7949168507,
				"z": 4.0429629275,
				"element": "C" 
			},
			{
				"x": -1.7544922195,
				"y": -1.5075425093,
				"z": 3.624500887,
				"element": "C" 
			},
			{
				"x": -0.1798108526,
				"y": -0.8078146267,
				"z": 3.9545454102,
				"element": "Cl" 
			},
			{
				"x": 1.251926976,
				"y": -4.3809356908,
				"z": 1.5287891426,
				"element": "C" 
			},
			{
				"x": 2.0645101514,
				"y": -5.2016374223,
				"z": 1.3892853062,
				"element": "N" 
			},
			{
				"x": 1.9148346755,
				"y": 0.3439923536,
				"z": -1.5179825677,
				"element": "N" 
			},
			{
				"x": 1.3756818475,
				"y": 1.4085035039,
				"z": -1.9583841462,
				"element": "N" 
			},
			{
				"x": 2.1919204832,
				"y": 2.1492498191,
				"z": -2.8397356356,
				"element": "C" 
			},
			{
				"x": 3.4927528301,
				"y": 1.7835904025,
				"z": -3.2334127952,
				"element": "C" 
			},
			{
				"x": 4.2081555208,
				"y": 2.5896220181,
				"z": -4.1079789705,
				"element": "C" 
			},
			{
				"x": 3.6246937956,
				"y": 3.7664096183,
				"z": -4.5933015438,
				"element": "C" 
			},
			{
				"x": 4.5333242964,
				"y": 4.7808519884,
				"z": -5.6982075353,
				"element": "Cl" 
			},
			{
				"x": 2.3365710789,
				"y": 4.1462755696,
				"z": -4.2153593346,
				"element": "C" 
			},
			{
				"x": 1.6260606639,
				"y": 3.3322475306,
				"z": -3.3380203035,
				"element": "C" 
			},
			{
				"x": -1.3074097291,
				"y": 0.9089426175,
				"z": -1.5446041739,
				"element": "H" 
			},
			{
				"x": -0.7230135035,
				"y": 1.8052515182,
				"z": -0.1612851485,
				"element": "H" 
			},
			{
				"x": -2.0655424175,
				"y": 0.645026739,
				"z": 0.0542074367,
				"element": "H" 
			},
			{
				"x": -0.7438849127,
				"y": -4.614055824,
				"z": 3.014778263,
				"element": "H" 
			},
			{
				"x": -3.282655484,
				"y": -4.2883683232,
				"z": 2.4392536006,
				"element": "H" 
			},
			{
				"x": -5.2857404414,
				"y": -3.0266343046,
				"z": 3.1536985651,
				"element": "H" 
			},
			{
				"x": -5.0207498822,
				"y": -0.7696412554,
				"z": 4.1876581084,
				"element": "H" 
			},
			{
				"x": -2.7446210485,
				"y": 0.1718742963,
				"z": 4.5155480097,
				"element": "H" 
			},
			{
				"x": 3.9220243204,
				"y": 0.8679115898,
				"z": -2.8438689688,
				"element": "H" 
			},
			{
				"x": 5.2111455833,
				"y": 2.317681233,
				"z": -4.418132973,
				"element": "H" 
			},
			{
				"x": 1.9027891276,
				"y": 5.0613001779,
				"z": -4.6024000785,
				"element": "H" 
			},
			{
				"x": 0.6220736785,
				"y": 3.5969185082,
				"z": -3.0226700078,
				"element": "H" 
			}
		],
		 "valence_orbital": [ 
			{
				"type": "occ",
				"energy": -0.27379,
				"method": "rhf"
			},
			{
				"type": "occ",
				"energy": -0.26278,
				"method": "rhf"
			},
			{
				"type": "occ",
				"energy": -0.25377,
				"method": "rhf"
			},
			{
				"type": "occ",
				"energy": -0.24096,
				"method": "rhf"
			},
			{
				"type": "occ",
				"energy": -0.22364,
				"method": "rhf"
			},
			{
				"type": "unocc",
				"energy": -0.10949,
				"method": "rhf"
			},
			{
				"type": "unocc",
				"energy": -0.07432,
				"method": "rhf"
			},
			{
				"type": "unocc",
				"energy": -0.02489,
				"method": "rhf"
			},
			{
				"type": "unocc",
				"energy": -0.02295,
				"method": "rhf"
			},
			{
				"type": "unocc",
				"energy": -0.01971,
				"method": "rhf"
			}
		],
		"cosmo_sigma_profile": { 
			"-0.025": 0.0,
			"-0.024": 0.0,
			"-0.023": 0.0,
			"-0.022": 0.0,
			"-0.021": 0.0,
			"-0.02": 0.0,
			"-0.019": 0.0,
			"-0.018": 0.0,
			"-0.017": 0.0,
			"-0.016": 0.0,
			"-0.015": 0.0,
			"-0.014": 0.0,
			"-0.013": 0.0,
			"-0.012": 0.0,
			"-0.011": 0.0,
			"-0.01": 0.659970039651,
			"-0.009": 2.62301190789,
			"-0.008": 5.48418538405,
			"-0.007": 15.0032516535,
			"-0.006": 17.8094379598,
			"-0.005": 21.1492276575,
			"-0.004": 19.9955744957,
			"-0.003": 22.8702522726,
			"-0.002": 28.8526515034,
			"-0.001": 38.3835644931,
			"0.0": 47.4222606881,
			"0.001": 49.3451206567,
			"0.002": 45.8150882375,
			"0.003": 33.0691412585,
			"0.004": 29.3386583624,
			"0.005": 11.7306118787,
			"0.006": 5.57444903414,
			"0.007": 4.22378128533,
			"0.008": 4.0622048934,
			"0.009": 3.94096137531,
			"0.01": 3.85259995796,
			"0.011": 2.6279331809,
			"0.012": 1.90023731147,
			"0.013": 0.243276213267,
			"0.014": 0.0,
			"0.015": 0.0,
			"0.016": 0.0,
			"0.017": 0.0,
			"0.018": 0.0,
			"0.019": 0.0,
			"0.02": 0.0,
			"0.021": 0.0,
			"0.022": 0.0,
			"0.023": 0.0,
			"0.024": 0.0,
			"0.025": 0.0
		}
	}
}
