{
	 "smiles": "CC(C)C1=NOC2=C1C(=CC(=N2)C1CC1)C(O)=O", 
	 "Tm": 452.15, 
	 "num_atms": 32, 
	 "gaussian": { 
		 "optdone": 1, 
		 "sigma_profile": "yes", 
		 "theory": "DFT", 
		 "functional": "B3LYP", 
		 "basiset": "6-31G**", 
		 "properties": { 
			 "R2extent": 4975.526, 
			 "electric_dipole_moment_norm": 4.32173201737, 
			 "electric_quadrupole_moment_norm": 19.3721738938, 
			 "total_energy": -838.941994211, 
			 "HOMO_LUMO_gap": 0.17246, 
			 "cosmo_polarized_energy": -17.16, 
			 "cosmo_cavitation_energy": 34.99, 
			 "cosmo_dispersion_energy": -25.13, 
			 "cosmo_repulsion_energy": 1.94, 
			 "cosmo_total_nonelectrostatic_energy": 11.8, 
			 "SMD_solvation_energy": 5.41 
		},
		"coords": [
			{
				"x": 2.4665235654,
				"y": -1.0834367192,
				"z": -2.5459616075,
				"element": "C" 
			},
			{
				"x": 1.0193354549,
				"y": -1.5956931722,
				"z": -2.4378328567,
				"element": "C" 
			},
			{
				"x": 0.9453611894,
				"y": -3.0833648987,
				"z": -2.0421845258,
				"element": "C" 
			},
			{
				"x": 0.144997895,
				"y": -0.7335466698,
				"z": -1.5522446998,
				"element": "C" 
			},
			{
				"x": -0.9601264091,
				"y": -0.2898699196,
				"z": -2.1026297279,
				"element": "N" 
			},
			{
				"x": -1.6632874211,
				"y": 0.4753794649,
				"z": -1.1532538664,
				"element": "O" 
			},
			{
				"x": -0.9446514465,
				"y": 0.4851582287,
				"z": -0.0162788752,
				"element": "C" 
			},
			{
				"x": 0.2347471869,
				"y": -0.2712421724,
				"z": -0.178820677,
				"element": "C" 
			},
			{
				"x": 1.0935774093,
				"y": -0.2919006941,
				"z": 0.9408054206,
				"element": "C" 
			},
			{
				"x": 0.679226268,
				"y": 0.4078822172,
				"z": 2.0765917183,
				"element": "C" 
			},
			{
				"x": -0.5523999779,
				"y": 1.1026808842,
				"z": 2.1094553795,
				"element": "C" 
			},
			{
				"x": -1.3667632439,
				"y": 1.1485875123,
				"z": 1.0467964679,
				"element": "N" 
			},
			{
				"x": -0.9809267146,
				"y": 1.813689507,
				"z": 3.3369411104,
				"element": "C" 
			},
			{
				"x": -2.4597327085,
				"y": 1.8684844285,
				"z": 3.6939632434,
				"element": "C" 
			},
			{
				"x": -1.7752132561,
				"y": 3.1068663779,
				"z": 3.2167810768,
				"element": "C" 
			},
			{
				"x": 2.3867087558,
				"y": -1.0561487788,
				"z": 1.014975349,
				"element": "C" 
			},
			{
				"x": 3.4132638018,
				"y": -0.3940688696,
				"z": 1.6041885783,
				"element": "O" 
			},
			{
				"x": 2.5348218201,
				"y": -2.1901818781,
				"z": 0.6303556388,
				"element": "O" 
			},
			{
				"x": 2.4956297749,
				"y": -0.0209081992,
				"z": -2.8089046394,
				"element": "H" 
			},
			{
				"x": 2.9891503716,
				"y": -1.6357945767,
				"z": -3.3334489941,
				"element": "H" 
			},
			{
				"x": 3.0246315606,
				"y": -1.2346738356,
				"z": -1.6198052475,
				"element": "H" 
			},
			{
				"x": 0.5599144821,
				"y": -1.4949793711,
				"z": -3.4281841358,
				"element": "H" 
			},
			{
				"x": 1.3512145762,
				"y": -3.2487156871,
				"z": -1.0429691528,
				"element": "H" 
			},
			{
				"x": -0.0895804867,
				"y": -3.4381600437,
				"z": -2.0683806566,
				"element": "H" 
			},
			{
				"x": 1.5253413693,
				"y": -3.6815614964,
				"z": -2.7529889224,
				"element": "H" 
			},
			{
				"x": 1.2877637461,
				"y": 0.3875485192,
				"z": 2.9753124643,
				"element": "H" 
			},
			{
				"x": -0.2825880691,
				"y": 1.7449003858,
				"z": 4.1658139253,
				"element": "H" 
			},
			{
				"x": -3.1337048819,
				"y": 1.3717625873,
				"z": 3.0038376946,
				"element": "H" 
			},
			{
				"x": -2.71760593,
				"y": 1.7799391454,
				"z": 4.7446779534,
				"element": "H" 
			},
			{
				"x": -1.5504544009,
				"y": 3.8933858537,
				"z": 3.930494654,
				"element": "H" 
			},
			{
				"x": -1.9910345418,
				"y": 3.4397297766,
				"z": 2.206850686,
				"element": "H" 
			},
			{
				"x": 3.1642602605,
				"y": 0.5290520937,
				"z": 1.7586472242,
				"element": "H" 
			}
		],
		 "valence_orbital": [ 
			{
				"type": "occ",
				"energy": -0.31533,
				"method": "rhf"
			},
			{
				"type": "occ",
				"energy": -0.3003,
				"method": "rhf"
			},
			{
				"type": "occ",
				"energy": -0.28462,
				"method": "rhf"
			},
			{
				"type": "occ",
				"energy": -0.27516,
				"method": "rhf"
			},
			{
				"type": "occ",
				"energy": -0.25652,
				"method": "rhf"
			},
			{
				"type": "unocc",
				"energy": -0.08406,
				"method": "rhf"
			},
			{
				"type": "unocc",
				"energy": -0.02911,
				"method": "rhf"
			},
			{
				"type": "unocc",
				"energy": 0.00786,
				"method": "rhf"
			},
			{
				"type": "unocc",
				"energy": 0.02254,
				"method": "rhf"
			},
			{
				"type": "unocc",
				"energy": 0.05772,
				"method": "rhf"
			}
		],
		"cosmo_sigma_profile": { 
			"-0.025": 0.0,
			"-0.024": 0.0,
			"-0.023": 0.0,
			"-0.022": 0.0,
			"-0.021": 0.0,
			"-0.02": 0.0126769840925,
			"-0.019": 0.428054672635,
			"-0.018": 1.16333922565,
			"-0.017": 0.41777663495,
			"-0.016": 1.19007882811,
			"-0.015": 1.22013465459,
			"-0.014": 0.972320895944,
			"-0.013": 1.16348227814,
			"-0.012": 1.22905906715,
			"-0.011": 1.12601715094,
			"-0.01": 1.36483461738,
			"-0.009": 3.03778426006,
			"-0.008": 4.22399651196,
			"-0.007": 3.34179056197,
			"-0.006": 5.15371171211,
			"-0.005": 10.2827403725,
			"-0.004": 15.5255656193,
			"-0.003": 28.5310957022,
			"-0.002": 30.7029483629,
			"-0.001": 27.4954837844,
			"0.0": 27.6734468003,
			"0.001": 25.6695161277,
			"0.002": 13.44791476,
			"0.003": 10.817864052,
			"0.004": 9.31799791076,
			"0.005": 6.42986905431,
			"0.006": 6.8546029527,
			"0.007": 8.92854396242,
			"0.008": 9.45171089986,
			"0.009": 8.62665310013,
			"0.01": 4.36712771745,
			"0.011": 3.92162692447,
			"0.012": 2.56636317978,
			"0.013": 0.866693230442,
			"0.014": 0.259692550599,
			"0.015": 0.0,
			"0.016": 0.0,
			"0.017": 0.0,
			"0.018": 0.0,
			"0.019": 0.0,
			"0.02": 0.0,
			"0.021": 0.0,
			"0.022": 0.0,
			"0.023": 0.0,
			"0.024": 0.0,
			"0.025": 0.0
		}
	}
}
