{
	 "smiles": "CCOC(=O)CNC1=NC(NC(C)C)=NC(Cl)=N1", 
	 "Tm": 383.15, 
	 "num_atms": 34, 
	 "gaussian": { 
		 "optdone": 1, 
		 "sigma_profile": "yes", 
		 "theory": "DFT", 
		 "functional": "B3LYP", 
		 "basiset": "6-31G**", 
		 "properties": { 
			 "R2extent": 7036.3542, 
			 "electric_dipole_moment_norm": 2.55106712181, 
			 "electric_quadrupole_moment_norm": 22.6180901161, 
			 "total_energy": -1275.16312156, 
			 "HOMO_LUMO_gap": 0.21898, 
			 "cosmo_polarized_energy": -15.79, 
			 "cosmo_cavitation_energy": 40.02, 
			 "cosmo_dispersion_energy": -27.81, 
			 "cosmo_repulsion_energy": 2.28, 
			 "cosmo_total_nonelectrostatic_energy": 14.5, 
			 "SMD_solvation_energy": 3.9 
		},
		"coords": [
			{
				"x": 5.5605261279,
				"y": 1.6083198789,
				"z": 1.3695702922,
				"element": "C" 
			},
			{
				"x": 4.2978773504,
				"y": 1.397446343,
				"z": 0.5487118912,
				"element": "C" 
			},
			{
				"x": 3.1224041926,
				"y": 1.3451644946,
				"z": 1.3979324271,
				"element": "O" 
			},
			{
				"x": 2.5535108185,
				"y": 2.5228835697,
				"z": 1.7075506794,
				"element": "C" 
			},
			{
				"x": 2.9563696741,
				"y": 3.6082128719,
				"z": 1.3496101662,
				"element": "O" 
			},
			{
				"x": 1.3264233731,
				"y": 2.3614219482,
				"z": 2.60985155,
				"element": "C" 
			},
			{
				"x": 0.8305633502,
				"y": 1.0205194631,
				"z": 2.7974074686,
				"element": "N" 
			},
			{
				"x": 0.0430282533,
				"y": 0.3900952347,
				"z": 1.8863481069,
				"element": "C" 
			},
			{
				"x": -0.4700535232,
				"y": 1.0995987219,
				"z": 0.8795646024,
				"element": "N" 
			},
			{
				"x": -1.2710666863,
				"y": 0.3968975882,
				"z": 0.0505126893,
				"element": "C" 
			},
			{
				"x": -1.8154015767,
				"y": 1.0845526181,
				"z": -0.9751760544,
				"element": "N" 
			},
			{
				"x": -2.7143131251,
				"y": 0.5827440367,
				"z": -2.0297104229,
				"element": "C" 
			},
			{
				"x": -2.0358385491,
				"y": -0.4706490719,
				"z": -2.9171515829,
				"element": "C" 
			},
			{
				"x": -4.0566866448,
				"y": 0.0970551652,
				"z": -1.464417115,
				"element": "C" 
			},
			{
				"x": -1.5522881733,
				"y": -0.9232747463,
				"z": 0.1767296615,
				"element": "N" 
			},
			{
				"x": -0.9601009404,
				"y": -1.482790732,
				"z": 1.2185396761,
				"element": "C" 
			},
			{
				"x": -1.2788005666,
				"y": -3.2005043047,
				"z": 1.433381259,
				"element": "Cl" 
			},
			{
				"x": -0.1653620157,
				"y": -0.9341733067,
				"z": 2.1142152548,
				"element": "N" 
			},
			{
				"x": 5.6656009331,
				"y": 0.8306166144,
				"z": 2.131794399,
				"element": "H" 
			},
			{
				"x": 5.5431724135,
				"y": 2.5858123589,
				"z": 1.8577682322,
				"element": "H" 
			},
			{
				"x": 6.4378906142,
				"y": 1.5676807176,
				"z": 0.7156523063,
				"element": "H" 
			},
			{
				"x": 4.3049579173,
				"y": 0.431560951,
				"z": 0.0388787146,
				"element": "H" 
			},
			{
				"x": 4.1637976197,
				"y": 2.1968811834,
				"z": -0.1835877909,
				"element": "H" 
			},
			{
				"x": 0.5388636753,
				"y": 2.9814167258,
				"z": 2.1787208293,
				"element": "H" 
			},
			{
				"x": 1.5839908044,
				"y": 2.7915847531,
				"z": 3.5833807369,
				"element": "H" 
			},
			{
				"x": 1.3171122312,
				"y": 0.397166226,
				"z": 3.4250947905,
				"element": "H" 
			},
			{
				"x": -1.5498430471,
				"y": 2.0580320144,
				"z": -0.9931781708,
				"element": "H" 
			},
			{
				"x": -2.9095511219,
				"y": 1.4675458245,
				"z": -2.6469424377,
				"element": "H" 
			},
			{
				"x": -2.6956671122,
				"y": -0.7348795773,
				"z": -3.7499714051,
				"element": "H" 
			},
			{
				"x": -1.8193267262,
				"y": -1.3743323903,
				"z": -2.3441032915,
				"element": "H" 
			},
			{
				"x": -1.0993563611,
				"y": -0.0848396526,
				"z": -3.3317094218,
				"element": "H" 
			},
			{
				"x": -4.7332657635,
				"y": -0.1613763927,
				"z": -2.2855385273,
				"element": "H" 
			},
			{
				"x": -4.5310335531,
				"y": 0.8789310601,
				"z": -0.8633478936,
				"element": "H" 
			},
			{
				"x": -3.9138338627,
				"y": -0.7867201886,
				"z": -0.8395816195,
				"element": "H" 
			}
		],
		 "valence_orbital": [ 
			{
				"type": "occ",
				"energy": -0.28545,
				"method": "rhf"
			},
			{
				"type": "occ",
				"energy": -0.27091,
				"method": "rhf"
			},
			{
				"type": "occ",
				"energy": -0.26847,
				"method": "rhf"
			},
			{
				"type": "occ",
				"energy": -0.24566,
				"method": "rhf"
			},
			{
				"type": "occ",
				"energy": -0.24038,
				"method": "rhf"
			},
			{
				"type": "unocc",
				"energy": -0.0214,
				"method": "rhf"
			},
			{
				"type": "unocc",
				"energy": -0.00386,
				"method": "rhf"
			},
			{
				"type": "unocc",
				"energy": 0.00788,
				"method": "rhf"
			},
			{
				"type": "unocc",
				"energy": 0.04319,
				"method": "rhf"
			},
			{
				"type": "unocc",
				"energy": 0.07226,
				"method": "rhf"
			}
		],
		"cosmo_sigma_profile": { 
			"-0.025": 0.0,
			"-0.024": 0.0,
			"-0.023": 0.0,
			"-0.022": 0.0,
			"-0.021": 0.0,
			"-0.02": 0.0,
			"-0.019": 0.0,
			"-0.018": 0.0,
			"-0.017": 0.0,
			"-0.016": 0.0,
			"-0.015": 0.26951041013,
			"-0.014": 1.86738294657,
			"-0.013": 2.29881171446,
			"-0.012": 2.00728551246,
			"-0.011": 1.86990314016,
			"-0.01": 1.41343254828,
			"-0.009": 3.4393294783,
			"-0.008": 5.51709264147,
			"-0.007": 4.15562837918,
			"-0.006": 6.48195654415,
			"-0.005": 11.4051499969,
			"-0.004": 21.638708304,
			"-0.003": 30.2650437152,
			"-0.002": 28.8136580496,
			"-0.001": 27.7153208975,
			"0.0": 30.5118721861,
			"0.001": 34.0741679551,
			"0.002": 17.4390390212,
			"0.003": 17.1770825532,
			"0.004": 18.5177172619,
			"0.005": 13.0522429697,
			"0.006": 9.32760868422,
			"0.007": 6.70136842549,
			"0.008": 4.60441561936,
			"0.009": 3.39620979562,
			"0.01": 3.13180155255,
			"0.011": 4.3013632809,
			"0.012": 4.93349040379,
			"0.013": 1.3165326164,
			"0.014": 0.0941213441921,
			"0.015": 0.0,
			"0.016": 0.0,
			"0.017": 0.0,
			"0.018": 0.0,
			"0.019": 0.0,
			"0.02": 0.0,
			"0.021": 0.0,
			"0.022": 0.0,
			"0.023": 0.0,
			"0.024": 0.0,
			"0.025": 0.0
		}
	}
}
