{
	 "smiles": "CC(C)NC(=O)C(C)Cl", 
	 "Tm": 363.15, 
	 "num_atms": 21, 
	 "gaussian": { 
		 "optdone": 1, 
		 "sigma_profile": "yes", 
		 "theory": "DFT", 
		 "functional": "B3LYP", 
		 "basiset": "6-31G**", 
		 "properties": { 
			 "R2extent": 2122.0465, 
			 "electric_dipole_moment_norm": 4.46624277553, 
			 "electric_quadrupole_moment_norm": 12.2057548533, 
			 "total_energy": -826.060953699, 
			 "HOMO_LUMO_gap": 0.23581, 
			 "cosmo_polarized_energy": -12.26, 
			 "cosmo_cavitation_energy": 24.63, 
			 "cosmo_dispersion_energy": -17.56, 
			 "cosmo_repulsion_energy": 1.46, 
			 "cosmo_total_nonelectrostatic_energy": 8.52, 
			 "SMD_solvation_energy": 4.46 
		},
		"coords": [
			{
				"x": -1.1106503943,
				"y": 1.4317065689,
				"z": 0.4417773731,
				"element": "C" 
			},
			{
				"x": -1.3001708443,
				"y": 0.4301265467,
				"z": -0.7067071357,
				"element": "C" 
			},
			{
				"x": -1.3458426514,
				"y": -1.0307557463,
				"z": -0.2284519412,
				"element": "C" 
			},
			{
				"x": -0.3716720846,
				"y": 0.6388014479,
				"z": -1.8356711671,
				"element": "N" 
			},
			{
				"x": 0.9872096376,
				"y": 0.5489567619,
				"z": -1.9702761843,
				"element": "C" 
			},
			{
				"x": 1.5199164258,
				"y": 0.6758599583,
				"z": -3.0655273312,
				"element": "O" 
			},
			{
				"x": 1.8480945483,
				"y": 0.2850502479,
				"z": -0.7235239527,
				"element": "C" 
			},
			{
				"x": 3.0151248697,
				"y": -0.6327014168,
				"z": -1.0473706022,
				"element": "C" 
			},
			{
				"x": 2.4750372995,
				"y": 1.9053755686,
				"z": -0.1293726573,
				"element": "Cl" 
			},
			{
				"x": -1.9360837047,
				"y": 1.3320663467,
				"z": 1.1541749109,
				"element": "H" 
			},
			{
				"x": -1.1039462861,
				"y": 2.4564157663,
				"z": 0.0613846653,
				"element": "H" 
			},
			{
				"x": -0.1782648182,
				"y": 1.2746690193,
				"z": 0.9894788049,
				"element": "H" 
			},
			{
				"x": -2.2793756616,
				"y": 0.6449148484,
				"z": -1.1492773694,
				"element": "H" 
			},
			{
				"x": -2.1615558642,
				"y": -1.1644054497,
				"z": 0.4894451556,
				"element": "H" 
			},
			{
				"x": -0.4196770829,
				"y": -1.3338251198,
				"z": 0.2698138573,
				"element": "H" 
			},
			{
				"x": -1.5146422538,
				"y": -1.7085577343,
				"z": -1.0701564371,
				"element": "H" 
			},
			{
				"x": -0.8011311953,
				"y": 0.8133364406,
				"z": -2.7353756968,
				"element": "H" 
			},
			{
				"x": 1.2619818295,
				"y": -0.0987347836,
				"z": 0.1090038905,
				"element": "H" 
			},
			{
				"x": 3.6710586186,
				"y": -0.7444936892,
				"z": -0.1814183647,
				"element": "H" 
			},
			{
				"x": 3.5770260922,
				"y": -0.2328576026,
				"z": -1.8922237192,
				"element": "H" 
			},
			{
				"x": 2.6315635201,
				"y": -1.6205479791,
				"z": -1.3277260988,
				"element": "H" 
			}
		],
		 "valence_orbital": [ 
			{
				"type": "occ",
				"energy": -0.34996,
				"method": "rhf"
			},
			{
				"type": "occ",
				"energy": -0.30225,
				"method": "rhf"
			},
			{
				"type": "occ",
				"energy": -0.29635,
				"method": "rhf"
			},
			{
				"type": "occ",
				"energy": -0.25529,
				"method": "rhf"
			},
			{
				"type": "occ",
				"energy": -0.25237,
				"method": "rhf"
			},
			{
				"type": "unocc",
				"energy": -0.01656,
				"method": "rhf"
			},
			{
				"type": "unocc",
				"energy": 0.05405,
				"method": "rhf"
			},
			{
				"type": "unocc",
				"energy": 0.06898,
				"method": "rhf"
			},
			{
				"type": "unocc",
				"energy": 0.08271,
				"method": "rhf"
			},
			{
				"type": "unocc",
				"energy": 0.12103,
				"method": "rhf"
			}
		],
		"cosmo_sigma_profile": { 
			"-0.025": 0.0,
			"-0.024": 0.0,
			"-0.023": 0.0,
			"-0.022": 0.0,
			"-0.021": 0.0,
			"-0.02": 0.0,
			"-0.019": 0.0,
			"-0.018": 0.0,
			"-0.017": 0.0,
			"-0.016": 0.0,
			"-0.015": 0.0,
			"-0.014": 0.309433470162,
			"-0.013": 1.32445290614,
			"-0.012": 1.00700189823,
			"-0.011": 1.35888043962,
			"-0.01": 0.844422490145,
			"-0.009": 0.964838479479,
			"-0.008": 3.17391804718,
			"-0.007": 4.33101739745,
			"-0.006": 6.50532754489,
			"-0.005": 8.61429375235,
			"-0.004": 17.3944258344,
			"-0.003": 19.8807348493,
			"-0.002": 17.6660805176,
			"-0.001": 18.8870675092,
			"0.0": 21.3069321747,
			"0.001": 11.7379440369,
			"0.002": 7.5724096533,
			"0.003": 7.95147870315,
			"0.004": 6.20860186093,
			"0.005": 9.32996464241,
			"0.006": 8.03143359164,
			"0.007": 3.21493385973,
			"0.008": 2.09804227264,
			"0.009": 0.857409832419,
			"0.01": 1.44265537379,
			"0.011": 1.91079675533,
			"0.012": 2.0631324329,
			"0.013": 4.49917833352,
			"0.014": 3.60265351501,
			"0.015": 0.0415980244542,
			"0.016": 0.0,
			"0.017": 0.0,
			"0.018": 0.0,
			"0.019": 0.0,
			"0.02": 0.0,
			"0.021": 0.0,
			"0.022": 0.0,
			"0.023": 0.0,
			"0.024": 0.0,
			"0.025": 0.0
		}
	}
}
