{
	 "smiles": "C1=CC=C(C=C1)[Si](C1=CC=CC=C1)(C1=CC=CC=C1)C1=CC=CC=C1", 
	 "Tm": 510.15, 
	 "num_atms": 45, 
	 "gaussian": { 
		 "optdone": 1, 
		 "sigma_profile": "yes", 
		 "theory": "DFT", 
		 "functional": "B3LYP", 
		 "basiset": "6-31G**", 
		 "properties": { 
			 "R2extent": 8796.8098, 
			 "electric_dipole_moment_norm": 0.00147648230602, 
			 "electric_quadrupole_moment_norm": 1.78335476841, 
			 "total_energy": -1216.13537013, 
			 "HOMO_LUMO_gap": 0.22217, 
			 "cosmo_polarized_energy": -8.44, 
			 "cosmo_cavitation_energy": 49.26, 
			 "cosmo_dispersion_energy": -31.3, 
			 "cosmo_repulsion_energy": 2.47, 
			 "cosmo_total_nonelectrostatic_energy": 20.44, 
			 "SMD_solvation_energy": 8.47 
		},
		"coords": [
			{
				"x": 0.8566079942,
				"y": -2.1233129547,
				"z": -4.5973849193,
				"element": "C" 
			},
			{
				"x": -0.2894208615,
				"y": -1.3282563298,
				"z": -4.5443218941,
				"element": "C" 
			},
			{
				"x": -0.7023784267,
				"y": -0.7759520391,
				"z": -3.3302959627,
				"element": "C" 
			},
			{
				"x": 0.0164464574,
				"y": -1.0014701673,
				"z": -2.141908689,
				"element": "C" 
			},
			{
				"x": 1.1655766182,
				"y": -1.8130773347,
				"z": -2.2190703428,
				"element": "C" 
			},
			{
				"x": 1.5842290799,
				"y": -2.3660573652,
				"z": -3.4307351405,
				"element": "C" 
			},
			{
				"x": -0.5040707233,
				"y": -0.2062683742,
				"z": -0.5038621375,
				"element": "Si" 
			},
			{
				"x": -0.2155333704,
				"y": -1.4522295236,
				"z": 0.8929137431,
				"element": "C" 
			},
			{
				"x": -0.4938589239,
				"y": -2.8212688591,
				"z": 0.71036973,
				"element": "C" 
			},
			{
				"x": -0.329428246,
				"y": -3.7405427952,
				"z": 1.7482249197,
				"element": "C" 
			},
			{
				"x": 0.1245059545,
				"y": -3.3103829286,
				"z": 2.9965497821,
				"element": "C" 
			},
			{
				"x": 0.4136884729,
				"y": -1.9599298371,
				"z": 3.1990541565,
				"element": "C" 
			},
			{
				"x": 0.2453962693,
				"y": -1.0445531132,
				"z": 2.1583162778,
				"element": "C" 
			},
			{
				"x": 0.5180090791,
				"y": 1.3575225083,
				"z": -0.1931100425,
				"element": "C" 
			},
			{
				"x": 0.0669329409,
				"y": 2.3513034384,
				"z": 0.6979682799,
				"element": "C" 
			},
			{
				"x": 0.8344157996,
				"y": 3.4853779796,
				"z": 0.9701045695,
				"element": "C" 
			},
			{
				"x": 2.073824251,
				"y": 3.6549433991,
				"z": 0.3499966673,
				"element": "C" 
			},
			{
				"x": 2.5383376365,
				"y": 2.6872837323,
				"z": -0.5423043081,
				"element": "C" 
			},
			{
				"x": 1.7677394266,
				"y": 1.5539551336,
				"z": -0.809055347,
				"element": "C" 
			},
			{
				"x": -2.3354424562,
				"y": 0.2710231543,
				"z": -0.5726030216,
				"element": "C" 
			},
			{
				"x": -3.3326115709,
				"y": -0.5591560588,
				"z": -0.0282755122,
				"element": "C" 
			},
			{
				"x": -4.6851598814,
				"y": -0.2251166942,
				"z": -0.1203091769,
				"element": "C" 
			},
			{
				"x": -5.0728031263,
				"y": 0.9528280213,
				"z": -0.7610024087,
				"element": "C" 
			},
			{
				"x": -4.1017033818,
				"y": 1.7958170436,
				"z": -1.3048714208,
				"element": "C" 
			},
			{
				"x": -2.7505000187,
				"y": 1.4580868831,
				"z": -1.2079936915,
				"element": "C" 
			},
			{
				"x": 1.1784812847,
				"y": -2.5552348033,
				"z": -5.5410883802,
				"element": "H" 
			},
			{
				"x": -0.8642635724,
				"y": -1.1409367351,
				"z": -5.4473294915,
				"element": "H" 
			},
			{
				"x": -1.6015665301,
				"y": -0.1661646008,
				"z": -3.3070789694,
				"element": "H" 
			},
			{
				"x": 1.736767715,
				"y": -2.0269840922,
				"z": -1.318911728,
				"element": "H" 
			},
			{
				"x": 2.4739932327,
				"y": -2.9891850912,
				"z": -3.463113547,
				"element": "H" 
			},
			{
				"x": -0.8330161462,
				"y": -3.1785263668,
				"z": -0.2589688238,
				"element": "H" 
			},
			{
				"x": -0.5506269806,
				"y": -4.7913532146,
				"z": 1.5812313646,
				"element": "H" 
			},
			{
				"x": 0.2564485559,
				"y": -4.0243769078,
				"z": 3.8049682694,
				"element": "H" 
			},
			{
				"x": 0.7739229756,
				"y": -1.6194489744,
				"z": 4.1661421327,
				"element": "H" 
			},
			{
				"x": 0.4832342543,
				"y": 0.0014267279,
				"z": 2.3324496008,
				"element": "H" 
			},
			{
				"x": -0.9026208375,
				"y": 2.2454386352,
				"z": 1.1786452626,
				"element": "H" 
			},
			{
				"x": 0.4633573109,
				"y": 4.2375536264,
				"z": 1.6611658221,
				"element": "H" 
			},
			{
				"x": 2.6715687537,
				"y": 4.538317459,
				"z": 0.5575705498,
				"element": "H" 
			},
			{
				"x": 3.498984486,
				"y": 2.8163297675,
				"z": -1.0336900453,
				"element": "H" 
			},
			{
				"x": 2.1422347285,
				"y": 0.8152347621,
				"z": -1.5125925311,
				"element": "H" 
			},
			{
				"x": -3.0493822878,
				"y": -1.4764121512,
				"z": 0.4810057914,
				"element": "H" 
			},
			{
				"x": -5.4353817508,
				"y": -0.8823389579,
				"z": 0.3111784319,
				"element": "H" 
			},
			{
				"x": -6.1248923729,
				"y": 1.2150914787,
				"z": -0.8321534564,
				"element": "H" 
			},
			{
				"x": -4.3955404379,
				"y": 2.7176909295,
				"z": -1.7996697424,
				"element": "H" 
			},
			{
				"x": -2.008601374,
				"y": 2.1356115903,
				"z": -1.6237546208,
				"element": "H" 
			}
		],
		 "valence_orbital": [ 
			{
				"type": "occ",
				"energy": -0.24549,
				"method": "rhf"
			},
			{
				"type": "occ",
				"energy": -0.24548,
				"method": "rhf"
			},
			{
				"type": "occ",
				"energy": -0.24242,
				"method": "rhf"
			},
			{
				"type": "occ",
				"energy": -0.24231,
				"method": "rhf"
			},
			{
				"type": "occ",
				"energy": -0.24229,
				"method": "rhf"
			},
			{
				"type": "unocc",
				"energy": -0.02012,
				"method": "rhf"
			},
			{
				"type": "unocc",
				"energy": -0.01267,
				"method": "rhf"
			},
			{
				"type": "unocc",
				"energy": -0.01261,
				"method": "rhf"
			},
			{
				"type": "unocc",
				"energy": -0.00396,
				"method": "rhf"
			},
			{
				"type": "unocc",
				"energy": -0.00316,
				"method": "rhf"
			}
		],
		"cosmo_sigma_profile": { 
			"-0.025": 0.0,
			"-0.024": 0.0,
			"-0.023": 0.0,
			"-0.022": 0.0,
			"-0.021": 0.0,
			"-0.02": 0.0,
			"-0.019": 0.0,
			"-0.018": 0.0,
			"-0.017": 0.0,
			"-0.016": 0.0,
			"-0.015": 0.0,
			"-0.014": 0.0,
			"-0.013": 0.0,
			"-0.012": 0.0,
			"-0.011": 0.0,
			"-0.01": 0.0,
			"-0.009": 0.0,
			"-0.008": 0.0,
			"-0.007": 0.0,
			"-0.006": 10.9547851474,
			"-0.005": 29.4978913645,
			"-0.004": 39.6878571349,
			"-0.003": 44.7060899803,
			"-0.002": 33.8519220086,
			"-0.001": 29.5563813312,
			"0.0": 26.8447191974,
			"0.001": 28.9657833871,
			"0.002": 29.1630889403,
			"0.003": 33.7405939963,
			"0.004": 31.2540995139,
			"0.005": 31.3947134034,
			"0.006": 21.6692661844,
			"0.007": 0.162534136324,
			"0.008": 0.0,
			"0.009": 0.0,
			"0.01": 0.0,
			"0.011": 0.0,
			"0.012": 0.0,
			"0.013": 0.0,
			"0.014": 0.0,
			"0.015": 0.0,
			"0.016": 0.0,
			"0.017": 0.0,
			"0.018": 0.0,
			"0.019": 0.0,
			"0.02": 0.0,
			"0.021": 0.0,
			"0.022": 0.0,
			"0.023": 0.0,
			"0.024": 0.0,
			"0.025": 0.0
		}
	}
}
