{
	 "smiles": "CCOC(=O)CC1=CC=C(C=C1)C#N", 
	 "Tm": 365.15, 
	 "num_atms": 25, 
	 "gaussian": { 
		 "optdone": 1, 
		 "sigma_profile": "yes", 
		 "theory": "DFT", 
		 "functional": "B3LYP", 
		 "basiset": "6-31G**", 
		 "properties": { 
			 "R2extent": 4349.0122, 
			 "electric_dipole_moment_norm": 5.96902865884, 
			 "electric_quadrupole_moment_norm": 19.6903795454, 
			 "total_energy": -631.002869057, 
			 "HOMO_LUMO_gap": 0.20682, 
			 "cosmo_polarized_energy": -12.79, 
			 "cosmo_cavitation_energy": 30.88, 
			 "cosmo_dispersion_energy": -21.56, 
			 "cosmo_repulsion_energy": 1.74, 
			 "cosmo_total_nonelectrostatic_energy": 11.06, 
			 "SMD_solvation_energy": 7.68 
		},
		"coords": [
			{
				"x": -0.8278209162,
				"y": 1.6817208122,
				"z": 4.5425273756,
				"element": "C" 
			},
			{
				"x": -0.7517050973,
				"y": 0.308596368,
				"z": 3.9039059962,
				"element": "C" 
			},
			{
				"x": 0.2092994902,
				"y": 0.3850694336,
				"z": 2.8201037043,
				"element": "O" 
			},
			{
				"x": 0.4106807629,
				"y": -0.7536424417,
				"z": 2.1327806986,
				"element": "C" 
			},
			{
				"x": -0.1525252717,
				"y": -1.8009268829,
				"z": 2.3729802684,
				"element": "O" 
			},
			{
				"x": 1.4381227476,
				"y": -0.5605672285,
				"z": 1.0235624525,
				"element": "C" 
			},
			{
				"x": 0.8609076074,
				"y": -0.8009837638,
				"z": -0.3599373466,
				"element": "C" 
			},
			{
				"x": 0.266209408,
				"y": -2.028721899,
				"z": -0.6889476648,
				"element": "C" 
			},
			{
				"x": -0.2468431868,
				"y": -2.249147548,
				"z": -1.9620734321,
				"element": "C" 
			},
			{
				"x": -0.1705304671,
				"y": -1.2386755529,
				"z": -2.936586031,
				"element": "C" 
			},
			{
				"x": 0.4211056556,
				"y": -0.0072898139,
				"z": -2.6144857462,
				"element": "C" 
			},
			{
				"x": 0.9280170365,
				"y": 0.2021039645,
				"z": -1.3348877705,
				"element": "C" 
			},
			{
				"x": -0.6944307875,
				"y": -1.4636920293,
				"z": -4.252348263,
				"element": "C" 
			},
			{
				"x": -1.1191393804,
				"y": -1.6453974901,
				"z": -5.3201531404,
				"element": "N" 
			},
			{
				"x": -1.1541138478,
				"y": 2.4332580638,
				"z": 3.8180291482,
				"element": "H" 
			},
			{
				"x": -1.5458023955,
				"y": 1.6657516265,
				"z": 5.3682491689,
				"element": "H" 
			},
			{
				"x": 0.145514341,
				"y": 1.9842135732,
				"z": 4.939257421,
				"element": "H" 
			},
			{
				"x": -1.7144295882,
				"y": -0.0119650181,
				"z": 3.4943408177,
				"element": "H" 
			},
			{
				"x": -0.421621093,
				"y": -0.4593253742,
				"z": 4.6102170959,
				"element": "H" 
			},
			{
				"x": 1.8660799905,
				"y": 0.4409499336,
				"z": 1.09175328,
				"element": "H" 
			},
			{
				"x": 2.2393675626,
				"y": -1.2843193267,
				"z": 1.2173425704,
				"element": "H" 
			},
			{
				"x": 0.1922041493,
				"y": -2.8018917522,
				"z": 0.0679865414,
				"element": "H" 
			},
			{
				"x": -0.7068324825,
				"y": -3.1996077334,
				"z": -2.2111991904,
				"element": "H" 
			},
			{
				"x": 0.4784425461,
				"y": 0.7745338519,
				"z": -3.3643844702,
				"element": "H" 
			},
			{
				"x": 1.3837432163,
				"y": 1.1579562273,
				"z": -1.092133484,
				"element": "H" 
			}
		],
		 "valence_orbital": [ 
			{
				"type": "occ",
				"energy": -0.32707,
				"method": "rhf"
			},
			{
				"type": "occ",
				"energy": -0.31179,
				"method": "rhf"
			},
			{
				"type": "occ",
				"energy": -0.28504,
				"method": "rhf"
			},
			{
				"type": "occ",
				"energy": -0.27329,
				"method": "rhf"
			},
			{
				"type": "occ",
				"energy": -0.25833,
				"method": "rhf"
			},
			{
				"type": "unocc",
				"energy": -0.05151,
				"method": "rhf"
			},
			{
				"type": "unocc",
				"energy": -0.02335,
				"method": "rhf"
			},
			{
				"type": "unocc",
				"energy": 0.00068,
				"method": "rhf"
			},
			{
				"type": "unocc",
				"energy": 0.03955,
				"method": "rhf"
			},
			{
				"type": "unocc",
				"energy": 0.0764,
				"method": "rhf"
			}
		],
		"cosmo_sigma_profile": { 
			"-0.025": 0.0,
			"-0.024": 0.0,
			"-0.023": 0.0,
			"-0.022": 0.0,
			"-0.021": 0.0,
			"-0.02": 0.0,
			"-0.019": 0.0,
			"-0.018": 0.0,
			"-0.017": 0.0,
			"-0.016": 0.0,
			"-0.015": 0.0,
			"-0.014": 0.0,
			"-0.013": 0.0,
			"-0.012": 0.0,
			"-0.011": 0.0,
			"-0.01": 0.0,
			"-0.009": 0.0,
			"-0.008": 3.65168373452,
			"-0.007": 10.9329382047,
			"-0.006": 12.6958067436,
			"-0.005": 17.8772535794,
			"-0.004": 23.890787621,
			"-0.003": 23.5422714023,
			"-0.002": 19.7972499321,
			"-0.001": 22.3524000287,
			"0.0": 17.762568122,
			"0.001": 14.8687135698,
			"0.002": 17.7841719153,
			"0.003": 11.1402292397,
			"0.004": 4.69769899265,
			"0.005": 5.9623973466,
			"0.006": 5.07008149014,
			"0.007": 5.39557106134,
			"0.008": 6.10232259218,
			"0.009": 4.77994013045,
			"0.01": 5.09496074743,
			"0.011": 6.07198746077,
			"0.012": 5.14294210595,
			"0.013": 1.85203143808,
			"0.014": 0.102228900318,
			"0.015": 0.0,
			"0.016": 0.0,
			"0.017": 0.0,
			"0.018": 0.0,
			"0.019": 0.0,
			"0.02": 0.0,
			"0.021": 0.0,
			"0.022": 0.0,
			"0.023": 0.0,
			"0.024": 0.0,
			"0.025": 0.0
		}
	}
}
