{
	 "smiles": "[O-][N+](=O)C1=CC2=C(NC(=O)CC2)C=C1", 
	 "Tm": 475.15, 
	 "num_atms": 22, 
	 "gaussian": { 
		 "optdone": 1, 
		 "sigma_profile": "yes", 
		 "theory": "DFT", 
		 "functional": "B3LYP", 
		 "basiset": "6-31G**", 
		 "properties": { 
			 "R2extent": 3321.7088, 
			 "electric_dipole_moment_norm": 2.57248041586, 
			 "electric_quadrupole_moment_norm": 31.9444287729, 
			 "total_energy": -682.885703464, 
			 "HOMO_LUMO_gap": 0.15849, 
			 "cosmo_polarized_energy": -16.4, 
			 "cosmo_cavitation_energy": 26.59, 
			 "cosmo_dispersion_energy": -19.84, 
			 "cosmo_repulsion_energy": 1.55, 
			 "cosmo_total_nonelectrostatic_energy": 8.3, 
			 "SMD_solvation_energy": 7.04 
		},
		"coords": [
			{
				"x": -0.2222888885,
				"y": 0.9502642248,
				"z": -4.2862940526,
				"element": "O" 
			},
			{
				"x": -0.3598842273,
				"y": 1.7630876348,
				"z": -3.3701021082,
				"element": "N" 
			},
			{
				"x": -0.6283604285,
				"y": 2.9553294994,
				"z": -3.5278034216,
				"element": "O" 
			},
			{
				"x": -0.1925126636,
				"y": 1.2787485588,
				"z": -1.9996905161,
				"element": "C" 
			},
			{
				"x": 0.1257838179,
				"y": -0.0639802195,
				"z": -1.7873884254,
				"element": "C" 
			},
			{
				"x": 0.2907513751,
				"y": -0.5413014747,
				"z": -0.4934487009,
				"element": "C" 
			},
			{
				"x": 0.1118947273,
				"y": 0.3499714665,
				"z": 0.5876827851,
				"element": "C" 
			},
			{
				"x": 0.2673319514,
				"y": -0.1284307678,
				"z": 1.8892403817,
				"element": "N" 
			},
			{
				"x": 0.2580134082,
				"y": -1.465264854,
				"z": 2.2715608274,
				"element": "C" 
			},
			{
				"x": 0.358655372,
				"y": -1.7804382488,
				"z": 3.4430271655,
				"element": "O" 
			},
			{
				"x": 0.06434862,
				"y": -2.4471817222,
				"z": 1.127607588,
				"element": "C" 
			},
			{
				"x": 0.703296155,
				"y": -1.9611223631,
				"z": -0.1814523961,
				"element": "C" 
			},
			{
				"x": -0.2022877405,
				"y": 1.6984542903,
				"z": 0.3587593966,
				"element": "C" 
			},
			{
				"x": -0.3521710485,
				"y": 2.1690180437,
				"z": -0.9387541419,
				"element": "C" 
			},
			{
				"x": 0.2504217248,
				"y": -0.7164691095,
				"z": -2.6436484015,
				"element": "H" 
			},
			{
				"x": 0.284602816,
				"y": 0.5294629515,
				"z": 2.6588721645,
				"element": "H" 
			},
			{
				"x": -1.0190078886,
				"y": -2.5716296513,
				"z": 0.9939732252,
				"element": "H" 
			},
			{
				"x": 0.4637567279,
				"y": -3.4107379992,
				"z": 1.4492922204,
				"element": "H" 
			},
			{
				"x": 0.4393935009,
				"y": -2.6281641411,
				"z": -1.0072438725,
				"element": "H" 
			},
			{
				"x": 1.7976672558,
				"y": -2.0023697892,
				"z": -0.0838922872,
				"element": "H" 
			},
			{
				"x": -0.3364616389,
				"y": 2.3714633923,
				"z": 1.2006985916,
				"element": "H" 
			},
			{
				"x": -0.5984429277,
				"y": 3.2031902783,
				"z": -1.1430960218,
				"element": "H" 
			}
		],
		 "valence_orbital": [ 
			{
				"type": "occ",
				"energy": -0.30565,
				"method": "rhf"
			},
			{
				"type": "occ",
				"energy": -0.28856,
				"method": "rhf"
			},
			{
				"type": "occ",
				"energy": -0.28068,
				"method": "rhf"
			},
			{
				"type": "occ",
				"energy": -0.27343,
				"method": "rhf"
			},
			{
				"type": "occ",
				"energy": -0.24664,
				"method": "rhf"
			},
			{
				"type": "unocc",
				"energy": -0.08815,
				"method": "rhf"
			},
			{
				"type": "unocc",
				"energy": -0.03539,
				"method": "rhf"
			},
			{
				"type": "unocc",
				"energy": -0.01682,
				"method": "rhf"
			},
			{
				"type": "unocc",
				"energy": 0.02311,
				"method": "rhf"
			},
			{
				"type": "unocc",
				"energy": 0.0673,
				"method": "rhf"
			}
		],
		"cosmo_sigma_profile": { 
			"-0.025": 0.0,
			"-0.024": 0.0,
			"-0.023": 0.0,
			"-0.022": 0.0,
			"-0.021": 0.0,
			"-0.02": 0.0,
			"-0.019": 0.0,
			"-0.018": 0.0,
			"-0.017": 0.0,
			"-0.016": 0.180527649314,
			"-0.015": 1.20312107754,
			"-0.014": 1.64061215033,
			"-0.013": 1.18998527212,
			"-0.012": 1.16964238215,
			"-0.011": 1.10061544954,
			"-0.01": 1.19577507584,
			"-0.009": 1.66043608357,
			"-0.008": 2.6350066429,
			"-0.007": 8.17637426916,
			"-0.006": 13.8303712678,
			"-0.005": 16.9864056268,
			"-0.004": 17.2144933505,
			"-0.003": 15.4111718382,
			"-0.002": 14.8518693636,
			"-0.001": 13.6205079884,
			"0.0": 15.7662235541,
			"0.001": 16.0657309958,
			"0.002": 9.3464579527,
			"0.003": 4.14995744604,
			"0.004": 4.09989857903,
			"0.005": 3.47681920131,
			"0.006": 4.80792303582,
			"0.007": 5.35551378421,
			"0.008": 11.7125809072,
			"0.009": 6.67401373568,
			"0.01": 5.48271563256,
			"0.011": 3.63172322573,
			"0.012": 4.5734188986,
			"0.013": 4.18803218788,
			"0.014": 0.657607021594,
			"0.015": 0.0,
			"0.016": 0.0,
			"0.017": 0.0,
			"0.018": 0.0,
			"0.019": 0.0,
			"0.02": 0.0,
			"0.021": 0.0,
			"0.022": 0.0,
			"0.023": 0.0,
			"0.024": 0.0,
			"0.025": 0.0
		}
	}
}
