{
	 "smiles": "CCN(C1=CC=CC=C1)S(=O)(=O)C1=CC(=CC=C1)C(O)=O", 
	 "Tm": 449.15, 
	 "num_atms": 36, 
	 "gaussian": { 
		 "optdone": 1, 
		 "sigma_profile": "yes", 
		 "theory": "DFT", 
		 "functional": "B3LYP", 
		 "basiset": "6-31G**", 
		 "properties": { 
			 "R2extent": 6411.9015, 
			 "electric_dipole_moment_norm": 6.8397599819, 
			 "electric_quadrupole_moment_norm": 26.9293535214, 
			 "total_energy": -1334.40546105, 
			 "HOMO_LUMO_gap": 0.17109, 
			 "cosmo_polarized_energy": -24.61, 
			 "cosmo_cavitation_energy": 41.06, 
			 "cosmo_dispersion_energy": -27.67, 
			 "cosmo_repulsion_energy": 2.11, 
			 "cosmo_total_nonelectrostatic_energy": 15.5, 
			 "SMD_solvation_energy": 7.02 
		},
		"coords": [
			{
				"x": -1.7305881169,
				"y": -3.0680745192,
				"z": 1.7901195625,
				"element": "C" 
			},
			{
				"x": -0.7503603956,
				"y": -2.3883565096,
				"z": 0.835643318,
				"element": "C" 
			},
			{
				"x": -0.4044353484,
				"y": -1.0277881662,
				"z": 1.3026339534,
				"element": "N" 
			},
			{
				"x": -1.4498844005,
				"y": -0.0449424391,
				"z": 1.4159040876,
				"element": "C" 
			},
			{
				"x": -2.4282072281,
				"y": 0.092509341,
				"z": 0.4209281093,
				"element": "C" 
			},
			{
				"x": -3.4494059744,
				"y": 1.0316592644,
				"z": 0.5693184954,
				"element": "C" 
			},
			{
				"x": -3.491327868,
				"y": 1.8518438864,
				"z": 1.69770823,
				"element": "C" 
			},
			{
				"x": -2.5121105657,
				"y": 1.7207242716,
				"z": 2.6847737618,
				"element": "C" 
			},
			{
				"x": -1.5008952424,
				"y": 0.7701545712,
				"z": 2.5540977804,
				"element": "C" 
			},
			{
				"x": 1.1592768046,
				"y": -0.4608632162,
				"z": 0.949291285,
				"element": "S" 
			},
			{
				"x": 2.0458237919,
				"y": -1.6252379479,
				"z": 1.0198762744,
				"element": "O" 
			},
			{
				"x": 1.3792685534,
				"y": 0.7302861531,
				"z": 1.7657198027,
				"element": "O" 
			},
			{
				"x": 1.1239850092,
				"y": 0.0731286782,
				"z": -0.772120079,
				"element": "C" 
			},
			{
				"x": 0.6773894233,
				"y": 1.3557506976,
				"z": -1.0835907173,
				"element": "C" 
			},
			{
				"x": 0.6085917491,
				"y": 1.7495894509,
				"z": -2.4259102249,
				"element": "C" 
			},
			{
				"x": 1.0266148916,
				"y": 0.8635953735,
				"z": -3.4295254739,
				"element": "C" 
			},
			{
				"x": 1.4920969895,
				"y": -0.4102609517,
				"z": -3.1020185069,
				"element": "C" 
			},
			{
				"x": 1.5351590874,
				"y": -0.8171933016,
				"z": -1.7690025647,
				"element": "C" 
			},
			{
				"x": 0.1251527638,
				"y": 3.143496892,
				"z": -2.7120911362,
				"element": "C" 
			},
			{
				"x": -0.3336983795,
				"y": 3.3851494412,
				"z": -3.9691660212,
				"element": "O" 
			},
			{
				"x": 0.130339577,
				"y": 4.0252974587,
				"z": -1.8882921594,
				"element": "O" 
			},
			{
				"x": -1.305336783,
				"y": -3.1288611619,
				"z": 2.7955016204,
				"element": "H" 
			},
			{
				"x": -1.938786472,
				"y": -4.0833827055,
				"z": 1.4378768477,
				"element": "H" 
			},
			{
				"x": -2.6795303956,
				"y": -2.528432975,
				"z": 1.8487896895,
				"element": "H" 
			},
			{
				"x": -1.1594991191,
				"y": -2.3676903741,
				"z": -0.1850052503,
				"element": "H" 
			},
			{
				"x": 0.1826717911,
				"y": -2.9513728628,
				"z": 0.8049356551,
				"element": "H" 
			},
			{
				"x": -2.3954614663,
				"y": -0.5331605467,
				"z": -0.4652970213,
				"element": "H" 
			},
			{
				"x": -4.2065182517,
				"y": 1.1275519896,
				"z": -0.2035229279,
				"element": "H" 
			},
			{
				"x": -4.2827161602,
				"y": 2.587115849,
				"z": 1.8078136368,
				"element": "H" 
			},
			{
				"x": -2.5395381014,
				"y": 2.3537053238,
				"z": 3.5666584165,
				"element": "H" 
			},
			{
				"x": -0.7395015168,
				"y": 0.6552692712,
				"z": 3.3158347795,
				"element": "H" 
			},
			{
				"x": 0.3998142658,
				"y": 2.0590159122,
				"z": -0.307057613,
				"element": "H" 
			},
			{
				"x": 1.0378129066,
				"y": 1.1732263367,
				"z": -4.4717105383,
				"element": "H" 
			},
			{
				"x": 1.8352047313,
				"y": -1.0801867748,
				"z": -3.8841007202,
				"element": "H" 
			},
			{
				"x": 1.9108125518,
				"y": -1.7958536405,
				"z": -1.4916090106,
				"element": "H" 
			},
			{
				"x": -0.4325131018,
				"y": 2.5572879307,
				"z": -4.458905341,
				"element": "H" 
			}
		],
		 "valence_orbital": [ 
			{
				"type": "occ",
				"energy": -0.291,
				"method": "rhf"
			},
			{
				"type": "occ",
				"energy": -0.27874,
				"method": "rhf"
			},
			{
				"type": "occ",
				"energy": -0.27737,
				"method": "rhf"
			},
			{
				"type": "occ",
				"energy": -0.25944,
				"method": "rhf"
			},
			{
				"type": "occ",
				"energy": -0.23982,
				"method": "rhf"
			},
			{
				"type": "unocc",
				"energy": -0.06873,
				"method": "rhf"
			},
			{
				"type": "unocc",
				"energy": -0.05039,
				"method": "rhf"
			},
			{
				"type": "unocc",
				"energy": -0.01792,
				"method": "rhf"
			},
			{
				"type": "unocc",
				"energy": -0.01072,
				"method": "rhf"
			},
			{
				"type": "unocc",
				"energy": 0.02626,
				"method": "rhf"
			}
		],
		"cosmo_sigma_profile": { 
			"-0.025": 0.0,
			"-0.024": 0.0,
			"-0.023": 0.0,
			"-0.022": 0.0,
			"-0.021": 0.0,
			"-0.02": 0.0175671316775,
			"-0.019": 0.668568765869,
			"-0.018": 1.02124400669,
			"-0.017": 1.08486126246,
			"-0.016": 1.26646338637,
			"-0.015": 1.02834756124,
			"-0.014": 0.832781916069,
			"-0.013": 0.916008494886,
			"-0.012": 1.19512681649,
			"-0.011": 1.60281041096,
			"-0.01": 1.1335868818,
			"-0.009": 1.80380295173,
			"-0.008": 5.49535272678,
			"-0.007": 8.775135877,
			"-0.006": 14.8956225447,
			"-0.005": 19.3807049264,
			"-0.004": 25.8538815104,
			"-0.003": 26.8138044029,
			"-0.002": 25.2961008038,
			"-0.001": 23.691694368,
			"0.0": 28.9187171241,
			"0.001": 24.9257695389,
			"0.002": 16.5235535807,
			"0.003": 14.4320339691,
			"0.004": 15.8900290549,
			"0.005": 9.95446018056,
			"0.006": 5.59253763323,
			"0.007": 5.57898914049,
			"0.008": 6.49427664655,
			"0.009": 8.67116305349,
			"0.01": 11.6204078132,
			"0.011": 11.7003164507,
			"0.012": 3.85503558932,
			"0.013": 0.734241743637,
			"0.014": 0.0,
			"0.015": 0.0,
			"0.016": 0.0,
			"0.017": 0.0,
			"0.018": 0.0,
			"0.019": 0.0,
			"0.02": 0.0,
			"0.021": 0.0,
			"0.022": 0.0,
			"0.023": 0.0,
			"0.024": 0.0,
			"0.0": 0.0
		}
	}
}
