{
	 "smiles": "OC(=O)C1=CSC(=C1)S(=O)(=O)N1CCC2=C(C1)C=CC=C2", 
	 "Tm": 506.15, 
	 "num_atms": 34, 
	 "gaussian": { 
		 "optdone": 1, 
		 "sigma_profile": "yes", 
		 "theory": "DFT", 
		 "functional": "B3LYP", 
		 "basiset": "6-31G**", 
		 "properties": { 
			 "R2extent": 5984.0204, 
			 "electric_dipole_moment_norm": 5.68302228836, 
			 "electric_quadrupole_moment_norm": 21.0398063059, 
			 "total_energy": -1693.26453616, 
			 "HOMO_LUMO_gap": 0.19091, 
			 "cosmo_polarized_energy": -21.98, 
			 "cosmo_cavitation_energy": 38.68, 
			 "cosmo_dispersion_energy": -27.42, 
			 "cosmo_repulsion_energy": 1.96, 
			 "cosmo_total_nonelectrostatic_energy": 13.22, 
			 "SMD_solvation_energy": 4.81 
		},
		"coords": [
			{
				"x": 3.640335361,
				"y": 0.2689041452,
				"z": 1.2227041876,
				"element": "O" 
			},
			{
				"x": 3.0281258764,
				"y": -0.5659341602,
				"z": 2.1013579651,
				"element": "C" 
			},
			{
				"x": 3.5490704246,
				"y": -0.8364086669,
				"z": 3.1572095503,
				"element": "O" 
			},
			{
				"x": 1.6996476393,
				"y": -1.1043349696,
				"z": 1.6848790639,
				"element": "C" 
			},
			{
				"x": 0.7903054607,
				"y": -1.5600141201,
				"z": 2.6135353245,
				"element": "C" 
			},
			{
				"x": -0.6798692843,
				"y": -2.0864876375,
				"z": 1.8947435592,
				"element": "S" 
			},
			{
				"x": -0.0706081449,
				"y": -1.7116828822,
				"z": 0.3049379698,
				"element": "C" 
			},
			{
				"x": 1.2046670065,
				"y": -1.2127590892,
				"z": 0.3496769836,
				"element": "C" 
			},
			{
				"x": -1.0866389052,
				"y": -1.9493070105,
				"z": -1.1459340488,
				"element": "S" 
			},
			{
				"x": -2.3539427404,
				"y": -2.4780721143,
				"z": -0.6409433933,
				"element": "O" 
			},
			{
				"x": -0.2696611845,
				"y": -2.6489413172,
				"z": -2.1359663112,
				"element": "O" 
			},
			{
				"x": -1.4306946924,
				"y": -0.4490111916,
				"z": -1.8162685689,
				"element": "N" 
			},
			{
				"x": -2.2944050287,
				"y": 0.4905197661,
				"z": -1.0860339609,
				"element": "C" 
			},
			{
				"x": -1.5070616998,
				"y": 1.3971542708,
				"z": -0.1241956748,
				"element": "C" 
			},
			{
				"x": -0.1456463431,
				"y": 1.816310516,
				"z": -0.6548247651,
				"element": "C" 
			},
			{
				"x": 0.3945492711,
				"y": 1.2443704594,
				"z": -1.81954992,
				"element": "C" 
			},
			{
				"x": -0.4020151854,
				"y": 0.2251848257,
				"z": -2.616447191,
				"element": "C" 
			},
			{
				"x": 1.6822136779,
				"y": 1.6039515195,
				"z": -2.2387369192,
				"element": "C" 
			},
			{
				"x": 2.4440986055,
				"y": 2.517410449,
				"z": -1.5103329352,
				"element": "C" 
			},
			{
				"x": 1.9114867791,
				"y": 3.0867834349,
				"z": -0.3485851853,
				"element": "C" 
			},
			{
				"x": 0.6274402294,
				"y": 2.7367239317,
				"z": 0.066851114,
				"element": "C" 
			},
			{
				"x": 3.0317083421,
				"y": 0.5680180965,
				"z": 0.5296880577,
				"element": "H" 
			},
			{
				"x": 0.9389618541,
				"y": -1.6037973624,
				"z": 3.6839567606,
				"element": "H" 
			},
			{
				"x": 1.7676939958,
				"y": -0.9542309423,
				"z": -0.5386937148,
				"element": "H" 
			},
			{
				"x": -3.0664190905,
				"y": -0.0769323842,
				"z": -0.5644018144,
				"element": "H" 
			},
			{
				"x": -2.7963130611,
				"y": 1.0924029328,
				"z": -1.8529832232,
				"element": "H" 
			},
			{
				"x": -1.3613778858,
				"y": 0.8777596958,
				"z": 0.8310618388,
				"element": "H" 
			},
			{
				"x": -2.1089859776,
				"y": 2.2848762589,
				"z": 0.1052883361,
				"element": "H" 
			},
			{
				"x": 0.2463100284,
				"y": -0.5320144413,
				"z": -3.0605383156,
				"element": "H" 
			},
			{
				"x": -0.9244273588,
				"y": 0.717011384,
				"z": -3.4491730546,
				"element": "H" 
			},
			{
				"x": 2.0936290995,
				"y": 1.1539158612,
				"z": -3.1395213358,
				"element": "H" 
			},
			{
				"x": 3.4432486235,
				"y": 2.7824192284,
				"z": -1.8430367421,
				"element": "H" 
			},
			{
				"x": 2.4944531843,
				"y": 3.7980038461,
				"z": 0.2287807516,
				"element": "H" 
			},
			{
				"x": 0.2176211235,
				"y": 3.1756076675,
				"z": 0.9735956113,
				"element": "H" 
			}
		],
		 "valence_orbital": [ 
			{
				"type": "occ",
				"energy": -0.28917,
				"method": "rhf"
			},
			{
				"type": "occ",
				"energy": -0.27608,
				"method": "rhf"
			},
			{
				"type": "occ",
				"energy": -0.2721,
				"method": "rhf"
			},
			{
				"type": "occ",
				"energy": -0.26308,
				"method": "rhf"
			},
			{
				"type": "occ",
				"energy": -0.25785,
				"method": "rhf"
			},
			{
				"type": "unocc",
				"energy": -0.06694,
				"method": "rhf"
			},
			{
				"type": "unocc",
				"energy": -0.0355,
				"method": "rhf"
			},
			{
				"type": "unocc",
				"energy": -0.02821,
				"method": "rhf"
			},
			{
				"type": "unocc",
				"energy": -0.02634,
				"method": "rhf"
			},
			{
				"type": "unocc",
				"energy": -7e-05,
				"method": "rhf"
			}
		],
		"cosmo_sigma_profile": { 
			"-0.025": 0.0,
			"-0.024": 0.0,
			"-0.023": 0.0,
			"-0.022": 0.0,
			"-0.021": 0.0,
			"-0.02": 0.0,
			"-0.019": 0.0,
			"-0.018": 0.0,
			"-0.017": 0.0,
			"-0.016": 0.0,
			"-0.015": 0.0,
			"-0.014": 0.000319421462345,
			"-0.013": 0.19833823457,
			"-0.012": 0.537405249177,
			"-0.011": 2.28168190653,
			"-0.01": 3.56207940573,
			"-0.009": 3.36439129805,
			"-0.008": 4.30819575334,
			"-0.007": 7.93538637185,
			"-0.006": 19.2810605198,
			"-0.005": 26.2996672486,
			"-0.004": 29.871987045,
			"-0.003": 28.3457332141,
			"-0.002": 22.6053439801,
			"-0.001": 21.857979237,
			"0.0": 22.1292546976,
			"0.001": 17.064094523,
			"0.002": 10.112536443,
			"0.003": 10.3042158677,
			"0.004": 10.4579661847,
			"0.005": 11.2732465423,
			"0.006": 7.4447634827,
			"0.007": 6.83441427713,
			"0.008": 6.21025358896,
			"0.009": 8.33080571632,
			"0.01": 12.9041607154,
			"0.011": 12.0831045531,
			"0.012": 4.03977010175,
			"0.013": 1.0443067178,
			"0.014": 0.0,
			"0.015": 0.0,
			"0.016": 0.0,
			"0.017": 0.0,
			"0.018": 0.0,
			"0.019": 0.0,
			"0.02": 0.0,
			"0.021": 0.0,
			"0.022": 0.0,
			"0.023": 0.0,
			"0.024": 0.0,
			"0.025": 0.0
		}
	}
}
