{
	 "smiles": "NC(=O)CC1CC1", 
	 "Tm": 399.15, 
	 "num_atms": 16, 
	 "gaussian": { 
		 "optdone": 1, 
		 "sigma_profile": "yes", 
		 "theory": "DFT", 
		 "functional": "B3LYP", 
		 "basiset": "6-31G**", 
		 "properties": { 
			 "R2extent": 1864.7502, 
			 "electric_dipole_moment_norm": 3.47437459696, 
			 "electric_quadrupole_moment_norm": 15.8307589366, 
			 "total_energy": -325.918767498, 
			 "HOMO_LUMO_gap": 0.27666, 
			 "cosmo_polarized_energy": -12.69, 
			 "cosmo_cavitation_energy": 19.35, 
			 "cosmo_dispersion_energy": -14.12, 
			 "cosmo_repulsion_energy": 1.24, 
			 "cosmo_total_nonelectrostatic_energy": 6.47, 
			 "SMD_solvation_energy": 3.85 
		},
		"coords": [
			{
				"x": -4.2060288232,
				"y": -1.5545974728,
				"z": -1.02191179,
				"element": "N" 
			},
			{
				"x": -3.3717927644,
				"y": -0.4724894334,
				"z": -0.9589457137,
				"element": "C" 
			},
			{
				"x": -3.7844266568,
				"y": 0.6739119564,
				"z": -1.0582331115,
				"element": "O" 
			},
			{
				"x": -1.8857532917,
				"y": -0.8002175649,
				"z": -0.7960527311,
				"element": "C" 
			},
			{
				"x": -1.1735168998,
				"y": 0.2240308818,
				"z": 0.0628960703,
				"element": "C" 
			},
			{
				"x": 0.1830426583,
				"y": -0.0806933248,
				"z": 0.644283743,
				"element": "C" 
			},
			{
				"x": -1.0258143162,
				"y": 0.0072543485,
				"z": 1.5482702874,
				"element": "C" 
			},
			{
				"x": -5.1899577481,
				"y": -1.3883908297,
				"z": -1.1700324379,
				"element": "H" 
			},
			{
				"x": -3.8780067653,
				"y": -2.5014765921,
				"z": -0.9296754345,
				"element": "H" 
			},
			{
				"x": -1.4513307575,
				"y": -0.8086048068,
				"z": -1.8060516267,
				"element": "H" 
			},
			{
				"x": -1.7461752945,
				"y": -1.8096484519,
				"z": -0.3887120721,
				"element": "H" 
			},
			{
				"x": -1.3575712836,
				"y": 1.2458884444,
				"z": -0.2555733351,
				"element": "H" 
			},
			{
				"x": 0.9189273464,
				"y": 0.7169531074,
				"z": 0.6838501488,
				"element": "H" 
			},
			{
				"x": 0.6090922211,
				"y": -1.0642692666,
				"z": 0.4630648606,
				"element": "H" 
			},
			{
				"x": -1.4096297186,
				"y": -0.9178068905,
				"z": 1.9711358839,
				"element": "H" 
			},
			{
				"x": -1.1205579061,
				"y": 0.8656558952,
				"z": 2.2060872587,
				"element": "H" 
			}
		],
		 "valence_orbital": [ 
			{
				"type": "occ",
				"energy": -0.34723,
				"method": "rhf"
			},
			{
				"type": "occ",
				"energy": -0.28745,
				"method": "rhf"
			},
			{
				"type": "occ",
				"energy": -0.28137,
				"method": "rhf"
			},
			{
				"type": "occ",
				"energy": -0.26336,
				"method": "rhf"
			},
			{
				"type": "occ",
				"energy": -0.24174,
				"method": "rhf"
			},
			{
				"type": "unocc",
				"energy": 0.03492,
				"method": "rhf"
			},
			{
				"type": "unocc",
				"energy": 0.0727,
				"method": "rhf"
			},
			{
				"type": "unocc",
				"energy": 0.10329,
				"method": "rhf"
			},
			{
				"type": "unocc",
				"energy": 0.10926,
				"method": "rhf"
			},
			{
				"type": "unocc",
				"energy": 0.12747,
				"method": "rhf"
			}
		],
		"cosmo_sigma_profile": { 
			"-0.025": 0.0,
			"-0.024": 0.0,
			"-0.023": 0.0,
			"-0.022": 0.0,
			"-0.021": 0.0,
			"-0.02": 0.0,
			"-0.019": 0.0,
			"-0.018": 0.0,
			"-0.017": 0.0,
			"-0.016": 0.0,
			"-0.015": 0.0946996265159,
			"-0.014": 1.23157201308,
			"-0.013": 2.65257721792,
			"-0.012": 1.80391267378,
			"-0.011": 2.70995277495,
			"-0.01": 2.1617462096,
			"-0.009": 3.78352094391,
			"-0.008": 1.70203770163,
			"-0.007": 1.6335641028,
			"-0.006": 2.47593905431,
			"-0.005": 6.55283329297,
			"-0.004": 13.8267966433,
			"-0.003": 14.1407274196,
			"-0.002": 12.5968398158,
			"-0.001": 11.6615041108,
			"0.0": 11.2393914434,
			"0.001": 9.3092289471,
			"0.002": 6.40914808407,
			"0.003": 8.76577976596,
			"0.004": 6.93870252003,
			"0.005": 6.09101597727,
			"0.006": 2.40692113109,
			"0.007": 1.50855405726,
			"0.008": 1.77036820961,
			"0.009": 2.15534459871,
			"0.01": 1.00740137132,
			"0.011": 1.74684996714,
			"0.012": 1.66400153288,
			"0.013": 3.10678994096,
			"0.014": 5.708104489,
			"0.015": 2.16363435005,
			"0.016": 0.0225238822235,
			"0.017": 0.0,
			"0.018": 0.0,
			"0.019": 0.0,
			"0.02": 0.0,
			"0.021": 0.0,
			"0.022": 0.0,
			"0.023": 0.0,
			"0.024": 0.0,
			"0.025": 0.0
		}
	}
}
