{
	 "smiles": "CCCCCCl", 
	 "Tm": 213.15, 
	 "num_atms": 17, 
	 "gaussian": { 
		 "optdone": 1, 
		 "sigma_profile": "yes", 
		 "theory": "DFT", 
		 "functional": "B3LYP", 
		 "basiset": "6-31G**", 
		 "properties": { 
			 "R2extent": 2137.2875, 
			 "electric_dipole_moment_norm": 2.49413988782, 
			 "electric_quadrupole_moment_norm": 10.3537551483, 
			 "total_energy": -657.373024159, 
			 "HOMO_LUMO_gap": 0.31251, 
			 "cosmo_polarized_energy": -3.74, 
			 "cosmo_cavitation_energy": 20.54, 
			 "cosmo_dispersion_energy": -15.17, 
			 "cosmo_repulsion_energy": 1.33, 
			 "cosmo_total_nonelectrostatic_energy": 6.71, 
			 "SMD_solvation_energy": 2.96 
		},
		"coords": [
			{
				"x": 0.5910312917,
				"y": 1.4925596391,
				"z": 1.7380998923,
				"element": "C" 
			},
			{
				"x": 1.2943447921,
				"y": 1.0868671546,
				"z": 0.4376221735,
				"element": "C" 
			},
			{
				"x": 0.7458992308,
				"y": -0.1996284998,
				"z": -0.206372692,
				"element": "C" 
			},
			{
				"x": 0.8720261962,
				"y": -1.4857855149,
				"z": 0.63360121,
				"element": "C" 
			},
			{
				"x": 2.3205979339,
				"y": -1.8873700947,
				"z": 0.8829643279,
				"element": "C" 
			},
			{
				"x": 2.4321238716,
				"y": -3.4527598725,
				"z": 1.8076003826,
				"element": "Cl" 
			},
			{
				"x": -0.4880806357,
				"y": 1.6075383862,
				"z": 1.5834205935,
				"element": "H" 
			},
			{
				"x": 0.7331597082,
				"y": 0.751535123,
				"z": 2.5317197541,
				"element": "H" 
			},
			{
				"x": 0.9763211687,
				"y": 2.4469796766,
				"z": 2.1109860607,
				"element": "H" 
			},
			{
				"x": 1.1930963326,
				"y": 1.9001966163,
				"z": -0.2918309258,
				"element": "H" 
			},
			{
				"x": 2.3725312579,
				"y": 0.9878860581,
				"z": 0.6196749054,
				"element": "H" 
			},
			{
				"x": -0.3175810641,
				"y": -0.0523317315,
				"z": -0.4358930216,
				"element": "H" 
			},
			{
				"x": 1.2441695699,
				"y": -0.3555946692,
				"z": -1.1727936533,
				"element": "H" 
			},
			{
				"x": 0.3675114861,
				"y": -2.3052426895,
				"z": 0.11010737,
				"element": "H" 
			},
			{
				"x": 0.3600426721,
				"y": -1.3702657912,
				"z": 1.5949202612,
				"element": "H" 
			},
			{
				"x": 2.8613342536,
				"y": -1.1524620887,
				"z": 1.4804822897,
				"element": "H" 
			},
			{
				"x": 2.8618719344,
				"y": -2.0491217019,
				"z": -0.0517089283,
				"element": "H" 
			}
		],
		 "valence_orbital": [ 
			{
				"type": "occ",
				"energy": -0.33705,
				"method": "rhf"
			},
			{
				"type": "occ",
				"energy": -0.32973,
				"method": "rhf"
			},
			{
				"type": "occ",
				"energy": -0.32865,
				"method": "rhf"
			},
			{
				"type": "occ",
				"energy": -0.28976,
				"method": "rhf"
			},
			{
				"type": "occ",
				"energy": -0.28796,
				"method": "rhf"
			},
			{
				"type": "unocc",
				"energy": 0.02455,
				"method": "rhf"
			},
			{
				"type": "unocc",
				"energy": 0.08294,
				"method": "rhf"
			},
			{
				"type": "unocc",
				"energy": 0.10901,
				"method": "rhf"
			},
			{
				"type": "unocc",
				"energy": 0.11659,
				"method": "rhf"
			},
			{
				"type": "unocc",
				"energy": 0.12555,
				"method": "rhf"
			}
		],
		"cosmo_sigma_profile": { 
			"-0.025": 0.0,
			"-0.024": 0.0,
			"-0.023": 0.0,
			"-0.022": 0.0,
			"-0.021": 0.0,
			"-0.02": 0.0,
			"-0.019": 0.0,
			"-0.018": 0.0,
			"-0.017": 0.0,
			"-0.016": 0.0,
			"-0.015": 0.0,
			"-0.014": 0.0,
			"-0.013": 0.0,
			"-0.012": 0.0,
			"-0.011": 0.0,
			"-0.01": 0.0,
			"-0.009": 0.0,
			"-0.008": 0.0,
			"-0.007": 0.328281726783,
			"-0.006": 3.61662289025,
			"-0.005": 5.15527458379,
			"-0.004": 8.02713622301,
			"-0.003": 19.1217863617,
			"-0.002": 21.832983486,
			"-0.001": 23.3944493341,
			"0.0": 22.5758147825,
			"0.001": 18.7345851181,
			"0.002": 7.51608233851,
			"0.003": 3.90556792417,
			"0.004": 4.92754954184,
			"0.005": 4.25199848622,
			"0.006": 6.91401983732,
			"0.007": 10.1553945539,
			"0.008": 0.810084759894,
			"0.009": 0.0,
			"0.01": 0.0,
			"0.011": 0.0,
			"0.012": 0.0,
			"0.013": 0.0,
			"0.014": 0.0,
			"0.015": 0.0,
			"0.016": 0.0,
			"0.017": 0.0,
			"0.018": 0.0,
			"0.019": 0.0,
			"0.02": 0.0,
			"0.021": 0.0,
			"0.022": 0.0,
			"0.023": 0.0,
			"0.024": 0.0,
			"0.025": 0.0
		}
	}
}
