{
	 "smiles": "CC1=C(Cl)C=C2C(CCl)=CC(=O)OC2=C1", 
	 "Tm": 492.15, 
	 "num_atms": 23, 
	 "gaussian": { 
		 "optdone": 1, 
		 "sigma_profile": "yes", 
		 "theory": "DFT", 
		 "functional": "B3LYP", 
		 "basiset": "6-31G**", 
		 "properties": { 
			 "R2extent": 5040.293, 
			 "electric_dipole_moment_norm": 2.89212598792, 
			 "electric_quadrupole_moment_norm": 22.5734469727, 
			 "total_energy": -1494.83893667, 
			 "HOMO_LUMO_gap": 0.1564, 
			 "cosmo_polarized_energy": -12.49, 
			 "cosmo_cavitation_energy": 30.83, 
			 "cosmo_dispersion_energy": -22.58, 
			 "cosmo_repulsion_energy": 1.76, 
			 "cosmo_total_nonelectrostatic_energy": 10.01, 
			 "SMD_solvation_energy": 5.77 
		},
		"coords": [
			{
				"x": -3.8556010673,
				"y": 1.3727374919,
				"z": 1.8254843665,
				"element": "C" 
			},
			{
				"x": -2.4316175358,
				"y": 0.9708426041,
				"z": 1.5499552286,
				"element": "C" 
			},
			{
				"x": -1.4265163775,
				"y": 1.0499407392,
				"z": 2.5375883623,
				"element": "C" 
			},
			{
				"x": -1.8344567661,
				"y": 1.6338060664,
				"z": 4.1464891115,
				"element": "Cl" 
			},
			{
				"x": -0.1150852146,
				"y": 0.678561501,
				"z": 2.2883722105,
				"element": "C" 
			},
			{
				"x": 0.2612106772,
				"y": 0.2063149856,
				"z": 1.0176025563,
				"element": "C" 
			},
			{
				"x": 1.6107614489,
				"y": -0.1892837666,
				"z": 0.6483049914,
				"element": "C" 
			},
			{
				"x": 2.7467294676,
				"y": -0.0895392199,
				"z": 1.6262935853,
				"element": "C" 
			},
			{
				"x": 2.6572825453,
				"y": -1.3716157746,
				"z": 2.921701209,
				"element": "Cl" 
			},
			{
				"x": 1.8468760182,
				"y": -0.6258372214,
				"z": -0.6138203948,
				"element": "C" 
			},
			{
				"x": 0.8038736825,
				"y": -0.7190138197,
				"z": -1.6304605576,
				"element": "C" 
			},
			{
				"x": 0.9552027968,
				"y": -1.1016312355,
				"z": -2.7657570455,
				"element": "O" 
			},
			{
				"x": -0.4698571381,
				"y": -0.3214740362,
				"z": -1.2331512139,
				"element": "O" 
			},
			{
				"x": -0.7364099837,
				"y": 0.1231450657,
				"z": 0.0288479008,
				"element": "C" 
			},
			{
				"x": -2.0536684907,
				"y": 0.4987044779,
				"z": 0.2932931529,
				"element": "C" 
			},
			{
				"x": -4.2824199576,
				"y": 0.7768271514,
				"z": 2.6391234256,
				"element": "H" 
			},
			{
				"x": -4.4757854267,
				"y": 1.2390225754,
				"z": 0.936606962,
				"element": "H" 
			},
			{
				"x": -3.9163476146,
				"y": 2.4209551731,
				"z": 2.1366928551,
				"element": "H" 
			},
			{
				"x": 0.6122593525,
				"y": 0.7377208022,
				"z": 3.0885697138,
				"element": "H" 
			},
			{
				"x": 3.7039302863,
				"y": -0.2284446544,
				"z": 1.1259572614,
				"element": "H" 
			},
			{
				"x": 2.7502266384,
				"y": 0.8680731534,
				"z": 2.1492081173,
				"element": "H" 
			},
			{
				"x": 2.834169458,
				"y": -0.9326558173,
				"z": -0.9399959599,
				"element": "H" 
			},
			{
				"x": -2.7825567989,
				"y": 0.4158437584,
				"z": -0.5059058387,
				"element": "H" 
			}
		],
		 "valence_orbital": [ 
			{
				"type": "occ",
				"energy": -0.31422,
				"method": "rhf"
			},
			{
				"type": "occ",
				"energy": -0.30835,
				"method": "rhf"
			},
			{
				"type": "occ",
				"energy": -0.28333,
				"method": "rhf"
			},
			{
				"type": "occ",
				"energy": -0.26588,
				"method": "rhf"
			},
			{
				"type": "occ",
				"energy": -0.24242,
				"method": "rhf"
			},
			{
				"type": "unocc",
				"energy": -0.08602,
				"method": "rhf"
			},
			{
				"type": "unocc",
				"energy": -0.0278,
				"method": "rhf"
			},
			{
				"type": "unocc",
				"energy": -0.02295,
				"method": "rhf"
			},
			{
				"type": "unocc",
				"energy": 0.01866,
				"method": "rhf"
			},
			{
				"type": "unocc",
				"energy": 0.02185,
				"method": "rhf"
			}
		],
		"cosmo_sigma_profile": { 
			"-0.025": 0.0,
			"-0.024": 0.0,
			"-0.023": 0.0,
			"-0.022": 0.0,
			"-0.021": 0.0,
			"-0.02": 0.0,
			"-0.019": 0.0,
			"-0.018": 0.0,
			"-0.017": 0.0,
			"-0.016": 0.0,
			"-0.015": 0.0,
			"-0.014": 0.0,
			"-0.013": 0.0,
			"-0.012": 0.0,
			"-0.011": 0.0419933525813,
			"-0.01": 2.21863012036,
			"-0.009": 6.41855807681,
			"-0.008": 7.937639348,
			"-0.007": 7.50315848549,
			"-0.006": 9.37797137013,
			"-0.005": 12.6172662921,
			"-0.004": 14.0560438448,
			"-0.003": 14.8559746938,
			"-0.002": 18.871042236,
			"-0.001": 24.3546569166,
			"0.0": 23.381310036,
			"0.001": 23.6877502087,
			"0.002": 17.6312903068,
			"0.003": 13.0423140413,
			"0.004": 15.269221416,
			"0.005": 12.7935286448,
			"0.006": 6.81108175522,
			"0.007": 1.70776779883,
			"0.008": 2.22378383785,
			"0.009": 2.82939305882,
			"0.01": 2.6425102458,
			"0.011": 4.90073343342,
			"0.012": 5.23614733327,
			"0.013": 0.997254087602,
			"0.014": 0.0,
			"0.015": 0.0,
			"0.016": 0.0,
			"0.017": 0.0,
			"0.018": 0.0,
			"0.019": 0.0,
			"0.02": 0.0,
			"0.021": 0.0,
			"0.022": 0.0,
			"0.023": 0.0,
			"0.024": 0.0,
			"0.025": 0.0
		}
	}
}
