{
	 "smiles": "CCCC1=C2N(CC)C(=CC(=O)C2=CC2=C1OC(=CC2=O)C(O)=O)C(O)=O", 
	 "Tm": 572.15, 
	 "num_atms": 44, 
	 "gaussian": { 
		 "optdone": 1, 
		 "sigma_profile": "yes", 
		 "theory": "DFT", 
		 "functional": "B3LYP", 
		 "basiset": "6-31G**", 
		 "properties": { 
			 "R2extent": 12546.5815, 
			 "electric_dipole_moment_norm": 8.6902587683, 
			 "electric_quadrupole_moment_norm": 25.5673580986, 
			 "total_energy": -1315.59832486, 
			 "HOMO_LUMO_gap": 0.13763, 
			 "cosmo_polarized_energy": -29.58, 
			 "cosmo_cavitation_energy": 47.6, 
			 "cosmo_dispersion_energy": -32.05, 
			 "cosmo_repulsion_energy": 2.37, 
			 "cosmo_total_nonelectrostatic_energy": 17.91, 
			 "SMD_solvation_energy": 11.31 
		},
		"coords": [
			{
				"x": 1.5385485063,
				"y": 2.5110041807,
				"z": 2.9832529354,
				"element": "C" 
			},
			{
				"x": 1.7155843777,
				"y": 1.2910376845,
				"z": 2.0735032003,
				"element": "C" 
			},
			{
				"x": 1.3975457959,
				"y": 1.6175264762,
				"z": 0.5964355747,
				"element": "C" 
			},
			{
				"x": 1.5158522434,
				"y": 0.4754110783,
				"z": -0.4009310975,
				"element": "C" 
			},
			{
				"x": 0.4241115271,
				"y": -0.0806611586,
				"z": -1.1200985413,
				"element": "C" 
			},
			{
				"x": -0.906513447,
				"y": 0.2519821272,
				"z": -0.7922229563,
				"element": "N" 
			},
			{
				"x": -1.3515881876,
				"y": 0.1267413127,
				"z": 0.6303662009,
				"element": "C" 
			},
			{
				"x": -1.9909554325,
				"y": -1.2323312444,
				"z": 0.9277999668,
				"element": "C" 
			},
			{
				"x": -1.8911013907,
				"y": 0.0605590402,
				"z": -1.7621928157,
				"element": "C" 
			},
			{
				"x": -1.6942428835,
				"y": -0.6580847092,
				"z": -2.8968866446,
				"element": "C" 
			},
			{
				"x": -0.4299216458,
				"y": -1.3433299688,
				"z": -3.1436048167,
				"element": "C" 
			},
			{
				"x": -0.2726749819,
				"y": -2.1429563555,
				"z": -4.0640459361,
				"element": "O" 
			},
			{
				"x": 0.6703427648,
				"y": -0.9338752824,
				"z": -2.2337790428,
				"element": "C" 
			},
			{
				"x": 1.9653475637,
				"y": -1.3393699227,
				"z": -2.5409297016,
				"element": "C" 
			},
			{
				"x": 3.0516914848,
				"y": -0.8846783836,
				"z": -1.8016598213,
				"element": "C" 
			},
			{
				"x": 2.7954103343,
				"y": 0.037495514,
				"z": -0.7704796593,
				"element": "C" 
			},
			{
				"x": 3.8486175163,
				"y": 0.6119733302,
				"z": -0.0850130231,
				"element": "O" 
			},
			{
				"x": 5.1332009631,
				"y": 0.2406734917,
				"z": -0.3683232161,
				"element": "C" 
			},
			{
				"x": 5.4665065285,
				"y": -0.6629940061,
				"z": -1.3080506058,
				"element": "C" 
			},
			{
				"x": 4.4356893285,
				"y": -1.3101528862,
				"z": -2.1271205335,
				"element": "C" 
			},
			{
				"x": 4.6939157373,
				"y": -2.1235491856,
				"z": -3.0072675802,
				"element": "O" 
			},
			{
				"x": 6.1450305058,
				"y": 0.9488908513,
				"z": 0.4907271532,
				"element": "C" 
			},
			{
				"x": 5.6403632504,
				"y": 1.8559118464,
				"z": 1.351029627,
				"element": "O" 
			},
			{
				"x": 7.3259523045,
				"y": 0.7187542837,
				"z": 0.4136047609,
				"element": "O" 
			},
			{
				"x": -3.1901458019,
				"y": 0.786248673,
				"z": -1.5521687504,
				"element": "C" 
			},
			{
				"x": -4.1797398128,
				"y": 0.2921724467,
				"z": -2.3253684183,
				"element": "O" 
			},
			{
				"x": -3.3522405794,
				"y": 1.7292816082,
				"z": -0.8053401621,
				"element": "O" 
			},
			{
				"x": 2.1860155572,
				"y": 3.3390820517,
				"z": 2.6725646981,
				"element": "H" 
			},
			{
				"x": 0.5060618592,
				"y": 2.8766595907,
				"z": 2.9608091108,
				"element": "H" 
			},
			{
				"x": 1.7851059225,
				"y": 2.2689936254,
				"z": 4.0213558032,
				"element": "H" 
			},
			{
				"x": 2.7409577759,
				"y": 0.9134585839,
				"z": 2.1513051642,
				"element": "H" 
			},
			{
				"x": 1.0801766154,
				"y": 0.4718161486,
				"z": 2.4311640082,
				"element": "H" 
			},
			{
				"x": 2.0913715597,
				"y": 2.403903952,
				"z": 0.2715142456,
				"element": "H" 
			},
			{
				"x": 0.4019747094,
				"y": 2.0620254599,
				"z": 0.5193870912,
				"element": "H" 
			},
			{
				"x": -0.4751427982,
				"y": 0.2470262922,
				"z": 1.2556405866,
				"element": "H" 
			},
			{
				"x": -2.0372534144,
				"y": 0.9448031557,
				"z": 0.8467783712,
				"element": "H" 
			},
			{
				"x": -1.3012863978,
				"y": -2.0526297642,
				"z": 0.7056396569,
				"element": "H" 
			},
			{
				"x": -2.9065706597,
				"y": -1.3929556943,
				"z": 0.3511664167,
				"element": "H" 
			},
			{
				"x": -2.2532192115,
				"y": -1.2853176576,
				"z": 1.9893675346,
				"element": "H" 
			},
			{
				"x": -2.4787479549,
				"y": -0.7449127715,
				"z": -3.6365880612,
				"element": "H" 
			},
			{
				"x": 2.1254470804,
				"y": -2.0071151556,
				"z": -3.380675025,
				"element": "H" 
			},
			{
				"x": 6.5111055033,
				"y": -0.9014690261,
				"z": -1.4639117669,
				"element": "H" 
			},
			{
				"x": 4.6775174241,
				"y": 1.9067968039,
				"z": 1.2402962501,
				"element": "H" 
			},
			{
				"x": -4.9512001399,
				"y": 0.8634535635,
				"z": -2.1738501807,
				"element": "H" 
			}
		],
		 "valence_orbital": [ 
			{
				"type": "occ",
				"energy": -0.28579,
				"method": "rhf"
			},
			{
				"type": "occ",
				"energy": -0.26202,
				"method": "rhf"
			},
			{
				"type": "occ",
				"energy": -0.25986,
				"method": "rhf"
			},
			{
				"type": "occ",
				"energy": -0.2528,
				"method": "rhf"
			},
			{
				"type": "occ",
				"energy": -0.24004,
				"method": "rhf"
			},
			{
				"type": "unocc",
				"energy": -0.10241,
				"method": "rhf"
			},
			{
				"type": "unocc",
				"energy": -0.08295,
				"method": "rhf"
			},
			{
				"type": "unocc",
				"energy": -0.05579,
				"method": "rhf"
			},
			{
				"type": "unocc",
				"energy": -0.03437,
				"method": "rhf"
			},
			{
				"type": "unocc",
				"energy": 0.0096,
				"method": "rhf"
			}
		],
		"cosmo_sigma_profile": { 
			"-0.025": 0.0,
			"-0.024": 0.0,
			"-0.023": 0.0,
			"-0.022": 0.0,
			"-0.021": 0.0,
			"-0.02": 0.0497360028467,
			"-0.019": 0.707300454821,
			"-0.018": 0.886148668036,
			"-0.017": 1.06895054417,
			"-0.016": 0.781892125038,
			"-0.015": 1.13529170574,
			"-0.014": 0.437769255347,
			"-0.013": 0.74551692333,
			"-0.012": 2.87821150968,
			"-0.011": 2.7274362969,
			"-0.01": 2.53483583631,
			"-0.009": 4.11774077591,
			"-0.008": 4.43693631733,
			"-0.007": 6.52155782537,
			"-0.006": 11.8416778553,
			"-0.005": 19.1864317922,
			"-0.004": 35.380714444,
			"-0.003": 36.6151044692,
			"-0.002": 39.7140396766,
			"-0.001": 45.7800228428,
			"0.0": 32.8613867118,
			"0.001": 21.3135719824,
			"0.002": 8.74740352008,
			"0.003": 9.31897251198,
			"0.004": 7.48278344978,
			"0.005": 9.03482796377,
			"0.006": 8.83676886642,
			"0.007": 7.73020292954,
			"0.008": 7.49176490966,
			"0.009": 9.82298172596,
			"0.01": 12.6097641681,
			"0.011": 10.6045433663,
			"0.012": 8.82569891921,
			"0.013": 6.16437162875,
			"0.014": 1.03596279309,
			"0.015": 0.00191760624184,
			"0.016": 0.0,
			"0.017": 0.0,
			"0.018": 0.0,
			"0.019": 0.0,
			"0.02": 0.0,
			"0.021": 0.0,
			"0.022": 0.0,
			"0.023": 0.0,
			"0.024": 0.0,
			"0.025": 0.0
		}
	}
}
