{
	 "smiles": "CCNS(=O)(=O)C1=CN=C(Cl)C=C1", 
	 "Tm": 347.15, 
	 "num_atms": 22, 
	 "gaussian": { 
		 "optdone": 1, 
		 "sigma_profile": "yes", 
		 "theory": "DFT", 
		 "functional": "B3LYP", 
		 "basiset": "6-31G**", 
		 "properties": { 
			 "R2extent": 4275.4123, 
			 "electric_dipole_moment_norm": 3.42765458149, 
			 "electric_quadrupole_moment_norm": 17.5785564461, 
			 "total_energy": -1390.42357054, 
			 "HOMO_LUMO_gap": 0.21056, 
			 "cosmo_polarized_energy": -14.22, 
			 "cosmo_cavitation_energy": 29.3, 
			 "cosmo_dispersion_energy": -21.45, 
			 "cosmo_repulsion_energy": 1.67, 
			 "cosmo_total_nonelectrostatic_energy": 9.53, 
			 "SMD_solvation_energy": 2.24 
		},
		"coords": [
			{
				"x": 0.2799703136,
				"y": -1.7946771902,
				"z": 1.3983754174,
				"element": "C" 
			},
			{
				"x": 1.718977582,
				"y": -1.5619313072,
				"z": 1.8501039523,
				"element": "C" 
			},
			{
				"x": 2.5029357053,
				"y": -0.7812654647,
				"z": 0.8657260696,
				"element": "N" 
			},
			{
				"x": 2.3335321849,
				"y": 0.8981220973,
				"z": 0.8344703036,
				"element": "S" 
			},
			{
				"x": 1.6837571166,
				"y": 1.3792376234,
				"z": 2.059509212,
				"element": "O" 
			},
			{
				"x": 3.6419444873,
				"y": 1.402967844,
				"z": 0.4082906938,
				"element": "O" 
			},
			{
				"x": 1.1664069277,
				"y": 1.1703150191,
				"z": -0.500260329,
				"element": "C" 
			},
			{
				"x": 1.4212435877,
				"y": 0.6805052939,
				"z": -1.7822869992,
				"element": "C" 
			},
			{
				"x": 0.5996502267,
				"y": 0.9050738553,
				"z": -2.8127778626,
				"element": "N" 
			},
			{
				"x": -0.4840132678,
				"y": 1.6307643576,
				"z": -2.5830305699,
				"element": "C" 
			},
			{
				"x": -1.5452502133,
				"y": 1.9100492791,
				"z": -3.953221771,
				"element": "Cl" 
			},
			{
				"x": -0.8331478023,
				"y": 2.1782438655,
				"z": -1.344555763,
				"element": "C" 
			},
			{
				"x": 0.0229045996,
				"y": 1.9375186344,
				"z": -0.2746879588,
				"element": "C" 
			},
			{
				"x": -0.2338312193,
				"y": -2.4406092613,
				"z": 2.1171080453,
				"element": "H" 
			},
			{
				"x": -0.2768018406,
				"y": -0.8551441904,
				"z": 1.3430539798,
				"element": "H" 
			},
			{
				"x": 0.2508241852,
				"y": -2.273785501,
				"z": 0.4157060929,
				"element": "H" 
			},
			{
				"x": 1.7377018184,
				"y": -1.0809271303,
				"z": 2.8349334826,
				"element": "H" 
			},
			{
				"x": 2.2403611818,
				"y": -2.5201771327,
				"z": 1.9377889395,
				"element": "H" 
			},
			{
				"x": 3.5036932977,
				"y": -0.9577116716,
				"z": 0.9081993616,
				"element": "H" 
			},
			{
				"x": 2.3058010381,
				"y": 0.0837848975,
				"z": -1.9863825521,
				"element": "H" 
			},
			{
				"x": -1.7363570314,
				"y": 2.7653472427,
				"z": -1.2316155197,
				"element": "H" 
			},
			{
				"x": -0.1810028781,
				"y": 2.3274988398,
				"z": 0.7167537749,
				"element": "H" 
			}
		],
		 "valence_orbital": [ 
			{
				"type": "occ",
				"energy": -0.31955,
				"method": "rhf"
			},
			{
				"type": "occ",
				"energy": -0.31336,
				"method": "rhf"
			},
			{
				"type": "occ",
				"energy": -0.29279,
				"method": "rhf"
			},
			{
				"type": "occ",
				"energy": -0.28984,
				"method": "rhf"
			},
			{
				"type": "occ",
				"energy": -0.27065,
				"method": "rhf"
			},
			{
				"type": "unocc",
				"energy": -0.06009,
				"method": "rhf"
			},
			{
				"type": "unocc",
				"energy": -0.05373,
				"method": "rhf"
			},
			{
				"type": "unocc",
				"energy": 0.02158,
				"method": "rhf"
			},
			{
				"type": "unocc",
				"energy": 0.05023,
				"method": "rhf"
			},
			{
				"type": "unocc",
				"energy": 0.06209,
				"method": "rhf"
			}
		],
		"cosmo_sigma_profile": { 
			"-0.025": 0.0,
			"-0.024": 0.0,
			"-0.023": 0.0,
			"-0.022": 0.0,
			"-0.021": 0.0,
			"-0.02": 0.0,
			"-0.019": 0.0,
			"-0.018": 0.0,
			"-0.017": 0.0,
			"-0.016": 0.0,
			"-0.015": 0.561429945335,
			"-0.014": 1.10994997363,
			"-0.013": 0.94680341593,
			"-0.012": 1.26393613636,
			"-0.011": 1.19820088041,
			"-0.01": 0.768312200794,
			"-0.009": 5.35490165807,
			"-0.008": 5.6469833047,
			"-0.007": 7.06073417887,
			"-0.006": 7.36678653734,
			"-0.005": 7.769831393,
			"-0.004": 14.8579224879,
			"-0.003": 23.1555879672,
			"-0.002": 25.5587540821,
			"-0.001": 23.6760865942,
			"0.0": 19.2492581198,
			"0.001": 11.458492705,
			"0.002": 10.3858508722,
			"0.003": 12.7826777095,
			"0.004": 10.1700001923,
			"0.005": 5.6388021243,
			"0.006": 4.95908944048,
			"0.007": 5.36563160275,
			"0.008": 4.15355407288,
			"0.009": 4.84928603699,
			"0.01": 9.97129748687,
			"0.011": 8.0592419829,
			"0.012": 1.68476795103,
			"0.013": 0.649935774393,
			"0.014": 0.0708773565964,
			"0.015": 0.0,
			"0.016": 0.0,
			"0.017": 0.0,
			"0.018": 0.0,
			"0.019": 0.0,
			"0.02": 0.0,
			"0.021": 0.0,
			"0.022": 0.0,
			"0.023": 0.0,
			"0.024": 0.0,
			"0.025": 0.0
		}
	}
}
