{
	 "smiles": "ClC1=CN=CC(OC2=NN=C(Cl)C=C2)=C1", 
	 "Tm": 386.15, 
	 "num_atms": 20, 
	 "gaussian": { 
		 "optdone": 1, 
		 "sigma_profile": "yes", 
		 "theory": "DFT", 
		 "functional": "B3LYP", 
		 "basiset": "6-31G**", 
		 "properties": { 
			 "R2extent": 5880.6408, 
			 "electric_dipole_moment_norm": 4.61848625093, 
			 "electric_quadrupole_moment_norm": 12.018194205, 
			 "total_energy": -1505.76912452, 
			 "HOMO_LUMO_gap": 0.17655, 
			 "cosmo_polarized_energy": -13.34, 
			 "cosmo_cavitation_energy": 29.98, 
			 "cosmo_dispersion_energy": -22.25, 
			 "cosmo_repulsion_energy": 1.75, 
			 "cosmo_total_nonelectrostatic_energy": 9.49, 
			 "SMD_solvation_energy": 1.97 
		},
		"coords": [
			{
				"x": -4.3789886015,
				"y": 2.5711057143,
				"z": -0.9521538758,
				"element": "Cl" 
			},
			{
				"x": -3.1716754841,
				"y": 1.5411002373,
				"z": -0.2121409939,
				"element": "C" 
			},
			{
				"x": -3.0474541908,
				"y": 1.4956526907,
				"z": 1.1773963022,
				"element": "C" 
			},
			{
				"x": -2.1449937031,
				"y": 0.7198857747,
				"z": 1.7865376914,
				"element": "N" 
			},
			{
				"x": -1.3363425274,
				"y": -0.0329313676,
				"z": 1.0398144149,
				"element": "C" 
			},
			{
				"x": -1.4010707838,
				"y": -0.0341756332,
				"z": -0.3554081379,
				"element": "C" 
			},
			{
				"x": -0.6317525916,
				"y": -0.898725294,
				"z": -1.1277240501,
				"element": "O" 
			},
			{
				"x": 0.7254421448,
				"y": -0.7950980297,
				"z": -1.133981955,
				"element": "C" 
			},
			{
				"x": 1.3034856663,
				"y": 0.2157395961,
				"z": -0.5069099203,
				"element": "N" 
			},
			{
				"x": 2.6386951216,
				"y": 0.3273171795,
				"z": -0.5274726019,
				"element": "N" 
			},
			{
				"x": 3.3472580995,
				"y": -0.5737414677,
				"z": -1.1784308768,
				"element": "C" 
			},
			{
				"x": 5.083519583,
				"y": -0.3602889379,
				"z": -1.1636653482,
				"element": "Cl" 
			},
			{
				"x": 2.7961205274,
				"y": -1.6716766462,
				"z": -1.8670186201,
				"element": "C" 
			},
			{
				"x": 1.4265246638,
				"y": -1.7892188076,
				"z": -1.8436926739,
				"element": "C" 
			},
			{
				"x": -2.3336641353,
				"y": 0.7627701532,
				"z": -1.0077168706,
				"element": "C" 
			},
			{
				"x": -3.6966676141,
				"y": 2.0970923242,
				"z": 1.8078860953,
				"element": "H" 
			},
			{
				"x": -0.6110104557,
				"y": -0.6535042555,
				"z": 1.5585406905,
				"element": "H" 
			},
			{
				"x": 3.4309586554,
				"y": -2.381873871,
				"z": -2.383742354,
				"element": "H" 
			},
			{
				"x": 0.8934334803,
				"y": -2.5941546439,
				"z": -2.3369409975,
				"element": "H" 
			},
			{
				"x": -2.4003178548,
				"y": 0.7682252843,
				"z": -2.0892759184,
				"element": "H" 
			}
		],
		 "valence_orbital": [ 
			{
				"type": "occ",
				"energy": -0.29848,
				"method": "rhf"
			},
			{
				"type": "occ",
				"energy": -0.2805,
				"method": "rhf"
			},
			{
				"type": "occ",
				"energy": -0.27291,
				"method": "rhf"
			},
			{
				"type": "occ",
				"energy": -0.26376,
				"method": "rhf"
			},
			{
				"type": "occ",
				"energy": -0.25247,
				"method": "rhf"
			},
			{
				"type": "unocc",
				"energy": -0.07592,
				"method": "rhf"
			},
			{
				"type": "unocc",
				"energy": -0.04581,
				"method": "rhf"
			},
			{
				"type": "unocc",
				"energy": -0.03792,
				"method": "rhf"
			},
			{
				"type": "unocc",
				"energy": -0.02553,
				"method": "rhf"
			},
			{
				"type": "unocc",
				"energy": 0.01722,
				"method": "rhf"
			}
		],
		"cosmo_sigma_profile": { 
			"-0.025": 0.0,
			"-0.024": 0.0,
			"-0.023": 0.0,
			"-0.022": 0.0,
			"-0.021": 0.0,
			"-0.02": 0.0,
			"-0.019": 0.0,
			"-0.018": 0.0,
			"-0.017": 0.0,
			"-0.016": 0.0,
			"-0.015": 0.0,
			"-0.014": 0.0,
			"-0.013": 0.0,
			"-0.012": 0.0,
			"-0.011": 0.0,
			"-0.01": 3.73486433439,
			"-0.009": 6.58155439994,
			"-0.008": 7.60393765528,
			"-0.007": 8.66098487098,
			"-0.006": 8.78608776348,
			"-0.005": 9.04043774114,
			"-0.004": 12.6563408257,
			"-0.003": 19.4957928881,
			"-0.002": 20.4142608599,
			"-0.001": 24.8367147552,
			"0.0": 20.7628063582,
			"0.001": 16.025933087,
			"0.002": 14.5303808833,
			"0.003": 21.5749951422,
			"0.004": 17.8192785648,
			"0.005": 5.58239029458,
			"0.006": 5.18480681828,
			"0.007": 4.00316193191,
			"0.008": 3.39314004411,
			"0.009": 2.93833601121,
			"0.01": 3.25368332043,
			"0.011": 3.33249131359,
			"0.012": 3.35953990793,
			"0.013": 2.14401049998,
			"0.014": 1.40090109594,
			"0.015": 0.618575636345,
			"0.016": 0.0,
			"0.017": 0.0,
			"0.018": 0.0,
			"0.019": 0.0,
			"0.02": 0.0,
			"0.021": 0.0,
			"0.022": 0.0,
			"0.023": 0.0,
			"0.024": 0.0,
			"0.025": 0.0
		}
	}
}
