{
	 "smiles": "NC1=C(I)C=C(Cl)C=C1", 
	 "Tm": 314.15, 
	 "num_atms": 14, 
	 "gaussian": { 
		 "optdone": 1, 
		 "sigma_profile": "no", 
		 "theory": "DFT", 
		 "functional": "B3LYP", 
		 "basiset": "6-31G**", 
		 "properties": { 
			 "R2extent": 2357.1577, 
			 "electric_dipole_moment_norm": 3.21576411293, 
			 "electric_quadrupole_moment_norm": 9.99687329168, 
			 "total_energy": -757.984122113, 
			 "HOMO_LUMO_gap": 0.16784, 
			 "cosmo_polarized_energy": -87641.73, 
			 "cosmo_cavitation_energy": 22.78, 
			 "cosmo_dispersion_energy": -18.67, 
			 "cosmo_repulsion_energy": 1.49, 
			 "cosmo_total_nonelectrostatic_energy": 5.6, 
			 "SMD_solvation_energy": 2.69 
		},
		"coords": [
			{
				"x": 0.3889795618,
				"y": 2.4029737887,
				"z": -0.6478571419,
				"element": "N" 
			},
			{
				"x": 1.0432929307,
				"y": 1.2590274993,
				"z": -0.2245513227,
				"element": "C" 
			},
			{
				"x": 0.5424966249,
				"y": -0.0403085172,
				"z": -0.44510579,
				"element": "C" 
			},
			{
				"x": -1.2457781407,
				"y": -0.3234317449,
				"z": -1.5579747401,
				"element": "I" 
			},
			{
				"x": 1.1934318459,
				"y": -1.1734976768,
				"z": 0.0435043694,
				"element": "C" 
			},
			{
				"x": 2.3715477334,
				"y": -1.0238551187,
				"z": 0.7696844628,
				"element": "C" 
			},
			{
				"x": 3.1965681803,
				"y": -2.4492079893,
				"z": 1.3864586637,
				"element": "Cl" 
			},
			{
				"x": 2.8998165357,
				"y": 0.2449603734,
				"z": 1.0073263192,
				"element": "C" 
			},
			{
				"x": 2.2405080555,
				"y": 1.3625675745,
				"z": 0.5141659051,
				"element": "C" 
			},
			{
				"x": -0.2713944291,
				"y": 2.2922638776,
				"z": -1.4048188969,
				"element": "H" 
			},
			{
				"x": 0.9597242027,
				"y": 3.2317298612,
				"z": -0.7277504145,
				"element": "H" 
			},
			{
				"x": 0.7903215512,
				"y": -2.1615796529,
				"z": -0.1405477111,
				"element": "H" 
			},
			{
				"x": 3.8188278341,
				"y": 0.3563138925,
				"z": 1.571740653,
				"element": "H" 
			},
			{
				"x": 2.6493575135,
				"y": 2.3514438327,
				"z": 0.7049256441,
				"element": "H" 
			}
		],
		 "valence_orbital": [ 
			{
				"type": "occ",
				"energy": -0.30828,
				"method": "rhf"
			},
			{
				"type": "occ",
				"energy": -0.2959,
				"method": "rhf"
			},
			{
				"type": "occ",
				"energy": -0.27829,
				"method": "rhf"
			},
			{
				"type": "occ",
				"energy": -0.25143,
				"method": "rhf"
			},
			{
				"type": "occ",
				"energy": -0.21379,
				"method": "rhf"
			},
			{
				"type": "unocc",
				"energy": -0.04595,
				"method": "rhf"
			},
			{
				"type": "unocc",
				"energy": -0.02317,
				"method": "rhf"
			},
			{
				"type": "unocc",
				"energy": -0.00409,
				"method": "rhf"
			},
			{
				"type": "unocc",
				"energy": 0.03153,
				"method": "rhf"
			},
			{
				"type": "unocc",
				"energy": 0.0386,
				"method": "rhf"
			}
		],
		"cosmo_sigma_profile": { 
			"0.0": 0.0,
			"0.0": 0.0,
			"0.0": 0.0,
			"0.0": 0.0,
			"0.0": 0.0,
			"0.0": 0.0,
			"0.0": 0.0,
			"0.0": 0.0,
			"0.0": 0.0,
			"0.0": 0.0,
			"0.0": 0.0,
			"0.0": 0.0,
			"0.0": 0.0,
			"0.0": 0.0,
			"0.0": 0.0,
			"0.0": 0.0,
			"0.0": 0.0,
			"0.0": 0.0,
			"0.0": 0.0,
			"0.0": 0.0,
			"0.0": 0.0,
			"0.0": 0.0,
			"0.0": 0.0,
			"0.0": 0.0,
			"0.0": 0.0,
			"0.0": 0.0,
			"0.0": 0.0,
			"0.0": 0.0,
			"0.0": 0.0,
			"0.0": 0.0,
			"0.0": 0.0,
			"0.0": 0.0,
			"0.0": 0.0,
			"0.0": 0.0,
			"0.0": 0.0,
			"0.0": 0.0,
			"0.0": 0.0,
			"0.0": 0.0,
			"0.0": 0.0,
			"0.0": 0.0,
			"0.0": 0.0,
			"0.0": 0.0,
			"0.0": 0.0,
			"0.0": 0.0,
			"0.0": 0.0,
			"0.0": 0.0,
			"0.0": 0.0,
			"0.0": 0.0,
			"0.0": 0.0,
			"0.0": 0.0,
			"0.0": 0.0
		}
	}
}
