{
	 "smiles": "COC1=C(N)C=C(C=C1)C(=O)N1CCCC1", 
	 "Tm": 411.15, 
	 "num_atms": 32, 
	 "gaussian": { 
		 "optdone": 1, 
		 "sigma_profile": "yes", 
		 "theory": "DFT", 
		 "functional": "B3LYP", 
		 "basiset": "6-31G**", 
		 "properties": { 
			 "R2extent": 5220.2146, 
			 "electric_dipole_moment_norm": 4.79357937767, 
			 "electric_quadrupole_moment_norm": 19.5790723018, 
			 "total_energy": -726.877852157, 
			 "HOMO_LUMO_gap": 0.18068, 
			 "cosmo_polarized_energy": -16.74, 
			 "cosmo_cavitation_energy": 33.95, 
			 "cosmo_dispersion_energy": -24.92, 
			 "cosmo_repulsion_energy": 1.96, 
			 "cosmo_total_nonelectrostatic_energy": 10.99, 
			 "SMD_solvation_energy": 5.62 
		},
		"coords": [
			{
				"x": -3.1771061868,
				"y": 3.0108876478,
				"z": -3.5569477334,
				"element": "C" 
			},
			{
				"x": -3.0665810549,
				"y": 1.7061275598,
				"z": -3.0121612611,
				"element": "O" 
			},
			{
				"x": -2.3909106157,
				"y": 1.553126344,
				"z": -1.8281374693,
				"element": "C" 
			},
			{
				"x": -2.3456152313,
				"y": 0.2209675341,
				"z": -1.3500627028,
				"element": "C" 
			},
			{
				"x": -3.0391046989,
				"y": -0.7725260168,
				"z": -2.0411151901,
				"element": "N" 
			},
			{
				"x": -1.6533070925,
				"y": -0.0362968853,
				"z": -0.1648947965,
				"element": "C" 
			},
			{
				"x": -1.0265559661,
				"y": 0.9936544896,
				"z": 0.5546740561,
				"element": "C" 
			},
			{
				"x": -1.1139907086,
				"y": 2.3054463974,
				"z": 0.0831416112,
				"element": "C" 
			},
			{
				"x": -1.7817306394,
				"y": 2.581670009,
				"z": -1.1118236751,
				"element": "C" 
			},
			{
				"x": -0.3343203824,
				"y": 0.778943728,
				"z": 1.8694361152,
				"element": "C" 
			},
			{
				"x": -0.3900758324,
				"y": 1.6325361273,
				"z": 2.7564462261,
				"element": "O" 
			},
			{
				"x": 0.3562024981,
				"y": -0.3923286168,
				"z": 2.076080081,
				"element": "N" 
			},
			{
				"x": 0.9111827266,
				"y": -1.2930878377,
				"z": 1.0509746281,
				"element": "C" 
			},
			{
				"x": 2.2487104135,
				"y": -1.7453261042,
				"z": 1.6554277623,
				"element": "C" 
			},
			{
				"x": 1.941281883,
				"y": -1.7857529294,
				"z": 3.1607284884,
				"element": "C" 
			},
			{
				"x": 1.0496165174,
				"y": -0.5536173987,
				"z": 3.3680511641,
				"element": "C" 
			},
			{
				"x": -2.1921002288,
				"y": 3.4381207114,
				"z": -3.7852627042,
				"element": "H" 
			},
			{
				"x": -3.7113061924,
				"y": 3.6861070197,
				"z": -2.8768303551,
				"element": "H" 
			},
			{
				"x": -3.7472674983,
				"y": 2.9069211053,
				"z": -4.4815546007,
				"element": "H" 
			},
			{
				"x": -3.2423084034,
				"y": -0.5353667353,
				"z": -3.0022137955,
				"element": "H" 
			},
			{
				"x": -2.6684384334,
				"y": -1.7061390819,
				"z": -1.9347520661,
				"element": "H" 
			},
			{
				"x": -1.6431603597,
				"y": -1.0531985075,
				"z": 0.2159451611,
				"element": "H" 
			},
			{
				"x": -0.6641224963,
				"y": 3.1029053599,
				"z": 0.6631996582,
				"element": "H" 
			},
			{
				"x": -1.825285441,
				"y": 3.6018735389,
				"z": -1.4752655352,
				"element": "H" 
			},
			{
				"x": 0.2568728556,
				"y": -2.1623358712,
				"z": 0.8917364033,
				"element": "H" 
			},
			{
				"x": 1.0188907979,
				"y": -0.7787934059,
				"z": 0.0935684047,
				"element": "H" 
			},
			{
				"x": 2.5870921509,
				"y": -2.7038054568,
				"z": 1.2514512225,
				"element": "H" 
			},
			{
				"x": 3.023448249,
				"y": -0.9981207012,
				"z": 1.4479214117,
				"element": "H" 
			},
			{
				"x": 2.8372160853,
				"y": -1.7584626691,
				"z": 3.7867406055,
				"element": "H" 
			},
			{
				"x": 1.3914141924,
				"y": -2.7019633264,
				"z": 3.4063319927,
				"element": "H" 
			},
			{
				"x": 0.3271263611,
				"y": -0.6706279051,
				"z": 4.181379724,
				"element": "H" 
			},
			{
				"x": 1.6322327315,
				"y": 0.3494618772,
				"z": 3.5856871686,
				"element": "H" 
			}
		],
		 "valence_orbital": [ 
			{
				"type": "occ",
				"energy": -0.30006,
				"method": "rhf"
			},
			{
				"type": "occ",
				"energy": -0.23657,
				"method": "rhf"
			},
			{
				"type": "occ",
				"energy": -0.22819,
				"method": "rhf"
			},
			{
				"type": "occ",
				"energy": -0.22445,
				"method": "rhf"
			},
			{
				"type": "occ",
				"energy": -0.19032,
				"method": "rhf"
			},
			{
				"type": "unocc",
				"energy": -0.00964,
				"method": "rhf"
			},
			{
				"type": "unocc",
				"energy": 0.01436,
				"method": "rhf"
			},
			{
				"type": "unocc",
				"energy": 0.07119,
				"method": "rhf"
			},
			{
				"type": "unocc",
				"energy": 0.08229,
				"method": "rhf"
			},
			{
				"type": "unocc",
				"energy": 0.08678,
				"method": "rhf"
			}
		],
		"cosmo_sigma_profile": { 
			"-0.025": 0.0,
			"-0.024": 0.0,
			"-0.023": 0.0,
			"-0.022": 0.0,
			"-0.021": 0.0,
			"-0.02": 0.0,
			"-0.019": 0.0,
			"-0.018": 0.0,
			"-0.017": 0.0,
			"-0.016": 0.0,
			"-0.015": 0.0,
			"-0.014": 0.0,
			"-0.013": 0.245623083756,
			"-0.012": 1.09861364324,
			"-0.011": 1.9366606207,
			"-0.01": 2.18734063784,
			"-0.009": 2.60259112174,
			"-0.008": 2.57115831199,
			"-0.007": 2.74513868833,
			"-0.006": 8.88308152123,
			"-0.005": 15.4946923227,
			"-0.004": 24.8530240973,
			"-0.003": 36.2567326368,
			"-0.002": 31.7876831749,
			"-0.001": 23.5276780487,
			"0.0": 18.1155354001,
			"0.001": 10.9371884966,
			"0.002": 10.7287255913,
			"0.003": 11.6004533,
			"0.004": 11.5919286276,
			"0.005": 11.9543118619,
			"0.006": 8.20311194129,
			"0.007": 4.73856932837,
			"0.008": 3.30315604202,
			"0.009": 2.54146978738,
			"0.01": 2.92257986683,
			"0.011": 1.92069674111,
			"0.012": 2.14684059486,
			"0.013": 2.72526406918,
			"0.014": 4.75075603645,
			"0.015": 3.98097368415,
			"0.016": 0.382601447543,
			"0.017": 0.0,
			"0.018": 0.0,
			"0.019": 0.0,
			"0.02": 0.0,
			"0.021": 0.0,
			"0.022": 0.0,
			"0.023": 0.0,
			"0.024": 0.0,
			"0.025": 0.0
		}
	}
}
