{
	 "smiles": "COC(=O)C1=CC=C(N)C(O)=C1", 
	 "Tm": 393.15, 
	 "num_atms": 21, 
	 "gaussian": { 
		 "optdone": 1, 
		 "sigma_profile": "yes", 
		 "theory": "DFT", 
		 "functional": "B3LYP", 
		 "basiset": "6-31G**", 
		 "properties": { 
			 "R2extent": 3721.438, 
			 "electric_dipole_moment_norm": 3.327731448, 
			 "electric_quadrupole_moment_norm": 15.1987951963, 
			 "total_energy": -590.71134755, 
			 "HOMO_LUMO_gap": 0.17308, 
			 "cosmo_polarized_energy": -15.38, 
			 "cosmo_cavitation_energy": 25.49, 
			 "cosmo_dispersion_energy": -19.05, 
			 "cosmo_repulsion_energy": 1.53, 
			 "cosmo_total_nonelectrostatic_energy": 7.97, 
			 "SMD_solvation_energy": 6.2 
		},
		"coords": [
			{
				"x": 1.3875697941,
				"y": -1.0344881619,
				"z": 4.9633969985,
				"element": "C" 
			},
			{
				"x": 1.5868878155,
				"y": -1.0097190242,
				"z": 3.5444748461,
				"element": "O" 
			},
			{
				"x": 0.5322410255,
				"y": -1.4526399755,
				"z": 2.8080839932,
				"element": "C" 
			},
			{
				"x": -0.5028019014,
				"y": -1.8416701018,
				"z": 3.3181452658,
				"element": "O" 
			},
			{
				"x": 0.7960791485,
				"y": -1.4031501059,
				"z": 1.3536372594,
				"element": "C" 
			},
			{
				"x": -0.2091495152,
				"y": -1.8298344534,
				"z": 0.4783520146,
				"element": "C" 
			},
			{
				"x": -0.005529877,
				"y": -1.8020750054,
				"z": -0.8966123626,
				"element": "C" 
			},
			{
				"x": 1.2061631868,
				"y": -1.3468694796,
				"z": -1.4385305248,
				"element": "C" 
			},
			{
				"x": 1.4307438716,
				"y": -1.2562968923,
				"z": -2.7999353304,
				"element": "N" 
			},
			{
				"x": 2.2186083975,
				"y": -0.9205737357,
				"z": -0.5453706984,
				"element": "C" 
			},
			{
				"x": 3.3872971368,
				"y": -0.5001718909,
				"z": -1.1379648046,
				"element": "O" 
			},
			{
				"x": 2.0174795236,
				"y": -0.9474080017,
				"z": 0.8238561119,
				"element": "C" 
			},
			{
				"x": 2.3119434148,
				"y": -0.6535554236,
				"z": 5.3988997175,
				"element": "H" 
			},
			{
				"x": 1.192605256,
				"y": -2.0527144345,
				"z": 5.3104055406,
				"element": "H" 
			},
			{
				"x": 0.5421470417,
				"y": -0.402343347,
				"z": 5.2476572366,
				"element": "H" 
			},
			{
				"x": -1.1461848658,
				"y": -2.1816326957,
				"z": 0.8952367443,
				"element": "H" 
			},
			{
				"x": -0.7915401754,
				"y": -2.1308222457,
				"z": -1.5715313632,
				"element": "H" 
			},
			{
				"x": 2.3990231927,
				"y": -1.1782992465,
				"z": -3.0753377098,
				"element": "H" 
			},
			{
				"x": 0.8734124996,
				"y": -1.8552458062,
				"z": -3.3903712795,
				"element": "H" 
			},
			{
				"x": 4.0184910608,
				"y": -0.2517710478,
				"z": -0.4512029938,
				"element": "H" 
			},
			{
				"x": 2.8050139693,
				"y": -0.620318925,
				"z": 1.4963113386,
				"element": "H" 
			}
		],
		 "valence_orbital": [ 
			{
				"type": "occ",
				"energy": -0.30826,
				"method": "rhf"
			},
			{
				"type": "occ",
				"energy": -0.28982,
				"method": "rhf"
			},
			{
				"type": "occ",
				"energy": -0.26085,
				"method": "rhf"
			},
			{
				"type": "occ",
				"energy": -0.2373,
				"method": "rhf"
			},
			{
				"type": "occ",
				"energy": -0.19938,
				"method": "rhf"
			},
			{
				"type": "unocc",
				"energy": -0.0263,
				"method": "rhf"
			},
			{
				"type": "unocc",
				"energy": 0.00978,
				"method": "rhf"
			},
			{
				"type": "unocc",
				"energy": 0.06094,
				"method": "rhf"
			},
			{
				"type": "unocc",
				"energy": 0.07818,
				"method": "rhf"
			},
			{
				"type": "unocc",
				"energy": 0.09403,
				"method": "rhf"
			}
		],
		"cosmo_sigma_profile": { 
			"-0.025": 0.0,
			"-0.024": 0.0,
			"-0.023": 0.0,
			"-0.022": 0.0,
			"-0.021": 0.0,
			"-0.02": 0.0,
			"-0.019": 0.0,
			"-0.018": 0.42035730921,
			"-0.017": 1.24247549016,
			"-0.016": 1.33178942887,
			"-0.015": 0.39214549808,
			"-0.014": 1.51396923849,
			"-0.013": 1.90313241082,
			"-0.012": 3.01450297958,
			"-0.011": 3.31928298909,
			"-0.01": 3.9288089713,
			"-0.009": 3.34760205536,
			"-0.008": 2.34354850292,
			"-0.007": 4.330697953,
			"-0.006": 7.19328951538,
			"-0.005": 10.2238401059,
			"-0.004": 13.3910748131,
			"-0.003": 14.2045255995,
			"-0.002": 10.3836945844,
			"-0.001": 9.22129150772,
			"0.0": 8.91892850189,
			"0.001": 10.161286401,
			"0.002": 13.2863476011,
			"0.003": 15.707837532,
			"0.004": 14.9748131176,
			"0.005": 13.1079629806,
			"0.006": 9.31623356338,
			"0.007": 5.32148761363,
			"0.008": 3.30348716261,
			"0.009": 3.45695916507,
			"0.01": 2.10818895301,
			"0.011": 2.8377793844,
			"0.012": 4.55601158061,
			"0.013": 3.41987367626,
			"0.014": 0.0,
			"0.015": 0.0,
			"0.016": 0.0,
			"0.017": 0.0,
			"0.018": 0.0,
			"0.019": 0.0,
			"0.02": 0.0,
			"0.021": 0.0,
			"0.022": 0.0,
			"0.023": 0.0,
			"0.024": 0.0,
			"0.025": 0.0
		}
	}
}
