{
	 "smiles": "C1CCC(CC1)N1CCNCC1", 
	 "Tm": 303.15, 
	 "num_atms": 32, 
	 "gaussian": { 
		 "optdone": 1, 
		 "sigma_profile": "yes", 
		 "theory": "DFT", 
		 "functional": "B3LYP", 
		 "basiset": "6-31G**", 
		 "properties": { 
			 "R2extent": 2737.3535, 
			 "electric_dipole_moment_norm": 0.786478346809, 
			 "electric_quadrupole_moment_norm": 7.99935235441, 
			 "total_energy": -502.615241378, 
			 "HOMO_LUMO_gap": 0.25595, 
			 "cosmo_polarized_energy": -5.38, 
			 "cosmo_cavitation_energy": 29.43, 
			 "cosmo_dispersion_energy": -22.05, 
			 "cosmo_repulsion_energy": 1.75, 
			 "cosmo_total_nonelectrostatic_energy": 9.13, 
			 "SMD_solvation_energy": -0.36 
		},
		"coords": [
			{
				"x": -0.397414107,
				"y": 0.8336566416,
				"z": 2.717228229,
				"element": "C" 
			},
			{
				"x": 1.0076911387,
				"y": 0.6934775247,
				"z": 2.1144003561,
				"element": "C" 
			},
			{
				"x": 1.0190663246,
				"y": -0.2756649864,
				"z": 0.9213843636,
				"element": "C" 
			},
			{
				"x": 0.0032342857,
				"y": 0.1311331613,
				"z": -0.1672258704,
				"element": "C" 
			},
			{
				"x": -1.4094055888,
				"y": 0.2704820709,
				"z": 0.4535003172,
				"element": "C" 
			},
			{
				"x": -1.41792313,
				"y": 1.2426164851,
				"z": 1.6458479308,
				"element": "C" 
			},
			{
				"x": 0.128559064,
				"y": -0.7305407476,
				"z": -1.3474014043,
				"element": "N" 
			},
			{
				"x": -0.1156762928,
				"y": -0.1510706393,
				"z": -2.6652247392,
				"element": "C" 
			},
			{
				"x": -1.5379497056,
				"y": -0.392960531,
				"z": -3.2058538835,
				"element": "C" 
			},
			{
				"x": -1.9320409631,
				"y": -1.8072834936,
				"z": -3.1616132288,
				"element": "N" 
			},
			{
				"x": -1.7225905693,
				"y": -2.3702264237,
				"z": -1.8212161126,
				"element": "C" 
			},
			{
				"x": -0.3028965226,
				"y": -2.1249679825,
				"z": -1.2699373784,
				"element": "C" 
			},
			{
				"x": -0.3908291381,
				"y": 1.563249031,
				"z": 3.5360239091,
				"element": "H" 
			},
			{
				"x": -0.7004956191,
				"y": -0.1272380509,
				"z": 3.1574338173,
				"element": "H" 
			},
			{
				"x": 1.3561244529,
				"y": 1.6816807964,
				"z": 1.7809502529,
				"element": "H" 
			},
			{
				"x": 1.7197334405,
				"y": 0.3567621642,
				"z": 2.877538778,
				"element": "H" 
			},
			{
				"x": 2.0153346215,
				"y": -0.3274732056,
				"z": 0.4692095226,
				"element": "H" 
			},
			{
				"x": 0.785068513,
				"y": -1.2863966905,
				"z": 1.2839209021,
				"element": "H" 
			},
			{
				"x": 0.3002301192,
				"y": 1.1323648625,
				"z": -0.5118854909,
				"element": "H" 
			},
			{
				"x": -1.7527213831,
				"y": -0.7164284987,
				"z": 0.793971808,
				"element": "H" 
			},
			{
				"x": -2.1220542709,
				"y": 0.6060372749,
				"z": -0.3085845216,
				"element": "H" 
			},
			{
				"x": -2.4247057697,
				"y": 1.2992666949,
				"z": 2.0771621024,
				"element": "H" 
			},
			{
				"x": -1.1777361173,
				"y": 2.2542921539,
				"z": 1.2878084656,
				"element": "H" 
			},
			{
				"x": 0.5940641066,
				"y": -0.6047636033,
				"z": -3.3794329414,
				"element": "H" 
			},
			{
				"x": 0.1114046273,
				"y": 0.9208187553,
				"z": -2.6325334448,
				"element": "H" 
			},
			{
				"x": -2.2672108044,
				"y": 0.1764313325,
				"z": -2.6145362151,
				"element": "H" 
			},
			{
				"x": -1.615824882,
				"y": -0.0392641409,
				"z": -4.2415621702,
				"element": "H" 
			},
			{
				"x": -1.3555411334,
				"y": -2.3245177775,
				"z": -3.8253323732,
				"element": "H" 
			},
			{
				"x": -2.4666833926,
				"y": -1.9198108462,
				"z": -1.152536967,
				"element": "H" 
			},
			{
				"x": -1.9309455791,
				"y": -3.4468134517,
				"z": -1.8578930606,
				"element": "H" 
			},
			{
				"x": -0.2282658513,
				"y": -2.4763985595,
				"z": -0.235810107,
				"element": "H" 
			},
			{
				"x": 0.4002001263,
				"y": -2.7380493203,
				"z": -1.8599008459,
				"element": "H" 
			}
		],
		 "valence_orbital": [ 
			{
				"type": "occ",
				"energy": -0.31211,
				"method": "rhf"
			},
			{
				"type": "occ",
				"energy": -0.3039,
				"method": "rhf"
			},
			{
				"type": "occ",
				"energy": -0.29477,
				"method": "rhf"
			},
			{
				"type": "occ",
				"energy": -0.23267,
				"method": "rhf"
			},
			{
				"type": "occ",
				"energy": -0.17606,
				"method": "rhf"
			},
			{
				"type": "unocc",
				"energy": 0.07989,
				"method": "rhf"
			},
			{
				"type": "unocc",
				"energy": 0.09248,
				"method": "rhf"
			},
			{
				"type": "unocc",
				"energy": 0.0952,
				"method": "rhf"
			},
			{
				"type": "unocc",
				"energy": 0.10859,
				"method": "rhf"
			},
			{
				"type": "unocc",
				"energy": 0.1196,
				"method": "rhf"
			}
		],
		"cosmo_sigma_profile": { 
			"-0.025": 0.0,
			"-0.024": 0.0,
			"-0.023": 0.0,
			"-0.022": 0.0,
			"-0.021": 0.0,
			"-0.02": 0.0,
			"-0.019": 0.0,
			"-0.018": 0.0,
			"-0.017": 0.0,
			"-0.016": 0.0,
			"-0.015": 0.0,
			"-0.014": 0.0,
			"-0.013": 0.0,
			"-0.012": 0.0,
			"-0.011": 0.0,
			"-0.01": 0.0,
			"-0.009": 0.834122692678,
			"-0.008": 1.37410250741,
			"-0.007": 1.54948703794,
			"-0.006": 1.32053507531,
			"-0.005": 2.36145205902,
			"-0.004": 5.16946981356,
			"-0.003": 19.7270824953,
			"-0.002": 40.7951876808,
			"-0.001": 46.1975122547,
			"0.0": 39.4217169388,
			"0.001": 30.3862213066,
			"0.002": 11.8787141759,
			"0.003": 3.41579502715,
			"0.004": 3.2991512494,
			"0.005": 2.04851697123,
			"0.006": 1.37450237673,
			"0.007": 1.53224254724,
			"0.008": 1.30931220855,
			"0.009": 1.70312208164,
			"0.01": 1.89591421,
			"0.011": 1.17417659422,
			"0.012": 1.32150149881,
			"0.013": 1.11203048745,
			"0.014": 0.766256399164,
			"0.015": 0.366613978252,
			"0.016": 0.890620323055,
			"0.017": 0.601665114296,
			"0.018": 0.59568990133,
			"0.019": 0.510897798457,
			"0.02": 0.0,
			"0.021": 0.0,
			"0.022": 0.0,
			"0.023": 0.0,
			"0.024": 0.0,
			"0.025": 0.0
		}
	}
}
