{
	 "smiles": "NC(CCN1CCOCC1)=NO", 
	 "Tm": 433.15, 
	 "num_atms": 27, 
	 "gaussian": { 
		 "optdone": 1, 
		 "sigma_profile": "yes", 
		 "theory": "DFT", 
		 "functional": "B3LYP", 
		 "basiset": "6-31G**", 
		 "properties": { 
			 "R2extent": 3932.4679, 
			 "electric_dipole_moment_norm": 1.56145485045, 
			 "electric_quadrupole_moment_norm": 8.90277132583, 
			 "total_energy": -590.401514042, 
			 "HOMO_LUMO_gap": 0.24332, 
			 "cosmo_polarized_energy": -15.39, 
			 "cosmo_cavitation_energy": 28.78, 
			 "cosmo_dispersion_energy": -21.28, 
			 "cosmo_repulsion_energy": 1.74, 
			 "cosmo_total_nonelectrostatic_energy": 9.24, 
			 "SMD_solvation_energy": 2.03 
		},
		"coords": [
			{
				"x": -1.9127690471,
				"y": -3.845550512,
				"z": -0.5704087195,
				"element": "N" 
			},
			{
				"x": -0.6751227416,
				"y": -3.5215895451,
				"z": -1.0869318064,
				"element": "C" 
			},
			{
				"x": -0.2189044377,
				"y": -2.0900486204,
				"z": -0.9934185358,
				"element": "C" 
			},
			{
				"x": -0.0128680791,
				"y": -1.6279611733,
				"z": 0.4626635095,
				"element": "C" 
			},
			{
				"x": 0.5285369088,
				"y": -0.2745134148,
				"z": 0.535458675,
				"element": "N" 
			},
			{
				"x": 1.1406322021,
				"y": 0.0680555545,
				"z": 1.8329064236,
				"element": "C" 
			},
			{
				"x": 0.2263239205,
				"y": 0.9204521998,
				"z": 2.7122992231,
				"element": "C" 
			},
			{
				"x": -0.1177856815,
				"y": 2.154269262,
				"z": 2.0796930823,
				"element": "O" 
			},
			{
				"x": -0.0575604637,
				"y": 2.1134155313,
				"z": 0.656529034,
				"element": "C" 
			},
			{
				"x": -0.4334147495,
				"y": 0.746078732,
				"z": 0.0967717055,
				"element": "C" 
			},
			{
				"x": 0.1531636785,
				"y": -4.3781492901,
				"z": -1.5824875723,
				"element": "N" 
			},
			{
				"x": -0.4479886577,
				"y": -5.6774868983,
				"z": -1.5711356005,
				"element": "O" 
			},
			{
				"x": -2.61355554,
				"y": -3.1197294712,
				"z": -0.5826853639,
				"element": "H" 
			},
			{
				"x": -2.2412260803,
				"y": -4.767182283,
				"z": -0.8254158331,
				"element": "H" 
			},
			{
				"x": 0.7244328644,
				"y": -1.9952129814,
				"z": -1.5355330266,
				"element": "H" 
			},
			{
				"x": -0.9555946177,
				"y": -1.447498477,
				"z": -1.4944547811,
				"element": "H" 
			},
			{
				"x": -0.9655377993,
				"y": -1.7314227395,
				"z": 1.0189384544,
				"element": "H" 
			},
			{
				"x": 0.7040051843,
				"y": -2.3110609111,
				"z": 0.9293647238,
				"element": "H" 
			},
			{
				"x": 1.4074069559,
				"y": -0.852080845,
				"z": 2.361929391,
				"element": "H" 
			},
			{
				"x": 2.0770326155,
				"y": 0.6170662658,
				"z": 1.6637819933,
				"element": "H" 
			},
			{
				"x": -0.6888499549,
				"y": 0.3578665183,
				"z": 2.9574322596,
				"element": "H" 
			},
			{
				"x": 0.7224063851,
				"y": 1.1712846919,
				"z": 3.6572279703,
				"element": "H" 
			},
			{
				"x": -0.7559258977,
				"y": 2.8734112367,
				"z": 0.291742049,
				"element": "H" 
			},
			{
				"x": 0.9487302456,
				"y": 2.3882895107,
				"z": 0.3031173741,
				"element": "H" 
			},
			{
				"x": -1.4628269837,
				"y": 0.5063868636,
				"z": 0.4287278453,
				"element": "H" 
			},
			{
				"x": -0.456542071,
				"y": 0.8005125871,
				"z": -0.9991721948,
				"element": "H" 
			},
			{
				"x": 0.2218018419,
				"y": -6.2060017915,
				"z": -2.0205402795,
				"element": "H" 
			}
		],
		 "valence_orbital": [ 
			{
				"type": "occ",
				"energy": -0.29884,
				"method": "rhf"
			},
			{
				"type": "occ",
				"energy": -0.26666,
				"method": "rhf"
			},
			{
				"type": "occ",
				"energy": -0.24512,
				"method": "rhf"
			},
			{
				"type": "occ",
				"energy": -0.21466,
				"method": "rhf"
			},
			{
				"type": "occ",
				"energy": -0.20369,
				"method": "rhf"
			},
			{
				"type": "unocc",
				"energy": 0.03963,
				"method": "rhf"
			},
			{
				"type": "unocc",
				"energy": 0.07231,
				"method": "rhf"
			},
			{
				"type": "unocc",
				"energy": 0.07961,
				"method": "rhf"
			},
			{
				"type": "unocc",
				"energy": 0.09578,
				"method": "rhf"
			},
			{
				"type": "unocc",
				"energy": 0.11055,
				"method": "rhf"
			}
		],
		"cosmo_sigma_profile": { 
			"-0.025": 0.0,
			"-0.024": 0.0,
			"-0.023": 0.0,
			"-0.022": 0.0,
			"-0.021": 0.0,
			"-0.02": 0.0,
			"-0.019": 0.0,
			"-0.018": 0.0,
			"-0.017": 0.12723851739,
			"-0.016": 0.696155608979,
			"-0.015": 0.986726544589,
			"-0.014": 0.825451978212,
			"-0.013": 2.09332008012,
			"-0.012": 1.60764548286,
			"-0.011": 2.63295224314,
			"-0.01": 2.90041732367,
			"-0.009": 3.60931602103,
			"-0.008": 2.69040166048,
			"-0.007": 2.291424151,
			"-0.006": 3.32498421779,
			"-0.005": 11.4905660422,
			"-0.004": 20.7770903233,
			"-0.003": 31.1994243295,
			"-0.002": 28.3808026845,
			"-0.001": 17.281538239,
			"0.0": 11.1434364699,
			"0.001": 8.5002784247,
			"0.002": 5.32607680312,
			"0.003": 5.83309543895,
			"0.004": 7.24519801491,
			"0.005": 4.89806534582,
			"0.006": 5.32756790727,
			"0.007": 6.17386786168,
			"0.008": 6.79972305718,
			"0.009": 5.83495518514,
			"0.01": 7.00313153606,
			"0.011": 4.09925923182,
			"0.012": 3.21849725104,
			"0.013": 3.46846799109,
			"0.014": 2.94560840384,
			"0.015": 1.4540501767,
			"0.016": 0.333621322169,
			"0.017": 0.0,
			"0.018": 0.0,
			"0.019": 0.0,
			"0.02": 0.0,
			"0.021": 0.0,
			"0.022": 0.0,
			"0.023": 0.0,
			"0.024": 0.0,
			"0.025": 0.0
		}
	}
}
