{
	 "smiles": "OCC(NC(=O)CC1=CC=CC=C1)C1=CC=CC=C1", 
	 "Tm": 413.15, 
	 "num_atms": 36, 
	 "gaussian": { 
		 "optdone": 1, 
		 "sigma_profile": "yes", 
		 "theory": "DFT", 
		 "functional": "B3LYP", 
		 "basiset": "6-31G**", 
		 "properties": { 
			 "R2extent": 6179.99, 
			 "electric_dipole_moment_norm": 4.8985580511, 
			 "electric_quadrupole_moment_norm": 11.3678908154, 
			 "total_energy": -825.155258096, 
			 "HOMO_LUMO_gap": 0.22098, 
			 "cosmo_polarized_energy": -18.33, 
			 "cosmo_cavitation_energy": 39.42, 
			 "cosmo_dispersion_energy": -26.88, 
			 "cosmo_repulsion_energy": 2.12, 
			 "cosmo_total_nonelectrostatic_energy": 14.67, 
			 "SMD_solvation_energy": 6.37 
		},
		"coords": [
			{
				"x": -1.7707838899,
				"y": -3.3352831885,
				"z": 1.4980699974,
				"element": "O" 
			},
			{
				"x": -1.686849678,
				"y": -2.2751103755,
				"z": 0.5606223005,
				"element": "C" 
			},
			{
				"x": -0.570166916,
				"y": -1.2760003234,
				"z": 0.947153071,
				"element": "C" 
			},
			{
				"x": -0.2805431695,
				"y": -0.3236850237,
				"z": -0.1391547518,
				"element": "N" 
			},
			{
				"x": -1.1947749359,
				"y": 0.3884569172,
				"z": -0.8518189093,
				"element": "C" 
			},
			{
				"x": -2.4111331798,
				"y": 0.2766727214,
				"z": -0.7302311931,
				"element": "O" 
			},
			{
				"x": -0.6219029893,
				"y": 1.3978596387,
				"z": -1.8698789326,
				"element": "C" 
			},
			{
				"x": 0.8702152878,
				"y": 1.3956538234,
				"z": -2.1083696312,
				"element": "C" 
			},
			{
				"x": 1.4387217557,
				"y": 0.5741369816,
				"z": -3.0939586581,
				"element": "C" 
			},
			{
				"x": 2.8178969341,
				"y": 0.5551492981,
				"z": -3.3025453949,
				"element": "C" 
			},
			{
				"x": 3.6562661748,
				"y": 1.357015106,
				"z": -2.5246206767,
				"element": "C" 
			},
			{
				"x": 3.1055273878,
				"y": 2.1782380792,
				"z": -1.5393829722,
				"element": "C" 
			},
			{
				"x": 1.7243735723,
				"y": 2.1969810105,
				"z": -1.3348020566,
				"element": "C" 
			},
			{
				"x": -0.8037222965,
				"y": -0.602971201,
				"z": 2.2944565326,
				"element": "C" 
			},
			{
				"x": 0.0470645752,
				"y": -0.8814391051,
				"z": 3.3694429806,
				"element": "C" 
			},
			{
				"x": -0.1506183701,
				"y": -0.2830925218,
				"z": 4.6157651283,
				"element": "C" 
			},
			{
				"x": -1.2073900477,
				"y": 0.6080180464,
				"z": 4.7992427828,
				"element": "C" 
			},
			{
				"x": -2.0630674346,
				"y": 0.8927818423,
				"z": 3.7316946514,
				"element": "C" 
			},
			{
				"x": -1.8672915638,
				"y": 0.2920693085,
				"z": 2.4886463628,
				"element": "C" 
			},
			{
				"x": -0.9641988426,
				"y": -3.8627425343,
				"z": 1.432502494,
				"element": "H" 
			},
			{
				"x": -2.656399478,
				"y": -1.780029642,
				"z": 0.5560405178,
				"element": "H" 
			},
			{
				"x": -1.4930742646,
				"y": -2.6384683635,
				"z": -0.4601055591,
				"element": "H" 
			},
			{
				"x": 0.3480181194,
				"y": -1.8723082193,
				"z": 1.0381447915,
				"element": "H" 
			},
			{
				"x": 0.688524133,
				"y": -0.0697217945,
				"z": -0.2694259619,
				"element": "H" 
			},
			{
				"x": -0.9541872933,
				"y": 2.3819795465,
				"z": -1.5203575986,
				"element": "H" 
			},
			{
				"x": -1.166748398,
				"y": 1.2092620218,
				"z": -2.8001248926,
				"element": "H" 
			},
			{
				"x": 0.7912780427,
				"y": -0.0503233992,
				"z": -3.7047333265,
				"element": "H" 
			},
			{
				"x": 3.2378658742,
				"y": -0.0829905443,
				"z": -4.0749192888,
				"element": "H" 
			},
			{
				"x": 4.7298637005,
				"y": 1.3449041856,
				"z": -2.6883856709,
				"element": "H" 
			},
			{
				"x": 3.7489034629,
				"y": 2.8101076152,
				"z": -0.9336998384,
				"element": "H" 
			},
			{
				"x": 1.3009314737,
				"y": 2.8459457394,
				"z": -0.5717963732,
				"element": "H" 
			},
			{
				"x": 0.8736761452,
				"y": -1.5755317105,
				"z": 3.2329182691,
				"element": "H" 
			},
			{
				"x": 0.5202175142,
				"y": -0.5132252941,
				"z": 5.4388685393,
				"element": "H" 
			},
			{
				"x": -1.3655797192,
				"y": 1.0766038573,
				"z": 5.7665251866,
				"element": "H" 
			},
			{
				"x": -2.8903374934,
				"y": 1.5837737804,
				"z": 3.8687945806,
				"element": "H" 
			},
			{
				"x": -2.5342741931,
				"y": 0.5144137211,
				"z": 1.6619235003,
				"element": "H" 
			}
		],
		 "valence_orbital": [ 
			{
				"type": "occ",
				"energy": -0.26245,
				"method": "rhf"
			},
			{
				"type": "occ",
				"energy": -0.24979,
				"method": "rhf"
			},
			{
				"type": "occ",
				"energy": -0.24394,
				"method": "rhf"
			},
			{
				"type": "occ",
				"energy": -0.23769,
				"method": "rhf"
			},
			{
				"type": "occ",
				"energy": -0.23649,
				"method": "rhf"
			},
			{
				"type": "unocc",
				"energy": -0.01551,
				"method": "rhf"
			},
			{
				"type": "unocc",
				"energy": -0.01427,
				"method": "rhf"
			},
			{
				"type": "unocc",
				"energy": -0.00118,
				"method": "rhf"
			},
			{
				"type": "unocc",
				"energy": 0.00521,
				"method": "rhf"
			},
			{
				"type": "unocc",
				"energy": 0.03003,
				"method": "rhf"
			}
		],
		"cosmo_sigma_profile": { 
			"-0.025": 0.0,
			"-0.024": 0.0,
			"-0.023": 0.0,
			"-0.022": 0.0,
			"-0.021": 0.0,
			"-0.02": 0.0,
			"-0.019": 0.0,
			"-0.018": 0.0,
			"-0.017": 0.0,
			"-0.016": 0.288317879693,
			"-0.015": 1.22923031822,
			"-0.014": 1.12379947991,
			"-0.013": 0.655867691491,
			"-0.012": 2.16579293638,
			"-0.011": 1.95227649072,
			"-0.01": 1.35417785499,
			"-0.009": 2.00681696676,
			"-0.008": 2.37770189297,
			"-0.007": 4.02103714394,
			"-0.006": 18.3479926282,
			"-0.005": 27.7766970365,
			"-0.004": 27.6502074367,
			"-0.003": 28.2363057875,
			"-0.002": 19.4754453345,
			"-0.001": 20.649080303,
			"0.0": 18.9904737559,
			"0.001": 19.3151729611,
			"0.002": 17.4411384623,
			"0.003": 16.8877681498,
			"0.004": 18.2080612648,
			"0.005": 18.4198001597,
			"0.006": 13.8433874722,
			"0.007": 4.80870827903,
			"0.008": 3.13797486481,
			"0.009": 3.29095910149,
			"0.01": 2.84762502276,
			"0.011": 1.999156289,
			"0.012": 3.56798974445,
			"0.013": 3.68330286872,
			"0.014": 4.77387903872,
			"0.015": 1.86109897697,
			"0.016": 0.00242258174675,
			"0.017": 0.0,
			"0.018": 0.0,
			"0.019": 0.0,
			"0.02": 0.0,
			"0.021": 0.0,
			"0.022": 0.0,
			"0.023": 0.0,
			"0.024": 0.0,
			"0.025": 0.0
		}
	}
}
