{
	 "smiles": "COC1=CC=C(Br)C=C1C#N", 
	 "Tm": 364.15, 
	 "num_atms": 17, 
	 "gaussian": { 
		 "optdone": 1, 
		 "sigma_profile": "yes", 
		 "theory": "DFT", 
		 "functional": "B3LYP", 
		 "basiset": "6-31G**", 
		 "properties": { 
			 "R2extent": 3694.1446, 
			 "electric_dipole_moment_norm": 5.29517444661, 
			 "electric_quadrupole_moment_norm": 13.5722300824, 
			 "total_energy": -3009.81471992, 
			 "HOMO_LUMO_gap": 0.18079, 
			 "cosmo_polarized_energy": -11.42, 
			 "cosmo_cavitation_energy": 24.91, 
			 "cosmo_dispersion_energy": -18.16, 
			 "cosmo_repulsion_energy": 1.47, 
			 "cosmo_total_nonelectrostatic_energy": 8.22, 
			 "SMD_solvation_energy": 5.34 
		},
		"coords": [
			{
				"x": -1.6990240934,
				"y": 2.1163100133,
				"z": 1.1779751395,
				"element": "C" 
			},
			{
				"x": -1.6504856786,
				"y": 0.9183927359,
				"z": 0.4105065038,
				"element": "O" 
			},
			{
				"x": -0.461689692,
				"y": 0.508743431,
				"z": -0.0844987386,
				"element": "C" 
			},
			{
				"x": 0.7556451917,
				"y": 1.1753154854,
				"z": 0.0962182912,
				"element": "C" 
			},
			{
				"x": 1.9289367372,
				"y": 0.6644475713,
				"z": -0.4598570257,
				"element": "C" 
			},
			{
				"x": 1.8971861113,
				"y": -0.5151602484,
				"z": -1.2005092385,
				"element": "C" 
			},
			{
				"x": 3.5069808175,
				"y": -1.2049701337,
				"z": -1.9566966855,
				"element": "Br" 
			},
			{
				"x": 0.6995449018,
				"y": -1.1952214997,
				"z": -1.3936444096,
				"element": "C" 
			},
			{
				"x": -0.4841980129,
				"y": -0.6894036899,
				"z": -0.8386605338,
				"element": "C" 
			},
			{
				"x": -1.717254521,
				"y": -1.3886389598,
				"z": -1.0369742845,
				"element": "C" 
			},
			{
				"x": -2.7044225721,
				"y": -1.9776152135,
				"z": -1.214257075,
				"element": "N" 
			},
			{
				"x": -1.0814426505,
				"y": 2.0379542835,
				"z": 2.0807489955,
				"element": "H" 
			},
			{
				"x": -2.7434793315,
				"y": 2.2409360971,
				"z": 1.4635376771,
				"element": "H" 
			},
			{
				"x": -1.3769441763,
				"y": 2.9824947386,
				"z": 0.5876148525,
				"element": "H" 
			},
			{
				"x": 0.8012015407,
				"y": 2.0935098103,
				"z": 0.6684945974,
				"element": "H" 
			},
			{
				"x": 2.8669238196,
				"y": 1.1881827997,
				"z": -0.3141835314,
				"element": "H" 
			},
			{
				"x": 0.6691216084,
				"y": -2.112777221,
				"z": -1.9686145343,
				"element": "H" 
			}
		],
		 "valence_orbital": [ 
			{
				"type": "occ",
				"energy": -0.32964,
				"method": "rhf"
			},
			{
				"type": "occ",
				"energy": -0.30534,
				"method": "rhf"
			},
			{
				"type": "occ",
				"energy": -0.29824,
				"method": "rhf"
			},
			{
				"type": "occ",
				"energy": -0.27734,
				"method": "rhf"
			},
			{
				"type": "occ",
				"energy": -0.23928,
				"method": "rhf"
			},
			{
				"type": "unocc",
				"energy": -0.05849,
				"method": "rhf"
			},
			{
				"type": "unocc",
				"energy": -0.0224,
				"method": "rhf"
			},
			{
				"type": "unocc",
				"energy": -0.00628,
				"method": "rhf"
			},
			{
				"type": "unocc",
				"energy": 0.03531,
				"method": "rhf"
			},
			{
				"type": "unocc",
				"energy": 0.07086,
				"method": "rhf"
			}
		],
		"cosmo_sigma_profile": { 
			"-0.025": 0.0,
			"-0.024": 0.0,
			"-0.023": 0.0,
			"-0.022": 0.0,
			"-0.021": 0.0,
			"-0.02": 0.0,
			"-0.019": 0.0,
			"-0.018": 0.0,
			"-0.017": 0.0,
			"-0.016": 0.0,
			"-0.015": 0.0,
			"-0.014": 0.0,
			"-0.013": 0.0,
			"-0.012": 0.0,
			"-0.011": 0.0,
			"-0.01": 0.0,
			"-0.009": 1.34731998405,
			"-0.008": 6.83036820159,
			"-0.007": 9.71033390615,
			"-0.006": 14.1948677209,
			"-0.005": 12.3447014306,
			"-0.004": 14.2821439112,
			"-0.003": 10.2126336502,
			"-0.002": 11.4551190433,
			"-0.001": 16.2471509252,
			"0.0": 17.2106673538,
			"0.001": 20.157631259,
			"0.002": 12.6095866151,
			"0.003": 9.4801037561,
			"0.004": 14.4835335443,
			"0.005": 6.22513821007,
			"0.006": 3.80083026949,
			"0.007": 5.2441510267,
			"0.008": 5.26332175971,
			"0.009": 3.53905211827,
			"0.01": 3.10339048234,
			"0.011": 2.79719517286,
			"0.012": 2.44994573751,
			"0.013": 1.34768901483,
			"0.014": 0.0394806977869,
			"0.015": 0.0,
			"0.016": 0.0,
			"0.017": 0.0,
			"0.018": 0.0,
			"0.019": 0.0,
			"0.02": 0.0,
			"0.021": 0.0,
			"0.022": 0.0,
			"0.023": 0.0,
			"0.024": 0.0,
			"0.025": 0.0
		}
	}
}
