{
	 "smiles": "O=C(NC1=C(C#N)C2=C(CCCC2)S1)C1=CC=CC=C1", 
	 "Tm": 383.15, 
	 "num_atms": 34, 
	 "gaussian": { 
		 "optdone": 1, 
		 "sigma_profile": "yes", 
		 "theory": "DFT", 
		 "functional": "B3LYP", 
		 "basiset": "6-31G**", 
		 "properties": { 
			 "R2extent": 6569.8148, 
			 "electric_dipole_moment_norm": 6.14638425336, 
			 "electric_quadrupole_moment_norm": 13.2942608038, 
			 "total_energy": -1201.05237954, 
			 "HOMO_LUMO_gap": 0.17687, 
			 "cosmo_polarized_energy": -16.22, 
			 "cosmo_cavitation_energy": 39.44, 
			 "cosmo_dispersion_energy": -27.04, 
			 "cosmo_repulsion_energy": 2.07, 
			 "cosmo_total_nonelectrostatic_energy": 14.47, 
			 "SMD_solvation_energy": 6.99 
		},
		"coords": [
			{
				"x": 3.1031507218,
				"y": 2.8013968939,
				"z": -1.9847619131,
				"element": "O" 
			},
			{
				"x": 2.2060624606,
				"y": 2.4645583479,
				"z": -1.2284445135,
				"element": "C" 
			},
			{
				"x": 0.9498310659,
				"y": 2.1555104483,
				"z": -1.770401356,
				"element": "N" 
			},
			{
				"x": -0.060036126,
				"y": 1.3517748689,
				"z": -1.2388629499,
				"element": "C" 
			},
			{
				"x": 0.0274073446,
				"y": 0.0912384272,
				"z": -0.6780366719,
				"element": "C" 
			},
			{
				"x": 1.2428615016,
				"y": -0.6458206924,
				"z": -0.5887363328,
				"element": "C" 
			},
			{
				"x": 2.2188777268,
				"y": -1.2765475891,
				"z": -0.5179737407,
				"element": "N" 
			},
			{
				"x": -1.2446046861,
				"y": -0.42813675,
				"z": -0.2348737416,
				"element": "C" 
			},
			{
				"x": -2.2765592413,
				"y": 0.4344498575,
				"z": -0.4821689721,
				"element": "C" 
			},
			{
				"x": -3.7271371721,
				"y": 0.1612806554,
				"z": -0.18882349,
				"element": "C" 
			},
			{
				"x": -3.8528203419,
				"y": -1.0276771023,
				"z": 0.7834258742,
				"element": "C" 
			},
			{
				"x": -2.9341350116,
				"y": -2.1882978305,
				"z": 0.3728260327,
				"element": "C" 
			},
			{
				"x": -1.4524654148,
				"y": -1.7758556784,
				"z": 0.411194582,
				"element": "C" 
			},
			{
				"x": -1.7171747746,
				"y": 1.9137890066,
				"z": -1.2288493593,
				"element": "S" 
			},
			{
				"x": 2.383709353,
				"y": 2.429348073,
				"z": 0.2559644604,
				"element": "C" 
			},
			{
				"x": 1.3679910316,
				"y": 2.7777113354,
				"z": 1.1575059261,
				"element": "C" 
			},
			{
				"x": 1.62989999,
				"y": 2.8059104689,
				"z": 2.5270020234,
				"element": "C" 
			},
			{
				"x": 2.9000957944,
				"y": 2.4772071368,
				"z": 3.0048274916,
				"element": "C" 
			},
			{
				"x": 3.9168713416,
				"y": 2.1368747396,
				"z": 2.108935452,
				"element": "C" 
			},
			{
				"x": 3.6640603476,
				"y": 2.1255147268,
				"z": 0.7398035063,
				"element": "C" 
			},
			{
				"x": 0.9339833279,
				"y": 2.3222313849,
				"z": -2.7714487414,
				"element": "H" 
			},
			{
				"x": -4.2140688962,
				"y": 1.0487789319,
				"z": 0.2324009263,
				"element": "H" 
			},
			{
				"x": -4.2574008915,
				"y": -0.0647282259,
				"z": -1.1249184722,
				"element": "H" 
			},
			{
				"x": -4.8963368973,
				"y": -1.3581401884,
				"z": 0.8202013871,
				"element": "H" 
			},
			{
				"x": -3.5882394762,
				"y": -0.6959817211,
				"z": 1.7956621834,
				"element": "H" 
			},
			{
				"x": -3.0938243054,
				"y": -3.0501091101,
				"z": 1.0292706011,
				"element": "H" 
			},
			{
				"x": -3.1948248058,
				"y": -2.5123663369,
				"z": -0.6432068328,
				"element": "H" 
			},
			{
				"x": -0.829575725,
				"y": -2.5295862663,
				"z": -0.0840272879,
				"element": "H" 
			},
			{
				"x": -1.1015746951,
				"y": -1.7347756357,
				"z": 1.4521270101,
				"element": "H" 
			},
			{
				"x": 0.3830417477,
				"y": 3.0491871003,
				"z": 0.7932215566,
				"element": "H" 
			},
			{
				"x": 0.8429590168,
				"y": 3.0884108617,
				"z": 3.2201861305,
				"element": "H" 
			},
			{
				"x": 3.0989468363,
				"y": 2.492250898,
				"z": 4.0726838274,
				"element": "H" 
			},
			{
				"x": 4.9067224952,
				"y": 1.8852116545,
				"z": 2.4776195611,
				"element": "H" 
			},
			{
				"x": 4.4451063572,
				"y": 1.8813873095,
				"z": 0.0281758427,
				"element": "H" 
			}
		],
		 "valence_orbital": [ 
			{
				"type": "occ",
				"energy": -0.26878,
				"method": "rhf"
			},
			{
				"type": "occ",
				"energy": -0.26321,
				"method": "rhf"
			},
			{
				"type": "occ",
				"energy": -0.25739,
				"method": "rhf"
			},
			{
				"type": "occ",
				"energy": -0.25081,
				"method": "rhf"
			},
			{
				"type": "occ",
				"energy": -0.23195,
				"method": "rhf"
			},
			{
				"type": "unocc",
				"energy": -0.05508,
				"method": "rhf"
			},
			{
				"type": "unocc",
				"energy": -0.03602,
				"method": "rhf"
			},
			{
				"type": "unocc",
				"energy": -0.00625,
				"method": "rhf"
			},
			{
				"type": "unocc",
				"energy": -0.00398,
				"method": "rhf"
			},
			{
				"type": "unocc",
				"energy": 0.00905,
				"method": "rhf"
			}
		],
		"cosmo_sigma_profile": { 
			"-0.025": 0.0,
			"-0.024": 0.0,
			"-0.023": 0.0,
			"-0.022": 0.0,
			"-0.021": 0.0,
			"-0.02": 0.0,
			"-0.019": 0.0,
			"-0.018": 0.0,
			"-0.017": 0.0,
			"-0.016": 0.250654897183,
			"-0.015": 0.930214235082,
			"-0.014": 1.21145032676,
			"-0.013": 0.918509221448,
			"-0.012": 0.871304839594,
			"-0.011": 1.16365295748,
			"-0.01": 0.743572680683,
			"-0.009": 0.798817130736,
			"-0.008": 1.29541106712,
			"-0.007": 2.04473793309,
			"-0.006": 9.12603668415,
			"-0.005": 16.9084358822,
			"-0.004": 27.1065175764,
			"-0.003": 34.9868034536,
			"-0.002": 38.6508016378,
			"-0.001": 33.4729013485,
			"0.0": 28.4885722732,
			"0.001": 22.9901610114,
			"0.002": 19.3349929334,
			"0.003": 15.0578592862,
			"0.004": 16.0030911888,
			"0.005": 6.49786529096,
			"0.006": 4.10631215064,
			"0.007": 3.435407929,
			"0.008": 4.76331667872,
			"0.009": 4.52740469753,
			"0.01": 4.33606606335,
			"0.011": 4.93697206174,
			"0.012": 7.34745013267,
			"0.013": 4.08956413726,
			"0.014": 0.0607200892532,
			"0.015": 0.0,
			"0.016": 0.0,
			"0.017": 0.0,
			"0.018": 0.0,
			"0.019": 0.0,
			"0.02": 0.0,
			"0.021": 0.0,
			"0.022": 0.0,
			"0.023": 0.0,
			"0.024": 0.0,
			"0.025": 0.0
		}
	}
}
