{
	 "smiles": "C1CNC2=CC=NN2C1", 
	 "Tm": 373.15, 
	 "num_atms": 18, 
	 "gaussian": { 
		 "optdone": 1, 
		 "sigma_profile": "yes", 
		 "theory": "DFT", 
		 "functional": "B3LYP", 
		 "basiset": "6-31G**", 
		 "properties": { 
			 "R2extent": 1275.898, 
			 "electric_dipole_moment_norm": 3.79271757056, 
			 "electric_quadrupole_moment_norm": 10.0718445719, 
			 "total_energy": -398.291482478, 
			 "HOMO_LUMO_gap": 0.23238, 
			 "cosmo_polarized_energy": -11.05, 
			 "cosmo_cavitation_energy": 20.22, 
			 "cosmo_dispersion_energy": -15.74, 
			 "cosmo_repulsion_energy": 1.29, 
			 "cosmo_total_nonelectrostatic_energy": 5.76, 
			 "SMD_solvation_energy": 0.99 
		},
		"coords": [
			{
				"x": 0.4178784801,
				"y": 0.1372539132,
				"z": -1.9117467385,
				"element": "C" 
			},
			{
				"x": -0.6829589929,
				"y": -0.5658444792,
				"z": -1.1091334362,
				"element": "C" 
			},
			{
				"x": -0.2803507541,
				"y": -0.6244495122,
				"z": 0.2974209405,
				"element": "N" 
			},
			{
				"x": 0.1825839365,
				"y": 0.568467909,
				"z": 0.8488251586,
				"element": "C" 
			},
			{
				"x": 0.3402759238,
				"y": 1.0028952857,
				"z": 2.1582527719,
				"element": "C" 
			},
			{
				"x": 0.9314533177,
				"y": 2.2802598617,
				"z": 2.0241755119,
				"element": "C" 
			},
			{
				"x": 1.1307836311,
				"y": 2.6275623575,
				"z": 0.7562254493,
				"element": "N" 
			},
			{
				"x": 0.6689878886,
				"y": 1.5562701168,
				"z": 0.0464731178,
				"element": "N" 
			},
			{
				"x": 0.6249964629,
				"y": 1.5702561716,
				"z": -1.4056478728,
				"element": "C" 
			},
			{
				"x": 1.3475545174,
				"y": -0.4328464852,
				"z": -1.8089940403,
				"element": "H" 
			},
			{
				"x": 0.1527024498,
				"y": 0.1594480882,
				"z": -2.9730347015,
				"element": "H" 
			},
			{
				"x": -1.637484286,
				"y": -0.0295516538,
				"z": -1.2505145558,
				"element": "H" 
			},
			{
				"x": -0.8217942883,
				"y": -1.5895767495,
				"z": -1.4696092725,
				"element": "H" 
			},
			{
				"x": -0.9342109186,
				"y": -1.1083057541,
				"z": 0.8986156083,
				"element": "H" 
			},
			{
				"x": 0.0841966424,
				"y": 0.4695086581,
				"z": 3.0613340938,
				"element": "H" 
			},
			{
				"x": 1.2242899684,
				"y": 2.9606210141,
				"z": 2.8137207025,
				"element": "H" 
			},
			{
				"x": 1.5622722442,
				"y": 1.9963099976,
				"z": -1.7739426699,
				"element": "H" 
			},
			{
				"x": -0.191276223,
				"y": 2.2231212604,
				"z": -1.7425200672,
				"element": "H" 
			}
		],
		 "valence_orbital": [ 
			{
				"type": "occ",
				"energy": -0.35312,
				"method": "rhf"
			},
			{
				"type": "occ",
				"energy": -0.29811,
				"method": "rhf"
			},
			{
				"type": "occ",
				"energy": -0.26778,
				"method": "rhf"
			},
			{
				"type": "occ",
				"energy": -0.23031,
				"method": "rhf"
			},
			{
				"type": "occ",
				"energy": -0.1904,
				"method": "rhf"
			},
			{
				"type": "unocc",
				"energy": 0.04198,
				"method": "rhf"
			},
			{
				"type": "unocc",
				"energy": 0.0747,
				"method": "rhf"
			},
			{
				"type": "unocc",
				"energy": 0.08533,
				"method": "rhf"
			},
			{
				"type": "unocc",
				"energy": 0.11292,
				"method": "rhf"
			},
			{
				"type": "unocc",
				"energy": 0.12859,
				"method": "rhf"
			}
		],
		"cosmo_sigma_profile": { 
			"-0.025": 0.0,
			"-0.024": 0.0,
			"-0.023": 0.0,
			"-0.022": 0.0,
			"-0.021": 0.0,
			"-0.02": 0.0,
			"-0.019": 0.0,
			"-0.018": 0.0,
			"-0.017": 0.0,
			"-0.016": 0.0,
			"-0.015": 0.0,
			"-0.014": 0.00609974637422,
			"-0.013": 0.974386549633,
			"-0.012": 1.41912445228,
			"-0.011": 1.37663143573,
			"-0.01": 0.881237751343,
			"-0.009": 1.08208375821,
			"-0.008": 1.77151381526,
			"-0.007": 1.28326703674,
			"-0.006": 4.62297393742,
			"-0.005": 14.9505627478,
			"-0.004": 21.7024213961,
			"-0.003": 21.0781433531,
			"-0.002": 15.9169100168,
			"-0.001": 9.58265818071,
			"0.0": 5.86665301643,
			"0.001": 4.9674726198,
			"0.002": 3.70847275577,
			"0.003": 4.72433936507,
			"0.004": 5.63275075325,
			"0.005": 4.65340707467,
			"0.006": 7.05464553353,
			"0.007": 6.86873741497,
			"0.008": 4.51441508345,
			"0.009": 2.27247769172,
			"0.01": 2.06859467359,
			"0.011": 1.88305506572,
			"0.012": 2.33739930618,
			"0.013": 1.72122010412,
			"0.014": 1.12645194896,
			"0.015": 0.935688126008,
			"0.016": 1.28481270589,
			"0.017": 1.00179382255,
			"0.018": 0.025409647755,
			"0.019": 0.0,
			"0.02": 0.0,
			"0.021": 0.0,
			"0.022": 0.0,
			"0.023": 0.0,
			"0.024": 0.0,
			"0.025": 0.0
		}
	}
}
