{
	 "smiles": "OC(=O)C(NS(=O)(=O)C1=CC(Cl)=CC=C1)C1=CC=CC=C1", 
	 "Tm": 442.15, 
	 "num_atms": 33, 
	 "gaussian": { 
		 "optdone": 1, 
		 "sigma_profile": "yes", 
		 "theory": "DFT", 
		 "functional": "B3LYP", 
		 "basiset": "6-31G**", 
		 "properties": { 
			 "R2extent": 9724.5132, 
			 "electric_dipole_moment_norm": 4.86932575004, 
			 "electric_quadrupole_moment_norm": 20.7487312359, 
			 "total_energy": -1754.68982456, 
			 "HOMO_LUMO_gap": 0.21085, 
			 "cosmo_polarized_energy": -18.72, 
			 "cosmo_cavitation_energy": 41.1, 
			 "cosmo_dispersion_energy": -29.07, 
			 "cosmo_repulsion_energy": 2.2, 
			 "cosmo_total_nonelectrostatic_energy": 14.23, 
			 "SMD_solvation_energy": 6.58 
		},
		"coords": [
			{
				"x": 3.122297721,
				"y": -0.8594189906,
				"z": 0.9119873048,
				"element": "O" 
			},
			{
				"x": 1.9487272347,
				"y": -0.325298052,
				"z": 0.5283636106,
				"element": "C" 
			},
			{
				"x": 1.8597955678,
				"y": 0.5981819041,
				"z": -0.25023179,
				"element": "O" 
			},
			{
				"x": 0.7839404903,
				"y": -1.1046103723,
				"z": 1.1476309447,
				"element": "C" 
			},
			{
				"x": -0.4124506816,
				"y": -0.250379459,
				"z": 1.2372556888,
				"element": "N" 
			},
			{
				"x": -0.4480142438,
				"y": 0.9109317109,
				"z": 2.4782348148,
				"element": "S" 
			},
			{
				"x": 0.9512395829,
				"y": 1.1350029572,
				"z": 2.8562903669,
				"element": "O" 
			},
			{
				"x": -1.448015765,
				"y": 0.5166163843,
				"z": 3.4778375499,
				"element": "O" 
			},
			{
				"x": -1.0822317683,
				"y": 2.3655729545,
				"z": 1.6356972517,
				"element": "C" 
			},
			{
				"x": -2.1729359037,
				"y": 3.0207524412,
				"z": 2.2069006768,
				"element": "C" 
			},
			{
				"x": -2.6339357846,
				"y": 4.1827146557,
				"z": 1.5892144773,
				"element": "C" 
			},
			{
				"x": -4.0074992047,
				"y": 5.0317033389,
				"z": 2.27782224,
				"element": "Cl" 
			},
			{
				"x": -2.0272472016,
				"y": 4.6791742368,
				"z": 0.435830569,
				"element": "C" 
			},
			{
				"x": -0.9376011228,
				"y": 3.9977180853,
				"z": -0.1120622286,
				"element": "C" 
			},
			{
				"x": -0.4501989828,
				"y": 2.8345466798,
				"z": 0.4816405499,
				"element": "C" 
			},
			{
				"x": 0.4593647571,
				"y": -2.3047735935,
				"z": 0.2662467657,
				"element": "C" 
			},
			{
				"x": 0.0546727336,
				"y": -2.1153624926,
				"z": -1.0628581074,
				"element": "C" 
			},
			{
				"x": -0.2537866247,
				"y": -3.2147763574,
				"z": -1.862887421,
				"element": "C" 
			},
			{
				"x": -0.158351607,
				"y": -4.5091558882,
				"z": -1.3453113704,
				"element": "C" 
			},
			{
				"x": 0.2469517534,
				"y": -4.7012717286,
				"z": -0.0238132644,
				"element": "C" 
			},
			{
				"x": 0.5542324934,
				"y": -3.6021797308,
				"z": 0.7802422644,
				"element": "C" 
			},
			{
				"x": 3.8190120619,
				"y": -0.3557478655,
				"z": 0.4584975991,
				"element": "H" 
			},
			{
				"x": 1.1211165037,
				"y": -1.4616044053,
				"z": 2.125984781,
				"element": "H" 
			},
			{
				"x": -1.2692159735,
				"y": -0.7970874766,
				"z": 1.2699182786,
				"element": "H" 
			},
			{
				"x": -2.6438035772,
				"y": 2.6287535107,
				"z": 3.1001655936,
				"element": "H" 
			},
			{
				"x": -2.4060266524,
				"y": 5.5841408113,
				"z": -0.0262415788,
				"element": "H" 
			},
			{
				"x": -0.4671676057,
				"y": 4.3801116489,
				"z": -1.0126268073,
				"element": "H" 
			},
			{
				"x": 0.3849728127,
				"y": 2.2888143393,
				"z": 0.0553592637,
				"element": "H" 
			},
			{
				"x": -0.0091857561,
				"y": -1.1073807533,
				"z": -1.4610212326,
				"element": "H" 
			},
			{
				"x": -0.5659087544,
				"y": -3.0614512105,
				"z": -2.8917955718,
				"element": "H" 
			},
			{
				"x": -0.3987919733,
				"y": -5.364221836,
				"z": -1.9703361294,
				"element": "H" 
			},
			{
				"x": 0.3226341596,
				"y": -5.7049936847,
				"z": 0.383822867,
				"element": "H" 
			},
			{
				"x": 0.868111311,
				"y": -3.752121762,
				"z": 1.8096420432,
				"element": "H" 
			}
		],
		 "valence_orbital": [ 
			{
				"type": "occ",
				"energy": -0.28924,
				"method": "rhf"
			},
			{
				"type": "occ",
				"energy": -0.2734,
				"method": "rhf"
			},
			{
				"type": "occ",
				"energy": -0.26587,
				"method": "rhf"
			},
			{
				"type": "occ",
				"energy": -0.26136,
				"method": "rhf"
			},
			{
				"type": "occ",
				"energy": -0.25645,
				"method": "rhf"
			},
			{
				"type": "unocc",
				"energy": -0.0456,
				"method": "rhf"
			},
			{
				"type": "unocc",
				"energy": -0.03009,
				"method": "rhf"
			},
			{
				"type": "unocc",
				"energy": -0.02503,
				"method": "rhf"
			},
			{
				"type": "unocc",
				"energy": -0.01853,
				"method": "rhf"
			},
			{
				"type": "unocc",
				"energy": 0.0068,
				"method": "rhf"
			}
		],
		"cosmo_sigma_profile": { 
			"-0.025": 0.0,
			"-0.024": 0.0,
			"-0.023": 0.0,
			"-0.022": 0.0,
			"-0.021": 0.0,
			"-0.02": 0.0,
			"-0.019": 0.514120484904,
			"-0.018": 1.12604113002,
			"-0.017": 0.916092195368,
			"-0.016": 0.870978246487,
			"-0.015": 0.776589778435,
			"-0.014": 0.838286451817,
			"-0.013": 2.22913304712,
			"-0.012": 2.33267016898,
			"-0.011": 1.84709177986,
			"-0.01": 1.10874586833,
			"-0.009": 1.93314795799,
			"-0.008": 7.7723453549,
			"-0.007": 12.1901062677,
			"-0.006": 17.9037111247,
			"-0.005": 17.4172250251,
			"-0.004": 19.1902322426,
			"-0.003": 16.0840762456,
			"-0.002": 17.5388125713,
			"-0.001": 20.6190289207,
			"0.0": 26.0120155808,
			"0.001": 30.9617273473,
			"0.002": 23.9275158352,
			"0.003": 22.9700595635,
			"0.004": 25.4655030072,
			"0.005": 13.0732702266,
			"0.006": 7.52132139975,
			"0.007": 7.2923390099,
			"0.008": 6.99543582132,
			"0.009": 6.43228019192,
			"0.01": 9.25105735997,
			"0.011": 7.79509487519,
			"0.012": 0.499667402256,
			"0.013": 0.0,
			"0.014": 0.0,
			"0.015": 0.0,
			"0.016": 0.0,
			"0.017": 0.0,
			"0.018": 0.0,
			"0.019": 0.0,
			"0.02": 0.0,
			"0.021": 0.0,
			"0.022": 0.0,
			"0.023": 0.0,
			"0.024": 0.0,
			"0.025": 0.0
		}
	}
}
