{
	 "smiles": "COC1=C(NC(=O)CCl)C=C(C)C=C1", 
	 "Tm": 347.15, 
	 "num_atms": 26, 
	 "gaussian": { 
		 "optdone": 1, 
		 "sigma_profile": "yes", 
		 "theory": "DFT", 
		 "functional": "B3LYP", 
		 "basiset": "6-31G**", 
		 "properties": { 
			 "R2extent": 4095.6984, 
			 "electric_dipole_moment_norm": 6.32911145817, 
			 "electric_quadrupole_moment_norm": 19.3586726701, 
			 "total_energy": -1053.68696011, 
			 "HOMO_LUMO_gap": 0.21097, 
			 "cosmo_polarized_energy": -14.44, 
			 "cosmo_cavitation_energy": 31.54, 
			 "cosmo_dispersion_energy": -22.18, 
			 "cosmo_repulsion_energy": 1.79, 
			 "cosmo_total_nonelectrostatic_energy": 11.15, 
			 "SMD_solvation_energy": 6.97 
		},
		"coords": [
			{
				"x": 3.8509060107,
				"y": 0.2346004128,
				"z": 0.6044148866,
				"element": "C" 
			},
			{
				"x": 2.6887849487,
				"y": -0.5834179502,
				"z": 0.422167841,
				"element": "O" 
			},
			{
				"x": 1.7784662358,
				"y": -0.0999392736,
				"z": -0.4938230928,
				"element": "C" 
			},
			{
				"x": 0.8512319608,
				"y": 0.8988194781,
				"z": -0.1471754205,
				"element": "C" 
			},
			{
				"x": 0.8553656154,
				"y": 1.4985063007,
				"z": 1.1431023572,
				"element": "N" 
			},
			{
				"x": 0.5705153514,
				"y": 0.9356946074,
				"z": 2.3774752953,
				"element": "C" 
			},
			{
				"x": 0.5464575854,
				"y": 1.6221740723,
				"z": 3.3807133751,
				"element": "O" 
			},
			{
				"x": 0.2960569884,
				"y": -0.5694896472,
				"z": 2.353576189,
				"element": "C" 
			},
			{
				"x": -0.3186266914,
				"y": -1.1717270684,
				"z": 3.9244022767,
				"element": "Cl" 
			},
			{
				"x": -0.0592571848,
				"y": 1.3464222206,
				"z": -1.1146124956,
				"element": "C" 
			},
			{
				"x": -0.0815168579,
				"y": 0.8193894366,
				"z": -2.4085838773,
				"element": "C" 
			},
			{
				"x": -1.0828505336,
				"y": 1.3034729282,
				"z": -3.4311757347,
				"element": "C" 
			},
			{
				"x": 0.8332510194,
				"y": -0.1969241351,
				"z": -2.722192544,
				"element": "C" 
			},
			{
				"x": 1.7481702156,
				"y": -0.6514274383,
				"z": -1.7767512645,
				"element": "C" 
			},
			{
				"x": 3.5842136032,
				"y": 1.2301918265,
				"z": 0.9754051819,
				"element": "H" 
			},
			{
				"x": 4.4711238916,
				"y": -0.2737593192,
				"z": 1.3446965028,
				"element": "H" 
			},
			{
				"x": 4.4088600789,
				"y": 0.3319281975,
				"z": -0.334975829,
				"element": "H" 
			},
			{
				"x": 0.8887304493,
				"y": 2.5098566822,
				"z": 1.1894038214,
				"element": "H" 
			},
			{
				"x": -0.4457816278,
				"y": -0.8083500218,
				"z": 1.5888476096,
				"element": "H" 
			},
			{
				"x": 1.2163915752,
				"y": -1.1048920834,
				"z": 2.117331066,
				"element": "H" 
			},
			{
				"x": -0.7696968055,
				"y": 2.1196594075,
				"z": -0.8327319315,
				"element": "H" 
			},
			{
				"x": -1.5911499465,
				"y": 2.2114199697,
				"z": -3.0958534056,
				"element": "H" 
			},
			{
				"x": -0.5997250478,
				"y": 1.5218557112,
				"z": -4.3894133042,
				"element": "H" 
			},
			{
				"x": -1.8517581868,
				"y": 0.5456857299,
				"z": -3.6234382022,
				"element": "H" 
			},
			{
				"x": 0.8312699084,
				"y": -0.633493217,
				"z": -3.7176005751,
				"element": "H" 
			},
			{
				"x": 2.4618674439,
				"y": -1.433656827,
				"z": -2.0156087257,
				"element": "H" 
			}
		],
		 "valence_orbital": [ 
			{
				"type": "occ",
				"energy": -0.28967,
				"method": "rhf"
			},
			{
				"type": "occ",
				"energy": -0.28044,
				"method": "rhf"
			},
			{
				"type": "occ",
				"energy": -0.26234,
				"method": "rhf"
			},
			{
				"type": "occ",
				"energy": -0.25555,
				"method": "rhf"
			},
			{
				"type": "occ",
				"energy": -0.23855,
				"method": "rhf"
			},
			{
				"type": "unocc",
				"energy": -0.02758,
				"method": "rhf"
			},
			{
				"type": "unocc",
				"energy": -0.01425,
				"method": "rhf"
			},
			{
				"type": "unocc",
				"energy": 0.02143,
				"method": "rhf"
			},
			{
				"type": "unocc",
				"energy": 0.03852,
				"method": "rhf"
			},
			{
				"type": "unocc",
				"energy": 0.08037,
				"method": "rhf"
			}
		],
		"cosmo_sigma_profile": { 
			"-0.025": 0.0,
			"-0.024": 0.0,
			"-0.023": 0.0,
			"-0.022": 0.0,
			"-0.021": 0.0,
			"-0.02": 0.0,
			"-0.019": 0.0,
			"-0.018": 0.0,
			"-0.017": 0.0,
			"-0.016": 0.0,
			"-0.015": 0.112972844341,
			"-0.014": 1.16700256656,
			"-0.013": 0.508250278835,
			"-0.012": 1.41831450372,
			"-0.011": 0.852365690664,
			"-0.01": 0.675529546321,
			"-0.009": 1.54486447601,
			"-0.008": 3.07703697602,
			"-0.007": 3.44259714224,
			"-0.006": 10.1054676184,
			"-0.005": 16.4113943904,
			"-0.004": 24.1228106411,
			"-0.003": 26.0062879368,
			"-0.002": 24.4310248147,
			"-0.001": 22.4816722265,
			"0.0": 19.4477047994,
			"0.001": 12.3443828217,
			"0.002": 11.7393377618,
			"0.003": 13.3839087228,
			"0.004": 13.667562533,
			"0.005": 9.69025257408,
			"0.006": 10.6899925022,
			"0.007": 3.57047195466,
			"0.008": 1.61043237256,
			"0.009": 2.99550962698,
			"0.01": 2.20231104532,
			"0.011": 2.81514129117,
			"0.012": 4.19352536955,
			"0.013": 5.34585579848,
			"0.014": 1.77151969332,
			"0.015": 0.168853546515,
			"0.016": 0.0,
			"0.017": 0.0,
			"0.018": 0.0,
			"0.019": 0.0,
			"0.02": 0.0,
			"0.021": 0.0,
			"0.022": 0.0,
			"0.023": 0.0,
			"0.024": 0.0,
			"0.025": 0.0
		}
	}
}
