{
	 "smiles": "BrC1=CC(=CC=C1)C1(CCOCC1)C#N", 
	 "Tm": 364.15, 
	 "num_atms": 27, 
	 "gaussian": { 
		 "optdone": 1, 
		 "sigma_profile": "yes", 
		 "theory": "DFT", 
		 "functional": "B3LYP", 
		 "basiset": "6-31G**", 
		 "properties": { 
			 "R2extent": 5188.7457, 
			 "electric_dipole_moment_norm": 3.89190391582, 
			 "electric_quadrupole_moment_norm": 17.495165718, 
			 "total_energy": -3165.85671794, 
			 "HOMO_LUMO_gap": 0.21981, 
			 "cosmo_polarized_energy": -12.92, 
			 "cosmo_cavitation_energy": 31.77, 
			 "cosmo_dispersion_energy": -22.8, 
			 "cosmo_repulsion_energy": 1.8, 
			 "cosmo_total_nonelectrostatic_energy": 10.76, 
			 "SMD_solvation_energy": 5.16 
		},
		"coords": [
			{
				"x": -3.6139659491,
				"y": -0.8968042553,
				"z": 1.6101877402,
				"element": "Br" 
			},
			{
				"x": -1.9673738957,
				"y": -0.1495268971,
				"z": 0.9925760114,
				"element": "C" 
			},
			{
				"x": -0.8593523724,
				"y": -0.9775236055,
				"z": 0.845490807,
				"element": "C" 
			},
			{
				"x": 0.3610824537,
				"y": -0.4533368512,
				"z": 0.3906574498,
				"element": "C" 
			},
			{
				"x": 0.4342329057,
				"y": 0.9171252026,
				"z": 0.1163856946,
				"element": "C" 
			},
			{
				"x": -0.6867472164,
				"y": 1.736826042,
				"z": 0.2683616505,
				"element": "C" 
			},
			{
				"x": -1.9012354847,
				"y": 1.2125750531,
				"z": 0.7033795617,
				"element": "C" 
			},
			{
				"x": 1.5747123743,
				"y": -1.4064897167,
				"z": 0.2629454701,
				"element": "C" 
			},
			{
				"x": 2.8505914184,
				"y": -0.7562378767,
				"z": -0.3533459595,
				"element": "C" 
			},
			{
				"x": 2.7247820882,
				"y": -0.5430143555,
				"z": -1.8677933019,
				"element": "C" 
			},
			{
				"x": 2.4154272413,
				"y": -1.7505932233,
				"z": -2.5457984576,
				"element": "O" 
			},
			{
				"x": 1.1832879208,
				"y": -2.2970541407,
				"z": -2.0972503835,
				"element": "C" 
			},
			{
				"x": 1.2417608149,
				"y": -2.6595734434,
				"z": -0.6128024685,
				"element": "C" 
			},
			{
				"x": 1.9120168491,
				"y": -1.8679399899,
				"z": 1.6254427437,
				"element": "C" 
			},
			{
				"x": 2.188629029,
				"y": -2.2416523203,
				"z": 2.6897731301,
				"element": "N" 
			},
			{
				"x": -0.9469068906,
				"y": -2.0256251675,
				"z": 1.1073085418,
				"element": "H" 
			},
			{
				"x": 1.3623381521,
				"y": 1.366313182,
				"z": -0.214218809,
				"element": "H" 
			},
			{
				"x": -0.6101823657,
				"y": 2.7970440662,
				"z": 0.0465699623,
				"element": "H" 
			},
			{
				"x": -2.7744553041,
				"y": 1.8432636925,
				"z": 0.8224690854,
				"element": "H" 
			},
			{
				"x": 3.6863468101,
				"y": -1.4398186736,
				"z": -0.1738645762,
				"element": "H" 
			},
			{
				"x": 3.0961950606,
				"y": 0.1810714706,
				"z": 0.1550146136,
				"element": "H" 
			},
			{
				"x": 3.6809841199,
				"y": -0.1982557875,
				"z": -2.2721791613,
				"element": "H" 
			},
			{
				"x": 1.9660899815,
				"y": 0.2203864834,
				"z": -2.0987073205,
				"element": "H" 
			},
			{
				"x": 0.3578323237,
				"y": -1.5923019198,
				"z": -2.2898764534,
				"element": "H" 
			},
			{
				"x": 1.0071768858,
				"y": -3.1946082217,
				"z": -2.6965849855,
				"element": "H" 
			},
			{
				"x": 0.3006563456,
				"y": -3.1165218839,
				"z": -0.2957685456,
				"element": "H" 
			},
			{
				"x": 2.0321767038,
				"y": -3.402326863,
				"z": -0.4631720398,
				"element": "H" 
			}
		],
		 "valence_orbital": [ 
			{
				"type": "occ",
				"energy": -0.3153,
				"method": "rhf"
			},
			{
				"type": "occ",
				"energy": -0.29449,
				"method": "rhf"
			},
			{
				"type": "occ",
				"energy": -0.27467,
				"method": "rhf"
			},
			{
				"type": "occ",
				"energy": -0.26454,
				"method": "rhf"
			},
			{
				"type": "occ",
				"energy": -0.25367,
				"method": "rhf"
			},
			{
				"type": "unocc",
				"energy": -0.03386,
				"method": "rhf"
			},
			{
				"type": "unocc",
				"energy": -0.02926,
				"method": "rhf"
			},
			{
				"type": "unocc",
				"energy": -0.00192,
				"method": "rhf"
			},
			{
				"type": "unocc",
				"energy": 0.03265,
				"method": "rhf"
			},
			{
				"type": "unocc",
				"energy": 0.04281,
				"method": "rhf"
			}
		],
		"cosmo_sigma_profile": { 
			"-0.025": 0.0,
			"-0.024": 0.0,
			"-0.023": 0.0,
			"-0.022": 0.0,
			"-0.021": 0.0,
			"-0.02": 0.0,
			"-0.019": 0.0,
			"-0.018": 0.0,
			"-0.017": 0.0,
			"-0.016": 0.0,
			"-0.015": 0.0,
			"-0.014": 0.0,
			"-0.013": 0.0,
			"-0.012": 0.0,
			"-0.011": 0.0,
			"-0.01": 0.0,
			"-0.009": 0.874433304219,
			"-0.008": 3.84389235104,
			"-0.007": 8.52101235042,
			"-0.006": 14.9943301451,
			"-0.005": 22.7466029004,
			"-0.004": 25.1817850923,
			"-0.003": 25.5571672774,
			"-0.002": 19.1603925476,
			"-0.001": 12.8103853133,
			"0.0": 11.5020443788,
			"0.001": 15.8449853354,
			"0.002": 19.5364889787,
			"0.003": 19.0239357054,
			"0.004": 15.7954633472,
			"0.005": 7.85241541271,
			"0.006": 3.29966465962,
			"0.007": 4.10329765299,
			"0.008": 3.75382067295,
			"0.009": 4.83748391986,
			"0.01": 4.55695395942,
			"0.011": 4.18677432299,
			"0.012": 3.83109388318,
			"0.013": 3.67788987585,
			"0.014": 0.32104420828,
			"0.015": 0.0,
			"0.016": 0.0,
			"0.017": 0.0,
			"0.018": 0.0,
			"0.019": 0.0,
			"0.02": 0.0,
			"0.021": 0.0,
			"0.022": 0.0,
			"0.023": 0.0,
			"0.024": 0.0,
			"0.025": 0.0
		}
	}
}
