{
	 "smiles": "ClCC=O", 
	 "Tm": 256.85, 
	 "num_atms": 7, 
	 "gaussian": { 
		 "optdone": 1, 
		 "sigma_profile": "yes", 
		 "theory": "DFT", 
		 "functional": "B3LYP", 
		 "basiset": "6-31G**", 
		 "properties": { 
			 "R2extent": 558.7225, 
			 "electric_dipole_moment_norm": 1.20184108767, 
			 "electric_quadrupole_moment_norm": 7.27511167062, 
			 "total_energy": -613.416881469, 
			 "HOMO_LUMO_gap": 0.22537, 
			 "cosmo_polarized_energy": -6.47, 
			 "cosmo_cavitation_energy": 12.93, 
			 "cosmo_dispersion_energy": -9.7, 
			 "cosmo_repulsion_energy": 0.91, 
			 "cosmo_total_nonelectrostatic_energy": 4.13, 
			 "SMD_solvation_energy": 3.4 
		},
		"coords": [
			{
				"x": 0.8181001609,
				"y": 1.138274124,
				"z": 1.693003981,
				"element": "Cl" 
			},
			{
				"x": 0.8552358001,
				"y": 1.0153321185,
				"z": -0.106087914,
				"element": "C" 
			},
			{
				"x": 0.758577752,
				"y": -0.4317613632,
				"z": -0.5678942194,
				"element": "C" 
			},
			{
				"x": 0.296448091,
				"y": -0.7277461349,
				"z": -1.6432410906,
				"element": "O" 
			},
			{
				"x": 1.8046469006,
				"y": 1.4418076867,
				"z": -0.4443525621,
				"element": "H" 
			},
			{
				"x": 0.0318111988,
				"y": 1.5969088704,
				"z": -0.5216757338,
				"element": "H" 
			},
			{
				"x": 1.1614800967,
				"y": -1.1866153014,
				"z": 0.1391475388,
				"element": "H" 
			}
		],
		 "valence_orbital": [ 
			{
				"type": "occ",
				"energy": -0.42488,
				"method": "rhf"
			},
			{
				"type": "occ",
				"energy": -0.39409,
				"method": "rhf"
			},
			{
				"type": "occ",
				"energy": -0.32575,
				"method": "rhf"
			},
			{
				"type": "occ",
				"energy": -0.31499,
				"method": "rhf"
			},
			{
				"type": "occ",
				"energy": -0.27706,
				"method": "rhf"
			},
			{
				"type": "unocc",
				"energy": -0.05169,
				"method": "rhf"
			},
			{
				"type": "unocc",
				"energy": 0.01382,
				"method": "rhf"
			},
			{
				"type": "unocc",
				"energy": 0.09809,
				"method": "rhf"
			},
			{
				"type": "unocc",
				"energy": 0.12742,
				"method": "rhf"
			},
			{
				"type": "unocc",
				"energy": 0.13604,
				"method": "rhf"
			}
		],
		"cosmo_sigma_profile": { 
			"-0.025": 0.0,
			"-0.024": 0.0,
			"-0.023": 0.0,
			"-0.022": 0.0,
			"-0.021": 0.0,
			"-0.02": 0.0,
			"-0.019": 0.0,
			"-0.018": 0.0,
			"-0.017": 0.0,
			"-0.016": 0.0,
			"-0.015": 0.0,
			"-0.014": 0.0,
			"-0.013": 0.0,
			"-0.012": 0.0,
			"-0.011": 0.0938484564038,
			"-0.01": 2.47893867242,
			"-0.009": 3.90126703284,
			"-0.008": 5.32692554459,
			"-0.007": 7.84389649322,
			"-0.006": 6.47407943738,
			"-0.005": 6.69486305263,
			"-0.004": 4.97625628723,
			"-0.003": 3.58266692251,
			"-0.002": 3.80207173565,
			"-0.001": 4.40231970107,
			"0.0": 3.9731167171,
			"0.001": 4.62466789329,
			"0.002": 6.13714633673,
			"0.003": 4.53377256384,
			"0.004": 6.56657736907,
			"0.005": 10.091958206,
			"0.006": 6.08745079087,
			"0.007": 1.3700969062,
			"0.008": 2.09262204727,
			"0.009": 3.15246070755,
			"0.01": 4.52466535598,
			"0.011": 2.3933240036,
			"0.012": 0.136457172507,
			"0.013": 0.0,
			"0.014": 0.0,
			"0.015": 0.0,
			"0.016": 0.0,
			"0.017": 0.0,
			"0.018": 0.0,
			"0.019": 0.0,
			"0.02": 0.0,
			"0.021": 0.0,
			"0.022": 0.0,
			"0.023": 0.0,
			"0.024": 0.0,
			"0.025": 0.0
		}
	}
}
