{
	 "smiles": "CSC1=CC=CC=C1", 
	 "Tm": 258.15, 
	 "num_atms": 16, 
	 "gaussian": { 
		 "optdone": 1, 
		 "sigma_profile": "yes", 
		 "theory": "DFT", 
		 "functional": "B3LYP", 
		 "basiset": "6-31G**", 
		 "properties": { 
			 "R2extent": 1501.3315, 
			 "electric_dipole_moment_norm": 1.84937979063, 
			 "electric_quadrupole_moment_norm": 3.19451746904, 
			 "total_energy": -669.752285595, 
			 "HOMO_LUMO_gap": 0.206, 
			 "cosmo_polarized_energy": -4.91, 
			 "cosmo_cavitation_energy": 21.14, 
			 "cosmo_dispersion_energy": -15.92, 
			 "cosmo_repulsion_energy": 1.28, 
			 "cosmo_total_nonelectrostatic_energy": 6.49, 
			 "SMD_solvation_energy": 3.75 
		},
		"coords": [
			{
				"x": -2.3227924191,
				"y": -0.5690886252,
				"z": 1.9219201388,
				"element": "C" 
			},
			{
				"x": -0.9252009417,
				"y": -1.0304626866,
				"z": 0.8261939295,
				"element": "S" 
			},
			{
				"x": -0.4834081632,
				"y": 0.5792677204,
				"z": 0.1581642538,
				"element": "C" 
			},
			{
				"x": -1.1650163347,
				"y": 1.0982171472,
				"z": -0.9512608107,
				"element": "C" 
			},
			{
				"x": -0.8034505426,
				"y": 2.3381985361,
				"z": -1.4796786355,
				"element": "C" 
			},
			{
				"x": 0.2473300527,
				"y": 3.0626942126,
				"z": -0.9124535153,
				"element": "C" 
			},
			{
				"x": 0.9362772373,
				"y": 2.5445533127,
				"z": 0.1856520162,
				"element": "C" 
			},
			{
				"x": 0.5731528858,
				"y": 1.3072083548,
				"z": 0.7210029328,
				"element": "C" 
			},
			{
				"x": -2.677211838,
				"y": -1.4957844913,
				"z": 2.3797652173,
				"element": "H" 
			},
			{
				"x": -3.1370108664,
				"y": -0.1185843619,
				"z": 1.3502469643,
				"element": "H" 
			},
			{
				"x": -1.995003454,
				"y": 0.1164886626,
				"z": 2.706247021,
				"element": "H" 
			},
			{
				"x": -1.9711921919,
				"y": 0.5246175435,
				"z": -1.3984024633,
				"element": "H" 
			},
			{
				"x": -1.33721644,
				"y": 2.7344914578,
				"z": -2.338922375,
				"element": "H" 
			},
			{
				"x": 0.5311247173,
				"y": 4.0252647575,
				"z": -1.3282343056,
				"element": "H" 
			},
			{
				"x": 1.7574251067,
				"y": 3.1025454277,
				"z": 0.6267632328,
				"element": "H" 
			},
			{
				"x": 1.106693192,
				"y": 0.8983730322,
				"z": 1.5733963988,
				"element": "H" 
			}
		],
		 "valence_orbital": [ 
			{
				"type": "occ",
				"energy": -0.34863,
				"method": "rhf"
			},
			{
				"type": "occ",
				"energy": -0.31504,
				"method": "rhf"
			},
			{
				"type": "occ",
				"energy": -0.25522,
				"method": "rhf"
			},
			{
				"type": "occ",
				"energy": -0.25127,
				"method": "rhf"
			},
			{
				"type": "occ",
				"energy": -0.22345,
				"method": "rhf"
			},
			{
				"type": "unocc",
				"energy": -0.01745,
				"method": "rhf"
			},
			{
				"type": "unocc",
				"energy": -0.00567,
				"method": "rhf"
			},
			{
				"type": "unocc",
				"energy": 0.05228,
				"method": "rhf"
			},
			{
				"type": "unocc",
				"energy": 0.07415,
				"method": "rhf"
			},
			{
				"type": "unocc",
				"energy": 0.11379,
				"method": "rhf"
			}
		],
		"cosmo_sigma_profile": { 
			"-0.025": 0.0,
			"-0.024": 0.0,
			"-0.023": 0.0,
			"-0.022": 0.0,
			"-0.021": 0.0,
			"-0.02": 0.0,
			"-0.019": 0.0,
			"-0.018": 0.0,
			"-0.017": 0.0,
			"-0.016": 0.0,
			"-0.015": 0.0,
			"-0.014": 0.0,
			"-0.013": 0.0,
			"-0.012": 0.0,
			"-0.011": 0.0,
			"-0.01": 0.0,
			"-0.009": 0.0,
			"-0.008": 0.0,
			"-0.007": 0.317732912822,
			"-0.006": 9.06744974864,
			"-0.005": 15.2442065105,
			"-0.004": 17.0515996604,
			"-0.003": 14.5560501407,
			"-0.002": 14.5427345006,
			"-0.001": 14.4050557914,
			"0.0": 11.9865209568,
			"0.001": 10.7993817901,
			"0.002": 11.4653079484,
			"0.003": 12.104121053,
			"0.004": 12.5994919913,
			"0.005": 12.8668448699,
			"0.006": 4.2767145734,
			"0.007": 2.72599034953,
			"0.008": 2.45072791725,
			"0.009": 1.6977329949,
			"0.01": 1.90600262765,
			"0.011": 0.344961039466,
			"0.012": 0.0,
			"0.013": 0.0,
			"0.014": 0.0,
			"0.015": 0.0,
			"0.016": 0.0,
			"0.017": 0.0,
			"0.018": 0.0,
			"0.019": 0.0,
			"0.02": 0.0,
			"0.021": 0.0,
			"0.022": 0.0,
			"0.023": 0.0,
			"0.024": 0.0,
			"0.025": 0.0
		}
	}
}
