{
	 "smiles": "OC(=O)C1=CNC2=C1C=C(F)C=C2", 
	 "Tm": 499.15, 
	 "num_atms": 19, 
	 "gaussian": { 
		 "optdone": 1, 
		 "sigma_profile": "yes", 
		 "theory": "DFT", 
		 "functional": "B3LYP", 
		 "basiset": "6-31G**", 
		 "properties": { 
			 "R2extent": 2506.9127, 
			 "electric_dipole_moment_norm": 5.28438522157, 
			 "electric_quadrupole_moment_norm": 6.88276107387, 
			 "total_energy": -651.631778711, 
			 "HOMO_LUMO_gap": 0.18672, 
			 "cosmo_polarized_energy": -15.96, 
			 "cosmo_cavitation_energy": 24.5, 
			 "cosmo_dispersion_energy": -18.17, 
			 "cosmo_repulsion_energy": 1.4, 
			 "cosmo_total_nonelectrostatic_energy": 7.73, 
			 "SMD_solvation_energy": 5.76 
		},
		"coords": [
			{
				"x": 2.9588528038,
				"y": -1.5384783842,
				"z": -1.8061046677,
				"element": "O" 
			},
			{
				"x": 1.6734874532,
				"y": -1.0850420209,
				"z": -1.8498702289,
				"element": "C" 
			},
			{
				"x": 1.0873049491,
				"y": -0.9184181441,
				"z": -2.9050612661,
				"element": "O" 
			},
			{
				"x": 1.1173404273,
				"y": -0.8340813946,
				"z": -0.5264418188,
				"element": "C" 
			},
			{
				"x": 1.7547426985,
				"y": -1.0114995532,
				"z": 0.6867335143,
				"element": "C" 
			},
			{
				"x": 0.9061075519,
				"y": -0.6692776234,
				"z": 1.7012607609,
				"element": "N" 
			},
			{
				"x": -0.3126264762,
				"y": -0.2577132463,
				"z": 1.173870186,
				"element": "C" 
			},
			{
				"x": -0.2117130755,
				"y": -0.3504003653,
				"z": -0.2379273112,
				"element": "C" 
			},
			{
				"x": -1.3086944552,
				"y": 0.0069293911,
				"z": -1.0380448931,
				"element": "C" 
			},
			{
				"x": -2.4489023909,
				"y": 0.4380949059,
				"z": -0.3846599992,
				"element": "C" 
			},
			{
				"x": -3.5289279532,
				"y": 0.7920189881,
				"z": -1.1184124645,
				"element": "F" 
			},
			{
				"x": -2.5545135273,
				"y": 0.5318428829,
				"z": 1.0125862561,
				"element": "C" 
			},
			{
				"x": -1.474689602,
				"y": 0.1806880022,
				"z": 1.8141710084,
				"element": "C" 
			},
			{
				"x": 3.2184228148,
				"y": -1.6672281127,
				"z": -2.7329892178,
				"element": "H" 
			},
			{
				"x": 2.7577879017,
				"y": -1.359761959,
				"z": 0.8834450138,
				"element": "H" 
			},
			{
				"x": 1.1319283489,
				"y": -0.709898724,
				"z": 2.6823804183,
				"element": "H" 
			},
			{
				"x": -1.2619962322,
				"y": -0.0531467597,
				"z": -2.1181279789,
				"element": "H" 
			},
			{
				"x": -3.48650755,
				"y": 0.8801178688,
				"z": 1.443513711,
				"element": "H" 
			},
			{
				"x": -1.5401036867,
				"y": 0.2474542482,
				"z": 2.8959789772,
				"element": "H" 
			}
		],
		 "valence_orbital": [ 
			{
				"type": "occ",
				"energy": -0.3126,
				"method": "rhf"
			},
			{
				"type": "occ",
				"energy": -0.28711,
				"method": "rhf"
			},
			{
				"type": "occ",
				"energy": -0.26942,
				"method": "rhf"
			},
			{
				"type": "occ",
				"energy": -0.22893,
				"method": "rhf"
			},
			{
				"type": "occ",
				"energy": -0.22121,
				"method": "rhf"
			},
			{
				"type": "unocc",
				"energy": -0.03449,
				"method": "rhf"
			},
			{
				"type": "unocc",
				"energy": -0.00364,
				"method": "rhf"
			},
			{
				"type": "unocc",
				"energy": 0.02375,
				"method": "rhf"
			},
			{
				"type": "unocc",
				"energy": 0.06373,
				"method": "rhf"
			},
			{
				"type": "unocc",
				"energy": 0.08575,
				"method": "rhf"
			}
		],
		"cosmo_sigma_profile": { 
			"-0.025": 0.0,
			"-0.024": 0.0,
			"-0.023": 0.0,
			"-0.022": 0.0,
			"-0.021": 0.0,
			"-0.02": 0.0,
			"-0.019": 0.0,
			"-0.018": 0.256801632351,
			"-0.017": 1.99329039658,
			"-0.016": 2.8381599038,
			"-0.015": 1.47274574906,
			"-0.014": 2.48549784574,
			"-0.013": 1.6916437361,
			"-0.012": 2.20667870795,
			"-0.011": 1.97877031755,
			"-0.01": 2.93573055811,
			"-0.009": 3.90279169929,
			"-0.008": 3.94294742085,
			"-0.007": 4.92358423653,
			"-0.006": 6.39903653633,
			"-0.005": 6.58479229675,
			"-0.004": 7.58746122796,
			"-0.003": 5.36077686987,
			"-0.002": 6.04901411552,
			"-0.001": 8.3639602885,
			"0.0": 10.8003237312,
			"0.001": 13.202235465,
			"0.002": 23.1792500864,
			"0.003": 21.7460383783,
			"0.004": 22.5675787462,
			"0.005": 12.8338360391,
			"0.006": 3.36917105423,
			"0.007": 2.86047954232,
			"0.008": 3.53041435037,
			"0.009": 2.32233952099,
			"0.01": 1.71119846065,
			"0.011": 2.33026922395,
			"0.012": 4.13711011962,
			"0.013": 1.37469756496,
			"0.014": 0.0,
			"0.015": 0.0,
			"0.016": 0.0,
			"0.017": 0.0,
			"0.018": 0.0,
			"0.019": 0.0,
			"0.02": 0.0,
			"0.021": 0.0,
			"0.022": 0.0,
			"0.023": 0.0,
			"0.024": 0.0,
			"0.025": 0.0
		}
	}
}
