{
	 "smiles": "NCC1=CC(=CC(=C1)C(F)(F)F)C(F)(F)F", 
	 "Tm": 330.15, 
	 "num_atms": 23, 
	 "gaussian": { 
		 "optdone": 1, 
		 "sigma_profile": "yes", 
		 "theory": "DFT", 
		 "functional": "B3LYP", 
		 "basiset": "6-31G**", 
		 "properties": { 
			 "R2extent": 4541.9853, 
			 "electric_dipole_moment_norm": 1.4283604132, 
			 "electric_quadrupole_moment_norm": 5.7745430356, 
			 "total_energy": -1000.98118051, 
			 "HOMO_LUMO_gap": 0.19913, 
			 "cosmo_polarized_energy": -8.36, 
			 "cosmo_cavitation_energy": 30.48, 
			 "cosmo_dispersion_energy": -20.58, 
			 "cosmo_repulsion_energy": 1.52, 
			 "cosmo_total_nonelectrostatic_energy": 11.42, 
			 "SMD_solvation_energy": 6.05 
		},
		"coords": [
			{
				"x": 0.5953465704,
				"y": -0.5996909244,
				"z": -3.5958178146,
				"element": "N" 
			},
			{
				"x": 0.3422031493,
				"y": -1.5028074321,
				"z": -2.4654662826,
				"element": "C" 
			},
			{
				"x": -0.2842776395,
				"y": -0.8548804826,
				"z": -1.2402216711,
				"element": "C" 
			},
			{
				"x": 0.5155688805,
				"y": -0.3038105402,
				"z": -0.2326337534,
				"element": "C" 
			},
			{
				"x": -0.0589986552,
				"y": 0.345172257,
				"z": 0.8623069692,
				"element": "C" 
			},
			{
				"x": -1.4452368927,
				"y": 0.449830289,
				"z": 0.9747148295,
				"element": "C" 
			},
			{
				"x": -2.2495362746,
				"y": -0.1038754459,
				"z": -0.0215641825,
				"element": "C" 
			},
			{
				"x": -1.674719386,
				"y": -0.7494469443,
				"z": -1.1180034949,
				"element": "C" 
			},
			{
				"x": -3.7495013918,
				"y": -0.0653316242,
				"z": 0.1172156116,
				"element": "C" 
			},
			{
				"x": -4.1586031513,
				"y": 0.9813667573,
				"z": 0.8648382248,
				"element": "F" 
			},
			{
				"x": -4.3582949822,
				"y": 0.0275941471,
				"z": -1.0858092749,
				"element": "F" 
			},
			{
				"x": -4.2201831309,
				"y": -1.1856258872,
				"z": 0.7102928081,
				"element": "F" 
			},
			{
				"x": 0.8293197969,
				"y": 0.9832333879,
				"z": 1.8987798585,
				"element": "C" 
			},
			{
				"x": 1.9638933956,
				"y": 0.274325862,
				"z": 2.0871205414,
				"element": "F" 
			},
			{
				"x": 0.211630812,
				"y": 1.0934899734,
				"z": 3.0935609385,
				"element": "F" 
			},
			{
				"x": 1.2021807095,
				"y": 2.2296879036,
				"z": 1.5277379165,
				"element": "F" 
			},
			{
				"x": -0.2758357239,
				"y": -0.1642497153,
				"z": -3.8915214318,
				"element": "H" 
			},
			{
				"x": 1.2033659214,
				"y": 0.1611586066,
				"z": -3.3001165325,
				"element": "H" 
			},
			{
				"x": 1.2956665286,
				"y": -1.9642616669,
				"z": -2.185793703,
				"element": "H" 
			},
			{
				"x": -0.3055093812,
				"y": -2.3110713184,
				"z": -2.8224297862,
				"element": "H" 
			},
			{
				"x": 1.5967527642,
				"y": -0.3895250917,
				"z": -0.2939065176,
				"element": "H" 
			},
			{
				"x": -1.891164737,
				"y": 0.9493220902,
				"z": 1.8260674803,
				"element": "H" 
			},
			{
				"x": -2.317967182,
				"y": -1.1742042009,
				"z": -1.8834507333,
				"element": "H" 
			}
		],
		 "valence_orbital": [ 
			{
				"type": "occ",
				"energy": -0.37742,
				"method": "rhf"
			},
			{
				"type": "occ",
				"energy": -0.36238,
				"method": "rhf"
			},
			{
				"type": "occ",
				"energy": -0.28697,
				"method": "rhf"
			},
			{
				"type": "occ",
				"energy": -0.28538,
				"method": "rhf"
			},
			{
				"type": "occ",
				"energy": -0.24882,
				"method": "rhf"
			},
			{
				"type": "unocc",
				"energy": -0.04969,
				"method": "rhf"
			},
			{
				"type": "unocc",
				"energy": -0.03964,
				"method": "rhf"
			},
			{
				"type": "unocc",
				"energy": 0.06904,
				"method": "rhf"
			},
			{
				"type": "unocc",
				"energy": 0.09223,
				"method": "rhf"
			},
			{
				"type": "unocc",
				"energy": 0.10011,
				"method": "rhf"
			}
		],
		"cosmo_sigma_profile": { 
			"-0.025": 0.0,
			"-0.024": 0.0,
			"-0.023": 0.0,
			"-0.022": 0.0,
			"-0.021": 0.0,
			"-0.02": 0.0,
			"-0.019": 0.0,
			"-0.018": 0.0,
			"-0.017": 0.0,
			"-0.016": 0.0,
			"-0.015": 0.0,
			"-0.014": 0.0,
			"-0.013": 0.0,
			"-0.012": 0.0,
			"-0.011": 3.87483805912e-05,
			"-0.01": 1.39786002224,
			"-0.009": 2.89796223995,
			"-0.008": 4.88833588386,
			"-0.007": 10.2977744856,
			"-0.006": 9.47423400057,
			"-0.005": 11.5698877798,
			"-0.004": 12.0434852735,
			"-0.003": 10.9374598775,
			"-0.002": 12.9204695299,
			"-0.001": 15.8830510622,
			"0.0": 20.0681605911,
			"0.001": 26.5997040849,
			"0.002": 44.4391539,
			"0.003": 46.7670051655,
			"0.004": 2.55886858429,
			"0.005": 1.12041628976,
			"0.006": 0.535612310518,
			"0.007": 0.464160363351,
			"0.008": 0.985309481765,
			"0.009": 0.71492547284,
			"0.01": 0.493768050415,
			"0.011": 0.394436526458,
			"0.012": 1.3793251408,
			"0.013": 0.534579975717,
			"0.014": 0.378698051197,
			"0.015": 0.527388885985,
			"0.016": 0.848654664578,
			"0.017": 0.548158838646,
			"0.018": 0.768276873794,
			"0.019": 0.459036106289,
			"0.02": 0.0776153547076,
			"0.021": 0.0,
			"0.022": 0.0,
			"0.023": 0.0,
			"0.024": 0.0,
			"0.025": 0.0
		}
	}
}
