{
	 "smiles": "COC1=CC(O)=CC=C1Br", 
	 "Tm": 352.15, 
	 "num_atms": 17, 
	 "gaussian": { 
		 "optdone": 1, 
		 "sigma_profile": "yes", 
		 "theory": "DFT", 
		 "functional": "B3LYP", 
		 "basiset": "6-31G**", 
		 "properties": { 
			 "R2extent": 2992.1755, 
			 "electric_dipole_moment_norm": 2.52624355516, 
			 "electric_quadrupole_moment_norm": 8.12667305482, 
			 "total_energy": -2992.7908017, 
			 "HOMO_LUMO_gap": 0.20893, 
			 "cosmo_polarized_energy": -10.01, 
			 "cosmo_cavitation_energy": 23.3, 
			 "cosmo_dispersion_energy": -17.57, 
			 "cosmo_repulsion_energy": 1.43, 
			 "cosmo_total_nonelectrostatic_energy": 7.15, 
			 "SMD_solvation_energy": 4.14 
		},
		"coords": [
			{
				"x": -1.6053791536,
				"y": -2.9604431951,
				"z": 1.610349874,
				"element": "C" 
			},
			{
				"x": -1.785693172,
				"y": -1.5423680555,
				"z": 1.5441262977,
				"element": "O" 
			},
			{
				"x": -0.7867184982,
				"y": -0.8608603826,
				"z": 0.8985542427,
				"element": "C" 
			},
			{
				"x": -0.9690530251,
				"y": -0.5213324539,
				"z": -0.4458407347,
				"element": "C" 
			},
			{
				"x": -0.0025638506,
				"y": 0.220439547,
				"z": -1.1295820818,
				"element": "C" 
			},
			{
				"x": -0.1408923903,
				"y": 0.5796652665,
				"z": -2.4384902645,
				"element": "O" 
			},
			{
				"x": 1.1639293654,
				"y": 0.6227593356,
				"z": -0.469026535,
				"element": "C" 
			},
			{
				"x": 1.3466048959,
				"y": 0.2873525164,
				"z": 0.8685944712,
				"element": "C" 
			},
			{
				"x": 0.3807334654,
				"y": -0.4500747768,
				"z": 1.554813635,
				"element": "C" 
			},
			{
				"x": 0.6453436864,
				"y": -0.8650336351,
				"z": 3.3986322285,
				"element": "Br" 
			},
			{
				"x": -0.6991205499,
				"y": -3.222544897,
				"z": 2.1670086954,
				"element": "H" 
			},
			{
				"x": -2.4779803419,
				"y": -3.3545099231,
				"z": 2.1343570826,
				"element": "H" 
			},
			{
				"x": -1.5551107963,
				"y": -3.3974923158,
				"z": 0.6047466282,
				"element": "H" 
			},
			{
				"x": -1.887867063,
				"y": -0.837339198,
				"z": -0.9331049163,
				"element": "H" 
			},
			{
				"x": -0.9880393287,
				"y": 0.2561715743,
				"z": -2.7711687756,
				"element": "H" 
			},
			{
				"x": 1.9071159726,
				"y": 1.1992479754,
				"z": -1.0085248161,
				"element": "H" 
			},
			{
				"x": 2.2433907837,
				"y": 0.6032626175,
				"z": 1.3896549688,
				"element": "H" 
			}
		],
		 "valence_orbital": [ 
			{
				"type": "occ",
				"energy": -0.29393,
				"method": "rhf"
			},
			{
				"type": "occ",
				"energy": -0.28246,
				"method": "rhf"
			},
			{
				"type": "occ",
				"energy": -0.27843,
				"method": "rhf"
			},
			{
				"type": "occ",
				"energy": -0.25511,
				"method": "rhf"
			},
			{
				"type": "occ",
				"energy": -0.22065,
				"method": "rhf"
			},
			{
				"type": "unocc",
				"energy": -0.01172,
				"method": "rhf"
			},
			{
				"type": "unocc",
				"energy": 0.00077,
				"method": "rhf"
			},
			{
				"type": "unocc",
				"energy": 0.01031,
				"method": "rhf"
			},
			{
				"type": "unocc",
				"energy": 0.06497,
				"method": "rhf"
			},
			{
				"type": "unocc",
				"energy": 0.10976,
				"method": "rhf"
			}
		],
		"cosmo_sigma_profile": { 
			"-0.025": 0.0,
			"-0.024": 0.0,
			"-0.023": 0.0,
			"-0.022": 0.0,
			"-0.021": 0.0,
			"-0.02": 0.0,
			"-0.019": 0.0277447856321,
			"-0.018": 0.942934547923,
			"-0.017": 1.09491206229,
			"-0.016": 1.06190474054,
			"-0.015": 1.27646341686,
			"-0.014": 0.856010283275,
			"-0.013": 0.724823484365,
			"-0.012": 0.757189632403,
			"-0.011": 1.07101196862,
			"-0.01": 1.48209481962,
			"-0.009": 1.63544224135,
			"-0.008": 1.24885991184,
			"-0.007": 3.6927764364,
			"-0.006": 5.98477647068,
			"-0.005": 9.31582230993,
			"-0.004": 12.838666932,
			"-0.003": 16.3750147674,
			"-0.002": 12.8170981643,
			"-0.001": 9.87959782566,
			"0.0": 9.16837447883,
			"0.001": 10.7515170515,
			"0.002": 16.9708633221,
			"0.003": 22.9910085935,
			"0.004": 16.7345834745,
			"0.005": 9.58751898612,
			"0.006": 2.98958559574,
			"0.007": 3.71011333566,
			"0.008": 2.67173296805,
			"0.009": 3.03094629568,
			"0.01": 3.45308625974,
			"0.011": 3.17306968805,
			"0.012": 0.488765667548,
			"0.013": 0.0,
			"0.014": 0.0,
			"0.015": 0.0,
			"0.016": 0.0,
			"0.017": 0.0,
			"0.018": 0.0,
			"0.019": 0.0,
			"0.02": 0.0,
			"0.021": 0.0,
			"0.022": 0.0,
			"0.023": 0.0,
			"0.024": 0.0,
			"0.025": 0.0
		}
	}
}
