{
	 "smiles": "CCOC(=O)C(=CC1=CC(=CC(C=C(C(=O)OCC)C(=O)OCC)=C1)[N+]([O-])=O)C(=O)OCC", 
	 "Tm": 353.15, 
	 "num_atms": 58, 
	 "gaussian": { 
		 "optdone": 1, 
		 "sigma_profile": "yes", 
		 "theory": "DFT", 
		 "functional": "B3LYP", 
		 "basiset": "6-31G**", 
		 "properties": { 
			 "R2extent": 18393.2533, 
			 "electric_dipole_moment_norm": 6.07527407201, 
			 "electric_quadrupole_moment_norm": 35.3549406675, 
			 "total_energy": -1660.31880652, 
			 "HOMO_LUMO_gap": 0.15747, 
			 "cosmo_polarized_energy": -24.01, 
			 "cosmo_cavitation_energy": 65.34, 
			 "cosmo_dispersion_energy": -39.7, 
			 "cosmo_repulsion_energy": 3.11, 
			 "cosmo_total_nonelectrostatic_energy": 28.75, 
			 "SMD_solvation_energy": 16.8 
		},
		"coords": [
			{
				"x": 4.0193105367,
				"y": -6.9325754925,
				"z": 0.1966332653,
				"element": "C" 
			},
			{
				"x": 3.9712778303,
				"y": -5.7761773462,
				"z": -0.7898187992,
				"element": "C" 
			},
			{
				"x": 2.8054528716,
				"y": -4.9419573374,
				"z": -0.5686345813,
				"element": "O" 
			},
			{
				"x": 2.9241023306,
				"y": -3.983095829,
				"z": 0.373266915,
				"element": "C" 
			},
			{
				"x": 3.9398310795,
				"y": -3.7659504162,
				"z": 1.0055996938,
				"element": "O" 
			},
			{
				"x": 1.6691117804,
				"y": -3.1987026771,
				"z": 0.5688068773,
				"element": "C" 
			},
			{
				"x": 0.522687658,
				"y": -3.5230566921,
				"z": -0.0575736585,
				"element": "C" 
			},
			{
				"x": -0.7791858089,
				"y": -2.8427023172,
				"z": 0.019039136,
				"element": "C" 
			},
			{
				"x": -1.9403450787,
				"y": -3.625353074,
				"z": -0.0809313477,
				"element": "C" 
			},
			{
				"x": -3.1816088538,
				"y": -3.0081351951,
				"z": 0.0069224914,
				"element": "C" 
			},
			{
				"x": -3.3192909502,
				"y": -1.633399498,
				"z": 0.1514952539,
				"element": "C" 
			},
			{
				"x": -2.1678532887,
				"y": -0.8300916468,
				"z": 0.1824045188,
				"element": "C" 
			},
			{
				"x": -2.3554442106,
				"y": 0.6237019368,
				"z": 0.2637736292,
				"element": "C" 
			},
			{
				"x": -1.5892297351,
				"y": 1.6116356454,
				"z": -0.2375422042,
				"element": "C" 
			},
			{
				"x": -2.0521107337,
				"y": 3.0177062894,
				"z": -0.0022161279,
				"element": "C" 
			},
			{
				"x": -3.0007118834,
				"y": 3.3208752562,
				"z": 0.693599609,
				"element": "O" 
			},
			{
				"x": -1.3034438749,
				"y": 3.9016286724,
				"z": -0.6852021211,
				"element": "O" 
			},
			{
				"x": -1.6690282921,
				"y": 5.2950652437,
				"z": -0.5336155436,
				"element": "C" 
			},
			{
				"x": -0.6963406853,
				"y": 6.1122539668,
				"z": -1.3611096649,
				"element": "C" 
			},
			{
				"x": -0.3117857322,
				"y": 1.4299915199,
				"z": -1.0097031382,
				"element": "C" 
			},
			{
				"x": 0.7810192208,
				"y": 1.7447926616,
				"z": -0.5841501651,
				"element": "O" 
			},
			{
				"x": -0.5339609132,
				"y": 0.9012018652,
				"z": -2.223890408,
				"element": "O" 
			},
			{
				"x": 0.6300725201,
				"y": 0.7405827705,
				"z": -3.0825426584,
				"element": "C" 
			},
			{
				"x": 1.3793122195,
				"y": -0.5497372872,
				"z": -2.7889233763,
				"element": "C" 
			},
			{
				"x": -0.906668574,
				"y": -1.4489053571,
				"z": 0.1408526135,
				"element": "C" 
			},
			{
				"x": -4.396972951,
				"y": -3.8417724446,
				"z": -0.0641363537,
				"element": "N" 
			},
			{
				"x": -5.4822370012,
				"y": -3.2728027802,
				"z": 0.0335157637,
				"element": "O" 
			},
			{
				"x": -4.2464933905,
				"y": -5.0523250337,
				"z": -0.218329754,
				"element": "O" 
			},
			{
				"x": 1.8129198363,
				"y": -2.138590664,
				"z": 1.6348490491,
				"element": "C" 
			},
			{
				"x": 1.434292948,
				"y": -2.2944007848,
				"z": 2.7739900352,
				"element": "O" 
			},
			{
				"x": 2.444426987,
				"y": -1.0509773159,
				"z": 1.1664461478,
				"element": "O" 
			},
			{
				"x": 2.8746604367,
				"y": -0.0724011382,
				"z": 2.160205255,
				"element": "C" 
			},
			{
				"x": 1.7589604941,
				"y": 0.8714934709,
				"z": 2.5770235377,
				"element": "C" 
			},
			{
				"x": 4.8664894273,
				"y": -7.584580805,
				"z": -0.0405780754,
				"element": "H" 
			},
			{
				"x": 3.1032155423,
				"y": -7.5282200697,
				"z": 0.1459299525,
				"element": "H" 
			},
			{
				"x": 4.1469777727,
				"y": -6.5633862607,
				"z": 1.2170042476,
				"element": "H" 
			},
			{
				"x": 4.8651420669,
				"y": -5.1530226753,
				"z": -0.7140840756,
				"element": "H" 
			},
			{
				"x": 3.8575416901,
				"y": -6.1275421695,
				"z": -1.8178902734,
				"element": "H" 
			},
			{
				"x": 0.5491604091,
				"y": -4.4080983451,
				"z": -0.6882338556,
				"element": "H" 
			},
			{
				"x": -1.888534344,
				"y": -4.7008755119,
				"z": -0.1992135852,
				"element": "H" 
			},
			{
				"x": -4.3108437262,
				"y": -1.2009439394,
				"z": 0.2084925925,
				"element": "H" 
			},
			{
				"x": -3.2552140192,
				"y": 0.9582837744,
				"z": 0.7776582721,
				"element": "H" 
			},
			{
				"x": -1.6266146093,
				"y": 5.5518384275,
				"z": 0.5291921345,
				"element": "H" 
			},
			{
				"x": -2.7047941367,
				"y": 5.4222078299,
				"z": -0.8635407046,
				"element": "H" 
			},
			{
				"x": -0.7542542777,
				"y": 5.8377381139,
				"z": -2.4182438175,
				"element": "H" 
			},
			{
				"x": -0.9363554246,
				"y": 7.1758990338,
				"z": -1.2682740714,
				"element": "H" 
			},
			{
				"x": 0.3310633125,
				"y": 5.9585328086,
				"z": -1.0197741879,
				"element": "H" 
			},
			{
				"x": 1.2765680244,
				"y": 1.6118147375,
				"z": -2.9547945847,
				"element": "H" 
			},
			{
				"x": 0.2116804995,
				"y": 0.7419265346,
				"z": -4.0912445571,
				"element": "H" 
			},
			{
				"x": 2.1872778912,
				"y": -0.6737213007,
				"z": -3.517827659,
				"element": "H" 
			},
			{
				"x": 0.7140292583,
				"y": -1.4142805515,
				"z": -2.8686110419,
				"element": "H" 
			},
			{
				"x": 1.8223908391,
				"y": -0.53025881,
				"z": -1.7904156741,
				"element": "H" 
			},
			{
				"x": -0.011838522,
				"y": -0.8405605434,
				"z": 0.2011880006,
				"element": "H" 
			},
			{
				"x": 3.2761831835,
				"y": -0.6217706423,
				"z": 3.0152187493,
				"element": "H" 
			},
			{
				"x": 3.6845552097,
				"y": 0.4609584332,
				"z": 1.6588904123,
				"element": "H" 
			},
			{
				"x": 0.9639507592,
				"y": 0.3257667899,
				"z": 3.0902949518,
				"element": "H" 
			},
			{
				"x": 2.1633116613,
				"y": 1.6162347682,
				"z": 3.2716470364,
				"element": "H" 
			},
			{
				"x": 1.3487847207,
				"y": 1.3951414015,
				"z": 1.7103059244,
				"element": "H" 
			}
		],
		 "valence_orbital": [ 
			{
				"type": "occ",
				"energy": -0.28664,
				"method": "rhf"
			},
			{
				"type": "occ",
				"energy": -0.2832,
				"method": "rhf"
			},
			{
				"type": "occ",
				"energy": -0.28284,
				"method": "rhf"
			},
			{
				"type": "occ",
				"energy": -0.26786,
				"method": "rhf"
			},
			{
				"type": "occ",
				"energy": -0.25834,
				"method": "rhf"
			},
			{
				"type": "unocc",
				"energy": -0.10087,
				"method": "rhf"
			},
			{
				"type": "unocc",
				"energy": -0.08913,
				"method": "rhf"
			},
			{
				"type": "unocc",
				"energy": -0.07175,
				"method": "rhf"
			},
			{
				"type": "unocc",
				"energy": -0.0115,
				"method": "rhf"
			},
			{
				"type": "unocc",
				"energy": -0.0054,
				"method": "rhf"
			}
		],
		"cosmo_sigma_profile": { 
			"-0.025": 0.0,
			"-0.024": 0.0,
			"-0.023": 0.0,
			"-0.022": 0.0,
			"-0.021": 0.0,
			"-0.02": 0.0,
			"-0.019": 0.0,
			"-0.018": 0.0,
			"-0.017": 0.0,
			"-0.016": 0.0,
			"-0.015": 0.0,
			"-0.014": 0.0,
			"-0.013": 0.0,
			"-0.012": 0.0,
			"-0.011": 0.0574263390726,
			"-0.01": 2.62200631494,
			"-0.009": 4.20173496713,
			"-0.008": 4.77576467205,
			"-0.007": 5.82442907672,
			"-0.006": 15.7915277143,
			"-0.005": 32.6362616051,
			"-0.004": 54.1822554799,
			"-0.003": 57.4358512916,
			"-0.002": 54.9466973162,
			"-0.001": 55.9936515262,
			"0.0": 49.7494877696,
			"0.001": 27.7812342353,
			"0.002": 20.062978088,
			"0.003": 15.9219805407,
			"0.004": 16.2902197295,
			"0.005": 16.4554720489,
			"0.006": 14.5310235211,
			"0.007": 17.5264433825,
			"0.008": 12.2316595993,
			"0.009": 12.5501472477,
			"0.01": 9.92141778859,
			"0.011": 13.1508213609,
			"0.012": 3.35948785757,
			"0.013": 0.0,
			"0.014": 0.0,
			"0.015": 0.0,
			"0.016": 0.0,
			"0.017": 0.0,
			"0.018": 0.0,
			"0.019": 0.0,
			"0.02": 0.0,
			"0.021": 0.0,
			"0.022": 0.0,
			"0.023": 0.0,
			"0.024": 0.0,
			"0.025": 0.0
		}
	}
}
