{
	 "smiles": "OCC1CCN(CC1)C1=NC=CC=N1", 
	 "Tm": 326.15, 
	 "num_atms": 29, 
	 "gaussian": { 
		 "optdone": 1, 
		 "sigma_profile": "yes", 
		 "theory": "DFT", 
		 "functional": "B3LYP", 
		 "basiset": "6-31G**", 
		 "properties": { 
			 "R2extent": 3681.4929, 
			 "electric_dipole_moment_norm": 1.30364547711, 
			 "electric_quadrupole_moment_norm": 5.10899411822, 
			 "total_energy": -629.577892214, 
			 "HOMO_LUMO_gap": 0.17975, 
			 "cosmo_polarized_energy": -11.11, 
			 "cosmo_cavitation_energy": 30.21, 
			 "cosmo_dispersion_energy": -22.49, 
			 "cosmo_repulsion_energy": 1.77, 
			 "cosmo_total_nonelectrostatic_energy": 9.5, 
			 "SMD_solvation_energy": 2.24 
		},
		"coords": [
			{
				"x": -1.7549693685,
				"y": -4.0099708012,
				"z": 0.4325365317,
				"element": "O" 
			},
			{
				"x": -0.9439825928,
				"y": -3.5540051804,
				"z": -0.6445117029,
				"element": "C" 
			},
			{
				"x": -0.4370604118,
				"y": -2.1147438376,
				"z": -0.4715293048,
				"element": "C" 
			},
			{
				"x": -1.5875674455,
				"y": -1.1144300048,
				"z": -0.2816174146,
				"element": "C" 
			},
			{
				"x": -1.0702146207,
				"y": 0.3299047167,
				"z": -0.2712485847,
				"element": "C" 
			},
			{
				"x": 0.1317179247,
				"y": 0.443847746,
				"z": 0.5648751991,
				"element": "N" 
			},
			{
				"x": 0.4275714811,
				"y": -0.6626643281,
				"z": 1.4683271843,
				"element": "C" 
			},
			{
				"x": 0.5870741938,
				"y": -1.9818926017,
				"z": 0.6908918181,
				"element": "C" 
			},
			{
				"x": 0.8621610279,
				"y": 1.5971266738,
				"z": 0.5560247063,
				"element": "C" 
			},
			{
				"x": 1.9498771999,
				"y": 1.6686546586,
				"z": 1.3610594141,
				"element": "N" 
			},
			{
				"x": 2.642806115,
				"y": 2.8031438247,
				"z": 1.3133737176,
				"element": "C" 
			},
			{
				"x": 2.2981194408,
				"y": 3.8786451284,
				"z": 0.4935500216,
				"element": "C" 
			},
			{
				"x": 1.1586851404,
				"y": 3.6948965955,
				"z": -0.2880484322,
				"element": "C" 
			},
			{
				"x": 0.4310956484,
				"y": 2.5790808717,
				"z": -0.2719945192,
				"element": "N" 
			},
			{
				"x": -1.1867086293,
				"y": -4.1394566167,
				"z": 1.2021391585,
				"element": "H" 
			},
			{
				"x": -1.5820331636,
				"y": -3.6120698833,
				"z": -1.5331840108,
				"element": "H" 
			},
			{
				"x": -0.0900466408,
				"y": -4.2303454598,
				"z": -0.8115577765,
				"element": "H" 
			},
			{
				"x": 0.0763023331,
				"y": -1.8537142272,
				"z": -1.4082736515,
				"element": "H" 
			},
			{
				"x": -2.1265838933,
				"y": -1.3520534624,
				"z": 0.6415007922,
				"element": "H" 
			},
			{
				"x": -2.3170694648,
				"y": -1.2130239848,
				"z": -1.0935800746,
				"element": "H" 
			},
			{
				"x": -0.8143139111,
				"y": 0.6473295884,
				"z": -1.287304611,
				"element": "H" 
			},
			{
				"x": -1.8480710181,
				"y": 1.0220474195,
				"z": 0.0798182556,
				"element": "H" 
			},
			{
				"x": -0.3856639202,
				"y": -0.7577950579,
				"z": 2.2023176561,
				"element": "H" 
			},
			{
				"x": 1.3340402116,
				"y": -0.4130588962,
				"z": 2.016764438,
				"element": "H" 
			},
			{
				"x": 0.4719275181,
				"y": -2.8049575246,
				"z": 1.4102809939,
				"element": "H" 
			},
			{
				"x": 1.60556732,
				"y": -2.057834677,
				"z": 0.2956544609,
				"element": "H" 
			},
			{
				"x": 3.5165363008,
				"y": 2.8549344497,
				"z": 1.9630006581,
				"element": "H" 
			},
			{
				"x": 2.8742724843,
				"y": 4.7957472745,
				"z": 0.4705452335,
				"element": "H" 
			},
			{
				"x": 0.8089307405,
				"y": 4.4807575962,
				"z": -0.9575101569,
				"element": "H" 
			}
		],
		 "valence_orbital": [ 
			{
				"type": "occ",
				"energy": -0.29977,
				"method": "rhf"
			},
			{
				"type": "occ",
				"energy": -0.29151,
				"method": "rhf"
			},
			{
				"type": "occ",
				"energy": -0.2664,
				"method": "rhf"
			},
			{
				"type": "occ",
				"energy": -0.23533,
				"method": "rhf"
			},
			{
				"type": "occ",
				"energy": -0.20422,
				"method": "rhf"
			},
			{
				"type": "unocc",
				"energy": -0.02447,
				"method": "rhf"
			},
			{
				"type": "unocc",
				"energy": 0.00841,
				"method": "rhf"
			},
			{
				"type": "unocc",
				"energy": 0.05985,
				"method": "rhf"
			},
			{
				"type": "unocc",
				"energy": 0.09185,
				"method": "rhf"
			},
			{
				"type": "unocc",
				"energy": 0.10703,
				"method": "rhf"
			}
		],
		"cosmo_sigma_profile": { 
			"-0.025": 0.0,
			"-0.024": 0.0,
			"-0.023": 0.0,
			"-0.022": 0.0,
			"-0.021": 0.0,
			"-0.02": 0.0,
			"-0.019": 0.0,
			"-0.018": 0.0,
			"-0.017": 0.0,
			"-0.016": 0.0,
			"-0.015": 0.16680478136,
			"-0.014": 0.992047766217,
			"-0.013": 1.35368962628,
			"-0.012": 0.670628064611,
			"-0.011": 1.00777316476,
			"-0.01": 1.08277359493,
			"-0.009": 1.38647635821,
			"-0.008": 0.880044880253,
			"-0.007": 3.37198555051,
			"-0.006": 8.33917122019,
			"-0.005": 8.2729150982,
			"-0.004": 14.8612609863,
			"-0.003": 32.7042928873,
			"-0.002": 34.6102380835,
			"-0.001": 22.174483349,
			"0.0": 16.0641325079,
			"0.001": 15.8229907673,
			"0.002": 16.9759959131,
			"0.003": 11.9403150086,
			"0.004": 6.31581256307,
			"0.005": 5.40764551406,
			"0.006": 4.05998786539,
			"0.007": 3.911809454,
			"0.008": 5.02000841931,
			"0.009": 3.74320475441,
			"0.01": 2.78704217467,
			"0.011": 4.48096651669,
			"0.012": 2.91926149652,
			"0.013": 1.50106499158,
			"0.014": 2.91170662035,
			"0.015": 0.852266188399,
			"0.016": 0.0,
			"0.017": 0.0,
			"0.018": 0.0,
			"0.019": 0.0,
			"0.02": 0.0,
			"0.021": 0.0,
			"0.022": 0.0,
			"0.023": 0.0,
			"0.024": 0.0,
			"0.025": 0.0
		}
	}
}
