{
	 "smiles": "CCOC(=O)CN1N=C(C)C(C=O)=C1C", 
	 "Tm": 353.15, 
	 "num_atms": 29, 
	 "gaussian": { 
		 "optdone": 1, 
		 "sigma_profile": "yes", 
		 "theory": "DFT", 
		 "functional": "B3LYP", 
		 "basiset": "6-31G**", 
		 "properties": { 
			 "R2extent": 3831.1627, 
			 "electric_dipole_moment_norm": 1.64574916072, 
			 "electric_quadrupole_moment_norm": 19.1934212466, 
			 "total_energy": -724.677537509, 
			 "HOMO_LUMO_gap": 0.20414, 
			 "cosmo_polarized_energy": -14.56, 
			 "cosmo_cavitation_energy": 33.41, 
			 "cosmo_dispersion_energy": -22.59, 
			 "cosmo_repulsion_energy": 1.82, 
			 "cosmo_total_nonelectrostatic_energy": 12.64, 
			 "SMD_solvation_energy": 7.07 
		},
		"coords": [
			{
				"x": -3.9402820245,
				"y": -1.514911925,
				"z": 0.1687914727,
				"element": "C" 
			},
			{
				"x": -3.7553136298,
				"y": -0.039194293,
				"z": -0.1451128741,
				"element": "C" 
			},
			{
				"x": -2.3738605469,
				"y": 0.2513621069,
				"z": -0.4937206935,
				"element": "O" 
			},
			{
				"x": -2.0259564348,
				"y": 0.0593641106,
				"z": -1.7745644505,
				"element": "C" 
			},
			{
				"x": -2.7702830273,
				"y": -0.2947026877,
				"z": -2.6613695202,
				"element": "O" 
			},
			{
				"x": -0.555921746,
				"y": 0.3938350811,
				"z": -2.0411372253,
				"element": "C" 
			},
			{
				"x": 0.3021147279,
				"y": 0.447165852,
				"z": -0.8801013519,
				"element": "N" 
			},
			{
				"x": 0.9184955866,
				"y": -0.7084949888,
				"z": -0.4772744346,
				"element": "N" 
			},
			{
				"x": 1.5785502568,
				"y": -0.3817017921,
				"z": 0.6233858638,
				"element": "C" 
			},
			{
				"x": 2.3951518359,
				"y": -1.4098760832,
				"z": 1.3459068949,
				"element": "C" 
			},
			{
				"x": 1.3854600455,
				"y": 0.9988563304,
				"z": 0.9463146377,
				"element": "C" 
			},
			{
				"x": 1.9467890614,
				"y": 1.7267716654,
				"z": 2.0727474189,
				"element": "C" 
			},
			{
				"x": 1.7667594227,
				"y": 2.9118028444,
				"z": 2.3234374982,
				"element": "O" 
			},
			{
				"x": 0.5429664209,
				"y": 1.493586374,
				"z": -0.0562683589,
				"element": "C" 
			},
			{
				"x": -0.0314917276,
				"y": 2.8575482657,
				"z": -0.2545972284,
				"element": "C" 
			},
			{
				"x": -3.2579622447,
				"y": -1.8327752052,
				"z": 0.9620682707,
				"element": "H" 
			},
			{
				"x": -4.9671873307,
				"y": -1.6937076408,
				"z": 0.5041227056,
				"element": "H" 
			},
			{
				"x": -3.7595974256,
				"y": -2.124288161,
				"z": -0.7199958669,
				"element": "H" 
			},
			{
				"x": -3.9465542493,
				"y": 0.5870196617,
				"z": 0.7287367299,
				"element": "H" 
			},
			{
				"x": -4.3965843394,
				"y": 0.2771320683,
				"z": -0.9709709646,
				"element": "H" 
			},
			{
				"x": -0.5279934897,
				"y": 1.3536789639,
				"z": -2.5664190953,
				"element": "H" 
			},
			{
				"x": -0.1654420425,
				"y": -0.3685624887,
				"z": -2.7161846671,
				"element": "H" 
			},
			{
				"x": 3.4521955426,
				"y": -1.1259284627,
				"z": 1.3907372724,
				"element": "H" 
			},
			{
				"x": 2.3173287469,
				"y": -2.3668001954,
				"z": 0.8257361791,
				"element": "H" 
			},
			{
				"x": 2.0492790587,
				"y": -1.5468572058,
				"z": 2.3761965225,
				"element": "H" 
			},
			{
				"x": 2.5896881121,
				"y": 1.111784646,
				"z": 2.7401002265,
				"element": "H" 
			},
			{
				"x": 0.2698049791,
				"y": 3.2864889011,
				"z": -1.2180186972,
				"element": "H" 
			},
			{
				"x": -1.1263098795,
				"y": 2.8275883212,
				"z": -0.2275050688,
				"element": "H" 
			},
			{
				"x": 0.3282563412,
				"y": 3.5056159367,
				"z": 0.5442588044,
				"element": "H" 
			}
		],
		 "valence_orbital": [ 
			{
				"type": "occ",
				"energy": -0.29809,
				"method": "rhf"
			},
			{
				"type": "occ",
				"energy": -0.29351,
				"method": "rhf"
			},
			{
				"type": "occ",
				"energy": -0.25157,
				"method": "rhf"
			},
			{
				"type": "occ",
				"energy": -0.24729,
				"method": "rhf"
			},
			{
				"type": "occ",
				"energy": -0.24397,
				"method": "rhf"
			},
			{
				"type": "unocc",
				"energy": -0.03983,
				"method": "rhf"
			},
			{
				"type": "unocc",
				"energy": -0.00389,
				"method": "rhf"
			},
			{
				"type": "unocc",
				"energy": 0.01443,
				"method": "rhf"
			},
			{
				"type": "unocc",
				"energy": 0.07993,
				"method": "rhf"
			},
			{
				"type": "unocc",
				"energy": 0.09877,
				"method": "rhf"
			}
		],
		"cosmo_sigma_profile": { 
			"-0.025": 0.0,
			"-0.024": 0.0,
			"-0.023": 0.0,
			"-0.022": 0.0,
			"-0.021": 0.0,
			"-0.02": 0.0,
			"-0.019": 0.0,
			"-0.018": 0.0,
			"-0.017": 0.0,
			"-0.016": 0.0,
			"-0.015": 0.0,
			"-0.014": 0.0,
			"-0.013": 0.0,
			"-0.012": 0.0,
			"-0.011": 0.0,
			"-0.01": 0.593261846213,
			"-0.009": 4.2758083364,
			"-0.008": 4.52842643646,
			"-0.007": 4.21722870748,
			"-0.006": 9.62209967884,
			"-0.005": 24.0105470514,
			"-0.004": 27.299011441,
			"-0.003": 24.514831738,
			"-0.002": 25.3661920806,
			"-0.001": 26.3597953194,
			"0.0": 21.2204658882,
			"0.001": 14.0264721509,
			"0.002": 9.96087054447,
			"0.003": 9.99883111126,
			"0.004": 7.88309776213,
			"0.005": 7.02535333601,
			"0.006": 6.28436837432,
			"0.007": 3.83576761468,
			"0.008": 3.83387853362,
			"0.009": 4.81993632905,
			"0.01": 5.56193118562,
			"0.011": 7.32401965588,
			"0.012": 6.91868861269,
			"0.013": 2.75463914459,
			"0.014": 1.32458446773,
			"0.015": 0.4511119133,
			"0.016": 0.00506179060347,
			"0.017": 0.0,
			"0.018": 0.0,
			"0.019": 0.0,
			"0.02": 0.0,
			"0.021": 0.0,
			"0.022": 0.0,
			"0.023": 0.0,
			"0.024": 0.0,
			"0.025": 0.0
		}
	}
}
