{
	 "smiles": "CC(=O)NC12CC3CC(C1)CC(C3)(C2)C(O)=O", 
	 "Tm": 532.15, 
	 "num_atms": 36, 
	 "gaussian": { 
		 "optdone": 1, 
		 "sigma_profile": "yes", 
		 "theory": "DFT", 
		 "functional": "B3LYP", 
		 "basiset": "6-31G**", 
		 "properties": { 
			 "R2extent": 4253.8378, 
			 "electric_dipole_moment_norm": 2.12483439355, 
			 "electric_quadrupole_moment_norm": 13.2311552073, 
			 "total_energy": -787.324304328, 
			 "HOMO_LUMO_gap": 0.24335, 
			 "cosmo_polarized_energy": -16.2, 
			 "cosmo_cavitation_energy": 34.32, 
			 "cosmo_dispersion_energy": -24.98, 
			 "cosmo_repulsion_energy": 1.92, 
			 "cosmo_total_nonelectrostatic_energy": 11.25, 
			 "SMD_solvation_energy": 6.18 
		},
		"coords": [
			{
				"x": -3.131215929,
				"y": 3.3870471762,
				"z": 1.8082794928,
				"element": "C" 
			},
			{
				"x": -1.7707376833,
				"y": 2.7110433772,
				"z": 1.6785556357,
				"element": "C" 
			},
			{
				"x": -0.7493807625,
				"y": 3.2559229997,
				"z": 2.0875717415,
				"element": "O" 
			},
			{
				"x": -1.7866451205,
				"y": 1.4812466231,
				"z": 1.0840785372,
				"element": "N" 
			},
			{
				"x": -0.6083687829,
				"y": 0.6329355632,
				"z": 0.843879814,
				"element": "C" 
			},
			{
				"x": 0.4101613635,
				"y": 1.3382855801,
				"z": -0.0835551813,
				"element": "C" 
			},
			{
				"x": 1.5996877469,
				"y": 0.397961831,
				"z": -0.3610075354,
				"element": "C" 
			},
			{
				"x": 2.2890296647,
				"y": 0.0296608928,
				"z": 0.9682396292,
				"element": "C" 
			},
			{
				"x": 1.2777865662,
				"y": -0.6857607337,
				"z": 1.8864909221,
				"element": "C" 
			},
			{
				"x": 0.0870424609,
				"y": 0.2504561548,
				"z": 2.1725821098,
				"element": "C" 
			},
			{
				"x": 0.777152909,
				"y": -1.9715336614,
				"z": 1.19956828,
				"element": "C" 
			},
			{
				"x": 0.0735088335,
				"y": -1.6051551455,
				"z": -0.1372074128,
				"element": "C" 
			},
			{
				"x": 1.0999646054,
				"y": -0.8841851406,
				"z": -1.0553586199,
				"element": "C" 
			},
			{
				"x": -1.1060275967,
				"y": -0.6534784947,
				"z": 0.1526563925,
				"element": "C" 
			},
			{
				"x": -0.4499568977,
				"y": -2.8606676852,
				"z": -0.8178371541,
				"element": "C" 
			},
			{
				"x": 0.5404924935,
				"y": -3.7447069593,
				"z": -1.1011169002,
				"element": "O" 
			},
			{
				"x": -1.6086138521,
				"y": -3.0897468553,
				"z": -1.0954340006,
				"element": "O" 
			},
			{
				"x": -3.317283191,
				"y": 3.5960680551,
				"z": 2.8652707398,
				"element": "H" 
			},
			{
				"x": -3.0935716523,
				"y": 4.3488413991,
				"z": 1.2894690247,
				"element": "H" 
			},
			{
				"x": -3.9642981991,
				"y": 2.8009674039,
				"z": 1.4099243646,
				"element": "H" 
			},
			{
				"x": -2.678252491,
				"y": 1.1182906006,
				"z": 0.7812153818,
				"element": "H" 
			},
			{
				"x": 0.7451295179,
				"y": 2.2630827258,
				"z": 0.3930195151,
				"element": "H" 
			},
			{
				"x": -0.0892140391,
				"y": 1.6116004308,
				"z": -1.0220705036,
				"element": "H" 
			},
			{
				"x": 2.3148466283,
				"y": 0.9046279615,
				"z": -1.0206890983,
				"element": "H" 
			},
			{
				"x": 2.6667293755,
				"y": 0.9349082064,
				"z": 1.458850337,
				"element": "H" 
			},
			{
				"x": 3.1534445194,
				"y": -0.6198474945,
				"z": 0.7788230072,
				"element": "H" 
			},
			{
				"x": 1.7627508952,
				"y": -0.9534634114,
				"z": 2.8333195898,
				"element": "H" 
			},
			{
				"x": 0.41806522,
				"y": 1.1619396078,
				"z": 2.6768207995,
				"element": "H" 
			},
			{
				"x": -0.640741971,
				"y": -0.2447062944,
				"z": 2.8283674248,
				"element": "H" 
			},
			{
				"x": 1.6100081917,
				"y": -2.6540535611,
				"z": 1.0006174047,
				"element": "H" 
			},
			{
				"x": 0.0728570273,
				"y": -2.500804854,
				"z": 1.8543829093,
				"element": "H" 
			},
			{
				"x": 1.9352956957,
				"y": -1.5584035564,
				"z": -1.2716037668,
				"element": "H" 
			},
			{
				"x": 0.6267502873,
				"y": -0.635610428,
				"z": -2.0141260916,
				"element": "H" 
			},
			{
				"x": -1.6158313741,
				"y": -0.4040667873,
				"z": -0.785937065,
				"element": "H" 
			},
			{
				"x": -1.841163658,
				"y": -1.1625245484,
				"z": 0.7878926967,
				"element": "H" 
			},
			{
				"x": 0.1067991982,
				"y": -4.5020709779,
				"z": -1.52883242,
				"element": "H" 
			}
		],
		 "valence_orbital": [ 
			{
				"type": "occ",
				"energy": -0.30095,
				"method": "rhf"
			},
			{
				"type": "occ",
				"energy": -0.29063,
				"method": "rhf"
			},
			{
				"type": "occ",
				"energy": -0.26835,
				"method": "rhf"
			},
			{
				"type": "occ",
				"energy": -0.24449,
				"method": "rhf"
			},
			{
				"type": "occ",
				"energy": -0.23729,
				"method": "rhf"
			},
			{
				"type": "unocc",
				"energy": 0.00606,
				"method": "rhf"
			},
			{
				"type": "unocc",
				"energy": 0.0334,
				"method": "rhf"
			},
			{
				"type": "unocc",
				"energy": 0.06303,
				"method": "rhf"
			},
			{
				"type": "unocc",
				"energy": 0.07669,
				"method": "rhf"
			},
			{
				"type": "unocc",
				"energy": 0.08171,
				"method": "rhf"
			}
		],
		"cosmo_sigma_profile": { 
			"-0.025": 0.0,
			"-0.024": 0.0,
			"-0.023": 0.0,
			"-0.022": 0.0,
			"-0.021": 0.0,
			"-0.02": 0.0,
			"-0.019": 0.0,
			"-0.018": 0.494843095393,
			"-0.017": 1.00820264715,
			"-0.016": 0.853535204371,
			"-0.015": 0.527632303042,
			"-0.014": 0.781622014592,
			"-0.013": 1.70463828717,
			"-0.012": 1.96417366524,
			"-0.011": 2.01216265946,
			"-0.01": 2.01583968015,
			"-0.009": 1.77850779392,
			"-0.008": 2.2829710592,
			"-0.007": 2.86231047569,
			"-0.006": 3.17871213658,
			"-0.005": 7.30181993121,
			"-0.004": 15.3456529446,
			"-0.003": 30.1953631687,
			"-0.002": 36.031265359,
			"-0.001": 40.2303586573,
			"0.0": 29.3317674078,
			"0.001": 18.1478525197,
			"0.002": 8.31957993902,
			"0.003": 7.37985743175,
			"0.004": 5.56681995294,
			"0.005": 3.93900120605,
			"0.006": 4.41301579607,
			"0.007": 5.39164477227,
			"0.008": 4.5415862256,
			"0.009": 3.41327915758,
			"0.01": 3.49327413372,
			"0.011": 4.99843727429,
			"0.012": 5.94976865797,
			"0.013": 2.65703739083,
			"0.014": 3.13743580974,
			"0.015": 2.82482857138,
			"0.016": 0.573665039535,
			"0.017": 0.0,
			"0.018": 0.0,
			"0.019": 0.0,
			"0.02": 0.0,
			"0.021": 0.0,
			"0.022": 0.0,
			"0.023": 0.0,
			"0.024": 0.0,
			"0.025": 0.0
		}
	}
}
