{
	 "smiles": "CC1=CC=CC(C)=C1NC1=NN=C(SCC(O)=O)S1", 
	 "Tm": 481.15, 
	 "num_atms": 32, 
	 "gaussian": { 
		 "optdone": 1, 
		 "sigma_profile": "yes", 
		 "theory": "DFT", 
		 "functional": "B3LYP", 
		 "basiset": "6-31G**", 
		 "properties": { 
			 "R2extent": 8031.0863, 
			 "electric_dipole_moment_norm": 3.61279236187, 
			 "electric_quadrupole_moment_norm": 15.1845999628, 
			 "total_energy": -1576.17256316, 
			 "HOMO_LUMO_gap": 0.18293, 
			 "cosmo_polarized_energy": -20.42, 
			 "cosmo_cavitation_energy": 40.34, 
			 "cosmo_dispersion_energy": -27.66, 
			 "cosmo_repulsion_energy": 2.07, 
			 "cosmo_total_nonelectrostatic_energy": 14.75, 
			 "SMD_solvation_energy": 5.43 
		},
		"coords": [
			{
				"x": 1.3470440641,
				"y": 3.0774425834,
				"z": 2.155531613,
				"element": "C" 
			},
			{
				"x": -0.1348279648,
				"y": 2.8314841722,
				"z": 2.3033997092,
				"element": "C" 
			},
			{
				"x": -0.7366202454,
				"y": 2.8432618672,
				"z": 3.5679264959,
				"element": "C" 
			},
			{
				"x": -2.1089651694,
				"y": 2.6537736729,
				"z": 3.7124822906,
				"element": "C" 
			},
			{
				"x": -2.9090196286,
				"y": 2.4483842635,
				"z": 2.5896308391,
				"element": "C" 
			},
			{
				"x": -2.3491689928,
				"y": 2.4147219242,
				"z": 1.308503935,
				"element": "C" 
			},
			{
				"x": -3.2135920413,
				"y": 2.1901175599,
				"z": 0.0910797869,
				"element": "C" 
			},
			{
				"x": -0.9576517851,
				"y": 2.599262342,
				"z": 1.1835358382,
				"element": "C" 
			},
			{
				"x": -0.3734667101,
				"y": 2.5907098873,
				"z": -0.1236574518,
				"element": "N" 
			},
			{
				"x": 0.2732261879,
				"y": 1.5365688307,
				"z": -0.6926544413,
				"element": "C" 
			},
			{
				"x": 0.689169692,
				"y": 1.5632679542,
				"z": -1.9439432548,
				"element": "N" 
			},
			{
				"x": 1.3261985617,
				"y": 0.4207650057,
				"z": -2.3071360679,
				"element": "N" 
			},
			{
				"x": 1.3950175547,
				"y": -0.4764061054,
				"z": -1.3676852078,
				"element": "C" 
			},
			{
				"x": 2.123630096,
				"y": -2.0659281571,
				"z": -1.5854190699,
				"element": "S" 
			},
			{
				"x": 3.7449530036,
				"y": -1.8450190905,
				"z": -0.7175999577,
				"element": "C" 
			},
			{
				"x": 4.5681645082,
				"y": -0.7290808072,
				"z": -1.320301302,
				"element": "C" 
			},
			{
				"x": 5.2020924188,
				"y": -1.1173650671,
				"z": -2.4469756956,
				"element": "O" 
			},
			{
				"x": 4.6419471856,
				"y": 0.3885625372,
				"z": -0.8610967906,
				"element": "O" 
			},
			{
				"x": 0.616024773,
				"y": 0.0353247019,
				"z": 0.1491295002,
				"element": "S" 
			},
			{
				"x": 1.7644849485,
				"y": 3.4794247402,
				"z": 3.0820961908,
				"element": "H" 
			},
			{
				"x": 1.8916484428,
				"y": 2.1566010113,
				"z": 1.917860519,
				"element": "H" 
			},
			{
				"x": 1.5545974953,
				"y": 3.7832638348,
				"z": 1.3460507359,
				"element": "H" 
			},
			{
				"x": -0.118150998,
				"y": 3.0185063498,
				"z": 4.4438958483,
				"element": "H" 
			},
			{
				"x": -2.5576432032,
				"y": 2.6726185624,
				"z": 4.7015319944,
				"element": "H" 
			},
			{
				"x": -3.9800324634,
				"y": 2.3052934393,
				"z": 2.7037518775,
				"element": "H" 
			},
			{
				"x": -3.2497349414,
				"y": 3.0776016377,
				"z": -0.5531794833,
				"element": "H" 
			},
			{
				"x": -2.8386179768,
				"y": 1.3661987833,
				"z": -0.5245900457,
				"element": "H" 
			},
			{
				"x": -4.2402949558,
				"y": 1.9567867956,
				"z": 0.3832978306,
				"element": "H" 
			},
			{
				"x": -0.6487991575,
				"y": 3.2993333588,
				"z": -0.7931939722,
				"element": "H" 
			},
			{
				"x": 4.2462197397,
				"y": -2.8091317965,
				"z": -0.8323366839,
				"element": "H" 
			},
			{
				"x": 3.5777510432,
				"y": -1.631275655,
				"z": 0.3380724562,
				"element": "H" 
			},
			{
				"x": 5.6445165183,
				"y": -0.3266691365,
				"z": -2.7988080363,
				"element": "H" 
			}
		],
		 "valence_orbital": [ 
			{
				"type": "occ",
				"energy": -0.26462,
				"method": "rhf"
			},
			{
				"type": "occ",
				"energy": -0.25756,
				"method": "rhf"
			},
			{
				"type": "occ",
				"energy": -0.24962,
				"method": "rhf"
			},
			{
				"type": "occ",
				"energy": -0.24588,
				"method": "rhf"
			},
			{
				"type": "occ",
				"energy": -0.22339,
				"method": "rhf"
			},
			{
				"type": "unocc",
				"energy": -0.04046,
				"method": "rhf"
			},
			{
				"type": "unocc",
				"energy": -0.02106,
				"method": "rhf"
			},
			{
				"type": "unocc",
				"energy": -0.00874,
				"method": "rhf"
			},
			{
				"type": "unocc",
				"energy": -0.00594,
				"method": "rhf"
			},
			{
				"type": "unocc",
				"energy": 0.00628,
				"method": "rhf"
			}
		],
		"cosmo_sigma_profile": { 
			"-0.025": 0.0,
			"-0.024": 0.0,
			"-0.023": 0.0,
			"-0.022": 0.0,
			"-0.021": 0.0,
			"-0.02": 0.0,
			"-0.019": 0.242236667164,
			"-0.018": 0.958240882489,
			"-0.017": 1.17093940924,
			"-0.016": 0.697877314108,
			"-0.015": 1.22053873711,
			"-0.014": 1.71570603262,
			"-0.013": 1.48575308946,
			"-0.012": 1.57133387595,
			"-0.011": 1.6409773887,
			"-0.01": 2.79957298407,
			"-0.009": 3.67751463933,
			"-0.008": 5.1296725575,
			"-0.007": 7.05580527625,
			"-0.006": 10.1737808347,
			"-0.005": 19.0654326649,
			"-0.004": 20.9969220433,
			"-0.003": 22.7421065961,
			"-0.002": 27.3706019116,
			"-0.001": 30.4694276506,
			"0.0": 32.720970504,
			"0.001": 22.5509029235,
			"0.002": 16.2088271807,
			"0.003": 14.921973424,
			"0.004": 13.9053917365,
			"0.005": 14.5761227844,
			"0.006": 7.89982497096,
			"0.007": 6.0089295782,
			"0.008": 7.39703194473,
			"0.009": 5.34336351971,
			"0.01": 4.50191375317,
			"0.011": 7.7899071656,
			"0.012": 5.53087926809,
			"0.013": 2.36949695863,
			"0.014": 1.89493022963,
			"0.015": 0.788205344195,
			"0.016": 0.0017342377308,
			"0.017": 0.0,
			"0.018": 0.0,
			"0.019": 0.0,
			"0.02": 0.0,
			"0.021": 0.0,
			"0.022": 0.0,
			"0.023": 0.0,
			"0.024": 0.0,
			"0.025": 0.0
		}
	}
}
