{
	 "smiles": "CC1=C(C)C(C)=C(C)C1[Si](C)(C)C1C(C)=C(C)C(C)=C1C", 
	 "Tm": 339.65, 
	 "num_atms": 53, 
	 "gaussian": { 
		 "optdone": 1, 
		 "sigma_profile": "yes", 
		 "theory": "DFT", 
		 "functional": "B3LYP", 
		 "basiset": "6-31G**", 
		 "properties": { 
			 "R2extent": 7580.1414, 
			 "electric_dipole_moment_norm": 0.452542473145, 
			 "electric_quadrupole_moment_norm": 2.243580578, 
			 "total_energy": -1070.93804073, 
			 "HOMO_LUMO_gap": 0.18158, 
			 "cosmo_polarized_energy": -4.83, 
			 "cosmo_cavitation_energy": 50.3, 
			 "cosmo_dispersion_energy": -30.67, 
			 "cosmo_repulsion_energy": 2.38, 
			 "cosmo_total_nonelectrostatic_energy": 22.01, 
			 "SMD_solvation_energy": 9.27 
		},
		"coords": [
			{
				"x": 2.1812731549,
				"y": 3.3933780859,
				"z": 1.6630764325,
				"element": "C" 
			},
			{
				"x": 2.4737678557,
				"y": 1.9215732946,
				"z": 1.7173497917,
				"element": "C" 
			},
			{
				"x": 3.5996618011,
				"y": 1.28083289,
				"z": 1.299882269,
				"element": "C" 
			},
			{
				"x": 4.8070233098,
				"y": 1.8729515752,
				"z": 0.6302580917,
				"element": "C" 
			},
			{
				"x": 3.5026959008,
				"y": -0.1495764391,
				"z": 1.6396893312,
				"element": "C" 
			},
			{
				"x": 4.6052629292,
				"y": -1.128370252,
				"z": 1.3531931167,
				"element": "C" 
			},
			{
				"x": 2.3105031,
				"y": -0.3885676879,
				"z": 2.2502892875,
				"element": "C" 
			},
			{
				"x": 1.8405672949,
				"y": -1.6701456307,
				"z": 2.8769956802,
				"element": "C" 
			},
			{
				"x": 1.5243097802,
				"y": 0.8976059519,
				"z": 2.2944196532,
				"element": "C" 
			},
			{
				"x": -0.2098295836,
				"y": 0.9284974843,
				"z": 1.4027844058,
				"element": "Si" 
			},
			{
				"x": -1.2389456286,
				"y": -0.6271572662,
				"z": 1.7198463957,
				"element": "C" 
			},
			{
				"x": -1.1564795595,
				"y": 2.3357996019,
				"z": 2.2593786517,
				"element": "C" 
			},
			{
				"x": -0.00955185,
				"y": 1.1866053305,
				"z": -0.5159029641,
				"element": "C" 
			},
			{
				"x": 0.0657728367,
				"y": -0.140676687,
				"z": -1.2329848366,
				"element": "C" 
			},
			{
				"x": 1.2081936658,
				"y": -1.1005876328,
				"z": -1.085142556,
				"element": "C" 
			},
			{
				"x": -1.0329092652,
				"y": -0.2684141571,
				"z": -2.0262286076,
				"element": "C" 
			},
			{
				"x": -1.4188885144,
				"y": -1.4322953341,
				"z": -2.8940876285,
				"element": "C" 
			},
			{
				"x": -1.8299162599,
				"y": 0.9672435623,
				"z": -1.9583890601,
				"element": "C" 
			},
			{
				"x": -3.0849148186,
				"y": 1.1743194559,
				"z": -2.757296688,
				"element": "C" 
			},
			{
				"x": -1.2230260599,
				"y": 1.8525117484,
				"z": -1.1214518877,
				"element": "C" 
			},
			{
				"x": -1.6059887149,
				"y": 3.2874438923,
				"z": -0.8845140405,
				"element": "C" 
			},
			{
				"x": 1.3941338716,
				"y": 3.6477331012,
				"z": 0.9402124114,
				"element": "H" 
			},
			{
				"x": 1.8430455507,
				"y": 3.7695637692,
				"z": 2.6369501708,
				"element": "H" 
			},
			{
				"x": 3.0684393853,
				"y": 3.9672790345,
				"z": 1.3825554338,
				"element": "H" 
			},
			{
				"x": 5.7186145967,
				"y": 1.6959432935,
				"z": 1.2151153976,
				"element": "H" 
			},
			{
				"x": 4.711570452,
				"y": 2.951884528,
				"z": 0.486081024,
				"element": "H" 
			},
			{
				"x": 4.9779432535,
				"y": 1.4244859446,
				"z": -0.3568605149,
				"element": "H" 
			},
			{
				"x": 4.3796935479,
				"y": -2.1255010629,
				"z": 1.7393331855,
				"element": "H" 
			},
			{
				"x": 5.5559732716,
				"y": -0.806627993,
				"z": 1.7967373909,
				"element": "H" 
			},
			{
				"x": 4.7821724763,
				"y": -1.2290325956,
				"z": 0.2743531671,
				"element": "H" 
			},
			{
				"x": 1.3798587841,
				"y": -1.4854059542,
				"z": 3.8554501096,
				"element": "H" 
			},
			{
				"x": 2.6703128244,
				"y": -2.364996311,
				"z": 3.0342406881,
				"element": "H" 
			},
			{
				"x": 1.0895993565,
				"y": -2.1967149802,
				"z": 2.2752116555,
				"element": "H" 
			},
			{
				"x": 1.2518300962,
				"y": 1.1473203021,
				"z": 3.332941858,
				"element": "H" 
			},
			{
				"x": -0.8103363063,
				"y": -1.5301675404,
				"z": 1.2805066781,
				"element": "H" 
			},
			{
				"x": -1.3805376906,
				"y": -0.7996645591,
				"z": 2.7922885431,
				"element": "H" 
			},
			{
				"x": -2.2290688533,
				"y": -0.4847269387,
				"z": 1.2722716911,
				"element": "H" 
			},
			{
				"x": -0.7442788999,
				"y": 3.3303927537,
				"z": 2.0724874124,
				"element": "H" 
			},
			{
				"x": -1.1310784911,
				"y": 2.1670036476,
				"z": 3.3428115128,
				"element": "H" 
			},
			{
				"x": -2.2083837013,
				"y": 2.3437992992,
				"z": 1.957685827,
				"element": "H" 
			},
			{
				"x": 0.9056160732,
				"y": 1.7818827839,
				"z": -0.6433039099,
				"element": "H" 
			},
			{
				"x": 1.1047308077,
				"y": -1.953086016,
				"z": -1.7618052606,
				"element": "H" 
			},
			{
				"x": 2.1644147282,
				"y": -0.6119044257,
				"z": -1.3119763904,
				"element": "H" 
			},
			{
				"x": 1.307238527,
				"y": -1.4950033137,
				"z": -0.0676646995,
				"element": "H" 
			},
			{
				"x": -0.6993068851,
				"y": -2.2519298688,
				"z": -2.8286007051,
				"element": "H" 
			},
			{
				"x": -1.493292483,
				"y": -1.141385095,
				"z": -3.9498478017,
				"element": "H" 
			},
			{
				"x": -2.400597667,
				"y": -1.8341506852,
				"z": -2.6115975211,
				"element": "H" 
			},
			{
				"x": -3.8703205909,
				"y": 0.46608839,
				"z": -2.462526713,
				"element": "H" 
			},
			{
				"x": -2.9117137801,
				"y": 1.0181962126,
				"z": -3.8296604563,
				"element": "H" 
			},
			{
				"x": -3.4905966619,
				"y": 2.1810057523,
				"z": -2.6284256538,
				"element": "H" 
			},
			{
				"x": -0.7180749933,
				"y": 3.9111183445,
				"z": -0.7268338079,
				"element": "H" 
			},
			{
				"x": -2.1384294437,
				"y": 3.6984527227,
				"z": -1.7477949231,
				"element": "H" 
			},
			{
				"x": -2.2524525298,
				"y": 3.4340756738,
				"z": -0.0113006378,
				"element": "H" 
			}
		],
		 "valence_orbital": [ 
			{
				"type": "occ",
				"energy": -0.28989,
				"method": "rhf"
			},
			{
				"type": "occ",
				"energy": -0.24916,
				"method": "rhf"
			},
			{
				"type": "occ",
				"energy": -0.23674,
				"method": "rhf"
			},
			{
				"type": "occ",
				"energy": -0.18512,
				"method": "rhf"
			},
			{
				"type": "occ",
				"energy": -0.18028,
				"method": "rhf"
			},
			{
				"type": "unocc",
				"energy": 0.0013,
				"method": "rhf"
			},
			{
				"type": "unocc",
				"energy": 0.01212,
				"method": "rhf"
			},
			{
				"type": "unocc",
				"energy": 0.0664,
				"method": "rhf"
			},
			{
				"type": "unocc",
				"energy": 0.06712,
				"method": "rhf"
			},
			{
				"type": "unocc",
				"energy": 0.08289,
				"method": "rhf"
			}
		],
		"cosmo_sigma_profile": { 
			"-0.025": 0.0,
			"-0.024": 0.0,
			"-0.023": 0.0,
			"-0.022": 0.0,
			"-0.021": 0.0,
			"-0.02": 0.0,
			"-0.019": 0.0,
			"-0.018": 0.0,
			"-0.017": 0.0,
			"-0.016": 0.0,
			"-0.015": 0.0,
			"-0.014": 0.0,
			"-0.013": 0.0,
			"-0.012": 0.0,
			"-0.011": 0.0,
			"-0.01": 0.0,
			"-0.009": 0.0,
			"-0.008": 0.0,
			"-0.007": 0.0,
			"-0.006": 0.0481845141594,
			"-0.005": 1.56286428291,
			"-0.004": 15.1708750301,
			"-0.003": 48.582765678,
			"-0.002": 53.2927288205,
			"-0.001": 58.3274675206,
			"0.0": 56.2750850416,
			"0.001": 68.3419713605,
			"0.002": 33.6527616075,
			"0.003": 17.0309558471,
			"0.004": 12.0704856719,
			"0.005": 8.56683197341,
			"0.006": 5.83400767495,
			"0.007": 3.54402267863,
			"0.008": 3.89201180041,
			"0.009": 0.516849949786,
			"0.01": 0.0,
			"0.011": 0.0,
			"0.012": 0.0,
			"0.013": 0.0,
			"0.014": 0.0,
			"0.015": 0.0,
			"0.016": 0.0,
			"0.017": 0.0,
			"0.018": 0.0,
			"0.019": 0.0,
			"0.02": 0.0,
			"0.021": 0.0,
			"0.022": 0.0,
			"0.023": 0.0,
			"0.024": 0.0,
			"0.025": 0.0
		}
	}
}
