{
	 "smiles": "COC1=C(OC)C=C(C=C1)C1=NN(CC2=CC=CC=C2)C=C1C(O)=O", 
	 "Tm": 385.15, 
	 "num_atms": 43, 
	 "gaussian": { 
		 "optdone": 1, 
		 "sigma_profile": "yes", 
		 "theory": "DFT", 
		 "functional": "B3LYP", 
		 "basiset": "6-31G**", 
		 "properties": { 
			 "R2extent": 11582.5292, 
			 "electric_dipole_moment_norm": 5.52645973477, 
			 "electric_quadrupole_moment_norm": 13.561158723, 
			 "total_energy": -1145.2439599, 
			 "HOMO_LUMO_gap": 0.16901, 
			 "cosmo_polarized_energy": -18.54, 
			 "cosmo_cavitation_energy": 47.76, 
			 "cosmo_dispersion_energy": -33.24, 
			 "cosmo_repulsion_energy": 2.54, 
			 "cosmo_total_nonelectrostatic_energy": 17.07, 
			 "SMD_solvation_energy": 10.0 
		},
		"coords": [
			{
				"x": -5.1279189837,
				"y": -0.9462377919,
				"z": -2.5241098757,
				"element": "C" 
			},
			{
				"x": -5.0020649919,
				"y": -0.4932258599,
				"z": -1.1746208188,
				"element": "O" 
			},
			{
				"x": -3.7294869193,
				"y": -0.4589455162,
				"z": -0.6619001356,
				"element": "C" 
			},
			{
				"x": -2.7471872655,
				"y": 0.4355722185,
				"z": -1.1495463092,
				"element": "C" 
			},
			{
				"x": -3.1278415057,
				"y": 1.2375160549,
				"z": -2.1918819557,
				"element": "O" 
			},
			{
				"x": -2.1904520644,
				"y": 2.181118424,
				"z": -2.6835071723,
				"element": "C" 
			},
			{
				"x": -1.4909490036,
				"y": 0.4669490581,
				"z": -0.552729156,
				"element": "C" 
			},
			{
				"x": -1.1804519113,
				"y": -0.3678210436,
				"z": 0.5425723782,
				"element": "C" 
			},
			{
				"x": -2.1628611339,
				"y": -1.2370134216,
				"z": 1.0287245306,
				"element": "C" 
			},
			{
				"x": -3.4189762294,
				"y": -1.2751806768,
				"z": 0.4200259293,
				"element": "C" 
			},
			{
				"x": 0.188561233,
				"y": -0.2963062154,
				"z": 1.0965746654,
				"element": "C" 
			},
			{
				"x": 1.1321235912,
				"y": 0.2857080637,
				"z": 0.3451463544,
				"element": "N" 
			},
			{
				"x": 2.2737776077,
				"y": 0.2609345697,
				"z": 1.0731677113,
				"element": "N" 
			},
			{
				"x": 3.5158115645,
				"y": 0.7495401094,
				"z": 0.4774567963,
				"element": "C" 
			},
			{
				"x": 4.3139763617,
				"y": -0.3252203494,
				"z": -0.2385651153,
				"element": "C" 
			},
			{
				"x": 3.7244719929,
				"y": -1.0944378006,
				"z": -1.2513146998,
				"element": "C" 
			},
			{
				"x": 4.4688172507,
				"y": -2.0672342963,
				"z": -1.9165172046,
				"element": "C" 
			},
			{
				"x": 5.8099641775,
				"y": -2.2784539147,
				"z": -1.5837719322,
				"element": "C" 
			},
			{
				"x": 6.4026206084,
				"y": -1.5142171124,
				"z": -0.5789401241,
				"element": "C" 
			},
			{
				"x": 5.6548207507,
				"y": -0.5439849338,
				"z": 0.092553015,
				"element": "C" 
			},
			{
				"x": 2.1017114175,
				"y": -0.3287962378,
				"z": 2.2668396121,
				"element": "C" 
			},
			{
				"x": 0.7661118814,
				"y": -0.7121695508,
				"z": 2.3502565688,
				"element": "C" 
			},
			{
				"x": 0.2110341663,
				"y": -1.3479078157,
				"z": 3.5478110797,
				"element": "C" 
			},
			{
				"x": 1.1409777442,
				"y": -1.4127576714,
				"z": 4.5462402475,
				"element": "O" 
			},
			{
				"x": -0.9098734373,
				"y": -1.7917367409,
				"z": 3.7174272785,
				"element": "O" 
			},
			{
				"x": -6.1983173668,
				"y": -0.9573062585,
				"z": -2.7409284573,
				"element": "H" 
			},
			{
				"x": -4.728646401,
				"y": -1.9632769295,
				"z": -2.6337461101,
				"element": "H" 
			},
			{
				"x": -4.6193600177,
				"y": -0.2772594095,
				"z": -3.2239190751,
				"element": "H" 
			},
			{
				"x": -1.2933638838,
				"y": 1.6927173906,
				"z": -3.0858127151,
				"element": "H" 
			},
			{
				"x": -2.6979414129,
				"y": 2.719168589,
				"z": -3.4859846113,
				"element": "H" 
			},
			{
				"x": -1.8885823959,
				"y": 2.8932016268,
				"z": -1.9049186568,
				"element": "H" 
			},
			{
				"x": -0.7263349248,
				"y": 1.1408772837,
				"z": -0.9147211909,
				"element": "H" 
			},
			{
				"x": -1.9540872275,
				"y": -1.872504353,
				"z": 1.8777583439,
				"element": "H" 
			},
			{
				"x": -4.191758207,
				"y": -1.9437976184,
				"z": 0.7859999041,
				"element": "H" 
			},
			{
				"x": 4.1145829782,
				"y": 1.2007420529,
				"z": 1.2735271508,
				"element": "H" 
			},
			{
				"x": 3.2185409015,
				"y": 1.5446239922,
				"z": -0.2117184705,
				"element": "H" 
			},
			{
				"x": 2.6808170196,
				"y": -0.9312217336,
				"z": -1.5041619598,
				"element": "H" 
			},
			{
				"x": 4.0025784508,
				"y": -2.6609808237,
				"z": -2.6975234761,
				"element": "H" 
			},
			{
				"x": 6.3879287025,
				"y": -3.0360552032,
				"z": -2.1050484613,
				"element": "H" 
			},
			{
				"x": 7.4433354828,
				"y": -1.674335695,
				"z": -0.3122879466,
				"element": "H" 
			},
			{
				"x": 6.1195144596,
				"y": 0.0473765864,
				"z": 0.8782642818,
				"element": "H" 
			},
			{
				"x": 2.9028167857,
				"y": -0.4457299163,
				"z": 2.980301907,
				"element": "H" 
			},
			{
				"x": 0.6917601549,
				"y": -1.85893113,
				"z": 5.2823278756,
				"element": "H" 
			}
		],
		 "valence_orbital": [ 
			{
				"type": "occ",
				"energy": -0.26015,
				"method": "rhf"
			},
			{
				"type": "occ",
				"energy": -0.25817,
				"method": "rhf"
			},
			{
				"type": "occ",
				"energy": -0.25401,
				"method": "rhf"
			},
			{
				"type": "occ",
				"energy": -0.22293,
				"method": "rhf"
			},
			{
				"type": "occ",
				"energy": -0.19921,
				"method": "rhf"
			},
			{
				"type": "unocc",
				"energy": -0.0302,
				"method": "rhf"
			},
			{
				"type": "unocc",
				"energy": -0.01881,
				"method": "rhf"
			},
			{
				"type": "unocc",
				"energy": -0.01153,
				"method": "rhf"
			},
			{
				"type": "unocc",
				"energy": -0.00697,
				"method": "rhf"
			},
			{
				"type": "unocc",
				"energy": 0.0227,
				"method": "rhf"
			}
		],
		"cosmo_sigma_profile": { 
			"-0.025": 0.0,
			"-0.024": 0.0,
			"-0.023": 0.0,
			"-0.022": 0.0,
			"-0.021": 0.0,
			"-0.02": 0.0,
			"-0.019": 0.0,
			"-0.018": 0.457143275885,
			"-0.017": 0.71019806002,
			"-0.016": 0.931302491744,
			"-0.015": 0.870033721118,
			"-0.014": 0.710920070627,
			"-0.013": 0.581463429273,
			"-0.012": 0.215113137521,
			"-0.011": 1.12172302944,
			"-0.01": 2.65848036659,
			"-0.009": 2.87566569957,
			"-0.008": 4.11810068484,
			"-0.007": 6.56228783696,
			"-0.006": 16.2299303147,
			"-0.005": 28.2005465547,
			"-0.004": 31.3664898328,
			"-0.003": 33.2967717426,
			"-0.002": 27.0423638951,
			"-0.001": 22.1480276736,
			"0.0": 24.1371827614,
			"0.001": 29.1715120654,
			"0.002": 27.3884373518,
			"0.003": 25.403378007,
			"0.004": 25.8485548857,
			"0.005": 26.0353280586,
			"0.006": 12.634446129,
			"0.007": 6.93470307653,
			"0.008": 6.18717419276,
			"0.009": 4.29740671319,
			"0.01": 5.50591902892,
			"0.011": 4.74795878107,
			"0.012": 3.05205717832,
			"0.013": 0.127179719196,
			"0.014": 0.0,
			"0.015": 0.0,
			"0.016": 0.0,
			"0.017": 0.0,
			"0.018": 0.0,
			"0.019": 0.0,
			"0.02": 0.0,
			"0.021": 0.0,
			"0.022": 0.0,
			"0.023": 0.0,
			"0.024": 0.0,
			"0.025": 0.0
		}
	}
}
