{
	 "smiles": "CC(C)=CCOC1=CC(=CC=C1)C(O)=O", 
	 "Tm": 360.15, 
	 "num_atms": 29, 
	 "gaussian": { 
		 "optdone": 1, 
		 "sigma_profile": "yes", 
		 "theory": "DFT", 
		 "functional": "B3LYP", 
		 "basiset": "6-31G**", 
		 "properties": { 
			 "R2extent": 4983.1493, 
			 "electric_dipole_moment_norm": 3.89170202996, 
			 "electric_quadrupole_moment_norm": 25.8221567997, 
			 "total_energy": -691.374272952, 
			 "HOMO_LUMO_gap": 0.18371, 
			 "cosmo_polarized_energy": -14.95, 
			 "cosmo_cavitation_energy": 33.0, 
			 "cosmo_dispersion_energy": -23.66, 
			 "cosmo_repulsion_energy": 1.88, 
			 "cosmo_total_nonelectrostatic_energy": 11.22, 
			 "SMD_solvation_energy": 7.35 
		},
		"coords": [
			{
				"x": -1.2330833841,
				"y": 1.743017944,
				"z": 3.6118723845,
				"element": "C" 
			},
			{
				"x": -1.097709124,
				"y": 2.2468989445,
				"z": 2.1950234484,
				"element": "C" 
			},
			{
				"x": -0.9802108215,
				"y": 3.7467207539,
				"z": 2.0782755391,
				"element": "C" 
			},
			{
				"x": -1.1006546255,
				"y": 1.3859807709,
				"z": 1.1647701555,
				"element": "C" 
			},
			{
				"x": -0.993644399,
				"y": 1.7155125649,
				"z": -0.2951200199,
				"element": "C" 
			},
			{
				"x": 0.1494146692,
				"y": 1.089228089,
				"z": -0.9153908816,
				"element": "O" 
			},
			{
				"x": 0.0732597412,
				"y": -0.2029552367,
				"z": -1.3280575927,
				"element": "C" 
			},
			{
				"x": -1.0373833188,
				"y": -1.0374956114,
				"z": -1.1734971248,
				"element": "C" 
			},
			{
				"x": -0.9940417084,
				"y": -2.3568432359,
				"z": -1.6467709703,
				"element": "C" 
			},
			{
				"x": 0.1473058916,
				"y": -2.8402246735,
				"z": -2.2958749261,
				"element": "C" 
			},
			{
				"x": 1.2538534073,
				"y": -1.9999369162,
				"z": -2.4500925995,
				"element": "C" 
			},
			{
				"x": 1.2251324068,
				"y": -0.6985256216,
				"z": -1.966432461,
				"element": "C" 
			},
			{
				"x": -2.225941736,
				"y": -3.187908787,
				"z": -1.4384818824,
				"element": "C" 
			},
			{
				"x": -2.0712176198,
				"y": -4.5370665289,
				"z": -1.5124000777,
				"element": "O" 
			},
			{
				"x": -3.3165688108,
				"y": -2.7185371759,
				"z": -1.2091676287,
				"element": "O" 
			},
			{
				"x": -1.3197450466,
				"y": 0.6542745084,
				"z": 3.6533348062,
				"element": "H" 
			},
			{
				"x": -2.1167686106,
				"y": 2.1747117031,
				"z": 4.0996289177,
				"element": "H" 
			},
			{
				"x": -0.3670229307,
				"y": 2.0424196962,
				"z": 4.2163723201,
				"element": "H" 
			},
			{
				"x": -0.1597332294,
				"y": 4.1129719669,
				"z": 2.7078614203,
				"element": "H" 
			},
			{
				"x": -1.8933089672,
				"y": 4.2331199197,
				"z": 2.4450705337,
				"element": "H" 
			},
			{
				"x": -0.8029806275,
				"y": 4.0976511409,
				"z": 1.0602726894,
				"element": "H" 
			},
			{
				"x": -1.1944896215,
				"y": 0.3251496794,
				"z": 1.3908711539,
				"element": "H" 
			},
			{
				"x": -1.9019331183,
				"y": 1.4276142764,
				"z": -0.8409243758,
				"element": "H" 
			},
			{
				"x": -0.837189552,
				"y": 2.781516088,
				"z": -0.4634790123,
				"element": "H" 
			},
			{
				"x": -1.9492873334,
				"y": -0.7093355071,
				"z": -0.6915961284,
				"element": "H" 
			},
			{
				"x": 0.1742770407,
				"y": -3.8390770121,
				"z": -2.7230723457,
				"element": "H" 
			},
			{
				"x": 2.1415493756,
				"y": -2.3621972409,
				"z": -2.9599294659,
				"element": "H" 
			},
			{
				"x": 2.0764285414,
				"y": -0.0352083838,
				"z": -2.0783163603,
				"element": "H" 
			},
			{
				"x": -1.130206489,
				"y": -4.7591761156,
				"z": -1.5401495158,
				"element": "H" 
			}
		],
		 "valence_orbital": [ 
			{
				"type": "occ",
				"energy": -0.3115,
				"method": "rhf"
			},
			{
				"type": "occ",
				"energy": -0.27317,
				"method": "rhf"
			},
			{
				"type": "occ",
				"energy": -0.26105,
				"method": "rhf"
			},
			{
				"type": "occ",
				"energy": -0.24978,
				"method": "rhf"
			},
			{
				"type": "occ",
				"energy": -0.22982,
				"method": "rhf"
			},
			{
				"type": "unocc",
				"energy": -0.04611,
				"method": "rhf"
			},
			{
				"type": "unocc",
				"energy": -0.00644,
				"method": "rhf"
			},
			{
				"type": "unocc",
				"energy": 0.01028,
				"method": "rhf"
			},
			{
				"type": "unocc",
				"energy": 0.05581,
				"method": "rhf"
			},
			{
				"type": "unocc",
				"energy": 0.06666,
				"method": "rhf"
			}
		],
		"cosmo_sigma_profile": { 
			"-0.025": 0.0,
			"-0.024": 0.0,
			"-0.023": 0.0,
			"-0.022": 0.0,
			"-0.021": 0.0,
			"-0.02": 0.0,
			"-0.019": 0.0,
			"-0.018": 0.63848836727,
			"-0.017": 1.00468787277,
			"-0.016": 1.12512227486,
			"-0.015": 0.553782982911,
			"-0.014": 0.959215136402,
			"-0.013": 1.31101884984,
			"-0.012": 0.743974919199,
			"-0.011": 1.32357172621,
			"-0.01": 1.32723543155,
			"-0.009": 1.05573156405,
			"-0.008": 1.69380461202,
			"-0.007": 6.51044990722,
			"-0.006": 10.0643405072,
			"-0.005": 12.3149474626,
			"-0.004": 20.5712622767,
			"-0.003": 24.9497168916,
			"-0.002": 21.6905083228,
			"-0.001": 21.5387401401,
			"0.0": 25.188619628,
			"0.001": 17.6948029063,
			"0.002": 16.3940934929,
			"0.003": 16.98691995,
			"0.004": 12.2560334424,
			"0.005": 6.99682199024,
			"0.006": 5.45761690674,
			"0.007": 3.59729377476,
			"0.008": 4.08643842159,
			"0.009": 5.74044783756,
			"0.01": 5.62629606285,
			"0.011": 5.51298458823,
			"0.012": 5.01969328064,
			"0.013": 1.69667513182,
			"0.014": 0.0730367397821,
			"0.015": 0.0,
			"0.016": 0.0,
			"0.017": 0.0,
			"0.018": 0.0,
			"0.019": 0.0,
			"0.02": 0.0,
			"0.021": 0.0,
			"0.022": 0.0,
			"0.023": 0.0,
			"0.024": 0.0,
			"0.025": 0.0
		}
	}
}
