{
	 "smiles": "CC(=NO)C(C)=NO", 
	 "Tm": 513.15, 
	 "num_atms": 16, 
	 "gaussian": { 
		 "optdone": 1, 
		 "sigma_profile": "yes", 
		 "theory": "DFT", 
		 "functional": "B3LYP", 
		 "basiset": "6-31G**", 
		 "properties": { 
			 "R2extent": 2379.4261, 
			 "electric_dipole_moment_norm": 0.0, 
			 "electric_quadrupole_moment_norm": 7.61478152543, 
			 "total_energy": -417.088307433, 
			 "HOMO_LUMO_gap": 0.1938, 
			 "cosmo_polarized_energy": -9.32, 
			 "cosmo_cavitation_energy": 20.08, 
			 "cosmo_dispersion_energy": -14.95, 
			 "cosmo_repulsion_energy": 1.29, 
			 "cosmo_total_nonelectrostatic_energy": 6.42, 
			 "SMD_solvation_energy": 4.49 
		},
		"coords": [
			{
				"x": 0.9785511306,
				"y": 2.7797642968,
				"z": -0.4166762212,
				"element": "C" 
			},
			{
				"x": 1.0200086359,
				"y": 1.759845001,
				"z": -1.5222257996,
				"element": "C" 
			},
			{
				"x": 0.3468298672,
				"y": 1.8728090928,
				"z": -2.6175455564,
				"element": "N" 
			},
			{
				"x": -0.409211151,
				"y": 3.0503596523,
				"z": -2.6301585491,
				"element": "O" 
			},
			{
				"x": 1.8545241706,
				"y": 0.5439281909,
				"z": -1.4105429111,
				"element": "C" 
			},
			{
				"x": 1.8960114583,
				"y": -0.4759712391,
				"z": -2.5161096026,
				"element": "C" 
			},
			{
				"x": 2.5280209713,
				"y": 0.4311639879,
				"z": -0.3153983857,
				"element": "N" 
			},
			{
				"x": 3.2840354963,
				"y": -0.7464037804,
				"z": -0.3027811999,
				"element": "O" 
			},
			{
				"x": -0.0500073152,
				"y": 2.9006880028,
				"z": -0.0620971716,
				"element": "H" 
			},
			{
				"x": 1.6211592343,
				"y": 2.4833278478,
				"z": 0.4095467826,
				"element": "H" 
			},
			{
				"x": 1.2933705417,
				"y": 3.75552197,
				"z": -0.8001587704,
				"element": "H" 
			},
			{
				"x": -0.8493948401,
				"y": 3.0006577954,
				"z": -3.4891054735,
				"element": "H" 
			},
			{
				"x": 1.2539597576,
				"y": -0.1791803915,
				"z": -3.3426380878,
				"element": "H" 
			},
			{
				"x": 2.924632953,
				"y": -0.5975157038,
				"z": -2.8702760307,
				"element": "H" 
			},
			{
				"x": 1.5804743109,
				"y": -1.4515241876,
				"z": -2.1326805606,
				"element": "H" 
			},
			{
				"x": 3.7244347788,
				"y": -0.6965705353,
				"z": 0.5560475378,
				"element": "H" 
			}
		],
		 "valence_orbital": [ 
			{
				"type": "occ",
				"energy": -0.36103,
				"method": "rhf"
			},
			{
				"type": "occ",
				"energy": -0.288,
				"method": "rhf"
			},
			{
				"type": "occ",
				"energy": -0.27894,
				"method": "rhf"
			},
			{
				"type": "occ",
				"energy": -0.27111,
				"method": "rhf"
			},
			{
				"type": "occ",
				"energy": -0.22796,
				"method": "rhf"
			},
			{
				"type": "unocc",
				"energy": -0.03416,
				"method": "rhf"
			},
			{
				"type": "unocc",
				"energy": 0.06501,
				"method": "rhf"
			},
			{
				"type": "unocc",
				"energy": 0.06952,
				"method": "rhf"
			},
			{
				"type": "unocc",
				"energy": 0.08095,
				"method": "rhf"
			},
			{
				"type": "unocc",
				"energy": 0.12803,
				"method": "rhf"
			}
		],
		"cosmo_sigma_profile": { 
			"-0.025": 0.0,
			"-0.024": 0.0,
			"-0.023": 0.0,
			"-0.022": 0.0,
			"-0.021": 0.0,
			"-0.02": 0.0,
			"-0.019": 0.0,
			"-0.018": 0.50466881195,
			"-0.017": 1.8053190598,
			"-0.016": 2.25153495955,
			"-0.015": 1.75892375545,
			"-0.014": 1.22015416981,
			"-0.013": 1.87688185659,
			"-0.012": 1.14380587744,
			"-0.011": 0.668579041786,
			"-0.01": 1.49904368403,
			"-0.009": 1.23069173971,
			"-0.008": 1.40286548554,
			"-0.007": 1.92724296237,
			"-0.006": 1.22503338106,
			"-0.005": 3.87409164522,
			"-0.004": 7.36705342847,
			"-0.003": 11.178583206,
			"-0.002": 11.8343608686,
			"-0.001": 15.9750323156,
			"0.0": 18.4881456151,
			"0.001": 9.86093588584,
			"0.002": 8.32009627455,
			"0.003": 5.63762558651,
			"0.004": 7.10891958226,
			"0.005": 9.02097070108,
			"0.006": 8.26678396865,
			"0.007": 7.02060062329,
			"0.008": 6.35978022318,
			"0.009": 7.58913222144,
			"0.01": 1.12053640517,
			"0.011": 0.0,
			"0.012": 0.0,
			"0.013": 0.0,
			"0.014": 0.0,
			"0.015": 0.0,
			"0.016": 0.0,
			"0.017": 0.0,
			"0.018": 0.0,
			"0.019": 0.0,
			"0.02": 0.0,
			"0.021": 0.0,
			"0.022": 0.0,
			"0.023": 0.0,
			"0.024": 0.0,
			"0.025": 0.0
		}
	}
}
