{
	 "smiles": "CC1=C(C#N)N2C=CC=CC2=C1C=O", 
	 "Tm": 444.15, 
	 "num_atms": 22, 
	 "gaussian": { 
		 "optdone": 1, 
		 "sigma_profile": "yes", 
		 "theory": "DFT", 
		 "functional": "B3LYP", 
		 "basiset": "6-31G**", 
		 "properties": { 
			 "R2extent": 2840.2325, 
			 "electric_dipole_moment_norm": 5.33103301997, 
			 "electric_quadrupole_moment_norm": 17.1387671391, 
			 "total_energy": -608.694944584, 
			 "HOMO_LUMO_gap": 0.15873, 
			 "cosmo_polarized_energy": -14.34, 
			 "cosmo_cavitation_energy": 27.51, 
			 "cosmo_dispersion_energy": -19.3, 
			 "cosmo_repulsion_energy": 1.48, 
			 "cosmo_total_nonelectrostatic_energy": 9.69, 
			 "SMD_solvation_energy": 7.14 
		},
		"coords": [
			{
				"x": 1.6660468032,
				"y": -1.372252989,
				"z": 0.5520716086,
				"element": "C" 
			},
			{
				"x": 0.451185393,
				"y": -0.5524588577,
				"z": 0.2576923576,
				"element": "C" 
			},
			{
				"x": -0.8442414051,
				"y": -0.8425244365,
				"z": 0.679794254,
				"element": "C" 
			},
			{
				"x": -1.3323931423,
				"y": -1.9186824033,
				"z": 1.4500981521,
				"element": "C" 
			},
			{
				"x": -1.7574857782,
				"y": -2.7998102866,
				"z": 2.0853961447,
				"element": "N" 
			},
			{
				"x": -1.7051273139,
				"y": 0.1558141199,
				"z": 0.2073577551,
				"element": "N" 
			},
			{
				"x": -3.0587584728,
				"y": 0.2730207917,
				"z": 0.3827991109,
				"element": "C" 
			},
			{
				"x": -3.7183851545,
				"y": 1.3371298177,
				"z": -0.1681791054,
				"element": "C" 
			},
			{
				"x": -2.9988327365,
				"y": 2.3074597087,
				"z": -0.9141187303,
				"element": "C" 
			},
			{
				"x": -1.6386471159,
				"y": 2.1816386928,
				"z": -1.0853471904,
				"element": "C" 
			},
			{
				"x": -0.9559987337,
				"y": 1.0842550684,
				"z": -0.5175570084,
				"element": "C" 
			},
			{
				"x": 0.3928755363,
				"y": 0.6526837331,
				"z": -0.4932901792,
				"element": "C" 
			},
			{
				"x": 1.5065396682,
				"y": 1.333292169,
				"z": -1.1287959107,
				"element": "C" 
			},
			{
				"x": 2.6683808045,
				"y": 0.9503859259,
				"z": -1.1021744377,
				"element": "O" 
			},
			{
				"x": 1.4142744583,
				"y": -2.2495072515,
				"z": 1.1528343191,
				"element": "H" 
			},
			{
				"x": 2.4130463968,
				"y": -0.7752304584,
				"z": 1.0831552838,
				"element": "H" 
			},
			{
				"x": 2.1443228235,
				"y": -1.697539912,
				"z": -0.3763267934,
				"element": "H" 
			},
			{
				"x": -3.5328168158,
				"y": -0.5083355271,
				"z": 0.9640630739,
				"element": "H" 
			},
			{
				"x": -4.7889196241,
				"y": 1.4244292012,
				"z": -0.0260154882,
				"element": "H" 
			},
			{
				"x": -3.5256680832,
				"y": 3.1499074612,
				"z": -1.349476546,
				"element": "H" 
			},
			{
				"x": -1.0748689683,
				"y": 2.9136401446,
				"z": -1.6519447681,
				"element": "H" 
			},
			{
				"x": 1.2394714604,
				"y": 2.2675852881,
				"z": -1.671335902,
				"element": "H" 
			}
		],
		 "valence_orbital": [ 
			{
				"type": "occ",
				"energy": -0.33861,
				"method": "rhf"
			},
			{
				"type": "occ",
				"energy": -0.32416,
				"method": "rhf"
			},
			{
				"type": "occ",
				"energy": -0.26,
				"method": "rhf"
			},
			{
				"type": "occ",
				"energy": -0.24932,
				"method": "rhf"
			},
			{
				"type": "occ",
				"energy": -0.22359,
				"method": "rhf"
			},
			{
				"type": "unocc",
				"energy": -0.06486,
				"method": "rhf"
			},
			{
				"type": "unocc",
				"energy": -0.04007,
				"method": "rhf"
			},
			{
				"type": "unocc",
				"energy": -0.03906,
				"method": "rhf"
			},
			{
				"type": "unocc",
				"energy": 0.00683,
				"method": "rhf"
			},
			{
				"type": "unocc",
				"energy": 0.0579,
				"method": "rhf"
			}
		],
		"cosmo_sigma_profile": { 
			"-0.025": 0.0,
			"-0.024": 0.0,
			"-0.023": 0.0,
			"-0.022": 0.0,
			"-0.021": 0.0,
			"-0.02": 0.0,
			"-0.019": 0.0,
			"-0.018": 0.0,
			"-0.017": 0.0,
			"-0.016": 0.0,
			"-0.015": 0.0,
			"-0.014": 0.0,
			"-0.013": 0.0,
			"-0.012": 0.0,
			"-0.011": 0.0,
			"-0.01": 0.550358456181,
			"-0.009": 2.64014989021,
			"-0.008": 8.46103255229,
			"-0.007": 11.2780419781,
			"-0.006": 10.9092195375,
			"-0.005": 12.5455700282,
			"-0.004": 12.8771304575,
			"-0.003": 17.826641596,
			"-0.002": 20.6581005907,
			"-0.001": 22.3780725488,
			"0.0": 20.9023541801,
			"0.001": 18.2972494985,
			"0.002": 12.9032213821,
			"0.003": 3.51221964807,
			"0.004": 4.06843281155,
			"0.005": 4.01007880217,
			"0.006": 3.63474439504,
			"0.007": 4.3143740887,
			"0.008": 4.08459125658,
			"0.009": 5.46922244223,
			"0.01": 4.80023133871,
			"0.011": 5.28000050225,
			"0.012": 5.74731378831,
			"0.013": 4.15738888911,
			"0.014": 1.12276532003,
			"0.015": 0.0138329630627,
			"0.016": 0.0,
			"0.017": 0.0,
			"0.018": 0.0,
			"0.019": 0.0,
			"0.02": 0.0,
			"0.021": 0.0,
			"0.022": 0.0,
			"0.023": 0.0,
			"0.024": 0.0,
			"0.0": 0.0
		}
	}
}
