{
	 "smiles": "CC1=C(SC=N1)C1=NC(CCl)=NO1", 
	 "Tm": 356.15, 
	 "num_atms": 19, 
	 "gaussian": { 
		 "optdone": 1, 
		 "sigma_profile": "yes", 
		 "theory": "DFT", 
		 "functional": "B3LYP", 
		 "basiset": "6-31G**", 
		 "properties": { 
			 "R2extent": 3828.889, 
			 "electric_dipole_moment_norm": 2.25403066749, 
			 "electric_quadrupole_moment_norm": 8.18725015497, 
			 "total_energy": -1368.1741986, 
			 "HOMO_LUMO_gap": 0.17442, 
			 "cosmo_polarized_energy": -10.4, 
			 "cosmo_cavitation_energy": 27.85, 
			 "cosmo_dispersion_energy": -21.07, 
			 "cosmo_repulsion_energy": 1.64, 
			 "cosmo_total_nonelectrostatic_energy": 8.42, 
			 "SMD_solvation_energy": 0.9 
		},
		"coords": [
			{
				"x": -3.2584199388,
				"y": -0.5067624166,
				"z": 1.5360057374,
				"element": "C" 
			},
			{
				"x": -2.4766801095,
				"y": 0.7733049445,
				"z": 1.4786286661,
				"element": "C" 
			},
			{
				"x": -1.1607335788,
				"y": 0.9232947296,
				"z": 1.0691029436,
				"element": "C" 
			},
			{
				"x": -0.6797508494,
				"y": 2.5968389977,
				"z": 1.1692096743,
				"element": "S" 
			},
			{
				"x": -2.2737202529,
				"y": 2.9593965746,
				"z": 1.7511709632,
				"element": "C" 
			},
			{
				"x": -3.0862851151,
				"y": 1.9448996263,
				"z": 1.8613014368,
				"element": "N" 
			},
			{
				"x": -0.2252486936,
				"y": -0.0687514772,
				"z": 0.6067368375,
				"element": "C" 
			},
			{
				"x": 1.0154608635,
				"y": 0.1145165383,
				"z": 0.2319704648,
				"element": "N" 
			},
			{
				"x": 1.408978301,
				"y": -1.1564237457,
				"z": -0.0987892367,
				"element": "C" 
			},
			{
				"x": 2.773423997,
				"y": -1.5003615602,
				"z": -0.5883513082,
				"element": "C" 
			},
			{
				"x": 3.0384282272,
				"y": -0.9282424082,
				"z": -2.2914853123,
				"element": "Cl" 
			},
			{
				"x": 0.4940483597,
				"y": -2.0836303663,
				"z": 0.0565485834,
				"element": "N" 
			},
			{
				"x": -0.6122647654,
				"y": -1.3622258132,
				"z": 0.5322925265,
				"element": "O" 
			},
			{
				"x": -2.7867207341,
				"y": -1.2337018498,
				"z": 2.2044975073,
				"element": "H" 
			},
			{
				"x": -3.3242040848,
				"y": -0.9792128748,
				"z": 0.5510789771,
				"element": "H" 
			},
			{
				"x": -4.2647864216,
				"y": -0.2905196127,
				"z": 1.8966997983,
				"element": "H" 
			},
			{
				"x": -2.5488974745,
				"y": 3.9780790505,
				"z": 1.9995904131,
				"element": "H" 
			},
			{
				"x": 2.9142644315,
				"y": -2.5800324198,
				"z": -0.5835742402,
				"element": "H" 
			},
			{
				"x": 3.5326078386,
				"y": -1.0129659167,
				"z": 0.023065568,
				"element": "H" 
			}
		],
		 "valence_orbital": [ 
			{
				"type": "occ",
				"energy": -0.30684,
				"method": "rhf"
			},
			{
				"type": "occ",
				"energy": -0.30406,
				"method": "rhf"
			},
			{
				"type": "occ",
				"energy": -0.29316,
				"method": "rhf"
			},
			{
				"type": "occ",
				"energy": -0.29107,
				"method": "rhf"
			},
			{
				"type": "occ",
				"energy": -0.25386,
				"method": "rhf"
			},
			{
				"type": "unocc",
				"energy": -0.07944,
				"method": "rhf"
			},
			{
				"type": "unocc",
				"energy": -0.03119,
				"method": "rhf"
			},
			{
				"type": "unocc",
				"energy": -0.00216,
				"method": "rhf"
			},
			{
				"type": "unocc",
				"energy": 0.00205,
				"method": "rhf"
			},
			{
				"type": "unocc",
				"energy": 0.04615,
				"method": "rhf"
			}
		],
		"cosmo_sigma_profile": { 
			"-0.025": 0.0,
			"-0.024": 0.0,
			"-0.023": 0.0,
			"-0.022": 0.0,
			"-0.021": 0.0,
			"-0.02": 0.0,
			"-0.019": 0.0,
			"-0.018": 0.0,
			"-0.017": 0.0,
			"-0.016": 0.0,
			"-0.015": 0.0,
			"-0.014": 0.0,
			"-0.013": 0.0,
			"-0.012": 0.00742955509851,
			"-0.011": 1.75875021304,
			"-0.01": 3.15025757875,
			"-0.009": 5.78002465038,
			"-0.008": 5.58570794742,
			"-0.007": 5.93742023193,
			"-0.006": 6.8830015739,
			"-0.005": 11.4297407728,
			"-0.004": 15.1018798208,
			"-0.003": 14.2797990595,
			"-0.002": 19.0494235836,
			"-0.001": 25.4941352967,
			"0.0": 18.561721589,
			"0.001": 15.6978582888,
			"0.002": 12.4204116178,
			"0.003": 10.0587393924,
			"0.004": 10.0907515114,
			"0.005": 16.7072001294,
			"0.006": 10.3086575996,
			"0.007": 3.64915972356,
			"0.008": 2.99634717201,
			"0.009": 3.46488668621,
			"0.01": 2.99529540043,
			"0.011": 3.305283945,
			"0.012": 2.22038199594,
			"0.013": 0.821402432599,
			"0.014": 0.626393985596,
			"0.015": 0.150866145439,
			"0.016": 0.0,
			"0.017": 0.0,
			"0.018": 0.0,
			"0.019": 0.0,
			"0.02": 0.0,
			"0.021": 0.0,
			"0.022": 0.0,
			"0.023": 0.0,
			"0.024": 0.0,
			"0.025": 0.0
		}
	}
}
