{
	 "smiles": "CC(C)C(N)CO", 
	 "Tm": 307.15, 
	 "num_atms": 20, 
	 "gaussian": { 
		 "optdone": 1, 
		 "sigma_profile": "yes", 
		 "theory": "DFT", 
		 "functional": "B3LYP", 
		 "basiset": "6-31G**", 
		 "properties": { 
			 "R2extent": 1121.4874, 
			 "electric_dipole_moment_norm": 0.973391457739, 
			 "electric_quadrupole_moment_norm": 8.42131637928, 
			 "total_energy": -328.335960468, 
			 "HOMO_LUMO_gap": 0.28631, 
			 "cosmo_polarized_energy": -8.06, 
			 "cosmo_cavitation_energy": 20.89, 
			 "cosmo_dispersion_energy": -15.4, 
			 "cosmo_repulsion_energy": 1.31, 
			 "cosmo_total_nonelectrostatic_energy": 6.8, 
			 "SMD_solvation_energy": 2.72 
		},
		"coords": [
			{
				"x": -1.4253016555,
				"y": 0.3818867628,
				"z": -0.1327524712,
				"element": "C" 
			},
			{
				"x": 0.0869463966,
				"y": 0.119484272,
				"z": -0.2036645735,
				"element": "C" 
			},
			{
				"x": 0.6052675962,
				"y": 0.27624838,
				"z": -1.6412665204,
				"element": "C" 
			},
			{
				"x": 0.4827562259,
				"y": -1.2207128822,
				"z": 0.4883512774,
				"element": "C" 
			},
			{
				"x": 1.9246248288,
				"y": -1.4709329018,
				"z": 0.5802668899,
				"element": "N" 
			},
			{
				"x": -0.166413702,
				"y": -2.4827636152,
				"z": -0.0848686688,
				"element": "C" 
			},
			{
				"x": 0.3594927036,
				"y": -2.733735922,
				"z": -1.3896830568,
				"element": "O" 
			},
			{
				"x": -1.6567348563,
				"y": 1.4069373327,
				"z": -0.4414214526,
				"element": "H" 
			},
			{
				"x": -1.9811776386,
				"y": -0.2895002024,
				"z": -0.7968488801,
				"element": "H" 
			},
			{
				"x": -1.8131021119,
				"y": 0.2462463091,
				"z": 0.883915942,
				"element": "H" 
			},
			{
				"x": 0.5755760307,
				"y": 0.8976227262,
				"z": 0.4049718367,
				"element": "H" 
			},
			{
				"x": 1.6877767481,
				"y": 0.1218584648,
				"z": -1.6946990173,
				"element": "H" 
			},
			{
				"x": 0.1362209973,
				"y": -0.4464353779,
				"z": -2.3133220618,
				"element": "H" 
			},
			{
				"x": 0.3968370646,
				"y": 1.2857479921,
				"z": -2.0131478028,
				"element": "H" 
			},
			{
				"x": 0.0990274861,
				"y": -1.1480642557,
				"z": 1.5181058,
				"element": "H" 
			},
			{
				"x": 2.4138078572,
				"y": -0.6205508139,
				"z": 0.8492597601,
				"element": "H" 
			},
			{
				"x": 2.2671640819,
				"y": -1.7358078372,
				"z": -0.3399886612,
				"element": "H" 
			},
			{
				"x": 0.0705903785,
				"y": -3.3143287642,
				"z": 0.5931309202,
				"element": "H" 
			},
			{
				"x": -1.2595840886,
				"y": -2.3683218424,
				"z": -0.1161923917,
				"element": "H" 
			},
			{
				"x": 0.1338256571,
				"y": -3.6383778248,
				"z": -1.635746868,
				"element": "H" 
			}
		],
		 "valence_orbital": [ 
			{
				"type": "occ",
				"energy": -0.33364,
				"method": "rhf"
			},
			{
				"type": "occ",
				"energy": -0.32064,
				"method": "rhf"
			},
			{
				"type": "occ",
				"energy": -0.30045,
				"method": "rhf"
			},
			{
				"type": "occ",
				"energy": -0.26797,
				"method": "rhf"
			},
			{
				"type": "occ",
				"energy": -0.22268,
				"method": "rhf"
			},
			{
				"type": "unocc",
				"energy": 0.06363,
				"method": "rhf"
			},
			{
				"type": "unocc",
				"energy": 0.0994,
				"method": "rhf"
			},
			{
				"type": "unocc",
				"energy": 0.11071,
				"method": "rhf"
			},
			{
				"type": "unocc",
				"energy": 0.13722,
				"method": "rhf"
			},
			{
				"type": "unocc",
				"energy": 0.14403,
				"method": "rhf"
			}
		],
		"cosmo_sigma_profile": { 
			"-0.025": 0.0,
			"-0.024": 0.0,
			"-0.023": 0.0,
			"-0.022": 0.0,
			"-0.021": 0.0,
			"-0.02": 0.0,
			"-0.019": 0.0,
			"-0.018": 0.0,
			"-0.017": 0.0,
			"-0.016": 0.350573911677,
			"-0.015": 1.07789601818,
			"-0.014": 0.915832225527,
			"-0.013": 0.952693064077,
			"-0.012": 0.989277028889,
			"-0.011": 0.904571228891,
			"-0.01": 0.75650145226,
			"-0.009": 1.34114049971,
			"-0.008": 2.00845783222,
			"-0.007": 2.32154259153,
			"-0.006": 3.50651056672,
			"-0.005": 5.11173436556,
			"-0.004": 4.28785376054,
			"-0.003": 11.9719066431,
			"-0.002": 25.5562573355,
			"-0.001": 20.0365584144,
			"0.0": 16.2520625732,
			"0.001": 17.0249751521,
			"0.002": 13.5828854271,
			"0.003": 5.13616040821,
			"0.004": 2.54407902148,
			"0.005": 2.91882192763,
			"0.006": 2.5974920851,
			"0.007": 2.73108154454,
			"0.008": 2.54577808795,
			"0.009": 2.41730613069,
			"0.01": 2.48481883155,
			"0.011": 1.52077214957,
			"0.012": 0.841387793867,
			"0.013": 0.973563505808,
			"0.014": 0.519479313604,
			"0.015": 0.910255670621,
			"0.016": 0.566778916701,
			"0.017": 0.327645121939,
			"0.018": 0.67686157274,
			"0.019": 0.554144831521,
			"0.02": 0.423180798307,
			"0.021": 0.0,
			"0.022": 0.0,
			"0.023": 0.0,
			"0.024": 0.0,
			"0.025": 0.0
		}
	}
}
