{
	 "smiles": "C1=CC2=NC=CC=C2N=C1", 
	 "Tm": 348.15, 
	 "num_atms": 16, 
	 "gaussian": { 
		 "optdone": 1, 
		 "sigma_profile": "yes", 
		 "theory": "DFT", 
		 "functional": "B3LYP", 
		 "basiset": "6-31G**", 
		 "properties": { 
			 "R2extent": 1943.9395, 
			 "electric_dipole_moment_norm": 0.0, 
			 "electric_quadrupole_moment_norm": 10.001542421, 
			 "total_energy": -417.968320912, 
			 "HOMO_LUMO_gap": 0.17912, 
			 "cosmo_polarized_energy": -7.45, 
			 "cosmo_cavitation_energy": 20.1, 
			 "cosmo_dispersion_energy": -15.39, 
			 "cosmo_repulsion_energy": 1.22, 
			 "cosmo_total_nonelectrostatic_energy": 5.93, 
			 "SMD_solvation_energy": 0.48 
		},
		"coords": [
			{
				"x": 1.013445831,
				"y": 0.321072236,
				"z": -2.3945465883,
				"element": "C" 
			},
			{
				"x": 1.1247960629,
				"y": 1.3906175882,
				"z": -1.5380627804,
				"element": "C" 
			},
			{
				"x": -0.0040394643,
				"y": 1.7715411069,
				"z": -0.7677192812,
				"element": "C" 
			},
			{
				"x": 0.0930259288,
				"y": 2.8310703805,
				"z": 0.0859797035,
				"element": "N" 
			},
			{
				"x": -0.9815972724,
				"y": 3.1481478741,
				"z": 0.7809656325,
				"element": "C" 
			},
			{
				"x": -2.2209825939,
				"y": 2.461478762,
				"z": 0.6961838978,
				"element": "C" 
			},
			{
				"x": -2.3323334507,
				"y": 1.3919324232,
				"z": -0.1602999977,
				"element": "C" 
			},
			{
				"x": -1.2034986476,
				"y": 1.011007645,
				"z": -0.9306419195,
				"element": "C" 
			},
			{
				"x": -1.300563304,
				"y": -0.0485219377,
				"z": -1.7843420351,
				"element": "N" 
			},
			{
				"x": -0.2259413669,
				"y": -0.3655978919,
				"z": -2.479328225,
				"element": "C" 
			},
			{
				"x": 1.850995488,
				"y": -0.0055127721,
				"z": -3.0031583442,
				"element": "H" 
			},
			{
				"x": 2.0427120479,
				"y": 1.9589262699,
				"z": -1.4249218383,
				"element": "H" 
			},
			{
				"x": -0.8860736134,
				"y": 3.9967082294,
				"z": 1.4576234637,
				"element": "H" 
			},
			{
				"x": -3.0585337538,
				"y": 2.7880633734,
				"z": 1.3047939144,
				"element": "H" 
			},
			{
				"x": -3.250250377,
				"y": 0.82362491,
				"z": -0.2734387213,
				"element": "H" 
			},
			{
				"x": -0.3214615145,
				"y": -1.2141581968,
				"z": -3.155986881,
				"element": "H" 
			}
		],
		 "valence_orbital": [ 
			{
				"type": "occ",
				"energy": -0.31925,
				"method": "rhf"
			},
			{
				"type": "occ",
				"energy": -0.28696,
				"method": "rhf"
			},
			{
				"type": "occ",
				"energy": -0.26014,
				"method": "rhf"
			},
			{
				"type": "occ",
				"energy": -0.25652,
				"method": "rhf"
			},
			{
				"type": "occ",
				"energy": -0.24447,
				"method": "rhf"
			},
			{
				"type": "unocc",
				"energy": -0.06535,
				"method": "rhf"
			},
			{
				"type": "unocc",
				"energy": -0.02345,
				"method": "rhf"
			},
			{
				"type": "unocc",
				"energy": 0.00562,
				"method": "rhf"
			},
			{
				"type": "unocc",
				"energy": 0.08037,
				"method": "rhf"
			},
			{
				"type": "unocc",
				"energy": 0.10168,
				"method": "rhf"
			}
		],
		"cosmo_sigma_profile": { 
			"-0.025": 0.0,
			"-0.024": 0.0,
			"-0.023": 0.0,
			"-0.022": 0.0,
			"-0.021": 0.0,
			"-0.02": 0.0,
			"-0.019": 0.0,
			"-0.018": 0.0,
			"-0.017": 0.0,
			"-0.016": 0.0,
			"-0.015": 0.0,
			"-0.014": 0.0,
			"-0.013": 0.0,
			"-0.012": 0.0,
			"-0.011": 0.0,
			"-0.01": 0.0,
			"-0.009": 0.0,
			"-0.008": 0.804828262708,
			"-0.007": 9.92286105633,
			"-0.006": 14.7930605963,
			"-0.005": 13.0794292211,
			"-0.004": 8.02477004835,
			"-0.003": 8.63062756043,
			"-0.002": 7.38028532108,
			"-0.001": 9.92752013989,
			"0.0": 17.2714115115,
			"0.001": 23.090314306,
			"0.002": 15.8977060455,
			"0.003": 5.83190952506,
			"0.004": 4.53119150922,
			"0.005": 2.56124832985,
			"0.006": 3.26907996267,
			"0.007": 2.78856079284,
			"0.008": 2.74957254296,
			"0.009": 0.919889110941,
			"0.01": 2.5371010149,
			"0.011": 1.65745520771,
			"0.012": 1.43626239849,
			"0.013": 1.263244358,
			"0.014": 2.27708672091,
			"0.015": 1.01149043522,
			"0.016": 0.944343072048,
			"0.017": 0.0,
			"0.018": 0.0,
			"0.019": 0.0,
			"0.02": 0.0,
			"0.021": 0.0,
			"0.022": 0.0,
			"0.023": 0.0,
			"0.024": 0.0,
			"0.025": 0.0
		}
	}
}
