{
	 "smiles": "COC1=CC=C(OC)C(=C1)S(N)(=O)=O", 
	 "Tm": 424.15, 
	 "num_atms": 25, 
	 "gaussian": { 
		 "optdone": 1, 
		 "sigma_profile": "yes", 
		 "theory": "DFT", 
		 "functional": "B3LYP", 
		 "basiset": "6-31G**", 
		 "properties": { 
			 "R2extent": 3208.5886, 
			 "electric_dipole_moment_norm": 4.72600048773, 
			 "electric_quadrupole_moment_norm": 18.7724050103, 
			 "total_energy": -1065.21834124, 
			 "HOMO_LUMO_gap": 0.19488, 
			 "cosmo_polarized_energy": -17.17, 
			 "cosmo_cavitation_energy": 29.65, 
			 "cosmo_dispersion_energy": -22.11, 
			 "cosmo_repulsion_energy": 1.7, 
			 "cosmo_total_nonelectrostatic_energy": 9.23, 
			 "SMD_solvation_energy": 6.23 
		},
		"coords": [
			{
				"x": -3.8277730112,
				"y": 0.6358163874,
				"z": -0.6928070262,
				"element": "C" 
			},
			{
				"x": -3.080080535,
				"y": -0.4144483286,
				"z": -1.2927925159,
				"element": "O" 
			},
			{
				"x": -1.7570858694,
				"y": -0.5147993363,
				"z": -0.9903990922,
				"element": "C" 
			},
			{
				"x": -1.0670147025,
				"y": -1.5748897776,
				"z": -1.6011327334,
				"element": "C" 
			},
			{
				"x": 0.2890009295,
				"y": -1.7627275784,
				"z": -1.3655088209,
				"element": "C" 
			},
			{
				"x": 0.9843167042,
				"y": -0.9063738408,
				"z": -0.5050560305,
				"element": "C" 
			},
			{
				"x": 2.3448422503,
				"y": -1.0398698832,
				"z": -0.3152581759,
				"element": "O" 
			},
			{
				"x": 2.7348928474,
				"y": -2.0909370415,
				"z": 0.5885484579,
				"element": "C" 
			},
			{
				"x": 0.29018992,
				"y": 0.1458604224,
				"z": 0.0992982198,
				"element": "C" 
			},
			{
				"x": -1.0705921697,
				"y": 0.3566877812,
				"z": -0.1386019381,
				"element": "C" 
			},
			{
				"x": 1.1374552438,
				"y": 1.246934628,
				"z": 1.2463265918,
				"element": "S" 
			},
			{
				"x": 2.4615550241,
				"y": 1.8528110935,
				"z": 0.4142768086,
				"element": "N" 
			},
			{
				"x": 0.2485243152,
				"y": 2.3833845238,
				"z": 1.4947679289,
				"element": "O" 
			},
			{
				"x": 1.6627764046,
				"y": 0.4298409395,
				"z": 2.3403116859,
				"element": "O" 
			},
			{
				"x": -3.4431480687,
				"y": 1.6213764004,
				"z": -0.9834089772,
				"element": "H" 
			},
			{
				"x": -3.8257559166,
				"y": 0.55720983,
				"z": 0.4013593295,
				"element": "H" 
			},
			{
				"x": -4.8483875729,
				"y": 0.52462415,
				"z": -1.0608094231,
				"element": "H" 
			},
			{
				"x": -1.615726462,
				"y": -2.2322217735,
				"z": -2.2673406484,
				"element": "H" 
			},
			{
				"x": 0.8275557532,
				"y": -2.56738082,
				"z": -1.8564071114,
				"element": "H" 
			},
			{
				"x": 3.8257930029,
				"y": -2.1143283602,
				"z": 0.5729664733,
				"element": "H" 
			},
			{
				"x": 2.3456543873,
				"y": -3.0577919767,
				"z": 0.2500376509,
				"element": "H" 
			},
			{
				"x": 2.381349639,
				"y": -1.8708995618,
				"z": 1.5995728481,
				"element": "H" 
			},
			{
				"x": -1.5526608368,
				"y": 1.1945833839,
				"z": 0.3485869169,
				"element": "H" 
			},
			{
				"x": 2.1710296365,
				"y": 2.5117478876,
				"z": -0.3025795085,
				"element": "H" 
			},
			{
				"x": 3.0164890869,
				"y": 1.0856908509,
				"z": 0.03784909,
				"element": "H" 
			}
		],
		 "valence_orbital": [ 
			{
				"type": "occ",
				"energy": -0.30237,
				"method": "rhf"
			},
			{
				"type": "occ",
				"energy": -0.29637,
				"method": "rhf"
			},
			{
				"type": "occ",
				"energy": -0.28641,
				"method": "rhf"
			},
			{
				"type": "occ",
				"energy": -0.27111,
				"method": "rhf"
			},
			{
				"type": "occ",
				"energy": -0.2313,
				"method": "rhf"
			},
			{
				"type": "unocc",
				"energy": -0.03642,
				"method": "rhf"
			},
			{
				"type": "unocc",
				"energy": -0.00938,
				"method": "rhf"
			},
			{
				"type": "unocc",
				"energy": 0.06181,
				"method": "rhf"
			},
			{
				"type": "unocc",
				"energy": 0.06805,
				"method": "rhf"
			},
			{
				"type": "unocc",
				"energy": 0.08725,
				"method": "rhf"
			}
		],
		"cosmo_sigma_profile": { 
			"-0.025": 0.0,
			"-0.024": 0.0,
			"-0.023": 0.0,
			"-0.022": 0.0,
			"-0.021": 0.0,
			"-0.02": 0.0,
			"-0.019": 0.0,
			"-0.018": 0.0,
			"-0.017": 0.0,
			"-0.016": 0.142437061088,
			"-0.015": 1.42471591009,
			"-0.014": 0.98241628695,
			"-0.013": 1.3208171345,
			"-0.012": 2.20269594383,
			"-0.011": 1.9729416387,
			"-0.01": 1.73296953796,
			"-0.009": 1.93115000354,
			"-0.008": 1.43847352182,
			"-0.007": 7.28137899409,
			"-0.006": 16.8688035475,
			"-0.005": 19.0718651643,
			"-0.004": 19.5982961639,
			"-0.003": 20.7565267947,
			"-0.002": 13.574128719,
			"-0.001": 12.2799263676,
			"0.0": 11.2147793038,
			"0.001": 12.6510771319,
			"0.002": 19.0461948923,
			"0.003": 10.3268502145,
			"0.004": 6.32845926539,
			"0.005": 6.25029832213,
			"0.006": 4.7558278466,
			"0.007": 5.44300338531,
			"0.008": 7.48595043932,
			"0.009": 6.94730188573,
			"0.01": 7.87597049357,
			"0.011": 8.98516758129,
			"0.012": 5.23702201468,
			"0.013": 0.414757256,
			"0.014": 0.0,
			"0.015": 0.0,
			"0.016": 0.0,
			"0.017": 0.0,
			"0.018": 0.0,
			"0.019": 0.0,
			"0.02": 0.0,
			"0.021": 0.0,
			"0.022": 0.0,
			"0.023": 0.0,
			"0.024": 0.0,
			"0.025": 0.0
		}
	}
}
