{
	 "smiles": "CCC1C(=O)NC(=S)N(C1=O)C1=CC=C(Cl)C=C1", 
	 "Tm": 422.15, 
	 "num_atms": 29, 
	 "gaussian": { 
		 "optdone": 1, 
		 "sigma_profile": "yes", 
		 "theory": "DFT", 
		 "functional": "B3LYP", 
		 "basiset": "6-31G**", 
		 "properties": { 
			 "R2extent": 7151.1887, 
			 "electric_dipole_moment_norm": 1.68453121372, 
			 "electric_quadrupole_moment_norm": 14.7504124495, 
			 "total_energy": -1582.27318379, 
			 "HOMO_LUMO_gap": 0.15264, 
			 "cosmo_polarized_energy": -17.41, 
			 "cosmo_cavitation_energy": 36.94, 
			 "cosmo_dispersion_energy": -25.85, 
			 "cosmo_repulsion_energy": 1.99, 
			 "cosmo_total_nonelectrostatic_energy": 13.07, 
			 "SMD_solvation_energy": 6.29 
		},
		"coords": [
			{
				"x": 2.9439208291,
				"y": 0.2150838248,
				"z": 2.3312382109,
				"element": "C" 
			},
			{
				"x": 1.9144207468,
				"y": -0.9180201712,
				"z": 2.3718352006,
				"element": "C" 
			},
			{
				"x": 0.4884486142,
				"y": -0.4815953192,
				"z": 1.9770970039,
				"element": "C" 
			},
			{
				"x": -0.1112007375,
				"y": 0.4973324025,
				"z": 2.9682999576,
				"element": "C" 
			},
			{
				"x": 0.1059600266,
				"y": 0.4728460414,
				"z": 4.1635480692,
				"element": "O" 
			},
			{
				"x": -1.0015622731,
				"y": 1.41803296,
				"z": 2.4285074959,
				"element": "N" 
			},
			{
				"x": -1.2952901636,
				"y": 1.6697875887,
				"z": 1.1028616333,
				"element": "C" 
			},
			{
				"x": -2.4254362512,
				"y": 2.8163284517,
				"z": 0.7057842516,
				"element": "S" 
			},
			{
				"x": -0.5735492629,
				"y": 0.9229296586,
				"z": 0.1785664921,
				"element": "N" 
			},
			{
				"x": 0.3977998828,
				"y": -0.0538341035,
				"z": 0.5174881479,
				"element": "C" 
			},
			{
				"x": 1.0792267028,
				"y": -0.5644897023,
				"z": -0.3452906349,
				"element": "O" 
			},
			{
				"x": -0.7539927205,
				"y": 1.1790724107,
				"z": -1.2369404047,
				"element": "C" 
			},
			{
				"x": 0.0369138856,
				"y": 2.1335087739,
				"z": -1.8729145353,
				"element": "C" 
			},
			{
				"x": -0.1131283753,
				"y": 2.358333127,
				"z": -3.2394564823,
				"element": "C" 
			},
			{
				"x": -1.0550000195,
				"y": 1.614981698,
				"z": -3.9512387828,
				"element": "C" 
			},
			{
				"x": -1.2477620053,
				"y": 1.8936972882,
				"z": -5.6730442128,
				"element": "Cl" 
			},
			{
				"x": -1.8445776933,
				"y": 0.6527164348,
				"z": -3.3218285427,
				"element": "C" 
			},
			{
				"x": -1.6870971314,
				"y": 0.4344577119,
				"z": -1.9546974978,
				"element": "C" 
			},
			{
				"x": 3.0388148096,
				"y": 0.6322813077,
				"z": 1.3238348975,
				"element": "H" 
			},
			{
				"x": 3.92886115,
				"y": -0.1590528864,
				"z": 2.625483901,
				"element": "H" 
			},
			{
				"x": 2.6783340473,
				"y": 1.0206836325,
				"z": 3.0229665277,
				"element": "H" 
			},
			{
				"x": 1.8554715864,
				"y": -1.333621139,
				"z": 3.3811579235,
				"element": "H" 
			},
			{
				"x": 2.2122427411,
				"y": -1.7206214148,
				"z": 1.692803343,
				"element": "H" 
			},
			{
				"x": -0.161815753,
				"y": -1.3701650641,
				"z": 2.0394479657,
				"element": "H" 
			},
			{
				"x": -1.4782284759,
				"y": 2.0164087117,
				"z": 3.0938649475,
				"element": "H" 
			},
			{
				"x": 0.764131269,
				"y": 2.7015421001,
				"z": -1.3026265064,
				"element": "H" 
			},
			{
				"x": 0.4933003889,
				"y": 3.0992100271,
				"z": -3.7475472953,
				"element": "H" 
			},
			{
				"x": -2.5696868757,
				"y": 0.0841827463,
				"z": -3.8926016528,
				"element": "H" 
			},
			{
				"x": -2.2936189418,
				"y": -0.3081170971,
				"z": -1.4469994213,
				"element": "H" 
			}
		],
		 "valence_orbital": [ 
			{
				"type": "occ",
				"energy": -0.2896,
				"method": "rhf"
			},
			{
				"type": "occ",
				"energy": -0.27732,
				"method": "rhf"
			},
			{
				"type": "occ",
				"energy": -0.26369,
				"method": "rhf"
			},
			{
				"type": "occ",
				"energy": -0.25681,
				"method": "rhf"
			},
			{
				"type": "occ",
				"energy": -0.23318,
				"method": "rhf"
			},
			{
				"type": "unocc",
				"energy": -0.08054,
				"method": "rhf"
			},
			{
				"type": "unocc",
				"energy": -0.03071,
				"method": "rhf"
			},
			{
				"type": "unocc",
				"energy": -0.02654,
				"method": "rhf"
			},
			{
				"type": "unocc",
				"energy": -0.0166,
				"method": "rhf"
			},
			{
				"type": "unocc",
				"energy": 0.01219,
				"method": "rhf"
			}
		],
		"cosmo_sigma_profile": { 
			"-0.025": 0.0,
			"-0.024": 0.0,
			"-0.023": 0.0,
			"-0.022": 0.0,
			"-0.021": 0.0,
			"-0.02": 0.0,
			"-0.019": 0.0,
			"-0.018": 0.0,
			"-0.017": 0.0,
			"-0.016": 0.5014599769,
			"-0.015": 0.673187613369,
			"-0.014": 1.3396239384,
			"-0.013": 0.548086990352,
			"-0.012": 1.26518711137,
			"-0.011": 3.24176553585,
			"-0.01": 4.82673366801,
			"-0.009": 3.86302807243,
			"-0.008": 10.0933041727,
			"-0.007": 14.7742262173,
			"-0.006": 12.4685319497,
			"-0.005": 11.2036915214,
			"-0.004": 15.7652364715,
			"-0.003": 19.2225565649,
			"-0.002": 17.4864302639,
			"-0.001": 19.7588182808,
			"0.0": 19.9939360833,
			"0.001": 23.0789370888,
			"0.002": 19.6148097845,
			"0.003": 18.6255890084,
			"0.004": 18.1340184845,
			"0.005": 12.6222250247,
			"0.006": 11.0104702717,
			"0.007": 9.41965804597,
			"0.008": 8.79178757783,
			"0.009": 6.19732890467,
			"0.01": 6.04566335303,
			"0.011": 7.95777579665,
			"0.012": 0.771970645115,
			"0.013": 0.0,
			"0.014": 0.0,
			"0.015": 0.0,
			"0.016": 0.0,
			"0.017": 0.0,
			"0.018": 0.0,
			"0.019": 0.0,
			"0.02": 0.0,
			"0.021": 0.0,
			"0.022": 0.0,
			"0.023": 0.0,
			"0.024": 0.0,
			"0.025": 0.0
		}
	}
}
