{
	 "smiles": "CNC(=O)C1=C(C)C=CC=C1", 
	 "Tm": 348.15, 
	 "num_atms": 22, 
	 "gaussian": { 
		 "optdone": 1, 
		 "sigma_profile": "yes", 
		 "theory": "DFT", 
		 "functional": "B3LYP", 
		 "basiset": "6-31G**", 
		 "properties": { 
			 "R2extent": 2125.5532, 
			 "electric_dipole_moment_norm": 3.6088466163, 
			 "electric_quadrupole_moment_norm": 15.024418648, 
			 "total_energy": -479.582853916, 
			 "HOMO_LUMO_gap": 0.21252, 
			 "cosmo_polarized_energy": -11.8, 
			 "cosmo_cavitation_energy": 25.07, 
			 "cosmo_dispersion_energy": -18.39, 
			 "cosmo_repulsion_energy": 1.48, 
			 "cosmo_total_nonelectrostatic_energy": 8.15, 
			 "SMD_solvation_energy": 5.05 
		},
		"coords": [
			{
				"x": -3.1577189797,
				"y": -0.531487571,
				"z": 1.7209160049,
				"element": "C" 
			},
			{
				"x": -1.8642018522,
				"y": -0.5018922463,
				"z": 1.0603744374,
				"element": "N" 
			},
			{
				"x": -0.7085811064,
				"y": -0.2615120524,
				"z": 1.7563806206,
				"element": "C" 
			},
			{
				"x": -0.7015995637,
				"y": -0.121835387,
				"z": 2.9767982286,
				"element": "O" 
			},
			{
				"x": 0.5602264661,
				"y": -0.1360314859,
				"z": 0.9469665921,
				"element": "C" 
			},
			{
				"x": 0.8859486838,
				"y": -0.8916558095,
				"z": -0.2022545711,
				"element": "C" 
			},
			{
				"x": 0.0018852947,
				"y": -1.9771540636,
				"z": -0.7842588132,
				"element": "C" 
			},
			{
				"x": 2.1223955538,
				"y": -0.6485196224,
				"z": -0.8200187325,
				"element": "C" 
			},
			{
				"x": 3.0135905694,
				"y": 0.3066906903,
				"z": -0.3367215415,
				"element": "C" 
			},
			{
				"x": 2.6931589968,
				"y": 1.0338670386,
				"z": 0.8104399012,
				"element": "C" 
			},
			{
				"x": 1.4804311342,
				"y": 0.7982359265,
				"z": 1.4484315746,
				"element": "C" 
			},
			{
				"x": -3.6702933174,
				"y": 0.4378120429,
				"z": 1.6702771753,
				"element": "H" 
			},
			{
				"x": -2.9909536117,
				"y": -0.77539659,
				"z": 2.7700827502,
				"element": "H" 
			},
			{
				"x": -3.7976403195,
				"y": -1.2924897087,
				"z": 1.2643384295,
				"element": "H" 
			},
			{
				"x": -1.8422307462,
				"y": -0.4242890418,
				"z": 0.0559058071,
				"element": "H" 
			},
			{
				"x": 0.6067178116,
				"y": -2.6877395642,
				"z": -1.3542937689,
				"element": "H" 
			},
			{
				"x": -0.7445855292,
				"y": -1.5751019662,
				"z": -1.4834557296,
				"element": "H" 
			},
			{
				"x": -0.539273419,
				"y": -2.5299816472,
				"z": -0.0135229193,
				"element": "H" 
			},
			{
				"x": 2.3917718425,
				"y": -1.2352521771,
				"z": -1.6948743976,
				"element": "H" 
			},
			{
				"x": 3.9598656563,
				"y": 0.4694674391,
				"z": -0.8449962459,
				"element": "H" 
			},
			{
				"x": 3.3852799739,
				"y": 1.7698216148,
				"z": 1.2087427863,
				"element": "H" 
			},
			{
				"x": 1.2169064619,
				"y": 1.3280441812,
				"z": 2.3575424118,
				"element": "H" 
			}
		],
		 "valence_orbital": [ 
			{
				"type": "occ",
				"energy": -0.34128,
				"method": "rhf"
			},
			{
				"type": "occ",
				"energy": -0.25843,
				"method": "rhf"
			},
			{
				"type": "occ",
				"energy": -0.24866,
				"method": "rhf"
			},
			{
				"type": "occ",
				"energy": -0.24554,
				"method": "rhf"
			},
			{
				"type": "occ",
				"energy": -0.2383,
				"method": "rhf"
			},
			{
				"type": "unocc",
				"energy": -0.02578,
				"method": "rhf"
			},
			{
				"type": "unocc",
				"energy": -0.00245,
				"method": "rhf"
			},
			{
				"type": "unocc",
				"energy": 0.05645,
				"method": "rhf"
			},
			{
				"type": "unocc",
				"energy": 0.07679,
				"method": "rhf"
			},
			{
				"type": "unocc",
				"energy": 0.09935,
				"method": "rhf"
			}
		],
		"cosmo_sigma_profile": { 
			"-0.025": 0.0,
			"-0.024": 0.0,
			"-0.023": 0.0,
			"-0.022": 0.0,
			"-0.021": 0.0,
			"-0.02": 0.0,
			"-0.019": 0.0,
			"-0.018": 0.0,
			"-0.017": 0.0,
			"-0.016": 0.0,
			"-0.015": 0.0,
			"-0.014": 0.223072099209,
			"-0.013": 0.952163341963,
			"-0.012": 1.1463290203,
			"-0.011": 1.32183711085,
			"-0.01": 0.968441657668,
			"-0.009": 1.95086434185,
			"-0.008": 0.872151502374,
			"-0.007": 1.84505657534,
			"-0.006": 5.58172610491,
			"-0.005": 13.8578467883,
			"-0.004": 20.6224485842,
			"-0.003": 20.0818365844,
			"-0.002": 20.1546815469,
			"-0.001": 19.0028630188,
			"0.0": 14.6839426431,
			"0.001": 11.8709573989,
			"0.002": 10.193972217,
			"0.003": 9.12519742081,
			"0.004": 10.1951392215,
			"0.005": 11.9817971069,
			"0.006": 3.25582897498,
			"0.007": 1.76029347388,
			"0.008": 1.4526220672,
			"0.009": 1.79842283087,
			"0.01": 1.46189986461,
			"0.011": 1.60521068521,
			"0.012": 2.04328691196,
			"0.013": 2.72882565957,
			"0.014": 4.91997569654,
			"0.015": 0.967799364821,
			"0.016": 0.0,
			"0.017": 0.0,
			"0.018": 0.0,
			"0.019": 0.0,
			"0.02": 0.0,
			"0.021": 0.0,
			"0.022": 0.0,
			"0.023": 0.0,
			"0.024": 0.0,
			"0.025": 0.0
		}
	}
}
