{
	 "smiles": "CN(C)C1=CC(Cl)=C(C=O)C=C1", 
	 "Tm": 356.65, 
	 "num_atms": 22, 
	 "gaussian": { 
		 "optdone": 1, 
		 "sigma_profile": "yes", 
		 "theory": "DFT", 
		 "functional": "B3LYP", 
		 "basiset": "6-31G**", 
		 "properties": { 
			 "R2extent": 3509.0923, 
			 "electric_dipole_moment_norm": 6.71395652801, 
			 "electric_quadrupole_moment_norm": 12.1039415398, 
			 "total_energy": -939.139455365, 
			 "HOMO_LUMO_gap": 0.16159, 
			 "cosmo_polarized_energy": -10.9, 
			 "cosmo_cavitation_energy": 27.12, 
			 "cosmo_dispersion_energy": -19.96, 
			 "cosmo_repulsion_energy": 1.57, 
			 "cosmo_total_nonelectrostatic_energy": 8.72, 
			 "SMD_solvation_energy": 5.32 
		},
		"coords": [
			{
				"x": -0.6100817193,
				"y": -2.4284349258,
				"z": 0.6423391342,
				"element": "C" 
			},
			{
				"x": 0.2337305331,
				"y": -1.2575225635,
				"z": 0.4554758091,
				"element": "N" 
			},
			{
				"x": 1.5788922409,
				"y": -1.2447193794,
				"z": 1.0095265393,
				"element": "C" 
			},
			{
				"x": -0.2385701207,
				"y": -0.1709242867,
				"z": -0.2409875965,
				"element": "C" 
			},
			{
				"x": 0.5694408087,
				"y": 0.9771370906,
				"z": -0.4330097241,
				"element": "C" 
			},
			{
				"x": 0.0817119136,
				"y": 2.0672658986,
				"z": -1.1373916926,
				"element": "C" 
			},
			{
				"x": 1.1688003746,
				"y": 3.447331537,
				"z": -1.3200979367,
				"element": "Cl" 
			},
			{
				"x": -1.2104612258,
				"y": 2.0944148447,
				"z": -1.6873951976,
				"element": "C" 
			},
			{
				"x": -1.778516449,
				"y": 3.2246261906,
				"z": -2.4433850021,
				"element": "C" 
			},
			{
				"x": -2.9063931397,
				"y": 3.223505121,
				"z": -2.9121006603,
				"element": "O" 
			},
			{
				"x": -2.0003157147,
				"y": 0.9460847067,
				"z": -1.4878507342,
				"element": "C" 
			},
			{
				"x": -1.5476597265,
				"y": -0.1567960377,
				"z": -0.7922467519,
				"element": "C" 
			},
			{
				"x": -1.5272102501,
				"y": -2.186333722,
				"z": 1.1949601327,
				"element": "H" 
			},
			{
				"x": -0.06134125,
				"y": -3.1766763075,
				"z": 1.2144593713,
				"element": "H" 
			},
			{
				"x": -0.8986520186,
				"y": -2.8803593339,
				"z": -0.3155808012,
				"element": "H" 
			},
			{
				"x": 1.7120200696,
				"y": -0.4336495968,
				"z": 1.7375073533,
				"element": "H" 
			},
			{
				"x": 2.3407612728,
				"y": -1.1288861282,
				"z": 0.2274266602,
				"element": "H" 
			},
			{
				"x": 1.7646868752,
				"y": -2.1888989452,
				"z": 1.5216036996,
				"element": "H" 
			},
			{
				"x": 1.574144641,
				"y": 1.024750008,
				"z": -0.0370232393,
				"element": "H" 
			},
			{
				"x": -1.1151368201,
				"y": 4.1007012091,
				"z": -2.5701521398,
				"element": "H" 
			},
			{
				"x": -3.0002098216,
				"y": 0.9615251341,
				"z": -1.9109156597,
				"element": "H" 
			},
			{
				"x": -2.2025404733,
				"y": -1.0102405136,
				"z": -0.6721615639,
				"element": "H" 
			}
		],
		 "valence_orbital": [ 
			{
				"type": "occ",
				"energy": -0.3182,
				"method": "rhf"
			},
			{
				"type": "occ",
				"energy": -0.29228,
				"method": "rhf"
			},
			{
				"type": "occ",
				"energy": -0.25384,
				"method": "rhf"
			},
			{
				"type": "occ",
				"energy": -0.24061,
				"method": "rhf"
			},
			{
				"type": "occ",
				"energy": -0.21114,
				"method": "rhf"
			},
			{
				"type": "unocc",
				"energy": -0.04955,
				"method": "rhf"
			},
			{
				"type": "unocc",
				"energy": -0.0131,
				"method": "rhf"
			},
			{
				"type": "unocc",
				"energy": 0.02726,
				"method": "rhf"
			},
			{
				"type": "unocc",
				"energy": 0.05175,
				"method": "rhf"
			},
			{
				"type": "unocc",
				"energy": 0.07438,
				"method": "rhf"
			}
		],
		"cosmo_sigma_profile": { 
			"-0.025": 0.0,
			"-0.024": 0.0,
			"-0.023": 0.0,
			"-0.022": 0.0,
			"-0.021": 0.0,
			"-0.02": 0.0,
			"-0.019": 0.0,
			"-0.018": 0.0,
			"-0.017": 0.0,
			"-0.016": 0.0,
			"-0.015": 0.0,
			"-0.014": 0.0,
			"-0.013": 0.0,
			"-0.012": 0.0,
			"-0.011": 0.0,
			"-0.01": 0.0,
			"-0.009": 0.0,
			"-0.008": 0.850411350966,
			"-0.007": 4.32042351151,
			"-0.006": 9.30822212202,
			"-0.005": 19.7569070379,
			"-0.004": 19.4027125537,
			"-0.003": 20.8319540213,
			"-0.002": 23.6842165205,
			"-0.001": 13.3690828069,
			"0.0": 12.9905581386,
			"0.001": 15.7068478633,
			"0.002": 20.3974230531,
			"0.003": 19.1518987942,
			"0.004": 14.6827858711,
			"0.005": 4.78223678297,
			"0.006": 1.74765748538,
			"0.007": 1.51657747368,
			"0.008": 1.76901814891,
			"0.009": 1.2736432006,
			"0.01": 2.13058185317,
			"0.011": 3.02583730415,
			"0.012": 4.58608728495,
			"0.013": 2.2861985859,
			"0.014": 0.534359444081,
			"0.015": 0.0,
			"0.016": 0.0,
			"0.017": 0.0,
			"0.018": 0.0,
			"0.019": 0.0,
			"0.02": 0.0,
			"0.021": 0.0,
			"0.022": 0.0,
			"0.023": 0.0,
			"0.024": 0.0,
			"0.025": 0.0
		}
	}
}
