{
	 "smiles": "SC1=NN=C(NC2=CC=C(OC3=CC=CC=C3)C=C2)S1", 
	 "Tm": 457.15, 
	 "num_atms": 31, 
	 "gaussian": { 
		 "optdone": 1, 
		 "sigma_profile": "yes", 
		 "theory": "DFT", 
		 "functional": "B3LYP", 
		 "basiset": "6-31G**", 
		 "properties": { 
			 "R2extent": 14948.0307, 
			 "electric_dipole_moment_norm": 2.1202599534, 
			 "electric_quadrupole_moment_norm": 14.3417450985, 
			 "total_energy": -1575.9228472, 
			 "HOMO_LUMO_gap": 0.16836, 
			 "cosmo_polarized_energy": -16.37, 
			 "cosmo_cavitation_energy": 39.92, 
			 "cosmo_dispersion_energy": -30.27, 
			 "cosmo_repulsion_energy": 2.22, 
			 "cosmo_total_nonelectrostatic_energy": 11.87, 
			 "SMD_solvation_energy": 4.52 
		},
		"coords": [
			{
				"x": -5.9964144673,
				"y": 2.4081290921,
				"z": -6.3159545899,
				"element": "S" 
			},
			{
				"x": -4.8615446785,
				"y": 1.6339767529,
				"z": -5.2034720406,
				"element": "C" 
			},
			{
				"x": -4.1950698107,
				"y": 2.2476904639,
				"z": -4.278517309,
				"element": "N" 
			},
			{
				"x": -3.3786967504,
				"y": 1.4208943809,
				"z": -3.5486534516,
				"element": "N" 
			},
			{
				"x": -3.437414988,
				"y": 0.1744863336,
				"z": -3.9331471234,
				"element": "C" 
			},
			{
				"x": -2.7455337913,
				"y": -0.875958193,
				"z": -3.4009221054,
				"element": "N" 
			},
			{
				"x": -1.8240390966,
				"y": -0.8863658638,
				"z": -2.3313269326,
				"element": "C" 
			},
			{
				"x": -1.2578826689,
				"y": -2.1247802211,
				"z": -1.988793199,
				"element": "C" 
			},
			{
				"x": -0.3479585825,
				"y": -2.2236976612,
				"z": -0.9427128479,
				"element": "C" 
			},
			{
				"x": 0.0163472604,
				"y": -1.0805646803,
				"z": -0.2287285963,
				"element": "C" 
			},
			{
				"x": 0.9902289911,
				"y": -1.2280780352,
				"z": 0.7401278726,
				"element": "O" 
			},
			{
				"x": 0.8836475307,
				"y": -0.5790782212,
				"z": 1.9552824953,
				"element": "C" 
			},
			{
				"x": -0.3394718885,
				"y": -0.3511283632,
				"z": 2.5933982736,
				"element": "C" 
			},
			{
				"x": -0.3483489729,
				"y": 0.251888033,
				"z": 3.852152541,
				"element": "C" 
			},
			{
				"x": 0.8453630116,
				"y": 0.6177150206,
				"z": 4.4769740277,
				"element": "C" 
			},
			{
				"x": 2.0605220856,
				"y": 0.3756176771,
				"z": 3.8318058562,
				"element": "C" 
			},
			{
				"x": 2.0849924115,
				"y": -0.2186949718,
				"z": 2.5710031409,
				"element": "C" 
			},
			{
				"x": -0.5336284556,
				"y": 0.156743674,
				"z": -0.5701768526,
				"element": "C" 
			},
			{
				"x": -1.4549399775,
				"y": 0.259841342,
				"z": -1.6115562808,
				"element": "C" 
			},
			{
				"x": -4.5540103742,
				"y": -0.10536157,
				"z": -5.2916851265,
				"element": "S" 
			},
			{
				"x": -5.7970956294,
				"y": 3.6302039592,
				"z": -5.7826099591,
				"element": "H" 
			},
			{
				"x": -2.9116175842,
				"y": -1.7743633669,
				"z": -3.8274232123,
				"element": "H" 
			},
			{
				"x": -1.5352166892,
				"y": -3.0198405226,
				"z": -2.541352332,
				"element": "H" 
			},
			{
				"x": 0.0915835226,
				"y": -3.1780186407,
				"z": -0.6732276662,
				"element": "H" 
			},
			{
				"x": -1.2666840263,
				"y": -0.6432091491,
				"z": 2.1128848949,
				"element": "H" 
			},
			{
				"x": -1.2986205524,
				"y": 0.4291368753,
				"z": 4.3478644385,
				"element": "H" 
			},
			{
				"x": 0.8290203195,
				"y": 1.0852905763,
				"z": 5.4565970768,
				"element": "H" 
			},
			{
				"x": 2.9960178099,
				"y": 0.654833138,
				"z": 4.3080741673,
				"element": "H" 
			},
			{
				"x": 3.0176670214,
				"y": -0.4133505541,
				"z": 2.0518766832,
				"element": "H" 
			},
			{
				"x": -0.2422512041,
				"y": 1.0468275866,
				"z": -0.023010753,
				"element": "H" 
			},
			{
				"x": -1.8817497758,
				"y": 1.2176151088,
				"z": -1.8762710895,
				"element": "H" 
			}
		],
		 "valence_orbital": [ 
			{
				"type": "occ",
				"energy": -0.26211,
				"method": "rhf"
			},
			{
				"type": "occ",
				"energy": -0.25211,
				"method": "rhf"
			},
			{
				"type": "occ",
				"energy": -0.25036,
				"method": "rhf"
			},
			{
				"type": "occ",
				"energy": -0.2294,
				"method": "rhf"
			},
			{
				"type": "occ",
				"energy": -0.2011,
				"method": "rhf"
			},
			{
				"type": "unocc",
				"energy": -0.03274,
				"method": "rhf"
			},
			{
				"type": "unocc",
				"energy": -0.0281,
				"method": "rhf"
			},
			{
				"type": "unocc",
				"energy": -0.01431,
				"method": "rhf"
			},
			{
				"type": "unocc",
				"energy": 3e-05,
				"method": "rhf"
			},
			{
				"type": "unocc",
				"energy": 0.00072,
				"method": "rhf"
			}
		],
		"cosmo_sigma_profile": { 
			"-0.025": 0.0,
			"-0.024": 0.0,
			"-0.023": 0.0,
			"-0.022": 0.0,
			"-0.021": 0.0,
			"-0.02": 0.0,
			"-0.019": 0.0,
			"-0.018": 0.00465696818535,
			"-0.017": 0.765400133486,
			"-0.016": 1.78030967144,
			"-0.015": 1.03289718603,
			"-0.014": 1.85489831771,
			"-0.013": 0.944754727353,
			"-0.012": 3.0733003945,
			"-0.011": 3.0404524952,
			"-0.01": 1.26632997027,
			"-0.009": 2.6030205224,
			"-0.008": 3.74368801106,
			"-0.007": 5.15958769231,
			"-0.006": 13.0987608843,
			"-0.005": 18.7794450757,
			"-0.004": 19.3612365864,
			"-0.003": 19.8783036994,
			"-0.002": 20.1541712541,
			"-0.001": 23.0540781332,
			"0.0": 26.1158327065,
			"0.001": 26.0180618846,
			"0.002": 28.357211242,
			"0.003": 28.4795385236,
			"0.004": 27.5455675771,
			"0.005": 18.6920113596,
			"0.006": 9.85172193432,
			"0.007": 5.25170565613,
			"0.008": 3.57529489246,
			"0.009": 3.36861001274,
			"0.01": 2.7117172242,
			"0.011": 3.51055738719,
			"0.012": 1.56981262196,
			"0.013": 1.20990010773,
			"0.014": 0.590675474905,
			"0.015": 0.0,
			"0.016": 0.0,
			"0.017": 0.0,
			"0.018": 0.0,
			"0.019": 0.0,
			"0.02": 0.0,
			"0.021": 0.0,
			"0.022": 0.0,
			"0.023": 0.0,
			"0.024": 0.0,
			"0.025": 0.0
		}
	}
}
