{
	 "smiles": "C1=CC(=CC=N1)C1=CC=NC=C1", 
	 "Tm": 385.15, 
	 "num_atms": 20, 
	 "gaussian": { 
		 "optdone": 1, 
		 "sigma_profile": "yes", 
		 "theory": "DFT", 
		 "functional": "B3LYP", 
		 "basiset": "6-31G**", 
		 "properties": { 
			 "R2extent": 2321.7705, 
			 "electric_dipole_moment_norm": 0.00022360679775, 
			 "electric_quadrupole_moment_norm": 20.5674749396, 
			 "total_energy": -495.379981946, 
			 "HOMO_LUMO_gap": 0.19885, 
			 "cosmo_polarized_energy": -9.75, 
			 "cosmo_cavitation_energy": 24.31, 
			 "cosmo_dispersion_energy": -18.05, 
			 "cosmo_repulsion_energy": 1.4, 
			 "cosmo_total_nonelectrostatic_energy": 7.66, 
			 "SMD_solvation_energy": 1.31 
		},
		"coords": [
			{
				"x": 3.3035745432,
				"y": 0.403119122,
				"z": -1.2184233043,
				"element": "C" 
			},
			{
				"x": 1.919057147,
				"y": 0.5597470283,
				"z": -1.172297605,
				"element": "C" 
			},
			{
				"x": 1.1871543187,
				"y": -0.1018843295,
				"z": -0.1754446105,
				"element": "C" 
			},
			{
				"x": 1.9138967742,
				"y": -0.8939832623,
				"z": 0.7254401164,
				"element": "C" 
			},
			{
				"x": 3.2983619107,
				"y": -0.9850085836,
				"z": 0.5894076938,
				"element": "C" 
			},
			{
				"x": 3.9994475262,
				"y": -0.3534182014,
				"z": -0.3604587662,
				"element": "N" 
			},
			{
				"x": -0.2876492436,
				"y": 0.0298992971,
				"z": -0.0784372773,
				"element": "C" 
			},
			{
				"x": -0.9412875008,
				"y": 0.0644278908,
				"z": 1.1620147768,
				"element": "C" 
			},
			{
				"x": -2.3292069667,
				"y": 0.1907085531,
				"z": 1.1976161585,
				"element": "C" 
			},
			{
				"x": -3.099994114,
				"y": 0.2810422141,
				"z": 0.1065521401,
				"element": "N" 
			},
			{
				"x": -2.4737828871,
				"y": 0.2466767766,
				"z": -1.0763958388,
				"element": "C" 
			},
			{
				"x": -1.0926860799,
				"y": 0.1257011242,
				"z": -1.2229357476,
				"element": "C" 
			},
			{
				"x": 3.8830273172,
				"y": 0.916985589,
				"z": -1.9835733123,
				"element": "H" 
			},
			{
				"x": 1.4226657451,
				"y": 1.2077911976,
				"z": -1.8875361894,
				"element": "H" 
			},
			{
				"x": 1.4080392827,
				"y": -1.4524371154,
				"z": 1.5065671641,
				"element": "H" 
			},
			{
				"x": 3.8723493241,
				"y": -1.6020571096,
				"z": 1.2786604726,
				"element": "H" 
			},
			{
				"x": -0.3771439641,
				"y": 0.019072692,
				"z": 2.0880827323,
				"element": "H" 
			},
			{
				"x": -2.8469775818,
				"y": 0.225312513,
				"z": 2.1546915844,
				"element": "H" 
			},
			{
				"x": -3.1094491344,
				"y": 0.3151081907,
				"z": -1.9576013225,
				"element": "H" 
			},
			{
				"x": -0.6545964165,
				"y": 0.0815964132,
				"z": -2.214928865,
				"element": "H" 
			}
		],
		 "valence_orbital": [ 
			{
				"type": "occ",
				"energy": -0.27181,
				"method": "rhf"
			},
			{
				"type": "occ",
				"energy": -0.27026,
				"method": "rhf"
			},
			{
				"type": "occ",
				"energy": -0.26711,
				"method": "rhf"
			},
			{
				"type": "occ",
				"energy": -0.26123,
				"method": "rhf"
			},
			{
				"type": "occ",
				"energy": -0.25986,
				"method": "rhf"
			},
			{
				"type": "unocc",
				"energy": -0.06101,
				"method": "rhf"
			},
			{
				"type": "unocc",
				"energy": -0.02234,
				"method": "rhf"
			},
			{
				"type": "unocc",
				"energy": -0.01731,
				"method": "rhf"
			},
			{
				"type": "unocc",
				"energy": 0.00241,
				"method": "rhf"
			},
			{
				"type": "unocc",
				"energy": 0.09882,
				"method": "rhf"
			}
		],
		"cosmo_sigma_profile": { 
			"-0.025": 0.0,
			"-0.024": 0.0,
			"-0.023": 0.0,
			"-0.022": 0.0,
			"-0.021": 0.0,
			"-0.02": 0.0,
			"-0.019": 0.0,
			"-0.018": 0.0,
			"-0.017": 0.0,
			"-0.016": 0.0,
			"-0.015": 0.0,
			"-0.014": 0.0,
			"-0.013": 0.0,
			"-0.012": 0.0,
			"-0.011": 0.0,
			"-0.01": 0.0,
			"-0.009": 0.0,
			"-0.008": 0.372851408309,
			"-0.007": 11.3374136757,
			"-0.006": 19.7082956844,
			"-0.005": 15.5316556475,
			"-0.004": 12.4851037301,
			"-0.003": 11.0203959814,
			"-0.002": 10.5114024813,
			"-0.001": 11.798553786,
			"0.0": 14.8027571175,
			"0.001": 19.6563478642,
			"0.002": 29.0095018063,
			"0.003": 7.66170971714,
			"0.004": 4.42290571461,
			"0.005": 4.37066145696,
			"0.006": 2.2544865964,
			"0.007": 2.39035384439,
			"0.008": 3.55899346908,
			"0.009": 2.38800395155,
			"0.01": 1.62292661717,
			"0.011": 1.65747501889,
			"0.012": 2.0385399264,
			"0.013": 1.46247230191,
			"0.014": 2.14877201156,
			"0.015": 1.79722253888,
			"0.016": 1.62375263463,
			"0.017": 0.568611025714,
			"0.018": 0.0,
			"0.019": 0.0,
			"0.02": 0.0,
			"0.021": 0.0,
			"0.022": 0.0,
			"0.023": 0.0,
			"0.024": 0.0,
			"0.025": 0.0
		}
	}
}
