{
	 "smiles": "[O-][N+](=O)C1=NNC(=O)C(Cl)=C1Cl", 
	 "Tm": 458.15, 
	 "num_atms": 13, 
	 "gaussian": { 
		 "optdone": 1, 
		 "sigma_profile": "yes", 
		 "theory": "DFT", 
		 "functional": "B3LYP", 
		 "basiset": "6-31G**", 
		 "properties": { 
			 "R2extent": 2713.7938, 
			 "electric_dipole_moment_norm": 0.97255662046, 
			 "electric_quadrupole_moment_norm": 18.2824973532, 
			 "total_energy": -1463.17718374, 
			 "HOMO_LUMO_gap": 0.16741, 
			 "cosmo_polarized_energy": -12.47, 
			 "cosmo_cavitation_energy": 23.4, 
			 "cosmo_dispersion_energy": -17.18, 
			 "cosmo_repulsion_energy": 1.38, 
			 "cosmo_total_nonelectrostatic_energy": 7.61, 
			 "SMD_solvation_energy": 6.3 
		},
		"coords": [
			{
				"x": 1.0086129291,
				"y": -3.2288615021,
				"z": 1.1367059523,
				"element": "O" 
			},
			{
				"x": 0.1775628664,
				"y": -2.3427334585,
				"z": 1.2782063233,
				"element": "N" 
			},
			{
				"x": -1.0132840815,
				"y": -2.4736340521,
				"z": 1.5244514401,
				"element": "O" 
			},
			{
				"x": 0.6688204021,
				"y": -0.949974082,
				"z": 1.1270908891,
				"element": "C" 
			},
			{
				"x": 1.083258554,
				"y": -0.3981975513,
				"z": 2.2168918411,
				"element": "N" 
			},
			{
				"x": 1.5313758624,
				"y": 0.8550092348,
				"z": 2.1132408586,
				"element": "N" 
			},
			{
				"x": 1.6115289968,
				"y": 1.6579598208,
				"z": 0.9663764884,
				"element": "C" 
			},
			{
				"x": 2.0458426822,
				"y": 2.7923079829,
				"z": 1.0191514813,
				"element": "O" 
			},
			{
				"x": 1.1210343114,
				"y": 0.9618974479,
				"z": -0.2413853384,
				"element": "C" 
			},
			{
				"x": 1.1757550515,
				"y": 1.8563704078,
				"z": -1.7022806095,
				"element": "Cl" 
			},
			{
				"x": 0.6565899181,
				"y": -0.3225131143,
				"z": -0.1627185629,
				"element": "C" 
			},
			{
				"x": 0.0676281323,
				"y": -1.2011370475,
				"z": -1.5283152507,
				"element": "Cl" 
			},
			{
				"x": 1.8538743752,
				"y": 1.2750059135,
				"z": 2.9780844874,
				"element": "H" 
			}
		],
		 "valence_orbital": [ 
			{
				"type": "occ",
				"energy": -0.34028,
				"method": "rhf"
			},
			{
				"type": "occ",
				"energy": -0.33086,
				"method": "rhf"
			},
			{
				"type": "occ",
				"energy": -0.31327,
				"method": "rhf"
			},
			{
				"type": "occ",
				"energy": -0.29931,
				"method": "rhf"
			},
			{
				"type": "occ",
				"energy": -0.27576,
				"method": "rhf"
			},
			{
				"type": "unocc",
				"energy": -0.10835,
				"method": "rhf"
			},
			{
				"type": "unocc",
				"energy": -0.09937,
				"method": "rhf"
			},
			{
				"type": "unocc",
				"energy": -0.04693,
				"method": "rhf"
			},
			{
				"type": "unocc",
				"energy": -0.03491,
				"method": "rhf"
			},
			{
				"type": "unocc",
				"energy": 0.0313,
				"method": "rhf"
			}
		],
		"cosmo_sigma_profile": { 
			"-0.025": 0.0,
			"-0.024": 0.0,
			"-0.023": 0.0,
			"-0.022": 0.0,
			"-0.021": 0.0,
			"-0.02": 0.0,
			"-0.019": 0.203545302143,
			"-0.018": 1.18600889628,
			"-0.017": 1.34353096039,
			"-0.016": 1.05372643699,
			"-0.015": 0.74578565268,
			"-0.014": 1.21469153409,
			"-0.013": 0.905927734593,
			"-0.012": 0.505702325665,
			"-0.011": 0.891005110637,
			"-0.01": 1.97277976018,
			"-0.009": 1.99105253436,
			"-0.008": 2.72100587946,
			"-0.007": 3.33452664628,
			"-0.006": 7.66822618085,
			"-0.005": 13.6640632915,
			"-0.004": 11.0722456834,
			"-0.003": 11.6085879349,
			"-0.002": 11.8690436376,
			"-0.001": 13.5752026457,
			"0.0": 15.7855580638,
			"0.001": 17.2927844562,
			"0.002": 14.0475031516,
			"0.003": 5.90673659035,
			"0.004": 6.83110887757,
			"0.005": 10.6137313584,
			"0.006": 12.0863138316,
			"0.007": 7.30197158505,
			"0.008": 3.6616338371,
			"0.009": 1.66111691819,
			"0.01": 2.54698573277,
			"0.011": 5.71577903848,
			"0.012": 2.69145582104,
			"0.013": 0.0,
			"0.014": 0.0,
			"0.015": 0.0,
			"0.016": 0.0,
			"0.017": 0.0,
			"0.018": 0.0,
			"0.019": 0.0,
			"0.02": 0.0,
			"0.021": 0.0,
			"0.022": 0.0,
			"0.023": 0.0,
			"0.024": 0.0,
			"0.025": 0.0
		}
	}
}
