{
	 "smiles": "CC1=C(C=C(S1)C(O)=O)[N+]([O-])=O", 
	 "Tm": 371.15, 
	 "num_atms": 17, 
	 "gaussian": { 
		 "optdone": 1, 
		 "sigma_profile": "yes", 
		 "theory": "DFT", 
		 "functional": "B3LYP", 
		 "basiset": "6-31G**", 
		 "properties": { 
			 "R2extent": 2707.962, 
			 "electric_dipole_moment_norm": 5.65986637475, 
			 "electric_quadrupole_moment_norm": 14.4391708751, 
			 "total_energy": -985.377374154, 
			 "HOMO_LUMO_gap": 0.17788, 
			 "cosmo_polarized_energy": -17.54, 
			 "cosmo_cavitation_energy": 24.29, 
			 "cosmo_dispersion_energy": -18.32, 
			 "cosmo_repulsion_energy": 1.41, 
			 "cosmo_total_nonelectrostatic_energy": 7.38, 
			 "SMD_solvation_energy": 7.43 
		},
		"coords": [
			{
				"x": 0.6437058629,
				"y": -0.2111715588,
				"z": 2.9756713727,
				"element": "C" 
			},
			{
				"x": 0.6388631773,
				"y": -0.3863256033,
				"z": 1.4886948872,
				"element": "C" 
			},
			{
				"x": -0.4027691429,
				"y": -0.6016679762,
				"z": 0.6035488548,
				"element": "C" 
			},
			{
				"x": -0.0304156865,
				"y": -0.7223033627,
				"z": -0.7614538873,
				"element": "C" 
			},
			{
				"x": 1.3200363933,
				"y": -0.5989874229,
				"z": -0.9408160693,
				"element": "C" 
			},
			{
				"x": 2.1225607816,
				"y": -0.3325584112,
				"z": 0.5971351044,
				"element": "S" 
			},
			{
				"x": 1.9950722901,
				"y": -0.6820152749,
				"z": -2.2615454985,
				"element": "C" 
			},
			{
				"x": 3.3448624301,
				"y": -0.542257279,
				"z": -2.296989939,
				"element": "O" 
			},
			{
				"x": 1.3756103121,
				"y": -0.8689227079,
				"z": -3.2806422714,
				"element": "O" 
			},
			{
				"x": -1.7915291587,
				"y": -0.7016751281,
				"z": 1.0159304495,
				"element": "N" 
			},
			{
				"x": -2.6258412344,
				"y": -0.8948799772,
				"z": 0.133354663,
				"element": "O" 
			},
			{
				"x": -2.0453739209,
				"y": -0.5879242549,
				"z": 2.2179425615,
				"element": "O" 
			},
			{
				"x": 0.2098005552,
				"y": -1.0876383286,
				"z": 3.4644999345,
				"element": "H" 
			},
			{
				"x": 0.0247060721,
				"y": 0.6436419736,
				"z": 3.2612376708,
				"element": "H" 
			},
			{
				"x": 1.6588572992,
				"y": -0.058765247,
				"z": 3.3493715327,
				"element": "H" 
			},
			{
				"x": -0.7277716512,
				"y": -0.8918610101,
				"z": -1.5699919623,
				"element": "H" 
			},
			{
				"x": 3.7283256208,
				"y": -0.3978884309,
				"z": -1.4204474035,
				"element": "H" 
			}
		],
		 "valence_orbital": [ 
			{
				"type": "occ",
				"energy": -0.31761,
				"method": "rhf"
			},
			{
				"type": "occ",
				"energy": -0.30269,
				"method": "rhf"
			},
			{
				"type": "occ",
				"energy": -0.30264,
				"method": "rhf"
			},
			{
				"type": "occ",
				"energy": -0.29375,
				"method": "rhf"
			},
			{
				"type": "occ",
				"energy": -0.2767,
				"method": "rhf"
			},
			{
				"type": "unocc",
				"energy": -0.09882,
				"method": "rhf"
			},
			{
				"type": "unocc",
				"energy": -0.07653,
				"method": "rhf"
			},
			{
				"type": "unocc",
				"energy": -0.03626,
				"method": "rhf"
			},
			{
				"type": "unocc",
				"energy": 0.02344,
				"method": "rhf"
			},
			{
				"type": "unocc",
				"energy": 0.03815,
				"method": "rhf"
			}
		],
		"cosmo_sigma_profile": { 
			"-0.025": 0.0,
			"-0.024": 0.0,
			"-0.023": 0.0,
			"-0.022": 0.0,
			"-0.021": 0.0,
			"-0.02": 0.0103844250214,
			"-0.019": 0.814408033857,
			"-0.018": 0.661052142374,
			"-0.017": 0.970935870738,
			"-0.016": 1.14430208864,
			"-0.015": 0.78292892285,
			"-0.014": 1.42935405357,
			"-0.013": 0.686149016611,
			"-0.012": 1.02707633241,
			"-0.011": 0.808683788575,
			"-0.01": 0.770959764605,
			"-0.009": 1.91694328724,
			"-0.008": 3.39134537466,
			"-0.007": 5.57405360042,
			"-0.006": 9.41845623423,
			"-0.005": 12.9332780395,
			"-0.004": 14.5501951239,
			"-0.003": 19.0233933454,
			"-0.002": 17.9991373593,
			"-0.001": 16.5750940344,
			"0.0": 11.6360587009,
			"0.001": 5.50590025257,
			"0.002": 4.61479697811,
			"0.003": 5.09217098781,
			"0.004": 4.75560922825,
			"0.005": 5.45506707416,
			"0.006": 5.13314617314,
			"0.007": 10.7330918071,
			"0.008": 8.68976629717,
			"0.009": 8.76977912651,
			"0.01": 7.22302701813,
			"0.011": 5.91064862018,
			"0.012": 2.4304872059,
			"0.013": 0.289147766734,
			"0.014": 0.0,
			"0.015": 0.0,
			"0.016": 0.0,
			"0.017": 0.0,
			"0.018": 0.0,
			"0.019": 0.0,
			"0.02": 0.0,
			"0.021": 0.0,
			"0.022": 0.0,
			"0.023": 0.0,
			"0.024": 0.0,
			"0.025": 0.0
		}
	}
}
