{
	 "smiles": "CCCCOC(=O)CC(C)=O", 
	 "Tm": 237.55, 
	 "num_atms": 25, 
	 "gaussian": { 
		 "optdone": 1, 
		 "sigma_profile": "yes", 
		 "theory": "DFT", 
		 "functional": "B3LYP", 
		 "basiset": "6-31G**", 
		 "properties": { 
			 "R2extent": 2958.9254, 
			 "electric_dipole_moment_norm": 2.41733741956, 
			 "electric_quadrupole_moment_norm": 7.89252015582, 
			 "total_energy": -538.980909295, 
			 "HOMO_LUMO_gap": 0.22649, 
			 "cosmo_polarized_energy": -9.82, 
			 "cosmo_cavitation_energy": 28.55, 
			 "cosmo_dispersion_energy": -19.86, 
			 "cosmo_repulsion_energy": 1.67, 
			 "cosmo_total_nonelectrostatic_energy": 10.36, 
			 "SMD_solvation_energy": 6.6 
		},
		"coords": [
			{
				"x": -1.5390820116,
				"y": 1.9761759196,
				"z": 2.7172890273,
				"element": "C" 
			},
			{
				"x": -0.0390553768,
				"y": 1.862299364,
				"z": 2.4219429315,
				"element": "C" 
			},
			{
				"x": 0.6310362491,
				"y": 0.6112003642,
				"z": 3.0146225149,
				"element": "C" 
			},
			{
				"x": 0.1506958014,
				"y": -0.710749473,
				"z": 2.4340248239,
				"element": "C" 
			},
			{
				"x": 0.489171999,
				"y": -0.7237497602,
				"z": 1.0227645473,
				"element": "O" 
			},
			{
				"x": 0.0848183908,
				"y": -1.8005132182,
				"z": 0.3276544256,
				"element": "C" 
			},
			{
				"x": -0.527513653,
				"y": -2.7306436949,
				"z": 0.8123157199,
				"element": "O" 
			},
			{
				"x": 0.4986590067,
				"y": -1.6976671721,
				"z": -1.133485195,
				"element": "C" 
			},
			{
				"x": -0.6984376981,
				"y": -1.8690130685,
				"z": -2.0868803681,
				"element": "C" 
			},
			{
				"x": -1.2816751638,
				"y": -3.2583857527,
				"z": -2.2059390212,
				"element": "C" 
			},
			{
				"x": -1.1221416639,
				"y": -0.9155508885,
				"z": -2.7072478021,
				"element": "O" 
			},
			{
				"x": -1.7341851711,
				"y": 1.9681945546,
				"z": 3.796147166,
				"element": "H" 
			},
			{
				"x": -1.9460531625,
				"y": 2.9086357944,
				"z": 2.3136538818,
				"element": "H" 
			},
			{
				"x": -2.1098403161,
				"y": 1.1552926065,
				"z": 2.270456343,
				"element": "H" 
			},
			{
				"x": 0.4738670298,
				"y": 2.74546018,
				"z": 2.8217967133,
				"element": "H" 
			},
			{
				"x": 0.1267109727,
				"y": 1.8752848982,
				"z": 1.3385928032,
				"element": "H" 
			},
			{
				"x": 0.4550917181,
				"y": 0.5731290759,
				"z": 4.0982285674,
				"element": "H" 
			},
			{
				"x": 1.7171622321,
				"y": 0.6757397508,
				"z": 2.877088854,
				"element": "H" 
			},
			{
				"x": 0.6371821588,
				"y": -1.5643730238,
				"z": 2.9164315539,
				"element": "H" 
			},
			{
				"x": -0.9296108245,
				"y": -0.8485791857,
				"z": 2.5340143907,
				"element": "H" 
			},
			{
				"x": 0.9651176411,
				"y": -0.7325618219,
				"z": -1.3288610096,
				"element": "H" 
			},
			{
				"x": 1.2226465322,
				"y": -2.5011806548,
				"z": -1.3160833603,
				"element": "H" 
			},
			{
				"x": -2.1842330497,
				"y": -3.2306001299,
				"z": -2.8177155717,
				"element": "H" 
			},
			{
				"x": -0.5458670269,
				"y": -3.9256920283,
				"z": -2.6720777806,
				"element": "H" 
			},
			{
				"x": -1.4915646141,
				"y": -3.6607526357,
				"z": -1.2103341552,
				"element": "H" 
			}
		],
		 "valence_orbital": [ 
			{
				"type": "occ",
				"energy": -0.33545,
				"method": "rhf"
			},
			{
				"type": "occ",
				"energy": -0.33125,
				"method": "rhf"
			},
			{
				"type": "occ",
				"energy": -0.3069,
				"method": "rhf"
			},
			{
				"type": "occ",
				"energy": -0.28028,
				"method": "rhf"
			},
			{
				"type": "occ",
				"energy": -0.25046,
				"method": "rhf"
			},
			{
				"type": "unocc",
				"energy": -0.02397,
				"method": "rhf"
			},
			{
				"type": "unocc",
				"energy": 0.00971,
				"method": "rhf"
			},
			{
				"type": "unocc",
				"energy": 0.08021,
				"method": "rhf"
			},
			{
				"type": "unocc",
				"energy": 0.10272,
				"method": "rhf"
			},
			{
				"type": "unocc",
				"energy": 0.11698,
				"method": "rhf"
			}
		],
		"cosmo_sigma_profile": { 
			"-0.025": 0.0,
			"-0.024": 0.0,
			"-0.023": 0.0,
			"-0.022": 0.0,
			"-0.021": 0.0,
			"-0.02": 0.0,
			"-0.019": 0.0,
			"-0.018": 0.0,
			"-0.017": 0.0,
			"-0.016": 0.0,
			"-0.015": 0.0,
			"-0.014": 0.0,
			"-0.013": 0.0,
			"-0.012": 0.0,
			"-0.011": 0.0,
			"-0.01": 0.0,
			"-0.009": 0.820702830319,
			"-0.008": 4.15738995299,
			"-0.007": 4.14548021209,
			"-0.006": 5.98813555707,
			"-0.005": 11.2914595117,
			"-0.004": 18.8387474195,
			"-0.003": 24.9723639381,
			"-0.002": 27.9750308476,
			"-0.001": 27.8694062623,
			"0.0": 23.491529351,
			"0.001": 18.0311760039,
			"0.002": 9.02236711865,
			"0.003": 5.5913135334,
			"0.004": 4.31162890901,
			"0.005": 4.33850163599,
			"0.006": 4.25349469131,
			"0.007": 3.23811080157,
			"0.008": 2.32387629681,
			"0.009": 4.19930313294,
			"0.01": 4.17154993511,
			"0.011": 7.4541658199,
			"0.012": 5.60972301933,
			"0.013": 0.7649251064,
			"0.014": 0.0,
			"0.015": 0.0,
			"0.016": 0.0,
			"0.017": 0.0,
			"0.018": 0.0,
			"0.019": 0.0,
			"0.02": 0.0,
			"0.021": 0.0,
			"0.022": 0.0,
			"0.023": 0.0,
			"0.024": 0.0,
			"0.025": 0.0
		}
	}
}
