{
	 "smiles": "CC1=CC=C2C=C3C(C=CC4=CC=CC=C34)=CC2=C1", 
	 "Tm": 425.15, 
	 "num_atms": 33, 
	 "gaussian": { 
		 "optdone": 1, 
		 "sigma_profile": "yes", 
		 "theory": "DFT", 
		 "functional": "B3LYP", 
		 "basiset": "6-31G**", 
		 "properties": { 
			 "R2extent": 6234.9263, 
			 "electric_dipole_moment_norm": 0.561642136952, 
			 "electric_quadrupole_moment_norm": 14.1739732531, 
			 "total_energy": -732.503423075, 
			 "HOMO_LUMO_gap": 0.13908, 
			 "cosmo_polarized_energy": -7.27, 
			 "cosmo_cavitation_energy": 35.67, 
			 "cosmo_dispersion_energy": -26.51, 
			 "cosmo_repulsion_energy": 1.95, 
			 "cosmo_total_nonelectrostatic_energy": 11.11, 
			 "SMD_solvation_energy": 5.13 
		},
		"coords": [
			{
				"x": -2.2962332686,
				"y": -0.6355596273,
				"z": 4.9085765906,
				"element": "C" 
			},
			{
				"x": -1.616606073,
				"y": -0.8148533581,
				"z": 3.5735349366,
				"element": "C" 
			},
			{
				"x": -1.3948436943,
				"y": -2.1340102286,
				"z": 3.0670582726,
				"element": "C" 
			},
			{
				"x": -0.7810946813,
				"y": -2.3411793336,
				"z": 1.8591806718,
				"element": "C" 
			},
			{
				"x": -0.340518245,
				"y": -1.2428986938,
				"z": 1.0622105882,
				"element": "C" 
			},
			{
				"x": 0.2924720268,
				"y": -1.4213158404,
				"z": -0.1815306397,
				"element": "C" 
			},
			{
				"x": 0.7232706009,
				"y": -0.3483353573,
				"z": -0.9608454312,
				"element": "C" 
			},
			{
				"x": 0.5033599724,
				"y": 0.9857501122,
				"z": -0.4573270739,
				"element": "C" 
			},
			{
				"x": 0.9364260873,
				"y": 2.1161917136,
				"z": -1.2379783534,
				"element": "C" 
			},
			{
				"x": 1.5472519058,
				"y": 1.9527624713,
				"z": -2.4376573061,
				"element": "C" 
			},
			{
				"x": 1.7900255424,
				"y": 0.6414678567,
				"z": -2.9843938766,
				"element": "C" 
			},
			{
				"x": 2.4275026872,
				"y": 0.4931607854,
				"z": -4.2351954504,
				"element": "C" 
			},
			{
				"x": 2.6669234813,
				"y": -0.7592950006,
				"z": -4.7720628563,
				"element": "C" 
			},
			{
				"x": 2.2690217001,
				"y": -1.9031690506,
				"z": -4.0606388428,
				"element": "C" 
			},
			{
				"x": 1.6416773361,
				"y": -1.7794723252,
				"z": -2.8310072386,
				"element": "C" 
			},
			{
				"x": 1.3839291003,
				"y": -0.5153591527,
				"z": -2.2578392654,
				"element": "C" 
			},
			{
				"x": -0.1236362472,
				"y": 1.1694643282,
				"z": 0.7750595419,
				"element": "C" 
			},
			{
				"x": -0.5569802564,
				"y": 0.087413172,
				"z": 1.5588956277,
				"element": "C" 
			},
			{
				"x": -1.1995748072,
				"y": 0.2584853019,
				"z": 2.8210637445,
				"element": "C" 
			},
			{
				"x": -3.2985666394,
				"y": -1.0806348426,
				"z": 4.9071590637,
				"element": "H" 
			},
			{
				"x": -2.3986350738,
				"y": 0.4216112455,
				"z": 5.1677039405,
				"element": "H" 
			},
			{
				"x": -1.7316790675,
				"y": -1.1258644602,
				"z": 5.7108530867,
				"element": "H" 
			},
			{
				"x": -1.7233084332,
				"y": -2.9846627692,
				"z": 3.6594528455,
				"element": "H" 
			},
			{
				"x": -0.6211092129,
				"y": -3.3514376515,
				"z": 1.4905319295,
				"element": "H" 
			},
			{
				"x": 0.4391876669,
				"y": -2.4403582832,
				"z": -0.5247750121,
				"element": "H" 
			},
			{
				"x": 0.760060745,
				"y": 3.1114787991,
				"z": -0.8383801133,
				"element": "H" 
			},
			{
				"x": 1.8684606926,
				"y": 2.8156940317,
				"z": -3.0152995329,
				"element": "H" 
			},
			{
				"x": 2.729817621,
				"y": 1.3875488369,
				"z": -4.7742750829,
				"element": "H" 
			},
			{
				"x": 3.1583742297,
				"y": -0.8581526101,
				"z": -5.7354982537,
				"element": "H" 
			},
			{
				"x": 2.4525511718,
				"y": -2.8908611543,
				"z": -4.4736825365,
				"element": "H" 
			},
			{
				"x": 1.3466521954,
				"y": -2.6816319858,
				"z": -2.3064895135,
				"element": "H" 
			},
			{
				"x": -0.2812426811,
				"y": 2.182383267,
				"z": 1.139157721,
				"element": "H" 
			},
			{
				"x": -1.3576363823,
				"y": 1.2710398035,
				"z": 3.1861378185,
				"element": "H" 
			}
		],
		 "valence_orbital": [ 
			{
				"type": "occ",
				"energy": -0.28473,
				"method": "rhf"
			},
			{
				"type": "occ",
				"energy": -0.25913,
				"method": "rhf"
			},
			{
				"type": "occ",
				"energy": -0.24444,
				"method": "rhf"
			},
			{
				"type": "occ",
				"energy": -0.2153,
				"method": "rhf"
			},
			{
				"type": "occ",
				"energy": -0.19376,
				"method": "rhf"
			},
			{
				"type": "unocc",
				"energy": -0.05468,
				"method": "rhf"
			},
			{
				"type": "unocc",
				"energy": -0.03175,
				"method": "rhf"
			},
			{
				"type": "unocc",
				"energy": -0.00162,
				"method": "rhf"
			},
			{
				"type": "unocc",
				"energy": 0.01749,
				"method": "rhf"
			},
			{
				"type": "unocc",
				"energy": 0.04085,
				"method": "rhf"
			}
		],
		"cosmo_sigma_profile": { 
			"-0.025": 0.0,
			"-0.024": 0.0,
			"-0.023": 0.0,
			"-0.022": 0.0,
			"-0.021": 0.0,
			"-0.02": 0.0,
			"-0.019": 0.0,
			"-0.018": 0.0,
			"-0.017": 0.0,
			"-0.016": 0.0,
			"-0.015": 0.0,
			"-0.014": 0.0,
			"-0.013": 0.0,
			"-0.012": 0.0,
			"-0.011": 0.0,
			"-0.01": 0.0,
			"-0.009": 0.0150779425305,
			"-0.008": 0.9387450627,
			"-0.007": 2.23172323933,
			"-0.006": 14.6365740198,
			"-0.005": 24.030336551,
			"-0.004": 23.6227131215,
			"-0.003": 26.8300268884,
			"-0.002": 20.7090992081,
			"-0.001": 18.9458367282,
			"0.0": 17.4707104134,
			"0.001": 17.3554729238,
			"0.002": 18.0398820447,
			"0.003": 26.9962064114,
			"0.004": 45.5256768809,
			"0.005": 25.1572518767,
			"0.006": 3.64349241546,
			"0.007": 0.0,
			"0.008": 0.0,
			"0.009": 0.0,
			"0.01": 0.0,
			"0.011": 0.0,
			"0.012": 0.0,
			"0.013": 0.0,
			"0.014": 0.0,
			"0.015": 0.0,
			"0.016": 0.0,
			"0.017": 0.0,
			"0.018": 0.0,
			"0.019": 0.0,
			"0.02": 0.0,
			"0.021": 0.0,
			"0.022": 0.0,
			"0.023": 0.0,
			"0.024": 0.0,
			"0.025": 0.0
		}
	}
}
