{
	 "smiles": "CC1=CC=C(C=C1)S(=O)(=O)C1=C(SCC(=O)C2=CC=C(Cl)C=C2)SC=N1", 
	 "Tm": 485.15, 
	 "num_atms": 40, 
	 "gaussian": { 
		 "optdone": 1, 
		 "sigma_profile": "yes", 
		 "theory": "DFT", 
		 "functional": "B3LYP", 
		 "basiset": "6-31G**", 
		 "properties": { 
			 "R2extent": 16424.9084, 
			 "electric_dipole_moment_norm": 4.64539685603, 
			 "electric_quadrupole_moment_norm": 29.9583683491, 
			 "total_energy": -2629.44253023, 
			 "HOMO_LUMO_gap": 0.1592, 
			 "cosmo_polarized_energy": -20.49, 
			 "cosmo_cavitation_energy": 51.19, 
			 "cosmo_dispersion_energy": -35.69, 
			 "cosmo_repulsion_energy": 2.58, 
			 "cosmo_total_nonelectrostatic_energy": 18.08, 
			 "SMD_solvation_energy": 6.27 
		},
		"coords": [
			{
				"x": -5.7029679312,
				"y": 0.3843853681,
				"z": 1.2307770788,
				"element": "C" 
			},
			{
				"x": -4.6794532181,
				"y": -0.2866269227,
				"z": 0.3468447089,
				"element": "C" 
			},
			{
				"x": -3.3706575136,
				"y": 0.2146626757,
				"z": 0.2626504912,
				"element": "C" 
			},
			{
				"x": -2.423975796,
				"y": -0.3712194091,
				"z": -0.5731951326,
				"element": "C" 
			},
			{
				"x": -2.7970302621,
				"y": -1.4876158182,
				"z": -1.3272568701,
				"element": "C" 
			},
			{
				"x": -4.0838756551,
				"y": -2.0178409569,
				"z": -1.2575944865,
				"element": "C" 
			},
			{
				"x": -5.0183623572,
				"y": -1.408540861,
				"z": -0.421459425,
				"element": "C" 
			},
			{
				"x": -1.613208547,
				"y": -2.2322062672,
				"z": -2.4471563763,
				"element": "S" 
			},
			{
				"x": -0.9434291205,
				"y": -1.1609925581,
				"z": -3.2030709834,
				"element": "O" 
			},
			{
				"x": -2.2709388036,
				"y": -3.3377065165,
				"z": -3.154718336,
				"element": "O" 
			},
			{
				"x": -0.3950145681,
				"y": -2.9511346009,
				"z": -1.3168201431,
				"element": "C" 
			},
			{
				"x": 0.9797500221,
				"y": -2.8395416167,
				"z": -1.3680593573,
				"element": "C" 
			},
			{
				"x": 2.1066014971,
				"y": -2.0748211504,
				"z": -2.493302337,
				"element": "S" 
			},
			{
				"x": 1.819634969,
				"y": -0.2636157882,
				"z": -2.2328358038,
				"element": "C" 
			},
			{
				"x": 1.9856102336,
				"y": 0.1474867657,
				"z": -0.7795391125,
				"element": "C" 
			},
			{
				"x": 0.9855189746,
				"y": 0.2753428404,
				"z": -0.0828162019,
				"element": "O" 
			},
			{
				"x": 3.3461747476,
				"y": 0.3780636313,
				"z": -0.2052364175,
				"element": "C" 
			},
			{
				"x": 4.5330012314,
				"y": 0.2035915214,
				"z": -0.9338025181,
				"element": "C" 
			},
			{
				"x": 5.7725329703,
				"y": 0.4449309214,
				"z": -0.3458243177,
				"element": "C" 
			},
			{
				"x": 5.822884586,
				"y": 0.8671104233,
				"z": 0.9831298182,
				"element": "C" 
			},
			{
				"x": 7.3786095125,
				"y": 1.1760427505,
				"z": 1.727936668,
				"element": "Cl" 
			},
			{
				"x": 4.6566389781,
				"y": 1.0472495428,
				"z": 1.7315395529,
				"element": "C" 
			},
			{
				"x": 3.4276734434,
				"y": 0.7994030812,
				"z": 1.1325237322,
				"element": "C" 
			},
			{
				"x": 1.6394808331,
				"y": -3.7856479441,
				"z": -0.04750521,
				"element": "S" 
			},
			{
				"x": 0.0279434656,
				"y": -4.2380264973,
				"z": 0.4127882793,
				"element": "C" 
			},
			{
				"x": -0.9184362472,
				"y": -3.7299589516,
				"z": -0.3225070971,
				"element": "N" 
			},
			{
				"x": -5.2506094777,
				"y": 0.7570363083,
				"z": 2.1548773353,
				"element": "H" 
			},
			{
				"x": -6.1554199891,
				"y": 1.2445262177,
				"z": 0.7217377164,
				"element": "H" 
			},
			{
				"x": -6.5124662989,
				"y": -0.3003701286,
				"z": 1.498418131,
				"element": "H" 
			},
			{
				"x": -3.089001753,
				"y": 1.0775739753,
				"z": 0.8604335756,
				"element": "H" 
			},
			{
				"x": -1.4113510138,
				"y": 0.0190169039,
				"z": -0.6183968299,
				"element": "H" 
			},
			{
				"x": -4.3373832012,
				"y": -2.8891208746,
				"z": -1.8511452105,
				"element": "H" 
			},
			{
				"x": -6.0249717376,
				"y": -1.8138327717,
				"z": -0.3622312479,
				"element": "H" 
			},
			{
				"x": 2.5496307745,
				"y": 0.206842799,
				"z": -2.8966138183,
				"element": "H" 
			},
			{
				"x": 0.8091679105,
				"y": -0.0333726363,
				"z": -2.5667623478,
				"element": "H" 
			},
			{
				"x": 4.5062007404,
				"y": -0.1366423533,
				"z": -1.9628270536,
				"element": "H" 
			},
			{
				"x": 6.6894218614,
				"y": 0.3066044501,
				"z": -0.9074001641,
				"element": "H" 
			},
			{
				"x": 4.718833005,
				"y": 1.3756136843,
				"z": 2.7630237902,
				"element": "H" 
			},
			{
				"x": 2.5048665577,
				"y": 0.9295177524,
				"z": 1.6873192188,
				"element": "H" 
			},
			{
				"x": -0.152622823,
				"y": -4.9042669891,
				"z": 1.2485767015,
				"element": "H" 
			}
		],
		 "valence_orbital": [ 
			{
				"type": "occ",
				"energy": -0.27497,
				"method": "rhf"
			},
			{
				"type": "occ",
				"energy": -0.26518,
				"method": "rhf"
			},
			{
				"type": "occ",
				"energy": -0.26089,
				"method": "rhf"
			},
			{
				"type": "occ",
				"energy": -0.25401,
				"method": "rhf"
			},
			{
				"type": "occ",
				"energy": -0.24168,
				"method": "rhf"
			},
			{
				"type": "unocc",
				"energy": -0.08248,
				"method": "rhf"
			},
			{
				"type": "unocc",
				"energy": -0.06125,
				"method": "rhf"
			},
			{
				"type": "unocc",
				"energy": -0.03131,
				"method": "rhf"
			},
			{
				"type": "unocc",
				"energy": -0.03016,
				"method": "rhf"
			},
			{
				"type": "unocc",
				"energy": -0.01242,
				"method": "rhf"
			}
		],
		"cosmo_sigma_profile": { 
			"-0.025": 0.0,
			"-0.024": 0.0,
			"-0.023": 0.0,
			"-0.022": 0.0,
			"-0.021": 0.0,
			"-0.02": 0.0,
			"-0.019": 0.0,
			"-0.018": 0.0,
			"-0.017": 0.0,
			"-0.016": 0.0,
			"-0.015": 0.0,
			"-0.014": 0.0,
			"-0.013": 0.0,
			"-0.012": 0.384876122947,
			"-0.011": 3.94848926551,
			"-0.01": 4.27985378787,
			"-0.009": 4.0222360986,
			"-0.008": 7.13701863255,
			"-0.007": 12.0322550178,
			"-0.006": 17.0906829643,
			"-0.005": 21.8757440838,
			"-0.004": 22.9615666168,
			"-0.003": 26.2585045858,
			"-0.002": 33.6429167907,
			"-0.001": 39.2910090563,
			"0.0": 41.7239775125,
			"0.001": 37.0329497582,
			"0.002": 37.3469498965,
			"0.003": 30.030677604,
			"0.004": 21.2669664515,
			"0.005": 10.2701950968,
			"0.006": 6.29169966413,
			"0.007": 7.96896940881,
			"0.008": 7.07383071415,
			"0.009": 7.10041916238,
			"0.01": 8.74337428716,
			"0.011": 8.76428995,
			"0.012": 1.762954069,
			"0.013": 0.0,
			"0.014": 0.0,
			"0.015": 0.0,
			"0.016": 0.0,
			"0.017": 0.0,
			"0.018": 0.0,
			"0.019": 0.0,
			"0.02": 0.0,
			"0.021": 0.0,
			"0.022": 0.0,
			"0.023": 0.0,
			"0.024": 0.0,
			"0.025": 0.0
		}
	}
}
