{
	 "smiles": "O=C=NC1=CC=C(C=C1)C1=CC=CO1", 
	 "Tm": 339.15, 
	 "num_atms": 21, 
	 "gaussian": { 
		 "optdone": 1, 
		 "sigma_profile": "yes", 
		 "theory": "DFT", 
		 "functional": "B3LYP", 
		 "basiset": "6-31G**", 
		 "properties": { 
			 "R2extent": 4073.564, 
			 "electric_dipole_moment_norm": 3.12973919201, 
			 "electric_quadrupole_moment_norm": 8.77049205518, 
			 "total_energy": -628.568014827, 
			 "HOMO_LUMO_gap": 0.16136, 
			 "cosmo_polarized_energy": -6.86, 
			 "cosmo_cavitation_energy": 27.44, 
			 "cosmo_dispersion_energy": -19.86, 
			 "cosmo_repulsion_energy": 1.53, 
			 "cosmo_total_nonelectrostatic_energy": 9.11, 
			 "SMD_solvation_energy": 7.88 
		},
		"coords": [
			{
				"x": 2.016406496,
				"y": 4.2290112613,
				"z": 4.1051193961,
				"element": "O" 
			},
			{
				"x": 1.7748623082,
				"y": 3.2218301695,
				"z": 3.5415991831,
				"element": "C" 
			},
			{
				"x": 1.5983726829,
				"y": 2.1218678289,
				"z": 3.0708972092,
				"element": "N" 
			},
			{
				"x": 0.9971498033,
				"y": 1.5021651298,
				"z": 1.9733263033,
				"element": "C" 
			},
			{
				"x": 0.3271123392,
				"y": 2.2306604676,
				"z": 0.9791686237,
				"element": "C" 
			},
			{
				"x": -0.2562920507,
				"y": 1.5711482843,
				"z": -0.0952948598,
				"element": "C" 
			},
			{
				"x": -0.1887806196,
				"y": 0.1702184668,
				"z": -0.2093933699,
				"element": "C" 
			},
			{
				"x": 0.4864068763,
				"y": -0.5466878795,
				"z": 0.7953044304,
				"element": "C" 
			},
			{
				"x": 1.0716729216,
				"y": 0.1066963126,
				"z": 1.8718194889,
				"element": "C" 
			},
			{
				"x": -0.8003821884,
				"y": -0.5210743222,
				"z": -1.3359791408,
				"element": "C" 
			},
			{
				"x": -0.8928528809,
				"y": -1.8403338918,
				"z": -1.7039367016,
				"element": "C" 
			},
			{
				"x": -1.6277768035,
				"y": -1.8780711065,
				"z": -2.9290491027,
				"element": "C" 
			},
			{
				"x": -1.9340047448,
				"y": -0.5847851021,
				"z": -3.2265390847,
				"element": "C" 
			},
			{
				"x": -1.4404460123,
				"y": 0.2515914058,
				"z": -2.2718823725,
				"element": "O" 
			},
			{
				"x": 0.2667152104,
				"y": 3.3124280077,
				"z": 1.0535657028,
				"element": "H" 
			},
			{
				"x": -0.7721591283,
				"y": 2.1419670249,
				"z": -0.8591602966,
				"element": "H" 
			},
			{
				"x": 0.5548751715,
				"y": -1.6282127928,
				"z": 0.7345333913,
				"element": "H" 
			},
			{
				"x": 1.5910837438,
				"y": -0.4507556055,
				"z": 2.6437829139,
				"element": "H" 
			},
			{
				"x": -0.4871337664,
				"y": -2.686339226,
				"z": -1.1687931591,
				"element": "H" 
			},
			{
				"x": -1.8909694383,
				"y": -2.7516467909,
				"z": -3.5077232421,
				"element": "H" 
			},
			{
				"x": -2.4682599199,
				"y": -0.111777642,
				"z": -4.0356653127,
				"element": "H" 
			}
		],
		 "valence_orbital": [ 
			{
				"type": "occ",
				"energy": -0.3069,
				"method": "rhf"
			},
			{
				"type": "occ",
				"energy": -0.28446,
				"method": "rhf"
			},
			{
				"type": "occ",
				"energy": -0.26482,
				"method": "rhf"
			},
			{
				"type": "occ",
				"energy": -0.26395,
				"method": "rhf"
			},
			{
				"type": "occ",
				"energy": -0.20533,
				"method": "rhf"
			},
			{
				"type": "unocc",
				"energy": -0.04397,
				"method": "rhf"
			},
			{
				"type": "unocc",
				"energy": -0.01335,
				"method": "rhf"
			},
			{
				"type": "unocc",
				"energy": 0.01307,
				"method": "rhf"
			},
			{
				"type": "unocc",
				"energy": 0.02702,
				"method": "rhf"
			},
			{
				"type": "unocc",
				"energy": 0.06169,
				"method": "rhf"
			}
		],
		"cosmo_sigma_profile": { 
			"-0.025": 0.0,
			"-0.024": 0.0,
			"-0.023": 0.0,
			"-0.022": 0.0,
			"-0.021": 0.0,
			"-0.02": 0.0,
			"-0.019": 0.0,
			"-0.018": 0.0,
			"-0.017": 0.0,
			"-0.016": 0.0,
			"-0.015": 0.0,
			"-0.014": 0.0,
			"-0.013": 0.0,
			"-0.012": 0.0,
			"-0.011": 0.0,
			"-0.01": 0.0,
			"-0.009": 1.32761924037,
			"-0.008": 4.91504414424,
			"-0.007": 10.5016806723,
			"-0.006": 11.83255175,
			"-0.005": 13.2043001064,
			"-0.004": 12.9026732027,
			"-0.003": 13.6043092607,
			"-0.002": 14.8874655441,
			"-0.001": 11.6630785021,
			"0.0": 13.8811900193,
			"0.001": 14.9436299127,
			"0.002": 24.2922075391,
			"0.003": 25.9365185688,
			"0.004": 22.0196253476,
			"0.005": 11.5886254272,
			"0.006": 5.29940480137,
			"0.007": 6.74021630116,
			"0.008": 3.39294807081,
			"0.009": 0.0,
			"0.01": 0.0,
			"0.011": 0.0,
			"0.012": 0.0,
			"0.013": 0.0,
			"0.014": 0.0,
			"0.015": 0.0,
			"0.016": 0.0,
			"0.017": 0.0,
			"0.018": 0.0,
			"0.019": 0.0,
			"0.02": 0.0,
			"0.021": 0.0,
			"0.022": 0.0,
			"0.023": 0.0,
			"0.024": 0.0,
			"0.025": 0.0
		}
	}
}
