{
	 "smiles": "OC(=O)C1=NC(=CC=C1)C(=O)N1CCCC1", 
	 "Tm": 399.15, 
	 "num_atms": 28, 
	 "gaussian": { 
		 "optdone": 1, 
		 "sigma_profile": "yes", 
		 "theory": "DFT", 
		 "functional": "B3LYP", 
		 "basiset": "6-31G**", 
		 "properties": { 
			 "R2extent": 4267.7586, 
			 "electric_dipole_moment_norm": 3.65594634807, 
			 "electric_quadrupole_moment_norm": 27.836070368, 
			 "total_energy": -761.608274359, 
			 "HOMO_LUMO_gap": 0.17832, 
			 "cosmo_polarized_energy": -16.01, 
			 "cosmo_cavitation_energy": 31.53, 
			 "cosmo_dispersion_energy": -22.94, 
			 "cosmo_repulsion_energy": 1.77, 
			 "cosmo_total_nonelectrostatic_energy": 10.36, 
			 "SMD_solvation_energy": 5.56 
		},
		"coords": [
			{
				"x": 2.265831313,
				"y": -2.3826869184,
				"z": -1.9469724489,
				"element": "O" 
			},
			{
				"x": 2.9885791788,
				"y": -2.3737049834,
				"z": -0.8149581804,
				"element": "C" 
			},
			{
				"x": 3.964541242,
				"y": -3.0685179943,
				"z": -0.6465090336,
				"element": "O" 
			},
			{
				"x": 2.4691223348,
				"y": -1.415147929,
				"z": 0.2284656787,
				"element": "C" 
			},
			{
				"x": 1.3502926063,
				"y": -0.7470322835,
				"z": -0.0936845633,
				"element": "N" 
			},
			{
				"x": 0.8521393777,
				"y": 0.1282298405,
				"z": 0.789184348,
				"element": "C" 
			},
			{
				"x": 1.4697060741,
				"y": 0.3664814322,
				"z": 2.0261042267,
				"element": "C" 
			},
			{
				"x": 2.6201149806,
				"y": -0.3435873261,
				"z": 2.3571030639,
				"element": "C" 
			},
			{
				"x": 3.138272124,
				"y": -1.2581641687,
				"z": 1.4407401289,
				"element": "C" 
			},
			{
				"x": -0.3708489556,
				"y": 0.9591475848,
				"z": 0.4613827915,
				"element": "C" 
			},
			{
				"x": -0.5405188439,
				"y": 2.0186445617,
				"z": 1.0705834108,
				"element": "O" 
			},
			{
				"x": -1.2510335964,
				"y": 0.5409708676,
				"z": -0.4869214643,
				"element": "N" 
			},
			{
				"x": -1.3620989458,
				"y": -0.764030798,
				"z": -1.1629091597,
				"element": "C" 
			},
			{
				"x": -2.8433320678,
				"y": -0.8265301757,
				"z": -1.5634856808,
				"element": "C" 
			},
			{
				"x": -3.1852282393,
				"y": 0.6434064961,
				"z": -1.8529463006,
				"element": "C" 
			},
			{
				"x": -2.4155751333,
				"y": 1.4043526895,
				"z": -0.7656683086,
				"element": "C" 
			},
			{
				"x": 1.5493159445,
				"y": -1.7285965696,
				"z": -1.814374984,
				"element": "H" 
			},
			{
				"x": 1.0351509801,
				"y": 1.1093439253,
				"z": 2.683722075,
				"element": "H" 
			},
			{
				"x": 3.1097228039,
				"y": -0.1819965734,
				"z": 3.312706876,
				"element": "H" 
			},
			{
				"x": 4.032833742,
				"y": -1.8399603626,
				"z": 1.6298606427,
				"element": "H" 
			},
			{
				"x": -0.7193360366,
				"y": -0.7940573536,
				"z": -2.0521109181,
				"element": "H" 
			},
			{
				"x": -1.0594377459,
				"y": -1.579835482,
				"z": -0.5048217224,
				"element": "H" 
			},
			{
				"x": -3.4417594285,
				"y": -1.1962818099,
				"z": -0.7229920543,
				"element": "H" 
			},
			{
				"x": -3.0125533809,
				"y": -1.4906982072,
				"z": -2.4151866409,
				"element": "H" 
			},
			{
				"x": -4.2576484294,
				"y": 0.8517482758,
				"z": -1.8223770763,
				"element": "H" 
			},
			{
				"x": -2.8184321956,
				"y": 0.9262476645,
				"z": -2.8462455294,
				"element": "H" 
			},
			{
				"x": -3.0053724106,
				"y": 1.5312473306,
				"z": 0.1504247515,
				"element": "H" 
			},
			{
				"x": -2.0838472924,
				"y": 2.3998082667,
				"z": -1.072813928,
				"element": "H" 
			}
		],
		 "valence_orbital": [ 
			{
				"type": "occ",
				"energy": -0.31033,
				"method": "rhf"
			},
			{
				"type": "occ",
				"energy": -0.28289,
				"method": "rhf"
			},
			{
				"type": "occ",
				"energy": -0.2711,
				"method": "rhf"
			},
			{
				"type": "occ",
				"energy": -0.25705,
				"method": "rhf"
			},
			{
				"type": "occ",
				"energy": -0.24688,
				"method": "rhf"
			},
			{
				"type": "unocc",
				"energy": -0.06856,
				"method": "rhf"
			},
			{
				"type": "unocc",
				"energy": -0.06381,
				"method": "rhf"
			},
			{
				"type": "unocc",
				"energy": 0.02109,
				"method": "rhf"
			},
			{
				"type": "unocc",
				"energy": 0.06216,
				"method": "rhf"
			},
			{
				"type": "unocc",
				"energy": 0.07032,
				"method": "rhf"
			}
		],
		"cosmo_sigma_profile": { 
			"-0.025": 0.0,
			"-0.024": 0.0,
			"-0.023": 0.0,
			"-0.022": 0.0,
			"-0.021": 0.0,
			"-0.02": 0.0,
			"-0.019": 0.0,
			"-0.018": 0.0,
			"-0.017": 0.0,
			"-0.016": 0.0,
			"-0.015": 0.0,
			"-0.014": 0.0,
			"-0.013": 0.0,
			"-0.012": 0.0,
			"-0.011": 0.353775974998,
			"-0.01": 1.17333488143,
			"-0.009": 1.68002556296,
			"-0.008": 5.03372830501,
			"-0.007": 7.31692617624,
			"-0.006": 7.92869851973,
			"-0.005": 11.7554483475,
			"-0.004": 25.9312022126,
			"-0.003": 32.945729018,
			"-0.002": 32.556720491,
			"-0.001": 27.3749838652,
			"0.0": 23.2502885266,
			"0.001": 10.3339022936,
			"0.002": 5.69138963611,
			"0.003": 3.97434368561,
			"0.004": 4.54172171304,
			"0.005": 3.80424679983,
			"0.006": 3.95791465426,
			"0.007": 3.61154570656,
			"0.008": 4.35951148496,
			"0.009": 5.8103631639,
			"0.01": 6.8150768385,
			"0.011": 7.0390590946,
			"0.012": 4.32513405443,
			"0.013": 4.83245991151,
			"0.014": 3.80576279883,
			"0.015": 0.09866056901,
			"0.016": 0.0,
			"0.017": 0.0,
			"0.018": 0.0,
			"0.019": 0.0,
			"0.02": 0.0,
			"0.021": 0.0,
			"0.022": 0.0,
			"0.023": 0.0,
			"0.024": 0.0,
			"0.025": 0.0
		}
	}
}
