{
	 "smiles": "OC(C1=CC=C(Cl)C=C1)(C1=CN=CN=C1)C1=C(Cl)C=CC=C1", 
	 "Tm": 391.15, 
	 "num_atms": 34, 
	 "gaussian": { 
		 "optdone": 1, 
		 "sigma_profile": "yes", 
		 "theory": "DFT", 
		 "functional": "B3LYP", 
		 "basiset": "6-31G**", 
		 "properties": { 
			 "R2extent": 7920.9448, 
			 "electric_dipole_moment_norm": 3.85853460526, 
			 "electric_quadrupole_moment_norm": 16.0874089331, 
			 "total_energy": -1760.12432723, 
			 "HOMO_LUMO_gap": 0.1962, 
			 "cosmo_polarized_energy": -14.09, 
			 "cosmo_cavitation_energy": 40.53, 
			 "cosmo_dispersion_energy": -28.29, 
			 "cosmo_repulsion_energy": 2.14, 
			 "cosmo_total_nonelectrostatic_energy": 14.38, 
			 "SMD_solvation_energy": 3.34 
		},
		"coords": [
			{
				"x": 0.8626279265,
				"y": 1.5276770833,
				"z": 2.2958348574,
				"element": "O" 
			},
			{
				"x": 0.6219231606,
				"y": 0.8657667596,
				"z": 1.0376506997,
				"element": "C" 
			},
			{
				"x": -0.2657170491,
				"y": 1.8589488665,
				"z": 0.2622087959,
				"element": "C" 
			},
			{
				"x": -0.0757731852,
				"y": 2.1792888611,
				"z": -1.08507363,
				"element": "C" 
			},
			{
				"x": -0.9155038647,
				"y": 3.0859779667,
				"z": -1.7353827765,
				"element": "C" 
			},
			{
				"x": -1.957882056,
				"y": 3.6766208963,
				"z": -1.0275754557,
				"element": "C" 
			},
			{
				"x": -3.0196766874,
				"y": 4.819732158,
				"z": -1.8366134211,
				"element": "Cl" 
			},
			{
				"x": -2.1708438706,
				"y": 3.3736182976,
				"z": 0.3174835857,
				"element": "C" 
			},
			{
				"x": -1.3253233874,
				"y": 2.4673059943,
				"z": 0.9509414195,
				"element": "C" 
			},
			{
				"x": 2.0069361294,
				"y": 0.6407586732,
				"z": 0.4209214161,
				"element": "C" 
			},
			{
				"x": 2.6270772546,
				"y": -0.6043566985,
				"z": 0.2912694416,
				"element": "C" 
			},
			{
				"x": 3.8880574365,
				"y": -0.749232881,
				"z": -0.1386414091,
				"element": "N" 
			},
			{
				"x": 4.5376691903,
				"y": 0.3766179444,
				"z": -0.4396111746,
				"element": "C" 
			},
			{
				"x": 4.0717940912,
				"y": 1.6271800254,
				"z": -0.3301655357,
				"element": "N" 
			},
			{
				"x": 2.8165479039,
				"y": 1.7442421993,
				"z": 0.1096873114,
				"element": "C" 
			},
			{
				"x": -0.1740594998,
				"y": -0.445894428,
				"z": 1.2841396935,
				"element": "C" 
			},
			{
				"x": -0.5825279298,
				"y": -1.3474816711,
				"z": 0.2829992039,
				"element": "C" 
			},
			{
				"x": -0.1812834543,
				"y": -1.1129083128,
				"z": -1.4175744518,
				"element": "Cl" 
			},
			{
				"x": -1.3303084461,
				"y": -2.4890294379,
				"z": 0.5789766106,
				"element": "C" 
			},
			{
				"x": -1.7016302693,
				"y": -2.7611426014,
				"z": 1.8931370519,
				"element": "C" 
			},
			{
				"x": -1.3220663926,
				"y": -1.8827916342,
				"z": 2.9052041742,
				"element": "C" 
			},
			{
				"x": -0.5741201222,
				"y": -0.7486417175,
				"z": 2.5955585858,
				"element": "C" 
			},
			{
				"x": 1.5631436852,
				"y": 1.0394705791,
				"z": 2.7518163942,
				"element": "H" 
			},
			{
				"x": 0.7286798612,
				"y": 1.722246945,
				"z": -1.6486153802,
				"element": "H" 
			},
			{
				"x": -0.7583953812,
				"y": 3.3283014778,
				"z": -2.7804180596,
				"element": "H" 
			},
			{
				"x": -2.9846770933,
				"y": 3.842478355,
				"z": 0.8593634767,
				"element": "H" 
			},
			{
				"x": -1.4834154819,
				"y": 2.2378842561,
				"z": 1.9985233361,
				"element": "H" 
			},
			{
				"x": 2.1009431445,
				"y": -1.5208461965,
				"z": 0.5449047405,
				"element": "H" 
			},
			{
				"x": 5.5576342564,
				"y": 0.268767793,
				"z": -0.8036452724,
				"element": "H" 
			},
			{
				"x": 2.4336699742,
				"y": 2.7554752055,
				"z": 0.2277930817,
				"element": "H" 
			},
			{
				"x": -1.6163163825,
				"y": -3.1537427127,
				"z": -0.2285333555,
				"element": "H" 
			},
			{
				"x": -2.2842205139,
				"y": -3.6496807206,
				"z": 2.1159067875,
				"element": "H" 
			},
			{
				"x": -1.6077673545,
				"y": -2.0726562208,
				"z": 3.935265294,
				"element": "H" 
			},
			{
				"x": -0.3024955926,
				"y": -0.0561551044,
				"z": 3.3825639643,
				"element": "H" 
			}
		],
		 "valence_orbital": [ 
			{
				"type": "occ",
				"energy": -0.27325,
				"method": "rhf"
			},
			{
				"type": "occ",
				"energy": -0.26437,
				"method": "rhf"
			},
			{
				"type": "occ",
				"energy": -0.25692,
				"method": "rhf"
			},
			{
				"type": "occ",
				"energy": -0.25588,
				"method": "rhf"
			},
			{
				"type": "occ",
				"energy": -0.24387,
				"method": "rhf"
			},
			{
				"type": "unocc",
				"energy": -0.04767,
				"method": "rhf"
			},
			{
				"type": "unocc",
				"energy": -0.04001,
				"method": "rhf"
			},
			{
				"type": "unocc",
				"energy": -0.03274,
				"method": "rhf"
			},
			{
				"type": "unocc",
				"energy": -0.02662,
				"method": "rhf"
			},
			{
				"type": "unocc",
				"energy": -0.01526,
				"method": "rhf"
			}
		],
		"cosmo_sigma_profile": { 
			"-0.025": 0.0,
			"-0.024": 0.0,
			"-0.023": 0.0,
			"-0.022": 0.0,
			"-0.021": 0.0,
			"-0.02": 0.0,
			"-0.019": 0.0,
			"-0.018": 0.0,
			"-0.017": 0.195435900338,
			"-0.016": 0.754345458701,
			"-0.015": 1.01561591513,
			"-0.014": 0.759665391977,
			"-0.013": 0.89456424367,
			"-0.012": 1.14033245656,
			"-0.011": 1.0439233665,
			"-0.01": 1.16118492435,
			"-0.009": 1.15859367224,
			"-0.008": 3.06906286118,
			"-0.007": 12.0006250956,
			"-0.006": 18.1570382973,
			"-0.005": 20.9914815115,
			"-0.004": 20.3245152844,
			"-0.003": 19.9774297947,
			"-0.002": 19.8999010232,
			"-0.001": 22.7086661072,
			"0.0": 24.2885218171,
			"0.001": 26.1161355524,
			"0.002": 32.107797525,
			"0.003": 34.2632219759,
			"0.004": 27.9537205462,
			"0.005": 13.8529322815,
			"0.006": 4.25216549109,
			"0.007": 3.60221197483,
			"0.008": 2.7378373819,
			"0.009": 2.31515508517,
			"0.01": 3.57581493568,
			"0.011": 2.57627323896,
			"0.012": 1.63467732648,
			"0.013": 2.08042474442,
			"0.014": 1.66614211691,
			"0.015": 1.32358309797,
			"0.016": 0.165462750936,
			"0.017": 0.0,
			"0.018": 0.0,
			"0.019": 0.0,
			"0.02": 0.0,
			"0.021": 0.0,
			"0.022": 0.0,
			"0.023": 0.0,
			"0.024": 0.0,
			"0.025": 0.0
		}
	}
}
