{
	 "smiles": "NNC1=C(Cl)C(=O)NN=C1", 
	 "Tm": 445.15, 
	 "num_atms": 15, 
	 "gaussian": { 
		 "optdone": 1, 
		 "sigma_profile": "yes", 
		 "theory": "DFT", 
		 "functional": "B3LYP", 
		 "basiset": "6-31G**", 
		 "properties": { 
			 "R2extent": 1898.7595, 
			 "electric_dipole_moment_norm": 4.9976603356, 
			 "electric_quadrupole_moment_norm": 8.68856052289, 
			 "total_energy": -909.799079369, 
			 "HOMO_LUMO_gap": 0.16752, 
			 "cosmo_polarized_energy": -18.98, 
			 "cosmo_cavitation_energy": 21.39, 
			 "cosmo_dispersion_energy": -16.36, 
			 "cosmo_repulsion_energy": 1.34, 
			 "cosmo_total_nonelectrostatic_energy": 6.37, 
			 "SMD_solvation_energy": 4.01 
		},
		"coords": [
			{
				"x": 2.1310685173,
				"y": -0.2342668928,
				"z": 1.8509603885,
				"element": "N" 
			},
			{
				"x": 0.775136162,
				"y": 0.0731535234,
				"z": 1.6898991642,
				"element": "N" 
			},
			{
				"x": 0.1780403486,
				"y": 0.3841610293,
				"z": 0.4979375136,
				"element": "C" 
			},
			{
				"x": -1.1002033538,
				"y": 0.9055479713,
				"z": 0.4191158592,
				"element": "C" 
			},
			{
				"x": -2.0201727594,
				"y": 1.2330397232,
				"z": 1.8599245784,
				"element": "Cl" 
			},
			{
				"x": -1.730524531,
				"y": 1.2040063381,
				"z": -0.8498140886,
				"element": "C" 
			},
			{
				"x": -2.8456607459,
				"y": 1.665502121,
				"z": -1.0476583748,
				"element": "O" 
			},
			{
				"x": -0.885644766,
				"y": 0.9001741493,
				"z": -1.9387197634,
				"element": "N" 
			},
			{
				"x": 0.348931859,
				"y": 0.3995356977,
				"z": -1.9181409031,
				"element": "N" 
			},
			{
				"x": 0.8658540895,
				"y": 0.149453061,
				"z": -0.7483554401,
				"element": "C" 
			},
			{
				"x": 2.3314239757,
				"y": -1.1576735326,
				"z": 1.4761581662,
				"element": "H" 
			},
			{
				"x": 2.7246604161,
				"y": 0.4525975047,
				"z": 1.3896485161,
				"element": "H" 
			},
			{
				"x": 0.3081050901,
				"y": 0.3628039665,
				"z": 2.5369860608,
				"element": "H" 
			},
			{
				"x": -1.2706505494,
				"y": 1.0878130741,
				"z": -2.8569476407,
				"element": "H" 
			},
			{
				"x": 1.8685362472,
				"y": -0.261347734,
				"z": -0.7531940362,
				"element": "H" 
			}
		],
		 "valence_orbital": [ 
			{
				"type": "occ",
				"energy": -0.32426,
				"method": "rhf"
			},
			{
				"type": "occ",
				"energy": -0.29584,
				"method": "rhf"
			},
			{
				"type": "occ",
				"energy": -0.26155,
				"method": "rhf"
			},
			{
				"type": "occ",
				"energy": -0.25543,
				"method": "rhf"
			},
			{
				"type": "occ",
				"energy": -0.22727,
				"method": "rhf"
			},
			{
				"type": "unocc",
				"energy": -0.05975,
				"method": "rhf"
			},
			{
				"type": "unocc",
				"energy": 0.00328,
				"method": "rhf"
			},
			{
				"type": "unocc",
				"energy": 0.02591,
				"method": "rhf"
			},
			{
				"type": "unocc",
				"energy": 0.05191,
				"method": "rhf"
			},
			{
				"type": "unocc",
				"energy": 0.09436,
				"method": "rhf"
			}
		],
		"cosmo_sigma_profile": { 
			"-0.025": 0.0,
			"-0.024": 0.0,
			"-0.023": 0.0,
			"-0.022": 0.0,
			"-0.021": 0.0,
			"-0.02": 0.0,
			"-0.019": 0.0,
			"-0.018": 0.0,
			"-0.017": 0.0519329493068,
			"-0.016": 0.833789849517,
			"-0.015": 1.06302373222,
			"-0.014": 1.1953842709,
			"-0.013": 1.74773808655,
			"-0.012": 4.86476409253,
			"-0.011": 7.32885221952,
			"-0.01": 5.87617602981,
			"-0.009": 5.10380191516,
			"-0.008": 4.82773052646,
			"-0.007": 3.64964915948,
			"-0.006": 4.04422362556,
			"-0.005": 5.01939070839,
			"-0.004": 4.53723416159,
			"-0.003": 7.77471715324,
			"-0.002": 10.927834896,
			"-0.001": 11.9641596069,
			"0.0": 13.797655734,
			"0.001": 10.7857193136,
			"0.002": 8.50479024956,
			"0.003": 7.87779144798,
			"0.004": 9.5729398143,
			"0.005": 4.99333936788,
			"0.006": 4.26792940323,
			"0.007": 3.49239104007,
			"0.008": 3.48573741595,
			"0.009": 2.55150990218,
			"0.01": 2.0281617076,
			"0.011": 4.34816582527,
			"0.012": 3.38026594515,
			"0.013": 5.4222145069,
			"0.014": 5.94727315871,
			"0.015": 1.35412645346,
			"0.016": 0.0,
			"0.017": 0.0,
			"0.018": 0.0,
			"0.019": 0.0,
			"0.02": 0.0,
			"0.021": 0.0,
			"0.022": 0.0,
			"0.023": 0.0,
			"0.024": 0.0,
			"0.025": 0.0
		}
	}
}
