{
	 "smiles": "CN(CC(O)=O)C(=O)NC1=CC(=CC=C1)[N+]([O-])=O", 
	 "Tm": 431.15, 
	 "num_atms": 29, 
	 "gaussian": { 
		 "optdone": 1, 
		 "sigma_profile": "yes", 
		 "theory": "DFT", 
		 "functional": "B3LYP", 
		 "basiset": "6-31G**", 
		 "properties": { 
			 "R2extent": 6928.6013, 
			 "electric_dipole_moment_norm": 6.92711174011, 
			 "electric_quadrupole_moment_norm": 31.1044108739, 
			 "total_energy": -928.002729833, 
			 "HOMO_LUMO_gap": 0.14971, 
			 "cosmo_polarized_energy": -19.18, 
			 "cosmo_cavitation_energy": 34.62, 
			 "cosmo_dispersion_energy": -24.62, 
			 "cosmo_repulsion_energy": 1.89, 
			 "cosmo_total_nonelectrostatic_energy": 11.89, 
			 "SMD_solvation_energy": 9.84 
		},
		"coords": [
			{
				"x": -0.8055469318,
				"y": 3.0354243035,
				"z": 0.9588106548,
				"element": "C" 
			},
			{
				"x": -1.1537410864,
				"y": 1.7884245538,
				"z": 0.2833218797,
				"element": "N" 
			},
			{
				"x": -2.4720340451,
				"y": 1.7238883937,
				"z": -0.3323932208,
				"element": "C" 
			},
			{
				"x": -2.4244924771,
				"y": 1.7290228812,
				"z": -1.8585570878,
				"element": "C" 
			},
			{
				"x": -3.1968709406,
				"y": 2.6819322215,
				"z": -2.4022402918,
				"element": "O" 
			},
			{
				"x": -1.7784511324,
				"y": 0.9398639451,
				"z": -2.5215856726,
				"element": "O" 
			},
			{
				"x": -0.4297192652,
				"y": 0.6470068602,
				"z": 0.6301970255,
				"element": "C" 
			},
			{
				"x": 0.3874731698,
				"y": 0.6496426114,
				"z": 1.5432108567,
				"element": "O" 
			},
			{
				"x": -0.7177439749,
				"y": -0.4501943162,
				"z": -0.1703088412,
				"element": "N" 
			},
			{
				"x": -0.225177847,
				"y": -1.755374935,
				"z": -0.0092147752,
				"element": "C" 
			},
			{
				"x": -0.469575099,
				"y": -2.6588530895,
				"z": -1.0535698726,
				"element": "C" 
			},
			{
				"x": -0.0318667685,
				"y": -3.9723041807,
				"z": -0.9312428363,
				"element": "C" 
			},
			{
				"x": 0.6448412281,
				"y": -4.4384078182,
				"z": 0.1932477591,
				"element": "C" 
			},
			{
				"x": 0.8801561161,
				"y": -3.5295290949,
				"z": 1.2223996206,
				"element": "C" 
			},
			{
				"x": 0.4576643263,
				"y": -2.2025036327,
				"z": 1.1373214975,
				"element": "C" 
			},
			{
				"x": -0.3022002686,
				"y": -4.9036073195,
				"z": -2.039282568,
				"element": "N" 
			},
			{
				"x": 0.0971728191,
				"y": -6.0617163083,
				"z": -1.9224069621,
				"element": "O" 
			},
			{
				"x": -0.9127582656,
				"y": -4.4712123519,
				"z": -3.0174593606,
				"element": "O" 
			},
			{
				"x": 0.2244376588,
				"y": 2.9662396996,
				"z": 1.3036125237,
				"element": "H" 
			},
			{
				"x": -1.4484684911,
				"y": 3.2233407851,
				"z": 1.8293176104,
				"element": "H" 
			},
			{
				"x": -0.9017163678,
				"y": 3.8731365857,
				"z": 0.2611013885,
				"element": "H" 
			},
			{
				"x": -3.0723886944,
				"y": 2.5668259143,
				"z": 0.0151370054,
				"element": "H" 
			},
			{
				"x": -2.9897072414,
				"y": 0.8021399046,
				"z": -0.0378705147,
				"element": "H" 
			},
			{
				"x": -3.1315695244,
				"y": 2.5883154649,
				"z": -3.3692395707,
				"element": "H" 
			},
			{
				"x": -1.0792504298,
				"y": -0.2321674976,
				"z": -1.0968094966,
				"element": "H" 
			},
			{
				"x": -0.9921045809,
				"y": -2.357409293,
				"z": -1.9539026626,
				"element": "H" 
			},
			{
				"x": 0.9665776051,
				"y": -5.4701907791,
				"z": 0.2419060281,
				"element": "H" 
			},
			{
				"x": 1.4075537533,
				"y": -3.8562814203,
				"z": 2.113305365,
				"element": "H" 
			},
			{
				"x": 0.6633067554,
				"y": -1.5029520877,
				"z": 1.9347945186,
				"element": "H" 
			}
		],
		 "valence_orbital": [ 
			{
				"type": "occ",
				"energy": -0.28284,
				"method": "rhf"
			},
			{
				"type": "occ",
				"energy": -0.27809,
				"method": "rhf"
			},
			{
				"type": "occ",
				"energy": -0.27074,
				"method": "rhf"
			},
			{
				"type": "occ",
				"energy": -0.25546,
				"method": "rhf"
			},
			{
				"type": "occ",
				"energy": -0.2297,
				"method": "rhf"
			},
			{
				"type": "unocc",
				"energy": -0.07999,
				"method": "rhf"
			},
			{
				"type": "unocc",
				"energy": -0.03306,
				"method": "rhf"
			},
			{
				"type": "unocc",
				"energy": -0.01583,
				"method": "rhf"
			},
			{
				"type": "unocc",
				"energy": 0.0083,
				"method": "rhf"
			},
			{
				"type": "unocc",
				"energy": 0.04697,
				"method": "rhf"
			}
		],
		"cosmo_sigma_profile": { 
			"-0.025": 0.0,
			"-0.024": 0.0,
			"-0.023": 0.0,
			"-0.022": 0.0,
			"-0.021": 0.0,
			"-0.02": 0.072213278122,
			"-0.019": 0.929317251755,
			"-0.018": 0.779610396914,
			"-0.017": 0.986196628168,
			"-0.016": 1.18089316466,
			"-0.015": 0.495705045505,
			"-0.014": 0.102696773878,
			"-0.013": 0.780425580506,
			"-0.012": 0.956170667597,
			"-0.011": 0.915355539263,
			"-0.01": 0.617774833738,
			"-0.009": 2.14204259809,
			"-0.008": 5.70762897793,
			"-0.007": 11.2009661349,
			"-0.006": 16.7558186658,
			"-0.005": 19.6126281769,
			"-0.004": 17.8260999198,
			"-0.003": 17.2483322877,
			"-0.002": 18.4264979749,
			"-0.001": 18.882332146,
			"0.0": 18.7780685938,
			"0.001": 20.2735072814,
			"0.002": 19.9619738007,
			"0.003": 12.3309065717,
			"0.004": 6.87196565934,
			"0.005": 6.99132505987,
			"0.006": 8.44310843064,
			"0.007": 11.7416729345,
			"0.008": 12.1469174186,
			"0.009": 7.92082285912,
			"0.01": 6.38777966749,
			"0.011": 2.94231821479,
			"0.012": 2.41248047814,
			"0.013": 3.14709235581,
			"0.014": 0.409950548156,
			"0.015": 0.0,
			"0.016": 0.0,
			"0.017": 0.0,
			"0.018": 0.0,
			"0.019": 0.0,
			"0.02": 0.0,
			"0.021": 0.0,
			"0.022": 0.0,
			"0.023": 0.0,
			"0.024": 0.0,
			"0.025": 0.0
		}
	}
}
