{
	 "smiles": "CC1=C(C)C2=C(C=CC=C2)N1C(=O)C1=CC=CC=C1", 
	 "Tm": 371.15, 
	 "num_atms": 34, 
	 "gaussian": { 
		 "optdone": 1, 
		 "sigma_profile": "yes", 
		 "theory": "DFT", 
		 "functional": "B3LYP", 
		 "basiset": "6-31G**", 
		 "properties": { 
			 "R2extent": 5950.4847, 
			 "electric_dipole_moment_norm": 3.70984215567, 
			 "electric_quadrupole_moment_norm": 13.0305827836, 
			 "total_energy": -786.847192279, 
			 "HOMO_LUMO_gap": 0.14771, 
			 "cosmo_polarized_energy": -9.88, 
			 "cosmo_cavitation_energy": 36.65, 
			 "cosmo_dispersion_energy": -25.99, 
			 "cosmo_repulsion_energy": 1.97, 
			 "cosmo_total_nonelectrostatic_energy": 12.63, 
			 "SMD_solvation_energy": 6.66 
		},
		"coords": [
			{
				"x": 0.8563356546,
				"y": 0.4102951677,
				"z": 0.8559632833,
				"element": "C" 
			},
			{
				"x": 0.4726816814,
				"y": -0.8478379675,
				"z": 0.1371729631,
				"element": "C" 
			},
			{
				"x": 0.6877592834,
				"y": -2.1405633118,
				"z": 0.5350214419,
				"element": "C" 
			},
			{
				"x": 1.2469402103,
				"y": -2.620448822,
				"z": 1.8397375104,
				"element": "C" 
			},
			{
				"x": 0.3154834603,
				"y": -3.0076777672,
				"z": -0.5609058911,
				"element": "C" 
			},
			{
				"x": -0.0966397068,
				"y": -2.1892819155,
				"z": -1.6351052288,
				"element": "C" 
			},
			{
				"x": -0.5136526553,
				"y": -2.7246347655,
				"z": -2.855522755,
				"element": "C" 
			},
			{
				"x": -0.508984851,
				"y": -4.1134673747,
				"z": -2.9800158108,
				"element": "C" 
			},
			{
				"x": -0.1010882428,
				"y": -4.9448775222,
				"z": -1.922827844,
				"element": "C" 
			},
			{
				"x": 0.3121688061,
				"y": -4.4015448059,
				"z": -0.7102320151,
				"element": "C" 
			},
			{
				"x": -0.042902132,
				"y": -0.8523179682,
				"z": -1.1897311474,
				"element": "N" 
			},
			{
				"x": -0.4095179912,
				"y": 0.2373191468,
				"z": -2.0047908292,
				"element": "C" 
			},
			{
				"x": -0.2724648704,
				"y": 0.1827525309,
				"z": -3.2176427407,
				"element": "O" 
			},
			{
				"x": -1.0610391957,
				"y": 1.4221090878,
				"z": -1.3645279876,
				"element": "C" 
			},
			{
				"x": -0.8552116739,
				"y": 2.6818835378,
				"z": -1.9452352229,
				"element": "C" 
			},
			{
				"x": -1.518882884,
				"y": 3.799979828,
				"z": -1.4466778838,
				"element": "C" 
			},
			{
				"x": -2.4205627191,
				"y": 3.663420871,
				"z": -0.3871631839,
				"element": "C" 
			},
			{
				"x": -2.6552625285,
				"y": 2.4058758653,
				"z": 0.1729766948,
				"element": "C" 
			},
			{
				"x": -1.9739036848,
				"y": 1.287954149,
				"z": -0.3086191983,
				"element": "C" 
			},
			{
				"x": 0.011482654,
				"y": 0.9184762708,
				"z": 1.3303202977,
				"element": "H" 
			},
			{
				"x": 1.3239451468,
				"y": 1.1318975638,
				"z": 0.1789165879,
				"element": "H" 
			},
			{
				"x": 1.582417564,
				"y": 0.1706938512,
				"z": 1.6358175812,
				"element": "H" 
			},
			{
				"x": 2.1342603752,
				"y": -3.2459938026,
				"z": 1.6843789321,
				"element": "H" 
			},
			{
				"x": 0.5158518792,
				"y": -3.234109406,
				"z": 2.3808795077,
				"element": "H" 
			},
			{
				"x": 1.5303915929,
				"y": -1.7965667967,
				"z": 2.4990501357,
				"element": "H" 
			},
			{
				"x": -0.8035054227,
				"y": -2.0833247279,
				"z": -3.6770299336,
				"element": "H" 
			},
			{
				"x": -0.8193937203,
				"y": -4.558836327,
				"z": -3.9207200662,
				"element": "H" 
			},
			{
				"x": -0.1063171475,
				"y": -6.0227306105,
				"z": -2.0571891079,
				"element": "H" 
			},
			{
				"x": 0.6247048431,
				"y": -5.0448595043,
				"z": 0.1075117883,
				"element": "H" 
			},
			{
				"x": -0.1767727711,
				"y": 2.7639924015,
				"z": -2.7880189181,
				"element": "H" 
			},
			{
				"x": -1.3426252742,
				"y": 4.7759759752,
				"z": -1.889076381,
				"element": "H" 
			},
			{
				"x": -2.9458525027,
				"y": 4.534138452,
				"z": -0.0053095382,
				"element": "H" 
			},
			{
				"x": -3.3715657386,
				"y": 2.2945462495,
				"z": 0.9816594562,
				"element": "H" 
			},
			{
				"x": -2.1617774384,
				"y": 0.3080624474,
				"z": 0.1193355034,
				"element": "H" 
			}
		],
		 "valence_orbital": [ 
			{
				"type": "occ",
				"energy": -0.26666,
				"method": "rhf"
			},
			{
				"type": "occ",
				"energy": -0.26386,
				"method": "rhf"
			},
			{
				"type": "occ",
				"energy": -0.25482,
				"method": "rhf"
			},
			{
				"type": "occ",
				"energy": -0.22142,
				"method": "rhf"
			},
			{
				"type": "occ",
				"energy": -0.20233,
				"method": "rhf"
			},
			{
				"type": "unocc",
				"energy": -0.05462,
				"method": "rhf"
			},
			{
				"type": "unocc",
				"energy": -0.01452,
				"method": "rhf"
			},
			{
				"type": "unocc",
				"energy": -0.00736,
				"method": "rhf"
			},
			{
				"type": "unocc",
				"energy": 0.01036,
				"method": "rhf"
			},
			{
				"type": "unocc",
				"energy": 0.04364,
				"method": "rhf"
			}
		],
		"cosmo_sigma_profile": { 
			"-0.025": 0.0,
			"-0.024": 0.0,
			"-0.023": 0.0,
			"-0.022": 0.0,
			"-0.021": 0.0,
			"-0.02": 0.0,
			"-0.019": 0.0,
			"-0.018": 0.0,
			"-0.017": 0.0,
			"-0.016": 0.0,
			"-0.015": 0.0,
			"-0.014": 0.0,
			"-0.013": 0.0,
			"-0.012": 0.0,
			"-0.011": 0.0,
			"-0.01": 0.0,
			"-0.009": 0.0,
			"-0.008": 0.0,
			"-0.007": 1.82509907513,
			"-0.006": 12.620648457,
			"-0.005": 22.023153951,
			"-0.004": 26.3539662994,
			"-0.003": 33.5771015632,
			"-0.002": 26.5101349864,
			"-0.001": 26.5242898971,
			"0.0": 25.1882038277,
			"0.001": 18.5484648924,
			"0.002": 18.3440786569,
			"0.003": 19.4537971585,
			"0.004": 22.5084054641,
			"0.005": 12.4912203486,
			"0.006": 11.3325305332,
			"0.007": 3.48905833279,
			"0.008": 2.07321653262,
			"0.009": 2.13694789451,
			"0.01": 2.00878560038,
			"0.011": 3.39301396587,
			"0.012": 2.28494214335,
			"0.013": 0.297466871745,
			"0.014": 0.0,
			"0.015": 0.0,
			"0.016": 0.0,
			"0.017": 0.0,
			"0.018": 0.0,
			"0.019": 0.0,
			"0.02": 0.0,
			"0.021": 0.0,
			"0.022": 0.0,
			"0.023": 0.0,
			"0.024": 0.0,
			"0.025": 0.0
		}
	}
}
