{
	 "smiles": "OC(=O)C1COCN1C(=O)OCC1=CC=CC=C1", 
	 "Tm": 345.15, 
	 "num_atms": 31, 
	 "gaussian": { 
		 "optdone": 1, 
		 "sigma_profile": "yes", 
		 "theory": "DFT", 
		 "functional": "B3LYP", 
		 "basiset": "6-31G**", 
		 "properties": { 
			 "R2extent": 5606.167, 
			 "electric_dipole_moment_norm": 4.20167879543, 
			 "electric_quadrupole_moment_norm": 19.8788384497, 
			 "total_energy": -895.991036281, 
			 "HOMO_LUMO_gap": 0.23025, 
			 "cosmo_polarized_energy": -17.44, 
			 "cosmo_cavitation_energy": 34.91, 
			 "cosmo_dispersion_energy": -24.54, 
			 "cosmo_repulsion_energy": 1.89, 
			 "cosmo_total_nonelectrostatic_energy": 12.26, 
			 "SMD_solvation_energy": 7.49 
		},
		"coords": [
			{
				"x": 1.0740139242,
				"y": 0.2268957185,
				"z": -1.84870457,
				"element": "O" 
			},
			{
				"x": -0.042164419,
				"y": -0.1437548581,
				"z": -2.4942078191,
				"element": "C" 
			},
			{
				"x": -0.4162674275,
				"y": 0.4211635019,
				"z": -3.49365491,
				"element": "O" 
			},
			{
				"x": -0.7773657012,
				"y": -1.3733270477,
				"z": -1.9095053286,
				"element": "C" 
			},
			{
				"x": -2.214686097,
				"y": -1.5059509234,
				"z": -2.4396632343,
				"element": "C" 
			},
			{
				"x": -3.0116296945,
				"y": -0.831503662,
				"z": -1.4690793337,
				"element": "O" 
			},
			{
				"x": -2.4756334034,
				"y": -1.1466704811,
				"z": -0.2127214688,
				"element": "C" 
			},
			{
				"x": -1.0273789693,
				"y": -1.2810096593,
				"z": -0.4635358472,
				"element": "N" 
			},
			{
				"x": -0.2051869771,
				"y": -1.6714842446,
				"z": 0.5445099063,
				"element": "C" 
			},
			{
				"x": -0.556412726,
				"y": -1.8376932219,
				"z": 1.6990847599,
				"element": "O" 
			},
			{
				"x": 1.0826674254,
				"y": -1.8222914565,
				"z": 0.0902942967,
				"element": "O" 
			},
			{
				"x": 2.0837010951,
				"y": -2.1903115362,
				"z": 1.09448471,
				"element": "C" 
			},
			{
				"x": 2.7746446623,
				"y": -0.9778340095,
				"z": 1.6600103058,
				"element": "C" 
			},
			{
				"x": 3.9915602983,
				"y": -0.5421350527,
				"z": 1.1203455229,
				"element": "C" 
			},
			{
				"x": 4.628747921,
				"y": 0.5895506434,
				"z": 1.6308763973,
				"element": "C" 
			},
			{
				"x": 4.0515793546,
				"y": 1.295934746,
				"z": 2.6872965329,
				"element": "C" 
			},
			{
				"x": 2.8379571285,
				"y": 0.8679785274,
				"z": 3.2315745454,
				"element": "C" 
			},
			{
				"x": 2.2014198369,
				"y": -0.2633594467,
				"z": 2.7225320844,
				"element": "C" 
			},
			{
				"x": 1.2580616098,
				"y": -0.374602285,
				"z": -1.1009684039,
				"element": "H" 
			},
			{
				"x": -0.1737172243,
				"y": -2.2598125273,
				"z": -2.1376131111,
				"element": "H" 
			},
			{
				"x": -2.3417154093,
				"y": -1.0077136819,
				"z": -3.3998189757,
				"element": "H" 
			},
			{
				"x": -2.4990882545,
				"y": -2.5658607776,
				"z": -2.5146066584,
				"element": "H" 
			},
			{
				"x": -2.8702763045,
				"y": -2.091659885,
				"z": 0.1937530982,
				"element": "H" 
			},
			{
				"x": -2.6897074671,
				"y": -0.3330635747,
				"z": 0.484511936,
				"element": "H" 
			},
			{
				"x": 1.5748128928,
				"y": -2.7665068775,
				"z": 1.8678170176,
				"element": "H" 
			},
			{
				"x": 2.781497185,
				"y": -2.8303192138,
				"z": 0.5513912705,
				"element": "H" 
			},
			{
				"x": 4.4443203485,
				"y": -1.0937428174,
				"z": 0.299708999,
				"element": "H" 
			},
			{
				"x": 5.5727356261,
				"y": 0.9175369728,
				"z": 1.2058034681,
				"element": "H" 
			},
			{
				"x": 4.5464450797,
				"y": 2.1764302992,
				"z": 3.0868189236,
				"element": "H" 
			},
			{
				"x": 2.3884806666,
				"y": 1.4150546896,
				"z": 4.0551968904,
				"element": "H" 
			},
			{
				"x": 1.2542850198,
				"y": -0.5971378589,
				"z": 3.1353689955,
				"element": "H" 
			}
		],
		 "valence_orbital": [ 
			{
				"type": "occ",
				"energy": -0.29652,
				"method": "rhf"
			},
			{
				"type": "occ",
				"energy": -0.28249,
				"method": "rhf"
			},
			{
				"type": "occ",
				"energy": -0.26198,
				"method": "rhf"
			},
			{
				"type": "occ",
				"energy": -0.26067,
				"method": "rhf"
			},
			{
				"type": "occ",
				"energy": -0.25441,
				"method": "rhf"
			},
			{
				"type": "unocc",
				"energy": -0.02416,
				"method": "rhf"
			},
			{
				"type": "unocc",
				"energy": -0.01265,
				"method": "rhf"
			},
			{
				"type": "unocc",
				"energy": 0.00255,
				"method": "rhf"
			},
			{
				"type": "unocc",
				"energy": 0.02474,
				"method": "rhf"
			},
			{
				"type": "unocc",
				"energy": 0.07775,
				"method": "rhf"
			}
		],
		"cosmo_sigma_profile": { 
			"-0.025": 0.0,
			"-0.024": 0.0,
			"-0.023": 0.0,
			"-0.022": 0.0,
			"-0.021": 0.0,
			"-0.02": 0.0,
			"-0.019": 0.0,
			"-0.018": 0.0,
			"-0.017": 0.0,
			"-0.016": 0.0,
			"-0.015": 0.0,
			"-0.014": 0.0,
			"-0.013": 0.0,
			"-0.012": 0.0,
			"-0.011": 0.00102692876133,
			"-0.01": 1.17779795925,
			"-0.009": 3.05490426163,
			"-0.008": 4.25174876555,
			"-0.007": 12.1931634875,
			"-0.006": 23.8737670007,
			"-0.005": 26.031860681,
			"-0.004": 25.9774322055,
			"-0.003": 21.6935364409,
			"-0.002": 18.7207000025,
			"-0.001": 12.8087985896,
			"0.0": 13.7175404898,
			"0.001": 12.8202080301,
			"0.002": 13.1195975072,
			"0.003": 13.0207251754,
			"0.004": 13.5877526041,
			"0.005": 13.4002385665,
			"0.006": 6.91229420599,
			"0.007": 5.25084807186,
			"0.008": 5.36857617646,
			"0.009": 5.61929059443,
			"0.01": 7.99051507545,
			"0.011": 9.82971497364,
			"0.012": 6.36443398581,
			"0.013": 0.904074092624,
			"0.014": 0.0,
			"0.015": 0.0,
			"0.016": 0.0,
			"0.017": 0.0,
			"0.018": 0.0,
			"0.019": 0.0,
			"0.02": 0.0,
			"0.021": 0.0,
			"0.022": 0.0,
			"0.023": 0.0,
			"0.024": 0.0,
			"0.025": 0.0
		}
	}
}
