{
	 "smiles": "C=CCC#N", 
	 "Tm": 186.15, 
	 "num_atms": 10, 
	 "gaussian": { 
		 "optdone": 1, 
		 "sigma_profile": "yes", 
		 "theory": "DFT", 
		 "functional": "B3LYP", 
		 "basiset": "6-31G**", 
		 "properties": { 
			 "R2extent": 881.1297, 
			 "electric_dipole_moment_norm": 3.8615753301, 
			 "electric_quadrupole_moment_norm": 9.89735943169, 
			 "total_energy": -210.145186133, 
			 "HOMO_LUMO_gap": 0.27472, 
			 "cosmo_polarized_energy": -8.61, 
			 "cosmo_cavitation_energy": 15.0, 
			 "cosmo_dispersion_energy": -10.23, 
			 "cosmo_repulsion_energy": 0.93, 
			 "cosmo_total_nonelectrostatic_energy": 5.69, 
			 "SMD_solvation_energy": 5.0 
		},
		"coords": [
			{
				"x": -1.858154657,
				"y": 1.6295942721,
				"z": -1.1443139441,
				"element": "C" 
			},
			{
				"x": -0.6038382138,
				"y": 1.7598331606,
				"z": -1.5696864618,
				"element": "C" 
			},
			{
				"x": 0.2260721626,
				"y": 0.6122114297,
				"z": -2.1055112574,
				"element": "C" 
			},
			{
				"x": 1.4851425301,
				"y": 0.4367620741,
				"z": -1.3687833275,
				"element": "C" 
			},
			{
				"x": 2.4794641953,
				"y": 0.3142792149,
				"z": -0.7830457097,
				"element": "N" 
			},
			{
				"x": -2.3661903834,
				"y": 0.6683097866,
				"z": -1.1400060478,
				"element": "H" 
			},
			{
				"x": -2.4245625462,
				"y": 2.4829320114,
				"z": -0.7848694928,
				"element": "H" 
			},
			{
				"x": -0.1148805908,
				"y": 2.7317404991,
				"z": -1.5561540305,
				"element": "H" 
			},
			{
				"x": -0.3402011814,
				"y": -0.3247355034,
				"z": -2.0620410503,
				"element": "H" 
			},
			{
				"x": 0.4805486845,
				"y": 0.7841730549,
				"z": -3.1604886782,
				"element": "H" 
			}
		],
		 "valence_orbital": [ 
			{
				"type": "occ",
				"energy": -0.38202,
				"method": "rhf"
			},
			{
				"type": "occ",
				"energy": -0.35775,
				"method": "rhf"
			},
			{
				"type": "occ",
				"energy": -0.32705,
				"method": "rhf"
			},
			{
				"type": "occ",
				"energy": -0.32417,
				"method": "rhf"
			},
			{
				"type": "occ",
				"energy": -0.28322,
				"method": "rhf"
			},
			{
				"type": "unocc",
				"energy": -0.0085,
				"method": "rhf"
			},
			{
				"type": "unocc",
				"energy": 0.03665,
				"method": "rhf"
			},
			{
				"type": "unocc",
				"energy": 0.04515,
				"method": "rhf"
			},
			{
				"type": "unocc",
				"energy": 0.09401,
				"method": "rhf"
			},
			{
				"type": "unocc",
				"energy": 0.11086,
				"method": "rhf"
			}
		],
		"cosmo_sigma_profile": { 
			"-0.025": 0.0,
			"-0.024": 0.0,
			"-0.023": 0.0,
			"-0.022": 0.0,
			"-0.021": 0.0,
			"-0.02": 0.0,
			"-0.019": 0.0,
			"-0.018": 0.0,
			"-0.017": 0.0,
			"-0.016": 0.0,
			"-0.015": 0.0,
			"-0.014": 0.0,
			"-0.013": 0.0,
			"-0.012": 0.0,
			"-0.011": 0.0,
			"-0.01": 0.0,
			"-0.009": 1.63269602703,
			"-0.008": 5.85673241173,
			"-0.007": 6.54891156202,
			"-0.006": 11.1302600809,
			"-0.005": 11.0868706232,
			"-0.004": 6.9101793685,
			"-0.003": 7.72347555336,
			"-0.002": 6.74283251716,
			"-0.001": 6.1152458162,
			"0.0": 6.44567464148,
			"0.001": 6.27123339893,
			"0.002": 5.51528993592,
			"0.003": 4.91702058682,
			"0.004": 5.118230248,
			"0.005": 4.22381530414,
			"0.006": 4.03741219027,
			"0.007": 2.06009142342,
			"0.008": 3.29972646562,
			"0.009": 3.52108099226,
			"0.01": 3.40074907494,
			"0.011": 2.93581409487,
			"0.012": 2.5272579747,
			"0.013": 2.05131818088,
			"0.014": 0.342910778665,
			"0.015": 0.0,
			"0.016": 0.0,
			"0.017": 0.0,
			"0.018": 0.0,
			"0.019": 0.0,
			"0.02": 0.0,
			"0.021": 0.0,
			"0.022": 0.0,
			"0.023": 0.0,
			"0.024": 0.0,
			"0.025": 0.0
		}
	}
}
