{
	 "smiles": "COC1=C(Cl)C=C(C=C1)C1=CSC(N)=N1", 
	 "Tm": 290.15, 
	 "num_atms": 24, 
	 "gaussian": { 
		 "optdone": 1, 
		 "sigma_profile": "yes", 
		 "theory": "DFT", 
		 "functional": "B3LYP", 
		 "basiset": "6-31G**", 
		 "properties": { 
			 "R2extent": 5802.1941, 
			 "electric_dipole_moment_norm": 3.78162829083, 
			 "electric_quadrupole_moment_norm": 14.9137657458, 
			 "total_energy": -1429.58241711, 
			 "HOMO_LUMO_gap": 0.16879, 
			 "cosmo_polarized_energy": -14.19, 
			 "cosmo_cavitation_energy": 31.89, 
			 "cosmo_dispersion_energy": -24.33, 
			 "cosmo_repulsion_energy": 1.86, 
			 "cosmo_total_nonelectrostatic_energy": 9.42, 
			 "SMD_solvation_energy": 4.56 
		},
		"coords": [
			{
				"x": -2.3802063852,
				"y": 2.9038021829,
				"z": 3.750086334,
				"element": "C" 
			},
			{
				"x": -1.0036729668,
				"y": 2.7867696726,
				"z": 3.422975639,
				"element": "O" 
			},
			{
				"x": -0.663674068,
				"y": 2.0883013941,
				"z": 2.3109853418,
				"element": "C" 
			},
			{
				"x": 0.7099260783,
				"y": 1.9901706078,
				"z": 2.0090116836,
				"element": "C" 
			},
			{
				"x": 1.8791638368,
				"y": 2.7594123066,
				"z": 3.0656766004,
				"element": "Cl" 
			},
			{
				"x": 1.1523422859,
				"y": 1.296741346,
				"z": 0.8933862919,
				"element": "C" 
			},
			{
				"x": 0.241414356,
				"y": 0.6684048135,
				"z": 0.02621915,
				"element": "C" 
			},
			{
				"x": -1.1230458553,
				"y": 0.7648977597,
				"z": 0.3263180376,
				"element": "C" 
			},
			{
				"x": -1.570166525,
				"y": 1.4618467544,
				"z": 1.4475794801,
				"element": "C" 
			},
			{
				"x": 0.688059678,
				"y": -0.0729449533,
				"z": -1.1672459039,
				"element": "C" 
			},
			{
				"x": 1.9793588395,
				"y": -0.2314390626,
				"z": -1.5926121129,
				"element": "C" 
			},
			{
				"x": 2.0311855253,
				"y": -1.1780672927,
				"z": -3.0579217222,
				"element": "S" 
			},
			{
				"x": 0.2687000431,
				"y": -1.3037029829,
				"z": -2.9691279673,
				"element": "C" 
			},
			{
				"x": -0.4477032601,
				"y": -1.9435287979,
				"z": -3.955799198,
				"element": "N" 
			},
			{
				"x": -0.2715166174,
				"y": -0.6930715878,
				"z": -1.9584284179,
				"element": "N" 
			},
			{
				"x": -2.9405188466,
				"y": 3.4192991725,
				"z": 2.9599324132,
				"element": "H" 
			},
			{
				"x": -2.8362635607,
				"y": 1.9229146107,
				"z": 3.9343637701,
				"element": "H" 
			},
			{
				"x": -2.4189039678,
				"y": 3.4966531907,
				"z": 4.6647279011,
				"element": "H" 
			},
			{
				"x": 2.2195792279,
				"y": 1.2518014559,
				"z": 0.7087228614,
				"element": "H" 
			},
			{
				"x": -1.8357290839,
				"y": 0.2848078618,
				"z": -0.3337924472,
				"element": "H" 
			},
			{
				"x": -2.6338835033,
				"y": 1.5155759773,
				"z": 1.6468858915,
				"element": "H" 
			},
			{
				"x": 2.8954757738,
				"y": 0.1338906872,
				"z": -1.1543935399,
				"element": "H" 
			},
			{
				"x": -1.4104033556,
				"y": -2.1125108187,
				"z": -3.694490702,
				"element": "H" 
			},
			{
				"x": -0.0021176489,
				"y": -2.7306242976,
				"z": -4.4052593846,
				"element": "H" 
			}
		],
		 "valence_orbital": [ 
			{
				"type": "occ",
				"energy": -0.27798,
				"method": "rhf"
			},
			{
				"type": "occ",
				"energy": -0.2748,
				"method": "rhf"
			},
			{
				"type": "occ",
				"energy": -0.24891,
				"method": "rhf"
			},
			{
				"type": "occ",
				"energy": -0.23084,
				"method": "rhf"
			},
			{
				"type": "occ",
				"energy": -0.19603,
				"method": "rhf"
			},
			{
				"type": "unocc",
				"energy": -0.02724,
				"method": "rhf"
			},
			{
				"type": "unocc",
				"energy": -0.00626,
				"method": "rhf"
			},
			{
				"type": "unocc",
				"energy": 0.00839,
				"method": "rhf"
			},
			{
				"type": "unocc",
				"energy": 0.01763,
				"method": "rhf"
			},
			{
				"type": "unocc",
				"energy": 0.03822,
				"method": "rhf"
			}
		],
		"cosmo_sigma_profile": { 
			"-0.025": 0.0,
			"-0.024": 0.0,
			"-0.023": 0.0,
			"-0.022": 0.0,
			"-0.021": 0.0,
			"-0.02": 0.0,
			"-0.019": 0.0,
			"-0.018": 0.0,
			"-0.017": 0.0,
			"-0.016": 0.0,
			"-0.015": 0.364753416729,
			"-0.014": 1.93143548156,
			"-0.013": 2.62886470035,
			"-0.012": 3.03464286575,
			"-0.011": 2.60452659101,
			"-0.01": 2.75582798205,
			"-0.009": 3.88857706131,
			"-0.008": 4.17891532828,
			"-0.007": 6.82560215357,
			"-0.006": 12.7356444365,
			"-0.005": 14.9990222489,
			"-0.004": 15.0760119303,
			"-0.003": 12.9194631778,
			"-0.002": 12.0277262283,
			"-0.001": 9.64727260788,
			"0.0": 12.6033158901,
			"0.001": 17.8255189414,
			"0.002": 24.0900402383,
			"0.003": 28.0823576083,
			"0.004": 30.2667684396,
			"0.005": 15.7648813683,
			"0.006": 6.87567291851,
			"0.007": 4.3537364854,
			"0.008": 3.66197403303,
			"0.009": 4.21066892665,
			"0.01": 3.6775446926,
			"0.011": 2.4863694112,
			"0.012": 0.244085655298,
			"0.013": 0.0,
			"0.014": 0.0,
			"0.015": 0.0,
			"0.016": 0.0,
			"0.017": 0.0,
			"0.018": 0.0,
			"0.019": 0.0,
			"0.02": 0.0,
			"0.021": 0.0,
			"0.022": 0.0,
			"0.023": 0.0,
			"0.024": 0.0,
			"0.025": 0.0
		}
	}
}
