{
	 "smiles": "NC1=CC=CN(CC2=CC=CC=C2)C1=O", 
	 "Tm": 393.15, 
	 "num_atms": 27, 
	 "gaussian": { 
		 "optdone": 1, 
		 "sigma_profile": "yes", 
		 "theory": "DFT", 
		 "functional": "B3LYP", 
		 "basiset": "6-31G**", 
		 "properties": { 
			 "R2extent": 3720.8478, 
			 "electric_dipole_moment_norm": 2.42103690802, 
			 "electric_quadrupole_moment_norm": 9.96493096715, 
			 "total_energy": -649.249358466, 
			 "HOMO_LUMO_gap": 0.16443, 
			 "cosmo_polarized_energy": -13.11, 
			 "cosmo_cavitation_energy": 30.5, 
			 "cosmo_dispersion_energy": -22.11, 
			 "cosmo_repulsion_energy": 1.72, 
			 "cosmo_total_nonelectrostatic_energy": 10.1, 
			 "SMD_solvation_energy": 5.57 
		},
		"coords": [
			{
				"x": -1.8763958091,
				"y": -3.0909714893,
				"z": -2.6146354357,
				"element": "N" 
			},
			{
				"x": -2.2429027359,
				"y": -2.0256586379,
				"z": -1.8186080846,
				"element": "C" 
			},
			{
				"x": -3.3948609845,
				"y": -1.2858965447,
				"z": -1.942964774,
				"element": "C" 
			},
			{
				"x": -3.6232730358,
				"y": -0.1698737779,
				"z": -1.0920892789,
				"element": "C" 
			},
			{
				"x": -2.6990611426,
				"y": 0.1586687934,
				"z": -0.148324605,
				"element": "C" 
			},
			{
				"x": -1.5477134369,
				"y": -0.5872784445,
				"z": -0.0000863367,
				"element": "N" 
			},
			{
				"x": -0.5731749889,
				"y": -0.2230789399,
				"z": 1.0499521601,
				"element": "C" 
			},
			{
				"x": 0.3900847868,
				"y": 0.8676715906,
				"z": 0.6266129452,
				"element": "C" 
			},
			{
				"x": 1.3869582011,
				"y": 0.6011968918,
				"z": -0.3242039732,
				"element": "C" 
			},
			{
				"x": 2.2694463672,
				"y": 1.6064152454,
				"z": -0.7165614069,
				"element": "C" 
			},
			{
				"x": 2.1728722828,
				"y": 2.8863531867,
				"z": -0.1628173161,
				"element": "C" 
			},
			{
				"x": 1.1881751997,
				"y": 3.1567923661,
				"z": 0.7871648355,
				"element": "C" 
			},
			{
				"x": 0.3012061927,
				"y": 2.1506130057,
				"z": 1.1776729736,
				"element": "C" 
			},
			{
				"x": -1.2439007422,
				"y": -1.6824292196,
				"z": -0.8021572833,
				"element": "C" 
			},
			{
				"x": -0.1970085085,
				"y": -2.3371143127,
				"z": -0.6588961845,
				"element": "O" 
			},
			{
				"x": -1.1064312776,
				"y": -3.6230373915,
				"z": -2.2275552078,
				"element": "H" 
			},
			{
				"x": -2.6141626513,
				"y": -3.6297701134,
				"z": -3.0419161879,
				"element": "H" 
			},
			{
				"x": -4.128310289,
				"y": -1.5473009604,
				"z": -2.7012811372,
				"element": "H" 
			},
			{
				"x": -4.5248460396,
				"y": 0.4231851528,
				"z": -1.1895982537,
				"element": "H" 
			},
			{
				"x": -2.8029470895,
				"y": 0.999787011,
				"z": 0.525466007,
				"element": "H" 
			},
			{
				"x": -0.0336200638,
				"y": -1.1412073812,
				"z": 1.2876725581,
				"element": "H" 
			},
			{
				"x": -1.1411598733,
				"y": 0.091078005,
				"z": 1.9300178239,
				"element": "H" 
			},
			{
				"x": 1.4583622938,
				"y": -0.3967941307,
				"z": -0.7465319042,
				"element": "H" 
			},
			{
				"x": 3.0383718157,
				"y": 1.390028232,
				"z": -1.4529432233,
				"element": "H" 
			},
			{
				"x": 2.8642612291,
				"y": 3.6665026207,
				"z": -0.4685692836,
				"element": "H" 
			},
			{
				"x": 1.1088922922,
				"y": 4.1477693118,
				"z": 1.2252863438,
				"element": "H" 
			},
			{
				"x": -0.4617619927,
				"y": 2.3644499307,
				"z": 1.9230942294,
				"element": "H" 
			}
		],
		 "valence_orbital": [ 
			{
				"type": "occ",
				"energy": -0.25734,
				"method": "rhf"
			},
			{
				"type": "occ",
				"energy": -0.25026,
				"method": "rhf"
			},
			{
				"type": "occ",
				"energy": -0.248,
				"method": "rhf"
			},
			{
				"type": "occ",
				"energy": -0.24075,
				"method": "rhf"
			},
			{
				"type": "occ",
				"energy": -0.18396,
				"method": "rhf"
			},
			{
				"type": "unocc",
				"energy": -0.01953,
				"method": "rhf"
			},
			{
				"type": "unocc",
				"energy": -0.00432,
				"method": "rhf"
			},
			{
				"type": "unocc",
				"energy": 0.00153,
				"method": "rhf"
			},
			{
				"type": "unocc",
				"energy": 0.02523,
				"method": "rhf"
			},
			{
				"type": "unocc",
				"energy": 0.08318,
				"method": "rhf"
			}
		],
		"cosmo_sigma_profile": { 
			"-0.025": 0.0,
			"-0.024": 0.0,
			"-0.023": 0.0,
			"-0.022": 0.0,
			"-0.021": 0.0,
			"-0.02": 0.0,
			"-0.019": 0.0,
			"-0.018": 0.0,
			"-0.017": 0.0,
			"-0.016": 0.0,
			"-0.015": 0.0,
			"-0.014": 0.0,
			"-0.013": 0.643077135793,
			"-0.012": 1.44465973352,
			"-0.011": 1.47672385729,
			"-0.01": 1.70841285186,
			"-0.009": 1.79440449637,
			"-0.008": 5.12872646576,
			"-0.007": 8.25614106077,
			"-0.006": 13.8550973986,
			"-0.005": 17.1565573718,
			"-0.004": 19.8296023384,
			"-0.003": 17.9258726809,
			"-0.002": 14.0169573193,
			"-0.001": 13.3242907049,
			"0.0": 13.8152584418,
			"0.001": 17.9211586187,
			"0.002": 15.8370323802,
			"0.003": 16.0955132815,
			"0.004": 16.3336420178,
			"0.005": 17.301172593,
			"0.006": 9.58632313536,
			"0.007": 3.12801261524,
			"0.008": 2.53334393932,
			"0.009": 1.35869355835,
			"0.01": 2.53486748575,
			"0.011": 1.81130980291,
			"0.012": 2.37525991298,
			"0.013": 2.41444652783,
			"0.014": 3.2332966216,
			"0.015": 0.300010181422,
			"0.016": 0.0,
			"0.017": 0.0,
			"0.018": 0.0,
			"0.019": 0.0,
			"0.02": 0.0,
			"0.021": 0.0,
			"0.022": 0.0,
			"0.023": 0.0,
			"0.024": 0.0,
			"0.025": 0.0
		}
	}
}
