{
	 "smiles": "CC1=CC(I)=C(N)N=C1", 
	 "Tm": 361.15, 
	 "num_atms": 16, 
	 "gaussian": { 
		 "optdone": 1, 
		 "sigma_profile": "no", 
		 "theory": "DFT", 
		 "functional": "B3LYP", 
		 "basiset": "6-31G**", 
		 "properties": { 
			 "R2extent": 1415.096, 
			 "electric_dipole_moment_norm": 0.945609226901, 
			 "electric_quadrupole_moment_norm": 8.0942061439, 
			 "total_energy": -353.758006082, 
			 "HOMO_LUMO_gap": 0.17274, 
			 "cosmo_polarized_energy": -90209.01, 
			 "cosmo_cavitation_energy": 22.73, 
			 "cosmo_dispersion_energy": -18.47, 
			 "cosmo_repulsion_energy": 1.48, 
			 "cosmo_total_nonelectrostatic_energy": 5.74, 
			 "SMD_solvation_energy": 1.75 
		},
		"coords": [
			{
				"x": 1.4031877259,
				"y": 2.274886797,
				"z": -1.8465057123,
				"element": "C" 
			},
			{
				"x": 0.7128701866,
				"y": 1.409683731,
				"z": -0.8217578905,
				"element": "C" 
			},
			{
				"x": 1.2911287689,
				"y": 1.134680886,
				"z": 0.4269454266,
				"element": "C" 
			},
			{
				"x": 0.6268204168,
				"y": 0.3294171218,
				"z": 1.3396748132,
				"element": "C" 
			},
			{
				"x": 1.5247905425,
				"y": -0.0678950172,
				"z": 3.2260900382,
				"element": "I" 
			},
			{
				"x": -0.6387599067,
				"y": -0.2086637355,
				"z": 1.0052659212,
				"element": "C" 
			},
			{
				"x": -1.3418324101,
				"y": -1.0550045408,
				"z": 1.8276131379,
				"element": "N" 
			},
			{
				"x": -1.1965053928,
				"y": 0.0651354837,
				"z": -0.1842604004,
				"element": "N" 
			},
			{
				"x": -0.538446508,
				"y": 0.8366416062,
				"z": -1.0527920203,
				"element": "C" 
			},
			{
				"x": 1.6144809572,
				"y": 3.2765640982,
				"z": -1.4548487232,
				"element": "H" 
			},
			{
				"x": 2.3594028924,
				"y": 1.8423411348,
				"z": -2.1631807124,
				"element": "H" 
			},
			{
				"x": 0.7826217558,
				"y": 2.3928973962,
				"z": -2.7394269695,
				"element": "H" 
			},
			{
				"x": 2.2611068376,
				"y": 1.5518750238,
				"z": 0.6799753991,
				"element": "H" 
			},
			{
				"x": -2.3050302759,
				"y": -1.190189137,
				"z": 1.5578092468,
				"element": "H" 
			},
			{
				"x": -1.1500325339,
				"y": -1.0353411244,
				"z": 2.817489616,
				"element": "H" 
			},
			{
				"x": -1.0485030564,
				"y": 1.0150702763,
				"z": -1.9991911704,
				"element": "H" 
			}
		],
		 "valence_orbital": [ 
			{
				"type": "occ",
				"energy": -0.31041,
				"method": "rhf"
			},
			{
				"type": "occ",
				"energy": -0.27741,
				"method": "rhf"
			},
			{
				"type": "occ",
				"energy": -0.25856,
				"method": "rhf"
			},
			{
				"type": "occ",
				"energy": -0.25721,
				"method": "rhf"
			},
			{
				"type": "occ",
				"energy": -0.21304,
				"method": "rhf"
			},
			{
				"type": "unocc",
				"energy": -0.0403,
				"method": "rhf"
			},
			{
				"type": "unocc",
				"energy": -0.02618,
				"method": "rhf"
			},
			{
				"type": "unocc",
				"energy": 0.00398,
				"method": "rhf"
			},
			{
				"type": "unocc",
				"energy": 0.03617,
				"method": "rhf"
			},
			{
				"type": "unocc",
				"energy": 0.04947,
				"method": "rhf"
			}
		],
		"cosmo_sigma_profile": { 
			"0.0": 0.0,
			"0.0": 0.0,
			"0.0": 0.0,
			"0.0": 0.0,
			"0.0": 0.0,
			"0.0": 0.0,
			"0.0": 0.0,
			"0.0": 0.0,
			"0.0": 0.0,
			"0.0": 0.0,
			"0.0": 0.0,
			"0.0": 0.0,
			"0.0": 0.0,
			"0.0": 0.0,
			"0.0": 0.0,
			"0.0": 0.0,
			"0.0": 0.0,
			"0.0": 0.0,
			"0.0": 0.0,
			"0.0": 0.0,
			"0.0": 0.0,
			"0.0": 0.0,
			"0.0": 0.0,
			"0.0": 0.0,
			"0.0": 0.0,
			"0.0": 0.0,
			"0.0": 0.0,
			"0.0": 0.0,
			"0.0": 0.0,
			"0.0": 0.0,
			"0.0": 0.0,
			"0.0": 0.0,
			"0.0": 0.0,
			"0.0": 0.0,
			"0.0": 0.0,
			"0.0": 0.0,
			"0.0": 0.0,
			"0.0": 0.0,
			"0.0": 0.0,
			"0.0": 0.0,
			"0.0": 0.0,
			"0.0": 0.0,
			"0.0": 0.0,
			"0.0": 0.0,
			"0.0": 0.0,
			"0.0": 0.0,
			"0.0": 0.0,
			"0.0": 0.0,
			"0.0": 0.0,
			"0.0": 0.0,
			"0.0": 0.0
		}
	}
}
