{
	 "smiles": "COC1=C(Br)C=C(C=C1)S(N)(=O)=O", 
	 "Tm": 413.15, 
	 "num_atms": 21, 
	 "gaussian": { 
		 "optdone": 1, 
		 "sigma_profile": "yes", 
		 "theory": "DFT", 
		 "functional": "B3LYP", 
		 "basiset": "6-31G**", 
		 "properties": { 
			 "R2extent": 5639.8714, 
			 "electric_dipole_moment_norm": 4.65214938496, 
			 "electric_quadrupole_moment_norm": 14.3338051958, 
			 "total_energy": -3521.49646339, 
			 "HOMO_LUMO_gap": 0.20668, 
			 "cosmo_polarized_energy": -17.17, 
			 "cosmo_cavitation_energy": 29.05, 
			 "cosmo_dispersion_energy": -22.25, 
			 "cosmo_repulsion_energy": 1.73, 
			 "cosmo_total_nonelectrostatic_energy": 8.53, 
			 "SMD_solvation_energy": 4.35 
		},
		"coords": [
			{
				"x": 2.9316960811,
				"y": -2.6907004541,
				"z": -1.8912128877,
				"element": "C" 
			},
			{
				"x": 1.5178844537,
				"y": -2.5563963075,
				"z": -1.9815722517,
				"element": "O" 
			},
			{
				"x": 0.9616576457,
				"y": -1.349870144,
				"z": -1.7392380533,
				"element": "C" 
			},
			{
				"x": -0.4450745716,
				"y": -1.2648274512,
				"z": -1.8309690033,
				"element": "C" 
			},
			{
				"x": -1.4543263145,
				"y": -2.8165761784,
				"z": -2.2703234241,
				"element": "Br" 
			},
			{
				"x": -1.102742808,
				"y": -0.0674133438,
				"z": -1.5977568951,
				"element": "C" 
			},
			{
				"x": -0.3568573606,
				"y": 1.0699333171,
				"z": -1.273562512,
				"element": "C" 
			},
			{
				"x": 1.0293687316,
				"y": 1.0100988732,
				"z": -1.167484941,
				"element": "C" 
			},
			{
				"x": 1.6855826904,
				"y": -0.1975083951,
				"z": -1.4007569678,
				"element": "C" 
			},
			{
				"x": -1.2031989821,
				"y": 2.615300334,
				"z": -0.9770595023,
				"element": "S" 
			},
			{
				"x": -1.4547061583,
				"y": 3.2381204451,
				"z": -2.5351897744,
				"element": "N" 
			},
			{
				"x": -0.2627451698,
				"y": 3.5025048717,
				"z": -0.2844991208,
				"element": "O" 
			},
			{
				"x": -2.5332441345,
				"y": 2.3089376172,
				"z": -0.4431805947,
				"element": "O" 
			},
			{
				"x": 3.1433816973,
				"y": -3.7343684428,
				"z": -2.1244932501,
				"element": "H" 
			},
			{
				"x": 3.2919657399,
				"y": -2.4634320328,
				"z": -0.8808025802,
				"element": "H" 
			},
			{
				"x": 3.4427014974,
				"y": -2.045084386,
				"z": -2.6154781732,
				"element": "H" 
			},
			{
				"x": -2.183645628,
				"y": -0.0194995791,
				"z": -1.6509107039,
				"element": "H" 
			},
			{
				"x": 1.58779713,
				"y": 1.8965956611,
				"z": -0.8891619767,
				"element": "H" 
			},
			{
				"x": 2.7640989389,
				"y": -0.239168515,
				"z": -1.3115012888,
				"element": "H" 
			},
			{
				"x": -2.4420688219,
				"y": 3.4568077666,
				"z": -2.6417952036,
				"element": "H" 
			},
			{
				"x": -0.8780246566,
				"y": 4.0646463437,
				"z": -2.6695508953,
				"element": "H" 
			}
		],
		 "valence_orbital": [ 
			{
				"type": "occ",
				"energy": -0.30637,
				"method": "rhf"
			},
			{
				"type": "occ",
				"energy": -0.29474,
				"method": "rhf"
			},
			{
				"type": "occ",
				"energy": -0.28745,
				"method": "rhf"
			},
			{
				"type": "occ",
				"energy": -0.26333,
				"method": "rhf"
			},
			{
				"type": "occ",
				"energy": -0.24015,
				"method": "rhf"
			},
			{
				"type": "unocc",
				"energy": -0.03347,
				"method": "rhf"
			},
			{
				"type": "unocc",
				"energy": -0.02914,
				"method": "rhf"
			},
			{
				"type": "unocc",
				"energy": -0.00049,
				"method": "rhf"
			},
			{
				"type": "unocc",
				"energy": 0.05846,
				"method": "rhf"
			},
			{
				"type": "unocc",
				"energy": 0.08112,
				"method": "rhf"
			}
		],
		"cosmo_sigma_profile": { 
			"-0.025": 0.0,
			"-0.024": 0.0,
			"-0.023": 0.0,
			"-0.022": 0.0,
			"-0.021": 0.0,
			"-0.02": 0.0,
			"-0.019": 0.0,
			"-0.018": 0.0,
			"-0.017": 0.0,
			"-0.016": 0.0,
			"-0.015": 1.16302828995,
			"-0.014": 2.67164380997,
			"-0.013": 1.7104221386,
			"-0.012": 2.79917969132,
			"-0.011": 2.14379043558,
			"-0.01": 2.0911899983,
			"-0.009": 1.80931060517,
			"-0.008": 4.71373774039,
			"-0.007": 10.1256409958,
			"-0.006": 15.374170666,
			"-0.005": 13.5936712747,
			"-0.004": 15.8645002598,
			"-0.003": 11.3882233526,
			"-0.002": 11.2921437694,
			"-0.001": 10.0489515407,
			"0.0": 16.5272834701,
			"0.001": 20.6110895578,
			"0.002": 15.7555084052,
			"0.003": 11.4920400051,
			"0.004": 13.2940874499,
			"0.005": 7.6605433914,
			"0.006": 5.08981154871,
			"0.007": 5.52594300427,
			"0.008": 5.28746279471,
			"0.009": 6.29484816446,
			"0.01": 8.20341199506,
			"0.011": 9.22357407547,
			"0.012": 3.17453497007,
			"0.013": 0.132989200566,
			"0.014": 0.0,
			"0.015": 0.0,
			"0.016": 0.0,
			"0.017": 0.0,
			"0.018": 0.0,
			"0.019": 0.0,
			"0.02": 0.0,
			"0.021": 0.0,
			"0.022": 0.0,
			"0.023": 0.0,
			"0.024": 0.0,
			"0.025": 0.0
		}
	}
}
