{
	 "smiles": "CC1(O)C(=O)NC2=C1C=CC=C2", 
	 "Tm": 430.15, 
	 "num_atms": 21, 
	 "gaussian": { 
		 "optdone": 1, 
		 "sigma_profile": "yes", 
		 "theory": "DFT", 
		 "functional": "B3LYP", 
		 "basiset": "6-31G**", 
		 "properties": { 
			 "R2extent": 1974.2968, 
			 "electric_dipole_moment_norm": 3.81493075822, 
			 "electric_quadrupole_moment_norm": 7.16953530781, 
			 "total_energy": -553.592041683, 
			 "HOMO_LUMO_gap": 0.19658, 
			 "cosmo_polarized_energy": -15.11, 
			 "cosmo_cavitation_energy": 24.8, 
			 "cosmo_dispersion_energy": -17.94, 
			 "cosmo_repulsion_energy": 1.43, 
			 "cosmo_total_nonelectrostatic_energy": 8.3, 
			 "SMD_solvation_energy": 4.83 
		},
		"coords": [
			{
				"x": 2.7283995124,
				"y": -0.0391010767,
				"z": 0.0736553459,
				"element": "C" 
			},
			{
				"x": 1.3022502525,
				"y": -0.447608384,
				"z": 0.4479497072,
				"element": "C" 
			},
			{
				"x": 1.4342973466,
				"y": -1.4553490533,
				"z": 1.4401748616,
				"element": "O" 
			},
			{
				"x": 0.5397600318,
				"y": 0.8091313114,
				"z": 0.9886947985,
				"element": "C" 
			},
			{
				"x": 0.7998344443,
				"y": 1.4515216332,
				"z": 1.9848023188,
				"element": "O" 
			},
			{
				"x": -0.4934154958,
				"y": 1.0639669851,
				"z": 0.1015842078,
				"element": "N" 
			},
			{
				"x": -0.5878971095,
				"y": 0.0877354974,
				"z": -0.9027228602,
				"element": "C" 
			},
			{
				"x": 0.4451453343,
				"y": -0.8494615788,
				"z": -0.7393740681,
				"element": "C" 
			},
			{
				"x": 0.540189289,
				"y": -1.9335373165,
				"z": -1.5989867676,
				"element": "C" 
			},
			{
				"x": -0.3975710609,
				"y": -2.067571556,
				"z": -2.6335400745,
				"element": "C" 
			},
			{
				"x": -1.410720645,
				"y": -1.1194884112,
				"z": -2.791077463,
				"element": "C" 
			},
			{
				"x": -1.5238965093,
				"y": -0.0238298954,
				"z": -1.9244220195,
				"element": "C" 
			},
			{
				"x": 3.2735338973,
				"y": -0.9134044492,
				"z": -0.2924637831,
				"element": "H" 
			},
			{
				"x": 2.7275361135,
				"y": 0.7294264632,
				"z": -0.7038277973,
				"element": "H" 
			},
			{
				"x": 3.2293804079,
				"y": 0.3509897311,
				"z": 0.9632947008,
				"element": "H" 
			},
			{
				"x": 0.5495454163,
				"y": -1.7465261526,
				"z": 1.6994116146,
				"element": "H" 
			},
			{
				"x": -1.1482220342,
				"y": 1.8191681057,
				"z": 0.2451763762,
				"element": "H" 
			},
			{
				"x": 1.3273829934,
				"y": -2.6702539552,
				"z": -1.4649739654,
				"element": "H" 
			},
			{
				"x": -0.3363321119,
				"y": -2.9110928441,
				"z": -3.3140334667,
				"element": "H" 
			},
			{
				"x": -2.1302766385,
				"y": -1.2309290489,
				"z": -3.5970392331,
				"element": "H" 
			},
			{
				"x": -2.3184234342,
				"y": 0.7061139951,
				"z": -2.0472824328,
				"element": "H" 
			}
		],
		 "valence_orbital": [ 
			{
				"type": "occ",
				"energy": -0.3145,
				"method": "rhf"
			},
			{
				"type": "occ",
				"energy": -0.29767,
				"method": "rhf"
			},
			{
				"type": "occ",
				"energy": -0.26148,
				"method": "rhf"
			},
			{
				"type": "occ",
				"energy": -0.2462,
				"method": "rhf"
			},
			{
				"type": "occ",
				"energy": -0.22343,
				"method": "rhf"
			},
			{
				"type": "unocc",
				"energy": -0.02685,
				"method": "rhf"
			},
			{
				"type": "unocc",
				"energy": -0.00898,
				"method": "rhf"
			},
			{
				"type": "unocc",
				"energy": 0.03029,
				"method": "rhf"
			},
			{
				"type": "unocc",
				"energy": 0.08349,
				"method": "rhf"
			},
			{
				"type": "unocc",
				"energy": 0.09,
				"method": "rhf"
			}
		],
		"cosmo_sigma_profile": { 
			"-0.025": 0.0,
			"-0.024": 0.0,
			"-0.023": 0.0,
			"-0.022": 0.0,
			"-0.021": 0.0,
			"-0.02": 0.0,
			"-0.019": 0.0,
			"-0.018": 0.0,
			"-0.017": 0.206221228948,
			"-0.016": 1.43280491053,
			"-0.015": 2.26726575121,
			"-0.014": 2.04644734219,
			"-0.013": 2.65748897465,
			"-0.012": 1.78605785962,
			"-0.011": 1.7502827651,
			"-0.01": 2.24510633342,
			"-0.009": 1.6322796465,
			"-0.008": 1.49160666449,
			"-0.007": 3.45419974215,
			"-0.006": 7.68622407109,
			"-0.005": 12.741475304,
			"-0.004": 15.9465358584,
			"-0.003": 14.0594973642,
			"-0.002": 12.346440088,
			"-0.001": 14.2430768393,
			"0.0": 13.9002601445,
			"0.001": 11.6598768456,
			"0.002": 10.2433774706,
			"0.003": 8.93633262055,
			"0.004": 9.97392839518,
			"0.005": 10.7079026103,
			"0.006": 5.22843170565,
			"0.007": 2.11440392236,
			"0.008": 1.82057594581,
			"0.009": 3.33625537712,
			"0.01": 2.39361037217,
			"0.011": 3.77979727498,
			"0.012": 7.55867823403,
			"0.013": 6.10517707966,
			"0.014": 0.812824912693,
			"0.015": 0.0,
			"0.016": 0.0,
			"0.017": 0.0,
			"0.018": 0.0,
			"0.019": 0.0,
			"0.02": 0.0,
			"0.021": 0.0,
			"0.022": 0.0,
			"0.023": 0.0,
			"0.024": 0.0,
			"0.025": 0.0
		}
	}
}
