{
	 "smiles": "BrC1=C(Br)C(Br)=C(Br)C(Br)=C1Br", 
	 "Tm": 599.15, 
	 "num_atms": 12, 
	 "gaussian": { 
		 "optdone": 1, 
		 "sigma_profile": "yes", 
		 "theory": "DFT", 
		 "functional": "B3LYP", 
		 "basiset": "6-31G**", 
		 "properties": { 
			 "R2extent": 9891.6176, 
			 "electric_dipole_moment_norm": 0.0, 
			 "electric_quadrupole_moment_norm": 3.89343683524, 
			 "total_energy": -15657.0206738, 
			 "HOMO_LUMO_gap": 0.17418, 
			 "cosmo_polarized_energy": -3.26, 
			 "cosmo_cavitation_energy": 29.36, 
			 "cosmo_dispersion_energy": -24.09, 
			 "cosmo_repulsion_energy": 1.87, 
			 "cosmo_total_nonelectrostatic_energy": 7.14, 
			 "SMD_solvation_energy": -0.84 
		},
		"coords": [
			{
				"x": 2.4575213488,
				"y": 1.1044822527,
				"z": 3.3628403869,
				"element": "Br" 
			},
			{
				"x": 1.4143314812,
				"y": 0.3543424143,
				"z": 1.9720731674,
				"element": "C" 
			},
			{
				"x": 1.6293237882,
				"y": 0.7496942945,
				"z": 0.6415683339,
				"element": "C" 
			},
			{
				"x": 2.9625923682,
				"y": 2.0324151428,
				"z": 0.2388889028,
				"element": "Br" 
			},
			{
				"x": 0.855322374,
				"y": 0.1935562607,
				"z": -0.3901212302,
				"element": "C" 
			},
			{
				"x": 1.1452406113,
				"y": 0.7264035792,
				"z": -2.1837646415,
				"element": "Br" 
			},
			{
				"x": -0.1336665499,
				"y": -0.757951134,
				"z": -0.0912731178,
				"element": "C" 
			},
			{
				"x": -1.1768444011,
				"y": -1.5080802154,
				"z": -1.4820483022,
				"element": "Br" 
			},
			{
				"x": -0.3486549919,
				"y": -1.15329051,
				"z": 1.2392297599,
				"element": "C" 
			},
			{
				"x": -1.6819203531,
				"y": -2.4360138841,
				"z": 1.6419232179,
				"element": "Br" 
			},
			{
				"x": 0.4253456008,
				"y": -0.5971503301,
				"z": 2.2709243725,
				"element": "C" 
			},
			{
				"x": 0.1354087234,
				"y": -1.1300078706,
				"z": 4.0645591505,
				"element": "Br" 
			}
		],
		 "valence_orbital": [ 
			{
				"type": "occ",
				"energy": -0.29206,
				"method": "rhf"
			},
			{
				"type": "occ",
				"energy": -0.29204,
				"method": "rhf"
			},
			{
				"type": "occ",
				"energy": -0.26175,
				"method": "rhf"
			},
			{
				"type": "occ",
				"energy": -0.25784,
				"method": "rhf"
			},
			{
				"type": "occ",
				"energy": -0.25784,
				"method": "rhf"
			},
			{
				"type": "unocc",
				"energy": -0.08366,
				"method": "rhf"
			},
			{
				"type": "unocc",
				"energy": -0.05867,
				"method": "rhf"
			},
			{
				"type": "unocc",
				"energy": -0.05867,
				"method": "rhf"
			},
			{
				"type": "unocc",
				"energy": -0.0202,
				"method": "rhf"
			},
			{
				"type": "unocc",
				"energy": -0.0202,
				"method": "rhf"
			}
		],
		"cosmo_sigma_profile": { 
			"-0.025": 0.0,
			"-0.024": 0.0,
			"-0.023": 0.0,
			"-0.022": 0.0,
			"-0.021": 0.0,
			"-0.02": 0.0,
			"-0.019": 0.0,
			"-0.018": 0.0,
			"-0.017": 0.0,
			"-0.016": 0.0,
			"-0.015": 0.0,
			"-0.014": 0.0,
			"-0.013": 0.0,
			"-0.012": 0.0,
			"-0.011": 0.0,
			"-0.01": 0.0,
			"-0.009": 0.0,
			"-0.008": 0.0,
			"-0.007": 2.37923718207,
			"-0.006": 7.65736624846,
			"-0.005": 9.19092515445,
			"-0.004": 10.327292829,
			"-0.003": 21.7335389193,
			"-0.002": 33.6111006614,
			"-0.001": 20.019395785,
			"0.0": 24.2571182188,
			"0.001": 22.4897836118,
			"0.002": 38.3998648237,
			"0.003": 52.432098179,
			"0.004": 13.122455076,
			"0.005": 0.0,
			"0.006": 0.0,
			"0.007": 0.0,
			"0.008": 0.0,
			"0.009": 0.0,
			"0.01": 0.0,
			"0.011": 0.0,
			"0.012": 0.0,
			"0.013": 0.0,
			"0.014": 0.0,
			"0.015": 0.0,
			"0.016": 0.0,
			"0.017": 0.0,
			"0.018": 0.0,
			"0.019": 0.0,
			"0.02": 0.0,
			"0.021": 0.0,
			"0.022": 0.0,
			"0.023": 0.0,
			"0.024": 0.0,
			"0.025": 0.0
		}
	}
}
