{
	 "smiles": "CC(=O)OC(C1=CC=CC=C1)C(O)(C1=CC=CC=C1)C1=CC=CC=C1", 
	 "Tm": 523.15, 
	 "num_atms": 45, 
	 "gaussian": { 
		 "optdone": 1, 
		 "sigma_profile": "yes", 
		 "theory": "DFT", 
		 "functional": "B3LYP", 
		 "basiset": "6-31G**", 
		 "properties": { 
			 "R2extent": 7889.372, 
			 "electric_dipole_moment_norm": 2.38588569299, 
			 "electric_quadrupole_moment_norm": 11.3715076709, 
			 "total_energy": -1076.07181683, 
			 "HOMO_LUMO_gap": 0.21988, 
			 "cosmo_polarized_energy": -12.24, 
			 "cosmo_cavitation_energy": 46.47, 
			 "cosmo_dispersion_energy": -30.71, 
			 "cosmo_repulsion_energy": 2.35, 
			 "cosmo_total_nonelectrostatic_energy": 18.12, 
			 "SMD_solvation_energy": 8.69 
		},
		"coords": [
			{
				"x": 2.5641407636,
				"y": 1.5360532216,
				"z": -4.5012501019,
				"element": "C" 
			},
			{
				"x": 2.6029814913,
				"y": 1.0268519502,
				"z": -3.0823774668,
				"element": "C" 
			},
			{
				"x": 3.5925497762,
				"y": 1.0186289302,
				"z": -2.373025762,
				"element": "O" 
			},
			{
				"x": 1.3902283275,
				"y": 0.5786874311,
				"z": -2.6988315989,
				"element": "O" 
			},
			{
				"x": 1.2760383878,
				"y": -0.0614195863,
				"z": -1.393825331,
				"element": "C" 
			},
			{
				"x": 0.3974006293,
				"y": -1.2746691384,
				"z": -1.6176665156,
				"element": "C" 
			},
			{
				"x": -0.8692122708,
				"y": -1.1693674449,
				"z": -2.2115126905,
				"element": "C" 
			},
			{
				"x": -1.6308003145,
				"y": -2.3122243605,
				"z": -2.4553075186,
				"element": "C" 
			},
			{
				"x": -1.1401315025,
				"y": -3.5748606628,
				"z": -2.1153890954,
				"element": "C" 
			},
			{
				"x": 0.1256410692,
				"y": -3.6914042213,
				"z": -1.5396265601,
				"element": "C" 
			},
			{
				"x": 0.8900250623,
				"y": -2.5484005489,
				"z": -1.301320026,
				"element": "C" 
			},
			{
				"x": 0.8686577925,
				"y": 1.0412131311,
				"z": -0.3234534073,
				"element": "C" 
			},
			{
				"x": 1.7310199368,
				"y": 2.1540379717,
				"z": -0.5571555723,
				"element": "O" 
			},
			{
				"x": 1.0992248811,
				"y": 0.5154542511,
				"z": 1.1114451936,
				"element": "C" 
			},
			{
				"x": 1.7745173855,
				"y": 1.3408953332,
				"z": 2.0228464629,
				"element": "C" 
			},
			{
				"x": 2.0071371595,
				"y": 0.9269647807,
				"z": 3.3345778897,
				"element": "C" 
			},
			{
				"x": 1.5672474941,
				"y": -0.3238302756,
				"z": 3.7683667357,
				"element": "C" 
			},
			{
				"x": 0.8852999858,
				"y": -1.1509343668,
				"z": 2.8766405796,
				"element": "C" 
			},
			{
				"x": 0.6508712697,
				"y": -0.7360558817,
				"z": 1.5635503905,
				"element": "C" 
			},
			{
				"x": -0.5561281053,
				"y": 1.5808889677,
				"z": -0.5368611735,
				"element": "C" 
			},
			{
				"x": -1.6608448308,
				"y": 1.111153264,
				"z": 0.1848226425,
				"element": "C" 
			},
			{
				"x": -2.9423860317,
				"y": 1.6068412557,
				"z": -0.0645732354,
				"element": "C" 
			},
			{
				"x": -3.1429336606,
				"y": 2.585679847,
				"z": -1.0370668271,
				"element": "C" 
			},
			{
				"x": -2.0471573726,
				"y": 3.0706553348,
				"z": -1.7537293033,
				"element": "C" 
			},
			{
				"x": -0.7672221361,
				"y": 2.5763422233,
				"z": -1.5037880978,
				"element": "C" 
			},
			{
				"x": 1.8834485672,
				"y": 2.3904338747,
				"z": -4.5658107311,
				"element": "H" 
			},
			{
				"x": 2.1799442114,
				"y": 0.7612913432,
				"z": -5.1702897661,
				"element": "H" 
			},
			{
				"x": 3.5652490165,
				"y": 1.8385035969,
				"z": -4.806338852,
				"element": "H" 
			},
			{
				"x": 2.2768573109,
				"y": -0.3950483886,
				"z": -1.1065145798,
				"element": "H" 
			},
			{
				"x": -1.2517777087,
				"y": -0.1955903931,
				"z": -2.4935426808,
				"element": "H" 
			},
			{
				"x": -2.6100808463,
				"y": -2.2151940536,
				"z": -2.9152408134,
				"element": "H" 
			},
			{
				"x": -1.7369174231,
				"y": -4.4621976099,
				"z": -2.3064850798,
				"element": "H" 
			},
			{
				"x": 0.5230649374,
				"y": -4.6694361014,
				"z": -1.2840164152,
				"element": "H" 
			},
			{
				"x": 1.8784067226,
				"y": -2.644122589,
				"z": -0.8595093293,
				"element": "H" 
			},
			{
				"x": 2.6273968528,
				"y": 1.8176914275,
				"z": -0.7228527811,
				"element": "H" 
			},
			{
				"x": 2.1122187189,
				"y": 2.3151940615,
				"z": 1.6913308094,
				"element": "H" 
			},
			{
				"x": 2.5336602082,
				"y": 1.5872986742,
				"z": 4.0182354659,
				"element": "H" 
			},
			{
				"x": 1.7501405239,
				"y": -0.6484024128,
				"z": 4.7887887575,
				"element": "H" 
			},
			{
				"x": 0.5301745475,
				"y": -2.1261256539,
				"z": 3.1984179805,
				"element": "H" 
			},
			{
				"x": 0.1126248229,
				"y": -1.3991126994,
				"z": 0.8985684126,
				"element": "H" 
			},
			{
				"x": -1.5276730393,
				"y": 0.3625746814,
				"z": 0.9564843659,
				"element": "H" 
			},
			{
				"x": -3.7826506479,
				"y": 1.2283105952,
				"z": 0.5107846191,
				"element": "H" 
			},
			{
				"x": -4.1395203251,
				"y": 2.9735491212,
				"z": -1.2285429314,
				"element": "H" 
			},
			{
				"x": -2.1863527717,
				"y": 3.8429986087,
				"z": -2.5053823924,
				"element": "H" 
			},
			{
				"x": 0.0830211345,
				"y": 2.9686025113,
				"z": -2.0463736692,
				"element": "H" 
			}
		],
		 "valence_orbital": [ 
			{
				"type": "occ",
				"energy": -0.25194,
				"method": "rhf"
			},
			{
				"type": "occ",
				"energy": -0.245,
				"method": "rhf"
			},
			{
				"type": "occ",
				"energy": -0.24413,
				"method": "rhf"
			},
			{
				"type": "occ",
				"energy": -0.23951,
				"method": "rhf"
			},
			{
				"type": "occ",
				"energy": -0.23719,
				"method": "rhf"
			},
			{
				"type": "unocc",
				"energy": -0.01731,
				"method": "rhf"
			},
			{
				"type": "unocc",
				"energy": -0.01118,
				"method": "rhf"
			},
			{
				"type": "unocc",
				"energy": -0.00261,
				"method": "rhf"
			},
			{
				"type": "unocc",
				"energy": 0.00111,
				"method": "rhf"
			},
			{
				"type": "unocc",
				"energy": 0.00357,
				"method": "rhf"
			}
		],
		"cosmo_sigma_profile": { 
			"-0.025": 0.0,
			"-0.024": 0.0,
			"-0.023": 0.0,
			"-0.022": 0.0,
			"-0.021": 0.0,
			"-0.02": 0.0,
			"-0.019": 0.0,
			"-0.018": 0.0,
			"-0.017": 0.0,
			"-0.016": 0.0,
			"-0.015": 0.0,
			"-0.014": 0.0,
			"-0.013": 0.0,
			"-0.012": 0.0,
			"-0.011": 0.0,
			"-0.01": 0.0,
			"-0.009": 0.0993856443068,
			"-0.008": 0.833429855815,
			"-0.007": 4.13999431517,
			"-0.006": 19.1243715718,
			"-0.005": 30.1144449618,
			"-0.004": 37.4544427648,
			"-0.003": 38.0206101337,
			"-0.002": 31.7095714773,
			"-0.001": 27.557371438,
			"0.0": 21.116527582,
			"0.001": 22.4397110452,
			"0.002": 23.3778537624,
			"0.003": 26.2422613886,
			"0.004": 28.0399463498,
			"0.005": 27.6065208133,
			"0.006": 15.7154522179,
			"0.007": 2.793912483,
			"0.008": 2.53164486459,
			"0.009": 2.05179577386,
			"0.01": 3.54236129323,
			"0.011": 2.99434576662,
			"0.012": 2.53254782848,
			"0.013": 0.511045145347,
			"0.014": 0.0,
			"0.015": 0.0,
			"0.016": 0.0,
			"0.017": 0.0,
			"0.018": 0.0,
			"0.019": 0.0,
			"0.02": 0.0,
			"0.021": 0.0,
			"0.022": 0.0,
			"0.023": 0.0,
			"0.024": 0.0,
			"0.025": 0.0
		}
	}
}
