{
	 "smiles": "BrCC(=O)NC1=CC(=CC=C1)C#C", 
	 "Tm": 392.15, 
	 "num_atms": 21, 
	 "gaussian": { 
		 "optdone": 1, 
		 "sigma_profile": "yes", 
		 "theory": "DFT", 
		 "functional": "B3LYP", 
		 "basiset": "6-31G**", 
		 "properties": { 
			 "R2extent": 5074.9674, 
			 "electric_dipole_moment_norm": 3.51119870842, 
			 "electric_quadrupole_moment_norm": 14.4845597044, 
			 "total_energy": -3087.20458932, 
			 "HOMO_LUMO_gap": 0.18906, 
			 "cosmo_polarized_energy": -13.14, 
			 "cosmo_cavitation_energy": 28.98, 
			 "cosmo_dispersion_energy": -20.57, 
			 "cosmo_repulsion_energy": 1.62, 
			 "cosmo_total_nonelectrostatic_energy": 10.03, 
			 "SMD_solvation_energy": 5.88 
		},
		"coords": [
			{
				"x": -2.5716467524,
				"y": -0.8933576819,
				"z": 3.0490218569,
				"element": "Br" 
			},
			{
				"x": -2.9618818747,
				"y": -0.7473997544,
				"z": 1.1149933257,
				"element": "C" 
			},
			{
				"x": -3.1694860113,
				"y": 0.7054250094,
				"z": 0.7156005755,
				"element": "C" 
			},
			{
				"x": -4.2508988659,
				"y": 1.2494505071,
				"z": 0.8719993572,
				"element": "O" 
			},
			{
				"x": -2.1249850983,
				"y": 1.3834184569,
				"z": 0.1198048017,
				"element": "N" 
			},
			{
				"x": -0.8090562396,
				"y": 0.9899821091,
				"z": -0.2298513171,
				"element": "C" 
			},
			{
				"x": -0.3127000603,
				"y": 1.3961410944,
				"z": -1.4740377768,
				"element": "C" 
			},
			{
				"x": 0.9983138131,
				"y": 1.0755731328,
				"z": -1.8614281177,
				"element": "C" 
			},
			{
				"x": 1.8086722888,
				"y": 0.3217281009,
				"z": -0.9912452694,
				"element": "C" 
			},
			{
				"x": 1.3093687444,
				"y": -0.0755202111,
				"z": 0.2450952521,
				"element": "C" 
			},
			{
				"x": 0.0156841517,
				"y": 0.2662469089,
				"z": 0.6429213197,
				"element": "C" 
			},
			{
				"x": 1.4946565544,
				"y": 1.5007577372,
				"z": -3.1329347436,
				"element": "C" 
			},
			{
				"x": 1.9174847193,
				"y": 1.8595628499,
				"z": -4.208218115,
				"element": "C" 
			},
			{
				"x": -3.9047849877,
				"y": -1.2693811225,
				"z": 0.9726390657,
				"element": "H" 
			},
			{
				"x": -2.1464615228,
				"y": -1.2475393325,
				"z": 0.5971905025,
				"element": "H" 
			},
			{
				"x": -2.4276902386,
				"y": 2.2902518309,
				"z": -0.2163297204,
				"element": "H" 
			},
			{
				"x": -0.9471291708,
				"y": 1.9576303313,
				"z": -2.152710043,
				"element": "H" 
			},
			{
				"x": 2.8187941719,
				"y": 0.0655763093,
				"z": -1.2913295911,
				"element": "H" 
			},
			{
				"x": 1.9402120037,
				"y": -0.6410096396,
				"z": 0.92423668,
				"element": "H" 
			},
			{
				"x": -0.3404833911,
				"y": -0.004403717,
				"z": 1.6304593939,
				"element": "H" 
			},
			{
				"x": 2.2896177663,
				"y": 2.1756670808,
				"z": -5.1551774368,
				"element": "H" 
			}
		],
		 "valence_orbital": [ 
			{
				"type": "occ",
				"energy": -0.28598,
				"method": "rhf"
			},
			{
				"type": "occ",
				"energy": -0.28421,
				"method": "rhf"
			},
			{
				"type": "occ",
				"energy": -0.26594,
				"method": "rhf"
			},
			{
				"type": "occ",
				"energy": -0.25238,
				"method": "rhf"
			},
			{
				"type": "occ",
				"energy": -0.2381,
				"method": "rhf"
			},
			{
				"type": "unocc",
				"energy": -0.04904,
				"method": "rhf"
			},
			{
				"type": "unocc",
				"energy": -0.04267,
				"method": "rhf"
			},
			{
				"type": "unocc",
				"energy": -0.01824,
				"method": "rhf"
			},
			{
				"type": "unocc",
				"energy": 0.04239,
				"method": "rhf"
			},
			{
				"type": "unocc",
				"energy": 0.04569,
				"method": "rhf"
			}
		],
		"cosmo_sigma_profile": { 
			"-0.025": 0.0,
			"-0.024": 0.0,
			"-0.023": 0.0,
			"-0.022": 0.0,
			"-0.021": 0.0,
			"-0.02": 0.0,
			"-0.019": 0.0,
			"-0.018": 0.0,
			"-0.017": 0.0,
			"-0.016": 0.0168362453168,
			"-0.015": 0.633081752056,
			"-0.014": 1.0291462044,
			"-0.013": 1.26463860036,
			"-0.012": 2.31078157529,
			"-0.011": 2.31904190691,
			"-0.01": 1.9019192535,
			"-0.009": 3.53866149806,
			"-0.008": 6.35158637772,
			"-0.007": 9.11423837557,
			"-0.006": 13.6857812453,
			"-0.005": 11.2874001931,
			"-0.004": 12.2416875501,
			"-0.003": 11.9972747481,
			"-0.002": 12.9764169221,
			"-0.001": 12.719021958,
			"0.0": 14.7060884203,
			"0.001": 15.5128739465,
			"0.002": 21.6856661963,
			"0.003": 21.8983529405,
			"0.004": 16.5951087304,
			"0.005": 15.5000761359,
			"0.006": 10.6682981579,
			"0.007": 2.12125733042,
			"0.008": 0.520616032281,
			"0.009": 1.32638672387,
			"0.01": 1.73261646127,
			"0.011": 2.12388479207,
			"0.012": 4.39369369125,
			"0.013": 4.32170462018,
			"0.014": 0.386795097975,
			"0.015": 0.0,
			"0.016": 0.0,
			"0.017": 0.0,
			"0.018": 0.0,
			"0.019": 0.0,
			"0.02": 0.0,
			"0.021": 0.0,
			"0.022": 0.0,
			"0.023": 0.0,
			"0.024": 0.0,
			"0.025": 0.0
		}
	}
}
