{
	 "smiles": "OCC1=CC2=C(N1)C=C(Br)C=C2", 
	 "Tm": 389.15, 
	 "num_atms": 20, 
	 "gaussian": { 
		 "optdone": 1, 
		 "sigma_profile": "yes", 
		 "theory": "DFT", 
		 "functional": "B3LYP", 
		 "basiset": "6-31G**", 
		 "properties": { 
			 "R2extent": 4320.7645, 
			 "electric_dipole_moment_norm": 2.99917335444, 
			 "electric_quadrupole_moment_norm": 7.34165809814, 
			 "total_energy": -3049.15555553, 
			 "HOMO_LUMO_gap": 0.18547, 
			 "cosmo_polarized_energy": -11.22, 
			 "cosmo_cavitation_energy": 26.44, 
			 "cosmo_dispersion_energy": -20.14, 
			 "cosmo_repulsion_energy": 1.62, 
			 "cosmo_total_nonelectrostatic_energy": 7.92, 
			 "SMD_solvation_energy": 3.0 
		},
		"coords": [
			{
				"x": 3.3092243964,
				"y": -2.1201924916,
				"z": -1.5769348105,
				"element": "O" 
			},
			{
				"x": 3.0549630401,
				"y": -0.8986238499,
				"z": -2.2704322193,
				"element": "C" 
			},
			{
				"x": 2.127569925,
				"y": -0.0018325104,
				"z": -1.5098598769,
				"element": "C" 
			},
			{
				"x": 2.118003172,
				"y": 1.3594517961,
				"z": -1.3300560465,
				"element": "C" 
			},
			{
				"x": 0.9642244795,
				"y": 1.6775877807,
				"z": -0.5358491031,
				"element": "C" 
			},
			{
				"x": 0.3078625416,
				"y": 0.4453397066,
				"z": -0.2516920061,
				"element": "C" 
			},
			{
				"x": 1.0294505084,
				"y": -0.5527783793,
				"z": -0.8686701327,
				"element": "N" 
			},
			{
				"x": -0.8530098479,
				"y": 0.3718740687,
				"z": 0.5251932359,
				"element": "C" 
			},
			{
				"x": -1.352093372,
				"y": 1.5729369084,
				"z": 1.0093336441,
				"element": "C" 
			},
			{
				"x": -2.9429013923,
				"y": 1.5467778785,
				"z": 2.0772223583,
				"element": "Br" 
			},
			{
				"x": -0.7379844597,
				"y": 2.8118020257,
				"z": 0.7464519806,
				"element": "C" 
			},
			{
				"x": 0.4168095919,
				"y": 2.8658601285,
				"z": -0.0232899164,
				"element": "C" 
			},
			{
				"x": 3.762657716,
				"y": -1.8966078654,
				"z": -0.7526193665,
				"element": "H" 
			},
			{
				"x": 3.9778623544,
				"y": -0.3522757689,
				"z": -2.5092075167,
				"element": "H" 
			},
			{
				"x": 2.6046256586,
				"y": -1.2061863957,
				"z": -3.2219619745,
				"element": "H" 
			},
			{
				"x": 2.8460321586,
				"y": 2.0540018021,
				"z": -1.7257634134,
				"element": "H" 
			},
			{
				"x": 0.8827756019,
				"y": -1.5466824977,
				"z": -0.7841476545,
				"element": "H" 
			},
			{
				"x": -1.3464905897,
				"y": -0.569213328,
				"z": 0.7396717642,
				"element": "H" 
			},
			{
				"x": -1.1742074677,
				"y": 3.7180048031,
				"z": 1.1499197159,
				"element": "H" 
			},
			{
				"x": 0.8896259851,
				"y": 3.8231561885,
				"z": -0.2231086618,
				"element": "H" 
			}
		],
		 "valence_orbital": [ 
			{
				"type": "occ",
				"energy": -0.29357,
				"method": "rhf"
			},
			{
				"type": "occ",
				"energy": -0.2789,
				"method": "rhf"
			},
			{
				"type": "occ",
				"energy": -0.27084,
				"method": "rhf"
			},
			{
				"type": "occ",
				"energy": -0.22602,
				"method": "rhf"
			},
			{
				"type": "occ",
				"energy": -0.20706,
				"method": "rhf"
			},
			{
				"type": "unocc",
				"energy": -0.02159,
				"method": "rhf"
			},
			{
				"type": "unocc",
				"energy": 0.01457,
				"method": "rhf"
			},
			{
				"type": "unocc",
				"energy": 0.01668,
				"method": "rhf"
			},
			{
				"type": "unocc",
				"energy": 0.04851,
				"method": "rhf"
			},
			{
				"type": "unocc",
				"energy": 0.07273,
				"method": "rhf"
			}
		],
		"cosmo_sigma_profile": { 
			"-0.025": 0.0,
			"-0.024": 0.0,
			"-0.023": 0.0,
			"-0.022": 0.0,
			"-0.021": 0.0,
			"-0.02": 0.0,
			"-0.019": 0.0,
			"-0.018": 0.0,
			"-0.017": 0.0,
			"-0.016": 0.645138561345,
			"-0.015": 1.42672819463,
			"-0.014": 2.28550400643,
			"-0.013": 1.47619695481,
			"-0.012": 1.81529518866,
			"-0.011": 1.85317100998,
			"-0.01": 1.84129041289,
			"-0.009": 1.77683064371,
			"-0.008": 2.58053415065,
			"-0.007": 3.45202048441,
			"-0.006": 9.62317966059,
			"-0.005": 14.515012842,
			"-0.004": 14.4640046917,
			"-0.003": 15.2878426141,
			"-0.002": 11.5756102716,
			"-0.001": 10.0910871457,
			"0.0": 9.66960141838,
			"0.001": 10.3361895059,
			"0.002": 12.3703761512,
			"0.003": 18.4718985872,
			"0.004": 24.8501421134,
			"0.005": 26.2779049072,
			"0.006": 8.32995040434,
			"0.007": 0.881068885775,
			"0.008": 1.08789716828,
			"0.009": 0.864308783661,
			"0.01": 1.0952507262,
			"0.011": 1.16337088008,
			"0.012": 1.35579021481,
			"0.013": 1.6435761127,
			"0.014": 1.00190666069,
			"0.015": 0.0,
			"0.016": 0.0,
			"0.017": 0.0,
			"0.018": 0.0,
			"0.019": 0.0,
			"0.02": 0.0,
			"0.021": 0.0,
			"0.022": 0.0,
			"0.023": 0.0,
			"0.024": 0.0,
			"0.025": 0.0
		}
	}
}
