{
	 "smiles": "COC1=CC(Cl)=CC=C1[N+]([O-])=O", 
	 "Tm": 344.15, 
	 "num_atms": 18, 
	 "gaussian": { 
		 "optdone": 1, 
		 "sigma_profile": "yes", 
		 "theory": "DFT", 
		 "functional": "B3LYP", 
		 "basiset": "6-31G**", 
		 "properties": { 
			 "R2extent": 2800.2169, 
			 "electric_dipole_moment_norm": 4.10473811832, 
			 "electric_quadrupole_moment_norm": 19.1119864522, 
			 "total_energy": -1010.8531272, 
			 "HOMO_LUMO_gap": 0.17016, 
			 "cosmo_polarized_energy": -11.13, 
			 "cosmo_cavitation_energy": 24.91, 
			 "cosmo_dispersion_energy": -18.45, 
			 "cosmo_repulsion_energy": 1.48, 
			 "cosmo_total_nonelectrostatic_energy": 7.94, 
			 "SMD_solvation_energy": 7.15 
		},
		"coords": [
			{
				"x": -2.2566161599,
				"y": -0.8039080052,
				"z": -0.8571769157,
				"element": "C" 
			},
			{
				"x": -1.2446317334,
				"y": 0.0902768769,
				"z": -1.3120102048,
				"element": "O" 
			},
			{
				"x": -0.0788586831,
				"y": 0.153775836,
				"z": -0.6455093644,
				"element": "C" 
			},
			{
				"x": 0.1930727542,
				"y": -0.6142307935,
				"z": 0.4986799482,
				"element": "C" 
			},
			{
				"x": 1.4335178281,
				"y": -0.5239080186,
				"z": 1.1249819433,
				"element": "C" 
			},
			{
				"x": 1.7230608571,
				"y": -1.4925285738,
				"z": 2.555970767,
				"element": "Cl" 
			},
			{
				"x": 2.4461395624,
				"y": 0.3055641278,
				"z": 0.6447329689,
				"element": "C" 
			},
			{
				"x": 2.1864863696,
				"y": 1.0594149748,
				"z": -0.4926887992,
				"element": "C" 
			},
			{
				"x": 0.9469728287,
				"y": 1.003869952,
				"z": -1.1284536353,
				"element": "C" 
			},
			{
				"x": 0.7668209282,
				"y": 1.8658456938,
				"z": -2.3025576757,
				"element": "N" 
			},
			{
				"x": 1.7911995124,
				"y": 2.241221098,
				"z": -2.8797964884,
				"element": "O" 
			},
			{
				"x": -0.3731957533,
				"y": 2.1826336098,
				"z": -2.6290996021,
				"element": "O" 
			},
			{
				"x": -3.0839211987,
				"y": -0.682609078,
				"z": -1.5561024566,
				"element": "H" 
			},
			{
				"x": -1.9110437308,
				"y": -1.8442401036,
				"z": -0.875886206,
				"element": "H" 
			},
			{
				"x": -2.5935104788,
				"y": -0.5455566606,
				"z": 0.1534532253,
				"element": "H" 
			},
			{
				"x": -0.5541405432,
				"y": -1.2829507801,
				"z": 0.9024967128,
				"element": "H" 
			},
			{
				"x": 3.404668928,
				"y": 0.3587321941,
				"z": 1.1457735919,
				"element": "H" 
			},
			{
				"x": 2.9408787125,
				"y": 1.71159765,
				"z": -0.9148078091,
				"element": "H" 
			}
		],
		 "valence_orbital": [ 
			{
				"type": "occ",
				"energy": -0.30247,
				"method": "rhf"
			},
			{
				"type": "occ",
				"energy": -0.30026,
				"method": "rhf"
			},
			{
				"type": "occ",
				"energy": -0.28701,
				"method": "rhf"
			},
			{
				"type": "occ",
				"energy": -0.27331,
				"method": "rhf"
			},
			{
				"type": "occ",
				"energy": -0.25451,
				"method": "rhf"
			},
			{
				"type": "unocc",
				"energy": -0.08435,
				"method": "rhf"
			},
			{
				"type": "unocc",
				"energy": -0.02577,
				"method": "rhf"
			},
			{
				"type": "unocc",
				"energy": -0.00953,
				"method": "rhf"
			},
			{
				"type": "unocc",
				"energy": 0.0106,
				"method": "rhf"
			},
			{
				"type": "unocc",
				"energy": 0.07929,
				"method": "rhf"
			}
		],
		"cosmo_sigma_profile": { 
			"-0.025": 0.0,
			"-0.024": 0.0,
			"-0.023": 0.0,
			"-0.022": 0.0,
			"-0.021": 0.0,
			"-0.02": 0.0,
			"-0.019": 0.0,
			"-0.018": 0.0,
			"-0.017": 0.0,
			"-0.016": 0.0,
			"-0.015": 0.0,
			"-0.014": 0.0,
			"-0.013": 0.0,
			"-0.012": 0.0,
			"-0.011": 0.0,
			"-0.01": 0.0167390056844,
			"-0.009": 1.78493177695,
			"-0.008": 5.02038310455,
			"-0.007": 11.0186917966,
			"-0.006": 13.9996868967,
			"-0.005": 12.6629511917,
			"-0.004": 13.769777387,
			"-0.003": 10.7731963431,
			"-0.002": 11.4445450466,
			"-0.001": 16.4812690987,
			"0.0": 19.664440539,
			"0.001": 17.3230459416,
			"0.002": 10.2143291293,
			"0.003": 11.6938323663,
			"0.004": 9.79117126501,
			"0.005": 2.95214688873,
			"0.006": 3.39481435248,
			"0.007": 5.71518454955,
			"0.008": 9.77147419703,
			"0.009": 7.37388526197,
			"0.01": 4.75826585754,
			"0.011": 1.87155168903,
			"0.012": 0.614822792269,
			"0.013": 0.0138130055539,
			"0.014": 0.0,
			"0.015": 0.0,
			"0.016": 0.0,
			"0.017": 0.0,
			"0.018": 0.0,
			"0.019": 0.0,
			"0.02": 0.0,
			"0.021": 0.0,
			"0.022": 0.0,
			"0.023": 0.0,
			"0.024": 0.0,
			"0.025": 0.0
		}
	}
}
