{
	 "smiles": "OC(=O)C1=CC(=CN1)S(=O)(=O)N1CCSCC1", 
	 "Tm": 512.15, 
	 "num_atms": 29, 
	 "gaussian": { 
		 "optdone": 1, 
		 "sigma_profile": "yes", 
		 "theory": "DFT", 
		 "functional": "B3LYP", 
		 "basiset": "6-31G**", 
		 "properties": { 
			 "R2extent": 6239.5812, 
			 "electric_dipole_moment_norm": 5.16729916784, 
			 "electric_quadrupole_moment_norm": 18.1556384641, 
			 "total_energy": -1556.90123568, 
			 "HOMO_LUMO_gap": 0.17747, 
			 "cosmo_polarized_energy": -23.61, 
			 "cosmo_cavitation_energy": 35.48, 
			 "cosmo_dispersion_energy": -26.01, 
			 "cosmo_repulsion_energy": 1.94, 
			 "cosmo_total_nonelectrostatic_energy": 11.41, 
			 "SMD_solvation_energy": 5.02 
		},
		"coords": [
			{
				"x": 0.3050574605,
				"y": 4.7418121243,
				"z": -0.1414150803,
				"element": "O" 
			},
			{
				"x": -0.3137811451,
				"y": 3.7932272175,
				"z": -0.9030393785,
				"element": "C" 
			},
			{
				"x": -0.809901115,
				"y": 4.032062494,
				"z": -1.9833966301,
				"element": "O" 
			},
			{
				"x": -0.2913309725,
				"y": 2.4874660914,
				"z": -0.2493880194,
				"element": "C" 
			},
			{
				"x": -0.8113764157,
				"y": 1.2816995407,
				"z": -0.6828024711,
				"element": "C" 
			},
			{
				"x": -0.5068864536,
				"y": 0.3309243051,
				"z": 0.3219395459,
				"element": "C" 
			},
			{
				"x": 0.1790686105,
				"y": 0.9769933692,
				"z": 1.3433974697,
				"element": "C" 
			},
			{
				"x": 0.3033654957,
				"y": 2.277995863,
				"z": 0.9842298102,
				"element": "N" 
			},
			{
				"x": -0.9912532206,
				"y": -1.3633689652,
				"z": 0.4021039091,
				"element": "S" 
			},
			{
				"x": -0.3577205474,
				"y": -1.9181707328,
				"z": 1.6079133195,
				"element": "O" 
			},
			{
				"x": -2.4397551083,
				"y": -1.4747522224,
				"z": 0.211100674,
				"element": "O" 
			},
			{
				"x": -0.2801690181,
				"y": -1.9810108188,
				"z": -1.0169377942,
				"element": "N" 
			},
			{
				"x": 1.1818912259,
				"y": -2.1578927781,
				"z": -0.9274101708,
				"element": "C" 
			},
			{
				"x": 1.799104266,
				"y": -2.206509029,
				"z": -2.325106769,
				"element": "C" 
			},
			{
				"x": 1.1758207719,
				"y": -3.6108786802,
				"z": -3.3244836642,
				"element": "S" 
			},
			{
				"x": -0.6105253798,
				"y": -3.2611728125,
				"z": -3.0955665228,
				"element": "C" 
			},
			{
				"x": -0.9991404547,
				"y": -3.1208413333,
				"z": -1.6250295785,
				"element": "C" 
			},
			{
				"x": 0.2439174203,
				"y": 5.5722091526,
				"z": -0.6411928373,
				"element": "H" 
			},
			{
				"x": -1.3404459497,
				"y": 1.1172837531,
				"z": -1.6088147488,
				"element": "H" 
			},
			{
				"x": 0.5604319565,
				"y": 0.5805968132,
				"z": 2.2717300233,
				"element": "H" 
			},
			{
				"x": 0.7540271748,
				"y": 3.0075423361,
				"z": 1.5166920775,
				"element": "H" 
			},
			{
				"x": 1.4357729189,
				"y": -3.0651341125,
				"z": -0.3627047384,
				"element": "H" 
			},
			{
				"x": 1.5965566508,
				"y": -1.2990931083,
				"z": -0.3900826347,
				"element": "H" 
			},
			{
				"x": 1.6066867752,
				"y": -1.2671846187,
				"z": -2.8530798598,
				"element": "H" 
			},
			{
				"x": 2.8810402267,
				"y": -2.3445170042,
				"z": -2.2475196583,
				"element": "H" 
			},
			{
				"x": -1.1446446287,
				"y": -4.1054264728,
				"z": -3.5399557531,
				"element": "H" 
			},
			{
				"x": -0.8791460961,
				"y": -2.3535879381,
				"z": -3.6450373252,
				"element": "H" 
			},
			{
				"x": -0.7812629222,
				"y": -4.0564434886,
				"z": -1.0897506631,
				"element": "H" 
			},
			{
				"x": -2.0685015264,
				"y": -2.9164289448,
				"z": -1.5449925313,
				"element": "H" 
			}
		],
		 "valence_orbital": [ 
			{
				"type": "occ",
				"energy": -0.29396,
				"method": "rhf"
			},
			{
				"type": "occ",
				"energy": -0.28768,
				"method": "rhf"
			},
			{
				"type": "occ",
				"energy": -0.26035,
				"method": "rhf"
			},
			{
				"type": "occ",
				"energy": -0.25292,
				"method": "rhf"
			},
			{
				"type": "occ",
				"energy": -0.22809,
				"method": "rhf"
			},
			{
				"type": "unocc",
				"energy": -0.05062,
				"method": "rhf"
			},
			{
				"type": "unocc",
				"energy": -0.00347,
				"method": "rhf"
			},
			{
				"type": "unocc",
				"energy": 0.03065,
				"method": "rhf"
			},
			{
				"type": "unocc",
				"energy": 0.04564,
				"method": "rhf"
			},
			{
				"type": "unocc",
				"energy": 0.06526,
				"method": "rhf"
			}
		],
		"cosmo_sigma_profile": { 
			"-0.025": 0.0,
			"-0.024": 0.0,
			"-0.023": 0.0,
			"-0.022": 0.0,
			"-0.021": 0.0,
			"-0.02": 0.0,
			"-0.019": 0.359243269048,
			"-0.018": 0.858603417018,
			"-0.017": 1.8295707968,
			"-0.016": 2.08519877165,
			"-0.015": 1.3944966517,
			"-0.014": 1.69829410734,
			"-0.013": 1.52490718955,
			"-0.012": 1.72394932628,
			"-0.011": 2.86950827755,
			"-0.01": 2.63778905568,
			"-0.009": 2.57663038334,
			"-0.008": 3.77515263208,
			"-0.007": 7.53893406094,
			"-0.006": 11.4966898468,
			"-0.005": 20.1779122165,
			"-0.004": 25.1634170215,
			"-0.003": 23.4195366991,
			"-0.002": 19.1228162374,
			"-0.001": 16.6838895252,
			"0.0": 15.0761534894,
			"0.001": 14.8612030503,
			"0.002": 15.0201280889,
			"0.003": 11.1056589545,
			"0.004": 8.04306649622,
			"0.005": 11.1480758452,
			"0.006": 8.3622361246,
			"0.007": 6.16363666262,
			"0.008": 6.58200822324,
			"0.009": 7.1356652691,
			"0.01": 10.5000467283,
			"0.011": 14.1946863095,
			"0.012": 7.7121078154,
			"0.013": 0.122616316318,
			"0.014": 0.0,
			"0.015": 0.0,
			"0.016": 0.0,
			"0.017": 0.0,
			"0.018": 0.0,
			"0.019": 0.0,
			"0.02": 0.0,
			"0.021": 0.0,
			"0.022": 0.0,
			"0.023": 0.0,
			"0.024": 0.0,
			"0.025": 0.0
		}
	}
}
