{
	 "smiles": "NS(=O)(=O)CC(F)(F)F", 
	 "Tm": 371.15, 
	 "num_atms": 13, 
	 "gaussian": { 
		 "optdone": 1, 
		 "sigma_profile": "yes", 
		 "theory": "DFT", 
		 "functional": "B3LYP", 
		 "basiset": "6-31G**", 
		 "properties": { 
			 "R2extent": 2239.8243, 
			 "electric_dipole_moment_norm": 4.46911524689, 
			 "electric_quadrupole_moment_norm": 16.6325414964, 
			 "total_energy": -981.463218089, 
			 "HOMO_LUMO_gap": 0.34456, 
			 "cosmo_polarized_energy": -16.19, 
			 "cosmo_cavitation_energy": 19.92, 
			 "cosmo_dispersion_energy": -14.94, 
			 "cosmo_repulsion_energy": 1.14, 
			 "cosmo_total_nonelectrostatic_energy": 6.12, 
			 "SMD_solvation_energy": 4.25 
		},
		"coords": [
			{
				"x": 2.731663856,
				"y": 2.3122877187,
				"z": -0.1291394632,
				"element": "N" 
			},
			{
				"x": 1.2641513755,
				"y": 2.4031984019,
				"z": 0.7068016197,
				"element": "S" 
			},
			{
				"x": 1.5651254737,
				"y": 2.5373421095,
				"z": 2.1305450873,
				"element": "O" 
			},
			{
				"x": 0.396281385,
				"y": 3.3366066215,
				"z": -0.0081634229,
				"element": "O" 
			},
			{
				"x": 0.6470403148,
				"y": 0.7141605215,
				"z": 0.4127966698,
				"element": "C" 
			},
			{
				"x": -0.7068564046,
				"y": 0.4275129701,
				"z": 1.0446322252,
				"element": "C" 
			},
			{
				"x": -1.0565434043,
				"y": -0.8467210051,
				"z": 0.7601585655,
				"element": "F" 
			},
			{
				"x": -0.6765780741,
				"y": 0.5577517905,
				"z": 2.379964962,
				"element": "F" 
			},
			{
				"x": -1.6664690598,
				"y": 1.2343357731,
				"z": 0.5659071962,
				"element": "F" 
			},
			{
				"x": 3.5019967222,
				"y": 2.4674084329,
				"z": 0.5161223863,
				"element": "H" 
			},
			{
				"x": 2.7357289953,
				"y": 2.9911702103,
				"z": -0.8860666669,
				"element": "H" 
			},
			{
				"x": 1.387229402,
				"y": 0.024688162,
				"z": 0.8209109344,
				"element": "H" 
			},
			{
				"x": 0.5749294184,
				"y": 0.5805582933,
				"z": -0.6673700934,
				"element": "H" 
			}
		],
		 "valence_orbital": [ 
			{
				"type": "occ",
				"energy": -0.37013,
				"method": "rhf"
			},
			{
				"type": "occ",
				"energy": -0.33298,
				"method": "rhf"
			},
			{
				"type": "occ",
				"energy": -0.33245,
				"method": "rhf"
			},
			{
				"type": "occ",
				"energy": -0.31912,
				"method": "rhf"
			},
			{
				"type": "occ",
				"energy": -0.31037,
				"method": "rhf"
			},
			{
				"type": "unocc",
				"energy": 0.03419,
				"method": "rhf"
			},
			{
				"type": "unocc",
				"energy": 0.05115,
				"method": "rhf"
			},
			{
				"type": "unocc",
				"energy": 0.06464,
				"method": "rhf"
			},
			{
				"type": "unocc",
				"energy": 0.07483,
				"method": "rhf"
			},
			{
				"type": "unocc",
				"energy": 0.08654,
				"method": "rhf"
			}
		],
		"cosmo_sigma_profile": { 
			"-0.025": 0.0,
			"-0.024": 0.0,
			"-0.023": 0.0,
			"-0.022": 0.0,
			"-0.021": 0.0,
			"-0.02": 0.0,
			"-0.019": 0.0,
			"-0.018": 0.0,
			"-0.017": 0.0,
			"-0.016": 0.132103366039,
			"-0.015": 2.33575862497,
			"-0.014": 2.32299213536,
			"-0.013": 2.49496637839,
			"-0.012": 3.26244227364,
			"-0.011": 6.03575972458,
			"-0.01": 4.99852225831,
			"-0.009": 4.9553226625,
			"-0.008": 5.61749055845,
			"-0.007": 4.26553172224,
			"-0.006": 4.73860525336,
			"-0.005": 3.91810490582,
			"-0.004": 2.75244359486,
			"-0.003": 3.07797257676,
			"-0.002": 4.00729867095,
			"-0.001": 5.24836736946,
			"0.0": 6.03899307029,
			"0.001": 9.42166948728,
			"0.002": 27.3434775444,
			"0.003": 11.8380296187,
			"0.004": 3.31969035156,
			"0.005": 3.20126889795,
			"0.006": 4.65457220807,
			"0.007": 4.05555532862,
			"0.008": 4.11604921466,
			"0.009": 5.53637525712,
			"0.01": 12.1495572853,
			"0.011": 6.00674994614,
			"0.012": 0.180432694237,
			"0.013": 0.0,
			"0.014": 0.0,
			"0.015": 0.0,
			"0.016": 0.0,
			"0.017": 0.0,
			"0.018": 0.0,
			"0.019": 0.0,
			"0.02": 0.0,
			"0.021": 0.0,
			"0.022": 0.0,
			"0.023": 0.0,
			"0.024": 0.0,
			"0.025": 0.0
		}
	}
}
