{
	 "smiles": "OC(=O)C1=CC=C(COC2=CC(Br)=CC=C2)O1", 
	 "Tm": 445.15, 
	 "num_atms": 26, 
	 "gaussian": { 
		 "optdone": 1, 
		 "sigma_profile": "yes", 
		 "theory": "DFT", 
		 "functional": "B3LYP", 
		 "basiset": "6-31G**", 
		 "properties": { 
			 "R2extent": 9930.0259, 
			 "electric_dipole_moment_norm": 3.82441348314, 
			 "electric_quadrupole_moment_norm": 37.5338069453, 
			 "total_energy": -3334.9742032, 
			 "HOMO_LUMO_gap": 0.17832, 
			 "cosmo_polarized_energy": -16.52, 
			 "cosmo_cavitation_energy": 34.74, 
			 "cosmo_dispersion_energy": -25.5, 
			 "cosmo_repulsion_energy": 2.01, 
			 "cosmo_total_nonelectrostatic_energy": 11.25, 
			 "SMD_solvation_energy": 6.64 
		},
		"coords": [
			{
				"x": -1.1321028818,
				"y": -2.0098067553,
				"z": 5.1741950363,
				"element": "O" 
			},
			{
				"x": -1.9732906177,
				"y": -2.8762939543,
				"z": 4.5609322424,
				"element": "C" 
			},
			{
				"x": -2.8321833621,
				"y": -3.4717931302,
				"z": 5.1683386597,
				"element": "O" 
			},
			{
				"x": -1.7696867527,
				"y": -3.041384453,
				"z": 3.1108457899,
				"element": "C" 
			},
			{
				"x": -2.4309108283,
				"y": -3.7909991049,
				"z": 2.1792707004,
				"element": "C" 
			},
			{
				"x": -1.786674531,
				"y": -3.5366367404,
				"z": 0.9329031239,
				"element": "C" 
			},
			{
				"x": -0.7740634885,
				"y": -2.652248434,
				"z": 1.1845095747,
				"element": "C" 
			},
			{
				"x": 0.2524682164,
				"y": -2.0124739593,
				"z": 0.321924885,
				"element": "C" 
			},
			{
				"x": -0.0573603261,
				"y": -0.6233414241,
				"z": 0.1965334684,
				"element": "O" 
			},
			{
				"x": 0.7861695293,
				"y": 0.1644804264,
				"z": -0.5356728028,
				"element": "C" 
			},
			{
				"x": 1.9195991343,
				"y": -0.3080368621,
				"z": -1.2072213043,
				"element": "C" 
			},
			{
				"x": 2.6988301056,
				"y": 0.6028935451,
				"z": -1.9244214385,
				"element": "C" 
			},
			{
				"x": 4.2475562233,
				"y": -0.0482094064,
				"z": -2.8403256227,
				"element": "Br" 
			},
			{
				"x": 2.3850451984,
				"y": 1.9547042618,
				"z": -1.9924975971,
				"element": "C" 
			},
			{
				"x": 1.2458976384,
				"y": 2.4033087239,
				"z": -1.3141446097,
				"element": "C" 
			},
			{
				"x": 0.4490322805,
				"y": 1.525107061,
				"z": -0.590788639,
				"element": "C" 
			},
			{
				"x": -0.7495765504,
				"y": -2.3425633239,
				"z": 2.5144314838,
				"element": "O" 
			},
			{
				"x": -0.5242955671,
				"y": -1.6238314857,
				"z": 4.5239291168,
				"element": "H" 
			},
			{
				"x": -3.2733348131,
				"y": -4.4362213262,
				"z": 2.3779312462,
				"element": "H" 
			},
			{
				"x": -2.0402403768,
				"y": -3.9513719037,
				"z": -0.0322349487,
				"element": "H" 
			},
			{
				"x": 0.246646829,
				"y": -2.5043362603,
				"z": -0.6589826088,
				"element": "H" 
			},
			{
				"x": 1.2517478214,
				"y": -2.1345082056,
				"z": 0.7626290509,
				"element": "H" 
			},
			{
				"x": 2.2048316179,
				"y": -1.3510236779,
				"z": -1.1873998592,
				"element": "H" 
			},
			{
				"x": 3.0078187394,
				"y": 2.6382354877,
				"z": -2.5564861636,
				"element": "H" 
			},
			{
				"x": 0.982158686,
				"y": 3.4559428169,
				"z": -1.3543840243,
				"element": "H" 
			},
			{
				"x": -0.4351819244,
				"y": 1.8631080847,
				"z": -0.0616147596,
				"element": "H" 
			}
		],
		 "valence_orbital": [ 
			{
				"type": "occ",
				"energy": -0.29276,
				"method": "rhf"
			},
			{
				"type": "occ",
				"energy": -0.2816,
				"method": "rhf"
			},
			{
				"type": "occ",
				"energy": -0.25872,
				"method": "rhf"
			},
			{
				"type": "occ",
				"energy": -0.25803,
				"method": "rhf"
			},
			{
				"type": "occ",
				"energy": -0.23705,
				"method": "rhf"
			},
			{
				"type": "unocc",
				"energy": -0.05873,
				"method": "rhf"
			},
			{
				"type": "unocc",
				"energy": -0.02232,
				"method": "rhf"
			},
			{
				"type": "unocc",
				"energy": -0.00854,
				"method": "rhf"
			},
			{
				"type": "unocc",
				"energy": -0.00044,
				"method": "rhf"
			},
			{
				"type": "unocc",
				"energy": 0.01534,
				"method": "rhf"
			}
		],
		"cosmo_sigma_profile": { 
			"-0.025": 0.0,
			"-0.024": 0.0,
			"-0.023": 0.0,
			"-0.022": 0.0,
			"-0.021": 0.0,
			"-0.02": 0.0,
			"-0.019": 0.0,
			"-0.018": 0.0,
			"-0.017": 0.365133258278,
			"-0.016": 0.788085007794,
			"-0.015": 0.567381607419,
			"-0.014": 0.547459369516,
			"-0.013": 0.538329002649,
			"-0.012": 0.979725611475,
			"-0.011": 1.03199102047,
			"-0.01": 1.00388399263,
			"-0.009": 3.11878480265,
			"-0.008": 11.0123470691,
			"-0.007": 14.6360583687,
			"-0.006": 15.9432342307,
			"-0.005": 14.9087560322,
			"-0.004": 15.2810151327,
			"-0.003": 13.5782034911,
			"-0.002": 14.6154088732,
			"-0.001": 15.9660480865,
			"0.0": 18.0531835254,
			"0.001": 19.9757335701,
			"0.002": 25.0824034339,
			"0.003": 25.7922583976,
			"0.004": 24.0754559567,
			"0.005": 11.6872011614,
			"0.006": 4.5140245962,
			"0.007": 3.62058469058,
			"0.008": 4.15798627875,
			"0.009": 4.24458084781,
			"0.01": 4.96964429565,
			"0.011": 5.12533491058,
			"0.012": 4.98467829982,
			"0.013": 1.26192705741,
			"0.014": 0.0,
			"0.015": 0.0,
			"0.016": 0.0,
			"0.017": 0.0,
			"0.018": 0.0,
			"0.019": 0.0,
			"0.02": 0.0,
			"0.021": 0.0,
			"0.022": 0.0,
			"0.023": 0.0,
			"0.024": 0.0,
			"0.025": 0.0
		}
	}
}
