{
	 "smiles": "OC(=O)CSC1=C(Cl)C=CC(Cl)=C1", 
	 "Tm": 403.15, 
	 "num_atms": 19, 
	 "gaussian": { 
		 "optdone": 1, 
		 "sigma_profile": "yes", 
		 "theory": "DFT", 
		 "functional": "B3LYP", 
		 "basiset": "6-31G**", 
		 "properties": { 
			 "R2extent": 3776.7337, 
			 "electric_dipole_moment_norm": 0.596621789746, 
			 "electric_quadrupole_moment_norm": 12.9475058672, 
			 "total_energy": -1777.49027002, 
			 "HOMO_LUMO_gap": 0.19491, 
			 "cosmo_polarized_energy": -12.2, 
			 "cosmo_cavitation_energy": 29.4, 
			 "cosmo_dispersion_energy": -20.98, 
			 "cosmo_repulsion_energy": 1.64, 
			 "cosmo_total_nonelectrostatic_energy": 10.06, 
			 "SMD_solvation_energy": 5.17 
		},
		"coords": [
			{
				"x": -2.6855739607,
				"y": 0.654504439,
				"z": 2.3736326657,
				"element": "O" 
			},
			{
				"x": -2.0365024415,
				"y": 0.9476441398,
				"z": 1.2258297754,
				"element": "C" 
			},
			{
				"x": -1.1468651608,
				"y": 1.7654674117,
				"z": 1.15114485,
				"element": "O" 
			},
			{
				"x": -2.5398355799,
				"y": 0.1178543471,
				"z": 0.0654822848,
				"element": "C" 
			},
			{
				"x": -1.7084442263,
				"y": -1.5304225315,
				"z": -0.0257864607,
				"element": "S" 
			},
			{
				"x": -0.0488332894,
				"y": -1.050680358,
				"z": -0.5063308031,
				"element": "C" 
			},
			{
				"x": 1.0193311108,
				"y": -0.9724598337,
				"z": 0.4046694968,
				"element": "C" 
			},
			{
				"x": 0.8008902221,
				"y": -1.3010131103,
				"z": 2.1096027439,
				"element": "Cl" 
			},
			{
				"x": 2.3018365144,
				"y": -0.6320163007,
				"z": -0.0318831219,
				"element": "C" 
			},
			{
				"x": 2.5416421283,
				"y": -0.3632034304,
				"z": -1.3762813911,
				"element": "C" 
			},
			{
				"x": 1.4869062336,
				"y": -0.4464797217,
				"z": -2.2844227845,
				"element": "C" 
			},
			{
				"x": 1.7765614034,
				"y": -0.1235341765,
				"z": -3.9844305151,
				"element": "Cl" 
			},
			{
				"x": 0.207552374,
				"y": -0.7938879439,
				"z": -1.8616417275,
				"element": "C" 
			},
			{
				"x": -2.262547328,
				"y": 1.1844295518,
				"z": 3.0700949345,
				"element": "H" 
			},
			{
				"x": -2.3747235766,
				"y": 0.6648742118,
				"z": -0.8631450806,
				"element": "H" 
			},
			{
				"x": -3.600558038,
				"y": -0.1144234688,
				"z": 0.1829807144,
				"element": "H" 
			},
			{
				"x": 3.1108452984,
				"y": -0.5740329318,
				"z": 0.6873989505,
				"element": "H" 
			},
			{
				"x": 3.5364399602,
				"y": -0.0961868543,
				"z": -1.7144641008,
				"element": "H" 
			},
			{
				"x": -0.600021644,
				"y": -0.8737334397,
				"z": -2.5801504307,
				"element": "H" 
			}
		],
		 "valence_orbital": [ 
			{
				"type": "occ",
				"energy": -0.31963,
				"method": "rhf"
			},
			{
				"type": "occ",
				"energy": -0.28823,
				"method": "rhf"
			},
			{
				"type": "occ",
				"energy": -0.27876,
				"method": "rhf"
			},
			{
				"type": "occ",
				"energy": -0.25205,
				"method": "rhf"
			},
			{
				"type": "occ",
				"energy": -0.24491,
				"method": "rhf"
			},
			{
				"type": "unocc",
				"energy": -0.05,
				"method": "rhf"
			},
			{
				"type": "unocc",
				"energy": -0.03114,
				"method": "rhf"
			},
			{
				"type": "unocc",
				"energy": -0.0101,
				"method": "rhf"
			},
			{
				"type": "unocc",
				"energy": 0.00095,
				"method": "rhf"
			},
			{
				"type": "unocc",
				"energy": 0.03078,
				"method": "rhf"
			}
		],
		"cosmo_sigma_profile": { 
			"-0.025": 0.0,
			"-0.024": 0.0,
			"-0.023": 0.0,
			"-0.022": 0.0,
			"-0.021": 0.0,
			"-0.02": 0.0,
			"-0.019": 0.13725780324,
			"-0.018": 0.955165008773,
			"-0.017": 1.11959499755,
			"-0.016": 0.526539844504,
			"-0.015": 0.619059658577,
			"-0.014": 0.632002147959,
			"-0.013": 0.795241840334,
			"-0.012": 0.602323410843,
			"-0.011": 1.02123820692,
			"-0.01": 0.696399903947,
			"-0.009": 2.41769552903,
			"-0.008": 8.35332260125,
			"-0.007": 11.2570430808,
			"-0.006": 11.0154289447,
			"-0.005": 10.0455752183,
			"-0.004": 9.29996154408,
			"-0.003": 10.0578895134,
			"-0.002": 13.6072664272,
			"-0.001": 14.3018824112,
			"0.0": 20.6725415416,
			"0.001": 26.8147842611,
			"0.002": 18.5053364458,
			"0.003": 18.8659110515,
			"0.004": 21.8045342138,
			"0.005": 8.71886687995,
			"0.006": 6.31788192189,
			"0.007": 5.46925196712,
			"0.008": 4.89664466733,
			"0.009": 3.07444126223,
			"0.01": 2.09719909602,
			"0.011": 3.96240840721,
			"0.012": 2.72102771229,
			"0.013": 0.0810997234981,
			"0.014": 0.0,
			"0.015": 0.0,
			"0.016": 0.0,
			"0.017": 0.0,
			"0.018": 0.0,
			"0.019": 0.0,
			"0.02": 0.0,
			"0.021": 0.0,
			"0.022": 0.0,
			"0.023": 0.0,
			"0.024": 0.0,
			"0.0": 0.0
		}
	}
}
