{
	 "smiles": "CN1N(C(=O)C=C1C)C1=CC=C(C)C=C1", 
	 "Tm": 407.15, 
	 "num_atms": 29, 
	 "gaussian": { 
		 "optdone": 1, 
		 "sigma_profile": "yes", 
		 "theory": "DFT", 
		 "functional": "B3LYP", 
		 "basiset": "6-31G**", 
		 "properties": { 
			 "R2extent": 4325.2936, 
			 "electric_dipole_moment_norm": 5.07157568612, 
			 "electric_quadrupole_moment_norm": 10.9984733091, 
			 "total_energy": -650.425315458, 
			 "HOMO_LUMO_gap": 0.18287, 
			 "cosmo_polarized_energy": -13.99, 
			 "cosmo_cavitation_energy": 31.84, 
			 "cosmo_dispersion_energy": -22.8, 
			 "cosmo_repulsion_energy": 1.78, 
			 "cosmo_total_nonelectrostatic_energy": 10.82, 
			 "SMD_solvation_energy": 6.15 
		},
		"coords": [
			{
				"x": 2.8072289284,
				"y": -0.2597341593,
				"z": 0.7714558868,
				"element": "C" 
			},
			{
				"x": 1.431686216,
				"y": 0.2418359319,
				"z": 0.6446226626,
				"element": "N" 
			},
			{
				"x": 0.972186591,
				"y": 0.3050218668,
				"z": -0.6917777992,
				"element": "N" 
			},
			{
				"x": 0.250245975,
				"y": 1.5173223134,
				"z": -0.8979191373,
				"element": "C" 
			},
			{
				"x": -0.3469712208,
				"y": 1.7997317419,
				"z": -1.9266548061,
				"element": "O" 
			},
			{
				"x": 0.3935961511,
				"y": 2.2345393199,
				"z": 0.3604913739,
				"element": "C" 
			},
			{
				"x": 1.1167401715,
				"y": 1.4746966594,
				"z": 1.2193255171,
				"element": "C" 
			},
			{
				"x": 1.5819382979,
				"y": 1.8003460607,
				"z": 2.6030882873,
				"element": "C" 
			},
			{
				"x": 0.7068872102,
				"y": -0.9046300173,
				"z": -1.3834674429,
				"element": "C" 
			},
			{
				"x": 0.5266866061,
				"y": -2.1126064741,
				"z": -0.698836393,
				"element": "C" 
			},
			{
				"x": 0.2851227201,
				"y": -3.2869781429,
				"z": -1.4121931504,
				"element": "C" 
			},
			{
				"x": 0.1967345444,
				"y": -3.289477927,
				"z": -2.8082522952,
				"element": "C" 
			},
			{
				"x": -0.050575651,
				"y": -4.5650458391,
				"z": -3.5787352757,
				"element": "C" 
			},
			{
				"x": 0.3593770836,
				"y": -2.0648967978,
				"z": -3.4728021905,
				"element": "C" 
			},
			{
				"x": 0.6226418289,
				"y": -0.88520678,
				"z": -2.783513962,
				"element": "C" 
			},
			{
				"x": 3.5305872676,
				"y": 0.4020956543,
				"z": 0.2774452037,
				"element": "H" 
			},
			{
				"x": 3.0503337096,
				"y": -0.346087552,
				"z": 1.8317315114,
				"element": "H" 
			},
			{
				"x": 2.8656394503,
				"y": -1.2521114303,
				"z": 0.3231962369,
				"element": "H" 
			},
			{
				"x": -0.0508341318,
				"y": 3.1986055386,
				"z": 0.5570564111,
				"element": "H" 
			},
			{
				"x": 1.0785624368,
				"y": 2.7019602074,
				"z": 2.9571927137,
				"element": "H" 
			},
			{
				"x": 2.6620781117,
				"y": 1.9857064062,
				"z": 2.6376472216,
				"element": "H" 
			},
			{
				"x": 1.3615580487,
				"y": 0.9844826717,
				"z": 3.2992839018,
				"element": "H" 
			},
			{
				"x": 0.5516270421,
				"y": -2.1243520586,
				"z": 0.3853663961,
				"element": "H" 
			},
			{
				"x": 0.1476991576,
				"y": -4.2167679988,
				"z": -0.865414061,
				"element": "H" 
			},
			{
				"x": 0.8650165854,
				"y": -4.9229466499,
				"z": -4.0663018967,
				"element": "H" 
			},
			{
				"x": -0.4066223507,
				"y": -5.3651021492,
				"z": -2.9231840252,
				"element": "H" 
			},
			{
				"x": -0.7971209592,
				"y": -4.4186603953,
				"z": -4.3665372238,
				"element": "H" 
			},
			{
				"x": 0.2860032348,
				"y": -2.0325353673,
				"z": -4.5572613565,
				"element": "H" 
			},
			{
				"x": 0.7374469445,
				"y": 0.0534953668,
				"z": -3.3093523084,
				"element": "H" 
			}
		],
		 "valence_orbital": [ 
			{
				"type": "occ",
				"energy": -0.283,
				"method": "rhf"
			},
			{
				"type": "occ",
				"energy": -0.24901,
				"method": "rhf"
			},
			{
				"type": "occ",
				"energy": -0.23945,
				"method": "rhf"
			},
			{
				"type": "occ",
				"energy": -0.22766,
				"method": "rhf"
			},
			{
				"type": "occ",
				"energy": -0.20252,
				"method": "rhf"
			},
			{
				"type": "unocc",
				"energy": -0.01965,
				"method": "rhf"
			},
			{
				"type": "unocc",
				"energy": 0.00269,
				"method": "rhf"
			},
			{
				"type": "unocc",
				"energy": 0.014,
				"method": "rhf"
			},
			{
				"type": "unocc",
				"energy": 0.07983,
				"method": "rhf"
			},
			{
				"type": "unocc",
				"energy": 0.09195,
				"method": "rhf"
			}
		],
		"cosmo_sigma_profile": { 
			"-0.025": 0.0,
			"-0.024": 0.0,
			"-0.023": 0.0,
			"-0.022": 0.0,
			"-0.021": 0.0,
			"-0.02": 0.0,
			"-0.019": 0.0,
			"-0.018": 0.0,
			"-0.017": 0.0,
			"-0.016": 0.0,
			"-0.015": 0.0,
			"-0.014": 0.0,
			"-0.013": 0.0,
			"-0.012": 0.0,
			"-0.011": 0.0,
			"-0.01": 0.0,
			"-0.009": 0.0,
			"-0.008": 0.0714894845504,
			"-0.007": 2.17235846022,
			"-0.006": 11.2619508676,
			"-0.005": 23.3531810805,
			"-0.004": 29.2557906221,
			"-0.003": 27.5748602659,
			"-0.002": 24.366390915,
			"-0.001": 21.0083283742,
			"0.0": 20.1803943544,
			"0.001": 15.0880894903,
			"0.002": 14.5487501772,
			"0.003": 14.1586030831,
			"0.004": 11.4145150346,
			"0.005": 10.159762068,
			"0.006": 7.18746706439,
			"0.007": 1.73639751894,
			"0.008": 1.76361293266,
			"0.009": 1.92019977277,
			"0.01": 1.38714471958,
			"0.011": 1.51935962682,
			"0.012": 2.29168447171,
			"0.013": 2.71153993183,
			"0.014": 5.1630330361,
			"0.015": 2.11855075836,
			"0.016": 0.101609578984,
			"0.017": 0.0,
			"0.018": 0.0,
			"0.019": 0.0,
			"0.02": 0.0,
			"0.021": 0.0,
			"0.022": 0.0,
			"0.023": 0.0,
			"0.024": 0.0,
			"0.025": 0.0
		}
	}
}
