{
	 "smiles": "O=C1N(CC#N)S(=O)(=O)C2=CC=CC=C12", 
	 "Tm": 415.15, 
	 "num_atms": 21, 
	 "gaussian": { 
		 "optdone": 1, 
		 "sigma_profile": "yes", 
		 "theory": "DFT", 
		 "functional": "B3LYP", 
		 "basiset": "6-31G**", 
		 "properties": { 
			 "R2extent": 4316.8542, 
			 "electric_dipole_moment_norm": 7.05300096129, 
			 "electric_quadrupole_moment_norm": 15.3900866349, 
			 "total_energy": -1079.83963074, 
			 "HOMO_LUMO_gap": 0.20718, 
			 "cosmo_polarized_energy": -19.21, 
			 "cosmo_cavitation_energy": 28.74, 
			 "cosmo_dispersion_energy": -20.42, 
			 "cosmo_repulsion_energy": 1.53, 
			 "cosmo_total_nonelectrostatic_energy": 9.85, 
			 "SMD_solvation_energy": 6.03 
		},
		"coords": [
			{
				"x": 2.1195099435,
				"y": -1.5533761488,
				"z": 0.087716677,
				"element": "O" 
			},
			{
				"x": 1.6370331723,
				"y": -0.5621483732,
				"z": -0.4244491471,
				"element": "C" 
			},
			{
				"x": 2.3430378372,
				"y": 0.6218028056,
				"z": -0.6577458342,
				"element": "N" 
			},
			{
				"x": 3.7881293684,
				"y": 0.6990645144,
				"z": -0.5008913922,
				"element": "C" 
			},
			{
				"x": 4.2101913813,
				"y": 1.5483518275,
				"z": 0.6244430476,
				"element": "C" 
			},
			{
				"x": 4.5744732677,
				"y": 2.2075263747,
				"z": 1.5059975358,
				"element": "N" 
			},
			{
				"x": 1.4797148195,
				"y": 1.8290195088,
				"z": -1.5586466861,
				"element": "S" 
			},
			{
				"x": 2.1016212035,
				"y": 1.9314912495,
				"z": -2.8793960622,
				"element": "O" 
			},
			{
				"x": 1.2942416673,
				"y": 3.0290234046,
				"z": -0.7502535635,
				"element": "O" 
			},
			{
				"x": 0.009137498,
				"y": 0.8160882788,
				"z": -1.5649170627,
				"element": "C" 
			},
			{
				"x": -1.2267635686,
				"y": 1.1517062518,
				"z": -2.1002357196,
				"element": "C" 
			},
			{
				"x": -2.250349648,
				"y": 0.2049936283,
				"z": -1.9831488706,
				"element": "C" 
			},
			{
				"x": -2.0288928568,
				"y": -1.0229698362,
				"z": -1.3469751404,
				"element": "C" 
			},
			{
				"x": -0.7782498253,
				"y": -1.3372734919,
				"z": -0.8103753878,
				"element": "C" 
			},
			{
				"x": 0.2442964727,
				"y": -0.3992398304,
				"z": -0.9239856323,
				"element": "C" 
			},
			{
				"x": 4.2404927037,
				"y": 1.0673129227,
				"z": -1.4289760956,
				"element": "H" 
			},
			{
				"x": 4.1337975873,
				"y": -0.3252622598,
				"z": -0.3254779026,
				"element": "H" 
			},
			{
				"x": -1.3940281463,
				"y": 2.105161738,
				"z": -2.5894927962,
				"element": "H" 
			},
			{
				"x": -3.2305681391,
				"y": 0.4289903727,
				"z": -2.3920168733,
				"element": "H" 
			},
			{
				"x": -2.8416273685,
				"y": -1.7381827338,
				"z": -1.2695018828,
				"element": "H" 
			},
			{
				"x": -0.5874973699,
				"y": -2.2819802032,
				"z": -0.3124712114,
				"element": "H" 
			}
		],
		 "valence_orbital": [ 
			{
				"type": "occ",
				"energy": -0.33228,
				"method": "rhf"
			},
			{
				"type": "occ",
				"energy": -0.30385,
				"method": "rhf"
			},
			{
				"type": "occ",
				"energy": -0.30131,
				"method": "rhf"
			},
			{
				"type": "occ",
				"energy": -0.30031,
				"method": "rhf"
			},
			{
				"type": "occ",
				"energy": -0.29629,
				"method": "rhf"
			},
			{
				"type": "unocc",
				"energy": -0.08911,
				"method": "rhf"
			},
			{
				"type": "unocc",
				"energy": -0.06195,
				"method": "rhf"
			},
			{
				"type": "unocc",
				"energy": 0.00415,
				"method": "rhf"
			},
			{
				"type": "unocc",
				"energy": 0.01509,
				"method": "rhf"
			},
			{
				"type": "unocc",
				"energy": 0.01863,
				"method": "rhf"
			}
		],
		"cosmo_sigma_profile": { 
			"-0.025": 0.0,
			"-0.024": 0.0,
			"-0.023": 0.0,
			"-0.022": 0.0,
			"-0.021": 0.0,
			"-0.02": 0.0,
			"-0.019": 0.0,
			"-0.018": 0.0,
			"-0.017": 0.0,
			"-0.016": 0.0,
			"-0.015": 0.0,
			"-0.014": 0.0,
			"-0.013": 0.0,
			"-0.012": 0.101144478492,
			"-0.011": 3.45545583778,
			"-0.01": 5.85309449546,
			"-0.009": 7.94010690795,
			"-0.008": 12.9741040825,
			"-0.007": 15.6608576958,
			"-0.006": 11.4693920085,
			"-0.005": 9.53674352729,
			"-0.004": 12.1446400921,
			"-0.003": 10.697231901,
			"-0.002": 11.8500954939,
			"-0.001": 16.8893305276,
			"0.0": 17.1015557003,
			"0.001": 12.2770074572,
			"0.002": 6.48356718948,
			"0.003": 5.60670419475,
			"0.004": 6.84366948229,
			"0.005": 5.53964715566,
			"0.006": 7.24094369888,
			"0.007": 8.10142675949,
			"0.008": 12.1650983912,
			"0.009": 17.5048020979,
			"0.01": 9.63035037206,
			"0.011": 4.26883981128,
			"0.012": 1.7089386622,
			"0.013": 0.145079137945,
			"0.014": 0.0,
			"0.015": 0.0,
			"0.016": 0.0,
			"0.017": 0.0,
			"0.018": 0.0,
			"0.019": 0.0,
			"0.02": 0.0,
			"0.021": 0.0,
			"0.022": 0.0,
			"0.023": 0.0,
			"0.024": 0.0,
			"0.025": 0.0
		}
	}
}
