{
	 "smiles": "ClCC(=O)N1CCOC1=O", 
	 "Tm": 327.15, 
	 "num_atms": 16, 
	 "gaussian": { 
		 "optdone": 1, 
		 "sigma_profile": "yes", 
		 "theory": "DFT", 
		 "functional": "B3LYP", 
		 "basiset": "6-31G**", 
		 "properties": { 
			 "R2extent": 2102.7533, 
			 "electric_dipole_moment_norm": 6.28476154599, 
			 "electric_quadrupole_moment_norm": 17.7116363609, 
			 "total_energy": -934.768020191, 
			 "HOMO_LUMO_gap": 0.21767, 
			 "cosmo_polarized_energy": -19.95, 
			 "cosmo_cavitation_energy": 22.12, 
			 "cosmo_dispersion_energy": -16.42, 
			 "cosmo_repulsion_energy": 1.35, 
			 "cosmo_total_nonelectrostatic_energy": 7.06, 
			 "SMD_solvation_energy": 5.34 
		},
		"coords": [
			{
				"x": -1.3264467851,
				"y": -0.1897585947,
				"z": -2.8936715958,
				"element": "Cl" 
			},
			{
				"x": -0.2467070281,
				"y": 1.0868264568,
				"z": -2.185379241,
				"element": "C" 
			},
			{
				"x": 1.0535172945,
				"y": 0.4990963318,
				"z": -1.6290482601,
				"element": "C" 
			},
			{
				"x": 2.0993160618,
				"y": 0.666537294,
				"z": -2.2150773891,
				"element": "O" 
			},
			{
				"x": 0.9361237058,
				"y": -0.2070639091,
				"z": -0.4291107631,
				"element": "N" 
			},
			{
				"x": -0.2847544268,
				"y": -0.3540126421,
				"z": 0.369471376,
				"element": "C" 
			},
			{
				"x": 0.1384682294,
				"y": -1.4692977536,
				"z": 1.3335602554,
				"element": "C" 
			},
			{
				"x": 1.56964878,
				"y": -1.3871653252,
				"z": 1.3777579448,
				"element": "O" 
			},
			{
				"x": 2.0486142761,
				"y": -0.7490599027,
				"z": 0.2687677936,
				"element": "C" 
			},
			{
				"x": 3.2100308646,
				"y": -0.6766712828,
				"z": -0.006022632,
				"element": "O" 
			},
			{
				"x": 0.028769241,
				"y": 1.7569845565,
				"z": -2.9964288394,
				"element": "H" 
			},
			{
				"x": -0.8314511961,
				"y": 1.620484172,
				"z": -1.4335444314,
				"element": "H" 
			},
			{
				"x": -0.5156334081,
				"y": 0.5765230419,
				"z": 0.9032324314,
				"element": "H" 
			},
			{
				"x": -1.1405025739,
				"y": -0.640926757,
				"z": -0.2423442774,
				"element": "H" 
			},
			{
				"x": -0.2482049281,
				"y": -1.3356006855,
				"z": 2.3448573035,
				"element": "H" 
			},
			{
				"x": -0.1487881073,
				"y": -2.4585950003,
				"z": 0.9608803247,
				"element": "H" 
			}
		],
		 "valence_orbital": [ 
			{
				"type": "occ",
				"energy": -0.32375,
				"method": "rhf"
			},
			{
				"type": "occ",
				"energy": -0.31292,
				"method": "rhf"
			},
			{
				"type": "occ",
				"energy": -0.30299,
				"method": "rhf"
			},
			{
				"type": "occ",
				"energy": -0.28985,
				"method": "rhf"
			},
			{
				"type": "occ",
				"energy": -0.26891,
				"method": "rhf"
			},
			{
				"type": "unocc",
				"energy": -0.05124,
				"method": "rhf"
			},
			{
				"type": "unocc",
				"energy": 0.01424,
				"method": "rhf"
			},
			{
				"type": "unocc",
				"energy": 0.05095,
				"method": "rhf"
			},
			{
				"type": "unocc",
				"energy": 0.06436,
				"method": "rhf"
			},
			{
				"type": "unocc",
				"energy": 0.08117,
				"method": "rhf"
			}
		],
		"cosmo_sigma_profile": { 
			"-0.025": 0.0,
			"-0.024": 0.0,
			"-0.023": 0.0,
			"-0.022": 0.0,
			"-0.021": 0.0,
			"-0.02": 0.0,
			"-0.019": 0.0,
			"-0.018": 0.0,
			"-0.017": 0.0,
			"-0.016": 0.0,
			"-0.015": 0.0,
			"-0.014": 0.0,
			"-0.013": 0.0,
			"-0.012": 0.0495758276537,
			"-0.011": 0.99285440933,
			"-0.01": 3.16935246404,
			"-0.009": 4.80171933589,
			"-0.008": 13.6620734328,
			"-0.007": 20.0850997826,
			"-0.006": 13.8444216917,
			"-0.005": 9.00300733208,
			"-0.004": 5.33121222765,
			"-0.003": 6.17188941443,
			"-0.002": 6.74780167634,
			"-0.001": 8.52808216489,
			"0.0": 6.5088909437,
			"0.001": 6.79886825072,
			"0.002": 8.14379084831,
			"0.003": 6.76631065886,
			"0.004": 8.78664884487,
			"0.005": 8.2698528658,
			"0.006": 3.26581748695,
			"0.007": 3.73018396538,
			"0.008": 4.22229126221,
			"0.009": 5.71899987416,
			"0.01": 5.52985334027,
			"0.011": 9.42884888288,
			"0.012": 4.72969898006,
			"0.013": 1.2289945145,
			"0.014": 1.62681887956,
			"0.015": 1.06082578725,
			"0.016": 0.291522003093,
			"0.017": 0.0,
			"0.018": 0.0,
			"0.019": 0.0,
			"0.02": 0.0,
			"0.021": 0.0,
			"0.022": 0.0,
			"0.023": 0.0,
			"0.024": 0.0,
			"0.025": 0.0
		}
	}
}
