{
	 "smiles": "CC1=CC(NN)=NC=C1", 
	 "Tm": 348.15, 
	 "num_atms": 18, 
	 "gaussian": { 
		 "optdone": 1, 
		 "sigma_profile": "yes", 
		 "theory": "DFT", 
		 "functional": "B3LYP", 
		 "basiset": "6-31G**", 
		 "properties": { 
			 "R2extent": 1500.4641, 
			 "electric_dipole_moment_norm": 1.97880562209, 
			 "electric_quadrupole_moment_norm": 3.38333392381, 
			 "total_energy": -398.292981204, 
			 "HOMO_LUMO_gap": 0.19661, 
			 "cosmo_polarized_energy": -8.92, 
			 "cosmo_cavitation_energy": 21.51, 
			 "cosmo_dispersion_energy": -16.16, 
			 "cosmo_repulsion_energy": 1.34, 
			 "cosmo_total_nonelectrostatic_energy": 6.7, 
			 "SMD_solvation_energy": 3.25 
		},
		"coords": [
			{
				"x": 0.7258392298,
				"y": 2.9784200759,
				"z": 0.1913949411,
				"element": "C" 
			},
			{
				"x": 1.0087575335,
				"y": 1.5273749921,
				"z": -0.1082158175,
				"element": "C" 
			},
			{
				"x": 0.003040818,
				"y": 0.5727164949,
				"z": -0.0800394712,
				"element": "C" 
			},
			{
				"x": 0.3203158459,
				"y": -0.7749737022,
				"z": -0.3654494287,
				"element": "C" 
			},
			{
				"x": -0.6694387174,
				"y": -1.7449473102,
				"z": -0.3070825335,
				"element": "N" 
			},
			{
				"x": -0.4461055067,
				"y": -3.036250668,
				"z": -0.8374523169,
				"element": "N" 
			},
			{
				"x": 1.5565691962,
				"y": -1.182507046,
				"z": -0.6761691066,
				"element": "N" 
			},
			{
				"x": 2.520386953,
				"y": -0.2465349931,
				"z": -0.6971462789,
				"element": "C" 
			},
			{
				"x": 2.3129250183,
				"y": 1.0968199698,
				"z": -0.4264634043,
				"element": "C" 
			},
			{
				"x": 1.0078167399,
				"y": 3.6157701353,
				"z": -0.6542685002,
				"element": "H" 
			},
			{
				"x": 1.3057367743,
				"y": 3.3194248211,
				"z": 1.056533693,
				"element": "H" 
			},
			{
				"x": -0.3326354935,
				"y": 3.1479261028,
				"z": 0.4057386905,
				"element": "H" 
			},
			{
				"x": -1.0191218125,
				"y": 0.8506287942,
				"z": 0.1650152756,
				"element": "H" 
			},
			{
				"x": -1.6141968987,
				"y": -1.4242266075,
				"z": -0.4659882864,
				"element": "H" 
			},
			{
				"x": 0.227055506,
				"y": -2.9461376797,
				"z": -1.6010148488,
				"element": "H" 
			},
			{
				"x": 0.0451829796,
				"y": -3.5700296466,
				"z": -0.1217995834,
				"element": "H" 
			},
			{
				"x": 3.5166720806,
				"y": -0.6057906816,
				"z": -0.9511756654,
				"element": "H" 
			},
			{
				"x": 3.1392997537,
				"y": 1.8000169487,
				"z": -0.4625173585,
				"element": "H" 
			}
		],
		 "valence_orbital": [ 
			{
				"type": "occ",
				"energy": -0.30013,
				"method": "rhf"
			},
			{
				"type": "occ",
				"energy": -0.26776,
				"method": "rhf"
			},
			{
				"type": "occ",
				"energy": -0.26566,
				"method": "rhf"
			},
			{
				"type": "occ",
				"energy": -0.2515,
				"method": "rhf"
			},
			{
				"type": "occ",
				"energy": -0.2062,
				"method": "rhf"
			},
			{
				"type": "unocc",
				"energy": -0.00959,
				"method": "rhf"
			},
			{
				"type": "unocc",
				"energy": 0.00949,
				"method": "rhf"
			},
			{
				"type": "unocc",
				"energy": 0.09665,
				"method": "rhf"
			},
			{
				"type": "unocc",
				"energy": 0.10284,
				"method": "rhf"
			},
			{
				"type": "unocc",
				"energy": 0.11192,
				"method": "rhf"
			}
		],
		"cosmo_sigma_profile": { 
			"-0.025": 0.0,
			"-0.024": 0.0,
			"-0.023": 0.0,
			"-0.022": 0.0,
			"-0.021": 0.0,
			"-0.02": 0.0,
			"-0.019": 0.0,
			"-0.018": 0.0,
			"-0.017": 0.0,
			"-0.016": 0.0,
			"-0.015": 0.0,
			"-0.014": 0.0910362529705,
			"-0.013": 0.783643504279,
			"-0.012": 1.25381711741,
			"-0.011": 1.41426036728,
			"-0.01": 2.46320704504,
			"-0.009": 2.69973781881,
			"-0.008": 4.04292374922,
			"-0.007": 3.09200834159,
			"-0.006": 4.75227377802,
			"-0.005": 10.8613194772,
			"-0.004": 14.0480981054,
			"-0.003": 13.4627789013,
			"-0.002": 13.7399008298,
			"-0.001": 13.3475313315,
			"0.0": 12.9888503308,
			"0.001": 8.9812439998,
			"0.002": 7.81645805505,
			"0.003": 9.70352189438,
			"0.004": 12.979347993,
			"0.005": 9.77036485614,
			"0.006": 3.29629916889,
			"0.007": 3.09075694034,
			"0.008": 2.70348083604,
			"0.009": 2.64645584634,
			"0.01": 2.37588871697,
			"0.011": 1.69917660452,
			"0.012": 1.04142546874,
			"0.013": 0.998252877356,
			"0.014": 1.50186907961,
			"0.015": 0.921228140456,
			"0.016": 0.492138706765,
			"0.017": 0.515486783493,
			"0.018": 0.1474949684,
			"0.019": 0.0,
			"0.02": 0.0,
			"0.021": 0.0,
			"0.022": 0.0,
			"0.023": 0.0,
			"0.024": 0.0,
			"0.025": 0.0
		}
	}
}
