{
	 "smiles": "OC(=O)C1=C(O)C2=C(C=C3OCCOC3=C2)N=C1", 
	 "Tm": 548.15, 
	 "num_atms": 27, 
	 "gaussian": { 
		 "optdone": 1, 
		 "sigma_profile": "yes", 
		 "theory": "DFT", 
		 "functional": "B3LYP", 
		 "basiset": "6-31G**", 
		 "properties": { 
			 "R2extent": 6101.57, 
			 "electric_dipole_moment_norm": 9.95815388614, 
			 "electric_quadrupole_moment_norm": 27.4933656699, 
			 "total_energy": -893.567510124, 
			 "HOMO_LUMO_gap": 0.16687, 
			 "cosmo_polarized_energy": -23.74, 
			 "cosmo_cavitation_energy": 30.95, 
			 "cosmo_dispersion_energy": -24.03, 
			 "cosmo_repulsion_energy": 1.8, 
			 "cosmo_total_nonelectrostatic_energy": 8.72, 
			 "SMD_solvation_energy": 5.29 
		},
		"coords": [
			{
				"x": 1.7179905633,
				"y": -1.0815363154,
				"z": -5.5032933565,
				"element": "O" 
			},
			{
				"x": 1.3920277459,
				"y": 0.1815482225,
				"z": -5.1589808648,
				"element": "C" 
			},
			{
				"x": 1.4824826398,
				"y": 1.079151578,
				"z": -5.9680977742,
				"element": "O" 
			},
			{
				"x": 0.9128587293,
				"y": 0.4305153531,
				"z": -3.757359317,
				"element": "C" 
			},
			{
				"x": 0.7962714387,
				"y": -0.5141080029,
				"z": -2.7479888916,
				"element": "C" 
			},
			{
				"x": 1.1593083715,
				"y": -1.8101465362,
				"z": -3.0021283846,
				"element": "O" 
			},
			{
				"x": 0.3191508074,
				"y": -0.133025543,
				"z": -1.4624083859,
				"element": "C" 
			},
			{
				"x": -0.0601509268,
				"y": 1.2370372141,
				"z": -1.2914628568,
				"element": "C" 
			},
			{
				"x": -0.5763265806,
				"y": 1.6501486073,
				"z": -0.0416028963,
				"element": "C" 
			},
			{
				"x": -0.6984512771,
				"y": 0.7622961517,
				"z": 1.0053853616,
				"element": "C" 
			},
			{
				"x": -1.2069094609,
				"y": 1.2092471874,
				"z": 2.1919352979,
				"element": "O" 
			},
			{
				"x": -1.5916176949,
				"y": 0.179615653,
				"z": 3.1071328084,
				"element": "C" 
			},
			{
				"x": -0.5175086279,
				"y": -0.8899295088,
				"z": 3.1693029503,
				"element": "C" 
			},
			{
				"x": -0.3492706494,
				"y": -1.4874359663,
				"z": 1.8796841003,
				"element": "O" 
			},
			{
				"x": -0.2754286332,
				"y": -0.5922871759,
				"z": 0.8473083505,
				"element": "C" 
			},
			{
				"x": 0.2204049976,
				"y": -1.0223086019,
				"z": -0.3639740033,
				"element": "C" 
			},
			{
				"x": 0.0478505608,
				"y": 2.1674123237,
				"z": -2.2865655375,
				"element": "N" 
			},
			{
				"x": 0.520884985,
				"y": 1.7644498232,
				"z": -3.44316128,
				"element": "C" 
			},
			{
				"x": 1.5910993987,
				"y": -1.6823979992,
				"z": -4.7490569741,
				"element": "H" 
			},
			{
				"x": 0.8071563451,
				"y": -2.4042051468,
				"z": -2.3270093038,
				"element": "H" 
			},
			{
				"x": -0.8821373044,
				"y": 2.6824649916,
				"z": 0.0822729358,
				"element": "H" 
			},
			{
				"x": -2.5462472937,
				"y": -0.2611200035,
				"z": 2.7905628921,
				"element": "H" 
			},
			{
				"x": -1.7271786663,
				"y": 0.6658225761,
				"z": 4.0759292784,
				"element": "H" 
			},
			{
				"x": -0.7981473536,
				"y": -1.6988422206,
				"z": 3.8476449678,
				"element": "H" 
			},
			{
				"x": 0.4330676055,
				"y": -0.453814987,
				"z": 3.5037877944,
				"element": "H" 
			},
			{
				"x": 0.5583849167,
				"y": -2.0541768705,
				"z": -0.4116312236,
				"element": "H" 
			},
			{
				"x": 0.6138353636,
				"y": 2.501325196,
				"z": -4.2367256876,
				"element": "H" 
			}
		],
		 "valence_orbital": [ 
			{
				"type": "occ",
				"energy": -0.28572,
				"method": "rhf"
			},
			{
				"type": "occ",
				"energy": -0.27042,
				"method": "rhf"
			},
			{
				"type": "occ",
				"energy": -0.2549,
				"method": "rhf"
			},
			{
				"type": "occ",
				"energy": -0.23855,
				"method": "rhf"
			},
			{
				"type": "occ",
				"energy": -0.23303,
				"method": "rhf"
			},
			{
				"type": "unocc",
				"energy": -0.06616,
				"method": "rhf"
			},
			{
				"type": "unocc",
				"energy": -0.03523,
				"method": "rhf"
			},
			{
				"type": "unocc",
				"energy": 0.00953,
				"method": "rhf"
			},
			{
				"type": "unocc",
				"energy": 0.02736,
				"method": "rhf"
			},
			{
				"type": "unocc",
				"energy": 0.03792,
				"method": "rhf"
			}
		],
		"cosmo_sigma_profile": { 
			"-0.025": 0.0,
			"-0.024": 0.0,
			"-0.023": 0.0,
			"-0.022": 0.0,
			"-0.021": 0.0459188958957,
			"-0.02": 0.66117480308,
			"-0.019": 1.28056424516,
			"-0.018": 0.594483802746,
			"-0.017": 1.06597566527,
			"-0.016": 1.17759698552,
			"-0.015": 0.81397346667,
			"-0.014": 1.25983085569,
			"-0.013": 0.924857428601,
			"-0.012": 0.913750134081,
			"-0.011": 0.81954670715,
			"-0.01": 1.56492906294,
			"-0.009": 2.23175904632,
			"-0.008": 4.99287863906,
			"-0.007": 13.140096083,
			"-0.006": 18.2826224379,
			"-0.005": 15.2634659451,
			"-0.004": 12.9139223284,
			"-0.003": 10.729958228,
			"-0.002": 14.5013320031,
			"-0.001": 15.3737697776,
			"0.0": 19.1435981038,
			"0.001": 17.3424399291,
			"0.002": 18.7144117581,
			"0.003": 10.5417723264,
			"0.004": 8.01329830735,
			"0.005": 6.90320854637,
			"0.006": 5.27699530926,
			"0.007": 6.30483385042,
			"0.008": 6.78572694782,
			"0.009": 7.15203407332,
			"0.01": 5.04121189614,
			"0.011": 6.31029692306,
			"0.012": 6.3176242268,
			"0.013": 3.16005441782,
			"0.014": 1.58283146586,
			"0.015": 0.73328612085,
			"0.016": 0.502118769235,
			"0.017": 0.0,
			"0.018": 0.0,
			"0.019": 0.0,
			"0.02": 0.0,
			"0.021": 0.0,
			"0.022": 0.0,
			"0.023": 0.0,
			"0.024": 0.0,
			"0.025": 0.0
		}
	}
}
