{
	 "smiles": "NC1=CC=C(CC2=NC3=C(S2)C=CC=C3)C=C1", 
	 "Tm": 493.15, 
	 "num_atms": 29, 
	 "gaussian": { 
		 "optdone": 1, 
		 "sigma_profile": "yes", 
		 "theory": "DFT", 
		 "functional": "B3LYP", 
		 "basiset": "6-31G**", 
		 "properties": { 
			 "R2extent": 6043.0302, 
			 "electric_dipole_moment_norm": 2.26063442644, 
			 "electric_quadrupole_moment_norm": 19.048034098, 
			 "total_energy": -1048.43055843, 
			 "HOMO_LUMO_gap": 0.17075, 
			 "cosmo_polarized_energy": -12.47, 
			 "cosmo_cavitation_energy": 34.95, 
			 "cosmo_dispersion_energy": -25.54, 
			 "cosmo_repulsion_energy": 1.94, 
			 "cosmo_total_nonelectrostatic_energy": 11.34, 
			 "SMD_solvation_energy": 3.27 
		},
		"coords": [
			{
				"x": 2.4295330001,
				"y": -5.1305021902,
				"z": 1.0423238553,
				"element": "N" 
			},
			{
				"x": 1.5250087414,
				"y": -4.0667222795,
				"z": 1.0558097907,
				"element": "C" 
			},
			{
				"x": 1.551983214,
				"y": -3.1087649648,
				"z": 2.0817383508,
				"element": "C" 
			},
			{
				"x": 0.6834250144,
				"y": -2.0193107986,
				"z": 2.0558132739,
				"element": "C" 
			},
			{
				"x": -0.2385513211,
				"y": -1.8466031435,
				"z": 1.0186845549,
				"element": "C" 
			},
			{
				"x": -1.1960630068,
				"y": -0.6659830173,
				"z": 0.99762626,
				"element": "C" 
			},
			{
				"x": -1.0231966084,
				"y": 0.2325738157,
				"z": -0.1985034257,
				"element": "C" 
			},
			{
				"x": -1.8668682559,
				"y": 0.3060929379,
				"z": -1.1765756207,
				"element": "N" 
			},
			{
				"x": -1.4412165612,
				"y": 1.2000668503,
				"z": -2.1499509164,
				"element": "C" 
			},
			{
				"x": -0.2032121497,
				"y": 1.8368700609,
				"z": -1.8892103247,
				"element": "C" 
			},
			{
				"x": 0.4253816489,
				"y": 1.2637586485,
				"z": -0.3572881942,
				"element": "S" 
			},
			{
				"x": 0.3411679536,
				"y": 2.7619525366,
				"z": -2.7834230505,
				"element": "C" 
			},
			{
				"x": -0.3683482688,
				"y": 3.0453732216,
				"z": -3.9482441373,
				"element": "C" 
			},
			{
				"x": -1.5975721716,
				"y": 2.4196396856,
				"z": -4.2183026373,
				"element": "C" 
			},
			{
				"x": -2.1394391818,
				"y": 1.4994657545,
				"z": -3.3283286978,
				"element": "C" 
			},
			{
				"x": -0.2614651167,
				"y": -2.8052256663,
				"z": -0.0042886131,
				"element": "C" 
			},
			{
				"x": 0.6002552487,
				"y": -3.8958015009,
				"z": 0.0092484927,
				"element": "C" 
			},
			{
				"x": 2.1352338047,
				"y": -5.9373300196,
				"z": 0.5094047387,
				"element": "H" 
			},
			{
				"x": 2.7991037487,
				"y": -5.3917139824,
				"z": 1.9460656667,
				"element": "H" 
			},
			{
				"x": 2.2605015188,
				"y": -3.2175207931,
				"z": 2.8994004214,
				"element": "H" 
			},
			{
				"x": 0.7228948734,
				"y": -1.2940962731,
				"z": 2.8654112964,
				"element": "H" 
			},
			{
				"x": -1.0723998519,
				"y": -0.0797483854,
				"z": 1.9153245558,
				"element": "H" 
			},
			{
				"x": -2.2359104634,
				"y": -1.0086943802,
				"z": 0.9683380201,
				"element": "H" 
			},
			{
				"x": 1.2902082578,
				"y": 3.2476245931,
				"z": -2.5799586278,
				"element": "H" 
			},
			{
				"x": 0.0367055356,
				"y": 3.7614220566,
				"z": -4.6572169463,
				"element": "H" 
			},
			{
				"x": -2.1293662101,
				"y": 2.6593842183,
				"z": -5.1342099349,
				"element": "H" 
			},
			{
				"x": -3.0874234797,
				"y": 1.0082026497,
				"z": -3.5217888953,
				"element": "H" 
			},
			{
				"x": -0.9658257009,
				"y": -2.692316026,
				"z": -0.824639789,
				"element": "H" 
			},
			{
				"x": 0.5650557879,
				"y": -4.6240936086,
				"z": -0.7975594664,
				"element": "H" 
			}
		],
		 "valence_orbital": [ 
			{
				"type": "occ",
				"energy": -0.26874,
				"method": "rhf"
			},
			{
				"type": "occ",
				"energy": -0.24644,
				"method": "rhf"
			},
			{
				"type": "occ",
				"energy": -0.23207,
				"method": "rhf"
			},
			{
				"type": "occ",
				"energy": -0.22893,
				"method": "rhf"
			},
			{
				"type": "occ",
				"energy": -0.19943,
				"method": "rhf"
			},
			{
				"type": "unocc",
				"energy": -0.02868,
				"method": "rhf"
			},
			{
				"type": "unocc",
				"energy": -0.00075,
				"method": "rhf"
			},
			{
				"type": "unocc",
				"energy": 0.00026,
				"method": "rhf"
			},
			{
				"type": "unocc",
				"energy": 0.01396,
				"method": "rhf"
			},
			{
				"type": "unocc",
				"energy": 0.02286,
				"method": "rhf"
			}
		],
		"cosmo_sigma_profile": { 
			"-0.025": 0.0,
			"-0.024": 0.0,
			"-0.023": 0.0,
			"-0.022": 0.0,
			"-0.021": 0.0,
			"-0.02": 0.0,
			"-0.019": 0.0,
			"-0.018": 0.0,
			"-0.017": 0.0,
			"-0.016": 0.0,
			"-0.015": 0.0,
			"-0.014": 0.0,
			"-0.013": 0.147769441673,
			"-0.012": 2.35533513388,
			"-0.011": 2.51944421308,
			"-0.01": 2.6725335392,
			"-0.009": 3.71136404171,
			"-0.008": 3.04974527327,
			"-0.007": 5.49915615073,
			"-0.006": 16.2562729279,
			"-0.005": 19.5209859479,
			"-0.004": 21.3103452621,
			"-0.003": 18.9701975928,
			"-0.002": 17.6529186929,
			"-0.001": 15.1202554315,
			"0.0": 16.5085358835,
			"0.001": 18.6831470848,
			"0.002": 22.1622626616,
			"0.003": 23.4048886576,
			"0.004": 23.6264070255,
			"0.005": 18.2261319697,
			"0.006": 11.5607646189,
			"0.007": 6.40373007893,
			"0.008": 2.6023665303,
			"0.009": 1.7606906663,
			"0.01": 1.11919067874,
			"0.011": 1.73968872563,
			"0.012": 1.72285792103,
			"0.013": 1.29134915527,
			"0.014": 1.17759130812,
			"0.015": 0.703294840526,
			"0.016": 0.0,
			"0.017": 0.0,
			"0.018": 0.0,
			"0.019": 0.0,
			"0.02": 0.0,
			"0.021": 0.0,
			"0.022": 0.0,
			"0.023": 0.0,
			"0.024": 0.0,
			"0.025": 0.0
		}
	}
}
