{
	 "smiles": "CCCC1=NN=C(S)N1CC(O)=O", 
	 "Tm": 500.15, 
	 "num_atms": 24, 
	 "gaussian": { 
		 "optdone": 1, 
		 "sigma_profile": "yes", 
		 "theory": "DFT", 
		 "functional": "B3LYP", 
		 "basiset": "6-31G**", 
		 "properties": { 
			 "R2extent": 3310.3901, 
			 "electric_dipole_moment_norm": 5.50301145737, 
			 "electric_quadrupole_moment_norm": 8.2164386397, 
			 "total_energy": -986.25557347, 
			 "HOMO_LUMO_gap": 0.21004, 
			 "cosmo_polarized_energy": -22.1, 
			 "cosmo_cavitation_energy": 29.79, 
			 "cosmo_dispersion_energy": -21.32, 
			 "cosmo_repulsion_energy": 1.69, 
			 "cosmo_total_nonelectrostatic_energy": 10.16, 
			 "SMD_solvation_energy": 4.07 
		},
		"coords": [
			{
				"x": -0.7409038611,
				"y": -2.6710671388,
				"z": -2.7206182879,
				"element": "C" 
			},
			{
				"x": 0.7108081986,
				"y": -2.2491535998,
				"z": -2.4727057327,
				"element": "C" 
			},
			{
				"x": 1.0176705041,
				"y": -1.9020553491,
				"z": -1.0053233702,
				"element": "C" 
			},
			{
				"x": 0.3803796418,
				"y": -0.6270146193,
				"z": -0.5416108995,
				"element": "C" 
			},
			{
				"x": -0.3029170484,
				"y": 0.2189604598,
				"z": -1.2700040969,
				"element": "N" 
			},
			{
				"x": -0.7140458585,
				"y": 1.2640655808,
				"z": -0.4552758637,
				"element": "N" 
			},
			{
				"x": -0.2554248901,
				"y": 1.0119271913,
				"z": 0.7428653425,
				"element": "C" 
			},
			{
				"x": -0.4786362486,
				"y": 2.0180678543,
				"z": 2.1807447053,
				"element": "S" 
			},
			{
				"x": 0.4587306088,
				"y": -0.164346271,
				"z": 0.7625577677,
				"element": "N" 
			},
			{
				"x": 1.1169524608,
				"y": -0.781251612,
				"z": 1.8890249337,
				"element": "C" 
			},
			{
				"x": 0.2798368424,
				"y": -1.8801799593,
				"z": 2.5408401264,
				"element": "C" 
			},
			{
				"x": 0.8450426478,
				"y": -2.2568054209,
				"z": 3.7071912125,
				"element": "O" 
			},
			{
				"x": -0.7212480214,
				"y": -2.3701979337,
				"z": 2.0799738404,
				"element": "O" 
			},
			{
				"x": -0.8875975921,
				"y": -2.9471856714,
				"z": -3.7698865923,
				"element": "H" 
			},
			{
				"x": -1.4277770142,
				"y": -1.854951614,
				"z": -2.4857571482,
				"element": "H" 
			},
			{
				"x": -1.0121108392,
				"y": -3.5382065527,
				"z": -2.107032518,
				"element": "H" 
			},
			{
				"x": 0.9560687219,
				"y": -1.3853273365,
				"z": -3.0991338116,
				"element": "H" 
			},
			{
				"x": 1.3866191923,
				"y": -3.0605014642,
				"z": -2.7688324061,
				"element": "H" 
			},
			{
				"x": 0.6841335049,
				"y": -2.7213575608,
				"z": -0.3541878438,
				"element": "H" 
			},
			{
				"x": 2.1068551313,
				"y": -1.8225813293,
				"z": -0.871060388,
				"element": "H" 
			},
			{
				"x": -1.006222809,
				"y": 3.0323713746,
				"z": 1.4706532702,
				"element": "H" 
			},
			{
				"x": 2.066227076,
				"y": -1.2251376527,
				"z": 1.5701011531,
				"element": "H" 
			},
			{
				"x": 1.3652637212,
				"y": -0.0228066098,
				"z": 2.6365654615,
				"element": "H" 
			},
			{
				"x": 0.2952959306,
				"y": -2.9728647652,
				"z": 4.0684111453,
				"element": "H" 
			}
		],
		 "valence_orbital": [ 
			{
				"type": "occ",
				"energy": -0.30821,
				"method": "rhf"
			},
			{
				"type": "occ",
				"energy": -0.30149,
				"method": "rhf"
			},
			{
				"type": "occ",
				"energy": -0.28923,
				"method": "rhf"
			},
			{
				"type": "occ",
				"energy": -0.25283,
				"method": "rhf"
			},
			{
				"type": "occ",
				"energy": -0.22881,
				"method": "rhf"
			},
			{
				"type": "unocc",
				"energy": -0.01877,
				"method": "rhf"
			},
			{
				"type": "unocc",
				"energy": 0.00041,
				"method": "rhf"
			},
			{
				"type": "unocc",
				"energy": 0.01563,
				"method": "rhf"
			},
			{
				"type": "unocc",
				"energy": 0.04715,
				"method": "rhf"
			},
			{
				"type": "unocc",
				"energy": 0.05377,
				"method": "rhf"
			}
		],
		"cosmo_sigma_profile": { 
			"-0.025": 0.0,
			"-0.024": 0.0,
			"-0.023": 0.0,
			"-0.022": 0.0,
			"-0.021": 0.0,
			"-0.02": 0.0,
			"-0.019": 0.515043809151,
			"-0.018": 1.23442223794,
			"-0.017": 0.675979984578,
			"-0.016": 1.04953462134,
			"-0.015": 0.519824427947,
			"-0.014": 1.26265515058,
			"-0.013": 0.689256176585,
			"-0.012": 1.80320992686,
			"-0.011": 2.76220837106,
			"-0.01": 4.91494251377,
			"-0.009": 7.0784987049,
			"-0.008": 7.155143431,
			"-0.007": 8.1623042216,
			"-0.006": 8.48156540077,
			"-0.005": 7.10559172776,
			"-0.004": 8.97808348059,
			"-0.003": 16.9895861287,
			"-0.002": 18.6592000326,
			"-0.001": 18.0282717487,
			"0.0": 18.5726169317,
			"0.001": 19.1362232442,
			"0.002": 13.9812847048,
			"0.003": 8.72914747398,
			"0.004": 8.44680471602,
			"0.005": 7.1082578561,
			"0.006": 6.44377955084,
			"0.007": 5.58046449352,
			"0.008": 4.694334306,
			"0.009": 4.96026700955,
			"0.01": 4.52108831953,
			"0.011": 6.44579564068,
			"0.012": 2.42773409165,
			"0.013": 2.70202762478,
			"0.014": 3.56961874213,
			"0.015": 2.27105028353,
			"0.016": 1.66888514666,
			"0.017": 0.219189582019,
			"0.018": 0.0,
			"0.019": 0.0,
			"0.02": 0.0,
			"0.021": 0.0,
			"0.022": 0.0,
			"0.023": 0.0,
			"0.024": 0.0,
			"0.025": 0.0
		}
	}
}
