{
	 "smiles": "CC(C)(C1CCCCC1)C1CCCCC1", 
	 "Tm": 288.75, 
	 "num_atms": 43, 
	 "gaussian": { 
		 "optdone": 1, 
		 "sigma_profile": "yes", 
		 "theory": "DFT", 
		 "functional": "B3LYP", 
		 "basiset": "6-31G**", 
		 "properties": { 
			 "R2extent": 4300.3371, 
			 "electric_dipole_moment_norm": 0.043243612245, 
			 "electric_quadrupole_moment_norm": 0.388852054129, 
			 "total_energy": -588.503103045, 
			 "HOMO_LUMO_gap": 0.34531, 
			 "cosmo_polarized_energy": -0.89, 
			 "cosmo_cavitation_energy": 36.99, 
			 "cosmo_dispersion_energy": -26.53, 
			 "cosmo_repulsion_energy": 2.05, 
			 "cosmo_total_nonelectrostatic_energy": 12.51, 
			 "SMD_solvation_energy": 4.58 
		},
		"coords": [
			{
				"x": 2.7024311248,
				"y": 0.8374468898,
				"z": 0.1423313545,
				"element": "C" 
			},
			{
				"x": 1.2793332785,
				"y": 0.7504483592,
				"z": -0.4561638078,
				"element": "C" 
			},
			{
				"x": 1.3643572626,
				"y": 1.115556416,
				"z": -1.9560265606,
				"element": "C" 
			},
			{
				"x": 0.3382122324,
				"y": 1.7731120211,
				"z": 0.2827884818,
				"element": "C" 
			},
			{
				"x": 0.9709360144,
				"y": 3.1827142065,
				"z": 0.4779617359,
				"element": "C" 
			},
			{
				"x": -0.0809476837,
				"y": 4.2917115181,
				"z": 0.7224670171,
				"element": "C" 
			},
			{
				"x": -1.3028790883,
				"y": 3.746817572,
				"z": 1.4706537768,
				"element": "C" 
			},
			{
				"x": -2.0222756738,
				"y": 2.6697033153,
				"z": 0.6233138787,
				"element": "C" 
			},
			{
				"x": -1.0593786109,
				"y": 1.9478843535,
				"z": -0.3484974857,
				"element": "C" 
			},
			{
				"x": 0.7129798957,
				"y": -0.7136105276,
				"z": -0.2972322849,
				"element": "C" 
			},
			{
				"x": 1.3797683571,
				"y": -1.7611223003,
				"z": -1.2208719389,
				"element": "C" 
			},
			{
				"x": 0.7131426575,
				"y": -3.1430425221,
				"z": -1.1054689779,
				"element": "C" 
			},
			{
				"x": 0.6961755389,
				"y": -3.6558637306,
				"z": 0.3397293126,
				"element": "C" 
			},
			{
				"x": 0.053094716,
				"y": -2.6240172686,
				"z": 1.2747557092,
				"element": "C" 
			},
			{
				"x": 0.7348042605,
				"y": -1.25119916,
				"z": 1.1529993093,
				"element": "C" 
			},
			{
				"x": 3.3446731762,
				"y": 0.0436574542,
				"z": -0.2523875158,
				"element": "H" 
			},
			{
				"x": 2.6962418012,
				"y": 0.7492159337,
				"z": 1.2334607992,
				"element": "H" 
			},
			{
				"x": 3.1801991527,
				"y": 1.7889726902,
				"z": -0.1075588079,
				"element": "H" 
			},
			{
				"x": 2.1717078809,
				"y": 0.5724199312,
				"z": -2.455259328,
				"element": "H" 
			},
			{
				"x": 1.5695563109,
				"y": 2.1822845346,
				"z": -2.0909135202,
				"element": "H" 
			},
			{
				"x": 0.4333229454,
				"y": 0.8889733999,
				"z": -2.4863187923,
				"element": "H" 
			},
			{
				"x": 0.1767855132,
				"y": 1.369734845,
				"z": 1.2906136453,
				"element": "H" 
			},
			{
				"x": 1.6635141983,
				"y": 3.1493073188,
				"z": 1.3264219533,
				"element": "H" 
			},
			{
				"x": 1.5737205345,
				"y": 3.4591536968,
				"z": -0.3949885618,
				"element": "H" 
			},
			{
				"x": -0.4116316662,
				"y": 4.7123203665,
				"z": -0.2362696415,
				"element": "H" 
			},
			{
				"x": 0.3764100982,
				"y": 5.1210466101,
				"z": 1.2742096016,
				"element": "H" 
			},
			{
				"x": -1.9956808067,
				"y": 4.5562421703,
				"z": 1.7272246426,
				"element": "H" 
			},
			{
				"x": -0.9718317573,
				"y": 3.3159108876,
				"z": 2.4245855617,
				"element": "H" 
			},
			{
				"x": -2.4950874739,
				"y": 1.936202505,
				"z": 1.2878668948,
				"element": "H" 
			},
			{
				"x": -2.8347391071,
				"y": 3.1279272497,
				"z": 0.0463911568,
				"element": "H" 
			},
			{
				"x": -0.966285755,
				"y": 2.5303017563,
				"z": -1.2736577223,
				"element": "H" 
			},
			{
				"x": -1.4971234762,
				"y": 0.9883491518,
				"z": -0.6406216628,
				"element": "H" 
			},
			{
				"x": -0.3421921125,
				"y": -0.673901075,
				"z": -0.6051247479,
				"element": "H" 
			},
			{
				"x": 2.4444878913,
				"y": -1.8589278416,
				"z": -0.9662682662,
				"element": "H" 
			},
			{
				"x": 1.3381221332,
				"y": -1.4379059476,
				"z": -2.2651061009,
				"element": "H" 
			},
			{
				"x": -0.3204136616,
				"y": -3.0737167346,
				"z": -1.4745052881,
				"element": "H" 
			},
			{
				"x": 1.2270050156,
				"y": -3.8585957265,
				"z": -1.7592182766,
				"element": "H" 
			},
			{
				"x": 1.7276752748,
				"y": -3.8476411094,
				"z": 0.6687826587,
				"element": "H" 
			},
			{
				"x": 0.1660303991,
				"y": -4.6142209941,
				"z": 0.4007202667,
				"element": "H" 
			},
			{
				"x": 0.0964711424,
				"y": -2.9707933851,
				"z": 2.3146010935,
				"element": "H" 
			},
			{
				"x": -1.012982155,
				"y": -2.5232827564,
				"z": 1.0251094598,
				"element": "H" 
			},
			{
				"x": 0.2510293404,
				"y": -0.5491085578,
				"z": 1.8401276371,
				"element": "H" 
			},
			{
				"x": 1.7755608816,
				"y": -1.3467655157,
				"z": 1.490643341,
				"element": "H" 
			}
		],
		 "valence_orbital": [ 
			{
				"type": "occ",
				"energy": -0.30021,
				"method": "rhf"
			},
			{
				"type": "occ",
				"energy": -0.29084,
				"method": "rhf"
			},
			{
				"type": "occ",
				"energy": -0.28272,
				"method": "rhf"
			},
			{
				"type": "occ",
				"energy": -0.27527,
				"method": "rhf"
			},
			{
				"type": "occ",
				"energy": -0.27173,
				"method": "rhf"
			},
			{
				"type": "unocc",
				"energy": 0.07358,
				"method": "rhf"
			},
			{
				"type": "unocc",
				"energy": 0.09601,
				"method": "rhf"
			},
			{
				"type": "unocc",
				"energy": 0.09695,
				"method": "rhf"
			},
			{
				"type": "unocc",
				"energy": 0.1039,
				"method": "rhf"
			},
			{
				"type": "unocc",
				"energy": 0.11194,
				"method": "rhf"
			}
		],
		"cosmo_sigma_profile": { 
			"-0.025": 0.0,
			"-0.024": 0.0,
			"-0.023": 0.0,
			"-0.022": 0.0,
			"-0.021": 0.0,
			"-0.02": 0.0,
			"-0.019": 0.0,
			"-0.018": 0.0,
			"-0.017": 0.0,
			"-0.016": 0.0,
			"-0.015": 0.0,
			"-0.014": 0.0,
			"-0.013": 0.0,
			"-0.012": 0.0,
			"-0.011": 0.0,
			"-0.01": 0.0,
			"-0.009": 0.0,
			"-0.008": 0.0,
			"-0.007": 0.0,
			"-0.006": 0.0,
			"-0.005": 0.0,
			"-0.004": 0.0,
			"-0.003": 2.3152122913,
			"-0.002": 31.1553904409,
			"-0.001": 67.8085329041,
			"0.0": 82.2887391099,
			"0.001": 60.2037076009,
			"0.002": 34.8814235732,
			"0.003": 2.72395256058,
			"0.004": 0.0,
			"0.005": 0.0,
			"0.006": 0.0,
			"0.007": 0.0,
			"0.008": 0.0,
			"0.009": 0.0,
			"0.01": 0.0,
			"0.011": 0.0,
			"0.012": 0.0,
			"0.013": 0.0,
			"0.014": 0.0,
			"0.015": 0.0,
			"0.016": 0.0,
			"0.017": 0.0,
			"0.018": 0.0,
			"0.019": 0.0,
			"0.02": 0.0,
			"0.021": 0.0,
			"0.022": 0.0,
			"0.023": 0.0,
			"0.024": 0.0,
			"0.025": 0.0
		}
	}
}
