{
	 "smiles": "NC1=C(C=C(Br)C=N1)[N+]([O-])=O", 
	 "Tm": 382.15, 
	 "num_atms": 15, 
	 "gaussian": { 
		 "optdone": 1, 
		 "sigma_profile": "yes", 
		 "theory": "DFT", 
		 "functional": "B3LYP", 
		 "basiset": "6-31G**", 
		 "properties": { 
			 "R2extent": 3120.0627, 
			 "electric_dipole_moment_norm": 2.79850487404, 
			 "electric_quadrupole_moment_norm": 10.9558595021, 
			 "total_energy": -3078.95389649, 
			 "HOMO_LUMO_gap": 0.13831, 
			 "cosmo_polarized_energy": -9.55, 
			 "cosmo_cavitation_energy": 22.52, 
			 "cosmo_dispersion_energy": -17.55, 
			 "cosmo_repulsion_energy": 1.41, 
			 "cosmo_total_nonelectrostatic_energy": 6.38, 
			 "SMD_solvation_energy": 3.46 
		},
		"coords": [
			{
				"x": 1.5047463618,
				"y": 0.4997789953,
				"z": -2.5092165955,
				"element": "N" 
			},
			{
				"x": 1.2277188619,
				"y": 0.4215073556,
				"z": -1.194767765,
				"element": "C" 
			},
			{
				"x": 0.6206961784,
				"y": -0.7056218429,
				"z": -0.5655861972,
				"element": "C" 
			},
			{
				"x": 0.3769573137,
				"y": -0.6835645197,
				"z": 0.8101576424,
				"element": "C" 
			},
			{
				"x": 0.7333521207,
				"y": 0.4399970644,
				"z": 1.5310017859,
				"element": "C" 
			},
			{
				"x": 0.4367519529,
				"y": 0.5514166409,
				"z": 3.4064942252,
				"element": "Br" 
			},
			{
				"x": 1.3264115001,
				"y": 1.5129816213,
				"z": 0.8468676334,
				"element": "C" 
			},
			{
				"x": 1.5634793136,
				"y": 1.5063813996,
				"z": -0.4549926692,
				"element": "N" 
			},
			{
				"x": 0.2362330001,
				"y": -1.8970479942,
				"z": -1.2956602932,
				"element": "N" 
			},
			{
				"x": -0.2816001496,
				"y": -2.8222975192,
				"z": -0.6715803193,
				"element": "O" 
			},
			{
				"x": 0.4458814188,
				"y": -1.9330995079,
				"z": -2.5210374787,
				"element": "O" 
			},
			{
				"x": 1.9347307023,
				"y": 1.348482415,
				"z": -2.8412946028,
				"element": "H" 
			},
			{
				"x": 1.2763370595,
				"y": -0.2779791558,
				"z": -3.1100374703,
				"element": "H" 
			},
			{
				"x": -0.0842326851,
				"y": -1.546953502,
				"z": 1.2717420099,
				"element": "H" 
			},
			{
				"x": 1.6161370507,
				"y": 2.4098185495,
				"z": 1.3898100944,
				"element": "H" 
			}
		],
		 "valence_orbital": [ 
			{
				"type": "occ",
				"energy": -0.31065,
				"method": "rhf"
			},
			{
				"type": "occ",
				"energy": -0.30519,
				"method": "rhf"
			},
			{
				"type": "occ",
				"energy": -0.30104,
				"method": "rhf"
			},
			{
				"type": "occ",
				"energy": -0.28814,
				"method": "rhf"
			},
			{
				"type": "occ",
				"energy": -0.23878,
				"method": "rhf"
			},
			{
				"type": "unocc",
				"energy": -0.10047,
				"method": "rhf"
			},
			{
				"type": "unocc",
				"energy": -0.03582,
				"method": "rhf"
			},
			{
				"type": "unocc",
				"energy": -0.01234,
				"method": "rhf"
			},
			{
				"type": "unocc",
				"energy": -0.00768,
				"method": "rhf"
			},
			{
				"type": "unocc",
				"energy": 0.08425,
				"method": "rhf"
			}
		],
		"cosmo_sigma_profile": { 
			"-0.025": 0.0,
			"-0.024": 0.0,
			"-0.023": 0.0,
			"-0.022": 0.0,
			"-0.021": 0.0,
			"-0.02": 0.0,
			"-0.019": 0.0,
			"-0.018": 0.0,
			"-0.017": 0.0,
			"-0.016": 0.0,
			"-0.015": 0.523434700042,
			"-0.014": 1.19142734087,
			"-0.013": 0.985574984284,
			"-0.012": 1.3240631349,
			"-0.011": 1.49347435472,
			"-0.01": 2.54033845146,
			"-0.009": 2.41737366018,
			"-0.008": 3.94525108979,
			"-0.007": 4.24355598893,
			"-0.006": 6.36600307853,
			"-0.005": 8.12226651591,
			"-0.004": 9.21614699488,
			"-0.003": 15.3052539129,
			"-0.002": 15.8910723256,
			"-0.001": 16.7374107367,
			"0.0": 13.1217495263,
			"0.001": 11.1342307223,
			"0.002": 11.2793070483,
			"0.003": 12.3689962871,
			"0.004": 12.6844079773,
			"0.005": 4.32091755045,
			"0.006": 5.23537905775,
			"0.007": 5.77619278084,
			"0.008": 6.89684312688,
			"0.009": 5.26011549857,
			"0.01": 3.77669138419,
			"0.011": 1.16938474162,
			"0.012": 0.972681042475,
			"0.013": 0.368299958174,
			"0.014": 0.0,
			"0.015": 0.0,
			"0.016": 0.0,
			"0.017": 0.0,
			"0.018": 0.0,
			"0.019": 0.0,
			"0.02": 0.0,
			"0.021": 0.0,
			"0.022": 0.0,
			"0.023": 0.0,
			"0.024": 0.0,
			"0.025": 0.0
		}
	}
}
