{
	 "smiles": "ClC1=CC=C(OCC(=O)N2C(=O)SC3=CC=CC=C23)C=C1", 
	 "Tm": 416.15, 
	 "num_atms": 31, 
	 "gaussian": { 
		 "optdone": 1, 
		 "sigma_profile": "yes", 
		 "theory": "DFT", 
		 "functional": "B3LYP", 
		 "basiset": "6-31G**", 
		 "properties": { 
			 "R2extent": 8841.4259, 
			 "electric_dipole_moment_norm": 2.76892741869, 
			 "electric_quadrupole_moment_norm": 15.5477302366, 
			 "total_energy": -1716.43184935, 
			 "HOMO_LUMO_gap": 0.16512, 
			 "cosmo_polarized_energy": -10.97, 
			 "cosmo_cavitation_energy": 39.29, 
			 "cosmo_dispersion_energy": -28.31, 
			 "cosmo_repulsion_energy": 2.11, 
			 "cosmo_total_nonelectrostatic_energy": 13.09, 
			 "SMD_solvation_energy": 7.26 
		},
		"coords": [
			{
				"x": -2.0311493285,
				"y": 1.5629701985,
				"z": 4.1931454747,
				"element": "Cl" 
			},
			{
				"x": -2.1489220916,
				"y": 0.6751118517,
				"z": 2.678720025,
				"element": "C" 
			},
			{
				"x": -2.0732244599,
				"y": 1.3585573122,
				"z": 1.4701089547,
				"element": "C" 
			},
			{
				"x": -2.1640816503,
				"y": 0.6578777782,
				"z": 0.2630951776,
				"element": "C" 
			},
			{
				"x": -2.3348743098,
				"y": -0.7305500776,
				"z": 0.2820103649,
				"element": "C" 
			},
			{
				"x": -2.4450804175,
				"y": -1.5290898479,
				"z": -0.8301366924,
				"element": "O" 
			},
			{
				"x": -2.4903013519,
				"y": -0.9258582534,
				"z": -2.1108558165,
				"element": "C" 
			},
			{
				"x": -1.1237441043,
				"y": -0.4201288389,
				"z": -2.5911458011,
				"element": "C" 
			},
			{
				"x": -0.9783872639,
				"y": 0.7323737313,
				"z": -2.948369473,
				"element": "O" 
			},
			{
				"x": -0.024815452,
				"y": -1.316115281,
				"z": -2.5485970912,
				"element": "N" 
			},
			{
				"x": -0.193199743,
				"y": -2.7279247682,
				"z": -2.5790993644,
				"element": "C" 
			},
			{
				"x": -1.2335863959,
				"y": -3.3265683418,
				"z": -2.6985840408,
				"element": "O" 
			},
			{
				"x": 1.4117604125,
				"y": -3.5240593687,
				"z": -2.4675637974,
				"element": "S" 
			},
			{
				"x": 2.2338364186,
				"y": -1.964646484,
				"z": -2.4606633012,
				"element": "C" 
			},
			{
				"x": 3.608660017,
				"y": -1.755673257,
				"z": -2.392683491,
				"element": "C" 
			},
			{
				"x": 4.0887656871,
				"y": -0.4461394192,
				"z": -2.3997594473,
				"element": "C" 
			},
			{
				"x": 3.197930197,
				"y": 0.626870016,
				"z": -2.4756000871,
				"element": "C" 
			},
			{
				"x": 1.8185063873,
				"y": 0.4228485974,
				"z": -2.5460941351,
				"element": "C" 
			},
			{
				"x": 1.3341846314,
				"y": -0.8880571642,
				"z": -2.534146667,
				"element": "C" 
			},
			{
				"x": -2.4078832591,
				"y": -1.4102360773,
				"z": 1.5057073529,
				"element": "C" 
			},
			{
				"x": -2.3145699889,
				"y": -0.7119930083,
				"z": 2.7034026927,
				"element": "C" 
			},
			{
				"x": -1.9400600215,
				"y": 2.4347187292,
				"z": 1.4614126042,
				"element": "H" 
			},
			{
				"x": -2.0867770418,
				"y": 1.2074758386,
				"z": -0.6671510283,
				"element": "H" 
			},
			{
				"x": -2.8617324121,
				"y": -1.6961743338,
				"z": -2.7864326925,
				"element": "H" 
			},
			{
				"x": -3.1549504967,
				"y": -0.0568656874,
				"z": -2.1343285898,
				"element": "H" 
			},
			{
				"x": 4.2895470845,
				"y": -2.5987040246,
				"z": -2.3354090296,
				"element": "H" 
			},
			{
				"x": 5.1578566495,
				"y": -0.2655743602,
				"z": -2.3494032165,
				"element": "H" 
			},
			{
				"x": 3.5769547515,
				"y": 1.6439214793,
				"z": -2.486493183,
				"element": "H" 
			},
			{
				"x": 1.1362984368,
				"y": 1.2557006753,
				"z": -2.624238572,
				"element": "H" 
			},
			{
				"x": -2.5411929157,
				"y": -2.4867479371,
				"z": 1.4953561104,
				"element": "H" 
			},
			{
				"x": -2.3721679691,
				"y": -1.2367196772,
				"z": 3.6505967601,
				"element": "H" 
			}
		],
		 "valence_orbital": [ 
			{
				"type": "occ",
				"energy": -0.28776,
				"method": "rhf"
			},
			{
				"type": "occ",
				"energy": -0.26638,
				"method": "rhf"
			},
			{
				"type": "occ",
				"energy": -0.25963,
				"method": "rhf"
			},
			{
				"type": "occ",
				"energy": -0.23996,
				"method": "rhf"
			},
			{
				"type": "occ",
				"energy": -0.22656,
				"method": "rhf"
			},
			{
				"type": "unocc",
				"energy": -0.06144,
				"method": "rhf"
			},
			{
				"type": "unocc",
				"energy": -0.02708,
				"method": "rhf"
			},
			{
				"type": "unocc",
				"energy": -0.02035,
				"method": "rhf"
			},
			{
				"type": "unocc",
				"energy": -0.01676,
				"method": "rhf"
			},
			{
				"type": "unocc",
				"energy": -0.00956,
				"method": "rhf"
			}
		],
		"cosmo_sigma_profile": { 
			"-0.025": 0.0,
			"-0.024": 0.0,
			"-0.023": 0.0,
			"-0.022": 0.0,
			"-0.021": 0.0,
			"-0.02": 0.0,
			"-0.019": 0.0,
			"-0.018": 0.0,
			"-0.017": 0.0,
			"-0.016": 0.0,
			"-0.015": 0.0,
			"-0.014": 0.0,
			"-0.013": 0.0,
			"-0.012": 0.0,
			"-0.011": 0.0,
			"-0.01": 0.0,
			"-0.009": 0.609678549684,
			"-0.008": 5.68340798011,
			"-0.007": 13.6160708613,
			"-0.006": 20.3188490635,
			"-0.005": 22.3472962548,
			"-0.004": 19.5408429028,
			"-0.003": 17.3462093881,
			"-0.002": 17.8089856248,
			"-0.001": 23.7049492473,
			"0.0": 24.5997648136,
			"0.001": 27.103114705,
			"0.002": 32.4243668965,
			"0.003": 34.0292445682,
			"0.004": 25.2724069965,
			"0.005": 11.9830016495,
			"0.006": 4.22161447682,
			"0.007": 3.9306816434,
			"0.008": 4.44263221238,
			"0.009": 4.50753596925,
			"0.01": 6.27320829339,
			"0.011": 1.8270989061,
			"0.012": 0.0,
			"0.013": 0.0,
			"0.014": 0.0,
			"0.015": 0.0,
			"0.016": 0.0,
			"0.017": 0.0,
			"0.018": 0.0,
			"0.019": 0.0,
			"0.02": 0.0,
			"0.021": 0.0,
			"0.022": 0.0,
			"0.023": 0.0,
			"0.024": 0.0,
			"0.025": 0.0
		}
	}
}
