{
	 "smiles": "CC1=C(N)C2=C(C=CC=C2)C(Br)=C1", 
	 "Tm": 353.15, 
	 "num_atms": 23, 
	 "gaussian": { 
		 "optdone": 1, 
		 "sigma_profile": "yes", 
		 "theory": "DFT", 
		 "functional": "B3LYP", 
		 "basiset": "6-31G**", 
		 "properties": { 
			 "R2extent": 3859.7579, 
			 "electric_dipole_moment_norm": 3.43606573278, 
			 "electric_quadrupole_moment_norm": 8.48639285562, 
			 "total_energy": -3051.37312272, 
			 "HOMO_LUMO_gap": 0.15355, 
			 "cosmo_polarized_energy": -9.4, 
			 "cosmo_cavitation_energy": 27.76, 
			 "cosmo_dispersion_energy": -21.31, 
			 "cosmo_repulsion_energy": 1.65, 
			 "cosmo_total_nonelectrostatic_energy": 8.1, 
			 "SMD_solvation_energy": 3.22 
		},
		"coords": [
			{
				"x": -0.487976952,
				"y": 1.9466440777,
				"z": 1.9999497839,
				"element": "C" 
			},
			{
				"x": -0.1680394716,
				"y": 1.0533983279,
				"z": 0.8254761615,
				"element": "C" 
			},
			{
				"x": -1.0434544902,
				"y": 0.0408589981,
				"z": 0.4369398016,
				"element": "C" 
			},
			{
				"x": -2.2270103011,
				"y": -0.1807144879,
				"z": 1.1460969925,
				"element": "N" 
			},
			{
				"x": -0.7071124874,
				"y": -0.818472837,
				"z": -0.6638762384,
				"element": "C" 
			},
			{
				"x": 0.5033881103,
				"y": -0.5950063477,
				"z": -1.4067485922,
				"element": "C" 
			},
			{
				"x": 0.7911133163,
				"y": -1.4405078841,
				"z": -2.5111241857,
				"element": "C" 
			},
			{
				"x": -0.0524270555,
				"y": -2.469331253,
				"z": -2.8631220713,
				"element": "C" 
			},
			{
				"x": -1.2252436204,
				"y": -2.7135503131,
				"z": -2.1150887525,
				"element": "C" 
			},
			{
				"x": -1.5379855943,
				"y": -1.9075708964,
				"z": -1.0431688001,
				"element": "C" 
			},
			{
				"x": 1.351751744,
				"y": 0.464157102,
				"z": -0.9828310046,
				"element": "C" 
			},
			{
				"x": 2.9901162167,
				"y": 0.8397282846,
				"z": -1.908416163,
				"element": "Br" 
			},
			{
				"x": 1.0301527855,
				"y": 1.2436881618,
				"z": 0.1010996565,
				"element": "C" 
			},
			{
				"x": 0.3068586077,
				"y": 2.6780603637,
				"z": 2.1637021386,
				"element": "H" 
			},
			{
				"x": -1.4186683279,
				"y": 2.5116226157,
				"z": 1.8466266817,
				"element": "H" 
			},
			{
				"x": -0.6058599175,
				"y": 1.3733568415,
				"z": 2.9283704983,
				"element": "H" 
			},
			{
				"x": -2.5152338353,
				"y": 0.5886655729,
				"z": 1.7334924167,
				"element": "H" 
			},
			{
				"x": -3.0003028612,
				"y": -0.5242946181,
				"z": 0.5941299082,
				"element": "H" 
			},
			{
				"x": 1.7000685207,
				"y": -1.261561663,
				"z": -3.0736746339,
				"element": "H" 
			},
			{
				"x": 0.1911414724,
				"y": -3.1026883026,
				"z": -3.7110628596,
				"element": "H" 
			},
			{
				"x": -1.8752868714,
				"y": -3.5427387779,
				"z": -2.3783313174,
				"element": "H" 
			},
			{
				"x": -2.4209941697,
				"y": -2.1380487351,
				"z": -0.4559205075,
				"element": "H" 
			},
			{
				"x": 1.702705182,
				"y": 2.0387057703,
				"z": 0.4052810867,
				"element": "H" 
			}
		],
		 "valence_orbital": [ 
			{
				"type": "occ",
				"energy": -0.27717,
				"method": "rhf"
			},
			{
				"type": "occ",
				"energy": -0.2742,
				"method": "rhf"
			},
			{
				"type": "occ",
				"energy": -0.25532,
				"method": "rhf"
			},
			{
				"type": "occ",
				"energy": -0.24268,
				"method": "rhf"
			},
			{
				"type": "occ",
				"energy": -0.19051,
				"method": "rhf"
			},
			{
				"type": "unocc",
				"energy": -0.03696,
				"method": "rhf"
			},
			{
				"type": "unocc",
				"energy": -0.01021,
				"method": "rhf"
			},
			{
				"type": "unocc",
				"energy": 0.01846,
				"method": "rhf"
			},
			{
				"type": "unocc",
				"energy": 0.04026,
				"method": "rhf"
			},
			{
				"type": "unocc",
				"energy": 0.06759,
				"method": "rhf"
			}
		],
		"cosmo_sigma_profile": { 
			"-0.025": 0.0,
			"-0.024": 0.0,
			"-0.023": 0.0,
			"-0.022": 0.0,
			"-0.021": 0.0,
			"-0.02": 0.0,
			"-0.019": 0.0,
			"-0.018": 0.0,
			"-0.017": 0.0,
			"-0.016": 0.0,
			"-0.015": 0.0,
			"-0.014": 0.0,
			"-0.013": 0.55207389177,
			"-0.012": 2.03835193165,
			"-0.011": 2.40337670666,
			"-0.01": 3.14704469782,
			"-0.009": 2.72085996902,
			"-0.008": 2.67050524203,
			"-0.007": 3.37187036944,
			"-0.006": 8.40796993181,
			"-0.005": 12.2935857159,
			"-0.004": 15.6678793823,
			"-0.003": 14.8594765443,
			"-0.002": 13.5282654193,
			"-0.001": 14.6429108647,
			"0.0": 15.880520069,
			"0.001": 13.4543139817,
			"0.002": 14.9173868488,
			"0.003": 22.8176259901,
			"0.004": 31.2015153089,
			"0.005": 21.5667927169,
			"0.006": 3.86146184935,
			"0.007": 1.06425135498,
			"0.008": 0.405141187206,
			"0.009": 0.421032186938,
			"0.01": 0.48770208195,
			"0.011": 1.15548557464,
			"0.012": 0.371509961011,
			"0.013": 0.502539115973,
			"0.014": 0.341292484178,
			"0.015": 0.0198246986082,
			"0.016": 0.0,
			"0.017": 0.0,
			"0.018": 0.0,
			"0.019": 0.0,
			"0.02": 0.0,
			"0.021": 0.0,
			"0.022": 0.0,
			"0.023": 0.0,
			"0.024": 0.0,
			"0.025": 0.0
		}
	}
}
