{
	 "smiles": "CCCCC(C)C(C)C", 
	 "Tm": 157.15, 
	 "num_atms": 29, 
	 "gaussian": { 
		 "optdone": 1, 
		 "sigma_profile": "yes", 
		 "theory": "DFT", 
		 "functional": "B3LYP", 
		 "basiset": "6-31G**", 
		 "properties": { 
			 "R2extent": 2200.8931, 
			 "electric_dipole_moment_norm": 0.0823337719287, 
			 "electric_quadrupole_moment_norm": 0.473000422833, 
			 "total_energy": -355.037497316, 
			 "HOMO_LUMO_gap": 0.36435, 
			 "cosmo_polarized_energy": -0.76, 
			 "cosmo_cavitation_energy": 28.07, 
			 "cosmo_dispersion_energy": -19.7, 
			 "cosmo_repulsion_energy": 1.63, 
			 "cosmo_total_nonelectrostatic_energy": 10.0, 
			 "SMD_solvation_energy": 4.63 
		},
		"coords": [
			{
				"x": -1.4218093709,
				"y": 2.8433338077,
				"z": -0.4885505629,
				"element": "C" 
			},
			{
				"x": -2.2768512652,
				"y": 1.6102406607,
				"z": -0.8050105819,
				"element": "C" 
			},
			{
				"x": -1.9645548188,
				"y": 0.3769051217,
				"z": 0.0614707024,
				"element": "C" 
			},
			{
				"x": -0.548767022,
				"y": -0.185093892,
				"z": -0.1552203537,
				"element": "C" 
			},
			{
				"x": -0.2134945154,
				"y": -1.5833443168,
				"z": 0.4252880652,
				"element": "C" 
			},
			{
				"x": -1.064256362,
				"y": -2.6917918088,
				"z": -0.2167247004,
				"element": "C" 
			},
			{
				"x": -0.1569797357,
				"y": -1.7130704566,
				"z": 1.9775513936,
				"element": "C" 
			},
			{
				"x": -1.513907067,
				"y": -1.759964148,
				"z": 2.7020698678,
				"element": "C" 
			},
			{
				"x": 0.7557818051,
				"y": -0.6537177716,
				"z": 2.6146390894,
				"element": "C" 
			},
			{
				"x": -0.3594179992,
				"y": 2.6650892187,
				"z": -0.6835429405,
				"element": "H" 
			},
			{
				"x": -1.5211383003,
				"y": 3.1318720782,
				"z": 0.5647061055,
				"element": "H" 
			},
			{
				"x": -1.7269160513,
				"y": 3.7013671574,
				"z": -1.0967778795,
				"element": "H" 
			},
			{
				"x": -3.3356357691,
				"y": 1.8698043387,
				"z": -0.6764903589,
				"element": "H" 
			},
			{
				"x": -2.1562176259,
				"y": 1.3450802318,
				"z": -1.8646401158,
				"element": "H" 
			},
			{
				"x": -2.1076358628,
				"y": 0.6458098554,
				"z": 1.1154186479,
				"element": "H" 
			},
			{
				"x": -2.709528911,
				"y": -0.3972062898,
				"z": -0.1593280887,
				"element": "H" 
			},
			{
				"x": 0.1871404079,
				"y": 0.5358963364,
				"z": 0.2187936396,
				"element": "H" 
			},
			{
				"x": -0.3735117146,
				"y": -0.2451921893,
				"z": -1.2397136651,
				"element": "H" 
			},
			{
				"x": 0.8222949286,
				"y": -1.7695461342,
				"z": 0.1018589635,
				"element": "H" 
			},
			{
				"x": -2.1313217039,
				"y": -2.5825305423,
				"z": -0.0000650932,
				"element": "H" 
			},
			{
				"x": -0.7570150055,
				"y": -3.6802412234,
				"z": 0.1435236603,
				"element": "H" 
			},
			{
				"x": -0.9503214112,
				"y": -2.6856942202,
				"z": -1.3064622473,
				"element": "H" 
			},
			{
				"x": 0.3176553063,
				"y": -2.690224636,
				"z": 2.156132821,
				"element": "H" 
			},
			{
				"x": -2.0442488579,
				"y": -0.8046301209,
				"z": 2.6511555496,
				"element": "H" 
			},
			{
				"x": -2.173704513,
				"y": -2.5307191289,
				"z": 2.2928239815,
				"element": "H" 
			},
			{
				"x": -1.362573917,
				"y": -1.9904632574,
				"z": 3.7627498333,
				"element": "H" 
			},
			{
				"x": 1.7337365787,
				"y": -0.6158268967,
				"z": 2.1211206038,
				"element": "H" 
			},
			{
				"x": 0.9262443663,
				"y": -0.8741639282,
				"z": 3.6741227314,
				"element": "H" 
			},
			{
				"x": 0.3147544068,
				"y": 0.3478221545,
				"z": 2.5580009323,
				"element": "H" 
			}
		],
		 "valence_orbital": [ 
			{
				"type": "occ",
				"energy": -0.32392,
				"method": "rhf"
			},
			{
				"type": "occ",
				"energy": -0.31964,
				"method": "rhf"
			},
			{
				"type": "occ",
				"energy": -0.30273,
				"method": "rhf"
			},
			{
				"type": "occ",
				"energy": -0.29413,
				"method": "rhf"
			},
			{
				"type": "occ",
				"energy": -0.29056,
				"method": "rhf"
			},
			{
				"type": "unocc",
				"energy": 0.07379,
				"method": "rhf"
			},
			{
				"type": "unocc",
				"energy": 0.09961,
				"method": "rhf"
			},
			{
				"type": "unocc",
				"energy": 0.11031,
				"method": "rhf"
			},
			{
				"type": "unocc",
				"energy": 0.11466,
				"method": "rhf"
			},
			{
				"type": "unocc",
				"energy": 0.13754,
				"method": "rhf"
			}
		],
		"cosmo_sigma_profile": { 
			"-0.025": 0.0,
			"-0.024": 0.0,
			"-0.023": 0.0,
			"-0.022": 0.0,
			"-0.021": 0.0,
			"-0.02": 0.0,
			"-0.019": 0.0,
			"-0.018": 0.0,
			"-0.017": 0.0,
			"-0.016": 0.0,
			"-0.015": 0.0,
			"-0.014": 0.0,
			"-0.013": 0.0,
			"-0.012": 0.0,
			"-0.011": 0.0,
			"-0.01": 0.0,
			"-0.009": 0.0,
			"-0.008": 0.0,
			"-0.007": 0.0,
			"-0.006": 0.0,
			"-0.005": 0.0,
			"-0.004": 0.0,
			"-0.003": 3.64452442108,
			"-0.002": 28.0223094352,
			"-0.001": 48.0396270772,
			"0.0": 54.2183505677,
			"0.001": 47.44538089,
			"0.002": 30.6861411946,
			"0.003": 2.33244748222,
			"0.004": 0.0,
			"0.005": 0.0,
			"0.006": 0.0,
			"0.007": 0.0,
			"0.008": 0.0,
			"0.009": 0.0,
			"0.01": 0.0,
			"0.011": 0.0,
			"0.012": 0.0,
			"0.013": 0.0,
			"0.014": 0.0,
			"0.015": 0.0,
			"0.016": 0.0,
			"0.017": 0.0,
			"0.018": 0.0,
			"0.019": 0.0,
			"0.02": 0.0,
			"0.021": 0.0,
			"0.022": 0.0,
			"0.023": 0.0,
			"0.024": 0.0,
			"0.025": 0.0
		}
	}
}
