{
	 "smiles": "CC(=O)[C@@]1(O)CC[C@H]2[C@@H]3C=C(C)C4=CC(=O)CC[C@]4(C)[C@H]3CC[C@]12C", 
	 "Tm": 492.15, 
	 "num_atms": 55, 
	 "gaussian": { 
		 "optdone": 1, 
		 "sigma_profile": "yes", 
		 "theory": "DFT", 
		 "functional": "B3LYP", 
		 "basiset": "6-31G**", 
		 "properties": { 
			 "R2extent": 10034.3046, 
			 "electric_dipole_moment_norm": 2.65785062786, 
			 "electric_quadrupole_moment_norm": 51.0004945963, 
			 "total_energy": -1082.07999116, 
			 "HOMO_LUMO_gap": 0.17057, 
			 "cosmo_polarized_energy": -18.84, 
			 "cosmo_cavitation_energy": 48.92, 
			 "cosmo_dispersion_energy": -33.51, 
			 "cosmo_repulsion_energy": 2.45, 
			 "cosmo_total_nonelectrostatic_energy": 17.86, 
			 "SMD_solvation_energy": 8.47 
		},
		"coords": [
			{
				"x": 3.4793253334,
				"y": 1.7141289147,
				"z": 3.4884479451,
				"element": "C" 
			},
			{
				"x": 3.6274204057,
				"y": 1.3443382415,
				"z": 2.0221316955,
				"element": "C" 
			},
			{
				"x": 4.6311104448,
				"y": 0.7896485561,
				"z": 1.6131556738,
				"element": "O" 
			},
			{
				"x": 2.4642910672,
				"y": 1.7009166998,
				"z": 1.0717533039,
				"element": "C" 
			},
			{
				"x": 1.7491932739,
				"y": 2.8319302269,
				"z": 1.5849216813,
				"element": "O" 
			},
			{
				"x": 2.966197768,
				"y": 2.1160659884,
				"z": -0.3377463019,
				"element": "C" 
			},
			{
				"x": 1.929682781,
				"y": 1.5827682291,
				"z": -1.3685225177,
				"element": "C" 
			},
			{
				"x": 0.7755326837,
				"y": 1.0655932861,
				"z": -0.4954269667,
				"element": "C" 
			},
			{
				"x": -0.2656923226,
				"y": 0.0897360258,
				"z": -1.0705129922,
				"element": "C" 
			},
			{
				"x": -0.8767739406,
				"y": 0.5398117663,
				"z": -2.3705101085,
				"element": "C" 
			},
			{
				"x": -2.1885475205,
				"y": 0.4620513297,
				"z": -2.6754155216,
				"element": "C" 
			},
			{
				"x": -2.7165005909,
				"y": 0.9780750178,
				"z": -3.9933386959,
				"element": "C" 
			},
			{
				"x": -3.1329697563,
				"y": -0.0494735055,
				"z": -1.6609519478,
				"element": "C" 
			},
			{
				"x": -4.4320358678,
				"y": 0.3422984687,
				"z": -1.6528381981,
				"element": "C" 
			},
			{
				"x": -5.323857562,
				"y": 0.1907622153,
				"z": -0.4904255089,
				"element": "C" 
			},
			{
				"x": -6.5027057374,
				"y": 0.5184993015,
				"z": -0.5263171557,
				"element": "O" 
			},
			{
				"x": -4.6418348418,
				"y": -0.2882799687,
				"z": 0.7816703005,
				"element": "C" 
			},
			{
				"x": -3.6260379077,
				"y": -1.3821792271,
				"z": 0.4471043233,
				"element": "C" 
			},
			{
				"x": -2.5435615519,
				"y": -0.9750705792,
				"z": -0.5892170868,
				"element": "C" 
			},
			{
				"x": -2.0712228618,
				"y": -2.2916803198,
				"z": -1.2623478879,
				"element": "C" 
			},
			{
				"x": -1.3395577221,
				"y": -0.17662053,
				"z": 0.0194920947,
				"element": "C" 
			},
			{
				"x": -0.6855575015,
				"y": -0.7566214306,
				"z": 1.2899451823,
				"element": "C" 
			},
			{
				"x": 0.4301018014,
				"y": 0.1675435019,
				"z": 1.8346007982,
				"element": "C" 
			},
			{
				"x": 1.4901411259,
				"y": 0.4904437573,
				"z": 0.7633559443,
				"element": "C" 
			},
			{
				"x": 2.3183310112,
				"y": -0.7788370703,
				"z": 0.4619294808,
				"element": "C" 
			},
			{
				"x": 3.4366623609,
				"y": 2.802505823,
				"z": 3.5968145265,
				"element": "H" 
			},
			{
				"x": 4.3313086815,
				"y": 1.3200088923,
				"z": 4.0433305336,
				"element": "H" 
			},
			{
				"x": 2.5516024066,
				"y": 1.3100064345,
				"z": 3.9125554353,
				"element": "H" 
			},
			{
				"x": 1.2564735858,
				"y": 2.5622003037,
				"z": 2.370565435,
				"element": "H" 
			},
			{
				"x": 3.0420624464,
				"y": 3.2060226374,
				"z": -0.3567593162,
				"element": "H" 
			},
			{
				"x": 3.9629468769,
				"y": 1.7063568276,
				"z": -0.5076210671,
				"element": "H" 
			},
			{
				"x": 2.3607714241,
				"y": 0.777761412,
				"z": -1.9749497508,
				"element": "H" 
			},
			{
				"x": 1.6052838956,
				"y": 2.3647683394,
				"z": -2.0605755896,
				"element": "H" 
			},
			{
				"x": 0.2281185218,
				"y": 1.9519191605,
				"z": -0.1491158947,
				"element": "H" 
			},
			{
				"x": 0.2575481313,
				"y": -0.8559346288,
				"z": -1.2832036365,
				"element": "H" 
			},
			{
				"x": -0.1935108586,
				"y": 0.9506067742,
				"z": -3.1121645621,
				"element": "H" 
			},
			{
				"x": -1.8938366845,
				"y": 1.2410199188,
				"z": -4.6631418543,
				"element": "H" 
			},
			{
				"x": -3.3429115443,
				"y": 0.2310783192,
				"z": -4.4935844773,
				"element": "H" 
			},
			{
				"x": -3.333916764,
				"y": 1.8739150111,
				"z": -3.8586567784,
				"element": "H" 
			},
			{
				"x": -4.8466645803,
				"y": 0.9285180471,
				"z": -2.4674663195,
				"element": "H" 
			},
			{
				"x": -4.151665183,
				"y": 0.5798435743,
				"z": 1.2450935605,
				"element": "H" 
			},
			{
				"x": -5.4042722504,
				"y": -0.6408008312,
				"z": 1.4816727349,
				"element": "H" 
			},
			{
				"x": -3.1512273041,
				"y": -1.7625606816,
				"z": 1.3559439503,
				"element": "H" 
			},
			{
				"x": -4.183044909,
				"y": -2.2301808557,
				"z": 0.0301541988,
				"element": "H" 
			},
			{
				"x": -1.3159552071,
				"y": -2.1306239785,
				"z": -2.0326933971,
				"element": "H" 
			},
			{
				"x": -1.6607361683,
				"y": -2.9771602359,
				"z": -0.5127371911,
				"element": "H" 
			},
			{
				"x": -2.9213870742,
				"y": -2.7919779469,
				"z": -1.7358726433,
				"element": "H" 
			},
			{
				"x": -1.7412499265,
				"y": 0.8095236396,
				"z": 0.2999824387,
				"element": "H" 
			},
			{
				"x": -1.4330401288,
				"y": -0.8814181705,
				"z": 2.079614787,
				"element": "H" 
			},
			{
				"x": -0.2807052425,
				"y": -1.7558492655,
				"z": 1.0903578165,
				"element": "H" 
			},
			{
				"x": -0.0533415526,
				"y": 1.0947585315,
				"z": 2.1725327967,
				"element": "H" 
			},
			{
				"x": 0.8872363775,
				"y": -0.2990935517,
				"z": 2.7169421139,
				"element": "H" 
			},
			{
				"x": 1.6978062416,
				"y": -1.5750091305,
				"z": 0.0449613245,
				"element": "H" 
			},
			{
				"x": 3.1356741214,
				"y": -0.5920013094,
				"z": -0.2361316413,
				"element": "H" 
			},
			{
				"x": 2.7713982957,
				"y": -1.1685519556,
				"z": 1.3780149331,
				"element": "H" 
			}
		],
		 "valence_orbital": [ 
			{
				"type": "occ",
				"energy": -0.29544,
				"method": "rhf"
			},
			{
				"type": "occ",
				"energy": -0.27814,
				"method": "rhf"
			},
			{
				"type": "occ",
				"energy": -0.23987,
				"method": "rhf"
			},
			{
				"type": "occ",
				"energy": -0.23212,
				"method": "rhf"
			},
			{
				"type": "occ",
				"energy": -0.22923,
				"method": "rhf"
			},
			{
				"type": "unocc",
				"energy": -0.05866,
				"method": "rhf"
			},
			{
				"type": "unocc",
				"energy": -0.02333,
				"method": "rhf"
			},
			{
				"type": "unocc",
				"energy": 0.02387,
				"method": "rhf"
			},
			{
				"type": "unocc",
				"energy": 0.05126,
				"method": "rhf"
			},
			{
				"type": "unocc",
				"energy": 0.06661,
				"method": "rhf"
			}
		],
		"cosmo_sigma_profile": { 
			"-0.025": 0.0,
			"-0.024": 0.0,
			"-0.023": 0.0,
			"-0.022": 0.0,
			"-0.021": 0.0,
			"-0.02": 0.0,
			"-0.019": 0.0,
			"-0.018": 0.0,
			"-0.017": 0.0,
			"-0.016": 0.0,
			"-0.015": 0.0722017793817,
			"-0.014": 0.570922379369,
			"-0.013": 0.967868628103,
			"-0.012": 1.13315040922,
			"-0.011": 1.55634408835,
			"-0.01": 1.01473320049,
			"-0.009": 0.840954193377,
			"-0.008": 0.648744155534,
			"-0.007": 1.57588910213,
			"-0.006": 4.15549237158,
			"-0.005": 12.5930820318,
			"-0.004": 31.1927913718,
			"-0.003": 54.8693586926,
			"-0.002": 59.0876989847,
			"-0.001": 50.4463503217,
			"0.0": 42.4213122689,
			"0.001": 30.6933239456,
			"0.002": 14.2575864684,
			"0.003": 9.83562586445,
			"0.004": 8.48720065935,
			"0.005": 5.47121295782,
			"0.006": 3.84389549455,
			"0.007": 5.48176055474,
			"0.008": 3.86111410586,
			"0.009": 3.51609990359,
			"0.01": 4.54972008008,
			"0.011": 5.67854084719,
			"0.012": 7.89368699719,
			"0.013": 7.33931064386,
			"0.014": 3.63563576678,
			"0.015": 0.682073571489,
			"0.016": 0.0,
			"0.017": 0.0,
			"0.018": 0.0,
			"0.019": 0.0,
			"0.02": 0.0,
			"0.021": 0.0,
			"0.022": 0.0,
			"0.023": 0.0,
			"0.024": 0.0,
			"0.025": 0.0
		}
	}
}
