{
	 "smiles": "NC(=O)N1CCC(CC1)C(O)=O", 
	 "Tm": 467.15, 
	 "num_atms": 24, 
	 "gaussian": { 
		 "optdone": 1, 
		 "sigma_profile": "yes", 
		 "theory": "DFT", 
		 "functional": "B3LYP", 
		 "basiset": "6-31G**", 
		 "properties": { 
			 "R2extent": 2504.5812, 
			 "electric_dipole_moment_norm": 3.06557370324, 
			 "electric_quadrupole_moment_norm": 17.4773200517, 
			 "total_energy": -609.192405683, 
			 "HOMO_LUMO_gap": 0.22881, 
			 "cosmo_polarized_energy": -18.7, 
			 "cosmo_cavitation_energy": 26.36, 
			 "cosmo_dispersion_energy": -19.43, 
			 "cosmo_repulsion_energy": 1.57, 
			 "cosmo_total_nonelectrostatic_energy": 8.49, 
			 "SMD_solvation_energy": 5.39 
		},
		"coords": [
			{
				"x": -3.1423550411,
				"y": 0.262409052,
				"z": 1.4461522009,
				"element": "N" 
			},
			{
				"x": -1.805895668,
				"y": 0.4647790548,
				"z": 1.7939766216,
				"element": "C" 
			},
			{
				"x": -1.4910076652,
				"y": 1.058485939,
				"z": 2.8221709895,
				"element": "O" 
			},
			{
				"x": -0.8819379405,
				"y": -0.0836545043,
				"z": 0.9333450289,
				"element": "N" 
			},
			{
				"x": -1.2412912161,
				"y": -0.9176388838,
				"z": -0.2176408949,
				"element": "C" 
			},
			{
				"x": -0.0755820678,
				"y": -1.8340294349,
				"z": -0.5999989552,
				"element": "C" 
			},
			{
				"x": 1.2094806114,
				"y": -1.0491883264,
				"z": -0.9376415685,
				"element": "C" 
			},
			{
				"x": 1.3060508152,
				"y": 0.2710294409,
				"z": -0.1104828864,
				"element": "C" 
			},
			{
				"x": 0.5365606203,
				"y": 0.1544806582,
				"z": 1.2055140301,
				"element": "C" 
			},
			{
				"x": 1.2988064765,
				"y": -0.7296528911,
				"z": -2.4183031001,
				"element": "C" 
			},
			{
				"x": 2.5156282072,
				"y": -0.2307248628,
				"z": -2.7451812633,
				"element": "O" 
			},
			{
				"x": 0.4129758082,
				"y": -0.8648460188,
				"z": -3.2357477842,
				"element": "O" 
			},
			{
				"x": -3.3881895947,
				"y": 0.2696541632,
				"z": 0.4658939862,
				"element": "H" 
			},
			{
				"x": -3.7537963681,
				"y": 0.8226393912,
				"z": 2.02353806,
				"element": "H" 
			},
			{
				"x": -1.5159056864,
				"y": -0.3045081234,
				"z": -1.0905263379,
				"element": "H" 
			},
			{
				"x": -2.1113949836,
				"y": -1.5279057602,
				"z": 0.0445599599,
				"element": "H" 
			},
			{
				"x": 0.1270859299,
				"y": -2.5105686416,
				"z": 0.2366293074,
				"element": "H" 
			},
			{
				"x": -0.3733953068,
				"y": -2.4463070061,
				"z": -1.4546787896,
				"element": "H" 
			},
			{
				"x": 2.0823979286,
				"y": -1.6673600538,
				"z": -0.6975688704,
				"element": "H" 
			},
			{
				"x": 2.3533296496,
				"y": 0.5191847181,
				"z": 0.0809268732,
				"element": "H" 
			},
			{
				"x": 0.8821227099,
				"y": 1.1049315177,
				"z": -0.6823243994,
				"element": "H" 
			},
			{
				"x": 0.6066866686,
				"y": 1.0731945934,
				"z": 1.7897257553,
				"element": "H" 
			},
			{
				"x": 0.9604809873,
				"y": -0.6490450937,
				"z": 1.8267782965,
				"element": "H" 
			},
			{
				"x": 2.4796451257,
				"y": -0.0253589275,
				"z": -3.6947162598,
				"element": "H" 
			}
		],
		 "valence_orbital": [ 
			{
				"type": "occ",
				"energy": -0.32629,
				"method": "rhf"
			},
			{
				"type": "occ",
				"energy": -0.28166,
				"method": "rhf"
			},
			{
				"type": "occ",
				"energy": -0.26614,
				"method": "rhf"
			},
			{
				"type": "occ",
				"energy": -0.24315,
				"method": "rhf"
			},
			{
				"type": "occ",
				"energy": -0.22718,
				"method": "rhf"
			},
			{
				"type": "unocc",
				"energy": 0.00163,
				"method": "rhf"
			},
			{
				"type": "unocc",
				"energy": 0.06065,
				"method": "rhf"
			},
			{
				"type": "unocc",
				"energy": 0.0688,
				"method": "rhf"
			},
			{
				"type": "unocc",
				"energy": 0.07883,
				"method": "rhf"
			},
			{
				"type": "unocc",
				"energy": 0.08594,
				"method": "rhf"
			}
		],
		"cosmo_sigma_profile": { 
			"-0.025": 0.0,
			"-0.024": 0.0,
			"-0.023": 0.0,
			"-0.022": 0.0,
			"-0.021": 0.0,
			"-0.02": 0.0,
			"-0.019": 0.00409124982068,
			"-0.018": 0.757645393818,
			"-0.017": 0.806301021323,
			"-0.016": 0.829825200627,
			"-0.015": 0.69118545612,
			"-0.014": 0.612955478871,
			"-0.013": 1.71814552506,
			"-0.012": 3.19873602721,
			"-0.011": 2.72846217786,
			"-0.01": 4.01565381687,
			"-0.009": 3.18029666887,
			"-0.008": 2.22450120003,
			"-0.007": 2.98963622178,
			"-0.006": 5.17819342647,
			"-0.005": 13.0925382294,
			"-0.004": 23.7948839776,
			"-0.003": 23.4106560907,
			"-0.002": 18.0896869224,
			"-0.001": 12.2949636057,
			"0.0": 8.23900549925,
			"0.001": 7.68548301071,
			"0.002": 6.92791729591,
			"0.003": 5.89777492617,
			"0.004": 4.38191659703,
			"0.005": 5.96715727104,
			"0.006": 5.8922553602,
			"0.007": 4.89531307002,
			"0.008": 4.33874415665,
			"0.009": 3.82778915615,
			"0.01": 3.90460884245,
			"0.011": 5.81405943062,
			"0.012": 6.19315202886,
			"0.013": 1.69958720245,
			"0.014": 3.14650480754,
			"0.015": 5.88250058111,
			"0.016": 0.68459211732,
			"0.017": 0.0,
			"0.018": 0.0,
			"0.019": 0.0,
			"0.02": 0.0,
			"0.021": 0.0,
			"0.022": 0.0,
			"0.023": 0.0,
			"0.024": 0.0,
			"0.025": 0.0
		}
	}
}
