{
	 "smiles": "CCC1=CC=C(O)C=C1O", 
	 "Tm": 370.95, 
	 "num_atms": 20, 
	 "gaussian": { 
		 "optdone": 1, 
		 "sigma_profile": "yes", 
		 "theory": "DFT", 
		 "functional": "B3LYP", 
		 "basiset": "6-31G**", 
		 "properties": { 
			 "R2extent": 1717.5383, 
			 "electric_dipole_moment_norm": 0.871768375201, 
			 "electric_quadrupole_moment_norm": 7.70609112067, 
			 "total_energy": -461.32624842, 
			 "HOMO_LUMO_gap": 0.21544, 
			 "cosmo_polarized_energy": -11.4, 
			 "cosmo_cavitation_energy": 23.15, 
			 "cosmo_dispersion_energy": -17.35, 
			 "cosmo_repulsion_energy": 1.41, 
			 "cosmo_total_nonelectrostatic_energy": 7.21, 
			 "SMD_solvation_energy": 4.53 
		},
		"coords": [
			{
				"x": 0.551893199,
				"y": 2.9101368096,
				"z": -2.1232079392,
				"element": "C" 
			},
			{
				"x": 0.9697036842,
				"y": 2.0712949453,
				"z": -0.9135810505,
				"element": "C" 
			},
			{
				"x": 0.0491424799,
				"y": 0.9189936124,
				"z": -0.5613666471,
				"element": "C" 
			},
			{
				"x": -1.1147597199,
				"y": 0.6037551249,
				"z": -1.2629212259,
				"element": "C" 
			},
			{
				"x": -1.9389504477,
				"y": -0.4682584638,
				"z": -0.9068316573,
				"element": "C" 
			},
			{
				"x": -1.594802544,
				"y": -1.2594945788,
				"z": 0.1892588204,
				"element": "C" 
			},
			{
				"x": -2.3444010927,
				"y": -2.3260380603,
				"z": 0.6050774582,
				"element": "O" 
			},
			{
				"x": -0.4356245882,
				"y": -0.9746912453,
				"z": 0.917177685,
				"element": "C" 
			},
			{
				"x": 0.3683879487,
				"y": 0.099567912,
				"z": 0.5412228845,
				"element": "C" 
			},
			{
				"x": 1.5118914975,
				"y": 0.4126409968,
				"z": 1.227126443,
				"element": "O" 
			},
			{
				"x": 1.2759461136,
				"y": 3.7123167463,
				"z": -2.2955171009,
				"element": "H" 
			},
			{
				"x": -0.4283131727,
				"y": 3.3760453642,
				"z": -1.9749878113,
				"element": "H" 
			},
			{
				"x": 0.5021891431,
				"y": 2.3080561529,
				"z": -3.0369199365,
				"element": "H" 
			},
			{
				"x": 1.9806849222,
				"y": 1.6750280999,
				"z": -1.0775160607,
				"element": "H" 
			},
			{
				"x": 1.0674965739,
				"y": 2.7231516439,
				"z": -0.0352219066,
				"element": "H" 
			},
			{
				"x": -1.3970788931,
				"y": 1.209013967,
				"z": -2.1181292496,
				"element": "H" 
			},
			{
				"x": -2.8388484738,
				"y": -0.6828380377,
				"z": -1.4785165124,
				"element": "H" 
			},
			{
				"x": -3.1099724973,
				"y": -2.4131415637,
				"z": 0.0227730954,
				"element": "H" 
			},
			{
				"x": -0.1794160094,
				"y": -1.5993364623,
				"z": 1.7688984424,
				"element": "H" 
			},
			{
				"x": 1.6236318768,
				"y": -0.2134029633,
				"z": 1.953882269,
				"element": "H" 
			}
		],
		 "valence_orbital": [ 
			{
				"type": "occ",
				"energy": -0.3341,
				"method": "rhf"
			},
			{
				"type": "occ",
				"energy": -0.33007,
				"method": "rhf"
			},
			{
				"type": "occ",
				"energy": -0.3028,
				"method": "rhf"
			},
			{
				"type": "occ",
				"energy": -0.22873,
				"method": "rhf"
			},
			{
				"type": "occ",
				"energy": -0.20358,
				"method": "rhf"
			},
			{
				"type": "unocc",
				"energy": 0.01186,
				"method": "rhf"
			},
			{
				"type": "unocc",
				"energy": 0.02628,
				"method": "rhf"
			},
			{
				"type": "unocc",
				"energy": 0.07272,
				"method": "rhf"
			},
			{
				"type": "unocc",
				"energy": 0.07544,
				"method": "rhf"
			},
			{
				"type": "unocc",
				"energy": 0.10423,
				"method": "rhf"
			}
		],
		"cosmo_sigma_profile": { 
			"-0.025": 0.0,
			"-0.024": 0.0,
			"-0.023": 0.0,
			"-0.022": 0.0,
			"-0.021": 0.0,
			"-0.02": 0.0,
			"-0.019": 0.0,
			"-0.018": 0.376913607623,
			"-0.017": 1.72998004131,
			"-0.016": 2.3312556606,
			"-0.015": 2.22229690924,
			"-0.014": 1.31856724008,
			"-0.013": 2.35596925283,
			"-0.012": 1.87428049547,
			"-0.011": 1.14019345885,
			"-0.01": 1.76515689048,
			"-0.009": 2.98675721628,
			"-0.008": 2.01109267117,
			"-0.007": 2.73624878861,
			"-0.006": 2.85498335944,
			"-0.005": 4.14059896914,
			"-0.004": 5.25398244699,
			"-0.003": 13.3099667053,
			"-0.002": 14.3447503439,
			"-0.001": 15.0908140145,
			"0.0": 17.1315808519,
			"0.001": 14.3504514936,
			"0.002": 8.91974691847,
			"0.003": 7.73129736221,
			"0.004": 12.1315316746,
			"0.005": 13.2891698518,
			"0.006": 10.676512307,
			"0.007": 6.79780089293,
			"0.008": 2.55340773861,
			"0.009": 2.83751988886,
			"0.01": 3.6065465227,
			"0.011": 2.94924876213,
			"0.012": 1.14579153544,
			"0.013": 0.0,
			"0.014": 0.0,
			"0.015": 0.0,
			"0.016": 0.0,
			"0.017": 0.0,
			"0.018": 0.0,
			"0.019": 0.0,
			"0.02": 0.0,
			"0.021": 0.0,
			"0.022": 0.0,
			"0.023": 0.0,
			"0.024": 0.0,
			"0.025": 0.0
		}
	}
}
