{
	 "smiles": "NC1=CC2=NSN=C2C=C1", 
	 "Tm": 386.15, 
	 "num_atms": 15, 
	 "gaussian": { 
		 "optdone": 1, 
		 "sigma_profile": "yes", 
		 "theory": "DFT", 
		 "functional": "B3LYP", 
		 "basiset": "6-31G**", 
		 "properties": { 
			 "R2extent": 2472.8968, 
			 "electric_dipole_moment_norm": 4.10180667633, 
			 "electric_quadrupole_moment_norm": 8.80787648869, 
			 "total_energy": -794.072503914, 
			 "HOMO_LUMO_gap": 0.13697, 
			 "cosmo_polarized_energy": -11.62, 
			 "cosmo_cavitation_energy": 20.92, 
			 "cosmo_dispersion_energy": -16.72, 
			 "cosmo_repulsion_energy": 1.28, 
			 "cosmo_total_nonelectrostatic_energy": 5.49, 
			 "SMD_solvation_energy": 0.23 
		},
		"coords": [
			{
				"x": 0.2413690016,
				"y": 2.2886648225,
				"z": 1.4351161619,
				"element": "N" 
			},
			{
				"x": 0.0914776128,
				"y": 0.9076827447,
				"z": 1.463595711,
				"element": "C" 
			},
			{
				"x": 1.0711327815,
				"y": 0.0542355925,
				"z": 0.9952936587,
				"element": "C" 
			},
			{
				"x": 0.8167134555,
				"y": -1.342678384,
				"z": 0.9961611758,
				"element": "C" 
			},
			{
				"x": 1.6548053393,
				"y": -2.3012462124,
				"z": 0.5791904388,
				"element": "N" 
			},
			{
				"x": 0.8707434287,
				"y": -3.7348272137,
				"z": 0.8082826061,
				"element": "S" 
			},
			{
				"x": -0.5491265031,
				"y": -3.19152741,
				"z": 1.4422647019,
				"element": "N" 
			},
			{
				"x": -0.4469812819,
				"y": -1.8610086869,
				"z": 1.4920249862,
				"element": "C" 
			},
			{
				"x": -1.4385569072,
				"y": -0.954292049,
				"z": 1.9726931738,
				"element": "C" 
			},
			{
				"x": -1.165133628,
				"y": 0.3831347173,
				"z": 1.9491765803,
				"element": "C" 
			},
			{
				"x": -0.2917363225,
				"y": 2.8094804509,
				"z": 2.1167215966,
				"element": "H" 
			},
			{
				"x": 1.1869047319,
				"y": 2.6296660727,
				"z": 1.3344892228,
				"element": "H" 
			},
			{
				"x": 2.0215944452,
				"y": 0.4258516635,
				"z": 0.6268012919,
				"element": "H" 
			},
			{
				"x": -2.3833658162,
				"y": -1.3378427823,
				"z": 2.3417521081,
				"element": "H" 
			},
			{
				"x": -1.9113403376,
				"y": 1.0930066741,
				"z": 2.2975365861,
				"element": "H" 
			}
		],
		 "valence_orbital": [ 
			{
				"type": "occ",
				"energy": -0.31089,
				"method": "rhf"
			},
			{
				"type": "occ",
				"energy": -0.30211,
				"method": "rhf"
			},
			{
				"type": "occ",
				"energy": -0.28819,
				"method": "rhf"
			},
			{
				"type": "occ",
				"energy": -0.24768,
				"method": "rhf"
			},
			{
				"type": "occ",
				"energy": -0.21037,
				"method": "rhf"
			},
			{
				"type": "unocc",
				"energy": -0.0734,
				"method": "rhf"
			},
			{
				"type": "unocc",
				"energy": 0.01414,
				"method": "rhf"
			},
			{
				"type": "unocc",
				"energy": 0.02144,
				"method": "rhf"
			},
			{
				"type": "unocc",
				"energy": 0.02584,
				"method": "rhf"
			},
			{
				"type": "unocc",
				"energy": 0.07087,
				"method": "rhf"
			}
		],
		"cosmo_sigma_profile": { 
			"-0.025": 0.0,
			"-0.024": 0.0,
			"-0.023": 0.0,
			"-0.022": 0.0,
			"-0.021": 0.0,
			"-0.02": 0.0,
			"-0.019": 0.0,
			"-0.018": 0.0,
			"-0.017": 0.0,
			"-0.016": 0.0,
			"-0.015": 0.0,
			"-0.014": 0.186687483958,
			"-0.013": 2.40593013532,
			"-0.012": 3.62163611069,
			"-0.011": 2.93936351287,
			"-0.01": 3.34314716315,
			"-0.009": 2.86021296194,
			"-0.008": 3.74258729108,
			"-0.007": 6.2595226359,
			"-0.006": 5.83726556207,
			"-0.005": 5.68078715883,
			"-0.004": 5.85950460241,
			"-0.003": 8.0294098949,
			"-0.002": 10.0980448374,
			"-0.001": 11.8202770739,
			"0.0": 16.3085953946,
			"0.001": 16.4732046495,
			"0.002": 12.6952873155,
			"0.003": 13.021444954,
			"0.004": 9.19013925818,
			"0.005": 5.54045933507,
			"0.006": 3.44847003635,
			"0.007": 2.21201142037,
			"0.008": 4.02660517789,
			"0.009": 3.18449594896,
			"0.01": 2.91499954122,
			"0.011": 2.36999708403,
			"0.012": 2.68745421227,
			"0.013": 2.37849135116,
			"0.014": 1.41473949689,
			"0.015": 0.0903407555965,
			"0.016": 0.0,
			"0.017": 0.0,
			"0.018": 0.0,
			"0.019": 0.0,
			"0.02": 0.0,
			"0.021": 0.0,
			"0.022": 0.0,
			"0.023": 0.0,
			"0.024": 0.0,
			"0.025": 0.0
		}
	}
}
