{
	 "smiles": "CN(C)C1=NN=C(C=C1)C(O)=O", 
	 "Tm": 441.15, 
	 "num_atms": 21, 
	 "gaussian": { 
		 "optdone": 1, 
		 "sigma_profile": "yes", 
		 "theory": "DFT", 
		 "functional": "B3LYP", 
		 "basiset": "6-31G**", 
		 "properties": { 
			 "R2extent": 3640.7633, 
			 "electric_dipole_moment_norm": 6.31579867159, 
			 "electric_quadrupole_moment_norm": 19.3810239559, 
			 "total_energy": -586.840017119, 
			 "HOMO_LUMO_gap": 0.17301, 
			 "cosmo_polarized_energy": -19.37, 
			 "cosmo_cavitation_energy": 25.38, 
			 "cosmo_dispersion_energy": -18.92, 
			 "cosmo_repulsion_energy": 1.51, 
			 "cosmo_total_nonelectrostatic_energy": 7.97, 
			 "SMD_solvation_energy": 4.2 
		},
		"coords": [
			{
				"x": 0.5566186515,
				"y": 0.7198101261,
				"z": 1.6658860694,
				"element": "C" 
			},
			{
				"x": -0.1552201914,
				"y": -0.3323534781,
				"z": 0.960247364,
				"element": "N" 
			},
			{
				"x": -0.992387912,
				"y": -1.2286148349,
				"z": 1.7529154344,
				"element": "C" 
			},
			{
				"x": 0.0932287044,
				"y": -0.5689025574,
				"z": -0.3618595886,
				"element": "C" 
			},
			{
				"x": -0.5741117869,
				"y": -1.6082464188,
				"z": -0.9331672687,
				"element": "N" 
			},
			{
				"x": -0.4161414988,
				"y": -1.8920929149,
				"z": -2.2068107881,
				"element": "N" 
			},
			{
				"x": 0.4135925566,
				"y": -1.1665118546,
				"z": -2.9694953678,
				"element": "C" 
			},
			{
				"x": 1.1498770165,
				"y": -0.0880690288,
				"z": -2.4474826106,
				"element": "C" 
			},
			{
				"x": 0.9958718272,
				"y": 0.2238020107,
				"z": -1.1168050206,
				"element": "C" 
			},
			{
				"x": 0.5059231011,
				"y": -1.5838898945,
				"z": -4.3966391108,
				"element": "C" 
			},
			{
				"x": 1.3743847709,
				"y": -0.7915871168,
				"z": -5.0902858358,
				"element": "O" 
			},
			{
				"x": -0.090767438,
				"y": -2.497292405,
				"z": -4.9190124342,
				"element": "O" 
			},
			{
				"x": 0.1490133733,
				"y": 0.8000714683,
				"z": 2.6746780401,
				"element": "H" 
			},
			{
				"x": 0.4269190532,
				"y": 1.6915841547,
				"z": 1.1754438139,
				"element": "H" 
			},
			{
				"x": 1.6334920112,
				"y": 0.5149363115,
				"z": 1.7494698907,
				"element": "H" 
			},
			{
				"x": -1.7231236177,
				"y": -0.6454370273,
				"z": 2.323847227,
				"element": "H" 
			},
			{
				"x": -1.5122150783,
				"y": -1.9097064998,
				"z": 1.0834209217,
				"element": "H" 
			},
			{
				"x": -0.3859278941,
				"y": -1.8138554449,
				"z": 2.4570014073,
				"element": "H" 
			},
			{
				"x": 1.8226323825,
				"y": 0.4737005734,
				"z": -3.0847169446,
				"element": "H" 
			},
			{
				"x": 1.5503850081,
				"y": 1.039665097,
				"z": -0.6703645923,
				"element": "H" 
			},
			{
				"x": 1.3669569608,
				"y": -1.1363102659,
				"z": -5.9979706064,
				"element": "H" 
			}
		],
		 "valence_orbital": [ 
			{
				"type": "occ",
				"energy": -0.30869,
				"method": "rhf"
			},
			{
				"type": "occ",
				"energy": -0.30487,
				"method": "rhf"
			},
			{
				"type": "occ",
				"energy": -0.26789,
				"method": "rhf"
			},
			{
				"type": "occ",
				"energy": -0.22504,
				"method": "rhf"
			},
			{
				"type": "occ",
				"energy": -0.22091,
				"method": "rhf"
			},
			{
				"type": "unocc",
				"energy": -0.0479,
				"method": "rhf"
			},
			{
				"type": "unocc",
				"energy": -0.03934,
				"method": "rhf"
			},
			{
				"type": "unocc",
				"energy": 0.0588,
				"method": "rhf"
			},
			{
				"type": "unocc",
				"energy": 0.07709,
				"method": "rhf"
			},
			{
				"type": "unocc",
				"energy": 0.08491,
				"method": "rhf"
			}
		],
		"cosmo_sigma_profile": { 
			"-0.025": 0.0,
			"-0.024": 0.0,
			"-0.023": 0.0,
			"-0.022": 0.0,
			"-0.021": 0.0,
			"-0.02": 0.0,
			"-0.019": 0.0810809481253,
			"-0.018": 0.692767359225,
			"-0.017": 0.928890912542,
			"-0.016": 1.29158071911,
			"-0.015": 0.114722860884,
			"-0.014": 0.326634569613,
			"-0.013": 0.424551766223,
			"-0.012": 1.15011678949,
			"-0.011": 0.915894130053,
			"-0.01": 0.974125614132,
			"-0.009": 0.643235587215,
			"-0.008": 3.25814013211,
			"-0.007": 5.87119038464,
			"-0.006": 11.5945076914,
			"-0.005": 14.7651750101,
			"-0.004": 16.4705350163,
			"-0.003": 18.2083815243,
			"-0.002": 21.4516946814,
			"-0.001": 18.0035394999,
			"0.0": 15.5466383694,
			"0.001": 9.99078372443,
			"0.002": 7.3285767071,
			"0.003": 4.28825789618,
			"0.004": 4.500336093,
			"0.005": 3.14398923298,
			"0.006": 4.46629957964,
			"0.007": 4.43150784796,
			"0.008": 3.42980346942,
			"0.009": 2.78849959889,
			"0.01": 3.26868843911,
			"0.011": 5.24015262841,
			"0.012": 6.47787890696,
			"0.013": 3.66224416014,
			"0.014": 2.13240179937,
			"0.015": 1.58879580297,
			"0.016": 1.47575819843,
			"0.017": 1.01840380506,
			"0.018": 0.042804713684,
			"0.019": 0.0,
			"0.02": 0.0,
			"0.021": 0.0,
			"0.022": 0.0,
			"0.023": 0.0,
			"0.024": 0.0,
			"0.025": 0.0
		}
	}
}
