{
	 "smiles": "CC1=CC=C(NC(=O)C(C(F)(F)F)C(F)(F)F)C(C)=C1", 
	 "Tm": 466.15, 
	 "num_atms": 31, 
	 "gaussian": { 
		 "optdone": 1, 
		 "sigma_profile": "yes", 
		 "theory": "DFT", 
		 "functional": "B3LYP", 
		 "basiset": "6-31G**", 
		 "properties": { 
			 "R2extent": 10214.8372, 
			 "electric_dipole_moment_norm": 2.3774738926, 
			 "electric_quadrupole_moment_norm": 6.87498840944, 
			 "total_energy": -1192.96610718, 
			 "HOMO_LUMO_gap": 0.19291, 
			 "cosmo_polarized_energy": -8.9, 
			 "cosmo_cavitation_energy": 37.07, 
			 "cosmo_dispersion_energy": -24.88, 
			 "cosmo_repulsion_energy": 1.79, 
			 "cosmo_total_nonelectrostatic_energy": 13.98, 
			 "SMD_solvation_energy": 8.72 
		},
		"coords": [
			{
				"x": -1.6169932862,
				"y": -1.1919350459,
				"z": -3.4964155343,
				"element": "C" 
			},
			{
				"x": -0.9483619887,
				"y": -1.2952044272,
				"z": -2.1460956724,
				"element": "C" 
			},
			{
				"x": -1.4649015311,
				"y": -2.114388221,
				"z": -1.1380676888,
				"element": "C" 
			},
			{
				"x": -0.8347967649,
				"y": -2.2353644761,
				"z": 0.099043277,
				"element": "C" 
			},
			{
				"x": 0.3434986916,
				"y": -1.5221710017,
				"z": 0.3502117554,
				"element": "C" 
			},
			{
				"x": 1.0328598983,
				"y": -1.5976119905,
				"z": 1.586997146,
				"element": "N" 
			},
			{
				"x": 0.7179515984,
				"y": -2.3241867712,
				"z": 2.6972977763,
				"element": "C" 
			},
			{
				"x": -0.243635572,
				"y": -3.0630857517,
				"z": 2.8316839624,
				"element": "O" 
			},
			{
				"x": 1.716862067,
				"y": -2.156134236,
				"z": 3.8763907335,
				"element": "C" 
			},
			{
				"x": 1.7385346812,
				"y": -0.7310818159,
				"z": 4.4305764702,
				"element": "C" 
			},
			{
				"x": 2.2888174228,
				"y": 0.1491709194,
				"z": 3.5584766991,
				"element": "F" 
			},
			{
				"x": 2.4412339926,
				"y": -0.6538725821,
				"z": 5.5726390946,
				"element": "F" 
			},
			{
				"x": 0.4845781074,
				"y": -0.3190674768,
				"z": 4.6843366402,
				"element": "F" 
			},
			{
				"x": 3.112316833,
				"y": -2.6860993745,
				"z": 3.5444737806,
				"element": "C" 
			},
			{
				"x": 3.8989155935,
				"y": -2.7268954523,
				"z": 4.6324631488,
				"element": "F" 
			},
			{
				"x": 3.7434010266,
				"y": -1.9221228428,
				"z": 2.6192596389,
				"element": "F" 
			},
			{
				"x": 3.0231107515,
				"y": -3.9319242445,
				"z": 3.0479549616,
				"element": "F" 
			},
			{
				"x": 0.8914145965,
				"y": -0.6814393276,
				"z": -0.6436839132,
				"element": "C" 
			},
			{
				"x": 2.158379255,
				"y": 0.1060649916,
				"z": -0.3976433524,
				"element": "C" 
			},
			{
				"x": 0.2286780468,
				"y": -0.5891149366,
				"z": -1.868814787,
				"element": "C" 
			},
			{
				"x": -2.6899875935,
				"y": -1.3937893833,
				"z": -3.4266593484,
				"element": "H" 
			},
			{
				"x": -1.1955310188,
				"y": -1.9147686158,
				"z": -4.2065751703,
				"element": "H" 
			},
			{
				"x": -1.4881243526,
				"y": -0.1967648605,
				"z": -3.9334690598,
				"element": "H" 
			},
			{
				"x": -2.3806973402,
				"y": -2.6724574688,
				"z": -1.3156651656,
				"element": "H" 
			},
			{
				"x": -1.2450560468,
				"y": -2.8703480652,
				"z": 0.8711620455,
				"element": "H" 
			},
			{
				"x": 1.8697470712,
				"y": -1.0369859418,
				"z": 1.6504694108,
				"element": "H" 
			},
			{
				"x": 1.3207675334,
				"y": -2.7936487464,
				"z": 4.6689297572,
				"element": "H" 
			},
			{
				"x": 2.421949443,
				"y": 0.696181308,
				"z": -1.278104427,
				"element": "H" 
			},
			{
				"x": 2.0546581816,
				"y": 0.8064933451,
				"z": 0.4417718517,
				"element": "H" 
			},
			{
				"x": 3.0146824972,
				"y": -0.545161229,
				"z": -0.1770479018,
				"element": "H" 
			},
			{
				"x": 0.6485282064,
				"y": 0.0608137214,
				"z": -2.6336961285,
				"element": "H" 
			}
		],
		 "valence_orbital": [ 
			{
				"type": "occ",
				"energy": -0.34235,
				"method": "rhf"
			},
			{
				"type": "occ",
				"energy": -0.30983,
				"method": "rhf"
			},
			{
				"type": "occ",
				"energy": -0.2748,
				"method": "rhf"
			},
			{
				"type": "occ",
				"energy": -0.24796,
				"method": "rhf"
			},
			{
				"type": "occ",
				"energy": -0.22092,
				"method": "rhf"
			},
			{
				"type": "unocc",
				"energy": -0.02801,
				"method": "rhf"
			},
			{
				"type": "unocc",
				"energy": -0.00249,
				"method": "rhf"
			},
			{
				"type": "unocc",
				"energy": 0.02923,
				"method": "rhf"
			},
			{
				"type": "unocc",
				"energy": 0.06892,
				"method": "rhf"
			},
			{
				"type": "unocc",
				"energy": 0.08979,
				"method": "rhf"
			}
		],
		"cosmo_sigma_profile": { 
			"-0.025": 0.0,
			"-0.024": 0.0,
			"-0.023": 0.0,
			"-0.022": 0.0,
			"-0.021": 0.0,
			"-0.02": 0.0,
			"-0.019": 0.0,
			"-0.018": 0.0,
			"-0.017": 0.0,
			"-0.016": 0.0,
			"-0.015": 0.0,
			"-0.014": 0.0,
			"-0.013": 0.0,
			"-0.012": 1.34196291288,
			"-0.011": 1.6204515588,
			"-0.01": 1.74357347375,
			"-0.009": 1.3290770502,
			"-0.008": 2.0099513473,
			"-0.007": 2.80330361032,
			"-0.006": 5.51305749547,
			"-0.005": 12.2011538827,
			"-0.004": 21.1182598514,
			"-0.003": 22.0927374208,
			"-0.002": 23.2713675215,
			"-0.001": 25.8747944444,
			"0.0": 32.5059413278,
			"0.001": 44.3037349751,
			"0.002": 50.130514183,
			"0.003": 10.3854050516,
			"0.004": 9.77271235119,
			"0.005": 10.1065576847,
			"0.006": 5.5496973793,
			"0.007": 1.81553874777,
			"0.008": 1.20019940129,
			"0.009": 1.35473628981,
			"0.01": 2.2296612292,
			"0.011": 3.04049139081,
			"0.012": 1.96404798762,
			"0.013": 0.112050318145,
			"0.014": 0.0,
			"0.015": 0.0,
			"0.016": 0.0,
			"0.017": 0.0,
			"0.018": 0.0,
			"0.019": 0.0,
			"0.02": 0.0,
			"0.021": 0.0,
			"0.022": 0.0,
			"0.023": 0.0,
			"0.024": 0.0,
			"0.025": 0.0
		}
	}
}
