{
	 "smiles": "CCOC(=O)C1=CC=C(C=C1)C(=O)OCC", 
	 "Tm": 317.65, 
	 "num_atms": 30, 
	 "gaussian": { 
		 "optdone": 1, 
		 "sigma_profile": "yes", 
		 "theory": "DFT", 
		 "functional": "B3LYP", 
		 "basiset": "6-31G**", 
		 "properties": { 
			 "R2extent": 6227.8109, 
			 "electric_dipole_moment_norm": 0.0001, 
			 "electric_quadrupole_moment_norm": 22.4104992988, 
			 "total_energy": -766.651011901, 
			 "HOMO_LUMO_gap": 0.19482, 
			 "cosmo_polarized_energy": -9.62, 
			 "cosmo_cavitation_energy": 34.67, 
			 "cosmo_dispersion_energy": -24.95, 
			 "cosmo_repulsion_energy": 1.98, 
			 "cosmo_total_nonelectrostatic_energy": 11.7, 
			 "SMD_solvation_energy": 8.18 
		},
		"coords": [
			{
				"x": -4.0030413705,
				"y": 3.8948941099,
				"z": 0.2445422211,
				"element": "C" 
			},
			{
				"x": -3.1676001949,
				"y": 3.7237426969,
				"z": -1.0152492608,
				"element": "C" 
			},
			{
				"x": -2.3788999462,
				"y": 2.5103375905,
				"z": -0.9634478321,
				"element": "O" 
			},
			{
				"x": -1.1854739746,
				"y": 2.5927593317,
				"z": -0.3353329578,
				"element": "C" 
			},
			{
				"x": -0.7551092977,
				"y": 3.6130774211,
				"z": 0.1682855118,
				"element": "O" 
			},
			{
				"x": -0.4543066303,
				"y": 1.2899995803,
				"z": -0.3347642156,
				"element": "C" 
			},
			{
				"x": -0.9829668848,
				"y": 0.1313894006,
				"z": -0.9221772777,
				"element": "C" 
			},
			{
				"x": -0.256495067,
				"y": -1.0540802577,
				"z": -0.8914588426,
				"element": "C" 
			},
			{
				"x": 1.0015478942,
				"y": -1.0955089669,
				"z": -0.275053952,
				"element": "C" 
			},
			{
				"x": 1.5302049685,
				"y": 0.063099593,
				"z": 0.3123653725,
				"element": "C" 
			},
			{
				"x": 0.8037335786,
				"y": 1.248569294,
				"z": 0.2816462814,
				"element": "C" 
			},
			{
				"x": 1.7327235125,
				"y": -2.3982639154,
				"z": -0.274502488,
				"element": "C" 
			},
			{
				"x": 1.3022002344,
				"y": -3.418670506,
				"z": -0.7778058677,
				"element": "O" 
			},
			{
				"x": 2.9259604973,
				"y": -2.3159482122,
				"z": 0.3539858508,
				"element": "O" 
			},
			{
				"x": 3.7144466068,
				"y": -3.5294747485,
				"z": 0.4062108394,
				"element": "C" 
			},
			{
				"x": 4.550300148,
				"y": -3.7009085901,
				"z": -0.8532686575,
				"element": "C" 
			},
			{
				"x": -3.3591764827,
				"y": 4.0352850564,
				"z": 1.1160393073,
				"element": "H" 
			},
			{
				"x": -4.6448614017,
				"y": 4.7767453396,
				"z": 0.1461745311,
				"element": "H" 
			},
			{
				"x": -4.6414183504,
				"y": 3.0222708481,
				"z": 0.4110606777,
				"element": "H" 
			},
			{
				"x": -3.7962673902,
				"y": 3.5993036724,
				"z": -1.9001053755,
				"element": "H" 
			},
			{
				"x": -2.4959228676,
				"y": 4.5727228407,
				"z": -1.1617216514,
				"element": "H" 
			},
			{
				"x": -1.9562407281,
				"y": 0.168718731,
				"z": -1.3970362641,
				"element": "H" 
			},
			{
				"x": -0.6444658708,
				"y": -1.9625810525,
				"z": -1.3390134793,
				"element": "H" 
			},
			{
				"x": 2.5034796704,
				"y": 0.0257704887,
				"z": 0.7872223864,
				"element": "H" 
			},
			{
				"x": 1.1917052863,
				"y": 2.1570709618,
				"z": 0.729198152,
				"element": "H" 
			},
			{
				"x": 4.3428248057,
				"y": -3.4050328935,
				"z": 1.2912720179,
				"element": "H" 
			},
			{
				"x": 3.042583102,
				"y": -4.3783306796,
				"z": 0.5525485967,
				"element": "H" 
			},
			{
				"x": 5.1888727658,
				"y": -2.8284060866,
				"z": -1.0196685109,
				"element": "H" 
			},
			{
				"x": 5.1919467346,
				"y": -4.5828494863,
				"z": -0.7545720634,
				"element": "H" 
			},
			{
				"x": 3.9067166525,
				"y": -3.8413015615,
				"z": -1.7249730496,
				"element": "H" 
			}
		],
		 "valence_orbital": [ 
			{
				"type": "occ",
				"energy": -0.30128,
				"method": "rhf"
			},
			{
				"type": "occ",
				"energy": -0.27761,
				"method": "rhf"
			},
			{
				"type": "occ",
				"energy": -0.27574,
				"method": "rhf"
			},
			{
				"type": "occ",
				"energy": -0.26593,
				"method": "rhf"
			},
			{
				"type": "occ",
				"energy": -0.26353,
				"method": "rhf"
			},
			{
				"type": "unocc",
				"energy": -0.06871,
				"method": "rhf"
			},
			{
				"type": "unocc",
				"energy": -0.01241,
				"method": "rhf"
			},
			{
				"type": "unocc",
				"energy": 0.01263,
				"method": "rhf"
			},
			{
				"type": "unocc",
				"energy": 0.08541,
				"method": "rhf"
			},
			{
				"type": "unocc",
				"energy": 0.09822,
				"method": "rhf"
			}
		],
		"cosmo_sigma_profile": { 
			"-0.025": 0.0,
			"-0.024": 0.0,
			"-0.023": 0.0,
			"-0.022": 0.0,
			"-0.021": 0.0,
			"-0.02": 0.0,
			"-0.019": 0.0,
			"-0.018": 0.0,
			"-0.017": 0.0,
			"-0.016": 0.0,
			"-0.015": 0.0,
			"-0.014": 0.0,
			"-0.013": 0.0,
			"-0.012": 0.0,
			"-0.011": 0.0,
			"-0.01": 0.0,
			"-0.009": 0.0,
			"-0.008": 0.0,
			"-0.007": 1.53865151115,
			"-0.006": 8.86366670005,
			"-0.005": 17.1359495407,
			"-0.004": 25.8084270774,
			"-0.003": 31.1702550663,
			"-0.002": 30.0072795451,
			"-0.001": 24.9300031546,
			"0.0": 34.4622483145,
			"0.001": 25.6884297821,
			"0.002": 22.0596816368,
			"0.003": 10.0961352383,
			"0.004": 7.44083325189,
			"0.005": 7.9769356659,
			"0.006": 3.51731647551,
			"0.007": 2.26845225845,
			"0.008": 3.70465816459,
			"0.009": 3.12351985835,
			"0.01": 3.77450417401,
			"0.011": 6.0744593109,
			"0.012": 5.41951608841,
			"0.013": 0.0,
			"0.014": 0.0,
			"0.015": 0.0,
			"0.016": 0.0,
			"0.017": 0.0,
			"0.018": 0.0,
			"0.019": 0.0,
			"0.02": 0.0,
			"0.021": 0.0,
			"0.022": 0.0,
			"0.023": 0.0,
			"0.024": 0.0,
			"0.025": 0.0
		}
	}
}
