{
	 "smiles": "CC(C)(C)NC(=O)C1=CC=C(C=C1)C(O)=O", 
	 "Tm": 491.15, 
	 "num_atms": 31, 
	 "gaussian": { 
		 "optdone": 1, 
		 "sigma_profile": "yes", 
		 "theory": "DFT", 
		 "functional": "B3LYP", 
		 "basiset": "6-31G**", 
		 "properties": { 
			 "R2extent": 6402.1955, 
			 "electric_dipole_moment_norm": 5.71906644305, 
			 "electric_quadrupole_moment_norm": 28.9681435889, 
			 "total_energy": -746.768312888, 
			 "HOMO_LUMO_gap": 0.18357, 
			 "cosmo_polarized_energy": -20.23, 
			 "cosmo_cavitation_energy": 33.95, 
			 "cosmo_dispersion_energy": -23.56, 
			 "cosmo_repulsion_energy": 1.83, 
			 "cosmo_total_nonelectrostatic_energy": 12.22, 
			 "SMD_solvation_energy": 7.22 
		},
		"coords": [
			{
				"x": -0.1222707729,
				"y": 1.4789255822,
				"z": 0.5729723894,
				"element": "C" 
			},
			{
				"x": -0.253594118,
				"y": 0.6732193834,
				"z": -0.7330025729,
				"element": "C" 
			},
			{
				"x": -0.9623394789,
				"y": 1.5360973183,
				"z": -1.7939643782,
				"element": "C" 
			},
			{
				"x": 1.1365800808,
				"y": 0.2811630615,
				"z": -1.2655690551,
				"element": "C" 
			},
			{
				"x": -1.137515799,
				"y": -0.5184040411,
				"z": -0.5492830326,
				"element": "N" 
			},
			{
				"x": -1.3121795099,
				"y": -1.3570359681,
				"z": 0.5301711832,
				"element": "C" 
			},
			{
				"x": -2.4124147717,
				"y": -1.8467207459,
				"z": 0.7705633013,
				"element": "O" 
			},
			{
				"x": -0.1374235276,
				"y": -1.7536907234,
				"z": 1.3850267652,
				"element": "C" 
			},
			{
				"x": -0.2844982061,
				"y": -1.698089913,
				"z": 2.7776055666,
				"element": "C" 
			},
			{
				"x": 0.7382421661,
				"y": -2.1394886633,
				"z": 3.6114711242,
				"element": "C" 
			},
			{
				"x": 1.9129780833,
				"y": -2.6822696768,
				"z": 3.0680487428,
				"element": "C" 
			},
			{
				"x": 2.0311969696,
				"y": -2.7974528163,
				"z": 1.6774883905,
				"element": "C" 
			},
			{
				"x": 1.0212046534,
				"y": -2.3269323551,
				"z": 0.8425621924,
				"element": "C" 
			},
			{
				"x": 3.0468410164,
				"y": -3.195905366,
				"z": 3.9058260412,
				"element": "C" 
			},
			{
				"x": 3.1109100854,
				"y": -2.7532292079,
				"z": 5.1899237961,
				"element": "O" 
			},
			{
				"x": 3.8824303857,
				"y": -3.9633526451,
				"z": 3.4897988953,
				"element": "O" 
			},
			{
				"x": 0.466424221,
				"y": 2.385164312,
				"z": 0.3971503186,
				"element": "H" 
			},
			{
				"x": -1.1071265452,
				"y": 1.7784812422,
				"z": 0.9454598332,
				"element": "H" 
			},
			{
				"x": 0.3800763392,
				"y": 0.9017492261,
				"z": 1.3531820313,
				"element": "H" 
			},
			{
				"x": -1.082609524,
				"y": 0.982409015,
				"z": -2.7313876694,
				"element": "H" 
			},
			{
				"x": -1.9520740197,
				"y": 1.8531530398,
				"z": -1.4472495662,
				"element": "H" 
			},
			{
				"x": -0.3762255402,
				"y": 2.4343687941,
				"z": -2.005561703,
				"element": "H" 
			},
			{
				"x": 1.7248848375,
				"y": -0.2485842938,
				"z": -0.5144639354,
				"element": "H" 
			},
			{
				"x": 1.6934601266,
				"y": 1.1806700271,
				"z": -1.547727154,
				"element": "H" 
			},
			{
				"x": 1.0447421669,
				"y": -0.3564574377,
				"z": -2.150090403,
				"element": "H" 
			},
			{
				"x": -2.032068568,
				"y": -0.4268194634,
				"z": -1.0190825624,
				"element": "H" 
			},
			{
				"x": -1.2114970098,
				"y": -1.3197761081,
				"z": 3.1954084376,
				"element": "H" 
			},
			{
				"x": 0.5854645201,
				"y": -2.1033462395,
				"z": 4.6876480536,
				"element": "H" 
			},
			{
				"x": 2.9232622365,
				"y": -3.2630583177,
				"z": 1.2726678148,
				"element": "H" 
			},
			{
				"x": 1.1161942257,
				"y": -2.4316844214,
				"z": -0.2325482637,
				"element": "H" 
			},
			{
				"x": 2.4763452766,
				"y": -2.037302598,
				"z": 5.3308554187,
				"element": "H" 
			}
		],
		 "valence_orbital": [ 
			{
				"type": "occ",
				"energy": -0.28218,
				"method": "rhf"
			},
			{
				"type": "occ",
				"energy": -0.27735,
				"method": "rhf"
			},
			{
				"type": "occ",
				"energy": -0.27369,
				"method": "rhf"
			},
			{
				"type": "occ",
				"energy": -0.2635,
				"method": "rhf"
			},
			{
				"type": "occ",
				"energy": -0.24764,
				"method": "rhf"
			},
			{
				"type": "unocc",
				"energy": -0.06407,
				"method": "rhf"
			},
			{
				"type": "unocc",
				"energy": -0.0278,
				"method": "rhf"
			},
			{
				"type": "unocc",
				"energy": 0.01095,
				"method": "rhf"
			},
			{
				"type": "unocc",
				"energy": 0.04896,
				"method": "rhf"
			},
			{
				"type": "unocc",
				"energy": 0.05977,
				"method": "rhf"
			}
		],
		"cosmo_sigma_profile": { 
			"-0.025": 0.0,
			"-0.024": 0.0,
			"-0.023": 0.0,
			"-0.022": 0.0,
			"-0.021": 0.0,
			"-0.02": 0.0,
			"-0.019": 0.132343327927,
			"-0.018": 1.10581983856,
			"-0.017": 0.964716474374,
			"-0.016": 1.13393184981,
			"-0.015": 0.573134451311,
			"-0.014": 0.919477950408,
			"-0.013": 1.70090346084,
			"-0.012": 1.23489301157,
			"-0.011": 1.9066559491,
			"-0.01": 2.67727468212,
			"-0.009": 1.61579255143,
			"-0.008": 2.73445175735,
			"-0.007": 5.73943181574,
			"-0.006": 9.81857194666,
			"-0.005": 9.53761152329,
			"-0.004": 19.7645638052,
			"-0.003": 25.945040409,
			"-0.002": 30.7158049566,
			"-0.001": 24.4227792185,
			"0.0": 27.2425710922,
			"0.001": 20.5449585153,
			"0.002": 15.1712169118,
			"0.003": 6.72442722624,
			"0.004": 4.64118997239,
			"0.005": 4.28863357291,
			"0.006": 4.47083452026,
			"0.007": 3.14732122085,
			"0.008": 3.99464514875,
			"0.009": 4.88959427106,
			"0.01": 6.4236619401,
			"0.011": 7.00561065095,
			"0.012": 6.51549456737,
			"0.013": 6.40755083871,
			"0.014": 3.20531656781,
			"0.015": 0.195724943565,
			"0.016": 0.0,
			"0.017": 0.0,
			"0.018": 0.0,
			"0.019": 0.0,
			"0.02": 0.0,
			"0.021": 0.0,
			"0.022": 0.0,
			"0.023": 0.0,
			"0.024": 0.0,
			"0.025": 0.0
		}
	}
}
