{
	 "smiles": "COC(=O)C1=CC2=C(N1)SC=C2", 
	 "Tm": 401.15, 
	 "num_atms": 19, 
	 "gaussian": { 
		 "optdone": 1, 
		 "sigma_profile": "yes", 
		 "theory": "DFT", 
		 "functional": "B3LYP", 
		 "basiset": "6-31G**", 
		 "properties": { 
			 "R2extent": 4077.9676, 
			 "electric_dipole_moment_norm": 1.13060647, 
			 "electric_quadrupole_moment_norm": 9.66285519865, 
			 "total_energy": -912.44434551, 
			 "HOMO_LUMO_gap": 0.18383, 
			 "cosmo_polarized_energy": -9.58, 
			 "cosmo_cavitation_energy": 25.47, 
			 "cosmo_dispersion_energy": -19.62, 
			 "cosmo_repulsion_energy": 1.51, 
			 "cosmo_total_nonelectrostatic_energy": 7.36, 
			 "SMD_solvation_energy": 5.56 
		},
		"coords": [
			{
				"x": 0.6366271502,
				"y": 0.7183479182,
				"z": 3.3250630266,
				"element": "C" 
			},
			{
				"x": 0.4720492641,
				"y": 0.0406788343,
				"z": 2.0704454657,
				"element": "O" 
			},
			{
				"x": 1.5626729655,
				"y": 0.0400333479,
				"z": 1.273241869,
				"element": "C" 
			},
			{
				"x": 2.6246162727,
				"y": 0.5683191982,
				"z": 1.5676703329,
				"element": "O" 
			},
			{
				"x": 1.3353304065,
				"y": -0.6602575928,
				"z": 0.0153786101,
				"element": "C" 
			},
			{
				"x": 0.2401111559,
				"y": -1.3197419208,
				"z": -0.5240734719,
				"element": "C" 
			},
			{
				"x": 0.6391033667,
				"y": -1.8032871875,
				"z": -1.7996425639,
				"element": "C" 
			},
			{
				"x": 1.9748156796,
				"y": -1.4093151746,
				"z": -1.9764794791,
				"element": "C" 
			},
			{
				"x": 2.3941597271,
				"y": -0.7219080544,
				"z": -0.8855295491,
				"element": "N" 
			},
			{
				"x": 2.6528092176,
				"y": -1.9112025593,
				"z": -3.4937851904,
				"element": "S" 
			},
			{
				"x": 1.1056383107,
				"y": -2.6703214374,
				"z": -3.904811075,
				"element": "C" 
			},
			{
				"x": 0.1570970479,
				"y": -2.5366689016,
				"z": -2.9382986269,
				"element": "C" 
			},
			{
				"x": 1.4315687562,
				"y": 0.2539761114,
				"z": 3.9143541857,
				"element": "H" 
			},
			{
				"x": 0.8857485965,
				"y": 1.770816882,
				"z": 3.166670345,
				"element": "H" 
			},
			{
				"x": -0.321555039,
				"y": 0.6254849231,
				"z": 3.8361368998,
				"element": "H" 
			},
			{
				"x": -0.7188387029,
				"y": -1.4264406846,
				"z": -0.0389203688,
				"element": "H" 
			},
			{
				"x": 3.2923357876,
				"y": -0.3039768206,
				"z": -0.6932068553,
				"element": "H" 
			},
			{
				"x": 1.0236361508,
				"y": -3.169530262,
				"z": -4.8601857329,
				"element": "H" 
			},
			{
				"x": -0.8427261138,
				"y": -2.9438066196,
				"z": -3.0342278212,
				"element": "H" 
			}
		],
		 "valence_orbital": [ 
			{
				"type": "occ",
				"energy": -0.30014,
				"method": "rhf"
			},
			{
				"type": "occ",
				"energy": -0.28446,
				"method": "rhf"
			},
			{
				"type": "occ",
				"energy": -0.27667,
				"method": "rhf"
			},
			{
				"type": "occ",
				"energy": -0.22157,
				"method": "rhf"
			},
			{
				"type": "occ",
				"energy": -0.21463,
				"method": "rhf"
			},
			{
				"type": "unocc",
				"energy": -0.0308,
				"method": "rhf"
			},
			{
				"type": "unocc",
				"energy": 0.00318,
				"method": "rhf"
			},
			{
				"type": "unocc",
				"energy": 0.01515,
				"method": "rhf"
			},
			{
				"type": "unocc",
				"energy": 0.08021,
				"method": "rhf"
			},
			{
				"type": "unocc",
				"energy": 0.08944,
				"method": "rhf"
			}
		],
		"cosmo_sigma_profile": { 
			"-0.025": 0.0,
			"-0.024": 0.0,
			"-0.023": 0.0,
			"-0.022": 0.0,
			"-0.021": 0.0,
			"-0.02": 0.0,
			"-0.019": 0.0,
			"-0.018": 0.0,
			"-0.017": 0.00825116904486,
			"-0.016": 0.737181363954,
			"-0.015": 1.31049473523,
			"-0.014": 0.79518344717,
			"-0.013": 0.945987893283,
			"-0.012": 0.837544343462,
			"-0.011": 0.981949376039,
			"-0.01": 0.781463764104,
			"-0.009": 1.52420949919,
			"-0.008": 3.56695927527,
			"-0.007": 5.65225858772,
			"-0.006": 9.59034009216,
			"-0.005": 12.4187609822,
			"-0.004": 14.7041846918,
			"-0.003": 16.1632697387,
			"-0.002": 12.5528456502,
			"-0.001": 11.3870867843,
			"0.0": 12.4120488004,
			"0.001": 12.7262541248,
			"0.002": 14.8944988002,
			"0.003": 19.6993021076,
			"0.004": 18.8836819978,
			"0.005": 13.7229554291,
			"0.006": 4.83106993501,
			"0.007": 3.29595205187,
			"0.008": 2.02168287828,
			"0.009": 0.799895984381,
			"0.01": 2.2323202957,
			"0.011": 2.11152844962,
			"0.012": 4.12006246946,
			"0.013": 0.936268635004,
			"0.014": 0.0,
			"0.015": 0.0,
			"0.016": 0.0,
			"0.017": 0.0,
			"0.018": 0.0,
			"0.019": 0.0,
			"0.02": 0.0,
			"0.021": 0.0,
			"0.022": 0.0,
			"0.023": 0.0,
			"0.024": 0.0,
			"0.025": 0.0
		}
	}
}
