{
	 "smiles": "CCC1(CC)C(=O)CCNC1=O", 
	 "Tm": 375.15, 
	 "num_atms": 27, 
	 "gaussian": { 
		 "optdone": 1, 
		 "sigma_profile": "yes", 
		 "theory": "DFT", 
		 "functional": "B3LYP", 
		 "basiset": "6-31G**", 
		 "properties": { 
			 "R2extent": 2323.2797, 
			 "electric_dipole_moment_norm": 3.15803157204, 
			 "electric_quadrupole_moment_norm": 12.8950658862, 
			 "total_energy": -557.221591039, 
			 "HOMO_LUMO_gap": 0.2137, 
			 "cosmo_polarized_energy": -13.96, 
			 "cosmo_cavitation_energy": 27.88, 
			 "cosmo_dispersion_energy": -19.53, 
			 "cosmo_repulsion_energy": 1.55, 
			 "cosmo_total_nonelectrostatic_energy": 9.91, 
			 "SMD_solvation_energy": 4.83 
		},
		"coords": [
			{
				"x": -3.0044109546,
				"y": -0.3761275684,
				"z": -1.276493653,
				"element": "C" 
			},
			{
				"x": -2.0698802191,
				"y": 0.6689966574,
				"z": -1.895337854,
				"element": "C" 
			},
			{
				"x": -0.8423754101,
				"y": 1.0640596839,
				"z": -1.0217268801,
				"element": "C" 
			},
			{
				"x": -0.0342732148,
				"y": 2.154977329,
				"z": -1.7880623341,
				"element": "C" 
			},
			{
				"x": 1.2328978981,
				"y": 2.6569472988,
				"z": -1.0882442408,
				"element": "C" 
			},
			{
				"x": 0.063063958,
				"y": -0.1673344021,
				"z": -0.8394453766,
				"element": "C" 
			},
			{
				"x": 0.4012587786,
				"y": -0.8349516532,
				"z": -1.7988396452,
				"element": "O" 
			},
			{
				"x": 0.5416933068,
				"y": -0.4952261159,
				"z": 0.5651704196,
				"element": "C" 
			},
			{
				"x": -0.5817529282,
				"y": -0.322391936,
				"z": 1.589160327,
				"element": "C" 
			},
			{
				"x": -1.1695632996,
				"y": 1.0032130801,
				"z": 1.4564060657,
				"element": "N" 
			},
			{
				"x": -1.3729888523,
				"y": 1.6840392232,
				"z": 0.2866983241,
				"element": "C" 
			},
			{
				"x": -1.9716556635,
				"y": 2.753874155,
				"z": 0.2735199346,
				"element": "O" 
			},
			{
				"x": -3.4330090585,
				"y": -0.029617752,
				"z": -0.3299366102,
				"element": "H" 
			},
			{
				"x": -2.4868644997,
				"y": -1.3245566954,
				"z": -1.0950167829,
				"element": "H" 
			},
			{
				"x": -3.8381117657,
				"y": -0.5870909171,
				"z": -1.9533574734,
				"element": "H" 
			},
			{
				"x": -1.6784733617,
				"y": 0.2940429013,
				"z": -2.8456267694,
				"element": "H" 
			},
			{
				"x": -2.6283191603,
				"y": 1.5878341216,
				"z": -2.098106646,
				"element": "H" 
			},
			{
				"x": 0.223702241,
				"y": 1.7363327111,
				"z": -2.76625689,
				"element": "H" 
			},
			{
				"x": -0.7171942847,
				"y": 2.9940954469,
				"z": -1.9467057843,
				"element": "H" 
			},
			{
				"x": 1.7005146995,
				"y": 3.4495972591,
				"z": -1.6805326067,
				"element": "H" 
			},
			{
				"x": 1.0085455061,
				"y": 3.0758105156,
				"z": -0.1017334265,
				"element": "H" 
			},
			{
				"x": 1.979247364,
				"y": 1.8639310565,
				"z": -0.9663301539,
				"element": "H" 
			},
			{
				"x": 1.3540884089,
				"y": 0.201907424,
				"z": 0.8111383871,
				"element": "H" 
			},
			{
				"x": 0.9464142969,
				"y": -1.5100723585,
				"z": 0.5716533334,
				"element": "H" 
			},
			{
				"x": -0.1854051802,
				"y": -0.4244432738,
				"z": 2.603695843,
				"element": "H" 
			},
			{
				"x": -1.3367929157,
				"y": -1.1109999719,
				"z": 1.4567213796,
				"element": "H" 
			},
			{
				"x": -1.6155556893,
				"y": 1.4284537806,
				"z": 2.2589891131,
				"element": "H" 
			}
		],
		 "valence_orbital": [ 
			{
				"type": "occ",
				"energy": -0.33858,
				"method": "rhf"
			},
			{
				"type": "occ",
				"energy": -0.31812,
				"method": "rhf"
			},
			{
				"type": "occ",
				"energy": -0.25995,
				"method": "rhf"
			},
			{
				"type": "occ",
				"energy": -0.25447,
				"method": "rhf"
			},
			{
				"type": "occ",
				"energy": -0.24165,
				"method": "rhf"
			},
			{
				"type": "unocc",
				"energy": -0.02795,
				"method": "rhf"
			},
			{
				"type": "unocc",
				"energy": 0.01953,
				"method": "rhf"
			},
			{
				"type": "unocc",
				"energy": 0.07262,
				"method": "rhf"
			},
			{
				"type": "unocc",
				"energy": 0.09063,
				"method": "rhf"
			},
			{
				"type": "unocc",
				"energy": 0.10561,
				"method": "rhf"
			}
		],
		"cosmo_sigma_profile": { 
			"-0.025": 0.0,
			"-0.024": 0.0,
			"-0.023": 0.0,
			"-0.022": 0.0,
			"-0.021": 0.0,
			"-0.02": 0.0,
			"-0.019": 0.0,
			"-0.018": 0.0,
			"-0.017": 0.0,
			"-0.016": 0.0,
			"-0.015": 0.0108511085056,
			"-0.014": 0.787560245794,
			"-0.013": 1.31086129724,
			"-0.012": 0.805263914337,
			"-0.011": 1.21571946644,
			"-0.01": 0.823445119951,
			"-0.009": 1.28827749292,
			"-0.008": 1.39966700051,
			"-0.007": 1.84327538334,
			"-0.006": 8.77244840852,
			"-0.005": 13.5217386236,
			"-0.004": 16.9234506639,
			"-0.003": 23.752271871,
			"-0.002": 26.028508642,
			"-0.001": 25.7212370904,
			"0.0": 24.3752712339,
			"0.001": 15.8123891915,
			"0.002": 5.81906120576,
			"0.003": 3.94578255134,
			"0.004": 3.5302250031,
			"0.005": 3.80928012736,
			"0.006": 4.35693624359,
			"0.007": 2.15578846501,
			"0.008": 2.57757339759,
			"0.009": 3.72417224811,
			"0.01": 2.57847823833,
			"0.011": 4.48221387016,
			"0.012": 5.18787330185,
			"0.013": 3.67651188179,
			"0.014": 4.78455389081,
			"0.015": 0.880313904354,
			"0.016": 0.0,
			"0.017": 0.0,
			"0.018": 0.0,
			"0.019": 0.0,
			"0.02": 0.0,
			"0.021": 0.0,
			"0.022": 0.0,
			"0.023": 0.0,
			"0.024": 0.0,
			"0.025": 0.0
		}
	}
}
