{
	 "smiles": "CCCCCCCCCCCCCCCC1=CC(O)=CC=C1", 
	 "Tm": 326.65, 
	 "num_atms": 58, 
	 "gaussian": { 
		 "optdone": 1, 
		 "sigma_profile": "yes", 
		 "theory": "DFT", 
		 "functional": "B3LYP", 
		 "basiset": "6-31G**", 
		 "properties": { 
			 "R2extent": 12802.2695, 
			 "electric_dipole_moment_norm": 1.6138750974, 
			 "electric_quadrupole_moment_norm": 13.1188194983, 
			 "total_energy": -897.202076659, 
			 "HOMO_LUMO_gap": 0.21832, 
			 "cosmo_polarized_energy": -8.31, 
			 "cosmo_cavitation_energy": 57.12, 
			 "cosmo_dispersion_energy": -36.18, 
			 "cosmo_repulsion_energy": 2.87, 
			 "cosmo_total_nonelectrostatic_energy": 23.81, 
			 "SMD_solvation_energy": 7.83 
		},
		"coords": [
			{
				"x": 1.2041628679,
				"y": 3.7454586696,
				"z": 1.4504029112,
				"element": "C" 
			},
			{
				"x": 1.981537114,
				"y": 2.4292716237,
				"z": 1.5570252438,
				"element": "C" 
			},
			{
				"x": 2.4150206773,
				"y": 2.1054072995,
				"z": 2.993959286,
				"element": "C" 
			},
			{
				"x": 3.2650885706,
				"y": 0.8328210818,
				"z": 3.1428741901,
				"element": "C" 
			},
			{
				"x": 2.5311570813,
				"y": -0.475612532,
				"z": 2.8154569685,
				"element": "C" 
			},
			{
				"x": 3.3918343941,
				"y": -1.7229025364,
				"z": 3.0726396957,
				"element": "C" 
			},
			{
				"x": 2.7042598962,
				"y": -3.0778682744,
				"z": 2.7944361418,
				"element": "C" 
			},
			{
				"x": 2.869315686,
				"y": -3.6435399522,
				"z": 1.3698459066,
				"element": "C" 
			},
			{
				"x": 2.2364927741,
				"y": -2.8531337805,
				"z": 0.211566758,
				"element": "C" 
			},
			{
				"x": 0.7066299616,
				"y": -2.7450241131,
				"z": 0.2666148007,
				"element": "C" 
			},
			{
				"x": 0.1060753489,
				"y": -2.0173420241,
				"z": -0.9438866793,
				"element": "C" 
			},
			{
				"x": -1.4244532004,
				"y": -1.9113524179,
				"z": -0.8902458537,
				"element": "C" 
			},
			{
				"x": -2.0729112161,
				"y": -1.2704246248,
				"z": -2.1302436825,
				"element": "C" 
			},
			{
				"x": -1.7048817689,
				"y": 0.198830459,
				"z": -2.3998362534,
				"element": "C" 
			},
			{
				"x": -2.1801282542,
				"y": 1.207247298,
				"z": -1.3281947107,
				"element": "C" 
			},
			{
				"x": -3.6872684736,
				"y": 1.3111020386,
				"z": -1.2042174747,
				"element": "C" 
			},
			{
				"x": -4.3597609456,
				"y": 0.74760248,
				"z": -0.1131723474,
				"element": "C" 
			},
			{
				"x": -5.7528682467,
				"y": 0.8289158932,
				"z": -0.0074993919,
				"element": "C" 
			},
			{
				"x": -6.4395514676,
				"y": 0.2898443831,
				"z": 1.0455157323,
				"element": "O" 
			},
			{
				"x": -6.4954957462,
				"y": 1.4803412135,
				"z": -0.9964089104,
				"element": "C" 
			},
			{
				"x": -5.8283782376,
				"y": 2.0449292032,
				"z": -2.081640333,
				"element": "C" 
			},
			{
				"x": -4.4391550525,
				"y": 1.9653328697,
				"z": -2.1902008755,
				"element": "C" 
			},
			{
				"x": 0.9068315971,
				"y": 3.9541892042,
				"z": 0.4173887604,
				"element": "H" 
			},
			{
				"x": 0.2928016547,
				"y": 3.7179257992,
				"z": 2.0587947869,
				"element": "H" 
			},
			{
				"x": 1.8071821763,
				"y": 4.5912051428,
				"z": 1.8004363144,
				"element": "H" 
			},
			{
				"x": 2.8723491257,
				"y": 2.4766833219,
				"z": 0.9151811928,
				"element": "H" 
			},
			{
				"x": 1.3643825349,
				"y": 1.6135512412,
				"z": 1.1595076556,
				"element": "H" 
			},
			{
				"x": 2.9856912896,
				"y": 2.9581191579,
				"z": 3.3868829589,
				"element": "H" 
			},
			{
				"x": 1.5221103198,
				"y": 2.022201926,
				"z": 3.6306683591,
				"element": "H" 
			},
			{
				"x": 3.6381539166,
				"y": 0.7771352591,
				"z": 4.1748277913,
				"element": "H" 
			},
			{
				"x": 4.1568804482,
				"y": 0.9171857332,
				"z": 2.5049155944,
				"element": "H" 
			},
			{
				"x": 2.1940294437,
				"y": -0.4601237544,
				"z": 1.7732486808,
				"element": "H" 
			},
			{
				"x": 1.6202279536,
				"y": -0.5396496603,
				"z": 3.4287429604,
				"element": "H" 
			},
			{
				"x": 4.3182099245,
				"y": -1.6568818185,
				"z": 2.4837244426,
				"element": "H" 
			},
			{
				"x": 3.7088537534,
				"y": -1.6979026871,
				"z": 4.1239615399,
				"element": "H" 
			},
			{
				"x": 1.6393797931,
				"y": -3.0068434445,
				"z": 3.0537255464,
				"element": "H" 
			},
			{
				"x": 3.1217432145,
				"y": -3.8248910825,
				"z": 3.481299883,
				"element": "H" 
			},
			{
				"x": 2.4573509771,
				"y": -4.6624535099,
				"z": 1.3574009983,
				"element": "H" 
			},
			{
				"x": 3.9438938553,
				"y": -3.7534707214,
				"z": 1.1687606196,
				"element": "H" 
			},
			{
				"x": 2.6739979071,
				"y": -1.8474250456,
				"z": 0.1594883691,
				"element": "H" 
			},
			{
				"x": 2.5181868871,
				"y": -3.3450646776,
				"z": -0.7297763516,
				"element": "H" 
			},
			{
				"x": 0.2761914504,
				"y": -3.7548214093,
				"z": 0.3337910456,
				"element": "H" 
			},
			{
				"x": 0.4002215031,
				"y": -2.2248841894,
				"z": 1.1839211057,
				"element": "H" 
			},
			{
				"x": 0.3998314138,
				"y": -2.54068823,
				"z": -1.8654324776,
				"element": "H" 
			},
			{
				"x": 0.5501304902,
				"y": -1.0149354714,
				"z": -1.0122503904,
				"element": "H" 
			},
			{
				"x": -1.8425117748,
				"y": -2.9197937713,
				"z": -0.7674621157,
				"element": "H" 
			},
			{
				"x": -1.7155202348,
				"y": -1.359970904,
				"z": 0.0145469944,
				"element": "H" 
			},
			{
				"x": -1.7966516347,
				"y": -1.8620480165,
				"z": -3.0136144991,
				"element": "H" 
			},
			{
				"x": -3.1632047772,
				"y": -1.3504539243,
				"z": -2.0406197282,
				"element": "H" 
			},
			{
				"x": -2.1343082428,
				"y": 0.4920986038,
				"z": -3.3659721896,
				"element": "H" 
			},
			{
				"x": -0.6178476883,
				"y": 0.2984013566,
				"z": -2.5101845414,
				"element": "H" 
			},
			{
				"x": -1.7748559577,
				"y": 2.1936750555,
				"z": -1.5862111746,
				"element": "H" 
			},
			{
				"x": -1.748682287,
				"y": 0.9462866424,
				"z": -0.3549327539,
				"element": "H" 
			},
			{
				"x": -3.791350354,
				"y": 0.2432718484,
				"z": 0.6672443084,
				"element": "H" 
			},
			{
				"x": -5.8115533445,
				"y": -0.1266454962,
				"z": 1.649783987,
				"element": "H" 
			},
			{
				"x": -7.5742366743,
				"y": 1.5364734469,
				"z": -0.8964610261,
				"element": "H" 
			},
			{
				"x": -6.400863764,
				"y": 2.5580342742,
				"z": -2.8495103769,
				"element": "H" 
			},
			{
				"x": -3.934566658,
				"y": 2.4182055434,
				"z": -3.0395073923,
				"element": "H" 
			}
		],
		 "valence_orbital": [ 
			{
				"type": "occ",
				"energy": -0.30383,
				"method": "rhf"
			},
			{
				"type": "occ",
				"energy": -0.29759,
				"method": "rhf"
			},
			{
				"type": "occ",
				"energy": -0.29447,
				"method": "rhf"
			},
			{
				"type": "occ",
				"energy": -0.24104,
				"method": "rhf"
			},
			{
				"type": "occ",
				"energy": -0.21478,
				"method": "rhf"
			},
			{
				"type": "unocc",
				"energy": 0.00354,
				"method": "rhf"
			},
			{
				"type": "unocc",
				"energy": 0.01578,
				"method": "rhf"
			},
			{
				"type": "unocc",
				"energy": 0.0624,
				"method": "rhf"
			},
			{
				"type": "unocc",
				"energy": 0.07345,
				"method": "rhf"
			},
			{
				"type": "unocc",
				"energy": 0.08447,
				"method": "rhf"
			}
		],
		"cosmo_sigma_profile": { 
			"-0.025": 0.0,
			"-0.024": 0.0,
			"-0.023": 0.0,
			"-0.022": 0.0,
			"-0.021": 0.0,
			"-0.02": 0.0,
			"-0.019": 0.0,
			"-0.018": 0.0440791821753,
			"-0.017": 0.953513100116,
			"-0.016": 1.17224368571,
			"-0.015": 0.95722637986,
			"-0.014": 1.20531683721,
			"-0.013": 0.630592247084,
			"-0.012": 0.570805209238,
			"-0.011": 0.992443536508,
			"-0.01": 1.46324418814,
			"-0.009": 1.30961637931,
			"-0.008": 0.68429878776,
			"-0.007": 0.631593872234,
			"-0.006": 1.9897000617,
			"-0.005": 6.58635040684,
			"-0.004": 9.6721466722,
			"-0.003": 15.4685190445,
			"-0.002": 44.3575869775,
			"-0.001": 89.3941656793,
			"0.0": 94.5200703924,
			"0.001": 77.7318512087,
			"0.002": 38.704032634,
			"0.003": 9.77753515373,
			"0.004": 9.62876019947,
			"0.005": 9.93195363809,
			"0.006": 9.07405883026,
			"0.007": 4.40980045605,
			"0.008": 1.88537593488,
			"0.009": 1.32456858971,
			"0.01": 1.39981690047,
			"0.011": 2.07818584827,
			"0.012": 1.27281990761,
			"0.013": 0.0,
			"0.014": 0.0,
			"0.015": 0.0,
			"0.016": 0.0,
			"0.017": 0.0,
			"0.018": 0.0,
			"0.019": 0.0,
			"0.02": 0.0,
			"0.021": 0.0,
			"0.022": 0.0,
			"0.023": 0.0,
			"0.024": 0.0,
			"0.025": 0.0
		}
	}
}
