{
	 "smiles": "ClCC1=NC(=NO1)C1=CC(Br)=CC=C1", 
	 "Tm": 321.15, 
	 "num_atms": 20, 
	 "gaussian": { 
		 "optdone": 1, 
		 "sigma_profile": "yes", 
		 "theory": "DFT", 
		 "functional": "B3LYP", 
		 "basiset": "6-31G**", 
		 "properties": { 
			 "R2extent": 7199.7198, 
			 "electric_dipole_moment_norm": 1.60012306089, 
			 "electric_quadrupole_moment_norm": 16.2576191074, 
			 "total_energy": -3562.86006306, 
			 "HOMO_LUMO_gap": 0.18145, 
			 "cosmo_polarized_energy": -9.05, 
			 "cosmo_cavitation_energy": 29.88, 
			 "cosmo_dispersion_energy": -22.52, 
			 "cosmo_repulsion_energy": 1.79, 
			 "cosmo_total_nonelectrostatic_energy": 9.14, 
			 "SMD_solvation_energy": 2.04 
		},
		"coords": [
			{
				"x": -3.9799802445,
				"y": -1.873051773,
				"z": 1.0741077762,
				"element": "Cl" 
			},
			{
				"x": -2.2446062368,
				"y": -1.6920854356,
				"z": 1.5755821218,
				"element": "C" 
			},
			{
				"x": -1.6755148867,
				"y": -0.3958640507,
				"z": 1.1222509625,
				"element": "C" 
			},
			{
				"x": -0.8994857627,
				"y": -0.1785446557,
				"z": 0.1041836354,
				"element": "N" 
			},
			{
				"x": -0.6953623922,
				"y": 1.1868832041,
				"z": 0.1746049125,
				"element": "C" 
			},
			{
				"x": -1.3117710197,
				"y": 1.770002611,
				"z": 1.1813025942,
				"element": "N" 
			},
			{
				"x": -1.9680456974,
				"y": 0.713216191,
				"z": 1.8207848097,
				"element": "O" 
			},
			{
				"x": 0.1373790102,
				"y": 1.9234275301,
				"z": -0.7856939992,
				"element": "C" 
			},
			{
				"x": 0.7582851693,
				"y": 1.2218221212,
				"z": -1.8281864508,
				"element": "C" 
			},
			{
				"x": 1.5476447858,
				"y": 1.9195240301,
				"z": -2.7372953567,
				"element": "C" 
			},
			{
				"x": 2.3965895744,
				"y": 0.9665326015,
				"z": -4.1594660229,
				"element": "Br" 
			},
			{
				"x": 1.7320493537,
				"y": 3.2973176195,
				"z": -2.6329061936,
				"element": "C" 
			},
			{
				"x": 1.1074642759,
				"y": 3.9862124114,
				"z": -1.5899004038,
				"element": "C" 
			},
			{
				"x": 0.3135947942,
				"y": 3.3105236783,
				"z": -0.6679532009,
				"element": "C" 
			},
			{
				"x": -2.2212101762,
				"y": -1.7702455011,
				"z": 2.6624508086,
				"element": "H" 
			},
			{
				"x": -1.6861160985,
				"y": -2.5072794818,
				"z": 1.1197028181,
				"element": "H" 
			},
			{
				"x": 0.6184121779,
				"y": 0.1516291049,
				"z": -1.9161925358,
				"element": "H" 
			},
			{
				"x": 2.3509690959,
				"y": 3.8209086285,
				"z": -3.3524649061,
				"element": "H" 
			},
			{
				"x": 1.2453507895,
				"y": 5.0594517674,
				"z": -1.5015086167,
				"element": "H" 
			},
			{
				"x": -0.1717465124,
				"y": 3.8443193987,
				"z": 0.1416972476,
				"element": "H" 
			}
		],
		 "valence_orbital": [ 
			{
				"type": "occ",
				"energy": -0.31251,
				"method": "rhf"
			},
			{
				"type": "occ",
				"energy": -0.3061,
				"method": "rhf"
			},
			{
				"type": "occ",
				"energy": -0.29251,
				"method": "rhf"
			},
			{
				"type": "occ",
				"energy": -0.26521,
				"method": "rhf"
			},
			{
				"type": "occ",
				"energy": -0.24971,
				"method": "rhf"
			},
			{
				"type": "unocc",
				"energy": -0.06826,
				"method": "rhf"
			},
			{
				"type": "unocc",
				"energy": -0.04457,
				"method": "rhf"
			},
			{
				"type": "unocc",
				"energy": -0.02253,
				"method": "rhf"
			},
			{
				"type": "unocc",
				"energy": 0.00113,
				"method": "rhf"
			},
			{
				"type": "unocc",
				"energy": 0.02845,
				"method": "rhf"
			}
		],
		"cosmo_sigma_profile": { 
			"-0.025": 0.0,
			"-0.024": 0.0,
			"-0.023": 0.0,
			"-0.022": 0.0,
			"-0.021": 0.0,
			"-0.02": 0.0,
			"-0.019": 0.0,
			"-0.018": 0.0,
			"-0.017": 0.0,
			"-0.016": 0.0,
			"-0.015": 0.0,
			"-0.014": 0.0,
			"-0.013": 0.0,
			"-0.012": 0.0,
			"-0.011": 0.772260939695,
			"-0.01": 4.13453100697,
			"-0.009": 3.79178697651,
			"-0.008": 5.81724932809,
			"-0.007": 9.26877070199,
			"-0.006": 11.6046199179,
			"-0.005": 9.97750751492,
			"-0.004": 10.3871061977,
			"-0.003": 11.8696146144,
			"-0.002": 14.2988438673,
			"-0.001": 16.708635552,
			"0.0": 21.6589626341,
			"0.001": 25.3348531013,
			"0.002": 26.7823602752,
			"0.003": 20.9265271711,
			"0.004": 21.0864357148,
			"0.005": 16.4404629025,
			"0.006": 5.05694208013,
			"0.007": 2.94305519438,
			"0.008": 2.45366375552,
			"0.009": 1.76248782522,
			"0.01": 2.00016592662,
			"0.011": 1.47880316574,
			"0.012": 0.161367866052,
			"0.013": 0.0,
			"0.014": 0.0,
			"0.015": 0.0,
			"0.016": 0.0,
			"0.017": 0.0,
			"0.018": 0.0,
			"0.019": 0.0,
			"0.02": 0.0,
			"0.021": 0.0,
			"0.022": 0.0,
			"0.023": 0.0,
			"0.024": 0.0,
			"0.025": 0.0
		}
	}
}
