{
	 "smiles": "COC(=O)C1=CC=CC(=C1C(=O)OC)[N+]([O-])=O", 
	 "Tm": 342.15, 
	 "num_atms": 26, 
	 "gaussian": { 
		 "optdone": 1, 
		 "sigma_profile": "yes", 
		 "theory": "DFT", 
		 "functional": "B3LYP", 
		 "basiset": "6-31G**", 
		 "properties": { 
			 "R2extent": 3949.6927, 
			 "electric_dipole_moment_norm": 5.82653806733, 
			 "electric_quadrupole_moment_norm": 12.1029101335, 
			 "total_energy": -892.483646355, 
			 "HOMO_LUMO_gap": 0.16994, 
			 "cosmo_polarized_energy": -16.12, 
			 "cosmo_cavitation_energy": 32.07, 
			 "cosmo_dispersion_energy": -22.5, 
			 "cosmo_repulsion_energy": 1.75, 
			 "cosmo_total_nonelectrostatic_energy": 11.32, 
			 "SMD_solvation_energy": 10.23 
		},
		"coords": [
			{
				"x": 1.6836806925,
				"y": 3.2901870049,
				"z": 2.7204541166,
				"element": "C" 
			},
			{
				"x": 1.3146526117,
				"y": 1.9163994358,
				"z": 2.5070285438,
				"element": "O" 
			},
			{
				"x": 0.7870804179,
				"y": 1.6456324504,
				"z": 1.2943961571,
				"element": "C" 
			},
			{
				"x": 0.6302876998,
				"y": 2.4891550228,
				"z": 0.4363908216,
				"element": "O" 
			},
			{
				"x": 0.4325871707,
				"y": 0.1971329205,
				"z": 1.148808964,
				"element": "C" 
			},
			{
				"x": 0.7537552695,
				"y": -0.7075219265,
				"z": 2.1702817982,
				"element": "C" 
			},
			{
				"x": 0.4432415627,
				"y": -2.0595035926,
				"z": 2.0522522114,
				"element": "C" 
			},
			{
				"x": -0.1924772017,
				"y": -2.5199955905,
				"z": 0.9057195914,
				"element": "C" 
			},
			{
				"x": -0.5092829301,
				"y": -1.6172025706,
				"z": -0.1090892732,
				"element": "C" 
			},
			{
				"x": -0.2122522008,
				"y": -0.25061122,
				"z": -0.0235396421,
				"element": "C" 
			},
			{
				"x": -0.6574796832,
				"y": 0.7414768498,
				"z": -1.0842334749,
				"element": "C" 
			},
			{
				"x": -1.7340857654,
				"y": 1.2867588918,
				"z": -1.046532526,
				"element": "O" 
			},
			{
				"x": 0.2920936839,
				"y": 0.9220424878,
				"z": -2.0063223482,
				"element": "O" 
			},
			{
				"x": -0.0316362176,
				"y": 1.8878321242,
				"z": -3.0225274109,
				"element": "C" 
			},
			{
				"x": -1.1729466866,
				"y": -2.1754803739,
				"z": -1.3074111856,
				"element": "N" 
			},
			{
				"x": -1.4748615268,
				"y": -3.3674111881,
				"z": -1.2829616136,
				"element": "O" 
			},
			{
				"x": -1.378148753,
				"y": -1.4236280242,
				"z": -2.2562356689,
				"element": "O" 
			},
			{
				"x": 2.440719992,
				"y": 3.5998898732,
				"z": 1.9961071463,
				"element": "H" 
			},
			{
				"x": 2.0808990062,
				"y": 3.3315534997,
				"z": 3.7341706263,
				"element": "H" 
			},
			{
				"x": 0.8108544186,
				"y": 3.9394608206,
				"z": 2.6205217447,
				"element": "H" 
			},
			{
				"x": 1.250555337,
				"y": -0.3346819211,
				"z": 3.0573968721,
				"element": "H" 
			},
			{
				"x": 0.696666744,
				"y": -2.7514900968,
				"z": 2.8483636511,
				"element": "H" 
			},
			{
				"x": -0.4519149117,
				"y": -3.5623136436,
				"z": 0.772159282,
				"element": "H" 
			},
			{
				"x": -0.9346638336,
				"y": 1.586553294,
				"z": -3.5582723832,
				"element": "H" 
			},
			{
				"x": 0.8267081518,
				"y": 1.9040280023,
				"z": -3.6935642241,
				"element": "H" 
			},
			{
				"x": -0.1860330477,
				"y": 2.8692374701,
				"z": -2.5683617758,
				"element": "H" 
			}
		],
		 "valence_orbital": [ 
			{
				"type": "occ",
				"energy": -0.29696,
				"method": "rhf"
			},
			{
				"type": "occ",
				"energy": -0.29517,
				"method": "rhf"
			},
			{
				"type": "occ",
				"energy": -0.29242,
				"method": "rhf"
			},
			{
				"type": "occ",
				"energy": -0.28917,
				"method": "rhf"
			},
			{
				"type": "occ",
				"energy": -0.26761,
				"method": "rhf"
			},
			{
				"type": "unocc",
				"energy": -0.09767,
				"method": "rhf"
			},
			{
				"type": "unocc",
				"energy": -0.07,
				"method": "rhf"
			},
			{
				"type": "unocc",
				"energy": -0.01758,
				"method": "rhf"
			},
			{
				"type": "unocc",
				"energy": 0.0183,
				"method": "rhf"
			},
			{
				"type": "unocc",
				"energy": 0.04034,
				"method": "rhf"
			}
		],
		"cosmo_sigma_profile": { 
			"-0.025": 0.0,
			"-0.024": 0.0,
			"-0.023": 0.0,
			"-0.022": 0.0,
			"-0.021": 0.0,
			"-0.02": 0.0,
			"-0.019": 0.0,
			"-0.018": 0.0,
			"-0.017": 0.0,
			"-0.016": 0.0,
			"-0.015": 0.0,
			"-0.014": 0.0,
			"-0.013": 0.0,
			"-0.012": 0.0,
			"-0.011": 0.0,
			"-0.01": 0.0,
			"-0.009": 1.08671318396,
			"-0.008": 6.20060309989,
			"-0.007": 11.0525605508,
			"-0.006": 17.2021404998,
			"-0.005": 20.0920714214,
			"-0.004": 24.8017653866,
			"-0.003": 22.4966350435,
			"-0.002": 21.4279055026,
			"-0.001": 21.0355542453,
			"0.0": 14.0271772496,
			"0.001": 9.79499099463,
			"0.002": 7.77790894427,
			"0.003": 8.73203645264,
			"0.004": 8.2811017581,
			"0.005": 8.522665179,
			"0.006": 9.7490601437,
			"0.007": 13.0028366002,
			"0.008": 9.91823380068,
			"0.009": 6.89172000607,
			"0.01": 5.59479117508,
			"0.011": 6.38550682079,
			"0.012": 2.42143594068,
			"0.013": 0.0183672586652,
			"0.014": 0.0,
			"0.015": 0.0,
			"0.016": 0.0,
			"0.017": 0.0,
			"0.018": 0.0,
			"0.019": 0.0,
			"0.02": 0.0,
			"0.021": 0.0,
			"0.022": 0.0,
			"0.023": 0.0,
			"0.024": 0.0,
			"0.025": 0.0
		}
	}
}
