{
	 "smiles": "CC(C)N1N=NC2=CC(=CC=C12)C(O)=O", 
	 "Tm": 497.15, 
	 "num_atms": 26, 
	 "gaussian": { 
		 "optdone": 1, 
		 "sigma_profile": "yes", 
		 "theory": "DFT", 
		 "functional": "B3LYP", 
		 "basiset": "6-31G**", 
		 "properties": { 
			 "R2extent": 5129.4486, 
			 "electric_dipole_moment_norm": 5.2603231165, 
			 "electric_quadrupole_moment_norm": 19.9681952099, 
			 "total_energy": -702.383251721, 
			 "HOMO_LUMO_gap": 0.189, 
			 "cosmo_polarized_energy": -19.27, 
			 "cosmo_cavitation_energy": 30.34, 
			 "cosmo_dispersion_energy": -21.78, 
			 "cosmo_repulsion_energy": 1.69, 
			 "cosmo_total_nonelectrostatic_energy": 10.25, 
			 "SMD_solvation_energy": 4.75 
		},
		"coords": [
			{
				"x": -0.8775116252,
				"y": -0.8651428969,
				"z": -3.3621489793,
				"element": "C" 
			},
			{
				"x": -0.3602104533,
				"y": -0.1041323219,
				"z": -2.1364562884,
				"element": "C" 
			},
			{
				"x": -0.70731929,
				"y": 1.3883226131,
				"z": -2.1730396994,
				"element": "C" 
			},
			{
				"x": -0.8748033528,
				"y": -0.7173752631,
				"z": -0.9008230813,
				"element": "N" 
			},
			{
				"x": -2.2189047176,
				"y": -0.7474880026,
				"z": -0.6619138308,
				"element": "N" 
			},
			{
				"x": -2.4453123008,
				"y": -1.3213271849,
				"z": 0.4749230001,
				"element": "N" 
			},
			{
				"x": -1.2340823748,
				"y": -1.6907738692,
				"z": 1.0178489215,
				"element": "C" 
			},
			{
				"x": -0.9384194793,
				"y": -2.3386580718,
				"z": 2.2246619048,
				"element": "C" 
			},
			{
				"x": 0.3996529409,
				"y": -2.5867149313,
				"z": 2.5167450437,
				"element": "C" 
			},
			{
				"x": 1.4260344582,
				"y": -2.1687281364,
				"z": 1.6234214345,
				"element": "C" 
			},
			{
				"x": 1.1503074948,
				"y": -1.5343402844,
				"z": 0.4272976041,
				"element": "C" 
			},
			{
				"x": -0.2054939933,
				"y": -1.3014648835,
				"z": 0.134251651,
				"element": "C" 
			},
			{
				"x": 0.8431104843,
				"y": -3.2512940791,
				"z": 3.7849894424,
				"element": "C" 
			},
			{
				"x": -0.0872936296,
				"y": -3.9802815607,
				"z": 4.4569073316,
				"element": "O" 
			},
			{
				"x": 1.9681305134,
				"y": -3.1632807569,
				"z": 4.219479604,
				"element": "O" 
			},
			{
				"x": -0.4548096436,
				"y": -0.4336432604,
				"z": -4.2742945178,
				"element": "H" 
			},
			{
				"x": -1.9671099588,
				"y": -0.8003846934,
				"z": -3.4179823931,
				"element": "H" 
			},
			{
				"x": -0.5958260626,
				"y": -1.9209914252,
				"z": -3.3167750037,
				"element": "H" 
			},
			{
				"x": 0.7272564083,
				"y": -0.2182925865,
				"z": -2.0759998245,
				"element": "H" 
			},
			{
				"x": -1.7914254565,
				"y": 1.5261012699,
				"z": -2.1908624448,
				"element": "H" 
			},
			{
				"x": -0.3074377096,
				"y": 1.9062621461,
				"z": -1.2966872353,
				"element": "H" 
			},
			{
				"x": -0.2820105889,
				"y": 1.8480288026,
				"z": -3.0700892221,
				"element": "H" 
			},
			{
				"x": -1.7488845104,
				"y": -2.5902447957,
				"z": 2.9027353203,
				"element": "H" 
			},
			{
				"x": 2.4502399726,
				"y": -2.3665210338,
				"z": 1.9193443515,
				"element": "H" 
			},
			{
				"x": 1.9480061211,
				"y": -1.2302668474,
				"z": -0.2422321599,
				"element": "H" 
			},
			{
				"x": -0.8768832465,
				"y": -4.1023679467,
				"z": 3.912199071,
				"element": "H" 
			}
		],
		 "valence_orbital": [ 
			{
				"type": "occ",
				"energy": -0.31645,
				"method": "rhf"
			},
			{
				"type": "occ",
				"energy": -0.28027,
				"method": "rhf"
			},
			{
				"type": "occ",
				"energy": -0.2757,
				"method": "rhf"
			},
			{
				"type": "occ",
				"energy": -0.26441,
				"method": "rhf"
			},
			{
				"type": "occ",
				"energy": -0.25352,
				"method": "rhf"
			},
			{
				"type": "unocc",
				"energy": -0.06452,
				"method": "rhf"
			},
			{
				"type": "unocc",
				"energy": -0.03638,
				"method": "rhf"
			},
			{
				"type": "unocc",
				"energy": 0.01744,
				"method": "rhf"
			},
			{
				"type": "unocc",
				"energy": 0.05337,
				"method": "rhf"
			},
			{
				"type": "unocc",
				"energy": 0.0648,
				"method": "rhf"
			}
		],
		"cosmo_sigma_profile": { 
			"-0.025": 0.0,
			"-0.024": 0.0,
			"-0.023": 0.0,
			"-0.022": 0.0,
			"-0.021": 0.0,
			"-0.02": 0.0,
			"-0.019": 0.241907811806,
			"-0.018": 1.43401600772,
			"-0.017": 0.769939407638,
			"-0.016": 0.561853879449,
			"-0.015": 1.24437230688,
			"-0.014": 1.35595802365,
			"-0.013": 0.920709097303,
			"-0.012": 1.6450960261,
			"-0.011": 0.790630642348,
			"-0.01": 1.25269685179,
			"-0.009": 3.10263423956,
			"-0.008": 5.27391812068,
			"-0.007": 6.4254241985,
			"-0.006": 7.54689121703,
			"-0.005": 11.8672661432,
			"-0.004": 19.9242785974,
			"-0.003": 18.4651513628,
			"-0.002": 21.1493907486,
			"-0.001": 21.9670170372,
			"0.0": 23.6836510963,
			"0.001": 18.0541304778,
			"0.002": 11.2109200926,
			"0.003": 6.92158435962,
			"0.004": 4.9084191824,
			"0.005": 4.00991942163,
			"0.006": 3.61615216591,
			"0.007": 5.30094503397,
			"0.008": 5.0498370198,
			"0.009": 5.93783736466,
			"0.01": 8.34894623869,
			"0.011": 7.41180906097,
			"0.012": 6.49998071395,
			"0.013": 2.71270532271,
			"0.014": 1.1423167224,
			"0.015": 0.755125028237,
			"0.016": 0.00996187469177,
			"0.017": 0.0,
			"0.018": 0.0,
			"0.019": 0.0,
			"0.02": 0.0,
			"0.021": 0.0,
			"0.022": 0.0,
			"0.023": 0.0,
			"0.024": 0.0,
			"0.025": 0.0
		}
	}
}
