{
	 "smiles": "ClC1=CC(Br)=C(Cl)N=C1", 
	 "Tm": 312.15, 
	 "num_atms": 11, 
	 "gaussian": { 
		 "optdone": 1, 
		 "sigma_profile": "yes", 
		 "theory": "DFT", 
		 "functional": "B3LYP", 
		 "basiset": "6-31G**", 
		 "properties": { 
			 "R2extent": 3442.6895, 
			 "electric_dipole_moment_norm": 1.76180451526, 
			 "electric_quadrupole_moment_norm": 2.91716220152, 
			 "total_energy": -3738.2633463, 
			 "HOMO_LUMO_gap": 0.20249, 
			 "cosmo_polarized_energy": -5.13, 
			 "cosmo_cavitation_energy": 21.71, 
			 "cosmo_dispersion_energy": -16.95, 
			 "cosmo_repulsion_energy": 1.39, 
			 "cosmo_total_nonelectrostatic_energy": 6.15, 
			 "SMD_solvation_energy": 0.85 
		},
		"coords": [
			{
				"x": -1.2680761941,
				"y": 2.2034112054,
				"z": -2.8361578113,
				"element": "Cl" 
			},
			{
				"x": -0.624578974,
				"y": 0.954756448,
				"z": -1.7989240583,
				"element": "C" 
			},
			{
				"x": -1.0525952564,
				"y": -0.364192926,
				"z": -1.9331779279,
				"element": "C" 
			},
			{
				"x": -0.5129690074,
				"y": -1.3287342895,
				"z": -1.0847440007,
				"element": "C" 
			},
			{
				"x": -1.0875152568,
				"y": -3.1263827939,
				"z": -1.2577081108,
				"element": "Br" 
			},
			{
				"x": 0.4384478875,
				"y": -0.9199053046,
				"z": -0.1341349071,
				"element": "C" 
			},
			{
				"x": 1.1622934292,
				"y": -2.0674783551,
				"z": 0.9660982057,
				"element": "Cl" 
			},
			{
				"x": 0.8348909214,
				"y": 0.3358717245,
				"z": -0.0185667809,
				"element": "N" 
			},
			{
				"x": 0.3246133801,
				"y": 1.2674509457,
				"z": -0.8258876208,
				"element": "C" 
			},
			{
				"x": -1.788404522,
				"y": -0.6389338189,
				"z": -2.679035439,
				"element": "H" 
			},
			{
				"x": 0.6784935925,
				"y": 2.2861371643,
				"z": -0.6962615488,
				"element": "H" 
			}
		],
		 "valence_orbital": [ 
			{
				"type": "occ",
				"energy": -0.3339,
				"method": "rhf"
			},
			{
				"type": "occ",
				"energy": -0.3084,
				"method": "rhf"
			},
			{
				"type": "occ",
				"energy": -0.29274,
				"method": "rhf"
			},
			{
				"type": "occ",
				"energy": -0.29053,
				"method": "rhf"
			},
			{
				"type": "occ",
				"energy": -0.2636,
				"method": "rhf"
			},
			{
				"type": "unocc",
				"energy": -0.06111,
				"method": "rhf"
			},
			{
				"type": "unocc",
				"energy": -0.04881,
				"method": "rhf"
			},
			{
				"type": "unocc",
				"energy": -0.02752,
				"method": "rhf"
			},
			{
				"type": "unocc",
				"energy": 0.01644,
				"method": "rhf"
			},
			{
				"type": "unocc",
				"energy": 0.03993,
				"method": "rhf"
			}
		],
		"cosmo_sigma_profile": { 
			"-0.025": 0.0,
			"-0.024": 0.0,
			"-0.023": 0.0,
			"-0.022": 0.0,
			"-0.021": 0.0,
			"-0.02": 0.0,
			"-0.019": 0.0,
			"-0.018": 0.0,
			"-0.017": 0.0,
			"-0.016": 0.0,
			"-0.015": 0.0,
			"-0.014": 0.0,
			"-0.013": 0.0,
			"-0.012": 0.0,
			"-0.011": 0.00400995218327,
			"-0.01": 1.08418006305,
			"-0.009": 3.22592583825,
			"-0.008": 2.93677233992,
			"-0.007": 3.62194226287,
			"-0.006": 4.35487869341,
			"-0.005": 5.10244131909,
			"-0.004": 6.94468130147,
			"-0.003": 16.2791438156,
			"-0.002": 22.9522653595,
			"-0.001": 16.9357942423,
			"0.0": 14.5550572377,
			"0.001": 14.253233947,
			"0.002": 18.0969388842,
			"0.003": 27.3272789953,
			"0.004": 14.1244185062,
			"0.005": 3.29145616164,
			"0.006": 1.90206698767,
			"0.007": 1.44928162324,
			"0.008": 1.06869604969,
			"0.009": 1.09374215499,
			"0.01": 1.07825415636,
			"0.011": 0.769305313711,
			"0.012": 0.746405318747,
			"0.013": 0.358436194015,
			"0.014": 0.0,
			"0.015": 0.0,
			"0.016": 0.0,
			"0.017": 0.0,
			"0.018": 0.0,
			"0.019": 0.0,
			"0.02": 0.0,
			"0.021": 0.0,
			"0.022": 0.0,
			"0.023": 0.0,
			"0.024": 0.0,
			"0.025": 0.0
		}
	}
}
