{
	 "smiles": "NC(=O)C1CCC1", 
	 "Tm": 425.15, 
	 "num_atms": 16, 
	 "gaussian": { 
		 "optdone": 1, 
		 "sigma_profile": "yes", 
		 "theory": "DFT", 
		 "functional": "B3LYP", 
		 "basiset": "6-31G**", 
		 "properties": { 
			 "R2extent": 822.3577, 
			 "electric_dipole_moment_norm": 3.70277029938, 
			 "electric_quadrupole_moment_norm": 8.38235529192, 
			 "total_energy": -325.918993452, 
			 "HOMO_LUMO_gap": 0.26705, 
			 "cosmo_polarized_energy": -11.76, 
			 "cosmo_cavitation_energy": 18.47, 
			 "cosmo_dispersion_energy": -13.88, 
			 "cosmo_repulsion_energy": 1.2, 
			 "cosmo_total_nonelectrostatic_energy": 5.79, 
			 "SMD_solvation_energy": 3.61 
		},
		"coords": [
			{
				"x": 1.8808589875,
				"y": -0.0757678192,
				"z": 0.1212455863,
				"element": "N" 
			},
			{
				"x": 0.6396552555,
				"y": 0.4913938691,
				"z": 0.2623371328,
				"element": "C" 
			},
			{
				"x": 0.4192602976,
				"y": 1.3485857684,
				"z": 1.1071014909,
				"element": "O" 
			},
			{
				"x": -0.4753056633,
				"y": -0.0539209518,
				"z": -0.6208428637,
				"element": "C" 
			},
			{
				"x": -0.1069199701,
				"y": -0.7683912123,
				"z": -1.9564204241,
				"element": "C" 
			},
			{
				"x": -0.3190553295,
				"y": -2.1472904472,
				"z": -1.2742376489,
				"element": "C" 
			},
			{
				"x": -1.0449975864,
				"y": -1.4239174599,
				"z": -0.1085262615,
				"element": "C" 
			},
			{
				"x": 2.6262165448,
				"y": 0.3116844925,
				"z": 0.6800825342,
				"element": "H" 
			},
			{
				"x": 2.1240696017,
				"y": -0.6611402214,
				"z": -0.6601438484,
				"element": "H" 
			},
			{
				"x": -1.2093968679,
				"y": 0.7502825699,
				"z": -0.696048016,
				"element": "H" 
			},
			{
				"x": -0.8614574928,
				"y": -0.5705116779,
				"z": -2.7229851235,
				"element": "H" 
			},
			{
				"x": 0.8718028909,
				"y": -0.5535427428,
				"z": -2.3994843364,
				"element": "H" 
			},
			{
				"x": 0.6191960261,
				"y": -2.6089183646,
				"z": -0.9510076355,
				"element": "H" 
			},
			{
				"x": -0.8898620612,
				"y": -2.8947006232,
				"z": -1.8319918009,
				"element": "H" 
			},
			{
				"x": -0.7772332319,
				"y": -1.7151383605,
				"z": 0.9103323893,
				"element": "H" 
			},
			{
				"x": -2.133531401,
				"y": -1.4603068191,
				"z": -0.2047111748,
				"element": "H" 
			}
		],
		 "valence_orbital": [ 
			{
				"type": "occ",
				"energy": -0.33641,
				"method": "rhf"
			},
			{
				"type": "occ",
				"energy": -0.31649,
				"method": "rhf"
			},
			{
				"type": "occ",
				"energy": -0.31014,
				"method": "rhf"
			},
			{
				"type": "occ",
				"energy": -0.26124,
				"method": "rhf"
			},
			{
				"type": "occ",
				"energy": -0.23661,
				"method": "rhf"
			},
			{
				"type": "unocc",
				"energy": 0.03044,
				"method": "rhf"
			},
			{
				"type": "unocc",
				"energy": 0.06153,
				"method": "rhf"
			},
			{
				"type": "unocc",
				"energy": 0.08498,
				"method": "rhf"
			},
			{
				"type": "unocc",
				"energy": 0.12056,
				"method": "rhf"
			},
			{
				"type": "unocc",
				"energy": 0.13095,
				"method": "rhf"
			}
		],
		"cosmo_sigma_profile": { 
			"-0.025": 0.0,
			"-0.024": 0.0,
			"-0.023": 0.0,
			"-0.022": 0.0,
			"-0.021": 0.0,
			"-0.02": 0.0,
			"-0.019": 0.0,
			"-0.018": 0.0,
			"-0.017": 0.0,
			"-0.016": 0.0,
			"-0.015": 0.0,
			"-0.014": 0.39659020681,
			"-0.013": 1.94372564666,
			"-0.012": 1.98930248545,
			"-0.011": 2.14984898644,
			"-0.01": 2.63126668132,
			"-0.009": 2.37935535693,
			"-0.008": 2.52242123779,
			"-0.007": 1.830570092,
			"-0.006": 2.03244995577,
			"-0.005": 2.58117484216,
			"-0.004": 9.04203126662,
			"-0.003": 14.901415932,
			"-0.002": 18.2114188592,
			"-0.001": 17.455908655,
			"0.0": 16.2096831013,
			"0.001": 12.4232129807,
			"0.002": 5.42306433369,
			"0.003": 2.72675780077,
			"0.004": 1.77476076749,
			"0.005": 1.94997642899,
			"0.006": 2.44019320727,
			"0.007": 1.61861028671,
			"0.008": 1.29903680264,
			"0.009": 2.1094743932,
			"0.01": 0.513088842065,
			"0.011": 0.957906197853,
			"0.012": 2.21506023532,
			"0.013": 2.16575922743,
			"0.014": 5.98648399999,
			"0.015": 3.54682710142,
			"0.016": 0.402447157984,
			"0.017": 0.0,
			"0.018": 0.0,
			"0.019": 0.0,
			"0.02": 0.0,
			"0.021": 0.0,
			"0.022": 0.0,
			"0.023": 0.0,
			"0.024": 0.0,
			"0.025": 0.0
		}
	}
}
