{
	 "smiles": "CC(CO)C1=CC=CC=C1", 
	 "Tm": 260.15, 
	 "num_atms": 22, 
	 "gaussian": { 
		 "optdone": 1, 
		 "sigma_profile": "yes", 
		 "theory": "DFT", 
		 "functional": "B3LYP", 
		 "basiset": "6-31G**", 
		 "properties": { 
			 "R2extent": 1576.4943, 
			 "electric_dipole_moment_norm": 1.5528562522, 
			 "electric_quadrupole_moment_norm": 8.75289508334, 
			 "total_energy": -425.412581928, 
			 "HOMO_LUMO_gap": 0.23657, 
			 "cosmo_polarized_energy": -6.58, 
			 "cosmo_cavitation_energy": 24.13, 
			 "cosmo_dispersion_energy": -17.56, 
			 "cosmo_repulsion_energy": 1.43, 
			 "cosmo_total_nonelectrostatic_energy": 8.0, 
			 "SMD_solvation_energy": 4.07 
		},
		"coords": [
			{
				"x": -0.394883427,
				"y": -2.3684155395,
				"z": 0.2556250616,
				"element": "C" 
			},
			{
				"x": 0.5740104764,
				"y": -1.2215188044,
				"z": -0.0731032247,
				"element": "C" 
			},
			{
				"x": 0.8429117358,
				"y": -1.1509551779,
				"z": -1.5970689466,
				"element": "C" 
			},
			{
				"x": -0.3161823654,
				"y": -0.8602367165,
				"z": -2.3614222785,
				"element": "O" 
			},
			{
				"x": 0.1212127963,
				"y": 0.1361272841,
				"z": 0.4452193346,
				"element": "C" 
			},
			{
				"x": 1.0567458286,
				"y": 1.0283297113,
				"z": 0.9909622524,
				"element": "C" 
			},
			{
				"x": 0.6785176786,
				"y": 2.2993714574,
				"z": 1.4232119207,
				"element": "C" 
			},
			{
				"x": -0.65194967,
				"y": 2.7096348437,
				"z": 1.3144680668,
				"element": "C" 
			},
			{
				"x": -1.5957265793,
				"y": 1.8360399321,
				"z": 0.7741258633,
				"element": "C" 
			},
			{
				"x": -1.2134570426,
				"y": 0.5625423641,
				"z": 0.3439167051,
				"element": "C" 
			},
			{
				"x": -0.6558264248,
				"y": -2.3802346868,
				"z": 1.3179241543,
				"element": "H" 
			},
			{
				"x": 0.0623214661,
				"y": -3.3317312371,
				"z": 0.0056800219,
				"element": "H" 
			},
			{
				"x": -1.3150431634,
				"y": -2.2856568463,
				"z": -0.3287596299,
				"element": "H" 
			},
			{
				"x": 1.5428244515,
				"y": -1.4433781194,
				"z": 0.3953525081,
				"element": "H" 
			},
			{
				"x": 1.6425654601,
				"y": -0.4194434497,
				"z": -1.7917937211,
				"element": "H" 
			},
			{
				"x": 1.1947165573,
				"y": -2.1275451332,
				"z": -1.9476644286,
				"element": "H" 
			},
			{
				"x": -0.6063950266,
				"y": 0.0288381901,
				"z": -2.1142846202,
				"element": "H" 
			},
			{
				"x": 2.0951610081,
				"y": 0.7176431025,
				"z": 1.0819631006,
				"element": "H" 
			},
			{
				"x": 1.4219799851,
				"y": 2.968098588,
				"z": 1.8482544243,
				"element": "H" 
			},
			{
				"x": -0.9500459889,
				"y": 3.6978941152,
				"z": 1.6524502934,
				"element": "H" 
			},
			{
				"x": -2.6350549992,
				"y": 2.1416970706,
				"z": 0.6899661736,
				"element": "H" 
			},
			{
				"x": -1.9659027565,
				"y": -0.1104009484,
				"z": -0.055823031,
				"element": "H" 
			}
		],
		 "valence_orbital": [ 
			{
				"type": "occ",
				"energy": -0.3301,
				"method": "rhf"
			},
			{
				"type": "occ",
				"energy": -0.31229,
				"method": "rhf"
			},
			{
				"type": "occ",
				"energy": -0.26665,
				"method": "rhf"
			},
			{
				"type": "occ",
				"energy": -0.25202,
				"method": "rhf"
			},
			{
				"type": "occ",
				"energy": -0.24246,
				"method": "rhf"
			},
			{
				"type": "unocc",
				"energy": -0.00589,
				"method": "rhf"
			},
			{
				"type": "unocc",
				"energy": -0.00297,
				"method": "rhf"
			},
			{
				"type": "unocc",
				"energy": 0.08582,
				"method": "rhf"
			},
			{
				"type": "unocc",
				"energy": 0.10236,
				"method": "rhf"
			},
			{
				"type": "unocc",
				"energy": 0.10899,
				"method": "rhf"
			}
		],
		"cosmo_sigma_profile": { 
			"-0.025": 0.0,
			"-0.024": 0.0,
			"-0.023": 0.0,
			"-0.022": 0.0,
			"-0.021": 0.0,
			"-0.02": 0.0,
			"-0.019": 0.0,
			"-0.018": 0.0,
			"-0.017": 0.0,
			"-0.016": 0.0,
			"-0.015": 0.0,
			"-0.014": 0.0,
			"-0.013": 0.0,
			"-0.012": 0.514800393017,
			"-0.011": 0.779558640485,
			"-0.01": 1.02878893698,
			"-0.009": 0.474697688052,
			"-0.008": 0.723982143808,
			"-0.007": 1.02744959718,
			"-0.006": 3.01679775746,
			"-0.005": 11.4543441206,
			"-0.004": 17.7197622763,
			"-0.003": 26.3732801513,
			"-0.002": 20.4552172972,
			"-0.001": 18.5525997156,
			"0.0": 14.4593427962,
			"0.001": 15.5884052719,
			"0.002": 10.4283318544,
			"0.003": 8.50370270178,
			"0.004": 8.57943547196,
			"0.005": 8.23460968553,
			"0.006": 8.8458456341,
			"0.007": 2.55252618371,
			"0.008": 1.35190369379,
			"0.009": 0.752659092122,
			"0.01": 0.984597881819,
			"0.011": 1.40028385543,
			"0.012": 1.37271573072,
			"0.013": 1.48871701389,
			"0.014": 1.95677577609,
			"0.015": 0.779930366661,
			"0.016": 0.0,
			"0.017": 0.0,
			"0.018": 0.0,
			"0.019": 0.0,
			"0.02": 0.0,
			"0.021": 0.0,
			"0.022": 0.0,
			"0.023": 0.0,
			"0.024": 0.0,
			"0.025": 0.0
		}
	}
}
