{
	 "smiles": "CCOC=C(C#N)C(O)=O", 
	 "Tm": 337.15, 
	 "num_atms": 17, 
	 "gaussian": { 
		 "optdone": 1, 
		 "sigma_profile": "yes", 
		 "theory": "DFT", 
		 "functional": "B3LYP", 
		 "basiset": "6-31G**", 
		 "properties": { 
			 "R2extent": 1844.9959, 
			 "electric_dipole_moment_norm": 2.37012217829, 
			 "electric_quadrupole_moment_norm": 15.5543052715, 
			 "total_energy": -513.252217213, 
			 "HOMO_LUMO_gap": 0.20242, 
			 "cosmo_polarized_energy": -13.46, 
			 "cosmo_cavitation_energy": 22.48, 
			 "cosmo_dispersion_energy": -15.85, 
			 "cosmo_repulsion_energy": 1.31, 
			 "cosmo_total_nonelectrostatic_energy": 7.94, 
			 "SMD_solvation_energy": 7.28 
		},
		"coords": [
			{
				"x": 2.4653102977,
				"y": 1.1402460236,
				"z": -1.8369571215,
				"element": "C" 
			},
			{
				"x": 1.8400293518,
				"y": -0.0830987054,
				"z": -2.4859614753,
				"element": "C" 
			},
			{
				"x": 1.958839668,
				"y": -1.2553566156,
				"z": -1.6305424715,
				"element": "O" 
			},
			{
				"x": 1.0945915953,
				"y": -1.5510739362,
				"z": -0.6794353385,
				"element": "C" 
			},
			{
				"x": -0.0548858707,
				"y": -0.9500825345,
				"z": -0.2448419768,
				"element": "C" 
			},
			{
				"x": -0.6244440679,
				"y": 0.2537982306,
				"z": -0.7524296369,
				"element": "C" 
			},
			{
				"x": -1.0939429737,
				"y": 1.2405101414,
				"z": -1.1561128237,
				"element": "N" 
			},
			{
				"x": -0.7397035368,
				"y": -1.6516069894,
				"z": 0.874864124,
				"element": "C" 
			},
			{
				"x": -1.863467572,
				"y": -1.0119538884,
				"z": 1.2612210781,
				"element": "O" 
			},
			{
				"x": -0.3515920295,
				"y": -2.6793543937,
				"z": 1.3960517301,
				"element": "O" 
			},
			{
				"x": 3.5059443534,
				"y": 0.943668072,
				"z": -1.5645545274,
				"element": "H" 
			},
			{
				"x": 1.913372113,
				"y": 1.4498237854,
				"z": -0.9468179345,
				"element": "H" 
			},
			{
				"x": 2.4440217341,
				"y": 1.9720448129,
				"z": -2.5480606375,
				"element": "H" 
			},
			{
				"x": 2.3853550247,
				"y": -0.3750774728,
				"z": -3.3858221023,
				"element": "H" 
			},
			{
				"x": 0.7928137841,
				"y": 0.0770489876,
				"z": -2.7458100761,
				"element": "H" 
			},
			{
				"x": 1.3776427903,
				"y": -2.4636170634,
				"z": -0.1601910048,
				"element": "H" 
			},
			{
				"x": -2.2367846618,
				"y": -1.5370184542,
				"z": 1.9883001947,
				"element": "H" 
			}
		],
		 "valence_orbital": [ 
			{
				"type": "occ",
				"energy": -0.35488,
				"method": "rhf"
			},
			{
				"type": "occ",
				"energy": -0.33507,
				"method": "rhf"
			},
			{
				"type": "occ",
				"energy": -0.32839,
				"method": "rhf"
			},
			{
				"type": "occ",
				"energy": -0.28611,
				"method": "rhf"
			},
			{
				"type": "occ",
				"energy": -0.25987,
				"method": "rhf"
			},
			{
				"type": "unocc",
				"energy": -0.05745,
				"method": "rhf"
			},
			{
				"type": "unocc",
				"energy": 0.01753,
				"method": "rhf"
			},
			{
				"type": "unocc",
				"energy": 0.02104,
				"method": "rhf"
			},
			{
				"type": "unocc",
				"energy": 0.07113,
				"method": "rhf"
			},
			{
				"type": "unocc",
				"energy": 0.09504,
				"method": "rhf"
			}
		],
		"cosmo_sigma_profile": { 
			"-0.025": 0.0,
			"-0.024": 0.0,
			"-0.023": 0.0,
			"-0.022": 0.0,
			"-0.021": 0.0,
			"-0.02": 0.0,
			"-0.019": 0.377241892904,
			"-0.018": 0.904926941007,
			"-0.017": 1.09036483319,
			"-0.016": 0.71252272255,
			"-0.015": 0.758029108826,
			"-0.014": 0.632114280653,
			"-0.013": 1.01597445644,
			"-0.012": 0.556067919441,
			"-0.011": 0.832417767226,
			"-0.01": 0.781670299606,
			"-0.009": 1.52293794235,
			"-0.008": 2.86330777369,
			"-0.007": 5.23726811704,
			"-0.006": 7.85004877765,
			"-0.005": 14.1559130027,
			"-0.004": 14.5168473121,
			"-0.003": 16.6720638157,
			"-0.002": 17.5717013707,
			"-0.001": 13.6562280511,
			"0.0": 8.70721363711,
			"0.001": 6.97763134047,
			"0.002": 5.7621409713,
			"0.003": 4.43483826311,
			"0.004": 4.66985203757,
			"0.005": 4.87192618737,
			"0.006": 5.94716906548,
			"0.007": 6.7129752973,
			"0.008": 6.65871829667,
			"0.009": 5.12725750631,
			"0.01": 4.87823495039,
			"0.011": 7.13688780168,
			"0.012": 4.26000334333,
			"0.013": 1.61017448849,
			"0.014": 0.0429438015333,
			"0.015": 0.0,
			"0.016": 0.0,
			"0.017": 0.0,
			"0.018": 0.0,
			"0.019": 0.0,
			"0.02": 0.0,
			"0.021": 0.0,
			"0.022": 0.0,
			"0.023": 0.0,
			"0.024": 0.0,
			"0.025": 0.0
		}
	}
}
