{
	 "smiles": "CCCC(C)O", 
	 "Tm": 200.15, 
	 "num_atms": 18, 
	 "gaussian": { 
		 "optdone": 1, 
		 "sigma_profile": "yes", 
		 "theory": "DFT", 
		 "functional": "B3LYP", 
		 "basiset": "6-31G**", 
		 "properties": { 
			 "R2extent": 1037.4627, 
			 "electric_dipole_moment_norm": 1.59413737802, 
			 "electric_quadrupole_moment_norm": 3.0928032899, 
			 "total_energy": -272.99509565, 
			 "HOMO_LUMO_gap": 0.32084, 
			 "cosmo_polarized_energy": -5.56, 
			 "cosmo_cavitation_energy": 19.52, 
			 "cosmo_dispersion_energy": -14.37, 
			 "cosmo_repulsion_energy": 1.25, 
			 "cosmo_total_nonelectrostatic_energy": 6.4, 
			 "SMD_solvation_energy": 3.31 
		},
		"coords": [
			{
				"x": 1.8125182689,
				"y": 1.7877370551,
				"z": 0.0874019704,
				"element": "C" 
			},
			{
				"x": 1.1599502377,
				"y": 0.6011583827,
				"z": -0.6334054587,
				"element": "C" 
			},
			{
				"x": 1.3652459838,
				"y": -0.7597294911,
				"z": 0.0528341743,
				"element": "C" 
			},
			{
				"x": 0.7112522913,
				"y": -0.9022231446,
				"z": 1.437130105,
				"element": "C" 
			},
			{
				"x": 0.9275984543,
				"y": -2.2906987726,
				"z": 2.0283897539,
				"element": "C" 
			},
			{
				"x": -0.7048723751,
				"y": -0.712470341,
				"z": 1.3724664341,
				"element": "O" 
			},
			{
				"x": 1.3931602087,
				"y": 1.9474434853,
				"z": 1.0868799532,
				"element": "H" 
			},
			{
				"x": 1.6735366596,
				"y": 2.7159600174,
				"z": -0.4763378722,
				"element": "H" 
			},
			{
				"x": 2.8904552679,
				"y": 1.6302930835,
				"z": 0.2077196233,
				"element": "H" 
			},
			{
				"x": 1.5608003448,
				"y": 0.5389437203,
				"z": -1.6523435518,
				"element": "H" 
			},
			{
				"x": 0.0837478434,
				"y": 0.7864086726,
				"z": -0.7581421766,
				"element": "H" 
			},
			{
				"x": 0.9596844236,
				"y": -1.5502709284,
				"z": -0.5915539381,
				"element": "H" 
			},
			{
				"x": 2.4422128045,
				"y": -0.9531493753,
				"z": 0.1545124811,
				"element": "H" 
			},
			{
				"x": 1.1539750566,
				"y": -0.1602255519,
				"z": 2.1227555233,
				"element": "H" 
			},
			{
				"x": 0.490939566,
				"y": -3.0524566239,
				"z": 1.3740614414,
				"element": "H" 
			},
			{
				"x": 0.4461651592,
				"y": -2.3661551541,
				"z": 3.0072413924,
				"element": "H" 
			},
			{
				"x": 1.9949271416,
				"y": -2.5028169952,
				"z": 2.1456697979,
				"element": "H" 
			},
			{
				"x": -0.8733973367,
				"y": 0.1990519611,
				"z": 1.1037203471,
				"element": "H" 
			}
		],
		 "valence_orbital": [ 
			{
				"type": "occ",
				"energy": -0.34061,
				"method": "rhf"
			},
			{
				"type": "occ",
				"energy": -0.33283,
				"method": "rhf"
			},
			{
				"type": "occ",
				"energy": -0.33052,
				"method": "rhf"
			},
			{
				"type": "occ",
				"energy": -0.31076,
				"method": "rhf"
			},
			{
				"type": "occ",
				"energy": -0.25828,
				"method": "rhf"
			},
			{
				"type": "unocc",
				"energy": 0.06256,
				"method": "rhf"
			},
			{
				"type": "unocc",
				"energy": 0.11207,
				"method": "rhf"
			},
			{
				"type": "unocc",
				"energy": 0.11906,
				"method": "rhf"
			},
			{
				"type": "unocc",
				"energy": 0.12778,
				"method": "rhf"
			},
			{
				"type": "unocc",
				"energy": 0.13768,
				"method": "rhf"
			}
		],
		"cosmo_sigma_profile": { 
			"-0.025": 0.0,
			"-0.024": 0.0,
			"-0.023": 0.0,
			"-0.022": 0.0,
			"-0.021": 0.0,
			"-0.02": 0.0,
			"-0.019": 0.0,
			"-0.018": 0.0,
			"-0.017": 0.0,
			"-0.016": 0.0,
			"-0.015": 0.0,
			"-0.014": 0.328879072374,
			"-0.013": 0.599487540519,
			"-0.012": 1.09803200135,
			"-0.011": 0.894040662914,
			"-0.01": 1.20516437325,
			"-0.009": 1.22993675299,
			"-0.008": 0.800467235686,
			"-0.007": 1.38663753875,
			"-0.006": 1.24652821363,
			"-0.005": 1.98615367276,
			"-0.004": 2.44594689219,
			"-0.003": 12.0315892031,
			"-0.002": 23.9743053514,
			"-0.001": 24.5263520092,
			"0.0": 25.1059337718,
			"0.001": 23.8594083338,
			"0.002": 8.4623761004,
			"0.003": 1.79035544471,
			"0.004": 1.69396695549,
			"0.005": 1.15477030886,
			"0.006": 1.26305647081,
			"0.007": 1.44201571986,
			"0.008": 1.40098233298,
			"0.009": 0.950983998809,
			"0.01": 1.15331921787,
			"0.011": 1.7622491694,
			"0.012": 1.23370443373,
			"0.013": 1.17065703611,
			"0.014": 2.19685522201,
			"0.015": 1.43615796519,
			"0.016": 0.0,
			"0.017": 0.0,
			"0.018": 0.0,
			"0.019": 0.0,
			"0.02": 0.0,
			"0.021": 0.0,
			"0.022": 0.0,
			"0.023": 0.0,
			"0.024": 0.0,
			"0.025": 0.0
		}
	}
}
