{
	 "smiles": "OCC1=CC(C=CC(O)=O)=CC=C1", 
	 "Tm": 403.15, 
	 "num_atms": 23, 
	 "gaussian": { 
		 "optdone": 1, 
		 "sigma_profile": "yes", 
		 "theory": "DFT", 
		 "functional": "B3LYP", 
		 "basiset": "6-31G**", 
		 "properties": { 
			 "R2extent": 3636.12, 
			 "electric_dipole_moment_norm": 1.92775082933, 
			 "electric_quadrupole_moment_norm": 11.2215205231, 
			 "total_energy": -612.750999054, 
			 "HOMO_LUMO_gap": 0.16652, 
			 "cosmo_polarized_energy": -12.55, 
			 "cosmo_cavitation_energy": 27.6, 
			 "cosmo_dispersion_energy": -20.1, 
			 "cosmo_repulsion_energy": 1.6, 
			 "cosmo_total_nonelectrostatic_energy": 9.1, 
			 "SMD_solvation_energy": 6.0 
		},
		"coords": [
			{
				"x": -0.9209311165,
				"y": 3.5612298744,
				"z": 2.8004080354,
				"element": "O" 
			},
			{
				"x": -0.6807928856,
				"y": 2.1618082072,
				"z": 2.8691314029,
				"element": "C" 
			},
			{
				"x": 0.4432695871,
				"y": 1.6912035394,
				"z": 1.9629213704,
				"element": "C" 
			},
			{
				"x": 0.4230993939,
				"y": 0.3993004221,
				"z": 1.4344777065,
				"element": "C" 
			},
			{
				"x": 1.4753947713,
				"y": -0.0673417822,
				"z": 0.621127338,
				"element": "C" 
			},
			{
				"x": 1.5635936453,
				"y": -1.3980207245,
				"z": 0.0152193168,
				"element": "C" 
			},
			{
				"x": 0.7948089855,
				"y": -2.5142775861,
				"z": -0.0120266803,
				"element": "C" 
			},
			{
				"x": -0.509317513,
				"y": -2.8064759857,
				"z": 0.6035485942,
				"element": "C" 
			},
			{
				"x": -0.8907895902,
				"y": -4.0760696905,
				"z": 0.2939435073,
				"element": "O" 
			},
			{
				"x": -1.2180678271,
				"y": -2.0948886786,
				"z": 1.2966010083,
				"element": "O" 
			},
			{
				"x": 2.5461100094,
				"y": 0.8116244985,
				"z": 0.3481423914,
				"element": "C" 
			},
			{
				"x": 2.5641271352,
				"y": 2.1027778969,
				"z": 0.8649566765,
				"element": "C" 
			},
			{
				"x": 1.5161794969,
				"y": 2.5442571326,
				"z": 1.6731535985,
				"element": "C" 
			},
			{
				"x": -1.1723073055,
				"y": 3.7673015595,
				"z": 1.8900960494,
				"element": "H" 
			},
			{
				"x": -0.4194452857,
				"y": 1.9689321627,
				"z": 3.9165671721,
				"element": "H" 
			},
			{
				"x": -1.5912911949,
				"y": 1.5812268424,
				"z": 2.6578938943,
				"element": "H" 
			},
			{
				"x": -0.4096032278,
				"y": -0.2613096799,
				"z": 1.6431062624,
				"element": "H" 
			},
			{
				"x": 2.484191545,
				"y": -1.5127894195,
				"z": -0.5574023714,
				"element": "H" 
			},
			{
				"x": 1.1835654879,
				"y": -3.352702284,
				"z": -0.5814450407,
				"element": "H" 
			},
			{
				"x": -1.7507631141,
				"y": -4.2039387869,
				"z": 0.7268429596,
				"element": "H" 
			},
			{
				"x": 3.3653802803,
				"y": 0.4720609495,
				"z": -0.2804474692,
				"element": "H" 
			},
			{
				"x": 3.3950543364,
				"y": 2.7652260154,
				"z": 0.6400538513,
				"element": "H" 
			},
			{
				"x": 1.5134343861,
				"y": 3.5505655173,
				"z": 2.0806304262,
				"element": "H" 
			}
		],
		 "valence_orbital": [ 
			{
				"type": "occ",
				"energy": -0.30497,
				"method": "rhf"
			},
			{
				"type": "occ",
				"energy": -0.27651,
				"method": "rhf"
			},
			{
				"type": "occ",
				"energy": -0.27282,
				"method": "rhf"
			},
			{
				"type": "occ",
				"energy": -0.24915,
				"method": "rhf"
			},
			{
				"type": "occ",
				"energy": -0.23646,
				"method": "rhf"
			},
			{
				"type": "unocc",
				"energy": -0.06994,
				"method": "rhf"
			},
			{
				"type": "unocc",
				"energy": -0.00685,
				"method": "rhf"
			},
			{
				"type": "unocc",
				"energy": 0.01444,
				"method": "rhf"
			},
			{
				"type": "unocc",
				"energy": 0.08378,
				"method": "rhf"
			},
			{
				"type": "unocc",
				"energy": 0.08479,
				"method": "rhf"
			}
		],
		"cosmo_sigma_profile": { 
			"-0.025": 0.0,
			"-0.024": 0.0,
			"-0.023": 0.0,
			"-0.022": 0.0,
			"-0.021": 0.0,
			"-0.02": 0.0,
			"-0.019": 0.0,
			"-0.018": 0.289592320834,
			"-0.017": 1.3858276981,
			"-0.016": 0.485710277558,
			"-0.015": 1.88597633238,
			"-0.014": 1.8151957633,
			"-0.013": 1.16832344656,
			"-0.012": 1.74455630547,
			"-0.011": 1.83317724487,
			"-0.01": 1.35258084293,
			"-0.009": 0.922045629866,
			"-0.008": 2.53242317675,
			"-0.007": 6.15326018965,
			"-0.006": 10.3395613684,
			"-0.005": 12.9214225576,
			"-0.004": 15.2438206471,
			"-0.003": 12.9901620886,
			"-0.002": 14.0688586082,
			"-0.001": 14.110185621,
			"0.0": 13.088971042,
			"0.001": 14.768512098,
			"0.002": 16.9203728728,
			"0.003": 18.8916950035,
			"0.004": 15.2499353253,
			"0.005": 8.94925252197,
			"0.006": 4.48407405575,
			"0.007": 4.18943646613,
			"0.008": 3.60527974985,
			"0.009": 3.91739572794,
			"0.01": 3.66946670146,
			"0.011": 3.98153343881,
			"0.012": 3.18582642164,
			"0.013": 1.56157818579,
			"0.014": 1.86576388213,
			"0.015": 0.0600256366372,
			"0.016": 0.0,
			"0.017": 0.0,
			"0.018": 0.0,
			"0.019": 0.0,
			"0.02": 0.0,
			"0.021": 0.0,
			"0.022": 0.0,
			"0.023": 0.0,
			"0.024": 0.0,
			"0.025": 0.0
		}
	}
}
