{
	 "smiles": "COC(=O)C1=CC2=C(N1)C=C(OC)C(OC)=C2OC", 
	 "Tm": 410.15, 
	 "num_atms": 34, 
	 "gaussian": { 
		 "optdone": 1, 
		 "sigma_profile": "yes", 
		 "theory": "DFT", 
		 "functional": "B3LYP", 
		 "basiset": "6-31G**", 
		 "properties": { 
			 "R2extent": 6975.1216, 
			 "electric_dipole_moment_norm": 1.51049073152, 
			 "electric_quadrupole_moment_norm": 9.40941686078, 
			 "total_energy": -935.259911443, 
			 "HOMO_LUMO_gap": 0.15953, 
			 "cosmo_polarized_energy": -12.5, 
			 "cosmo_cavitation_energy": 38.44, 
			 "cosmo_dispersion_energy": -26.96, 
			 "cosmo_repulsion_energy": 2.11, 
			 "cosmo_total_nonelectrostatic_energy": 13.59, 
			 "SMD_solvation_energy": 10.09 
		},
		"coords": [
			{
				"x": 3.8226515947,
				"y": -4.5750213167,
				"z": 0.7972764652,
				"element": "C" 
			},
			{
				"x": 3.0805928008,
				"y": -3.3558949314,
				"z": 0.9510701757,
				"element": "O" 
			},
			{
				"x": 2.7173600663,
				"y": -2.7577436088,
				"z": -0.2032878163,
				"element": "C" 
			},
			{
				"x": 2.9818599934,
				"y": -3.1952985393,
				"z": -1.3123644673,
				"element": "O" 
			},
			{
				"x": 1.9686689422,
				"y": -1.521941751,
				"z": 0.0161362104,
				"element": "C" 
			},
			{
				"x": 1.5681434306,
				"y": -0.8599731182,
				"z": 1.1583765872,
				"element": "C" 
			},
			{
				"x": 0.8640034182,
				"y": 0.3036896645,
				"z": 0.7301701956,
				"element": "C" 
			},
			{
				"x": 0.8662335509,
				"y": 0.3063889324,
				"z": -0.6949604889,
				"element": "C" 
			},
			{
				"x": 1.5417965261,
				"y": -0.8158987467,
				"z": -1.0978754449,
				"element": "N" 
			},
			{
				"x": 0.2404212179,
				"y": 1.3126652527,
				"z": -1.443988467,
				"element": "C" 
			},
			{
				"x": -0.3694761753,
				"y": 2.3401954646,
				"z": -0.7399534971,
				"element": "C" 
			},
			{
				"x": -0.927690422,
				"y": 3.3807263514,
				"z": -1.4465707007,
				"element": "O" 
			},
			{
				"x": -2.3553652627,
				"y": 3.4694365096,
				"z": -1.3788397499,
				"element": "C" 
			},
			{
				"x": -0.3671861695,
				"y": 2.3792564703,
				"z": 0.6860025136,
				"element": "C" 
			},
			{
				"x": -0.9700691972,
				"y": 3.4418542237,
				"z": 1.333808065,
				"element": "O" 
			},
			{
				"x": -0.1340550095,
				"y": 4.6020997248,
				"z": 1.4300537883,
				"element": "C" 
			},
			{
				"x": 0.2385753155,
				"y": 1.3638444666,
				"z": 1.4233917033,
				"element": "C" 
			},
			{
				"x": 0.3163754629,
				"y": 1.3737847006,
				"z": 2.7912372089,
				"element": "O" 
			},
			{
				"x": -0.9276834943,
				"y": 1.3698782282,
				"z": 3.5020925859,
				"element": "C" 
			},
			{
				"x": 4.0330659645,
				"y": -4.9195442259,
				"z": 1.80963989,
				"element": "H" 
			},
			{
				"x": 4.7530286693,
				"y": -4.3950604716,
				"z": 0.2525023305,
				"element": "H" 
			},
			{
				"x": 3.2351794315,
				"y": -5.3192152274,
				"z": 0.2533338295,
				"element": "H" 
			},
			{
				"x": 1.7619641668,
				"y": -1.1693176714,
				"z": 2.1734527092,
				"element": "H" 
			},
			{
				"x": 1.7315544279,
				"y": -1.1231118281,
				"z": -2.039636279,
				"element": "H" 
			},
			{
				"x": 0.2279140121,
				"y": 1.3224811626,
				"z": -2.5281177491,
				"element": "H" 
			},
			{
				"x": -2.6360875867,
				"y": 4.3287458908,
				"z": -1.9916182446,
				"element": "H" 
			},
			{
				"x": -2.6962920419,
				"y": 3.621712424,
				"z": -0.3507891246,
				"element": "H" 
			},
			{
				"x": -2.819882724,
				"y": 2.5647194959,
				"z": -1.7917034578,
				"element": "H" 
			},
			{
				"x": 0.1278853727,
				"y": 4.9765666949,
				"z": 0.4347254784,
				"element": "H" 
			},
			{
				"x": 0.7791774597,
				"y": 4.3778877904,
				"z": 1.9934824679,
				"element": "H" 
			},
			{
				"x": -0.7145555841,
				"y": 5.3580511242,
				"z": 1.963881323,
				"element": "H" 
			},
			{
				"x": -0.6669356058,
				"y": 1.3363166436,
				"z": 4.5619465124,
				"element": "H" 
			},
			{
				"x": -1.5121999607,
				"y": 2.2679403103,
				"z": 3.2890859629,
				"element": "H" 
			},
			{
				"x": -1.5156725901,
				"y": 0.4791799104,
				"z": 3.2473394844,
				"element": "H" 
			}
		],
		 "valence_orbital": [ 
			{
				"type": "occ",
				"energy": -0.27603,
				"method": "rhf"
			},
			{
				"type": "occ",
				"energy": -0.26992,
				"method": "rhf"
			},
			{
				"type": "occ",
				"energy": -0.25566,
				"method": "rhf"
			},
			{
				"type": "occ",
				"energy": -0.21567,
				"method": "rhf"
			},
			{
				"type": "occ",
				"energy": -0.20087,
				"method": "rhf"
			},
			{
				"type": "unocc",
				"energy": -0.04134,
				"method": "rhf"
			},
			{
				"type": "unocc",
				"energy": 0.01914,
				"method": "rhf"
			},
			{
				"type": "unocc",
				"energy": 0.03144,
				"method": "rhf"
			},
			{
				"type": "unocc",
				"energy": 0.07786,
				"method": "rhf"
			},
			{
				"type": "unocc",
				"energy": 0.09835,
				"method": "rhf"
			}
		],
		"cosmo_sigma_profile": { 
			"-0.025": 0.0,
			"-0.024": 0.0,
			"-0.023": 0.0,
			"-0.022": 0.0,
			"-0.021": 0.0,
			"-0.02": 0.0,
			"-0.019": 0.0,
			"-0.018": 0.0,
			"-0.017": 0.0,
			"-0.016": 0.0617111663086,
			"-0.015": 0.779766595598,
			"-0.014": 0.878225314715,
			"-0.013": 0.885132142638,
			"-0.012": 1.03815519016,
			"-0.011": 0.920009780219,
			"-0.01": 0.856075641368,
			"-0.009": 0.846288936658,
			"-0.008": 1.39858389204,
			"-0.007": 4.19398092069,
			"-0.006": 9.25552185463,
			"-0.005": 19.0805600413,
			"-0.004": 27.0418886938,
			"-0.003": 35.7934438196,
			"-0.002": 33.0622591143,
			"-0.001": 20.9398203339,
			"0.0": 18.3559336951,
			"0.001": 17.6483512509,
			"0.002": 21.4987489652,
			"0.003": 27.7270376034,
			"0.004": 19.251041106,
			"0.005": 8.46443011658,
			"0.006": 7.22562905049,
			"0.007": 5.9797835851,
			"0.008": 4.08455031789,
			"0.009": 4.12888741403,
			"0.01": 3.56004076553,
			"0.011": 5.37833292033,
			"0.012": 4.51260744195,
			"0.013": 0.345126988539,
			"0.014": 0.0,
			"0.015": 0.0,
			"0.016": 0.0,
			"0.017": 0.0,
			"0.018": 0.0,
			"0.019": 0.0,
			"0.02": 0.0,
			"0.021": 0.0,
			"0.022": 0.0,
			"0.023": 0.0,
			"0.024": 0.0,
			"0.025": 0.0
		}
	}
}
