{
	 "smiles": "NC(=NO)C1=C(OC2=CC=CC=C2)N=CC=C1", 
	 "Tm": 426.15, 
	 "num_atms": 28, 
	 "gaussian": { 
		 "optdone": 1, 
		 "sigma_profile": "yes", 
		 "theory": "DFT", 
		 "functional": "B3LYP", 
		 "basiset": "6-31G**", 
		 "properties": { 
			 "R2extent": 4814.7111, 
			 "electric_dipole_moment_norm": 1.78967831188, 
			 "electric_quadrupole_moment_norm": 9.37460073976, 
			 "total_energy": -778.544397692, 
			 "HOMO_LUMO_gap": 0.17281, 
			 "cosmo_polarized_energy": -16.76, 
			 "cosmo_cavitation_energy": 33.3, 
			 "cosmo_dispersion_energy": -23.89, 
			 "cosmo_repulsion_energy": 1.91, 
			 "cosmo_total_nonelectrostatic_energy": 11.32, 
			 "SMD_solvation_energy": 5.26 
		},
		"coords": [
			{
				"x": 2.5479213135,
				"y": -1.8583254899,
				"z": 1.1589195111,
				"element": "N" 
			},
			{
				"x": 1.5946220205,
				"y": -0.8724898978,
				"z": 1.3745355579,
				"element": "C" 
			},
			{
				"x": 1.866724097,
				"y": 0.3237347151,
				"z": 1.7774860255,
				"element": "N" 
			},
			{
				"x": 3.2789016509,
				"y": 0.4867528768,
				"z": 1.8514363706,
				"element": "O" 
			},
			{
				"x": 0.1744586205,
				"y": -1.2821611384,
				"z": 1.2442028299,
				"element": "C" 
			},
			{
				"x": -0.8425538563,
				"y": -0.465272272,
				"z": 0.6868151802,
				"element": "C" 
			},
			{
				"x": -0.4668274839,
				"y": 0.7401989968,
				"z": 0.1852000867,
				"element": "O" 
			},
			{
				"x": -1.410869674,
				"y": 1.6760886412,
				"z": -0.2236146272,
				"element": "C" 
			},
			{
				"x": -2.3445627017,
				"y": 2.2096092382,
				"z": 0.6654965404,
				"element": "C" 
			},
			{
				"x": -3.194190691,
				"y": 3.2238025793,
				"z": 0.2264005751,
				"element": "C" 
			},
			{
				"x": -3.108126956,
				"y": 3.7064938956,
				"z": -1.0824871808,
				"element": "C" 
			},
			{
				"x": -2.1629162022,
				"y": 3.1684253412,
				"z": -1.9566757659,
				"element": "C" 
			},
			{
				"x": -1.3104918338,
				"y": 2.1482636479,
				"z": -1.530065792,
				"element": "C" 
			},
			{
				"x": -2.110736979,
				"y": -0.8356177159,
				"z": 0.5849045457,
				"element": "N" 
			},
			{
				"x": -2.4590069068,
				"y": -2.0524492576,
				"z": 1.024662653,
				"element": "C" 
			},
			{
				"x": -1.5527136728,
				"y": -2.954649484,
				"z": 1.5682328096,
				"element": "C" 
			},
			{
				"x": -0.2198672089,
				"y": -2.5523123036,
				"z": 1.6726013713,
				"element": "C" 
			},
			{
				"x": 3.4914504437,
				"y": -1.4932410712,
				"z": 1.134321664,
				"element": "H" 
			},
			{
				"x": 2.3368971506,
				"y": -2.5036309605,
				"z": 0.4103564249,
				"element": "H" 
			},
			{
				"x": 3.3557456773,
				"y": 1.4144252679,
				"z": 2.104586237,
				"element": "H" 
			},
			{
				"x": -2.4008947851,
				"y": 1.8323715445,
				"z": 1.6801180738,
				"element": "H" 
			},
			{
				"x": -3.9244831016,
				"y": 3.6417703822,
				"z": 0.9133583377,
				"element": "H" 
			},
			{
				"x": -3.7717724695,
				"y": 4.498654208,
				"z": -1.4159402536,
				"element": "H" 
			},
			{
				"x": -2.0858376827,
				"y": 3.5399762314,
				"z": -2.9744402507,
				"element": "H" 
			},
			{
				"x": -0.5657626636,
				"y": 1.7174529211,
				"z": -2.1910771478,
				"element": "H" 
			},
			{
				"x": -3.5122389953,
				"y": -2.308241943,
				"z": 0.9256567423,
				"element": "H" 
			},
			{
				"x": -1.8748985977,
				"y": -3.9330659398,
				"z": 1.9075248361,
				"element": "H" 
			},
			{
				"x": 0.5263314879,
				"y": -3.2102630136,
				"z": 2.1068846453,
				"element": "H" 
			}
		],
		 "valence_orbital": [ 
			{
				"type": "occ",
				"energy": -0.26859,
				"method": "rhf"
			},
			{
				"type": "occ",
				"energy": -0.25048,
				"method": "rhf"
			},
			{
				"type": "occ",
				"energy": -0.24558,
				"method": "rhf"
			},
			{
				"type": "occ",
				"energy": -0.2273,
				"method": "rhf"
			},
			{
				"type": "occ",
				"energy": -0.20791,
				"method": "rhf"
			},
			{
				"type": "unocc",
				"energy": -0.0351,
				"method": "rhf"
			},
			{
				"type": "unocc",
				"energy": -0.01161,
				"method": "rhf"
			},
			{
				"type": "unocc",
				"energy": 0.00403,
				"method": "rhf"
			},
			{
				"type": "unocc",
				"energy": 0.01281,
				"method": "rhf"
			},
			{
				"type": "unocc",
				"energy": 0.04831,
				"method": "rhf"
			}
		],
		"cosmo_sigma_profile": { 
			"-0.025": 0.0,
			"-0.024": 0.0,
			"-0.023": 0.0,
			"-0.022": 0.0,
			"-0.021": 0.0,
			"-0.02": 0.0,
			"-0.019": 0.0,
			"-0.018": 0.0,
			"-0.017": 0.526026194824,
			"-0.016": 0.908969048655,
			"-0.015": 0.794899952434,
			"-0.014": 1.12187362564,
			"-0.013": 1.83192398747,
			"-0.012": 2.02722159046,
			"-0.011": 2.79640707704,
			"-0.01": 2.17854413554,
			"-0.009": 3.54866190259,
			"-0.008": 2.62178826944,
			"-0.007": 7.42445346299,
			"-0.006": 17.0702005481,
			"-0.005": 19.7287215965,
			"-0.004": 18.3555934913,
			"-0.003": 14.3800000682,
			"-0.002": 13.2427608869,
			"-0.001": 15.0730848121,
			"0.0": 17.3487967405,
			"0.001": 17.6819317135,
			"0.002": 19.5122187346,
			"0.003": 15.9597470084,
			"0.004": 15.0899784898,
			"0.005": 13.5596263463,
			"0.006": 9.29564542754,
			"0.007": 8.11957662973,
			"0.008": 6.19221397386,
			"0.009": 4.81759285424,
			"0.01": 4.33820689379,
			"0.011": 3.38207077219,
			"0.012": 2.46950209536,
			"0.013": 2.20987191569,
			"0.014": 1.83787913753,
			"0.015": 0.896959317848,
			"0.016": 0.0629879641485,
			"0.017": 0.0,
			"0.018": 0.0,
			"0.019": 0.0,
			"0.02": 0.0,
			"0.021": 0.0,
			"0.022": 0.0,
			"0.023": 0.0,
			"0.024": 0.0,
			"0.025": 0.0
		}
	}
}
