{
	 "smiles": "OCC#C", 
	 "Tm": 221.35, 
	 "num_atms": 8, 
	 "gaussian": { 
		 "optdone": 1, 
		 "sigma_profile": "yes", 
		 "theory": "DFT", 
		 "functional": "B3LYP", 
		 "basiset": "6-31G**", 
		 "properties": { 
			 "R2extent": 1084.2984, 
			 "electric_dipole_moment_norm": 1.44158074696, 
			 "electric_quadrupole_moment_norm": 4.67023197818, 
			 "total_energy": -191.858756127, 
			 "HOMO_LUMO_gap": 0.29362, 
			 "cosmo_polarized_energy": -7.31, 
			 "cosmo_cavitation_energy": 12.62, 
			 "cosmo_dispersion_energy": -8.81, 
			 "cosmo_repulsion_energy": 0.82, 
			 "cosmo_total_nonelectrostatic_energy": 4.63, 
			 "SMD_solvation_energy": 3.97 
		},
		"coords": [
			{
				"x": -1.2637494978,
				"y": 0.9553204496,
				"z": 0.6296134368,
				"element": "O" 
			},
			{
				"x": -1.2136750843,
				"y": 1.5452657873,
				"z": 1.9217996245,
				"element": "C" 
			},
			{
				"x": -1.3907553618,
				"y": 0.5799818055,
				"z": 3.0137602664,
				"element": "C" 
			},
			{
				"x": -1.5033795852,
				"y": -0.238652802,
				"z": 3.8949405109,
				"element": "C" 
			},
			{
				"x": -0.622795939,
				"y": 0.2323378777,
				"z": 0.615332686,
				"element": "H" 
			},
			{
				"x": -0.2722427149,
				"y": 2.0962213115,
				"z": 2.0802174391,
				"element": "H" 
			},
			{
				"x": -2.020913069,
				"y": 2.2855133828,
				"z": 1.9450979195,
				"element": "H" 
			},
			{
				"x": -1.619688748,
				"y": -0.9548878123,
				"z": 4.6752381169,
				"element": "H" 
			}
		],
		 "valence_orbital": [ 
			{
				"type": "occ",
				"energy": -0.4489,
				"method": "rhf"
			},
			{
				"type": "occ",
				"energy": -0.35823,
				"method": "rhf"
			},
			{
				"type": "occ",
				"energy": -0.29255,
				"method": "rhf"
			},
			{
				"type": "occ",
				"energy": -0.27566,
				"method": "rhf"
			},
			{
				"type": "occ",
				"energy": -0.2668,
				"method": "rhf"
			},
			{
				"type": "unocc",
				"energy": 0.02682,
				"method": "rhf"
			},
			{
				"type": "unocc",
				"energy": 0.05124,
				"method": "rhf"
			},
			{
				"type": "unocc",
				"energy": 0.10051,
				"method": "rhf"
			},
			{
				"type": "unocc",
				"energy": 0.12034,
				"method": "rhf"
			},
			{
				"type": "unocc",
				"energy": 0.13157,
				"method": "rhf"
			}
		],
		"cosmo_sigma_profile": { 
			"-0.025": 0.0,
			"-0.024": 0.0,
			"-0.023": 0.0,
			"-0.022": 0.0,
			"-0.021": 0.0,
			"-0.02": 0.0,
			"-0.019": 0.0,
			"-0.018": 0.0,
			"-0.017": 0.0,
			"-0.016": 0.644895287195,
			"-0.015": 0.965670253885,
			"-0.014": 0.915127454005,
			"-0.013": 0.856035530442,
			"-0.012": 1.49245212476,
			"-0.011": 1.86521659172,
			"-0.01": 1.76237824879,
			"-0.009": 1.854781074,
			"-0.008": 2.53152198163,
			"-0.007": 3.05193963288,
			"-0.006": 6.91468892926,
			"-0.005": 6.82872581691,
			"-0.004": 6.36411827961,
			"-0.003": 4.15636614166,
			"-0.002": 3.64685859307,
			"-0.001": 4.08744872446,
			"0.0": 4.48124598856,
			"0.001": 3.23085055833,
			"0.002": 4.00677189476,
			"0.003": 4.35921844901,
			"0.004": 6.64933659202,
			"0.005": 5.21958198577,
			"0.006": 9.04943179643,
			"0.007": 5.42673842793,
			"0.008": 1.75740585347,
			"0.009": 1.50677134675,
			"0.01": 0.815223108985,
			"0.011": 1.38486978292,
			"0.012": 1.69716401361,
			"0.013": 2.30894016614,
			"0.014": 1.10770056407,
			"0.015": 0.0,
			"0.016": 0.0,
			"0.017": 0.0,
			"0.018": 0.0,
			"0.019": 0.0,
			"0.02": 0.0,
			"0.021": 0.0,
			"0.022": 0.0,
			"0.023": 0.0,
			"0.024": 0.0,
			"0.025": 0.0
		}
	}
}
