{
	 "smiles": "BrC1=C(C=CC=C1)C1=NC2=C(S1)C(=O)CCC2", 
	 "Tm": 404.15, 
	 "num_atms": 27, 
	 "gaussian": { 
		 "optdone": 1, 
		 "sigma_profile": "yes", 
		 "theory": "DFT", 
		 "functional": "B3LYP", 
		 "basiset": "6-31G**", 
		 "properties": { 
			 "R2extent": 6689.2963, 
			 "electric_dipole_moment_norm": 4.21509466204, 
			 "electric_quadrupole_moment_norm": 14.2442258473, 
			 "total_energy": -3600.98679099, 
			 "HOMO_LUMO_gap": 0.15266, 
			 "cosmo_polarized_energy": -10.43, 
			 "cosmo_cavitation_energy": 33.91, 
			 "cosmo_dispersion_energy": -26.14, 
			 "cosmo_repulsion_energy": 1.97, 
			 "cosmo_total_nonelectrostatic_energy": 9.73, 
			 "SMD_solvation_energy": 3.26 
		},
		"coords": [
			{
				"x": -3.1416779279,
				"y": 1.7940167911,
				"z": -0.7450769103,
				"element": "Br" 
			},
			{
				"x": -1.4630551104,
				"y": 2.4436246329,
				"z": -1.3928223831,
				"element": "C" 
			},
			{
				"x": -0.2184258841,
				"y": 1.935999132,
				"z": -0.9684084742,
				"element": "C" 
			},
			{
				"x": 0.9311192184,
				"y": 2.5272169495,
				"z": -1.5451296022,
				"element": "C" 
			},
			{
				"x": 0.85056298,
				"y": 3.5501768249,
				"z": -2.4772772929,
				"element": "C" 
			},
			{
				"x": -0.3984322593,
				"y": 4.0307262595,
				"z": -2.8766560123,
				"element": "C" 
			},
			{
				"x": -1.5505243424,
				"y": 3.4743466187,
				"z": -2.3316511685,
				"element": "C" 
			},
			{
				"x": 0.0377093179,
				"y": 0.8589156865,
				"z": 0.010067978,
				"element": "C" 
			},
			{
				"x": 1.2824325145,
				"y": 0.5151722132,
				"z": 0.2981706117,
				"element": "N" 
			},
			{
				"x": 1.3350977088,
				"y": -0.4922179063,
				"z": 1.2081818777,
				"element": "C" 
			},
			{
				"x": 0.1118247597,
				"y": -0.9536246442,
				"z": 1.6519187582,
				"element": "C" 
			},
			{
				"x": -1.173445506,
				"y": -0.0790590995,
				"z": 0.879279262,
				"element": "S" 
			},
			{
				"x": -0.0771869468,
				"y": -2.0100831596,
				"z": 2.6483245735,
				"element": "C" 
			},
			{
				"x": -1.1771033873,
				"y": -2.4046421788,
				"z": 3.0087313791,
				"element": "O" 
			},
			{
				"x": 1.2282246031,
				"y": -2.5519923016,
				"z": 3.2347918524,
				"element": "C" 
			},
			{
				"x": 2.4138315734,
				"y": -2.4859918917,
				"z": 2.2565328495,
				"element": "C" 
			},
			{
				"x": 2.6321705898,
				"y": -1.0657070971,
				"z": 1.7056069458,
				"element": "C" 
			},
			{
				"x": 1.8925296909,
				"y": 2.1443794067,
				"z": -1.2258722775,
				"element": "H" 
			},
			{
				"x": 1.7607447025,
				"y": 3.9720514454,
				"z": -2.8920202531,
				"element": "H" 
			},
			{
				"x": -0.4802932212,
				"y": 4.8312340311,
				"z": -3.6054994567,
				"element": "H" 
			},
			{
				"x": -2.5291553103,
				"y": 3.8331270534,
				"z": -2.6281106104,
				"element": "H" 
			},
			{
				"x": 1.4481696395,
				"y": -1.9499949481,
				"z": 4.129135928,
				"element": "H" 
			},
			{
				"x": 1.0383316867,
				"y": -3.5719268093,
				"z": 3.5803760946,
				"element": "H" 
			},
			{
				"x": 3.3241732527,
				"y": -2.8399657396,
				"z": 2.7511947596,
				"element": "H" 
			},
			{
				"x": 2.2241967356,
				"y": -3.1671524422,
				"z": 1.4177148076,
				"element": "H" 
			},
			{
				"x": 3.3678426429,
				"y": -1.061046174,
				"z": 0.8950485443,
				"element": "H" 
			},
			{
				"x": 3.0351382793,
				"y": -0.4119826529,
				"z": 2.4930482191,
				"element": "H" 
			}
		],
		 "valence_orbital": [ 
			{
				"type": "occ",
				"energy": -0.28608,
				"method": "rhf"
			},
			{
				"type": "occ",
				"energy": -0.28021,
				"method": "rhf"
			},
			{
				"type": "occ",
				"energy": -0.25542,
				"method": "rhf"
			},
			{
				"type": "occ",
				"energy": -0.24386,
				"method": "rhf"
			},
			{
				"type": "occ",
				"energy": -0.23314,
				"method": "rhf"
			},
			{
				"type": "unocc",
				"energy": -0.08048,
				"method": "rhf"
			},
			{
				"type": "unocc",
				"energy": -0.02566,
				"method": "rhf"
			},
			{
				"type": "unocc",
				"energy": -0.01979,
				"method": "rhf"
			},
			{
				"type": "unocc",
				"energy": -0.00392,
				"method": "rhf"
			},
			{
				"type": "unocc",
				"energy": 0.02865,
				"method": "rhf"
			}
		],
		"cosmo_sigma_profile": { 
			"-0.025": 0.0,
			"-0.024": 0.0,
			"-0.023": 0.0,
			"-0.022": 0.0,
			"-0.021": 0.0,
			"-0.02": 0.0,
			"-0.019": 0.0,
			"-0.018": 0.0,
			"-0.017": 0.0,
			"-0.016": 0.0,
			"-0.015": 0.0,
			"-0.014": 0.0,
			"-0.013": 0.0,
			"-0.012": 0.0,
			"-0.011": 0.0,
			"-0.01": 0.0,
			"-0.009": 0.0,
			"-0.008": 0.726623387567,
			"-0.007": 5.33051198575,
			"-0.006": 10.3780749784,
			"-0.005": 20.219867536,
			"-0.004": 22.3116738341,
			"-0.003": 25.2352325198,
			"-0.002": 25.2814420393,
			"-0.001": 24.9377427183,
			"0.0": 22.4991935003,
			"0.001": 28.0047836488,
			"0.002": 28.9611941864,
			"0.003": 25.6860312814,
			"0.004": 8.77292486061,
			"0.005": 3.31805088042,
			"0.006": 3.38015806383,
			"0.007": 3.05130706317,
			"0.008": 2.74260290858,
			"0.009": 2.60566604213,
			"0.01": 2.6431664315,
			"0.011": 2.49811015089,
			"0.012": 4.88979344867,
			"0.013": 2.24331576361,
			"0.014": 0.358706235391,
			"0.015": 0.0,
			"0.016": 0.0,
			"0.017": 0.0,
			"0.018": 0.0,
			"0.019": 0.0,
			"0.02": 0.0,
			"0.021": 0.0,
			"0.022": 0.0,
			"0.023": 0.0,
			"0.024": 0.0,
			"0.025": 0.0
		}
	}
}
