{
	 "smiles": "CCOC(=O)C1=C(NC)SC=N1", 
	 "Tm": 366.15, 
	 "num_atms": 22, 
	 "gaussian": { 
		 "optdone": 1, 
		 "sigma_profile": "yes", 
		 "theory": "DFT", 
		 "functional": "B3LYP", 
		 "basiset": "6-31G**", 
		 "properties": { 
			 "R2extent": 3343.3194, 
			 "electric_dipole_moment_norm": 2.10268063671, 
			 "electric_quadrupole_moment_norm": 12.9325217862, 
			 "total_energy": -930.916831629, 
			 "HOMO_LUMO_gap": 0.18492, 
			 "cosmo_polarized_energy": -11.44, 
			 "cosmo_cavitation_energy": 27.63, 
			 "cosmo_dispersion_energy": -21.04, 
			 "cosmo_repulsion_energy": 1.67, 
			 "cosmo_total_nonelectrostatic_energy": 8.25, 
			 "SMD_solvation_energy": 4.08 
		},
		"coords": [
			{
				"x": -1.3304604131,
				"y": 1.1250251259,
				"z": -3.5758283231,
				"element": "C" 
			},
			{
				"x": -0.3092613899,
				"y": 0.5815738169,
				"z": -2.594198601,
				"element": "C" 
			},
			{
				"x": -0.7959174918,
				"y": 0.8702750745,
				"z": -1.2662848965,
				"element": "O" 
			},
			{
				"x": -0.0150355636,
				"y": 0.459147127,
				"z": -0.2526014144,
				"element": "C" 
			},
			{
				"x": 1.0551565944,
				"y": -0.1301215528,
				"z": -0.4292667021,
				"element": "O" 
			},
			{
				"x": -0.542755494,
				"y": 0.7699663534,
				"z": 1.0683238425,
				"element": "C" 
			},
			{
				"x": 0.1584555847,
				"y": 0.4046598802,
				"z": 2.2274871056,
				"element": "C" 
			},
			{
				"x": 1.33803859,
				"y": -0.2403150064,
				"z": 2.2940951857,
				"element": "N" 
			},
			{
				"x": 2.0163972906,
				"y": -0.5924517623,
				"z": 3.5222731882,
				"element": "C" 
			},
			{
				"x": -0.7415408498,
				"y": 0.9205414847,
				"z": 3.6384543439,
				"element": "S" 
			},
			{
				"x": -1.9792744305,
				"y": 1.5808382865,
				"z": 2.5402888424,
				"element": "C" 
			},
			{
				"x": -1.7360112468,
				"y": 1.4272278573,
				"z": 1.2863976204,
				"element": "N" 
			},
			{
				"x": -1.4528297946,
				"y": 2.2048387627,
				"z": -3.4530205436,
				"element": "H" 
			},
			{
				"x": -1.0021309145,
				"y": 0.9279913255,
				"z": -4.6013122124,
				"element": "H" 
			},
			{
				"x": -2.3046689087,
				"y": 0.650817956,
				"z": -3.4271711008,
				"element": "H" 
			},
			{
				"x": -0.1746380757,
				"y": -0.5000981676,
				"z": -2.6980859407,
				"element": "H" 
			},
			{
				"x": 0.673342345,
				"y": 1.0470201034,
				"z": -2.7237146864,
				"element": "H" 
			},
			{
				"x": 1.7212376326,
				"y": -0.4657599875,
				"z": 1.377912806,
				"element": "H" 
			},
			{
				"x": 2.9474585763,
				"y": -1.1042616011,
				"z": 3.2737427311,
				"element": "H" 
			},
			{
				"x": 2.2612612355,
				"y": 0.2963530025,
				"z": 4.1190504223,
				"element": "H" 
			},
			{
				"x": 1.4090245827,
				"y": -1.2652305677,
				"z": 4.1424302282,
				"element": "H" 
			},
			{
				"x": -2.8532478587,
				"y": 2.0664624891,
				"z": 2.9559281046,
				"element": "H" 
			}
		],
		 "valence_orbital": [ 
			{
				"type": "occ",
				"energy": -0.28909,
				"method": "rhf"
			},
			{
				"type": "occ",
				"energy": -0.27501,
				"method": "rhf"
			},
			{
				"type": "occ",
				"energy": -0.27473,
				"method": "rhf"
			},
			{
				"type": "occ",
				"energy": -0.26489,
				"method": "rhf"
			},
			{
				"type": "occ",
				"energy": -0.20292,
				"method": "rhf"
			},
			{
				"type": "unocc",
				"energy": -0.018,
				"method": "rhf"
			},
			{
				"type": "unocc",
				"energy": -5e-05,
				"method": "rhf"
			},
			{
				"type": "unocc",
				"energy": 0.00724,
				"method": "rhf"
			},
			{
				"type": "unocc",
				"energy": 0.07475,
				"method": "rhf"
			},
			{
				"type": "unocc",
				"energy": 0.10901,
				"method": "rhf"
			}
		],
		"cosmo_sigma_profile": { 
			"-0.025": 0.0,
			"-0.024": 0.0,
			"-0.023": 0.0,
			"-0.022": 0.0,
			"-0.021": 0.0,
			"-0.02": 0.0,
			"-0.019": 0.0,
			"-0.018": 0.0,
			"-0.017": 0.0,
			"-0.016": 0.0,
			"-0.015": 0.0,
			"-0.014": 0.0,
			"-0.013": 0.0,
			"-0.012": 0.0178095184099,
			"-0.011": 0.481712497053,
			"-0.01": 1.39240298522,
			"-0.009": 3.47674196211,
			"-0.008": 3.14244237464,
			"-0.007": 3.86627965417,
			"-0.006": 5.18831206712,
			"-0.005": 13.512278998,
			"-0.004": 22.7907805715,
			"-0.003": 24.3927038073,
			"-0.002": 19.0711823791,
			"-0.001": 17.0715607011,
			"0.0": 21.1360783276,
			"0.001": 21.6672272302,
			"0.002": 14.9399510613,
			"0.003": 10.0465846768,
			"0.004": 5.19439451247,
			"0.005": 4.66400578741,
			"0.006": 2.9753027982,
			"0.007": 3.34138955248,
			"0.008": 3.95932050249,
			"0.009": 3.31585542235,
			"0.01": 3.59162761826,
			"0.011": 2.89620487393,
			"0.012": 3.11695012876,
			"0.013": 2.56371202935,
			"0.014": 1.50317850407,
			"0.015": 1.37603539964,
			"0.016": 0.695688659551,
			"0.017": 0.0167900003785,
			"0.018": 0.0,
			"0.019": 0.0,
			"0.02": 0.0,
			"0.021": 0.0,
			"0.022": 0.0,
			"0.023": 0.0,
			"0.024": 0.0,
			"0.025": 0.0
		}
	}
}
