{
	 "smiles": "CCN1C=NN=C1S", 
	 "Tm": 372.15, 
	 "num_atms": 15, 
	 "gaussian": { 
		 "optdone": 1, 
		 "sigma_profile": "yes", 
		 "theory": "DFT", 
		 "functional": "B3LYP", 
		 "basiset": "6-31G**", 
		 "properties": { 
			 "R2extent": 2573.2374, 
			 "electric_dipole_moment_norm": 5.04485168662, 
			 "electric_quadrupole_moment_norm": 19.9522771069, 
			 "total_energy": -719.05612966, 
			 "HOMO_LUMO_gap": 0.23506, 
			 "cosmo_polarized_energy": -15.43, 
			 "cosmo_cavitation_energy": 20.45, 
			 "cosmo_dispersion_energy": -15.44, 
			 "cosmo_repulsion_energy": 1.23, 
			 "cosmo_total_nonelectrostatic_energy": 6.24, 
			 "SMD_solvation_energy": 1.8 
		},
		"coords": [
			{
				"x": -0.1995392459,
				"y": 0.7160554818,
				"z": 0.1864735388,
				"element": "C" 
			},
			{
				"x": -1.5142317811,
				"y": -0.0351500558,
				"z": -0.0346770361,
				"element": "C" 
			},
			{
				"x": -1.5847902461,
				"y": -1.2949844626,
				"z": 0.7055773989,
				"element": "N" 
			},
			{
				"x": -1.2591364623,
				"y": -2.5541852556,
				"z": 0.2597721887,
				"element": "C" 
			},
			{
				"x": -1.407854704,
				"y": -3.4446746314,
				"z": 1.20550519,
				"element": "N" 
			},
			{
				"x": -1.8398744855,
				"y": -2.7745501891,
				"z": 2.337023389,
				"element": "N" 
			},
			{
				"x": -1.9349756762,
				"y": -1.5040813308,
				"z": 2.0151432633,
				"element": "C" 
			},
			{
				"x": -2.4578210498,
				"y": -0.1974515722,
				"z": 3.0862236952,
				"element": "S" 
			},
			{
				"x": 0.65374709,
				"y": 0.11065184,
				"z": -0.13251733,
				"element": "H" 
			},
			{
				"x": -0.1995695681,
				"y": 1.6446159785,
				"z": -0.3926202354,
				"element": "H" 
			},
			{
				"x": -0.0638466083,
				"y": 0.9709426804,
				"z": 1.2412012468,
				"element": "H" 
			},
			{
				"x": -2.3700919294,
				"y": 0.5783649469,
				"z": 0.2646169575,
				"element": "H" 
			},
			{
				"x": -1.6503880384,
				"y": -0.2768631417,
				"z": -1.0927050251,
				"element": "H" 
			},
			{
				"x": -0.9332477885,
				"y": -2.7496342253,
				"z": -0.752310441,
				"element": "H" 
			},
			{
				"x": -2.7662795064,
				"y": -1.0492560631,
				"z": 4.0818931991,
				"element": "H" 
			}
		],
		 "valence_orbital": [ 
			{
				"type": "occ",
				"energy": -0.31464,
				"method": "rhf"
			},
			{
				"type": "occ",
				"energy": -0.30565,
				"method": "rhf"
			},
			{
				"type": "occ",
				"energy": -0.29002,
				"method": "rhf"
			},
			{
				"type": "occ",
				"energy": -0.25442,
				"method": "rhf"
			},
			{
				"type": "occ",
				"energy": -0.23302,
				"method": "rhf"
			},
			{
				"type": "unocc",
				"energy": 0.00204,
				"method": "rhf"
			},
			{
				"type": "unocc",
				"energy": 0.01708,
				"method": "rhf"
			},
			{
				"type": "unocc",
				"energy": 0.04303,
				"method": "rhf"
			},
			{
				"type": "unocc",
				"energy": 0.05612,
				"method": "rhf"
			},
			{
				"type": "unocc",
				"energy": 0.08876,
				"method": "rhf"
			}
		],
		"cosmo_sigma_profile": { 
			"-0.025": 0.0,
			"-0.024": 0.0,
			"-0.023": 0.0,
			"-0.022": 0.0,
			"-0.021": 0.0,
			"-0.02": 0.0,
			"-0.019": 0.0,
			"-0.018": 0.0,
			"-0.017": 0.0,
			"-0.016": 0.0,
			"-0.015": 0.0,
			"-0.014": 0.0,
			"-0.013": 0.14802547255,
			"-0.012": 1.22997754199,
			"-0.011": 1.84773275853,
			"-0.01": 4.14747418693,
			"-0.009": 3.17545901651,
			"-0.008": 4.74356822273,
			"-0.007": 5.45078165098,
			"-0.006": 7.12872610933,
			"-0.005": 12.0656066019,
			"-0.004": 15.6328055903,
			"-0.003": 11.963782389,
			"-0.002": 12.9387952047,
			"-0.001": 14.0903802206,
			"0.0": 10.9187839261,
			"0.001": 7.59992548823,
			"0.002": 7.16140607785,
			"0.003": 4.96755992836,
			"0.004": 4.5527145371,
			"0.005": 4.75687310478,
			"0.006": 3.24323766869,
			"0.007": 3.4672461241,
			"0.008": 1.42734460949,
			"0.009": 2.17673671003,
			"0.01": 2.08177660634,
			"0.011": 2.3379775438,
			"0.012": 2.55646131207,
			"0.013": 3.60409726232,
			"0.014": 3.615348947,
			"0.015": 2.41690062659,
			"0.016": 2.6588128357,
			"0.017": 0.895789879233,
			"0.018": 0.0,
			"0.019": 0.0,
			"0.02": 0.0,
			"0.021": 0.0,
			"0.022": 0.0,
			"0.023": 0.0,
			"0.024": 0.0,
			"0.025": 0.0
		}
	}
}
