{
	 "smiles": "COC(=O)C1=NN2C(NS(=O)(=O)C3=C2C=CC=C3)=N1", 
	 "Tm": 536.15, 
	 "num_atms": 27, 
	 "gaussian": { 
		 "optdone": 1, 
		 "sigma_profile": "yes", 
		 "theory": "DFT", 
		 "functional": "B3LYP", 
		 "basiset": "6-31G**", 
		 "properties": { 
			 "R2extent": 6770.867, 
			 "electric_dipole_moment_norm": 2.70511115668, 
			 "electric_quadrupole_moment_norm": 31.4357523791, 
			 "total_energy": -1303.88444652, 
			 "HOMO_LUMO_gap": 0.18707, 
			 "cosmo_polarized_energy": -21.28, 
			 "cosmo_cavitation_energy": 34.16, 
			 "cosmo_dispersion_energy": -25.73, 
			 "cosmo_repulsion_energy": 1.91, 
			 "cosmo_total_nonelectrostatic_energy": 10.34, 
			 "SMD_solvation_energy": 4.0 
		},
		"coords": [
			{
				"x": 2.4474158362,
				"y": 1.1217523435,
				"z": -4.9841632975,
				"element": "C" 
			},
			{
				"x": 1.9741829927,
				"y": 0.289638193,
				"z": -3.9121374464,
				"element": "O" 
			},
			{
				"x": 1.663102595,
				"y": 0.9461843138,
				"z": -2.7821862933,
				"element": "C" 
			},
			{
				"x": 1.7540306558,
				"y": 2.1443312577,
				"z": -2.6288491341,
				"element": "O" 
			},
			{
				"x": 1.1838313808,
				"y": 0.0062040477,
				"z": -1.7279981367,
				"element": "C" 
			},
			{
				"x": 0.8431984365,
				"y": 0.4707134586,
				"z": -0.5345095108,
				"element": "N" 
			},
			{
				"x": 0.4741814974,
				"y": -0.666308501,
				"z": 0.1185760287,
				"element": "N" 
			},
			{
				"x": 0.6205687227,
				"y": -1.7355896664,
				"z": -0.724441193,
				"element": "C" 
			},
			{
				"x": 0.2231955239,
				"y": -2.9966094519,
				"z": -0.3173920055,
				"element": "N" 
			},
			{
				"x": 0.5051245216,
				"y": -3.413119866,
				"z": 1.3305445827,
				"element": "S" 
			},
			{
				"x": 1.9418069524,
				"y": -3.4322557984,
				"z": 1.5998759657,
				"element": "O" 
			},
			{
				"x": -0.3139754015,
				"y": -4.5874732066,
				"z": 1.6084457703,
				"element": "O" 
			},
			{
				"x": -0.2053685918,
				"y": -1.9444094673,
				"z": 2.0534295003,
				"element": "C" 
			},
			{
				"x": -0.0555908704,
				"y": -0.7003018597,
				"z": 1.4181830846,
				"element": "C" 
			},
			{
				"x": -0.4813210295,
				"y": 0.4644930212,
				"z": 2.0610713726,
				"element": "C" 
			},
			{
				"x": -1.0552909763,
				"y": 0.3683469675,
				"z": 3.3262664984,
				"element": "C" 
			},
			{
				"x": -1.2281320616,
				"y": -0.8728171548,
				"z": 3.948532505,
				"element": "C" 
			},
			{
				"x": -0.8009625436,
				"y": -2.0355820339,
				"z": 3.3114839776,
				"element": "C" 
			},
			{
				"x": 1.0706768412,
				"y": -1.3528520726,
				"z": -1.8954081558,
				"element": "N" 
			},
			{
				"x": 2.6522415099,
				"y": 0.4428688477,
				"z": -5.8112352329,
				"element": "H" 
			},
			{
				"x": 3.3552853359,
				"y": 1.6520775983,
				"z": -4.6860240761,
				"element": "H" 
			},
			{
				"x": 1.6871797632,
				"y": 1.8548300231,
				"z": -5.2654253059,
				"element": "H" 
			},
			{
				"x": 0.417250711,
				"y": -3.7481226061,
				"z": -0.9739420732,
				"element": "H" 
			},
			{
				"x": -0.3583718874,
				"y": 1.4152646599,
				"z": 1.556370708,
				"element": "H" 
			},
			{
				"x": -1.3841598439,
				"y": 1.2736413764,
				"z": 3.8267286721,
				"element": "H" 
			},
			{
				"x": -1.6935409711,
				"y": -0.9339853448,
				"z": 4.9265139514,
				"element": "H" 
			},
			{
				"x": -0.924059099,
				"y": -3.0097190789,
				"z": 3.772689244,
				"element": "H" 
			}
		],
		 "valence_orbital": [ 
			{
				"type": "occ",
				"energy": -0.30634,
				"method": "rhf"
			},
			{
				"type": "occ",
				"energy": -0.29328,
				"method": "rhf"
			},
			{
				"type": "occ",
				"energy": -0.28093,
				"method": "rhf"
			},
			{
				"type": "occ",
				"energy": -0.27953,
				"method": "rhf"
			},
			{
				"type": "occ",
				"energy": -0.25808,
				"method": "rhf"
			},
			{
				"type": "unocc",
				"energy": -0.07101,
				"method": "rhf"
			},
			{
				"type": "unocc",
				"energy": -0.05499,
				"method": "rhf"
			},
			{
				"type": "unocc",
				"energy": -0.02863,
				"method": "rhf"
			},
			{
				"type": "unocc",
				"energy": 0.00488,
				"method": "rhf"
			},
			{
				"type": "unocc",
				"energy": 0.03307,
				"method": "rhf"
			}
		],
		"cosmo_sigma_profile": { 
			"-0.025": 0.0,
			"-0.024": 0.0,
			"-0.023": 0.0,
			"-0.022": 0.0,
			"-0.021": 0.0,
			"-0.02": 0.0114667681924,
			"-0.019": 1.12550146395,
			"-0.018": 1.25436130852,
			"-0.017": 0.638861444048,
			"-0.016": 1.19093870388,
			"-0.015": 0.94963942088,
			"-0.014": 1.36332666501,
			"-0.013": 0.465629937871,
			"-0.012": 0.730730605056,
			"-0.011": 0.825430817883,
			"-0.01": 0.660970148097,
			"-0.009": 1.96301899351,
			"-0.008": 8.35898329704,
			"-0.007": 12.4633387997,
			"-0.006": 16.5215715363,
			"-0.005": 19.6920100478,
			"-0.004": 22.0108069177,
			"-0.003": 19.5612855278,
			"-0.002": 16.743864836,
			"-0.001": 19.2358267924,
			"0.0": 19.0730030665,
			"0.001": 16.3264822491,
			"0.002": 9.73001780945,
			"0.003": 7.7505620014,
			"0.004": 6.61466554367,
			"0.005": 6.49744970675,
			"0.006": 6.99939053522,
			"0.007": 5.31294600065,
			"0.008": 9.24765141333,
			"0.009": 16.9127349641,
			"0.01": 9.63761053627,
			"0.011": 7.01197070561,
			"0.012": 4.65150586317,
			"0.013": 2.60354437356,
			"0.014": 1.06153784381,
			"0.015": 0.26931531473,
			"0.016": 0.0,
			"0.017": 0.0,
			"0.018": 0.0,
			"0.019": 0.0,
			"0.02": 0.0,
			"0.021": 0.0,
			"0.022": 0.0,
			"0.023": 0.0,
			"0.024": 0.0,
			"0.025": 0.0
		}
	}
}
