{
	 "smiles": "ON=CC1=CC=CN1", 
	 "Tm": 438.15, 
	 "num_atms": 14, 
	 "gaussian": { 
		 "optdone": 1, 
		 "sigma_profile": "yes", 
		 "theory": "DFT", 
		 "functional": "B3LYP", 
		 "basiset": "6-31G**", 
		 "properties": { 
			 "R2extent": 1008.2638, 
			 "electric_dipole_moment_norm": 1.47933089267, 
			 "electric_quadrupole_moment_norm": 8.77804604852, 
			 "total_energy": -378.807174341, 
			 "HOMO_LUMO_gap": 0.18041, 
			 "cosmo_polarized_energy": -8.91, 
			 "cosmo_cavitation_energy": 18.18, 
			 "cosmo_dispersion_energy": -13.88, 
			 "cosmo_repulsion_energy": 1.16, 
			 "cosmo_total_nonelectrostatic_energy": 5.47, 
			 "SMD_solvation_energy": 3.42 
		},
		"coords": [
			{
				"x": 1.539910253,
				"y": -0.7608294173,
				"z": 1.9694634116,
				"element": "O" 
			},
			{
				"x": 2.4185168134,
				"y": -0.8371813846,
				"z": 0.8557123702,
				"element": "N" 
			},
			{
				"x": 1.8966474492,
				"y": -0.3150559131,
				"z": -0.2016275684,
				"element": "C" 
			},
			{
				"x": 0.6174368167,
				"y": 0.3083186183,
				"z": -0.4266894459,
				"element": "C" 
			},
			{
				"x": 0.1199507198,
				"y": 0.8546967303,
				"z": -1.6104061537,
				"element": "C" 
			},
			{
				"x": -1.175971725,
				"y": 1.3492180298,
				"z": -1.3446535035,
				"element": "C" 
			},
			{
				"x": -1.4447001562,
				"y": 1.0963399191,
				"z": -0.0076172464,
				"element": "C" 
			},
			{
				"x": -0.3621249958,
				"y": 0.4713381779,
				"z": 0.534570082,
				"element": "N" 
			},
			{
				"x": 2.0594326403,
				"y": -1.1816474296,
				"z": 2.6652278685,
				"element": "H" 
			},
			{
				"x": 2.5573693727,
				"y": -0.3653005349,
				"z": -1.0651353993,
				"element": "H" 
			},
			{
				"x": 0.6486489675,
				"y": 0.8843281124,
				"z": -2.55335935,
				"element": "H" 
			},
			{
				"x": -1.8429181784,
				"y": 1.8351294096,
				"z": -2.0424036259,
				"element": "H" 
			},
			{
				"x": -2.3198797927,
				"y": 1.3153756429,
				"z": 0.5864526365,
				"element": "H" 
			},
			{
				"x": -0.2374181846,
				"y": 0.1533700392,
				"z": 1.4838659243,
				"element": "H" 
			}
		],
		 "valence_orbital": [ 
			{
				"type": "occ",
				"energy": -0.38178,
				"method": "rhf"
			},
			{
				"type": "occ",
				"energy": -0.28337,
				"method": "rhf"
			},
			{
				"type": "occ",
				"energy": -0.27562,
				"method": "rhf"
			},
			{
				"type": "occ",
				"energy": -0.24606,
				"method": "rhf"
			},
			{
				"type": "occ",
				"energy": -0.2028,
				"method": "rhf"
			},
			{
				"type": "unocc",
				"energy": -0.02239,
				"method": "rhf"
			},
			{
				"type": "unocc",
				"energy": 0.06425,
				"method": "rhf"
			},
			{
				"type": "unocc",
				"energy": 0.0666,
				"method": "rhf"
			},
			{
				"type": "unocc",
				"energy": 0.11186,
				"method": "rhf"
			},
			{
				"type": "unocc",
				"energy": 0.11822,
				"method": "rhf"
			}
		],
		"cosmo_sigma_profile": { 
			"-0.025": 0.0,
			"-0.024": 0.0,
			"-0.023": 0.0,
			"-0.022": 0.0,
			"-0.021": 0.0,
			"-0.02": 0.0,
			"-0.019": 0.0,
			"-0.018": 0.169772963197,
			"-0.017": 1.05600389711,
			"-0.016": 0.768289867053,
			"-0.015": 1.10614666892,
			"-0.014": 0.772902392837,
			"-0.013": 0.658960796981,
			"-0.012": 1.02380541227,
			"-0.011": 1.4388980661,
			"-0.01": 2.01792664683,
			"-0.009": 1.08470127171,
			"-0.008": 3.80649061113,
			"-0.007": 6.79277738694,
			"-0.006": 7.96752904436,
			"-0.005": 7.86080644603,
			"-0.004": 6.35029474464,
			"-0.003": 7.16993298535,
			"-0.002": 6.01366629637,
			"-0.001": 8.49186825475,
			"0.0": 7.67927978772,
			"0.001": 5.53513036493,
			"0.002": 10.4089324382,
			"0.003": 11.3679371095,
			"0.004": 8.78598426289,
			"0.005": 9.39429506392,
			"0.006": 9.29023386294,
			"0.007": 8.50591938008,
			"0.008": 3.20682606115,
			"0.009": 1.58500711074,
			"0.01": 0.981465114987,
			"0.011": 0.9939944191,
			"0.012": 1.23973914405,
			"0.013": 1.0591310649,
			"0.014": 0.715394678463,
			"0.015": 0.0487929558621,
			"0.016": 0.0,
			"0.017": 0.0,
			"0.018": 0.0,
			"0.019": 0.0,
			"0.02": 0.0,
			"0.021": 0.0,
			"0.022": 0.0,
			"0.023": 0.0,
			"0.024": 0.0,
			"0.025": 0.0
		}
	}
}
