{
	 "smiles": "CCCCCCCCCCOC1=CC2=C(C=C1OCC)N=CC(C(=O)OCC)=C2O", 
	 "Tm": 517.15, 
	 "num_atms": 65, 
	 "gaussian": { 
		 "optdone": 1, 
		 "sigma_profile": "yes", 
		 "theory": "DFT", 
		 "functional": "B3LYP", 
		 "basiset": "6-31G**", 
		 "properties": { 
			 "R2extent": 21712.4602, 
			 "electric_dipole_moment_norm": 3.75086842345, 
			 "electric_quadrupole_moment_norm": 42.7059562975, 
			 "total_energy": -1366.55953337, 
			 "HOMO_LUMO_gap": 0.16482, 
			 "cosmo_polarized_energy": -13.63, 
			 "cosmo_cavitation_energy": 65.75, 
			 "cosmo_dispersion_energy": -43.43, 
			 "cosmo_repulsion_energy": 3.37, 
			 "cosmo_total_nonelectrostatic_energy": 25.68, 
			 "SMD_solvation_energy": 9.94 
		},
		"coords": [
			{
				"x": 5.4437802436,
				"y": 3.1611289448,
				"z": -0.9377958435,
				"element": "C" 
			},
			{
				"x": 6.2201941797,
				"y": 1.9757961743,
				"z": -0.3528875855,
				"element": "C" 
			},
			{
				"x": 5.940384679,
				"y": 0.6296389221,
				"z": -1.0432549844,
				"element": "C" 
			},
			{
				"x": 4.5020778636,
				"y": 0.0794933367,
				"z": -0.9760415049,
				"element": "C" 
			},
			{
				"x": 3.9883480814,
				"y": -0.317439316,
				"z": 0.4254198912,
				"element": "C" 
			},
			{
				"x": 3.2758362025,
				"y": 0.7932304848,
				"z": 1.213953095,
				"element": "C" 
			},
			{
				"x": 2.747327626,
				"y": 0.3072978669,
				"z": 2.5706289983,
				"element": "C" 
			},
			{
				"x": 2.1154065052,
				"y": 1.4057081807,
				"z": 3.4450893616,
				"element": "C" 
			},
			{
				"x": 0.8671073716,
				"y": 2.1118329292,
				"z": 2.8840200018,
				"element": "C" 
			},
			{
				"x": -0.4195729288,
				"y": 1.2962707279,
				"z": 2.8627203543,
				"element": "C" 
			},
			{
				"x": -0.3049360525,
				"y": 0.234110355,
				"z": 1.8885215228,
				"element": "O" 
			},
			{
				"x": -1.4815389348,
				"y": -0.3740682794,
				"z": 1.5247644132,
				"element": "C" 
			},
			{
				"x": -1.9342140453,
				"y": -0.2326335231,
				"z": 0.2302098179,
				"element": "C" 
			},
			{
				"x": -3.1264967859,
				"y": -0.8681528689,
				"z": -0.1918908261,
				"element": "C" 
			},
			{
				"x": -3.8825298968,
				"y": -1.6474045762,
				"z": 0.7332702583,
				"element": "C" 
			},
			{
				"x": -3.3933760946,
				"y": -1.7861824274,
				"z": 2.0537106442,
				"element": "C" 
			},
			{
				"x": -2.2195026135,
				"y": -1.178320655,
				"z": 2.4481758961,
				"element": "C" 
			},
			{
				"x": -1.7882989686,
				"y": -1.3231758601,
				"z": 3.7440463738,
				"element": "O" 
			},
			{
				"x": -0.6737093107,
				"y": -2.2220774371,
				"z": 3.9188697396,
				"element": "C" 
			},
			{
				"x": -0.3601417114,
				"y": -2.2881121005,
				"z": 5.4020237741,
				"element": "C" 
			},
			{
				"x": -5.0530363867,
				"y": -2.2811898285,
				"z": 0.4014793827,
				"element": "N" 
			},
			{
				"x": -5.4748912605,
				"y": -2.1457731725,
				"z": -0.8316620129,
				"element": "C" 
			},
			{
				"x": -4.8191744198,
				"y": -1.3957412478,
				"z": -1.8539232709,
				"element": "C" 
			},
			{
				"x": -5.4627025218,
				"y": -1.3706441215,
				"z": -3.1802249958,
				"element": "C" 
			},
			{
				"x": -6.4973309,
				"y": -1.9313145863,
				"z": -3.4750140943,
				"element": "O" 
			},
			{
				"x": -4.7613517076,
				"y": -0.6245074651,
				"z": -4.1002277259,
				"element": "O" 
			},
			{
				"x": -5.3314066936,
				"y": -0.5521530156,
				"z": -5.432730883,
				"element": "C" 
			},
			{
				"x": -4.4133884162,
				"y": 0.3053211707,
				"z": -6.282128388,
				"element": "C" 
			},
			{
				"x": -3.6237247527,
				"y": -0.7457965903,
				"z": -1.5249598268,
				"element": "C" 
			},
			{
				"x": -2.8979881763,
				"y": -0.0065035747,
				"z": -2.3762119513,
				"element": "O" 
			},
			{
				"x": 5.7315742943,
				"y": 4.0998658907,
				"z": -0.4526248635,
				"element": "H" 
			},
			{
				"x": 5.6403078056,
				"y": 3.268738745,
				"z": -2.0111148227,
				"element": "H" 
			},
			{
				"x": 4.3626569403,
				"y": 3.0445120274,
				"z": -0.8111421242,
				"element": "H" 
			},
			{
				"x": 7.2954641224,
				"y": 2.1819931924,
				"z": -0.4354874807,
				"element": "H" 
			},
			{
				"x": 6.0171742678,
				"y": 1.8951999802,
				"z": 0.7222239434,
				"element": "H" 
			},
			{
				"x": 6.2204097943,
				"y": 0.7230676831,
				"z": -2.1021912846,
				"element": "H" 
			},
			{
				"x": 6.6165702533,
				"y": -0.1263566834,
				"z": -0.6204179927,
				"element": "H" 
			},
			{
				"x": 4.4734071519,
				"y": -0.8096003851,
				"z": -1.6186376319,
				"element": "H" 
			},
			{
				"x": 3.8018911859,
				"y": 0.7915665412,
				"z": -1.4331218271,
				"element": "H" 
			},
			{
				"x": 4.8240179435,
				"y": -0.7134692666,
				"z": 1.0208025094,
				"element": "H" 
			},
			{
				"x": 3.28163668,
				"y": -1.1509303069,
				"z": 0.3165828899,
				"element": "H" 
			},
			{
				"x": 2.4413321287,
				"y": 1.168511596,
				"z": 0.6078384053,
				"element": "H" 
			},
			{
				"x": 3.9505274326,
				"y": 1.6443799576,
				"z": 1.3721678396,
				"element": "H" 
			},
			{
				"x": 3.579751775,
				"y": -0.1358038051,
				"z": 3.1352049341,
				"element": "H" 
			},
			{
				"x": 2.0213746549,
				"y": -0.4952746085,
				"z": 2.401688864,
				"element": "H" 
			},
			{
				"x": 2.8768038426,
				"y": 2.173183018,
				"z": 3.6409751603,
				"element": "H" 
			},
			{
				"x": 1.8622875188,
				"y": 0.9792145877,
				"z": 4.425937364,
				"element": "H" 
			},
			{
				"x": 0.6591700873,
				"y": 2.9905912872,
				"z": 3.5091057913,
				"element": "H" 
			},
			{
				"x": 1.0585554489,
				"y": 2.494802796,
				"z": 1.8749378962,
				"element": "H" 
			},
			{
				"x": -1.2632005329,
				"y": 1.9391410491,
				"z": 2.5780281165,
				"element": "H" 
			},
			{
				"x": -0.6380026531,
				"y": 0.8686539319,
				"z": 3.8481613185,
				"element": "H" 
			},
			{
				"x": -1.3651151685,
				"y": 0.3740912869,
				"z": -0.4640725591,
				"element": "H" 
			},
			{
				"x": -3.9567368025,
				"y": -2.3865741932,
				"z": 2.7590511991,
				"element": "H" 
			},
			{
				"x": -0.9521002062,
				"y": -3.2114999681,
				"z": 3.5311451905,
				"element": "H" 
			},
			{
				"x": 0.1868534029,
				"y": -1.8593477004,
				"z": 3.3448340786,
				"element": "H" 
			},
			{
				"x": -0.0745606766,
				"y": -1.3037899156,
				"z": 5.7845266705,
				"element": "H" 
			},
			{
				"x": -1.2305037542,
				"y": -2.6364697511,
				"z": 5.9652802157,
				"element": "H" 
			},
			{
				"x": 0.4688826017,
				"y": -2.9804172285,
				"z": 5.579150229,
				"element": "H" 
			},
			{
				"x": -6.4024543581,
				"y": -2.6454081633,
				"z": -1.1026832422,
				"element": "H" 
			},
			{
				"x": -5.4261623675,
				"y": -1.5694058082,
				"z": -5.8225663689,
				"element": "H" 
			},
			{
				"x": -6.3373206119,
				"y": -0.1304648935,
				"z": -5.354654153,
				"element": "H" 
			},
			{
				"x": -4.81621213,
				"y": 0.3798588806,
				"z": -7.2967688645,
				"element": "H" 
			},
			{
				"x": -4.3290027486,
				"y": 1.3173967706,
				"z": -5.8749942009,
				"element": "H" 
			},
			{
				"x": -3.4118630181,
				"y": -0.1306857323,
				"z": -6.3454527863,
				"element": "H" 
			},
			{
				"x": -3.3535644791,
				"y": -0.0114092589,
				"z": -3.2415620453,
				"element": "H" 
			}
		],
		 "valence_orbital": [ 
			{
				"type": "occ",
				"energy": -0.27553,
				"method": "rhf"
			},
			{
				"type": "occ",
				"energy": -0.26256,
				"method": "rhf"
			},
			{
				"type": "occ",
				"energy": -0.25167,
				"method": "rhf"
			},
			{
				"type": "occ",
				"energy": -0.23896,
				"method": "rhf"
			},
			{
				"type": "occ",
				"energy": -0.22136,
				"method": "rhf"
			},
			{
				"type": "unocc",
				"energy": -0.05654,
				"method": "rhf"
			},
			{
				"type": "unocc",
				"energy": -0.02998,
				"method": "rhf"
			},
			{
				"type": "unocc",
				"energy": 0.02246,
				"method": "rhf"
			},
			{
				"type": "unocc",
				"energy": 0.03415,
				"method": "rhf"
			},
			{
				"type": "unocc",
				"energy": 0.06945,
				"method": "rhf"
			}
		],
		"cosmo_sigma_profile": { 
			"-0.025": 0.0,
			"-0.024": 0.0,
			"-0.023": 0.0,
			"-0.022": 0.0,
			"-0.021": 0.0,
			"-0.02": 0.0,
			"-0.019": 0.0,
			"-0.018": 0.0,
			"-0.017": 0.0,
			"-0.016": 0.0,
			"-0.015": 0.0,
			"-0.014": 0.0,
			"-0.013": 0.0,
			"-0.012": 0.0,
			"-0.011": 0.0,
			"-0.01": 0.0,
			"-0.009": 0.415384610057,
			"-0.008": 1.39826945832,
			"-0.007": 1.25937625162,
			"-0.006": 6.72821019409,
			"-0.005": 16.1773268787,
			"-0.004": 33.0191783735,
			"-0.003": 44.8382822536,
			"-0.002": 62.9244181278,
			"-0.001": 83.3194796686,
			"0.0": 87.6465465282,
			"0.001": 66.6322218525,
			"0.002": 39.3838130998,
			"0.003": 12.2949447786,
			"0.004": 9.31705410675,
			"0.005": 7.4899619127,
			"0.006": 7.09001609453,
			"0.007": 8.04070997587,
			"0.008": 6.48850782482,
			"0.009": 3.30208129844,
			"0.01": 3.76463693128,
			"0.011": 6.12161573026,
			"0.012": 2.85199381914,
			"0.013": 0.939692104993,
			"0.014": 0.403940311094,
			"0.015": 1.17696050295,
			"0.016": 0.450496387331,
			"0.017": 0.080505658402,
			"0.018": 0.0,
			"0.019": 0.0,
			"0.02": 0.0,
			"0.021": 0.0,
			"0.022": 0.0,
			"0.023": 0.0,
			"0.024": 0.0,
			"0.025": 0.0
		}
	}
}
