{
	 "smiles": "FC1=CC2=C(NC(=O)CO2)C=C1", 
	 "Tm": 480.15, 
	 "num_atms": 18, 
	 "gaussian": { 
		 "optdone": 1, 
		 "sigma_profile": "yes", 
		 "theory": "DFT", 
		 "functional": "B3LYP", 
		 "basiset": "6-31G**", 
		 "properties": { 
			 "R2extent": 3438.1644, 
			 "electric_dipole_moment_norm": 1.67485787158, 
			 "electric_quadrupole_moment_norm": 16.6868785604, 
			 "total_energy": -613.502472164, 
			 "HOMO_LUMO_gap": 0.19999, 
			 "cosmo_polarized_energy": -11.57, 
			 "cosmo_cavitation_energy": 22.83, 
			 "cosmo_dispersion_energy": -17.25, 
			 "cosmo_repulsion_energy": 1.34, 
			 "cosmo_total_nonelectrostatic_energy": 6.92, 
			 "SMD_solvation_energy": 5.3 
		},
		"coords": [
			{
				"x": -5.6858820052,
				"y": -1.1721633299,
				"z": 0.266786463,
				"element": "F" 
			},
			{
				"x": -4.3414550513,
				"y": -1.2435335961,
				"z": 0.3545010816,
				"element": "C" 
			},
			{
				"x": -3.5775061226,
				"y": -0.3907992868,
				"z": -0.4355657448,
				"element": "C" 
			},
			{
				"x": -2.190478062,
				"y": -0.4676305323,
				"z": -0.3466162839,
				"element": "C" 
			},
			{
				"x": -1.5805875591,
				"y": -1.3839897637,
				"z": 0.528052828,
				"element": "C" 
			},
			{
				"x": -0.1748112269,
				"y": -1.4465768225,
				"z": 0.5376594885,
				"element": "N" 
			},
			{
				"x": 0.6295196693,
				"y": -0.4913249156,
				"z": -0.0269706719,
				"element": "C" 
			},
			{
				"x": 1.8478149805,
				"y": -0.5323380285,
				"z": -0.000749949,
				"element": "O" 
			},
			{
				"x": -0.1396426846,
				"y": 0.6741170843,
				"z": -0.6450515954,
				"element": "C" 
			},
			{
				"x": -1.4268979845,
				"y": 0.3226522503,
				"z": -1.1608112589,
				"element": "O" 
			},
			{
				"x": -2.375521606,
				"y": -2.2140160771,
				"z": 1.3190045773,
				"element": "C" 
			},
			{
				"x": -3.767689789,
				"y": -2.1529202091,
				"z": 1.2347169376,
				"element": "C" 
			},
			{
				"x": -4.044371313,
				"y": 0.3137045457,
				"z": -1.1132803047,
				"element": "H" 
			},
			{
				"x": 0.2953606166,
				"y": -2.2091206386,
				"z": 1.0081686767,
				"element": "H" 
			},
			{
				"x": -0.2377957673,
				"y": 1.4656452747,
				"z": 0.1137646565,
				"element": "H" 
			},
			{
				"x": 0.4403573028,
				"y": 1.0635781978,
				"z": -1.4813685155,
				"element": "H" 
			},
			{
				"x": -1.9033416256,
				"y": -2.9191382832,
				"z": 1.9973028128,
				"element": "H" 
			},
			{
				"x": -4.3997717722,
				"y": -2.7949458694,
				"z": 1.8367568023,
				"element": "H" 
			}
		],
		 "valence_orbital": [ 
			{
				"type": "occ",
				"energy": -0.33462,
				"method": "rhf"
			},
			{
				"type": "occ",
				"energy": -0.31211,
				"method": "rhf"
			},
			{
				"type": "occ",
				"energy": -0.26882,
				"method": "rhf"
			},
			{
				"type": "occ",
				"energy": -0.25191,
				"method": "rhf"
			},
			{
				"type": "occ",
				"energy": -0.22032,
				"method": "rhf"
			},
			{
				"type": "unocc",
				"energy": -0.02033,
				"method": "rhf"
			},
			{
				"type": "unocc",
				"energy": -0.01599,
				"method": "rhf"
			},
			{
				"type": "unocc",
				"energy": 0.02774,
				"method": "rhf"
			},
			{
				"type": "unocc",
				"energy": 0.07277,
				"method": "rhf"
			},
			{
				"type": "unocc",
				"energy": 0.078,
				"method": "rhf"
			}
		],
		"cosmo_sigma_profile": { 
			"-0.025": 0.0,
			"-0.024": 0.0,
			"-0.023": 0.0,
			"-0.022": 0.0,
			"-0.021": 0.0,
			"-0.02": 0.0,
			"-0.019": 0.0,
			"-0.018": 0.0,
			"-0.017": 0.0,
			"-0.016": 0.334491597022,
			"-0.015": 1.44689660685,
			"-0.014": 1.29628258748,
			"-0.013": 0.773354309168,
			"-0.012": 1.25812391758,
			"-0.011": 1.51602148391,
			"-0.01": 1.28467820907,
			"-0.009": 1.266446204,
			"-0.008": 6.53647663077,
			"-0.007": 10.8108933688,
			"-0.006": 9.85426344902,
			"-0.005": 10.0198735248,
			"-0.004": 7.9295799256,
			"-0.003": 7.51216350152,
			"-0.002": 8.80161303136,
			"-0.001": 8.44842248228,
			"0.0": 11.6132586114,
			"0.001": 15.8908556345,
			"0.002": 17.6409278379,
			"0.003": 13.9172137463,
			"0.004": 15.3221610107,
			"0.005": 5.91922333544,
			"0.006": 1.9218003905,
			"0.007": 2.13175923068,
			"0.008": 3.34097463038,
			"0.009": 2.66613519715,
			"0.01": 1.20325614662,
			"0.011": 2.94064198948,
			"0.012": 3.78824873581,
			"0.013": 5.20099462393,
			"0.014": 0.495966175013,
			"0.015": 0.0,
			"0.016": 0.0,
			"0.017": 0.0,
			"0.018": 0.0,
			"0.019": 0.0,
			"0.02": 0.0,
			"0.021": 0.0,
			"0.022": 0.0,
			"0.023": 0.0,
			"0.024": 0.0,
			"0.025": 0.0
		}
	}
}
