{
	 "smiles": "NC(=O)C1=NC(Cl)=CC=C1", 
	 "Tm": 398.15, 
	 "num_atms": 15, 
	 "gaussian": { 
		 "optdone": 1, 
		 "sigma_profile": "yes", 
		 "theory": "DFT", 
		 "functional": "B3LYP", 
		 "basiset": "6-31G**", 
		 "properties": { 
			 "R2extent": 2124.4515, 
			 "electric_dipole_moment_norm": 1.63755753792, 
			 "electric_quadrupole_moment_norm": 18.2563735602, 
			 "total_energy": -876.592388307, 
			 "HOMO_LUMO_gap": 0.19238, 
			 "cosmo_polarized_energy": -11.3, 
			 "cosmo_cavitation_energy": 21.74, 
			 "cosmo_dispersion_energy": -16.44, 
			 "cosmo_repulsion_energy": 1.36, 
			 "cosmo_total_nonelectrostatic_energy": 6.65, 
			 "SMD_solvation_energy": 3.46 
		},
		"coords": [
			{
				"x": 3.1605520922,
				"y": 1.8879063915,
				"z": -0.8888781126,
				"element": "N" 
			},
			{
				"x": 1.911884984,
				"y": 2.2952374913,
				"z": -0.5537815049,
				"element": "C" 
			},
			{
				"x": 1.5265063505,
				"y": 3.4588463839,
				"z": -0.5780628672,
				"element": "O" 
			},
			{
				"x": 0.987697739,
				"y": 1.1744244837,
				"z": -0.1306355618,
				"element": "C" 
			},
			{
				"x": 1.4825488345,
				"y": -0.0767053139,
				"z": -0.1292698482,
				"element": "N" 
			},
			{
				"x": 0.6762808173,
				"y": -1.0535407068,
				"z": 0.2397305574,
				"element": "C" 
			},
			{
				"x": 1.3477584115,
				"y": -2.681582379,
				"z": 0.2330144041,
				"element": "Cl" 
			},
			{
				"x": -0.6554942715,
				"y": -0.8765245925,
				"z": 0.6287619022,
				"element": "C" 
			},
			{
				"x": -1.1543520231,
				"y": 0.4238755871,
				"z": 0.6225750833,
				"element": "C" 
			},
			{
				"x": -0.3223626544,
				"y": 1.4750224448,
				"z": 0.2365202789,
				"element": "C" 
			},
			{
				"x": 3.3973197868,
				"y": 0.9081222432,
				"z": -0.8413555519,
				"element": "H" 
			},
			{
				"x": 3.8346203675,
				"y": 2.5766272778,
				"z": -1.1816436756,
				"element": "H" 
			},
			{
				"x": -1.2627610253,
				"y": -1.7247009485,
				"z": 0.9204859287,
				"element": "H" 
			},
			{
				"x": -2.1827310438,
				"y": 0.6112237883,
				"z": 0.9167570557,
				"element": "H" 
			},
			{
				"x": -0.6489683652,
				"y": 2.507467849,
				"z": 0.2101819118,
				"element": "H" 
			}
		],
		 "valence_orbital": [ 
			{
				"type": "occ",
				"energy": -0.30973,
				"method": "rhf"
			},
			{
				"type": "occ",
				"energy": -0.30119,
				"method": "rhf"
			},
			{
				"type": "occ",
				"energy": -0.27192,
				"method": "rhf"
			},
			{
				"type": "occ",
				"energy": -0.26601,
				"method": "rhf"
			},
			{
				"type": "occ",
				"energy": -0.25512,
				"method": "rhf"
			},
			{
				"type": "unocc",
				"energy": -0.06274,
				"method": "rhf"
			},
			{
				"type": "unocc",
				"energy": -0.03909,
				"method": "rhf"
			},
			{
				"type": "unocc",
				"energy": 0.02391,
				"method": "rhf"
			},
			{
				"type": "unocc",
				"energy": 0.05335,
				"method": "rhf"
			},
			{
				"type": "unocc",
				"energy": 0.09101,
				"method": "rhf"
			}
		],
		"cosmo_sigma_profile": { 
			"-0.025": 0.0,
			"-0.024": 0.0,
			"-0.023": 0.0,
			"-0.022": 0.0,
			"-0.021": 0.0,
			"-0.02": 0.0,
			"-0.019": 0.0,
			"-0.018": 0.0,
			"-0.017": 0.0,
			"-0.016": 0.0,
			"-0.015": 0.176224339951,
			"-0.014": 1.0670347017,
			"-0.013": 1.90899254569,
			"-0.012": 1.10578341659,
			"-0.011": 1.39664634842,
			"-0.01": 2.65202355556,
			"-0.009": 3.02913419203,
			"-0.008": 6.84733949782,
			"-0.007": 7.18554645847,
			"-0.006": 6.9758612017,
			"-0.005": 5.20439630055,
			"-0.004": 6.00639813036,
			"-0.003": 6.14237571039,
			"-0.002": 12.2762248483,
			"-0.001": 18.7171709655,
			"0.0": 18.5170513673,
			"0.001": 15.3357354733,
			"0.002": 9.40530088671,
			"0.003": 10.6873390656,
			"0.004": 13.3983525171,
			"0.005": 6.27290622696,
			"0.006": 3.61476598355,
			"0.007": 2.90944111605,
			"0.008": 1.33890126545,
			"0.009": 1.51874049347,
			"0.01": 1.68829257164,
			"0.011": 1.19477997113,
			"0.012": 2.51359376854,
			"0.013": 5.00674589261,
			"0.014": 2.62093950541,
			"0.015": 0.213979789172,
			"0.016": 0.0,
			"0.017": 0.0,
			"0.018": 0.0,
			"0.019": 0.0,
			"0.02": 0.0,
			"0.021": 0.0,
			"0.022": 0.0,
			"0.023": 0.0,
			"0.024": 0.0,
			"0.025": 0.0
		}
	}
}
