{
	 "smiles": "CC(=O)C1=CC=C(C=C1)S(=O)(=O)C(F)F", 
	 "Tm": 366.15, 
	 "num_atms": 23, 
	 "gaussian": { 
		 "optdone": 1, 
		 "sigma_profile": "yes", 
		 "theory": "DFT", 
		 "functional": "B3LYP", 
		 "basiset": "6-31G**", 
		 "properties": { 
			 "R2extent": 5297.7473, 
			 "electric_dipole_moment_norm": 4.30437766117, 
			 "electric_quadrupole_moment_norm": 20.1657623042, 
			 "total_energy": -1171.22736417, 
			 "HOMO_LUMO_gap": 0.17883, 
			 "cosmo_polarized_energy": -16.64, 
			 "cosmo_cavitation_energy": 30.27, 
			 "cosmo_dispersion_energy": -21.72, 
			 "cosmo_repulsion_energy": 1.61, 
			 "cosmo_total_nonelectrostatic_energy": 10.16, 
			 "SMD_solvation_energy": 6.12 
		},
		"coords": [
			{
				"x": -0.5231435796,
				"y": 3.2363433011,
				"z": -2.5002625006,
				"element": "C" 
			},
			{
				"x": 0.1109029067,
				"y": 1.9442919802,
				"z": -2.9785865977,
				"element": "C" 
			},
			{
				"x": 0.3615221518,
				"y": 1.7648923002,
				"z": -4.1587780933,
				"element": "O" 
			},
			{
				"x": 0.4323540641,
				"y": 0.8713936302,
				"z": -1.9690470571,
				"element": "C" 
			},
			{
				"x": 0.1814357958,
				"y": 1.0239010145,
				"z": -0.5968756669,
				"element": "C" 
			},
			{
				"x": 0.4981377123,
				"y": 0.0032245942,
				"z": 0.2972728231,
				"element": "C" 
			},
			{
				"x": 1.0687699918,
				"y": -1.1708335018,
				"z": -0.1981186426,
				"element": "C" 
			},
			{
				"x": 1.3213698636,
				"y": -1.3495691702,
				"z": -1.5614429419,
				"element": "C" 
			},
			{
				"x": 0.9999614077,
				"y": -0.3216844071,
				"z": -2.4419045836,
				"element": "C" 
			},
			{
				"x": 1.481561168,
				"y": -2.4924565234,
				"z": 0.9454546069,
				"element": "S" 
			},
			{
				"x": 1.6878585671,
				"y": -3.7276031807,
				"z": 0.1777772638,
				"element": "O" 
			},
			{
				"x": 0.5769988031,
				"y": -2.4200559783,
				"z": 2.0970153377,
				"element": "O" 
			},
			{
				"x": 3.1805740934,
				"y": -1.9835177411,
				"z": 1.5398983142,
				"element": "C" 
			},
			{
				"x": 3.1029179193,
				"y": -0.7293015467,
				"z": 2.0354804798,
				"element": "F" 
			},
			{
				"x": 3.5261578598,
				"y": -2.8356858932,
				"z": 2.5190405083,
				"element": "F" 
			},
			{
				"x": -1.4820510311,
				"y": 3.0439751808,
				"z": -2.0063075638,
				"element": "H" 
			},
			{
				"x": 0.1215666662,
				"y": 3.7461355861,
				"z": -1.775652575,
				"element": "H" 
			},
			{
				"x": -0.6833677337,
				"y": 3.8857690914,
				"z": -3.3609627186,
				"element": "H" 
			},
			{
				"x": -0.2654476555,
				"y": 1.9364021983,
				"z": -0.2173673685,
				"element": "H" 
			},
			{
				"x": 0.294646794,
				"y": 0.1026302266,
				"z": 1.3575494931,
				"element": "H" 
			},
			{
				"x": 1.7410728409,
				"y": -2.2854691086,
				"z": -1.9144685934,
				"element": "H" 
			},
			{
				"x": 1.1746124173,
				"y": -0.4193852151,
				"z": -3.5078579855,
				"element": "H" 
			},
			{
				"x": 3.895688977,
				"y": -2.0298968373,
				"z": 0.7112440616,
				"element": "H" 
			}
		],
		 "valence_orbital": [ 
			{
				"type": "occ",
				"energy": -0.32025,
				"method": "rhf"
			},
			{
				"type": "occ",
				"energy": -0.30095,
				"method": "rhf"
			},
			{
				"type": "occ",
				"energy": -0.29488,
				"method": "rhf"
			},
			{
				"type": "occ",
				"energy": -0.28915,
				"method": "rhf"
			},
			{
				"type": "occ",
				"energy": -0.27001,
				"method": "rhf"
			},
			{
				"type": "unocc",
				"energy": -0.09118,
				"method": "rhf"
			},
			{
				"type": "unocc",
				"energy": -0.04003,
				"method": "rhf"
			},
			{
				"type": "unocc",
				"energy": -0.00638,
				"method": "rhf"
			},
			{
				"type": "unocc",
				"energy": 0.03767,
				"method": "rhf"
			},
			{
				"type": "unocc",
				"energy": 0.05347,
				"method": "rhf"
			}
		],
		"cosmo_sigma_profile": { 
			"-0.025": 0.0,
			"-0.024": 0.0,
			"-0.023": 0.0,
			"-0.022": 0.0,
			"-0.021": 0.0,
			"-0.02": 0.0,
			"-0.019": 0.0,
			"-0.018": 0.0,
			"-0.017": 0.0,
			"-0.016": 0.0,
			"-0.015": 0.0,
			"-0.014": 0.0,
			"-0.013": 0.362988369167,
			"-0.012": 4.16589115134,
			"-0.011": 2.41523844208,
			"-0.01": 1.34035267009,
			"-0.009": 2.13471642111,
			"-0.008": 6.30745481205,
			"-0.007": 12.7983514342,
			"-0.006": 14.4589117147,
			"-0.005": 12.236244559,
			"-0.004": 12.2436770151,
			"-0.003": 12.9464671348,
			"-0.002": 15.1396330922,
			"-0.001": 16.3267097951,
			"0.0": 21.1658378234,
			"0.001": 24.9722572201,
			"0.002": 22.8871033545,
			"0.003": 8.39153586616,
			"0.004": 3.56625296506,
			"0.005": 3.99552351392,
			"0.006": 5.75822335108,
			"0.007": 4.154322197,
			"0.008": 5.00892489001,
			"0.009": 8.61077377349,
			"0.01": 11.6869280098,
			"0.011": 6.96787136342,
			"0.012": 2.14132951862,
			"0.013": 0.382785836506,
			"0.014": 0.0,
			"0.015": 0.0,
			"0.016": 0.0,
			"0.017": 0.0,
			"0.018": 0.0,
			"0.019": 0.0,
			"0.02": 0.0,
			"0.021": 0.0,
			"0.022": 0.0,
			"0.023": 0.0,
			"0.024": 0.0,
			"0.025": 0.0
		}
	}
}
