{
	 "smiles": "CC(C)C1=NC=CN1", 
	 "Tm": 402.15, 
	 "num_atms": 18, 
	 "gaussian": { 
		 "optdone": 1, 
		 "sigma_profile": "yes", 
		 "theory": "DFT", 
		 "functional": "B3LYP", 
		 "basiset": "6-31G**", 
		 "properties": { 
			 "R2extent": 1352.4534, 
			 "electric_dipole_moment_norm": 3.3331338917, 
			 "electric_quadrupole_moment_norm": 8.90666443681, 
			 "total_energy": -344.174520709, 
			 "HOMO_LUMO_gap": 0.252, 
			 "cosmo_polarized_energy": -11.46, 
			 "cosmo_cavitation_energy": 20.93, 
			 "cosmo_dispersion_energy": -15.27, 
			 "cosmo_repulsion_energy": 1.29, 
			 "cosmo_total_nonelectrostatic_energy": 6.94, 
			 "SMD_solvation_energy": 2.63 
		},
		"coords": [
			{
				"x": 0.945945648,
				"y": 0.9628278358,
				"z": -0.0709926871,
				"element": "C" 
			},
			{
				"x": -0.360074633,
				"y": 0.4830078343,
				"z": 0.5892293114,
				"element": "C" 
			},
			{
				"x": -0.0893173566,
				"y": -0.6579737901,
				"z": 1.5875379126,
				"element": "C" 
			},
			{
				"x": -1.3569809921,
				"y": 0.0514397034,
				"z": -0.4547478652,
				"element": "C" 
			},
			{
				"x": -1.19543498,
				"y": -0.934155801,
				"z": -1.3170468536,
				"element": "N" 
			},
			{
				"x": -2.3484709948,
				"y": -0.968384403,
				"z": -2.0702197517,
				"element": "C" 
			},
			{
				"x": -3.2236304562,
				"y": 0.0061247128,
				"z": -1.6639977667,
				"element": "C" 
			},
			{
				"x": -2.5764372874,
				"y": 0.6530177573,
				"z": -0.6278229297,
				"element": "N" 
			},
			{
				"x": 1.3814826104,
				"y": 0.1549240528,
				"z": -0.6657850128,
				"element": "H" 
			},
			{
				"x": 0.7664387187,
				"y": 1.8117140422,
				"z": -0.7382543279,
				"element": "H" 
			},
			{
				"x": 1.6735949964,
				"y": 1.2699893546,
				"z": 0.6877469634,
				"element": "H" 
			},
			{
				"x": -0.7999381116,
				"y": 1.327380175,
				"z": 1.1398272053,
				"element": "H" 
			},
			{
				"x": 0.3051839451,
				"y": -1.5301562286,
				"z": 1.0585374813,
				"element": "H" 
			},
			{
				"x": 0.6406364862,
				"y": -0.3471964828,
				"z": 2.3425973869,
				"element": "H" 
			},
			{
				"x": -1.0061712189,
				"y": -0.9634576942,
				"z": 2.1014637908,
				"element": "H" 
			},
			{
				"x": -2.4836631172,
				"y": -1.6923527089,
				"z": -2.8621223696,
				"element": "H" 
			},
			{
				"x": -4.2085312354,
				"y": 0.2929415384,
				"z": -1.9983291562,
				"element": "H" 
			},
			{
				"x": -2.9356320215,
				"y": 1.4292101019,
				"z": -0.0934213312,
				"element": "H" 
			}
		],
		 "valence_orbital": [ 
			{
				"type": "occ",
				"energy": -0.33967,
				"method": "rhf"
			},
			{
				"type": "occ",
				"energy": -0.33424,
				"method": "rhf"
			},
			{
				"type": "occ",
				"energy": -0.27052,
				"method": "rhf"
			},
			{
				"type": "occ",
				"energy": -0.25612,
				"method": "rhf"
			},
			{
				"type": "occ",
				"energy": -0.21388,
				"method": "rhf"
			},
			{
				"type": "unocc",
				"energy": 0.03812,
				"method": "rhf"
			},
			{
				"type": "unocc",
				"energy": 0.07027,
				"method": "rhf"
			},
			{
				"type": "unocc",
				"energy": 0.07595,
				"method": "rhf"
			},
			{
				"type": "unocc",
				"energy": 0.10745,
				"method": "rhf"
			},
			{
				"type": "unocc",
				"energy": 0.13911,
				"method": "rhf"
			}
		],
		"cosmo_sigma_profile": { 
			"-0.025": 0.0,
			"-0.024": 0.0,
			"-0.023": 0.0,
			"-0.022": 0.0,
			"-0.021": 0.0,
			"-0.02": 0.0,
			"-0.019": 0.0,
			"-0.018": 0.0,
			"-0.017": 0.0,
			"-0.016": 0.653919321497,
			"-0.015": 1.59881581315,
			"-0.014": 1.62791339236,
			"-0.013": 0.374677679347,
			"-0.012": 1.46563649906,
			"-0.011": 1.75074319177,
			"-0.01": 1.34842263465,
			"-0.009": 1.44083651864,
			"-0.008": 2.72331785873,
			"-0.007": 3.58117250149,
			"-0.006": 4.10720740569,
			"-0.005": 3.81599339412,
			"-0.004": 5.48196769729,
			"-0.003": 14.8134351143,
			"-0.002": 17.8842833049,
			"-0.001": 18.0805735773,
			"0.0": 16.6227756156,
			"0.001": 17.6720503408,
			"0.002": 8.34023630797,
			"0.003": 4.86450670113,
			"0.004": 5.43109797026,
			"0.005": 5.6197203001,
			"0.006": 6.09732782601,
			"0.007": 4.8154565131,
			"0.008": 2.2639346639,
			"0.009": 1.88473790276,
			"0.01": 2.0082317929,
			"0.011": 1.21181246292,
			"0.012": 1.33613435247,
			"0.013": 0.93711547402,
			"0.014": 1.04622226621,
			"0.015": 1.02116880983,
			"0.016": 0.710425445942,
			"0.017": 0.905653990387,
			"0.018": 0.442689152477,
			"0.019": 0.259488257957,
			"0.02": 0.0,
			"0.021": 0.0,
			"0.022": 0.0,
			"0.023": 0.0,
			"0.024": 0.0,
			"0.025": 0.0
		}
	}
}
