{
	 "smiles": "BrC(Br)C(Br)Br", 
	 "Tm": 273.15, 
	 "num_atms": 8, 
	 "gaussian": { 
		 "optdone": 1, 
		 "sigma_profile": "yes", 
		 "theory": "DFT", 
		 "functional": "B3LYP", 
		 "basiset": "6-31G**", 
		 "properties": { 
			 "R2extent": 3423.7924, 
			 "electric_dipole_moment_norm": 1.45474033765, 
			 "electric_quadrupole_moment_norm": 1.69610055716, 
			 "total_energy": -10363.0168082, 
			 "HOMO_LUMO_gap": 0.22577, 
			 "cosmo_polarized_energy": -6.41, 
			 "cosmo_cavitation_energy": 20.71, 
			 "cosmo_dispersion_energy": -16.65, 
			 "cosmo_repulsion_energy": 1.4, 
			 "cosmo_total_nonelectrostatic_energy": 5.46, 
			 "SMD_solvation_energy": -1.02 
		},
		"coords": [
			{
				"x": 2.3678043993,
				"y": 1.2801317184,
				"z": 0.5280470373,
				"element": "Br" 
			},
			{
				"x": 0.6271921865,
				"y": 0.8764652682,
				"z": -0.2981396006,
				"element": "C" 
			},
			{
				"x": 0.4938996329,
				"y": 1.61716653,
				"z": -2.0961076518,
				"element": "Br" 
			},
			{
				"x": 0.3549108532,
				"y": -0.6212845977,
				"z": -0.2117520452,
				"element": "C" 
			},
			{
				"x": 1.5143211152,
				"y": -1.7168740493,
				"z": -1.3318728218,
				"element": "Br" 
			},
			{
				"x": -1.5483107632,
				"y": -0.9686951618,
				"z": -0.5753771699,
				"element": "Br" 
			},
			{
				"x": -0.1064749094,
				"y": 1.4085039403,
				"z": 0.3020046512,
				"element": "H" 
			},
			{
				"x": 0.5185574856,
				"y": -0.9562136481,
				"z": 0.8092976008,
				"element": "H" 
			}
		],
		 "valence_orbital": [ 
			{
				"type": "occ",
				"energy": -0.30753,
				"method": "rhf"
			},
			{
				"type": "occ",
				"energy": -0.29929,
				"method": "rhf"
			},
			{
				"type": "occ",
				"energy": -0.29122,
				"method": "rhf"
			},
			{
				"type": "occ",
				"energy": -0.28717,
				"method": "rhf"
			},
			{
				"type": "occ",
				"energy": -0.28492,
				"method": "rhf"
			},
			{
				"type": "unocc",
				"energy": -0.05915,
				"method": "rhf"
			},
			{
				"type": "unocc",
				"energy": -0.05743,
				"method": "rhf"
			},
			{
				"type": "unocc",
				"energy": -0.00647,
				"method": "rhf"
			},
			{
				"type": "unocc",
				"energy": 0.00515,
				"method": "rhf"
			},
			{
				"type": "unocc",
				"energy": 0.09128,
				"method": "rhf"
			}
		],
		"cosmo_sigma_profile": { 
			"-0.025": 0.0,
			"-0.024": 0.0,
			"-0.023": 0.0,
			"-0.022": 0.0,
			"-0.021": 0.0,
			"-0.02": 0.0,
			"-0.019": 0.0,
			"-0.018": 0.0,
			"-0.017": 0.0,
			"-0.016": 0.0,
			"-0.015": 0.0,
			"-0.014": 0.0,
			"-0.013": 0.00889491733384,
			"-0.012": 2.9607557264,
			"-0.011": 3.83793525815,
			"-0.01": 3.3479371014,
			"-0.009": 2.78774847296,
			"-0.008": 2.29628612035,
			"-0.007": 2.16908591054,
			"-0.006": 4.00604772604,
			"-0.005": 7.40762649552,
			"-0.004": 6.98246125118,
			"-0.003": 9.19501823207,
			"-0.002": 8.49564781184,
			"-0.001": 8.91505563851,
			"0.0": 12.4035118919,
			"0.001": 11.8927107435,
			"0.002": 19.1581304307,
			"0.003": 32.1518329745,
			"0.004": 33.2944221699,
			"0.005": 6.27297045582,
			"0.006": 0.244396070449,
			"0.007": 0.0,
			"0.008": 0.0,
			"0.009": 0.0,
			"0.01": 0.0,
			"0.011": 0.0,
			"0.012": 0.0,
			"0.013": 0.0,
			"0.014": 0.0,
			"0.015": 0.0,
			"0.016": 0.0,
			"0.017": 0.0,
			"0.018": 0.0,
			"0.019": 0.0,
			"0.02": 0.0,
			"0.021": 0.0,
			"0.022": 0.0,
			"0.023": 0.0,
			"0.024": 0.0,
			"0.025": 0.0
		}
	}
}
