{
	 "smiles": "CC(C)(C)OC(=O)NC1CCN(CC(N)=S)CC1", 
	 "Tm": 443.15, 
	 "num_atms": 41, 
	 "gaussian": { 
		 "optdone": 1, 
		 "sigma_profile": "yes", 
		 "theory": "DFT", 
		 "functional": "B3LYP", 
		 "basiset": "6-31G**", 
		 "properties": { 
			 "R2extent": 7846.3735, 
			 "electric_dipole_moment_norm": 5.07103442209, 
			 "electric_quadrupole_moment_norm": 28.0594210095, 
			 "total_energy": -1184.06060682, 
			 "HOMO_LUMO_gap": 0.16252, 
			 "cosmo_polarized_energy": -22.74, 
			 "cosmo_cavitation_energy": 42.88, 
			 "cosmo_dispersion_energy": -29.41, 
			 "cosmo_repulsion_energy": 2.26, 
			 "cosmo_total_nonelectrostatic_energy": 15.74, 
			 "SMD_solvation_energy": 4.55 
		},
		"coords": [
			{
				"x": 3.3595472825,
				"y": 1.7175776394,
				"z": 0.9414691988,
				"element": "C" 
			},
			{
				"x": 3.0425675961,
				"y": 0.5847917249,
				"z": 1.9214363544,
				"element": "C" 
			},
			{
				"x": 2.4979118666,
				"y": 1.1440288265,
				"z": 3.240245907,
				"element": "C" 
			},
			{
				"x": 4.2685198981,
				"y": -0.3101452079,
				"z": 2.1330423966,
				"element": "C" 
			},
			{
				"x": 1.9885810557,
				"y": -0.1617582434,
				"z": 1.217339191,
				"element": "O" 
			},
			{
				"x": 1.4376656187,
				"y": -1.2716845329,
				"z": 1.768470944,
				"element": "C" 
			},
			{
				"x": 1.710416191,
				"y": -1.7472087552,
				"z": 2.8602230182,
				"element": "O" 
			},
			{
				"x": 0.5173750558,
				"y": -1.827065686,
				"z": 0.9204189969,
				"element": "N" 
			},
			{
				"x": 0.0396949307,
				"y": -1.2660597972,
				"z": -0.3422910313,
				"element": "C" 
			},
			{
				"x": -1.0053588539,
				"y": -0.1345637777,
				"z": -0.1632967078,
				"element": "C" 
			},
			{
				"x": -2.4373425099,
				"y": -0.6760539557,
				"z": -0.137708697,
				"element": "C" 
			},
			{
				"x": -2.7743687161,
				"y": -1.4226843343,
				"z": -1.3695544415,
				"element": "N" 
			},
			{
				"x": -3.9107708111,
				"y": -0.9475903519,
				"z": -2.1411251027,
				"element": "C" 
			},
			{
				"x": -3.6696883291,
				"y": 0.3518833968,
				"z": -2.9251546368,
				"element": "C" 
			},
			{
				"x": -3.1992889589,
				"y": 0.1721178874,
				"z": -4.1751970238,
				"element": "N" 
			},
			{
				"x": -3.8999680941,
				"y": 1.866368313,
				"z": -2.2702732491,
				"element": "S" 
			},
			{
				"x": -1.6328348531,
				"y": -1.8988201776,
				"z": -2.1466566599,
				"element": "C" 
			},
			{
				"x": -0.5460520144,
				"y": -2.4122570902,
				"z": -1.2005876124,
				"element": "C" 
			},
			{
				"x": 2.4706837534,
				"y": 2.3272972094,
				"z": 0.7548884854,
				"element": "H" 
			},
			{
				"x": 4.1418621478,
				"y": 2.3624083731,
				"z": 1.3528082527,
				"element": "H" 
			},
			{
				"x": 3.7092685271,
				"y": 1.3158193852,
				"z": -0.0141791786,
				"element": "H" 
			},
			{
				"x": 3.2512678082,
				"y": 1.7881472999,
				"z": 3.7055295424,
				"element": "H" 
			},
			{
				"x": 1.6032755007,
				"y": 1.7475289493,
				"z": 3.0559492207,
				"element": "H" 
			},
			{
				"x": 2.2460489712,
				"y": 0.338125925,
				"z": 3.9296433001,
				"element": "H" 
			},
			{
				"x": 4.6055921845,
				"y": -0.7243633289,
				"z": 1.1773341881,
				"element": "H" 
			},
			{
				"x": 4.0386838559,
				"y": -1.1303903825,
				"z": 2.8132595658,
				"element": "H" 
			},
			{
				"x": 5.0876649217,
				"y": 0.2820654371,
				"z": 2.55398267,
				"element": "H" 
			},
			{
				"x": 0.0185636481,
				"y": -2.6022329828,
				"z": 1.3321249818,
				"element": "H" 
			},
			{
				"x": 0.9131527073,
				"y": -0.8451107572,
				"z": -0.8464320028,
				"element": "H" 
			},
			{
				"x": -0.9128287904,
				"y": 0.578885469,
				"z": -0.9899167513,
				"element": "H" 
			},
			{
				"x": -0.7883676729,
				"y": 0.4191025847,
				"z": 0.7546686746,
				"element": "H" 
			},
			{
				"x": -2.5642001835,
				"y": -1.338472315,
				"z": 0.733038813,
				"element": "H" 
			},
			{
				"x": -3.1380295308,
				"y": 0.1533061635,
				"z": -0.0171796779,
				"element": "H" 
			},
			{
				"x": -4.7522152985,
				"y": -0.7789739582,
				"z": -1.4664100557,
				"element": "H" 
			},
			{
				"x": -4.2016518,
				"y": -1.7437018284,
				"z": -2.8439385641,
				"element": "H" 
			},
			{
				"x": -2.9820834116,
				"y": 0.978374907,
				"z": -4.7442376299,
				"element": "H" 
			},
			{
				"x": -3.1117857926,
				"y": -0.74710181,
				"z": -4.5832761975,
				"element": "H" 
			},
			{
				"x": -1.1981496243,
				"y": -1.1285468171,
				"z": -2.8116522884,
				"element": "H" 
			},
			{
				"x": -1.9760880727,
				"y": -2.7154321562,
				"z": -2.7980177275,
				"element": "H" 
			},
			{
				"x": 0.2470823845,
				"y": -2.9162965995,
				"z": -1.761208878,
				"element": "H" 
			},
			{
				"x": -1.0046525876,
				"y": -3.1661146455,
				"z": -0.5474795877,
				"element": "H" 
			}
		],
		 "valence_orbital": [ 
			{
				"type": "occ",
				"energy": -0.25546,
				"method": "rhf"
			},
			{
				"type": "occ",
				"energy": -0.24342,
				"method": "rhf"
			},
			{
				"type": "occ",
				"energy": -0.23705,
				"method": "rhf"
			},
			{
				"type": "occ",
				"energy": -0.22278,
				"method": "rhf"
			},
			{
				"type": "occ",
				"energy": -0.19889,
				"method": "rhf"
			},
			{
				"type": "unocc",
				"energy": -0.03637,
				"method": "rhf"
			},
			{
				"type": "unocc",
				"energy": 0.05018,
				"method": "rhf"
			},
			{
				"type": "unocc",
				"energy": 0.05827,
				"method": "rhf"
			},
			{
				"type": "unocc",
				"energy": 0.07588,
				"method": "rhf"
			},
			{
				"type": "unocc",
				"energy": 0.08202,
				"method": "rhf"
			}
		],
		"cosmo_sigma_profile": { 
			"-0.025": 0.0,
			"-0.024": 0.0,
			"-0.023": 0.0,
			"-0.022": 0.0,
			"-0.021": 0.0,
			"-0.02": 0.0,
			"-0.019": 0.0,
			"-0.018": 0.0,
			"-0.017": 0.0,
			"-0.016": 0.0392239090178,
			"-0.015": 1.57501389343,
			"-0.014": 3.04139849367,
			"-0.013": 3.10966214392,
			"-0.012": 3.92009853627,
			"-0.011": 3.61143409713,
			"-0.01": 2.48353524408,
			"-0.009": 3.49613491874,
			"-0.008": 3.57403428184,
			"-0.007": 3.57128344456,
			"-0.006": 4.89569803175,
			"-0.005": 6.02213234806,
			"-0.004": 22.459816948,
			"-0.003": 36.6101705326,
			"-0.002": 36.8718347898,
			"-0.001": 36.4471487869,
			"0.0": 36.3731797778,
			"0.001": 29.3603974314,
			"0.002": 13.6678118911,
			"0.003": 10.9758253096,
			"0.004": 9.53956904933,
			"0.005": 10.210985147,
			"0.006": 8.38067323009,
			"0.007": 6.31912113638,
			"0.008": 7.75669300415,
			"0.009": 7.87326805088,
			"0.01": 5.2930042826,
			"0.011": 5.23989262212,
			"0.012": 4.96280125786,
			"0.013": 3.37258073447,
			"0.014": 3.39130666449,
			"0.015": 0.436885864862,
			"0.016": 0.0,
			"0.017": 0.0,
			"0.018": 0.0,
			"0.019": 0.0,
			"0.02": 0.0,
			"0.021": 0.0,
			"0.022": 0.0,
			"0.023": 0.0,
			"0.024": 0.0,
			"0.025": 0.0
		}
	}
}
