{
	 "smiles": "OC(=O)C1=CC=C(CN2C=CC=N2)C=C1", 
	 "Tm": 465.15, 
	 "num_atms": 25, 
	 "gaussian": { 
		 "optdone": 1, 
		 "sigma_profile": "yes", 
		 "theory": "DFT", 
		 "functional": "B3LYP", 
		 "basiset": "6-31G**", 
		 "properties": { 
			 "R2extent": 4779.8684, 
			 "electric_dipole_moment_norm": 5.66031612633, 
			 "electric_quadrupole_moment_norm": 19.9069504166, 
			 "total_energy": -685.13171894, 
			 "HOMO_LUMO_gap": 0.19516, 
			 "cosmo_polarized_energy": -19.17, 
			 "cosmo_cavitation_energy": 30.02, 
			 "cosmo_dispersion_energy": -21.56, 
			 "cosmo_repulsion_energy": 1.67, 
			 "cosmo_total_nonelectrostatic_energy": 10.13, 
			 "SMD_solvation_energy": 5.95 
		},
		"coords": [
			{
				"x": 3.8535618784,
				"y": 1.1070582755,
				"z": -2.2332865268,
				"element": "O" 
			},
			{
				"x": 2.7036409223,
				"y": 0.8119033937,
				"z": -2.8989818629,
				"element": "C" 
			},
			{
				"x": 2.6257053205,
				"y": 1.0154385569,
				"z": -4.0874148656,
				"element": "O" 
			},
			{
				"x": 1.5817760312,
				"y": 0.23805573,
				"z": -2.0863012556,
				"element": "C" 
			},
			{
				"x": 1.7776263116,
				"y": -0.4016616388,
				"z": -0.8559466622,
				"element": "C" 
			},
			{
				"x": 0.6913223854,
				"y": -0.9262294173,
				"z": -0.155372865,
				"element": "C" 
			},
			{
				"x": -0.6040298524,
				"y": -0.8247750678,
				"z": -0.6709944685,
				"element": "C" 
			},
			{
				"x": -1.7793870416,
				"y": -1.4232635381,
				"z": 0.0837278931,
				"element": "C" 
			},
			{
				"x": -2.9152424578,
				"y": -0.5224813347,
				"z": 0.2143990226,
				"element": "N" 
			},
			{
				"x": -3.1193525378,
				"y": 0.4387424523,
				"z": 1.1563082869,
				"element": "C" 
			},
			{
				"x": -4.2844821793,
				"y": 1.0956192958,
				"z": 0.8106810523,
				"element": "C" 
			},
			{
				"x": -4.7088811776,
				"y": 0.4569014643,
				"z": -0.3749031112,
				"element": "C" 
			},
			{
				"x": -3.8777926408,
				"y": -0.5207577417,
				"z": -0.7377816458,
				"element": "N" 
			},
			{
				"x": -0.7976339061,
				"y": -0.1965308865,
				"z": -1.9104890417,
				"element": "C" 
			},
			{
				"x": 0.2840034641,
				"y": 0.3217129391,
				"z": -2.6124978974,
				"element": "C" 
			},
			{
				"x": 3.7095946545,
				"y": 1.050653221,
				"z": -1.2786963789,
				"element": "H" 
			},
			{
				"x": 2.7765650426,
				"y": -0.5306931114,
				"z": -0.4458432763,
				"element": "H" 
			},
			{
				"x": 0.857479077,
				"y": -1.425130511,
				"z": 0.7960980121,
				"element": "H" 
			},
			{
				"x": -2.1549943414,
				"y": -2.3092592862,
				"z": -0.4364352796,
				"element": "H" 
			},
			{
				"x": -1.4676659092,
				"y": -1.7320100442,
				"z": 1.0857986452,
				"element": "H" 
			},
			{
				"x": -2.4370981929,
				"y": 0.5728958761,
				"z": 1.9833108922,
				"element": "H" 
			},
			{
				"x": -4.7610137321,
				"y": 1.9059453048,
				"z": 1.3416461863,
				"element": "H" 
			},
			{
				"x": -5.5871364436,
				"y": 0.6599551313,
				"z": -0.9731047235,
				"element": "H" 
			},
			{
				"x": -1.8030947122,
				"y": -0.1191396828,
				"z": -2.3129602806,
				"element": "H" 
			},
			{
				"x": 0.1487300371,
				"y": 0.7984506197,
				"z": -3.577359849,
				"element": "H" 
			}
		],
		 "valence_orbital": [ 
			{
				"type": "occ",
				"energy": -0.27823,
				"method": "rhf"
			},
			{
				"type": "occ",
				"energy": -0.27398,
				"method": "rhf"
			},
			{
				"type": "occ",
				"energy": -0.26688,
				"method": "rhf"
			},
			{
				"type": "occ",
				"energy": -0.2533,
				"method": "rhf"
			},
			{
				"type": "occ",
				"energy": -0.25022,
				"method": "rhf"
			},
			{
				"type": "unocc",
				"energy": -0.05506,
				"method": "rhf"
			},
			{
				"type": "unocc",
				"energy": -0.0255,
				"method": "rhf"
			},
			{
				"type": "unocc",
				"energy": 0.01109,
				"method": "rhf"
			},
			{
				"type": "unocc",
				"energy": 0.04169,
				"method": "rhf"
			},
			{
				"type": "unocc",
				"energy": 0.05798,
				"method": "rhf"
			}
		],
		"cosmo_sigma_profile": { 
			"-0.025": 0.0,
			"-0.024": 0.0,
			"-0.023": 0.0,
			"-0.022": 0.0,
			"-0.021": 0.0,
			"-0.02": 0.0,
			"-0.019": 0.138475617594,
			"-0.018": 0.830119322612,
			"-0.017": 0.411573682159,
			"-0.016": 1.53056546662,
			"-0.015": 0.933787076056,
			"-0.014": 0.867156338066,
			"-0.013": 0.966255678975,
			"-0.012": 1.4083869747,
			"-0.011": 1.13614033642,
			"-0.01": 1.09234877691,
			"-0.009": 2.71901965091,
			"-0.008": 7.87647610268,
			"-0.007": 11.9903509304,
			"-0.006": 14.717540636,
			"-0.005": 14.6551590961,
			"-0.004": 14.2165181595,
			"-0.003": 13.7117025334,
			"-0.002": 13.8014342565,
			"-0.001": 13.2946520422,
			"0.0": 11.4108129521,
			"0.001": 12.7230183621,
			"0.002": 18.322447878,
			"0.003": 20.5532004365,
			"0.004": 10.1770104288,
			"0.005": 9.76325571421,
			"0.006": 6.84801681246,
			"0.007": 4.38079196527,
			"0.008": 4.02988650874,
			"0.009": 3.81881332568,
			"0.01": 6.44634128964,
			"0.011": 6.10524964699,
			"0.012": 5.59556174355,
			"0.013": 2.83605836855,
			"0.014": 0.585285236017,
			"0.015": 0.648867650691,
			"0.016": 0.248988146759,
			"0.017": 0.0,
			"0.018": 0.0,
			"0.019": 0.0,
			"0.02": 0.0,
			"0.021": 0.0,
			"0.022": 0.0,
			"0.023": 0.0,
			"0.024": 0.0,
			"0.025": 0.0
		}
	}
}
