{
	 "smiles": "NC1=NC(Cl)=CN=C1", 
	 "Tm": 423.15, 
	 "num_atms": 12, 
	 "gaussian": { 
		 "optdone": 1, 
		 "sigma_profile": "yes", 
		 "theory": "DFT", 
		 "functional": "B3LYP", 
		 "basiset": "6-31G**", 
		 "properties": { 
			 "R2extent": 1154.5436, 
			 "electric_dipole_moment_norm": 3.44113017626, 
			 "electric_quadrupole_moment_norm": 10.6480631802, 
			 "total_energy": -779.278281658, 
			 "HOMO_LUMO_gap": 0.18428, 
			 "cosmo_polarized_energy": -10.55, 
			 "cosmo_cavitation_energy": 18.41, 
			 "cosmo_dispersion_energy": -14.2, 
			 "cosmo_repulsion_energy": 1.2, 
			 "cosmo_total_nonelectrostatic_energy": 5.4, 
			 "SMD_solvation_energy": 0.28 
		},
		"coords": [
			{
				"x": -2.4229383812,
				"y": 0.7667550759,
				"z": 0.1133490401,
				"element": "N" 
			},
			{
				"x": -1.2781439173,
				"y": 0.018247934,
				"z": 0.208591604,
				"element": "C" 
			},
			{
				"x": -0.1258083452,
				"y": 0.6135235139,
				"z": -0.140338763,
				"element": "N" 
			},
			{
				"x": 0.9620894094,
				"y": -0.1332413403,
				"z": -0.0906758903,
				"element": "C" 
			},
			{
				"x": 2.4790275986,
				"y": 0.6323898057,
				"z": -0.5475082414,
				"element": "Cl" 
			},
			{
				"x": 0.9685738013,
				"y": -1.4711562667,
				"z": 0.3051202197,
				"element": "C" 
			},
			{
				"x": -0.180925005,
				"y": -2.0596253439,
				"z": 0.66110689,
				"element": "N" 
			},
			{
				"x": -1.2924074637,
				"y": -1.3365351764,
				"z": 0.6154664518,
				"element": "C" 
			},
			{
				"x": -2.2887709607,
				"y": 1.762450377,
				"z": 0.014647911,
				"element": "H" 
			},
			{
				"x": -3.2334520686,
				"y": 0.475385258,
				"z": 0.6367931009,
				"element": "H" 
			},
			{
				"x": 1.8818484396,
				"y": -2.0553244481,
				"z": 0.3371339846,
				"element": "H" 
			},
			{
				"x": -2.2226931072,
				"y": -1.8235693889,
				"z": 0.9018136925,
				"element": "H" 
			}
		],
		 "valence_orbital": [ 
			{
				"type": "occ",
				"energy": -0.32677,
				"method": "rhf"
			},
			{
				"type": "occ",
				"energy": -0.30826,
				"method": "rhf"
			},
			{
				"type": "occ",
				"energy": -0.29438,
				"method": "rhf"
			},
			{
				"type": "occ",
				"energy": -0.26236,
				"method": "rhf"
			},
			{
				"type": "occ",
				"energy": -0.23278,
				"method": "rhf"
			},
			{
				"type": "unocc",
				"energy": -0.0485,
				"method": "rhf"
			},
			{
				"type": "unocc",
				"energy": -0.01423,
				"method": "rhf"
			},
			{
				"type": "unocc",
				"energy": 0.03514,
				"method": "rhf"
			},
			{
				"type": "unocc",
				"energy": 0.06839,
				"method": "rhf"
			},
			{
				"type": "unocc",
				"energy": 0.11708,
				"method": "rhf"
			}
		],
		"cosmo_sigma_profile": { 
			"-0.025": 0.0,
			"-0.024": 0.0,
			"-0.023": 0.0,
			"-0.022": 0.0,
			"-0.021": 0.0,
			"-0.02": 0.0,
			"-0.019": 0.0,
			"-0.018": 0.0,
			"-0.017": 0.0,
			"-0.016": 0.0,
			"-0.015": 0.436940801556,
			"-0.014": 2.08553325086,
			"-0.013": 2.80869477605,
			"-0.012": 2.57851340215,
			"-0.011": 2.7191827968,
			"-0.01": 2.6583040368,
			"-0.009": 2.23378015548,
			"-0.008": 4.64888558752,
			"-0.007": 3.92902848441,
			"-0.006": 4.45506819414,
			"-0.005": 3.64486824119,
			"-0.004": 3.91623027732,
			"-0.003": 5.16179366336,
			"-0.002": 8.37886268724,
			"-0.001": 13.9842756582,
			"0.0": 13.761048731,
			"0.001": 9.6810192702,
			"0.002": 9.78077414953,
			"0.003": 10.6933344068,
			"0.004": 13.6809322839,
			"0.005": 6.62377571701,
			"0.006": 4.12639925411,
			"0.007": 3.85502650084,
			"0.008": 2.9680327967,
			"0.009": 2.88702028082,
			"0.01": 2.52797120957,
			"0.011": 2.04674253583,
			"0.012": 1.06449508998,
			"0.013": 1.40757020589,
			"0.014": 0.941711885374,
			"0.015": 0.342934439289,
			"0.016": 0.0,
			"0.017": 0.0,
			"0.018": 0.0,
			"0.019": 0.0,
			"0.02": 0.0,
			"0.021": 0.0,
			"0.022": 0.0,
			"0.023": 0.0,
			"0.024": 0.0,
			"0.025": 0.0
		}
	}
}
