{
	 "smiles": "OC1CCC2=CC=CC=C12", 
	 "Tm": 326.55, 
	 "num_atms": 20, 
	 "gaussian": { 
		 "optdone": 1, 
		 "sigma_profile": "yes", 
		 "theory": "DFT", 
		 "functional": "B3LYP", 
		 "basiset": "6-31G**", 
		 "properties": { 
			 "R2extent": 1526.4225, 
			 "electric_dipole_moment_norm": 1.57661041795, 
			 "electric_quadrupole_moment_norm": 4.50131119786, 
			 "total_energy": -424.208072974, 
			 "HOMO_LUMO_gap": 0.23097, 
			 "cosmo_polarized_energy": -7.0, 
			 "cosmo_cavitation_energy": 22.43, 
			 "cosmo_dispersion_energy": -16.87, 
			 "cosmo_repulsion_energy": 1.37, 
			 "cosmo_total_nonelectrostatic_energy": 6.94, 
			 "SMD_solvation_energy": 3.25 
		},
		"coords": [
			{
				"x": 0.4212075543,
				"y": -1.9573652445,
				"z": -1.4347945614,
				"element": "O" 
			},
			{
				"x": -0.122994682,
				"y": -0.6695844552,
				"z": -1.6836482491,
				"element": "C" 
			},
			{
				"x": 0.7705581136,
				"y": 0.264725531,
				"z": -2.5407473225,
				"element": "C" 
			},
			{
				"x": 0.3859745264,
				"y": 1.7026560424,
				"z": -2.1135408174,
				"element": "C" 
			},
			{
				"x": -0.097406317,
				"y": 1.5159782802,
				"z": -0.6884322623,
				"element": "C" 
			},
			{
				"x": -0.2751496311,
				"y": 2.4620376696,
				"z": 0.3201034173,
				"element": "C" 
			},
			{
				"x": -0.7370184404,
				"y": 2.040721579,
				"z": 1.5715945592,
				"element": "C" 
			},
			{
				"x": -1.01965261,
				"y": 0.6912975394,
				"z": 1.8112227932,
				"element": "C" 
			},
			{
				"x": -0.8474099264,
				"y": -0.2567729718,
				"z": 0.7983327527,
				"element": "C" 
			},
			{
				"x": -0.3858328274,
				"y": 0.1678887799,
				"z": -0.4456022148,
				"element": "C" 
			},
			{
				"x": 1.2078565516,
				"y": -1.8333796945,
				"z": -0.8853483259,
				"element": "H" 
			},
			{
				"x": -1.0669585083,
				"y": -0.8729191024,
				"z": -2.2072689359,
				"element": "H" 
			},
			{
				"x": 1.8162329228,
				"y": 0.0686900573,
				"z": -2.2699502221,
				"element": "H" 
			},
			{
				"x": 0.6695966962,
				"y": 0.081711399,
				"z": -3.6137112379,
				"element": "H" 
			},
			{
				"x": -0.4253149527,
				"y": 2.0901005924,
				"z": -2.7453995835,
				"element": "H" 
			},
			{
				"x": 1.2158720973,
				"y": 2.4123556274,
				"z": -2.1983040445,
				"element": "H" 
			},
			{
				"x": -0.0492816023,
				"y": 3.5110918889,
				"z": 0.1449853293,
				"element": "H" 
			},
			{
				"x": -0.8715154284,
				"y": 2.7676592758,
				"z": 2.3678895723,
				"element": "H" 
			},
			{
				"x": -1.3716107493,
				"y": 0.3804135759,
				"z": 2.7909435398,
				"element": "H" 
			},
			{
				"x": -1.0562527867,
				"y": -1.3087063699,
				"z": 0.9734758135,
				"element": "H" 
			}
		],
		 "valence_orbital": [ 
			{
				"type": "occ",
				"energy": -0.3342,
				"method": "rhf"
			},
			{
				"type": "occ",
				"energy": -0.31515,
				"method": "rhf"
			},
			{
				"type": "occ",
				"energy": -0.26756,
				"method": "rhf"
			},
			{
				"type": "occ",
				"energy": -0.24471,
				"method": "rhf"
			},
			{
				"type": "occ",
				"energy": -0.23544,
				"method": "rhf"
			},
			{
				"type": "unocc",
				"energy": -0.00447,
				"method": "rhf"
			},
			{
				"type": "unocc",
				"energy": 0.00239,
				"method": "rhf"
			},
			{
				"type": "unocc",
				"energy": 0.09137,
				"method": "rhf"
			},
			{
				"type": "unocc",
				"energy": 0.10412,
				"method": "rhf"
			},
			{
				"type": "unocc",
				"energy": 0.10573,
				"method": "rhf"
			}
		],
		"cosmo_sigma_profile": { 
			"-0.025": 0.0,
			"-0.024": 0.0,
			"-0.023": 0.0,
			"-0.022": 0.0,
			"-0.021": 0.0,
			"-0.02": 0.0,
			"-0.019": 0.0,
			"-0.018": 0.0,
			"-0.017": 0.0,
			"-0.016": 0.0,
			"-0.015": 0.476065130512,
			"-0.014": 0.645334117331,
			"-0.013": 1.00609204498,
			"-0.012": 1.12553988235,
			"-0.011": 0.522963579392,
			"-0.01": 0.684159597458,
			"-0.009": 0.998531650852,
			"-0.008": 0.917290439045,
			"-0.007": 1.06188785187,
			"-0.006": 2.50763691393,
			"-0.005": 9.11226555861,
			"-0.004": 15.9229350563,
			"-0.003": 21.2488406382,
			"-0.002": 20.0025231045,
			"-0.001": 16.8674059542,
			"0.0": 17.0209223132,
			"0.001": 11.8156579748,
			"0.002": 6.9540505004,
			"0.003": 8.80121022637,
			"0.004": 7.56231308395,
			"0.005": 8.66200489893,
			"0.006": 8.60315385676,
			"0.007": 3.91032774893,
			"0.008": 1.06839485341,
			"0.009": 1.52368221991,
			"0.01": 1.01607276195,
			"0.011": 0.598963848608,
			"0.012": 1.75827815779,
			"0.013": 1.81808706558,
			"0.014": 2.08249114153,
			"0.015": 0.423061654103,
			"0.016": 0.0,
			"0.017": 0.0,
			"0.018": 0.0,
			"0.019": 0.0,
			"0.02": 0.0,
			"0.021": 0.0,
			"0.022": 0.0,
			"0.023": 0.0,
			"0.024": 0.0,
			"0.025": 0.0
		}
	}
}
