{
	 "smiles": "CC(C)C1=C(C(=NN1)C(O)=O)[N+]([O-])=O", 
	 "Tm": 423.15, 
	 "num_atms": 23, 
	 "gaussian": { 
		 "optdone": 1, 
		 "sigma_profile": "yes", 
		 "theory": "DFT", 
		 "functional": "B3LYP", 
		 "basiset": "6-31G**", 
		 "properties": { 
			 "R2extent": 3251.2756, 
			 "electric_dipole_moment_norm": 8.59403957054, 
			 "electric_quadrupole_moment_norm": 16.2513635619, 
			 "total_energy": -737.204384957, 
			 "HOMO_LUMO_gap": 0.19152, 
			 "cosmo_polarized_energy": -21.62, 
			 "cosmo_cavitation_energy": 28.24, 
			 "cosmo_dispersion_energy": -19.65, 
			 "cosmo_repulsion_energy": 1.57, 
			 "cosmo_total_nonelectrostatic_energy": 10.16, 
			 "SMD_solvation_energy": 7.9 
		},
		"coords": [
			{
				"x": -2.082315162,
				"y": 0.6181703456,
				"z": -0.3463711307,
				"element": "C" 
			},
			{
				"x": -1.2395808338,
				"y": -0.6726445869,
				"z": -0.3910842537,
				"element": "C" 
			},
			{
				"x": -1.3495578107,
				"y": -1.4775471131,
				"z": 0.9198133929,
				"element": "C" 
			},
			{
				"x": 0.1978048436,
				"y": -0.3757647374,
				"z": -0.7316084983,
				"element": "C" 
			},
			{
				"x": 1.193221103,
				"y": 0.352890978,
				"z": -0.1022468198,
				"element": "C" 
			},
			{
				"x": 2.3408722218,
				"y": 0.2620503165,
				"z": -0.9166893127,
				"element": "C" 
			},
			{
				"x": 2.0855851736,
				"y": -0.4796922755,
				"z": -1.995911655,
				"element": "N" 
			},
			{
				"x": 0.802815002,
				"y": -0.8464574462,
				"z": -1.8603295418,
				"element": "N" 
			},
			{
				"x": 3.6848412065,
				"y": 0.8609473224,
				"z": -0.7038029402,
				"element": "C" 
			},
			{
				"x": 4.5788102545,
				"y": 0.5865822101,
				"z": -1.6749158765,
				"element": "O" 
			},
			{
				"x": 3.9515536701,
				"y": 1.5368205245,
				"z": 0.2605553566,
				"element": "O" 
			},
			{
				"x": 1.0637308566,
				"y": 1.0721542479,
				"z": 1.162339159,
				"element": "N" 
			},
			{
				"x": 1.3142557687,
				"y": 0.4460822226,
				"z": 2.1873161729,
				"element": "O" 
			},
			{
				"x": 0.6891316776,
				"y": 2.2389887132,
				"z": 1.1035359937,
				"element": "O" 
			},
			{
				"x": -3.127014567,
				"y": 0.3737900638,
				"z": -0.1317318251,
				"element": "H" 
			},
			{
				"x": -2.0437815301,
				"y": 1.1509790538,
				"z": -1.3010409015,
				"element": "H" 
			},
			{
				"x": -1.7242099666,
				"y": 1.2995842609,
				"z": 0.4300481669,
				"element": "H" 
			},
			{
				"x": -1.6300238018,
				"y": -1.3005880528,
				"z": -1.2044930144,
				"element": "H" 
			},
			{
				"x": -0.9509101867,
				"y": -0.9130627776,
				"z": 1.7670552366,
				"element": "H" 
			},
			{
				"x": -0.7952873589,
				"y": -2.4185360078,
				"z": 0.8558714102,
				"element": "H" 
			},
			{
				"x": -2.3983559086,
				"y": -1.7104967313,
				"z": 1.1270624833,
				"element": "H" 
			},
			{
				"x": 0.3772416962,
				"y": -1.4248457436,
				"z": -2.5708628071,
				"element": "H" 
			},
			{
				"x": 4.1487736519,
				"y": 0.0296952131,
				"z": -2.3475087951,
				"element": "H" 
			}
		],
		 "valence_orbital": [ 
			{
				"type": "occ",
				"energy": -0.3166,
				"method": "rhf"
			},
			{
				"type": "occ",
				"energy": -0.31405,
				"method": "rhf"
			},
			{
				"type": "occ",
				"energy": -0.29613,
				"method": "rhf"
			},
			{
				"type": "occ",
				"energy": -0.28318,
				"method": "rhf"
			},
			{
				"type": "occ",
				"energy": -0.2723,
				"method": "rhf"
			},
			{
				"type": "unocc",
				"energy": -0.08078,
				"method": "rhf"
			},
			{
				"type": "unocc",
				"energy": -0.05117,
				"method": "rhf"
			},
			{
				"type": "unocc",
				"energy": -0.00869,
				"method": "rhf"
			},
			{
				"type": "unocc",
				"energy": 0.0397,
				"method": "rhf"
			},
			{
				"type": "unocc",
				"energy": 0.06755,
				"method": "rhf"
			}
		],
		"cosmo_sigma_profile": { 
			"-0.025": 0.0,
			"-0.024": 0.0,
			"-0.023": 0.0,
			"-0.022": 0.0,
			"-0.021": 0.0,
			"-0.02": 0.0,
			"-0.019": 0.113699738293,
			"-0.018": 1.6359462892,
			"-0.017": 1.53208594106,
			"-0.016": 1.36690145118,
			"-0.015": 1.69241887628,
			"-0.014": 2.09494472805,
			"-0.013": 2.10089067691,
			"-0.012": 1.49602319126,
			"-0.011": 2.07473672028,
			"-0.01": 1.81246274475,
			"-0.009": 1.86894293859,
			"-0.008": 3.3098557267,
			"-0.007": 3.8494274971,
			"-0.006": 4.30892764322,
			"-0.005": 7.3330242621,
			"-0.004": 18.448120598,
			"-0.003": 17.3371578213,
			"-0.002": 19.5267121001,
			"-0.001": 18.7408685146,
			"0.0": 19.8430598205,
			"0.001": 10.6343424854,
			"0.002": 6.95627623881,
			"0.003": 7.79427463566,
			"0.004": 7.61540475966,
			"0.005": 8.62946721626,
			"0.006": 12.1609521392,
			"0.007": 12.7015362642,
			"0.008": 9.53939612748,
			"0.009": 6.57490801022,
			"0.01": 4.69156064729,
			"0.011": 3.73527388827,
			"0.012": 1.94530357415,
			"0.013": 0.346454309977,
			"0.014": 0.0,
			"0.015": 0.0,
			"0.016": 0.0,
			"0.017": 0.0,
			"0.018": 0.0,
			"0.019": 0.0,
			"0.02": 0.0,
			"0.021": 0.0,
			"0.022": 0.0,
			"0.023": 0.0,
			"0.024": 0.0,
			"0.025": 0.0
		}
	}
}
