{
	 "smiles": "CC1=CC(O)=C(C=C1C(C)(C)C)C(C)(C)C", 
	 "Tm": 335.25, 
	 "num_atms": 40, 
	 "gaussian": { 
		 "optdone": 1, 
		 "sigma_profile": "yes", 
		 "theory": "DFT", 
		 "functional": "B3LYP", 
		 "basiset": "6-31G**", 
		 "properties": { 
			 "R2extent": 4536.2437, 
			 "electric_dipole_moment_norm": 1.57163632244, 
			 "electric_quadrupole_moment_norm": 7.09230598113, 
			 "total_energy": -661.305920683, 
			 "HOMO_LUMO_gap": 0.21336, 
			 "cosmo_polarized_energy": -7.15, 
			 "cosmo_cavitation_energy": 37.61, 
			 "cosmo_dispersion_energy": -26.13, 
			 "cosmo_repulsion_energy": 2.01, 
			 "cosmo_total_nonelectrostatic_energy": 13.48, 
			 "SMD_solvation_energy": 7.05 
		},
		"coords": [
			{
				"x": -0.5772179579,
				"y": -0.1783486591,
				"z": 2.5788627967,
				"element": "C" 
			},
			{
				"x": -0.1947206144,
				"y": 0.0113511588,
				"z": 1.1222365985,
				"element": "C" 
			},
			{
				"x": 1.1295718503,
				"y": 0.4010674237,
				"z": 0.8913225183,
				"element": "C" 
			},
			{
				"x": 1.6617635966,
				"y": 0.5874003819,
				"z": -0.3823274217,
				"element": "C" 
			},
			{
				"x": 2.974243713,
				"y": 0.9691578684,
				"z": -0.5325641294,
				"element": "O" 
			},
			{
				"x": 0.8599399651,
				"y": 0.3889291257,
				"z": -1.5203382017,
				"element": "C" 
			},
			{
				"x": -0.4627719342,
				"y": 0.0040874425,
				"z": -1.2666949779,
				"element": "C" 
			},
			{
				"x": -1.0361862308,
				"y": -0.1977539261,
				"z": 0.0020931716,
				"element": "C" 
			},
			{
				"x": -2.5333716776,
				"y": -0.5959267667,
				"z": 0.102460319,
				"element": "C" 
			},
			{
				"x": -3.1479963292,
				"y": -0.9169404545,
				"z": -1.2797715658,
				"element": "C" 
			},
			{
				"x": -3.3582862482,
				"y": 0.5789736578,
				"z": 0.6861804253,
				"element": "C" 
			},
			{
				"x": -2.7299090868,
				"y": -1.8695319169,
				"z": 0.9614955331,
				"element": "C" 
			},
			{
				"x": 1.399984799,
				"y": 0.5844020807,
				"z": -2.9515008519,
				"element": "C" 
			},
			{
				"x": 1.8780370523,
				"y": 2.0456092983,
				"z": -3.1400203758,
				"element": "C" 
			},
			{
				"x": 0.3252475469,
				"y": 0.3061402187,
				"z": -4.0214673211,
				"element": "C" 
			},
			{
				"x": 2.5767159718,
				"y": -0.3895638488,
				"z": -3.2083536373,
				"element": "C" 
			},
			{
				"x": 0.1205798851,
				"y": 0.364876132,
				"z": 3.2229270349,
				"element": "H" 
			},
			{
				"x": -0.5280135167,
				"y": -1.2332713718,
				"z": 2.8728800165,
				"element": "H" 
			},
			{
				"x": -1.5805412511,
				"y": 0.1763526666,
				"z": 2.8174474443,
				"element": "H" 
			},
			{
				"x": 1.7799707204,
				"y": 0.5656740047,
				"z": 1.7504481749,
				"element": "H" 
			},
			{
				"x": 3.3704138214,
				"y": 1.0581326587,
				"z": 0.3438413965,
				"element": "H" 
			},
			{
				"x": -1.0919679175,
				"y": -0.1501504378,
				"z": -2.1287729143,
				"element": "H" 
			},
			{
				"x": -3.1493546673,
				"y": -0.0502561912,
				"z": -1.9478557784,
				"element": "H" 
			},
			{
				"x": -4.1908464171,
				"y": -1.2219993121,
				"z": -1.1458675934,
				"element": "H" 
			},
			{
				"x": -2.624878122,
				"y": -1.7379391001,
				"z": -1.7808601888,
				"element": "H" 
			},
			{
				"x": -3.0334282143,
				"y": 0.8718619404,
				"z": 1.6868382471,
				"element": "H" 
			},
			{
				"x": -4.4181136225,
				"y": 0.3054813137,
				"z": 0.7503557374,
				"element": "H" 
			},
			{
				"x": -3.2754784803,
				"y": 1.4606560481,
				"z": 0.0423725068,
				"element": "H" 
			},
			{
				"x": -3.7806514988,
				"y": -2.1796087258,
				"z": 0.9321238135,
				"element": "H" 
			},
			{
				"x": -2.4662956263,
				"y": -1.7270524535,
				"z": 2.0092666309,
				"element": "H" 
			},
			{
				"x": -2.126272947,
				"y": -2.6959526124,
				"z": 0.5712945374,
				"element": "H" 
			},
			{
				"x": 2.2616276955,
				"y": 2.186879322,
				"z": -4.157293946,
				"element": "H" 
			},
			{
				"x": 1.0478651176,
				"y": 2.7453326272,
				"z": -2.9937691418,
				"element": "H" 
			},
			{
				"x": 2.6712752202,
				"y": 2.3033366873,
				"z": -2.4368336157,
				"element": "H" 
			},
			{
				"x": -0.5311431612,
				"y": 0.982919966,
				"z": -3.9318901557,
				"element": "H" 
			},
			{
				"x": -0.0439797812,
				"y": -0.7239639158,
				"z": -3.9776265586,
				"element": "H" 
			},
			{
				"x": 0.7593787577,
				"y": 0.4568677209,
				"z": -5.0152356344,
				"element": "H" 
			},
			{
				"x": 2.9622368105,
				"y": -0.2527549989,
				"z": -4.2255042917,
				"element": "H" 
			},
			{
				"x": 2.2454704869,
				"y": -1.4293185063,
				"z": -3.1115665225,
				"element": "H" 
			},
			{
				"x": 3.3960022921,
				"y": -0.2242565462,
				"z": -2.5072320789,
				"element": "H" 
			}
		],
		 "valence_orbital": [ 
			{
				"type": "occ",
				"energy": -0.3043,
				"method": "rhf"
			},
			{
				"type": "occ",
				"energy": -0.30385,
				"method": "rhf"
			},
			{
				"type": "occ",
				"energy": -0.29968,
				"method": "rhf"
			},
			{
				"type": "occ",
				"energy": -0.23173,
				"method": "rhf"
			},
			{
				"type": "occ",
				"energy": -0.20584,
				"method": "rhf"
			},
			{
				"type": "unocc",
				"energy": 0.00752,
				"method": "rhf"
			},
			{
				"type": "unocc",
				"energy": 0.01865,
				"method": "rhf"
			},
			{
				"type": "unocc",
				"energy": 0.07084,
				"method": "rhf"
			},
			{
				"type": "unocc",
				"energy": 0.08548,
				"method": "rhf"
			},
			{
				"type": "unocc",
				"energy": 0.10112,
				"method": "rhf"
			}
		],
		"cosmo_sigma_profile": { 
			"-0.025": 0.0,
			"-0.024": 0.0,
			"-0.023": 0.0,
			"-0.022": 0.0,
			"-0.021": 0.0,
			"-0.02": 0.0,
			"-0.019": 0.0,
			"-0.018": 0.00793228075294,
			"-0.017": 0.651199226474,
			"-0.016": 1.29030112401,
			"-0.015": 0.961270252656,
			"-0.014": 0.922871568214,
			"-0.013": 0.948507924644,
			"-0.012": 1.33398266916,
			"-0.011": 0.462583257702,
			"-0.01": 0.299098030645,
			"-0.009": 1.58669046157,
			"-0.008": 1.02822760028,
			"-0.007": 1.12766030503,
			"-0.006": 1.17576013762,
			"-0.005": 3.00483527107,
			"-0.004": 6.859455345,
			"-0.003": 18.5865102154,
			"-0.002": 43.9749787332,
			"-0.001": 39.0177912332,
			"0.0": 39.1916519772,
			"0.001": 45.3552670574,
			"0.002": 34.8977890534,
			"0.003": 11.0681905115,
			"0.004": 9.33643560622,
			"0.005": 9.50436860913,
			"0.006": 8.74336532373,
			"0.007": 8.42899328748,
			"0.008": 1.24488466462,
			"0.009": 0.106768152602,
			"0.01": 0.0,
			"0.011": 0.0,
			"0.012": 0.0,
			"0.013": 0.0,
			"0.014": 0.0,
			"0.015": 0.0,
			"0.016": 0.0,
			"0.017": 0.0,
			"0.018": 0.0,
			"0.019": 0.0,
			"0.02": 0.0,
			"0.021": 0.0,
			"0.022": 0.0,
			"0.023": 0.0,
			"0.024": 0.0,
			"0.025": 0.0
		}
	}
}
