{
	 "smiles": "CC1=CC(C=O)=CC(C)=C1OCC1=C(C)C=CC=C1", 
	 "Tm": 336.15, 
	 "num_atms": 37, 
	 "gaussian": { 
		 "optdone": 1, 
		 "sigma_profile": "yes", 
		 "theory": "DFT", 
		 "functional": "B3LYP", 
		 "basiset": "6-31G**", 
		 "properties": { 
			 "R2extent": 7652.0614, 
			 "electric_dipole_moment_norm": 3.86437478772, 
			 "electric_quadrupole_moment_norm": 24.6093878573, 
			 "total_energy": -809.108208598, 
			 "HOMO_LUMO_gap": 0.18237, 
			 "cosmo_polarized_energy": -11.03, 
			 "cosmo_cavitation_energy": 40.35, 
			 "cosmo_dispersion_energy": -27.55, 
			 "cosmo_repulsion_energy": 2.11, 
			 "cosmo_total_nonelectrostatic_energy": 14.92, 
			 "SMD_solvation_energy": 7.86 
		},
		"coords": [
			{
				"x": 1.2084406123,
				"y": 3.1049827043,
				"z": -1.0190166714,
				"element": "C" 
			},
			{
				"x": 1.9016061615,
				"y": 1.9661926738,
				"z": -1.7267933419,
				"element": "C" 
			},
			{
				"x": 2.6414821823,
				"y": 2.1734647421,
				"z": -2.8931808977,
				"element": "C" 
			},
			{
				"x": 3.2974869773,
				"y": 1.116015339,
				"z": -3.5321635162,
				"element": "C" 
			},
			{
				"x": 4.0734495381,
				"y": 1.368761744,
				"z": -4.7640089744,
				"element": "C" 
			},
			{
				"x": 4.6800292969,
				"y": 0.5197223217,
				"z": -5.3910364904,
				"element": "O" 
			},
			{
				"x": 3.2297622597,
				"y": -0.1748307914,
				"z": -2.9904640159,
				"element": "C" 
			},
			{
				"x": 2.5042934762,
				"y": -0.4264988075,
				"z": -1.8284643402,
				"element": "C" 
			},
			{
				"x": 2.4429320483,
				"y": -1.8062910725,
				"z": -1.2197751345,
				"element": "C" 
			},
			{
				"x": 1.8365627899,
				"y": 0.6561262785,
				"z": -1.2188595037,
				"element": "C" 
			},
			{
				"x": 1.1577704627,
				"y": 0.4336611661,
				"z": -0.0363460304,
				"element": "O" 
			},
			{
				"x": -0.2275535125,
				"y": 0.1054467401,
				"z": -0.1760663952,
				"element": "C" 
			},
			{
				"x": -0.850813028,
				"y": -0.1150657211,
				"z": 1.1832469248,
				"element": "C" 
			},
			{
				"x": -2.2203051816,
				"y": -0.4449630412,
				"z": 1.266678699,
				"element": "C" 
			},
			{
				"x": -3.0699035625,
				"y": -0.5806104813,
				"z": 0.0241248987,
				"element": "C" 
			},
			{
				"x": -2.7844355482,
				"y": -0.6465137868,
				"z": 2.5308364669,
				"element": "C" 
			},
			{
				"x": -2.0230695982,
				"y": -0.527798711,
				"z": 3.6946117241,
				"element": "C" 
			},
			{
				"x": -0.6717428367,
				"y": -0.2018755756,
				"z": 3.602554771,
				"element": "C" 
			},
			{
				"x": -0.0906771273,
				"y": 0.0030906511,
				"z": 2.3497367986,
				"element": "C" 
			},
			{
				"x": 1.2861888311,
				"y": 2.9977214427,
				"z": 0.0657657298,
				"element": "H" 
			},
			{
				"x": 0.1395437938,
				"y": 3.1441418103,
				"z": -1.2628811973,
				"element": "H" 
			},
			{
				"x": 1.6431912961,
				"y": 4.0649068153,
				"z": -1.3099906388,
				"element": "H" 
			},
			{
				"x": 2.7149926233,
				"y": 3.1769853542,
				"z": -3.3083491048,
				"element": "H" 
			},
			{
				"x": 4.0697025785,
				"y": 2.4302815618,
				"z": -5.1008970955,
				"element": "H" 
			},
			{
				"x": 3.7642730782,
				"y": -0.9743767504,
				"z": -3.4951865546,
				"element": "H" 
			},
			{
				"x": 2.5505922895,
				"y": -1.7618520118,
				"z": -0.1328398351,
				"element": "H" 
			},
			{
				"x": 3.2318664673,
				"y": -2.4433152525,
				"z": -1.6271104394,
				"element": "H" 
			},
			{
				"x": 1.4847611137,
				"y": -2.2985935728,
				"z": -1.4263297836,
				"element": "H" 
			},
			{
				"x": -0.7477520718,
				"y": 0.9153098335,
				"z": -0.7095391598,
				"element": "H" 
			},
			{
				"x": -0.3330452753,
				"y": -0.7965308298,
				"z": -0.7977386972,
				"element": "H" 
			},
			{
				"x": -3.098340001,
				"y": 0.3501259301,
				"z": -0.5565218328,
				"element": "H" 
			},
			{
				"x": -4.1001798739,
				"y": -0.8394609972,
				"z": 0.2809170823,
				"element": "H" 
			},
			{
				"x": -2.6912724064,
				"y": -1.3609527276,
				"z": -0.6480793679,
				"element": "H" 
			},
			{
				"x": -3.8392335882,
				"y": -0.9009212085,
				"z": 2.6008741508,
				"element": "H" 
			},
			{
				"x": -2.4854766798,
				"y": -0.6895325686,
				"z": 4.6641452408,
				"element": "H" 
			},
			{
				"x": -0.0673970376,
				"y": -0.1064365238,
				"z": 4.5001222755,
				"element": "H" 
			},
			{
				"x": 0.9596694524,
				"y": 0.2567833227,
				"z": 2.2671242565,
				"element": "H" 
			}
		],
		 "valence_orbital": [ 
			{
				"type": "occ",
				"energy": -0.25109,
				"method": "rhf"
			},
			{
				"type": "occ",
				"energy": -0.24957,
				"method": "rhf"
			},
			{
				"type": "occ",
				"energy": -0.24638,
				"method": "rhf"
			},
			{
				"type": "occ",
				"energy": -0.24514,
				"method": "rhf"
			},
			{
				"type": "occ",
				"energy": -0.2391,
				"method": "rhf"
			},
			{
				"type": "unocc",
				"energy": -0.05673,
				"method": "rhf"
			},
			{
				"type": "unocc",
				"energy": -0.00904,
				"method": "rhf"
			},
			{
				"type": "unocc",
				"energy": -0.00254,
				"method": "rhf"
			},
			{
				"type": "unocc",
				"energy": 0.00232,
				"method": "rhf"
			},
			{
				"type": "unocc",
				"energy": 0.03996,
				"method": "rhf"
			}
		],
		"cosmo_sigma_profile": { 
			"-0.025": 0.0,
			"-0.024": 0.0,
			"-0.023": 0.0,
			"-0.022": 0.0,
			"-0.021": 0.0,
			"-0.02": 0.0,
			"-0.019": 0.0,
			"-0.018": 0.0,
			"-0.017": 0.0,
			"-0.016": 0.0,
			"-0.015": 0.0,
			"-0.014": 0.0,
			"-0.013": 0.0,
			"-0.012": 0.0,
			"-0.011": 0.0,
			"-0.01": 0.0,
			"-0.009": 0.0,
			"-0.008": 0.0640971625236,
			"-0.007": 2.5352771719,
			"-0.006": 9.30564161986,
			"-0.005": 28.2320464749,
			"-0.004": 31.6145810563,
			"-0.003": 30.3104322257,
			"-0.002": 29.8119070653,
			"-0.001": 29.398958146,
			"0.0": 32.9066054191,
			"0.001": 22.6016728715,
			"0.002": 20.9759723625,
			"0.003": 22.2824512236,
			"0.004": 16.6779287841,
			"0.005": 11.5976384784,
			"0.006": 10.8454119977,
			"0.007": 5.32253108746,
			"0.008": 1.62967049626,
			"0.009": 2.1725355597,
			"0.01": 2.25571117013,
			"0.011": 3.89831250113,
			"0.012": 3.83214576321,
			"0.013": 1.32811514404,
			"0.014": 0.0418023956624,
			"0.015": 0.0,
			"0.016": 0.0,
			"0.017": 0.0,
			"0.018": 0.0,
			"0.019": 0.0,
			"0.02": 0.0,
			"0.021": 0.0,
			"0.022": 0.0,
			"0.023": 0.0,
			"0.024": 0.0,
			"0.025": 0.0
		}
	}
}
