{
	 "smiles": "N1C=CN=C1", 
	 "Tm": 363.35, 
	 "num_atms": 9, 
	 "gaussian": { 
		 "optdone": 1, 
		 "sigma_profile": "yes", 
		 "theory": "DFT", 
		 "functional": "B3LYP", 
		 "basiset": "6-31G**", 
		 "properties": { 
			 "R2extent": 355.8343, 
			 "electric_dipole_moment_norm": 3.69740534024, 
			 "electric_quadrupole_moment_norm": 6.26002514931, 
			 "total_energy": -226.218109315, 
			 "HOMO_LUMO_gap": 0.25738, 
			 "cosmo_polarized_energy": -11.79, 
			 "cosmo_cavitation_energy": 12.7, 
			 "cosmo_dispersion_energy": -9.84, 
			 "cosmo_repulsion_energy": 0.87, 
			 "cosmo_total_nonelectrostatic_energy": 3.73, 
			 "SMD_solvation_energy": 1.51 
		},
		"coords": [
			{
				"x": -0.4185637058,
				"y": 0.7886591838,
				"z": -0.4832045764,
				"element": "N" 
			},
			{
				"x": 0.1013121518,
				"y": 0.2169663215,
				"z": 0.661030046,
				"element": "C" 
			},
			{
				"x": 1.3032553113,
				"y": -0.3217722068,
				"z": 0.2754010339,
				"element": "C" 
			},
			{
				"x": 1.5331986971,
				"y": -0.0975734001,
				"z": -1.0648856585,
				"element": "N" 
			},
			{
				"x": 0.482394831,
				"y": 0.570106561,
				"z": -1.4886153424,
				"element": "C" 
			},
			{
				"x": -1.2981242407,
				"y": 1.2756030874,
				"z": -0.5601541855,
				"element": "H" 
			},
			{
				"x": -0.4174296003,
				"y": 0.2481394535,
				"z": 1.6065232606,
				"element": "H" 
			},
			{
				"x": 2.0157911538,
				"y": -0.8581644751,
				"z": 0.8865949919,
				"element": "H" 
			},
			{
				"x": 0.3163654017,
				"y": 0.9193354749,
				"z": -2.4986895696,
				"element": "H" 
			}
		],
		 "valence_orbital": [ 
			{
				"type": "occ",
				"energy": -0.42437,
				"method": "rhf"
			},
			{
				"type": "occ",
				"energy": -0.40131,
				"method": "rhf"
			},
			{
				"type": "occ",
				"energy": -0.2768,
				"method": "rhf"
			},
			{
				"type": "occ",
				"energy": -0.26191,
				"method": "rhf"
			},
			{
				"type": "occ",
				"energy": -0.22543,
				"method": "rhf"
			},
			{
				"type": "unocc",
				"energy": 0.03195,
				"method": "rhf"
			},
			{
				"type": "unocc",
				"energy": 0.07382,
				"method": "rhf"
			},
			{
				"type": "unocc",
				"energy": 0.07438,
				"method": "rhf"
			},
			{
				"type": "unocc",
				"energy": 0.13453,
				"method": "rhf"
			},
			{
				"type": "unocc",
				"energy": 0.15122,
				"method": "rhf"
			}
		],
		"cosmo_sigma_profile": { 
			"-0.025": 0.0,
			"-0.024": 0.0,
			"-0.023": 0.0,
			"-0.022": 0.0,
			"-0.021": 0.0,
			"-0.02": 0.0,
			"-0.019": 0.0,
			"-0.018": 0.0,
			"-0.017": 0.237030391576,
			"-0.016": 1.72795700303,
			"-0.015": 1.73688304806,
			"-0.014": 0.740605599506,
			"-0.013": 1.97190424164,
			"-0.012": 0.789052052523,
			"-0.011": 1.00517721907,
			"-0.01": 1.41404454882,
			"-0.009": 2.11806475582,
			"-0.008": 5.60953248114,
			"-0.007": 4.88992630027,
			"-0.006": 4.65766105224,
			"-0.005": 4.95044595683,
			"-0.004": 4.05294542958,
			"-0.003": 4.33031923358,
			"-0.002": 4.5590841655,
			"-0.001": 4.13928452902,
			"0.0": 4.35204364839,
			"0.001": 4.28400163576,
			"0.002": 4.40581940953,
			"0.003": 5.01564524518,
			"0.004": 6.08724852856,
			"0.005": 5.42940014515,
			"0.006": 5.59184146169,
			"0.007": 2.68062872976,
			"0.008": 1.87099031087,
			"0.009": 1.60495977747,
			"0.01": 1.94742475367,
			"0.011": 1.44890497674,
			"0.012": 1.32890732228,
			"0.013": 1.19266969341,
			"0.014": 1.03953066146,
			"0.015": 1.21292432777,
			"0.016": 1.14880930708,
			"0.017": 1.27717799621,
			"0.018": 0.836386912765,
			"0.019": 0.278749665075,
			"0.02": 0.0,
			"0.021": 0.0,
			"0.022": 0.0,
			"0.023": 0.0,
			"0.024": 0.0,
			"0.025": 0.0
		}
	}
}
