{
	 "smiles": "CC1=C(C=C(C=C1)S(Cl)(=O)=O)C(O)=O", 
	 "Tm": 423.15, 
	 "num_atms": 21, 
	 "gaussian": { 
		 "optdone": 1, 
		 "sigma_profile": "yes", 
		 "theory": "DFT", 
		 "functional": "B3LYP", 
		 "basiset": "6-31G**", 
		 "properties": { 
			 "R2extent": 4186.7706, 
			 "electric_dipole_moment_norm": 6.84054331614, 
			 "electric_quadrupole_moment_norm": 5.85890793408, 
			 "total_energy": -1468.29673792, 
			 "HOMO_LUMO_gap": 0.19537, 
			 "cosmo_polarized_energy": -14.03, 
			 "cosmo_cavitation_energy": 29.22, 
			 "cosmo_dispersion_energy": -21.74, 
			 "cosmo_repulsion_energy": 1.67, 
			 "cosmo_total_nonelectrostatic_energy": 9.14, 
			 "SMD_solvation_energy": 4.98 
		},
		"coords": [
			{
				"x": 2.4307680106,
				"y": -1.5292753194,
				"z": 2.6753173965,
				"element": "C" 
			},
			{
				"x": 1.2062377457,
				"y": -1.2621144354,
				"z": 1.8334849336,
				"element": "C" 
			},
			{
				"x": 1.1336836148,
				"y": -0.2805061701,
				"z": 0.8132495603,
				"element": "C" 
			},
			{
				"x": -0.0507693668,
				"y": -0.1082700215,
				"z": 0.0829590818,
				"element": "C" 
			},
			{
				"x": -1.1535941441,
				"y": -0.9021113239,
				"z": 0.3631503226,
				"element": "C" 
			},
			{
				"x": -1.1192857739,
				"y": -1.8756893914,
				"z": 1.3613847496,
				"element": "C" 
			},
			{
				"x": 0.0597519682,
				"y": -2.0376134148,
				"z": 2.0791978604,
				"element": "C" 
			},
			{
				"x": -2.6628065808,
				"y": -0.6569181358,
				"z": -0.5601404037,
				"element": "S" 
			},
			{
				"x": -2.3782494947,
				"y": -2.004840795,
				"z": -2.1906049809,
				"element": "Cl" 
			},
			{
				"x": -2.6714593645,
				"y": 0.6814454,
				"z": -1.1346890192,
				"element": "O" 
			},
			{
				"x": -3.7818867395,
				"y": -1.1856500638,
				"z": 0.2102061356,
				"element": "O" 
			},
			{
				"x": 2.2355148785,
				"y": 0.6484096863,
				"z": 0.4043160948,
				"element": "C" 
			},
			{
				"x": 3.3880979949,
				"y": 0.4982261125,
				"z": 1.0964134609,
				"element": "O" 
			},
			{
				"x": 2.1241033663,
				"y": 1.477000145,
				"z": -0.4761436264,
				"element": "O" 
			},
			{
				"x": 3.2865026475,
				"y": -1.8137653316,
				"z": 2.0577718101,
				"element": "H" 
			},
			{
				"x": 2.7352218817,
				"y": -0.6395334196,
				"z": 3.2324343948,
				"element": "H" 
			},
			{
				"x": 2.229938052,
				"y": -2.3341914413,
				"z": 3.3858662091,
				"element": "H" 
			},
			{
				"x": -0.0841832279,
				"y": 0.6536545007,
				"z": -0.6872219921,
				"element": "H" 
			},
			{
				"x": -1.9951655925,
				"y": -2.4788224313,
				"z": 1.5728642421,
				"element": "H" 
			},
			{
				"x": 0.0980564859,
				"y": -2.7889172258,
				"z": 2.8619751258,
				"element": "H" 
			},
			{
				"x": 4.0005236384,
				"y": 1.1566830764,
				"z": 0.7262086442,
				"element": "H" 
			}
		],
		 "valence_orbital": [ 
			{
				"type": "occ",
				"energy": -0.33139,
				"method": "rhf"
			},
			{
				"type": "occ",
				"energy": -0.31343,
				"method": "rhf"
			},
			{
				"type": "occ",
				"energy": -0.29913,
				"method": "rhf"
			},
			{
				"type": "occ",
				"energy": -0.29325,
				"method": "rhf"
			},
			{
				"type": "occ",
				"energy": -0.28757,
				"method": "rhf"
			},
			{
				"type": "unocc",
				"energy": -0.0922,
				"method": "rhf"
			},
			{
				"type": "unocc",
				"energy": -0.075,
				"method": "rhf"
			},
			{
				"type": "unocc",
				"energy": -0.04467,
				"method": "rhf"
			},
			{
				"type": "unocc",
				"energy": 0.01984,
				"method": "rhf"
			},
			{
				"type": "unocc",
				"energy": 0.05288,
				"method": "rhf"
			}
		],
		"cosmo_sigma_profile": { 
			"-0.025": 0.0,
			"-0.024": 0.0,
			"-0.023": 0.0,
			"-0.022": 0.0,
			"-0.021": 0.0,
			"-0.02": 0.0,
			"-0.019": 0.136052035915,
			"-0.018": 1.08448219411,
			"-0.017": 1.03087108286,
			"-0.016": 0.494551548854,
			"-0.015": 0.802224233974,
			"-0.014": 0.956588631016,
			"-0.013": 0.717369131676,
			"-0.012": 0.606186038507,
			"-0.011": 0.811457225357,
			"-0.01": 0.458289280664,
			"-0.009": 1.80775296322,
			"-0.008": 3.9296301622,
			"-0.007": 6.70635920432,
			"-0.006": 7.54055199635,
			"-0.005": 9.19048466902,
			"-0.004": 14.8504983724,
			"-0.003": 17.4201283806,
			"-0.002": 21.149665559,
			"-0.001": 27.5514592853,
			"0.0": 21.928342905,
			"0.001": 14.0541490549,
			"0.002": 10.8740950429,
			"0.003": 19.085950216,
			"0.004": 12.172822913,
			"0.005": 4.70642471543,
			"0.006": 3.73588097595,
			"0.007": 8.589807637,
			"0.008": 10.9427744943,
			"0.009": 5.03365113737,
			"0.01": 2.61868198053,
			"0.011": 4.47642873713,
			"0.012": 1.04453696005,
			"0.013": 0.0,
			"0.014": 0.0,
			"0.015": 0.0,
			"0.016": 0.0,
			"0.017": 0.0,
			"0.018": 0.0,
			"0.019": 0.0,
			"0.02": 0.0,
			"0.021": 0.0,
			"0.022": 0.0,
			"0.023": 0.0,
			"0.024": 0.0,
			"0.025": 0.0
		}
	}
}
