{
	 "smiles": "CCC(C)C(NC(N)=O)C(O)=O", 
	 "Tm": 479.15, 
	 "num_atms": 26, 
	 "gaussian": { 
		 "optdone": 1, 
		 "sigma_profile": "yes", 
		 "theory": "DFT", 
		 "functional": "B3LYP", 
		 "basiset": "6-31G**", 
		 "properties": { 
			 "R2extent": 3052.3815, 
			 "electric_dipole_moment_norm": 4.36828646268, 
			 "electric_quadrupole_moment_norm": 17.2060248608, 
			 "total_energy": -610.39965462, 
			 "HOMO_LUMO_gap": 0.22123, 
			 "cosmo_polarized_energy": -16.5, 
			 "cosmo_cavitation_energy": 27.35, 
			 "cosmo_dispersion_energy": -19.55, 
			 "cosmo_repulsion_energy": 1.57, 
			 "cosmo_total_nonelectrostatic_energy": 9.38, 
			 "SMD_solvation_energy": 5.75 
		},
		"coords": [
			{
				"x": -1.2660533777,
				"y": -1.2950955091,
				"z": 0.897746846,
				"element": "C" 
			},
			{
				"x": -0.423237873,
				"y": -0.1148832833,
				"z": 0.3909290278,
				"element": "C" 
			},
			{
				"x": 0.8567775791,
				"y": 0.2457594604,
				"z": 1.1964203691,
				"element": "C" 
			},
			{
				"x": 0.698951609,
				"y": 0.0260542833,
				"z": 2.7079896511,
				"element": "C" 
			},
			{
				"x": 2.1902942168,
				"y": -0.4151708198,
				"z": 0.697185967,
				"element": "C" 
			},
			{
				"x": 2.3399802118,
				"y": -1.8603290659,
				"z": 0.8504040104,
				"element": "N" 
			},
			{
				"x": 1.6137537128,
				"y": -2.9217219649,
				"z": 0.2915536682,
				"element": "C" 
			},
			{
				"x": 1.1831778079,
				"y": -2.7631934798,
				"z": -1.0004343676,
				"element": "N" 
			},
			{
				"x": 1.4059052259,
				"y": -3.9333571007,
				"z": 0.9539963425,
				"element": "O" 
			},
			{
				"x": 2.5887540488,
				"y": 0.1025348855,
				"z": -0.683975486,
				"element": "C" 
			},
			{
				"x": 2.8007679818,
				"y": 1.4359759807,
				"z": -0.6447036198,
				"element": "O" 
			},
			{
				"x": 2.7296433703,
				"y": -0.5292053367,
				"z": -1.7124676491,
				"element": "O" 
			},
			{
				"x": -1.6950215305,
				"y": -1.0846438265,
				"z": 1.8826472481,
				"element": "H" 
			},
			{
				"x": -0.7038693552,
				"y": -2.2277268795,
				"z": 0.9715786028,
				"element": "H" 
			},
			{
				"x": -2.1014213207,
				"y": -1.4702499731,
				"z": 0.2119886003,
				"element": "H" 
			},
			{
				"x": -1.0642227993,
				"y": 0.7761295134,
				"z": 0.3920619587,
				"element": "H" 
			},
			{
				"x": -0.1560108804,
				"y": -0.2901088096,
				"z": -0.6572589904,
				"element": "H" 
			},
			{
				"x": 1.0306248476,
				"y": 1.3174953362,
				"z": 1.0446538369,
				"element": "H" 
			},
			{
				"x": 0.5845758514,
				"y": -1.0329609532,
				"z": 2.9574364991,
				"element": "H" 
			},
			{
				"x": 1.5667201071,
				"y": 0.41288517,
				"z": 3.2546164064,
				"element": "H" 
			},
			{
				"x": -0.1858679483,
				"y": 0.5499454475,
				"z": 3.0828400013,
				"element": "H" 
			},
			{
				"x": 2.9660770047,
				"y": 0.0075986418,
				"z": 1.3485264703,
				"element": "H" 
			},
			{
				"x": 2.577402682,
				"y": -2.1238074246,
				"z": 1.7973469513,
				"element": "H" 
			},
			{
				"x": 1.7168203829,
				"y": -2.1426045154,
				"z": -1.5991866341,
				"element": "H" 
			},
			{
				"x": 0.8246630909,
				"y": -3.6157208419,
				"z": -1.4038288901,
				"element": "H" 
			},
			{
				"x": 3.0374153542,
				"y": 1.7030010651,
				"z": -1.5491668203,
				"element": "H" 
			}
		],
		 "valence_orbital": [ 
			{
				"type": "occ",
				"energy": -0.32431,
				"method": "rhf"
			},
			{
				"type": "occ",
				"energy": -0.29818,
				"method": "rhf"
			},
			{
				"type": "occ",
				"energy": -0.26025,
				"method": "rhf"
			},
			{
				"type": "occ",
				"energy": -0.25449,
				"method": "rhf"
			},
			{
				"type": "occ",
				"energy": -0.2375,
				"method": "rhf"
			},
			{
				"type": "unocc",
				"energy": -0.01627,
				"method": "rhf"
			},
			{
				"type": "unocc",
				"energy": 0.05739,
				"method": "rhf"
			},
			{
				"type": "unocc",
				"energy": 0.05919,
				"method": "rhf"
			},
			{
				"type": "unocc",
				"energy": 0.06266,
				"method": "rhf"
			},
			{
				"type": "unocc",
				"energy": 0.10968,
				"method": "rhf"
			}
		],
		"cosmo_sigma_profile": { 
			"-0.025": 0.0,
			"-0.024": 0.0,
			"-0.023": 0.0,
			"-0.022": 0.0,
			"-0.021": 0.0,
			"-0.02": 0.0,
			"-0.019": 0.309579383449,
			"-0.018": 1.03500062409,
			"-0.017": 0.717927069599,
			"-0.016": 0.989907831289,
			"-0.015": 1.2560030236,
			"-0.014": 0.408824730415,
			"-0.013": 1.1558678106,
			"-0.012": 2.75886393995,
			"-0.011": 2.79606983168,
			"-0.01": 2.54016622773,
			"-0.009": 2.86927955123,
			"-0.008": 5.56345250163,
			"-0.007": 6.40570785246,
			"-0.006": 4.64228305775,
			"-0.005": 4.52555341836,
			"-0.004": 5.81763661906,
			"-0.003": 15.6130661416,
			"-0.002": 23.3611320826,
			"-0.001": 22.355199643,
			"0.0": 21.5331620727,
			"0.001": 19.1103050113,
			"0.002": 11.0062534652,
			"0.003": 6.39441105802,
			"0.004": 5.96769398735,
			"0.005": 6.10858986151,
			"0.006": 5.7853851919,
			"0.007": 5.35987536334,
			"0.008": 4.70245035149,
			"0.009": 3.7061439278,
			"0.01": 2.93468694634,
			"0.011": 1.92084060705,
			"0.012": 1.23839566142,
			"0.013": 1.97961708849,
			"0.014": 4.66766224306,
			"0.015": 4.49912988556,
			"0.016": 0.181263724426,
			"0.017": 0.0,
			"0.018": 0.0,
			"0.019": 0.0,
			"0.02": 0.0,
			"0.021": 0.0,
			"0.022": 0.0,
			"0.023": 0.0,
			"0.024": 0.0,
			"0.025": 0.0
		}
	}
}
