{
	 "smiles": "NCC1=C(Cl)C=C(C=C1)N1C=NC=N1", 
	 "Tm": 385.15, 
	 "num_atms": 23, 
	 "gaussian": { 
		 "optdone": 1, 
		 "sigma_profile": "yes", 
		 "theory": "DFT", 
		 "functional": "B3LYP", 
		 "basiset": "6-31G**", 
		 "properties": { 
			 "R2extent": 4086.1144, 
			 "electric_dipole_moment_norm": 2.10991003363, 
			 "electric_quadrupole_moment_norm": 14.9633719813, 
			 "total_energy": -1027.55788404, 
			 "HOMO_LUMO_gap": 0.19012, 
			 "cosmo_polarized_energy": -13.43, 
			 "cosmo_cavitation_energy": 29.0, 
			 "cosmo_dispersion_energy": -21.37, 
			 "cosmo_repulsion_energy": 1.65, 
			 "cosmo_total_nonelectrostatic_energy": 9.27, 
			 "SMD_solvation_energy": 1.38 
		},
		"coords": [
			{
				"x": -2.4007487208,
				"y": 1.9851357023,
				"z": -1.5191603077,
				"element": "N" 
			},
			{
				"x": -0.9567067131,
				"y": 2.1614608009,
				"z": -1.335487303,
				"element": "C" 
			},
			{
				"x": -0.2151821335,
				"y": 0.9952408859,
				"z": -0.6993852187,
				"element": "C" 
			},
			{
				"x": -0.3108326745,
				"y": 0.6737733588,
				"z": 0.6637616552,
				"element": "C" 
			},
			{
				"x": -1.292690228,
				"y": 1.6739758865,
				"z": 1.7353077584,
				"element": "Cl" 
			},
			{
				"x": 0.3503544033,
				"y": -0.409947813,
				"z": 1.2313555681,
				"element": "C" 
			},
			{
				"x": 1.1377111766,
				"y": -1.2242200802,
				"z": 0.412959006,
				"element": "C" 
			},
			{
				"x": 1.2512695451,
				"y": -0.950845564,
				"z": -0.9522697141,
				"element": "C" 
			},
			{
				"x": 0.5861125835,
				"y": 0.1523643093,
				"z": -1.4812345815,
				"element": "C" 
			},
			{
				"x": 1.8200068604,
				"y": -2.3259278297,
				"z": 0.9901744186,
				"element": "N" 
			},
			{
				"x": 2.9114202704,
				"y": -3.0052164013,
				"z": 0.5409788461,
				"element": "C" 
			},
			{
				"x": 3.2457688601,
				"y": -3.9580631058,
				"z": 1.3887665941,
				"element": "N" 
			},
			{
				"x": 2.3103080771,
				"y": -3.819733992,
				"z": 2.3727970381,
				"element": "C" 
			},
			{
				"x": 1.4294614621,
				"y": -2.8512914187,
				"z": 2.1867807829,
				"element": "N" 
			},
			{
				"x": -2.8576237529,
				"y": 1.9167365436,
				"z": -0.6133982851,
				"element": "H" 
			},
			{
				"x": -2.5842688554,
				"y": 1.1096221487,
				"z": -2.0037708832,
				"element": "H" 
			},
			{
				"x": -0.5100253064,
				"y": 2.3561804267,
				"z": -2.3167183153,
				"element": "H" 
			},
			{
				"x": -0.8061001601,
				"y": 3.065441188,
				"z": -0.7368936448,
				"element": "H" 
			},
			{
				"x": 0.2631271472,
				"y": -0.6321864781,
				"z": 2.2867372272,
				"element": "H" 
			},
			{
				"x": 1.8337737468,
				"y": -1.594566118,
				"z": -1.6019658572,
				"element": "H" 
			},
			{
				"x": 0.6813788255,
				"y": 0.3652826785,
				"z": -2.5427348884,
				"element": "H" 
			},
			{
				"x": 3.4262215466,
				"y": -2.7598942094,
				"z": -0.3761841569,
				"element": "H" 
			},
			{
				"x": 2.27696404,
				"y": -4.4515209192,
				"z": 3.2495842614,
				"element": "H" 
			}
		],
		 "valence_orbital": [ 
			{
				"type": "occ",
				"energy": -0.2863,
				"method": "rhf"
			},
			{
				"type": "occ",
				"energy": -0.28488,
				"method": "rhf"
			},
			{
				"type": "occ",
				"energy": -0.26759,
				"method": "rhf"
			},
			{
				"type": "occ",
				"energy": -0.25632,
				"method": "rhf"
			},
			{
				"type": "occ",
				"energy": -0.23729,
				"method": "rhf"
			},
			{
				"type": "unocc",
				"energy": -0.04717,
				"method": "rhf"
			},
			{
				"type": "unocc",
				"energy": -0.03091,
				"method": "rhf"
			},
			{
				"type": "unocc",
				"energy": 0.01471,
				"method": "rhf"
			},
			{
				"type": "unocc",
				"energy": 0.02003,
				"method": "rhf"
			},
			{
				"type": "unocc",
				"energy": 0.04455,
				"method": "rhf"
			}
		],
		"cosmo_sigma_profile": { 
			"-0.025": 0.0,
			"-0.024": 0.0,
			"-0.023": 0.0,
			"-0.022": 0.0,
			"-0.021": 0.0,
			"-0.02": 0.0,
			"-0.019": 0.0,
			"-0.018": 0.0,
			"-0.017": 0.0,
			"-0.016": 0.0,
			"-0.015": 0.0,
			"-0.014": 0.0,
			"-0.013": 0.0,
			"-0.012": 0.758207757371,
			"-0.011": 2.29295819206,
			"-0.01": 3.06141318987,
			"-0.009": 4.87284230768,
			"-0.008": 6.36047598267,
			"-0.007": 9.61893685366,
			"-0.006": 12.5414317533,
			"-0.005": 11.2760846347,
			"-0.004": 12.3957038701,
			"-0.003": 12.9572487943,
			"-0.002": 17.7307951906,
			"-0.001": 18.9455031015,
			"0.0": 17.2248444152,
			"0.001": 21.6574930993,
			"0.002": 21.5361542993,
			"0.003": 14.3965012135,
			"0.004": 10.9785221194,
			"0.005": 6.04739970009,
			"0.006": 3.88123762347,
			"0.007": 2.60044628241,
			"0.008": 3.21933039658,
			"0.009": 2.92272879444,
			"0.01": 3.04748335206,
			"0.011": 3.1270319566,
			"0.012": 2.51083343369,
			"0.013": 1.89530718761,
			"0.014": 1.77785521228,
			"0.015": 1.19052867382,
			"0.016": 1.21133227824,
			"0.017": 1.07210997446,
			"0.018": 0.619490580023,
			"0.019": 0.485161811497,
			"0.02": 0.086605559074,
			"0.021": 0.0,
			"0.022": 0.0,
			"0.023": 0.0,
			"0.024": 0.0,
			"0.025": 0.0
		}
	}
}
