{
	 "smiles": "BrC1=CC(Br)=CN=C1", 
	 "Tm": 385.15, 
	 "num_atms": 11, 
	 "gaussian": { 
		 "optdone": 1, 
		 "sigma_profile": "yes", 
		 "theory": "DFT", 
		 "functional": "B3LYP", 
		 "basiset": "6-31G**", 
		 "properties": { 
			 "R2extent": 3593.6044, 
			 "electric_dipole_moment_norm": 0.748477975628, 
			 "electric_quadrupole_moment_norm": 1.76062844178, 
			 "total_energy": -5389.88728711, 
			 "HOMO_LUMO_gap": 0.20885, 
			 "cosmo_polarized_energy": -4.54, 
			 "cosmo_cavitation_energy": 20.29, 
			 "cosmo_dispersion_energy": -16.03, 
			 "cosmo_repulsion_energy": 1.32, 
			 "cosmo_total_nonelectrostatic_energy": 5.59, 
			 "SMD_solvation_energy": -0.1 
		},
		"coords": [
			{
				"x": -1.6889552367,
				"y": 2.726978577,
				"z": -2.1574669493,
				"element": "Br" 
			},
			{
				"x": -0.7796652484,
				"y": 1.5129992456,
				"z": -1.0059897999,
				"element": "C" 
			},
			{
				"x": 0.5959929463,
				"y": 1.3317614378,
				"z": -1.1252139342,
				"element": "C" 
			},
			{
				"x": 1.1957227486,
				"y": 0.4288947211,
				"z": -0.2507640666,
				"element": "C" 
			},
			{
				"x": 3.0718575052,
				"y": 0.1142310189,
				"z": -0.3375290196,
				"element": "Br" 
			},
			{
				"x": 0.4182806097,
				"y": -0.2471160221,
				"z": 0.6919376244,
				"element": "C" 
			},
			{
				"x": -0.9006064686,
				"y": -0.0601226717,
				"z": 0.7913565654,
				"element": "N" 
			},
			{
				"x": -1.4934788389,
				"y": 0.802082291,
				"z": -0.038964511,
				"element": "C" 
			},
			{
				"x": 1.1744158648,
				"y": 1.8696903448,
				"z": -1.8659319948,
				"element": "H" 
			},
			{
				"x": 0.8742279144,
				"y": -0.9538587373,
				"z": 1.3795535057,
				"element": "H" 
			},
			{
				"x": -2.5667917964,
				"y": 0.9346597949,
				"z": 0.06401258,
				"element": "H" 
			}
		],
		 "valence_orbital": [ 
			{
				"type": "occ",
				"energy": -0.31319,
				"method": "rhf"
			},
			{
				"type": "occ",
				"energy": -0.30289,
				"method": "rhf"
			},
			{
				"type": "occ",
				"energy": -0.2828,
				"method": "rhf"
			},
			{
				"type": "occ",
				"energy": -0.27726,
				"method": "rhf"
			},
			{
				"type": "occ",
				"energy": -0.26055,
				"method": "rhf"
			},
			{
				"type": "unocc",
				"energy": -0.0517,
				"method": "rhf"
			},
			{
				"type": "unocc",
				"energy": -0.03927,
				"method": "rhf"
			},
			{
				"type": "unocc",
				"energy": -0.02529,
				"method": "rhf"
			},
			{
				"type": "unocc",
				"energy": 0.01256,
				"method": "rhf"
			},
			{
				"type": "unocc",
				"energy": 0.11188,
				"method": "rhf"
			}
		],
		"cosmo_sigma_profile": { 
			"-0.025": 0.0,
			"-0.024": 0.0,
			"-0.023": 0.0,
			"-0.022": 0.0,
			"-0.021": 0.0,
			"-0.02": 0.0,
			"-0.019": 0.0,
			"-0.018": 0.0,
			"-0.017": 0.0,
			"-0.016": 0.0,
			"-0.015": 0.0,
			"-0.014": 0.0,
			"-0.013": 0.0,
			"-0.012": 0.0,
			"-0.011": 0.0,
			"-0.01": 0.136089920235,
			"-0.009": 1.56137206484,
			"-0.008": 4.0720307569,
			"-0.007": 5.18017031499,
			"-0.006": 4.38650184205,
			"-0.005": 8.07702238877,
			"-0.004": 8.36423563701,
			"-0.003": 8.43283859777,
			"-0.002": 14.4173160714,
			"-0.001": 24.2560457097,
			"0.0": 17.9726600081,
			"0.001": 13.8508817516,
			"0.002": 14.2112619583,
			"0.003": 20.4377969033,
			"0.004": 14.8633000419,
			"0.005": 1.22635603834,
			"0.006": 1.67204028335,
			"0.007": 1.15775913039,
			"0.008": 0.833221896547,
			"0.009": 0.737184316374,
			"0.01": 0.873562288952,
			"0.011": 1.06855293879,
			"0.012": 1.0390163473,
			"0.013": 0.888993351703,
			"0.014": 0.664888943865,
			"0.015": 0.345103215606,
			"0.016": 0.0,
			"0.017": 0.0,
			"0.018": 0.0,
			"0.019": 0.0,
			"0.02": 0.0,
			"0.021": 0.0,
			"0.022": 0.0,
			"0.023": 0.0,
			"0.024": 0.0,
			"0.025": 0.0
		}
	}
}
