{
	 "smiles": "CC1OC(=O)C2CC3CCCCC3C(C=CC3CCCC(C)N3C)C12", 
	 "Tm": 406.15, 
	 "num_atms": 60, 
	 "gaussian": { 
		 "optdone": 1, 
		 "sigma_profile": "yes", 
		 "theory": "DFT", 
		 "functional": "B3LYP", 
		 "basiset": "6-31G**", 
		 "properties": { 
			 "R2extent": 11947.6699, 
			 "electric_dipole_moment_norm": 4.64035619538, 
			 "electric_quadrupole_moment_norm": 27.333372139, 
			 "total_energy": -1064.63446712, 
			 "HOMO_LUMO_gap": 0.20672, 
			 "cosmo_polarized_energy": -12.1, 
			 "cosmo_cavitation_energy": 54.03, 
			 "cosmo_dispersion_energy": -35.94, 
			 "cosmo_repulsion_energy": 2.73, 
			 "cosmo_total_nonelectrostatic_energy": 20.83, 
			 "SMD_solvation_energy": 7.18 
		},
		"coords": [
			{
				"x": 3.5028890361,
				"y": 1.1311098521,
				"z": 1.3226708498,
				"element": "C" 
			},
			{
				"x": 2.3491484576,
				"y": 0.9508701346,
				"z": 2.2980278187,
				"element": "C" 
			},
			{
				"x": 2.5853646132,
				"y": 1.8111520402,
				"z": 3.4408824134,
				"element": "O" 
			},
			{
				"x": 1.4777485509,
				"y": 2.5090194015,
				"z": 3.801787278,
				"element": "C" 
			},
			{
				"x": 1.4592213175,
				"y": 3.233077899,
				"z": 4.7657406903,
				"element": "O" 
			},
			{
				"x": 0.322953749,
				"y": 2.2201896228,
				"z": 2.8435060991,
				"element": "C" 
			},
			{
				"x": -0.8470443197,
				"y": 1.556773668,
				"z": 3.6027117125,
				"element": "C" 
			},
			{
				"x": -0.5667583601,
				"y": 0.0688825745,
				"z": 3.8229617102,
				"element": "C" 
			},
			{
				"x": -1.5750699826,
				"y": -0.6212288321,
				"z": 4.7673060473,
				"element": "C" 
			},
			{
				"x": -1.5669156853,
				"y": -2.1622334158,
				"z": 4.5982037176,
				"element": "C" 
			},
			{
				"x": -0.1991182621,
				"y": -2.6615576064,
				"z": 4.1075713597,
				"element": "C" 
			},
			{
				"x": 0.1710067743,
				"y": -2.0700293397,
				"z": 2.720801891,
				"element": "C" 
			},
			{
				"x": -0.5132716641,
				"y": -0.7009786358,
				"z": 2.4826800993,
				"element": "C" 
			},
			{
				"x": 0.0291923893,
				"y": 0.1692196816,
				"z": 1.2940323649,
				"element": "C" 
			},
			{
				"x": 0.6319399638,
				"y": -0.6447083897,
				"z": 0.1742865757,
				"element": "C" 
			},
			{
				"x": 0.185762891,
				"y": -0.66214177,
				"z": -1.0865618254,
				"element": "C" 
			},
			{
				"x": 0.8145213925,
				"y": -1.4836617853,
				"z": -2.2018388256,
				"element": "C" 
			},
			{
				"x": 1.2552838494,
				"y": -0.6346119197,
				"z": -3.4090512068,
				"element": "C" 
			},
			{
				"x": 0.0715263159,
				"y": -0.0965478084,
				"z": -4.252142572,
				"element": "C" 
			},
			{
				"x": -1.2446903133,
				"y": -0.8489917408,
				"z": -3.973582164,
				"element": "C" 
			},
			{
				"x": -1.0573944411,
				"y": -2.3509322683,
				"z": -3.68897394,
				"element": "C" 
			},
			{
				"x": -0.7831480923,
				"y": -3.1541218975,
				"z": -4.9723289074,
				"element": "C" 
			},
			{
				"x": 0.0081827378,
				"y": -2.6078803521,
				"z": -2.6971264397,
				"element": "N" 
			},
			{
				"x": -0.3282586385,
				"y": -3.6075605911,
				"z": -1.703043867,
				"element": "C" 
			},
			{
				"x": 0.9527057942,
				"y": 1.339978873,
				"z": 1.735637948,
				"element": "C" 
			},
			{
				"x": 4.4567353276,
				"y": 0.8878971734,
				"z": 1.7989557807,
				"element": "H" 
			},
			{
				"x": 3.546189511,
				"y": 2.1676852801,
				"z": 0.9732499371,
				"element": "H" 
			},
			{
				"x": 3.3687060564,
				"y": 0.4799967549,
				"z": 0.4537597581,
				"element": "H" 
			},
			{
				"x": 2.3478469675,
				"y": -0.0748283746,
				"z": 2.6830430841,
				"element": "H" 
			},
			{
				"x": -0.0108604861,
				"y": 3.1858165535,
				"z": 2.4501440546,
				"element": "H" 
			},
			{
				"x": -0.9853515243,
				"y": 2.0817171491,
				"z": 4.5544470116,
				"element": "H" 
			},
			{
				"x": -1.7779342935,
				"y": 1.6777922741,
				"z": 3.0332986375,
				"element": "H" 
			},
			{
				"x": 0.4262209957,
				"y": -0.005415188,
				"z": 4.2925952726,
				"element": "H" 
			},
			{
				"x": -2.5836828643,
				"y": -0.2339024753,
				"z": 4.5710494094,
				"element": "H" 
			},
			{
				"x": -1.3370568673,
				"y": -0.3499165282,
				"z": 5.8027687292,
				"element": "H" 
			},
			{
				"x": -1.8328055306,
				"y": -2.6477400207,
				"z": 5.5435126123,
				"element": "H" 
			},
			{
				"x": -2.3367294403,
				"y": -2.464241925,
				"z": 3.8769271091,
				"element": "H" 
			},
			{
				"x": -0.1844898333,
				"y": -3.7561105144,
				"z": 4.0620389801,
				"element": "H" 
			},
			{
				"x": 0.5628079999,
				"y": -2.3803521462,
				"z": 4.8454126185,
				"element": "H" 
			},
			{
				"x": -0.1232203821,
				"y": -2.7612490175,
				"z": 1.9229142285,
				"element": "H" 
			},
			{
				"x": 1.2619959653,
				"y": -1.9795281137,
				"z": 2.6559938068,
				"element": "H" 
			},
			{
				"x": -1.554822979,
				"y": -0.9222833562,
				"z": 2.2102820571,
				"element": "H" 
			},
			{
				"x": -0.8483247688,
				"y": 0.6723548479,
				"z": 0.8676589053,
				"element": "H" 
			},
			{
				"x": 1.5035511247,
				"y": -1.2531541753,
				"z": 0.4201605683,
				"element": "H" 
			},
			{
				"x": -0.6906350546,
				"y": -0.0633540283,
				"z": -1.3355259984,
				"element": "H" 
			},
			{
				"x": 1.7224357401,
				"y": -1.9339192859,
				"z": -1.7736112058,
				"element": "H" 
			},
			{
				"x": 1.8909157822,
				"y": 0.1870888706,
				"z": -3.0627259915,
				"element": "H" 
			},
			{
				"x": 1.880977842,
				"y": -1.2831407694,
				"z": -4.0318166933,
				"element": "H" 
			},
			{
				"x": 0.3279485355,
				"y": -0.1701991201,
				"z": -5.31438906,
				"element": "H" 
			},
			{
				"x": -0.0865007655,
				"y": 0.9697074852,
				"z": -4.0561620254,
				"element": "H" 
			},
			{
				"x": -1.7489882012,
				"y": -0.3960932697,
				"z": -3.1134995516,
				"element": "H" 
			},
			{
				"x": -1.9325118175,
				"y": -0.7313377404,
				"z": -4.8186995094,
				"element": "H" 
			},
			{
				"x": -2.0126127582,
				"y": -2.7103084979,
				"z": -3.2737409413,
				"element": "H" 
			},
			{
				"x": -0.6357661286,
				"y": -4.2132928133,
				"z": -4.7392909909,
				"element": "H" 
			},
			{
				"x": -1.6203683718,
				"y": -3.074145817,
				"z": -5.6760046415,
				"element": "H" 
			},
			{
				"x": 0.1241326054,
				"y": -2.7985683487,
				"z": -5.471297993,
				"element": "H" 
			},
			{
				"x": 0.5707228903,
				"y": -3.8930058955,
				"z": -1.1443235655,
				"element": "H" 
			},
			{
				"x": -1.0880861389,
				"y": -3.2834895043,
				"z": -0.9678438195,
				"element": "H" 
			},
			{
				"x": -0.7052143795,
				"y": -4.5089597547,
				"z": -2.1984804277,
				"element": "H" 
			},
			{
				"x": 1.121897168,
				"y": 1.9574928968,
				"z": 0.8462410265,
				"element": "H" 
			}
		],
		 "valence_orbital": [ 
			{
				"type": "occ",
				"energy": -0.29013,
				"method": "rhf"
			},
			{
				"type": "occ",
				"energy": -0.28433,
				"method": "rhf"
			},
			{
				"type": "occ",
				"energy": -0.26034,
				"method": "rhf"
			},
			{
				"type": "occ",
				"energy": -0.24786,
				"method": "rhf"
			},
			{
				"type": "occ",
				"energy": -0.19619,
				"method": "rhf"
			},
			{
				"type": "unocc",
				"energy": 0.01053,
				"method": "rhf"
			},
			{
				"type": "unocc",
				"energy": 0.01573,
				"method": "rhf"
			},
			{
				"type": "unocc",
				"energy": 0.06589,
				"method": "rhf"
			},
			{
				"type": "unocc",
				"energy": 0.06804,
				"method": "rhf"
			},
			{
				"type": "unocc",
				"energy": 0.07148,
				"method": "rhf"
			}
		],
		"cosmo_sigma_profile": { 
			"-0.025": 0.0,
			"-0.024": 0.0,
			"-0.023": 0.0,
			"-0.022": 0.0,
			"-0.021": 0.0,
			"-0.02": 0.0,
			"-0.019": 0.0,
			"-0.018": 0.0,
			"-0.017": 0.0,
			"-0.016": 0.0,
			"-0.015": 0.0,
			"-0.014": 0.0,
			"-0.013": 0.0,
			"-0.012": 0.0,
			"-0.011": 0.0,
			"-0.01": 0.0,
			"-0.009": 2.34109157114e-05,
			"-0.008": 0.0503149981644,
			"-0.007": 0.346488982914,
			"-0.006": 3.91773123471,
			"-0.005": 10.0900872105,
			"-0.004": 19.6529213171,
			"-0.003": 42.0284078651,
			"-0.002": 69.9933099864,
			"-0.001": 75.2853962659,
			"0.0": 68.8797989041,
			"0.001": 51.0934452692,
			"0.002": 21.208131466,
			"0.003": 7.8419828717,
			"0.004": 6.58087603953,
			"0.005": 4.47461777009,
			"0.006": 3.95728898849,
			"0.007": 2.58063454525,
			"0.008": 2.5603214979,
			"0.009": 4.03686923223,
			"0.01": 4.85926303332,
			"0.011": 4.58093561238,
			"0.012": 6.02062037562,
			"0.013": 4.22103109114,
			"0.014": 0.567293913713,
			"0.015": 0.0180353406053,
			"0.016": 0.0,
			"0.017": 0.0,
			"0.018": 0.0,
			"0.019": 0.0,
			"0.02": 0.0,
			"0.021": 0.0,
			"0.022": 0.0,
			"0.023": 0.0,
			"0.024": 0.0,
			"0.025": 0.0
		}
	}
}
