{
	 "smiles": "ClCC(=O)N1CC(=O)NC2=C1C=CC=C2", 
	 "Tm": 389.15, 
	 "num_atms": 24, 
	 "gaussian": { 
		 "optdone": 1, 
		 "sigma_profile": "yes", 
		 "theory": "DFT", 
		 "functional": "B3LYP", 
		 "basiset": "6-31G**", 
		 "properties": { 
			 "R2extent": 4167.3323, 
			 "electric_dipole_moment_norm": 6.60638623909, 
			 "electric_quadrupole_moment_norm": 12.3439351242, 
			 "total_energy": -1106.65256194, 
			 "HOMO_LUMO_gap": 0.19287, 
			 "cosmo_polarized_energy": -19.81, 
			 "cosmo_cavitation_energy": 29.58, 
			 "cosmo_dispersion_energy": -21.75, 
			 "cosmo_repulsion_energy": 1.71, 
			 "cosmo_total_nonelectrostatic_energy": 9.55, 
			 "SMD_solvation_energy": 5.62 
		},
		"coords": [
			{
				"x": -1.389798983,
				"y": 0.3174606114,
				"z": 3.8623692261,
				"element": "Cl" 
			},
			{
				"x": -0.5724521544,
				"y": 0.510888129,
				"z": 2.2754075168,
				"element": "C" 
			},
			{
				"x": -0.8073787667,
				"y": -0.7096063043,
				"z": 1.3750688439,
				"element": "C" 
			},
			{
				"x": -1.0092813008,
				"y": -1.8186776118,
				"z": 1.8336939129,
				"element": "O" 
			},
			{
				"x": -0.784648686,
				"y": -0.4854403836,
				"z": -0.0002542472,
				"element": "N" 
			},
			{
				"x": -1.239906489,
				"y": -1.578025394,
				"z": -0.8663500893,
				"element": "C" 
			},
			{
				"x": -2.4199135967,
				"y": -1.1506770251,
				"z": -1.7352963598,
				"element": "C" 
			},
			{
				"x": -3.261898243,
				"y": -1.9241381925,
				"z": -2.1505468513,
				"element": "O" 
			},
			{
				"x": -2.4323343513,
				"y": 0.1963195079,
				"z": -2.0443304272,
				"element": "N" 
			},
			{
				"x": -1.4023473749,
				"y": 1.0869529429,
				"z": -1.7166311213,
				"element": "C" 
			},
			{
				"x": -0.5305423619,
				"y": 0.7448315541,
				"z": -0.6617982583,
				"element": "C" 
			},
			{
				"x": 0.5462381693,
				"y": 1.5856319074,
				"z": -0.3661287582,
				"element": "C" 
			},
			{
				"x": 0.7098874569,
				"y": 2.7930032481,
				"z": -1.0464883389,
				"element": "C" 
			},
			{
				"x": -0.1822892235,
				"y": 3.1472133272,
				"z": -2.0595527127,
				"element": "C" 
			},
			{
				"x": -1.2253828263,
				"y": 2.28960853,
				"z": -2.4058834805,
				"element": "C" 
			},
			{
				"x": -0.9368195718,
				"y": 1.4332719912,
				"z": 1.8264982075,
				"element": "H" 
			},
			{
				"x": 0.4940602975,
				"y": 0.6185108217,
				"z": 2.4833362941,
				"element": "H" 
			},
			{
				"x": -0.4263590757,
				"y": -1.9174252477,
				"z": -1.5217864908,
				"element": "H" 
			},
			{
				"x": -1.5464586388,
				"y": -2.4106252657,
				"z": -0.2363018971,
				"element": "H" 
			},
			{
				"x": -3.152694368,
				"y": 0.4851453046,
				"z": -2.6942588494,
				"element": "H" 
			},
			{
				"x": 1.2612870238,
				"y": 1.2888167171,
				"z": 0.3933444387,
				"element": "H" 
			},
			{
				"x": 1.5422395544,
				"y": 3.4423242577,
				"z": -0.7957939595,
				"element": "H" 
			},
			{
				"x": -0.0573193911,
				"y": 4.0821940943,
				"z": -2.596370071,
				"element": "H" 
			},
			{
				"x": -1.906387099,
				"y": 2.5468424801,
				"z": -3.2125465274,
				"element": "H" 
			}
		],
		 "valence_orbital": [ 
			{
				"type": "occ",
				"energy": -0.29931,
				"method": "rhf"
			},
			{
				"type": "occ",
				"energy": -0.28078,
				"method": "rhf"
			},
			{
				"type": "occ",
				"energy": -0.27052,
				"method": "rhf"
			},
			{
				"type": "occ",
				"energy": -0.25393,
				"method": "rhf"
			},
			{
				"type": "occ",
				"energy": -0.2334,
				"method": "rhf"
			},
			{
				"type": "unocc",
				"energy": -0.04053,
				"method": "rhf"
			},
			{
				"type": "unocc",
				"energy": -0.0313,
				"method": "rhf"
			},
			{
				"type": "unocc",
				"energy": -0.00173,
				"method": "rhf"
			},
			{
				"type": "unocc",
				"energy": 0.01805,
				"method": "rhf"
			},
			{
				"type": "unocc",
				"energy": 0.03369,
				"method": "rhf"
			}
		],
		"cosmo_sigma_profile": { 
			"-0.025": 0.0,
			"-0.024": 0.0,
			"-0.023": 0.0,
			"-0.022": 0.0,
			"-0.021": 0.0,
			"-0.02": 0.0,
			"-0.019": 0.0,
			"-0.018": 0.0,
			"-0.017": 0.0,
			"-0.016": 0.300345402112,
			"-0.015": 1.32153358223,
			"-0.014": 1.25954482798,
			"-0.013": 1.22030808367,
			"-0.012": 1.18429368522,
			"-0.011": 2.40185893973,
			"-0.01": 3.55024004574,
			"-0.009": 4.50973303078,
			"-0.008": 7.58951853771,
			"-0.007": 9.84798621153,
			"-0.006": 14.8052002421,
			"-0.005": 17.1163289106,
			"-0.004": 15.7083158704,
			"-0.003": 12.8981216946,
			"-0.002": 11.5349752491,
			"-0.001": 13.3718232211,
			"0.0": 12.6729699259,
			"0.001": 12.9412907896,
			"0.002": 12.5180136847,
			"0.003": 13.3626367807,
			"0.004": 13.439133033,
			"0.005": 12.2727054599,
			"0.006": 8.53777767522,
			"0.007": 2.94415677823,
			"0.008": 2.27376982775,
			"0.009": 3.96775051689,
			"0.01": 3.91797205199,
			"0.011": 5.02215631247,
			"0.012": 9.34569560149,
			"0.013": 5.80242310245,
			"0.014": 0.94568868515,
			"0.015": 0.0,
			"0.016": 0.0,
			"0.017": 0.0,
			"0.018": 0.0,
			"0.019": 0.0,
			"0.02": 0.0,
			"0.021": 0.0,
			"0.022": 0.0,
			"0.023": 0.0,
			"0.024": 0.0,
			"0.025": 0.0
		}
	}
}
