{
	 "smiles": "CCCCCCCCCCCCC(Br)C(O)=O", 
	 "Tm": 315.15, 
	 "num_atms": 44, 
	 "gaussian": { 
		 "optdone": 1, 
		 "sigma_profile": "yes", 
		 "theory": "DFT", 
		 "functional": "B3LYP", 
		 "basiset": "6-31G**", 
		 "properties": { 
			 "R2extent": 10001.8583, 
			 "electric_dipole_moment_norm": 2.15542361034, 
			 "electric_quadrupole_moment_norm": 17.8086820925, 
			 "total_energy": -3271.65382668, 
			 "HOMO_LUMO_gap": 0.22943, 
			 "cosmo_polarized_energy": -9.65, 
			 "cosmo_cavitation_energy": 45.97, 
			 "cosmo_dispersion_energy": -30.44, 
			 "cosmo_repulsion_energy": 2.46, 
			 "cosmo_total_nonelectrostatic_energy": 17.99, 
			 "SMD_solvation_energy": 6.44 
		},
		"coords": [
			{
				"x": 1.3356726371,
				"y": -3.962617156,
				"z": 0.4105898242,
				"element": "C" 
			},
			{
				"x": 0.7081093194,
				"y": -4.8832632727,
				"z": -0.64419718,
				"element": "C" 
			},
			{
				"x": -0.8051308334,
				"y": -4.6677261692,
				"z": -0.8736700488,
				"element": "C" 
			},
			{
				"x": -1.229650001,
				"y": -3.7072488937,
				"z": -2.0027980332,
				"element": "C" 
			},
			{
				"x": -0.8491069889,
				"y": -2.2155272,
				"z": -1.8703747218,
				"element": "C" 
			},
			{
				"x": 0.5063591502,
				"y": -1.8348296799,
				"z": -2.4936367477,
				"element": "C" 
			},
			{
				"x": 0.8242005333,
				"y": -0.325019691,
				"z": -2.5402876899,
				"element": "C" 
			},
			{
				"x": 1.4493301304,
				"y": 0.3035229819,
				"z": -1.2806340672,
				"element": "C" 
			},
			{
				"x": 0.5389818742,
				"y": 0.4388366926,
				"z": -0.0508897137,
				"element": "C" 
			},
			{
				"x": 1.2011624773,
				"y": 1.2401901065,
				"z": 1.0787252305,
				"element": "C" 
			},
			{
				"x": 0.3908612723,
				"y": 1.2967992874,
				"z": 2.3855543382,
				"element": "C" 
			},
			{
				"x": -1.0047509147,
				"y": 1.9480694034,
				"z": 2.3441330433,
				"element": "C" 
			},
			{
				"x": -1.0348571478,
				"y": 3.473418103,
				"z": 2.2146406518,
				"element": "C" 
			},
			{
				"x": -0.7703906886,
				"y": 4.1096840534,
				"z": 0.3347836581,
				"element": "Br" 
			},
			{
				"x": -2.3365010212,
				"y": 4.0977833916,
				"z": 2.6872097282,
				"element": "C" 
			},
			{
				"x": -3.420908925,
				"y": 3.4969310543,
				"z": 2.1536524166,
				"element": "O" 
			},
			{
				"x": -2.4019671018,
				"y": 5.0114108674,
				"z": 3.4778072479,
				"element": "O" 
			},
			{
				"x": 2.4049467148,
				"y": -4.1682158245,
				"z": 0.5312645743,
				"element": "H" 
			},
			{
				"x": 1.2301328433,
				"y": -2.9046737574,
				"z": 0.1530928102,
				"element": "H" 
			},
			{
				"x": 0.8584220948,
				"y": -4.1113561457,
				"z": 1.3861821326,
				"element": "H" 
			},
			{
				"x": 0.8702495391,
				"y": -5.9200896198,
				"z": -0.3235076058,
				"element": "H" 
			},
			{
				"x": 1.2435766491,
				"y": -4.7823018193,
				"z": -1.5973064947,
				"element": "H" 
			},
			{
				"x": -1.2665542961,
				"y": -4.3393548501,
				"z": 0.0688726471,
				"element": "H" 
			},
			{
				"x": -1.2625943249,
				"y": -5.6393150857,
				"z": -1.1004307445,
				"element": "H" 
			},
			{
				"x": -2.3227208277,
				"y": -3.7750880752,
				"z": -2.0774142829,
				"element": "H" 
			},
			{
				"x": -0.8461309693,
				"y": -4.0899263719,
				"z": -2.95973672,
				"element": "H" 
			},
			{
				"x": -0.8954388688,
				"y": -1.9201526335,
				"z": -0.8156991622,
				"element": "H" 
			},
			{
				"x": -1.6184518306,
				"y": -1.6174358936,
				"z": -2.3773072418,
				"element": "H" 
			},
			{
				"x": 1.3281938145,
				"y": -2.360141801,
				"z": -1.9911872305,
				"element": "H" 
			},
			{
				"x": 0.5036816529,
				"y": -2.2121322157,
				"z": -3.5254340661,
				"element": "H" 
			},
			{
				"x": 1.5287615915,
				"y": -0.1573821534,
				"z": -3.3650262767,
				"element": "H" 
			},
			{
				"x": -0.085828036,
				"y": 0.2297689772,
				"z": -2.8109648733,
				"element": "H" 
			},
			{
				"x": 1.8046812732,
				"y": 1.3080026967,
				"z": -1.5492651982,
				"element": "H" 
			},
			{
				"x": 2.3484716474,
				"y": -0.2663472265,
				"z": -1.0044843522,
				"element": "H" 
			},
			{
				"x": -0.3966813585,
				"y": 0.9265445917,
				"z": -0.3529784895,
				"element": "H" 
			},
			{
				"x": 0.2652375951,
				"y": -0.5531945435,
				"z": 0.330813756,
				"element": "H" 
			},
			{
				"x": 2.1721514639,
				"y": 0.7832629881,
				"z": 1.314289061,
				"element": "H" 
			},
			{
				"x": 1.4202652274,
				"y": 2.2532531063,
				"z": 0.7236862934,
				"element": "H" 
			},
			{
				"x": 0.9872281391,
				"y": 1.8060341971,
				"z": 3.1548587093,
				"element": "H" 
			},
			{
				"x": 0.2515891419,
				"y": 0.2700730074,
				"z": 2.7493390159,
				"element": "H" 
			},
			{
				"x": -1.6390493296,
				"y": 1.50473603,
				"z": 1.5716985781,
				"element": "H" 
			},
			{
				"x": -1.4977456434,
				"y": 1.7221371131,
				"z": 3.300652255,
				"element": "H" 
			},
			{
				"x": -0.2312453027,
				"y": 3.952537321,
				"z": 2.7719060414,
				"element": "H" 
			},
			{
				"x": -4.1951623723,
				"y": 3.9631441092,
				"z": 2.5109789277,
				"element": "H" 
			}
		],
		 "valence_orbital": [ 
			{
				"type": "occ",
				"energy": -0.29804,
				"method": "rhf"
			},
			{
				"type": "occ",
				"energy": -0.29635,
				"method": "rhf"
			},
			{
				"type": "occ",
				"energy": -0.29382,
				"method": "rhf"
			},
			{
				"type": "occ",
				"energy": -0.27987,
				"method": "rhf"
			},
			{
				"type": "occ",
				"energy": -0.27097,
				"method": "rhf"
			},
			{
				"type": "unocc",
				"energy": -0.04154,
				"method": "rhf"
			},
			{
				"type": "unocc",
				"energy": 0.03112,
				"method": "rhf"
			},
			{
				"type": "unocc",
				"energy": 0.06372,
				"method": "rhf"
			},
			{
				"type": "unocc",
				"energy": 0.07385,
				"method": "rhf"
			},
			{
				"type": "unocc",
				"energy": 0.08898,
				"method": "rhf"
			}
		],
		"cosmo_sigma_profile": { 
			"-0.025": 0.0,
			"-0.024": 0.0,
			"-0.023": 0.0,
			"-0.022": 0.0,
			"-0.021": 0.0,
			"-0.02": 0.0,
			"-0.019": 0.318176797135,
			"-0.018": 1.08720316571,
			"-0.017": 0.799104650506,
			"-0.016": 0.679163369339,
			"-0.015": 1.27237845657,
			"-0.014": 0.591310666609,
			"-0.013": 0.316287969421,
			"-0.012": 0.832967473419,
			"-0.011": 1.17916868842,
			"-0.01": 0.581478959069,
			"-0.009": 0.230350560441,
			"-0.008": 2.21674814741,
			"-0.007": 4.66251653788,
			"-0.006": 5.6318550857,
			"-0.005": 4.94945379487,
			"-0.004": 6.62107001488,
			"-0.003": 12.4888176593,
			"-0.002": 37.3326762541,
			"-0.001": 67.6116990376,
			"0.0": 71.3313018752,
			"0.001": 55.1486363982,
			"0.002": 30.3093393138,
			"0.003": 10.5577971292,
			"0.004": 7.94450604594,
			"0.005": 7.93679380866,
			"0.006": 6.13318349391,
			"0.007": 3.86058204403,
			"0.008": 2.37680726403,
			"0.009": 2.34814595414,
			"0.01": 2.91745128638,
			"0.011": 5.17414433101,
			"0.012": 1.40690517714,
			"0.013": 0.0,
			"0.014": 0.0,
			"0.015": 0.0,
			"0.016": 0.0,
			"0.017": 0.0,
			"0.018": 0.0,
			"0.019": 0.0,
			"0.02": 0.0,
			"0.021": 0.0,
			"0.022": 0.0,
			"0.023": 0.0,
			"0.024": 0.0,
			"0.025": 0.0
		}
	}
}
