{
	 "smiles": "CCC(O)C1=CC=C(C=C1)C1=CC=CC=C1F", 
	 "Tm": 328.65, 
	 "num_atms": 32, 
	 "gaussian": { 
		 "optdone": 1, 
		 "sigma_profile": "yes", 
		 "theory": "DFT", 
		 "functional": "B3LYP", 
		 "basiset": "6-31G**", 
		 "properties": { 
			 "R2extent": 5638.414, 
			 "electric_dipole_moment_norm": 1.77397040843, 
			 "electric_quadrupole_moment_norm": 9.0009279105, 
			 "total_energy": -755.705374316, 
			 "HOMO_LUMO_gap": 0.19033, 
			 "cosmo_polarized_energy": -8.8, 
			 "cosmo_cavitation_energy": 35.32, 
			 "cosmo_dispersion_energy": -25.06, 
			 "cosmo_repulsion_energy": 1.93, 
			 "cosmo_total_nonelectrostatic_energy": 12.19, 
			 "SMD_solvation_energy": 6.09 
		},
		"coords": [
			{
				"x": 1.4654836191,
				"y": -1.0305369822,
				"z": -4.4432959519,
				"element": "C" 
			},
			{
				"x": 2.3592715453,
				"y": 0.0698210399,
				"z": -3.867770615,
				"element": "C" 
			},
			{
				"x": 1.6010976931,
				"y": 1.1559457946,
				"z": -3.0882723946,
				"element": "C" 
			},
			{
				"x": 2.5664770298,
				"y": 2.1713453421,
				"z": -2.8082974021,
				"element": "O" 
			},
			{
				"x": 0.949747348,
				"y": 0.6381144491,
				"z": -1.8160487159,
				"element": "C" 
			},
			{
				"x": -0.4100697261,
				"y": 0.3090657445,
				"z": -1.7744884884,
				"element": "C" 
			},
			{
				"x": -0.9965086551,
				"y": -0.1905872591,
				"z": -0.6133386834,
				"element": "C" 
			},
			{
				"x": -0.2385890866,
				"y": -0.365513285,
				"z": 0.5567087249,
				"element": "C" 
			},
			{
				"x": 1.126182268,
				"y": -0.0296696135,
				"z": 0.5121605888,
				"element": "C" 
			},
			{
				"x": 1.7093178092,
				"y": 0.4639586567,
				"z": -0.6514050465,
				"element": "C" 
			},
			{
				"x": -0.8453984276,
				"y": -0.8549298121,
				"z": 1.8205952469,
				"element": "C" 
			},
			{
				"x": -0.463454977,
				"y": -0.3224702149,
				"z": 3.0656831032,
				"element": "C" 
			},
			{
				"x": -1.0094359345,
				"y": -0.7812653044,
				"z": 4.2630738123,
				"element": "C" 
			},
			{
				"x": -1.9662835104,
				"y": -1.7977265871,
				"z": 4.2494926936,
				"element": "C" 
			},
			{
				"x": -2.3709278936,
				"y": -2.3476763978,
				"z": 3.0335789607,
				"element": "C" 
			},
			{
				"x": -1.8109019473,
				"y": -1.8717591277,
				"z": 1.854954696,
				"element": "C" 
			},
			{
				"x": -2.2202835053,
				"y": -2.4390109175,
				"z": 0.6955155834,
				"element": "F" 
			},
			{
				"x": 2.0612948098,
				"y": -1.7574129145,
				"z": -5.0038043894,
				"element": "H" 
			},
			{
				"x": 0.9331578278,
				"y": -1.5720261059,
				"z": -3.6551940418,
				"element": "H" 
			},
			{
				"x": 0.716540839,
				"y": -0.6189149835,
				"z": -5.1299791637,
				"element": "H" 
			},
			{
				"x": 3.1164158995,
				"y": -0.3620656025,
				"z": -3.2024321858,
				"element": "H" 
			},
			{
				"x": 2.9011293758,
				"y": 0.5778102133,
				"z": -4.674070174,
				"element": "H" 
			},
			{
				"x": 0.8081091246,
				"y": 1.5568075192,
				"z": -3.743012269,
				"element": "H" 
			},
			{
				"x": 2.1385027727,
				"y": 2.8361074202,
				"z": -2.2524088789,
				"element": "H" 
			},
			{
				"x": -1.0233135558,
				"y": 0.4523738817,
				"z": -2.661100443,
				"element": "H" 
			},
			{
				"x": -2.0525998016,
				"y": -0.4337943277,
				"z": -0.6096606003,
				"element": "H" 
			},
			{
				"x": 1.7408047626,
				"y": -0.1767941878,
				"z": 1.3955405972,
				"element": "H" 
			},
			{
				"x": 2.7637704824,
				"y": 0.7231802859,
				"z": -0.6661989916,
				"element": "H" 
			},
			{
				"x": 0.2626013717,
				"y": 0.4844854949,
				"z": 3.0816420514,
				"element": "H" 
			},
			{
				"x": -0.6942622105,
				"y": -0.3394995399,
				"z": 5.2033372772,
				"element": "H" 
			},
			{
				"x": -2.3997067641,
				"y": -2.1601421581,
				"z": 5.1765934496,
				"element": "H" 
			},
			{
				"x": -3.1068685827,
				"y": -3.1427205211,
				"z": 2.9788016501,
				"element": "H" 
			}
		],
		 "valence_orbital": [ 
			{
				"type": "occ",
				"energy": -0.28122,
				"method": "rhf"
			},
			{
				"type": "occ",
				"energy": -0.26707,
				"method": "rhf"
			},
			{
				"type": "occ",
				"energy": -0.25142,
				"method": "rhf"
			},
			{
				"type": "occ",
				"energy": -0.24948,
				"method": "rhf"
			},
			{
				"type": "occ",
				"energy": -0.22373,
				"method": "rhf"
			},
			{
				"type": "unocc",
				"energy": -0.0334,
				"method": "rhf"
			},
			{
				"type": "unocc",
				"energy": -0.00481,
				"method": "rhf"
			},
			{
				"type": "unocc",
				"energy": -0.00155,
				"method": "rhf"
			},
			{
				"type": "unocc",
				"energy": 0.02169,
				"method": "rhf"
			},
			{
				"type": "unocc",
				"energy": 0.08573,
				"method": "rhf"
			}
		],
		"cosmo_sigma_profile": { 
			"-0.025": 0.0,
			"-0.024": 0.0,
			"-0.023": 0.0,
			"-0.022": 0.0,
			"-0.021": 0.0,
			"-0.02": 0.0,
			"-0.019": 0.0,
			"-0.018": 0.0,
			"-0.017": 0.0,
			"-0.016": 0.0,
			"-0.015": 0.891986570494,
			"-0.014": 0.590893390269,
			"-0.013": 1.01100207505,
			"-0.012": 1.13013589571,
			"-0.011": 0.330674086435,
			"-0.01": 0.400900834481,
			"-0.009": 0.56694997042,
			"-0.008": 0.798400865001,
			"-0.007": 3.829170805,
			"-0.006": 9.04556766689,
			"-0.005": 16.5573704553,
			"-0.004": 20.3393648737,
			"-0.003": 23.6686320976,
			"-0.002": 24.1262762763,
			"-0.001": 24.4824648877,
			"0.0": 25.1843066177,
			"0.001": 28.6463791904,
			"0.002": 21.6829424831,
			"0.003": 19.31228435,
			"0.004": 24.1984572847,
			"0.005": 19.6374975702,
			"0.006": 3.2093508095,
			"0.007": 0.923960883537,
			"0.008": 0.969233609787,
			"0.009": 1.56973437154,
			"0.01": 0.906424939398,
			"0.011": 1.08847760951,
			"0.012": 1.73374617491,
			"0.013": 1.34675144722,
			"0.014": 1.55530278948,
			"0.015": 0.0697641174793,
			"0.016": 0.0,
			"0.017": 0.0,
			"0.018": 0.0,
			"0.019": 0.0,
			"0.02": 0.0,
			"0.021": 0.0,
			"0.022": 0.0,
			"0.023": 0.0,
			"0.024": 0.0,
			"0.025": 0.0
		}
	}
}
