{
	 "smiles": "C1OC(=NC1C1=CC=CC=C1)C1=CC=CC(=N1)C1=NC(CO1)C1=CC=CC=C1", 
	 "Tm": 446.15, 
	 "num_atms": 47, 
	 "gaussian": { 
		 "optdone": 1, 
		 "sigma_profile": "yes", 
		 "theory": "DFT", 
		 "functional": "B3LYP", 
		 "basiset": "6-31G**", 
		 "properties": { 
			 "R2extent": 18291.3027, 
			 "electric_dipole_moment_norm": 1.46532244574, 
			 "electric_quadrupole_moment_norm": 18.6989844181, 
			 "total_energy": -1202.57493729, 
			 "HOMO_LUMO_gap": 0.1802, 
			 "cosmo_polarized_energy": -21.07, 
			 "cosmo_cavitation_energy": 52.08, 
			 "cosmo_dispersion_energy": -36.99, 
			 "cosmo_repulsion_energy": 2.79, 
			 "cosmo_total_nonelectrostatic_energy": 17.88, 
			 "SMD_solvation_energy": 3.16 
		},
		"coords": [
			{
				"x": 5.3801903212,
				"y": 0.8712486808,
				"z": -0.8352430974,
				"element": "C" 
			},
			{
				"x": 4.6520718213,
				"y": 0.219782169,
				"z": 0.2303274185,
				"element": "O" 
			},
			{
				"x": 3.3307289128,
				"y": 0.2901770225,
				"z": -0.1300269764,
				"element": "C" 
			},
			{
				"x": 3.0165866322,
				"y": 0.9599702933,
				"z": -1.1679334612,
				"element": "N" 
			},
			{
				"x": 4.2618572378,
				"y": 1.536090117,
				"z": -1.6974811872,
				"element": "C" 
			},
			{
				"x": 4.4457006591,
				"y": 1.3254857971,
				"z": -3.1893021602,
				"element": "C" 
			},
			{
				"x": 5.3701845522,
				"y": 2.1106300859,
				"z": -3.8909233262,
				"element": "C" 
			},
			{
				"x": 5.5936531338,
				"y": 1.9015153215,
				"z": -5.2519768303,
				"element": "C" 
			},
			{
				"x": 4.8863531896,
				"y": 0.9071748534,
				"z": -5.93117902,
				"element": "C" 
			},
			{
				"x": 3.9558652949,
				"y": 0.1287642675,
				"z": -5.2406721223,
				"element": "C" 
			},
			{
				"x": 3.7371165969,
				"y": 0.3346234722,
				"z": -3.8772547772,
				"element": "C" 
			},
			{
				"x": 2.4037290283,
				"y": -0.4388258579,
				"z": 0.7688891401,
				"element": "C" 
			},
			{
				"x": 2.9024565257,
				"y": -1.1229469899,
				"z": 1.8855454746,
				"element": "C" 
			},
			{
				"x": 1.9996794456,
				"y": -1.7943596304,
				"z": 2.7100122628,
				"element": "C" 
			},
			{
				"x": 0.6470721994,
				"y": -1.7623274383,
				"z": 2.3953490857,
				"element": "C" 
			},
			{
				"x": 0.250268608,
				"y": -1.051461873,
				"z": 1.2506030719,
				"element": "C" 
			},
			{
				"x": 1.1015137551,
				"y": -0.4019842435,
				"z": 0.4531160486,
				"element": "N" 
			},
			{
				"x": -1.1893801532,
				"y": -1.0111891799,
				"z": 0.8963127889,
				"element": "C" 
			},
			{
				"x": -2.1065200984,
				"y": -1.6034320701,
				"z": 1.5653953322,
				"element": "N" 
			},
			{
				"x": -3.3859626868,
				"y": -1.2683979692,
				"z": 0.918229319,
				"element": "C" 
			},
			{
				"x": -2.9515825908,
				"y": -0.5177527467,
				"z": -0.3798959051,
				"element": "C" 
			},
			{
				"x": -1.5343145518,
				"y": -0.2916981812,
				"z": -0.1989778325,
				"element": "O" 
			},
			{
				"x": -4.2721104444,
				"y": -2.4710355899,
				"z": 0.6535529487,
				"element": "C" 
			},
			{
				"x": -3.7239367021,
				"y": -3.7353212304,
				"z": 0.4070399909,
				"element": "C" 
			},
			{
				"x": -4.5509831452,
				"y": -4.8202875045,
				"z": 0.1141410383,
				"element": "C" 
			},
			{
				"x": -5.9366239365,
				"y": -4.6551128888,
				"z": 0.0603697746,
				"element": "C" 
			},
			{
				"x": -6.4916299537,
				"y": -3.3985462872,
				"z": 0.3086743425,
				"element": "C" 
			},
			{
				"x": -5.6630302894,
				"y": -2.3159123303,
				"z": 0.6071030414,
				"element": "C" 
			},
			{
				"x": 6.0807599586,
				"y": 1.5814734874,
				"z": -0.390331306,
				"element": "H" 
			},
			{
				"x": 5.9364968782,
				"y": 0.1096528087,
				"z": -1.391699766,
				"element": "H" 
			},
			{
				"x": 4.23389078,
				"y": 2.6182350555,
				"z": -1.5067745647,
				"element": "H" 
			},
			{
				"x": 5.9147188864,
				"y": 2.8960357809,
				"z": -3.3706072991,
				"element": "H" 
			},
			{
				"x": 6.3129069001,
				"y": 2.5190980667,
				"z": -5.7827491936,
				"element": "H" 
			},
			{
				"x": 5.054360313,
				"y": 0.7461166853,
				"z": -6.9922672516,
				"element": "H" 
			},
			{
				"x": 3.3940588583,
				"y": -0.6393786399,
				"z": -5.7650015861,
				"element": "H" 
			},
			{
				"x": 3.0017042931,
				"y": -0.2545550505,
				"z": -3.3393193828,
				"element": "H" 
			},
			{
				"x": 3.9659362546,
				"y": -1.1205231178,
				"z": 2.090419283,
				"element": "H" 
			},
			{
				"x": 2.350295229,
				"y": -2.3332442804,
				"z": 3.5850562984,
				"element": "H" 
			},
			{
				"x": -0.1037006655,
				"y": -2.2614515534,
				"z": 2.9965215121,
				"element": "H" 
			},
			{
				"x": -3.9304479717,
				"y": -0.5856494939,
				"z": 1.5851519451,
				"element": "H" 
			},
			{
				"x": -3.0903785049,
				"y": -1.1266428325,
				"z": -1.2791935398,
				"element": "H" 
			},
			{
				"x": -3.4389100989,
				"y": 0.4498516969,
				"z": -0.5174476919,
				"element": "H" 
			},
			{
				"x": -2.6478060862,
				"y": -3.864877797,
				"z": 0.4650872186,
				"element": "H" 
			},
			{
				"x": -4.1126426628,
				"y": -5.797516348,
				"z": -0.0687788664,
				"element": "H" 
			},
			{
				"x": -6.5794768225,
				"y": -5.50075775,
				"z": -0.1667851039,
				"element": "H" 
			},
			{
				"x": -7.5689856143,
				"y": -3.2619116764,
				"z": 0.2775579253,
				"element": "H" 
			},
			{
				"x": -6.1016332862,
				"y": -1.3414251106,
				"z": 0.8109669869,
				"element": "H" 
			}
		],
		 "valence_orbital": [ 
			{
				"type": "occ",
				"energy": -0.24803,
				"method": "rhf"
			},
			{
				"type": "occ",
				"energy": -0.24612,
				"method": "rhf"
			},
			{
				"type": "occ",
				"energy": -0.24485,
				"method": "rhf"
			},
			{
				"type": "occ",
				"energy": -0.23832,
				"method": "rhf"
			},
			{
				"type": "occ",
				"energy": -0.23439,
				"method": "rhf"
			},
			{
				"type": "unocc",
				"energy": -0.05419,
				"method": "rhf"
			},
			{
				"type": "unocc",
				"energy": -0.05032,
				"method": "rhf"
			},
			{
				"type": "unocc",
				"energy": -0.00102,
				"method": "rhf"
			},
			{
				"type": "unocc",
				"energy": -0.00061,
				"method": "rhf"
			},
			{
				"type": "unocc",
				"energy": 0.00038,
				"method": "rhf"
			}
		],
		"cosmo_sigma_profile": { 
			"-0.025": 0.0,
			"-0.024": 0.0,
			"-0.023": 0.0,
			"-0.022": 0.0,
			"-0.021": 0.0,
			"-0.02": 0.0,
			"-0.019": 0.0,
			"-0.018": 0.0,
			"-0.017": 0.0,
			"-0.016": 0.0,
			"-0.015": 0.0,
			"-0.014": 0.0,
			"-0.013": 0.0,
			"-0.012": 0.0,
			"-0.011": 0.0,
			"-0.01": 0.0,
			"-0.009": 0.0157818368288,
			"-0.008": 2.16214443719,
			"-0.007": 9.34123198434,
			"-0.006": 30.6710850541,
			"-0.005": 37.6505098271,
			"-0.004": 36.7964476097,
			"-0.003": 37.8188926184,
			"-0.002": 32.686051562,
			"-0.001": 33.1502049219,
			"0.0": 32.9422333014,
			"0.001": 26.5650860342,
			"0.002": 19.4504554045,
			"0.003": 20.4592465705,
			"0.004": 21.4384262554,
			"0.005": 21.9660255537,
			"0.006": 21.4858299098,
			"0.007": 5.85387850994,
			"0.008": 3.48845156754,
			"0.009": 3.70614987555,
			"0.01": 3.02055789684,
			"0.011": 3.31378840256,
			"0.012": 2.494481232,
			"0.013": 2.54266990921,
			"0.014": 1.85492457716,
			"0.015": 1.64909912815,
			"0.016": 1.70712968034,
			"0.017": 1.28466787842,
			"0.018": 1.33153960872,
			"0.019": 0.581578784567,
			"0.02": 0.0,
			"0.021": 0.0,
			"0.022": 0.0,
			"0.023": 0.0,
			"0.024": 0.0,
			"0.025": 0.0
		}
	}
}
