{
	 "smiles": "CC1=CC=C(O1)C1=NC(=CS1)C(O)=O", 
	 "Tm": 468.15, 
	 "num_atms": 21, 
	 "gaussian": { 
		 "optdone": 1, 
		 "sigma_profile": "yes", 
		 "theory": "DFT", 
		 "functional": "B3LYP", 
		 "basiset": "6-31G**", 
		 "properties": { 
			 "R2extent": 4639.4955, 
			 "electric_dipole_moment_norm": 7.095072951, 
			 "electric_quadrupole_moment_norm": 13.4049680112, 
			 "total_energy": -1025.7820412, 
			 "HOMO_LUMO_gap": 0.1534, 
			 "cosmo_polarized_energy": -12.21, 
			 "cosmo_cavitation_energy": 28.48, 
			 "cosmo_dispersion_energy": -21.38, 
			 "cosmo_repulsion_energy": 1.65, 
			 "cosmo_total_nonelectrostatic_energy": 8.75, 
			 "SMD_solvation_energy": 5.68 
		},
		"coords": [
			{
				"x": 1.1855351291,
				"y": -1.5428548906,
				"z": 4.9741196738,
				"element": "C" 
			},
			{
				"x": 0.2657903457,
				"y": -1.3439106836,
				"z": 3.8231348469,
				"element": "C" 
			},
			{
				"x": -1.0600657607,
				"y": -1.0200115118,
				"z": 3.7167309268,
				"element": "C" 
			},
			{
				"x": -1.368157864,
				"y": -0.977440289,
				"z": 2.3255921566,
				"element": "C" 
			},
			{
				"x": -0.2043273013,
				"y": -1.2797396091,
				"z": 1.6668845863,
				"element": "C" 
			},
			{
				"x": 0.798495608,
				"y": -1.504936208,
				"z": 2.5748049124,
				"element": "O" 
			},
			{
				"x": 0.1308141439,
				"y": -1.3956166428,
				"z": 0.2723416324,
				"element": "C" 
			},
			{
				"x": -0.7123018992,
				"y": -1.2114716113,
				"z": -0.7141055327,
				"element": "N" 
			},
			{
				"x": -0.0992657117,
				"y": -1.3916196679,
				"z": -1.9319665548,
				"element": "C" 
			},
			{
				"x": 1.2284507828,
				"y": -1.7176180748,
				"z": -1.8952308495,
				"element": "C" 
			},
			{
				"x": 1.7654964249,
				"y": -1.811421214,
				"z": -0.2565258402,
				"element": "S" 
			},
			{
				"x": -0.9023291477,
				"y": -1.223617512,
				"z": -3.179060853,
				"element": "C" 
			},
			{
				"x": -2.1913010637,
				"y": -0.8990534832,
				"z": -2.9511355667,
				"element": "O" 
			},
			{
				"x": -0.4489654417,
				"y": -1.3604829301,
				"z": -4.2917978419,
				"element": "O" 
			},
			{
				"x": 0.6462312191,
				"y": -1.3875466529,
				"z": 5.9108346148,
				"element": "H" 
			},
			{
				"x": 1.6032621781,
				"y": -2.5559532962,
				"z": 4.9798424859,
				"element": "H" 
			},
			{
				"x": 2.0258466391,
				"y": -0.8403484409,
				"z": 4.9386893916,
				"element": "H" 
			},
			{
				"x": -1.7350078954,
				"y": -0.83414204,
				"z": 4.5397709041,
				"element": "H" 
			},
			{
				"x": -2.3168775699,
				"y": -0.7549637856,
				"z": 1.8607614727,
				"element": "H" 
			},
			{
				"x": 1.8831250254,
				"y": -1.8988315491,
				"z": -2.7347113599,
				"element": "H" 
			},
			{
				"x": -2.3121478408,
				"y": -0.846519907,
				"z": -1.9841732058,
				"element": "H" 
			}
		],
		 "valence_orbital": [ 
			{
				"type": "occ",
				"energy": -0.30613,
				"method": "rhf"
			},
			{
				"type": "occ",
				"energy": -0.29792,
				"method": "rhf"
			},
			{
				"type": "occ",
				"energy": -0.28555,
				"method": "rhf"
			},
			{
				"type": "occ",
				"energy": -0.26808,
				"method": "rhf"
			},
			{
				"type": "occ",
				"energy": -0.22264,
				"method": "rhf"
			},
			{
				"type": "unocc",
				"energy": -0.06924,
				"method": "rhf"
			},
			{
				"type": "unocc",
				"energy": -0.03327,
				"method": "rhf"
			},
			{
				"type": "unocc",
				"energy": 0.00358,
				"method": "rhf"
			},
			{
				"type": "unocc",
				"energy": 0.02611,
				"method": "rhf"
			},
			{
				"type": "unocc",
				"energy": 0.06805,
				"method": "rhf"
			}
		],
		"cosmo_sigma_profile": { 
			"-0.025": 0.0,
			"-0.024": 0.0,
			"-0.023": 0.0,
			"-0.022": 0.0,
			"-0.021": 0.0,
			"-0.02": 0.0,
			"-0.019": 0.0,
			"-0.018": 0.0,
			"-0.017": 0.0,
			"-0.016": 0.0,
			"-0.015": 0.0,
			"-0.014": 0.175306967799,
			"-0.013": 0.627746325714,
			"-0.012": 0.557091919872,
			"-0.011": 0.759522656341,
			"-0.01": 2.96158418944,
			"-0.009": 2.11309371371,
			"-0.008": 3.59440697114,
			"-0.007": 5.66342435983,
			"-0.006": 9.4404167053,
			"-0.005": 12.7642670855,
			"-0.004": 15.15064599,
			"-0.003": 13.5711670069,
			"-0.002": 22.0964616523,
			"-0.001": 22.0741248738,
			"0.0": 25.9736451345,
			"0.001": 22.0528621377,
			"0.002": 15.5951925371,
			"0.003": 13.251584436,
			"0.004": 9.44787911521,
			"0.005": 5.66734054428,
			"0.006": 2.66010383565,
			"0.007": 2.38959402943,
			"0.008": 3.00599446014,
			"0.009": 3.87635213444,
			"0.01": 4.52341174268,
			"0.011": 5.16071186019,
			"0.012": 4.65230486459,
			"0.013": 1.62366270506,
			"0.014": 0.052964661396,
			"0.015": 0.0,
			"0.016": 0.0,
			"0.017": 0.0,
			"0.018": 0.0,
			"0.019": 0.0,
			"0.02": 0.0,
			"0.021": 0.0,
			"0.022": 0.0,
			"0.023": 0.0,
			"0.024": 0.0,
			"0.025": 0.0
		}
	}
}
