{
	 "smiles": "CCCCCCCCCCCCCCCCCCCCBr", 
	 "Tm": 310.65, 
	 "num_atms": 62, 
	 "gaussian": { 
		 "optdone": 1, 
		 "sigma_profile": "yes", 
		 "theory": "DFT", 
		 "functional": "B3LYP", 
		 "basiset": "6-31G**", 
		 "properties": { 
			 "R2extent": 14191.4698, 
			 "electric_dipole_moment_norm": 2.47953767666, 
			 "electric_quadrupole_moment_norm": 6.74551611369, 
			 "total_energy": -3358.30654264, 
			 "HOMO_LUMO_gap": 0.27012, 
			 "cosmo_polarized_energy": -4.51, 
			 "cosmo_cavitation_energy": 61.27, 
			 "cosmo_dispersion_energy": -38.56, 
			 "cosmo_repulsion_energy": 3.07, 
			 "cosmo_total_nonelectrostatic_energy": 25.78, 
			 "SMD_solvation_energy": 6.55 
		},
		"coords": [
			{
				"x": 7.6988702505,
				"y": -0.0835062061,
				"z": 0.7469123857,
				"element": "C" 
			},
			{
				"x": 6.7763468776,
				"y": -1.2871452066,
				"z": 0.965067339,
				"element": "C" 
			},
			{
				"x": 5.3843339367,
				"y": -1.1052643191,
				"z": 0.3458666932,
				"element": "C" 
			},
			{
				"x": 4.4602260348,
				"y": -2.311468221,
				"z": 0.5655819626,
				"element": "C" 
			},
			{
				"x": 3.0304632188,
				"y": -2.1365592129,
				"z": 0.0264354342,
				"element": "C" 
			},
			{
				"x": 2.9347353599,
				"y": -2.0435215585,
				"z": -1.5046437256,
				"element": "C" 
			},
			{
				"x": 1.4970491491,
				"y": -2.0029731084,
				"z": -2.0505743066,
				"element": "C" 
			},
			{
				"x": 0.7206591892,
				"y": -0.7251947018,
				"z": -1.6945207041,
				"element": "C" 
			},
			{
				"x": -0.660513138,
				"y": -0.6095133694,
				"z": -2.3622703976,
				"element": "C" 
			},
			{
				"x": -1.6814981527,
				"y": -1.6629018306,
				"z": -1.8991517718,
				"element": "C" 
			},
			{
				"x": -3.1037805673,
				"y": -1.489966669,
				"z": -2.4809643543,
				"element": "C" 
			},
			{
				"x": -4.0931107947,
				"y": -0.6907430069,
				"z": -1.6130304784,
				"element": "C" 
			},
			{
				"x": -3.7508634018,
				"y": 0.7881034561,
				"z": -1.3842623392,
				"element": "C" 
			},
			{
				"x": -4.823176553,
				"y": 1.5275114308,
				"z": -0.5707592084,
				"element": "C" 
			},
			{
				"x": -4.5722539992,
				"y": 3.0367236905,
				"z": -0.3906751275,
				"element": "C" 
			},
			{
				"x": -3.3113887169,
				"y": 3.4815822865,
				"z": 0.3805891318,
				"element": "C" 
			},
			{
				"x": -3.3656866677,
				"y": 3.3926741054,
				"z": 1.920137589,
				"element": "C" 
			},
			{
				"x": -3.2037934935,
				"y": 2.0065128706,
				"z": 2.5733772556,
				"element": "C" 
			},
			{
				"x": -1.8357368415,
				"y": 1.3514689255,
				"z": 2.3147200844,
				"element": "C" 
			},
			{
				"x": -1.715993702,
				"y": 0.0190833871,
				"z": 3.0380315879,
				"element": "C" 
			},
			{
				"x": 0.022760067,
				"y": -0.8677608782,
				"z": 2.6711741625,
				"element": "Br" 
			},
			{
				"x": 7.2735581834,
				"y": 0.8262165694,
				"z": 1.1862558462,
				"element": "H" 
			},
			{
				"x": 7.8538270517,
				"y": 0.1087533561,
				"z": -0.3210775238,
				"element": "H" 
			},
			{
				"x": 8.6823281504,
				"y": -0.2432275523,
				"z": 1.2014663027,
				"element": "H" 
			},
			{
				"x": 7.2442316257,
				"y": -2.187711801,
				"z": 0.5440763185,
				"element": "H" 
			},
			{
				"x": 6.6706948845,
				"y": -1.4771827587,
				"z": 2.0420003017,
				"element": "H" 
			},
			{
				"x": 5.4960646767,
				"y": -0.9079005371,
				"z": -0.7286397674,
				"element": "H" 
			},
			{
				"x": 4.9132326319,
				"y": -0.2073825031,
				"z": 0.7719844084,
				"element": "H" 
			},
			{
				"x": 4.9138589077,
				"y": -3.2029263518,
				"z": 0.1081437357,
				"element": "H" 
			},
			{
				"x": 4.4065893192,
				"y": -2.5196470444,
				"z": 1.6429967666,
				"element": "H" 
			},
			{
				"x": 2.4216535534,
				"y": -2.9876970705,
				"z": 0.3617179946,
				"element": "H" 
			},
			{
				"x": 2.5817711958,
				"y": -1.2461490636,
				"z": 0.486132369,
				"element": "H" 
			},
			{
				"x": 3.4530635977,
				"y": -2.9098710606,
				"z": -1.939360973,
				"element": "H" 
			},
			{
				"x": 3.4753245601,
				"y": -1.156513448,
				"z": -1.8615058147,
				"element": "H" 
			},
			{
				"x": 0.954521721,
				"y": -2.8858567267,
				"z": -1.6870250823,
				"element": "H" 
			},
			{
				"x": 1.5329180353,
				"y": -2.0971965884,
				"z": -3.1452156909,
				"element": "H" 
			},
			{
				"x": 0.5957786049,
				"y": -0.653381235,
				"z": -0.6063738244,
				"element": "H" 
			},
			{
				"x": 1.3266456919,
				"y": 0.1427830299,
				"z": -1.990738806,
				"element": "H" 
			},
			{
				"x": -0.5454988992,
				"y": -0.6835201331,
				"z": -3.453671185,
				"element": "H" 
			},
			{
				"x": -1.0568364109,
				"y": 0.395094546,
				"z": -2.1721210281,
				"element": "H" 
			},
			{
				"x": -1.3070483337,
				"y": -2.6552449384,
				"z": -2.1766312571,
				"element": "H" 
			},
			{
				"x": -1.7311494173,
				"y": -1.6629415735,
				"z": -0.800509069,
				"element": "H" 
			},
			{
				"x": -3.0375768422,
				"y": -1.0297379088,
				"z": -3.4771404037,
				"element": "H" 
			},
			{
				"x": -3.5430755345,
				"y": -2.4822644928,
				"z": -2.6427047039,
				"element": "H" 
			},
			{
				"x": -4.1886138447,
				"y": -1.1901041281,
				"z": -0.6376107742,
				"element": "H" 
			},
			{
				"x": -5.0875560948,
				"y": -0.7505930756,
				"z": -2.077265939,
				"element": "H" 
			},
			{
				"x": -2.7830242916,
				"y": 0.8646923645,
				"z": -0.8753024622,
				"element": "H" 
			},
			{
				"x": -3.6246221669,
				"y": 1.2883220198,
				"z": -2.3555322293,
				"element": "H" 
			},
			{
				"x": -4.9424899356,
				"y": 1.0365692964,
				"z": 0.4032024896,
				"element": "H" 
			},
			{
				"x": -5.789990178,
				"y": 1.4071559878,
				"z": -1.0790546713,
				"element": "H" 
			},
			{
				"x": -4.5257033861,
				"y": 3.485019979,
				"z": -1.3927813662,
				"element": "H" 
			},
			{
				"x": -5.450608589,
				"y": 3.485561467,
				"z": 0.0937475564,
				"element": "H" 
			},
			{
				"x": -3.1431935101,
				"y": 4.5375612159,
				"z": 0.1334564484,
				"element": "H" 
			},
			{
				"x": -2.4274574741,
				"y": 2.9560061997,
				"z": -0.0008939101,
				"element": "H" 
			},
			{
				"x": -4.3155343158,
				"y": 3.8270737307,
				"z": 2.2603422151,
				"element": "H" 
			},
			{
				"x": -2.5787643427,
				"y": 4.0436101649,
				"z": 2.3252587055,
				"element": "H" 
			},
			{
				"x": -4.00132748,
				"y": 1.3309364319,
				"z": 2.2429875712,
				"element": "H" 
			},
			{
				"x": -3.3397985599,
				"y": 2.1250349974,
				"z": 3.6571046205,
				"element": "H" 
			},
			{
				"x": -1.6853967813,
				"y": 1.1883580038,
				"z": 1.2430420644,
				"element": "H" 
			},
			{
				"x": -1.0330497089,
				"y": 2.0203535158,
				"z": 2.6471742948,
				"element": "H" 
			},
			{
				"x": -2.4715097986,
				"y": -0.6982416393,
				"z": 2.7161334879,
				"element": "H" 
			},
			{
				"x": -1.7577845508,
				"y": 0.1254468908,
				"z": 4.1224917724,
				"element": "H" 
			}
		],
		 "valence_orbital": [ 
			{
				"type": "occ",
				"energy": -0.29682,
				"method": "rhf"
			},
			{
				"type": "occ",
				"energy": -0.29203,
				"method": "rhf"
			},
			{
				"type": "occ",
				"energy": -0.28945,
				"method": "rhf"
			},
			{
				"type": "occ",
				"energy": -0.26965,
				"method": "rhf"
			},
			{
				"type": "occ",
				"energy": -0.26913,
				"method": "rhf"
			},
			{
				"type": "unocc",
				"energy": 0.00099,
				"method": "rhf"
			},
			{
				"type": "unocc",
				"energy": 0.05832,
				"method": "rhf"
			},
			{
				"type": "unocc",
				"energy": 0.08403,
				"method": "rhf"
			},
			{
				"type": "unocc",
				"energy": 0.08994,
				"method": "rhf"
			},
			{
				"type": "unocc",
				"energy": 0.09799,
				"method": "rhf"
			}
		],
		"cosmo_sigma_profile": { 
			"-0.025": 0.0,
			"-0.024": 0.0,
			"-0.023": 0.0,
			"-0.022": 0.0,
			"-0.021": 0.0,
			"-0.02": 0.0,
			"-0.019": 0.0,
			"-0.018": 0.0,
			"-0.017": 0.0,
			"-0.016": 0.0,
			"-0.015": 0.0,
			"-0.014": 0.0,
			"-0.013": 0.0,
			"-0.012": 0.0,
			"-0.011": 0.0,
			"-0.01": 0.0,
			"-0.009": 0.0,
			"-0.008": 0.0,
			"-0.007": 0.725170909735,
			"-0.006": 3.98688682298,
			"-0.005": 4.87784656516,
			"-0.004": 8.4157785716,
			"-0.003": 16.990695629,
			"-0.002": 51.0116598009,
			"-0.001": 99.1561588716,
			"0.0": 113.918109066,
			"0.001": 96.5655184658,
			"0.002": 44.3038023525,
			"0.003": 8.77813137543,
			"0.004": 5.58332831443,
			"0.005": 5.42707027561,
			"0.006": 7.76812652904,
			"0.007": 4.54558350775,
			"0.008": 0.0,
			"0.009": 0.0,
			"0.01": 0.0,
			"0.011": 0.0,
			"0.012": 0.0,
			"0.013": 0.0,
			"0.014": 0.0,
			"0.015": 0.0,
			"0.016": 0.0,
			"0.017": 0.0,
			"0.018": 0.0,
			"0.019": 0.0,
			"0.02": 0.0,
			"0.021": 0.0,
			"0.022": 0.0,
			"0.023": 0.0,
			"0.024": 0.0,
			"0.025": 0.0
		}
	}
}
