{
	 "smiles": "CCC(=O)N1CCC(C1)C(O)=O", 
	 "Tm": 392.15, 
	 "num_atms": 25, 
	 "gaussian": { 
		 "optdone": 1, 
		 "sigma_profile": "yes", 
		 "theory": "DFT", 
		 "functional": "B3LYP", 
		 "basiset": "6-31G**", 
		 "properties": { 
			 "R2extent": 2273.2911, 
			 "electric_dipole_moment_norm": 3.84236023689, 
			 "electric_quadrupole_moment_norm": 22.283224851, 
			 "total_energy": -593.134630644, 
			 "HOMO_LUMO_gap": 0.25594, 
			 "cosmo_polarized_energy": -18.42, 
			 "cosmo_cavitation_energy": 27.15, 
			 "cosmo_dispersion_energy": -19.2, 
			 "cosmo_repulsion_energy": 1.53, 
			 "cosmo_total_nonelectrostatic_energy": 9.49, 
			 "SMD_solvation_energy": 6.12 
		},
		"coords": [
			{
				"x": -0.5724361495,
				"y": 2.7267986594,
				"z": -1.9059341391,
				"element": "C" 
			},
			{
				"x": -0.0553151328,
				"y": 1.3864091401,
				"z": -2.461381832,
				"element": "C" 
			},
			{
				"x": -0.8288826603,
				"y": 0.2033856301,
				"z": -1.8924449019,
				"element": "C" 
			},
			{
				"x": -1.7671583439,
				"y": -0.3098172485,
				"z": -2.486530075,
				"element": "O" 
			},
			{
				"x": -0.4861385659,
				"y": -0.2279856845,
				"z": -0.618901778,
				"element": "N" 
			},
			{
				"x": -1.1415135996,
				"y": -1.4423115234,
				"z": -0.0791009267,
				"element": "C" 
			},
			{
				"x": -0.3121688433,
				"y": -1.7940207072,
				"z": 1.1735358854,
				"element": "C" 
			},
			{
				"x": 0.528754343,
				"y": -0.523380858,
				"z": 1.4772287527,
				"element": "C" 
			},
			{
				"x": 0.7950719673,
				"y": 0.0231768487,
				"z": 0.0648133273,
				"element": "C" 
			},
			{
				"x": -0.2294687437,
				"y": 0.4650836814,
				"z": 2.3697070197,
				"element": "C" 
			},
			{
				"x": -1.2105580097,
				"y": 1.1844631682,
				"z": 1.7698526618,
				"element": "O" 
			},
			{
				"x": 0.0035033289,
				"y": 0.5970803856,
				"z": 3.5459463499,
				"element": "O" 
			},
			{
				"x": -0.4363756998,
				"y": 2.8045145451,
				"z": -0.8218567628,
				"element": "H" 
			},
			{
				"x": -0.0425719607,
				"y": 3.5641818068,
				"z": -2.3688285586,
				"element": "H" 
			},
			{
				"x": -1.6392247941,
				"y": 2.8412311667,
				"z": -2.1191147126,
				"element": "H" 
			},
			{
				"x": -0.2073098815,
				"y": 1.3505479672,
				"z": -3.5424932676,
				"element": "H" 
			},
			{
				"x": 1.0194014995,
				"y": 1.2870024144,
				"z": -2.2733013119,
				"element": "H" 
			},
			{
				"x": -2.1879995102,
				"y": -1.2215654504,
				"z": 0.1507018493,
				"element": "H" 
			},
			{
				"x": -1.1406592863,
				"y": -2.2399955918,
				"z": -0.8278154879,
				"element": "H" 
			},
			{
				"x": -0.9338484876,
				"y": -2.096927497,
				"z": 2.0192846273,
				"element": "H" 
			},
			{
				"x": 0.3709222919,
				"y": -2.620900174,
				"z": 0.9569354544,
				"element": "H" 
			},
			{
				"x": 1.4498644664,
				"y": -0.7663749664,
				"z": 2.0087705607,
				"element": "H" 
			},
			{
				"x": 1.0466373471,
				"y": 1.0863078874,
				"z": 0.0580360084,
				"element": "H" 
			},
			{
				"x": 1.6222117817,
				"y": -0.5275118966,
				"z": -0.4053012299,
				"element": "H" 
			},
			{
				"x": -1.2667373567,
				"y": 0.9417082969,
				"z": 0.8252924873,
				"element": "H" 
			}
		],
		 "valence_orbital": [ 
			{
				"type": "occ",
				"energy": -0.35457,
				"method": "rhf"
			},
			{
				"type": "occ",
				"energy": -0.31276,
				"method": "rhf"
			},
			{
				"type": "occ",
				"energy": -0.26931,
				"method": "rhf"
			},
			{
				"type": "occ",
				"energy": -0.26722,
				"method": "rhf"
			},
			{
				"type": "occ",
				"energy": -0.25737,
				"method": "rhf"
			},
			{
				"type": "unocc",
				"energy": -0.00143,
				"method": "rhf"
			},
			{
				"type": "unocc",
				"energy": 0.00801,
				"method": "rhf"
			},
			{
				"type": "unocc",
				"energy": 0.04861,
				"method": "rhf"
			},
			{
				"type": "unocc",
				"energy": 0.08526,
				"method": "rhf"
			},
			{
				"type": "unocc",
				"energy": 0.09593,
				"method": "rhf"
			}
		],
		"cosmo_sigma_profile": { 
			"-0.025": 0.0,
			"-0.024": 0.0,
			"-0.023": 0.0,
			"-0.022": 0.0,
			"-0.021": 0.0,
			"-0.02": 0.0,
			"-0.019": 0.0,
			"-0.018": 0.0,
			"-0.017": 0.0,
			"-0.016": 0.0,
			"-0.015": 0.0,
			"-0.014": 0.0,
			"-0.013": 0.0,
			"-0.012": 0.0,
			"-0.011": 0.26045495191,
			"-0.01": 1.51360343077,
			"-0.009": 1.90144849767,
			"-0.008": 2.06497987475,
			"-0.007": 6.18012094837,
			"-0.006": 21.5671317187,
			"-0.005": 25.4992215357,
			"-0.004": 21.3093570218,
			"-0.003": 20.4758349715,
			"-0.002": 21.626443837,
			"-0.001": 13.6468668641,
			"0.0": 10.1962767155,
			"0.001": 5.47885305248,
			"0.002": 2.95247957668,
			"0.003": 4.01633208185,
			"0.004": 2.72928235726,
			"0.005": 3.11748310367,
			"0.006": 2.94300315799,
			"0.007": 3.6030520329,
			"0.008": 3.88236585859,
			"0.009": 4.87852657906,
			"0.01": 5.34265417492,
			"0.011": 7.3043552474,
			"0.012": 8.20874229192,
			"0.013": 7.6539693818,
			"0.014": 3.17285247712,
			"0.015": 0.534492974637,
			"0.016": 0.0,
			"0.017": 0.0,
			"0.018": 0.0,
			"0.019": 0.0,
			"0.02": 0.0,
			"0.021": 0.0,
			"0.022": 0.0,
			"0.023": 0.0,
			"0.024": 0.0,
			"0.025": 0.0
		}
	}
}
