{
	 "smiles": "OC1CCNC1C(O)=O", 
	 "Tm": 508.15, 
	 "num_atms": 18, 
	 "gaussian": { 
		 "optdone": 1, 
		 "sigma_profile": "yes", 
		 "theory": "DFT", 
		 "functional": "B3LYP", 
		 "basiset": "6-31G**", 
		 "properties": { 
			 "R2extent": 1308.3298, 
			 "electric_dipole_moment_norm": 3.57027872021, 
			 "electric_quadrupole_moment_norm": 11.4598897691, 
			 "total_energy": -476.366477859, 
			 "HOMO_LUMO_gap": 0.23479, 
			 "cosmo_polarized_energy": -16.45, 
			 "cosmo_cavitation_energy": 20.75, 
			 "cosmo_dispersion_energy": -15.63, 
			 "cosmo_repulsion_energy": 1.33, 
			 "cosmo_total_nonelectrostatic_energy": 6.44, 
			 "SMD_solvation_energy": 2.84 
		},
		"coords": [
			{
				"x": -1.3431147746,
				"y": 0.6311581601,
				"z": -2.0166864029,
				"element": "O" 
			},
			{
				"x": -0.5066804504,
				"y": -0.1167674197,
				"z": -1.1549235382,
				"element": "C" 
			},
			{
				"x": -1.1942008572,
				"y": -1.2170225796,
				"z": -0.3330465734,
				"element": "C" 
			},
			{
				"x": -0.2060835157,
				"y": -1.4212675239,
				"z": 0.818292211,
				"element": "C" 
			},
			{
				"x": 0.2633291184,
				"y": -0.0559268393,
				"z": 1.1104044559,
				"element": "N" 
			},
			{
				"x": 0.1016434971,
				"y": 0.8066906534,
				"z": -0.0657418529,
				"element": "C" 
			},
			{
				"x": -0.7960421933,
				"y": 2.0134266973,
				"z": 0.227070622,
				"element": "C" 
			},
			{
				"x": -1.9647917849,
				"y": 1.6743399393,
				"z": 0.8154547648,
				"element": "O" 
			},
			{
				"x": -0.4972081015,
				"y": 3.1603327336,
				"z": -0.0224295624,
				"element": "O" 
			},
			{
				"x": -1.7235761328,
				"y": 0.0286848158,
				"z": -2.6676481693,
				"element": "H" 
			},
			{
				"x": 0.3304889888,
				"y": -0.5601055645,
				"z": -1.7185028922,
				"element": "H" 
			},
			{
				"x": -2.1486014844,
				"y": -0.8337742776,
				"z": 0.0388396922,
				"element": "H" 
			},
			{
				"x": -1.3737841818,
				"y": -2.1325369008,
				"z": -0.9057523883,
				"element": "H" 
			},
			{
				"x": 0.6086729331,
				"y": -2.0949027128,
				"z": 0.5037905848,
				"element": "H" 
			},
			{
				"x": -0.6778799286,
				"y": -1.8685796511,
				"z": 1.7005205399,
				"element": "H" 
			},
			{
				"x": 1.2017457559,
				"y": -0.0269846416,
				"z": 1.4872798683,
				"element": "H" 
			},
			{
				"x": 1.0460369605,
				"y": 1.2414225713,
				"z": -0.4081417391,
				"element": "H" 
			},
			{
				"x": -2.4506538487,
				"y": 2.50761254,
				"z": 0.9327203798,
				"element": "H" 
			}
		],
		 "valence_orbital": [ 
			{
				"type": "occ",
				"energy": -0.32731,
				"method": "rhf"
			},
			{
				"type": "occ",
				"energy": -0.3026,
				"method": "rhf"
			},
			{
				"type": "occ",
				"energy": -0.27318,
				"method": "rhf"
			},
			{
				"type": "occ",
				"energy": -0.26757,
				"method": "rhf"
			},
			{
				"type": "occ",
				"energy": -0.2185,
				"method": "rhf"
			},
			{
				"type": "unocc",
				"energy": 0.01629,
				"method": "rhf"
			},
			{
				"type": "unocc",
				"energy": 0.06556,
				"method": "rhf"
			},
			{
				"type": "unocc",
				"energy": 0.07809,
				"method": "rhf"
			},
			{
				"type": "unocc",
				"energy": 0.09431,
				"method": "rhf"
			},
			{
				"type": "unocc",
				"energy": 0.11998,
				"method": "rhf"
			}
		],
		"cosmo_sigma_profile": { 
			"-0.025": 0.0,
			"-0.024": 0.0,
			"-0.023": 0.0,
			"-0.022": 0.0,
			"-0.021": 0.0,
			"-0.02": 0.0,
			"-0.019": 0.0,
			"-0.018": 0.194428499649,
			"-0.017": 1.24292962886,
			"-0.016": 1.56949800577,
			"-0.015": 1.97671170592,
			"-0.014": 1.22322634299,
			"-0.013": 2.00613218824,
			"-0.012": 2.07358834117,
			"-0.011": 1.80206203342,
			"-0.01": 3.41979394844,
			"-0.009": 2.84992287895,
			"-0.008": 2.8571569305,
			"-0.007": 3.11900501787,
			"-0.006": 4.69700238137,
			"-0.005": 8.69036620769,
			"-0.004": 13.9028912436,
			"-0.003": 14.6040642206,
			"-0.002": 11.7628299795,
			"-0.001": 12.8842370948,
			"0.0": 8.8877707852,
			"0.001": 4.27229111854,
			"0.002": 3.65073381829,
			"0.003": 2.65212497158,
			"0.004": 3.7917970267,
			"0.005": 4.38928901211,
			"0.006": 3.87047964989,
			"0.007": 4.0138324961,
			"0.008": 5.0695583759,
			"0.009": 5.23423859369,
			"0.01": 4.53986485308,
			"0.011": 7.19728053123,
			"0.012": 7.08623740362,
			"0.013": 2.92282070765,
			"0.014": 1.16486175419,
			"0.015": 0.507565744132,
			"0.016": 0.674654720398,
			"0.017": 0.146068820309,
			"0.018": 0.0,
			"0.019": 0.0,
			"0.02": 0.0,
			"0.021": 0.0,
			"0.022": 0.0,
			"0.023": 0.0,
			"0.024": 0.0,
			"0.025": 0.0
		}
	}
}
