{
	 "smiles": "CN1N=C(C=C1N)C1=C(C)C=CC=C1", 
	 "Tm": 371.15, 
	 "num_atms": 27, 
	 "gaussian": { 
		 "optdone": 1, 
		 "sigma_profile": "yes", 
		 "theory": "DFT", 
		 "functional": "B3LYP", 
		 "basiset": "6-31G**", 
		 "properties": { 
			 "R2extent": 3522.5551, 
			 "electric_dipole_moment_norm": 3.70097115228, 
			 "electric_quadrupole_moment_norm": 13.6607935641, 
			 "total_energy": -591.249873147, 
			 "HOMO_LUMO_gap": 0.19652, 
			 "cosmo_polarized_energy": -12.94, 
			 "cosmo_cavitation_energy": 30.09, 
			 "cosmo_dispersion_energy": -21.93, 
			 "cosmo_repulsion_energy": 1.73, 
			 "cosmo_total_nonelectrostatic_energy": 9.88, 
			 "SMD_solvation_energy": 4.59 
		},
		"coords": [
			{
				"x": 1.0907025637,
				"y": -2.2497147799,
				"z": 1.5288430443,
				"element": "C" 
			},
			{
				"x": 0.4372791329,
				"y": -1.5666747224,
				"z": 0.4334137216,
				"element": "N" 
			},
			{
				"x": 0.0613356098,
				"y": -0.2687164586,
				"z": 0.5630157351,
				"element": "N" 
			},
			{
				"x": -0.5012302736,
				"y": 0.0531390152,
				"z": -0.6082562055,
				"element": "C" 
			},
			{
				"x": -0.5085308109,
				"y": -1.063153947,
				"z": -1.4905596658,
				"element": "C" 
			},
			{
				"x": 0.097603918,
				"y": -2.0846376074,
				"z": -0.7819819388,
				"element": "C" 
			},
			{
				"x": 0.4523690971,
				"y": -3.3970905229,
				"z": -1.1276792546,
				"element": "N" 
			},
			{
				"x": -1.0572972237,
				"y": 1.3943431007,
				"z": -0.8808888532,
				"element": "C" 
			},
			{
				"x": -0.584080064,
				"y": 2.5783374294,
				"z": -0.2606712002,
				"element": "C" 
			},
			{
				"x": 0.5365461598,
				"y": 2.5865809027,
				"z": 0.7523747551,
				"element": "C" 
			},
			{
				"x": -1.1791734705,
				"y": 3.7966078906,
				"z": -0.6152108405,
				"element": "C" 
			},
			{
				"x": -2.2119580936,
				"y": 3.8777475904,
				"z": -1.5480724704,
				"element": "C" 
			},
			{
				"x": -2.6766858402,
				"y": 2.7124375201,
				"z": -2.155504318,
				"element": "C" 
			},
			{
				"x": -2.1009755306,
				"y": 1.4908470181,
				"z": -1.8187779056,
				"element": "C" 
			},
			{
				"x": 1.6615178945,
				"y": -1.5135098463,
				"z": 2.0955636052,
				"element": "H" 
			},
			{
				"x": 0.3687182346,
				"y": -2.7293546085,
				"z": 2.2013366179,
				"element": "H" 
			},
			{
				"x": 1.7650209632,
				"y": -3.0080822796,
				"z": 1.1235606186,
				"element": "H" 
			},
			{
				"x": -0.8769064156,
				"y": -1.1113084148,
				"z": -2.5042081744,
				"element": "H" 
			},
			{
				"x": 0.2412102107,
				"y": -3.5902172944,
				"z": -2.0991029924,
				"element": "H" 
			},
			{
				"x": 0.0044861096,
				"y": -4.1002522084,
				"z": -0.5473762752,
				"element": "H" 
			},
			{
				"x": 0.2318780635,
				"y": 2.1158008663,
				"z": 1.6912177497,
				"element": "H" 
			},
			{
				"x": 0.8512167219,
				"y": 3.6133652565,
				"z": 0.9616034883,
				"element": "H" 
			},
			{
				"x": 1.402547455,
				"y": 2.0184563336,
				"z": 0.4002927359,
				"element": "H" 
			},
			{
				"x": -0.813097897,
				"y": 4.7064649702,
				"z": -0.145624879,
				"element": "H" 
			},
			{
				"x": -2.6472992019,
				"y": 4.8417866447,
				"z": -1.7959494861,
				"element": "H" 
			},
			{
				"x": -3.4845515023,
				"y": 2.7506395845,
				"z": -2.8807975344,
				"element": "H" 
			},
			{
				"x": -2.4790458101,
				"y": 0.5813585672,
				"z": -2.2758600777,
				"element": "H" 
			}
		],
		 "valence_orbital": [ 
			{
				"type": "occ",
				"energy": -0.2728,
				"method": "rhf"
			},
			{
				"type": "occ",
				"energy": -0.2609,
				"method": "rhf"
			},
			{
				"type": "occ",
				"energy": -0.22883,
				"method": "rhf"
			},
			{
				"type": "occ",
				"energy": -0.215,
				"method": "rhf"
			},
			{
				"type": "occ",
				"energy": -0.20226,
				"method": "rhf"
			},
			{
				"type": "unocc",
				"energy": -0.00574,
				"method": "rhf"
			},
			{
				"type": "unocc",
				"energy": 0.01584,
				"method": "rhf"
			},
			{
				"type": "unocc",
				"energy": 0.04257,
				"method": "rhf"
			},
			{
				"type": "unocc",
				"energy": 0.06748,
				"method": "rhf"
			},
			{
				"type": "unocc",
				"energy": 0.0953,
				"method": "rhf"
			}
		],
		"cosmo_sigma_profile": { 
			"-0.025": 0.0,
			"-0.024": 0.0,
			"-0.023": 0.0,
			"-0.022": 0.0,
			"-0.021": 0.0,
			"-0.02": 0.0,
			"-0.019": 0.0,
			"-0.018": 0.0,
			"-0.017": 0.0,
			"-0.016": 0.0,
			"-0.015": 0.0,
			"-0.014": 0.0,
			"-0.013": 1.29095398048,
			"-0.012": 2.72907640917,
			"-0.011": 3.17319567677,
			"-0.01": 3.22905167566,
			"-0.009": 2.62208748007,
			"-0.008": 2.3120618561,
			"-0.007": 2.94866122779,
			"-0.006": 7.54204109782,
			"-0.005": 18.4865817311,
			"-0.004": 17.6104535705,
			"-0.003": 21.2620832861,
			"-0.002": 17.1996028268,
			"-0.001": 15.6422382063,
			"0.0": 12.3977731482,
			"0.001": 16.0060614407,
			"0.002": 12.123086498,
			"0.003": 14.1317461891,
			"0.004": 14.2255167055,
			"0.005": 18.1056218439,
			"0.006": 16.4930217406,
			"0.007": 6.71134410015,
			"0.008": 2.72722342341,
			"0.009": 2.14521875147,
			"0.01": 2.09123400074,
			"0.011": 1.90904613939,
			"0.012": 1.37066542827,
			"0.013": 1.3129408554,
			"0.014": 0.620528215287,
			"0.015": 0.0435866072241,
			"0.016": 0.0,
			"0.017": 0.0,
			"0.018": 0.0,
			"0.019": 0.0,
			"0.02": 0.0,
			"0.021": 0.0,
			"0.022": 0.0,
			"0.023": 0.0,
			"0.024": 0.0,
			"0.025": 0.0
		}
	}
}
