{
	 "smiles": "CC(=O)NC1C2CCC(C)(C1NC(C)=O)C2(C)C", 
	 "Tm": 582.15, 
	 "num_atms": 42, 
	 "gaussian": { 
		 "optdone": 1, 
		 "sigma_profile": "yes", 
		 "theory": "DFT", 
		 "functional": "B3LYP", 
		 "basiset": "6-31G**", 
		 "properties": { 
			 "R2extent": 5349.0982, 
			 "electric_dipole_moment_norm": 6.07242450262, 
			 "electric_quadrupole_moment_norm": 23.8942000157, 
			 "total_energy": -807.945035054, 
			 "HOMO_LUMO_gap": 0.25894, 
			 "cosmo_polarized_energy": -21.85, 
			 "cosmo_cavitation_energy": 40.38, 
			 "cosmo_dispersion_energy": -26.53, 
			 "cosmo_repulsion_energy": 2.05, 
			 "cosmo_total_nonelectrostatic_energy": 15.89, 
			 "SMD_solvation_energy": 8.22 
		},
		"coords": [
			{
				"x": 5.2758548562,
				"y": 0.3771310378,
				"z": 0.2403586613,
				"element": "C" 
			},
			{
				"x": 3.843198302,
				"y": 0.6907497851,
				"z": -0.1650521832,
				"element": "C" 
			},
			{
				"x": 3.5789837888,
				"y": 1.551902394,
				"z": -0.9934312507,
				"element": "O" 
			},
			{
				"x": 2.8764217985,
				"y": -0.0513359758,
				"z": 0.4691660789,
				"element": "N" 
			},
			{
				"x": 1.4636631905,
				"y": 0.0941902102,
				"z": 0.1632200386,
				"element": "C" 
			},
			{
				"x": 0.8420199557,
				"y": -0.9932416559,
				"z": -0.7567359076,
				"element": "C" 
			},
			{
				"x": 1.0643282612,
				"y": -2.3755697468,
				"z": -0.1052144978,
				"element": "C" 
			},
			{
				"x": 0.0848400128,
				"y": -2.347849571,
				"z": 1.1079374458,
				"element": "C" 
			},
			{
				"x": -0.5922055231,
				"y": -0.9474953123,
				"z": 1.0174924903,
				"element": "C" 
			},
			{
				"x": -1.8739575008,
				"y": -0.83765955,
				"z": 1.8317270272,
				"element": "C" 
			},
			{
				"x": 0.5421324631,
				"y": 0.0584001405,
				"z": 1.4332701079,
				"element": "C" 
			},
			{
				"x": 0.0928645622,
				"y": 1.3630241464,
				"z": 1.8880820774,
				"element": "N" 
			},
			{
				"x": 0.4802124512,
				"y": 2.0740005567,
				"z": 2.9998514191,
				"element": "C" 
			},
			{
				"x": 1.4987277784,
				"y": 1.4326399935,
				"z": 3.9319967585,
				"element": "C" 
			},
			{
				"x": 0.0127844014,
				"y": 3.1836501517,
				"z": 3.2215441321,
				"element": "O" 
			},
			{
				"x": -0.6858029871,
				"y": -0.7544249285,
				"z": -0.5468582081,
				"element": "C" 
			},
			{
				"x": -1.5809736817,
				"y": -1.7917481829,
				"z": -1.254157764,
				"element": "C" 
			},
			{
				"x": -1.1856658258,
				"y": 0.6260165938,
				"z": -1.0202918491,
				"element": "C" 
			},
			{
				"x": 5.7528009926,
				"y": 1.3008651385,
				"z": 0.5779954228,
				"element": "H" 
			},
			{
				"x": 5.361432401,
				"y": -0.377007091,
				"z": 1.0280517499,
				"element": "H" 
			},
			{
				"x": 5.8234598668,
				"y": 0.0327343549,
				"z": -0.6414586693,
				"element": "H" 
			},
			{
				"x": 3.170281106,
				"y": -0.7909192933,
				"z": 1.0890164122,
				"element": "H" 
			},
			{
				"x": 1.3945040992,
				"y": 1.0675397731,
				"z": -0.3227803885,
				"element": "H" 
			},
			{
				"x": 1.1978173886,
				"y": -0.9187596735,
				"z": -1.7884290475,
				"element": "H" 
			},
			{
				"x": 0.8242551913,
				"y": -3.1842746085,
				"z": -0.8005197623,
				"element": "H" 
			},
			{
				"x": 2.1074568274,
				"y": -2.5290381721,
				"z": 0.1886102229,
				"element": "H" 
			},
			{
				"x": -0.6627095909,
				"y": -3.1435905408,
				"z": 1.0412434622,
				"element": "H" 
			},
			{
				"x": 0.592624535,
				"y": -2.4825581479,
				"z": 2.0696164031,
				"element": "H" 
			},
			{
				"x": -2.3355676454,
				"y": 0.1503609597,
				"z": 1.7489384347,
				"element": "H" 
			},
			{
				"x": -1.6786322594,
				"y": -1.0128719652,
				"z": 2.8958738389,
				"element": "H" 
			},
			{
				"x": -2.6068260555,
				"y": -1.5827261104,
				"z": 1.5048166991,
				"element": "H" 
			},
			{
				"x": 1.0934208291,
				"y": -0.3759811969,
				"z": 2.270241906,
				"element": "H" 
			},
			{
				"x": -0.5552231125,
				"y": 1.882073805,
				"z": 1.3110533255,
				"element": "H" 
			},
			{
				"x": 1.1096743633,
				"y": 0.5136719934,
				"z": 4.384030599,
				"element": "H" 
			},
			{
				"x": 1.7147513682,
				"y": 2.1504838698,
				"z": 4.7225730873,
				"element": "H" 
			},
			{
				"x": 2.4251193891,
				"y": 1.1839114374,
				"z": 3.40484257,
				"element": "H" 
			},
			{
				"x": -1.466345307,
				"y": -1.7057264335,
				"z": -2.3403564649,
				"element": "H" 
			},
			{
				"x": -1.364987208,
				"y": -2.826484398,
				"z": -0.983682136,
				"element": "H" 
			},
			{
				"x": -2.6362378112,
				"y": -1.6066628622,
				"z": -1.0256396836,
				"element": "H" 
			},
			{
				"x": -1.1870782647,
				"y": 0.664364734,
				"z": -2.1149912135,
				"element": "H" 
			},
			{
				"x": -2.2170112025,
				"y": 0.7968164248,
				"z": -0.6921838402,
				"element": "H" 
			},
			{
				"x": -0.5840062039,
				"y": 1.4718979163,
				"z": -0.6846675043,
				"element": "H" 
			}
		],
		 "valence_orbital": [ 
			{
				"type": "occ",
				"energy": -0.29768,
				"method": "rhf"
			},
			{
				"type": "occ",
				"energy": -0.26113,
				"method": "rhf"
			},
			{
				"type": "occ",
				"energy": -0.2491,
				"method": "rhf"
			},
			{
				"type": "occ",
				"energy": -0.23894,
				"method": "rhf"
			},
			{
				"type": "occ",
				"energy": -0.23285,
				"method": "rhf"
			},
			{
				"type": "unocc",
				"energy": 0.02609,
				"method": "rhf"
			},
			{
				"type": "unocc",
				"energy": 0.03277,
				"method": "rhf"
			},
			{
				"type": "unocc",
				"energy": 0.04902,
				"method": "rhf"
			},
			{
				"type": "unocc",
				"energy": 0.06507,
				"method": "rhf"
			},
			{
				"type": "unocc",
				"energy": 0.07655,
				"method": "rhf"
			}
		],
		"cosmo_sigma_profile": { 
			"-0.025": 0.0,
			"-0.024": 0.0,
			"-0.023": 0.0,
			"-0.022": 0.0,
			"-0.021": 0.0,
			"-0.02": 0.0,
			"-0.019": 0.0,
			"-0.018": 0.0,
			"-0.017": 0.0,
			"-0.016": 0.0,
			"-0.015": 0.0,
			"-0.014": 0.0951633783529,
			"-0.013": 0.850428853982,
			"-0.012": 1.57403317985,
			"-0.011": 2.17137174292,
			"-0.01": 3.20831166919,
			"-0.009": 2.7242149268,
			"-0.008": 3.03202041672,
			"-0.007": 4.30003734607,
			"-0.006": 9.43594682244,
			"-0.005": 12.9838374708,
			"-0.004": 16.8629350771,
			"-0.003": 34.2546175716,
			"-0.002": 43.6301021575,
			"-0.001": 46.5424505082,
			"0.0": 34.1127450354,
			"0.001": 31.4257968154,
			"0.002": 12.7471059818,
			"0.003": 4.50032259108,
			"0.004": 3.71126071679,
			"0.005": 2.98971250344,
			"0.006": 2.40507230712,
			"0.007": 2.11732247058,
			"0.008": 3.03055155173,
			"0.009": 2.74780597153,
			"0.01": 2.14512313745,
			"0.011": 2.84678669665,
			"0.012": 3.14836917929,
			"0.013": 5.05700360977,
			"0.014": 11.2758755337,
			"0.015": 6.0495373471,
			"0.016": 0.541459677606,
			"0.017": 0.0,
			"0.018": 0.0,
			"0.019": 0.0,
			"0.02": 0.0,
			"0.021": 0.0,
			"0.022": 0.0,
			"0.023": 0.0,
			"0.024": 0.0,
			"0.025": 0.0
		}
	}
}
