{
	 "smiles": "CCOC(=O)C(=N/NC1=CC=CC=C1)C(=O)C(F)(F)F", 
	 "Tm": 354.15, 
	 "num_atms": 31, 
	 "gaussian": { 
		 "optdone": 1, 
		 "sigma_profile": "yes", 
		 "theory": "DFT", 
		 "functional": "B3LYP", 
		 "basiset": "6-31G**", 
		 "properties": { 
			 "R2extent": 6642.1055, 
			 "electric_dipole_moment_norm": 5.59282193083, 
			 "electric_quadrupole_moment_norm": 16.7883957804, 
			 "total_energy": -1098.54452146, 
			 "HOMO_LUMO_gap": 0.15175, 
			 "cosmo_polarized_energy": -16.61, 
			 "cosmo_cavitation_energy": 37.6, 
			 "cosmo_dispersion_energy": -24.75, 
			 "cosmo_repulsion_energy": 1.88, 
			 "cosmo_total_nonelectrostatic_energy": 14.73, 
			 "SMD_solvation_energy": 8.2 
		},
		"coords": [
			{
				"x": -1.5459061752,
				"y": 2.2709934871,
				"z": -3.7331617281,
				"element": "C" 
			},
			{
				"x": -0.9173408155,
				"y": 2.0904975261,
				"z": -2.3651927977,
				"element": "C" 
			},
			{
				"x": -0.3192789944,
				"y": 0.7694694512,
				"z": -2.34042254,
				"element": "O" 
			},
			{
				"x": 0.4465782013,
				"y": 0.4818860797,
				"z": -1.2733782161,
				"element": "C" 
			},
			{
				"x": 0.5560684808,
				"y": 1.1827709505,
				"z": -0.2908264496,
				"element": "O" 
			},
			{
				"x": 1.1789018892,
				"y": -0.8140142298,
				"z": -1.4795964695,
				"element": "C" 
			},
			{
				"x": 1.3355833821,
				"y": -1.7557086426,
				"z": -0.588381361,
				"element": "N" 
			},
			{
				"x": 0.720337369,
				"y": -1.8090325806,
				"z": 0.5763322224,
				"element": "N" 
			},
			{
				"x": -0.5043611758,
				"y": -1.2247719485,
				"z": 1.025810584,
				"element": "C" 
			},
			{
				"x": -1.6246105828,
				"y": -1.1499728136,
				"z": 0.1893061605,
				"element": "C" 
			},
			{
				"x": -2.8266446516,
				"y": -0.6608956787,
				"z": 0.6978433131,
				"element": "C" 
			},
			{
				"x": -2.9233154777,
				"y": -0.26605484,
				"z": 2.0344364368,
				"element": "C" 
			},
			{
				"x": -1.8062868908,
				"y": -0.3597739035,
				"z": 2.8662034374,
				"element": "C" 
			},
			{
				"x": -0.5951923223,
				"y": -0.8346614034,
				"z": 2.3645936391,
				"element": "C" 
			},
			{
				"x": 1.9535467127,
				"y": -1.0611904581,
				"z": -2.7288829063,
				"element": "C" 
			},
			{
				"x": 2.3807118033,
				"y": -2.1477871877,
				"z": -3.0577827806,
				"element": "O" 
			},
			{
				"x": 2.2739606177,
				"y": 0.1356518937,
				"z": -3.6728043719,
				"element": "C" 
			},
			{
				"x": 1.3263181293,
				"y": 0.2717928653,
				"z": -4.6216652696,
				"element": "F" 
			},
			{
				"x": 3.4438561101,
				"y": -0.0736965644,
				"z": -4.285002434,
				"element": "F" 
			},
			{
				"x": 2.3648836167,
				"y": 1.3093350049,
				"z": -3.0027820958,
				"element": "F" 
			},
			{
				"x": -2.3342955036,
				"y": 1.5324400835,
				"z": -3.9049687773,
				"element": "H" 
			},
			{
				"x": -1.9861854371,
				"y": 3.2697711996,
				"z": -3.8115623116,
				"element": "H" 
			},
			{
				"x": -0.7915389407,
				"y": 2.1575464312,
				"z": -4.5159738115,
				"element": "H" 
			},
			{
				"x": -1.6485924795,
				"y": 2.1564013074,
				"z": -1.5535147465,
				"element": "H" 
			},
			{
				"x": -0.1319259391,
				"y": 2.8263232768,
				"z": -2.1700482398,
				"element": "H" 
			},
			{
				"x": 1.0608699419,
				"y": -2.5828273097,
				"z": 1.1320899192,
				"element": "H" 
			},
			{
				"x": -1.558827179,
				"y": -1.478585985,
				"z": -0.8425030359,
				"element": "H" 
			},
			{
				"x": -3.6958574599,
				"y": -0.605027226,
				"z": 0.0491990586,
				"element": "H" 
			},
			{
				"x": -3.8640755644,
				"y": 0.1095641635,
				"z": 2.4248954354,
				"element": "H" 
			},
			{
				"x": -1.8721458474,
				"y": -0.0536506098,
				"z": 3.9058665382,
				"element": "H" 
			},
			{
				"x": 0.2839651828,
				"y": -0.891192339,
				"z": 2.9994735981,
				"element": "H" 
			}
		],
		 "valence_orbital": [ 
			{
				"type": "occ",
				"energy": -0.28745,
				"method": "rhf"
			},
			{
				"type": "occ",
				"energy": -0.28012,
				"method": "rhf"
			},
			{
				"type": "occ",
				"energy": -0.27093,
				"method": "rhf"
			},
			{
				"type": "occ",
				"energy": -0.26089,
				"method": "rhf"
			},
			{
				"type": "occ",
				"energy": -0.23461,
				"method": "rhf"
			},
			{
				"type": "unocc",
				"energy": -0.08286,
				"method": "rhf"
			},
			{
				"type": "unocc",
				"energy": -0.02948,
				"method": "rhf"
			},
			{
				"type": "unocc",
				"energy": -0.01814,
				"method": "rhf"
			},
			{
				"type": "unocc",
				"energy": -0.01051,
				"method": "rhf"
			},
			{
				"type": "unocc",
				"energy": 0.06202,
				"method": "rhf"
			}
		],
		"cosmo_sigma_profile": { 
			"-0.025": 0.0,
			"-0.024": 0.0,
			"-0.023": 0.0,
			"-0.022": 0.0,
			"-0.021": 0.0,
			"-0.02": 0.0,
			"-0.019": 0.0,
			"-0.018": 0.0,
			"-0.017": 0.472405418852,
			"-0.016": 1.62585565006,
			"-0.015": 1.0525562414,
			"-0.014": 0.949229716526,
			"-0.013": 0.850742888458,
			"-0.012": 1.62729960734,
			"-0.011": 1.07670902802,
			"-0.01": 0.809190727921,
			"-0.009": 1.00922182075,
			"-0.008": 2.14025840892,
			"-0.007": 7.01532052529,
			"-0.006": 14.3272831209,
			"-0.005": 19.8215685218,
			"-0.004": 21.2739663357,
			"-0.003": 20.9274924185,
			"-0.002": 23.1373418493,
			"-0.001": 21.3393144069,
			"0.0": 26.0781408658,
			"0.001": 24.445420494,
			"0.002": 32.8166645333,
			"0.003": 17.0500840675,
			"0.004": 12.4742874791,
			"0.005": 7.48838137249,
			"0.006": 6.16244269398,
			"0.007": 5.12031274047,
			"0.008": 4.71067576887,
			"0.009": 5.85840041498,
			"0.01": 7.45090508587,
			"0.011": 6.64683910615,
			"0.012": 1.94012218204,
			"0.013": 1.46743282615,
			"0.014": 0.595572730509,
			"0.015": 0.0,
			"0.016": 0.0,
			"0.017": 0.0,
			"0.018": 0.0,
			"0.019": 0.0,
			"0.02": 0.0,
			"0.021": 0.0,
			"0.022": 0.0,
			"0.023": 0.0,
			"0.024": 0.0,
			"0.025": 0.0
		}
	}
}
