{
	 "smiles": "COC1=CC=C(C=C1)C1=COC2=CC(O)=CC=C2C1=O", 
	 "Tm": 529.15, 
	 "num_atms": 32, 
	 "gaussian": { 
		 "optdone": 1, 
		 "sigma_profile": "yes", 
		 "theory": "DFT", 
		 "functional": "B3LYP", 
		 "basiset": "6-31G**", 
		 "properties": { 
			 "R2extent": 8606.4643, 
			 "electric_dipole_moment_norm": 1.68187469509, 
			 "electric_quadrupole_moment_norm": 22.6859935006, 
			 "total_energy": -917.811761364, 
			 "HOMO_LUMO_gap": 0.15431, 
			 "cosmo_polarized_energy": -17.45, 
			 "cosmo_cavitation_energy": 36.68, 
			 "cosmo_dispersion_energy": -27.23, 
			 "cosmo_repulsion_energy": 2.03, 
			 "cosmo_total_nonelectrostatic_energy": 11.47, 
			 "SMD_solvation_energy": 8.26 
		},
		"coords": [
			{
				"x": -0.0766350321,
				"y": -2.5721423365,
				"z": 6.6612355645,
				"element": "C" 
			},
			{
				"x": 0.9180245285,
				"y": -2.6114156675,
				"z": 5.650362734,
				"element": "O" 
			},
			{
				"x": 0.736592515,
				"y": -1.8441284384,
				"z": 4.5366237898,
				"element": "C" 
			},
			{
				"x": -0.3595846862,
				"y": -1.0020858231,
				"z": 4.3157850343,
				"element": "C" 
			},
			{
				"x": -0.4441458689,
				"y": -0.2613124534,
				"z": 3.1361558189,
				"element": "C" 
			},
			{
				"x": 0.5550222525,
				"y": -0.3345283554,
				"z": 2.1542017807,
				"element": "C" 
			},
			{
				"x": 1.6389094912,
				"y": -1.2037128394,
				"z": 2.3879084184,
				"element": "C" 
			},
			{
				"x": 1.7369765973,
				"y": -1.9417747165,
				"z": 3.5585542313,
				"element": "C" 
			},
			{
				"x": 0.4918863225,
				"y": 0.4808826733,
				"z": 0.9192736188,
				"element": "C" 
			},
			{
				"x": 1.6301707559,
				"y": 0.998501353,
				"z": 0.3910891737,
				"element": "C" 
			},
			{
				"x": 1.727354365,
				"y": 1.7112279779,
				"z": -0.7580660381,
				"element": "O" 
			},
			{
				"x": 0.5911271787,
				"y": 1.9614190775,
				"z": -1.4771312803,
				"element": "C" 
			},
			{
				"x": 0.7448560356,
				"y": 2.6825320878,
				"z": -2.6609315394,
				"element": "C" 
			},
			{
				"x": -0.3893094774,
				"y": 2.9622631084,
				"z": -3.4190735654,
				"element": "C" 
			},
			{
				"x": -0.212253763,
				"y": 3.6655650333,
				"z": -4.5698072574,
				"element": "O" 
			},
			{
				"x": -1.6614843926,
				"y": 2.52568036,
				"z": -2.9936494164,
				"element": "C" 
			},
			{
				"x": -1.7849119003,
				"y": 1.8148257839,
				"z": -1.8137239467,
				"element": "C" 
			},
			{
				"x": -0.6597137683,
				"y": 1.5144858098,
				"z": -1.026444994,
				"element": "C" 
			},
			{
				"x": -0.7916052944,
				"y": 0.7543095427,
				"z": 0.2311643175,
				"element": "C" 
			},
			{
				"x": -1.8879719761,
				"y": 0.3867710452,
				"z": 0.6559904816,
				"element": "O" 
			},
			{
				"x": -0.1853969083,
				"y": -1.5652414944,
				"z": 7.0846630834,
				"element": "H" 
			},
			{
				"x": 0.2606328793,
				"y": -3.2547013785,
				"z": 7.4429316926,
				"element": "H" 
			},
			{
				"x": -1.0511076427,
				"y": -2.9083597043,
				"z": 6.2843572489,
				"element": "H" 
			},
			{
				"x": -1.1521552257,
				"y": -0.9143097336,
				"z": 5.0494958068,
				"element": "H" 
			},
			{
				"x": -1.3042764135,
				"y": 0.3742797555,
				"z": 2.9698795268,
				"element": "H" 
			},
			{
				"x": 2.4055649532,
				"y": -1.3228226091,
				"z": 1.6272878541,
				"element": "H" 
			},
			{
				"x": 2.5695011437,
				"y": -2.6158161858,
				"z": 3.7317589631,
				"element": "H" 
			},
			{
				"x": 2.6042161787,
				"y": 0.8965863961,
				"z": 0.8548069462,
				"element": "H" 
			},
			{
				"x": 1.7235771145,
				"y": 3.0174365038,
				"z": -2.9827598387,
				"element": "H" 
			},
			{
				"x": -1.0671707569,
				"y": 3.794104979,
				"z": -5.0012032777,
				"element": "H" 
			},
			{
				"x": -2.5385574465,
				"y": 2.7515224781,
				"z": -3.5958898112,
				"element": "H" 
			},
			{
				"x": -2.7498317586,
				"y": 1.4673577707,
				"z": -1.4599451199,
				"element": "H" 
			}
		],
		 "valence_orbital": [ 
			{
				"type": "occ",
				"energy": -0.25001,
				"method": "rhf"
			},
			{
				"type": "occ",
				"energy": -0.24665,
				"method": "rhf"
			},
			{
				"type": "occ",
				"energy": -0.23724,
				"method": "rhf"
			},
			{
				"type": "occ",
				"energy": -0.2367,
				"method": "rhf"
			},
			{
				"type": "occ",
				"energy": -0.20392,
				"method": "rhf"
			},
			{
				"type": "unocc",
				"energy": -0.04961,
				"method": "rhf"
			},
			{
				"type": "unocc",
				"energy": -0.02217,
				"method": "rhf"
			},
			{
				"type": "unocc",
				"energy": -0.00212,
				"method": "rhf"
			},
			{
				"type": "unocc",
				"energy": 0.00331,
				"method": "rhf"
			},
			{
				"type": "unocc",
				"energy": 0.02798,
				"method": "rhf"
			}
		],
		"cosmo_sigma_profile": { 
			"-0.025": 0.0,
			"-0.024": 0.0,
			"-0.023": 0.0,
			"-0.022": 0.0,
			"-0.021": 0.0,
			"-0.02": 0.0,
			"-0.019": 0.24804480293,
			"-0.018": 1.2750800544,
			"-0.017": 1.13514763475,
			"-0.016": 0.954857148716,
			"-0.015": 1.27995834787,
			"-0.014": 0.880213841783,
			"-0.013": 0.781707924951,
			"-0.012": 1.11145156711,
			"-0.011": 1.19811139463,
			"-0.01": 1.36633722202,
			"-0.009": 2.62645415851,
			"-0.008": 3.97636372516,
			"-0.007": 6.8948847472,
			"-0.006": 14.0891203574,
			"-0.005": 20.7715993176,
			"-0.004": 18.7164145884,
			"-0.003": 21.1366462626,
			"-0.002": 17.3750192837,
			"-0.001": 19.1117255574,
			"0.0": 19.4334641089,
			"0.001": 22.2728078363,
			"0.002": 27.6139573601,
			"0.003": 19.0370812717,
			"0.004": 16.9711072385,
			"0.005": 14.9564878779,
			"0.006": 9.6041489236,
			"0.007": 4.75348752617,
			"0.008": 4.0231862881,
			"0.009": 4.91825791482,
			"0.01": 5.32371630732,
			"0.011": 2.99847522996,
			"0.012": 2.56363949531,
			"0.013": 4.06870326269,
			"0.014": 0.776689556584,
			"0.015": 0.0,
			"0.016": 0.0,
			"0.017": 0.0,
			"0.018": 0.0,
			"0.019": 0.0,
			"0.02": 0.0,
			"0.021": 0.0,
			"0.022": 0.0,
			"0.023": 0.0,
			"0.024": 0.0,
			"0.025": 0.0
		}
	}
}
