{
	 "smiles": "COC1=CC=C(NN=C(/C#N)C2=NC(=CS2)C2=CC=CC=C2)C=C1", 
	 "Tm": 423.15, 
	 "num_atms": 38, 
	 "gaussian": { 
		 "optdone": 1, 
		 "sigma_profile": "yes", 
		 "theory": "DFT", 
		 "functional": "B3LYP", 
		 "basiset": "6-31G**", 
		 "properties": { 
			 "R2extent": 15603.0937, 
			 "electric_dipole_moment_norm": 5.03876090125, 
			 "electric_quadrupole_moment_norm": 23.2083083278, 
			 "total_energy": -1386.70684574, 
			 "HOMO_LUMO_gap": 0.11733, 
			 "cosmo_polarized_energy": -16.79, 
			 "cosmo_cavitation_energy": 46.68, 
			 "cosmo_dispersion_energy": -33.41, 
			 "cosmo_repulsion_energy": 2.47, 
			 "cosmo_total_nonelectrostatic_energy": 15.74, 
			 "SMD_solvation_energy": 8.06 
		},
		"coords": [
			{
				"x": 4.0643268608,
				"y": -6.9682787461,
				"z": 2.5677166531,
				"element": "C" 
			},
			{
				"x": 4.8520518632,
				"y": -5.8042093175,
				"z": 2.3719172672,
				"element": "O" 
			},
			{
				"x": 4.2228398019,
				"y": -4.6549983098,
				"z": 1.993132519,
				"element": "C" 
			},
			{
				"x": 5.0502803413,
				"y": -3.5358434997,
				"z": 1.8151750404,
				"element": "C" 
			},
			{
				"x": 4.5100831309,
				"y": -2.3180521717,
				"z": 1.4304683752,
				"element": "C" 
			},
			{
				"x": 3.1286358526,
				"y": -2.1944848863,
				"z": 1.2154674899,
				"element": "C" 
			},
			{
				"x": 2.6258592135,
				"y": -0.9403477631,
				"z": 0.8262485852,
				"element": "N" 
			},
			{
				"x": 1.3469110389,
				"y": -0.7350195002,
				"z": 0.6042982331,
				"element": "N" 
			},
			{
				"x": 0.9179861751,
				"y": 0.4497316393,
				"z": 0.2421708942,
				"element": "C" 
			},
			{
				"x": 1.8285839185,
				"y": 1.5468997198,
				"z": 0.0795030635,
				"element": "C" 
			},
			{
				"x": 2.6908532078,
				"y": 2.3256692107,
				"z": -0.0074612459,
				"element": "N" 
			},
			{
				"x": -0.5008295789,
				"y": 0.662895475,
				"z": -0.0002568838,
				"element": "C" 
			},
			{
				"x": -1.0005928364,
				"y": 1.8109979507,
				"z": -0.3631230594,
				"element": "N" 
			},
			{
				"x": -2.3707172699,
				"y": 1.7495988044,
				"z": -0.5281753521,
				"element": "C" 
			},
			{
				"x": -2.9096505956,
				"y": 0.5086904736,
				"z": -0.278517614,
				"element": "C" 
			},
			{
				"x": -1.6851374665,
				"y": -0.6274600967,
				"z": 0.1770507861,
				"element": "S" 
			},
			{
				"x": -3.0995412298,
				"y": 2.966228365,
				"z": -0.939185084,
				"element": "C" 
			},
			{
				"x": -4.4927900684,
				"y": 2.9686220896,
				"z": -1.120713649,
				"element": "C" 
			},
			{
				"x": -5.157547667,
				"y": 4.1290666764,
				"z": -1.5090714181,
				"element": "C" 
			},
			{
				"x": -4.4441198117,
				"y": 5.310944586,
				"z": -1.7239858627,
				"element": "C" 
			},
			{
				"x": -3.0596456782,
				"y": 5.3193036629,
				"z": -1.5462503774,
				"element": "C" 
			},
			{
				"x": -2.3914240973,
				"y": 4.1595454755,
				"z": -1.1576429591,
				"element": "C" 
			},
			{
				"x": 2.2998334057,
				"y": -3.3050950836,
				"z": 1.3910431982,
				"element": "C" 
			},
			{
				"x": 2.84414284,
				"y": -4.5298399534,
				"z": 1.7781050947,
				"element": "C" 
			},
			{
				"x": 3.5495030519,
				"y": -7.2687432812,
				"z": 1.6459759626,
				"element": "H" 
			},
			{
				"x": 4.7590172583,
				"y": -7.7558618611,
				"z": 2.8629903763,
				"element": "H" 
			},
			{
				"x": 3.3217399681,
				"y": -6.8256873834,
				"z": 3.3634195353,
				"element": "H" 
			},
			{
				"x": 6.1160585509,
				"y": -3.6447681847,
				"z": 1.9845315353,
				"element": "H" 
			},
			{
				"x": 5.1614179996,
				"y": -1.4580372634,
				"z": 1.2957954289,
				"element": "H" 
			},
			{
				"x": 3.2858353095,
				"y": -0.1702866064,
				"z": 0.7150325601,
				"element": "H" 
			},
			{
				"x": -3.9420223007,
				"y": 0.1969549453,
				"z": -0.3346532036,
				"element": "H" 
			},
			{
				"x": -5.0660489937,
				"y": 2.0606030337,
				"z": -0.9585818943,
				"element": "H" 
			},
			{
				"x": -6.2352922053,
				"y": 4.1106656231,
				"z": -1.6441929474,
				"element": "H" 
			},
			{
				"x": -4.9637385494,
				"y": 6.2153826308,
				"z": -2.0268538795,
				"element": "H" 
			},
			{
				"x": -2.4951229507,
				"y": 6.2327849575,
				"z": -1.7106005086,
				"element": "H" 
			},
			{
				"x": -1.3163773331,
				"y": 4.1603679112,
				"z": -1.018126831,
				"element": "H" 
			},
			{
				"x": 1.2338454191,
				"y": -3.208037642,
				"z": 1.2246332328,
				"element": "H" 
			},
			{
				"x": 2.1813934249,
				"y": -5.3769016802,
				"z": 1.9079169391,
				"element": "H" 
			}
		],
		 "valence_orbital": [ 
			{
				"type": "occ",
				"energy": -0.26858,
				"method": "rhf"
			},
			{
				"type": "occ",
				"energy": -0.26159,
				"method": "rhf"
			},
			{
				"type": "occ",
				"energy": -0.24734,
				"method": "rhf"
			},
			{
				"type": "occ",
				"energy": -0.22361,
				"method": "rhf"
			},
			{
				"type": "occ",
				"energy": -0.19833,
				"method": "rhf"
			},
			{
				"type": "unocc",
				"energy": -0.081,
				"method": "rhf"
			},
			{
				"type": "unocc",
				"energy": -0.03096,
				"method": "rhf"
			},
			{
				"type": "unocc",
				"energy": -0.01651,
				"method": "rhf"
			},
			{
				"type": "unocc",
				"energy": -0.00193,
				"method": "rhf"
			},
			{
				"type": "unocc",
				"energy": 0.00703,
				"method": "rhf"
			}
		],
		"cosmo_sigma_profile": { 
			"-0.025": 0.0,
			"-0.024": 0.0,
			"-0.023": 0.0,
			"-0.022": 0.0,
			"-0.021": 0.0,
			"-0.02": 0.0,
			"-0.019": 0.0,
			"-0.018": 0.0,
			"-0.017": 0.0,
			"-0.016": 0.0,
			"-0.015": 0.451236431113,
			"-0.014": 1.51538914723,
			"-0.013": 0.924207100124,
			"-0.012": 1.5318272854,
			"-0.011": 1.0763235676,
			"-0.01": 2.23579044886,
			"-0.009": 4.8034080024,
			"-0.008": 5.04877712092,
			"-0.007": 6.73672461933,
			"-0.006": 19.1818765262,
			"-0.005": 25.2596873639,
			"-0.004": 27.6419707862,
			"-0.003": 26.533262789,
			"-0.002": 21.4949966652,
			"-0.001": 23.1708488386,
			"0.0": 25.3719983687,
			"0.001": 29.703728399,
			"0.002": 35.7286621784,
			"0.003": 35.501099892,
			"0.004": 27.9937354075,
			"0.005": 19.259220297,
			"0.006": 10.9827067056,
			"0.007": 7.0592251148,
			"0.008": 6.39019507647,
			"0.009": 4.81678645078,
			"0.01": 4.38918279977,
			"0.011": 2.31471927217,
			"0.012": 1.72586369427,
			"0.013": 0.115449953525,
			"0.014": 0.0,
			"0.015": 0.0,
			"0.016": 0.0,
			"0.017": 0.0,
			"0.018": 0.0,
			"0.019": 0.0,
			"0.02": 0.0,
			"0.021": 0.0,
			"0.022": 0.0,
			"0.023": 0.0,
			"0.024": 0.0,
			"0.025": 0.0
		}
	}
}
