{
	 "smiles": "CCOC(=O)NC1=C(C=C(Cl)C=C1[N+]([O-])=O)[N+]([O-])=O", 
	 "Tm": 440.15, 
	 "num_atms": 27, 
	 "gaussian": { 
		 "optdone": 1, 
		 "sigma_profile": "yes", 
		 "theory": "DFT", 
		 "functional": "B3LYP", 
		 "basiset": "6-31G**", 
		 "properties": { 
			 "R2extent": 6443.5249, 
			 "electric_dipole_moment_norm": 2.93441126804, 
			 "electric_quadrupole_moment_norm": 14.9102673665, 
			 "total_energy": -1423.37362115, 
			 "HOMO_LUMO_gap": 0.14299, 
			 "cosmo_polarized_energy": -14.2, 
			 "cosmo_cavitation_energy": 35.19, 
			 "cosmo_dispersion_energy": -24.62, 
			 "cosmo_repulsion_energy": 1.91, 
			 "cosmo_total_nonelectrostatic_energy": 12.47, 
			 "SMD_solvation_energy": 11.05 
		},
		"coords": [
			{
				"x": -3.1477978876,
				"y": 0.7380957374,
				"z": 1.5485260994,
				"element": "C" 
			},
			{
				"x": -2.5969006811,
				"y": 0.4063324111,
				"z": 0.1725403083,
				"element": "C" 
			},
			{
				"x": -1.1742141724,
				"y": 0.1061024812,
				"z": 0.2364868697,
				"element": "O" 
			},
			{
				"x": -0.8462616104,
				"y": -1.1701096262,
				"z": 0.4890711303,
				"element": "C" 
			},
			{
				"x": -1.6075604904,
				"y": -2.0622440005,
				"z": 0.7877177443,
				"element": "O" 
			},
			{
				"x": 0.5349268797,
				"y": -1.3749582978,
				"z": 0.4295709853,
				"element": "N" 
			},
			{
				"x": 1.5322973948,
				"y": -0.4936677051,
				"z": 0.0663818398,
				"element": "C" 
			},
			{
				"x": 1.4099834439,
				"y": 0.4502788033,
				"z": -0.9845398712,
				"element": "C" 
			},
			{
				"x": 2.3813597778,
				"y": 1.4004290578,
				"z": -1.2684701207,
				"element": "C" 
			},
			{
				"x": 3.574254219,
				"y": 1.4063975699,
				"z": -0.5492184281,
				"element": "C" 
			},
			{
				"x": 4.8095912148,
				"y": 2.5822550565,
				"z": -0.9197012295,
				"element": "Cl" 
			},
			{
				"x": 3.7842797651,
				"y": 0.4630621073,
				"z": 0.4436467677,
				"element": "C" 
			},
			{
				"x": 2.783728023,
				"y": -0.4634506478,
				"z": 0.7432848502,
				"element": "C" 
			},
			{
				"x": 3.1066616061,
				"y": -1.4052227831,
				"z": 1.824445879,
				"element": "N" 
			},
			{
				"x": 4.055353554,
				"y": -1.1346546673,
				"z": 2.5530024786,
				"element": "O" 
			},
			{
				"x": 2.4248687829,
				"y": -2.432807469,
				"z": 1.9393499566,
				"element": "O" 
			},
			{
				"x": 0.2795277388,
				"y": 0.4164512321,
				"z": -1.9351001192,
				"element": "N" 
			},
			{
				"x": -0.1214724217,
				"y": 1.494868996,
				"z": -2.3639932855,
				"element": "O" 
			},
			{
				"x": -0.135358592,
				"y": -0.68504264,
				"z": -2.2784138717,
				"element": "O" 
			},
			{
				"x": -3.0873615357,
				"y": -0.1318963108,
				"z": 2.2067361289,
				"element": "H" 
			},
			{
				"x": -4.199327108,
				"y": 1.0305243815,
				"z": 1.4610333931,
				"element": "H" 
			},
			{
				"x": -2.5979970032,
				"y": 1.5684771075,
				"z": 2.0010194556,
				"element": "H" 
			},
			{
				"x": -2.6526024373,
				"y": 1.2573662213,
				"z": -0.509068361,
				"element": "H" 
			},
			{
				"x": -3.109308562,
				"y": -0.4500730012,
				"z": -0.2699910223,
				"element": "H" 
			},
			{
				"x": 0.8503895542,
				"y": -2.1941149462,
				"z": 0.9389144339,
				"element": "H" 
			},
			{
				"x": 2.2016533329,
				"y": 2.1065455925,
				"z": -2.0694303265,
				"element": "H" 
			},
			{
				"x": 4.7046872148,
				"y": 0.4328553396,
				"z": 1.011398315,
				"element": "H" 
			}
		],
		 "valence_orbital": [ 
			{
				"type": "occ",
				"energy": -0.32041,
				"method": "rhf"
			},
			{
				"type": "occ",
				"energy": -0.31689,
				"method": "rhf"
			},
			{
				"type": "occ",
				"energy": -0.30407,
				"method": "rhf"
			},
			{
				"type": "occ",
				"energy": -0.29879,
				"method": "rhf"
			},
			{
				"type": "occ",
				"energy": -0.26469,
				"method": "rhf"
			},
			{
				"type": "unocc",
				"energy": -0.1217,
				"method": "rhf"
			},
			{
				"type": "unocc",
				"energy": -0.10645,
				"method": "rhf"
			},
			{
				"type": "unocc",
				"energy": -0.04803,
				"method": "rhf"
			},
			{
				"type": "unocc",
				"energy": -0.03295,
				"method": "rhf"
			},
			{
				"type": "unocc",
				"energy": -0.00394,
				"method": "rhf"
			}
		],
		"cosmo_sigma_profile": { 
			"-0.025": 0.0,
			"-0.024": 0.0,
			"-0.023": 0.0,
			"-0.022": 0.0,
			"-0.021": 0.0,
			"-0.02": 0.0,
			"-0.019": 0.0,
			"-0.018": 0.0,
			"-0.017": 0.0,
			"-0.016": 0.0,
			"-0.015": 0.0,
			"-0.014": 0.0,
			"-0.013": 0.0,
			"-0.012": 0.0,
			"-0.011": 0.0395218707697,
			"-0.01": 2.00773848734,
			"-0.009": 5.55276508819,
			"-0.008": 6.45608197344,
			"-0.007": 8.66628766757,
			"-0.006": 12.0974381103,
			"-0.005": 16.8422674617,
			"-0.004": 24.5145460258,
			"-0.003": 25.8633138797,
			"-0.002": 24.9941069388,
			"-0.001": 21.9772204451,
			"0.0": 18.2096988179,
			"0.001": 13.6849775107,
			"0.002": 15.043850445,
			"0.003": 16.56203414,
			"0.004": 11.3067990005,
			"0.005": 9.36999318268,
			"0.006": 14.0051352664,
			"0.007": 13.7562580243,
			"0.008": 9.20461452325,
			"0.009": 5.30197973027,
			"0.01": 2.20769820377,
			"0.011": 4.38497843029,
			"0.012": 2.13250695514,
			"0.013": 0.0,
			"0.014": 0.0,
			"0.015": 0.0,
			"0.016": 0.0,
			"0.017": 0.0,
			"0.018": 0.0,
			"0.019": 0.0,
			"0.02": 0.0,
			"0.021": 0.0,
			"0.022": 0.0,
			"0.023": 0.0,
			"0.024": 0.0,
			"0.025": 0.0
		}
	}
}
