{
	 "smiles": "CCCC(=O)OC1=CNC2=C1C=C(Br)C(Cl)=C2", 
	 "Tm": 371.15, 
	 "num_atms": 28, 
	 "gaussian": { 
		 "optdone": 1, 
		 "sigma_profile": "yes", 
		 "theory": "DFT", 
		 "functional": "B3LYP", 
		 "basiset": "6-31G**", 
		 "properties": { 
			 "R2extent": 10599.0875, 
			 "electric_dipole_moment_norm": 5.4374780349, 
			 "electric_quadrupole_moment_norm": 22.3248318968, 
			 "total_energy": -3700.71166419, 
			 "HOMO_LUMO_gap": 0.18182, 
			 "cosmo_polarized_energy": -15.1, 
			 "cosmo_cavitation_energy": 36.47, 
			 "cosmo_dispersion_energy": -26.7, 
			 "cosmo_repulsion_energy": 2.12, 
			 "cosmo_total_nonelectrostatic_energy": 11.89, 
			 "SMD_solvation_energy": 5.51 
		},
		"coords": [
			{
				"x": 1.9091638597,
				"y": 0.7274284703,
				"z": 3.3123678133,
				"element": "C" 
			},
			{
				"x": 2.3233902662,
				"y": -0.6041261524,
				"z": 2.677421762,
				"element": "C" 
			},
			{
				"x": 2.4340581807,
				"y": -0.5448804052,
				"z": 1.1500867179,
				"element": "C" 
			},
			{
				"x": 1.0953599462,
				"y": -0.3987000842,
				"z": 0.4562598641,
				"element": "C" 
			},
			{
				"x": 0.0072184028,
				"y": -0.5537748031,
				"z": 0.953946782,
				"element": "O" 
			},
			{
				"x": 1.2891620761,
				"y": -0.0898108204,
				"z": -0.8681187635,
				"element": "O" 
			},
			{
				"x": 0.1887636994,
				"y": 0.0565319532,
				"z": -1.6959533683,
				"element": "C" 
			},
			{
				"x": 0.0114220418,
				"y": 1.1512804539,
				"z": -2.4989486759,
				"element": "C" 
			},
			{
				"x": -1.1048601415,
				"y": 0.9471097679,
				"z": -3.2894943589,
				"element": "N" 
			},
			{
				"x": -1.6504161954,
				"y": -0.2836941664,
				"z": -2.9976892274,
				"element": "C" 
			},
			{
				"x": -0.8554567707,
				"y": -0.8864023356,
				"z": -1.9851629272,
				"element": "C" 
			},
			{
				"x": -1.2047506669,
				"y": -2.1602529233,
				"z": -1.5134191304,
				"element": "C" 
			},
			{
				"x": -2.3100317383,
				"y": -2.8029619808,
				"z": -2.0523431463,
				"element": "C" 
			},
			{
				"x": -2.7520640213,
				"y": -4.5354159359,
				"z": -1.3911502362,
				"element": "Br" 
			},
			{
				"x": -3.089572355,
				"y": -2.1860901788,
				"z": -3.0609972486,
				"element": "C" 
			},
			{
				"x": -4.4882537343,
				"y": -2.9855294598,
				"z": -3.745384497,
				"element": "Cl" 
			},
			{
				"x": -2.7683915406,
				"y": -0.9216838992,
				"z": -3.5388841007,
				"element": "C" 
			},
			{
				"x": 2.6255347032,
				"y": 1.521923011,
				"z": 3.0719577874,
				"element": "H" 
			},
			{
				"x": 1.8619836809,
				"y": 0.6423995041,
				"z": 4.402519475,
				"element": "H" 
			},
			{
				"x": 0.921957368,
				"y": 1.0387641831,
				"z": 2.9593663646,
				"element": "H" 
			},
			{
				"x": 1.6008275766,
				"y": -1.3812869364,
				"z": 2.9481080864,
				"element": "H" 
			},
			{
				"x": 3.2941397889,
				"y": -0.9188679786,
				"z": 3.0779119577,
				"element": "H" 
			},
			{
				"x": 2.8930153265,
				"y": -1.4614236767,
				"z": 0.7557006673,
				"element": "H" 
			},
			{
				"x": 3.0840715849,
				"y": 0.2748275968,
				"z": 0.8221791313,
				"element": "H" 
			},
			{
				"x": 0.6034439356,
				"y": 2.0507158123,
				"z": -2.5718790899,
				"element": "H" 
			},
			{
				"x": -1.4608884117,
				"y": 1.5992369085,
				"z": -3.9684925455,
				"element": "H" 
			},
			{
				"x": -0.6369769449,
				"y": -2.6389174025,
				"z": -0.7264634438,
				"element": "H" 
			},
			{
				"x": -3.3759499171,
				"y": -0.4607985217,
				"z": -4.3096456495,
				"element": "H" 
			}
		],
		 "valence_orbital": [ 
			{
				"type": "occ",
				"energy": -0.28155,
				"method": "rhf"
			},
			{
				"type": "occ",
				"energy": -0.27703,
				"method": "rhf"
			},
			{
				"type": "occ",
				"energy": -0.27609,
				"method": "rhf"
			},
			{
				"type": "occ",
				"energy": -0.22756,
				"method": "rhf"
			},
			{
				"type": "occ",
				"energy": -0.21375,
				"method": "rhf"
			},
			{
				"type": "unocc",
				"energy": -0.03193,
				"method": "rhf"
			},
			{
				"type": "unocc",
				"energy": -0.00374,
				"method": "rhf"
			},
			{
				"type": "unocc",
				"energy": -0.0002,
				"method": "rhf"
			},
			{
				"type": "unocc",
				"energy": 0.00602,
				"method": "rhf"
			},
			{
				"type": "unocc",
				"energy": 0.05495,
				"method": "rhf"
			}
		],
		"cosmo_sigma_profile": { 
			"-0.025": 0.0,
			"-0.024": 0.0,
			"-0.023": 0.0,
			"-0.022": 0.0,
			"-0.021": 0.0,
			"-0.02": 0.0,
			"-0.019": 0.0,
			"-0.018": 0.0,
			"-0.017": 0.469666842005,
			"-0.016": 1.83874285014,
			"-0.015": 1.5809618939,
			"-0.014": 1.38212619321,
			"-0.013": 1.01938210795,
			"-0.012": 1.68258968096,
			"-0.011": 1.31591089346,
			"-0.01": 2.03198951793,
			"-0.009": 4.60946529924,
			"-0.008": 4.1406156781,
			"-0.007": 4.86084184308,
			"-0.006": 8.5541543747,
			"-0.005": 9.39408768429,
			"-0.004": 12.0872206163,
			"-0.003": 19.7983313586,
			"-0.002": 23.4126816584,
			"-0.001": 24.3299745419,
			"0.0": 22.861790821,
			"0.001": 27.4650969058,
			"0.002": 35.4167456556,
			"0.003": 27.7593593135,
			"0.004": 22.3341355137,
			"0.005": 16.0721518621,
			"0.006": 5.08494116024,
			"0.007": 3.2429857097,
			"0.008": 3.23790604813,
			"0.009": 1.75477397017,
			"0.01": 2.71173846315,
			"0.011": 3.50210352383,
			"0.012": 1.86443807789,
			"0.013": 0.0,
			"0.014": 0.0,
			"0.015": 0.0,
			"0.016": 0.0,
			"0.017": 0.0,
			"0.018": 0.0,
			"0.019": 0.0,
			"0.02": 0.0,
			"0.021": 0.0,
			"0.022": 0.0,
			"0.023": 0.0,
			"0.024": 0.0,
			"0.025": 0.0
		}
	}
}
