{
	 "smiles": "FC1=C(CC(=O)CCl)C(Cl)=CC=C1", 
	 "Tm": 311.15, 
	 "num_atms": 20, 
	 "gaussian": { 
		 "optdone": 1, 
		 "sigma_profile": "yes", 
		 "theory": "DFT", 
		 "functional": "B3LYP", 
		 "basiset": "6-31G**", 
		 "properties": { 
			 "R2extent": 3127.7495, 
			 "electric_dipole_moment_norm": 3.78341787938, 
			 "electric_quadrupole_moment_norm": 10.0079808113, 
			 "total_energy": -1442.61271971, 
			 "HOMO_LUMO_gap": 0.19752, 
			 "cosmo_polarized_energy": -9.6, 
			 "cosmo_cavitation_energy": 28.06, 
			 "cosmo_dispersion_energy": -19.54, 
			 "cosmo_repulsion_energy": 1.53, 
			 "cosmo_total_nonelectrostatic_energy": 10.06, 
			 "SMD_solvation_energy": 5.23 
		},
		"coords": [
			{
				"x": -1.7201099897,
				"y": -0.8225781927,
				"z": -1.2597817696,
				"element": "F" 
			},
			{
				"x": -0.5041810087,
				"y": -1.3883952238,
				"z": -1.0449475692,
				"element": "C" 
			},
			{
				"x": 0.4859857355,
				"y": -0.5922176707,
				"z": -0.4610175255,
				"element": "C" 
			},
			{
				"x": 0.2120155411,
				"y": 0.855367712,
				"z": -0.1309259475,
				"element": "C" 
			},
			{
				"x": -0.3102032063,
				"y": 1.1633745187,
				"z": 1.2792107889,
				"element": "C" 
			},
			{
				"x": 0.0824777695,
				"y": 2.1271140408,
				"z": 1.8983979585,
				"element": "O" 
			},
			{
				"x": -1.4228658016,
				"y": 0.2787358907,
				"z": 1.8515323473,
				"element": "C" 
			},
			{
				"x": -0.7102915501,
				"y": -1.0994391054,
				"z": 2.7921795367,
				"element": "Cl" 
			},
			{
				"x": 1.7215493972,
				"y": -1.2232762095,
				"z": -0.2427309442,
				"element": "C" 
			},
			{
				"x": 3.036731839,
				"y": -0.3239888694,
				"z": 0.4945364075,
				"element": "Cl" 
			},
			{
				"x": 1.9485243282,
				"y": -2.5546791403,
				"z": -0.5919733819,
				"element": "C" 
			},
			{
				"x": 0.9215104031,
				"y": -3.2962364787,
				"z": -1.1743897473,
				"element": "C" 
			},
			{
				"x": -0.3241489107,
				"y": -2.7148740063,
				"z": -1.4063706796,
				"element": "C" 
			},
			{
				"x": 1.1039440858,
				"y": 1.4668148518,
				"z": -0.2731588572,
				"element": "H" 
			},
			{
				"x": -0.5615075371,
				"y": 1.2250836908,
				"z": -0.8162318761,
				"element": "H" 
			},
			{
				"x": -2.0134038504,
				"y": 0.8685620573,
				"z": 2.5514312534,
				"element": "H" 
			},
			{
				"x": -2.0496357778,
				"y": -0.1540662578,
				"z": 1.0717669129,
				"element": "H" 
			},
			{
				"x": 2.9192270055,
				"y": -2.9984701341,
				"z": -0.4048109741,
				"element": "H" 
			},
			{
				"x": 1.0934373359,
				"y": -4.3329366911,
				"z": -1.4452883542,
				"element": "H" 
			},
			{
				"x": -1.1449558084,
				"y": -3.2629947822,
				"z": -1.8544275789,
				"element": "H" 
			}
		],
		 "valence_orbital": [ 
			{
				"type": "occ",
				"energy": -0.31662,
				"method": "rhf"
			},
			{
				"type": "occ",
				"energy": -0.30622,
				"method": "rhf"
			},
			{
				"type": "occ",
				"energy": -0.2809,
				"method": "rhf"
			},
			{
				"type": "occ",
				"energy": -0.25839,
				"method": "rhf"
			},
			{
				"type": "occ",
				"energy": -0.25069,
				"method": "rhf"
			},
			{
				"type": "unocc",
				"energy": -0.05317,
				"method": "rhf"
			},
			{
				"type": "unocc",
				"energy": -0.03105,
				"method": "rhf"
			},
			{
				"type": "unocc",
				"energy": -0.0192,
				"method": "rhf"
			},
			{
				"type": "unocc",
				"energy": 0.01822,
				"method": "rhf"
			},
			{
				"type": "unocc",
				"energy": 0.03694,
				"method": "rhf"
			}
		],
		"cosmo_sigma_profile": { 
			"-0.025": 0.0,
			"-0.024": 0.0,
			"-0.023": 0.0,
			"-0.022": 0.0,
			"-0.021": 0.0,
			"-0.02": 0.0,
			"-0.019": 0.0,
			"-0.018": 0.0,
			"-0.017": 0.0,
			"-0.016": 0.0,
			"-0.015": 0.0,
			"-0.014": 0.0,
			"-0.013": 0.0,
			"-0.012": 0.0,
			"-0.011": 0.0,
			"-0.01": 0.436931377794,
			"-0.009": 1.75812890497,
			"-0.008": 6.63118244629,
			"-0.007": 12.3948699729,
			"-0.006": 13.961577141,
			"-0.005": 12.3048016359,
			"-0.004": 11.2867161267,
			"-0.003": 11.3467373608,
			"-0.002": 11.6501166249,
			"-0.001": 15.3288135438,
			"0.0": 16.9701547906,
			"0.001": 19.5151756686,
			"0.002": 21.6720357406,
			"0.003": 26.8085162665,
			"0.004": 20.1824868626,
			"0.005": 9.73009045952,
			"0.006": 3.15738481577,
			"0.007": 2.18764714125,
			"0.008": 1.70004155748,
			"0.009": 2.35467050958,
			"0.01": 4.01877248374,
			"0.011": 3.25155638285,
			"0.012": 0.421986311848,
			"0.013": 0.0,
			"0.014": 0.0,
			"0.015": 0.0,
			"0.016": 0.0,
			"0.017": 0.0,
			"0.018": 0.0,
			"0.019": 0.0,
			"0.02": 0.0,
			"0.021": 0.0,
			"0.022": 0.0,
			"0.023": 0.0,
			"0.024": 0.0,
			"0.025": 0.0
		}
	}
}
