{
	 "smiles": "OC(=O)CNC1=CC(=CC=C1)C(F)(F)F", 
	 "Tm": 397.15, 
	 "num_atms": 23, 
	 "gaussian": { 
		 "optdone": 1, 
		 "sigma_profile": "yes", 
		 "theory": "DFT", 
		 "functional": "B3LYP", 
		 "basiset": "6-31G**", 
		 "properties": { 
			 "R2extent": 3893.695, 
			 "electric_dipole_moment_norm": 6.61753435125, 
			 "electric_quadrupole_moment_norm": 13.391386078, 
			 "total_energy": -852.51481277, 
			 "HOMO_LUMO_gap": 0.20041, 
			 "cosmo_polarized_energy": -17.41, 
			 "cosmo_cavitation_energy": 29.02, 
			 "cosmo_dispersion_energy": -20.22, 
			 "cosmo_repulsion_energy": 1.54, 
			 "cosmo_total_nonelectrostatic_energy": 10.34, 
			 "SMD_solvation_energy": 7.1 
		},
		"coords": [
			{
				"x": 0.4240181514,
				"y": -0.5641311083,
				"z": -2.5464463603,
				"element": "O" 
			},
			{
				"x": 1.6421179081,
				"y": -0.1547630892,
				"z": -2.1538272175,
				"element": "C" 
			},
			{
				"x": 2.2526158122,
				"y": 0.7287508515,
				"z": -2.7020398654,
				"element": "O" 
			},
			{
				"x": 2.220331331,
				"y": -0.9381436365,
				"z": -0.9617121596,
				"element": "C" 
			},
			{
				"x": 1.2200642278,
				"y": -1.7525312402,
				"z": -0.2753104014,
				"element": "N" 
			},
			{
				"x": 0.5267075161,
				"y": -1.2409152304,
				"z": 0.8419238571,
				"element": "C" 
			},
			{
				"x": 0.3172859925,
				"y": 0.1350336051,
				"z": 1.0085751368,
				"element": "C" 
			},
			{
				"x": -0.4131055914,
				"y": 0.597147118,
				"z": 2.1058170431,
				"element": "C" 
			},
			{
				"x": -0.9496999684,
				"y": -0.2871475387,
				"z": 3.0418106189,
				"element": "C" 
			},
			{
				"x": -0.7449369479,
				"y": -1.6564831804,
				"z": 2.8681124302,
				"element": "C" 
			},
			{
				"x": -0.014096533,
				"y": -2.1318775822,
				"z": 1.7842535998,
				"element": "C" 
			},
			{
				"x": -0.5703246942,
				"y": 2.0821060231,
				"z": 2.3101579651,
				"element": "C" 
			},
			{
				"x": 0.4278304699,
				"y": 2.582054899,
				"z": 3.0755791182,
				"element": "F" 
			},
			{
				"x": -1.7304449277,
				"y": 2.3815454526,
				"z": 2.9339967574,
				"element": "F" 
			},
			{
				"x": -0.5476103381,
				"y": 2.7592437893,
				"z": 1.142409167,
				"element": "F" 
			},
			{
				"x": 0.1562107371,
				"y": -1.269196141,
				"z": -1.9223920222,
				"element": "H" 
			},
			{
				"x": 2.7210554658,
				"y": -0.2247721469,
				"z": -0.2979371945,
				"element": "H" 
			},
			{
				"x": 2.9939272049,
				"y": -1.5976349066,
				"z": -1.3672023783,
				"element": "H" 
			},
			{
				"x": 1.5073891148,
				"y": -2.7129170345,
				"z": -0.1402353571,
				"element": "H" 
			},
			{
				"x": 0.6980917542,
				"y": 0.8511193325,
				"z": 0.2900214604,
				"element": "H" 
			},
			{
				"x": -1.5215312412,
				"y": 0.0883452273,
				"z": 3.8822684536,
				"element": "H" 
			},
			{
				"x": -1.1558836161,
				"y": -2.3605689887,
				"z": 3.5851317769,
				"element": "H" 
			},
			{
				"x": 0.140188172,
				"y": -3.201264475,
				"z": 1.6604455718,
				"element": "H" 
			}
		],
		 "valence_orbital": [ 
			{
				"type": "occ",
				"energy": -0.3375,
				"method": "rhf"
			},
			{
				"type": "occ",
				"energy": -0.31362,
				"method": "rhf"
			},
			{
				"type": "occ",
				"energy": -0.27784,
				"method": "rhf"
			},
			{
				"type": "occ",
				"energy": -0.27339,
				"method": "rhf"
			},
			{
				"type": "occ",
				"energy": -0.23712,
				"method": "rhf"
			},
			{
				"type": "unocc",
				"energy": -0.03671,
				"method": "rhf"
			},
			{
				"type": "unocc",
				"energy": -0.01665,
				"method": "rhf"
			},
			{
				"type": "unocc",
				"energy": 0.0052,
				"method": "rhf"
			},
			{
				"type": "unocc",
				"energy": 0.05314,
				"method": "rhf"
			},
			{
				"type": "unocc",
				"energy": 0.0857,
				"method": "rhf"
			}
		],
		"cosmo_sigma_profile": { 
			"-0.025": 0.0,
			"-0.024": 0.0,
			"-0.023": 0.0,
			"-0.022": 0.0,
			"-0.021": 0.0,
			"-0.02": 0.0,
			"-0.019": 0.0,
			"-0.018": 0.0,
			"-0.017": 0.0,
			"-0.016": 0.0,
			"-0.015": 0.20071443453,
			"-0.014": 1.62789971809,
			"-0.013": 2.46112072028,
			"-0.012": 2.30920010354,
			"-0.011": 2.41473187117,
			"-0.01": 2.32914134817,
			"-0.009": 5.68548137284,
			"-0.008": 6.19990360429,
			"-0.007": 8.80263320952,
			"-0.006": 11.8831388641,
			"-0.005": 12.1806600468,
			"-0.004": 13.6422655642,
			"-0.003": 9.50648955882,
			"-0.002": 7.64410633452,
			"-0.001": 11.0283650411,
			"0.0": 11.5900011599,
			"0.001": 14.7713656955,
			"0.002": 22.8113631777,
			"0.003": 39.1138770712,
			"0.004": 13.990954195,
			"0.005": 3.87648725981,
			"0.006": 1.59956229864,
			"0.007": 1.68544742395,
			"0.008": 2.22151800086,
			"0.009": 4.41119898185,
			"0.01": 4.85004467304,
			"0.011": 4.43481092961,
			"0.012": 5.61339480492,
			"0.013": 2.68846674198,
			"0.014": 0.15658478909,
			"0.015": 0.0,
			"0.016": 0.0,
			"0.017": 0.0,
			"0.018": 0.0,
			"0.019": 0.0,
			"0.02": 0.0,
			"0.021": 0.0,
			"0.022": 0.0,
			"0.023": 0.0,
			"0.024": 0.0,
			"0.025": 0.0
		}
	}
}
