{
	 "smiles": "ClS(=O)(=O)C1=C(C=C(Br)C=C1)C#N", 
	 "Tm": 368.15, 
	 "num_atms": 16, 
	 "gaussian": { 
		 "optdone": 1, 
		 "sigma_profile": "yes", 
		 "theory": "DFT", 
		 "functional": "B3LYP", 
		 "basiset": "6-31G**", 
		 "properties": { 
			 "R2extent": 5754.0146, 
			 "electric_dipole_moment_norm": 6.02746238893, 
			 "electric_quadrupole_moment_norm": 6.03528718372, 
			 "total_energy": -3903.43266038, 
			 "HOMO_LUMO_gap": 0.18071, 
			 "cosmo_polarized_energy": -13.52, 
			 "cosmo_cavitation_energy": 27.89, 
			 "cosmo_dispersion_energy": -20.6, 
			 "cosmo_repulsion_energy": 1.59, 
			 "cosmo_total_nonelectrostatic_energy": 8.88, 
			 "SMD_solvation_energy": 3.53 
		},
		"coords": [
			{
				"x": -0.5877641712,
				"y": 3.6165452981,
				"z": 0.1871059629,
				"element": "Cl" 
			},
			{
				"x": 0.9932497123,
				"y": 2.3165587113,
				"z": 0.7255069537,
				"element": "S" 
			},
			{
				"x": 2.22750955,
				"y": 3.0730734948,
				"z": 0.5605070784,
				"element": "O" 
			},
			{
				"x": 0.6262284336,
				"y": 1.6921362061,
				"z": 1.9863407057,
				"element": "O" 
			},
			{
				"x": 0.9072552433,
				"y": 1.1003073703,
				"z": -0.5969498634,
				"element": "C" 
			},
			{
				"x": -0.1040138717,
				"y": 0.1200522061,
				"z": -0.6518271959,
				"element": "C" 
			},
			{
				"x": -0.0734631357,
				"y": -0.8175101006,
				"z": -1.6954379254,
				"element": "C" 
			},
			{
				"x": 0.9430083045,
				"y": -0.7659981924,
				"z": -2.6480422126,
				"element": "C" 
			},
			{
				"x": 0.9641109723,
				"y": -2.0467702841,
				"z": -4.0480990596,
				"element": "Br" 
			},
			{
				"x": 1.9386367928,
				"y": 0.2082809425,
				"z": -2.5884661087,
				"element": "C" 
			},
			{
				"x": 1.9153719334,
				"y": 1.1458415204,
				"z": -1.5568735269,
				"element": "C" 
			},
			{
				"x": -1.1829614016,
				"y": 0.029493275,
				"z": 0.2887085374,
				"element": "C" 
			},
			{
				"x": -2.0963344911,
				"y": -0.1036591255,
				"z": 0.9946781658,
				"element": "N" 
			},
			{
				"x": -0.8440389753,
				"y": -1.5764935318,
				"z": -1.7511495603,
				"element": "H" 
			},
			{
				"x": 2.7230262981,
				"y": 0.2364149335,
				"z": -3.335478466,
				"element": "H" 
			},
			{
				"x": 2.6800788063,
				"y": 1.9107272762,
				"z": -1.4890234851,
				"element": "H" 
			}
		],
		 "valence_orbital": [ 
			{
				"type": "occ",
				"energy": -0.34184,
				"method": "rhf"
			},
			{
				"type": "occ",
				"energy": -0.32719,
				"method": "rhf"
			},
			{
				"type": "occ",
				"energy": -0.32547,
				"method": "rhf"
			},
			{
				"type": "occ",
				"energy": -0.30828,
				"method": "rhf"
			},
			{
				"type": "occ",
				"energy": -0.29268,
				"method": "rhf"
			},
			{
				"type": "unocc",
				"energy": -0.11197,
				"method": "rhf"
			},
			{
				"type": "unocc",
				"energy": -0.08589,
				"method": "rhf"
			},
			{
				"type": "unocc",
				"energy": -0.06977,
				"method": "rhf"
			},
			{
				"type": "unocc",
				"energy": -0.0336,
				"method": "rhf"
			},
			{
				"type": "unocc",
				"energy": 0.00857,
				"method": "rhf"
			}
		],
		"cosmo_sigma_profile": { 
			"-0.025": 0.0,
			"-0.024": 0.0,
			"-0.023": 0.0,
			"-0.022": 0.0,
			"-0.021": 0.0,
			"-0.02": 0.0,
			"-0.019": 0.0,
			"-0.018": 0.0,
			"-0.017": 0.0,
			"-0.016": 0.0,
			"-0.015": 0.0,
			"-0.014": 0.0,
			"-0.013": 0.0,
			"-0.012": 0.0,
			"-0.011": 0.50788033932,
			"-0.01": 4.32782099063,
			"-0.009": 6.35311406663,
			"-0.008": 5.4881326496,
			"-0.007": 6.00979995131,
			"-0.006": 7.45344172521,
			"-0.005": 10.818609267,
			"-0.004": 16.9558125341,
			"-0.003": 20.3277332243,
			"-0.002": 21.112227916,
			"-0.001": 12.9426200335,
			"0.0": 12.5389206252,
			"0.001": 17.0381238402,
			"0.002": 21.9066144821,
			"0.003": 18.2164000184,
			"0.004": 5.35872356969,
			"0.005": 5.689249087,
			"0.006": 7.37327840801,
			"0.007": 13.3451709252,
			"0.008": 9.97712199157,
			"0.009": 3.44983530076,
			"0.01": 2.42907648809,
			"0.011": 2.19562610255,
			"0.012": 0.693877329614,
			"0.013": 0.0,
			"0.014": 0.0,
			"0.015": 0.0,
			"0.016": 0.0,
			"0.017": 0.0,
			"0.018": 0.0,
			"0.019": 0.0,
			"0.02": 0.0,
			"0.021": 0.0,
			"0.022": 0.0,
			"0.023": 0.0,
			"0.024": 0.0,
			"0.025": 0.0
		}
	}
}
