{
	 "smiles": "CN1C(=O)C(C2=NNC(=O)C2)=C(O)C2=CC=CC=C12", 
	 "Tm": 560.15, 
	 "num_atms": 30, 
	 "gaussian": { 
		 "optdone": 1, 
		 "sigma_profile": "yes", 
		 "theory": "DFT", 
		 "functional": "B3LYP", 
		 "basiset": "6-31G**", 
		 "properties": { 
			 "R2extent": 5714.2758, 
			 "electric_dipole_moment_norm": 8.04486651412, 
			 "electric_quadrupole_moment_norm": 17.4797922536, 
			 "total_energy": -891.935476456, 
			 "HOMO_LUMO_gap": 0.13725, 
			 "cosmo_polarized_energy": -23.3, 
			 "cosmo_cavitation_energy": 33.57, 
			 "cosmo_dispersion_energy": -25.37, 
			 "cosmo_repulsion_energy": 1.91, 
			 "cosmo_total_nonelectrostatic_energy": 10.11, 
			 "SMD_solvation_energy": 6.27 
		},
		"coords": [
			{
				"x": 2.0233231818,
				"y": 0.9139142911,
				"z": -1.9435989421,
				"element": "C" 
			},
			{
				"x": 0.9437321042,
				"y": 0.2515577399,
				"z": -1.2098026058,
				"element": "N" 
			},
			{
				"x": 1.1407558463,
				"y": 0.0596091679,
				"z": 0.1741966211,
				"element": "C" 
			},
			{
				"x": 2.1900136237,
				"y": 0.4413602286,
				"z": 0.6946966064,
				"element": "O" 
			},
			{
				"x": 0.051000009,
				"y": -0.5712937199,
				"z": 0.9288682086,
				"element": "C" 
			},
			{
				"x": 0.2261438918,
				"y": -0.7092704025,
				"z": 2.3784706613,
				"element": "C" 
			},
			{
				"x": -0.4285171439,
				"y": -1.5968132268,
				"z": 3.0702512568,
				"element": "N" 
			},
			{
				"x": -0.0777229722,
				"y": -1.4340852744,
				"z": 4.3937798929,
				"element": "N" 
			},
			{
				"x": 0.8236394894,
				"y": -0.4166311039,
				"z": 4.6460039831,
				"element": "C" 
			},
			{
				"x": 1.255753257,
				"y": -0.0872637351,
				"z": 5.7348777834,
				"element": "O" 
			},
			{
				"x": 1.1229003539,
				"y": 0.1359022968,
				"z": 3.2556327078,
				"element": "C" 
			},
			{
				"x": -1.0934754755,
				"y": -0.9682179814,
				"z": 0.2690468375,
				"element": "C" 
			},
			{
				"x": -2.1168599264,
				"y": -1.4964611042,
				"z": 0.9736843164,
				"element": "O" 
			},
			{
				"x": -1.2235609079,
				"y": -0.8283206647,
				"z": -1.1664681434,
				"element": "C" 
			},
			{
				"x": -2.3390427935,
				"y": -1.3179663077,
				"z": -1.8755319146,
				"element": "C" 
			},
			{
				"x": -2.4612029433,
				"y": -1.1452770988,
				"z": -3.24452901,
				"element": "C" 
			},
			{
				"x": -1.446028667,
				"y": -0.4773717575,
				"z": -3.9409172572,
				"element": "C" 
			},
			{
				"x": -0.3210566076,
				"y": -0.0085658763,
				"z": -3.2773424616,
				"element": "C" 
			},
			{
				"x": -0.1832181923,
				"y": -0.1840001725,
				"z": -1.8850520616,
				"element": "C" 
			},
			{
				"x": 2.4358536147,
				"y": 0.2484469341,
				"z": -2.7082744012,
				"element": "H" 
			},
			{
				"x": 2.7969284269,
				"y": 1.1606054297,
				"z": -1.2208341604,
				"element": "H" 
			},
			{
				"x": 1.6583014106,
				"y": 1.8287387483,
				"z": -2.4202886246,
				"element": "H" 
			},
			{
				"x": -0.4911826599,
				"y": -2.0397577762,
				"z": 5.08609353,
				"element": "H" 
			},
			{
				"x": 0.9071391703,
				"y": 1.2071172468,
				"z": 3.1955059861,
				"element": "H" 
			},
			{
				"x": 2.179426802,
				"y": 0.0224579571,
				"z": 3.003717931,
				"element": "H" 
			},
			{
				"x": -2.9209768495,
				"y": -1.4736480657,
				"z": 0.4384184859,
				"element": "H" 
			},
			{
				"x": -3.1131727997,
				"y": -1.8775602032,
				"z": -1.3564209729,
				"element": "H" 
			},
			{
				"x": -3.3274881348,
				"y": -1.5335037964,
				"z": -3.7695666406,
				"element": "H" 
			},
			{
				"x": -1.5276939621,
				"y": -0.3319122811,
				"z": -5.0138283501,
				"element": "H" 
			},
			{
				"x": 0.4559888541,
				"y": 0.4906105076,
				"z": -3.8408892623,
				"element": "H" 
			}
		],
		 "valence_orbital": [ 
			{
				"type": "occ",
				"energy": -0.26634,
				"method": "rhf"
			},
			{
				"type": "occ",
				"energy": -0.26362,
				"method": "rhf"
			},
			{
				"type": "occ",
				"energy": -0.23704,
				"method": "rhf"
			},
			{
				"type": "occ",
				"energy": -0.23491,
				"method": "rhf"
			},
			{
				"type": "occ",
				"energy": -0.20658,
				"method": "rhf"
			},
			{
				"type": "unocc",
				"energy": -0.06933,
				"method": "rhf"
			},
			{
				"type": "unocc",
				"energy": -0.02518,
				"method": "rhf"
			},
			{
				"type": "unocc",
				"energy": -0.00248,
				"method": "rhf"
			},
			{
				"type": "unocc",
				"energy": 0.01082,
				"method": "rhf"
			},
			{
				"type": "unocc",
				"energy": 0.04831,
				"method": "rhf"
			}
		],
		"cosmo_sigma_profile": { 
			"-0.025": 0.0,
			"-0.024": 0.0,
			"-0.023": 0.0,
			"-0.022": 0.0,
			"-0.021": 0.0,
			"-0.02": 0.00586270802419,
			"-0.019": 0.423275738068,
			"-0.018": 1.15815852691,
			"-0.017": 0.633164079945,
			"-0.016": 1.29487378632,
			"-0.015": 2.49421916272,
			"-0.014": 1.80111036755,
			"-0.013": 2.15154893401,
			"-0.012": 1.65700097991,
			"-0.011": 1.45033093738,
			"-0.01": 2.48315873699,
			"-0.009": 2.13843252513,
			"-0.008": 2.96719458444,
			"-0.007": 9.6590734353,
			"-0.006": 17.7927665274,
			"-0.005": 17.4360115148,
			"-0.004": 15.901696588,
			"-0.003": 16.6673688107,
			"-0.002": 20.097077927,
			"-0.001": 19.3186365767,
			"0.0": 17.8905777147,
			"0.001": 16.9321380267,
			"0.002": 15.6856754564,
			"0.003": 14.3715867595,
			"0.004": 12.165226888,
			"0.005": 4.32182149975,
			"0.006": 4.60594187176,
			"0.007": 5.21726886112,
			"0.008": 4.97082234682,
			"0.009": 3.38209768128,
			"0.01": 4.08391899429,
			"0.011": 5.67959546279,
			"0.012": 6.36344376911,
			"0.013": 9.79228879646,
			"0.014": 3.8172755578,
			"0.015": 0.625031920651,
			"0.016": 1.21353611344,
			"0.017": 0.216943850113,
			"0.018": 0.0,
			"0.019": 0.0,
			"0.02": 0.0,
			"0.021": 0.0,
			"0.022": 0.0,
			"0.023": 0.0,
			"0.024": 0.0,
			"0.025": 0.0
		}
	}
}
