{
	 "smiles": "BrC1=C(C=CC=C1)C1=CC=C(O1)C=C1N=C(OC1=O)C1=CC=CC=C1", 
	 "Tm": 433.15, 
	 "num_atms": 37, 
	 "gaussian": { 
		 "optdone": 1, 
		 "sigma_profile": "yes", 
		 "theory": "DFT", 
		 "functional": "B3LYP", 
		 "basiset": "6-31G**", 
		 "properties": { 
			 "R2extent": 15195.0498, 
			 "electric_dipole_moment_norm": 2.59939246171, 
			 "electric_quadrupole_moment_norm": 30.1050864461, 
			 "total_energy": -3621.16893718, 
			 "HOMO_LUMO_gap": 0.11186, 
			 "cosmo_polarized_energy": -16.77, 
			 "cosmo_cavitation_energy": 45.88, 
			 "cosmo_dispersion_energy": -32.83, 
			 "cosmo_repulsion_energy": 2.43, 
			 "cosmo_total_nonelectrostatic_energy": 15.48, 
			 "SMD_solvation_energy": 6.35 
		},
		"coords": [
			{
				"x": -2.1650764352,
				"y": -3.5705519906,
				"z": 0.7844660893,
				"element": "Br" 
			},
			{
				"x": -1.6104412336,
				"y": -4.439439744,
				"z": -0.8187004771,
				"element": "C" 
			},
			{
				"x": -0.3701307469,
				"y": -4.1652327936,
				"z": -1.4297076938,
				"element": "C" 
			},
			{
				"x": -0.0244584916,
				"y": -4.9223242044,
				"z": -2.5675660174,
				"element": "C" 
			},
			{
				"x": -0.8695903286,
				"y": -5.8982324139,
				"z": -3.0829610743,
				"element": "C" 
			},
			{
				"x": -2.1017134018,
				"y": -6.1362344596,
				"z": -2.4721003767,
				"element": "C" 
			},
			{
				"x": -2.4679370528,
				"y": -5.4078902239,
				"z": -1.341955886,
				"element": "C" 
			},
			{
				"x": 0.5992404184,
				"y": -3.1752569561,
				"z": -0.9605422107,
				"element": "C" 
			},
			{
				"x": 1.9772481906,
				"y": -3.2271531753,
				"z": -0.8947457416,
				"element": "C" 
			},
			{
				"x": 2.4022632827,
				"y": -1.9762682408,
				"z": -0.3967031634,
				"element": "C" 
			},
			{
				"x": 1.2606902003,
				"y": -1.2167408384,
				"z": -0.1923241417,
				"element": "C" 
			},
			{
				"x": 0.1651354219,
				"y": -1.9579629975,
				"z": -0.5413664232,
				"element": "O" 
			},
			{
				"x": 1.1547676392,
				"y": 0.113768586,
				"z": 0.2955374596,
				"element": "C" 
			},
			{
				"x": 0.0884182075,
				"y": 0.9487338399,
				"z": 0.4745782766,
				"element": "C" 
			},
			{
				"x": 0.2550742405,
				"y": 2.2286404657,
				"z": 1.0075562117,
				"element": "N" 
			},
			{
				"x": -0.9265613881,
				"y": 2.7562559358,
				"z": 1.0436666035,
				"element": "C" 
			},
			{
				"x": -1.9466333296,
				"y": 1.965550245,
				"z": 0.572554812,
				"element": "O" 
			},
			{
				"x": -1.3508013676,
				"y": 0.7508293612,
				"z": 0.1688456545,
				"element": "C" 
			},
			{
				"x": -2.0017172051,
				"y": -0.1367421541,
				"z": -0.3107006522,
				"element": "O" 
			},
			{
				"x": -1.276490885,
				"y": 4.0863578802,
				"z": 1.5278830636,
				"element": "C" 
			},
			{
				"x": -2.6075990962,
				"y": 4.5335929281,
				"z": 1.5080319123,
				"element": "C" 
			},
			{
				"x": -2.9184039152,
				"y": 5.808753412,
				"z": 1.9758987662,
				"element": "C" 
			},
			{
				"x": -1.9104808524,
				"y": 6.6430846112,
				"z": 2.4642016257,
				"element": "C" 
			},
			{
				"x": -0.5836633007,
				"y": 6.1995515589,
				"z": 2.48488732,
				"element": "C" 
			},
			{
				"x": -0.2640613215,
				"y": 4.9285708598,
				"z": 2.0201939739,
				"element": "C" 
			},
			{
				"x": 0.9192205833,
				"y": -4.7085049132,
				"z": -3.059377776,
				"element": "H" 
			},
			{
				"x": -0.5749045307,
				"y": -6.4579642381,
				"z": -3.9650898876,
				"element": "H" 
			},
			{
				"x": -2.7783114219,
				"y": -6.8874475889,
				"z": -2.8680558879,
				"element": "H" 
			},
			{
				"x": -3.4153195076,
				"y": -5.5942746401,
				"z": -0.8494943315,
				"element": "H" 
			},
			{
				"x": 2.5919015557,
				"y": -4.0788535926,
				"z": -1.1466937376,
				"element": "H" 
			},
			{
				"x": 3.4152653584,
				"y": -1.6554903038,
				"z": -0.1987969541,
				"element": "H" 
			},
			{
				"x": 2.1107314016,
				"y": 0.5465946367,
				"z": 0.579870224,
				"element": "H" 
			},
			{
				"x": -3.3842200758,
				"y": 3.8797341378,
				"z": 1.1271037676,
				"element": "H" 
			},
			{
				"x": -3.9486284793,
				"y": 6.151658419,
				"z": 1.9592672653,
				"element": "H" 
			},
			{
				"x": -2.1565104134,
				"y": 7.6365157372,
				"z": 2.8280774233,
				"element": "H" 
			},
			{
				"x": 0.2004037769,
				"y": 6.8479650517,
				"z": 2.8646361618,
				"element": "H" 
			},
			{
				"x": 0.7585945034,
				"y": 4.5671078026,
				"z": 2.0285258216,
				"element": "H" 
			}
		],
		 "valence_orbital": [ 
			{
				"type": "occ",
				"energy": -0.26257,
				"method": "rhf"
			},
			{
				"type": "occ",
				"energy": -0.2591,
				"method": "rhf"
			},
			{
				"type": "occ",
				"energy": -0.25415,
				"method": "rhf"
			},
			{
				"type": "occ",
				"energy": -0.24136,
				"method": "rhf"
			},
			{
				"type": "occ",
				"energy": -0.20057,
				"method": "rhf"
			},
			{
				"type": "unocc",
				"energy": -0.08871,
				"method": "rhf"
			},
			{
				"type": "unocc",
				"energy": -0.03597,
				"method": "rhf"
			},
			{
				"type": "unocc",
				"energy": -0.02365,
				"method": "rhf"
			},
			{
				"type": "unocc",
				"energy": -0.01775,
				"method": "rhf"
			},
			{
				"type": "unocc",
				"energy": -0.00755,
				"method": "rhf"
			}
		],
		"cosmo_sigma_profile": { 
			"-0.025": 0.0,
			"-0.024": 0.0,
			"-0.023": 0.0,
			"-0.022": 0.0,
			"-0.021": 0.0,
			"-0.02": 0.0,
			"-0.019": 0.0,
			"-0.018": 0.0,
			"-0.017": 0.0,
			"-0.016": 0.0,
			"-0.015": 0.0,
			"-0.014": 0.0,
			"-0.013": 0.0,
			"-0.012": 0.0,
			"-0.011": 0.0,
			"-0.01": 0.0,
			"-0.009": 2.69084675763,
			"-0.008": 6.44345425317,
			"-0.007": 12.8989638981,
			"-0.006": 23.2013464313,
			"-0.005": 25.9601517265,
			"-0.004": 24.5300388322,
			"-0.003": 21.1335250691,
			"-0.002": 20.802546191,
			"-0.001": 23.2963086199,
			"0.0": 34.436676201,
			"0.001": 37.2032122505,
			"0.002": 38.747742368,
			"0.003": 34.6277474856,
			"0.004": 26.7106328521,
			"0.005": 8.68822048573,
			"0.006": 5.36017161995,
			"0.007": 5.5514014019,
			"0.008": 4.22350777736,
			"0.009": 3.79490640212,
			"0.01": 5.329693961,
			"0.011": 5.34064278828,
			"0.012": 3.20540390337,
			"0.013": 0.185450074797,
			"0.014": 0.0481653695993,
			"0.015": 0.000677133853372,
			"0.016": 0.0,
			"0.017": 0.0,
			"0.018": 0.0,
			"0.019": 0.0,
			"0.02": 0.0,
			"0.021": 0.0,
			"0.022": 0.0,
			"0.023": 0.0,
			"0.024": 0.0,
			"0.025": 0.0
		}
	}
}
