{
	 "smiles": "OC1CCCCCCCCCCCCCC1", 
	 "Tm": 353.65, 
	 "num_atms": 46, 
	 "gaussian": { 
		 "optdone": 1, 
		 "sigma_profile": "yes", 
		 "theory": "DFT", 
		 "functional": "B3LYP", 
		 "basiset": "6-31G**", 
		 "properties": { 
			 "R2extent": 5292.5581, 
			 "electric_dipole_moment_norm": 1.44414565055, 
			 "electric_quadrupole_moment_norm": 6.12346185258, 
			 "total_energy": -664.91528046, 
			 "HOMO_LUMO_gap": 0.32869, 
			 "cosmo_polarized_energy": -6.02, 
			 "cosmo_cavitation_energy": 40.07, 
			 "cosmo_dispersion_energy": -27.89, 
			 "cosmo_repulsion_energy": 2.16, 
			 "cosmo_total_nonelectrostatic_energy": 14.34, 
			 "SMD_solvation_energy": 4.59 
		},
		"coords": [
			{
				"x": 1.2053710804,
				"y": 1.1027113311,
				"z": -3.2093605784,
				"element": "O" 
			},
			{
				"x": 0.524814108,
				"y": 1.4533952128,
				"z": -2.0022036672,
				"element": "C" 
			},
			{
				"x": 1.3157770678,
				"y": 0.797627734,
				"z": -0.8619570217,
				"element": "C" 
			},
			{
				"x": 1.4349121599,
				"y": -0.7436771481,
				"z": -0.9246404458,
				"element": "C" 
			},
			{
				"x": 1.4237217491,
				"y": -1.4114260546,
				"z": 0.461845397,
				"element": "C" 
			},
			{
				"x": 2.6247783202,
				"y": -1.0892906221,
				"z": 1.3758549899,
				"element": "C" 
			},
			{
				"x": 2.3127837635,
				"y": -1.0117057964,
				"z": 2.8854235132,
				"element": "C" 
			},
			{
				"x": 1.6161554643,
				"y": -2.2311545709,
				"z": 3.5338885539,
				"element": "C" 
			},
			{
				"x": 0.0701104776,
				"y": -2.2983910581,
				"z": 3.5094651988,
				"element": "C" 
			},
			{
				"x": -0.6544339762,
				"y": -1.1327488912,
				"z": 4.2318351056,
				"element": "C" 
			},
			{
				"x": -1.1628670839,
				"y": 0.0090933643,
				"z": 3.3267437147,
				"element": "C" 
			},
			{
				"x": -2.4661716868,
				"y": -0.3048967,
				"z": 2.5667234275,
				"element": "C" 
			},
			{
				"x": -2.754886235,
				"y": 0.6879564111,
				"z": 1.4203272771,
				"element": "C" 
			},
			{
				"x": -1.9530116735,
				"y": 0.3501176853,
				"z": 0.1532213715,
				"element": "C" 
			},
			{
				"x": -1.8627008422,
				"y": 1.4607956541,
				"z": -0.9026106523,
				"element": "C" 
			},
			{
				"x": -0.9737767845,
				"y": 1.0960876142,
				"z": -2.1134073399,
				"element": "C" 
			},
			{
				"x": 0.714009418,
				"y": 1.4824814343,
				"z": -3.949316488,
				"element": "H" 
			},
			{
				"x": 0.5836136612,
				"y": 2.5457230186,
				"z": -1.8445388532,
				"element": "H" 
			},
			{
				"x": 2.314306835,
				"y": 1.2486836161,
				"z": -0.8693033185,
				"element": "H" 
			},
			{
				"x": 0.8563665072,
				"y": 1.1070580653,
				"z": 0.0844626686,
				"element": "H" 
			},
			{
				"x": 2.3387737192,
				"y": -1.0186442272,
				"z": -1.4799609877,
				"element": "H" 
			},
			{
				"x": 0.6003862793,
				"y": -1.1551824009,
				"z": -1.5034741333,
				"element": "H" 
			},
			{
				"x": 0.5042981241,
				"y": -1.1017084719,
				"z": 0.965190535,
				"element": "H" 
			},
			{
				"x": 1.3377677517,
				"y": -2.4986949552,
				"z": 0.340268324,
				"element": "H" 
			},
			{
				"x": 3.0614754942,
				"y": -0.1253359132,
				"z": 1.0849771852,
				"element": "H" 
			},
			{
				"x": 3.4151974807,
				"y": -1.833200973,
				"z": 1.2073709242,
				"element": "H" 
			},
			{
				"x": 1.7240059873,
				"y": -0.1076065406,
				"z": 3.0843650139,
				"element": "H" 
			},
			{
				"x": 3.2670264995,
				"y": -0.8528964177,
				"z": 3.4043141262,
				"element": "H" 
			},
			{
				"x": 2.015638249,
				"y": -3.15201452,
				"z": 3.0864316847,
				"element": "H" 
			},
			{
				"x": 1.9163762423,
				"y": -2.2650686171,
				"z": 4.5900665697,
				"element": "H" 
			},
			{
				"x": -0.2985715722,
				"y": -2.3863947649,
				"z": 2.4815971904,
				"element": "H" 
			},
			{
				"x": -0.2083089502,
				"y": -3.2409969987,
				"z": 3.9973924628,
				"element": "H" 
			},
			{
				"x": -1.5125417589,
				"y": -1.5303684812,
				"z": 4.7898954827,
				"element": "H" 
			},
			{
				"x": 0.019336672,
				"y": -0.7153479904,
				"z": 4.9918064476,
				"element": "H" 
			},
			{
				"x": -1.3335213389,
				"y": 0.9050940441,
				"z": 3.9385624586,
				"element": "H" 
			},
			{
				"x": -0.3787299721,
				"y": 0.2855157741,
				"z": 2.6125298347,
				"element": "H" 
			},
			{
				"x": -3.296737887,
				"y": -0.3061248629,
				"z": 3.284340514,
				"element": "H" 
			},
			{
				"x": -2.4264732938,
				"y": -1.32236912,
				"z": 2.1529535618,
				"element": "H" 
			},
			{
				"x": -2.5112942955,
				"y": 1.7059335315,
				"z": 1.7569538991,
				"element": "H" 
			},
			{
				"x": -3.8271662233,
				"y": 0.6952648613,
				"z": 1.1864100847,
				"element": "H" 
			},
			{
				"x": -0.9417584937,
				"y": 0.0699333009,
				"z": 0.4518962921,
				"element": "H" 
			},
			{
				"x": -2.3829226775,
				"y": -0.5491802752,
				"z": -0.3098062038,
				"element": "H" 
			},
			{
				"x": -2.873491035,
				"y": 1.6979432257,
				"z": -1.2585115689,
				"element": "H" 
			},
			{
				"x": -1.4884815073,
				"y": 2.3839022259,
				"z": -0.4364311904,
				"element": "H" 
			},
			{
				"x": -1.3478687249,
				"y": 1.6311124814,
				"z": -2.998539127,
				"element": "H" 
			},
			{
				"x": -1.0756870994,
				"y": 0.0291957855,
				"z": -2.3473522331,
				"element": "H" 
			}
		],
		 "valence_orbital": [ 
			{
				"type": "occ",
				"energy": -0.29704,
				"method": "rhf"
			},
			{
				"type": "occ",
				"energy": -0.29495,
				"method": "rhf"
			},
			{
				"type": "occ",
				"energy": -0.29337,
				"method": "rhf"
			},
			{
				"type": "occ",
				"energy": -0.28969,
				"method": "rhf"
			},
			{
				"type": "occ",
				"energy": -0.25652,
				"method": "rhf"
			},
			{
				"type": "unocc",
				"energy": 0.07217,
				"method": "rhf"
			},
			{
				"type": "unocc",
				"energy": 0.08465,
				"method": "rhf"
			},
			{
				"type": "unocc",
				"energy": 0.09237,
				"method": "rhf"
			},
			{
				"type": "unocc",
				"energy": 0.09666,
				"method": "rhf"
			},
			{
				"type": "unocc",
				"energy": 0.09986,
				"method": "rhf"
			}
		],
		"cosmo_sigma_profile": { 
			"-0.025": 0.0,
			"-0.024": 0.0,
			"-0.023": 0.0,
			"-0.022": 0.0,
			"-0.021": 0.0,
			"-0.02": 0.0,
			"-0.019": 0.0,
			"-0.018": 0.0,
			"-0.017": 0.0,
			"-0.016": 0.0,
			"-0.015": 0.0105490789695,
			"-0.014": 1.38673551215,
			"-0.013": 0.484818719571,
			"-0.012": 0.771581442951,
			"-0.011": 1.23290327957,
			"-0.01": 1.10354451832,
			"-0.009": 1.22489268376,
			"-0.008": 0.614566575183,
			"-0.007": 0.787091216262,
			"-0.006": 1.35661912494,
			"-0.005": 1.41216681414,
			"-0.004": 2.5878017906,
			"-0.003": 6.01858486093,
			"-0.002": 39.4501194946,
			"-0.001": 67.0036961911,
			"0.0": 78.1541742363,
			"0.001": 58.5558380357,
			"0.002": 24.1394795655,
			"0.003": 1.49774712665,
			"0.004": 1.59855770979,
			"0.005": 1.94677918229,
			"0.006": 1.31149227934,
			"0.007": 1.49696861816,
			"0.008": 0.822930761142,
			"0.009": 1.14070134603,
			"0.01": 2.38461562248,
			"0.011": 1.15409887135,
			"0.012": 1.50231696639,
			"0.013": 1.28951635338,
			"0.014": 1.82773856262,
			"0.015": 0.914107848609,
			"0.016": 0.041400410224,
			"0.017": 0.0,
			"0.018": 0.0,
			"0.019": 0.0,
			"0.02": 0.0,
			"0.021": 0.0,
			"0.022": 0.0,
			"0.023": 0.0,
			"0.024": 0.0,
			"0.025": 0.0
		}
	}
}
