{
	 "smiles": "CC1=CC(O)=C(C)C=C1N", 
	 "Tm": 515.65, 
	 "num_atms": 21, 
	 "gaussian": { 
		 "optdone": 1, 
		 "sigma_profile": "yes", 
		 "theory": "DFT", 
		 "functional": "B3LYP", 
		 "basiset": "6-31G**", 
		 "properties": { 
			 "R2extent": 1624.798, 
			 "electric_dipole_moment_norm": 2.14747829093, 
			 "electric_quadrupole_moment_norm": 11.2006805749, 
			 "total_energy": -441.465802053, 
			 "HOMO_LUMO_gap": 0.19077, 
			 "cosmo_polarized_energy": -11.57, 
			 "cosmo_cavitation_energy": 23.65, 
			 "cosmo_dispersion_energy": -17.69, 
			 "cosmo_repulsion_energy": 1.43, 
			 "cosmo_total_nonelectrostatic_energy": 7.39, 
			 "SMD_solvation_energy": 4.15 
		},
		"coords": [
			{
				"x": -0.8146527527,
				"y": -2.0992991616,
				"z": 1.6153687036,
				"element": "C" 
			},
			{
				"x": -0.4619289931,
				"y": -0.8470354205,
				"z": 0.8519251569,
				"element": "C" 
			},
			{
				"x": 0.3944753646,
				"y": 0.1100970593,
				"z": 1.3969475395,
				"element": "C" 
			},
			{
				"x": 0.7154952734,
				"y": 1.2826035841,
				"z": 0.7118565192,
				"element": "C" 
			},
			{
				"x": 1.5677677577,
				"y": 2.1621448617,
				"z": 1.3390582181,
				"element": "O" 
			},
			{
				"x": 0.1773217085,
				"y": 1.5256241559,
				"z": -0.5603973895,
				"element": "C" 
			},
			{
				"x": 0.5166705429,
				"y": 2.7911080755,
				"z": -1.3125378175,
				"element": "C" 
			},
			{
				"x": -0.6734921603,
				"y": 0.5602188645,
				"z": -1.1089188737,
				"element": "C" 
			},
			{
				"x": -1.0049931028,
				"y": -0.6184813897,
				"z": -0.4309295,
				"element": "C" 
			},
			{
				"x": -1.9214681862,
				"y": -1.5339433246,
				"z": -0.9864694551,
				"element": "N" 
			},
			{
				"x": -0.376725278,
				"y": -2.0874246683,
				"z": 2.6164720358,
				"element": "H" 
			},
			{
				"x": -0.4485089036,
				"y": -3.0063201594,
				"z": 1.1125158533,
				"element": "H" 
			},
			{
				"x": -1.9010354211,
				"y": -2.2094682923,
				"z": 1.7194121059,
				"element": "H" 
			},
			{
				"x": 0.8268685844,
				"y": -0.0431109504,
				"z": 2.3814504701,
				"element": "H" 
			},
			{
				"x": 1.6981792014,
				"y": 2.9331848589,
				"z": 0.774268046,
				"element": "H" 
			},
			{
				"x": 0.0188397466,
				"y": 2.814091785,
				"z": -2.2849892185,
				"element": "H" 
			},
			{
				"x": 0.2000232403,
				"y": 3.6924174947,
				"z": -0.7692573463,
				"element": "H" 
			},
			{
				"x": 1.5953157341,
				"y": 2.8839724925,
				"z": -1.5012815554,
				"element": "H" 
			},
			{
				"x": -1.0945982714,
				"y": 0.7367573439,
				"z": -2.0971839508,
				"element": "H" 
			},
			{
				"x": -1.7258694166,
				"y": -2.5015865419,
				"z": -0.7625365807,
				"element": "H" 
			},
			{
				"x": -2.0406846681,
				"y": -1.4250506675,
				"z": -1.9856729607,
				"element": "H" 
			}
		],
		 "valence_orbital": [ 
			{
				"type": "occ",
				"energy": -0.33757,
				"method": "rhf"
			},
			{
				"type": "occ",
				"energy": -0.32355,
				"method": "rhf"
			},
			{
				"type": "occ",
				"energy": -0.27142,
				"method": "rhf"
			},
			{
				"type": "occ",
				"energy": -0.2291,
				"method": "rhf"
			},
			{
				"type": "occ",
				"energy": -0.17791,
				"method": "rhf"
			},
			{
				"type": "unocc",
				"energy": 0.01286,
				"method": "rhf"
			},
			{
				"type": "unocc",
				"energy": 0.03566,
				"method": "rhf"
			},
			{
				"type": "unocc",
				"energy": 0.0722,
				"method": "rhf"
			},
			{
				"type": "unocc",
				"energy": 0.08227,
				"method": "rhf"
			},
			{
				"type": "unocc",
				"energy": 0.11147,
				"method": "rhf"
			}
		],
		"cosmo_sigma_profile": { 
			"-0.025": 0.0,
			"-0.024": 0.0,
			"-0.023": 0.0,
			"-0.022": 0.0,
			"-0.021": 0.0,
			"-0.02": 0.0,
			"-0.019": 0.0,
			"-0.018": 0.0,
			"-0.017": 0.0,
			"-0.016": 0.017752289939,
			"-0.015": 0.488475066065,
			"-0.014": 0.69294651544,
			"-0.013": 0.806124224408,
			"-0.012": 1.72830019364,
			"-0.011": 3.13740180259,
			"-0.01": 3.182253361,
			"-0.009": 3.76526714747,
			"-0.008": 5.472422111,
			"-0.007": 4.70585529611,
			"-0.006": 3.4769360783,
			"-0.005": 9.53281874955,
			"-0.004": 14.485999174,
			"-0.003": 13.1754270316,
			"-0.002": 13.9899838255,
			"-0.001": 12.368974298,
			"0.0": 16.7423312649,
			"0.001": 11.4336688801,
			"0.002": 5.84487012818,
			"0.003": 7.61822250043,
			"0.004": 7.29504482844,
			"0.005": 8.52410247778,
			"0.006": 10.3781432737,
			"0.007": 10.3210302756,
			"0.008": 3.37902858855,
			"0.009": 2.1824548187,
			"0.01": 2.4120897869,
			"0.011": 2.7670643946,
			"0.012": 2.65218898735,
			"0.013": 1.08603068541,
			"0.014": 0.707487466687,
			"0.015": 0.651761626068,
			"0.016": 0.455460639878,
			"0.017": 0.0278359330775,
			"0.018": 0.0,
			"0.019": 0.0,
			"0.02": 0.0,
			"0.021": 0.0,
			"0.022": 0.0,
			"0.023": 0.0,
			"0.024": 0.0,
			"0.025": 0.0
		}
	}
}
