{
	 "smiles": "NC(=O)CC1=C(Cl)C=CC=C1", 
	 "Tm": 452.15, 
	 "num_atms": 19, 
	 "gaussian": { 
		 "optdone": 1, 
		 "sigma_profile": "yes", 
		 "theory": "DFT", 
		 "functional": "B3LYP", 
		 "basiset": "6-31G**", 
		 "properties": { 
			 "R2extent": 2181.2721, 
			 "electric_dipole_moment_norm": 4.76675504405, 
			 "electric_quadrupole_moment_norm": 10.3203203104, 
			 "total_energy": -899.861186445, 
			 "HOMO_LUMO_gap": 0.21314, 
			 "cosmo_polarized_energy": -13.24, 
			 "cosmo_cavitation_energy": 24.78, 
			 "cosmo_dispersion_energy": -17.88, 
			 "cosmo_repulsion_energy": 1.46, 
			 "cosmo_total_nonelectrostatic_energy": 8.35, 
			 "SMD_solvation_energy": 4.68 
		},
		"coords": [
			{
				"x": -2.3373631795,
				"y": 0.0913147971,
				"z": 1.2084934728,
				"element": "N" 
			},
			{
				"x": -1.7412774679,
				"y": 1.1843930627,
				"z": 1.766168808,
				"element": "C" 
			},
			{
				"x": -2.0083777972,
				"y": 1.5890297292,
				"z": 2.8860483365,
				"element": "O" 
			},
			{
				"x": -0.7428364367,
				"y": 1.9500990951,
				"z": 0.8737903162,
				"element": "C" 
			},
			{
				"x": -0.2688903946,
				"y": 1.2727002352,
				"z": -0.3884121615,
				"element": "C" 
			},
			{
				"x": 0.7488821714,
				"y": 0.3031969679,
				"z": -0.395952907,
				"element": "C" 
			},
			{
				"x": 1.5297482407,
				"y": -0.1657704894,
				"z": 1.1118847499,
				"element": "Cl" 
			},
			{
				"x": 1.1747363723,
				"y": -0.3151972361,
				"z": -1.5720434471,
				"element": "C" 
			},
			{
				"x": 0.5757997738,
				"y": 0.0254228726,
				"z": -2.7841343193,
				"element": "C" 
			},
			{
				"x": -0.4414188048,
				"y": 0.9801700761,
				"z": -2.8119155476,
				"element": "C" 
			},
			{
				"x": -0.8504941847,
				"y": 1.5897666971,
				"z": -1.6271754444,
				"element": "C" 
			},
			{
				"x": -2.9440474962,
				"y": -0.456734904,
				"z": 1.7993726325,
				"element": "H" 
			},
			{
				"x": -2.0167723569,
				"y": -0.3015606441,
				"z": 0.338234401,
				"element": "H" 
			},
			{
				"x": 0.095434776,
				"y": 2.2048481555,
				"z": 1.5265483629,
				"element": "H" 
			},
			{
				"x": -1.237182779,
				"y": 2.8935895165,
				"z": 0.6184840807,
				"element": "H" 
			},
			{
				"x": 1.9681492628,
				"y": -1.0532481703,
				"z": -1.5302979171,
				"element": "H" 
			},
			{
				"x": 0.9073096129,
				"y": -0.4543759277,
				"z": -3.6999551635,
				"element": "H" 
			},
			{
				"x": -0.9113582716,
				"y": 1.2534072928,
				"z": -3.751680141,
				"element": "H" 
			},
			{
				"x": -1.6379410407,
				"y": 2.3385488739,
				"z": -1.6507581119,
				"element": "H" 
			}
		],
		 "valence_orbital": [ 
			{
				"type": "occ",
				"energy": -0.31818,
				"method": "rhf"
			},
			{
				"type": "occ",
				"energy": -0.27545,
				"method": "rhf"
			},
			{
				"type": "occ",
				"energy": -0.26519,
				"method": "rhf"
			},
			{
				"type": "occ",
				"energy": -0.25755,
				"method": "rhf"
			},
			{
				"type": "occ",
				"energy": -0.23814,
				"method": "rhf"
			},
			{
				"type": "unocc",
				"energy": -0.025,
				"method": "rhf"
			},
			{
				"type": "unocc",
				"energy": -0.02326,
				"method": "rhf"
			},
			{
				"type": "unocc",
				"energy": 0.02311,
				"method": "rhf"
			},
			{
				"type": "unocc",
				"energy": 0.0346,
				"method": "rhf"
			},
			{
				"type": "unocc",
				"energy": 0.08717,
				"method": "rhf"
			}
		],
		"cosmo_sigma_profile": { 
			"-0.025": 0.0,
			"-0.024": 0.0,
			"-0.023": 0.0,
			"-0.022": 0.0,
			"-0.021": 0.0,
			"-0.02": 0.0,
			"-0.019": 0.0,
			"-0.018": 0.0,
			"-0.017": 0.0,
			"-0.016": 0.0,
			"-0.015": 0.0,
			"-0.014": 0.611845866043,
			"-0.013": 1.60382079325,
			"-0.012": 1.71433420021,
			"-0.011": 2.00708773647,
			"-0.01": 2.05883824082,
			"-0.009": 1.84470047038,
			"-0.008": 1.94860923346,
			"-0.007": 8.96130522275,
			"-0.006": 12.1562577046,
			"-0.005": 13.2143279057,
			"-0.004": 12.9602411072,
			"-0.003": 10.5930547644,
			"-0.002": 13.3232626974,
			"-0.001": 12.1926695247,
			"0.0": 11.3259557709,
			"0.001": 14.0051007934,
			"0.002": 16.9697633312,
			"0.003": 18.2500173821,
			"0.004": 15.3508604119,
			"0.005": 6.97232504536,
			"0.006": 1.45859398129,
			"0.007": 1.54803362761,
			"0.008": 1.65609258919,
			"0.009": 1.20140344606,
			"0.01": 0.631627527085,
			"0.011": 1.09201715874,
			"0.012": 2.29963318352,
			"0.013": 3.51663814058,
			"0.014": 5.72307760385,
			"0.015": 2.09872401784,
			"0.016": 0.0,
			"0.017": 0.0,
			"0.018": 0.0,
			"0.019": 0.0,
			"0.02": 0.0,
			"0.021": 0.0,
			"0.022": 0.0,
			"0.023": 0.0,
			"0.024": 0.0,
			"0.025": 0.0
		}
	}
}
