{
	 "smiles": "CCC1(CC(C)=C)C(=O)NC(=S)NC1=O", 
	 "Tm": 433.15, 
	 "num_atms": 29, 
	 "gaussian": { 
		 "optdone": 1, 
		 "sigma_profile": "yes", 
		 "theory": "DFT", 
		 "functional": "B3LYP", 
		 "basiset": "6-31G**", 
		 "properties": { 
			 "R2extent": 4768.1948, 
			 "electric_dipole_moment_norm": 1.88839844577, 
			 "electric_quadrupole_moment_norm": 10.331652288, 
			 "total_energy": -1047.66439718, 
			 "HOMO_LUMO_gap": 0.16029, 
			 "cosmo_polarized_energy": -14.55, 
			 "cosmo_cavitation_energy": 32.52, 
			 "cosmo_dispersion_energy": -23.34, 
			 "cosmo_repulsion_energy": 1.77, 
			 "cosmo_total_nonelectrostatic_energy": 10.96, 
			 "SMD_solvation_energy": 6.25 
		},
		"coords": [
			{
				"x": -3.0616608816,
				"y": -1.5105954406,
				"z": -0.5269590722,
				"element": "C" 
			},
			{
				"x": -2.027054789,
				"y": -1.5901073987,
				"z": 0.5979748182,
				"element": "C" 
			},
			{
				"x": -0.5873937654,
				"y": -1.0589873022,
				"z": 0.228212294,
				"element": "C" 
			},
			{
				"x": -0.5626469508,
				"y": 0.4145786353,
				"z": -0.2848787765,
				"element": "C" 
			},
			{
				"x": -1.5656831685,
				"y": 1.4405902602,
				"z": 0.236978594,
				"element": "C" 
			},
			{
				"x": -2.1580157251,
				"y": 2.3147439312,
				"z": -0.8459287847,
				"element": "C" 
			},
			{
				"x": -1.8649355627,
				"y": 1.6382297036,
				"z": 1.5252098829,
				"element": "C" 
			},
			{
				"x": -0.0816272008,
				"y": -1.9753875532,
				"z": -0.898063474,
				"element": "C" 
			},
			{
				"x": -0.2727240894,
				"y": -1.7750193051,
				"z": -2.0817204602,
				"element": "O" 
			},
			{
				"x": 0.5451522887,
				"y": -3.1585104058,
				"z": -0.4981267076,
				"element": "N" 
			},
			{
				"x": 1.0401832152,
				"y": -3.4651938006,
				"z": 0.7467475702,
				"element": "C" 
			},
			{
				"x": 1.8289839725,
				"y": -4.8844065667,
				"z": 1.0786306654,
				"element": "S" 
			},
			{
				"x": 0.8479740684,
				"y": -2.4789754877,
				"z": 1.6843160072,
				"element": "N" 
			},
			{
				"x": 0.250113202,
				"y": -1.2282733514,
				"z": 1.4979795775,
				"element": "C" 
			},
			{
				"x": 0.3635521395,
				"y": -0.3847390935,
				"z": 2.3654286608,
				"element": "O" 
			},
			{
				"x": -4.0064912532,
				"y": -1.9376428133,
				"z": -0.1764120357,
				"element": "H" 
			},
			{
				"x": -3.2546814045,
				"y": -0.4751326629,
				"z": -0.8163354357,
				"element": "H" 
			},
			{
				"x": -2.7514161841,
				"y": -2.0598754562,
				"z": -1.4192399792,
				"element": "H" 
			},
			{
				"x": -2.3689978291,
				"y": -1.0009622108,
				"z": 1.4519858455,
				"element": "H" 
			},
			{
				"x": -1.9304818774,
				"y": -2.6274008413,
				"z": 0.9399917215,
				"element": "H" 
			},
			{
				"x": -0.6844237189,
				"y": 0.3462906505,
				"z": -1.3679465028,
				"element": "H" 
			},
			{
				"x": 0.4501798528,
				"y": 0.8038186478,
				"z": -0.1200583461,
				"element": "H" 
			},
			{
				"x": -2.8378468517,
				"y": 3.0644706061,
				"z": -0.4330888067,
				"element": "H" 
			},
			{
				"x": -1.3674130714,
				"y": 2.8417924613,
				"z": -1.3965521984,
				"element": "H" 
			},
			{
				"x": -2.7067778217,
				"y": 1.722319612,
				"z": -1.5894090984,
				"element": "H" 
			},
			{
				"x": -1.4030696037,
				"y": 1.0652465121,
				"z": 2.3197438122,
				"element": "H" 
			},
			{
				"x": -2.5688849469,
				"y": 2.4143957673,
				"z": 1.8138853853,
				"element": "H" 
			},
			{
				"x": 0.7602428976,
				"y": -3.8161430774,
				"z": -1.2388499074,
				"element": "H" 
			},
			{
				"x": 1.296345059,
				"y": -2.6232240198,
				"z": 2.5819847508,
				"element": "H" 
			}
		],
		 "valence_orbital": [ 
			{
				"type": "occ",
				"energy": -0.3028,
				"method": "rhf"
			},
			{
				"type": "occ",
				"energy": -0.28903,
				"method": "rhf"
			},
			{
				"type": "occ",
				"energy": -0.25823,
				"method": "rhf"
			},
			{
				"type": "occ",
				"energy": -0.24734,
				"method": "rhf"
			},
			{
				"type": "occ",
				"energy": -0.24213,
				"method": "rhf"
			},
			{
				"type": "unocc",
				"energy": -0.08184,
				"method": "rhf"
			},
			{
				"type": "unocc",
				"energy": -0.01527,
				"method": "rhf"
			},
			{
				"type": "unocc",
				"energy": 0.01195,
				"method": "rhf"
			},
			{
				"type": "unocc",
				"energy": 0.01615,
				"method": "rhf"
			},
			{
				"type": "unocc",
				"energy": 0.04688,
				"method": "rhf"
			}
		],
		"cosmo_sigma_profile": { 
			"-0.025": 0.0,
			"-0.024": 0.0,
			"-0.023": 0.0,
			"-0.022": 0.0,
			"-0.021": 0.0,
			"-0.02": 0.0,
			"-0.019": 0.0,
			"-0.018": 0.0,
			"-0.017": 0.157941766589,
			"-0.016": 1.44329470139,
			"-0.015": 2.0283448135,
			"-0.014": 1.35933784313,
			"-0.013": 0.920283388297,
			"-0.012": 2.26847098449,
			"-0.011": 2.29276047305,
			"-0.01": 1.93597187654,
			"-0.009": 2.57375692189,
			"-0.008": 2.72441331289,
			"-0.007": 5.29579479485,
			"-0.006": 6.68064171642,
			"-0.005": 9.61536372292,
			"-0.004": 20.2525967848,
			"-0.003": 27.0482564624,
			"-0.002": 24.3202026702,
			"-0.001": 20.2016545174,
			"0.0": 21.0236864186,
			"0.001": 17.4938219222,
			"0.002": 10.7014620883,
			"0.003": 10.4700209164,
			"0.004": 9.42285025191,
			"0.005": 9.6131837823,
			"0.006": 10.8677143244,
			"0.007": 10.8177475224,
			"0.008": 8.03403746109,
			"0.009": 7.30872008693,
			"0.01": 7.04203628552,
			"0.011": 5.08876626569,
			"0.012": 0.139849576618,
			"0.013": 0.0,
			"0.014": 0.0,
			"0.015": 0.0,
			"0.016": 0.0,
			"0.017": 0.0,
			"0.018": 0.0,
			"0.019": 0.0,
			"0.02": 0.0,
			"0.021": 0.0,
			"0.022": 0.0,
			"0.023": 0.0,
			"0.024": 0.0,
			"0.025": 0.0
		}
	}
}
