{
	 "smiles": "CC1=CC=CC(=C1)C(=O)NN", 
	 "Tm": 369.65, 
	 "num_atms": 21, 
	 "gaussian": { 
		 "optdone": 1, 
		 "sigma_profile": "yes", 
		 "theory": "DFT", 
		 "functional": "B3LYP", 
		 "basiset": "6-31G**", 
		 "properties": { 
			 "R2extent": 2739.2584, 
			 "electric_dipole_moment_norm": 3.68928734311, 
			 "electric_quadrupole_moment_norm": 8.78677776321, 
			 "total_energy": -495.587208062, 
			 "HOMO_LUMO_gap": 0.20468, 
			 "cosmo_polarized_energy": -13.41, 
			 "cosmo_cavitation_energy": 24.87, 
			 "cosmo_dispersion_energy": -18.08, 
			 "cosmo_repulsion_energy": 1.47, 
			 "cosmo_total_nonelectrostatic_energy": 8.26, 
			 "SMD_solvation_energy": 5.44 
		},
		"coords": [
			{
				"x": 1.7225543398,
				"y": -1.1902607895,
				"z": -0.9608570406,
				"element": "C" 
			},
			{
				"x": 1.0274009122,
				"y": -0.4065142357,
				"z": 0.1277278058,
				"element": "C" 
			},
			{
				"x": 0.9058391969,
				"y": -0.9261629349,
				"z": 1.4246372311,
				"element": "C" 
			},
			{
				"x": 0.273473585,
				"y": -0.1982863519,
				"z": 2.4328759862,
				"element": "C" 
			},
			{
				"x": -0.2306733297,
				"y": 1.0748314737,
				"z": 2.1693552483,
				"element": "C" 
			},
			{
				"x": -0.1126886667,
				"y": 1.6165202694,
				"z": 0.8820187643,
				"element": "C" 
			},
			{
				"x": 0.4969847084,
				"y": 0.8615042061,
				"z": -0.1281848079,
				"element": "C" 
			},
			{
				"x": -0.7017741941,
				"y": 2.9417159264,
				"z": 0.4889567267,
				"element": "C" 
			},
			{
				"x": -1.2330078372,
				"y": 3.1104164879,
				"z": -0.6025886647,
				"element": "O" 
			},
			{
				"x": -0.6487135093,
				"y": 3.9791956628,
				"z": 1.4029291757,
				"element": "N" 
			},
			{
				"x": 0.335227736,
				"y": 4.1539692413,
				"z": 2.4028476464,
				"element": "N" 
			},
			{
				"x": 1.5667931251,
				"y": -2.2666885941,
				"z": -0.8405652761,
				"element": "H" 
			},
			{
				"x": 1.3603739874,
				"y": -0.9027809507,
				"z": -1.95190202,
				"element": "H" 
			},
			{
				"x": 2.8055615383,
				"y": -1.0148350859,
				"z": -0.9449170329,
				"element": "H" 
			},
			{
				"x": 1.2989720038,
				"y": -1.9162763912,
				"z": 1.642410944,
				"element": "H" 
			},
			{
				"x": 0.1650816961,
				"y": -0.6286989882,
				"z": 3.4243423129,
				"element": "H" 
			},
			{
				"x": -0.7525410525,
				"y": 1.6210929564,
				"z": 2.9487426275,
				"element": "H" 
			},
			{
				"x": 0.5387814523,
				"y": 1.2823215645,
				"z": -1.1284673128,
				"element": "H" 
			},
			{
				"x": -0.9748791505,
				"y": 4.8536045262,
				"z": 1.0076111203,
				"element": "H" 
			},
			{
				"x": 0.0525874721,
				"y": 3.6669117984,
				"z": 3.2479294177,
				"element": "H" 
			},
			{
				"x": 1.2206459865,
				"y": 3.756320209,
				"z": 2.0976971483,
				"element": "H" 
			}
		],
		 "valence_orbital": [ 
			{
				"type": "occ",
				"energy": -0.29486,
				"method": "rhf"
			},
			{
				"type": "occ",
				"energy": -0.26381,
				"method": "rhf"
			},
			{
				"type": "occ",
				"energy": -0.25552,
				"method": "rhf"
			},
			{
				"type": "occ",
				"energy": -0.24803,
				"method": "rhf"
			},
			{
				"type": "occ",
				"energy": -0.24066,
				"method": "rhf"
			},
			{
				"type": "unocc",
				"energy": -0.03598,
				"method": "rhf"
			},
			{
				"type": "unocc",
				"energy": -0.00875,
				"method": "rhf"
			},
			{
				"type": "unocc",
				"energy": 0.0453,
				"method": "rhf"
			},
			{
				"type": "unocc",
				"energy": 0.06913,
				"method": "rhf"
			},
			{
				"type": "unocc",
				"energy": 0.09795,
				"method": "rhf"
			}
		],
		"cosmo_sigma_profile": { 
			"-0.025": 0.0,
			"-0.024": 0.0,
			"-0.023": 0.0,
			"-0.022": 0.0,
			"-0.021": 0.0,
			"-0.02": 0.0,
			"-0.019": 0.0,
			"-0.018": 0.0,
			"-0.017": 0.0,
			"-0.016": 0.0,
			"-0.015": 0.0,
			"-0.014": 0.0,
			"-0.013": 0.615499861486,
			"-0.012": 1.71884614235,
			"-0.011": 3.33601358725,
			"-0.01": 4.06122644596,
			"-0.009": 4.18740397323,
			"-0.008": 3.33914522497,
			"-0.007": 4.96504023405,
			"-0.006": 6.94612543882,
			"-0.005": 10.8572448092,
			"-0.004": 16.9541310551,
			"-0.003": 14.2729978843,
			"-0.002": 14.7942786741,
			"-0.001": 15.3135800719,
			"0.0": 16.0429613069,
			"0.001": 11.088712977,
			"0.002": 8.96526286562,
			"0.003": 10.3907334774,
			"0.004": 11.4723075734,
			"0.005": 9.48676909002,
			"0.006": 2.92710171485,
			"0.007": 2.654107768,
			"0.008": 1.99346964048,
			"0.009": 2.23511970597,
			"0.01": 1.79895162792,
			"0.011": 2.25822978542,
			"0.012": 2.96229573816,
			"0.013": 5.58174588808,
			"0.014": 4.30678014195,
			"0.015": 0.560205828054,
			"0.016": 0.433842581459,
			"0.017": 0.0585797024844,
			"0.018": 0.0,
			"0.019": 0.0,
			"0.02": 0.0,
			"0.021": 0.0,
			"0.022": 0.0,
			"0.023": 0.0,
			"0.024": 0.0,
			"0.025": 0.0
		}
	}
}
