{
	 "smiles": "CN(C1=C(F)C(F)=C(F)C(F)=C1F)N(=O)=O", 
	 "Tm": 312.65, 
	 "num_atms": 19, 
	 "gaussian": { 
		 "optdone": 1, 
		 "sigma_profile": "yes", 
		 "theory": "DFT", 
		 "functional": "B3LYP", 
		 "basiset": "6-31G**", 
		 "properties": { 
			 "R2extent": 3757.8652, 
			 "electric_dipole_moment_norm": 3.57650843981, 
			 "electric_quadrupole_moment_norm": 17.3227235165, 
			 "total_energy": -1027.50606796, 
			 "HOMO_LUMO_gap": 0.20678, 
			 "cosmo_polarized_energy": -8.81, 
			 "cosmo_cavitation_energy": 27.4, 
			 "cosmo_dispersion_energy": -18.67, 
			 "cosmo_repulsion_energy": 1.36, 
			 "cosmo_total_nonelectrostatic_energy": 10.09, 
			 "SMD_solvation_energy": 9.38 
		},
		"coords": [
			{
				"x": 2.7159569064,
				"y": -2.1297135492,
				"z": 0.3363210767,
				"element": "C" 
			},
			{
				"x": 1.3193587985,
				"y": -2.2559560692,
				"z": -0.0784069454,
				"element": "N" 
			},
			{
				"x": 0.4705744087,
				"y": -1.1467343759,
				"z": -0.2833506921,
				"element": "C" 
			},
			{
				"x": 0.8597044357,
				"y": -0.0749546774,
				"z": -1.0949302757,
				"element": "C" 
			},
			{
				"x": 2.0462736554,
				"y": -0.109568396,
				"z": -1.7154687047,
				"element": "F" 
			},
			{
				"x": 0.0441230874,
				"y": 1.0404505729,
				"z": -1.2616103717,
				"element": "C" 
			},
			{
				"x": 0.4403191279,
				"y": 2.059451973,
				"z": -2.0293379026,
				"element": "F" 
			},
			{
				"x": -1.1991350567,
				"y": 1.0807862223,
				"z": -0.6334454421,
				"element": "C" 
			},
			{
				"x": -1.9920743388,
				"y": 2.1397083667,
				"z": -0.795792025,
				"element": "F" 
			},
			{
				"x": -1.6139097597,
				"y": 0.0173202947,
				"z": 0.1677851023,
				"element": "C" 
			},
			{
				"x": -2.8036511486,
				"y": 0.0664537915,
				"z": 0.7721384443,
				"element": "F" 
			},
			{
				"x": -0.7769650314,
				"y": -1.0791667326,
				"z": 0.3502461943,
				"element": "C" 
			},
			{
				"x": -1.1783211256,
				"y": -2.0750552583,
				"z": 1.1369464756,
				"element": "F" 
			},
			{
				"x": 0.9600496565,
				"y": -3.4597497673,
				"z": -0.697636917,
				"element": "N" 
			},
			{
				"x": 1.8037149531,
				"y": -4.3490410842,
				"z": -0.6612518151,
				"element": "O" 
			},
			{
				"x": -0.1606782672,
				"y": -3.5212558723,
				"z": -1.1880600073,
				"element": "O" 
			},
			{
				"x": 3.3991001479,
				"y": -2.1525360063,
				"z": -0.5171179767,
				"element": "H" 
			},
			{
				"x": 2.9652459344,
				"y": -2.9432992297,
				"z": 1.0181273599,
				"element": "H" 
			},
			{
				"x": 2.8111136158,
				"y": -1.1770402027,
				"z": 0.8575444221,
				"element": "H" 
			}
		],
		 "valence_orbital": [ 
			{
				"type": "occ",
				"energy": -0.32072,
				"method": "rhf"
			},
			{
				"type": "occ",
				"energy": -0.31251,
				"method": "rhf"
			},
			{
				"type": "occ",
				"energy": -0.30136,
				"method": "rhf"
			},
			{
				"type": "occ",
				"energy": -0.27263,
				"method": "rhf"
			},
			{
				"type": "occ",
				"energy": -0.26919,
				"method": "rhf"
			},
			{
				"type": "unocc",
				"energy": -0.06241,
				"method": "rhf"
			},
			{
				"type": "unocc",
				"energy": -0.04299,
				"method": "rhf"
			},
			{
				"type": "unocc",
				"energy": -0.03136,
				"method": "rhf"
			},
			{
				"type": "unocc",
				"energy": -0.00679,
				"method": "rhf"
			},
			{
				"type": "unocc",
				"energy": 0.08572,
				"method": "rhf"
			}
		],
		"cosmo_sigma_profile": { 
			"-0.025": 0.0,
			"-0.024": 0.0,
			"-0.023": 0.0,
			"-0.022": 0.0,
			"-0.021": 0.0,
			"-0.02": 0.0,
			"-0.019": 0.0,
			"-0.018": 0.0,
			"-0.017": 0.0,
			"-0.016": 0.0,
			"-0.015": 0.0,
			"-0.014": 0.0,
			"-0.013": 0.0,
			"-0.012": 0.0,
			"-0.011": 0.0,
			"-0.01": 0.0,
			"-0.009": 0.350226658823,
			"-0.008": 3.27670206395,
			"-0.007": 5.25395597477,
			"-0.006": 9.34374110214,
			"-0.005": 16.2202089616,
			"-0.004": 26.7656527413,
			"-0.003": 14.0889433975,
			"-0.002": 11.626417648,
			"-0.001": 11.2041588788,
			"0.0": 10.3575700235,
			"0.001": 17.8834238536,
			"0.002": 48.3949926409,
			"0.003": 13.2913409083,
			"0.004": 2.96367267346,
			"0.005": 3.41208524285,
			"0.006": 4.75459258777,
			"0.007": 8.6637821452,
			"0.008": 7.91284430833,
			"0.009": 4.3109128685,
			"0.01": 1.2345902098,
			"0.011": 0.0,
			"0.012": 0.0,
			"0.013": 0.0,
			"0.014": 0.0,
			"0.015": 0.0,
			"0.016": 0.0,
			"0.017": 0.0,
			"0.018": 0.0,
			"0.019": 0.0,
			"0.02": 0.0,
			"0.021": 0.0,
			"0.022": 0.0,
			"0.023": 0.0,
			"0.024": 0.0,
			"0.025": 0.0
		}
	}
}
