{
	 "smiles": "CC(N(CC1=C(N)N=C(C)N=C1)C=O)=C(/CCOC(=O)C1=CC=CC=C1)SSC(CCOC(=O)C1=CC=CC=C1)=C(C)N(CC1=C(N)N=C(C)N=C1)C=O", 
	 "Tm": 419.15, 
	 "num_atms": 96, 
	 "gaussian": { 
		 "optdone": 1, 
		 "sigma_profile": "yes", 
		 "theory": "DFT", 
		 "functional": "B3LYP", 
		 "basiset": "6-31G**", 
		 "properties": { 
			 "R2extent": 42094.1138, 
			 "electric_dipole_moment_norm": 6.61415076181, 
			 "electric_quadrupole_moment_norm": 55.8209731725, 
			 "total_energy": -3159.14581889, 
			 "HOMO_LUMO_gap": 0.14338, 
			 "cosmo_polarized_energy": -36.0, 
			 "cosmo_cavitation_energy": 97.53, 
			 "cosmo_dispersion_energy": -58.44, 
			 "cosmo_repulsion_energy": 4.21, 
			 "cosmo_total_nonelectrostatic_energy": 43.3, 
			 "SMD_solvation_energy": 12.4 
		},
		"coords": [
			{
				"x": 0.8181005333,
				"y": -1.8758414874,
				"z": -1.6512651742,
				"element": "C" 
			},
			{
				"x": 0.7153900572,
				"y": -0.3738616044,
				"z": -1.5688631183,
				"element": "C" 
			},
			{
				"x": -0.6274058202,
				"y": 0.1025094654,
				"z": -1.3277591364,
				"element": "N" 
			},
			{
				"x": -1.468827709,
				"y": 0.6104915496,
				"z": -2.442127319,
				"element": "C" 
			},
			{
				"x": -2.0173103705,
				"y": -0.4386538256,
				"z": -3.380210782,
				"element": "C" 
			},
			{
				"x": -1.3267345755,
				"y": -0.9220518072,
				"z": -4.5227020969,
				"element": "C" 
			},
			{
				"x": -0.0790953018,
				"y": -0.4816996904,
				"z": -4.8702047371,
				"element": "N" 
			},
			{
				"x": -1.8865677703,
				"y": -1.8154392301,
				"z": -5.3533552887,
				"element": "N" 
			},
			{
				"x": -3.1243194718,
				"y": -2.2408761557,
				"z": -5.0699035025,
				"element": "C" 
			},
			{
				"x": -3.7262312945,
				"y": -3.2431575015,
				"z": -6.0179468175,
				"element": "C" 
			},
			{
				"x": -3.8694363941,
				"y": -1.8524537274,
				"z": -4.024181227,
				"element": "N" 
			},
			{
				"x": -3.2960527997,
				"y": -0.9542998575,
				"z": -3.211368186,
				"element": "C" 
			},
			{
				"x": -1.1730274229,
				"y": -0.0818407379,
				"z": -0.0971046696,
				"element": "C" 
			},
			{
				"x": -0.5753994425,
				"y": -0.5663910499,
				"z": 0.8639469901,
				"element": "O" 
			},
			{
				"x": 1.7526963097,
				"y": 0.4885201202,
				"z": -1.6961262751,
				"element": "C" 
			},
			{
				"x": 3.1814559481,
				"y": 0.0555393041,
				"z": -1.9818145127,
				"element": "C" 
			},
			{
				"x": 4.059338777,
				"y": -0.2682814314,
				"z": -0.7614048513,
				"element": "C" 
			},
			{
				"x": 3.6353197059,
				"y": -1.4541782906,
				"z": -0.0539339813,
				"element": "O" 
			},
			{
				"x": 4.0407509879,
				"y": -2.6389994912,
				"z": -0.5759960787,
				"element": "C" 
			},
			{
				"x": 4.6436130686,
				"y": -2.7245781954,
				"z": -1.6310882606,
				"element": "O" 
			},
			{
				"x": 3.6591377563,
				"y": -3.8067585902,
				"z": 0.2651491829,
				"element": "C" 
			},
			{
				"x": 3.9933651745,
				"y": -5.0838310484,
				"z": -0.2090890024,
				"element": "C" 
			},
			{
				"x": 3.6653330823,
				"y": -6.2131342994,
				"z": 0.5359479969,
				"element": "C" 
			},
			{
				"x": 3.002769904,
				"y": -6.0746539563,
				"z": 1.7590360494,
				"element": "C" 
			},
			{
				"x": 2.6696242843,
				"y": -4.8046982412,
				"z": 2.235926741,
				"element": "C" 
			},
			{
				"x": 2.9956416784,
				"y": -3.6710399397,
				"z": 1.4930817342,
				"element": "C" 
			},
			{
				"x": 1.4376993593,
				"y": 2.268033666,
				"z": -1.7103042264,
				"element": "S" 
			},
			{
				"x": 2.4198216322,
				"y": 3.0850224049,
				"z": -0.0115899285,
				"element": "S" 
			},
			{
				"x": 1.1721839175,
				"y": 3.1668157782,
				"z": 1.2811632849,
				"element": "C" 
			},
			{
				"x": 0.003220961,
				"y": 4.1115647872,
				"z": 1.0422824132,
				"element": "C" 
			},
			{
				"x": -1.2351624273,
				"y": 3.3333537233,
				"z": 0.6010508575,
				"element": "C" 
			},
			{
				"x": -2.3145846506,
				"y": 4.2698334051,
				"z": 0.3989826624,
				"element": "O" 
			},
			{
				"x": -3.4317580162,
				"y": 3.7573687252,
				"z": -0.1580067061,
				"element": "C" 
			},
			{
				"x": -3.5349674737,
				"y": 2.5831052831,
				"z": -0.4800230483,
				"element": "O" 
			},
			{
				"x": -4.5084928703,
				"y": 4.7682945779,
				"z": -0.3330327737,
				"element": "C" 
			},
			{
				"x": -5.7189408421,
				"y": 4.3460696629,
				"z": -0.9010198476,
				"element": "C" 
			},
			{
				"x": -6.7568254363,
				"y": 5.2555107312,
				"z": -1.0860410746,
				"element": "C" 
			},
			{
				"x": -6.5914858588,
				"y": 6.5900370343,
				"z": -0.7050972333,
				"element": "C" 
			},
			{
				"x": -5.3866614163,
				"y": 7.0141751356,
				"z": -0.1385900917,
				"element": "C" 
			},
			{
				"x": -4.3448625562,
				"y": 6.1078955787,
				"z": 0.0488756449,
				"element": "C" 
			},
			{
				"x": 1.3049479158,
				"y": 2.4377607697,
				"z": 2.4193602614,
				"element": "C" 
			},
			{
				"x": 0.3321767131,
				"y": 2.4993424731,
				"z": 3.5714731384,
				"element": "C" 
			},
			{
				"x": 2.404871158,
				"y": 1.5600341827,
				"z": 2.625819742,
				"element": "N" 
			},
			{
				"x": 2.1764637252,
				"y": 0.0932284253,
				"z": 2.7061669656,
				"element": "C" 
			},
			{
				"x": 1.9234927028,
				"y": -0.4582387902,
				"z": 4.0933839945,
				"element": "C" 
			},
			{
				"x": 0.6663454045,
				"y": -0.9298262652,
				"z": 4.5567758333,
				"element": "C" 
			},
			{
				"x": -0.4825454141,
				"y": -0.8794108365,
				"z": 3.8159979823,
				"element": "N" 
			},
			{
				"x": 0.5275473924,
				"y": -1.4286174764,
				"z": 5.8000524524,
				"element": "N" 
			},
			{
				"x": 1.6080359502,
				"y": -1.4614812183,
				"z": 6.5871231494,
				"element": "C" 
			},
			{
				"x": 1.4118610073,
				"y": -1.9982850641,
				"z": 7.9811743195,
				"element": "C" 
			},
			{
				"x": 2.8422962405,
				"y": -1.058464609,
				"z": 6.2505492839,
				"element": "N" 
			},
			{
				"x": 2.9677127304,
				"y": -0.5729042539,
				"z": 5.0063804295,
				"element": "C" 
			},
			{
				"x": 3.6999779743,
				"y": 2.0207555569,
				"z": 2.6341879008,
				"element": "C" 
			},
			{
				"x": 4.689129496,
				"y": 1.3117449155,
				"z": 2.7250175186,
				"element": "O" 
			},
			{
				"x": 0.6970403272,
				"y": -2.2959689535,
				"z": -0.6477936992,
				"element": "H" 
			},
			{
				"x": 1.7716968013,
				"y": -2.2167379263,
				"z": -2.0517519834,
				"element": "H" 
			},
			{
				"x": 0.0103940106,
				"y": -2.2733986622,
				"z": -2.2731348589,
				"element": "H" 
			},
			{
				"x": -2.2973549488,
				"y": 1.1527192164,
				"z": -1.9780041978,
				"element": "H" 
			},
			{
				"x": -0.8805381024,
				"y": 1.3521802197,
				"z": -2.9903867777,
				"element": "H" 
			},
			{
				"x": 0.5285211091,
				"y": -0.0781960451,
				"z": -4.1749211855,
				"element": "H" 
			},
			{
				"x": 0.3597903006,
				"y": -0.9855878514,
				"z": -5.6269242368,
				"element": "H" 
			},
			{
				"x": -4.7117936275,
				"y": -3.5496047936,
				"z": -5.666657185,
				"element": "H" 
			},
			{
				"x": -3.8156996961,
				"y": -2.8093339339,
				"z": -7.0195597301,
				"element": "H" 
			},
			{
				"x": -3.0771048455,
				"y": -4.1199537213,
				"z": -6.1072979539,
				"element": "H" 
			},
			{
				"x": -3.902374508,
				"y": -0.61336758,
				"z": -2.3709836539,
				"element": "H" 
			},
			{
				"x": -2.213678665,
				"y": 0.2723820733,
				"z": -0.0304526449,
				"element": "H" 
			},
			{
				"x": 3.1999771019,
				"y": -0.813371843,
				"z": -2.6454788963,
				"element": "H" 
			},
			{
				"x": 3.6841546269,
				"y": 0.8661547669,
				"z": -2.519142873,
				"element": "H" 
			},
			{
				"x": 4.032102236,
				"y": 0.5257542484,
				"z": -0.0160485427,
				"element": "H" 
			},
			{
				"x": 5.0869516931,
				"y": -0.4152790879,
				"z": -1.1018491569,
				"element": "H" 
			},
			{
				"x": 4.5103796207,
				"y": -5.165353426,
				"z": -1.1591327896,
				"element": "H" 
			},
			{
				"x": 3.9261228531,
				"y": -7.2004025259,
				"z": 0.1663682073,
				"element": "H" 
			},
			{
				"x": 2.7485944387,
				"y": -6.9558735948,
				"z": 2.3412168546,
				"element": "H" 
			},
			{
				"x": 2.1599112405,
				"y": -4.6953888381,
				"z": 3.1883562407,
				"element": "H" 
			},
			{
				"x": 2.7433860345,
				"y": -2.6851793468,
				"z": 1.8632638357,
				"element": "H" 
			},
			{
				"x": 0.266681089,
				"y": 4.8357373826,
				"z": 0.2673507635,
				"element": "H" 
			},
			{
				"x": -0.2277036668,
				"y": 4.6850022749,
				"z": 1.9464358851,
				"element": "H" 
			},
			{
				"x": -1.5387185967,
				"y": 2.6019529878,
				"z": 1.3562228232,
				"element": "H" 
			},
			{
				"x": -1.0412045606,
				"y": 2.8002398095,
				"z": -0.3298217522,
				"element": "H" 
			},
			{
				"x": -5.8239918492,
				"y": 3.3055302622,
				"z": -1.1884531863,
				"element": "H" 
			},
			{
				"x": -7.6933831107,
				"y": 4.9265093925,
				"z": -1.5260607179,
				"element": "H" 
			},
			{
				"x": -7.4013620744,
				"y": 7.2993939123,
				"z": -0.849573888,
				"element": "H" 
			},
			{
				"x": -5.2597163643,
				"y": 8.0513532341,
				"z": 0.1568023064,
				"element": "H" 
			},
			{
				"x": -3.4071270744,
				"y": 6.428691749,
				"z": 0.4875174846,
				"element": "H" 
			},
			{
				"x": 0.8795669554,
				"y": 2.6625205371,
				"z": 4.5054374685,
				"element": "H" 
			},
			{
				"x": -0.4078460374,
				"y": 3.2915859485,
				"z": 3.4567810688,
				"element": "H" 
			},
			{
				"x": -0.2063413526,
				"y": 1.5503333165,
				"z": 3.6786451452,
				"element": "H" 
			},
			{
				"x": 3.0935773381,
				"y": -0.3469373421,
				"z": 2.3087983568,
				"element": "H" 
			},
			{
				"x": 1.3717929056,
				"y": -0.1476656658,
				"z": 2.0103688715,
				"element": "H" 
			},
			{
				"x": -0.4822143524,
				"y": -0.8022398965,
				"z": 2.8040101017,
				"element": "H" 
			},
			{
				"x": -1.2607386644,
				"y": -1.3694163493,
				"z": 4.2331011263,
				"element": "H" 
			},
			{
				"x": 2.3772550057,
				"y": -2.1511414368,
				"z": 8.4649801563,
				"element": "H" 
			},
			{
				"x": 0.8514674879,
				"y": -2.9372529893,
				"z": 7.9557991176,
				"element": "H" 
			},
			{
				"x": 0.8252649516,
				"y": -1.2908271796,
				"z": 8.5786764446,
				"element": "H" 
			},
			{
				"x": 3.9646916516,
				"y": -0.2496315838,
				"z": 4.709193097,
				"element": "H" 
			},
			{
				"x": 3.7549461049,
				"y": 3.1220106574,
				"z": 2.5694479727,
				"element": "H" 
			}
		],
		 "valence_orbital": [ 
			{
				"type": "occ",
				"energy": -0.24864,
				"method": "rhf"
			},
			{
				"type": "occ",
				"energy": -0.2452,
				"method": "rhf"
			},
			{
				"type": "occ",
				"energy": -0.23951,
				"method": "rhf"
			},
			{
				"type": "occ",
				"energy": -0.23079,
				"method": "rhf"
			},
			{
				"type": "occ",
				"energy": -0.22196,
				"method": "rhf"
			},
			{
				"type": "unocc",
				"energy": -0.07858,
				"method": "rhf"
			},
			{
				"type": "unocc",
				"energy": -0.06053,
				"method": "rhf"
			},
			{
				"type": "unocc",
				"energy": -0.04997,
				"method": "rhf"
			},
			{
				"type": "unocc",
				"energy": -0.03268,
				"method": "rhf"
			},
			{
				"type": "unocc",
				"energy": -0.02519,
				"method": "rhf"
			}
		],
		"cosmo_sigma_profile": { 
			"-0.025": 0.0,
			"-0.024": 0.0,
			"-0.023": 0.0,
			"-0.022": 0.0,
			"-0.021": 0.0,
			"-0.02": 0.0,
			"-0.019": 0.0,
			"-0.018": 0.0,
			"-0.017": 0.00192018648676,
			"-0.016": 0.0405314880218,
			"-0.015": 0.0714570576947,
			"-0.014": 0.417767056998,
			"-0.013": 1.70801720972,
			"-0.012": 2.61849710025,
			"-0.011": 2.32879611025,
			"-0.01": 3.64693086077,
			"-0.009": 3.50619964377,
			"-0.008": 5.4002418428,
			"-0.007": 13.2157835032,
			"-0.006": 33.5509910729,
			"-0.005": 48.9037651208,
			"-0.004": 62.0041267828,
			"-0.003": 65.9284764022,
			"-0.002": 71.7792836741,
			"-0.001": 76.3494339165,
			"0.0": 73.6182011582,
			"0.001": 61.3716995589,
			"0.002": 53.2204052938,
			"0.003": 50.3733819951,
			"0.004": 45.6150554217,
			"0.005": 20.795516905,
			"0.006": 13.1360427784,
			"0.007": 12.8419225032,
			"0.008": 9.93822398978,
			"0.009": 9.18128500933,
			"0.01": 8.16865735715,
			"0.011": 7.33387097718,
			"0.012": 9.05220212587,
			"0.013": 5.73546920752,
			"0.014": 4.30440412717,
			"0.015": 1.92573478463,
			"0.016": 1.62165768264,
			"0.017": 0.44310552723,
			"0.018": 0.0,
			"0.019": 0.0,
			"0.02": 0.0,
			"0.021": 0.0,
			"0.022": 0.0,
			"0.023": 0.0,
			"0.024": 0.0,
			"0.025": 0.0
		}
	}
}
