{
	 "smiles": "COC1=C(C=C(C)C=C1)C(=O)CBr", 
	 "Tm": 347.15, 
	 "num_atms": 24, 
	 "gaussian": { 
		 "optdone": 1, 
		 "sigma_profile": "yes", 
		 "theory": "DFT", 
		 "functional": "B3LYP", 
		 "basiset": "6-31G**", 
		 "properties": { 
			 "R2extent": 4481.6569, 
			 "electric_dipole_moment_norm": 6.41290875188, 
			 "electric_quadrupole_moment_norm": 7.38171600036, 
			 "total_energy": -3109.53615077, 
			 "HOMO_LUMO_gap": 0.1755, 
			 "cosmo_polarized_energy": -12.21, 
			 "cosmo_cavitation_energy": 29.85, 
			 "cosmo_dispersion_energy": -22.05, 
			 "cosmo_repulsion_energy": 1.76, 
			 "cosmo_total_nonelectrostatic_energy": 9.56, 
			 "SMD_solvation_energy": 5.25 
		},
		"coords": [
			{
				"x": 0.0912350329,
				"y": 3.1698868321,
				"z": -1.2628579574,
				"element": "C" 
			},
			{
				"x": -0.1463086656,
				"y": 1.8224188941,
				"z": -0.8741280981,
				"element": "O" 
			},
			{
				"x": -0.3233262271,
				"y": 1.5319252846,
				"z": 0.447626248,
				"element": "C" 
			},
			{
				"x": -0.5586658829,
				"y": 0.1830136564,
				"z": 0.8024063682,
				"element": "C" 
			},
			{
				"x": -0.7425373837,
				"y": -0.1225851927,
				"z": 2.1621821919,
				"element": "C" 
			},
			{
				"x": -0.7030804491,
				"y": 0.8377800044,
				"z": 3.1697251286,
				"element": "C" 
			},
			{
				"x": -0.8991121632,
				"y": 0.4701228552,
				"z": 4.6219069098,
				"element": "C" 
			},
			{
				"x": -0.4686281087,
				"y": 2.164477454,
				"z": 2.7835007697,
				"element": "C" 
			},
			{
				"x": -0.2811937029,
				"y": 2.5121375894,
				"z": 1.4490260058,
				"element": "C" 
			},
			{
				"x": -0.6365234004,
				"y": -0.9899212158,
				"z": -0.1398834578,
				"element": "C" 
			},
			{
				"x": -0.8484123234,
				"y": -2.1073574018,
				"z": 0.2953788394,
				"element": "O" 
			},
			{
				"x": -0.4451322396,
				"y": -0.7463807218,
				"z": -1.6359498979,
				"element": "C" 
			},
			{
				"x": -0.5759082732,
				"y": -2.3834231843,
				"z": -2.7009727492,
				"element": "Br" 
			},
			{
				"x": 1.0120991165,
				"y": 3.5611419653,
				"z": -0.8142755832,
				"element": "H" 
			},
			{
				"x": -0.7495672299,
				"y": 3.8200329129,
				"z": -0.9933004092,
				"element": "H" 
			},
			{
				"x": 0.1987249514,
				"y": 3.1509089093,
				"z": -2.3481097284,
				"element": "H" 
			},
			{
				"x": -0.9217930504,
				"y": -1.1655631666,
				"z": 2.4023245243,
				"element": "H" 
			},
			{
				"x": 0.0024212619,
				"y": 0.67347888,
				"z": 5.2118171439,
				"element": "H" 
			},
			{
				"x": -1.1352671953,
				"y": -0.5912729894,
				"z": 4.7323882434,
				"element": "H" 
			},
			{
				"x": -1.7161375085,
				"y": 1.0437695727,
				"z": 5.0740596431,
				"element": "H" 
			},
			{
				"x": -0.4312908046,
				"y": 2.9468232604,
				"z": 3.5381031281,
				"element": "H" 
			},
			{
				"x": -0.1033722853,
				"y": 3.5494328728,
				"z": 1.1938633724,
				"element": "H" 
			},
			{
				"x": 0.5329702179,
				"y": -0.3102166911,
				"z": -1.8355043069,
				"element": "H" 
			},
			{
				"x": -1.1969936867,
				"y": -0.05523038,
				"z": -2.0151263284,
				"element": "H" 
			}
		],
		 "valence_orbital": [ 
			{
				"type": "occ",
				"energy": -0.26506,
				"method": "rhf"
			},
			{
				"type": "occ",
				"energy": -0.26152,
				"method": "rhf"
			},
			{
				"type": "occ",
				"energy": -0.25991,
				"method": "rhf"
			},
			{
				"type": "occ",
				"energy": -0.25515,
				"method": "rhf"
			},
			{
				"type": "occ",
				"energy": -0.23226,
				"method": "rhf"
			},
			{
				"type": "unocc",
				"energy": -0.05676,
				"method": "rhf"
			},
			{
				"type": "unocc",
				"energy": -4e-05,
				"method": "rhf"
			},
			{
				"type": "unocc",
				"energy": 0.01656,
				"method": "rhf"
			},
			{
				"type": "unocc",
				"energy": 0.03104,
				"method": "rhf"
			},
			{
				"type": "unocc",
				"energy": 0.08028,
				"method": "rhf"
			}
		],
		"cosmo_sigma_profile": { 
			"-0.025": 0.0,
			"-0.024": 0.0,
			"-0.023": 0.0,
			"-0.022": 0.0,
			"-0.021": 0.0,
			"-0.02": 0.0,
			"-0.019": 0.0,
			"-0.018": 0.0,
			"-0.017": 0.0,
			"-0.016": 0.0,
			"-0.015": 0.0,
			"-0.014": 0.0,
			"-0.013": 0.0,
			"-0.012": 0.0,
			"-0.011": 0.0,
			"-0.01": 0.0,
			"-0.009": 0.0662916031276,
			"-0.008": 2.76357768299,
			"-0.007": 5.80199247182,
			"-0.006": 14.6811298763,
			"-0.005": 17.4715024335,
			"-0.004": 22.1883503005,
			"-0.003": 21.3624371883,
			"-0.002": 18.4018948064,
			"-0.001": 17.4262092405,
			"0.0": 20.2645468969,
			"0.001": 17.1418225517,
			"0.002": 14.3289980538,
			"0.003": 15.3641787016,
			"0.004": 15.0738008981,
			"0.005": 8.64889746106,
			"0.006": 10.2501941004,
			"0.007": 3.24782244676,
			"0.008": 2.15129748298,
			"0.009": 2.52882991651,
			"0.01": 2.81632336087,
			"0.011": 3.44341961265,
			"0.012": 3.05018207688,
			"0.013": 1.69497072001,
			"0.014": 0.203181258292,
			"0.015": 0.0,
			"0.016": 0.0,
			"0.017": 0.0,
			"0.018": 0.0,
			"0.019": 0.0,
			"0.02": 0.0,
			"0.021": 0.0,
			"0.022": 0.0,
			"0.023": 0.0,
			"0.024": 0.0,
			"0.025": 0.0
		}
	}
}
