{
	 "smiles": "CC1=N[C@@]2(OC3=C(O[C@@H]2O1)C1=C(C=CC=C1)C1=C3C=CC=C1)C1=CC=CC=C1", 
	 "Tm": 439.0, 
	 "num_atms": 45, 
	 "gaussian": { 
		 "optdone": 1, 
		 "sigma_profile": "yes", 
		 "theory": "DFT", 
		 "functional": "B3LYP", 
		 "basiset": "6-31G**", 
		 "properties": { 
			 "R2extent": 10165.1249, 
			 "electric_dipole_moment_norm": 1.54500941421, 
			 "electric_quadrupole_moment_norm": 9.83861489032, 
			 "total_energy": -1205.23138484, 
			 "HOMO_LUMO_gap": 0.16374, 
			 "cosmo_polarized_energy": -13.0, 
			 "cosmo_cavitation_energy": 47.8, 
			 "cosmo_dispersion_energy": -33.39, 
			 "cosmo_repulsion_energy": 2.47, 
			 "cosmo_total_nonelectrostatic_energy": 16.89, 
			 "SMD_solvation_energy": 5.53 
		},
		"coords": [
			{
				"x": 1.8801553723,
				"y": -0.8435931602,
				"z": -3.2871116653,
				"element": "C" 
			},
			{
				"x": 1.673196399,
				"y": 0.0685983798,
				"z": -2.1274035161,
				"element": "C" 
			},
			{
				"x": 2.1462578905,
				"y": -0.0772976482,
				"z": -0.9506095944,
				"element": "N" 
			},
			{
				"x": 1.6537614766,
				"y": 1.0342627556,
				"z": -0.1463783376,
				"element": "C" 
			},
			{
				"x": 0.8809196214,
				"y": 0.53245451,
				"z": 0.9567898784,
				"element": "O" 
			},
			{
				"x": -0.3876604516,
				"y": 0.0999801441,
				"z": 0.6503945529,
				"element": "C" 
			},
			{
				"x": -1.1418207478,
				"y": 0.8116126948,
				"z": -0.2289269075,
				"element": "C" 
			},
			{
				"x": -0.6035659292,
				"y": 1.956874067,
				"z": -0.7943992418,
				"element": "O" 
			},
			{
				"x": 0.7486567393,
				"y": 1.8678089149,
				"z": -1.1424923599,
				"element": "C" 
			},
			{
				"x": 0.8982168898,
				"y": 1.1660208095,
				"z": -2.3877285613,
				"element": "O" 
			},
			{
				"x": -2.4853718711,
				"y": 0.4430169583,
				"z": -0.5536718001,
				"element": "C" 
			},
			{
				"x": -3.053147462,
				"y": -0.6965437028,
				"z": 0.0936121745,
				"element": "C" 
			},
			{
				"x": -4.3890737088,
				"y": -1.029430754,
				"z": -0.2290102227,
				"element": "C" 
			},
			{
				"x": -5.1229731165,
				"y": -0.28549038,
				"z": -1.1358399046,
				"element": "C" 
			},
			{
				"x": -4.5486930186,
				"y": 0.8329485471,
				"z": -1.767795955,
				"element": "C" 
			},
			{
				"x": -3.2465716439,
				"y": 1.1922166619,
				"z": -1.4793710104,
				"element": "C" 
			},
			{
				"x": -2.247479847,
				"y": -1.4646484322,
				"z": 1.036901539,
				"element": "C" 
			},
			{
				"x": -0.9016198777,
				"y": -1.068744999,
				"z": 1.3015504834,
				"element": "C" 
			},
			{
				"x": -0.0999239697,
				"y": -1.8096510178,
				"z": 2.1985057262,
				"element": "C" 
			},
			{
				"x": -0.6107711139,
				"y": -2.9239578914,
				"z": 2.8349322203,
				"element": "C" 
			},
			{
				"x": -1.9376068675,
				"y": -3.3234914883,
				"z": 2.5895421406,
				"element": "C" 
			},
			{
				"x": -2.7325612471,
				"y": -2.6098281179,
				"z": 1.7103832811,
				"element": "C" 
			},
			{
				"x": 2.7647212955,
				"y": 1.8771361347,
				"z": 0.4566252927,
				"element": "C" 
			},
			{
				"x": 4.0850997863,
				"y": 1.754781789,
				"z": 0.0167310175,
				"element": "C" 
			},
			{
				"x": 5.0825273205,
				"y": 2.5721996739,
				"z": 0.5532494839,
				"element": "C" 
			},
			{
				"x": 4.7671726638,
				"y": 3.515323419,
				"z": 1.5313964292,
				"element": "C" 
			},
			{
				"x": 3.4481615318,
				"y": 3.6372633847,
				"z": 1.9762985426,
				"element": "C" 
			},
			{
				"x": 2.4511397616,
				"y": 2.8224416662,
				"z": 1.442641061,
				"element": "C" 
			},
			{
				"x": 2.5079952116,
				"y": -1.6821378315,
				"z": -2.987658951,
				"element": "H" 
			},
			{
				"x": 0.9145114296,
				"y": -1.212578336,
				"z": -3.6465367227,
				"element": "H" 
			},
			{
				"x": 2.3520199873,
				"y": -0.3021223508,
				"z": -4.1130750671,
				"element": "H" 
			},
			{
				"x": 1.0920180631,
				"y": 2.8918348527,
				"z": -1.2840547422,
				"element": "H" 
			},
			{
				"x": -4.8581313667,
				"y": -1.886997648,
				"z": 0.2400404145,
				"element": "H" 
			},
			{
				"x": -6.1471989662,
				"y": -0.5688622731,
				"z": -1.3600409303,
				"element": "H" 
			},
			{
				"x": -5.1278105962,
				"y": 1.412123297,
				"z": -2.4811019892,
				"element": "H" 
			},
			{
				"x": -2.7853620179,
				"y": 2.0502803118,
				"z": -1.9551775319,
				"element": "H" 
			},
			{
				"x": 0.9198245366,
				"y": -1.4837707808,
				"z": 2.3688243823,
				"element": "H" 
			},
			{
				"x": 0.0103891138,
				"y": -3.4914145444,
				"z": 3.5217175707,
				"element": "H" 
			},
			{
				"x": -2.341943572,
				"y": -4.1983285574,
				"z": 3.0904682724,
				"element": "H" 
			},
			{
				"x": -3.7494373651,
				"y": -2.9449624179,
				"z": 1.5396907544,
				"element": "H" 
			},
			{
				"x": 4.3275887154,
				"y": 1.0082885321,
				"z": -0.7314150017,
				"element": "H" 
			},
			{
				"x": 6.1072525631,
				"y": 2.4661971035,
				"z": 0.2086523207,
				"element": "H" 
			},
			{
				"x": 5.5438931318,
				"y": 4.1497287835,
				"z": 1.9488441614,
				"element": "H" 
			},
			{
				"x": 3.1962770179,
				"y": 4.3648140234,
				"z": 2.7425713273,
				"element": "H" 
			},
			{
				"x": 1.4288682379,
				"y": 2.9061449172,
				"z": 1.7978369857,
				"element": "H" 
			}
		],
		 "valence_orbital": [ 
			{
				"type": "occ",
				"energy": -0.25539,
				"method": "rhf"
			},
			{
				"type": "occ",
				"energy": -0.2519,
				"method": "rhf"
			},
			{
				"type": "occ",
				"energy": -0.24863,
				"method": "rhf"
			},
			{
				"type": "occ",
				"energy": -0.22137,
				"method": "rhf"
			},
			{
				"type": "occ",
				"energy": -0.1977,
				"method": "rhf"
			},
			{
				"type": "unocc",
				"energy": -0.03396,
				"method": "rhf"
			},
			{
				"type": "unocc",
				"energy": -0.03102,
				"method": "rhf"
			},
			{
				"type": "unocc",
				"energy": -0.01179,
				"method": "rhf"
			},
			{
				"type": "unocc",
				"energy": -0.00318,
				"method": "rhf"
			},
			{
				"type": "unocc",
				"energy": 0.00377,
				"method": "rhf"
			}
		],
		"cosmo_sigma_profile": { 
			"-0.025": 0.0,
			"-0.024": 0.0,
			"-0.023": 0.0,
			"-0.022": 0.0,
			"-0.021": 0.0,
			"-0.02": 0.0,
			"-0.019": 0.0,
			"-0.018": 0.0,
			"-0.017": 0.0,
			"-0.016": 0.0,
			"-0.015": 0.0,
			"-0.014": 0.0,
			"-0.013": 0.0,
			"-0.012": 0.0,
			"-0.011": 0.0,
			"-0.01": 0.000225648444253,
			"-0.009": 1.39064148161,
			"-0.008": 3.1712562908,
			"-0.007": 5.84468671854,
			"-0.006": 21.5372661301,
			"-0.005": 31.9902780753,
			"-0.004": 35.7335697211,
			"-0.003": 31.7150966661,
			"-0.002": 28.690724651,
			"-0.001": 21.8157565829,
			"0.0": 18.9089193143,
			"0.001": 24.892955231,
			"0.002": 33.0939839732,
			"0.003": 34.7562642758,
			"0.004": 36.6321763435,
			"0.005": 30.989841493,
			"0.006": 6.89830348745,
			"0.007": 5.80576220327,
			"0.008": 3.55352520569,
			"0.009": 2.33959947843,
			"0.01": 0.896491667535,
			"0.011": 0.574519270016,
			"0.012": 0.74088285439,
			"0.013": 0.456343597071,
			"0.014": 1.07963521743,
			"0.015": 0.583737346506,
			"0.016": 0.223422216754,
			"0.017": 0.0,
			"0.018": 0.0,
			"0.019": 0.0,
			"0.02": 0.0,
			"0.021": 0.0,
			"0.022": 0.0,
			"0.023": 0.0,
			"0.024": 0.0,
			"0.025": 0.0
		}
	}
}
