{
	 "smiles": "COC1=CC=C(C=C1F)C#N", 
	 "Tm": 372.15, 
	 "num_atms": 17, 
	 "gaussian": { 
		 "optdone": 1, 
		 "sigma_profile": "yes", 
		 "theory": "DFT", 
		 "functional": "B3LYP", 
		 "basiset": "6-31G**", 
		 "properties": { 
			 "R2extent": 2617.9797, 
			 "electric_dipole_moment_norm": 5.09120572851, 
			 "electric_quadrupole_moment_norm": 20.2227326336, 
			 "total_energy": -538.240313203, 
			 "HOMO_LUMO_gap": 0.19262, 
			 "cosmo_polarized_energy": -9.15, 
			 "cosmo_cavitation_energy": 22.92, 
			 "cosmo_dispersion_energy": -16.35, 
			 "cosmo_repulsion_energy": 1.29, 
			 "cosmo_total_nonelectrostatic_energy": 7.86, 
			 "SMD_solvation_energy": 6.68 
		},
		"coords": [
			{
				"x": -0.0668030136,
				"y": -0.6921941527,
				"z": 2.9297920097,
				"element": "C" 
			},
			{
				"x": -0.2503621702,
				"y": -0.682978841,
				"z": 1.5094136765,
				"element": "O" 
			},
			{
				"x": -0.0142829743,
				"y": 0.420078701,
				"z": 0.7644125444,
				"element": "C" 
			},
			{
				"x": -0.2387631519,
				"y": 0.2773008477,
				"z": -0.6162474523,
				"element": "C" 
			},
			{
				"x": -0.0370931018,
				"y": 1.3265411583,
				"z": -1.4990399338,
				"element": "C" 
			},
			{
				"x": 0.4031976848,
				"y": 2.5738806877,
				"z": -1.0211260181,
				"element": "C" 
			},
			{
				"x": 0.6329412677,
				"y": 2.7369657519,
				"z": 0.3528968792,
				"element": "C" 
			},
			{
				"x": 0.4257082278,
				"y": 1.6764169207,
				"z": 1.2195358457,
				"element": "C" 
			},
			{
				"x": 0.6623573483,
				"y": 1.88699214,
				"z": 2.5371091772,
				"element": "F" 
			},
			{
				"x": 0.6158635384,
				"y": 3.6666414101,
				"z": -1.920696393,
				"element": "C" 
			},
			{
				"x": 0.787607543,
				"y": 4.5526327609,
				"z": -2.6553819303,
				"element": "N" 
			},
			{
				"x": -0.7233769015,
				"y": 0.0287391841,
				"z": 3.4235941983,
				"element": "H" 
			},
			{
				"x": 0.9714144045,
				"y": -0.4845923667,
				"z": 3.2012539151,
				"element": "H" 
			},
			{
				"x": -0.3325001755,
				"y": -1.7035847702,
				"z": 3.2394728956,
				"element": "H" 
			},
			{
				"x": -0.577982881,
				"y": -0.6916042427,
				"z": -0.9663083113,
				"element": "H" 
			},
			{
				"x": -0.2177561758,
				"y": 1.1895836347,
				"z": -2.5593195068,
				"element": "H" 
			},
			{
				"x": 0.9725305312,
				"y": 3.682481176,
				"z": 0.7599384039,
				"element": "H" 
			}
		],
		 "valence_orbital": [ 
			{
				"type": "occ",
				"energy": -0.34618,
				"method": "rhf"
			},
			{
				"type": "occ",
				"energy": -0.32998,
				"method": "rhf"
			},
			{
				"type": "occ",
				"energy": -0.32125,
				"method": "rhf"
			},
			{
				"type": "occ",
				"energy": -0.27467,
				"method": "rhf"
			},
			{
				"type": "occ",
				"energy": -0.24021,
				"method": "rhf"
			},
			{
				"type": "unocc",
				"energy": -0.04759,
				"method": "rhf"
			},
			{
				"type": "unocc",
				"energy": -0.02346,
				"method": "rhf"
			},
			{
				"type": "unocc",
				"energy": 0.03611,
				"method": "rhf"
			},
			{
				"type": "unocc",
				"energy": 0.05819,
				"method": "rhf"
			},
			{
				"type": "unocc",
				"energy": 0.08248,
				"method": "rhf"
			}
		],
		"cosmo_sigma_profile": { 
			"-0.025": 0.0,
			"-0.024": 0.0,
			"-0.023": 0.0,
			"-0.022": 0.0,
			"-0.021": 0.0,
			"-0.02": 0.0,
			"-0.019": 0.0,
			"-0.018": 0.0,
			"-0.017": 0.0,
			"-0.016": 0.0,
			"-0.015": 0.0,
			"-0.014": 0.0,
			"-0.013": 0.0,
			"-0.012": 0.0,
			"-0.011": 0.0,
			"-0.01": 0.153070941807,
			"-0.009": 1.74684419205,
			"-0.008": 4.14992707797,
			"-0.007": 6.48632441942,
			"-0.006": 11.0241393998,
			"-0.005": 13.4757707753,
			"-0.004": 13.0976544832,
			"-0.003": 13.6436673282,
			"-0.002": 11.376412505,
			"-0.001": 17.267715541,
			"0.0": 17.075356086,
			"0.001": 16.3636827137,
			"0.002": 11.7347520597,
			"0.003": 9.60223700168,
			"0.004": 7.12894034787,
			"0.005": 3.68814275712,
			"0.006": 4.14014523912,
			"0.007": 3.48980486148,
			"0.008": 4.679140611,
			"0.009": 4.21193324439,
			"0.01": 3.22268191239,
			"0.011": 3.05787292672,
			"0.012": 2.35233863811,
			"0.013": 1.85492317869,
			"0.014": 0.156885591132,
			"0.015": 0.0,
			"0.016": 0.0,
			"0.017": 0.0,
			"0.018": 0.0,
			"0.019": 0.0,
			"0.02": 0.0,
			"0.021": 0.0,
			"0.022": 0.0,
			"0.023": 0.0,
			"0.024": 0.0,
			"0.025": 0.0
		}
	}
}
