{
	 "smiles": "NC(CC(O)=O)C1CCOCC1", 
	 "Tm": 502.15, 
	 "num_atms": 27, 
	 "gaussian": { 
		 "optdone": 1, 
		 "sigma_profile": "yes", 
		 "theory": "DFT", 
		 "functional": "B3LYP", 
		 "basiset": "6-31G**", 
		 "properties": { 
			 "R2extent": 2974.4852, 
			 "electric_dipole_moment_norm": 2.16592773194, 
			 "electric_quadrupole_moment_norm": 11.8642970352, 
			 "total_energy": -594.313171675, 
			 "HOMO_LUMO_gap": 0.24827, 
			 "cosmo_polarized_energy": -14.94, 
			 "cosmo_cavitation_energy": 28.02, 
			 "cosmo_dispersion_energy": -20.18, 
			 "cosmo_repulsion_energy": 1.63, 
			 "cosmo_total_nonelectrostatic_energy": 9.47, 
			 "SMD_solvation_energy": 4.19 
		},
		"coords": [
			{
				"x": 2.2136241897,
				"y": 1.5201847945,
				"z": -0.5844798453,
				"element": "N" 
			},
			{
				"x": 1.086980023,
				"y": 1.9115508966,
				"z": 0.2694551845,
				"element": "C" 
			},
			{
				"x": 1.4777167665,
				"y": 1.5602181986,
				"z": 1.7244027846,
				"element": "C" 
			},
			{
				"x": 0.4376407388,
				"y": 1.9565273143,
				"z": 2.7448659094,
				"element": "C" 
			},
			{
				"x": 0.2882798786,
				"y": 3.3042413984,
				"z": 2.81723532,
				"element": "O" 
			},
			{
				"x": -0.2146114114,
				"y": 1.1975874411,
				"z": 3.4291708207,
				"element": "O" 
			},
			{
				"x": -0.3083030795,
				"y": 1.3530135507,
				"z": -0.1248038469,
				"element": "C" 
			},
			{
				"x": -0.7087000149,
				"y": 1.7366865284,
				"z": -1.5580945062,
				"element": "C" 
			},
			{
				"x": -2.17869404,
				"y": 1.3410046931,
				"z": -1.8225870546,
				"element": "C" 
			},
			{
				"x": -2.61462458,
				"y": 0.2625896905,
				"z": -1.0003421801,
				"element": "O" 
			},
			{
				"x": -1.6019602347,
				"y": -0.7183664548,
				"z": -0.8281109423,
				"element": "C" 
			},
			{
				"x": -0.4502116009,
				"y": -0.1779594363,
				"z": 0.0482353968,
				"element": "C" 
			},
			{
				"x": 2.297953359,
				"y": 0.5063280676,
				"z": -0.6227040103,
				"element": "H" 
			},
			{
				"x": 2.0625034959,
				"y": 1.8367683383,
				"z": -1.538359188,
				"element": "H" 
			},
			{
				"x": 1.0189059729,
				"y": 3.0050648971,
				"z": 0.2072014473,
				"element": "H" 
			},
			{
				"x": 1.641906917,
				"y": 0.485042398,
				"z": 1.8308665602,
				"element": "H" 
			},
			{
				"x": 2.4173103518,
				"y": 2.0740220203,
				"z": 1.9483454444,
				"element": "H" 
			},
			{
				"x": -0.4045186284,
				"y": 3.4615089494,
				"z": 3.4809148053,
				"element": "H" 
			},
			{
				"x": -1.0382614317,
				"y": 1.8268109475,
				"z": 0.5452981613,
				"element": "H" 
			},
			{
				"x": -0.0464664712,
				"y": 1.2265337175,
				"z": -2.2693062447,
				"element": "H" 
			},
			{
				"x": -0.5822101979,
				"y": 2.8127969719,
				"z": -1.7298422605,
				"element": "H" 
			},
			{
				"x": -2.3190351221,
				"y": 1.0866009604,
				"z": -2.8862718781,
				"element": "H" 
			},
			{
				"x": -2.8495329808,
				"y": 2.1741210687,
				"z": -1.5882005991,
				"element": "H" 
			},
			{
				"x": -1.2231387151,
				"y": -1.0489925958,
				"z": -1.8097755754,
				"element": "H" 
			},
			{
				"x": -2.084721729,
				"y": -1.5801406329,
				"z": -0.3592927074,
				"element": "H" 
			},
			{
				"x": -0.6309661534,
				"y": -0.4085330027,
				"z": 1.1022530762,
				"element": "H" 
			},
			{
				"x": 0.4791346976,
				"y": -0.6899107204,
				"z": -0.2392740717,
				"element": "H" 
			}
		],
		 "valence_orbital": [ 
			{
				"type": "occ",
				"energy": -0.31312,
				"method": "rhf"
			},
			{
				"type": "occ",
				"energy": -0.29523,
				"method": "rhf"
			},
			{
				"type": "occ",
				"energy": -0.2739,
				"method": "rhf"
			},
			{
				"type": "occ",
				"energy": -0.24594,
				"method": "rhf"
			},
			{
				"type": "occ",
				"energy": -0.24151,
				"method": "rhf"
			},
			{
				"type": "unocc",
				"energy": 0.00676,
				"method": "rhf"
			},
			{
				"type": "unocc",
				"energy": 0.06275,
				"method": "rhf"
			},
			{
				"type": "unocc",
				"energy": 0.0757,
				"method": "rhf"
			},
			{
				"type": "unocc",
				"energy": 0.08967,
				"method": "rhf"
			},
			{
				"type": "unocc",
				"energy": 0.1032,
				"method": "rhf"
			}
		],
		"cosmo_sigma_profile": { 
			"-0.025": 0.0,
			"-0.024": 0.0,
			"-0.023": 0.0,
			"-0.022": 0.0,
			"-0.021": 0.0,
			"-0.02": 0.0,
			"-0.019": 0.0,
			"-0.018": 0.578904591824,
			"-0.017": 0.958339566341,
			"-0.016": 0.708413301774,
			"-0.015": 1.12781281118,
			"-0.014": 0.539075560343,
			"-0.013": 0.453033381111,
			"-0.012": 0.40653661679,
			"-0.011": 0.87415512574,
			"-0.01": 0.895586195652,
			"-0.009": 3.01435484234,
			"-0.008": 4.09461419198,
			"-0.007": 4.70342196634,
			"-0.006": 6.54629488168,
			"-0.005": 8.64847725148,
			"-0.004": 16.4791927647,
			"-0.003": 32.0167353069,
			"-0.002": 28.1263222065,
			"-0.001": 20.534140688,
			"0.0": 12.4592702339,
			"0.001": 8.46210240224,
			"0.002": 6.94210569892,
			"0.003": 5.45954123777,
			"0.004": 5.60517275315,
			"0.005": 5.17632341112,
			"0.006": 4.35153452448,
			"0.007": 4.35838410949,
			"0.008": 4.59892857372,
			"0.009": 4.96557769552,
			"0.01": 4.23026073354,
			"0.011": 4.798444999,
			"0.012": 6.4971883169,
			"0.013": 2.65392344156,
			"0.014": 2.34222617874,
			"0.015": 0.786286126692,
			"0.016": 0.483262306918,
			"0.017": 0.530641582229,
			"0.018": 0.399990733326,
			"0.019": 0.271662657123,
			"0.02": 0.0,
			"0.021": 0.0,
			"0.022": 0.0,
			"0.023": 0.0,
			"0.024": 0.0,
			"0.025": 0.0
		}
	}
}
