{
	 "smiles": "CCCCCCCCCCCC(=O)OC1=CC=CC=C1", 
	 "Tm": 297.65, 
	 "num_atms": 48, 
	 "gaussian": { 
		 "optdone": 1, 
		 "sigma_profile": "yes", 
		 "theory": "DFT", 
		 "functional": "B3LYP", 
		 "basiset": "6-31G**", 
		 "properties": { 
			 "R2extent": 12212.9169, 
			 "electric_dipole_moment_norm": 1.39936332666, 
			 "electric_quadrupole_moment_norm": 15.6791247457, 
			 "total_energy": -853.277422012, 
			 "HOMO_LUMO_gap": 0.22918, 
			 "cosmo_polarized_energy": -7.55, 
			 "cosmo_cavitation_energy": 48.99, 
			 "cosmo_dispersion_energy": -33.22, 
			 "cosmo_repulsion_energy": 2.66, 
			 "cosmo_total_nonelectrostatic_energy": 18.43, 
			 "SMD_solvation_energy": 7.69 
		},
		"coords": [
			{
				"x": -6.0133691589,
				"y": -0.3743838965,
				"z": 0.7119877756,
				"element": "C" 
			},
			{
				"x": -5.0804798953,
				"y": 0.3122114608,
				"z": -0.2930478913,
				"element": "C" 
			},
			{
				"x": -3.6155362454,
				"y": 0.4136125444,
				"z": 0.1644178552,
				"element": "C" 
			},
			{
				"x": -3.3927583575,
				"y": 1.322118944,
				"z": 1.3835258014,
				"element": "C" 
			},
			{
				"x": -1.9161316752,
				"y": 1.5386600319,
				"z": 1.7563912776,
				"element": "C" 
			},
			{
				"x": -1.2047693942,
				"y": 0.2802987288,
				"z": 2.2825927418,
				"element": "C" 
			},
			{
				"x": 0.2450896744,
				"y": 0.4965485605,
				"z": 2.7710281264,
				"element": "C" 
			},
			{
				"x": 1.3579036426,
				"y": 0.3115891155,
				"z": 1.7224371227,
				"element": "C" 
			},
			{
				"x": 1.3659116358,
				"y": 1.3289725025,
				"z": 0.5713252891,
				"element": "C" 
			},
			{
				"x": 2.6023386362,
				"y": 1.2669320678,
				"z": -0.3425732145,
				"element": "C" 
			},
			{
				"x": 2.7806680754,
				"y": -0.0634923649,
				"z": -1.0923844159,
				"element": "C" 
			},
			{
				"x": 3.4808078055,
				"y": -1.133800924,
				"z": -0.2775141016,
				"element": "C" 
			},
			{
				"x": 4.3228404735,
				"y": -0.9379678865,
				"z": 0.5657007075,
				"element": "O" 
			},
			{
				"x": 3.0537219877,
				"y": -2.3744487983,
				"z": -0.6716851058,
				"element": "O" 
			},
			{
				"x": 3.610765915,
				"y": -3.5406889075,
				"z": -0.1396744371,
				"element": "C" 
			},
			{
				"x": 3.8288442245,
				"y": -3.7256952358,
				"z": 1.2259526728,
				"element": "C" 
			},
			{
				"x": 4.3180704328,
				"y": -4.9571474063,
				"z": 1.6654443857,
				"element": "C" 
			},
			{
				"x": 4.5798849423,
				"y": -5.9874092131,
				"z": 0.7602640871,
				"element": "C" 
			},
			{
				"x": 4.3490775553,
				"y": -5.7860132812,
				"z": -0.6019720654,
				"element": "C" 
			},
			{
				"x": 3.864026615,
				"y": -4.5600114443,
				"z": -1.0566612815,
				"element": "C" 
			},
			{
				"x": -5.6603631096,
				"y": -1.3846964557,
				"z": 0.9504314343,
				"element": "H" 
			},
			{
				"x": -6.0820098926,
				"y": 0.1818815673,
				"z": 1.65239819,
				"element": "H" 
			},
			{
				"x": -7.0280460041,
				"y": -0.4642854247,
				"z": 0.3100638458,
				"element": "H" 
			},
			{
				"x": -5.1144045521,
				"y": -0.2382535523,
				"z": -1.242082776,
				"element": "H" 
			},
			{
				"x": -5.4596469978,
				"y": 1.319729608,
				"z": -0.5137987789,
				"element": "H" 
			},
			{
				"x": -3.0111730222,
				"y": 0.7948019898,
				"z": -0.6708208915,
				"element": "H" 
			},
			{
				"x": -3.2393176706,
				"y": -0.5964438066,
				"z": 0.3754257655,
				"element": "H" 
			},
			{
				"x": -3.9238807579,
				"y": 0.9162195635,
				"z": 2.2550198255,
				"element": "H" 
			},
			{
				"x": -3.850503678,
				"y": 2.2998837547,
				"z": 1.1777853655,
				"element": "H" 
			},
			{
				"x": -1.860210872,
				"y": 2.3142491311,
				"z": 2.5324700025,
				"element": "H" 
			},
			{
				"x": -1.3834397724,
				"y": 1.9446994763,
				"z": 0.8874067459,
				"element": "H" 
			},
			{
				"x": -1.2117425146,
				"y": -0.5086472069,
				"z": 1.518646086,
				"element": "H" 
			},
			{
				"x": -1.8014422688,
				"y": -0.1111093578,
				"z": 3.1179124728,
				"element": "H" 
			},
			{
				"x": 0.3325963457,
				"y": 1.494978167,
				"z": 3.223116421,
				"element": "H" 
			},
			{
				"x": 0.4462435328,
				"y": -0.214307433,
				"z": 3.5822189224,
				"element": "H" 
			},
			{
				"x": 1.2797494407,
				"y": -0.7060472954,
				"z": 1.3137092024,
				"element": "H" 
			},
			{
				"x": 2.3272479333,
				"y": 0.355961401,
				"z": 2.2350198777,
				"element": "H" 
			},
			{
				"x": 1.3024544731,
				"y": 2.3421803795,
				"z": 0.9907085323,
				"element": "H" 
			},
			{
				"x": 0.4673057742,
				"y": 1.1986534113,
				"z": -0.0458792128,
				"element": "H" 
			},
			{
				"x": 2.5253541321,
				"y": 2.0709147762,
				"z": -1.0835484958,
				"element": "H" 
			},
			{
				"x": 3.5113871489,
				"y": 1.4585997525,
				"z": 0.238577213,
				"element": "H" 
			},
			{
				"x": 3.4147077724,
				"y": 0.0913484948,
				"z": -1.9761634163,
				"element": "H" 
			},
			{
				"x": 1.8291130502,
				"y": -0.4562245122,
				"z": -1.4640808447,
				"element": "H" 
			},
			{
				"x": 3.6323136277,
				"y": -2.9238025801,
				"z": 1.924936611,
				"element": "H" 
			},
			{
				"x": 4.4939856712,
				"y": -5.1081314715,
				"z": 2.7265317408,
				"element": "H" 
			},
			{
				"x": 4.9596601398,
				"y": -6.9409771983,
				"z": 1.1144480637,
				"element": "H" 
			},
			{
				"x": 4.5459693514,
				"y": -6.5818472895,
				"z": -1.3142655959,
				"element": "H" 
			},
			{
				"x": 3.6737858293,
				"y": -4.3806124868,
				"z": -2.1097416359,
				"element": "H" 
			}
		],
		 "valence_orbital": [ 
			{
				"type": "occ",
				"energy": -0.30019,
				"method": "rhf"
			},
			{
				"type": "occ",
				"energy": -0.29771,
				"method": "rhf"
			},
			{
				"type": "occ",
				"energy": -0.2759,
				"method": "rhf"
			},
			{
				"type": "occ",
				"energy": -0.25213,
				"method": "rhf"
			},
			{
				"type": "occ",
				"energy": -0.23976,
				"method": "rhf"
			},
			{
				"type": "unocc",
				"energy": -0.01058,
				"method": "rhf"
			},
			{
				"type": "unocc",
				"energy": -0.00345,
				"method": "rhf"
			},
			{
				"type": "unocc",
				"energy": 0.01968,
				"method": "rhf"
			},
			{
				"type": "unocc",
				"energy": 0.08235,
				"method": "rhf"
			},
			{
				"type": "unocc",
				"energy": 0.08866,
				"method": "rhf"
			}
		],
		"cosmo_sigma_profile": { 
			"-0.025": 0.0,
			"-0.024": 0.0,
			"-0.023": 0.0,
			"-0.022": 0.0,
			"-0.021": 0.0,
			"-0.02": 0.0,
			"-0.019": 0.0,
			"-0.018": 0.0,
			"-0.017": 0.0,
			"-0.016": 0.0,
			"-0.015": 0.0,
			"-0.014": 0.0,
			"-0.013": 0.0,
			"-0.012": 0.0,
			"-0.011": 0.0,
			"-0.01": 0.0,
			"-0.009": 0.0,
			"-0.008": 0.0,
			"-0.007": 1.95021120404,
			"-0.006": 10.0169505583,
			"-0.005": 13.133834021,
			"-0.004": 15.9477135784,
			"-0.003": 21.0405575733,
			"-0.002": 46.0483639762,
			"-0.001": 65.3848670516,
			"0.0": 68.0662403357,
			"0.001": 54.7158525364,
			"0.002": 27.8055638793,
			"0.003": 11.6161381576,
			"0.004": 12.9739421719,
			"0.005": 13.6773388643,
			"0.006": 4.05079108145,
			"0.007": 3.05554973784,
			"0.008": 1.18042990074,
			"0.009": 2.32324080567,
			"0.01": 2.36469729563,
			"0.011": 3.44617885165,
			"0.012": 1.86755392189,
			"0.013": 0.0,
			"0.014": 0.0,
			"0.015": 0.0,
			"0.016": 0.0,
			"0.017": 0.0,
			"0.018": 0.0,
			"0.019": 0.0,
			"0.02": 0.0,
			"0.021": 0.0,
			"0.022": 0.0,
			"0.023": 0.0,
			"0.024": 0.0,
			"0.025": 0.0
		}
	}
}
