{
	 "smiles": "NC1=C(I)C=CC(Cl)=C1", 
	 "Tm": 314.15, 
	 "num_atms": 14, 
	 "gaussian": { 
		 "optdone": 1, 
		 "sigma_profile": "no", 
		 "theory": "DFT", 
		 "functional": "B3LYP", 
		 "basiset": "6-31G**", 
		 "properties": { 
			 "R2extent": 2122.732, 
			 "electric_dipole_moment_norm": 1.93247869328, 
			 "electric_quadrupole_moment_norm": 9.32680774327, 
			 "total_energy": -757.985190054, 
			 "HOMO_LUMO_gap": 0.17611, 
			 "cosmo_polarized_energy": -89023.21, 
			 "cosmo_cavitation_energy": 22.76, 
			 "cosmo_dispersion_energy": -18.69, 
			 "cosmo_repulsion_energy": 1.49, 
			 "cosmo_total_nonelectrostatic_energy": 5.57, 
			 "SMD_solvation_energy": 2.69 
		},
		"coords": [
			{
				"x": 1.0668138015,
				"y": 0.5923256024,
				"z": 1.009848712,
				"element": "N" 
			},
			{
				"x": 0.338997371,
				"y": -0.2484091489,
				"z": 0.1893357221,
				"element": "C" 
			},
			{
				"x": -1.0480267099,
				"y": -0.1021263402,
				"z": -0.0245431696,
				"element": "C" 
			},
			{
				"x": -2.1380014042,
				"y": 1.4011232918,
				"z": 1.0064301973,
				"element": "I" 
			},
			{
				"x": -1.7366247311,
				"y": -0.9360266233,
				"z": -0.904399767,
				"element": "C" 
			},
			{
				"x": -1.0735504194,
				"y": -1.9441343888,
				"z": -1.6019014664,
				"element": "C" 
			},
			{
				"x": 0.2969496771,
				"y": -2.0933923297,
				"z": -1.3916246776,
				"element": "C" 
			},
			{
				"x": 1.1667611455,
				"y": -3.357552213,
				"z": -2.2506784595,
				"element": "Cl" 
			},
			{
				"x": 0.9990638135,
				"y": -1.2737225897,
				"z": -0.519764719,
				"element": "C" 
			},
			{
				"x": 0.5491772752,
				"y": 1.1055534631,
				"z": 1.7095847869,
				"element": "H" 
			},
			{
				"x": 1.955223907,
				"y": 0.2397858364,
				"z": 1.3337941338,
				"element": "H" 
			},
			{
				"x": -2.8029361473,
				"y": -0.8011518858,
				"z": -1.0475508687,
				"element": "H" 
			},
			{
				"x": -1.6066096727,
				"y": -2.5932250401,
				"z": -2.2857200272,
				"element": "H" 
			},
			{
				"x": 2.0665620938,
				"y": -1.4132476342,
				"z": -0.384210397,
				"element": "H" 
			}
		],
		 "valence_orbital": [ 
			{
				"type": "occ",
				"energy": -0.31508,
				"method": "rhf"
			},
			{
				"type": "occ",
				"energy": -0.28855,
				"method": "rhf"
			},
			{
				"type": "occ",
				"energy": -0.27797,
				"method": "rhf"
			},
			{
				"type": "occ",
				"energy": -0.2456,
				"method": "rhf"
			},
			{
				"type": "occ",
				"energy": -0.219,
				"method": "rhf"
			},
			{
				"type": "unocc",
				"energy": -0.04289,
				"method": "rhf"
			},
			{
				"type": "unocc",
				"energy": -0.02188,
				"method": "rhf"
			},
			{
				"type": "unocc",
				"energy": -0.00414,
				"method": "rhf"
			},
			{
				"type": "unocc",
				"energy": 0.02596,
				"method": "rhf"
			},
			{
				"type": "unocc",
				"energy": 0.03603,
				"method": "rhf"
			}
		],
		"cosmo_sigma_profile": { 
			"0.0": 0.0,
			"0.0": 0.0,
			"0.0": 0.0,
			"0.0": 0.0,
			"0.0": 0.0,
			"0.0": 0.0,
			"0.0": 0.0,
			"0.0": 0.0,
			"0.0": 0.0,
			"0.0": 0.0,
			"0.0": 0.0,
			"0.0": 0.0,
			"0.0": 0.0,
			"0.0": 0.0,
			"0.0": 0.0,
			"0.0": 0.0,
			"0.0": 0.0,
			"0.0": 0.0,
			"0.0": 0.0,
			"0.0": 0.0,
			"0.0": 0.0,
			"0.0": 0.0,
			"0.0": 0.0,
			"0.0": 0.0,
			"0.0": 0.0,
			"0.0": 0.0,
			"0.0": 0.0,
			"0.0": 0.0,
			"0.0": 0.0,
			"0.0": 0.0,
			"0.0": 0.0,
			"0.0": 0.0,
			"0.0": 0.0,
			"0.0": 0.0,
			"0.0": 0.0,
			"0.0": 0.0,
			"0.0": 0.0,
			"0.0": 0.0,
			"0.0": 0.0,
			"0.0": 0.0,
			"0.0": 0.0,
			"0.0": 0.0,
			"0.0": 0.0,
			"0.0": 0.0,
			"0.0": 0.0,
			"0.0": 0.0,
			"0.0": 0.0,
			"0.0": 0.0,
			"0.0": 0.0,
			"0.0": 0.0,
			"0.0": 0.0
		}
	}
}
