{
	 "smiles": "CC1=C(C2=C(S1)N=C(N=C2Cl)C1=NC=CC=C1)C1=CC=CC=C1", 
	 "Tm": 440.15, 
	 "num_atms": 35, 
	 "gaussian": { 
		 "optdone": 1, 
		 "sigma_profile": "yes", 
		 "theory": "DFT", 
		 "functional": "B3LYP", 
		 "basiset": "6-31G**", 
		 "properties": { 
			 "R2extent": 10199.4362, 
			 "electric_dipole_moment_norm": 3.32383413545, 
			 "electric_quadrupole_moment_norm": 24.794200533, 
			 "total_energy": -1715.78762109, 
			 "HOMO_LUMO_gap": 0.15904, 
			 "cosmo_polarized_energy": -14.42, 
			 "cosmo_cavitation_energy": 43.42, 
			 "cosmo_dispersion_energy": -30.94, 
			 "cosmo_repulsion_energy": 2.31, 
			 "cosmo_total_nonelectrostatic_energy": 14.8, 
			 "SMD_solvation_energy": 2.81 
		},
		"coords": [
			{
				"x": -3.2936440401,
				"y": -3.0185146822,
				"z": 0.9976387336,
				"element": "C" 
			},
			{
				"x": -2.0062769882,
				"y": -2.2464389422,
				"z": 0.9269496241,
				"element": "C" 
			},
			{
				"x": -1.8555069347,
				"y": -0.9077528269,
				"z": 0.6696626626,
				"element": "C" 
			},
			{
				"x": -0.4645523672,
				"y": -0.5109186973,
				"z": 0.680397172,
				"element": "C" 
			},
			{
				"x": 0.4105437106,
				"y": -1.5952816548,
				"z": 0.9532486747,
				"element": "C" 
			},
			{
				"x": -0.4810219263,
				"y": -3.0830119984,
				"z": 1.1924097628,
				"element": "S" 
			},
			{
				"x": 1.7331483357,
				"y": -1.5270346694,
				"z": 1.0249779991,
				"element": "N" 
			},
			{
				"x": 2.2575025618,
				"y": -0.3128249868,
				"z": 0.8164463228,
				"element": "C" 
			},
			{
				"x": 1.5398409302,
				"y": 0.7974654818,
				"z": 0.5486715326,
				"element": "N" 
			},
			{
				"x": 0.23369152,
				"y": 0.6994174252,
				"z": 0.4840636556,
				"element": "C" 
			},
			{
				"x": -0.6311860699,
				"y": 2.1882109122,
				"z": 0.1315045992,
				"element": "Cl" 
			},
			{
				"x": 3.7424367699,
				"y": -0.1903718737,
				"z": 0.8874614606,
				"element": "C" 
			},
			{
				"x": 4.271113484,
				"y": 1.0254491092,
				"z": 0.6776180571,
				"element": "N" 
			},
			{
				"x": 5.5981315877,
				"y": 1.14620368,
				"z": 0.7386423737,
				"element": "C" 
			},
			{
				"x": 6.4643166332,
				"y": 0.0829277667,
				"z": 1.007507516,
				"element": "C" 
			},
			{
				"x": 5.9089057923,
				"y": -1.1773292104,
				"z": 1.2245858133,
				"element": "C" 
			},
			{
				"x": 4.5259495397,
				"y": -1.3218295022,
				"z": 1.1647208449,
				"element": "C" 
			},
			{
				"x": -3.034169018,
				"y": -0.0271791009,
				"z": 0.4178610266,
				"element": "C" 
			},
			{
				"x": -3.688170713,
				"y": 0.6088712219,
				"z": 1.4828790688,
				"element": "C" 
			},
			{
				"x": -4.8114857761,
				"y": 1.4033261548,
				"z": 1.2515347469,
				"element": "C" 
			},
			{
				"x": -5.2983573213,
				"y": 1.567751853,
				"z": -0.0465577138,
				"element": "C" 
			},
			{
				"x": -4.6577895967,
				"y": 0.9331421904,
				"z": -1.1124304798,
				"element": "C" 
			},
			{
				"x": -3.534445199,
				"y": 0.1385675554,
				"z": -0.8816663451,
				"element": "C" 
			},
			{
				"x": -3.9489335788,
				"y": -2.6105500673,
				"z": 1.774062582,
				"element": "H" 
			},
			{
				"x": -3.1202919133,
				"y": -4.0740711263,
				"z": 1.2199004467,
				"element": "H" 
			},
			{
				"x": -3.8368805783,
				"y": -2.9553637278,
				"z": 0.0491672336,
				"element": "H" 
			},
			{
				"x": 5.9944157395,
				"y": 2.1453603296,
				"z": 0.5637349073,
				"element": "H" 
			},
			{
				"x": 7.5372578252,
				"y": 0.2435003317,
				"z": 1.044211639,
				"element": "H" 
			},
			{
				"x": 6.5413771044,
				"y": -2.034537135,
				"z": 1.437134918,
				"element": "H" 
			},
			{
				"x": 4.0436685967,
				"y": -2.2780985602,
				"z": 1.3255005251,
				"element": "H" 
			},
			{
				"x": -3.3067740761,
				"y": 0.4856073806,
				"z": 2.4925054377,
				"element": "H" 
			},
			{
				"x": -5.3051347332,
				"y": 1.8945545745,
				"z": 2.0851856711,
				"element": "H" 
			},
			{
				"x": -6.1721466618,
				"y": 2.1873139225,
				"z": -0.2265925499,
				"element": "H" 
			},
			{
				"x": -5.0314228141,
				"y": 1.0572024055,
				"z": -2.124840507,
				"element": "H" 
			},
			{
				"x": -3.0334098248,
				"y": -0.3506635332,
				"z": -1.7120974118,
				"element": "H" 
			}
		],
		 "valence_orbital": [ 
			{
				"type": "occ",
				"energy": -0.26069,
				"method": "rhf"
			},
			{
				"type": "occ",
				"energy": -0.25591,
				"method": "rhf"
			},
			{
				"type": "occ",
				"energy": -0.25155,
				"method": "rhf"
			},
			{
				"type": "occ",
				"energy": -0.2448,
				"method": "rhf"
			},
			{
				"type": "occ",
				"energy": -0.22613,
				"method": "rhf"
			},
			{
				"type": "unocc",
				"energy": -0.06709,
				"method": "rhf"
			},
			{
				"type": "unocc",
				"energy": -0.04061,
				"method": "rhf"
			},
			{
				"type": "unocc",
				"energy": -0.01777,
				"method": "rhf"
			},
			{
				"type": "unocc",
				"energy": -0.01468,
				"method": "rhf"
			},
			{
				"type": "unocc",
				"energy": -0.00824,
				"method": "rhf"
			}
		],
		"cosmo_sigma_profile": { 
			"-0.025": 0.0,
			"-0.024": 0.0,
			"-0.023": 0.0,
			"-0.022": 0.0,
			"-0.021": 0.0,
			"-0.02": 0.0,
			"-0.019": 0.0,
			"-0.018": 0.0,
			"-0.017": 0.0,
			"-0.016": 0.0,
			"-0.015": 0.0,
			"-0.014": 0.0,
			"-0.013": 0.0,
			"-0.012": 0.0,
			"-0.011": 0.0,
			"-0.01": 0.0,
			"-0.009": 0.0,
			"-0.008": 0.556899012967,
			"-0.007": 6.01602214716,
			"-0.006": 17.5223744715,
			"-0.005": 24.894183674,
			"-0.004": 25.5101347658,
			"-0.003": 28.8434811677,
			"-0.002": 36.9124771498,
			"-0.001": 34.7624046102,
			"0.0": 30.1021753256,
			"0.001": 33.7826012425,
			"0.002": 32.6831628779,
			"0.003": 22.6873415812,
			"0.004": 18.6520201048,
			"0.005": 15.6488365422,
			"0.006": 7.35357620717,
			"0.007": 3.89659779266,
			"0.008": 2.23862292575,
			"0.009": 1.18291291789,
			"0.01": 1.59942611473,
			"0.011": 0.899292935854,
			"0.012": 1.61287103004,
			"0.013": 1.7333679293,
			"0.014": 0.99748651596,
			"0.015": 0.606330635384,
			"0.016": 0.489778153779,
			"0.017": 1.37012328575,
			"0.018": 0.85155201867,
			"0.019": 0.714464855943,
			"0.02": 0.35228607792,
			"0.021": 0.0,
			"0.022": 0.0,
			"0.023": 0.0,
			"0.024": 0.0,
			"0.025": 0.0
		}
	}
}
