{
	 "smiles": "CCOC(=O)C1=CC=C(C=C1)S(=O)(=O)N1CCNCC1", 
	 "Tm": 368.15, 
	 "num_atms": 38, 
	 "gaussian": { 
		 "optdone": 1, 
		 "sigma_profile": "yes", 
		 "theory": "DFT", 
		 "functional": "B3LYP", 
		 "basiset": "6-31G**", 
		 "properties": { 
			 "R2extent": 9155.5217, 
			 "electric_dipole_moment_norm": 4.61663078337, 
			 "electric_quadrupole_moment_norm": 27.5519513095, 
			 "total_energy": -1314.75802216, 
			 "HOMO_LUMO_gap": 0.16553, 
			 "cosmo_polarized_energy": -17.12, 
			 "cosmo_cavitation_energy": 41.76, 
			 "cosmo_dispersion_energy": -29.98, 
			 "cosmo_repulsion_energy": 2.28, 
			 "cosmo_total_nonelectrostatic_energy": 14.06, 
			 "SMD_solvation_energy": 4.09 
		},
		"coords": [
			{
				"x": -5.0521833746,
				"y": 1.3905771937,
				"z": -4.1112597433,
				"element": "C" 
			},
			{
				"x": -4.986318872,
				"y": 0.9617885388,
				"z": -2.6534368826,
				"element": "C" 
			},
			{
				"x": -3.6714558257,
				"y": 0.456498484,
				"z": -2.3122521585,
				"element": "O" 
			},
			{
				"x": -2.7471921117,
				"y": 1.3724828526,
				"z": -1.9543792166,
				"element": "C" 
			},
			{
				"x": -2.9621359799,
				"y": 2.5679111515,
				"z": -1.8951340224,
				"element": "O" 
			},
			{
				"x": -1.4269240648,
				"y": 0.7489734797,
				"z": -1.6318794985,
				"element": "C" 
			},
			{
				"x": -1.2140682728,
				"y": -0.6327689516,
				"z": -1.7060816781,
				"element": "C" 
			},
			{
				"x": 0.0374840861,
				"y": -1.1634029102,
				"z": -1.3924186264,
				"element": "C" 
			},
			{
				"x": 1.0624706422,
				"y": -0.3008677574,
				"z": -1.004486568,
				"element": "C" 
			},
			{
				"x": 0.8682469462,
				"y": 1.0821681251,
				"z": -0.9348210227,
				"element": "C" 
			},
			{
				"x": -0.381742694,
				"y": 1.6027971431,
				"z": -1.2476660017,
				"element": "C" 
			},
			{
				"x": 2.6918331376,
				"y": -0.9789900463,
				"z": -0.651183985,
				"element": "S" 
			},
			{
				"x": 2.6169612317,
				"y": -2.4303133924,
				"z": -0.8734158362,
				"element": "O" 
			},
			{
				"x": 3.6984450114,
				"y": -0.1699813866,
				"z": -1.3458882437,
				"element": "O" 
			},
			{
				"x": 2.8454372451,
				"y": -0.6097332961,
				"z": 0.999601229,
				"element": "N" 
			},
			{
				"x": 2.0739636089,
				"y": -1.4884983648,
				"z": 1.9015901995,
				"element": "C" 
			},
			{
				"x": 2.0632903566,
				"y": -0.8610745734,
				"z": 3.296330274,
				"element": "C" 
			},
			{
				"x": 3.4398812284,
				"y": -0.6794176743,
				"z": 3.7513339916,
				"element": "N" 
			},
			{
				"x": 4.1765222731,
				"y": 0.2189098101,
				"z": 2.8631486592,
				"element": "C" 
			},
			{
				"x": 4.2340665994,
				"y": -0.3928041082,
				"z": 1.4641597704,
				"element": "C" 
			},
			{
				"x": -6.0739135675,
				"y": 1.6953458715,
				"z": -4.3608200113,
				"element": "H" 
			},
			{
				"x": -4.3878967704,
				"y": 2.2387697159,
				"z": -4.293066709,
				"element": "H" 
			},
			{
				"x": -4.7677654847,
				"y": 0.567739044,
				"z": -4.7735444515,
				"element": "H" 
			},
			{
				"x": -5.2262725275,
				"y": 1.7921428245,
				"z": -1.985457,
				"element": "H" 
			},
			{
				"x": -5.6573333822,
				"y": 0.124096943,
				"z": -2.4498717576,
				"element": "H" 
			},
			{
				"x": -2.0244286294,
				"y": -1.2847091486,
				"z": -2.0098565102,
				"element": "H" 
			},
			{
				"x": 0.230282383,
				"y": -2.2288111123,
				"z": -1.450793423,
				"element": "H" 
			},
			{
				"x": 1.6858680574,
				"y": 1.7317048578,
				"z": -0.6427675513,
				"element": "H" 
			},
			{
				"x": -0.5724539321,
				"y": 2.6694579168,
				"z": -1.204271792,
				"element": "H" 
			},
			{
				"x": 2.5141103486,
				"y": -2.4936619483,
				"z": 1.9431476149,
				"element": "H" 
			},
			{
				"x": 1.0505275872,
				"y": -1.5719630292,
				"z": 1.5250650414,
				"element": "H" 
			},
			{
				"x": 1.5438078496,
				"y": -1.5357560437,
				"z": 3.9851977016,
				"element": "H" 
			},
			{
				"x": 1.4924722736,
				"y": 0.0848096001,
				"z": 3.2491277379,
				"element": "H" 
			},
			{
				"x": 3.4510927665,
				"y": -0.3220597972,
				"z": 4.7019406941,
				"element": "H" 
			},
			{
				"x": 3.7217220105,
				"y": 1.2238841665,
				"z": 2.7876702036,
				"element": "H" 
			},
			{
				"x": 5.1979119657,
				"y": 0.3368960862,
				"z": 3.2404238618,
				"element": "H" 
			},
			{
				"x": 4.7902782334,
				"y": -1.3405009822,
				"z": 1.5031606618,
				"element": "H" 
			},
			{
				"x": 4.7298096472,
				"y": 0.2803607179,
				"z": 0.7640550486,
				"element": "H" 
			}
		],
		 "valence_orbital": [ 
			{
				"type": "occ",
				"energy": -0.28337,
				"method": "rhf"
			},
			{
				"type": "occ",
				"energy": -0.28113,
				"method": "rhf"
			},
			{
				"type": "occ",
				"energy": -0.27546,
				"method": "rhf"
			},
			{
				"type": "occ",
				"energy": -0.25192,
				"method": "rhf"
			},
			{
				"type": "occ",
				"energy": -0.23428,
				"method": "rhf"
			},
			{
				"type": "unocc",
				"energy": -0.06875,
				"method": "rhf"
			},
			{
				"type": "unocc",
				"energy": -0.02451,
				"method": "rhf"
			},
			{
				"type": "unocc",
				"energy": 0.02909,
				"method": "rhf"
			},
			{
				"type": "unocc",
				"energy": 0.05637,
				"method": "rhf"
			},
			{
				"type": "unocc",
				"energy": 0.08027,
				"method": "rhf"
			}
		],
		"cosmo_sigma_profile": { 
			"-0.025": 0.0,
			"-0.024": 0.0,
			"-0.023": 0.0,
			"-0.022": 0.0,
			"-0.021": 0.0,
			"-0.02": 0.0,
			"-0.019": 0.0,
			"-0.018": 0.0,
			"-0.017": 0.0,
			"-0.016": 0.0,
			"-0.015": 0.0,
			"-0.014": 0.0,
			"-0.013": 0.0,
			"-0.012": 0.0,
			"-0.011": 0.586229391534,
			"-0.01": 1.507351391,
			"-0.009": 1.36872326676,
			"-0.008": 2.71708568359,
			"-0.007": 6.60726943819,
			"-0.006": 10.3210851354,
			"-0.005": 21.3022150895,
			"-0.004": 35.3800186046,
			"-0.003": 38.5239531604,
			"-0.002": 37.6287326509,
			"-0.001": 31.1553683591,
			"0.0": 27.9079351925,
			"0.001": 24.2595788595,
			"0.002": 14.4317781155,
			"0.003": 8.9336162992,
			"0.004": 7.73047983998,
			"0.005": 7.81185300971,
			"0.006": 6.71211061671,
			"0.007": 4.29139527807,
			"0.008": 5.01283979261,
			"0.009": 5.76934991298,
			"0.01": 10.2923299368,
			"0.011": 11.2556186761,
			"0.012": 5.11715076411,
			"0.013": 0.836327577803,
			"0.014": 0.522999421518,
			"0.015": 0.319489479379,
			"0.016": 0.451555765314,
			"0.017": 0.354052099297,
			"0.018": 0.0710279201145,
			"0.019": 0.0,
			"0.02": 0.0,
			"0.021": 0.0,
			"0.022": 0.0,
			"0.023": 0.0,
			"0.024": 0.0,
			"0.025": 0.0
		}
	}
}
