{
	 "smiles": "CC(C)(C)OC(=O)N1C=C(C(O)=O)C2=C1C=CC=C2Br", 
	 "Tm": 423.15, 
	 "num_atms": 34, 
	 "gaussian": { 
		 "optdone": 1, 
		 "sigma_profile": "yes", 
		 "theory": "DFT", 
		 "functional": "B3LYP", 
		 "basiset": "6-31G**", 
		 "properties": { 
			 "R2extent": 11546.3935, 
			 "electric_dipole_moment_norm": 6.98302610836, 
			 "electric_quadrupole_moment_norm": 38.3224968928, 
			 "total_energy": -3469.01711477, 
			 "HOMO_LUMO_gap": 0.17499, 
			 "cosmo_polarized_energy": -18.44, 
			 "cosmo_cavitation_energy": 39.89, 
			 "cosmo_dispersion_energy": -28.34, 
			 "cosmo_repulsion_energy": 2.16, 
			 "cosmo_total_nonelectrostatic_energy": 13.72, 
			 "SMD_solvation_energy": 7.91 
		},
		"coords": [
			{
				"x": 1.9729125311,
				"y": 0.060429001,
				"z": -2.5826630737,
				"element": "C" 
			},
			{
				"x": 0.9328523674,
				"y": -1.0444489989,
				"z": -2.382709609,
				"element": "C" 
			},
			{
				"x": 1.5403016611,
				"y": -2.3343904498,
				"z": -1.8264594171,
				"element": "C" 
			},
			{
				"x": 0.1583894581,
				"y": -1.312712959,
				"z": -3.673909261,
				"element": "C" 
			},
			{
				"x": -0.1361572059,
				"y": -0.5624081089,
				"z": -1.4688801301,
				"element": "O" 
			},
			{
				"x": 0.1376270001,
				"y": -0.2213875627,
				"z": -0.2050967805,
				"element": "C" 
			},
			{
				"x": 1.2181945884,
				"y": -0.2354009106,
				"z": 0.3455898012,
				"element": "O" 
			},
			{
				"x": -1.0450127364,
				"y": 0.1813064242,
				"z": 0.4432270318,
				"element": "N" 
			},
			{
				"x": -2.3135013351,
				"y": 0.2020470511,
				"z": -0.1225557641,
				"element": "C" 
			},
			{
				"x": -3.2367094033,
				"y": 0.618395986,
				"z": 0.7974012312,
				"element": "C" 
			},
			{
				"x": -4.6998796538,
				"y": 0.5543359481,
				"z": 0.5204660297,
				"element": "C" 
			},
			{
				"x": -5.0596291319,
				"y": 1.0154894135,
				"z": -0.7139127509,
				"element": "O" 
			},
			{
				"x": -5.5240891391,
				"y": 0.077308639,
				"z": 1.2576547722,
				"element": "O" 
			},
			{
				"x": -2.5178655504,
				"y": 0.8973151954,
				"z": 2.0294543872,
				"element": "C" 
			},
			{
				"x": -1.1469322952,
				"y": 0.6120688768,
				"z": 1.779549747,
				"element": "C" 
			},
			{
				"x": -0.1447693299,
				"y": 0.7728456172,
				"z": 2.7374708397,
				"element": "C" 
			},
			{
				"x": -0.5362493625,
				"y": 1.2420271383,
				"z": 3.9863621944,
				"element": "C" 
			},
			{
				"x": -1.8727624592,
				"y": 1.5641287891,
				"z": 4.2636257704,
				"element": "C" 
			},
			{
				"x": -2.8571942415,
				"y": 1.4072881804,
				"z": 3.2947316008,
				"element": "C" 
			},
			{
				"x": -4.6278561148,
				"y": 1.9569139719,
				"z": 3.724581167,
				"element": "Br" 
			},
			{
				"x": 2.6908472967,
				"y": -0.2543072329,
				"z": -3.3464355235,
				"element": "H" 
			},
			{
				"x": 1.4921719743,
				"y": 0.9804325811,
				"z": -2.92920928,
				"element": "H" 
			},
			{
				"x": 2.5146380463,
				"y": 0.2678688223,
				"z": -1.6595245016,
				"element": "H" 
			},
			{
				"x": 2.2385079676,
				"y": -2.7492325875,
				"z": -2.5601004598,
				"element": "H" 
			},
			{
				"x": 0.758492306,
				"y": -3.0782475454,
				"z": -1.6451747755,
				"element": "H" 
			},
			{
				"x": 2.0798918208,
				"y": -2.1513828562,
				"z": -0.8969059344,
				"element": "H" 
			},
			{
				"x": 0.8407611251,
				"y": -1.6797560856,
				"z": -4.4457151375,
				"element": "H" 
			},
			{
				"x": -0.617258475,
				"y": -2.066696893,
				"z": -3.5124896459,
				"element": "H" 
			},
			{
				"x": -0.3157227419,
				"y": -0.3976120257,
				"z": -4.0402106068,
				"element": "H" 
			},
			{
				"x": -2.4543912174,
				"y": -0.1459842171,
				"z": -1.133058432,
				"element": "H" 
			},
			{
				"x": -4.3179131903,
				"y": 1.5051594913,
				"z": -1.0969196347,
				"element": "H" 
			},
			{
				"x": 0.8845787914,
				"y": 0.5402637144,
				"z": 2.5057702117,
				"element": "H" 
			},
			{
				"x": 0.2097492412,
				"y": 1.3771786716,
				"z": 4.7633455494,
				"element": "H" 
			},
			{
				"x": -2.1477225918,
				"y": 1.9512649207,
				"z": 5.2378003842,
				"element": "H" 
			}
		],
		 "valence_orbital": [ 
			{
				"type": "occ",
				"energy": -0.28541,
				"method": "rhf"
			},
			{
				"type": "occ",
				"energy": -0.27504,
				"method": "rhf"
			},
			{
				"type": "occ",
				"energy": -0.26636,
				"method": "rhf"
			},
			{
				"type": "occ",
				"energy": -0.24951,
				"method": "rhf"
			},
			{
				"type": "occ",
				"energy": -0.22673,
				"method": "rhf"
			},
			{
				"type": "unocc",
				"energy": -0.05174,
				"method": "rhf"
			},
			{
				"type": "unocc",
				"energy": -0.01918,
				"method": "rhf"
			},
			{
				"type": "unocc",
				"energy": -0.0078,
				"method": "rhf"
			},
			{
				"type": "unocc",
				"energy": 0.01497,
				"method": "rhf"
			},
			{
				"type": "unocc",
				"energy": 0.03762,
				"method": "rhf"
			}
		],
		"cosmo_sigma_profile": { 
			"-0.025": 0.0,
			"-0.024": 0.0,
			"-0.023": 0.0,
			"-0.022": 0.0,
			"-0.021": 0.0,
			"-0.02": 0.0,
			"-0.019": 0.0160271413355,
			"-0.018": 0.823492532052,
			"-0.017": 1.03360539278,
			"-0.016": 0.54908172841,
			"-0.015": 1.06816427585,
			"-0.014": 0.839808649971,
			"-0.013": 1.73851034439,
			"-0.012": 1.07985912681,
			"-0.011": 1.23746242977,
			"-0.01": 2.11265120432,
			"-0.009": 1.49215252911,
			"-0.008": 1.53708382904,
			"-0.007": 4.45496121815,
			"-0.006": 6.60950422056,
			"-0.005": 14.392138665,
			"-0.004": 27.1047109362,
			"-0.003": 26.2011291862,
			"-0.002": 32.4257172317,
			"-0.001": 30.4181032229,
			"0.0": 35.2622802772,
			"0.001": 24.8678033588,
			"0.002": 22.4982033768,
			"0.003": 20.7112905701,
			"0.004": 15.5934356466,
			"0.005": 7.75613278696,
			"0.006": 4.66336013724,
			"0.007": 3.98406576429,
			"0.008": 4.91809628576,
			"0.009": 6.06459305245,
			"0.01": 6.76215701401,
			"0.011": 5.26007255055,
			"0.012": 5.40060881054,
			"0.013": 1.35132251815,
			"0.014": 0.0,
			"0.015": 0.0,
			"0.016": 0.0,
			"0.017": 0.0,
			"0.018": 0.0,
			"0.019": 0.0,
			"0.02": 0.0,
			"0.021": 0.0,
			"0.022": 0.0,
			"0.023": 0.0,
			"0.024": 0.0,
			"0.025": 0.0
		}
	}
}
