{
	 "smiles": "OC1=CC=C2OC(CC(=O)C2=C1)C1=CC=CC=C1", 
	 "Tm": 494.15, 
	 "num_atms": 30, 
	 "gaussian": { 
		 "optdone": 1, 
		 "sigma_profile": "yes", 
		 "theory": "DFT", 
		 "functional": "B3LYP", 
		 "basiset": "6-31G**", 
		 "properties": { 
			 "R2extent": 5772.8055, 
			 "electric_dipole_moment_norm": 1.46886778847, 
			 "electric_quadrupole_moment_norm": 12.5235376919, 
			 "total_energy": -804.496730955, 
			 "HOMO_LUMO_gap": 0.15515, 
			 "cosmo_polarized_energy": -14.02, 
			 "cosmo_cavitation_energy": 34.17, 
			 "cosmo_dispersion_energy": -24.79, 
			 "cosmo_repulsion_energy": 1.89, 
			 "cosmo_total_nonelectrostatic_energy": 11.27, 
			 "SMD_solvation_energy": 6.38 
		},
		"coords": [
			{
				"x": -4.0417490879,
				"y": -2.7212487008,
				"z": 0.7936419057,
				"element": "O" 
			},
			{
				"x": -2.8507961643,
				"y": -2.1180900001,
				"z": 0.4951260332,
				"element": "C" 
			},
			{
				"x": -1.678166503,
				"y": -2.7918977761,
				"z": 0.8840858092,
				"element": "C" 
			},
			{
				"x": -0.4300109783,
				"y": -2.2435472825,
				"z": 0.6275797035,
				"element": "C" 
			},
			{
				"x": -0.3268814197,
				"y": -1.0112399995,
				"z": -0.0320250999,
				"element": "C" 
			},
			{
				"x": 0.9290224983,
				"y": -0.521970972,
				"z": -0.2578233334,
				"element": "O" 
			},
			{
				"x": 1.0191207469,
				"y": 0.9008118788,
				"z": -0.4692712079,
				"element": "C" 
			},
			{
				"x": 0.0303003109,
				"y": 1.3353558497,
				"z": -1.559509885,
				"element": "C" 
			},
			{
				"x": -1.3932064701,
				"y": 0.9151678317,
				"z": -1.2167697786,
				"element": "C" 
			},
			{
				"x": -2.3691072572,
				"y": 1.5481125836,
				"z": -1.5915344956,
				"element": "O" 
			},
			{
				"x": -1.4928055905,
				"y": -0.3411006898,
				"z": -0.4408532936,
				"element": "C" 
			},
			{
				"x": -2.7523253263,
				"y": -0.9011076846,
				"z": -0.1640932737,
				"element": "C" 
			},
			{
				"x": 2.4533317717,
				"y": 1.2424580504,
				"z": -0.8047971837,
				"element": "C" 
			},
			{
				"x": 3.2438727778,
				"y": 0.3745191094,
				"z": -1.5677080813,
				"element": "C" 
			},
			{
				"x": 4.5481547658,
				"y": 0.7307414666,
				"z": -1.9118343976,
				"element": "C" 
			},
			{
				"x": 5.0736161554,
				"y": 1.9589464533,
				"z": -1.5050384919,
				"element": "C" 
			},
			{
				"x": 4.2899557903,
				"y": 2.8281690619,
				"z": -0.7442707104,
				"element": "C" 
			},
			{
				"x": 2.9884009,
				"y": 2.4682925427,
				"z": -0.3927530335,
				"element": "C" 
			},
			{
				"x": -4.7646642262,
				"y": -2.1659773385,
				"z": 0.4740517002,
				"element": "H" 
			},
			{
				"x": -1.7718363923,
				"y": -3.7438695625,
				"z": 1.3965615359,
				"element": "H" 
			},
			{
				"x": 0.4784579671,
				"y": -2.7491167457,
				"z": 0.9371038402,
				"element": "H" 
			},
			{
				"x": 0.7380358139,
				"y": 1.3942467361,
				"z": 0.4741000293,
				"element": "H" 
			},
			{
				"x": 0.3110696338,
				"y": 0.8591010758,
				"z": -2.5091028602,
				"element": "H" 
			},
			{
				"x": 0.0622969933,
				"y": 2.4169139456,
				"z": -1.7131111383,
				"element": "H" 
			},
			{
				"x": -3.6306472512,
				"y": -0.3538153971,
				"z": -0.4973337017,
				"element": "H" 
			},
			{
				"x": 2.8385845449,
				"y": -0.5845529319,
				"z": -1.8726907094,
				"element": "H" 
			},
			{
				"x": 5.1556085155,
				"y": 0.046628932,
				"z": -2.4976157615,
				"element": "H" 
			},
			{
				"x": 6.0892238428,
				"y": 2.2342542138,
				"z": -1.7742664933,
				"element": "H" 
			},
			{
				"x": 4.6933180001,
				"y": 3.7819659346,
				"z": -0.4165480633,
				"element": "H" 
			},
			{
				"x": 2.3854256384,
				"y": 3.1438494151,
				"z": 0.2097004366,
				"element": "H" 
			}
		],
		 "valence_orbital": [ 
			{
				"type": "occ",
				"energy": -0.26296,
				"method": "rhf"
			},
			{
				"type": "occ",
				"energy": -0.25775,
				"method": "rhf"
			},
			{
				"type": "occ",
				"energy": -0.25543,
				"method": "rhf"
			},
			{
				"type": "occ",
				"energy": -0.24232,
				"method": "rhf"
			},
			{
				"type": "occ",
				"energy": -0.21381,
				"method": "rhf"
			},
			{
				"type": "unocc",
				"energy": -0.05866,
				"method": "rhf"
			},
			{
				"type": "unocc",
				"energy": -0.01064,
				"method": "rhf"
			},
			{
				"type": "unocc",
				"energy": -0.007,
				"method": "rhf"
			},
			{
				"type": "unocc",
				"energy": 0.00789,
				"method": "rhf"
			},
			{
				"type": "unocc",
				"energy": 0.04441,
				"method": "rhf"
			}
		],
		"cosmo_sigma_profile": { 
			"-0.025": 0.0,
			"-0.024": 0.0,
			"-0.023": 0.0,
			"-0.022": 0.0,
			"-0.021": 0.0,
			"-0.02": 0.0,
			"-0.019": 0.0,
			"-0.018": 0.522913404755,
			"-0.017": 1.46956454627,
			"-0.016": 0.651980293149,
			"-0.015": 1.20231349094,
			"-0.014": 0.747170288051,
			"-0.013": 1.49867532509,
			"-0.012": 0.774578093262,
			"-0.011": 1.13711092819,
			"-0.01": 0.645027178766,
			"-0.009": 1.07887138927,
			"-0.008": 0.8927907077,
			"-0.007": 8.44459658166,
			"-0.006": 18.6859019672,
			"-0.005": 20.2597250204,
			"-0.004": 21.057760786,
			"-0.003": 18.2696118841,
			"-0.002": 15.7963152512,
			"-0.001": 14.6620520489,
			"0.0": 14.6050505866,
			"0.001": 15.3231483046,
			"0.002": 23.1508077883,
			"0.003": 24.4685220565,
			"0.004": 16.2217669389,
			"0.005": 14.9485378999,
			"0.006": 9.65146090672,
			"0.007": 3.91229768463,
			"0.008": 3.90926946466,
			"0.009": 3.63219604013,
			"0.01": 3.64961980546,
			"0.011": 5.15101297578,
			"0.012": 4.8038370656,
			"0.013": 1.40637314313,
			"0.014": 0.14632393212,
			"0.015": 0.0,
			"0.016": 0.0,
			"0.017": 0.0,
			"0.018": 0.0,
			"0.019": 0.0,
			"0.02": 0.0,
			"0.021": 0.0,
			"0.022": 0.0,
			"0.023": 0.0,
			"0.024": 0.0,
			"0.025": 0.0
		}
	}
}
