{
	 "smiles": "COC(=O)C1=CN2C(=O)NN=C2C=C1", 
	 "Tm": 499.15, 
	 "num_atms": 21, 
	 "gaussian": { 
		 "optdone": 1, 
		 "sigma_profile": "yes", 
		 "theory": "DFT", 
		 "functional": "B3LYP", 
		 "basiset": "6-31G**", 
		 "properties": { 
			 "R2extent": 3818.4794, 
			 "electric_dipole_moment_norm": 3.79654885653, 
			 "electric_quadrupole_moment_norm": 17.9377095826, 
			 "total_energy": -698.992806499, 
			 "HOMO_LUMO_gap": 0.146, 
			 "cosmo_polarized_energy": -15.35, 
			 "cosmo_cavitation_energy": 26.6, 
			 "cosmo_dispersion_energy": -19.81, 
			 "cosmo_repulsion_energy": 1.54, 
			 "cosmo_total_nonelectrostatic_energy": 8.33, 
			 "SMD_solvation_energy": 6.47 
		},
		"coords": [
			{
				"x": 4.1622694487,
				"y": -0.3029533182,
				"z": -0.0352793351,
				"element": "C" 
			},
			{
				"x": 2.7267838544,
				"y": -0.376243044,
				"z": -0.0535706136,
				"element": "O" 
			},
			{
				"x": 2.1207041357,
				"y": 0.4446664066,
				"z": -0.9403926661,
				"element": "C" 
			},
			{
				"x": 2.7243874687,
				"y": 1.1989374239,
				"z": -1.6783886434,
				"element": "O" 
			},
			{
				"x": 0.6431412974,
				"y": 0.3106148904,
				"z": -0.8977496503,
				"element": "C" 
			},
			{
				"x": -0.0820175521,
				"y": 1.0936840623,
				"z": -1.7520098993,
				"element": "C" 
			},
			{
				"x": -1.4409998123,
				"y": 0.9957635476,
				"z": -1.7390491627,
				"element": "N" 
			},
			{
				"x": -2.3734815321,
				"y": 1.7140174766,
				"z": -2.5399006459,
				"element": "C" 
			},
			{
				"x": -2.1310957958,
				"y": 2.5521463896,
				"z": -3.3883304056,
				"element": "O" 
			},
			{
				"x": -3.5571151285,
				"y": 1.193819303,
				"z": -2.0801989142,
				"element": "N" 
			},
			{
				"x": -3.4492912973,
				"y": 0.2364550773,
				"z": -1.086215614,
				"element": "N" 
			},
			{
				"x": -2.1577576625,
				"y": 0.133332406,
				"z": -0.8963167372,
				"element": "C" 
			},
			{
				"x": -1.4057842423,
				"y": -0.6885643434,
				"z": -0.0002487446,
				"element": "C" 
			},
			{
				"x": -0.0462140325,
				"y": -0.596260308,
				"z": -0.0073468233,
				"element": "C" 
			},
			{
				"x": 4.4912017246,
				"y": 0.7066253002,
				"z": 0.2224248938,
				"element": "H" 
			},
			{
				"x": 4.572051931,
				"y": -0.5687718967,
				"z": -1.0126661901,
				"element": "H" 
			},
			{
				"x": 4.4827992302,
				"y": -1.0169602162,
				"z": 0.7229941668,
				"element": "H" 
			},
			{
				"x": 0.354021775,
				"y": 1.7982961818,
				"z": -2.4502125567,
				"element": "H" 
			},
			{
				"x": -4.4670815564,
				"y": 1.4639860098,
				"z": -2.4176706927,
				"element": "H" 
			},
			{
				"x": -1.9413299875,
				"y": -1.3613254557,
				"z": 0.6587090571,
				"element": "H" 
			},
			{
				"x": 0.5482077337,
				"y": -1.2071658929,
				"z": 0.661019177,
				"element": "H" 
			}
		],
		 "valence_orbital": [ 
			{
				"type": "occ",
				"energy": -0.31179,
				"method": "rhf"
			},
			{
				"type": "occ",
				"energy": -0.28883,
				"method": "rhf"
			},
			{
				"type": "occ",
				"energy": -0.28619,
				"method": "rhf"
			},
			{
				"type": "occ",
				"energy": -0.27718,
				"method": "rhf"
			},
			{
				"type": "occ",
				"energy": -0.21225,
				"method": "rhf"
			},
			{
				"type": "unocc",
				"energy": -0.06625,
				"method": "rhf"
			},
			{
				"type": "unocc",
				"energy": -0.03853,
				"method": "rhf"
			},
			{
				"type": "unocc",
				"energy": 0.05059,
				"method": "rhf"
			},
			{
				"type": "unocc",
				"energy": 0.05188,
				"method": "rhf"
			},
			{
				"type": "unocc",
				"energy": 0.07955,
				"method": "rhf"
			}
		],
		"cosmo_sigma_profile": { 
			"-0.025": 0.0,
			"-0.024": 0.0,
			"-0.023": 0.0,
			"-0.022": 0.0,
			"-0.021": 0.0,
			"-0.02": 0.0,
			"-0.019": 0.0,
			"-0.018": 0.151819183439,
			"-0.017": 1.56030006197,
			"-0.016": 0.793393870635,
			"-0.015": 1.61459895902,
			"-0.014": 0.623639047473,
			"-0.013": 0.465022795035,
			"-0.012": 1.18177383268,
			"-0.011": 1.051790434,
			"-0.01": 0.593348475518,
			"-0.009": 0.918454798654,
			"-0.008": 4.26449636919,
			"-0.007": 6.29314219527,
			"-0.006": 11.3541258999,
			"-0.005": 14.7148422797,
			"-0.004": 19.4983378088,
			"-0.003": 20.0018853908,
			"-0.002": 16.4423309254,
			"-0.001": 17.5112138569,
			"0.0": 16.4258710946,
			"0.001": 10.3860146188,
			"0.002": 7.58728855634,
			"0.003": 6.51575659314,
			"0.004": 6.84832145389,
			"0.005": 4.49158733002,
			"0.006": 3.83902812723,
			"0.007": 4.87376475002,
			"0.008": 3.14214246909,
			"0.009": 2.99018743965,
			"0.01": 4.70262591082,
			"0.011": 6.97060575244,
			"0.012": 8.87573906025,
			"0.013": 5.83518989048,
			"0.014": 1.07642240238,
			"0.015": 0.160029937563,
			"0.016": 0.0,
			"0.017": 0.0,
			"0.018": 0.0,
			"0.019": 0.0,
			"0.02": 0.0,
			"0.021": 0.0,
			"0.022": 0.0,
			"0.023": 0.0,
			"0.024": 0.0,
			"0.025": 0.0
		}
	}
}
