{
	 "smiles": "CC(O)C#N", 
	 "Tm": 233.15, 
	 "num_atms": 10, 
	 "gaussian": { 
		 "optdone": 1, 
		 "sigma_profile": "yes", 
		 "theory": "DFT", 
		 "functional": "B3LYP", 
		 "basiset": "6-31G**", 
		 "properties": { 
			 "R2extent": 789.1812, 
			 "electric_dipole_moment_norm": 3.27278258673, 
			 "electric_quadrupole_moment_norm": 15.9389211925, 
			 "total_energy": -247.276860407, 
			 "HOMO_LUMO_gap": 0.3148, 
			 "cosmo_polarized_energy": -11.02, 
			 "cosmo_cavitation_energy": 14.56, 
			 "cosmo_dispersion_energy": -10.21, 
			 "cosmo_repulsion_energy": 0.94, 
			 "cosmo_total_nonelectrostatic_energy": 5.29, 
			 "SMD_solvation_energy": 4.32 
		},
		"coords": [
			{
				"x": -1.7123046518,
				"y": -0.5707300641,
				"z": 0.5729510286,
				"element": "C" 
			},
			{
				"x": -0.3287429469,
				"y": -1.0493260544,
				"z": 1.0294598281,
				"element": "C" 
			},
			{
				"x": 0.7297171188,
				"y": -0.2977531425,
				"z": 0.4614270493,
				"element": "O" 
			},
			{
				"x": -0.1574035026,
				"y": -2.4985159628,
				"z": 0.7577251885,
				"element": "C" 
			},
			{
				"x": -0.019713015,
				"y": -3.6235333128,
				"z": 0.5073731332,
				"element": "N" 
			},
			{
				"x": -1.8360181537,
				"y": -0.7184665722,
				"z": -0.5048455758,
				"element": "H" 
			},
			{
				"x": -2.5080426122,
				"y": -1.1196813238,
				"z": 1.0845453947,
				"element": "H" 
			},
			{
				"x": -1.810850556,
				"y": 0.4942529378,
				"z": 0.7970813533,
				"element": "H" 
			},
			{
				"x": -0.2320045267,
				"y": -0.906670173,
				"z": 2.1113640053,
				"element": "H" 
			},
			{
				"x": 0.6955628462,
				"y": -0.4068763323,
				"z": -0.4993814051,
				"element": "H" 
			}
		],
		 "valence_orbital": [ 
			{
				"type": "occ",
				"energy": -0.38368,
				"method": "rhf"
			},
			{
				"type": "occ",
				"energy": -0.35995,
				"method": "rhf"
			},
			{
				"type": "occ",
				"energy": -0.34127,
				"method": "rhf"
			},
			{
				"type": "occ",
				"energy": -0.32914,
				"method": "rhf"
			},
			{
				"type": "occ",
				"energy": -0.30452,
				"method": "rhf"
			},
			{
				"type": "unocc",
				"energy": 0.01028,
				"method": "rhf"
			},
			{
				"type": "unocc",
				"energy": 0.02896,
				"method": "rhf"
			},
			{
				"type": "unocc",
				"energy": 0.07218,
				"method": "rhf"
			},
			{
				"type": "unocc",
				"energy": 0.10678,
				"method": "rhf"
			},
			{
				"type": "unocc",
				"energy": 0.13054,
				"method": "rhf"
			}
		],
		"cosmo_sigma_profile": { 
			"-0.025": 0.0,
			"-0.024": 0.0,
			"-0.023": 0.0,
			"-0.022": 0.0,
			"-0.021": 0.0,
			"-0.02": 0.0,
			"-0.019": 0.0,
			"-0.018": 0.0296932260471,
			"-0.017": 0.823304315066,
			"-0.016": 1.07623378168,
			"-0.015": 1.08866948923,
			"-0.014": 0.751421781182,
			"-0.013": 1.42717290546,
			"-0.012": 0.98838844816,
			"-0.011": 0.64350118043,
			"-0.01": 1.0407106743,
			"-0.009": 2.83055103057,
			"-0.008": 4.26214642008,
			"-0.007": 3.9809398084,
			"-0.006": 5.74255094019,
			"-0.005": 7.85265321265,
			"-0.004": 7.62152528897,
			"-0.003": 7.2902865166,
			"-0.002": 8.67548344359,
			"-0.001": 8.70959190142,
			"0.0": 3.1342370223,
			"0.001": 2.41527005466,
			"0.002": 2.97055842052,
			"0.003": 3.43768885409,
			"0.004": 3.08814881432,
			"0.005": 4.49471415073,
			"0.006": 3.83595693077,
			"0.007": 3.15863297061,
			"0.008": 4.58010685938,
			"0.009": 4.24139025258,
			"0.01": 4.89756422366,
			"0.011": 4.050908039,
			"0.012": 4.48936225778,
			"0.013": 1.7387947506,
			"0.014": 0.0,
			"0.015": 0.0,
			"0.016": 0.0,
			"0.017": 0.0,
			"0.018": 0.0,
			"0.019": 0.0,
			"0.02": 0.0,
			"0.021": 0.0,
			"0.022": 0.0,
			"0.023": 0.0,
			"0.024": 0.0,
			"0.025": 0.0
		}
	}
}
