{
	 "smiles": "COC1=CC=CC=C1C=CC(=O)C1=CC=C(O)C=C1O", 
	 "Tm": 450.15, 
	 "num_atms": 34, 
	 "gaussian": { 
		 "optdone": 1, 
		 "sigma_profile": "yes", 
		 "theory": "DFT", 
		 "functional": "B3LYP", 
		 "basiset": "6-31G**", 
		 "properties": { 
			 "R2extent": 7660.2984, 
			 "electric_dipole_moment_norm": 4.9086472332, 
			 "electric_quadrupole_moment_norm": 18.088338571, 
			 "total_energy": -919.018948941, 
			 "HOMO_LUMO_gap": 0.14653, 
			 "cosmo_polarized_energy": -15.79, 
			 "cosmo_cavitation_energy": 38.48, 
			 "cosmo_dispersion_energy": -27.68, 
			 "cosmo_repulsion_energy": 2.1, 
			 "cosmo_total_nonelectrostatic_energy": 12.9, 
			 "SMD_solvation_energy": 8.32 
		},
		"coords": [
			{
				"x": 0.9872034832,
				"y": -1.7178794726,
				"z": 3.3872579548,
				"element": "C" 
			},
			{
				"x": 0.5594966005,
				"y": -0.7378476068,
				"z": 2.4529582375,
				"element": "O" 
			},
			{
				"x": 0.056908906,
				"y": 0.4416335462,
				"z": 2.9189874453,
				"element": "C" 
			},
			{
				"x": -0.112147513,
				"y": 0.7267217832,
				"z": 4.2781371919,
				"element": "C" 
			},
			{
				"x": -0.6463355149,
				"y": 1.9549341291,
				"z": 4.6704392429,
				"element": "C" 
			},
			{
				"x": -1.0097602378,
				"y": 2.9058486125,
				"z": 3.7166194385,
				"element": "C" 
			},
			{
				"x": -0.8369559471,
				"y": 2.6197083955,
				"z": 2.3655584974,
				"element": "C" 
			},
			{
				"x": -0.3102105561,
				"y": 1.3928512606,
				"z": 1.9305077724,
				"element": "C" 
			},
			{
				"x": -0.1159079965,
				"y": 1.0629583565,
				"z": 0.516448793,
				"element": "C" 
			},
			{
				"x": -0.625165309,
				"y": 1.7348431929,
				"z": -0.5364823045,
				"element": "C" 
			},
			{
				"x": -0.2981199286,
				"y": 1.4918953584,
				"z": -1.9591699553,
				"element": "C" 
			},
			{
				"x": -0.2140816818,
				"y": 2.5071837322,
				"z": -2.6896623997,
				"element": "O" 
			},
			{
				"x": -0.0687383597,
				"y": 0.1542731991,
				"z": -2.5162549233,
				"element": "C" 
			},
			{
				"x": -0.4036008452,
				"y": -1.0452341513,
				"z": -1.8472788256,
				"element": "C" 
			},
			{
				"x": -0.1590162872,
				"y": -2.288082749,
				"z": -2.3980525151,
				"element": "C" 
			},
			{
				"x": 0.441149733,
				"y": -2.3654554109,
				"z": -3.6696769606,
				"element": "C" 
			},
			{
				"x": 0.6724928867,
				"y": -3.6095830024,
				"z": -4.1658865184,
				"element": "O" 
			},
			{
				"x": 0.756549711,
				"y": -1.2110693161,
				"z": -4.3798125262,
				"element": "C" 
			},
			{
				"x": 0.4858733189,
				"y": 0.0491839229,
				"z": -3.8298121401,
				"element": "C" 
			},
			{
				"x": 0.766867278,
				"y": 1.127235027,
				"z": -4.5667096196,
				"element": "O" 
			},
			{
				"x": 0.1560296327,
				"y": -2.0699725361,
				"z": 4.0108322817,
				"element": "H" 
			},
			{
				"x": 1.787586608,
				"y": -1.3369795519,
				"z": 4.0336566423,
				"element": "H" 
			},
			{
				"x": 1.3687011711,
				"y": -2.5499621257,
				"z": 2.7940144752,
				"element": "H" 
			},
			{
				"x": 0.1649616636,
				"y": 0.0000537591,
				"z": 5.0320137781,
				"element": "H" 
			},
			{
				"x": -0.7713819918,
				"y": 2.1655143045,
				"z": 5.7286093822,
				"element": "H" 
			},
			{
				"x": -1.4146776021,
				"y": 3.8651229424,
				"z": 4.0226017049,
				"element": "H" 
			},
			{
				"x": -1.0957990554,
				"y": 3.3705373631,
				"z": 1.6258823694,
				"element": "H" 
			},
			{
				"x": 0.5154511955,
				"y": 0.2009832777,
				"z": 0.3313875726,
				"element": "H" 
			},
			{
				"x": -1.2190821785,
				"y": 2.63454239,
				"z": -0.3944636642,
				"element": "H" 
			},
			{
				"x": -0.8922229286,
				"y": -0.9874438004,
				"z": -0.8821549092,
				"element": "H" 
			},
			{
				"x": -0.4280793844,
				"y": -3.203878505,
				"z": -1.8845761321,
				"element": "H" 
			},
			{
				"x": 1.0723492976,
				"y": -3.5337624853,
				"z": -5.0426539957,
				"element": "H" 
			},
			{
				"x": 1.1924997251,
				"y": -1.255195862,
				"z": -5.3740164777,
				"element": "H" 
			},
			{
				"x": 0.4332621067,
				"y": 1.9075220225,
				"z": -4.0361489126,
				"element": "H" 
			}
		],
		 "valence_orbital": [ 
			{
				"type": "occ",
				"energy": -0.25562,
				"method": "rhf"
			},
			{
				"type": "occ",
				"energy": -0.24579,
				"method": "rhf"
			},
			{
				"type": "occ",
				"energy": -0.23728,
				"method": "rhf"
			},
			{
				"type": "occ",
				"energy": -0.22329,
				"method": "rhf"
			},
			{
				"type": "occ",
				"energy": -0.2154,
				"method": "rhf"
			},
			{
				"type": "unocc",
				"energy": -0.06887,
				"method": "rhf"
			},
			{
				"type": "unocc",
				"energy": -0.02505,
				"method": "rhf"
			},
			{
				"type": "unocc",
				"energy": 0.00188,
				"method": "rhf"
			},
			{
				"type": "unocc",
				"energy": 0.00864,
				"method": "rhf"
			},
			{
				"type": "unocc",
				"energy": 0.03418,
				"method": "rhf"
			}
		],
		"cosmo_sigma_profile": { 
			"-0.025": 0.0,
			"-0.024": 0.0,
			"-0.023": 0.0,
			"-0.022": 0.0,
			"-0.021": 0.0,
			"-0.02": 0.0,
			"-0.019": 0.276993542117,
			"-0.018": 0.910854543558,
			"-0.017": 1.18132334099,
			"-0.016": 1.38598160468,
			"-0.015": 0.613708439863,
			"-0.014": 0.775866621437,
			"-0.013": 0.612642703485,
			"-0.012": 1.14980574012,
			"-0.011": 1.54621833368,
			"-0.01": 1.27503969881,
			"-0.009": 0.526051938866,
			"-0.008": 2.32141614851,
			"-0.007": 5.50206340669,
			"-0.006": 18.054459915,
			"-0.005": 21.3362741738,
			"-0.004": 23.8110480844,
			"-0.003": 20.9796170056,
			"-0.002": 18.3359719123,
			"-0.001": 20.9986286557,
			"0.0": 18.074239949,
			"0.001": 19.1581045748,
			"0.002": 28.0113856196,
			"0.003": 31.4627227129,
			"0.004": 22.8931481105,
			"0.005": 13.9068578719,
			"0.006": 6.48934398634,
			"0.007": 4.31841343633,
			"0.008": 4.63957576637,
			"0.009": 4.33132404975,
			"0.01": 4.95396013153,
			"0.011": 4.56320583356,
			"0.012": 2.20584370416,
			"0.013": 1.38179913819,
			"0.014": 0.140056485467,
			"0.015": 0.0,
			"0.016": 0.0,
			"0.017": 0.0,
			"0.018": 0.0,
			"0.019": 0.0,
			"0.02": 0.0,
			"0.021": 0.0,
			"0.022": 0.0,
			"0.023": 0.0,
			"0.024": 0.0,
			"0.025": 0.0
		}
	}
}
