{
	 "smiles": "COC(=O)N(C)C1=C(C=CC=C1)C(O)=O", 
	 "Tm": 412.15, 
	 "num_atms": 26, 
	 "gaussian": { 
		 "optdone": 1, 
		 "sigma_profile": "yes", 
		 "theory": "DFT", 
		 "functional": "B3LYP", 
		 "basiset": "6-31G**", 
		 "properties": { 
			 "R2extent": 3402.712, 
			 "electric_dipole_moment_norm": 5.73252831218, 
			 "electric_quadrupole_moment_norm": 13.589241431, 
			 "total_energy": -743.356515696, 
			 "HOMO_LUMO_gap": 0.19166, 
			 "cosmo_polarized_energy": -18.55, 
			 "cosmo_cavitation_energy": 30.25, 
			 "cosmo_dispersion_energy": -20.83, 
			 "cosmo_repulsion_energy": 1.64, 
			 "cosmo_total_nonelectrostatic_energy": 11.05, 
			 "SMD_solvation_energy": 8.07 
		},
		"coords": [
			{
				"x": -2.6250499355,
				"y": -0.576293812,
				"z": -0.7559798386,
				"element": "C" 
			},
			{
				"x": -1.5883831343,
				"y": 0.3225036997,
				"z": -0.3361784151,
				"element": "O" 
			},
			{
				"x": -1.5879296989,
				"y": 1.5171787118,
				"z": -0.9885058144,
				"element": "C" 
			},
			{
				"x": -2.3964124008,
				"y": 1.8207056511,
				"z": -1.8449401638,
				"element": "O" 
			},
			{
				"x": -0.5841024892,
				"y": 2.3377031932,
				"z": -0.5250760996,
				"element": "N" 
			},
			{
				"x": -0.3158481142,
				"y": 3.5742001105,
				"z": -1.2644761617,
				"element": "C" 
			},
			{
				"x": 0.4066570459,
				"y": 1.898098513,
				"z": 0.4053556693,
				"element": "C" 
			},
			{
				"x": 1.3359500274,
				"y": 0.8839622443,
				"z": 0.0973979534,
				"element": "C" 
			},
			{
				"x": 2.2923132206,
				"y": 0.515290979,
				"z": 1.0539398541,
				"element": "C" 
			},
			{
				"x": 2.3528040325,
				"y": 1.1539765725,
				"z": 2.2919476309,
				"element": "C" 
			},
			{
				"x": 1.4347165696,
				"y": 2.1596409464,
				"z": 2.5919462141,
				"element": "C" 
			},
			{
				"x": 0.465442737,
				"y": 2.5199195132,
				"z": 1.6552154707,
				"element": "C" 
			},
			{
				"x": 1.3461653289,
				"y": 0.2296729978,
				"z": -1.2542704906,
				"element": "C" 
			},
			{
				"x": 1.5751779599,
				"y": -1.1112949482,
				"z": -1.2500229722,
				"element": "O" 
			},
			{
				"x": 1.2056278744,
				"y": 0.8184676433,
				"z": -2.2988667502,
				"element": "O" 
			},
			{
				"x": -2.5185703247,
				"y": -0.8216750113,
				"z": -1.815283824,
				"element": "H" 
			},
			{
				"x": -3.6110103816,
				"y": -0.1347311906,
				"z": -0.5923425701,
				"element": "H" 
			},
			{
				"x": -2.5019039676,
				"y": -1.4697186744,
				"z": -0.1427574043,
				"element": "H" 
			},
			{
				"x": 0.5094920707,
				"y": 3.4222595271,
				"z": -1.9680434465,
				"element": "H" 
			},
			{
				"x": -1.2172060165,
				"y": 3.8399663803,
				"z": -1.8148295695,
				"element": "H" 
			},
			{
				"x": -0.0607862202,
				"y": 4.3760564011,
				"z": -0.5663996786,
				"element": "H" 
			},
			{
				"x": 3.0238863258,
				"y": -0.2505332957,
				"z": 0.8093302015,
				"element": "H" 
			},
			{
				"x": 3.112453277,
				"y": 0.8688555967,
				"z": 3.0130988458,
				"element": "H" 
			},
			{
				"x": 1.465021702,
				"y": 2.6586412756,
				"z": 3.5558797194,
				"element": "H" 
			},
			{
				"x": -0.2695494236,
				"y": 3.2844974604,
				"z": 1.8868952029,
				"element": "H" 
			},
			{
				"x": 1.5100439355,
				"y": -1.4460504848,
				"z": -0.3441335627,
				"element": "H" 
			}
		],
		 "valence_orbital": [ 
			{
				"type": "occ",
				"energy": -0.28891,
				"method": "rhf"
			},
			{
				"type": "occ",
				"energy": -0.28122,
				"method": "rhf"
			},
			{
				"type": "occ",
				"energy": -0.27089,
				"method": "rhf"
			},
			{
				"type": "occ",
				"energy": -0.26021,
				"method": "rhf"
			},
			{
				"type": "occ",
				"energy": -0.24104,
				"method": "rhf"
			},
			{
				"type": "unocc",
				"energy": -0.04938,
				"method": "rhf"
			},
			{
				"type": "unocc",
				"energy": -0.02935,
				"method": "rhf"
			},
			{
				"type": "unocc",
				"energy": 0.03178,
				"method": "rhf"
			},
			{
				"type": "unocc",
				"energy": 0.05481,
				"method": "rhf"
			},
			{
				"type": "unocc",
				"energy": 0.06801,
				"method": "rhf"
			}
		],
		"cosmo_sigma_profile": { 
			"-0.025": 0.0,
			"-0.024": 0.0,
			"-0.023": 0.0,
			"-0.022": 0.0,
			"-0.021": 0.0,
			"-0.02": 0.0,
			"-0.019": 0.0509256785837,
			"-0.018": 0.59369838199,
			"-0.017": 1.17029264986,
			"-0.016": 0.532500890308,
			"-0.015": 1.14182053277,
			"-0.014": 0.819598893577,
			"-0.013": 0.767377338846,
			"-0.012": 0.888194207992,
			"-0.011": 1.00851034572,
			"-0.01": 1.13124575271,
			"-0.009": 1.19111583724,
			"-0.008": 2.27903882919,
			"-0.007": 7.55625974938,
			"-0.006": 14.4625117192,
			"-0.005": 19.496314366,
			"-0.004": 19.1761024259,
			"-0.003": 19.6289306208,
			"-0.002": 19.6547391659,
			"-0.001": 14.540169052,
			"0.0": 13.7723247359,
			"0.001": 14.3349561585,
			"0.002": 15.0592299254,
			"0.003": 13.9462039068,
			"0.004": 6.31550317585,
			"0.005": 5.96888990235,
			"0.006": 5.56032433908,
			"0.007": 6.70136703484,
			"0.008": 4.38594227315,
			"0.009": 5.29770501026,
			"0.01": 6.50907681385,
			"0.011": 5.59395575642,
			"0.012": 5.54682698564,
			"0.013": 5.2291066456,
			"0.014": 0.0643146343741,
			"0.015": 0.0,
			"0.016": 0.0,
			"0.017": 0.0,
			"0.018": 0.0,
			"0.019": 0.0,
			"0.02": 0.0,
			"0.021": 0.0,
			"0.022": 0.0,
			"0.023": 0.0,
			"0.024": 0.0,
			"0.025": 0.0
		}
	}
}
