{
	 "smiles": "OC(=O)C=CC(=O)NC1=CC=C(Cl)C=C1", 
	 "Tm": 475.15, 
	 "num_atms": 23, 
	 "gaussian": { 
		 "optdone": 1, 
		 "sigma_profile": "yes", 
		 "theory": "DFT", 
		 "functional": "B3LYP", 
		 "basiset": "6-31G**", 
		 "properties": { 
			 "R2extent": 6609.6503, 
			 "electric_dipole_moment_norm": 3.26091288445, 
			 "electric_quadrupole_moment_norm": 23.6073840192, 
			 "total_energy": -1126.49054526, 
			 "HOMO_LUMO_gap": 0.16006, 
			 "cosmo_polarized_energy": -21.39, 
			 "cosmo_cavitation_energy": 31.06, 
			 "cosmo_dispersion_energy": -21.68, 
			 "cosmo_repulsion_energy": 1.74, 
			 "cosmo_total_nonelectrostatic_energy": 11.13, 
			 "SMD_solvation_energy": 7.14 
		},
		"coords": [
			{
				"x": -1.9912199195,
				"y": 0.6998943966,
				"z": 2.502253859,
				"element": "O" 
			},
			{
				"x": -2.2288980382,
				"y": 0.2312240391,
				"z": 1.2501444703,
				"element": "C" 
			},
			{
				"x": -3.3578137948,
				"y": 0.0508972276,
				"z": 0.8614638392,
				"element": "O" 
			},
			{
				"x": -1.0424109411,
				"y": -0.0772175699,
				"z": 0.3959554036,
				"element": "C" 
			},
			{
				"x": 0.1587230196,
				"y": -0.4311896425,
				"z": 0.8723134359,
				"element": "C" 
			},
			{
				"x": 1.397862513,
				"y": -0.6431877891,
				"z": 0.0613584834,
				"element": "C" 
			},
			{
				"x": 2.4559977273,
				"y": -0.1936030894,
				"z": 0.4849944222,
				"element": "O" 
			},
			{
				"x": 1.3301777569,
				"y": -1.2505039447,
				"z": -1.1733890043,
				"element": "N" 
			},
			{
				"x": 0.3430295108,
				"y": -2.0994032723,
				"z": -1.7399443141,
				"element": "C" 
			},
			{
				"x": 0.082628405,
				"y": -2.0014019881,
				"z": -3.1128767809,
				"element": "C" 
			},
			{
				"x": -0.8407842173,
				"y": -2.8482391039,
				"z": -3.7222708196,
				"element": "C" 
			},
			{
				"x": -1.5221126655,
				"y": -3.7863835159,
				"z": -2.9475867216,
				"element": "C" 
			},
			{
				"x": -2.6960904222,
				"y": -4.8475474006,
				"z": -3.7050544451,
				"element": "Cl" 
			},
			{
				"x": -1.2756435896,
				"y": -3.8963445038,
				"z": -1.5789838775,
				"element": "C" 
			},
			{
				"x": -0.3317494249,
				"y": -3.064540824,
				"z": -0.9809737706,
				"element": "C" 
			},
			{
				"x": -1.0594241848,
				"y": 0.9434003391,
				"z": 2.5972398944,
				"element": "H" 
			},
			{
				"x": -1.2533035239,
				"y": -0.0717078233,
				"z": -0.6683394885,
				"element": "H" 
			},
			{
				"x": 0.3595968801,
				"y": -0.457078679,
				"z": 1.9412944123,
				"element": "H" 
			},
			{
				"x": 2.2105637759,
				"y": -1.1790690082,
				"z": -1.6706945284,
				"element": "H" 
			},
			{
				"x": 0.6022628116,
				"y": -1.2535207851,
				"z": -3.7047445068,
				"element": "H" 
			},
			{
				"x": -1.0387947739,
				"y": -2.7724046452,
				"z": -4.7854904583,
				"element": "H" 
			},
			{
				"x": -1.8026327447,
				"y": -4.6383265644,
				"z": -0.9898489127,
				"element": "H" 
			},
			{
				"x": -0.1163641599,
				"y": -3.1725458531,
				"z": 0.0760794082,
				"element": "H" 
			}
		],
		 "valence_orbital": [ 
			{
				"type": "occ",
				"energy": -0.30384,
				"method": "rhf"
			},
			{
				"type": "occ",
				"energy": -0.28629,
				"method": "rhf"
			},
			{
				"type": "occ",
				"energy": -0.28046,
				"method": "rhf"
			},
			{
				"type": "occ",
				"energy": -0.27445,
				"method": "rhf"
			},
			{
				"type": "occ",
				"energy": -0.24383,
				"method": "rhf"
			},
			{
				"type": "unocc",
				"energy": -0.08377,
				"method": "rhf"
			},
			{
				"type": "unocc",
				"energy": -0.03258,
				"method": "rhf"
			},
			{
				"type": "unocc",
				"energy": -0.03202,
				"method": "rhf"
			},
			{
				"type": "unocc",
				"energy": 0.01619,
				"method": "rhf"
			},
			{
				"type": "unocc",
				"energy": 0.02156,
				"method": "rhf"
			}
		],
		"cosmo_sigma_profile": { 
			"-0.025": 0.0,
			"-0.024": 0.0,
			"-0.023": 0.0,
			"-0.022": 0.0,
			"-0.021": 0.0,
			"-0.02": 0.0215211575325,
			"-0.019": 0.904353295976,
			"-0.018": 1.04736393585,
			"-0.017": 0.972762688937,
			"-0.016": 1.03641999801,
			"-0.015": 1.60055359634,
			"-0.014": 2.21099029843,
			"-0.013": 1.89602810732,
			"-0.012": 2.8719568995,
			"-0.011": 1.79710256644,
			"-0.01": 2.391856885,
			"-0.009": 2.34174698365,
			"-0.008": 7.35246508398,
			"-0.007": 12.7693300434,
			"-0.006": 12.6711678676,
			"-0.005": 12.0608511283,
			"-0.004": 12.4730387383,
			"-0.003": 12.1390593932,
			"-0.002": 13.125291786,
			"-0.001": 14.4264084119,
			"0.0": 15.1300539223,
			"0.001": 16.8591075183,
			"0.002": 19.1214419854,
			"0.003": 17.459878759,
			"0.004": 12.7447920194,
			"0.005": 8.62389875285,
			"0.006": 3.30059281043,
			"0.007": 3.79036802352,
			"0.008": 4.56732297839,
			"0.009": 4.83482247515,
			"0.01": 6.83905492429,
			"0.011": 8.00370413086,
			"0.012": 8.97589700804,
			"0.013": 4.52663064836,
			"0.014": 0.253829457055,
			"0.015": 0.0,
			"0.016": 0.0,
			"0.017": 0.0,
			"0.018": 0.0,
			"0.019": 0.0,
			"0.02": 0.0,
			"0.021": 0.0,
			"0.022": 0.0,
			"0.023": 0.0,
			"0.024": 0.0,
			"0.025": 0.0
		}
	}
}
