{
	 "smiles": "OC(=O)C1=C(I)C(Cl)=CC(Cl)=C1", 
	 "Tm": 447.15, 
	 "num_atms": 15, 
	 "gaussian": { 
		 "optdone": 1, 
		 "sigma_profile": "yes", 
		 "theory": "DFT", 
		 "functional": "B3LYP", 
		 "basiset": "6-31G**", 
		 "properties": { 
			 "R2extent": 3202.9467, 
			 "electric_dipole_moment_norm": 1.11626421156, 
			 "electric_quadrupole_moment_norm": 8.31107959955, 
			 "total_energy": -1350.76860767, 
			 "HOMO_LUMO_gap": 0.18345, 
			 "cosmo_polarized_energy": -9.21, 
			 "cosmo_cavitation_energy": 26.8, 
			 "cosmo_dispersion_energy": -21.16, 
			 "cosmo_repulsion_energy": 1.66, 
			 "cosmo_total_nonelectrostatic_energy": 7.3, 
			 "SMD_solvation_energy": 4.53 
		},
		"coords": [
			{
				"x": -1.9174053346,
				"y": 1.1262333162,
				"z": 1.409975134,
				"element": "O" 
			},
			{
				"x": -1.7372928674,
				"y": 0.0623158747,
				"z": 0.6065375414,
				"element": "C" 
			},
			{
				"x": -2.5837058924,
				"y": -0.7898910127,
				"z": 0.4394449835,
				"element": "O" 
			},
			{
				"x": -0.3601282145,
				"y": -0.0233744685,
				"z": 0.0082852279,
				"element": "C" 
			},
			{
				"x": 0.4040822175,
				"y": 1.0521698579,
				"z": -0.4917679404,
				"element": "C" 
			},
			{
				"x": -0.3637750745,
				"y": 3.0162405387,
				"z": -0.6452310533,
				"element": "I" 
			},
			{
				"x": 1.690850482,
				"y": 0.7752067936,
				"z": -0.9887766089,
				"element": "C" 
			},
			{
				"x": 2.7306932726,
				"y": 2.0223032843,
				"z": -1.6354484082,
				"element": "Cl" 
			},
			{
				"x": 2.207189179,
				"y": -0.5225398417,
				"z": -0.9943285495,
				"element": "C" 
			},
			{
				"x": 1.4228603971,
				"y": -1.5681992447,
				"z": -0.5213182102,
				"element": "C" 
			},
			{
				"x": 2.0557663004,
				"y": -3.1986706963,
				"z": -0.546141471,
				"element": "Cl" 
			},
			{
				"x": 0.1450597395,
				"y": -1.3293824632,
				"z": -0.0333291483,
				"element": "C" 
			},
			{
				"x": -2.8313424571,
				"y": 1.0685034459,
				"z": 1.7376949635,
				"element": "H" 
			},
			{
				"x": 3.2041642766,
				"y": -0.7043992868,
				"z": -1.3758790425,
				"element": "H" 
			},
			{
				"x": -0.4776160242,
				"y": -2.1406160973,
				"z": 0.3229825819,
				"element": "H" 
			}
		],
		 "valence_orbital": [ 
			{
				"type": "occ",
				"energy": -0.30262,
				"method": "rhf"
			},
			{
				"type": "occ",
				"energy": -0.30077,
				"method": "rhf"
			},
			{
				"type": "occ",
				"energy": -0.27668,
				"method": "rhf"
			},
			{
				"type": "occ",
				"energy": -0.26928,
				"method": "rhf"
			},
			{
				"type": "occ",
				"energy": -0.25375,
				"method": "rhf"
			},
			{
				"type": "unocc",
				"energy": -0.0703,
				"method": "rhf"
			},
			{
				"type": "unocc",
				"energy": -0.06005,
				"method": "rhf"
			},
			{
				"type": "unocc",
				"energy": -0.04474,
				"method": "rhf"
			},
			{
				"type": "unocc",
				"energy": 0.00071,
				"method": "rhf"
			},
			{
				"type": "unocc",
				"energy": 0.01295,
				"method": "rhf"
			}
		],
		"cosmo_sigma_profile": { 
			"-0.025": 0.0,
			"-0.024": 0.0,
			"-0.023": 0.0,
			"-0.022": 0.0,
			"-0.021": 0.0,
			"-0.02": 0.0,
			"-0.019": 0.524681071657,
			"-0.018": 1.21149139285,
			"-0.017": 0.894751171963,
			"-0.016": 0.296515183859,
			"-0.015": 0.976672228504,
			"-0.014": 0.813663759534,
			"-0.013": 0.510909995953,
			"-0.012": 1.04356760766,
			"-0.011": 0.909228288799,
			"-0.01": 0.616130946228,
			"-0.009": 2.25038249232,
			"-0.008": 4.53487736549,
			"-0.007": 4.35353360343,
			"-0.006": 5.65929178919,
			"-0.005": 6.60684695561,
			"-0.004": 8.68779377127,
			"-0.003": 11.4689181826,
			"-0.002": 15.8625310498,
			"-0.001": 31.5037381483,
			"0.0": 22.207721762,
			"0.001": 15.8771934176,
			"0.002": 18.9298711086,
			"0.003": 26.560251216,
			"0.004": 19.2930179945,
			"0.005": 4.69443445446,
			"0.006": 2.78300405815,
			"0.007": 2.82062369453,
			"0.008": 2.87895394479,
			"0.009": 2.2802710534,
			"0.01": 2.70287151567,
			"0.011": 4.60649839382,
			"0.012": 0.586025361469,
			"0.013": 0.0,
			"0.014": 0.0,
			"0.015": 0.0,
			"0.016": 0.0,
			"0.017": 0.0,
			"0.018": 0.0,
			"0.019": 0.0,
			"0.02": 0.0,
			"0.021": 0.0,
			"0.022": 0.0,
			"0.023": 0.0,
			"0.024": 0.0,
			"0.025": 0.0
		}
	}
}
