{
	 "smiles": "CC12CCC3C(CCC4=CC(OC5CCCC5)=CC=C34)C1CC(O)C2O", 
	 "Tm": 372.15, 
	 "num_atms": 58, 
	 "gaussian": { 
		 "optdone": 1, 
		 "sigma_profile": "yes", 
		 "theory": "DFT", 
		 "functional": "B3LYP", 
		 "basiset": "6-31G**", 
		 "properties": { 
			 "R2extent": 14457.9185, 
			 "electric_dipole_moment_norm": 0.917393977525, 
			 "electric_quadrupole_moment_norm": 24.3928677504, 
			 "total_energy": -1121.41324779, 
			 "HOMO_LUMO_gap": 0.20602, 
			 "cosmo_polarized_energy": -13.64, 
			 "cosmo_cavitation_energy": 51.26, 
			 "cosmo_dispersion_energy": -36.94, 
			 "cosmo_repulsion_energy": 2.76, 
			 "cosmo_total_nonelectrostatic_energy": 17.08, 
			 "SMD_solvation_energy": 6.69 
		},
		"coords": [
			{
				"x": 2.7779822575,
				"y": -2.7479922664,
				"z": 0.1404785723,
				"element": "C" 
			},
			{
				"x": 1.5540743121,
				"y": -3.058761207,
				"z": 1.0171403506,
				"element": "C" 
			},
			{
				"x": 1.6195508015,
				"y": -2.2488950383,
				"z": 2.3365972911,
				"element": "C" 
			},
			{
				"x": 1.2405650908,
				"y": -0.7737929278,
				"z": 2.1530254299,
				"element": "C" 
			},
			{
				"x": -0.1901514271,
				"y": -0.6224366576,
				"z": 1.5843648851,
				"element": "C" 
			},
			{
				"x": -0.3397321178,
				"y": -1.3705007136,
				"z": 0.2378704459,
				"element": "C" 
			},
			{
				"x": 0.2619576408,
				"y": -0.5306772004,
				"z": -0.9028719716,
				"element": "C" 
			},
			{
				"x": -0.5068702611,
				"y": 0.785233455,
				"z": -1.059019425,
				"element": "C" 
			},
			{
				"x": -0.7159152968,
				"y": 1.5121926245,
				"z": 0.2576048819,
				"element": "C" 
			},
			{
				"x": -1.0688830914,
				"y": 2.8730360832,
				"z": 0.2265069707,
				"element": "C" 
			},
			{
				"x": -1.3212642586,
				"y": 3.5806120316,
				"z": 1.404538134,
				"element": "C" 
			},
			{
				"x": -1.6598857153,
				"y": 4.9009618956,
				"z": 1.5139737506,
				"element": "O" 
			},
			{
				"x": -1.8998153063,
				"y": 5.764155085,
				"z": 0.3972829276,
				"element": "C" 
			},
			{
				"x": -0.7006589274,
				"y": 5.9913869389,
				"z": -0.576408107,
				"element": "C" 
			},
			{
				"x": -1.2936233406,
				"y": 5.8938373586,
				"z": -2.003098086,
				"element": "C" 
			},
			{
				"x": -2.8100947485,
				"y": 6.1098099199,
				"z": -1.8144630264,
				"element": "C" 
			},
			{
				"x": -3.1151259607,
				"y": 5.4007588965,
				"z": -0.4852569278,
				"element": "C" 
			},
			{
				"x": -1.2179961493,
				"y": 2.9055802348,
				"z": 2.6327668803,
				"element": "C" 
			},
			{
				"x": -0.865287095,
				"y": 1.5659301968,
				"z": 2.6583082652,
				"element": "C" 
			},
			{
				"x": -0.6027988019,
				"y": 0.8405139487,
				"z": 1.4829433229,
				"element": "C" 
			},
			{
				"x": 0.181571214,
				"y": -2.8262263621,
				"z": 0.3009725388,
				"element": "C" 
			},
			{
				"x": -0.8112834707,
				"y": -3.7905693954,
				"z": 1.0145955046,
				"element": "C" 
			},
			{
				"x": 0.0315497679,
				"y": -4.8193452418,
				"z": 1.7936720383,
				"element": "C" 
			},
			{
				"x": -0.4008954943,
				"y": -6.1495519179,
				"z": 1.4678630877,
				"element": "O" 
			},
			{
				"x": 1.4933279839,
				"y": -4.57242936,
				"z": 1.3350285886,
				"element": "C" 
			},
			{
				"x": 1.7377705577,
				"y": -5.3283375159,
				"z": 0.1596842609,
				"element": "O" 
			},
			{
				"x": 2.7263410072,
				"y": -3.2977179809,
				"z": -0.8013037085,
				"element": "H" 
			},
			{
				"x": 3.6988522256,
				"y": -3.0514883034,
				"z": 0.6526094319,
				"element": "H" 
			},
			{
				"x": 2.8652404005,
				"y": -1.6818716861,
				"z": -0.0836594743,
				"element": "H" 
			},
			{
				"x": 0.9406246792,
				"y": -2.6811194251,
				"z": 3.0844109261,
				"element": "H" 
			},
			{
				"x": 2.6280129751,
				"y": -2.3322776198,
				"z": 2.7614892805,
				"element": "H" 
			},
			{
				"x": 1.304454934,
				"y": -0.2532331648,
				"z": 3.1154486406,
				"element": "H" 
			},
			{
				"x": 1.9568162349,
				"y": -0.269765037,
				"z": 1.4936164599,
				"element": "H" 
			},
			{
				"x": -0.863270271,
				"y": -1.1006040292,
				"z": 2.3121463595,
				"element": "H" 
			},
			{
				"x": -1.4180133297,
				"y": -1.4379422299,
				"z": 0.0240249477,
				"element": "H" 
			},
			{
				"x": 1.3179164217,
				"y": -0.3133114067,
				"z": -0.7089679134,
				"element": "H" 
			},
			{
				"x": 0.2290136571,
				"y": -1.0950258729,
				"z": -1.8423587723,
				"element": "H" 
			},
			{
				"x": 0.0049944012,
				"y": 1.4456861289,
				"z": -1.7697704883,
				"element": "H" 
			},
			{
				"x": -1.4911430318,
				"y": 0.5729062677,
				"z": -1.5031349317,
				"element": "H" 
			},
			{
				"x": -1.1411783521,
				"y": 3.3569348788,
				"z": -0.7392300543,
				"element": "H" 
			},
			{
				"x": -2.1176330021,
				"y": 6.7112067508,
				"z": 0.8998137393,
				"element": "H" 
			},
			{
				"x": 0.0981147976,
				"y": 5.2674571198,
				"z": -0.4004060302,
				"element": "H" 
			},
			{
				"x": -0.2706740815,
				"y": 6.9818450374,
				"z": -0.3983416229,
				"element": "H" 
			},
			{
				"x": -0.8447896956,
				"y": 6.61122513,
				"z": -2.6966622418,
				"element": "H" 
			},
			{
				"x": -1.1171827147,
				"y": 4.8961627338,
				"z": -2.4237329713,
				"element": "H" 
			},
			{
				"x": -3.4050217068,
				"y": 5.7287760338,
				"z": -2.6501917567,
				"element": "H" 
			},
			{
				"x": -3.0270724256,
				"y": 7.1823067674,
				"z": -1.7255292647,
				"element": "H" 
			},
			{
				"x": -4.0576258973,
				"y": 5.7134903929,
				"z": -0.026610701,
				"element": "H" 
			},
			{
				"x": -3.1690333968,
				"y": 4.318089975,
				"z": -0.6342203749,
				"element": "H" 
			},
			{
				"x": -1.4212907456,
				"y": 3.4565704999,
				"z": 3.545181956,
				"element": "H" 
			},
			{
				"x": -0.7946542879,
				"y": 1.0590110304,
				"z": 3.6185679281,
				"element": "H" 
			},
			{
				"x": 0.3005013223,
				"y": -3.1843025889,
				"z": -0.7279166447,
				"element": "H" 
			},
			{
				"x": -1.4452891474,
				"y": -4.3160775214,
				"z": 0.2945321935,
				"element": "H" 
			},
			{
				"x": -1.4830265838,
				"y": -3.253091439,
				"z": 1.6915613993,
				"element": "H" 
			},
			{
				"x": -0.0610613384,
				"y": -4.6663977671,
				"z": 2.8753340165,
				"element": "H" 
			},
			{
				"x": -0.0538335793,
				"y": -6.7512471879,
				"z": 2.140377252,
				"element": "H" 
			},
			{
				"x": 2.2242666103,
				"y": -4.8459492151,
				"z": 2.116377801,
				"element": "H" 
			},
			{
				"x": 1.0782757571,
				"y": -6.0427391365,
				"z": 0.1766440363,
				"element": "H" 
			}
		],
		 "valence_orbital": [ 
			{
				"type": "occ",
				"energy": -0.27996,
				"method": "rhf"
			},
			{
				"type": "occ",
				"energy": -0.27268,
				"method": "rhf"
			},
			{
				"type": "occ",
				"energy": -0.25052,
				"method": "rhf"
			},
			{
				"type": "occ",
				"energy": -0.23295,
				"method": "rhf"
			},
			{
				"type": "occ",
				"energy": -0.20136,
				"method": "rhf"
			},
			{
				"type": "unocc",
				"energy": 0.00466,
				"method": "rhf"
			},
			{
				"type": "unocc",
				"energy": 0.0214,
				"method": "rhf"
			},
			{
				"type": "unocc",
				"energy": 0.05577,
				"method": "rhf"
			},
			{
				"type": "unocc",
				"energy": 0.07342,
				"method": "rhf"
			},
			{
				"type": "unocc",
				"energy": 0.07745,
				"method": "rhf"
			}
		],
		"cosmo_sigma_profile": { 
			"-0.025": 0.0,
			"-0.024": 0.0,
			"-0.023": 0.0,
			"-0.022": 0.0,
			"-0.021": 0.0,
			"-0.02": 0.0,
			"-0.019": 0.0,
			"-0.018": 0.0,
			"-0.017": 0.0163896988863,
			"-0.016": 0.930098314762,
			"-0.015": 1.29115645925,
			"-0.014": 1.05264907506,
			"-0.013": 0.644951174807,
			"-0.012": 1.0601884462,
			"-0.011": 1.17084810426,
			"-0.01": 0.855893306818,
			"-0.009": 1.32504523804,
			"-0.008": 1.85184306239,
			"-0.007": 1.39422272963,
			"-0.006": 2.34602815426,
			"-0.005": 9.33867496399,
			"-0.004": 21.146314191,
			"-0.003": 44.3449884332,
			"-0.002": 57.4426568289,
			"-0.001": 59.2696389156,
			"0.0": 51.9785772867,
			"0.001": 43.265409999,
			"0.002": 18.1015398241,
			"0.003": 11.9380021387,
			"0.004": 10.961732005,
			"0.005": 11.4328217467,
			"0.006": 11.5701295052,
			"0.007": 9.47215619901,
			"0.008": 3.58731274398,
			"0.009": 3.12144245122,
			"0.01": 4.91805972522,
			"0.011": 3.38084258012,
			"0.012": 1.98461440528,
			"0.013": 2.68243869499,
			"0.014": 0.983558431683,
			"0.015": 0.765976915443,
			"0.016": 0.116657539651,
			"0.017": 0.0,
			"0.018": 0.0,
			"0.019": 0.0,
			"0.02": 0.0,
			"0.021": 0.0,
			"0.022": 0.0,
			"0.023": 0.0,
			"0.024": 0.0,
			"0.025": 0.0
		}
	}
}
