{
	 "smiles": "ClCC(=O)NC1=CC(Cl)=CC=C1", 
	 "Tm": 344.15, 
	 "num_atms": 19, 
	 "gaussian": { 
		 "optdone": 1, 
		 "sigma_profile": "yes", 
		 "theory": "DFT", 
		 "functional": "B3LYP", 
		 "basiset": "6-31G**", 
		 "properties": { 
			 "R2extent": 3668.9854, 
			 "electric_dipole_moment_norm": 4.52753024507, 
			 "electric_quadrupole_moment_norm": 13.9446290069, 
			 "total_energy": -1359.43712481, 
			 "HOMO_LUMO_gap": 0.20858, 
			 "cosmo_polarized_energy": -14.98, 
			 "cosmo_cavitation_energy": 27.24, 
			 "cosmo_dispersion_energy": -20.0, 
			 "cosmo_repulsion_energy": 1.63, 
			 "cosmo_total_nonelectrostatic_energy": 8.87, 
			 "SMD_solvation_energy": 4.75 
		},
		"coords": [
			{
				"x": 2.15669102,
				"y": -3.2748902755,
				"z": -1.2158561392,
				"element": "Cl" 
			},
			{
				"x": 0.8628029939,
				"y": -2.319775276,
				"z": -0.4245061635,
				"element": "C" 
			},
			{
				"x": 1.1537384559,
				"y": -2.0980173327,
				"z": 1.0635324514,
				"element": "C" 
			},
			{
				"x": 1.8605849483,
				"y": -2.836117396,
				"z": 1.7215956142,
				"element": "O" 
			},
			{
				"x": 0.5621930207,
				"y": -0.9916319082,
				"z": 1.6537206616,
				"element": "N" 
			},
			{
				"x": -0.2447863436,
				"y": 0.0427952407,
				"z": 1.1257176103,
				"element": "C" 
			},
			{
				"x": -1.3365152749,
				"y": -0.2274802241,
				"z": 0.2893281131,
				"element": "C" 
			},
			{
				"x": -2.1048804868,
				"y": 0.8317629389,
				"z": -0.1917277074,
				"element": "C" 
			},
			{
				"x": -3.4590734353,
				"y": 0.4787058379,
				"z": -1.2525066141,
				"element": "Cl" 
			},
			{
				"x": -1.8420610285,
				"y": 2.1519563398,
				"z": 0.1678221399,
				"element": "C" 
			},
			{
				"x": -0.7733975802,
				"y": 2.4046742608,
				"z": 1.0300625561,
				"element": "C" 
			},
			{
				"x": 0.0266301059,
				"y": 1.3673009888,
				"z": 1.5012121624,
				"element": "C" 
			},
			{
				"x": 0.7634170219,
				"y": -1.3779286823,
				"z": -0.9640781614,
				"element": "H" 
			},
			{
				"x": -0.0649458062,
				"y": -2.885620336,
				"z": -0.5371849017,
				"element": "H" 
			},
			{
				"x": 0.8899812304,
				"y": -0.8706231743,
				"z": 2.6049078974,
				"element": "H" 
			},
			{
				"x": -1.6086426427,
				"y": -1.245029092,
				"z": 0.0391535364,
				"element": "H" 
			},
			{
				"x": -2.4602965966,
				"y": 2.9564344844,
				"z": -0.2128647895,
				"element": "H" 
			},
			{
				"x": -0.555108462,
				"y": 3.4264812022,
				"z": 1.3248160812,
				"element": "H" 
			},
			{
				"x": 0.8715688599,
				"y": 1.5757024036,
				"z": 2.1505556528,
				"element": "H" 
			}
		],
		 "valence_orbital": [ 
			{
				"type": "occ",
				"energy": -0.30349,
				"method": "rhf"
			},
			{
				"type": "occ",
				"energy": -0.30005,
				"method": "rhf"
			},
			{
				"type": "occ",
				"energy": -0.27493,
				"method": "rhf"
			},
			{
				"type": "occ",
				"energy": -0.26996,
				"method": "rhf"
			},
			{
				"type": "occ",
				"energy": -0.24852,
				"method": "rhf"
			},
			{
				"type": "unocc",
				"energy": -0.03994,
				"method": "rhf"
			},
			{
				"type": "unocc",
				"energy": -0.03489,
				"method": "rhf"
			},
			{
				"type": "unocc",
				"energy": 0.00187,
				"method": "rhf"
			},
			{
				"type": "unocc",
				"energy": 0.01386,
				"method": "rhf"
			},
			{
				"type": "unocc",
				"energy": 0.03195,
				"method": "rhf"
			}
		],
		"cosmo_sigma_profile": { 
			"-0.025": 0.0,
			"-0.024": 0.0,
			"-0.023": 0.0,
			"-0.022": 0.0,
			"-0.021": 0.0,
			"-0.02": 0.0,
			"-0.019": 0.0,
			"-0.018": 0.0,
			"-0.017": 0.0,
			"-0.016": 0.0299792444373,
			"-0.015": 0.70873232866,
			"-0.014": 1.25449201968,
			"-0.013": 0.887376886739,
			"-0.012": 1.71017795538,
			"-0.011": 2.82545780898,
			"-0.01": 3.63346609708,
			"-0.009": 4.17069037522,
			"-0.008": 6.36084287156,
			"-0.007": 10.6016412419,
			"-0.006": 11.3179153749,
			"-0.005": 11.2028170968,
			"-0.004": 8.30912584751,
			"-0.003": 9.682661883,
			"-0.002": 9.84445856622,
			"-0.001": 12.8945858804,
			"0.0": 13.49703352,
			"0.001": 18.1200640797,
			"0.002": 20.2113021379,
			"0.003": 18.1462965287,
			"0.004": 17.2059469,
			"0.005": 12.2207640284,
			"0.006": 7.09397301277,
			"0.007": 2.07867279846,
			"0.008": 2.02647163222,
			"0.009": 1.84008925707,
			"0.01": 1.97166249836,
			"0.011": 2.97920855521,
			"0.012": 4.84380501005,
			"0.013": 3.85404428338,
			"0.014": 0.923013411219,
			"0.015": 0.0,
			"0.016": 0.0,
			"0.017": 0.0,
			"0.018": 0.0,
			"0.019": 0.0,
			"0.02": 0.0,
			"0.021": 0.0,
			"0.022": 0.0,
			"0.023": 0.0,
			"0.024": 0.0,
			"0.025": 0.0
		}
	}
}
