{
	 "smiles": "CC(=O)C1=CC=CC(=C1)S(Cl)(=O)=O", 
	 "Tm": 316.15, 
	 "num_atms": 20, 
	 "gaussian": { 
		 "optdone": 1, 
		 "sigma_profile": "yes", 
		 "theory": "DFT", 
		 "functional": "B3LYP", 
		 "basiset": "6-31G**", 
		 "properties": { 
			 "R2extent": 3550.3286, 
			 "electric_dipole_moment_norm": 2.59114073142, 
			 "electric_quadrupole_moment_norm": 21.1694749864, 
			 "total_energy": -1393.05451697, 
			 "HOMO_LUMO_gap": 0.17404, 
			 "cosmo_polarized_energy": -12.07, 
			 "cosmo_cavitation_energy": 28.3, 
			 "cosmo_dispersion_energy": -20.75, 
			 "cosmo_repulsion_energy": 1.61, 
			 "cosmo_total_nonelectrostatic_energy": 9.16, 
			 "SMD_solvation_energy": 4.28 
		},
		"coords": [
			{
				"x": 1.1120946276,
				"y": 3.1938409832,
				"z": 0.5229136621,
				"element": "C" 
			},
			{
				"x": -0.0241426565,
				"y": 3.1234389881,
				"z": -0.4779164784,
				"element": "C" 
			},
			{
				"x": -0.5570268894,
				"y": 4.1336722546,
				"z": -0.9053932867,
				"element": "O" 
			},
			{
				"x": -0.497810829,
				"y": 1.7717273199,
				"z": -0.9470298125,
				"element": "C" 
			},
			{
				"x": -1.5449095357,
				"y": 1.7239224229,
				"z": -1.8814998376,
				"element": "C" 
			},
			{
				"x": -2.0238580502,
				"y": 0.5074271498,
				"z": -2.3614874273,
				"element": "C" 
			},
			{
				"x": -1.4674667853,
				"y": -0.6916449752,
				"z": -1.9125320717,
				"element": "C" 
			},
			{
				"x": -0.4302123104,
				"y": -0.6299533578,
				"z": -0.9816612143,
				"element": "C" 
			},
			{
				"x": 0.067554193,
				"y": 0.575994269,
				"z": -0.490405633,
				"element": "C" 
			},
			{
				"x": 0.3100367869,
				"y": -2.1548085758,
				"z": -0.410938489,
				"element": "S" 
			},
			{
				"x": -0.9192451613,
				"y": -2.611140157,
				"z": 1.2718880767,
				"element": "Cl" 
			},
			{
				"x": 1.6377668571,
				"y": -1.87390784,
				"z": 0.1210352496,
				"element": "O" 
			},
			{
				"x": 0.0662440641,
				"y": -3.2058275234,
				"z": -1.3902259088,
				"element": "O" 
			},
			{
				"x": 2.016617402,
				"y": 2.7196051755,
				"z": 0.1260194046,
				"element": "H" 
			},
			{
				"x": 1.3194848213,
				"y": 4.2411776911,
				"z": 0.7423884429,
				"element": "H" 
			},
			{
				"x": 0.8509787916,
				"y": 2.6734871367,
				"z": 1.4512221964,
				"element": "H" 
			},
			{
				"x": -1.9647877705,
				"y": 2.6658927599,
				"z": -2.2181470613,
				"element": "H" 
			},
			{
				"x": -2.8290598023,
				"y": 0.4866997809,
				"z": -3.0888627539,
				"element": "H" 
			},
			{
				"x": -1.8171015832,
				"y": -1.650835227,
				"z": -2.2777616145,
				"element": "H" 
			},
			{
				"x": 0.8830438301,
				"y": 0.5658317247,
				"z": 0.2229945567,
				"element": "H" 
			}
		],
		 "valence_orbital": [ 
			{
				"type": "occ",
				"energy": -0.33843,
				"method": "rhf"
			},
			{
				"type": "occ",
				"energy": -0.3196,
				"method": "rhf"
			},
			{
				"type": "occ",
				"energy": -0.29902,
				"method": "rhf"
			},
			{
				"type": "occ",
				"energy": -0.29541,
				"method": "rhf"
			},
			{
				"type": "occ",
				"energy": -0.27196,
				"method": "rhf"
			},
			{
				"type": "unocc",
				"energy": -0.09792,
				"method": "rhf"
			},
			{
				"type": "unocc",
				"energy": -0.0827,
				"method": "rhf"
			},
			{
				"type": "unocc",
				"energy": -0.05078,
				"method": "rhf"
			},
			{
				"type": "unocc",
				"energy": 0.00332,
				"method": "rhf"
			},
			{
				"type": "unocc",
				"energy": 0.04959,
				"method": "rhf"
			}
		],
		"cosmo_sigma_profile": { 
			"-0.025": 0.0,
			"-0.024": 0.0,
			"-0.023": 0.0,
			"-0.022": 0.0,
			"-0.021": 0.0,
			"-0.02": 0.0,
			"-0.019": 0.0,
			"-0.018": 0.0,
			"-0.017": 0.0,
			"-0.016": 0.0,
			"-0.015": 0.0,
			"-0.014": 0.0,
			"-0.013": 0.0,
			"-0.012": 0.0,
			"-0.011": 0.0,
			"-0.01": 0.0,
			"-0.009": 1.8357877679,
			"-0.008": 7.95845160706,
			"-0.007": 13.9326793387,
			"-0.006": 12.6345754771,
			"-0.005": 12.0405880244,
			"-0.004": 12.3418272336,
			"-0.003": 13.5990106472,
			"-0.002": 18.4018202169,
			"-0.001": 23.8044221,
			"0.0": 21.2212820126,
			"0.001": 12.8040447527,
			"0.002": 11.0524314367,
			"0.003": 16.7185506704,
			"0.004": 8.48030719217,
			"0.005": 4.51772278813,
			"0.006": 4.80107772287,
			"0.007": 8.21726890298,
			"0.008": 11.7532488666,
			"0.009": 4.85318657406,
			"0.01": 2.49753697952,
			"0.011": 3.92411167651,
			"0.012": 2.03866503832,
			"0.013": 0.29888303052,
			"0.014": 0.0,
			"0.015": 0.0,
			"0.016": 0.0,
			"0.017": 0.0,
			"0.018": 0.0,
			"0.019": 0.0,
			"0.02": 0.0,
			"0.021": 0.0,
			"0.022": 0.0,
			"0.023": 0.0,
			"0.024": 0.0,
			"0.025": 0.0
		}
	}
}
