{
	 "smiles": "CCC(C)CC=C", 
	 "Tm": 132.15, 
	 "num_atms": 21, 
	 "gaussian": { 
		 "optdone": 1, 
		 "sigma_profile": "yes", 
		 "theory": "DFT", 
		 "functional": "B3LYP", 
		 "basiset": "6-31G**", 
		 "properties": { 
			 "R2extent": 1351.7049, 
			 "electric_dipole_moment_norm": 0.36388572382, 
			 "electric_quadrupole_moment_norm": 1.50826338217, 
			 "total_energy": -275.173464533, 
			 "HOMO_LUMO_gap": 0.27518, 
			 "cosmo_polarized_energy": -1.57, 
			 "cosmo_cavitation_energy": 22.26, 
			 "cosmo_dispersion_energy": -15.93, 
			 "cosmo_repulsion_energy": 1.35, 
			 "cosmo_total_nonelectrostatic_energy": 7.67, 
			 "SMD_solvation_energy": 4.41 
		},
		"coords": [
			{
				"x": -0.6944432811,
				"y": 3.5994636038,
				"z": -1.3660906318,
				"element": "C" 
			},
			{
				"x": -0.8074982694,
				"y": 2.1443878861,
				"z": -1.8344987057,
				"element": "C" 
			},
			{
				"x": -0.4330183295,
				"y": 1.0885503702,
				"z": -0.7735338287,
				"element": "C" 
			},
			{
				"x": -1.3491802869,
				"y": 1.1624799363,
				"z": 0.4592736256,
				"element": "C" 
			},
			{
				"x": -0.4584604507,
				"y": -0.3181170526,
				"z": -1.4021020256,
				"element": "C" 
			},
			{
				"x": 0.2072438117,
				"y": -1.4390662503,
				"z": -0.6402297995,
				"element": "C" 
			},
			{
				"x": 1.0075059304,
				"y": -1.342724621,
				"z": 0.4227242031,
				"element": "C" 
			},
			{
				"x": -1.3993843024,
				"y": 3.8286363362,
				"z": -0.5609931908,
				"element": "H" 
			},
			{
				"x": -0.9023138077,
				"y": 4.2914177399,
				"z": -2.1889013221,
				"element": "H" 
			},
			{
				"x": 0.3143054771,
				"y": 3.8186134701,
				"z": -0.9966569909,
				"element": "H" 
			},
			{
				"x": -1.8322721495,
				"y": 1.9510967926,
				"z": -2.1835694828,
				"element": "H" 
			},
			{
				"x": -0.1586604182,
				"y": 2.003991178,
				"z": -2.709382299,
				"element": "H" 
			},
			{
				"x": 0.5981895523,
				"y": 1.3010735888,
				"z": -0.4546648653,
				"element": "H" 
			},
			{
				"x": -2.4001778005,
				"y": 1.0561775362,
				"z": 0.161937658,
				"element": "H" 
			},
			{
				"x": -1.1240330281,
				"y": 0.3637813504,
				"z": 1.1707633508,
				"element": "H" 
			},
			{
				"x": -1.2481503871,
				"y": 2.1161822684,
				"z": 0.9858205942,
				"element": "H" 
			},
			{
				"x": -1.5042049372,
				"y": -0.602266265,
				"z": -1.5963592283,
				"element": "H" 
			},
			{
				"x": 0.0083313536,
				"y": -0.2768622958,
				"z": -2.3988369489,
				"element": "H" 
			},
			{
				"x": 0.0135690034,
				"y": -2.4332667065,
				"z": -1.0459729492,
				"element": "H" 
			},
			{
				"x": 1.4521855603,
				"y": -2.2262259794,
				"z": 0.8711826636,
				"element": "H" 
			},
			{
				"x": 1.2537667594,
				"y": -0.3922228867,
				"z": 0.8869901732,
				"element": "H" 
			}
		],
		 "valence_orbital": [ 
			{
				"type": "occ",
				"energy": -0.34775,
				"method": "rhf"
			},
			{
				"type": "occ",
				"energy": -0.31807,
				"method": "rhf"
			},
			{
				"type": "occ",
				"energy": -0.31352,
				"method": "rhf"
			},
			{
				"type": "occ",
				"energy": -0.30583,
				"method": "rhf"
			},
			{
				"type": "occ",
				"energy": -0.24835,
				"method": "rhf"
			},
			{
				"type": "unocc",
				"energy": 0.02683,
				"method": "rhf"
			},
			{
				"type": "unocc",
				"energy": 0.08835,
				"method": "rhf"
			},
			{
				"type": "unocc",
				"energy": 0.11198,
				"method": "rhf"
			},
			{
				"type": "unocc",
				"energy": 0.12439,
				"method": "rhf"
			},
			{
				"type": "unocc",
				"energy": 0.13629,
				"method": "rhf"
			}
		],
		"cosmo_sigma_profile": { 
			"-0.025": 0.0,
			"-0.024": 0.0,
			"-0.023": 0.0,
			"-0.022": 0.0,
			"-0.021": 0.0,
			"-0.02": 0.0,
			"-0.019": 0.0,
			"-0.018": 0.0,
			"-0.017": 0.0,
			"-0.016": 0.0,
			"-0.015": 0.0,
			"-0.014": 0.0,
			"-0.013": 0.0,
			"-0.012": 0.0,
			"-0.011": 0.0,
			"-0.01": 0.0,
			"-0.009": 0.0,
			"-0.008": 0.0,
			"-0.007": 0.0,
			"-0.006": 0.0,
			"-0.005": 0.672334907608,
			"-0.004": 4.91488703003,
			"-0.003": 11.4889341594,
			"-0.002": 28.7064437897,
			"-0.001": 31.367493703,
			"0.0": 32.2614454715,
			"0.001": 28.4823377751,
			"0.002": 15.7194306822,
			"0.003": 6.05572150449,
			"0.004": 3.10115038184,
			"0.005": 3.48298725058,
			"0.006": 3.15581315303,
			"0.007": 1.87951759795,
			"0.008": 0.793124595496,
			"0.009": 0.0,
			"0.01": 0.0,
			"0.011": 0.0,
			"0.012": 0.0,
			"0.013": 0.0,
			"0.014": 0.0,
			"0.015": 0.0,
			"0.016": 0.0,
			"0.017": 0.0,
			"0.018": 0.0,
			"0.019": 0.0,
			"0.02": 0.0,
			"0.021": 0.0,
			"0.022": 0.0,
			"0.023": 0.0,
			"0.024": 0.0,
			"0.025": 0.0
		}
	}
}
