{
	 "smiles": "CC(=O)OC1C(O)C2C(C)(C)CCC(O)C2(C)C2(O)C(=O)CC(C)(OC12C)C=C", 
	 "Tm": 530.15, 
	 "num_atms": 63, 
	 "gaussian": { 
		 "optdone": 1, 
		 "sigma_profile": "yes", 
		 "theory": "DFT", 
		 "functional": "B3LYP", 
		 "basiset": "6-31G**", 
		 "properties": { 
			 "R2extent": 9522.3424, 
			 "electric_dipole_moment_norm": 2.67496383153, 
			 "electric_quadrupole_moment_norm": 11.0003935643, 
			 "total_energy": -1385.35069565, 
			 "HOMO_LUMO_gap": 0.19756, 
			 "cosmo_polarized_energy": -17.59, 
			 "cosmo_cavitation_energy": 53.28, 
			 "cosmo_dispersion_energy": -34.93, 
			 "cosmo_repulsion_energy": 2.52, 
			 "cosmo_total_nonelectrostatic_energy": 20.86, 
			 "SMD_solvation_energy": 10.6 
		},
		"coords": [
			{
				"x": 0.7432779311,
				"y": 3.5180048867,
				"z": 2.4699691177,
				"element": "C" 
			},
			{
				"x": 1.6854916525,
				"y": 2.5560237969,
				"z": 1.7882463788,
				"element": "C" 
			},
			{
				"x": 2.852846927,
				"y": 2.7718282655,
				"z": 1.5475724449,
				"element": "O" 
			},
			{
				"x": 1.0424890409,
				"y": 1.401182115,
				"z": 1.4882907485,
				"element": "O" 
			},
			{
				"x": 1.7947403291,
				"y": 0.3836690029,
				"z": 0.8088181802,
				"element": "C" 
			},
			{
				"x": 1.4583703993,
				"y": -0.9591889555,
				"z": 1.4689885937,
				"element": "C" 
			},
			{
				"x": 1.8489658619,
				"y": -0.8895694113,
				"z": 2.8405901254,
				"element": "O" 
			},
			{
				"x": -0.0547605319,
				"y": -1.2597774141,
				"z": 1.3899402071,
				"element": "C" 
			},
			{
				"x": -0.5150984108,
				"y": -2.5904201771,
				"z": 2.092045219,
				"element": "C" 
			},
			{
				"x": 0.2114852319,
				"y": -3.8534427894,
				"z": 1.5879653147,
				"element": "C" 
			},
			{
				"x": -0.3125875868,
				"y": -2.5159586494,
				"z": 3.6255047831,
				"element": "C" 
			},
			{
				"x": -2.0421941474,
				"y": -2.6901781854,
				"z": 1.8839070676,
				"element": "C" 
			},
			{
				"x": -2.5125552156,
				"y": -2.7818700641,
				"z": 0.4265102262,
				"element": "C" 
			},
			{
				"x": -1.5893111482,
				"y": -2.142006561,
				"z": -0.629174097,
				"element": "C" 
			},
			{
				"x": -0.9097747175,
				"y": -3.214826067,
				"z": -1.3280048932,
				"element": "O" 
			},
			{
				"x": -0.6377621843,
				"y": -1.0034540596,
				"z": -0.0891886973,
				"element": "C" 
			},
			{
				"x": -1.5557841201,
				"y": 0.2444553015,
				"z": -0.0116202424,
				"element": "C" 
			},
			{
				"x": 0.5440945622,
				"y": -0.7663888175,
				"z": -1.1332701009,
				"element": "C" 
			},
			{
				"x": 1.3506745522,
				"y": -1.9351931841,
				"z": -1.2432418244,
				"element": "O" 
			},
			{
				"x": 0.009851633,
				"y": -0.4719859367,
				"z": -2.5728190319,
				"element": "C" 
			},
			{
				"x": -0.6307347251,
				"y": -1.3032790524,
				"z": -3.2033211722,
				"element": "O" 
			},
			{
				"x": 0.4322147495,
				"y": 0.8019939254,
				"z": -3.279787961,
				"element": "C" 
			},
			{
				"x": 0.6228198522,
				"y": 2.0358289189,
				"z": -2.383277814,
				"element": "C" 
			},
			{
				"x": 1.7156236055,
				"y": 2.9674810038,
				"z": -2.9425497219,
				"element": "C" 
			},
			{
				"x": 0.9733287136,
				"y": 1.6605740139,
				"z": -1.0295201421,
				"element": "O" 
			},
			{
				"x": 1.5381295829,
				"y": 0.3834416611,
				"z": -0.734255834,
				"element": "C" 
			},
			{
				"x": 2.92503833,
				"y": 0.1898672337,
				"z": -1.3866317459,
				"element": "C" 
			},
			{
				"x": -0.6489500338,
				"y": 2.8540569186,
				"z": -2.2098027653,
				"element": "C" 
			},
			{
				"x": -1.6994008502,
				"y": 2.9372252432,
				"z": -3.0246391334,
				"element": "C" 
			},
			{
				"x": 0.2602330159,
				"y": 3.0335045363,
				"z": 3.3228121245,
				"element": "H" 
			},
			{
				"x": -0.0452973735,
				"y": 3.8164749125,
				"z": 1.7720868074,
				"element": "H" 
			},
			{
				"x": 1.29574443,
				"y": 4.3980991601,
				"z": 2.7975688912,
				"element": "H" 
			},
			{
				"x": 2.8504522451,
				"y": 0.6119345186,
				"z": 0.9738353459,
				"element": "H" 
			},
			{
				"x": 2.022777644,
				"y": -1.7378394789,
				"z": 0.946873333,
				"element": "H" 
			},
			{
				"x": 2.8104739837,
				"y": -0.7984742435,
				"z": 2.8661702169,
				"element": "H" 
			},
			{
				"x": -0.5067754059,
				"y": -0.4729088054,
				"z": 2.0031921252,
				"element": "H" 
			},
			{
				"x": 0.0621314346,
				"y": -4.0443150021,
				"z": 0.5250068198,
				"element": "H" 
			},
			{
				"x": -0.1541053872,
				"y": -4.7303619788,
				"z": 2.1352054978,
				"element": "H" 
			},
			{
				"x": 1.287782026,
				"y": -3.7843870311,
				"z": 1.7782611021,
				"element": "H" 
			},
			{
				"x": -0.7277767382,
				"y": -1.5910665063,
				"z": 4.0406235435,
				"element": "H" 
			},
			{
				"x": -0.8344724347,
				"y": -3.3574800835,
				"z": 4.0969959015,
				"element": "H" 
			},
			{
				"x": 0.7383611149,
				"y": -2.5573016112,
				"z": 3.904773816,
				"element": "H" 
			},
			{
				"x": -2.4235364751,
				"y": -3.5556466921,
				"z": 2.438885611,
				"element": "H" 
			},
			{
				"x": -2.4929346791,
				"y": -1.8098294886,
				"z": 2.3615314599,
				"element": "H" 
			},
			{
				"x": -3.5117761072,
				"y": -2.3400406889,
				"z": 0.3456794789,
				"element": "H" 
			},
			{
				"x": -2.6189551324,
				"y": -3.8261732345,
				"z": 0.1204089865,
				"element": "H" 
			},
			{
				"x": -2.2269792945,
				"y": -1.6622773156,
				"z": -1.3764222065,
				"element": "H" 
			},
			{
				"x": -0.8734358764,
				"y": -2.9011218603,
				"z": -2.2525107218,
				"element": "H" 
			},
			{
				"x": -1.9425499686,
				"y": 0.5326105787,
				"z": -0.9943160307,
				"element": "H" 
			},
			{
				"x": -2.4176103704,
				"y": 0.0241464488,
				"z": 0.6270892998,
				"element": "H" 
			},
			{
				"x": -1.0328736379,
				"y": 1.1015155816,
				"z": 0.4081594009,
				"element": "H" 
			},
			{
				"x": 0.7214831338,
				"y": -2.6887125851,
				"z": -1.2384757349,
				"element": "H" 
			},
			{
				"x": -0.2793764891,
				"y": 0.9870355001,
				"z": -4.0858520272,
				"element": "H" 
			},
			{
				"x": 1.378520108,
				"y": 0.5537767764,
				"z": -3.7765023461,
				"element": "H" 
			},
			{
				"x": 2.6755106279,
				"y": 2.4498809848,
				"z": -3.0137115714,
				"element": "H" 
			},
			{
				"x": 1.4351932412,
				"y": 3.3277661275,
				"z": -3.9374790557,
				"element": "H" 
			},
			{
				"x": 1.8410770127,
				"y": 3.8314865295,
				"z": -2.2845401797,
				"element": "H" 
			},
			{
				"x": 3.5181357768,
				"y": 1.0860851528,
				"z": -1.1870824951,
				"element": "H" 
			},
			{
				"x": 3.4300779532,
				"y": -0.6734298476,
				"z": -0.9504863863,
				"element": "H" 
			},
			{
				"x": 2.8861824674,
				"y": 0.0161861189,
				"z": -2.4626948016,
				"element": "H" 
			},
			{
				"x": -0.6236087735,
				"y": 3.4645815861,
				"z": -1.3086088625,
				"element": "H" 
			},
			{
				"x": -2.5262403486,
				"y": 3.602491924,
				"z": -2.7953849175,
				"element": "H" 
			},
			{
				"x": -1.7912610059,
				"y": 2.3655970539,
				"z": -3.9436356547,
				"element": "H" 
			}
		],
		 "valence_orbital": [ 
			{
				"type": "occ",
				"energy": -0.27157,
				"method": "rhf"
			},
			{
				"type": "occ",
				"energy": -0.27012,
				"method": "rhf"
			},
			{
				"type": "occ",
				"energy": -0.2625,
				"method": "rhf"
			},
			{
				"type": "occ",
				"energy": -0.25096,
				"method": "rhf"
			},
			{
				"type": "occ",
				"energy": -0.24368,
				"method": "rhf"
			},
			{
				"type": "unocc",
				"energy": -0.04612,
				"method": "rhf"
			},
			{
				"type": "unocc",
				"energy": 0.00254,
				"method": "rhf"
			},
			{
				"type": "unocc",
				"energy": 0.01539,
				"method": "rhf"
			},
			{
				"type": "unocc",
				"energy": 0.06644,
				"method": "rhf"
			},
			{
				"type": "unocc",
				"energy": 0.07181,
				"method": "rhf"
			}
		],
		"cosmo_sigma_profile": { 
			"-0.025": 0.0,
			"-0.024": 0.0,
			"-0.023": 0.0,
			"-0.022": 0.0,
			"-0.021": 0.0,
			"-0.02": 0.0,
			"-0.019": 0.0,
			"-0.018": 0.0,
			"-0.017": 0.0,
			"-0.016": 0.234570549719,
			"-0.015": 1.28866699534,
			"-0.014": 0.596746594942,
			"-0.013": 0.917640572225,
			"-0.012": 1.5685534331,
			"-0.011": 1.18707721247,
			"-0.01": 0.616871605636,
			"-0.009": 1.96355352139,
			"-0.008": 4.00768511309,
			"-0.007": 6.42364016519,
			"-0.006": 11.5249730769,
			"-0.005": 16.4349971062,
			"-0.004": 28.3651433987,
			"-0.003": 42.3819600826,
			"-0.002": 49.6014373141,
			"-0.001": 43.0309443626,
			"0.0": 41.2658000278,
			"0.001": 35.3902533564,
			"0.002": 30.8313775627,
			"0.003": 20.1552025446,
			"0.004": 12.5326604506,
			"0.005": 11.6042784832,
			"0.006": 9.32395854648,
			"0.007": 6.86328577065,
			"0.008": 6.15982610092,
			"0.009": 6.01075996217,
			"0.01": 5.83641072988,
			"0.011": 6.78621862273,
			"0.012": 6.01845583131,
			"0.013": 2.26171947067,
			"0.014": 0.320434095686,
			"0.015": 0.0,
			"0.016": 0.0,
			"0.017": 0.0,
			"0.018": 0.0,
			"0.019": 0.0,
			"0.02": 0.0,
			"0.021": 0.0,
			"0.022": 0.0,
			"0.023": 0.0,
			"0.024": 0.0,
			"0.025": 0.0
		}
	}
}
