{
	 "smiles": "ClC1=C2CCCC2=NC(=N1)C1=NC=CC=C1", 
	 "Tm": 416.15, 
	 "num_atms": 26, 
	 "gaussian": { 
		 "optdone": 1, 
		 "sigma_profile": "yes", 
		 "theory": "DFT", 
		 "functional": "B3LYP", 
		 "basiset": "6-31G**", 
		 "properties": { 
			 "R2extent": 5054.0153, 
			 "electric_dipole_moment_norm": 0.812627922237, 
			 "electric_quadrupole_moment_norm": 18.8306699666, 
			 "total_energy": -1087.75964216, 
			 "HOMO_LUMO_gap": 0.18303, 
			 "cosmo_polarized_energy": -11.94, 
			 "cosmo_cavitation_energy": 31.71, 
			 "cosmo_dispersion_energy": -23.81, 
			 "cosmo_repulsion_energy": 1.87, 
			 "cosmo_total_nonelectrostatic_energy": 9.77, 
			 "SMD_solvation_energy": 0.81 
		},
		"coords": [
			{
				"x": 1.9366592234,
				"y": 1.1107397987,
				"z": -3.3972829822,
				"element": "Cl" 
			},
			{
				"x": 1.0978403806,
				"y": 0.5762015509,
				"z": -1.9419804081,
				"element": "C" 
			},
			{
				"x": 1.6590541488,
				"y": -0.4060585005,
				"z": -1.1377473023,
				"element": "C" 
			},
			{
				"x": 2.9353683758,
				"y": -1.1993942763,
				"z": -1.198933457,
				"element": "C" 
			},
			{
				"x": 2.6847388438,
				"y": -2.3337316904,
				"z": -0.1618231949,
				"element": "C" 
			},
			{
				"x": 1.6092440347,
				"y": -1.7896515638,
				"z": 0.8138388223,
				"element": "C" 
			},
			{
				"x": 0.9007109354,
				"y": -0.7356952143,
				"z": -0.0049796259,
				"element": "C" 
			},
			{
				"x": -0.2658768557,
				"y": -0.1789390744,
				"z": 0.3059790188,
				"element": "N" 
			},
			{
				"x": -0.7079844518,
				"y": 0.749882307,
				"z": -0.5574296981,
				"element": "C" 
			},
			{
				"x": -0.0627625361,
				"y": 1.1450172191,
				"z": -1.673142333,
				"element": "N" 
			},
			{
				"x": -2.018225708,
				"y": 1.4137256616,
				"z": -0.2832647269,
				"element": "C" 
			},
			{
				"x": -2.6799842254,
				"y": 1.0321470244,
				"z": 0.821151281,
				"element": "N" 
			},
			{
				"x": -3.8509508692,
				"y": 1.6174016942,
				"z": 1.0779874831,
				"element": "C" 
			},
			{
				"x": -4.4244442997,
				"y": 2.5999024047,
				"z": 0.2663540332,
				"element": "C" 
			},
			{
				"x": -3.7324478136,
				"y": 2.9913547913,
				"z": -0.8786506345,
				"element": "C" 
			},
			{
				"x": -2.5087563974,
				"y": 2.3913207112,
				"z": -1.1625265255,
				"element": "C" 
			},
			{
				"x": 3.1543071637,
				"y": -1.5794158575,
				"z": -2.201281487,
				"element": "H" 
			},
			{
				"x": 3.7869262931,
				"y": -0.5689110455,
				"z": -0.9090512288,
				"element": "H" 
			},
			{
				"x": 2.2901899756,
				"y": -3.2132303929,
				"z": -0.681325293,
				"element": "H" 
			},
			{
				"x": 3.6014146739,
				"y": -2.6407152126,
				"z": 0.3472796039,
				"element": "H" 
			},
			{
				"x": 2.0605912338,
				"y": -1.3151037345,
				"z": 1.6954908243,
				"element": "H" 
			},
			{
				"x": 0.9202876709,
				"y": -2.5538205467,
				"z": 1.1835475901,
				"element": "H" 
			},
			{
				"x": -4.3616086982,
				"y": 1.2853895927,
				"z": 1.9808206939,
				"element": "H" 
			},
			{
				"x": -5.3817589135,
				"y": 3.0396882906,
				"z": 0.528253527,
				"element": "H" 
			},
			{
				"x": -4.1374775296,
				"y": 3.7512156454,
				"z": -1.5408010161,
				"element": "H" 
			},
			{
				"x": -1.9307546551,
				"y": 2.6586804176,
				"z": -2.0384829641,
				"element": "H" 
			}
		],
		 "valence_orbital": [ 
			{
				"type": "occ",
				"energy": -0.28999,
				"method": "rhf"
			},
			{
				"type": "occ",
				"energy": -0.27844,
				"method": "rhf"
			},
			{
				"type": "occ",
				"energy": -0.2628,
				"method": "rhf"
			},
			{
				"type": "occ",
				"energy": -0.2436,
				"method": "rhf"
			},
			{
				"type": "occ",
				"energy": -0.2433,
				"method": "rhf"
			},
			{
				"type": "unocc",
				"energy": -0.06027,
				"method": "rhf"
			},
			{
				"type": "unocc",
				"energy": -0.04113,
				"method": "rhf"
			},
			{
				"type": "unocc",
				"energy": -0.01562,
				"method": "rhf"
			},
			{
				"type": "unocc",
				"energy": 0.02119,
				"method": "rhf"
			},
			{
				"type": "unocc",
				"energy": 0.03172,
				"method": "rhf"
			}
		],
		"cosmo_sigma_profile": { 
			"-0.025": 0.0,
			"-0.024": 0.0,
			"-0.023": 0.0,
			"-0.022": 0.0,
			"-0.021": 0.0,
			"-0.02": 0.0,
			"-0.019": 0.0,
			"-0.018": 0.0,
			"-0.017": 0.0,
			"-0.016": 0.0,
			"-0.015": 0.0,
			"-0.014": 0.0,
			"-0.013": 0.0,
			"-0.012": 0.0,
			"-0.011": 0.0,
			"-0.01": 0.0,
			"-0.009": 0.0,
			"-0.008": 0.450745505436,
			"-0.007": 5.05402871527,
			"-0.006": 8.93528590787,
			"-0.005": 18.5184071743,
			"-0.004": 22.4235918784,
			"-0.003": 29.8180033943,
			"-0.002": 28.4467399651,
			"-0.001": 25.4712069874,
			"0.0": 17.62640232,
			"0.001": 20.3902682392,
			"0.002": 22.2728504839,
			"0.003": 15.0736215754,
			"0.004": 10.8541630647,
			"0.005": 6.05220795632,
			"0.006": 4.44798495121,
			"0.007": 3.76707377951,
			"0.008": 3.66432789822,
			"0.009": 1.99795755542,
			"0.01": 0.796323228338,
			"0.011": 1.08112777796,
			"0.012": 1.53855927983,
			"0.013": 1.30146222149,
			"0.014": 1.06754170656,
			"0.015": 0.752951529025,
			"0.016": 0.848609835792,
			"0.017": 1.03755485903,
			"0.018": 0.746058451172,
			"0.019": 1.03014735046,
			"0.02": 0.513903006559,
			"0.021": 0.476089507837,
			"0.022": 0.0,
			"0.023": 0.0,
			"0.024": 0.0,
			"0.025": 0.0
		}
	}
}
