{
	 "smiles": "CC1=C(F)C=C(F)C(=C1)C1=CSC(N)=N1", 
	 "Tm": 493.15, 
	 "num_atms": 23, 
	 "gaussian": { 
		 "optdone": 1, 
		 "sigma_profile": "yes", 
		 "theory": "DFT", 
		 "functional": "B3LYP", 
		 "basiset": "6-31G**", 
		 "properties": { 
			 "R2extent": 5307.993, 
			 "electric_dipole_moment_norm": 2.83989219866, 
			 "electric_quadrupole_moment_norm": 15.6844279398, 
			 "total_energy": -1093.25447934, 
			 "HOMO_LUMO_gap": 0.17321, 
			 "cosmo_polarized_energy": -9.9, 
			 "cosmo_cavitation_energy": 29.83, 
			 "cosmo_dispersion_energy": -22.45, 
			 "cosmo_repulsion_energy": 1.66, 
			 "cosmo_total_nonelectrostatic_energy": 9.05, 
			 "SMD_solvation_energy": 4.65 
		},
		"coords": [
			{
				"x": -2.2811084018,
				"y": 1.3537951415,
				"z": 0.1083240201,
				"element": "C" 
			},
			{
				"x": -1.0579785207,
				"y": 0.9810162472,
				"z": -0.6902711805,
				"element": "C" 
			},
			{
				"x": -0.608478522,
				"y": 1.8074707082,
				"z": -1.7227216712,
				"element": "C" 
			},
			{
				"x": -1.2922593584,
				"y": 2.9426430932,
				"z": -1.9881392648,
				"element": "F" 
			},
			{
				"x": 0.5104216259,
				"y": 1.5138977725,
				"z": -2.4884981697,
				"element": "C" 
			},
			{
				"x": 1.2034355889,
				"y": 0.3451399252,
				"z": -2.2053491066,
				"element": "C" 
			},
			{
				"x": 2.2931006946,
				"y": 0.0754648069,
				"z": -2.9636373384,
				"element": "F" 
			},
			{
				"x": 0.8207140589,
				"y": -0.5385443178,
				"z": -1.1881068002,
				"element": "C" 
			},
			{
				"x": -0.3236753617,
				"y": -0.1805685222,
				"z": -0.4495878517,
				"element": "C" 
			},
			{
				"x": 1.5410167859,
				"y": -1.7836432777,
				"z": -0.8689403982,
				"element": "C" 
			},
			{
				"x": 2.6680884127,
				"y": -2.2700579976,
				"z": -1.4762067008,
				"element": "C" 
			},
			{
				"x": 3.1550871548,
				"y": -3.7758569841,
				"z": -0.7427601539,
				"element": "S" 
			},
			{
				"x": 1.7602294313,
				"y": -3.6384629087,
				"z": 0.3360100158,
				"element": "C" 
			},
			{
				"x": 1.5358544867,
				"y": -4.5657986928,
				"z": 1.3290338754,
				"element": "N" 
			},
			{
				"x": 1.0351283479,
				"y": -2.5769960224,
				"z": 0.1555928308,
				"element": "N" 
			},
			{
				"x": -2.15180852,
				"y": 2.3196958233,
				"z": 0.6085869803,
				"element": "H" 
			},
			{
				"x": -2.4895507575,
				"y": 0.5999711596,
				"z": 0.8710935066,
				"element": "H" 
			},
			{
				"x": -3.1642944274,
				"y": 1.4447051366,
				"z": -0.5333137329,
				"element": "H" 
			},
			{
				"x": 0.837174565,
				"y": 2.1728034697,
				"z": -3.2835599053,
				"element": "H" 
			},
			{
				"x": -0.6327590102,
				"y": -0.8542431504,
				"z": 0.3416118589,
				"element": "H" 
			},
			{
				"x": 3.2301221822,
				"y": -1.8502542692,
				"z": -2.29267642,
				"element": "H" 
			},
			{
				"x": 0.616300658,
				"y": -4.4838715839,
				"z": 1.7429337099,
				"element": "H" 
			},
			{
				"x": 1.8124388871,
				"y": -5.517505557,
				"z": 1.1344818965,
				"element": "H" 
			}
		],
		 "valence_orbital": [ 
			{
				"type": "occ",
				"energy": -0.28436,
				"method": "rhf"
			},
			{
				"type": "occ",
				"energy": -0.27565,
				"method": "rhf"
			},
			{
				"type": "occ",
				"energy": -0.25122,
				"method": "rhf"
			},
			{
				"type": "occ",
				"energy": -0.24217,
				"method": "rhf"
			},
			{
				"type": "occ",
				"energy": -0.20124,
				"method": "rhf"
			},
			{
				"type": "unocc",
				"energy": -0.02803,
				"method": "rhf"
			},
			{
				"type": "unocc",
				"energy": -0.00449,
				"method": "rhf"
			},
			{
				"type": "unocc",
				"energy": 0.00917,
				"method": "rhf"
			},
			{
				"type": "unocc",
				"energy": 0.01702,
				"method": "rhf"
			},
			{
				"type": "unocc",
				"energy": 0.06914,
				"method": "rhf"
			}
		],
		"cosmo_sigma_profile": { 
			"-0.025": 0.0,
			"-0.024": 0.0,
			"-0.023": 0.0,
			"-0.022": 0.0,
			"-0.021": 0.0,
			"-0.02": 0.0,
			"-0.019": 0.0,
			"-0.018": 0.0,
			"-0.017": 0.0,
			"-0.016": 0.0,
			"-0.015": 0.428557301004,
			"-0.014": 2.08949338649,
			"-0.013": 2.52251675105,
			"-0.012": 2.39646914596,
			"-0.011": 2.85112324059,
			"-0.01": 2.45732156552,
			"-0.009": 2.63990973396,
			"-0.008": 3.89006655906,
			"-0.007": 3.85160266694,
			"-0.006": 5.05921986097,
			"-0.005": 8.14651294242,
			"-0.004": 10.9282985355,
			"-0.003": 11.6994980275,
			"-0.002": 12.4424560975,
			"-0.001": 16.4471547158,
			"0.0": 23.6366502393,
			"0.001": 26.1988625563,
			"0.002": 28.1360836862,
			"0.003": 28.3392811929,
			"0.004": 26.2954858349,
			"0.005": 6.86060297094,
			"0.006": 3.48226808095,
			"0.007": 1.9752528855,
			"0.008": 2.61484838019,
			"0.009": 2.33861400643,
			"0.01": 2.29492587593,
			"0.011": 1.15132768416,
			"0.012": 0.269725821021,
			"0.013": 0.0,
			"0.014": 0.0,
			"0.015": 0.0,
			"0.016": 0.0,
			"0.017": 0.0,
			"0.018": 0.0,
			"0.019": 0.0,
			"0.02": 0.0,
			"0.021": 0.0,
			"0.022": 0.0,
			"0.023": 0.0,
			"0.024": 0.0,
			"0.025": 0.0
		}
	}
}
