{
	 "smiles": "OC(=O)C1=C(F)C=CC(=C1)N1CCOC1=O", 
	 "Tm": 506.15, 
	 "num_atms": 24, 
	 "gaussian": { 
		 "optdone": 1, 
		 "sigma_profile": "yes", 
		 "theory": "DFT", 
		 "functional": "B3LYP", 
		 "basiset": "6-31G**", 
		 "properties": { 
			 "R2extent": 4748.1381, 
			 "electric_dipole_moment_norm": 6.00845757079, 
			 "electric_quadrupole_moment_norm": 21.5437160606, 
			 "total_energy": -841.389185304, 
			 "HOMO_LUMO_gap": 0.17553, 
			 "cosmo_polarized_energy": -20.46, 
			 "cosmo_cavitation_energy": 29.12, 
			 "cosmo_dispersion_energy": -21.61, 
			 "cosmo_repulsion_energy": 1.64, 
			 "cosmo_total_nonelectrostatic_energy": 9.15, 
			 "SMD_solvation_energy": 7.46 
		},
		"coords": [
			{
				"x": 3.8804159531,
				"y": 0.2556639812,
				"z": -0.1516238877,
				"element": "O" 
			},
			{
				"x": 3.6404577208,
				"y": 1.0372660268,
				"z": 0.9320998064,
				"element": "C" 
			},
			{
				"x": 4.531146498,
				"y": 1.4076221304,
				"z": 1.6671775036,
				"element": "O" 
			},
			{
				"x": 2.1927941017,
				"y": 1.3592661894,
				"z": 1.0810686792,
				"element": "C" 
			},
			{
				"x": 1.731246695,
				"y": 2.1111835151,
				"z": 2.1723833928,
				"element": "C" 
			},
			{
				"x": 2.5725058396,
				"y": 2.5585537033,
				"z": 3.1137408738,
				"element": "F" 
			},
			{
				"x": 0.3830482732,
				"y": 2.4108703,
				"z": 2.3107073881,
				"element": "C" 
			},
			{
				"x": -0.5294296609,
				"y": 1.9668265861,
				"z": 1.3580516657,
				"element": "C" 
			},
			{
				"x": -0.098847609,
				"y": 1.2124347582,
				"z": 0.254001741,
				"element": "C" 
			},
			{
				"x": 1.2649135993,
				"y": 0.9127734465,
				"z": 0.1294717958,
				"element": "C" 
			},
			{
				"x": -1.050398704,
				"y": 0.7523235888,
				"z": -0.6855160641,
				"element": "N" 
			},
			{
				"x": -2.4813627968,
				"y": 0.9815977336,
				"z": -0.530420469,
				"element": "C" 
			},
			{
				"x": -3.0383323752,
				"y": 0.1693805432,
				"z": -1.7082325039,
				"element": "C" 
			},
			{
				"x": -1.9382262036,
				"y": 0.0458972265,
				"z": -2.6190908495,
				"element": "O" 
			},
			{
				"x": -0.7622614512,
				"y": 0.294478484,
				"z": -1.9684536972,
				"element": "C" 
			},
			{
				"x": 0.3159690119,
				"y": 0.1231904902,
				"z": -2.482409003,
				"element": "O" 
			},
			{
				"x": 4.8410245897,
				"y": 0.1144616744,
				"z": -0.1630265378,
				"element": "H" 
			},
			{
				"x": 0.0608980633,
				"y": 2.9937840315,
				"z": 3.1662730649,
				"element": "H" 
			},
			{
				"x": -1.5756168592,
				"y": 2.2191512666,
				"z": 1.4851134562,
				"element": "H" 
			},
			{
				"x": 1.6133026693,
				"y": 0.3427106053,
				"z": -0.7185103206,
				"element": "H" 
			},
			{
				"x": -2.7244768807,
				"y": 2.050368349,
				"z": -0.6090531697,
				"element": "H" 
			},
			{
				"x": -2.8470673457,
				"y": 0.6131092043,
				"z": 0.4325993414,
				"element": "H" 
			},
			{
				"x": -3.3540924848,
				"y": -0.8327972644,
				"z": -1.3979798979,
				"element": "H" 
			},
			{
				"x": -3.8639106437,
				"y": 0.6640834302,
				"z": -2.2226723084,
				"element": "H" 
			}
		],
		 "valence_orbital": [ 
			{
				"type": "occ",
				"energy": -0.30594,
				"method": "rhf"
			},
			{
				"type": "occ",
				"energy": -0.28786,
				"method": "rhf"
			},
			{
				"type": "occ",
				"energy": -0.27476,
				"method": "rhf"
			},
			{
				"type": "occ",
				"energy": -0.27134,
				"method": "rhf"
			},
			{
				"type": "occ",
				"energy": -0.22956,
				"method": "rhf"
			},
			{
				"type": "unocc",
				"energy": -0.05403,
				"method": "rhf"
			},
			{
				"type": "unocc",
				"energy": -0.01521,
				"method": "rhf"
			},
			{
				"type": "unocc",
				"energy": 0.03344,
				"method": "rhf"
			},
			{
				"type": "unocc",
				"energy": 0.05922,
				"method": "rhf"
			},
			{
				"type": "unocc",
				"energy": 0.06751,
				"method": "rhf"
			}
		],
		"cosmo_sigma_profile": { 
			"-0.025": 0.0,
			"-0.024": 0.0,
			"-0.023": 0.0,
			"-0.022": 0.0,
			"-0.021": 0.0,
			"-0.02": 0.0,
			"-0.019": 0.206468598824,
			"-0.018": 0.752348292984,
			"-0.017": 0.753409493566,
			"-0.016": 0.812730076506,
			"-0.015": 0.811783214442,
			"-0.014": 0.518742796501,
			"-0.013": 0.624113129316,
			"-0.012": 0.959103267002,
			"-0.011": 0.945626231245,
			"-0.01": 0.630412101869,
			"-0.009": 1.19773511304,
			"-0.008": 7.78456584312,
			"-0.007": 21.3401368903,
			"-0.006": 19.027671062,
			"-0.005": 12.9959425836,
			"-0.004": 7.19700361705,
			"-0.003": 9.18947758011,
			"-0.002": 10.3862555196,
			"-0.001": 13.8718889554,
			"0.0": 15.1309307484,
			"0.001": 18.5068818817,
			"0.002": 16.2690737688,
			"0.003": 10.2394114248,
			"0.004": 10.4877177627,
			"0.005": 5.59336965471,
			"0.006": 6.85596835641,
			"0.007": 5.81690407378,
			"0.008": 5.34074821306,
			"0.009": 5.31168113437,
			"0.01": 6.58126507817,
			"0.011": 8.2960827398,
			"0.012": 7.55343875958,
			"0.013": 1.35668936825,
			"0.014": 0.0,
			"0.015": 0.0,
			"0.016": 0.0,
			"0.017": 0.0,
			"0.018": 0.0,
			"0.019": 0.0,
			"0.02": 0.0,
			"0.021": 0.0,
			"0.022": 0.0,
			"0.023": 0.0,
			"0.024": 0.0,
			"0.025": 0.0
		}
	}
}
