{
	 "smiles": "CCC(C(O)=O)C1=CC=C(C=C1)C1=CC=CC=C1", 
	 "Tm": 397.15, 
	 "num_atms": 34, 
	 "gaussian": { 
		 "optdone": 1, 
		 "sigma_profile": "yes", 
		 "theory": "DFT", 
		 "functional": "B3LYP", 
		 "basiset": "6-31G**", 
		 "properties": { 
			 "R2extent": 6899.0338, 
			 "electric_dipole_moment_norm": 1.27160110884, 
			 "electric_quadrupole_moment_norm": 8.67256533386, 
			 "total_energy": -769.829056022, 
			 "HOMO_LUMO_gap": 0.19153, 
			 "cosmo_polarized_energy": -11.17, 
			 "cosmo_cavitation_energy": 37.85, 
			 "cosmo_dispersion_energy": -26.47, 
			 "cosmo_repulsion_energy": 2.06, 
			 "cosmo_total_nonelectrostatic_energy": 13.45, 
			 "SMD_solvation_energy": 7.08 
		},
		"coords": [
			{
				"x": -4.2313021792,
				"y": 1.3863869051,
				"z": -2.3870228455,
				"element": "C" 
			},
			{
				"x": -2.7538792228,
				"y": 1.3259909031,
				"z": -1.9871966666,
				"element": "C" 
			},
			{
				"x": -2.4994180083,
				"y": 0.5504901677,
				"z": -0.6762207455,
				"element": "C" 
			},
			{
				"x": -3.1444209324,
				"y": 1.2603119582,
				"z": 0.5071692721,
				"element": "C" 
			},
			{
				"x": -3.6075178652,
				"y": 0.3881410603,
				"z": 1.4321665614,
				"element": "O" 
			},
			{
				"x": -3.2243119908,
				"y": 2.4627275282,
				"z": 0.6498441906,
				"element": "O" 
			},
			{
				"x": -1.0094098285,
				"y": 0.3651582784,
				"z": -0.3988330537,
				"element": "C" 
			},
			{
				"x": -0.1946832677,
				"y": 1.451457787,
				"z": -0.0501625828,
				"element": "C" 
			},
			{
				"x": 1.170507402,
				"y": 1.2779971297,
				"z": 0.162348952,
				"element": "C" 
			},
			{
				"x": 1.7739472376,
				"y": 0.0152907156,
				"z": 0.0332189528,
				"element": "C" 
			},
			{
				"x": 0.9512945932,
				"y": -1.0687557552,
				"z": -0.3134401696,
				"element": "C" 
			},
			{
				"x": -0.4155047573,
				"y": -0.8960725859,
				"z": -0.521996206,
				"element": "C" 
			},
			{
				"x": 3.2304798503,
				"y": -0.1666723761,
				"z": 0.2584803413,
				"element": "C" 
			},
			{
				"x": 4.1530429046,
				"y": 0.8081179199,
				"z": -0.1588686976,
				"element": "C" 
			},
			{
				"x": 5.5205684603,
				"y": 0.6381391773,
				"z": 0.0525617302,
				"element": "C" 
			},
			{
				"x": 5.9971809974,
				"y": -0.5117431373,
				"z": 0.6849629108,
				"element": "C" 
			},
			{
				"x": 5.0930368821,
				"y": -1.4893441002,
				"z": 1.1047040814,
				"element": "C" 
			},
			{
				"x": 3.7254643438,
				"y": -1.3181320107,
				"z": 0.894593599,
				"element": "C" 
			},
			{
				"x": -4.3541312931,
				"y": 1.9151649053,
				"z": -3.3374051012,
				"element": "H" 
			},
			{
				"x": -4.65450916,
				"y": 0.3825035223,
				"z": -2.5085715686,
				"element": "H" 
			},
			{
				"x": -4.8242836787,
				"y": 1.9167945017,
				"z": -1.6354373474,
				"element": "H" 
			},
			{
				"x": -2.1701590203,
				"y": 0.8425076876,
				"z": -2.7785848981,
				"element": "H" 
			},
			{
				"x": -2.3578301358,
				"y": 2.3401145967,
				"z": -1.8723379801,
				"element": "H" 
			},
			{
				"x": -2.9561321423,
				"y": -0.4424326878,
				"z": -0.7477046553,
				"element": "H" 
			},
			{
				"x": -3.9547350027,
				"y": 0.9279712448,
				"z": 2.1628583258,
				"element": "H" 
			},
			{
				"x": -0.6386195285,
				"y": 2.4345935976,
				"z": 0.0761525904,
				"element": "H" 
			},
			{
				"x": 1.7744979168,
				"y": 2.1300525741,
				"z": 0.4601162928,
				"element": "H" 
			},
			{
				"x": 1.390169632,
				"y": -2.053586085,
				"z": -0.4434888551,
				"element": "H" 
			},
			{
				"x": -1.0271007153,
				"y": -1.7525547521,
				"z": -0.7947227851,
				"element": "H" 
			},
			{
				"x": 3.7954811738,
				"y": 1.6938586465,
				"z": -0.6757210905,
				"element": "H" 
			},
			{
				"x": 6.2156725221,
				"y": 1.4015650703,
				"z": -0.2856360373,
				"element": "H" 
			},
			{
				"x": 7.0625703707,
				"y": -0.6445819545,
				"z": 0.8492736443,
				"element": "H" 
			},
			{
				"x": 5.4520072782,
				"y": -2.3840236865,
				"z": 1.605783629,
				"element": "H" 
			},
			{
				"x": 3.029027164,
				"y": -2.0720367462,
				"z": 1.2498162123,
				"element": "H" 
			}
		],
		 "valence_orbital": [ 
			{
				"type": "occ",
				"energy": -0.27813,
				"method": "rhf"
			},
			{
				"type": "occ",
				"energy": -0.26758,
				"method": "rhf"
			},
			{
				"type": "occ",
				"energy": -0.25192,
				"method": "rhf"
			},
			{
				"type": "occ",
				"energy": -0.25008,
				"method": "rhf"
			},
			{
				"type": "occ",
				"energy": -0.22184,
				"method": "rhf"
			},
			{
				"type": "unocc",
				"energy": -0.03031,
				"method": "rhf"
			},
			{
				"type": "unocc",
				"energy": -0.00654,
				"method": "rhf"
			},
			{
				"type": "unocc",
				"energy": -0.00115,
				"method": "rhf"
			},
			{
				"type": "unocc",
				"energy": 0.00902,
				"method": "rhf"
			},
			{
				"type": "unocc",
				"energy": 0.03219,
				"method": "rhf"
			}
		],
		"cosmo_sigma_profile": { 
			"-0.025": 0.0,
			"-0.024": 0.0,
			"-0.023": 0.0,
			"-0.022": 0.0,
			"-0.021": 0.0,
			"-0.02": 0.0,
			"-0.019": 0.0,
			"-0.018": 0.542446466066,
			"-0.017": 1.20952386046,
			"-0.016": 0.615473234009,
			"-0.015": 0.976683834205,
			"-0.014": 0.467797870602,
			"-0.013": 0.754260545209,
			"-0.012": 1.20058534497,
			"-0.011": 0.64658695208,
			"-0.01": 0.529956188795,
			"-0.009": 0.366990571784,
			"-0.008": 0.620162332446,
			"-0.007": 1.33445133165,
			"-0.006": 9.1670615737,
			"-0.005": 18.8267889855,
			"-0.004": 23.9512551504,
			"-0.003": 32.6009862165,
			"-0.002": 25.581451352,
			"-0.001": 25.9039781552,
			"0.0": 24.3778176044,
			"0.001": 23.9925212891,
			"0.002": 17.5937928825,
			"0.003": 20.9352522436,
			"0.004": 18.6157550849,
			"0.005": 21.8631991551,
			"0.006": 9.92969591573,
			"0.007": 2.9018173705,
			"0.008": 2.41789324142,
			"0.009": 2.90180675049,
			"0.01": 2.3726937451,
			"0.011": 2.69394190047,
			"0.012": 3.66139087582,
			"0.013": 0.236248161325,
			"0.014": 0.0,
			"0.015": 0.0,
			"0.016": 0.0,
			"0.017": 0.0,
			"0.018": 0.0,
			"0.019": 0.0,
			"0.02": 0.0,
			"0.021": 0.0,
			"0.022": 0.0,
			"0.023": 0.0,
			"0.024": 0.0,
			"0.025": 0.0
		}
	}
}
