{
	 "smiles": "CCOC(=O)C1=C(N)OC(C)=C1C(C)=O", 
	 "Tm": 409.15, 
	 "num_atms": 28, 
	 "gaussian": { 
		 "optdone": 1, 
		 "sigma_profile": "yes", 
		 "theory": "DFT", 
		 "functional": "B3LYP", 
		 "basiset": "6-31G**", 
		 "properties": { 
			 "R2extent": 3712.1248, 
			 "electric_dipole_moment_norm": 2.80510282164, 
			 "electric_quadrupole_moment_norm": 14.9662216835, 
			 "total_energy": -744.560457686, 
			 "HOMO_LUMO_gap": 0.16539, 
			 "cosmo_polarized_energy": -12.11, 
			 "cosmo_cavitation_energy": 31.65, 
			 "cosmo_dispersion_energy": -22.61, 
			 "cosmo_repulsion_energy": 1.79, 
			 "cosmo_total_nonelectrostatic_energy": 10.83, 
			 "SMD_solvation_energy": 7.63 
		},
		"coords": [
			{
				"x": -0.0072992575,
				"y": 2.8005284864,
				"z": 2.9245508651,
				"element": "C" 
			},
			{
				"x": 0.522979129,
				"y": 1.3902739986,
				"z": 3.1379719149,
				"element": "C" 
			},
			{
				"x": 0.4431356677,
				"y": 0.5997007676,
				"z": 1.9283774262,
				"element": "O" 
			},
			{
				"x": 1.4622030831,
				"y": 0.7350711264,
				"z": 1.0489511642,
				"element": "C" 
			},
			{
				"x": 2.4180751593,
				"y": 1.4840989266,
				"z": 1.2630983469,
				"element": "O" 
			},
			{
				"x": 1.3569586743,
				"y": -0.0932133862,
				"z": -0.1371963705,
				"element": "C" 
			},
			{
				"x": 2.4593017365,
				"y": -0.2026572033,
				"z": -0.9721731187,
				"element": "C" 
			},
			{
				"x": 3.6813044125,
				"y": 0.3652250112,
				"z": -0.9110138058,
				"element": "N" 
			},
			{
				"x": 2.2337206829,
				"y": -1.0936612879,
				"z": -1.9604851576,
				"element": "O" 
			},
			{
				"x": 0.9582857882,
				"y": -1.6121433031,
				"z": -1.7771219703,
				"element": "C" 
			},
			{
				"x": 0.528068853,
				"y": -2.5920506347,
				"z": -2.8054830706,
				"element": "C" 
			},
			{
				"x": 0.3731260728,
				"y": -1.0353906754,
				"z": -0.6826771486,
				"element": "C" 
			},
			{
				"x": -1.0525956478,
				"y": -1.3046753417,
				"z": -0.346983696,
				"element": "C" 
			},
			{
				"x": -1.8899699898,
				"y": -0.221311782,
				"z": 0.3044902696,
				"element": "C" 
			},
			{
				"x": -1.5697313536,
				"y": -2.373543632,
				"z": -0.6522650576,
				"element": "O" 
			},
			{
				"x": -0.0011508403,
				"y": 3.3466982347,
				"z": 3.8739148145,
				"element": "H" 
			},
			{
				"x": 0.6210915461,
				"y": 3.3415108816,
				"z": 2.2133030877,
				"element": "H" 
			},
			{
				"x": -1.0346137611,
				"y": 2.7803431183,
				"z": 2.548558412,
				"element": "H" 
			},
			{
				"x": 1.560294191,
				"y": 1.408250314,
				"z": 3.4792246736,
				"element": "H" 
			},
			{
				"x": -0.0861592717,
				"y": 0.8390344304,
				"z": 3.8586112049,
				"element": "H" 
			},
			{
				"x": 4.2761806657,
				"y": 0.3317917001,
				"z": -1.7232281894,
				"element": "H" 
			},
			{
				"x": 3.7579247854,
				"y": 1.1193677922,
				"z": -0.2381259198,
				"element": "H" 
			},
			{
				"x": -0.5225226624,
				"y": -2.8365893125,
				"z": -2.6569557595,
				"element": "H" 
			},
			{
				"x": 1.1051489148,
				"y": -3.5212698169,
				"z": -2.7218228208,
				"element": "H" 
			},
			{
				"x": 0.6887248677,
				"y": -2.1944830859,
				"z": -3.8141308593,
				"element": "H" 
			},
			{
				"x": -1.601621604,
				"y": 0.7799435139,
				"z": -0.0258450202,
				"element": "H" 
			},
			{
				"x": -1.7522805167,
				"y": -0.2537398814,
				"z": 1.3881305797,
				"element": "H" 
			},
			{
				"x": -2.9379793251,
				"y": -0.417408959,
				"z": 0.0707252054,
				"element": "H" 
			}
		],
		 "valence_orbital": [ 
			{
				"type": "occ",
				"energy": -0.29486,
				"method": "rhf"
			},
			{
				"type": "occ",
				"energy": -0.28007,
				"method": "rhf"
			},
			{
				"type": "occ",
				"energy": -0.27363,
				"method": "rhf"
			},
			{
				"type": "occ",
				"energy": -0.24007,
				"method": "rhf"
			},
			{
				"type": "occ",
				"energy": -0.19988,
				"method": "rhf"
			},
			{
				"type": "unocc",
				"energy": -0.03449,
				"method": "rhf"
			},
			{
				"type": "unocc",
				"energy": -0.00684,
				"method": "rhf"
			},
			{
				"type": "unocc",
				"energy": 0.05089,
				"method": "rhf"
			},
			{
				"type": "unocc",
				"energy": 0.08639,
				"method": "rhf"
			},
			{
				"type": "unocc",
				"energy": 0.09702,
				"method": "rhf"
			}
		],
		"cosmo_sigma_profile": { 
			"-0.025": 0.0,
			"-0.024": 0.0,
			"-0.023": 0.0,
			"-0.022": 0.0,
			"-0.021": 0.0,
			"-0.02": 0.0,
			"-0.019": 0.0,
			"-0.018": 0.0,
			"-0.017": 0.0,
			"-0.016": 0.0272302251125,
			"-0.015": 1.09023179772,
			"-0.014": 1.07483791822,
			"-0.013": 1.29259383967,
			"-0.012": 1.0910192887,
			"-0.011": 1.43643359452,
			"-0.01": 1.88609125953,
			"-0.009": 1.93936532539,
			"-0.008": 1.58237679233,
			"-0.007": 1.34266352162,
			"-0.006": 3.95964977577,
			"-0.005": 10.8875878276,
			"-0.004": 18.1878389792,
			"-0.003": 23.3635588582,
			"-0.002": 27.5097115582,
			"-0.001": 33.4447450674,
			"0.0": 30.2313730616,
			"0.001": 19.0554709352,
			"0.002": 13.3235051207,
			"0.003": 10.4429589606,
			"0.004": 7.66457227916,
			"0.005": 6.65931488195,
			"0.006": 5.90021964671,
			"0.007": 4.55441444914,
			"0.008": 3.71282818456,
			"0.009": 3.06311954466,
			"0.01": 3.27604134626,
			"0.011": 3.93928222464,
			"0.012": 5.09113811039,
			"0.013": 2.61655153292,
			"0.014": 0.539999282234,
			"0.015": 0.0,
			"0.016": 0.0,
			"0.017": 0.0,
			"0.018": 0.0,
			"0.019": 0.0,
			"0.02": 0.0,
			"0.021": 0.0,
			"0.022": 0.0,
			"0.023": 0.0,
			"0.024": 0.0,
			"0.025": 0.0
		}
	}
}
