{
	 "smiles": "C1CC(CCN1)C1=CNC2=C1C=CC=N2", 
	 "Tm": 433.15, 
	 "num_atms": 30, 
	 "gaussian": { 
		 "optdone": 1, 
		 "sigma_profile": "yes", 
		 "theory": "DFT", 
		 "functional": "B3LYP", 
		 "basiset": "6-31G**", 
		 "properties": { 
			 "R2extent": 4062.6285, 
			 "electric_dipole_moment_norm": 2.63455799898, 
			 "electric_quadrupole_moment_norm": 8.61536907509, 
			 "total_energy": -630.568717735, 
			 "HOMO_LUMO_gap": 0.18476, 
			 "cosmo_polarized_energy": -11.04, 
			 "cosmo_cavitation_energy": 31.43, 
			 "cosmo_dispersion_energy": -23.2, 
			 "cosmo_repulsion_energy": 1.8, 
			 "cosmo_total_nonelectrostatic_energy": 10.04, 
			 "SMD_solvation_energy": 0.96 
		},
		"coords": [
			{
				"x": 1.9989942954,
				"y": 1.2949706078,
				"z": 1.3458751554,
				"element": "C" 
			},
			{
				"x": 1.0862468863,
				"y": 0.5452288779,
				"z": 0.3466395662,
				"element": "C" 
			},
			{
				"x": -0.2366711783,
				"y": 0.0845767005,
				"z": 1.025848843,
				"element": "C" 
			},
			{
				"x": -0.6622879789,
				"y": 1.15032153,
				"z": 2.049655736,
				"element": "C" 
			},
			{
				"x": 0.3955034465,
				"y": 1.2973562534,
				"z": 3.1701032715,
				"element": "C" 
			},
			{
				"x": 1.7049857107,
				"y": 0.829065595,
				"z": 2.7001273354,
				"element": "N" 
			},
			{
				"x": -1.3037456584,
				"y": -0.2465180463,
				"z": 0.0158355144,
				"element": "C" 
			},
			{
				"x": -2.4158704834,
				"y": 0.4926360828,
				"z": -0.3133110526,
				"element": "C" 
			},
			{
				"x": -3.1408391033,
				"y": -0.1389005436,
				"z": -1.3108492906,
				"element": "N" 
			},
			{
				"x": -2.5088560815,
				"y": -1.3119000926,
				"z": -1.6463724074,
				"element": "C" 
			},
			{
				"x": -1.3441250193,
				"y": -1.4137194389,
				"z": -0.8319294363,
				"element": "C" 
			},
			{
				"x": -0.5560043951,
				"y": -2.5574707767,
				"z": -1.0157527068,
				"element": "C" 
			},
			{
				"x": -0.9715708637,
				"y": -3.4838916694,
				"z": -1.968676479,
				"element": "C" 
			},
			{
				"x": -2.1470032361,
				"y": -3.2546309635,
				"z": -2.7079667286,
				"element": "C" 
			},
			{
				"x": -2.930650308,
				"y": -2.1802417344,
				"z": -2.5642818718,
				"element": "N" 
			},
			{
				"x": 3.0524673586,
				"y": 1.0928207617,
				"z": 1.1263516506,
				"element": "H" 
			},
			{
				"x": 1.8590935027,
				"y": 2.3874834343,
				"z": 1.2324266048,
				"element": "H" 
			},
			{
				"x": 0.8505349928,
				"y": 1.1995583077,
				"z": -0.5003765983,
				"element": "H" 
			},
			{
				"x": 1.6039165954,
				"y": -0.3286876914,
				"z": -0.0627422752,
				"element": "H" 
			},
			{
				"x": -0.0094444604,
				"y": -0.8305664785,
				"z": 1.587202774,
				"element": "H" 
			},
			{
				"x": -1.6348747291,
				"y": 0.9011304798,
				"z": 2.4866615322,
				"element": "H" 
			},
			{
				"x": -0.7900578927,
				"y": 2.1091356137,
				"z": 1.5301603073,
				"element": "H" 
			},
			{
				"x": 0.4117122334,
				"y": 2.3499738604,
				"z": 3.5077547312,
				"element": "H" 
			},
			{
				"x": 0.1112219419,
				"y": 0.6889494299,
				"z": 4.0375748225,
				"element": "H" 
			},
			{
				"x": 2.4309848711,
				"y": 1.1199571215,
				"z": 3.3471530287,
				"element": "H" 
			},
			{
				"x": -2.7590458093,
				"y": 1.4338535221,
				"z": 0.0911064942,
				"element": "H" 
			},
			{
				"x": -4.0045266021,
				"y": 0.1781508029,
				"z": -1.7208740524,
				"element": "H" 
			},
			{
				"x": 0.3482257456,
				"y": -2.7214212199,
				"z": -0.4357673227,
				"element": "H" 
			},
			{
				"x": -0.3974129952,
				"y": -4.3868577572,
				"z": -2.1502294451,
				"element": "H" 
			},
			{
				"x": -2.4672007856,
				"y": -3.9809625689,
				"z": -3.4525477007,
				"element": "H" 
			}
		],
		 "valence_orbital": [ 
			{
				"type": "occ",
				"energy": -0.28784,
				"method": "rhf"
			},
			{
				"type": "occ",
				"energy": -0.25127,
				"method": "rhf"
			},
			{
				"type": "occ",
				"energy": -0.22515,
				"method": "rhf"
			},
			{
				"type": "occ",
				"energy": -0.2131,
				"method": "rhf"
			},
			{
				"type": "occ",
				"energy": -0.2046,
				"method": "rhf"
			},
			{
				"type": "unocc",
				"energy": -0.01984,
				"method": "rhf"
			},
			{
				"type": "unocc",
				"energy": 0.02615,
				"method": "rhf"
			},
			{
				"type": "unocc",
				"energy": 0.06662,
				"method": "rhf"
			},
			{
				"type": "unocc",
				"energy": 0.07623,
				"method": "rhf"
			},
			{
				"type": "unocc",
				"energy": 0.09117,
				"method": "rhf"
			}
		],
		"cosmo_sigma_profile": { 
			"-0.025": 0.0,
			"-0.024": 0.0,
			"-0.023": 0.0,
			"-0.022": 0.0,
			"-0.021": 0.0,
			"-0.02": 0.0,
			"-0.019": 0.0,
			"-0.018": 0.0,
			"-0.017": 0.0,
			"-0.016": 0.186254803277,
			"-0.015": 1.50414090544,
			"-0.014": 0.974716628857,
			"-0.013": 1.0975289341,
			"-0.012": 1.32525539686,
			"-0.011": 1.17018164449,
			"-0.01": 1.14136480775,
			"-0.009": 2.0192786445,
			"-0.008": 3.10233752758,
			"-0.007": 3.80067859824,
			"-0.006": 6.18974226139,
			"-0.005": 10.1345186966,
			"-0.004": 12.8872621325,
			"-0.003": 19.2519743989,
			"-0.002": 26.3247515068,
			"-0.001": 33.6009561833,
			"0.0": 26.6576066808,
			"0.001": 15.0475240437,
			"0.002": 11.3679896553,
			"0.003": 15.3704583691,
			"0.004": 19.647405229,
			"0.005": 12.5889350296,
			"0.006": 3.7767805746,
			"0.007": 2.13585419909,
			"0.008": 2.16308766141,
			"0.009": 1.85909113567,
			"0.01": 1.63744233267,
			"0.011": 1.60859826751,
			"0.012": 1.99693441924,
			"0.013": 1.36919286145,
			"0.014": 1.0542236396,
			"0.015": 1.34789414281,
			"0.016": 1.60706289657,
			"0.017": 0.372497188691,
			"0.018": 0.297859590537,
			"0.019": 0.0,
			"0.02": 0.0,
			"0.021": 0.0,
			"0.022": 0.0,
			"0.023": 0.0,
			"0.024": 0.0,
			"0.025": 0.0
		}
	}
}
