{
	 "smiles": "NC1=CN=C(Br)C=N1", 
	 "Tm": 388.15, 
	 "num_atms": 12, 
	 "gaussian": { 
		 "optdone": 1, 
		 "sigma_profile": "yes", 
		 "theory": "DFT", 
		 "functional": "B3LYP", 
		 "basiset": "6-31G**", 
		 "properties": { 
			 "R2extent": 3512.5106, 
			 "electric_dipole_moment_norm": 3.87069207378, 
			 "electric_quadrupole_moment_norm": 11.7161427898, 
			 "total_energy": -2890.48670796, 
			 "HOMO_LUMO_gap": 0.17442, 
			 "cosmo_polarized_energy": -10.8, 
			 "cosmo_cavitation_energy": 18.97, 
			 "cosmo_dispersion_energy": -14.91, 
			 "cosmo_repulsion_energy": 1.25, 
			 "cosmo_total_nonelectrostatic_energy": 5.31, 
			 "SMD_solvation_energy": -0.57 
		},
		"coords": [
			{
				"x": -0.5811728408,
				"y": -0.7965348992,
				"z": -1.586326721,
				"element": "N" 
			},
			{
				"x": 0.2656175306,
				"y": 0.1409165338,
				"z": -1.0449446905,
				"element": "C" 
			},
			{
				"x": 1.1206004217,
				"y": 0.9309512829,
				"z": -1.8463374841,
				"element": "C" 
			},
			{
				"x": 1.9022837811,
				"y": 1.8658783742,
				"z": -1.3156009423,
				"element": "N" 
			},
			{
				"x": 1.8431172391,
				"y": 2.0291371154,
				"z": -0.0033503354,
				"element": "C" 
			},
			{
				"x": 2.955762329,
				"y": 3.3695736232,
				"z": 0.7961685983,
				"element": "Br" 
			},
			{
				"x": 1.0082218705,
				"y": 1.2577747261,
				"z": 0.8062292904,
				"element": "C" 
			},
			{
				"x": 0.2240347042,
				"y": 0.3129139531,
				"z": 0.286386801,
				"element": "N" 
			},
			{
				"x": -0.354228497,
				"y": -1.1771635355,
				"z": -2.4920422515,
				"element": "H" 
			},
			{
				"x": -0.9814707184,
				"y": -1.446355685,
				"z": -0.9250952216,
				"element": "H" 
			},
			{
				"x": 1.1641843932,
				"y": 0.7986672972,
				"z": -2.9258659943,
				"element": "H" 
			},
			{
				"x": 0.9775497869,
				"y": 1.401441214,
				"z": 1.8825789512,
				"element": "H" 
			}
		],
		 "valence_orbital": [ 
			{
				"type": "occ",
				"energy": -0.31826,
				"method": "rhf"
			},
			{
				"type": "occ",
				"energy": -0.29497,
				"method": "rhf"
			},
			{
				"type": "occ",
				"energy": -0.28382,
				"method": "rhf"
			},
			{
				"type": "occ",
				"energy": -0.26247,
				"method": "rhf"
			},
			{
				"type": "occ",
				"energy": -0.22666,
				"method": "rhf"
			},
			{
				"type": "unocc",
				"energy": -0.05224,
				"method": "rhf"
			},
			{
				"type": "unocc",
				"energy": -0.01487,
				"method": "rhf"
			},
			{
				"type": "unocc",
				"energy": 0.01298,
				"method": "rhf"
			},
			{
				"type": "unocc",
				"energy": 0.07098,
				"method": "rhf"
			},
			{
				"type": "unocc",
				"energy": 0.11621,
				"method": "rhf"
			}
		],
		"cosmo_sigma_profile": { 
			"-0.025": 0.0,
			"-0.024": 0.0,
			"-0.023": 0.0,
			"-0.022": 0.0,
			"-0.021": 0.0,
			"-0.02": 0.0,
			"-0.019": 0.0,
			"-0.018": 0.0,
			"-0.017": 0.0,
			"-0.016": 0.0,
			"-0.015": 0.176128350739,
			"-0.014": 1.68266752908,
			"-0.013": 3.07498002361,
			"-0.012": 2.1551508844,
			"-0.011": 2.90230041789,
			"-0.01": 2.98092496566,
			"-0.009": 3.30413505276,
			"-0.008": 4.47446867748,
			"-0.007": 3.95049748033,
			"-0.006": 3.975312749,
			"-0.005": 4.60332291882,
			"-0.004": 5.56302243993,
			"-0.003": 6.25058126839,
			"-0.002": 9.24054652865,
			"-0.001": 13.496343032,
			"0.0": 12.1042224441,
			"0.001": 9.74763406685,
			"0.002": 9.6103552145,
			"0.003": 10.190148177,
			"0.004": 12.9406736063,
			"0.005": 10.8052491548,
			"0.006": 4.96566039623,
			"0.007": 3.07370917685,
			"0.008": 3.17076294425,
			"0.009": 3.31121413359,
			"0.01": 2.15419384225,
			"0.011": 1.46624974611,
			"0.012": 2.06728229178,
			"0.013": 1.6585870843,
			"0.014": 0.539210471278,
			"0.015": 0.0,
			"0.016": 0.0,
			"0.017": 0.0,
			"0.018": 0.0,
			"0.019": 0.0,
			"0.02": 0.0,
			"0.021": 0.0,
			"0.022": 0.0,
			"0.023": 0.0,
			"0.024": 0.0,
			"0.025": 0.0
		}
	}
}
