{
	 "smiles": "CC1C2CC(OC(C)=O)C3C(C2O)(C(O)CC2C(C)(C)CCC(OC(C)=O)C32C)C1=O", 
	 "Tm": 519.15, 
	 "num_atms": 67, 
	 "gaussian": { 
		 "optdone": 1, 
		 "sigma_profile": "yes", 
		 "theory": "DFT", 
		 "functional": "B3LYP", 
		 "basiset": "6-31G**", 
		 "properties": { 
			 "R2extent": 11712.7481, 
			 "electric_dipole_moment_norm": 2.39739024983, 
			 "electric_quadrupole_moment_norm": 24.9579548341, 
			 "total_energy": -1462.84378613, 
			 "HOMO_LUMO_gap": 0.21142, 
			 "cosmo_polarized_energy": -21.25, 
			 "cosmo_cavitation_energy": 55.76, 
			 "cosmo_dispersion_energy": -37.38, 
			 "cosmo_repulsion_energy": 2.71, 
			 "cosmo_total_nonelectrostatic_energy": 21.1, 
			 "SMD_solvation_energy": 10.58 
		},
		"coords": [
			{
				"x": 0.2049262257,
				"y": -0.3637507365,
				"z": -4.9483294214,
				"element": "C" 
			},
			{
				"x": -0.4080670022,
				"y": -0.0866009321,
				"z": -3.5685970623,
				"element": "C" 
			},
			{
				"x": -1.7401510818,
				"y": -0.8200613329,
				"z": -3.2700535602,
				"element": "C" 
			},
			{
				"x": -2.7173455019,
				"y": 0.0039357906,
				"z": -2.4362030011,
				"element": "C" 
			},
			{
				"x": -2.1376626204,
				"y": 0.4413562579,
				"z": -1.0707848891,
				"element": "C" 
			},
			{
				"x": -3.2674356067,
				"y": 0.8122440538,
				"z": -0.2150608721,
				"element": "O" 
			},
			{
				"x": -4.1821119939,
				"y": -0.1204744851,
				"z": 0.1583943136,
				"element": "C" 
			},
			{
				"x": -5.3589284692,
				"y": 0.5285509481,
				"z": 0.8433673797,
				"element": "C" 
			},
			{
				"x": -4.0607313153,
				"y": -1.3139028781,
				"z": -0.0326454703,
				"element": "O" 
			},
			{
				"x": -1.1181299506,
				"y": -0.5232177644,
				"z": -0.3765306489,
				"element": "C" 
			},
			{
				"x": -0.305706958,
				"y": -1.3910608463,
				"z": -1.4290832352,
				"element": "C" 
			},
			{
				"x": -1.3139399016,
				"y": -2.0341502388,
				"z": -2.4285314747,
				"element": "C" 
			},
			{
				"x": -0.709065095,
				"y": -2.9695619956,
				"z": -3.3052642672,
				"element": "O" 
			},
			{
				"x": 0.5033997408,
				"y": -2.4251600347,
				"z": -0.6293518783,
				"element": "C" 
			},
			{
				"x": 1.2507440135,
				"y": -3.2413191392,
				"z": -1.5474851947,
				"element": "O" 
			},
			{
				"x": 1.427719787,
				"y": -1.7834987784,
				"z": 0.3956197674,
				"element": "C" 
			},
			{
				"x": 0.6495273631,
				"y": -0.950401566,
				"z": 1.4234284085,
				"element": "C" 
			},
			{
				"x": 1.5656745049,
				"y": -0.4956566568,
				"z": 2.6287842931,
				"element": "C" 
			},
			{
				"x": 1.6727208431,
				"y": -1.6839909627,
				"z": 3.6126368689,
				"element": "C" 
			},
			{
				"x": 2.997622693,
				"y": -0.0969622667,
				"z": 2.2141291777,
				"element": "C" 
			},
			{
				"x": 0.9101927015,
				"y": 0.6975860398,
				"z": 3.3744460415,
				"element": "C" 
			},
			{
				"x": -0.6103765776,
				"y": 0.6345094291,
				"z": 3.2945856821,
				"element": "C" 
			},
			{
				"x": -1.1506559934,
				"y": 0.7576451933,
				"z": 1.8571640218,
				"element": "C" 
			},
			{
				"x": -1.3855536836,
				"y": 2.1592425169,
				"z": 1.5358583888,
				"element": "O" 
			},
			{
				"x": -2.5016873032,
				"y": 2.73306433,
				"z": 2.0257229772,
				"element": "C" 
			},
			{
				"x": -2.666748337,
				"y": 4.1365149449,
				"z": 1.493310574,
				"element": "C" 
			},
			{
				"x": -3.2802875887,
				"y": 2.1816003247,
				"z": 2.7786819268,
				"element": "O" 
			},
			{
				"x": -0.2124947381,
				"y": 0.1733510948,
				"z": 0.7371497689,
				"element": "C" 
			},
			{
				"x": 0.6840975335,
				"y": 1.2890406933,
				"z": 0.1469146368,
				"element": "C" 
			},
			{
				"x": 0.5211523161,
				"y": -0.5472952007,
				"z": -2.4340962172,
				"element": "C" 
			},
			{
				"x": 1.7107550394,
				"y": -0.3141254124,
				"z": -2.3856723634,
				"element": "O" 
			},
			{
				"x": 0.2781056127,
				"y": -1.4404992154,
				"z": -5.1145145366,
				"element": "H" 
			},
			{
				"x": -0.4156320589,
				"y": 0.0709172205,
				"z": -5.7386197966,
				"element": "H" 
			},
			{
				"x": 1.2055143452,
				"y": 0.0731417475,
				"z": -5.0099207307,
				"element": "H" 
			},
			{
				"x": -0.524786018,
				"y": 1.0019159841,
				"z": -3.4592689831,
				"element": "H" 
			},
			{
				"x": -2.228201424,
				"y": -1.1567342568,
				"z": -4.1897345939,
				"element": "H" 
			},
			{
				"x": -3.035160671,
				"y": 0.9044846734,
				"z": -2.9742231893,
				"element": "H" 
			},
			{
				"x": -3.6082379514,
				"y": -0.6026044049,
				"z": -2.2636849707,
				"element": "H" 
			},
			{
				"x": -1.6489806182,
				"y": 1.4076490709,
				"z": -1.2030769335,
				"element": "H" 
			},
			{
				"x": -5.829781951,
				"y": 1.2498651945,
				"z": 0.1682049717,
				"element": "H" 
			},
			{
				"x": -6.0773857645,
				"y": -0.2415025442,
				"z": 1.1231179033,
				"element": "H" 
			},
			{
				"x": -5.0193709479,
				"y": 1.0755934292,
				"z": 1.7270878172,
				"element": "H" 
			},
			{
				"x": -1.7240768234,
				"y": -1.2669495357,
				"z": 0.1501272567,
				"element": "H" 
			},
			{
				"x": -2.1638174474,
				"y": -2.4845264669,
				"z": -1.894348852,
				"element": "H" 
			},
			{
				"x": 0.011541712,
				"y": -3.4152081201,
				"z": -2.8261273306,
				"element": "H" 
			},
			{
				"x": -0.2294937438,
				"y": -3.0622514552,
				"z": -0.10439877,
				"element": "H" 
			},
			{
				"x": 1.7415824352,
				"y": -3.8982082011,
				"z": -1.0372237697,
				"element": "H" 
			},
			{
				"x": 2.1670485934,
				"y": -1.1886819514,
				"z": -0.1436411367,
				"element": "H" 
			},
			{
				"x": 1.9726897042,
				"y": -2.5836827694,
				"z": 0.9146505794,
				"element": "H" 
			},
			{
				"x": -0.0918809875,
				"y": -1.6331699854,
				"z": 1.8673313919,
				"element": "H" 
			},
			{
				"x": 2.0504280049,
				"y": -2.5877886296,
				"z": 3.1225739393,
				"element": "H" 
			},
			{
				"x": 0.7013738875,
				"y": -1.9301579506,
				"z": 4.055901394,
				"element": "H" 
			},
			{
				"x": 2.3608931129,
				"y": -1.4437485926,
				"z": 4.4304275231,
				"element": "H" 
			},
			{
				"x": 3.009790127,
				"y": 0.6989812504,
				"z": 1.4659456435,
				"element": "H" 
			},
			{
				"x": 3.5643989626,
				"y": -0.9432791541,
				"z": 1.8146090299,
				"element": "H" 
			},
			{
				"x": 3.5402342844,
				"y": 0.2691825151,
				"z": 3.0932978119,
				"element": "H" 
			},
			{
				"x": 1.2352867183,
				"y": 0.6922938502,
				"z": 4.4219474236,
				"element": "H" 
			},
			{
				"x": 1.259688412,
				"y": 1.6491960111,
				"z": 2.9592420619,
				"element": "H" 
			},
			{
				"x": -1.0808688567,
				"y": 1.4077480121,
				"z": 3.9061423738,
				"element": "H" 
			},
			{
				"x": -0.9611533606,
				"y": -0.3188740111,
				"z": 3.7082588556,
				"element": "H" 
			},
			{
				"x": -2.1190595538,
				"y": 0.2607833218,
				"z": 1.8303010959,
				"element": "H" 
			},
			{
				"x": -1.7044466774,
				"y": 4.6477402296,
				"z": 1.4212372739,
				"element": "H" 
			},
			{
				"x": -3.0929407705,
				"y": 4.0789794284,
				"z": 0.4859061299,
				"element": "H" 
			},
			{
				"x": -3.3509720126,
				"y": 4.6924440807,
				"z": 2.1345087489,
				"element": "H" 
			},
			{
				"x": 0.1285521611,
				"y": 1.9465918199,
				"z": -0.5250159798,
				"element": "H" 
			},
			{
				"x": 1.5201435197,
				"y": 0.8780790331,
				"z": -0.4148362974,
				"element": "H" 
			},
			{
				"x": 1.0809230022,
				"y": 1.9342299822,
				"z": 0.9303119746,
				"element": "H" 
			}
		],
		 "valence_orbital": [ 
			{
				"type": "occ",
				"energy": -0.27174,
				"method": "rhf"
			},
			{
				"type": "occ",
				"energy": -0.26979,
				"method": "rhf"
			},
			{
				"type": "occ",
				"energy": -0.26527,
				"method": "rhf"
			},
			{
				"type": "occ",
				"energy": -0.25547,
				"method": "rhf"
			},
			{
				"type": "occ",
				"energy": -0.23222,
				"method": "rhf"
			},
			{
				"type": "unocc",
				"energy": -0.0208,
				"method": "rhf"
			},
			{
				"type": "unocc",
				"energy": 0.00432,
				"method": "rhf"
			},
			{
				"type": "unocc",
				"energy": 0.0111,
				"method": "rhf"
			},
			{
				"type": "unocc",
				"energy": 0.05417,
				"method": "rhf"
			},
			{
				"type": "unocc",
				"energy": 0.06605,
				"method": "rhf"
			}
		],
		"cosmo_sigma_profile": { 
			"-0.025": 0.0,
			"-0.024": 0.0,
			"-0.023": 0.0,
			"-0.022": 0.0,
			"-0.021": 0.0,
			"-0.02": 0.0,
			"-0.019": 0.0,
			"-0.018": 0.0,
			"-0.017": 0.135595124621,
			"-0.016": 0.952541562532,
			"-0.015": 1.01798279964,
			"-0.014": 1.50510509386,
			"-0.013": 0.414452207009,
			"-0.012": 0.633523823128,
			"-0.011": 0.815751737383,
			"-0.01": 1.31271542699,
			"-0.009": 1.68161360361,
			"-0.008": 1.960213518,
			"-0.007": 3.36113989598,
			"-0.006": 9.97675957284,
			"-0.005": 21.5945545049,
			"-0.004": 33.750840193,
			"-0.003": 44.0439330135,
			"-0.002": 59.322855495,
			"-0.001": 55.3297531757,
			"0.0": 43.680929784,
			"0.001": 36.807036756,
			"0.002": 22.2479757243,
			"0.003": 12.3198399169,
			"0.004": 11.066681426,
			"0.005": 9.65728951926,
			"0.006": 8.10978830096,
			"0.007": 6.78107711881,
			"0.008": 4.19992625827,
			"0.009": 6.82958950153,
			"0.01": 6.24364929376,
			"0.011": 9.14232241587,
			"0.012": 9.16180296751,
			"0.013": 3.82846722667,
			"0.014": 1.30759388531,
			"0.015": 0.890954535012,
			"0.016": 0.0171344229976,
			"0.017": 0.0,
			"0.018": 0.0,
			"0.019": 0.0,
			"0.02": 0.0,
			"0.021": 0.0,
			"0.022": 0.0,
			"0.023": 0.0,
			"0.024": 0.0,
			"0.025": 0.0
		}
	}
}
