{
	 "smiles": "CCOC(=O)C(=CNC1=C(F)C=C(F)C=C1)C#N", 
	 "Tm": 416.15, 
	 "num_atms": 28, 
	 "gaussian": { 
		 "optdone": 1, 
		 "sigma_profile": "yes", 
		 "theory": "DFT", 
		 "functional": "B3LYP", 
		 "basiset": "6-31G**", 
		 "properties": { 
			 "R2extent": 4811.4413, 
			 "electric_dipole_moment_norm": 6.76214910661, 
			 "electric_quadrupole_moment_norm": 35.982427724, 
			 "total_energy": -922.892401151, 
			 "HOMO_LUMO_gap": 0.16016, 
			 "cosmo_polarized_energy": -20.82, 
			 "cosmo_cavitation_energy": 34.61, 
			 "cosmo_dispersion_energy": -22.8, 
			 "cosmo_repulsion_energy": 1.73, 
			 "cosmo_total_nonelectrostatic_energy": 13.55, 
			 "SMD_solvation_energy": 9.39 
		},
		"coords": [
			{
				"x": -3.0034658855,
				"y": -0.1295858972,
				"z": 0.0600578582,
				"element": "C" 
			},
			{
				"x": -2.1575901783,
				"y": -0.0986861748,
				"z": 1.3235983177,
				"element": "C" 
			},
			{
				"x": -0.8208717775,
				"y": -0.6262691158,
				"z": 1.1145947802,
				"element": "O" 
			},
			{
				"x": -0.7023072106,
				"y": -1.9723604537,
				"z": 1.1583148624,
				"element": "C" 
			},
			{
				"x": -1.6403822255,
				"y": -2.733868061,
				"z": 1.2886311604,
				"element": "O" 
			},
			{
				"x": 0.7133287074,
				"y": -2.4201322261,
				"z": 1.1345836197,
				"element": "C" 
			},
			{
				"x": 1.860723544,
				"y": -1.6967158648,
				"z": 0.9077630556,
				"element": "C" 
			},
			{
				"x": 2.0813876359,
				"y": -0.4732206833,
				"z": 0.3572118981,
				"element": "N" 
			},
			{
				"x": 1.3661257587,
				"y": 0.258228929,
				"z": -0.6108576952,
				"element": "C" 
			},
			{
				"x": 1.6606704296,
				"y": 1.621754252,
				"z": -0.7319051063,
				"element": "C" 
			},
			{
				"x": 2.561645791,
				"y": 2.1468810312,
				"z": 0.1303177345,
				"element": "F" 
			},
			{
				"x": 1.099107398,
				"y": 2.4303380728,
				"z": -1.7064999715,
				"element": "C" 
			},
			{
				"x": 0.2070539352,
				"y": 1.8372386054,
				"z": -2.5940167173,
				"element": "C" 
			},
			{
				"x": -0.3584261412,
				"y": 2.5987817837,
				"z": -3.5482027435,
				"element": "F" 
			},
			{
				"x": -0.1067936894,
				"y": 0.483430397,
				"z": -2.5262430607,
				"element": "C" 
			},
			{
				"x": 0.4786954623,
				"y": -0.3030663174,
				"z": -1.5357682506,
				"element": "C" 
			},
			{
				"x": 0.9162959013,
				"y": -3.7730344371,
				"z": 1.5584664724,
				"element": "C" 
			},
			{
				"x": 1.1274422553,
				"y": -4.8674846803,
				"z": 1.8940104177,
				"element": "N" 
			},
			{
				"x": -3.1782717636,
				"y": -1.159015941,
				"z": -0.2598995015,
				"element": "H" 
			},
			{
				"x": -2.5200581112,
				"y": 0.422407493,
				"z": -0.7502379342,
				"element": "H" 
			},
			{
				"x": -3.9740333129,
				"y": 0.3362237291,
				"z": 0.2616873851,
				"element": "H" 
			},
			{
				"x": -2.6310111761,
				"y": -0.6718774332,
				"z": 2.1243424514,
				"element": "H" 
			},
			{
				"x": -1.9836664423,
				"y": 0.92466439,
				"z": 1.6639686967,
				"element": "H" 
			},
			{
				"x": 2.7871319577,
				"y": -2.1770324721,
				"z": 1.2160834912,
				"element": "H" 
			},
			{
				"x": 2.9925985236,
				"y": -0.0820936467,
				"z": 0.5534657563,
				"element": "H" 
			},
			{
				"x": 1.350618757,
				"y": 3.4817280124,
				"z": -1.7707595403,
				"element": "H" 
			},
			{
				"x": -0.7939741071,
				"y": 0.0558595004,
				"z": -3.2471485904,
				"element": "H" 
			},
			{
				"x": 0.2539259642,
				"y": -1.3616927915,
				"z": -1.4863588458,
				"element": "H" 
			}
		],
		 "valence_orbital": [ 
			{
				"type": "occ",
				"energy": -0.30557,
				"method": "rhf"
			},
			{
				"type": "occ",
				"energy": -0.28162,
				"method": "rhf"
			},
			{
				"type": "occ",
				"energy": -0.28005,
				"method": "rhf"
			},
			{
				"type": "occ",
				"energy": -0.27689,
				"method": "rhf"
			},
			{
				"type": "occ",
				"energy": -0.22841,
				"method": "rhf"
			},
			{
				"type": "unocc",
				"energy": -0.06825,
				"method": "rhf"
			},
			{
				"type": "unocc",
				"energy": -0.03307,
				"method": "rhf"
			},
			{
				"type": "unocc",
				"energy": -0.008,
				"method": "rhf"
			},
			{
				"type": "unocc",
				"energy": 0.02318,
				"method": "rhf"
			},
			{
				"type": "unocc",
				"energy": 0.03895,
				"method": "rhf"
			}
		],
		"cosmo_sigma_profile": { 
			"-0.025": 0.0,
			"-0.024": 0.0,
			"-0.023": 0.0,
			"-0.022": 0.0,
			"-0.021": 0.0,
			"-0.02": 0.0,
			"-0.019": 0.0,
			"-0.018": 0.081636206618,
			"-0.017": 1.09991480192,
			"-0.016": 1.05658621095,
			"-0.015": 1.30737972929,
			"-0.014": 1.13046317249,
			"-0.013": 0.895567132845,
			"-0.012": 1.31472156066,
			"-0.011": 2.65558903926,
			"-0.01": 3.09341585084,
			"-0.009": 3.69032510516,
			"-0.008": 5.23306427528,
			"-0.007": 7.0023937644,
			"-0.006": 10.8440615496,
			"-0.005": 11.9422371203,
			"-0.004": 16.3238845546,
			"-0.003": 19.3518282954,
			"-0.002": 20.6978280853,
			"-0.001": 25.0548483019,
			"0.0": 30.421749062,
			"0.001": 20.9764739763,
			"0.002": 14.1744502688,
			"0.003": 16.6422798027,
			"0.004": 16.01676285,
			"0.005": 4.41333568933,
			"0.006": 4.29646081961,
			"0.007": 4.08005902545,
			"0.008": 5.9103351912,
			"0.009": 5.86542885769,
			"0.01": 5.84209523958,
			"0.011": 5.54905753056,
			"0.012": 7.21553891584,
			"0.013": 2.93666356101,
			"0.014": 0.899738650056,
			"0.015": 0.0,
			"0.016": 0.0,
			"0.017": 0.0,
			"0.018": 0.0,
			"0.019": 0.0,
			"0.02": 0.0,
			"0.021": 0.0,
			"0.022": 0.0,
			"0.023": 0.0,
			"0.024": 0.0,
			"0.025": 0.0
		}
	}
}
