{
	 "smiles": "O=C1OC2=C(C=C3CCCN4CCCC2=C34)C=C1C#N", 
	 "Tm": 523.15, 
	 "num_atms": 34, 
	 "gaussian": { 
		 "optdone": 1, 
		 "sigma_profile": "yes", 
		 "theory": "DFT", 
		 "functional": "B3LYP", 
		 "basiset": "6-31G**", 
		 "properties": { 
			 "R2extent": 6398.0936, 
			 "electric_dipole_moment_norm": 11.9378972378, 
			 "electric_quadrupole_moment_norm": 36.1852927191, 
			 "total_energy": -878.102071347, 
			 "HOMO_LUMO_gap": 0.12922, 
			 "cosmo_polarized_energy": -20.25, 
			 "cosmo_cavitation_energy": 36.53, 
			 "cosmo_dispersion_energy": -26.62, 
			 "cosmo_repulsion_energy": 2.01, 
			 "cosmo_total_nonelectrostatic_energy": 11.92, 
			 "SMD_solvation_energy": 6.59 
		},
		"coords": [
			{
				"x": -4.1970993699,
				"y": 2.2533415284,
				"z": 1.4225145508,
				"element": "O" 
			},
			{
				"x": -3.2369353311,
				"y": 2.1126180782,
				"z": 0.7069132651,
				"element": "C" 
			},
			{
				"x": -2.4732789864,
				"y": 0.953086281,
				"z": 0.8609801864,
				"element": "O" 
			},
			{
				"x": -1.3583978114,
				"y": 0.6686166831,
				"z": 0.1226773596,
				"element": "C" 
			},
			{
				"x": -0.9155742192,
				"y": 1.5638751111,
				"z": -0.8740585269,
				"element": "C" 
			},
			{
				"x": 0.2376115881,
				"y": 1.2061106946,
				"z": -1.6022502646,
				"element": "C" 
			},
			{
				"x": 0.9154606732,
				"y": 0.027544366,
				"z": -1.3721524146,
				"element": "C" 
			},
			{
				"x": 2.1262475665,
				"y": -0.3362521411,
				"z": -2.2071774803,
				"element": "C" 
			},
			{
				"x": 3.0484159092,
				"y": -1.2952361913,
				"z": -1.4540796043,
				"element": "C" 
			},
			{
				"x": 2.2334509796,
				"y": -2.4742190539,
				"z": -0.9319382541,
				"element": "C" 
			},
			{
				"x": 1.1389810425,
				"y": -2.026235083,
				"z": -0.0737049641,
				"element": "N" 
			},
			{
				"x": 0.5603551749,
				"y": -3.035737991,
				"z": 0.8112996556,
				"element": "C" 
			},
			{
				"x": -0.143555093,
				"y": -2.3851297896,
				"z": 1.9979172317,
				"element": "C" 
			},
			{
				"x": -1.2317745216,
				"y": -1.4324702099,
				"z": 1.5020268369,
				"element": "C" 
			},
			{
				"x": -0.7056394664,
				"y": -0.5265923137,
				"z": 0.4095369301,
				"element": "C" 
			},
			{
				"x": 0.4507594962,
				"y": -0.8602212075,
				"z": -0.3449823913,
				"element": "C" 
			},
			{
				"x": -1.6545501236,
				"y": 2.7580684975,
				"z": -1.0768402886,
				"element": "C" 
			},
			{
				"x": -2.770774084,
				"y": 3.040027718,
				"z": -0.3296745347,
				"element": "C" 
			},
			{
				"x": -3.5173780756,
				"y": 4.2389795683,
				"z": -0.5281704978,
				"element": "C" 
			},
			{
				"x": -4.1031356203,
				"y": 5.226914502,
				"z": -0.7168484799,
				"element": "N" 
			},
			{
				"x": 0.595085625,
				"y": 1.8814963652,
				"z": -2.3761511625,
				"element": "H" 
			},
			{
				"x": 2.6632077765,
				"y": 0.572981151,
				"z": -2.4977395111,
				"element": "H" 
			},
			{
				"x": 1.8007147451,
				"y": -0.8140210702,
				"z": -3.1425096398,
				"element": "H" 
			},
			{
				"x": 3.5212932373,
				"y": -0.7811054821,
				"z": -0.6093149093,
				"element": "H" 
			},
			{
				"x": 3.8473867083,
				"y": -1.6632223446,
				"z": -2.1055661747,
				"element": "H" 
			},
			{
				"x": 1.8472784091,
				"y": -3.0677002475,
				"z": -1.7782095044,
				"element": "H" 
			},
			{
				"x": 2.8659445733,
				"y": -3.142713127,
				"z": -0.3380510148,
				"element": "H" 
			},
			{
				"x": -0.1456677572,
				"y": -3.6773381663,
				"z": 0.2575926983,
				"element": "H" 
			},
			{
				"x": 1.3759220897,
				"y": -3.6804623753,
				"z": 1.15492944,
				"element": "H" 
			},
			{
				"x": 0.595791872,
				"y": -1.8367122827,
				"z": 2.5930017414,
				"element": "H" 
			},
			{
				"x": -0.571876954,
				"y": -3.1602477415,
				"z": 2.6411282732,
				"element": "H" 
			},
			{
				"x": -1.6241333062,
				"y": -0.8274863998,
				"z": 2.3240126465,
				"element": "H" 
			},
			{
				"x": -2.0872510304,
				"y": -2.0085858431,
				"z": 1.1226750016,
				"element": "H" 
			},
			{
				"x": -1.3286857165,
				"y": 3.4616285172,
				"z": -1.8382861996,
				"element": "H" 
			}
		],
		 "valence_orbital": [ 
			{
				"type": "occ",
				"energy": -0.31834,
				"method": "rhf"
			},
			{
				"type": "occ",
				"energy": -0.27756,
				"method": "rhf"
			},
			{
				"type": "occ",
				"energy": -0.27196,
				"method": "rhf"
			},
			{
				"type": "occ",
				"energy": -0.24374,
				"method": "rhf"
			},
			{
				"type": "occ",
				"energy": -0.20631,
				"method": "rhf"
			},
			{
				"type": "unocc",
				"energy": -0.07709,
				"method": "rhf"
			},
			{
				"type": "unocc",
				"energy": -0.01853,
				"method": "rhf"
			},
			{
				"type": "unocc",
				"energy": 0.00267,
				"method": "rhf"
			},
			{
				"type": "unocc",
				"energy": 0.0374,
				"method": "rhf"
			},
			{
				"type": "unocc",
				"energy": 0.04269,
				"method": "rhf"
			}
		],
		"cosmo_sigma_profile": { 
			"-0.025": 0.0,
			"-0.024": 0.0,
			"-0.023": 0.0,
			"-0.022": 0.0,
			"-0.021": 0.0,
			"-0.02": 0.0,
			"-0.019": 0.0,
			"-0.018": 0.0,
			"-0.017": 0.0,
			"-0.016": 0.0,
			"-0.015": 0.0,
			"-0.014": 0.0,
			"-0.013": 0.0,
			"-0.012": 0.0,
			"-0.011": 0.0,
			"-0.01": 0.538548093785,
			"-0.009": 3.32244951535,
			"-0.008": 2.84896634684,
			"-0.007": 3.98897374428,
			"-0.006": 6.61963593188,
			"-0.005": 12.4668266242,
			"-0.004": 35.7278641343,
			"-0.003": 42.9464122111,
			"-0.002": 37.2124414215,
			"-0.001": 30.5533340779,
			"0.0": 20.5683400231,
			"0.001": 12.261506968,
			"0.002": 15.38950342,
			"0.003": 9.81679667438,
			"0.004": 4.98627194218,
			"0.005": 4.01470695254,
			"0.006": 4.90992478559,
			"0.007": 5.72551892982,
			"0.008": 5.9147076152,
			"0.009": 5.70128161732,
			"0.01": 6.23599694584,
			"0.011": 8.22747001636,
			"0.012": 7.16972503014,
			"0.013": 3.12764120562,
			"0.014": 0.276195579676,
			"0.015": 0.0,
			"0.016": 0.0,
			"0.017": 0.0,
			"0.018": 0.0,
			"0.019": 0.0,
			"0.02": 0.0,
			"0.021": 0.0,
			"0.022": 0.0,
			"0.023": 0.0,
			"0.024": 0.0,
			"0.025": 0.0
		}
	}
}
