{
	 "smiles": "CC1=NC2=C(C=NN2C2=CC=CC=C2)C(C)=C1", 
	 "Tm": 339.15, 
	 "num_atms": 30, 
	 "gaussian": { 
		 "optdone": 1, 
		 "sigma_profile": "yes", 
		 "theory": "DFT", 
		 "functional": "B3LYP", 
		 "basiset": "6-31G**", 
		 "properties": { 
			 "R2extent": 4573.7961, 
			 "electric_dipole_moment_norm": 3.05377955982, 
			 "electric_quadrupole_moment_norm": 15.6236219136, 
			 "total_energy": -705.583946567, 
			 "HOMO_LUMO_gap": 0.1672, 
			 "cosmo_polarized_energy": -8.34, 
			 "cosmo_cavitation_energy": 33.4, 
			 "cosmo_dispersion_energy": -24.56, 
			 "cosmo_repulsion_energy": 1.87, 
			 "cosmo_total_nonelectrostatic_energy": 10.72, 
			 "SMD_solvation_energy": 4.32 
		},
		"coords": [
			{
				"x": -2.7944399726,
				"y": 2.6493729513,
				"z": -1.7108775387,
				"element": "C" 
			},
			{
				"x": -2.5188203802,
				"y": 1.3724470097,
				"z": -0.955582015,
				"element": "C" 
			},
			{
				"x": -1.2537485007,
				"y": 1.1529156687,
				"z": -0.582808374,
				"element": "N" 
			},
			{
				"x": -1.0457882867,
				"y": 0.0112911297,
				"z": 0.0848017382,
				"element": "C" 
			},
			{
				"x": -2.0324089534,
				"y": -0.95097539,
				"z": 0.4157476281,
				"element": "C" 
			},
			{
				"x": -1.3160856536,
				"y": -1.9651464107,
				"z": 1.1147978191,
				"element": "C" 
			},
			{
				"x": -0.0365005359,
				"y": -1.6707334857,
				"z": 1.2084979853,
				"element": "N" 
			},
			{
				"x": 0.1520815842,
				"y": -0.4648944522,
				"z": 0.5848134637,
				"element": "N" 
			},
			{
				"x": 1.4629310065,
				"y": 0.0898235176,
				"z": 0.5419725131,
				"element": "C" 
			},
			{
				"x": 1.7090665218,
				"y": 1.3201581812,
				"z": -0.0825894361,
				"element": "C" 
			},
			{
				"x": 3.0082712969,
				"y": 1.8285964306,
				"z": -0.102477306,
				"element": "C" 
			},
			{
				"x": 4.0620084431,
				"y": 1.1320004693,
				"z": 0.4884780476,
				"element": "C" 
			},
			{
				"x": 3.8050466065,
				"y": -0.0929632383,
				"z": 1.1079833422,
				"element": "C" 
			},
			{
				"x": 2.5160033554,
				"y": -0.618374918,
				"z": 1.1391907331,
				"element": "C" 
			},
			{
				"x": -3.3607086142,
				"y": -0.7112595705,
				"z": 0.0192820125,
				"element": "C" 
			},
			{
				"x": -4.4815107677,
				"y": -1.6729811196,
				"z": 0.3231174912,
				"element": "C" 
			},
			{
				"x": -3.5766628144,
				"y": 0.474622164,
				"z": -0.6741954476,
				"element": "C" 
			},
			{
				"x": -1.8696922849,
				"y": 3.2143493771,
				"z": -1.8362717702,
				"element": "H" 
			},
			{
				"x": -3.2157326172,
				"y": 2.4396126892,
				"z": -2.7007497888,
				"element": "H" 
			},
			{
				"x": -3.5195412654,
				"y": 3.2749129396,
				"z": -1.1777144935,
				"element": "H" 
			},
			{
				"x": -1.6817427147,
				"y": -2.8870521627,
				"z": 1.5474773018,
				"element": "H" 
			},
			{
				"x": 0.8921596209,
				"y": 1.8604904879,
				"z": -0.5409281633,
				"element": "H" 
			},
			{
				"x": 3.190918385,
				"y": 2.7828956106,
				"z": -0.5885619589,
				"element": "H" 
			},
			{
				"x": 5.0695188066,
				"y": 1.5365756695,
				"z": 0.467404848,
				"element": "H" 
			},
			{
				"x": 4.6137178792,
				"y": -0.6493638156,
				"z": 1.5734529504,
				"element": "H" 
			},
			{
				"x": 2.3100707414,
				"y": -1.566884144,
				"z": 1.6175171864,
				"element": "H" 
			},
			{
				"x": -4.9559380219,
				"y": -2.0231051422,
				"z": -0.6000837559,
				"element": "H" 
			},
			{
				"x": -4.1296423848,
				"y": -2.548338012,
				"z": 0.8733156415,
				"element": "H" 
			},
			{
				"x": -5.2596360883,
				"y": -1.1881110009,
				"z": 0.9226085981,
				"element": "H" 
			},
			{
				"x": -4.5779943912,
				"y": 0.7276185666,
				"z": -1.0127192522,
				"element": "H" 
			}
		],
		 "valence_orbital": [ 
			{
				"type": "occ",
				"energy": -0.26479,
				"method": "rhf"
			},
			{
				"type": "occ",
				"energy": -0.26227,
				"method": "rhf"
			},
			{
				"type": "occ",
				"energy": -0.24566,
				"method": "rhf"
			},
			{
				"type": "occ",
				"energy": -0.24101,
				"method": "rhf"
			},
			{
				"type": "occ",
				"energy": -0.20965,
				"method": "rhf"
			},
			{
				"type": "unocc",
				"energy": -0.04245,
				"method": "rhf"
			},
			{
				"type": "unocc",
				"energy": -0.01516,
				"method": "rhf"
			},
			{
				"type": "unocc",
				"energy": 0.00587,
				"method": "rhf"
			},
			{
				"type": "unocc",
				"energy": 0.02548,
				"method": "rhf"
			},
			{
				"type": "unocc",
				"energy": 0.05932,
				"method": "rhf"
			}
		],
		"cosmo_sigma_profile": { 
			"-0.025": 0.0,
			"-0.024": 0.0,
			"-0.023": 0.0,
			"-0.022": 0.0,
			"-0.021": 0.0,
			"-0.02": 0.0,
			"-0.019": 0.0,
			"-0.018": 0.0,
			"-0.017": 0.0,
			"-0.016": 0.0,
			"-0.015": 0.0,
			"-0.014": 0.0,
			"-0.013": 0.0,
			"-0.012": 0.0,
			"-0.011": 0.0,
			"-0.01": 0.0,
			"-0.009": 0.0964651287488,
			"-0.008": 1.78813455383,
			"-0.007": 2.54558573323,
			"-0.006": 7.50415438528,
			"-0.005": 18.8385507188,
			"-0.004": 23.6893742805,
			"-0.003": 26.3234259686,
			"-0.002": 20.7267005874,
			"-0.001": 25.1129713456,
			"0.0": 23.3816905613,
			"0.001": 23.5995893021,
			"0.002": 23.3956013432,
			"0.003": 19.3988904441,
			"0.004": 16.8658433552,
			"0.005": 14.6675217696,
			"0.006": 8.87307261091,
			"0.007": 3.61199611196,
			"0.008": 2.77485073627,
			"0.009": 1.68886323611,
			"0.01": 1.59160305294,
			"0.011": 1.16733548423,
			"0.012": 0.00895389398682,
			"0.013": 0.0,
			"0.014": 0.0,
			"0.015": 0.0,
			"0.016": 0.0,
			"0.017": 0.0,
			"0.018": 0.0,
			"0.019": 0.0,
			"0.02": 0.0,
			"0.021": 0.0,
			"0.022": 0.0,
			"0.023": 0.0,
			"0.024": 0.0,
			"0.025": 0.0
		}
	}
}
