{
	 "smiles": "CN1C(=O)ON(C1=O)C1=CC(Cl)=C(Cl)C=C1", 
	 "Tm": 396.15, 
	 "num_atms": 22, 
	 "gaussian": { 
		 "optdone": 1, 
		 "sigma_profile": "yes", 
		 "theory": "DFT", 
		 "functional": "B3LYP", 
		 "basiset": "6-31G**", 
		 "properties": { 
			 "R2extent": 7174.6401, 
			 "electric_dipole_moment_norm": 3.14885226868, 
			 "electric_quadrupole_moment_norm": 8.8504950805, 
			 "total_energy": -1602.1118557, 
			 "HOMO_LUMO_gap": 0.19706, 
			 "cosmo_polarized_energy": -10.62, 
			 "cosmo_cavitation_energy": 31.11, 
			 "cosmo_dispersion_energy": -23.28, 
			 "cosmo_repulsion_energy": 1.79, 
			 "cosmo_total_nonelectrostatic_energy": 9.62, 
			 "SMD_solvation_energy": 7.46 
		},
		"coords": [
			{
				"x": 3.4580821372,
				"y": 1.8984968593,
				"z": -1.4464095601,
				"element": "C" 
			},
			{
				"x": 2.3801338138,
				"y": 1.1943934635,
				"z": -0.7684740449,
				"element": "N" 
			},
			{
				"x": 1.2640722553,
				"y": 0.7007657539,
				"z": -1.4030673711,
				"element": "C" 
			},
			{
				"x": 0.9561832591,
				"y": 0.7318965032,
				"z": -2.5626161797,
				"element": "O" 
			},
			{
				"x": 0.4804577745,
				"y": 0.1054919782,
				"z": -0.4252158801,
				"element": "O" 
			},
			{
				"x": 1.1823497366,
				"y": 0.2263374483,
				"z": 0.7975250574,
				"element": "N" 
			},
			{
				"x": 2.3455164729,
				"y": 0.9542756622,
				"z": 0.6063452022,
				"element": "C" 
			},
			{
				"x": 3.1641969682,
				"y": 1.290685563,
				"z": 1.4383248107,
				"element": "O" 
			},
			{
				"x": 0.4550810801,
				"y": -0.0618007044,
				"z": 1.9678296306,
				"element": "C" 
			},
			{
				"x": -0.8573106652,
				"y": -0.5300752951,
				"z": 1.8621135523,
				"element": "C" 
			},
			{
				"x": -1.5741898727,
				"y": -0.8369179588,
				"z": 3.0190476544,
				"element": "C" 
			},
			{
				"x": -3.2104446764,
				"y": -1.4160832045,
				"z": 2.841601058,
				"element": "Cl" 
			},
			{
				"x": -0.9873965527,
				"y": -0.679650831,
				"z": 4.2804991997,
				"element": "C" 
			},
			{
				"x": -1.8510127485,
				"y": -1.0526685477,
				"z": 5.749850211,
				"element": "Cl" 
			},
			{
				"x": 0.3267947173,
				"y": -0.2128969236,
				"z": 4.3643813744,
				"element": "C" 
			},
			{
				"x": 1.0591551391,
				"y": 0.0951188706,
				"z": 3.2245806718,
				"element": "C" 
			},
			{
				"x": 4.1928813616,
				"y": 2.1677642588,
				"z": -0.6874679858,
				"element": "H" 
			},
			{
				"x": 3.9156560534,
				"y": 1.2516594983,
				"z": -2.1982563176,
				"element": "H" 
			},
			{
				"x": 3.0745349996,
				"y": 2.7990474518,
				"z": -1.9310301107,
				"element": "H" 
			},
			{
				"x": -1.3247966934,
				"y": -0.6557908816,
				"z": 0.8952654225,
				"element": "H" 
			},
			{
				"x": 0.7795727408,
				"y": -0.092776759,
				"z": 5.3421574659,
				"element": "H" 
			},
			{
				"x": 2.0757826994,
				"y": 0.4561277946,
				"z": 3.2992161391,
				"element": "H" 
			}
		],
		 "valence_orbital": [ 
			{
				"type": "occ",
				"energy": -0.30787,
				"method": "rhf"
			},
			{
				"type": "occ",
				"energy": -0.30622,
				"method": "rhf"
			},
			{
				"type": "occ",
				"energy": -0.30092,
				"method": "rhf"
			},
			{
				"type": "occ",
				"energy": -0.27042,
				"method": "rhf"
			},
			{
				"type": "occ",
				"energy": -0.23924,
				"method": "rhf"
			},
			{
				"type": "unocc",
				"energy": -0.04218,
				"method": "rhf"
			},
			{
				"type": "unocc",
				"energy": -0.03475,
				"method": "rhf"
			},
			{
				"type": "unocc",
				"energy": -0.00378,
				"method": "rhf"
			},
			{
				"type": "unocc",
				"energy": 0.00259,
				"method": "rhf"
			},
			{
				"type": "unocc",
				"energy": 0.02629,
				"method": "rhf"
			}
		],
		"cosmo_sigma_profile": { 
			"-0.025": 0.0,
			"-0.024": 0.0,
			"-0.023": 0.0,
			"-0.022": 0.0,
			"-0.021": 0.0,
			"-0.02": 0.0,
			"-0.019": 0.0,
			"-0.018": 0.0,
			"-0.017": 0.0,
			"-0.016": 0.0,
			"-0.015": 0.0,
			"-0.014": 0.0,
			"-0.013": 0.0,
			"-0.012": 0.0,
			"-0.011": 0.0,
			"-0.01": 0.241564720879,
			"-0.009": 1.52338109243,
			"-0.008": 5.61122974095,
			"-0.007": 12.8973120243,
			"-0.006": 13.9792614638,
			"-0.005": 15.2099540476,
			"-0.004": 17.5780063085,
			"-0.003": 13.7055867348,
			"-0.002": 15.6878740112,
			"-0.001": 18.3336084578,
			"0.0": 27.9225876056,
			"0.001": 24.5016869288,
			"0.002": 17.6088781089,
			"0.003": 18.5143766285,
			"0.004": 18.112209925,
			"0.005": 6.44823078671,
			"0.006": 2.71971442156,
			"0.007": 2.74503180984,
			"0.008": 3.38879216167,
			"0.009": 4.82619181141,
			"0.01": 8.88323615816,
			"0.011": 5.06484434683,
			"0.012": 0.0119647477165,
			"0.013": 0.0,
			"0.014": 0.0,
			"0.015": 0.0,
			"0.016": 0.0,
			"0.017": 0.0,
			"0.018": 0.0,
			"0.019": 0.0,
			"0.02": 0.0,
			"0.021": 0.0,
			"0.022": 0.0,
			"0.023": 0.0,
			"0.024": 0.0,
			"0.025": 0.0
		}
	}
}
