{
	 "smiles": "CC(C)(C)OC(=O)NCC1=CC=C(CO)C=C1", 
	 "Tm": 371.65, 
	 "num_atms": 36, 
	 "gaussian": { 
		 "optdone": 1, 
		 "sigma_profile": "yes", 
		 "theory": "DFT", 
		 "functional": "B3LYP", 
		 "basiset": "6-31G**", 
		 "properties": { 
			 "R2extent": 7957.2206, 
			 "electric_dipole_moment_norm": 1.02535000853, 
			 "electric_quadrupole_moment_norm": 22.7443433238, 
			 "total_energy": -787.28922437, 
			 "HOMO_LUMO_gap": 0.22556, 
			 "cosmo_polarized_energy": -13.8, 
			 "cosmo_cavitation_energy": 38.79, 
			 "cosmo_dispersion_energy": -27.05, 
			 "cosmo_repulsion_energy": 2.14, 
			 "cosmo_total_nonelectrostatic_energy": 13.88, 
			 "SMD_solvation_energy": 7.52 
		},
		"coords": [
			{
				"x": -0.9242945172,
				"y": -4.0409809126,
				"z": 3.6256047441,
				"element": "C" 
			},
			{
				"x": 0.355954781,
				"y": -3.2128668727,
				"z": 3.4727375463,
				"element": "C" 
			},
			{
				"x": 1.610965908,
				"y": -4.0899129768,
				"z": 3.4083521491,
				"element": "C" 
			},
			{
				"x": 0.4723650308,
				"y": -2.1799704441,
				"z": 4.596766013,
				"element": "C" 
			},
			{
				"x": 0.2707787494,
				"y": -2.3683154958,
				"z": 2.2705358433,
				"element": "O" 
			},
			{
				"x": 0.1405507974,
				"y": -2.9228026076,
				"z": 1.0414723978,
				"element": "C" 
			},
			{
				"x": 0.110533552,
				"y": -4.1171176352,
				"z": 0.7878536194,
				"element": "O" 
			},
			{
				"x": 0.023900574,
				"y": -1.9567593871,
				"z": 0.0764263603,
				"element": "N" 
			},
			{
				"x": 0.1977476785,
				"y": -0.5203671257,
				"z": 0.2471358754,
				"element": "C" 
			},
			{
				"x": -0.6807854187,
				"y": 0.2761246293,
				"z": -0.6988844346,
				"element": "C" 
			},
			{
				"x": -2.0347328226,
				"y": -0.0434324727,
				"z": -0.8691906957,
				"element": "C" 
			},
			{
				"x": -2.8403794733,
				"y": 0.7101579705,
				"z": -1.7202812397,
				"element": "C" 
			},
			{
				"x": -2.3206336148,
				"y": 1.8098459562,
				"z": -2.4149686006,
				"element": "C" 
			},
			{
				"x": -3.2069474099,
				"y": 2.6527459073,
				"z": -3.3127269967,
				"element": "C" 
			},
			{
				"x": -2.5140499737,
				"y": 3.2658298961,
				"z": -4.3903929183,
				"element": "O" 
			},
			{
				"x": -0.9688348194,
				"y": 2.1279515141,
				"z": -2.248091444,
				"element": "C" 
			},
			{
				"x": -0.1595551608,
				"y": 1.3653997498,
				"z": -1.4051150361,
				"element": "C" 
			},
			{
				"x": -1.0207582284,
				"y": -4.7621220586,
				"z": 2.8138391829,
				"element": "H" 
			},
			{
				"x": -1.8019425733,
				"y": -3.3865678557,
				"z": 3.6267388116,
				"element": "H" 
			},
			{
				"x": -0.9017120558,
				"y": -4.579592393,
				"z": 4.5786206662,
				"element": "H" 
			},
			{
				"x": 1.7292438544,
				"y": -4.6319244314,
				"z": 4.352338101,
				"element": "H" 
			},
			{
				"x": 2.5003900249,
				"y": -3.4691855937,
				"z": 3.2597744236,
				"element": "H" 
			},
			{
				"x": 1.5410337376,
				"y": -4.8097886674,
				"z": 2.5928537434,
				"element": "H" 
			},
			{
				"x": 1.3620101941,
				"y": -1.5582486324,
				"z": 4.4597244088,
				"element": "H" 
			},
			{
				"x": -0.4054900036,
				"y": -1.5273355635,
				"z": 4.6152161311,
				"element": "H" 
			},
			{
				"x": 0.5485657361,
				"y": -2.6847737815,
				"z": 5.564393332,
				"element": "H" 
			},
			{
				"x": 0.0267414747,
				"y": -2.3307927166,
				"z": -0.8615020637,
				"element": "H" 
			},
			{
				"x": -0.0528375674,
				"y": -0.2888498802,
				"z": 1.2855261327,
				"element": "H" 
			},
			{
				"x": 1.2474224578,
				"y": -0.2253903016,
				"z": 0.1031914064,
				"element": "H" 
			},
			{
				"x": -2.4502170396,
				"y": -0.8980841046,
				"z": -0.3427661573,
				"element": "H" 
			},
			{
				"x": -3.8861731979,
				"y": 0.4389737862,
				"z": -1.8481541288,
				"element": "H" 
			},
			{
				"x": -3.6358897709,
				"y": 3.4846200275,
				"z": -2.7407268299,
				"element": "H" 
			},
			{
				"x": -4.0543933462,
				"y": 2.0453945114,
				"z": -3.6686532461,
				"element": "H" 
			},
			{
				"x": -2.1043391482,
				"y": 2.5608239086,
				"z": -4.9095854046,
				"element": "H" 
			},
			{
				"x": -0.5554302905,
				"y": 2.9701277394,
				"z": -2.7944860195,
				"element": "H" 
			},
			{
				"x": 0.8917918812,
				"y": 1.621286314,
				"z": -1.2947756729,
				"element": "H" 
			}
		],
		 "valence_orbital": [ 
			{
				"type": "occ",
				"energy": -0.28018,
				"method": "rhf"
			},
			{
				"type": "occ",
				"energy": -0.25882,
				"method": "rhf"
			},
			{
				"type": "occ",
				"energy": -0.25698,
				"method": "rhf"
			},
			{
				"type": "occ",
				"energy": -0.25395,
				"method": "rhf"
			},
			{
				"type": "occ",
				"energy": -0.23663,
				"method": "rhf"
			},
			{
				"type": "unocc",
				"energy": -0.01107,
				"method": "rhf"
			},
			{
				"type": "unocc",
				"energy": -0.00773,
				"method": "rhf"
			},
			{
				"type": "unocc",
				"energy": 0.05661,
				"method": "rhf"
			},
			{
				"type": "unocc",
				"energy": 0.08266,
				"method": "rhf"
			},
			{
				"type": "unocc",
				"energy": 0.08511,
				"method": "rhf"
			}
		],
		"cosmo_sigma_profile": { 
			"-0.025": 0.0,
			"-0.024": 0.0,
			"-0.023": 0.0,
			"-0.022": 0.0,
			"-0.021": 0.0,
			"-0.02": 0.0,
			"-0.019": 0.0,
			"-0.018": 0.0,
			"-0.017": 0.0,
			"-0.016": 0.168144187413,
			"-0.015": 0.769201345504,
			"-0.014": 1.21255121501,
			"-0.013": 1.61644682726,
			"-0.012": 1.33172573481,
			"-0.011": 1.71770585826,
			"-0.01": 1.70072698187,
			"-0.009": 1.64420217798,
			"-0.008": 1.34334486344,
			"-0.007": 1.77722360882,
			"-0.006": 4.74055680079,
			"-0.005": 15.5491509502,
			"-0.004": 28.424224003,
			"-0.003": 32.9955774937,
			"-0.002": 29.0897007719,
			"-0.001": 28.3777528634,
			"0.0": 35.0718143522,
			"0.001": 29.864825331,
			"0.002": 13.4530413829,
			"0.003": 12.0472336058,
			"0.004": 12.0447211842,
			"0.005": 13.9796622766,
			"0.006": 8.97756259156,
			"0.007": 2.89540269297,
			"0.008": 2.89307483455,
			"0.009": 2.00997174336,
			"0.01": 2.0607205747,
			"0.011": 3.48239908928,
			"0.012": 2.3203199275,
			"0.013": 4.98466946006,
			"0.014": 4.60771630007,
			"0.015": 0.396259659802,
			"0.016": 0.0,
			"0.017": 0.0,
			"0.018": 0.0,
			"0.019": 0.0,
			"0.02": 0.0,
			"0.021": 0.0,
			"0.022": 0.0,
			"0.023": 0.0,
			"0.024": 0.0,
			"0.025": 0.0
		}
	}
}
