{
	 "smiles": "CC1=CC(=NN1C1=NC=CC=C1)C(O)=O", 
	 "Tm": 431.15, 
	 "num_atms": 24, 
	 "gaussian": { 
		 "optdone": 1, 
		 "sigma_profile": "yes", 
		 "theory": "DFT", 
		 "functional": "B3LYP", 
		 "basiset": "6-31G**", 
		 "properties": { 
			 "R2extent": 4225.3349, 
			 "electric_dipole_moment_norm": 7.00115149743, 
			 "electric_quadrupole_moment_norm": 28.4436983647, 
			 "total_energy": -701.190700366, 
			 "HOMO_LUMO_gap": 0.19175, 
			 "cosmo_polarized_energy": -12.96, 
			 "cosmo_cavitation_energy": 29.02, 
			 "cosmo_dispersion_energy": -21.28, 
			 "cosmo_repulsion_energy": 1.65, 
			 "cosmo_total_nonelectrostatic_energy": 9.39, 
			 "SMD_solvation_energy": 5.44 
		},
		"coords": [
			{
				"x": 0.1965075822,
				"y": -2.7446663407,
				"z": -1.9608675935,
				"element": "C" 
			},
			{
				"x": 1.1816474513,
				"y": -1.7524962272,
				"z": -1.431102889,
				"element": "C" 
			},
			{
				"x": 2.481146857,
				"y": -1.544534893,
				"z": -1.8426230192,
				"element": "C" 
			},
			{
				"x": 2.9760378063,
				"y": -0.5038479478,
				"z": -1.029592731,
				"element": "C" 
			},
			{
				"x": 2.0594777986,
				"y": -0.0808783307,
				"z": -0.1644727093,
				"element": "N" 
			},
			{
				"x": 0.9620775365,
				"y": -0.8400326413,
				"z": -0.4057112103,
				"element": "N" 
			},
			{
				"x": -0.2022526437,
				"y": -0.6142828246,
				"z": 0.3787023211,
				"element": "C" 
			},
			{
				"x": -1.2562557572,
				"y": -1.3798838487,
				"z": 0.1092585663,
				"element": "N" 
			},
			{
				"x": -2.3669529557,
				"y": -1.1890813619,
				"z": 0.832720371,
				"element": "C" 
			},
			{
				"x": -2.4722599134,
				"y": -0.2381487514,
				"z": 1.8433149981,
				"element": "C" 
			},
			{
				"x": -1.3541739613,
				"y": 0.5561294411,
				"z": 2.1111274391,
				"element": "C" 
			},
			{
				"x": -0.191199729,
				"y": 0.3754877765,
				"z": 1.3729643763,
				"element": "C" 
			},
			{
				"x": 4.3256194235,
				"y": 0.1187229653,
				"z": -1.0471937688,
				"element": "C" 
			},
			{
				"x": 4.5008748906,
				"y": 1.1022318291,
				"z": -0.1360630971,
				"element": "O" 
			},
			{
				"x": 5.2031205048,
				"y": -0.220139198,
				"z": -1.8065180946,
				"element": "O" 
			},
			{
				"x": -0.6988773321,
				"y": -2.2585854755,
				"z": -2.3552791933,
				"element": "H" 
			},
			{
				"x": 0.6771838271,
				"y": -3.3113491456,
				"z": -2.7622841972,
				"element": "H" 
			},
			{
				"x": -0.1399157588,
				"y": -3.4377321788,
				"z": -1.1862448879,
				"element": "H" 
			},
			{
				"x": 3.0096404834,
				"y": -2.068422368,
				"z": -2.6238005866,
				"element": "H" 
			},
			{
				"x": -3.2084882205,
				"y": -1.8325961875,
				"z": 0.5850300677,
				"element": "H" 
			},
			{
				"x": -3.3960244274,
				"y": -0.1239762914,
				"z": 2.4000341847,
				"element": "H" 
			},
			{
				"x": -1.3862380984,
				"y": 1.3121739479,
				"z": 2.8899570437,
				"element": "H" 
			},
			{
				"x": 0.6976265038,
				"y": 0.9661188613,
				"z": 1.5447113664,
				"element": "H" 
			},
			{
				"x": 3.6698781323,
				"y": 1.2012891908,
				"z": 0.3610332434,
				"element": "H" 
			}
		],
		 "valence_orbital": [ 
			{
				"type": "occ",
				"energy": -0.30023,
				"method": "rhf"
			},
			{
				"type": "occ",
				"energy": -0.28357,
				"method": "rhf"
			},
			{
				"type": "occ",
				"energy": -0.26762,
				"method": "rhf"
			},
			{
				"type": "occ",
				"energy": -0.26089,
				"method": "rhf"
			},
			{
				"type": "occ",
				"energy": -0.24964,
				"method": "rhf"
			},
			{
				"type": "unocc",
				"energy": -0.05789,
				"method": "rhf"
			},
			{
				"type": "unocc",
				"energy": -0.04235,
				"method": "rhf"
			},
			{
				"type": "unocc",
				"energy": -0.00971,
				"method": "rhf"
			},
			{
				"type": "unocc",
				"energy": 0.02875,
				"method": "rhf"
			},
			{
				"type": "unocc",
				"energy": 0.07865,
				"method": "rhf"
			}
		],
		"cosmo_sigma_profile": { 
			"-0.025": 0.0,
			"-0.024": 0.0,
			"-0.023": 0.0,
			"-0.022": 0.0,
			"-0.021": 0.0,
			"-0.02": 0.0,
			"-0.019": 0.0,
			"-0.018": 0.0,
			"-0.017": 0.0,
			"-0.016": 0.0,
			"-0.015": 0.159878654807,
			"-0.014": 0.353017266186,
			"-0.013": 0.637650029658,
			"-0.012": 0.758364339942,
			"-0.011": 0.683972962107,
			"-0.01": 0.832730229637,
			"-0.009": 0.665799804198,
			"-0.008": 2.08781010587,
			"-0.007": 9.88050074203,
			"-0.006": 13.377136555,
			"-0.005": 13.3620777011,
			"-0.004": 14.4309957011,
			"-0.003": 16.1761915768,
			"-0.002": 18.5140368509,
			"-0.001": 20.608153674,
			"0.0": 22.1362016563,
			"0.001": 23.9401148902,
			"0.002": 21.5663335935,
			"0.003": 9.66307573596,
			"0.004": 5.95353235355,
			"0.005": 5.81686083803,
			"0.006": 3.53505134153,
			"0.007": 4.31374742127,
			"0.008": 3.32696174712,
			"0.009": 3.35821238001,
			"0.01": 5.58474778763,
			"0.011": 4.9319324796,
			"0.012": 5.17129025835,
			"0.013": 1.26806768256,
			"0.014": 0.0157731101483,
			"0.015": 0.0,
			"0.016": 0.0,
			"0.017": 0.0,
			"0.018": 0.0,
			"0.019": 0.0,
			"0.02": 0.0,
			"0.021": 0.0,
			"0.022": 0.0,
			"0.023": 0.0,
			"0.024": 0.0,
			"0.025": 0.0
		}
	}
}
