{
	 "smiles": "ClC1=C(Cl)[C@]2(Cl)[C@@H]3[C@@H]4C[C@@H]([C@H]5O[C@@H]45)[C@@H]3[C@@]1(Cl)C2(Cl)Cl", 
	 "Tm": 449.15, 
	 "num_atms": 27, 
	 "gaussian": { 
		 "optdone": 1, 
		 "sigma_profile": "yes", 
		 "theory": "DFT", 
		 "functional": "B3LYP", 
		 "basiset": "6-31G**", 
		 "properties": { 
			 "R2extent": 6610.5779, 
			 "electric_dipole_moment_norm": 1.69883810883, 
			 "electric_quadrupole_moment_norm": 14.9522355395, 
			 "total_energy": -3298.3573699, 
			 "HOMO_LUMO_gap": 0.21656, 
			 "cosmo_polarized_energy": -8.21, 
			 "cosmo_cavitation_energy": 36.47, 
			 "cosmo_dispersion_energy": -26.11, 
			 "cosmo_repulsion_energy": 1.96, 
			 "cosmo_total_nonelectrostatic_energy": 12.31, 
			 "SMD_solvation_energy": 3.32 
		},
		"coords": [
			{
				"x": -2.4545934636,
				"y": -0.8757758814,
				"z": -1.9749656567,
				"element": "Cl" 
			},
			{
				"x": -1.2243799426,
				"y": -1.2499014712,
				"z": -0.8426741879,
				"element": "C" 
			},
			{
				"x": -1.3188303914,
				"y": -1.2690215189,
				"z": 0.4952634603,
				"element": "C" 
			},
			{
				"x": -2.6966429995,
				"y": -0.9247006056,
				"z": 1.4536764761,
				"element": "Cl" 
			},
			{
				"x": 0.0797819418,
				"y": -1.5142963593,
				"z": 1.0560793404,
				"element": "C" 
			},
			{
				"x": 0.1432352875,
				"y": -2.1164037706,
				"z": 2.7290098752,
				"element": "Cl" 
			},
			{
				"x": 0.9905868337,
				"y": -0.2698456013,
				"z": 0.7912168585,
				"element": "C" 
			},
			{
				"x": 0.5389581037,
				"y": 1.1810747998,
				"z": 1.1345992342,
				"element": "C" 
			},
			{
				"x": -0.3330417614,
				"y": 1.6118426431,
				"z": -0.0661976168,
				"element": "C" 
			},
			{
				"x": 0.6998122959,
				"y": 1.2138223359,
				"z": -1.1444393875,
				"element": "C" 
			},
			{
				"x": 1.9372224263,
				"y": 1.9878557259,
				"z": -0.6395367878,
				"element": "C" 
			},
			{
				"x": 1.6749581464,
				"y": 3.1895432808,
				"z": 0.0982320899,
				"element": "O" 
			},
			{
				"x": 1.8334262466,
				"y": 1.9667010814,
				"z": 0.8308253152,
				"element": "C" 
			},
			{
				"x": 1.1016934528,
				"y": -0.247221536,
				"z": -0.7826631146,
				"element": "C" 
			},
			{
				"x": 0.2396500237,
				"y": -1.4818716879,
				"z": -1.2081905249,
				"element": "C" 
			},
			{
				"x": 0.5387796171,
				"y": -2.0362377831,
				"z": -2.8720558376,
				"element": "Cl" 
			},
			{
				"x": 0.6053472983,
				"y": -2.4989296136,
				"z": -0.0589110463,
				"element": "C" 
			},
			{
				"x": 2.3559706321,
				"y": -2.886726494,
				"z": 0.0591587768,
				"element": "Cl" 
			},
			{
				"x": -0.2784124747,
				"y": -4.0547541473,
				"z": -0.1436662639,
				"element": "Cl" 
			},
			{
				"x": 1.9539318219,
				"y": -0.4878381865,
				"z": 1.2572061047,
				"element": "H" 
			},
			{
				"x": 0.1186268845,
				"y": 1.3165205663,
				"z": 2.1328964254,
				"element": "H" 
			},
			{
				"x": -1.2905183136,
				"y": 1.1094275123,
				"z": -0.1410397601,
				"element": "H" 
			},
			{
				"x": -0.506314376,
				"y": 2.6875771557,
				"z": -0.0629715292,
				"element": "H" 
			},
			{
				"x": 0.4235775329,
				"y": 1.3785874444,
				"z": -2.1875886059,
				"element": "H" 
			},
			{
				"x": 2.8801803111,
				"y": 1.9543254793,
				"z": -1.1804598173,
				"element": "H" 
			},
			{
				"x": 2.6911199698,
				"y": 1.915786376,
				"z": 1.4976537222,
				"element": "H" 
			},
			{
				"x": 2.1213748968,
				"y": -0.4536397442,
				"z": -1.1148575424,
				"element": "H" 
			}
		],
		 "valence_orbital": [ 
			{
				"type": "occ",
				"energy": -0.31779,
				"method": "rhf"
			},
			{
				"type": "occ",
				"energy": -0.311,
				"method": "rhf"
			},
			{
				"type": "occ",
				"energy": -0.30827,
				"method": "rhf"
			},
			{
				"type": "occ",
				"energy": -0.27866,
				"method": "rhf"
			},
			{
				"type": "occ",
				"energy": -0.26395,
				"method": "rhf"
			},
			{
				"type": "unocc",
				"energy": -0.04739,
				"method": "rhf"
			},
			{
				"type": "unocc",
				"energy": -0.04412,
				"method": "rhf"
			},
			{
				"type": "unocc",
				"energy": -0.00933,
				"method": "rhf"
			},
			{
				"type": "unocc",
				"energy": 0.00388,
				"method": "rhf"
			},
			{
				"type": "unocc",
				"energy": 0.03146,
				"method": "rhf"
			}
		],
		"cosmo_sigma_profile": { 
			"-0.025": 0.0,
			"-0.024": 0.0,
			"-0.023": 0.0,
			"-0.022": 0.0,
			"-0.021": 0.0,
			"-0.02": 0.0,
			"-0.019": 0.0,
			"-0.018": 0.0,
			"-0.017": 0.0,
			"-0.016": 0.0,
			"-0.015": 0.0,
			"-0.014": 0.0,
			"-0.013": 0.0,
			"-0.012": 0.0,
			"-0.011": 0.0,
			"-0.01": 0.0,
			"-0.009": 0.0,
			"-0.008": 1.78912452372,
			"-0.007": 8.85339275354,
			"-0.006": 8.63209840384,
			"-0.005": 13.0909135285,
			"-0.004": 19.4979845988,
			"-0.003": 25.9813062503,
			"-0.002": 24.1597828403,
			"-0.001": 27.7476958963,
			"0.0": 28.3797871345,
			"0.001": 31.0349990847,
			"0.002": 37.4464521491,
			"0.003": 40.1888655515,
			"0.004": 21.18628909,
			"0.005": 1.88161790583,
			"0.006": 1.58873385654,
			"0.007": 1.57545132197,
			"0.008": 1.19217294741,
			"0.009": 2.26731439439,
			"0.01": 2.09868704597,
			"0.011": 3.05127797133,
			"0.012": 0.704146164506,
			"0.013": 0.0,
			"0.014": 0.0,
			"0.015": 0.0,
			"0.016": 0.0,
			"0.017": 0.0,
			"0.018": 0.0,
			"0.019": 0.0,
			"0.02": 0.0,
			"0.021": 0.0,
			"0.022": 0.0,
			"0.023": 0.0,
			"0.024": 0.0,
			"0.025": 0.0
		}
	}
}
