{
	 "smiles": "CS(=O)(=O)N1CCN(CC1)S(Cl)(=O)=O", 
	 "Tm": 496.15, 
	 "num_atms": 25, 
	 "gaussian": { 
		 "optdone": 1, 
		 "sigma_profile": "yes", 
		 "theory": "DFT", 
		 "functional": "B3LYP", 
		 "basiset": "6-31G**", 
		 "properties": { 
			 "R2extent": 4889.0955, 
			 "electric_dipole_moment_norm": 4.69016289163, 
			 "electric_quadrupole_moment_norm": 22.9805625527, 
			 "total_energy": -1863.97683092, 
			 "HOMO_LUMO_gap": 0.18659, 
			 "cosmo_polarized_energy": -19.09, 
			 "cosmo_cavitation_energy": 31.64, 
			 "cosmo_dispersion_energy": -23.91, 
			 "cosmo_repulsion_energy": 1.77, 
			 "cosmo_total_nonelectrostatic_energy": 9.51, 
			 "SMD_solvation_energy": 1.57 
		},
		"coords": [
			{
				"x": -1.4654102437,
				"y": -3.2106820189,
				"z": -2.3512498634,
				"element": "C" 
			},
			{
				"x": -0.3616325829,
				"y": -1.7887914682,
				"z": -2.3909399265,
				"element": "S" 
			},
			{
				"x": 1.0095955859,
				"y": -2.2861448168,
				"z": -2.241198385,
				"element": "O" 
			},
			{
				"x": -0.7514846736,
				"y": -0.9580960896,
				"z": -3.5342858182,
				"element": "O" 
			},
			{
				"x": -0.7757640974,
				"y": -0.9607672508,
				"z": -0.9660130184,
				"element": "N" 
			},
			{
				"x": -1.6786458,
				"y": 0.1965857997,
				"z": -1.1431214223,
				"element": "C" 
			},
			{
				"x": -1.8654096589,
				"y": 0.9101183078,
				"z": 0.191684688,
				"element": "C" 
			},
			{
				"x": -0.5596354383,
				"y": 1.4472295309,
				"z": 0.636643916,
				"element": "N" 
			},
			{
				"x": 0.6380895585,
				"y": 0.6290627263,
				"z": 0.3101714766,
				"element": "C" 
			},
			{
				"x": 0.2474726274,
				"y": -0.8307783618,
				"z": 0.0912775479,
				"element": "C" 
			},
			{
				"x": -0.5594292024,
				"y": 2.2880673082,
				"z": 2.0546394009,
				"element": "S" 
			},
			{
				"x": -0.8089151734,
				"y": 0.7555255915,
				"z": 3.5591691628,
				"element": "Cl" 
			},
			{
				"x": -1.7741936028,
				"y": 3.0818500671,
				"z": 2.1152700994,
				"element": "O" 
			},
			{
				"x": 0.7695808777,
				"y": 2.8274713339,
				"z": 2.2813234968,
				"element": "O" 
			},
			{
				"x": -1.2392264107,
				"y": -3.8034266723,
				"z": -1.4646939705,
				"element": "H" 
			},
			{
				"x": -2.4977588635,
				"y": -2.8589502738,
				"z": -2.3356159276,
				"element": "H" 
			},
			{
				"x": -1.276495579,
				"y": -3.7871012241,
				"z": -3.2588235176,
				"element": "H" 
			},
			{
				"x": -1.2969884475,
				"y": 0.8969131543,
				"z": -1.894244794,
				"element": "H" 
			},
			{
				"x": -2.6586644266,
				"y": -0.1490187474,
				"z": -1.4859759722,
				"element": "H" 
			},
			{
				"x": -2.5571881621,
				"y": 1.7447997806,
				"z": 0.0707042655,
				"element": "H" 
			},
			{
				"x": -2.2808762589,
				"y": 0.2197141236,
				"z": 0.9379830964,
				"element": "H" 
			},
			{
				"x": 1.365481724,
				"y": 0.7124506795,
				"z": 1.1198431627,
				"element": "H" 
			},
			{
				"x": 1.097829387,
				"y": 1.0470678627,
				"z": -0.5913676306,
				"element": "H" 
			},
			{
				"x": 1.1290711097,
				"y": -1.4021879474,
				"z": -0.2027187483,
				"element": "H" 
			},
			{
				"x": -0.1382022485,
				"y": -1.2547113952,
				"z": 1.0257386816,
				"element": "H" 
			}
		],
		 "valence_orbital": [ 
			{
				"type": "occ",
				"energy": -0.32076,
				"method": "rhf"
			},
			{
				"type": "occ",
				"energy": -0.31907,
				"method": "rhf"
			},
			{
				"type": "occ",
				"energy": -0.31623,
				"method": "rhf"
			},
			{
				"type": "occ",
				"energy": -0.29535,
				"method": "rhf"
			},
			{
				"type": "occ",
				"energy": -0.27218,
				"method": "rhf"
			},
			{
				"type": "unocc",
				"energy": -0.08559,
				"method": "rhf"
			},
			{
				"type": "unocc",
				"energy": 0.03572,
				"method": "rhf"
			},
			{
				"type": "unocc",
				"energy": 0.04498,
				"method": "rhf"
			},
			{
				"type": "unocc",
				"energy": 0.05692,
				"method": "rhf"
			},
			{
				"type": "unocc",
				"energy": 0.0625,
				"method": "rhf"
			}
		],
		"cosmo_sigma_profile": { 
			"-0.025": 0.0,
			"-0.024": 0.0,
			"-0.023": 0.0,
			"-0.022": 0.0,
			"-0.021": 0.0,
			"-0.02": 0.0,
			"-0.019": 0.0,
			"-0.018": 0.0,
			"-0.017": 0.0,
			"-0.016": 0.0,
			"-0.015": 0.0,
			"-0.014": 0.0,
			"-0.013": 0.0,
			"-0.012": 0.0,
			"-0.011": 0.0,
			"-0.01": 0.106850094551,
			"-0.009": 3.15993048216,
			"-0.008": 11.4769923718,
			"-0.007": 20.1791416122,
			"-0.006": 22.1762658755,
			"-0.005": 20.3232865834,
			"-0.004": 18.3731186946,
			"-0.003": 15.1167675082,
			"-0.002": 9.10761853892,
			"-0.001": 10.5809552981,
			"0.0": 10.4262987966,
			"0.001": 11.3450656416,
			"0.002": 11.0548186199,
			"0.003": 12.4749828818,
			"0.004": 13.6534675317,
			"0.005": 7.82931556892,
			"0.006": 5.69261275534,
			"0.007": 9.33105022984,
			"0.008": 14.4977075886,
			"0.009": 5.66777384546,
			"0.01": 6.36032346714,
			"0.011": 9.47870029542,
			"0.012": 3.78590338527,
			"0.013": 0.0,
			"0.014": 0.0,
			"0.015": 0.0,
			"0.016": 0.0,
			"0.017": 0.0,
			"0.018": 0.0,
			"0.019": 0.0,
			"0.02": 0.0,
			"0.021": 0.0,
			"0.022": 0.0,
			"0.023": 0.0,
			"0.024": 0.0,
			"0.025": 0.0
		}
	}
}
