{
	 "smiles": "CC1=CC(NC(=O)CCl)=CC(C)=C1", 
	 "Tm": 415.15, 
	 "num_atms": 25, 
	 "gaussian": { 
		 "optdone": 1, 
		 "sigma_profile": "yes", 
		 "theory": "DFT", 
		 "functional": "B3LYP", 
		 "basiset": "6-31G**", 
		 "properties": { 
			 "R2extent": 4342.291, 
			 "electric_dipole_moment_norm": 1.62695329374, 
			 "electric_quadrupole_moment_norm": 5.81790085512, 
			 "total_energy": -978.500077572, 
			 "HOMO_LUMO_gap": 0.20386, 
			 "cosmo_polarized_energy": -9.93, 
			 "cosmo_cavitation_energy": 30.31, 
			 "cosmo_dispersion_energy": -22.2, 
			 "cosmo_repulsion_energy": 1.78, 
			 "cosmo_total_nonelectrostatic_energy": 9.89, 
			 "SMD_solvation_energy": 5.51 
		},
		"coords": [
			{
				"x": -2.1702477792,
				"y": 1.3379599362,
				"z": 2.2102998785,
				"element": "C" 
			},
			{
				"x": -1.1438020297,
				"y": 1.6865097554,
				"z": 1.1568320988,
				"element": "C" 
			},
			{
				"x": -0.2951125203,
				"y": 0.6852322065,
				"z": 0.6617972224,
				"element": "C" 
			},
			{
				"x": 0.6563252536,
				"y": 1.0042943993,
				"z": -0.310305003,
				"element": "C" 
			},
			{
				"x": 1.5495836234,
				"y": 0.0544681466,
				"z": -0.8604253395,
				"element": "N" 
			},
			{
				"x": 1.6600066562,
				"y": -1.2701110388,
				"z": -0.5772155261,
				"element": "C" 
			},
			{
				"x": 0.9900969389,
				"y": -1.9047482071,
				"z": 0.2271778409,
				"element": "O" 
			},
			{
				"x": 2.7318538121,
				"y": -2.0614493209,
				"z": -1.3385805263,
				"element": "C" 
			},
			{
				"x": 3.7464127975,
				"y": -1.152265933,
				"z": -2.5425995947,
				"element": "Cl" 
			},
			{
				"x": 0.7610636487,
				"y": 2.3209191932,
				"z": -0.7886198031,
				"element": "C" 
			},
			{
				"x": -0.0765677096,
				"y": 3.3233723721,
				"z": -0.3052661343,
				"element": "C" 
			},
			{
				"x": 0.0290958702,
				"y": 4.7396743756,
				"z": -0.82128856,
				"element": "C" 
			},
			{
				"x": -1.0274109331,
				"y": 2.9901169777,
				"z": 0.6712911633,
				"element": "C" 
			},
			{
				"x": -2.854884711,
				"y": 0.5597325698,
				"z": 1.8546791475,
				"element": "H" 
			},
			{
				"x": -2.7681277321,
				"y": 2.2093887913,
				"z": 2.4906977191,
				"element": "H" 
			},
			{
				"x": -1.6916742737,
				"y": 0.9521177496,
				"z": 3.1176060316,
				"element": "H" 
			},
			{
				"x": -0.3669594934,
				"y": -0.3315902827,
				"z": 1.0233919313,
				"element": "H" 
			},
			{
				"x": 2.1917943715,
				"y": 0.4086917722,
				"z": -1.5576841445,
				"element": "H" 
			},
			{
				"x": 3.4154267789,
				"y": -2.4958544549,
				"z": -0.6089370835,
				"element": "H" 
			},
			{
				"x": 2.2373163136,
				"y": -2.8668579474,
				"z": -1.8818161751,
				"element": "H" 
			},
			{
				"x": 1.5053972478,
				"y": 2.5600166619,
				"z": -1.5456750291,
				"element": "H" 
			},
			{
				"x": 0.2039376444,
				"y": 5.4483569631,
				"z": -0.0039815623,
				"element": "H" 
			},
			{
				"x": 0.8479461388,
				"y": 4.8468937947,
				"z": -1.5380162152,
				"element": "H" 
			},
			{
				"x": -0.8954711347,
				"y": 5.049562672,
				"z": -1.3221339767,
				"element": "H" 
			},
			{
				"x": -1.6867987788,
				"y": 3.7642688477,
				"z": 1.0574716403,
				"element": "H" 
			}
		],
		 "valence_orbital": [ 
			{
				"type": "occ",
				"energy": -0.31662,
				"method": "rhf"
			},
			{
				"type": "occ",
				"energy": -0.29874,
				"method": "rhf"
			},
			{
				"type": "occ",
				"energy": -0.26308,
				"method": "rhf"
			},
			{
				"type": "occ",
				"energy": -0.23748,
				"method": "rhf"
			},
			{
				"type": "occ",
				"energy": -0.22116,
				"method": "rhf"
			},
			{
				"type": "unocc",
				"energy": -0.0173,
				"method": "rhf"
			},
			{
				"type": "unocc",
				"energy": 0.0012,
				"method": "rhf"
			},
			{
				"type": "unocc",
				"energy": 0.00906,
				"method": "rhf"
			},
			{
				"type": "unocc",
				"energy": 0.03982,
				"method": "rhf"
			},
			{
				"type": "unocc",
				"energy": 0.08836,
				"method": "rhf"
			}
		],
		"cosmo_sigma_profile": { 
			"-0.025": 0.0,
			"-0.024": 0.0,
			"-0.023": 0.0,
			"-0.022": 0.0,
			"-0.021": 0.0,
			"-0.02": 0.0,
			"-0.019": 0.0,
			"-0.018": 0.0,
			"-0.017": 0.0,
			"-0.016": 0.0,
			"-0.015": 0.0,
			"-0.014": 0.0,
			"-0.013": 0.0982635419957,
			"-0.012": 0.884389161664,
			"-0.011": 1.41109060443,
			"-0.01": 1.13952478087,
			"-0.009": 4.35639208464,
			"-0.008": 5.73609773024,
			"-0.007": 5.3988043671,
			"-0.006": 6.04995883426,
			"-0.005": 9.64546389346,
			"-0.004": 19.2948199732,
			"-0.003": 18.1554668356,
			"-0.002": 22.67662494,
			"-0.001": 21.6912418069,
			"0.0": 24.2983874482,
			"0.001": 18.6727253717,
			"0.002": 12.3254303232,
			"0.003": 14.6580199221,
			"0.004": 14.7469557272,
			"0.005": 16.6139713062,
			"0.006": 10.3224185642,
			"0.007": 1.69953043064,
			"0.008": 1.58569456207,
			"0.009": 1.37885702898,
			"0.01": 1.60755047491,
			"0.011": 2.32005264838,
			"0.012": 3.34886755686,
			"0.013": 2.13787934163,
			"0.014": 0.179786471278,
			"0.015": 0.0,
			"0.016": 0.0,
			"0.017": 0.0,
			"0.018": 0.0,
			"0.019": 0.0,
			"0.02": 0.0,
			"0.021": 0.0,
			"0.022": 0.0,
			"0.023": 0.0,
			"0.024": 0.0,
			"0.0": 0.0
		}
	}
}
