{
	 "smiles": "CC1=C(C)C(C#N)=C(N)S1", 
	 "Tm": 408.15, 
	 "num_atms": 18, 
	 "gaussian": { 
		 "optdone": 1, 
		 "sigma_profile": "yes", 
		 "theory": "DFT", 
		 "functional": "B3LYP", 
		 "basiset": "6-31G**", 
		 "properties": { 
			 "R2extent": 1995.7789, 
			 "electric_dipole_moment_norm": 3.93110373941, 
			 "electric_quadrupole_moment_norm": 16.2293423598, 
			 "total_energy": -779.240676599, 
			 "HOMO_LUMO_gap": 0.18468, 
			 "cosmo_polarized_energy": -12.34, 
			 "cosmo_cavitation_energy": 24.08, 
			 "cosmo_dispersion_energy": -17.53, 
			 "cosmo_repulsion_energy": 1.39, 
			 "cosmo_total_nonelectrostatic_energy": 7.94, 
			 "SMD_solvation_energy": 5.08 
		},
		"coords": [
			{
				"x": -0.2179348181,
				"y": -2.8682154046,
				"z": 0.9094716423,
				"element": "C" 
			},
			{
				"x": -0.0248460226,
				"y": -1.6504481673,
				"z": 0.048542404,
				"element": "C" 
			},
			{
				"x": 1.1275631863,
				"y": -1.1001639041,
				"z": -0.4288313935,
				"element": "C" 
			},
			{
				"x": 2.5110118495,
				"y": -1.6286742325,
				"z": -0.1712389896,
				"element": "C" 
			},
			{
				"x": 0.8877068639,
				"y": 0.0729519134,
				"z": -1.2468285037,
				"element": "C" 
			},
			{
				"x": 1.8924881454,
				"y": 0.8337617951,
				"z": -1.8987191089,
				"element": "C" 
			},
			{
				"x": 2.6852718123,
				"y": 1.4822220789,
				"z": -2.4576084639,
				"element": "N" 
			},
			{
				"x": -0.4540800336,
				"y": 0.3982527253,
				"z": -1.3704124265,
				"element": "C" 
			},
			{
				"x": -1.0000755431,
				"y": 1.4866827299,
				"z": -2.0109535545,
				"element": "N" 
			},
			{
				"x": -1.4388325429,
				"y": -0.7272097474,
				"z": -0.4773872897,
				"element": "S" 
			},
			{
				"x": 0.1811685297,
				"y": -3.7688608706,
				"z": 0.4292152221,
				"element": "H" 
			},
			{
				"x": 0.2807447763,
				"y": -2.7583308188,
				"z": 1.8791727663,
				"element": "H" 
			},
			{
				"x": -1.2771179478,
				"y": -3.0508046701,
				"z": 1.1100383631,
				"element": "H" 
			},
			{
				"x": 2.487901231,
				"y": -2.5232001145,
				"z": 0.4548068509,
				"element": "H" 
			},
			{
				"x": 3.0176365012,
				"y": -1.8841400924,
				"z": -1.1089964804,
				"element": "H" 
			},
			{
				"x": 3.1321939418,
				"y": -0.8789567327,
				"z": 0.3320938,
				"element": "H" 
			},
			{
				"x": -0.3606792436,
				"y": 1.9804277004,
				"z": -2.6215498345,
				"element": "H" 
			},
			{
				"x": -1.9223206856,
				"y": 1.3704058121,
				"z": -2.4066150036,
				"element": "H" 
			}
		],
		 "valence_orbital": [ 
			{
				"type": "occ",
				"energy": -0.34266,
				"method": "rhf"
			},
			{
				"type": "occ",
				"energy": -0.32187,
				"method": "rhf"
			},
			{
				"type": "occ",
				"energy": -0.31294,
				"method": "rhf"
			},
			{
				"type": "occ",
				"energy": -0.24977,
				"method": "rhf"
			},
			{
				"type": "occ",
				"energy": -0.20383,
				"method": "rhf"
			},
			{
				"type": "unocc",
				"energy": -0.01915,
				"method": "rhf"
			},
			{
				"type": "unocc",
				"energy": -0.00445,
				"method": "rhf"
			},
			{
				"type": "unocc",
				"energy": 0.01749,
				"method": "rhf"
			},
			{
				"type": "unocc",
				"energy": 0.04785,
				"method": "rhf"
			},
			{
				"type": "unocc",
				"energy": 0.06585,
				"method": "rhf"
			}
		],
		"cosmo_sigma_profile": { 
			"-0.025": 0.0,
			"-0.024": 0.0,
			"-0.023": 0.0,
			"-0.022": 0.0,
			"-0.021": 0.0,
			"-0.02": 0.0,
			"-0.019": 0.0,
			"-0.018": 0.0,
			"-0.017": 0.0,
			"-0.016": 0.0,
			"-0.015": 0.610202818826,
			"-0.014": 1.91781667949,
			"-0.013": 2.18977434812,
			"-0.012": 3.13666241376,
			"-0.011": 2.65677271173,
			"-0.01": 1.91761165948,
			"-0.009": 1.91816333057,
			"-0.008": 2.15729553768,
			"-0.007": 2.18184938963,
			"-0.006": 2.84146648949,
			"-0.005": 7.56060961377,
			"-0.004": 15.6518984459,
			"-0.003": 15.74874338,
			"-0.002": 16.3534635155,
			"-0.001": 18.7691428163,
			"0.0": 17.3008910524,
			"0.001": 11.8041399685,
			"0.002": 13.0159620812,
			"0.003": 13.4262489622,
			"0.004": 10.73628448,
			"0.005": 5.60358448153,
			"0.006": 1.88188583457,
			"0.007": 3.46844587165,
			"0.008": 3.13946836682,
			"0.009": 3.2422495783,
			"0.01": 4.36926279374,
			"0.011": 3.49184710241,
			"0.012": 3.1485855949,
			"0.013": 2.32455187608,
			"0.014": 1.43512758972,
			"0.015": 0.0112586388042,
			"0.016": 0.0,
			"0.017": 0.0,
			"0.018": 0.0,
			"0.019": 0.0,
			"0.02": 0.0,
			"0.021": 0.0,
			"0.022": 0.0,
			"0.023": 0.0,
			"0.024": 0.0,
			"0.025": 0.0
		}
	}
}
