{
	 "smiles": "COC1=C(OC)C=C(C(C2=CC=C(C)O2)C2=CC=C(C)O2)C(N)=C1", 
	 "Tm": 352.15, 
	 "num_atms": 45, 
	 "gaussian": { 
		 "optdone": 1, 
		 "sigma_profile": "yes", 
		 "theory": "DFT", 
		 "functional": "B3LYP", 
		 "basiset": "6-31G**", 
		 "properties": { 
			 "R2extent": 8964.3409, 
			 "electric_dipole_moment_norm": 2.05947066986, 
			 "electric_quadrupole_moment_norm": 14.0197374943, 
			 "total_energy": -1092.26369472, 
			 "HOMO_LUMO_gap": 0.18706, 
			 "cosmo_polarized_energy": -15.84, 
			 "cosmo_cavitation_energy": 48.56, 
			 "cosmo_dispersion_energy": -31.69, 
			 "cosmo_repulsion_energy": 2.51, 
			 "cosmo_total_nonelectrostatic_energy": 19.38, 
			 "SMD_solvation_energy": 10.47 
		},
		"coords": [
			{
				"x": 1.5972762165,
				"y": 0.0461579321,
				"z": 4.217642474,
				"element": "C" 
			},
			{
				"x": 0.4564203274,
				"y": -0.5424478656,
				"z": 3.5910234632,
				"element": "O" 
			},
			{
				"x": 0.1667832511,
				"y": -0.0883938031,
				"z": 2.325890877,
				"element": "C" 
			},
			{
				"x": 1.0138168395,
				"y": -0.3381234521,
				"z": 1.2270232037,
				"element": "C" 
			},
			{
				"x": 2.1707939552,
				"y": -1.0302342813,
				"z": 1.4900817099,
				"element": "O" 
			},
			{
				"x": 3.0230137422,
				"y": -1.3299094243,
				"z": 0.3996443203,
				"element": "C" 
			},
			{
				"x": 0.6299706581,
				"y": 0.1142907807,
				"z": -0.0355776117,
				"element": "C" 
			},
			{
				"x": -0.5764065819,
				"y": 0.7954222617,
				"z": -0.2389137563,
				"element": "C" 
			},
			{
				"x": -0.9805291054,
				"y": 1.3388576494,
				"z": -1.6144996928,
				"element": "C" 
			},
			{
				"x": 0.1585640749,
				"y": 1.5944717081,
				"z": -2.562610035,
				"element": "C" 
			},
			{
				"x": 0.7643466712,
				"y": 2.7440897191,
				"z": -2.9732864285,
				"element": "C" 
			},
			{
				"x": 1.7812132886,
				"y": 2.361658623,
				"z": -3.9102354972,
				"element": "C" 
			},
			{
				"x": 1.727105607,
				"y": 1.0036479432,
				"z": -4.0135221589,
				"element": "C" 
			},
			{
				"x": 2.4850609671,
				"y": -0.0013497123,
				"z": -4.8079297524,
				"element": "C" 
			},
			{
				"x": 0.7386927242,
				"y": 0.5216673292,
				"z": -3.1927602416,
				"element": "O" 
			},
			{
				"x": -2.0759710876,
				"y": 0.5192610461,
				"z": -2.2513578373,
				"element": "C" 
			},
			{
				"x": -3.2942497443,
				"y": 0.8480737751,
				"z": -2.7746944397,
				"element": "C" 
			},
			{
				"x": -3.878553445,
				"y": -0.3739430763,
				"z": -3.2491666276,
				"element": "C" 
			},
			{
				"x": -2.9794688108,
				"y": -1.3637424003,
				"z": -2.9817209424,
				"element": "C" 
			},
			{
				"x": -2.9693290922,
				"y": -2.8349130699,
				"z": -3.2070899969,
				"element": "C" 
			},
			{
				"x": -1.8769280219,
				"y": -0.8288073501,
				"z": -2.3698218524,
				"element": "O" 
			},
			{
				"x": -1.4404111885,
				"y": 1.0071843187,
				"z": 0.8525063922,
				"element": "C" 
			},
			{
				"x": -2.6492189771,
				"y": 1.7135422822,
				"z": 0.682145697,
				"element": "N" 
			},
			{
				"x": -1.0420877848,
				"y": 0.5680863292,
				"z": 2.1236340265,
				"element": "C" 
			},
			{
				"x": 1.6519158675,
				"y": -0.3881765239,
				"z": 5.2185039175,
				"element": "H" 
			},
			{
				"x": 1.4788579956,
				"y": 1.1346066237,
				"z": 4.3043030025,
				"element": "H" 
			},
			{
				"x": 2.5175540002,
				"y": -0.1775876939,
				"z": 3.6706763941,
				"element": "H" 
			},
			{
				"x": 2.5144004434,
				"y": -1.9438409409,
				"z": -0.3553931736,
				"element": "H" 
			},
			{
				"x": 3.8599279225,
				"y": -1.8937441979,
				"z": 0.8159276635,
				"element": "H" 
			},
			{
				"x": 3.4058335659,
				"y": -0.4203639268,
				"z": -0.0827658398,
				"element": "H" 
			},
			{
				"x": 1.2682471844,
				"y": -0.0655843581,
				"z": -0.8902433785,
				"element": "H" 
			},
			{
				"x": -1.4278228875,
				"y": 2.32505258,
				"z": -1.436451835,
				"element": "H" 
			},
			{
				"x": 0.516306913,
				"y": 3.744353495,
				"z": -2.6472623449,
				"element": "H" 
			},
			{
				"x": 2.4594754567,
				"y": 3.0134822226,
				"z": -4.4427175774,
				"element": "H" 
			},
			{
				"x": 1.8245690868,
				"y": -0.5683743289,
				"z": -5.4742892453,
				"element": "H" 
			},
			{
				"x": 2.9977565781,
				"y": -0.7251143846,
				"z": -4.1632678112,
				"element": "H" 
			},
			{
				"x": 3.2371969675,
				"y": 0.5020240341,
				"z": -5.4199709935,
				"element": "H" 
			},
			{
				"x": -3.713818429,
				"y": 1.8430450206,
				"z": -2.8337771955,
				"element": "H" 
			},
			{
				"x": -4.8411757768,
				"y": -0.4986740746,
				"z": -3.7246411694,
				"element": "H" 
			},
			{
				"x": -2.8789017541,
				"y": -3.3847889256,
				"z": -2.2631783448,
				"element": "H" 
			},
			{
				"x": -2.1297925332,
				"y": -3.1371612821,
				"z": -3.843770555,
				"element": "H" 
			},
			{
				"x": -3.8972156834,
				"y": -3.1419363137,
				"z": -3.6953240944,
				"element": "H" 
			},
			{
				"x": -3.1796012255,
				"y": 1.4103080483,
				"z": -0.1284725547,
				"element": "H" 
			},
			{
				"x": -3.2358165008,
				"y": 1.6844830108,
				"z": 1.5069546598,
				"element": "H" 
			},
			{
				"x": -1.6819016749,
				"y": 0.7229446535,
				"z": 2.9881551825,
				"element": "H" 
			}
		],
		 "valence_orbital": [ 
			{
				"type": "occ",
				"energy": -0.25994,
				"method": "rhf"
			},
			{
				"type": "occ",
				"energy": -0.22332,
				"method": "rhf"
			},
			{
				"type": "occ",
				"energy": -0.21579,
				"method": "rhf"
			},
			{
				"type": "occ",
				"energy": -0.20212,
				"method": "rhf"
			},
			{
				"type": "occ",
				"energy": -0.17958,
				"method": "rhf"
			},
			{
				"type": "unocc",
				"energy": 0.00748,
				"method": "rhf"
			},
			{
				"type": "unocc",
				"energy": 0.01463,
				"method": "rhf"
			},
			{
				"type": "unocc",
				"energy": 0.02991,
				"method": "rhf"
			},
			{
				"type": "unocc",
				"energy": 0.03823,
				"method": "rhf"
			},
			{
				"type": "unocc",
				"energy": 0.0733,
				"method": "rhf"
			}
		],
		"cosmo_sigma_profile": { 
			"-0.025": 0.0,
			"-0.024": 0.0,
			"-0.023": 0.0,
			"-0.022": 0.0,
			"-0.021": 0.0,
			"-0.02": 0.0,
			"-0.019": 0.0,
			"-0.018": 0.0,
			"-0.017": 0.0,
			"-0.016": 0.0,
			"-0.015": 0.0,
			"-0.014": 0.0,
			"-0.013": 0.0,
			"-0.012": 0.752788894575,
			"-0.011": 1.36506018149,
			"-0.01": 1.7396238462,
			"-0.009": 2.21156186033,
			"-0.008": 2.11362061384,
			"-0.007": 4.18500899349,
			"-0.006": 13.8876874535,
			"-0.005": 32.0215256268,
			"-0.004": 38.2552630195,
			"-0.003": 39.0060072455,
			"-0.002": 36.5707187476,
			"-0.001": 32.7035386348,
			"0.0": 24.4692067965,
			"0.001": 19.5328434454,
			"0.002": 19.1813108921,
			"0.003": 19.3687531948,
			"0.004": 24.4653451957,
			"0.005": 24.0218490671,
			"0.006": 18.4168494093,
			"0.007": 7.80028739253,
			"0.008": 5.69138212028,
			"0.009": 5.73472278585,
			"0.01": 3.62080294418,
			"0.011": 3.95565427296,
			"0.012": 2.1797428033,
			"0.013": 0.531658802769,
			"0.014": 0.853952466087,
			"0.015": 0.349238627842,
			"0.016": 0.0514699646157,
			"0.017": 0.0,
			"0.018": 0.0,
			"0.019": 0.0,
			"0.02": 0.0,
			"0.021": 0.0,
			"0.022": 0.0,
			"0.023": 0.0,
			"0.024": 0.0,
			"0.025": 0.0
		}
	}
}
