{
	 "smiles": "CNC(=O)OC1=CC(C)=C(C=C1)N(C)C", 
	 "Tm": 367.05, 
	 "num_atms": 31, 
	 "gaussian": { 
		 "optdone": 1, 
		 "sigma_profile": "yes", 
		 "theory": "DFT", 
		 "functional": "B3LYP", 
		 "basiset": "6-31G**", 
		 "properties": { 
			 "R2extent": 4584.8193, 
			 "electric_dipole_moment_norm": 2.55686861806, 
			 "electric_quadrupole_moment_norm": 18.5862224379, 
			 "total_energy": -688.774944237, 
			 "HOMO_LUMO_gap": 0.20193, 
			 "cosmo_polarized_energy": -12.0, 
			 "cosmo_cavitation_energy": 33.76, 
			 "cosmo_dispersion_energy": -24.05, 
			 "cosmo_repulsion_energy": 1.91, 
			 "cosmo_total_nonelectrostatic_energy": 11.62, 
			 "SMD_solvation_energy": 6.4 
		},
		"coords": [
			{
				"x": 1.3890422829,
				"y": -4.0489865665,
				"z": 1.4497100161,
				"element": "C" 
			},
			{
				"x": 0.0109233556,
				"y": -3.5870492355,
				"z": 1.4033425048,
				"element": "N" 
			},
			{
				"x": -0.4053794306,
				"y": -2.343237347,
				"z": 1.02925928,
				"element": "C" 
			},
			{
				"x": -1.5466370939,
				"y": -1.9385591803,
				"z": 1.1230445477,
				"element": "O" 
			},
			{
				"x": 0.6547709834,
				"y": -1.6339946791,
				"z": 0.5193565683,
				"element": "O" 
			},
			{
				"x": 0.4674675932,
				"y": -0.3422380127,
				"z": 0.0262788153,
				"element": "C" 
			},
			{
				"x": -0.5746347586,
				"y": -0.0018294176,
				"z": -0.8342708104,
				"element": "C" 
			},
			{
				"x": -0.6759711244,
				"y": 1.2916510361,
				"z": -1.3553271965,
				"element": "C" 
			},
			{
				"x": -1.8572068303,
				"y": 1.647325736,
				"z": -2.2254919382,
				"element": "C" 
			},
			{
				"x": 0.3122131263,
				"y": 2.2508037178,
				"z": -1.0237086119,
				"element": "C" 
			},
			{
				"x": 1.3502276003,
				"y": 1.8828479924,
				"z": -0.1545789648,
				"element": "C" 
			},
			{
				"x": 1.4292416303,
				"y": 0.5976064957,
				"z": 0.3779276719,
				"element": "C" 
			},
			{
				"x": 0.2055697261,
				"y": 3.5743397019,
				"z": -1.550009227,
				"element": "N" 
			},
			{
				"x": 0.5636837992,
				"y": 3.7039956315,
				"z": -2.9621567658,
				"element": "C" 
			},
			{
				"x": 0.7921428198,
				"y": 4.6398186875,
				"z": -0.7503910812,
				"element": "C" 
			},
			{
				"x": 1.8952311576,
				"y": -3.8195195589,
				"z": 0.5104159618,
				"element": "H" 
			},
			{
				"x": 1.9605739479,
				"y": -3.5945196276,
				"z": 2.269043568,
				"element": "H" 
			},
			{
				"x": 1.3870145296,
				"y": -5.1328451697,
				"z": 1.586138397,
				"element": "H" 
			},
			{
				"x": -0.702195049,
				"y": -4.115900544,
				"z": 1.8809715023,
				"element": "H" 
			},
			{
				"x": -1.3379456245,
				"y": -0.7344857243,
				"z": -1.0649476815,
				"element": "H" 
			},
			{
				"x": -2.7161473495,
				"y": 1.0141551598,
				"z": -1.9869724561,
				"element": "H" 
			},
			{
				"x": -1.6429702684,
				"y": 1.5108414342,
				"z": -3.2936253403,
				"element": "H" 
			},
			{
				"x": -2.1352460154,
				"y": 2.6949757041,
				"z": -2.0820531632,
				"element": "H" 
			},
			{
				"x": 2.1127245596,
				"y": 2.6066505852,
				"z": 0.1120028544,
				"element": "H" 
			},
			{
				"x": 2.2323177218,
				"y": 0.3160194224,
				"z": 1.0511388634,
				"element": "H" 
			},
			{
				"x": 0.0718162021,
				"y": 2.9323466908,
				"z": -3.5561243414,
				"element": "H" 
			},
			{
				"x": 0.2347623129,
				"y": 4.6804693587,
				"z": -3.3344828714,
				"element": "H" 
			},
			{
				"x": 1.6522272812,
				"y": 3.6210702917,
				"z": -3.1313798746,
				"element": "H" 
			},
			{
				"x": 1.8965696954,
				"y": 4.6732892203,
				"z": -0.7858501565,
				"element": "H" 
			},
			{
				"x": 0.4836763446,
				"y": 4.5355199388,
				"z": 0.2927555437,
				"element": "H" 
			},
			{
				"x": 0.4258368749,
				"y": 5.6028382583,
				"z": -1.1224156141,
				"element": "H" 
			}
		],
		 "valence_orbital": [ 
			{
				"type": "occ",
				"energy": -0.26853,
				"method": "rhf"
			},
			{
				"type": "occ",
				"energy": -0.2534,
				"method": "rhf"
			},
			{
				"type": "occ",
				"energy": -0.2467,
				"method": "rhf"
			},
			{
				"type": "occ",
				"energy": -0.23593,
				"method": "rhf"
			},
			{
				"type": "occ",
				"energy": -0.19589,
				"method": "rhf"
			},
			{
				"type": "unocc",
				"energy": 0.00604,
				"method": "rhf"
			},
			{
				"type": "unocc",
				"energy": 0.01135,
				"method": "rhf"
			},
			{
				"type": "unocc",
				"energy": 0.05875,
				"method": "rhf"
			},
			{
				"type": "unocc",
				"energy": 0.08252,
				"method": "rhf"
			},
			{
				"type": "unocc",
				"energy": 0.0925,
				"method": "rhf"
			}
		],
		"cosmo_sigma_profile": { 
			"-0.025": 0.0,
			"-0.024": 0.0,
			"-0.023": 0.0,
			"-0.022": 0.0,
			"-0.021": 0.0,
			"-0.02": 0.0,
			"-0.019": 0.0,
			"-0.018": 0.0,
			"-0.017": 0.0,
			"-0.016": 0.0,
			"-0.015": 0.121905038437,
			"-0.014": 1.08557960527,
			"-0.013": 1.16893789785,
			"-0.012": 1.20109596908,
			"-0.011": 1.16915927853,
			"-0.01": 0.550836861333,
			"-0.009": 1.07248513103,
			"-0.008": 1.02508588311,
			"-0.007": 1.60873926478,
			"-0.006": 4.67920756266,
			"-0.005": 11.5178122964,
			"-0.004": 24.6649979794,
			"-0.003": 26.994850476,
			"-0.002": 33.9703476672,
			"-0.001": 33.0246750024,
			"0.0": 27.5697078181,
			"0.001": 16.1592629745,
			"0.002": 11.5497526815,
			"0.003": 11.4902735904,
			"0.004": 13.1442516938,
			"0.005": 14.5044950373,
			"0.006": 6.49282882743,
			"0.007": 2.23375373912,
			"0.008": 2.72313052995,
			"0.009": 1.97701368747,
			"0.01": 2.37737801931,
			"0.011": 1.82581434322,
			"0.012": 2.83545550785,
			"0.013": 5.44364261691,
			"0.014": 1.36323630756,
			"0.015": 0.0,
			"0.016": 0.0,
			"0.017": 0.0,
			"0.018": 0.0,
			"0.019": 0.0,
			"0.02": 0.0,
			"0.021": 0.0,
			"0.022": 0.0,
			"0.023": 0.0,
			"0.024": 0.0,
			"0.025": 0.0
		}
	}
}
