{
	 "smiles": "C1CCCCCCC1", 
	 "Tm": 286.65, 
	 "num_atms": 24, 
	 "gaussian": { 
		 "optdone": 1, 
		 "sigma_profile": "yes", 
		 "theory": "DFT", 
		 "functional": "B3LYP", 
		 "basiset": "6-31G**", 
		 "properties": { 
			 "R2extent": 1894.6759, 
			 "electric_dipole_moment_norm": 0.000640312423743, 
			 "electric_quadrupole_moment_norm": 0.254492160979, 
			 "total_energy": -314.502206908, 
			 "HOMO_LUMO_gap": 0.35701, 
			 "cosmo_polarized_energy": -0.47, 
			 "cosmo_cavitation_energy": 22.19, 
			 "cosmo_dispersion_energy": -17.36, 
			 "cosmo_repulsion_energy": 1.45, 
			 "cosmo_total_nonelectrostatic_energy": 6.28, 
			 "SMD_solvation_energy": 2.59 
		},
		"coords": [
			{
				"x": 0.7856776859,
				"y": 0.6128473482,
				"z": 1.588031604,
				"element": "C" 
			},
			{
				"x": 2.0738598193,
				"y": 1.4182350396,
				"z": 1.3137299094,
				"element": "C" 
			},
			{
				"x": 3.1570980171,
				"y": 0.8159011235,
				"z": 0.3932250058,
				"element": "C" 
			},
			{
				"x": 3.6695875498,
				"y": -0.6114296248,
				"z": 0.6823098929,
				"element": "C" 
			},
			{
				"x": 2.6502302312,
				"y": -1.7593563977,
				"z": 0.8467272311,
				"element": "C" 
			},
			{
				"x": 1.5787146504,
				"y": -1.9659229174,
				"z": -0.2454701842,
				"element": "C" 
			},
			{
				"x": 0.711795102,
				"y": -0.7675003117,
				"z": -0.6881897914,
				"element": "C" 
			},
			{
				"x": -0.0173881221,
				"y": 0.0626819166,
				"z": 0.389932486,
				"element": "C" 
			},
			{
				"x": 0.1101987333,
				"y": 1.2707264604,
				"z": 2.1517195409,
				"element": "H" 
			},
			{
				"x": 1.0128072441,
				"y": -0.2059443672,
				"z": 2.2755940286,
				"element": "H" 
			},
			{
				"x": 1.7966695486,
				"y": 2.3929432954,
				"z": 0.8883183283,
				"element": "H" 
			},
			{
				"x": 2.5258422915,
				"y": 1.6429229573,
				"z": 2.2899786098,
				"element": "H" 
			},
			{
				"x": 2.8203033139,
				"y": 0.8739874341,
				"z": -0.6450418618,
				"element": "H" 
			},
			{
				"x": 4.0271534481,
				"y": 1.4848354056,
				"z": 0.4416620386,
				"element": "H" 
			},
			{
				"x": 4.2782132845,
				"y": -0.5890732203,
				"z": 1.597146696,
				"element": "H" 
			},
			{
				"x": 4.3665390744,
				"y": -0.8719725084,
				"z": -0.1265208226,
				"element": "H" 
			},
			{
				"x": 3.2260975668,
				"y": -2.6926317559,
				"z": 0.9113324505,
				"element": "H" 
			},
			{
				"x": 2.1597459624,
				"y": -1.6685631829,
				"z": 1.8193106082,
				"element": "H" 
			},
			{
				"x": 2.0666444908,
				"y": -2.3597131576,
				"z": -1.1480742314,
				"element": "H" 
			},
			{
				"x": 0.916182011,
				"y": -2.7703471134,
				"z": 0.1035091238,
				"element": "H" 
			},
			{
				"x": 1.3121335349,
				"y": -0.0999024113,
				"z": -1.311599785,
				"element": "H" 
			},
			{
				"x": -0.0586483578,
				"y": -1.1620354494,
				"z": -1.364630111,
				"element": "H" 
			},
			{
				"x": -0.8385664987,
				"y": -0.5395267158,
				"z": 0.8032789289,
				"element": "H" 
			},
			{
				"x": -0.5019905815,
				"y": 0.9035381529,
				"z": -0.1257796953,
				"element": "H" 
			}
		],
		 "valence_orbital": [ 
			{
				"type": "occ",
				"energy": -0.33447,
				"method": "rhf"
			},
			{
				"type": "occ",
				"energy": -0.31591,
				"method": "rhf"
			},
			{
				"type": "occ",
				"energy": -0.2939,
				"method": "rhf"
			},
			{
				"type": "occ",
				"energy": -0.2842,
				"method": "rhf"
			},
			{
				"type": "occ",
				"energy": -0.28419,
				"method": "rhf"
			},
			{
				"type": "unocc",
				"energy": 0.07282,
				"method": "rhf"
			},
			{
				"type": "unocc",
				"energy": 0.10861,
				"method": "rhf"
			},
			{
				"type": "unocc",
				"energy": 0.12331,
				"method": "rhf"
			},
			{
				"type": "unocc",
				"energy": 0.12331,
				"method": "rhf"
			},
			{
				"type": "unocc",
				"energy": 0.12434,
				"method": "rhf"
			}
		],
		"cosmo_sigma_profile": { 
			"-0.025": 0.0,
			"-0.024": 0.0,
			"-0.023": 0.0,
			"-0.022": 0.0,
			"-0.021": 0.0,
			"-0.02": 0.0,
			"-0.019": 0.0,
			"-0.018": 0.0,
			"-0.017": 0.0,
			"-0.016": 0.0,
			"-0.015": 0.0,
			"-0.014": 0.0,
			"-0.013": 0.0,
			"-0.012": 0.0,
			"-0.011": 0.0,
			"-0.01": 0.0,
			"-0.009": 0.0,
			"-0.008": 0.0,
			"-0.007": 0.0,
			"-0.006": 0.0,
			"-0.005": 0.0,
			"-0.004": 0.118595636192,
			"-0.003": 2.72390432476,
			"-0.002": 16.4634551235,
			"-0.001": 35.3573377084,
			"0.0": 53.4395308371,
			"0.001": 44.7899184139,
			"0.002": 16.3223721725,
			"0.003": 0.0697579596061,
			"0.004": 0.0,
			"0.005": 0.0,
			"0.006": 0.0,
			"0.007": 0.0,
			"0.008": 0.0,
			"0.009": 0.0,
			"0.01": 0.0,
			"0.011": 0.0,
			"0.012": 0.0,
			"0.013": 0.0,
			"0.014": 0.0,
			"0.015": 0.0,
			"0.016": 0.0,
			"0.017": 0.0,
			"0.018": 0.0,
			"0.019": 0.0,
			"0.02": 0.0,
			"0.021": 0.0,
			"0.022": 0.0,
			"0.023": 0.0,
			"0.024": 0.0,
			"0.025": 0.0
		}
	}
}
