{
	 "smiles": "NC1=C(C=CC(Cl)=C1)C(=O)NC1=NC=C(Cl)C=C1", 
	 "Tm": 431.15, 
	 "num_atms": 27, 
	 "gaussian": { 
		 "optdone": 1, 
		 "sigma_profile": "yes", 
		 "theory": "DFT", 
		 "functional": "B3LYP", 
		 "basiset": "6-31G**", 
		 "properties": { 
			 "R2extent": 7620.0086, 
			 "electric_dipole_moment_norm": 2.56778466582, 
			 "electric_quadrupole_moment_norm": 11.6909541809, 
			 "total_energy": -1622.58457816, 
			 "HOMO_LUMO_gap": 0.15399, 
			 "cosmo_polarized_energy": -14.62, 
			 "cosmo_cavitation_energy": 35.54, 
			 "cosmo_dispersion_energy": -25.99, 
			 "cosmo_repulsion_energy": 2.03, 
			 "cosmo_total_nonelectrostatic_energy": 11.58, 
			 "SMD_solvation_energy": 5.02 
		},
		"coords": [
			{
				"x": 2.6426734791,
				"y": -2.2379457578,
				"z": 2.6840334057,
				"element": "N" 
			},
			{
				"x": 2.1308750681,
				"y": -2.4572023589,
				"z": 1.4362751344,
				"element": "C" 
			},
			{
				"x": 1.6301075244,
				"y": -1.3927088845,
				"z": 0.626075965,
				"element": "C" 
			},
			{
				"x": 1.1414944791,
				"y": -1.6912807501,
				"z": -0.6579940781,
				"element": "C" 
			},
			{
				"x": 1.0933053453,
				"y": -2.982889669,
				"z": -1.155538494,
				"element": "C" 
			},
			{
				"x": 1.5431807552,
				"y": -4.0170716451,
				"z": -0.3252996861,
				"element": "C" 
			},
			{
				"x": 1.4813117147,
				"y": -5.6712292896,
				"z": -0.9155546027,
				"element": "Cl" 
			},
			{
				"x": 2.0515087609,
				"y": -3.7777495412,
				"z": 0.938247359,
				"element": "C" 
			},
			{
				"x": 1.7195242662,
				"y": -0.0022892949,
				"z": 1.1072962249,
				"element": "C" 
			},
			{
				"x": 2.5140059148,
				"y": 0.3604682504,
				"z": 1.9805806973,
				"element": "O" 
			},
			{
				"x": 0.960977824,
				"y": 1.0097974273,
				"z": 0.4917301682,
				"element": "N" 
			},
			{
				"x": -0.394114052,
				"y": 1.0341180564,
				"z": 0.1229333387,
				"element": "C" 
			},
			{
				"x": -1.1597995254,
				"y": -0.024533143,
				"z": 0.394252231,
				"element": "N" 
			},
			{
				"x": -2.4494348179,
				"y": 0.0151117866,
				"z": 0.0487354551,
				"element": "C" 
			},
			{
				"x": -3.0338097514,
				"y": 1.1239140588,
				"z": -0.5597533666,
				"element": "C" 
			},
			{
				"x": -4.7367826847,
				"y": 1.1126431661,
				"z": -0.9686460865,
				"element": "Cl" 
			},
			{
				"x": -2.2406024903,
				"y": 2.2393953869,
				"z": -0.8360399922,
				"element": "C" 
			},
			{
				"x": -0.8957499491,
				"y": 2.1940518138,
				"z": -0.4981878268,
				"element": "C" 
			},
			{
				"x": 3.134879135,
				"y": -2.9930810941,
				"z": 3.1335389715,
				"element": "H" 
			},
			{
				"x": 2.9257913033,
				"y": -1.2875137396,
				"z": 2.8887334396,
				"element": "H" 
			},
			{
				"x": 0.80965421,
				"y": -0.877548497,
				"z": -1.2914962251,
				"element": "H" 
			},
			{
				"x": 0.7231444628,
				"y": -3.1933326832,
				"z": -2.1511371798,
				"element": "H" 
			},
			{
				"x": 2.4069490319,
				"y": -4.6018401437,
				"z": 1.5477516163,
				"element": "H" 
			},
			{
				"x": 1.3339780743,
				"y": 1.9127051262,
				"z": 0.7617816525,
				"element": "H" 
			},
			{
				"x": -3.0445875874,
				"y": -0.8659285812,
				"z": 0.2758208605,
				"element": "H" 
			},
			{
				"x": -2.6670849116,
				"y": 3.1152058907,
				"z": -1.3130234759,
				"element": "H" 
			},
			{
				"x": -0.2412955791,
				"y": 3.0326341097,
				"z": -0.715215506,
				"element": "H" 
			}
		],
		 "valence_orbital": [ 
			{
				"type": "occ",
				"energy": -0.2836,
				"method": "rhf"
			},
			{
				"type": "occ",
				"energy": -0.26968,
				"method": "rhf"
			},
			{
				"type": "occ",
				"energy": -0.24833,
				"method": "rhf"
			},
			{
				"type": "occ",
				"energy": -0.23656,
				"method": "rhf"
			},
			{
				"type": "occ",
				"energy": -0.21108,
				"method": "rhf"
			},
			{
				"type": "unocc",
				"energy": -0.05709,
				"method": "rhf"
			},
			{
				"type": "unocc",
				"energy": -0.04035,
				"method": "rhf"
			},
			{
				"type": "unocc",
				"energy": -0.01885,
				"method": "rhf"
			},
			{
				"type": "unocc",
				"energy": 0.00513,
				"method": "rhf"
			},
			{
				"type": "unocc",
				"energy": 0.0214,
				"method": "rhf"
			}
		],
		"cosmo_sigma_profile": { 
			"-0.025": 0.0,
			"-0.024": 0.0,
			"-0.023": 0.0,
			"-0.022": 0.0,
			"-0.021": 0.0,
			"-0.02": 0.0,
			"-0.019": 0.0,
			"-0.018": 0.0,
			"-0.017": 0.0,
			"-0.016": 0.0,
			"-0.015": 0.571172769138,
			"-0.014": 1.33366160406,
			"-0.013": 2.81260004565,
			"-0.012": 2.77630712043,
			"-0.011": 2.93854115145,
			"-0.01": 2.46308644159,
			"-0.009": 4.83857175547,
			"-0.008": 8.18207928528,
			"-0.007": 9.63921252,
			"-0.006": 10.7441011533,
			"-0.005": 10.7658678481,
			"-0.004": 11.3590282629,
			"-0.003": 11.0376252567,
			"-0.002": 14.0130918554,
			"-0.001": 18.5218323014,
			"0.0": 26.4813973796,
			"0.001": 28.7528875696,
			"0.002": 29.5370104064,
			"0.003": 27.6040046974,
			"0.004": 29.2374712502,
			"0.005": 11.7689885172,
			"0.006": 4.61626560456,
			"0.007": 3.13900751263,
			"0.008": 3.18502622198,
			"0.009": 2.84837176354,
			"0.01": 3.79332751639,
			"0.011": 3.0357132364,
			"0.012": 3.06796998536,
			"0.013": 1.04546087096,
			"0.014": 0.0,
			"0.015": 0.0,
			"0.016": 0.0,
			"0.017": 0.0,
			"0.018": 0.0,
			"0.019": 0.0,
			"0.02": 0.0,
			"0.021": 0.0,
			"0.022": 0.0,
			"0.023": 0.0,
			"0.024": 0.0,
			"0.025": 0.0
		}
	}
}
