{
	 "smiles": "OC(=O)C1=CSC(=N1)C1=CC2=C(O1)C=CC=C2", 
	 "Tm": 516.15, 
	 "num_atms": 24, 
	 "gaussian": { 
		 "optdone": 1, 
		 "sigma_profile": "yes", 
		 "theory": "DFT", 
		 "functional": "B3LYP", 
		 "basiset": "6-31G**", 
		 "properties": { 
			 "R2extent": 6081.4173, 
			 "electric_dipole_moment_norm": 2.27710700232, 
			 "electric_quadrupole_moment_norm": 8.13738125566, 
			 "total_energy": -1140.10661069, 
			 "HOMO_LUMO_gap": 0.14752, 
			 "cosmo_polarized_energy": -12.65, 
			 "cosmo_cavitation_energy": 31.99, 
			 "cosmo_dispersion_energy": -24.12, 
			 "cosmo_repulsion_energy": 1.81, 
			 "cosmo_total_nonelectrostatic_energy": 9.69, 
			 "SMD_solvation_energy": 5.43 
		},
		"coords": [
			{
				"x": 3.2294997122,
				"y": -3.8130062818,
				"z": 1.1422633993,
				"element": "O" 
			},
			{
				"x": 2.7980640411,
				"y": -4.052966094,
				"z": -0.112410911,
				"element": "C" 
			},
			{
				"x": 3.1928220173,
				"y": -4.985247728,
				"z": -0.7856800045,
				"element": "O" 
			},
			{
				"x": 1.7963333593,
				"y": -3.0660961171,
				"z": -0.5840403524,
				"element": "C" 
			},
			{
				"x": 1.2438772623,
				"y": -3.151101563,
				"z": -1.839318912,
				"element": "C" 
			},
			{
				"x": 0.1233957492,
				"y": -1.8691988728,
				"z": -2.0851427544,
				"element": "S" 
			},
			{
				"x": 0.4861803941,
				"y": -1.2988805333,
				"z": -0.4470565818,
				"element": "C" 
			},
			{
				"x": 1.3654002209,
				"y": -2.0215076041,
				"z": 0.1937834024,
				"element": "N" 
			},
			{
				"x": -0.1567163636,
				"y": -0.1284651306,
				"z": 0.0996001895,
				"element": "C" 
			},
			{
				"x": -0.0398964506,
				"y": 0.4888023605,
				"z": 1.3124429726,
				"element": "C" 
			},
			{
				"x": -0.9335018231,
				"y": 1.6127476866,
				"z": 1.277052019,
				"element": "C" 
			},
			{
				"x": -1.5360064794,
				"y": 1.5795972966,
				"z": 0.0025815324,
				"element": "C" 
			},
			{
				"x": -1.0618152121,
				"y": 0.5158491669,
				"z": -0.7174504095,
				"element": "O" 
			},
			{
				"x": -2.4737263902,
				"y": 2.5065804927,
				"z": -0.4338944343,
				"element": "C" 
			},
			{
				"x": -2.8129758442,
				"y": 3.513143073,
				"z": 0.4693358145,
				"element": "C" 
			},
			{
				"x": -2.2306578685,
				"y": 3.5766788144,
				"z": 1.7509456279,
				"element": "C" 
			},
			{
				"x": -1.2933050884,
				"y": 2.6380992512,
				"z": 2.168335971,
				"element": "C" 
			},
			{
				"x": 3.8724610167,
				"y": -4.5157465107,
				"z": 1.3354611316,
				"element": "H" 
			},
			{
				"x": 1.4531628686,
				"y": -3.895999075,
				"z": -2.5927845665,
				"element": "H" 
			},
			{
				"x": 0.6065335062,
				"y": 0.167409963,
				"z": 2.1153660467,
				"element": "H" 
			},
			{
				"x": -2.9128015675,
				"y": 2.4440461803,
				"z": -1.4233896052,
				"element": "H" 
			},
			{
				"x": -3.5414586791,
				"y": 4.2636064657,
				"z": 0.1781512483,
				"element": "H" 
			},
			{
				"x": -2.5225745594,
				"y": 4.3770191981,
				"z": 2.4241409622,
				"element": "H" 
			},
			{
				"x": -0.849793822,
				"y": 2.6948355616,
				"z": 3.1576082142,
				"element": "H" 
			}
		],
		 "valence_orbital": [ 
			{
				"type": "occ",
				"energy": -0.29377,
				"method": "rhf"
			},
			{
				"type": "occ",
				"energy": -0.27878,
				"method": "rhf"
			},
			{
				"type": "occ",
				"energy": -0.27561,
				"method": "rhf"
			},
			{
				"type": "occ",
				"energy": -0.24683,
				"method": "rhf"
			},
			{
				"type": "occ",
				"energy": -0.21859,
				"method": "rhf"
			},
			{
				"type": "unocc",
				"energy": -0.07107,
				"method": "rhf"
			},
			{
				"type": "unocc",
				"energy": -0.04018,
				"method": "rhf"
			},
			{
				"type": "unocc",
				"energy": -0.00145,
				"method": "rhf"
			},
			{
				"type": "unocc",
				"energy": 0.00915,
				"method": "rhf"
			},
			{
				"type": "unocc",
				"energy": 0.01107,
				"method": "rhf"
			}
		],
		"cosmo_sigma_profile": { 
			"-0.025": 0.0,
			"-0.024": 0.0,
			"-0.023": 0.0,
			"-0.022": 0.0,
			"-0.021": 0.0,
			"-0.02": 0.0,
			"-0.019": 0.166452476792,
			"-0.018": 1.03045072497,
			"-0.017": 0.821441929,
			"-0.016": 0.952879325974,
			"-0.015": 0.530443149925,
			"-0.014": 1.00493634635,
			"-0.013": 0.766638486915,
			"-0.012": 0.477209923456,
			"-0.011": 1.07464325102,
			"-0.01": 2.15885108205,
			"-0.009": 1.95256941925,
			"-0.008": 4.3620011054,
			"-0.007": 6.9633395247,
			"-0.006": 11.6260518252,
			"-0.005": 11.9853800912,
			"-0.004": 13.0898013831,
			"-0.003": 15.0842157816,
			"-0.002": 18.7571033357,
			"-0.001": 21.1363067873,
			"0.0": 29.0204737406,
			"0.001": 25.6082292363,
			"0.002": 21.1800818888,
			"0.003": 16.2774542902,
			"0.004": 16.2096853405,
			"0.005": 10.3148745854,
			"0.006": 2.55347732635,
			"0.007": 2.99519232637,
			"0.008": 3.21523753426,
			"0.009": 3.55915378839,
			"0.01": 3.19843252963,
			"0.011": 6.72215297492,
			"0.012": 3.99389845968,
			"0.013": 1.15822243559,
			"0.014": 0.890365825934,
			"0.015": 0.0418678601674,
			"0.016": 0.0,
			"0.017": 0.0,
			"0.018": 0.0,
			"0.019": 0.0,
			"0.02": 0.0,
			"0.021": 0.0,
			"0.022": 0.0,
			"0.023": 0.0,
			"0.024": 0.0,
			"0.025": 0.0
		}
	}
}
