{
	 "smiles": "[O-][N+](=O)C1=C(S)C=CC(Br)=C1", 
	 "Tm": 397.15, 
	 "num_atms": 15, 
	 "gaussian": { 
		 "optdone": 1, 
		 "sigma_profile": "yes", 
		 "theory": "DFT", 
		 "functional": "B3LYP", 
		 "basiset": "6-31G**", 
		 "properties": { 
			 "R2extent": 3555.931, 
			 "electric_dipole_moment_norm": 2.93682658153, 
			 "electric_quadrupole_moment_norm": 6.03716122031, 
			 "total_energy": -3405.72782917, 
			 "HOMO_LUMO_gap": 0.13623, 
			 "cosmo_polarized_energy": -7.08, 
			 "cosmo_cavitation_energy": 23.86, 
			 "cosmo_dispersion_energy": -18.83, 
			 "cosmo_repulsion_energy": 1.45, 
			 "cosmo_total_nonelectrostatic_energy": 6.48, 
			 "SMD_solvation_energy": 4.36 
		},
		"coords": [
			{
				"x": -3.6427564475,
				"y": -0.2685999424,
				"z": 0.8784204234,
				"element": "O" 
			},
			{
				"x": -2.9205393714,
				"y": 0.6694606925,
				"z": 0.5528554786,
				"element": "N" 
			},
			{
				"x": -3.3279483955,
				"y": 1.8372050081,
				"z": 0.4864885634,
				"element": "O" 
			},
			{
				"x": -1.5148011093,
				"y": 0.3729891315,
				"z": 0.2317182847,
				"element": "C" 
			},
			{
				"x": -0.5679440946,
				"y": 1.3481713413,
				"z": -0.1584021512,
				"element": "C" 
			},
			{
				"x": -0.7685205693,
				"y": 3.0932217493,
				"z": -0.3639926431,
				"element": "S" 
			},
			{
				"x": 0.7369679961,
				"y": 0.8830618752,
				"z": -0.4289530704,
				"element": "C" 
			},
			{
				"x": 1.0902428311,
				"y": -0.4512356954,
				"z": -0.3236072432,
				"element": "C" 
			},
			{
				"x": 0.1269445082,
				"y": -1.3885443515,
				"z": 0.06533205,
				"element": "C" 
			},
			{
				"x": 0.5992498123,
				"y": -3.2268862883,
				"z": 0.214161143,
				"element": "Br" 
			},
			{
				"x": -1.1644416213,
				"y": -0.9828303245,
				"z": 0.3410151587,
				"element": "C" 
			},
			{
				"x": -2.0724341832,
				"y": 3.1258025154,
				"z": -0.0302482693,
				"element": "H" 
			},
			{
				"x": 1.4887161139,
				"y": 1.6057050567,
				"z": -0.7312319161,
				"element": "H" 
			},
			{
				"x": 2.104508606,
				"y": -0.7662052002,
				"z": -0.5407996905,
				"element": "H" 
			},
			{
				"x": -1.9256440753,
				"y": -1.6881155678,
				"z": 0.6430438821,
				"element": "H" 
			}
		],
		 "valence_orbital": [ 
			{
				"type": "occ",
				"energy": -0.30545,
				"method": "rhf"
			},
			{
				"type": "occ",
				"energy": -0.30213,
				"method": "rhf"
			},
			{
				"type": "occ",
				"energy": -0.30084,
				"method": "rhf"
			},
			{
				"type": "occ",
				"energy": -0.29545,
				"method": "rhf"
			},
			{
				"type": "occ",
				"energy": -0.24277,
				"method": "rhf"
			},
			{
				"type": "unocc",
				"energy": -0.10654,
				"method": "rhf"
			},
			{
				"type": "unocc",
				"energy": -0.04288,
				"method": "rhf"
			},
			{
				"type": "unocc",
				"energy": -0.01792,
				"method": "rhf"
			},
			{
				"type": "unocc",
				"energy": -0.01465,
				"method": "rhf"
			},
			{
				"type": "unocc",
				"energy": 0.01262,
				"method": "rhf"
			}
		],
		"cosmo_sigma_profile": { 
			"-0.025": 0.0,
			"-0.024": 0.0,
			"-0.023": 0.0,
			"-0.022": 0.0,
			"-0.021": 0.0,
			"-0.02": 0.0,
			"-0.019": 0.0,
			"-0.018": 0.0,
			"-0.017": 0.0,
			"-0.016": 0.0,
			"-0.015": 0.0,
			"-0.014": 0.0,
			"-0.013": 0.0,
			"-0.012": 0.0,
			"-0.011": 0.0,
			"-0.01": 0.259253232993,
			"-0.009": 2.43873516677,
			"-0.008": 6.72848676211,
			"-0.007": 7.03897305815,
			"-0.006": 8.13243069819,
			"-0.005": 9.84628194118,
			"-0.004": 8.69591604878,
			"-0.003": 12.7151732288,
			"-0.002": 15.0439325766,
			"-0.001": 18.2016749842,
			"0.0": 22.9451160594,
			"0.001": 15.5898793283,
			"0.002": 12.0985129792,
			"0.003": 15.426299865,
			"0.004": 14.5527770032,
			"0.005": 5.7982349179,
			"0.006": 7.1363719988,
			"0.007": 6.82910256415,
			"0.008": 4.33588779531,
			"0.009": 3.65902506626,
			"0.01": 1.08934242075,
			"0.011": 0.0,
			"0.012": 0.0,
			"0.013": 0.0,
			"0.014": 0.0,
			"0.015": 0.0,
			"0.016": 0.0,
			"0.017": 0.0,
			"0.018": 0.0,
			"0.019": 0.0,
			"0.02": 0.0,
			"0.021": 0.0,
			"0.022": 0.0,
			"0.023": 0.0,
			"0.024": 0.0,
			"0.025": 0.0
		}
	}
}
