{
	 "smiles": "CC1(C)CC(N)=CC(=O)C1", 
	 "Tm": 441.15, 
	 "num_atms": 23, 
	 "gaussian": { 
		 "optdone": 1, 
		 "sigma_profile": "yes", 
		 "theory": "DFT", 
		 "functional": "B3LYP", 
		 "basiset": "6-31G**", 
		 "properties": { 
			 "R2extent": 1893.3103, 
			 "electric_dipole_moment_norm": 5.68565480574, 
			 "electric_quadrupole_moment_norm": 20.0742395079, 
			 "total_energy": -442.67267866, 
			 "HOMO_LUMO_gap": 0.1955, 
			 "cosmo_polarized_energy": -16.47, 
			 "cosmo_cavitation_energy": 24.56, 
			 "cosmo_dispersion_energy": -17.74, 
			 "cosmo_repulsion_energy": 1.45, 
			 "cosmo_total_nonelectrostatic_energy": 8.27, 
			 "SMD_solvation_energy": 4.71 
		},
		"coords": [
			{
				"x": 0.682317329,
				"y": -1.487488326,
				"z": 0.6539598842,
				"element": "C" 
			},
			{
				"x": 0.0997643206,
				"y": -0.2999082172,
				"z": -0.1314239667,
				"element": "C" 
			},
			{
				"x": 0.2917512841,
				"y": 0.9889426278,
				"z": 0.6938250581,
				"element": "C" 
			},
			{
				"x": 0.8303633857,
				"y": -0.1829750665,
				"z": -1.4890956327,
				"element": "C" 
			},
			{
				"x": 0.1589953536,
				"y": 0.7558416587,
				"z": -2.4663222079,
				"element": "C" 
			},
			{
				"x": 0.96417801,
				"y": 1.2192398203,
				"z": -3.4755330401,
				"element": "N" 
			},
			{
				"x": -1.1691807479,
				"y": 1.0469578711,
				"z": -2.3876295393,
				"element": "C" 
			},
			{
				"x": -2.0346305001,
				"y": 0.4755256656,
				"z": -1.366775329,
				"element": "C" 
			},
			{
				"x": -3.2276601854,
				"y": 0.754693803,
				"z": -1.2789266089,
				"element": "O" 
			},
			{
				"x": -1.3992579616,
				"y": -0.5381376767,
				"z": -0.4117254728,
				"element": "C" 
			},
			{
				"x": 1.7523926013,
				"y": -1.3476888299,
				"z": 0.8483259304,
				"element": "H" 
			},
			{
				"x": 0.1805108577,
				"y": -1.5962911498,
				"z": 1.6214078138,
				"element": "H" 
			},
			{
				"x": 0.5596171224,
				"y": -2.4284408156,
				"z": 0.1058103137,
				"element": "H" 
			},
			{
				"x": 1.3530098244,
				"y": 1.1594001623,
				"z": 0.909574064,
				"element": "H" 
			},
			{
				"x": -0.2340939319,
				"y": 0.9126904015,
				"z": 1.6513942245,
				"element": "H" 
			},
			{
				"x": -0.0937263873,
				"y": 1.8682153515,
				"z": 0.1702786154,
				"element": "H" 
			},
			{
				"x": 1.8691865552,
				"y": 0.1379604943,
				"z": -1.3266070158,
				"element": "H" 
			},
			{
				"x": 0.8905592579,
				"y": -1.1744278782,
				"z": -1.9608663741,
				"element": "H" 
			},
			{
				"x": 0.6001173442,
				"y": 1.9345136859,
				"z": -4.0877760292,
				"element": "H" 
			},
			{
				"x": 1.9611335613,
				"y": 1.2446651939,
				"z": -3.3262678437,
				"element": "H" 
			},
			{
				"x": -1.6367146774,
				"y": 1.7255548781,
				"z": -3.0968311554,
				"element": "H" 
			},
			{
				"x": -1.9842793164,
				"y": -0.5378123621,
				"z": 0.5133272535,
				"element": "H" 
			},
			{
				"x": -1.5288530994,
				"y": -1.5315312919,
				"z": -0.8666229422,
				"element": "H" 
			}
		],
		 "valence_orbital": [ 
			{
				"type": "occ",
				"energy": -0.32643,
				"method": "rhf"
			},
			{
				"type": "occ",
				"energy": -0.32455,
				"method": "rhf"
			},
			{
				"type": "occ",
				"energy": -0.31654,
				"method": "rhf"
			},
			{
				"type": "occ",
				"energy": -0.21578,
				"method": "rhf"
			},
			{
				"type": "occ",
				"energy": -0.21393,
				"method": "rhf"
			},
			{
				"type": "unocc",
				"energy": -0.01843,
				"method": "rhf"
			},
			{
				"type": "unocc",
				"energy": 0.06299,
				"method": "rhf"
			},
			{
				"type": "unocc",
				"energy": 0.06894,
				"method": "rhf"
			},
			{
				"type": "unocc",
				"energy": 0.09143,
				"method": "rhf"
			},
			{
				"type": "unocc",
				"energy": 0.10796,
				"method": "rhf"
			}
		],
		"cosmo_sigma_profile": { 
			"-0.025": 0.0,
			"-0.024": 0.0,
			"-0.023": 0.0,
			"-0.022": 0.0,
			"-0.021": 0.0,
			"-0.02": 0.0,
			"-0.019": 0.0,
			"-0.018": 0.0,
			"-0.017": 0.0,
			"-0.016": 0.0,
			"-0.015": 0.00703920961328,
			"-0.014": 1.15719226961,
			"-0.013": 2.89588599029,
			"-0.012": 2.29436166203,
			"-0.011": 2.57301767051,
			"-0.01": 2.96077571189,
			"-0.009": 2.69837450858,
			"-0.008": 2.81965384658,
			"-0.007": 2.56786654589,
			"-0.006": 2.73197028052,
			"-0.005": 5.19151393696,
			"-0.004": 12.5133186479,
			"-0.003": 20.7759656604,
			"-0.002": 22.0731899486,
			"-0.001": 17.1595735746,
			"0.0": 18.4716676011,
			"0.001": 20.2060437243,
			"0.002": 9.25829929528,
			"0.003": 3.78934668955,
			"0.004": 4.15038112851,
			"0.005": 5.13688492251,
			"0.006": 3.38973685926,
			"0.007": 2.33985133431,
			"0.008": 2.07749964798,
			"0.009": 2.48916588808,
			"0.01": 1.9190124571,
			"0.011": 1.08089045391,
			"0.012": 1.68663018786,
			"0.013": 2.44455165993,
			"0.014": 4.5094547445,
			"0.015": 4.59498453926,
			"0.016": 2.15987849101,
			"0.017": 0.0604058785525,
			"0.018": 0.0,
			"0.019": 0.0,
			"0.02": 0.0,
			"0.021": 0.0,
			"0.022": 0.0,
			"0.023": 0.0,
			"0.024": 0.0,
			"0.025": 0.0
		}
	}
}
