{
	 "smiles": "[O-][N+](=O)C1=CC(Cl)=C(I)C=C1", 
	 "Tm": 372.15, 
	 "num_atms": 14, 
	 "gaussian": { 
		 "optdone": 1, 
		 "sigma_profile": "no", 
		 "theory": "DFT", 
		 "functional": "B3LYP", 
		 "basiset": "6-31G**", 
		 "properties": { 
			 "R2extent": 2493.0769, 
			 "electric_dipole_moment_norm": 3.01985997192, 
			 "electric_quadrupole_moment_norm": 8.73482460786, 
			 "total_energy": -907.113877507, 
			 "HOMO_LUMO_gap": 0.16331, 
			 "cosmo_polarized_energy": -89852.0, 
			 "cosmo_cavitation_energy": 24.33, 
			 "cosmo_dispersion_energy": -19.46, 
			 "cosmo_repulsion_energy": 1.52, 
			 "cosmo_total_nonelectrostatic_energy": 6.39, 
			 "SMD_solvation_energy": 5.4 
		},
		"coords": [
			{
				"x": -0.7520662611,
				"y": -2.959057853,
				"z": -0.501042333,
				"element": "O" 
			},
			{
				"x": -1.332256915,
				"y": -2.0105953239,
				"z": -1.0255477407,
				"element": "N" 
			},
			{
				"x": -2.458710341,
				"y": -2.0540535544,
				"z": -1.5163392863,
				"element": "O" 
			},
			{
				"x": -0.6246250079,
				"y": -0.7192818619,
				"z": -1.0707678029,
				"element": "C" 
			},
			{
				"x": 0.6504971864,
				"y": -0.6407824403,
				"z": -0.523558104,
				"element": "C" 
			},
			{
				"x": 1.3269600026,
				"y": 0.5785450089,
				"z": -0.5625673405,
				"element": "C" 
			},
			{
				"x": 2.9247999503,
				"y": 0.6420867684,
				"z": 0.1327820608,
				"element": "Cl" 
			},
			{
				"x": 0.7198341646,
				"y": 1.7030094218,
				"z": -1.1479516716,
				"element": "C" 
			},
			{
				"x": 1.6755129866,
				"y": 3.5761584699,
				"z": -1.2452333638,
				"element": "I" 
			},
			{
				"x": -0.5674892772,
				"y": 1.588624766,
				"z": -1.6905759771,
				"element": "C" 
			},
			{
				"x": -1.2500111361,
				"y": 0.3775862692,
				"z": -1.6566249862,
				"element": "C" 
			},
			{
				"x": 1.102322935,
				"y": -1.5167699785,
				"z": -0.0769782641,
				"element": "H" 
			},
			{
				"x": -1.0351759909,
				"y": 2.4557733445,
				"z": -2.141801081,
				"element": "H" 
			},
			{
				"x": -2.2443922964,
				"y": 0.2734569634,
				"z": -2.0713941095,
				"element": "H" 
			}
		],
		 "valence_orbital": [ 
			{
				"type": "occ",
				"energy": -0.32043,
				"method": "rhf"
			},
			{
				"type": "occ",
				"energy": -0.30511,
				"method": "rhf"
			},
			{
				"type": "occ",
				"energy": -0.2857,
				"method": "rhf"
			},
			{
				"type": "occ",
				"energy": -0.28556,
				"method": "rhf"
			},
			{
				"type": "occ",
				"energy": -0.26895,
				"method": "rhf"
			},
			{
				"type": "unocc",
				"energy": -0.10564,
				"method": "rhf"
			},
			{
				"type": "unocc",
				"energy": -0.06582,
				"method": "rhf"
			},
			{
				"type": "unocc",
				"energy": -0.05035,
				"method": "rhf"
			},
			{
				"type": "unocc",
				"energy": -0.02303,
				"method": "rhf"
			},
			{
				"type": "unocc",
				"energy": 0.01239,
				"method": "rhf"
			}
		],
		"cosmo_sigma_profile": { 
			"0.0": 0.0,
			"0.0": 0.0,
			"0.0": 0.0,
			"0.0": 0.0,
			"0.0": 0.0,
			"0.0": 0.0,
			"0.0": 0.0,
			"0.0": 0.0,
			"0.0": 0.0,
			"0.0": 0.0,
			"0.0": 0.0,
			"0.0": 0.0,
			"0.0": 0.0,
			"0.0": 0.0,
			"0.0": 0.0,
			"0.0": 0.0,
			"0.0": 0.0,
			"0.0": 0.0,
			"0.0": 0.0,
			"0.0": 0.0,
			"0.0": 0.0,
			"0.0": 0.0,
			"0.0": 0.0,
			"0.0": 0.0,
			"0.0": 0.0,
			"0.0": 0.0,
			"0.0": 0.0,
			"0.0": 0.0,
			"0.0": 0.0,
			"0.0": 0.0,
			"0.0": 0.0,
			"0.0": 0.0,
			"0.0": 0.0,
			"0.0": 0.0,
			"0.0": 0.0,
			"0.0": 0.0,
			"0.0": 0.0,
			"0.0": 0.0,
			"0.0": 0.0,
			"0.0": 0.0,
			"0.0": 0.0,
			"0.0": 0.0,
			"0.0": 0.0,
			"0.0": 0.0,
			"0.0": 0.0,
			"0.0": 0.0,
			"0.0": 0.0,
			"0.0": 0.0,
			"0.0": 0.0,
			"0.0": 0.0,
			"0.0": 0.0
		}
	}
}
