{
	 "smiles": "CC(C)(C)OC(=O)N1CCN(CC1)C1=CC=C(C=O)C=C1", 
	 "Tm": 391.15, 
	 "num_atms": 43, 
	 "gaussian": { 
		 "optdone": 1, 
		 "sigma_profile": "yes", 
		 "theory": "DFT", 
		 "functional": "B3LYP", 
		 "basiset": "6-31G**", 
		 "properties": { 
			 "R2extent": 11369.4301, 
			 "electric_dipole_moment_norm": 4.2667841075, 
			 "electric_quadrupole_moment_norm": 43.8681556734, 
			 "total_energy": -958.164092697, 
			 "HOMO_LUMO_gap": 0.1621, 
			 "cosmo_polarized_energy": -15.6, 
			 "cosmo_cavitation_energy": 44.16, 
			 "cosmo_dispersion_energy": -31.06, 
			 "cosmo_repulsion_energy": 2.36, 
			 "cosmo_total_nonelectrostatic_energy": 15.46, 
			 "SMD_solvation_energy": 7.69 
		},
		"coords": [
			{
				"x": 4.5159395114,
				"y": -1.9872451371,
				"z": 0.2534492681,
				"element": "C" 
			},
			{
				"x": 3.7496334874,
				"y": -2.2349881562,
				"z": -1.0500177681,
				"element": "C" 
			},
			{
				"x": 3.2944825475,
				"y": -3.6938066135,
				"z": -1.1432119427,
				"element": "C" 
			},
			{
				"x": 4.561835988,
				"y": -1.839426639,
				"z": -2.2876145902,
				"element": "C" 
			},
			{
				"x": 2.4706187248,
				"y": -1.5040237812,
				"z": -1.0316998436,
				"element": "O" 
			},
			{
				"x": 2.4440534973,
				"y": -0.1529879294,
				"z": -0.9472336761,
				"element": "C" 
			},
			{
				"x": 3.423575589,
				"y": 0.5771474307,
				"z": -0.8942372977,
				"element": "O" 
			},
			{
				"x": 1.1512948933,
				"y": 0.3134836508,
				"z": -0.9111921301,
				"element": "N" 
			},
			{
				"x": -0.0418318131,
				"y": -0.5006691979,
				"z": -1.0975319156,
				"element": "C" 
			},
			{
				"x": -1.1251146065,
				"y": -0.1113032933,
				"z": -0.0848896786,
				"element": "C" 
			},
			{
				"x": -1.3873140924,
				"y": 1.3257114775,
				"z": -0.1349852558,
				"element": "N" 
			},
			{
				"x": -0.1672310928,
				"y": 2.1185344362,
				"z": 0.0769520383,
				"element": "C" 
			},
			{
				"x": 0.9101683655,
				"y": 1.7494994519,
				"z": -0.9409180128,
				"element": "C" 
			},
			{
				"x": -2.6068438685,
				"y": 1.8166049711,
				"z": 0.3468280713,
				"element": "C" 
			},
			{
				"x": -2.9539563411,
				"y": 3.1746996671,
				"z": 0.1547798327,
				"element": "C" 
			},
			{
				"x": -4.1749477618,
				"y": 3.6643943578,
				"z": 0.5903892589,
				"element": "C" 
			},
			{
				"x": -5.1049800929,
				"y": 2.8300859969,
				"z": 1.2293931202,
				"element": "C" 
			},
			{
				"x": -6.3991363088,
				"y": 3.358753191,
				"z": 1.6863395833,
				"element": "C" 
			},
			{
				"x": -7.263890257,
				"y": 2.7054274686,
				"z": 2.2451616738,
				"element": "O" 
			},
			{
				"x": -4.7693441697,
				"y": 1.482248179,
				"z": 1.4221634369,
				"element": "C" 
			},
			{
				"x": -3.5476114337,
				"y": 0.9824258259,
				"z": 0.9970439436,
				"element": "C" 
			},
			{
				"x": 5.4057825591,
				"y": -2.6244735021,
				"z": 0.2819017682,
				"element": "H" 
			},
			{
				"x": 4.825198072,
				"y": -0.9450420702,
				"z": 0.3328371964,
				"element": "H" 
			},
			{
				"x": 3.890685604,
				"y": -2.240008723,
				"z": 1.1157790725,
				"element": "H" 
			},
			{
				"x": 2.7075048485,
				"y": -3.8587662917,
				"z": -2.051533188,
				"element": "H" 
			},
			{
				"x": 4.1639686965,
				"y": -4.3571882139,
				"z": -1.1684004354,
				"element": "H" 
			},
			{
				"x": 2.6792817172,
				"y": -3.9635497906,
				"z": -0.279666969,
				"element": "H" 
			},
			{
				"x": 5.4549356242,
				"y": -2.4689738613,
				"z": -2.3563306269,
				"element": "H" 
			},
			{
				"x": 3.9691798616,
				"y": -1.9916750093,
				"z": -3.195341116,
				"element": "H" 
			},
			{
				"x": 4.8689219599,
				"y": -0.794891629,
				"z": -2.2356579384,
				"element": "H" 
			},
			{
				"x": 0.2163883945,
				"y": -1.5510156769,
				"z": -0.9767780205,
				"element": "H" 
			},
			{
				"x": -0.4371811598,
				"y": -0.354283266,
				"z": -2.1142327417,
				"element": "H" 
			},
			{
				"x": -0.8146515617,
				"y": -0.4315243046,
				"z": 0.9250298927,
				"element": "H" 
			},
			{
				"x": -2.0387111111,
				"y": -0.6500546582,
				"z": -0.3459529631,
				"element": "H" 
			},
			{
				"x": -0.3939773606,
				"y": 3.1805185901,
				"z": -0.0124889851,
				"element": "H" 
			},
			{
				"x": 0.2220851304,
				"y": 1.9453938656,
				"z": 1.0946161091,
				"element": "H" 
			},
			{
				"x": 0.5818002677,
				"y": 2.0538535862,
				"z": -1.9462986478,
				"element": "H" 
			},
			{
				"x": 1.8478337289,
				"y": 2.2562442533,
				"z": -0.712488239,
				"element": "H" 
			},
			{
				"x": -2.2764284659,
				"y": 3.8376030311,
				"z": -0.3714265601,
				"element": "H" 
			},
			{
				"x": -4.4224921765,
				"y": 4.7103479631,
				"z": 0.4216886633,
				"element": "H" 
			},
			{
				"x": -6.5505194317,
				"y": 4.443713141,
				"z": 1.4825830395,
				"element": "H" 
			},
			{
				"x": -5.4841540909,
				"y": 0.8403250128,
				"z": 1.9280880774,
				"element": "H" 
			},
			{
				"x": -3.3124518719,
				"y": -0.0562178031,
				"z": 1.1946044961,
				"element": "H" 
			}
		],
		 "valence_orbital": [ 
			{
				"type": "occ",
				"energy": -0.2668,
				"method": "rhf"
			},
			{
				"type": "occ",
				"energy": -0.26238,
				"method": "rhf"
			},
			{
				"type": "occ",
				"energy": -0.24674,
				"method": "rhf"
			},
			{
				"type": "occ",
				"energy": -0.24287,
				"method": "rhf"
			},
			{
				"type": "occ",
				"energy": -0.21197,
				"method": "rhf"
			},
			{
				"type": "unocc",
				"energy": -0.04987,
				"method": "rhf"
			},
			{
				"type": "unocc",
				"energy": -0.01026,
				"method": "rhf"
			},
			{
				"type": "unocc",
				"energy": 0.04433,
				"method": "rhf"
			},
			{
				"type": "unocc",
				"energy": 0.04851,
				"method": "rhf"
			},
			{
				"type": "unocc",
				"energy": 0.0778,
				"method": "rhf"
			}
		],
		"cosmo_sigma_profile": { 
			"-0.025": 0.0,
			"-0.024": 0.0,
			"-0.023": 0.0,
			"-0.022": 0.0,
			"-0.021": 0.0,
			"-0.02": 0.0,
			"-0.019": 0.0,
			"-0.018": 0.0,
			"-0.017": 0.0,
			"-0.016": 0.0,
			"-0.015": 0.0,
			"-0.014": 0.0,
			"-0.013": 0.0,
			"-0.012": 0.0,
			"-0.011": 0.0,
			"-0.01": 0.0,
			"-0.009": 0.0403284799302,
			"-0.008": 1.57447935334,
			"-0.007": 4.88605516262,
			"-0.006": 13.08025418,
			"-0.005": 19.2720654123,
			"-0.004": 43.1027244992,
			"-0.003": 39.2406354585,
			"-0.002": 32.08607248,
			"-0.001": 30.003083348,
			"0.0": 33.1275959599,
			"0.001": 31.283212808,
			"0.002": 18.0207022007,
			"0.003": 15.612317353,
			"0.004": 19.5367230516,
			"0.005": 9.03013884048,
			"0.006": 5.10500964674,
			"0.007": 3.72977536028,
			"0.008": 3.73100573157,
			"0.009": 3.24726327259,
			"0.01": 2.82010567476,
			"0.011": 4.42331813331,
			"0.012": 6.73464980319,
			"0.013": 5.58629934581,
			"0.014": 1.62754996934,
			"0.015": 0.0,
			"0.016": 0.0,
			"0.017": 0.0,
			"0.018": 0.0,
			"0.019": 0.0,
			"0.02": 0.0,
			"0.021": 0.0,
			"0.022": 0.0,
			"0.023": 0.0,
			"0.024": 0.0,
			"0.025": 0.0
		}
	}
}
