{
	 "smiles": "CC(=O)C1=C(C)N(N=N1)C1=CC=C(Cl)C=C1", 
	 "Tm": 387.15, 
	 "num_atms": 26, 
	 "gaussian": { 
		 "optdone": 1, 
		 "sigma_profile": "yes", 
		 "theory": "DFT", 
		 "functional": "B3LYP", 
		 "basiset": "6-31G**", 
		 "properties": { 
			 "R2extent": 6728.8698, 
			 "electric_dipole_moment_norm": 6.535213109, 
			 "electric_quadrupole_moment_norm": 16.2628720649, 
			 "total_energy": -1124.8284854, 
			 "HOMO_LUMO_gap": 0.19178, 
			 "cosmo_polarized_energy": -21.12, 
			 "cosmo_cavitation_energy": 32.52, 
			 "cosmo_dispersion_energy": -23.46, 
			 "cosmo_repulsion_energy": 1.81, 
			 "cosmo_total_nonelectrostatic_energy": 10.88, 
			 "SMD_solvation_energy": 4.65 
		},
		"coords": [
			{
				"x": -2.9423291798,
				"y": -1.5201256085,
				"z": 0.2157212011,
				"element": "C" 
			},
			{
				"x": -2.6118042698,
				"y": -0.409464694,
				"z": -0.7695053637,
				"element": "C" 
			},
			{
				"x": -3.448209797,
				"y": -0.0127639873,
				"z": -1.5611109638,
				"element": "O" 
			},
			{
				"x": -1.2488293263,
				"y": 0.1867191497,
				"z": -0.7475354492,
				"element": "C" 
			},
			{
				"x": -0.1192188893,
				"y": -0.0951114624,
				"z": 0.0203167425,
				"element": "C" 
			},
			{
				"x": 0.183521423,
				"y": -1.13299212,
				"z": 1.0552152002,
				"element": "C" 
			},
			{
				"x": 0.8020525346,
				"y": 0.8113141885,
				"z": -0.4192477292,
				"element": "N" 
			},
			{
				"x": 0.2685019489,
				"y": 1.5994574923,
				"z": -1.415823092,
				"element": "N" 
			},
			{
				"x": -0.9465674689,
				"y": 1.2207770123,
				"z": -1.6003235903,
				"element": "N" 
			},
			{
				"x": 2.1554060973,
				"y": 1.0220651477,
				"z": -0.0316076779,
				"element": "C" 
			},
			{
				"x": 3.1207848442,
				"y": 1.1901536137,
				"z": -1.0296175565,
				"element": "C" 
			},
			{
				"x": 4.4472130814,
				"y": 1.4248072059,
				"z": -0.6783545891,
				"element": "C" 
			},
			{
				"x": 4.8003871782,
				"y": 1.4797467502,
				"z": 0.6711177822,
				"element": "C" 
			},
			{
				"x": 6.4731314414,
				"y": 1.7596696349,
				"z": 1.1151662291,
				"element": "Cl" 
			},
			{
				"x": 3.8427096759,
				"y": 1.3213944455,
				"z": 1.6724555869,
				"element": "C" 
			},
			{
				"x": 2.5125027317,
				"y": 1.1026459783,
				"z": 1.3174377813,
				"element": "C" 
			},
			{
				"x": -2.3827897487,
				"y": -2.4316360668,
				"z": -0.0259747819,
				"element": "H" 
			},
			{
				"x": -4.0088668224,
				"y": -1.7354108151,
				"z": 0.1412845259,
				"element": "H" 
			},
			{
				"x": -2.694814607,
				"y": -1.2416573687,
				"z": 1.2452570978,
				"element": "H" 
			},
			{
				"x": 1.2572941329,
				"y": -1.3237946657,
				"z": 1.1144510079,
				"element": "H" 
			},
			{
				"x": -0.3145453834,
				"y": -2.0732484866,
				"z": 0.8158871386,
				"element": "H" 
			},
			{
				"x": -0.1562135594,
				"y": -0.8262066007,
				"z": 2.051369028,
				"element": "H" 
			},
			{
				"x": 2.8227517523,
				"y": 1.1446551336,
				"z": -2.0705189241,
				"element": "H" 
			},
			{
				"x": 5.2029236159,
				"y": 1.5574112413,
				"z": -1.4441348118,
				"element": "H" 
			},
			{
				"x": 4.1298486202,
				"y": 1.3848708381,
				"z": 2.7157998448,
				"element": "H" 
			},
			{
				"x": 1.7557599741,
				"y": 1.0191240439,
				"z": 2.0894753633,
				"element": "H" 
			}
		],
		 "valence_orbital": [ 
			{
				"type": "occ",
				"energy": -0.28838,
				"method": "rhf"
			},
			{
				"type": "occ",
				"energy": -0.27559,
				"method": "rhf"
			},
			{
				"type": "occ",
				"energy": -0.26912,
				"method": "rhf"
			},
			{
				"type": "occ",
				"energy": -0.2552,
				"method": "rhf"
			},
			{
				"type": "occ",
				"energy": -0.24644,
				"method": "rhf"
			},
			{
				"type": "unocc",
				"energy": -0.05466,
				"method": "rhf"
			},
			{
				"type": "unocc",
				"energy": -0.03872,
				"method": "rhf"
			},
			{
				"type": "unocc",
				"energy": -0.03516,
				"method": "rhf"
			},
			{
				"type": "unocc",
				"energy": -0.00265,
				"method": "rhf"
			},
			{
				"type": "unocc",
				"energy": 0.01339,
				"method": "rhf"
			}
		],
		"cosmo_sigma_profile": { 
			"-0.025": 0.0,
			"-0.024": 0.0,
			"-0.023": 0.0,
			"-0.022": 0.0,
			"-0.021": 0.0,
			"-0.02": 0.0,
			"-0.019": 0.0,
			"-0.018": 0.0,
			"-0.017": 0.0,
			"-0.016": 0.0,
			"-0.015": 0.0,
			"-0.014": 0.0,
			"-0.013": 0.0,
			"-0.012": 0.0,
			"-0.011": 0.0,
			"-0.01": 0.0,
			"-0.009": 1.50864205691,
			"-0.008": 9.36371660624,
			"-0.007": 15.9702806961,
			"-0.006": 17.4551415087,
			"-0.005": 17.7996083592,
			"-0.004": 19.0392997932,
			"-0.003": 21.1620202334,
			"-0.002": 19.6497949854,
			"-0.001": 17.7263130277,
			"0.0": 16.6920321514,
			"0.001": 20.0339092355,
			"0.002": 18.3253309469,
			"0.003": 10.282798218,
			"0.004": 12.3496276389,
			"0.005": 5.79543309813,
			"0.006": 2.98992100384,
			"0.007": 2.6113986594,
			"0.008": 3.45228194336,
			"0.009": 5.03551778057,
			"0.01": 4.77064390432,
			"0.011": 5.69683905982,
			"0.012": 5.93187727646,
			"0.013": 4.10095239062,
			"0.014": 1.764822809,
			"0.015": 1.80620400698,
			"0.016": 1.3463514521,
			"0.017": 0.343639924863,
			"0.018": 0.0,
			"0.019": 0.0,
			"0.02": 0.0,
			"0.021": 0.0,
			"0.022": 0.0,
			"0.023": 0.0,
			"0.024": 0.0,
			"0.025": 0.0
		}
	}
}
