{
	 "smiles": "CC1=C(F)C=CC(=C1)C(=O)C=O", 
	 "Tm": 350.15, 
	 "num_atms": 19, 
	 "gaussian": { 
		 "optdone": 1, 
		 "sigma_profile": "yes", 
		 "theory": "DFT", 
		 "functional": "B3LYP", 
		 "basiset": "6-31G**", 
		 "properties": { 
			 "R2extent": 2937.4745, 
			 "electric_dipole_moment_norm": 1.50418215985, 
			 "electric_quadrupole_moment_norm": 4.253214656, 
			 "total_energy": -597.441171755, 
			 "HOMO_LUMO_gap": 0.15114, 
			 "cosmo_polarized_energy": -6.58, 
			 "cosmo_cavitation_energy": 24.54, 
			 "cosmo_dispersion_energy": -17.53, 
			 "cosmo_repulsion_energy": 1.36, 
			 "cosmo_total_nonelectrostatic_energy": 8.37, 
			 "SMD_solvation_energy": 6.52 
		},
		"coords": [
			{
				"x": -0.3478048916,
				"y": -0.8942597451,
				"z": 1.3071282633,
				"element": "C" 
			},
			{
				"x": -0.6255456413,
				"y": -0.222693789,
				"z": -0.0132153857,
				"element": "C" 
			},
			{
				"x": -1.8820029355,
				"y": -0.3412545718,
				"z": -0.6148858808,
				"element": "C" 
			},
			{
				"x": -2.8230225292,
				"y": -1.0680070975,
				"z": 0.0200651239,
				"element": "F" 
			},
			{
				"x": -2.2098948405,
				"y": 0.2506156478,
				"z": -1.8315921511,
				"element": "C" 
			},
			{
				"x": -1.2425202324,
				"y": 0.9991031023,
				"z": -2.4866725199,
				"element": "C" 
			},
			{
				"x": 0.0386694568,
				"y": 1.1501089409,
				"z": -1.9245102461,
				"element": "C" 
			},
			{
				"x": 0.3306081452,
				"y": 0.5353310047,
				"z": -0.6917192842,
				"element": "C" 
			},
			{
				"x": 1.0167883944,
				"y": 1.9626784534,
				"z": -2.6820588507,
				"element": "C" 
			},
			{
				"x": 0.7537993211,
				"y": 2.4946073231,
				"z": -3.7547947687,
				"element": "O" 
			},
			{
				"x": 2.4570384623,
				"y": 2.2177926008,
				"z": -2.1963742596,
				"element": "C" 
			},
			{
				"x": 2.9745669117,
				"y": 1.815056231,
				"z": -1.179447611,
				"element": "O" 
			},
			{
				"x": -1.0293914407,
				"y": -0.5359053933,
				"z": 2.0859190894,
				"element": "H" 
			},
			{
				"x": 0.6766395392,
				"y": -0.7001027724,
				"z": 1.632263999,
				"element": "H" 
			},
			{
				"x": -0.4869135265,
				"y": -1.978410913,
				"z": 1.2380880262,
				"element": "H" 
			},
			{
				"x": -3.2063670696,
				"y": 0.1148270885,
				"z": -2.237614715,
				"element": "H" 
			},
			{
				"x": -1.4537788656,
				"y": 1.4778779159,
				"z": -3.4363823053,
				"element": "H" 
			},
			{
				"x": 1.3166878111,
				"y": 0.652078015,
				"z": -0.2598313661,
				"element": "H" 
			},
			{
				"x": 2.994743931,
				"y": 2.8516579588,
				"z": -2.9324651578,
				"element": "H" 
			}
		],
		 "valence_orbital": [ 
			{
				"type": "occ",
				"energy": -0.35627,
				"method": "rhf"
			},
			{
				"type": "occ",
				"energy": -0.31239,
				"method": "rhf"
			},
			{
				"type": "occ",
				"energy": -0.27076,
				"method": "rhf"
			},
			{
				"type": "occ",
				"energy": -0.25736,
				"method": "rhf"
			},
			{
				"type": "occ",
				"energy": -0.25536,
				"method": "rhf"
			},
			{
				"type": "unocc",
				"energy": -0.10422,
				"method": "rhf"
			},
			{
				"type": "unocc",
				"energy": -0.02964,
				"method": "rhf"
			},
			{
				"type": "unocc",
				"energy": -0.02001,
				"method": "rhf"
			},
			{
				"type": "unocc",
				"energy": 0.06043,
				"method": "rhf"
			},
			{
				"type": "unocc",
				"energy": 0.09194,
				"method": "rhf"
			}
		],
		"cosmo_sigma_profile": { 
			"-0.025": 0.0,
			"-0.024": 0.0,
			"-0.023": 0.0,
			"-0.022": 0.0,
			"-0.021": 0.0,
			"-0.02": 0.0,
			"-0.019": 0.0,
			"-0.018": 0.0,
			"-0.017": 0.0,
			"-0.016": 0.0,
			"-0.015": 0.0,
			"-0.014": 0.0,
			"-0.013": 0.0,
			"-0.012": 0.0,
			"-0.011": 0.0,
			"-0.01": 0.0,
			"-0.009": 0.0136543312689,
			"-0.008": 2.00997958984,
			"-0.007": 8.16449989804,
			"-0.006": 10.324326006,
			"-0.005": 13.2437003619,
			"-0.004": 12.1978355771,
			"-0.003": 13.8879783229,
			"-0.002": 13.642821761,
			"-0.001": 20.5800631034,
			"0.0": 21.4100566092,
			"0.001": 17.4651978792,
			"0.002": 17.1202536264,
			"0.003": 10.9226049615,
			"0.004": 9.37071720288,
			"0.005": 3.77056562427,
			"0.006": 3.02769920015,
			"0.007": 3.50260235301,
			"0.008": 4.05569065677,
			"0.009": 4.45524607946,
			"0.01": 5.09459939247,
			"0.011": 2.81442505146,
			"0.012": 0.122035543664,
			"0.013": 0.0,
			"0.014": 0.0,
			"0.015": 0.0,
			"0.016": 0.0,
			"0.017": 0.0,
			"0.018": 0.0,
			"0.019": 0.0,
			"0.02": 0.0,
			"0.021": 0.0,
			"0.022": 0.0,
			"0.023": 0.0,
			"0.024": 0.0,
			"0.025": 0.0
		}
	}
}
