{
	 "smiles": "[O-][N+](=O)C1=CC=C(Cl)C(Cl)=C1C#N", 
	 "Tm": 364.65, 
	 "num_atms": 15, 
	 "gaussian": { 
		 "optdone": 1, 
		 "sigma_profile": "yes", 
		 "theory": "DFT", 
		 "functional": "B3LYP", 
		 "basiset": "6-31G**", 
		 "properties": { 
			 "R2extent": 3482.1143, 
			 "electric_dipole_moment_norm": 5.67844869309, 
			 "electric_quadrupole_moment_norm": 10.8899156526, 
			 "total_energy": -1448.14194901, 
			 "HOMO_LUMO_gap": 0.16867, 
			 "cosmo_polarized_energy": -13.03, 
			 "cosmo_cavitation_energy": 25.23, 
			 "cosmo_dispersion_energy": -18.34, 
			 "cosmo_repulsion_energy": 1.44, 
			 "cosmo_total_nonelectrostatic_energy": 8.33, 
			 "SMD_solvation_energy": 7.07 
		},
		"coords": [
			{
				"x": 0.7384571982,
				"y": 3.246993658,
				"z": 1.2271539503,
				"element": "O" 
			},
			{
				"x": 1.2621081017,
				"y": 2.4783382152,
				"z": 0.4230954712,
				"element": "N" 
			},
			{
				"x": 2.4409344374,
				"y": 2.4997307404,
				"z": 0.0885862308,
				"element": "O" 
			},
			{
				"x": 0.3907757351,
				"y": 1.4501667231,
				"z": -0.1830542124,
				"element": "C" 
			},
			{
				"x": -0.9449980011,
				"y": 1.4472428558,
				"z": 0.1998929857,
				"element": "C" 
			},
			{
				"x": -1.8127393814,
				"y": 0.5058171014,
				"z": -0.3359697837,
				"element": "C" 
			},
			{
				"x": -1.3467577307,
				"y": -0.4351377699,
				"z": -1.2556976339,
				"element": "C" 
			},
			{
				"x": -2.4693141163,
				"y": -1.5925421727,
				"z": -1.8982700853,
				"element": "Cl" 
			},
			{
				"x": 0.0028364362,
				"y": -0.4376553983,
				"z": -1.646612821,
				"element": "C" 
			},
			{
				"x": 0.5815394478,
				"y": -1.6043308677,
				"z": -2.7865517683,
				"element": "Cl" 
			},
			{
				"x": 0.8991391743,
				"y": 0.51699338,
				"z": -1.1084949688,
				"element": "C" 
			},
			{
				"x": 2.2663496847,
				"y": 0.4748311521,
				"z": -1.5365076765,
				"element": "C" 
			},
			{
				"x": 3.3405286008,
				"y": 0.33708965,
				"z": -1.9589052284,
				"element": "N" 
			},
			{
				"x": -1.2831949143,
				"y": 2.1859912642,
				"z": 0.9143581937,
				"element": "H" 
			},
			{
				"x": -2.8569646726,
				"y": 0.4921714684,
				"z": -0.0465226533,
				"element": "H" 
			}
		],
		 "valence_orbital": [ 
			{
				"type": "occ",
				"energy": -0.3334,
				"method": "rhf"
			},
			{
				"type": "occ",
				"energy": -0.33,
				"method": "rhf"
			},
			{
				"type": "occ",
				"energy": -0.30976,
				"method": "rhf"
			},
			{
				"type": "occ",
				"energy": -0.30162,
				"method": "rhf"
			},
			{
				"type": "occ",
				"energy": -0.29308,
				"method": "rhf"
			},
			{
				"type": "unocc",
				"energy": -0.12441,
				"method": "rhf"
			},
			{
				"type": "unocc",
				"energy": -0.08506,
				"method": "rhf"
			},
			{
				"type": "unocc",
				"energy": -0.03884,
				"method": "rhf"
			},
			{
				"type": "unocc",
				"energy": -0.03117,
				"method": "rhf"
			},
			{
				"type": "unocc",
				"energy": 0.00838,
				"method": "rhf"
			}
		],
		"cosmo_sigma_profile": { 
			"-0.025": 0.0,
			"-0.024": 0.0,
			"-0.023": 0.0,
			"-0.022": 0.0,
			"-0.021": 0.0,
			"-0.02": 0.0,
			"-0.019": 0.0,
			"-0.018": 0.0,
			"-0.017": 0.0,
			"-0.016": 0.0,
			"-0.015": 0.0,
			"-0.014": 0.0,
			"-0.013": 0.0,
			"-0.012": 0.0,
			"-0.011": 0.212304968214,
			"-0.01": 3.62125441534,
			"-0.009": 5.62636208444,
			"-0.008": 5.0605452402,
			"-0.007": 5.197663325,
			"-0.006": 7.84550610514,
			"-0.005": 14.02714872,
			"-0.004": 19.377058751,
			"-0.003": 16.6941731556,
			"-0.002": 14.003485717,
			"-0.001": 11.4647067027,
			"0.0": 11.0324542017,
			"0.001": 11.9642990976,
			"0.002": 20.9681989128,
			"0.003": 10.2659922788,
			"0.004": 5.98668786178,
			"0.005": 5.77225835768,
			"0.006": 10.580136919,
			"0.007": 11.2921406861,
			"0.008": 8.42183249125,
			"0.009": 4.21418097639,
			"0.01": 2.78180599548,
			"0.011": 2.33083397717,
			"0.012": 1.05161789068,
			"0.013": 0.0,
			"0.014": 0.0,
			"0.015": 0.0,
			"0.016": 0.0,
			"0.017": 0.0,
			"0.018": 0.0,
			"0.019": 0.0,
			"0.02": 0.0,
			"0.021": 0.0,
			"0.022": 0.0,
			"0.023": 0.0,
			"0.024": 0.0,
			"0.025": 0.0
		}
	}
}
