{
	 "smiles": "CN1C(N)=CC(C)=CC1=O", 
	 "Tm": 466.15, 
	 "num_atms": 20, 
	 "gaussian": { 
		 "optdone": 1, 
		 "sigma_profile": "yes", 
		 "theory": "DFT", 
		 "functional": "B3LYP", 
		 "basiset": "6-31G**", 
		 "properties": { 
			 "R2extent": 1690.658, 
			 "electric_dipole_moment_norm": 5.40321039753, 
			 "electric_quadrupole_moment_norm": 14.4496258941, 
			 "total_energy": -457.51464681, 
			 "HOMO_LUMO_gap": 0.1769, 
			 "cosmo_polarized_energy": -16.65, 
			 "cosmo_cavitation_energy": 22.89, 
			 "cosmo_dispersion_energy": -17.21, 
			 "cosmo_repulsion_energy": 1.39, 
			 "cosmo_total_nonelectrostatic_energy": 7.07, 
			 "SMD_solvation_energy": 4.78 
		},
		"coords": [
			{
				"x": -0.8161417661,
				"y": 2.5511258351,
				"z": -1.1901616638,
				"element": "C" 
			},
			{
				"x": -0.3837202024,
				"y": 1.5240470931,
				"z": -0.2450756016,
				"element": "N" 
			},
			{
				"x": 0.0337552336,
				"y": 0.2943249412,
				"z": -0.6884268681,
				"element": "C" 
			},
			{
				"x": 0.0023695389,
				"y": 0.0776341338,
				"z": -2.0599572362,
				"element": "N" 
			},
			{
				"x": 0.3988873672,
				"y": -0.6894812308,
				"z": 0.2059946657,
				"element": "C" 
			},
			{
				"x": 0.3332790694,
				"y": -0.4307986369,
				"z": 1.599640213,
				"element": "C" 
			},
			{
				"x": 0.7262911572,
				"y": -1.5211863182,
				"z": 2.5650673542,
				"element": "C" 
			},
			{
				"x": -0.0734092715,
				"y": 0.8020851885,
				"z": 2.0459266633,
				"element": "C" 
			},
			{
				"x": -0.4509093671,
				"y": 1.8625418685,
				"z": 1.1515757792,
				"element": "C" 
			},
			{
				"x": -0.8194053568,
				"y": 2.990431387,
				"z": 1.481319092,
				"element": "O" 
			},
			{
				"x": -1.5739203427,
				"y": 2.1504837275,
				"z": -1.8690496596,
				"element": "H" 
			},
			{
				"x": -1.2278937207,
				"y": 3.3637840489,
				"z": -0.5937265293,
				"element": "H" 
			},
			{
				"x": 0.0280782485,
				"y": 2.9400423149,
				"z": -1.7736889298,
				"element": "H" 
			},
			{
				"x": 0.2522526918,
				"y": 0.863058352,
				"z": -2.6451723578,
				"element": "H" 
			},
			{
				"x": 0.4683556527,
				"y": -0.7726227336,
				"z": -2.3445040214,
				"element": "H" 
			},
			{
				"x": 0.7352484911,
				"y": -1.6502408813,
				"z": -0.168363229,
				"element": "H" 
			},
			{
				"x": 1.7598274983,
				"y": -1.8429943354,
				"z": 2.3913176605,
				"element": "H" 
			},
			{
				"x": 0.6420897999,
				"y": -1.1884878889,
				"z": 3.6021138522,
				"element": "H" 
			},
			{
				"x": 0.0900585077,
				"y": -2.404505223,
				"z": 2.4354836085,
				"element": "H" 
			},
			{
				"x": -0.1290932293,
				"y": 1.0369583576,
				"z": 3.102387208,
				"element": "H" 
			}
		],
		 "valence_orbital": [ 
			{
				"type": "occ",
				"energy": -0.35108,
				"method": "rhf"
			},
			{
				"type": "occ",
				"energy": -0.28105,
				"method": "rhf"
			},
			{
				"type": "occ",
				"energy": -0.26552,
				"method": "rhf"
			},
			{
				"type": "occ",
				"energy": -0.2363,
				"method": "rhf"
			},
			{
				"type": "occ",
				"energy": -0.18941,
				"method": "rhf"
			},
			{
				"type": "unocc",
				"energy": -0.01251,
				"method": "rhf"
			},
			{
				"type": "unocc",
				"energy": 0.03312,
				"method": "rhf"
			},
			{
				"type": "unocc",
				"energy": 0.06268,
				"method": "rhf"
			},
			{
				"type": "unocc",
				"energy": 0.09068,
				"method": "rhf"
			},
			{
				"type": "unocc",
				"energy": 0.11397,
				"method": "rhf"
			}
		],
		"cosmo_sigma_profile": { 
			"-0.025": 0.0,
			"-0.024": 0.0,
			"-0.023": 0.0,
			"-0.022": 0.0,
			"-0.021": 0.0,
			"-0.02": 0.0,
			"-0.019": 0.0,
			"-0.018": 0.0,
			"-0.017": 0.0,
			"-0.016": 0.0,
			"-0.015": 0.0,
			"-0.014": 1.05004325103,
			"-0.013": 2.73004478916,
			"-0.012": 3.10553722973,
			"-0.011": 3.76731509809,
			"-0.01": 2.6066532344,
			"-0.009": 2.4636517262,
			"-0.008": 3.20365131039,
			"-0.007": 3.06670949912,
			"-0.006": 4.84638152314,
			"-0.005": 7.68361081235,
			"-0.004": 15.3330184409,
			"-0.003": 15.0855013137,
			"-0.002": 17.0152909432,
			"-0.001": 12.9959224753,
			"0.0": 12.1734136545,
			"0.001": 11.65181076,
			"0.002": 7.99309104144,
			"0.003": 6.5882130118,
			"0.004": 8.69202639758,
			"0.005": 10.2844545428,
			"0.006": 5.08902089595,
			"0.007": 1.94888322807,
			"0.008": 2.01566599335,
			"0.009": 1.45556442814,
			"0.01": 1.98101889353,
			"0.011": 2.45668397045,
			"0.012": 1.77412475853,
			"0.013": 1.66650666394,
			"0.014": 3.01112672861,
			"0.015": 4.86564030498,
			"0.016": 1.78712176506,
			"0.017": 0.157609979655,
			"0.018": 0.0,
			"0.019": 0.0,
			"0.02": 0.0,
			"0.021": 0.0,
			"0.022": 0.0,
			"0.023": 0.0,
			"0.024": 0.0,
			"0.025": 0.0
		}
	}
}
