{
	 "smiles": "CC1=C(C(NC(=S)N1)C1=CC=CO1)C(=O)OCC1=CC=CC=C1", 
	 "Tm": 437.15, 
	 "num_atms": 39, 
	 "gaussian": { 
		 "optdone": 1, 
		 "sigma_profile": "yes", 
		 "theory": "DFT", 
		 "functional": "B3LYP", 
		 "basiset": "6-31G**", 
		 "properties": { 
			 "R2extent": 9664.1312, 
			 "electric_dipole_moment_norm": 4.45020255045, 
			 "electric_quadrupole_moment_norm": 38.0145351851, 
			 "total_energy": -1390.81340029, 
			 "HOMO_LUMO_gap": 0.15592, 
			 "cosmo_polarized_energy": -20.41, 
			 "cosmo_cavitation_energy": 45.59, 
			 "cosmo_dispersion_energy": -30.73, 
			 "cosmo_repulsion_energy": 2.32, 
			 "cosmo_total_nonelectrostatic_energy": 17.17, 
			 "SMD_solvation_energy": 7.46 
		},
		"coords": [
			{
				"x": 4.2715828703,
				"y": 1.8875966653,
				"z": -0.3869363026,
				"element": "C" 
			},
			{
				"x": 2.8855831333,
				"y": 2.3025717898,
				"z": 0.019180718,
				"element": "C" 
			},
			{
				"x": 1.7132680697,
				"y": 1.669360563,
				"z": -0.2647159677,
				"element": "C" 
			},
			{
				"x": 0.4186654292,
				"y": 2.2045945549,
				"z": 0.3388591411,
				"element": "C" 
			},
			{
				"x": 0.5739690697,
				"y": 3.643401169,
				"z": 0.6246235468,
				"element": "N" 
			},
			{
				"x": 1.7274903048,
				"y": 4.224598587,
				"z": 1.0183854893,
				"element": "C" 
			},
			{
				"x": 1.8312372655,
				"y": 5.7434130282,
				"z": 1.7148748686,
				"element": "S" 
			},
			{
				"x": 2.8566884586,
				"y": 3.4803426182,
				"z": 0.7502229329,
				"element": "N" 
			},
			{
				"x": -0.0232696702,
				"y": 1.4477144053,
				"z": 1.5600049179,
				"element": "C" 
			},
			{
				"x": -1.1642902397,
				"y": 0.7656795092,
				"z": 1.8700157627,
				"element": "C" 
			},
			{
				"x": -0.9998063458,
				"y": 0.2865876443,
				"z": 3.2117100378,
				"element": "C" 
			},
			{
				"x": 0.2266787258,
				"y": 0.7161818528,
				"z": 3.6168834232,
				"element": "C" 
			},
			{
				"x": 0.8367398017,
				"y": 1.4229621219,
				"z": 2.6237707127,
				"element": "O" 
			},
			{
				"x": 1.6385748884,
				"y": 0.4544387832,
				"z": -1.095258882,
				"element": "C" 
			},
			{
				"x": 2.5647127588,
				"y": -0.1693384228,
				"z": -1.5896345193,
				"element": "O" 
			},
			{
				"x": 0.344067862,
				"y": 0.0760195039,
				"z": -1.2775018066,
				"element": "O" 
			},
			{
				"x": 0.1471262805,
				"y": -1.1209472931,
				"z": -2.0694608624,
				"element": "C" 
			},
			{
				"x": -1.3188718775,
				"y": -1.461619091,
				"z": -2.0434405023,
				"element": "C" 
			},
			{
				"x": -1.9153753317,
				"y": -1.9271715312,
				"z": -0.8626942473,
				"element": "C" 
			},
			{
				"x": -3.2727406129,
				"y": -2.2431473022,
				"z": -0.832453397,
				"element": "C" 
			},
			{
				"x": -4.0506144431,
				"y": -2.1038789917,
				"z": -1.9857087327,
				"element": "C" 
			},
			{
				"x": -3.4649738213,
				"y": -1.6443360935,
				"z": -3.1653555121,
				"element": "C" 
			},
			{
				"x": -2.1060114027,
				"y": -1.3222139465,
				"z": -3.1910151172,
				"element": "C" 
			},
			{
				"x": 4.2580600988,
				"y": 0.9327602999,
				"z": -0.9040266768,
				"element": "H" 
			},
			{
				"x": 4.7115638036,
				"y": 2.6486603832,
				"z": -1.0425766949,
				"element": "H" 
			},
			{
				"x": 4.9066939976,
				"y": 1.8136509343,
				"z": 0.5042363779,
				"element": "H" 
			},
			{
				"x": -0.3839939404,
				"y": 2.1047345987,
				"z": -0.3946667209,
				"element": "H" 
			},
			{
				"x": -0.258847003,
				"y": 4.1592270609,
				"z": 0.8745371764,
				"element": "H" 
			},
			{
				"x": 3.7259250237,
				"y": 3.9391894844,
				"z": 0.9834773849,
				"element": "H" 
			},
			{
				"x": -2.0099438652,
				"y": 0.610473655,
				"z": 1.2153991308,
				"element": "H" 
			},
			{
				"x": -1.7016844521,
				"y": -0.2946726815,
				"z": 3.7921767166,
				"element": "H" 
			},
			{
				"x": 0.7869164219,
				"y": 0.614446413,
				"z": 4.5333498414,
				"element": "H" 
			},
			{
				"x": 0.5024612561,
				"y": -0.9372587897,
				"z": -3.087691349,
				"element": "H" 
			},
			{
				"x": 0.7630204862,
				"y": -1.919661443,
				"z": -1.6450478344,
				"element": "H" 
			},
			{
				"x": -1.3111173692,
				"y": -2.0349204837,
				"z": 0.0340728648,
				"element": "H" 
			},
			{
				"x": -3.7237665313,
				"y": -2.6053540599,
				"z": 0.0871044126,
				"element": "H" 
			},
			{
				"x": -5.1070906801,
				"y": -2.3553526667,
				"z": -1.9634794331,
				"element": "H" 
			},
			{
				"x": -4.0636956603,
				"y": -1.5345906471,
				"z": -4.0649493931,
				"element": "H" 
			},
			{
				"x": -1.6525327597,
				"y": -0.9608421819,
				"z": -4.1105715048,
				"element": "H" 
			}
		],
		 "valence_orbital": [ 
			{
				"type": "occ",
				"energy": -0.25442,
				"method": "rhf"
			},
			{
				"type": "occ",
				"energy": -0.24372,
				"method": "rhf"
			},
			{
				"type": "occ",
				"energy": -0.2362,
				"method": "rhf"
			},
			{
				"type": "occ",
				"energy": -0.21424,
				"method": "rhf"
			},
			{
				"type": "occ",
				"energy": -0.21184,
				"method": "rhf"
			},
			{
				"type": "unocc",
				"energy": -0.05592,
				"method": "rhf"
			},
			{
				"type": "unocc",
				"energy": -0.01807,
				"method": "rhf"
			},
			{
				"type": "unocc",
				"energy": -0.01008,
				"method": "rhf"
			},
			{
				"type": "unocc",
				"energy": 0.00128,
				"method": "rhf"
			},
			{
				"type": "unocc",
				"energy": 0.0159,
				"method": "rhf"
			}
		],
		"cosmo_sigma_profile": { 
			"-0.025": 0.0,
			"-0.024": 0.0,
			"-0.023": 0.0,
			"-0.022": 0.0,
			"-0.021": 0.0,
			"-0.02": 0.0,
			"-0.019": 0.0,
			"-0.018": 0.0,
			"-0.017": 0.0,
			"-0.016": 0.305431767231,
			"-0.015": 1.61123514837,
			"-0.014": 1.41635589417,
			"-0.013": 2.52273106642,
			"-0.012": 2.18975456161,
			"-0.011": 2.57411069261,
			"-0.01": 1.66265338129,
			"-0.009": 3.46201717346,
			"-0.008": 5.27498664734,
			"-0.007": 8.20825170711,
			"-0.006": 21.286705488,
			"-0.005": 26.6797155984,
			"-0.004": 26.0096776714,
			"-0.003": 23.9119012894,
			"-0.002": 23.822835979,
			"-0.001": 27.6307490374,
			"0.0": 24.8542224466,
			"0.001": 18.9936543806,
			"0.002": 20.94008025,
			"0.003": 24.7572824093,
			"0.004": 25.1058861064,
			"0.005": 22.3820615571,
			"0.006": 11.2188340611,
			"0.007": 5.96886042613,
			"0.008": 6.15380881526,
			"0.009": 7.02775447116,
			"0.01": 9.08223615845,
			"0.011": 7.83316367252,
			"0.012": 3.67593031261,
			"0.013": 0.346729806505,
			"0.014": 0.0,
			"0.015": 0.0,
			"0.016": 0.0,
			"0.017": 0.0,
			"0.018": 0.0,
			"0.019": 0.0,
			"0.02": 0.0,
			"0.021": 0.0,
			"0.022": 0.0,
			"0.023": 0.0,
			"0.024": 0.0,
			"0.025": 0.0
		}
	}
}
