{
	 "smiles": "NCC1=CC=C(NC(=O)CN2CCC3=C2C=CC=C3)C=C1", 
	 "Tm": 400.15, 
	 "num_atms": 40, 
	 "gaussian": { 
		 "optdone": 1, 
		 "sigma_profile": "yes", 
		 "theory": "DFT", 
		 "functional": "B3LYP", 
		 "basiset": "6-31G**", 
		 "properties": { 
			 "R2extent": 9235.6735, 
			 "electric_dipole_moment_norm": 3.46834050952, 
			 "electric_quadrupole_moment_norm": 16.2777242626, 
			 "total_energy": -898.748898347, 
			 "HOMO_LUMO_gap": 0.16789, 
			 "cosmo_polarized_energy": -19.32, 
			 "cosmo_cavitation_energy": 42.55, 
			 "cosmo_dispersion_energy": -30.4, 
			 "cosmo_repulsion_energy": 2.34, 
			 "cosmo_total_nonelectrostatic_energy": 14.49, 
			 "SMD_solvation_energy": 5.02 
		},
		"coords": [
			{
				"x": 2.1885473852,
				"y": 2.9845065313,
				"z": -5.1274869462,
				"element": "N" 
			},
			{
				"x": 0.7380636993,
				"y": 2.7862883455,
				"z": -5.0331502683,
				"element": "C" 
			},
			{
				"x": 0.3758861839,
				"y": 1.8178518103,
				"z": -3.9238147243,
				"element": "C" 
			},
			{
				"x": 1.1871690124,
				"y": 0.7118388786,
				"z": -3.6385474885,
				"element": "C" 
			},
			{
				"x": 0.8322485038,
				"y": -0.1915349835,
				"z": -2.6430655666,
				"element": "C" 
			},
			{
				"x": -0.3477061225,
				"y": -0.0154056987,
				"z": -1.9029646081,
				"element": "C" 
			},
			{
				"x": -0.6394948856,
				"y": -0.9736869338,
				"z": -0.9047920242,
				"element": "N" 
			},
			{
				"x": -1.7340088559,
				"y": -1.0575583737,
				"z": -0.074402691,
				"element": "C" 
			},
			{
				"x": -2.6744768923,
				"y": -0.2735898795,
				"z": -0.0861948447,
				"element": "O" 
			},
			{
				"x": -1.6717593498,
				"y": -2.2172866394,
				"z": 0.9408672112,
				"element": "C" 
			},
			{
				"x": -0.971542854,
				"y": -1.9111251904,
				"z": 2.1707882605,
				"element": "N" 
			},
			{
				"x": 0.4970239314,
				"y": -1.9167001723,
				"z": 2.225047604,
				"element": "C" 
			},
			{
				"x": 0.8077692624,
				"y": -1.4923141907,
				"z": 3.6793997371,
				"element": "C" 
			},
			{
				"x": -0.4335209281,
				"y": -0.7080455878,
				"z": 4.0556927831,
				"element": "C" 
			},
			{
				"x": -1.4452492543,
				"y": -0.993722194,
				"z": 3.1199590467,
				"element": "C" 
			},
			{
				"x": -2.7113827646,
				"y": -0.4167491327,
				"z": 3.2299679938,
				"element": "C" 
			},
			{
				"x": -2.952638493,
				"y": 0.4298532542,
				"z": 4.3195655149,
				"element": "C" 
			},
			{
				"x": -1.9619918784,
				"y": 0.7053870487,
				"z": 5.263110843,
				"element": "C" 
			},
			{
				"x": -0.6881367683,
				"y": 0.1318494954,
				"z": 5.1281066086,
				"element": "C" 
			},
			{
				"x": -1.1678080159,
				"y": 1.0888098057,
				"z": -2.1740417872,
				"element": "C" 
			},
			{
				"x": -0.7922236341,
				"y": 1.9862981423,
				"z": -3.1737095704,
				"element": "C" 
			},
			{
				"x": 2.4072363837,
				"y": 3.5745180155,
				"z": -5.9259089759,
				"element": "H" 
			},
			{
				"x": 2.5230329749,
				"y": 3.4729433034,
				"z": -4.2999800607,
				"element": "H" 
			},
			{
				"x": 0.1607605228,
				"y": 3.7159924278,
				"z": -4.88855613,
				"element": "H" 
			},
			{
				"x": 0.4077744557,
				"y": 2.3728272484,
				"z": -5.9966492226,
				"element": "H" 
			},
			{
				"x": 2.106147386,
				"y": 0.5767649058,
				"z": -4.1995365841,
				"element": "H" 
			},
			{
				"x": 1.4767977483,
				"y": -1.0436772656,
				"z": -2.4346743715,
				"element": "H" 
			},
			{
				"x": 0.0462039897,
				"y": -1.709316835,
				"z": -0.8123549615,
				"element": "H" 
			},
			{
				"x": -1.2013805259,
				"y": -3.1037799797,
				"z": 0.4959073945,
				"element": "H" 
			},
			{
				"x": -2.709282752,
				"y": -2.473850506,
				"z": 1.1734887056,
				"element": "H" 
			},
			{
				"x": 0.8866367111,
				"y": -2.9093338985,
				"z": 1.9714680337,
				"element": "H" 
			},
			{
				"x": 0.9278895841,
				"y": -1.1868016083,
				"z": 1.5187489361,
				"element": "H" 
			},
			{
				"x": 0.9183627281,
				"y": -2.3752091373,
				"z": 4.3233056238,
				"element": "H" 
			},
			{
				"x": 1.7342993389,
				"y": -0.9154802477,
				"z": 3.7499000928,
				"element": "H" 
			},
			{
				"x": -3.47000067,
				"y": -0.576826372,
				"z": 2.4725600996,
				"element": "H" 
			},
			{
				"x": -3.9305385837,
				"y": 0.893409112,
				"z": 4.4168628481,
				"element": "H" 
			},
			{
				"x": -2.1710889176,
				"y": 1.3733858607,
				"z": 6.0930463299,
				"element": "H" 
			},
			{
				"x": 0.0919213947,
				"y": 0.3507164216,
				"z": 5.8533282454,
				"element": "H" 
			},
			{
				"x": -2.0736852992,
				"y": 1.2322693337,
				"z": -1.6026461802,
				"element": "H" 
			},
			{
				"x": -1.432353751,
				"y": 2.8437848855,
				"z": -3.3691449061,
				"element": "H" 
			}
		],
		 "valence_orbital": [ 
			{
				"type": "occ",
				"energy": -0.24789,
				"method": "rhf"
			},
			{
				"type": "occ",
				"energy": -0.23991,
				"method": "rhf"
			},
			{
				"type": "occ",
				"energy": -0.23298,
				"method": "rhf"
			},
			{
				"type": "occ",
				"energy": -0.21427,
				"method": "rhf"
			},
			{
				"type": "occ",
				"energy": -0.18257,
				"method": "rhf"
			},
			{
				"type": "unocc",
				"energy": -0.01468,
				"method": "rhf"
			},
			{
				"type": "unocc",
				"energy": 0.00112,
				"method": "rhf"
			},
			{
				"type": "unocc",
				"energy": 0.00974,
				"method": "rhf"
			},
			{
				"type": "unocc",
				"energy": 0.02487,
				"method": "rhf"
			},
			{
				"type": "unocc",
				"energy": 0.03833,
				"method": "rhf"
			}
		],
		"cosmo_sigma_profile": { 
			"-0.025": 0.0,
			"-0.024": 0.0,
			"-0.023": 0.0,
			"-0.022": 0.0,
			"-0.021": 0.0,
			"-0.02": 0.0,
			"-0.019": 0.0,
			"-0.018": 0.0,
			"-0.017": 0.0,
			"-0.016": 0.0,
			"-0.015": 0.637581695838,
			"-0.014": 1.23273540921,
			"-0.013": 1.86261211382,
			"-0.012": 1.41110217973,
			"-0.011": 1.92788789338,
			"-0.01": 2.97999975997,
			"-0.009": 4.61968506856,
			"-0.008": 4.68296044562,
			"-0.007": 6.4278469165,
			"-0.006": 7.89545320993,
			"-0.005": 17.9658259028,
			"-0.004": 30.7160103373,
			"-0.003": 36.4221033037,
			"-0.002": 32.4257873559,
			"-0.001": 26.4335333858,
			"0.0": 17.7821432808,
			"0.001": 15.4360960574,
			"0.002": 16.9497445873,
			"0.003": 18.2166360302,
			"0.004": 18.7064015188,
			"0.005": 19.7145970263,
			"0.006": 18.2221267871,
			"0.007": 11.4001381234,
			"0.008": 5.27053289506,
			"0.009": 3.89733897537,
			"0.01": 2.81945744174,
			"0.011": 2.86611652885,
			"0.012": 2.99239149226,
			"0.013": 2.09603502953,
			"0.014": 0.927384038194,
			"0.015": 0.562231000632,
			"0.016": 0.577251460769,
			"0.017": 0.317521915231,
			"0.018": 0.0,
			"0.019": 0.0,
			"0.02": 0.0,
			"0.021": 0.0,
			"0.022": 0.0,
			"0.023": 0.0,
			"0.024": 0.0,
			"0.025": 0.0
		}
	}
}
