{
	 "smiles": "OC(=O)C1=C(SC2CCCC2)C2=C(C=CC=C2)N=C1", 
	 "Tm": 385.15, 
	 "num_atms": 34, 
	 "gaussian": { 
		 "optdone": 1, 
		 "sigma_profile": "yes", 
		 "theory": "DFT", 
		 "functional": "B3LYP", 
		 "basiset": "6-31G**", 
		 "properties": { 
			 "R2extent": 5487.9953, 
			 "electric_dipole_moment_norm": 6.1356455129, 
			 "electric_quadrupole_moment_norm": 19.0524925178, 
			 "total_energy": -1184.04277391, 
			 "HOMO_LUMO_gap": 0.16247, 
			 "cosmo_polarized_energy": -13.07, 
			 "cosmo_cavitation_energy": 37.05, 
			 "cosmo_dispersion_energy": -26.59, 
			 "cosmo_repulsion_energy": 1.98, 
			 "cosmo_total_nonelectrostatic_energy": 12.43, 
			 "SMD_solvation_energy": 4.68 
		},
		"coords": [
			{
				"x": 3.3221396477,
				"y": 0.5064416204,
				"z": -1.2595276204,
				"element": "O" 
			},
			{
				"x": 2.6108646496,
				"y": -0.1664585558,
				"z": -2.1805105288,
				"element": "C" 
			},
			{
				"x": 2.9950911022,
				"y": -0.2211393576,
				"z": -3.3285659839,
				"element": "O" 
			},
			{
				"x": 1.3465985716,
				"y": -0.8813571293,
				"z": -1.7508496424,
				"element": "C" 
			},
			{
				"x": 0.5895934216,
				"y": -0.6840153705,
				"z": -0.5992294214,
				"element": "C" 
			},
			{
				"x": 1.0161810014,
				"y": 0.5439444911,
				"z": 0.6560557313,
				"element": "S" 
			},
			{
				"x": 0.6264536856,
				"y": 2.1589922697,
				"z": -0.2126815634,
				"element": "C" 
			},
			{
				"x": -0.8557653249,
				"y": 2.3053987622,
				"z": -0.5800714479,
				"element": "C" 
			},
			{
				"x": -1.5607786286,
				"y": 2.7248403264,
				"z": 0.7293336767,
				"element": "C" 
			},
			{
				"x": -0.4671373957,
				"y": 3.4086143427,
				"z": 1.6026231146,
				"element": "C" 
			},
			{
				"x": 0.853446374,
				"y": 3.2970086264,
				"z": 0.7994802884,
				"element": "C" 
			},
			{
				"x": -0.564634573,
				"y": -1.5066545594,
				"z": -0.3826253868,
				"element": "C" 
			},
			{
				"x": -0.8822508938,
				"y": -2.4846312421,
				"z": -1.3833304743,
				"element": "C" 
			},
			{
				"x": -2.0128450456,
				"y": -3.3238997806,
				"z": -1.2084999141,
				"element": "C" 
			},
			{
				"x": -2.8036393042,
				"y": -3.2096118735,
				"z": -0.0884332206,
				"element": "C" 
			},
			{
				"x": -2.4950356511,
				"y": -2.2472787672,
				"z": 0.9025396702,
				"element": "C" 
			},
			{
				"x": -1.4062609372,
				"y": -1.4160505621,
				"z": 0.7606742749,
				"element": "C" 
			},
			{
				"x": -0.142732665,
				"y": -2.6462450592,
				"z": -2.518244963,
				"element": "N" 
			},
			{
				"x": 0.9056279631,
				"y": -1.8755591157,
				"z": -2.6782272655,
				"element": "C" 
			},
			{
				"x": 2.876665929,
				"y": 0.4662706868,
				"z": -0.3840799009,
				"element": "H" 
			},
			{
				"x": 1.2979108414,
				"y": 2.2191008647,
				"z": -1.0711323894,
				"element": "H" 
			},
			{
				"x": -0.9240528556,
				"y": 3.109137421,
				"z": -1.3247869471,
				"element": "H" 
			},
			{
				"x": -1.2836059221,
				"y": 1.4102885174,
				"z": -1.0388382131,
				"element": "H" 
			},
			{
				"x": -2.4080027917,
				"y": 3.3869569621,
				"z": 0.5295919899,
				"element": "H" 
			},
			{
				"x": -1.962529948,
				"y": 1.8452127189,
				"z": 1.2408144843,
				"element": "H" 
			},
			{
				"x": -0.3754819178,
				"y": 2.9033704783,
				"z": 2.5684626231,
				"element": "H" 
			},
			{
				"x": -0.7056937624,
				"y": 4.4543015416,
				"z": 1.8167633431,
				"element": "H" 
			},
			{
				"x": 1.7355860486,
				"y": 3.1501664335,
				"z": 1.4302344724,
				"element": "H" 
			},
			{
				"x": 1.0284742357,
				"y": 4.2117415534,
				"z": 0.2210470357,
				"element": "H" 
			},
			{
				"x": -2.217797184,
				"y": -4.048752103,
				"z": -1.9890921857,
				"element": "H" 
			},
			{
				"x": -3.6666328033,
				"y": -3.8563082091,
				"z": 0.0394388255,
				"element": "H" 
			},
			{
				"x": -3.1230142526,
				"y": -2.1645253626,
				"z": 1.7846123448,
				"element": "H" 
			},
			{
				"x": -1.1721187564,
				"y": -0.6866990902,
				"z": 1.5269456512,
				"element": "H" 
			},
			{
				"x": 1.4919771413,
				"y": -2.0032014783,
				"z": -3.5838904578,
				"element": "H" 
			}
		],
		 "valence_orbital": [ 
			{
				"type": "occ",
				"energy": -0.28101,
				"method": "rhf"
			},
			{
				"type": "occ",
				"energy": -0.26515,
				"method": "rhf"
			},
			{
				"type": "occ",
				"energy": -0.26473,
				"method": "rhf"
			},
			{
				"type": "occ",
				"energy": -0.25894,
				"method": "rhf"
			},
			{
				"type": "occ",
				"energy": -0.24585,
				"method": "rhf"
			},
			{
				"type": "unocc",
				"energy": -0.08338,
				"method": "rhf"
			},
			{
				"type": "unocc",
				"energy": -0.04291,
				"method": "rhf"
			},
			{
				"type": "unocc",
				"energy": -0.0105,
				"method": "rhf"
			},
			{
				"type": "unocc",
				"energy": 0.02275,
				"method": "rhf"
			},
			{
				"type": "unocc",
				"energy": 0.02646,
				"method": "rhf"
			}
		],
		"cosmo_sigma_profile": { 
			"-0.025": 0.0,
			"-0.024": 0.0,
			"-0.023": 0.0,
			"-0.022": 0.0,
			"-0.021": 0.0,
			"-0.02": 0.0,
			"-0.019": 0.0,
			"-0.018": 0.0,
			"-0.017": 0.0,
			"-0.016": 0.0,
			"-0.015": 0.0,
			"-0.014": 0.0,
			"-0.013": 0.0,
			"-0.012": 0.0,
			"-0.011": 0.000762113198306,
			"-0.01": 0.349971082549,
			"-0.009": 0.486810708699,
			"-0.008": 1.60811251896,
			"-0.007": 4.87044473695,
			"-0.006": 10.2347763462,
			"-0.005": 15.5908994765,
			"-0.004": 24.4942646188,
			"-0.003": 31.4828909708,
			"-0.002": 37.1057922959,
			"-0.001": 37.0914197424,
			"0.0": 28.9112903672,
			"0.001": 23.637867761,
			"0.002": 17.5983565652,
			"0.003": 16.9718550328,
			"0.004": 6.79963932951,
			"0.005": 4.20143546698,
			"0.006": 3.06207489497,
			"0.007": 3.93229598146,
			"0.008": 3.0755479918,
			"0.009": 4.22849430882,
			"0.01": 5.87564791146,
			"0.011": 6.37279719427,
			"0.012": 4.22614847223,
			"0.013": 2.34033582675,
			"0.014": 0.940814612661,
			"0.015": 0.332314348581,
			"0.016": 0.105868709419,
			"0.017": 0.0,
			"0.018": 0.0,
			"0.019": 0.0,
			"0.02": 0.0,
			"0.021": 0.0,
			"0.022": 0.0,
			"0.023": 0.0,
			"0.024": 0.0,
			"0.025": 0.0
		}
	}
}
