{
	 "smiles": "ClCC1=CSC(=N1)C1=CC=CC=C1", 
	 "Tm": 322.65, 
	 "num_atms": 21, 
	 "gaussian": { 
		 "optdone": 1, 
		 "sigma_profile": "yes", 
		 "theory": "DFT", 
		 "functional": "B3LYP", 
		 "basiset": "6-31G**", 
		 "properties": { 
			 "R2extent": 4094.0486, 
			 "electric_dipole_moment_norm": 2.82736677847, 
			 "electric_quadrupole_moment_norm": 15.1532273945, 
			 "total_energy": -1299.01962329, 
			 "HOMO_LUMO_gap": 0.16905, 
			 "cosmo_polarized_energy": -9.15, 
			 "cosmo_cavitation_energy": 28.79, 
			 "cosmo_dispersion_energy": -21.74, 
			 "cosmo_repulsion_energy": 1.69, 
			 "cosmo_total_nonelectrostatic_energy": 8.73, 
			 "SMD_solvation_energy": 3.14 
		},
		"coords": [
			{
				"x": 3.8958459343,
				"y": -0.3144628624,
				"z": -2.1690890935,
				"element": "Cl" 
			},
			{
				"x": 2.6578557699,
				"y": 0.9908739618,
				"z": -2.5253600621,
				"element": "C" 
			},
			{
				"x": 1.2615822372,
				"y": 0.5392680853,
				"z": -2.2624930869,
				"element": "C" 
			},
			{
				"x": 0.3798874609,
				"y": 0.1052874874,
				"z": -3.2167802979,
				"element": "C" 
			},
			{
				"x": -1.1282399499,
				"y": -0.3197009971,
				"z": -2.4893951068,
				"element": "S" 
			},
			{
				"x": -0.4565275222,
				"y": 0.1301135155,
				"z": -0.9110719958,
				"element": "C" 
			},
			{
				"x": 0.7782206853,
				"y": 0.5492543411,
				"z": -0.9759098396,
				"element": "N" 
			},
			{
				"x": -1.2319659986,
				"y": 0.0349448687,
				"z": 0.3330370444,
				"element": "C" 
			},
			{
				"x": -0.6024359689,
				"y": 0.3473970844,
				"z": 1.5511858212,
				"element": "C" 
			},
			{
				"x": -1.3089556238,
				"y": 0.2666243991,
				"z": 2.7474697426,
				"element": "C" 
			},
			{
				"x": -2.6501657453,
				"y": -0.12623124,
				"z": 2.7504390043,
				"element": "C" 
			},
			{
				"x": -3.2822167177,
				"y": -0.4382514123,
				"z": 1.5450044472,
				"element": "C" 
			},
			{
				"x": -2.5797903084,
				"y": -0.3581567302,
				"z": 0.3446370108,
				"element": "C" 
			},
			{
				"x": 2.9221742945,
				"y": 1.826833851,
				"z": -1.8786119634,
				"element": "H" 
			},
			{
				"x": 2.8046409364,
				"y": 1.2638525435,
				"z": -3.5696439949,
				"element": "H" 
			},
			{
				"x": 0.537835629,
				"y": 0.0072341516,
				"z": -4.2815172125,
				"element": "H" 
			},
			{
				"x": 0.4390902392,
				"y": 0.648200082,
				"z": 1.5355027601,
				"element": "H" 
			},
			{
				"x": -0.8111297029,
				"y": 0.5094096095,
				"z": 3.6817435685,
				"element": "H" 
			},
			{
				"x": -3.1989083266,
				"y": -0.1890754735,
				"z": 3.6855318155,
				"element": "H" 
			},
			{
				"x": -4.3243394133,
				"y": -0.743528904,
				"z": 1.5381989437,
				"element": "H" 
			},
			{
				"x": -3.0868579088,
				"y": -0.6003863613,
				"z": -0.585477505,
				"element": "H" 
			}
		],
		 "valence_orbital": [ 
			{
				"type": "occ",
				"energy": -0.29112,
				"method": "rhf"
			},
			{
				"type": "occ",
				"energy": -0.28174,
				"method": "rhf"
			},
			{
				"type": "occ",
				"energy": -0.27917,
				"method": "rhf"
			},
			{
				"type": "occ",
				"energy": -0.25952,
				"method": "rhf"
			},
			{
				"type": "occ",
				"energy": -0.22839,
				"method": "rhf"
			},
			{
				"type": "unocc",
				"energy": -0.05934,
				"method": "rhf"
			},
			{
				"type": "unocc",
				"energy": -0.01633,
				"method": "rhf"
			},
			{
				"type": "unocc",
				"energy": -0.00706,
				"method": "rhf"
			},
			{
				"type": "unocc",
				"energy": 0.01195,
				"method": "rhf"
			},
			{
				"type": "unocc",
				"energy": 0.03701,
				"method": "rhf"
			}
		],
		"cosmo_sigma_profile": { 
			"-0.025": 0.0,
			"-0.024": 0.0,
			"-0.023": 0.0,
			"-0.022": 0.0,
			"-0.021": 0.0,
			"-0.02": 0.0,
			"-0.019": 0.0,
			"-0.018": 0.0,
			"-0.017": 0.0,
			"-0.016": 0.0,
			"-0.015": 0.0,
			"-0.014": 0.0,
			"-0.013": 0.0,
			"-0.012": 0.0,
			"-0.011": 0.0,
			"-0.01": 1.18680383942,
			"-0.009": 3.12743676651,
			"-0.008": 5.97453272206,
			"-0.007": 6.53382221625,
			"-0.006": 13.4308851331,
			"-0.005": 16.7261611277,
			"-0.004": 15.132272681,
			"-0.003": 13.0459148232,
			"-0.002": 10.8535808918,
			"-0.001": 13.4195019602,
			"0.0": 18.8652773941,
			"0.001": 21.6533346543,
			"0.002": 21.4492603953,
			"0.003": 18.2183963936,
			"0.004": 17.9147017477,
			"0.005": 14.0582277486,
			"0.006": 11.0943123977,
			"0.007": 8.5333426536,
			"0.008": 1.41271054189,
			"0.009": 1.37755114184,
			"0.01": 1.44776603573,
			"0.011": 0.462253675227,
			"0.012": 0.0,
			"0.013": 0.0,
			"0.014": 0.0,
			"0.015": 0.0,
			"0.016": 0.0,
			"0.017": 0.0,
			"0.018": 0.0,
			"0.019": 0.0,
			"0.02": 0.0,
			"0.021": 0.0,
			"0.022": 0.0,
			"0.023": 0.0,
			"0.024": 0.0,
			"0.025": 0.0
		}
	}
}
