{
	 "smiles": "CNCC1=C(C)N(CC2=C(Cl)C=CC=C2)N=C1C", 
	 "Tm": 572.15, 
	 "num_atms": 36, 
	 "gaussian": { 
		 "optdone": 1, 
		 "sigma_profile": "yes", 
		 "theory": "DFT", 
		 "functional": "B3LYP", 
		 "basiset": "6-31G**", 
		 "properties": { 
			 "R2extent": 7474.9016, 
			 "electric_dipole_moment_norm": 1.9581617017, 
			 "electric_quadrupole_moment_norm": 10.9523332468, 
			 "total_energy": -1168.77774383, 
			 "HOMO_LUMO_gap": 0.20555, 
			 "cosmo_polarized_energy": -9.49, 
			 "cosmo_cavitation_energy": 40.29, 
			 "cosmo_dispersion_energy": -27.68, 
			 "cosmo_repulsion_energy": 2.19, 
			 "cosmo_total_nonelectrostatic_energy": 14.8, 
			 "SMD_solvation_energy": 4.75 
		},
		"coords": [
			{
				"x": -0.8440365448,
				"y": -2.0452268776,
				"z": -4.0601090433,
				"element": "C" 
			},
			{
				"x": -0.3641410322,
				"y": -1.7600034718,
				"z": -2.7133806089,
				"element": "N" 
			},
			{
				"x": -0.3092048457,
				"y": -0.323823902,
				"z": -2.4163850587,
				"element": "C" 
			},
			{
				"x": 0.3007533554,
				"y": -0.0479840983,
				"z": -1.0715614094,
				"element": "C" 
			},
			{
				"x": -0.0798010469,
				"y": -0.5819988531,
				"z": 0.1546110015,
				"element": "C" 
			},
			{
				"x": -1.1780960776,
				"y": -1.5372841008,
				"z": 0.4996946271,
				"element": "C" 
			},
			{
				"x": 0.7704818778,
				"y": -0.0464381206,
				"z": 1.0806656984,
				"element": "N" 
			},
			{
				"x": 0.7617480345,
				"y": -0.2342385774,
				"z": 2.5177731567,
				"element": "C" 
			},
			{
				"x": -0.1782205789,
				"y": 0.7031579523,
				"z": 3.2623116067,
				"element": "C" 
			},
			{
				"x": -0.6012083863,
				"y": 0.4271668153,
				"z": 4.5695972297,
				"element": "C" 
			},
			{
				"x": -0.0480324824,
				"y": -1.0382440874,
				"z": 5.3880589206,
				"element": "Cl" 
			},
			{
				"x": -1.4523026567,
				"y": 1.2819626949,
				"z": 5.2688652368,
				"element": "C" 
			},
			{
				"x": -1.8973635748,
				"y": 2.4529913837,
				"z": 4.6570832026,
				"element": "C" 
			},
			{
				"x": -1.4839184353,
				"y": 2.7582262917,
				"z": 3.3601871332,
				"element": "C" 
			},
			{
				"x": -0.6333428298,
				"y": 1.8912111129,
				"z": 2.6757251464,
				"element": "C" 
			},
			{
				"x": 1.671296637,
				"y": 0.8101444029,
				"z": 0.5300457529,
				"element": "N" 
			},
			{
				"x": 1.3962469187,
				"y": 0.8081821614,
				"z": -0.7746200629,
				"element": "C" 
			},
			{
				"x": 2.2144384925,
				"y": 1.6452600025,
				"z": -1.7125566357,
				"element": "C" 
			},
			{
				"x": -0.8087975922,
				"y": -3.1233475545,
				"z": -4.243340317,
				"element": "H" 
			},
			{
				"x": -0.275965703,
				"y": -1.539731566,
				"z": -4.8629541738,
				"element": "H" 
			},
			{
				"x": -1.8893222198,
				"y": -1.7273456113,
				"z": -4.1503926403,
				"element": "H" 
			},
			{
				"x": 0.5661096521,
				"y": -2.1515118878,
				"z": -2.5873863597,
				"element": "H" 
			},
			{
				"x": -1.3421018166,
				"y": 0.0527036802,
				"z": -2.4594351375,
				"element": "H" 
			},
			{
				"x": 0.2465963424,
				"y": 0.2453854893,
				"z": -3.1850985887,
				"element": "H" 
			},
			{
				"x": -0.8194745216,
				"y": -2.3596646765,
				"z": 1.1296665294,
				"element": "H" 
			},
			{
				"x": -1.5700028302,
				"y": -1.9709848782,
				"z": -0.4218089903,
				"element": "H" 
			},
			{
				"x": -1.9938560868,
				"y": -1.0435063794,
				"z": 1.0416168347,
				"element": "H" 
			},
			{
				"x": 0.5003720092,
				"y": -1.2726157535,
				"z": 2.7353186808,
				"element": "H" 
			},
			{
				"x": 1.7907488507,
				"y": -0.0836826364,
				"z": 2.8583667674,
				"element": "H" 
			},
			{
				"x": -1.7578503211,
				"y": 1.0263539536,
				"z": 6.2774663022,
				"element": "H" 
			},
			{
				"x": -2.5611213646,
				"y": 3.1215053075,
				"z": 5.197007968,
				"element": "H" 
			},
			{
				"x": -1.8202849184,
				"y": 3.6722023848,
				"z": 2.8801981646,
				"element": "H" 
			},
			{
				"x": -0.2978694072,
				"y": 2.1332757898,
				"z": 1.6729954071,
				"element": "H" 
			},
			{
				"x": 2.6865005081,
				"y": 1.0374926926,
				"z": -2.4931663662,
				"element": "H" 
			},
			{
				"x": 3.0023399459,
				"y": 2.1546329721,
				"z": -1.1532121808,
				"element": "H" 
			},
			{
				"x": 1.6067826486,
				"y": 2.405077945,
				"z": -2.2174477934,
				"element": "H" 
			}
		],
		 "valence_orbital": [ 
			{
				"type": "occ",
				"energy": -0.25806,
				"method": "rhf"
			},
			{
				"type": "occ",
				"energy": -0.24637,
				"method": "rhf"
			},
			{
				"type": "occ",
				"energy": -0.22976,
				"method": "rhf"
			},
			{
				"type": "occ",
				"energy": -0.22634,
				"method": "rhf"
			},
			{
				"type": "occ",
				"energy": -0.21917,
				"method": "rhf"
			},
			{
				"type": "unocc",
				"energy": -0.01362,
				"method": "rhf"
			},
			{
				"type": "unocc",
				"energy": -0.01187,
				"method": "rhf"
			},
			{
				"type": "unocc",
				"energy": 0.02222,
				"method": "rhf"
			},
			{
				"type": "unocc",
				"energy": 0.03158,
				"method": "rhf"
			},
			{
				"type": "unocc",
				"energy": 0.06221,
				"method": "rhf"
			}
		],
		"cosmo_sigma_profile": { 
			"-0.025": 0.0,
			"-0.024": 0.0,
			"-0.023": 0.0,
			"-0.022": 0.0,
			"-0.021": 0.0,
			"-0.02": 0.0,
			"-0.019": 0.0,
			"-0.018": 0.0,
			"-0.017": 0.0,
			"-0.016": 0.0,
			"-0.015": 0.0,
			"-0.014": 0.0,
			"-0.013": 0.0,
			"-0.012": 0.0,
			"-0.011": 0.0,
			"-0.01": 0.241900169719,
			"-0.009": 0.880891294898,
			"-0.008": 1.54673706557,
			"-0.007": 5.30212645836,
			"-0.006": 11.4304006651,
			"-0.005": 13.2337285894,
			"-0.004": 20.7491609469,
			"-0.003": 28.0022538136,
			"-0.002": 38.1706213265,
			"-0.001": 37.1034761612,
			"0.0": 39.3826772621,
			"0.001": 25.5593332096,
			"0.002": 21.9491309747,
			"0.003": 22.1264280863,
			"0.004": 23.105161853,
			"0.005": 11.5672470592,
			"0.006": 3.67189531696,
			"0.007": 2.8011113461,
			"0.008": 2.65365482973,
			"0.009": 1.79967360031,
			"0.01": 1.79444328053,
			"0.011": 1.92274739917,
			"0.012": 1.63078522068,
			"0.013": 1.10899300848,
			"0.014": 1.03201729683,
			"0.015": 0.539261302694,
			"0.016": 0.690172309284,
			"0.017": 0.193635043173,
			"0.018": 0.0,
			"0.019": 0.0,
			"0.02": 0.0,
			"0.021": 0.0,
			"0.022": 0.0,
			"0.023": 0.0,
			"0.024": 0.0,
			"0.025": 0.0
		}
	}
}
