{
	 "smiles": "CC(C)(O)C#CC1=CC=CC=N1", 
	 "Tm": 356.15, 
	 "num_atms": 23, 
	 "gaussian": { 
		 "optdone": 1, 
		 "sigma_profile": "yes", 
		 "theory": "DFT", 
		 "functional": "B3LYP", 
		 "basiset": "6-31G**", 
		 "properties": { 
			 "R2extent": 3317.5173, 
			 "electric_dipole_moment_norm": 2.22635402845, 
			 "electric_quadrupole_moment_norm": 8.52213475721, 
			 "total_energy": -517.600997136, 
			 "HOMO_LUMO_gap": 0.19503, 
			 "cosmo_polarized_energy": -11.1, 
			 "cosmo_cavitation_energy": 28.04, 
			 "cosmo_dispersion_energy": -19.85, 
			 "cosmo_repulsion_energy": 1.63, 
			 "cosmo_total_nonelectrostatic_energy": 9.82, 
			 "SMD_solvation_energy": 3.85 
		},
		"coords": [
			{
				"x": -2.2649091249,
				"y": -0.8096262769,
				"z": 2.2928704208,
				"element": "C" 
			},
			{
				"x": -1.5192377167,
				"y": -1.7783583337,
				"z": 1.3649702253,
				"element": "C" 
			},
			{
				"x": -2.483470786,
				"y": -2.805457576,
				"z": 0.7408030711,
				"element": "C" 
			},
			{
				"x": -0.5673798661,
				"y": -2.4471346124,
				"z": 2.2056662591,
				"element": "O" 
			},
			{
				"x": -0.8133697857,
				"y": -1.0421007675,
				"z": 0.2952855956,
				"element": "C" 
			},
			{
				"x": -0.2032229194,
				"y": -0.4941134607,
				"z": -0.5980833643,
				"element": "C" 
			},
			{
				"x": 0.5069662859,
				"y": 0.1871523639,
				"z": -1.6411344891,
				"element": "C" 
			},
			{
				"x": 0.5065368972,
				"y": 1.593376085,
				"z": -1.6905534245,
				"element": "C" 
			},
			{
				"x": 1.2014545668,
				"y": 2.2283861462,
				"z": -2.7149172741,
				"element": "C" 
			},
			{
				"x": 1.87542647,
				"y": 1.4482358014,
				"z": -3.6540251761,
				"element": "C" 
			},
			{
				"x": 1.8191933734,
				"y": 0.0588290253,
				"z": -3.5198798122,
				"element": "C" 
			},
			{
				"x": 1.1572470677,
				"y": -0.5732050627,
				"z": -2.5476595613,
				"element": "N" 
			},
			{
				"x": -3.0262762812,
				"y": -0.2524109563,
				"z": 1.7410802506,
				"element": "H" 
			},
			{
				"x": -1.5611939089,
				"y": -0.1041482242,
				"z": 2.7403755254,
				"element": "H" 
			},
			{
				"x": -2.747258216,
				"y": -1.3778597199,
				"z": 3.0933983639,
				"element": "H" 
			},
			{
				"x": -2.9747437602,
				"y": -3.3688514407,
				"z": 1.5395206825,
				"element": "H" 
			},
			{
				"x": -3.2452203473,
				"y": -2.3140289373,
				"z": 0.128280536,
				"element": "H" 
			},
			{
				"x": -1.9366638268,
				"y": -3.5055701429,
				"z": 0.1013515515,
				"element": "H" 
			},
			{
				"x": 0.0018847024,
				"y": -2.9797485334,
				"z": 1.6332731425,
				"element": "H" 
			},
			{
				"x": -0.0303187756,
				"y": 2.1573347429,
				"z": -0.9354861737,
				"element": "H" 
			},
			{
				"x": 1.2174674498,
				"y": 3.3126550537,
				"z": -2.7776937283,
				"element": "H" 
			},
			{
				"x": 2.4313939537,
				"y": 1.8990311122,
				"z": -4.4698523941,
				"element": "H" 
			},
			{
				"x": 2.334694548,
				"y": -0.5808862862,
				"z": -4.2345902266,
				"element": "H" 
			}
		],
		 "valence_orbital": [ 
			{
				"type": "occ",
				"energy": -0.28774,
				"method": "rhf"
			},
			{
				"type": "occ",
				"energy": -0.28313,
				"method": "rhf"
			},
			{
				"type": "occ",
				"energy": -0.26066,
				"method": "rhf"
			},
			{
				"type": "occ",
				"energy": -0.25901,
				"method": "rhf"
			},
			{
				"type": "occ",
				"energy": -0.23717,
				"method": "rhf"
			},
			{
				"type": "unocc",
				"energy": -0.04214,
				"method": "rhf"
			},
			{
				"type": "unocc",
				"energy": -0.02172,
				"method": "rhf"
			},
			{
				"type": "unocc",
				"energy": 0.04483,
				"method": "rhf"
			},
			{
				"type": "unocc",
				"energy": 0.07489,
				"method": "rhf"
			},
			{
				"type": "unocc",
				"energy": 0.08543,
				"method": "rhf"
			}
		],
		"cosmo_sigma_profile": { 
			"-0.025": 0.0,
			"-0.024": 0.0,
			"-0.023": 0.0,
			"-0.022": 0.0,
			"-0.021": 0.0,
			"-0.02": 0.0,
			"-0.019": 0.0,
			"-0.018": 0.0,
			"-0.017": 0.0,
			"-0.016": 0.244886229535,
			"-0.015": 0.689397147543,
			"-0.014": 0.896569122891,
			"-0.013": 0.979102032593,
			"-0.012": 0.857452598287,
			"-0.011": 0.914364830765,
			"-0.01": 0.421743066861,
			"-0.009": 0.542253297142,
			"-0.008": 1.74705930998,
			"-0.007": 7.94376765539,
			"-0.006": 10.9020969465,
			"-0.005": 12.1637475193,
			"-0.004": 17.5726510112,
			"-0.003": 17.2446084437,
			"-0.002": 16.7209389773,
			"-0.001": 18.1017428089,
			"0.0": 20.0940885072,
			"0.001": 21.0216971907,
			"0.002": 19.4000908396,
			"0.003": 10.1719688017,
			"0.004": 8.44267265394,
			"0.005": 8.01237759795,
			"0.006": 4.60934294103,
			"0.007": 3.94298018245,
			"0.008": 2.94545453271,
			"0.009": 2.37744858358,
			"0.01": 2.79772403171,
			"0.011": 1.89448764127,
			"0.012": 2.85240950957,
			"0.013": 3.17227186437,
			"0.014": 1.8125372617,
			"0.015": 0.686463194911,
			"0.016": 0.756772299604,
			"0.017": 0.0149281791147,
			"0.018": 0.0,
			"0.019": 0.0,
			"0.02": 0.0,
			"0.021": 0.0,
			"0.022": 0.0,
			"0.023": 0.0,
			"0.024": 0.0,
			"0.025": 0.0
		}
	}
}
