{
	 "smiles": "COC1=CC=C(C=C1C=O)C(F)(F)F", 
	 "Tm": 360.15, 
	 "num_atms": 21, 
	 "gaussian": { 
		 "optdone": 1, 
		 "sigma_profile": "yes", 
		 "theory": "DFT", 
		 "functional": "B3LYP", 
		 "basiset": "6-31G**", 
		 "properties": { 
			 "R2extent": 6689.2938, 
			 "electric_dipole_moment_norm": 1.76623088242, 
			 "electric_quadrupole_moment_norm": 7.73524556236, 
			 "total_energy": -797.12264421, 
			 "HOMO_LUMO_gap": 0.18195, 
			 "cosmo_polarized_energy": -8.46, 
			 "cosmo_cavitation_energy": 27.01, 
			 "cosmo_dispersion_energy": -19.07, 
			 "cosmo_repulsion_energy": 1.43, 
			 "cosmo_total_nonelectrostatic_energy": 9.37, 
			 "SMD_solvation_energy": 7.64 
		},
		"coords": [
			{
				"x": 0.3750238156,
				"y": -0.4258127062,
				"z": 1.0698703675,
				"element": "C" 
			},
			{
				"x": 0.0680777231,
				"y": 0.1749616296,
				"z": -0.1987576107,
				"element": "O" 
			},
			{
				"x": -1.1952234399,
				"y": 0.0499450423,
				"z": -0.680711307,
				"element": "C" 
			},
			{
				"x": -1.3339380863,
				"y": -0.6764672869,
				"z": -1.8718755075,
				"element": "C" 
			},
			{
				"x": -2.5733506125,
				"y": -0.8350665656,
				"z": -2.4788871252,
				"element": "C" 
			},
			{
				"x": -3.7136125246,
				"y": -0.2629889917,
				"z": -1.9024161251,
				"element": "C" 
			},
			{
				"x": -3.5839868795,
				"y": 0.4823216747,
				"z": -0.7369158427,
				"element": "C" 
			},
			{
				"x": -2.341132174,
				"y": 0.6610766256,
				"z": -0.1069151508,
				"element": "C" 
			},
			{
				"x": -2.3345213923,
				"y": 1.5757882417,
				"z": 1.0576708036,
				"element": "C" 
			},
			{
				"x": -1.381586327,
				"y": 1.8846031339,
				"z": 1.7474679113,
				"element": "O" 
			},
			{
				"x": -5.0638106769,
				"y": -0.4887720488,
				"z": -2.5242771334,
				"element": "C" 
			},
			{
				"x": -4.9931705979,
				"y": -0.5034192795,
				"z": -3.8739208567,
				"element": "F" 
			},
			{
				"x": -5.9492213133,
				"y": 0.4679127162,
				"z": -2.1701621535,
				"element": "F" 
			},
			{
				"x": -5.59387354,
				"y": -1.6763276823,
				"z": -2.1490961927,
				"element": "F" 
			},
			{
				"x": -0.1442755981,
				"y": 0.0810826374,
				"z": 1.8836311016,
				"element": "H" 
			},
			{
				"x": 1.4522919913,
				"y": -0.3065499693,
				"z": 1.1938313128,
				"element": "H" 
			},
			{
				"x": 0.1277053133,
				"y": -1.4939316007,
				"z": 1.0531415073,
				"element": "H" 
			},
			{
				"x": -0.4393726489,
				"y": -1.1116085982,
				"z": -2.3041496105,
				"element": "H" 
			},
			{
				"x": -2.6595138188,
				"y": -1.4019422312,
				"z": -3.4001289585,
				"element": "H" 
			},
			{
				"x": -4.4604022948,
				"y": 0.9589023162,
				"z": -0.3074577961,
				"element": "H" 
			},
			{
				"x": -3.3373069185,
				"y": 2.0116929429,
				"z": 1.2644583663,
				"element": "H" 
			}
		],
		 "valence_orbital": [ 
			{
				"type": "occ",
				"energy": -0.35378,
				"method": "rhf"
			},
			{
				"type": "occ",
				"energy": -0.29709,
				"method": "rhf"
			},
			{
				"type": "occ",
				"energy": -0.28426,
				"method": "rhf"
			},
			{
				"type": "occ",
				"energy": -0.26586,
				"method": "rhf"
			},
			{
				"type": "occ",
				"energy": -0.2595,
				"method": "rhf"
			},
			{
				"type": "unocc",
				"energy": -0.07755,
				"method": "rhf"
			},
			{
				"type": "unocc",
				"energy": -0.03438,
				"method": "rhf"
			},
			{
				"type": "unocc",
				"energy": 0.01803,
				"method": "rhf"
			},
			{
				"type": "unocc",
				"energy": 0.08703,
				"method": "rhf"
			},
			{
				"type": "unocc",
				"energy": 0.10232,
				"method": "rhf"
			}
		],
		"cosmo_sigma_profile": { 
			"-0.025": 0.0,
			"-0.024": 0.0,
			"-0.023": 0.0,
			"-0.022": 0.0,
			"-0.021": 0.0,
			"-0.02": 0.0,
			"-0.019": 0.0,
			"-0.018": 0.0,
			"-0.017": 0.0,
			"-0.016": 0.0,
			"-0.015": 0.0,
			"-0.014": 0.0,
			"-0.013": 0.0,
			"-0.012": 0.0,
			"-0.011": 0.0,
			"-0.01": 0.11348445873,
			"-0.009": 1.98029602138,
			"-0.008": 4.53215767526,
			"-0.007": 7.14595078391,
			"-0.006": 10.1005128938,
			"-0.005": 11.9841004302,
			"-0.004": 12.8658317966,
			"-0.003": 19.0135475533,
			"-0.002": 16.5448221952,
			"-0.001": 13.6548890919,
			"0.0": 19.8117341473,
			"0.001": 19.9618572558,
			"0.002": 23.2130088629,
			"0.003": 27.0860548009,
			"0.004": 3.82385940258,
			"0.005": 2.075199822,
			"0.006": 3.27166352333,
			"0.007": 2.43813936874,
			"0.008": 2.8686957572,
			"0.009": 3.34651401668,
			"0.01": 6.0340384128,
			"0.011": 2.86493595009,
			"0.012": 1.7598326563,
			"0.013": 0.27731345008,
			"0.014": 0.0,
			"0.015": 0.0,
			"0.016": 0.0,
			"0.017": 0.0,
			"0.018": 0.0,
			"0.019": 0.0,
			"0.02": 0.0,
			"0.021": 0.0,
			"0.022": 0.0,
			"0.023": 0.0,
			"0.024": 0.0,
			"0.025": 0.0
		}
	}
}
