{
	 "smiles": "NC1=NC(=O)C2=C(N1)N(COC(CO)CO)C=N2", 
	 "Tm": 523.15, 
	 "num_atms": 31, 
	 "gaussian": { 
		 "optdone": 1, 
		 "sigma_profile": "yes", 
		 "theory": "DFT", 
		 "functional": "B3LYP", 
		 "basiset": "6-31G**", 
		 "properties": { 
			 "R2extent": 4912.321, 
			 "electric_dipole_moment_norm": 12.4257909145, 
			 "electric_quadrupole_moment_norm": 36.6413583283, 
			 "total_energy": -925.415597398, 
			 "HOMO_LUMO_gap": 0.20716, 
			 "cosmo_polarized_energy": -47.58, 
			 "cosmo_cavitation_energy": 34.7, 
			 "cosmo_dispersion_energy": -24.63, 
			 "cosmo_repulsion_energy": 1.9, 
			 "cosmo_total_nonelectrostatic_energy": 11.97, 
			 "SMD_solvation_energy": 3.24 
		},
		"coords": [
			{
				"x": -0.5110272438,
				"y": 2.8074094806,
				"z": 1.7096329162,
				"element": "N" 
			},
			{
				"x": 0.5012069754,
				"y": 2.0129018066,
				"z": 1.1800940773,
				"element": "C" 
			},
			{
				"x": 1.7359057212,
				"y": 2.3965266363,
				"z": 1.2457188828,
				"element": "N" 
			},
			{
				"x": 2.8083927147,
				"y": 1.6008315689,
				"z": 0.7609611031,
				"element": "C" 
			},
			{
				"x": 3.965613725,
				"y": 1.9710573257,
				"z": 0.8624773084,
				"element": "O" 
			},
			{
				"x": 2.3763286994,
				"y": 0.3422728637,
				"z": 0.1382029247,
				"element": "C" 
			},
			{
				"x": 1.0384201671,
				"y": 0.012802574,
				"z": 0.1323246597,
				"element": "C" 
			},
			{
				"x": 0.0568812064,
				"y": 0.811433458,
				"z": 0.6547990883,
				"element": "N" 
			},
			{
				"x": 0.9187745959,
				"y": -1.2064679054,
				"z": -0.4878545147,
				"element": "N" 
			},
			{
				"x": -0.262354901,
				"y": -2.0287432848,
				"z": -0.5618757429,
				"element": "C" 
			},
			{
				"x": -1.3232260886,
				"y": -1.2231577392,
				"z": -1.0377310987,
				"element": "O" 
			},
			{
				"x": -2.649312095,
				"y": -1.6371497194,
				"z": -0.6755024885,
				"element": "C" 
			},
			{
				"x": -3.5644451552,
				"y": -0.970735029,
				"z": -1.7059282226,
				"element": "C" 
			},
			{
				"x": -3.2410687126,
				"y": -1.3822773771,
				"z": -3.0164032659,
				"element": "O" 
			},
			{
				"x": -2.9874128381,
				"y": -1.2627424614,
				"z": 0.7679783877,
				"element": "C" 
			},
			{
				"x": -2.7935569837,
				"y": 0.1442132754,
				"z": 0.9381504759,
				"element": "O" 
			},
			{
				"x": 2.2276199121,
				"y": -1.5589703572,
				"z": -0.8332916141,
				"element": "C" 
			},
			{
				"x": 3.1051685581,
				"y": -0.6639975786,
				"z": -0.4774009131,
				"element": "N" 
			},
			{
				"x": -0.1506644098,
				"y": 3.7231256501,
				"z": 1.9477744272,
				"element": "H" 
			},
			{
				"x": -1.3556225739,
				"y": 2.8557969536,
				"z": 1.1519169963,
				"element": "H" 
			},
			{
				"x": -0.9332655112,
				"y": 0.56633119,
				"z": 0.6251125052,
				"element": "H" 
			},
			{
				"x": -0.0526319858,
				"y": -2.8655591403,
				"z": -1.2415524941,
				"element": "H" 
			},
			{
				"x": -0.5059437174,
				"y": -2.4388973492,
				"z": 0.4290535558,
				"element": "H" 
			},
			{
				"x": -2.7454423514,
				"y": -2.7279950037,
				"z": -0.782025908,
				"element": "H" 
			},
			{
				"x": -3.5030701634,
				"y": 0.1199369777,
				"z": -1.5839231878,
				"element": "H" 
			},
			{
				"x": -4.5997966947,
				"y": -1.2740148966,
				"z": -1.5194782494,
				"element": "H" 
			},
			{
				"x": -2.3150623633,
				"y": -1.1381935379,
				"z": -3.1548098065,
				"element": "H" 
			},
			{
				"x": -4.0320583803,
				"y": -1.5430098178,
				"z": 0.9642990711,
				"element": "H" 
			},
			{
				"x": -2.3580698061,
				"y": -1.8276485753,
				"z": 1.4700553807,
				"element": "H" 
			},
			{
				"x": -2.988473506,
				"y": 0.3723992614,
				"z": 1.8567664414,
				"element": "H" 
			},
			{
				"x": 2.4310932059,
				"y": -2.4909792487,
				"z": -1.344140695,
				"element": "H" 
			}
		],
		 "valence_orbital": [ 
			{
				"type": "occ",
				"energy": -0.2721,
				"method": "rhf"
			},
			{
				"type": "occ",
				"energy": -0.25836,
				"method": "rhf"
			},
			{
				"type": "occ",
				"energy": -0.2442,
				"method": "rhf"
			},
			{
				"type": "occ",
				"energy": -0.21311,
				"method": "rhf"
			},
			{
				"type": "occ",
				"energy": -0.20732,
				"method": "rhf"
			},
			{
				"type": "unocc",
				"energy": -0.00016,
				"method": "rhf"
			},
			{
				"type": "unocc",
				"energy": 0.00865,
				"method": "rhf"
			},
			{
				"type": "unocc",
				"energy": 0.0214,
				"method": "rhf"
			},
			{
				"type": "unocc",
				"energy": 0.04104,
				"method": "rhf"
			},
			{
				"type": "unocc",
				"energy": 0.05735,
				"method": "rhf"
			}
		],
		"cosmo_sigma_profile": { 
			"-0.025": 0.0,
			"-0.024": 0.0,
			"-0.023": 0.0,
			"-0.022": 0.0,
			"-0.021": 0.0,
			"-0.02": 0.0,
			"-0.019": 0.0,
			"-0.018": 0.0,
			"-0.017": 0.759235949082,
			"-0.016": 0.983495000957,
			"-0.015": 1.17585377424,
			"-0.014": 1.04535087142,
			"-0.013": 3.53897857051,
			"-0.012": 4.39443047839,
			"-0.011": 5.60670781049,
			"-0.01": 8.0557710038,
			"-0.009": 10.0662024092,
			"-0.008": 13.0712981539,
			"-0.007": 17.3502879124,
			"-0.006": 21.7014817882,
			"-0.005": 14.4100673757,
			"-0.004": 10.8304320133,
			"-0.003": 11.3025971115,
			"-0.002": 11.74814623,
			"-0.001": 13.257623399,
			"0.0": 11.7909131637,
			"0.001": 11.1678795164,
			"0.002": 8.03565108225,
			"0.003": 7.99918702229,
			"0.004": 8.8579725097,
			"0.005": 7.46219847092,
			"0.006": 5.78918655745,
			"0.007": 5.17301675135,
			"0.008": 5.48278988119,
			"0.009": 5.56666600363,
			"0.01": 4.83336785427,
			"0.011": 4.09317499842,
			"0.012": 5.50853176639,
			"0.013": 5.64433044171,
			"0.014": 10.6862441298,
			"0.015": 7.69681901716,
			"0.016": 5.28936755506,
			"0.017": 2.96314525514,
			"0.018": 0.698137751073,
			"0.019": 0.0,
			"0.02": 0.0,
			"0.021": 0.0,
			"0.022": 0.0,
			"0.023": 0.0,
			"0.024": 0.0,
			"0.025": 0.0
		}
	}
}
