{
	 "smiles": "CC(C)C(OC1=C(F)C=C(F)C=C1)C(O)=O", 
	 "Tm": 341.15, 
	 "num_atms": 28, 
	 "gaussian": { 
		 "optdone": 1, 
		 "sigma_profile": "yes", 
		 "theory": "DFT", 
		 "functional": "B3LYP", 
		 "basiset": "6-31G**", 
		 "properties": { 
			 "R2extent": 4947.26, 
			 "electric_dipole_moment_norm": 2.25203673816, 
			 "electric_quadrupole_moment_norm": 8.37959945284, 
			 "total_energy": -851.747152234, 
			 "HOMO_LUMO_gap": 0.20952, 
			 "cosmo_polarized_energy": -10.86, 
			 "cosmo_cavitation_energy": 32.34, 
			 "cosmo_dispersion_energy": -22.36, 
			 "cosmo_repulsion_energy": 1.72, 
			 "cosmo_total_nonelectrostatic_energy": 11.7, 
			 "SMD_solvation_energy": 7.52 
		},
		"coords": [
			{
				"x": 3.0877908575,
				"y": -0.0725506167,
				"z": 1.0777989727,
				"element": "C" 
			},
			{
				"x": 1.7763961797,
				"y": -0.4917772744,
				"z": 0.3999342806,
				"element": "C" 
			},
			{
				"x": 1.0711941473,
				"y": -1.625819709,
				"z": 1.1567365005,
				"element": "C" 
			},
			{
				"x": 0.8368978563,
				"y": 0.7126905636,
				"z": 0.1366733609,
				"element": "C" 
			},
			{
				"x": -0.1358241436,
				"y": 0.2360460838,
				"z": -0.7915674213,
				"element": "O" 
			},
			{
				"x": -1.1159874242,
				"y": 1.0281804442,
				"z": -1.322606934,
				"element": "C" 
			},
			{
				"x": -1.2003255765,
				"y": 2.4246233095,
				"z": -1.25949523,
				"element": "C" 
			},
			{
				"x": -0.2656591707,
				"y": 3.1375515302,
				"z": -0.5781548444,
				"element": "F" 
			},
			{
				"x": -2.2278319641,
				"y": 3.133560336,
				"z": -1.8696982883,
				"element": "C" 
			},
			{
				"x": -3.1923608331,
				"y": 2.4269905557,
				"z": -2.5746585326,
				"element": "C" 
			},
			{
				"x": -4.1906543348,
				"y": 3.1072146825,
				"z": -3.1759178489,
				"element": "F" 
			},
			{
				"x": -3.1495463158,
				"y": 1.040961555,
				"z": -2.6719817909,
				"element": "C" 
			},
			{
				"x": -2.11333531,
				"y": 0.3572641745,
				"z": -2.0422477615,
				"element": "C" 
			},
			{
				"x": 0.1559669579,
				"y": 1.2259662505,
				"z": 1.4048828421,
				"element": "C" 
			},
			{
				"x": 1.0028653374,
				"y": 1.9784404741,
				"z": 2.1451008251,
				"element": "O" 
			},
			{
				"x": -0.9823323737,
				"y": 0.9913016731,
				"z": 1.7350838328,
				"element": "O" 
			},
			{
				"x": 3.763039508,
				"y": -0.9316586296,
				"z": 1.1409652761,
				"element": "H" 
			},
			{
				"x": 3.5995390155,
				"y": 0.7150472203,
				"z": 0.5143735885,
				"element": "H" 
			},
			{
				"x": 2.9190594299,
				"y": 0.2994289194,
				"z": 2.0919743406,
				"element": "H" 
			},
			{
				"x": 2.0160175853,
				"y": -0.853440179,
				"z": -0.6083099046,
				"element": "H" 
			},
			{
				"x": 0.8567587162,
				"y": -1.3435087117,
				"z": 2.1936540307,
				"element": "H" 
			},
			{
				"x": 1.7072021617,
				"y": -2.5162603378,
				"z": 1.1813312415,
				"element": "H" 
			},
			{
				"x": 0.1258452558,
				"y": -1.8907277557,
				"z": 0.6773339843,
				"element": "H" 
			},
			{
				"x": 1.4170961605,
				"y": 1.5330996662,
				"z": -0.2959364136,
				"element": "H" 
			},
			{
				"x": -2.261319757,
				"y": 4.2135800723,
				"z": -1.7926227629,
				"element": "H" 
			},
			{
				"x": -3.9172588095,
				"y": 0.5139179088,
				"z": -3.2267292302,
				"element": "H" 
			},
			{
				"x": -2.0516390423,
				"y": -0.7244152884,
				"z": -2.0912251673,
				"element": "H" 
			},
			{
				"x": 0.5047058861,
				"y": 2.2494930825,
				"z": 2.9351090543,
				"element": "H" 
			}
		],
		 "valence_orbital": [ 
			{
				"type": "occ",
				"energy": -0.32489,
				"method": "rhf"
			},
			{
				"type": "occ",
				"energy": -0.31711,
				"method": "rhf"
			},
			{
				"type": "occ",
				"energy": -0.28172,
				"method": "rhf"
			},
			{
				"type": "occ",
				"energy": -0.25871,
				"method": "rhf"
			},
			{
				"type": "occ",
				"energy": -0.22105,
				"method": "rhf"
			},
			{
				"type": "unocc",
				"energy": -0.01153,
				"method": "rhf"
			},
			{
				"type": "unocc",
				"energy": 0.00015,
				"method": "rhf"
			},
			{
				"type": "unocc",
				"energy": 0.00959,
				"method": "rhf"
			},
			{
				"type": "unocc",
				"energy": 0.06767,
				"method": "rhf"
			},
			{
				"type": "unocc",
				"energy": 0.06794,
				"method": "rhf"
			}
		],
		"cosmo_sigma_profile": { 
			"-0.025": 0.0,
			"-0.024": 0.0,
			"-0.023": 0.0,
			"-0.022": 0.0,
			"-0.021": 0.0,
			"-0.02": 0.0,
			"-0.019": 0.233136269614,
			"-0.018": 1.179867987,
			"-0.017": 0.857888590065,
			"-0.016": 0.84618346731,
			"-0.015": 0.5622180762,
			"-0.014": 0.455395080949,
			"-0.013": 0.702844798757,
			"-0.012": 0.761624607172,
			"-0.011": 0.958873225503,
			"-0.01": 1.08172656962,
			"-0.009": 1.27705657212,
			"-0.008": 2.71441966626,
			"-0.007": 5.25773955875,
			"-0.006": 8.90079457798,
			"-0.005": 8.54442259071,
			"-0.004": 13.1784729101,
			"-0.003": 19.4795475124,
			"-0.002": 20.5971145533,
			"-0.001": 20.040987505,
			"0.0": 26.5254926627,
			"0.001": 29.7412979231,
			"0.002": 22.2139147722,
			"0.003": 18.9665796448,
			"0.004": 19.270322549,
			"0.005": 7.98713913032,
			"0.006": 4.562351048,
			"0.007": 3.9383031769,
			"0.008": 3.03617523819,
			"0.009": 2.56538203882,
			"0.01": 2.55556028894,
			"0.011": 4.74374376098,
			"0.012": 1.80701768904,
			"0.013": 0.0,
			"0.014": 0.0,
			"0.015": 0.0,
			"0.016": 0.0,
			"0.017": 0.0,
			"0.018": 0.0,
			"0.019": 0.0,
			"0.02": 0.0,
			"0.021": 0.0,
			"0.022": 0.0,
			"0.023": 0.0,
			"0.024": 0.0,
			"0.025": 0.0
		}
	}
}
