{
	 "smiles": "NC1=CC(=CC=C1)C(=O)C1=CC(N)=CC=C1", 
	 "Tm": 447.15, 
	 "num_atms": 28, 
	 "gaussian": { 
		 "optdone": 1, 
		 "sigma_profile": "yes", 
		 "theory": "DFT", 
		 "functional": "B3LYP", 
		 "basiset": "6-31G**", 
		 "properties": { 
			 "R2extent": 4654.2567, 
			 "electric_dipole_moment_norm": 2.9653716563, 
			 "electric_quadrupole_moment_norm": 22.9155521932, 
			 "total_energy": -687.351439299, 
			 "HOMO_LUMO_gap": 0.15098, 
			 "cosmo_polarized_energy": -17.94, 
			 "cosmo_cavitation_energy": 32.28, 
			 "cosmo_dispersion_energy": -23.44, 
			 "cosmo_repulsion_energy": 1.84, 
			 "cosmo_total_nonelectrostatic_energy": 10.67, 
			 "SMD_solvation_energy": 5.73 
		},
		"coords": [
			{
				"x": 0.6430439214,
				"y": 3.913791616,
				"z": -1.5146068383,
				"element": "N" 
			},
			{
				"x": 0.1691800038,
				"y": 2.985992822,
				"z": -0.5860121447,
				"element": "C" 
			},
			{
				"x": 0.5582694456,
				"y": 1.6418974038,
				"z": -0.6524672808,
				"element": "C" 
			},
			{
				"x": 0.0285609184,
				"y": 0.6910708836,
				"z": 0.2279852737,
				"element": "C" 
			},
			{
				"x": -0.884525751,
				"y": 1.0876426025,
				"z": 1.2178219175,
				"element": "C" 
			},
			{
				"x": -1.2589641411,
				"y": 2.4298684237,
				"z": 1.2999026046,
				"element": "C" 
			},
			{
				"x": -0.7516621138,
				"y": 3.3698763637,
				"z": 0.4075316712,
				"element": "C" 
			},
			{
				"x": 0.552388273,
				"y": -0.712746423,
				"z": 0.1150409097,
				"element": "C" 
			},
			{
				"x": 1.6740109168,
				"y": -0.9082949188,
				"z": -0.3421574141,
				"element": "O" 
			},
			{
				"x": -0.2832748772,
				"y": -1.8797788691,
				"z": 0.5563172643,
				"element": "C" 
			},
			{
				"x": -1.6818539963,
				"y": -1.8678998374,
				"z": 0.4866598824,
				"element": "C" 
			},
			{
				"x": -2.4302387915,
				"y": -3.0031059742,
				"z": 0.8398688135,
				"element": "C" 
			},
			{
				"x": -3.8268226312,
				"y": -2.9713121881,
				"z": 0.8072700204,
				"element": "N" 
			},
			{
				"x": -1.7472899357,
				"y": -4.1487835643,
				"z": 1.2809760411,
				"element": "C" 
			},
			{
				"x": -0.3540942729,
				"y": -4.1602905659,
				"z": 1.3438768711,
				"element": "C" 
			},
			{
				"x": 0.3855748278,
				"y": -3.0411755303,
				"z": 0.9730504294,
				"element": "C" 
			},
			{
				"x": 0.6408220867,
				"y": 4.8754225388,
				"z": -1.203514528,
				"element": "H" 
			},
			{
				"x": 1.5143261552,
				"y": 3.6637476933,
				"z": -1.9619208467,
				"element": "H" 
			},
			{
				"x": 1.2865624719,
				"y": 1.3128311848,
				"z": -1.3877801277,
				"element": "H" 
			},
			{
				"x": -1.2702352718,
				"y": 0.3678740189,
				"z": 1.9301343896,
				"element": "H" 
			},
			{
				"x": -1.9528060076,
				"y": 2.7500094481,
				"z": 2.0721993109,
				"element": "H" 
			},
			{
				"x": -1.0632297622,
				"y": 4.4095799625,
				"z": 0.4752105906,
				"element": "H" 
			},
			{
				"x": -2.1989284252,
				"y": -0.9798387396,
				"z": 0.1363445701,
				"element": "H" 
			},
			{
				"x": -4.2731506751,
				"y": -3.8727112918,
				"z": 0.7072303092,
				"element": "H" 
			},
			{
				"x": -4.2238112762,
				"y": -2.2861162087,
				"z": 0.1789281068,
				"element": "H" 
			},
			{
				"x": -2.3139273789,
				"y": -5.030553055,
				"z": 1.5707573276,
				"element": "H" 
			},
			{
				"x": 0.1545715619,
				"y": -5.059452878,
				"z": 1.6802733341,
				"element": "H" 
			},
			{
				"x": 1.469204725,
				"y": -3.0431449175,
				"z": 0.9939795424,
				"element": "H" 
			}
		],
		 "valence_orbital": [ 
			{
				"type": "occ",
				"energy": -0.25243,
				"method": "rhf"
			},
			{
				"type": "occ",
				"energy": -0.24961,
				"method": "rhf"
			},
			{
				"type": "occ",
				"energy": -0.23593,
				"method": "rhf"
			},
			{
				"type": "occ",
				"energy": -0.20732,
				"method": "rhf"
			},
			{
				"type": "occ",
				"energy": -0.20387,
				"method": "rhf"
			},
			{
				"type": "unocc",
				"energy": -0.05289,
				"method": "rhf"
			},
			{
				"type": "unocc",
				"energy": -0.00302,
				"method": "rhf"
			},
			{
				"type": "unocc",
				"energy": 0.00846,
				"method": "rhf"
			},
			{
				"type": "unocc",
				"energy": 0.01784,
				"method": "rhf"
			},
			{
				"type": "unocc",
				"energy": 0.06729,
				"method": "rhf"
			}
		],
		"cosmo_sigma_profile": { 
			"-0.025": 0.0,
			"-0.024": 0.0,
			"-0.023": 0.0,
			"-0.022": 0.0,
			"-0.021": 0.0,
			"-0.02": 0.0,
			"-0.019": 0.0,
			"-0.018": 0.0,
			"-0.017": 0.0,
			"-0.016": 0.0,
			"-0.015": 0.0,
			"-0.014": 0.0,
			"-0.013": 1.15816840462,
			"-0.012": 5.11203194886,
			"-0.011": 6.67135726353,
			"-0.01": 5.87386811931,
			"-0.009": 6.72859507268,
			"-0.008": 5.14738594954,
			"-0.007": 7.0180582451,
			"-0.006": 10.3946287546,
			"-0.005": 12.8369483838,
			"-0.004": 15.7750505553,
			"-0.003": 14.1122884077,
			"-0.002": 14.1339092383,
			"-0.001": 16.2341689376,
			"0.0": 13.7214573373,
			"0.001": 12.8107089345,
			"0.002": 13.7314852907,
			"0.003": 15.4517678176,
			"0.004": 17.7004648688,
			"0.005": 24.5077787453,
			"0.006": 8.61670158927,
			"0.007": 3.83922533565,
			"0.008": 3.91875034618,
			"0.009": 3.8031333826,
			"0.01": 3.67108824977,
			"0.011": 4.30625043492,
			"0.012": 4.77476501447,
			"0.013": 3.44048521636,
			"0.014": 1.39373380197,
			"0.015": 0.130801236756,
			"0.016": 0.0,
			"0.017": 0.0,
			"0.018": 0.0,
			"0.019": 0.0,
			"0.02": 0.0,
			"0.021": 0.0,
			"0.022": 0.0,
			"0.023": 0.0,
			"0.024": 0.0,
			"0.025": 0.0
		}
	}
}
