{
	 "smiles": "CCCCC(CC)CO[N+]([O-])=O", 
	 "Tm": 348.15, 
	 "num_atms": 29, 
	 "gaussian": { 
		 "optdone": 1, 
		 "sigma_profile": "yes", 
		 "theory": "DFT", 
		 "functional": "B3LYP", 
		 "basiset": "6-31G**", 
		 "properties": { 
			 "R2extent": 3661.8381, 
			 "electric_dipole_moment_norm": 3.70193070303, 
			 "electric_quadrupole_moment_norm": 13.3631034262, 
			 "total_energy": -595.395399416, 
			 "HOMO_LUMO_gap": 0.24664, 
			 "cosmo_polarized_energy": -5.9, 
			 "cosmo_cavitation_energy": 30.97, 
			 "cosmo_dispersion_energy": -21.36, 
			 "cosmo_repulsion_energy": 1.76, 
			 "cosmo_total_nonelectrostatic_energy": 11.37, 
			 "SMD_solvation_energy": 7.9 
		},
		"coords": [
			{
				"x": -2.2360013538,
				"y": -1.5324186458,
				"z": 2.8594702659,
				"element": "C" 
			},
			{
				"x": -2.2664467834,
				"y": -0.3544002281,
				"z": 1.8783486914,
				"element": "C" 
			},
			{
				"x": -0.9384614662,
				"y": 0.4182171036,
				"z": 1.7659709086,
				"element": "C" 
			},
			{
				"x": 0.2965750792,
				"y": -0.3472082642,
				"z": 1.2473898477,
				"element": "C" 
			},
			{
				"x": 0.4002524507,
				"y": -0.6614849809,
				"z": -0.2686714439,
				"element": "C" 
			},
			{
				"x": 0.2633015427,
				"y": 0.5692760539,
				"z": -1.1888184567,
				"element": "C" 
			},
			{
				"x": 1.322539526,
				"y": 1.6523158826,
				"z": -0.958244385,
				"element": "C" 
			},
			{
				"x": -0.5624927092,
				"y": -1.7749195856,
				"z": -0.6946409895,
				"element": "C" 
			},
			{
				"x": -0.0603943326,
				"y": -2.2672416384,
				"z": -1.9651671422,
				"element": "O" 
			},
			{
				"x": -0.8624812144,
				"y": -3.2669460612,
				"z": -2.5534422354,
				"element": "N" 
			},
			{
				"x": -0.4284821797,
				"y": -3.6533681198,
				"z": -3.6120768083,
				"element": "O" 
			},
			{
				"x": -1.8595508315,
				"y": -3.6159263324,
				"z": -1.9514661376,
				"element": "O" 
			},
			{
				"x": -1.5361640043,
				"y": -2.3146285353,
				"z": 2.5471512398,
				"element": "H" 
			},
			{
				"x": -1.9351110106,
				"y": -1.2027925181,
				"z": 3.8607542031,
				"element": "H" 
			},
			{
				"x": -3.2236229653,
				"y": -1.99659644,
				"z": 2.9451834947,
				"element": "H" 
			},
			{
				"x": -2.5938546991,
				"y": -0.7068079168,
				"z": 0.8929363348,
				"element": "H" 
			},
			{
				"x": -3.0379933139,
				"y": 0.354612645,
				"z": 2.2047422256,
				"element": "H" 
			},
			{
				"x": -1.0985953442,
				"y": 1.3119267329,
				"z": 1.1502921551,
				"element": "H" 
			},
			{
				"x": -0.6882553046,
				"y": 0.7945425231,
				"z": 2.7672725636,
				"element": "H" 
			},
			{
				"x": 0.4112827025,
				"y": -1.2855381964,
				"z": 1.8048789394,
				"element": "H" 
			},
			{
				"x": 1.1806020514,
				"y": 0.2468343566,
				"z": 1.5052105789,
				"element": "H" 
			},
			{
				"x": 1.4096675453,
				"y": -1.071940521,
				"z": -0.4166222727,
				"element": "H" 
			},
			{
				"x": 0.3263328293,
				"y": 0.2237972298,
				"z": -2.22669478,
				"element": "H" 
			},
			{
				"x": -0.7392271945,
				"y": 1.0024760482,
				"z": -1.0744530047,
				"element": "H" 
			},
			{
				"x": 1.22109188,
				"y": 2.4560582722,
				"z": -1.6942161187,
				"element": "H" 
			},
			{
				"x": 1.2409764299,
				"y": 2.1058495752,
				"z": 0.0347560653,
				"element": "H" 
			},
			{
				"x": 2.3344207954,
				"y": 1.2421775694,
				"z": -1.0545242414,
				"element": "H" 
			},
			{
				"x": -0.5772817116,
				"y": -2.6014710651,
				"z": 0.0221006304,
				"element": "H" 
			},
			{
				"x": -1.5858264133,
				"y": -1.4195949434,
				"z": -0.8374201281,
				"element": "H" 
			}
		],
		 "valence_orbital": [ 
			{
				"type": "occ",
				"energy": -0.32662,
				"method": "rhf"
			},
			{
				"type": "occ",
				"energy": -0.32283,
				"method": "rhf"
			},
			{
				"type": "occ",
				"energy": -0.3182,
				"method": "rhf"
			},
			{
				"type": "occ",
				"energy": -0.31195,
				"method": "rhf"
			},
			{
				"type": "occ",
				"energy": -0.30621,
				"method": "rhf"
			},
			{
				"type": "unocc",
				"energy": -0.05957,
				"method": "rhf"
			},
			{
				"type": "unocc",
				"energy": 0.05408,
				"method": "rhf"
			},
			{
				"type": "unocc",
				"energy": 0.05928,
				"method": "rhf"
			},
			{
				"type": "unocc",
				"energy": 0.08948,
				"method": "rhf"
			},
			{
				"type": "unocc",
				"energy": 0.09453,
				"method": "rhf"
			}
		],
		"cosmo_sigma_profile": { 
			"-0.025": 0.0,
			"-0.024": 0.0,
			"-0.023": 0.0,
			"-0.022": 0.0,
			"-0.021": 0.0,
			"-0.02": 0.0,
			"-0.019": 0.0,
			"-0.018": 0.0,
			"-0.017": 0.0,
			"-0.016": 0.0,
			"-0.015": 0.0,
			"-0.014": 0.0,
			"-0.013": 0.0,
			"-0.012": 0.0,
			"-0.011": 0.0,
			"-0.01": 0.0,
			"-0.009": 0.0,
			"-0.008": 0.800347157396,
			"-0.007": 1.79736557935,
			"-0.006": 5.3739109855,
			"-0.005": 7.99274614246,
			"-0.004": 9.25139371741,
			"-0.003": 19.4904472211,
			"-0.002": 37.5951330027,
			"-0.001": 36.3957130245,
			"0.0": 35.9116556999,
			"0.001": 31.7026542691,
			"0.002": 11.889545514,
			"0.003": 4.00125731833,
			"0.004": 4.71791539805,
			"0.005": 5.84328492017,
			"0.006": 11.8627941882,
			"0.007": 10.3358981139,
			"0.008": 4.46411550153,
			"0.009": 0.18398639441,
			"0.01": 0.0,
			"0.011": 0.0,
			"0.012": 0.0,
			"0.013": 0.0,
			"0.014": 0.0,
			"0.015": 0.0,
			"0.016": 0.0,
			"0.017": 0.0,
			"0.018": 0.0,
			"0.019": 0.0,
			"0.02": 0.0,
			"0.021": 0.0,
			"0.022": 0.0,
			"0.023": 0.0,
			"0.024": 0.0,
			"0.025": 0.0
		}
	}
}
