{
	 "smiles": "CN1CCC(CC1)NC1=CC=C(Br)C=C1", 
	 "Tm": 361.15, 
	 "num_atms": 32, 
	 "gaussian": { 
		 "optdone": 1, 
		 "sigma_profile": "yes", 
		 "theory": "DFT", 
		 "functional": "B3LYP", 
		 "basiset": "6-31G**", 
		 "properties": { 
			 "R2extent": 9130.4677, 
			 "electric_dipole_moment_norm": 3.91924368342, 
			 "electric_quadrupole_moment_norm": 14.2744787334, 
			 "total_energy": -3148.41709437, 
			 "HOMO_LUMO_gap": 0.18679, 
			 "cosmo_polarized_energy": -8.58, 
			 "cosmo_cavitation_energy": 34.8, 
			 "cosmo_dispersion_energy": -25.93, 
			 "cosmo_repulsion_energy": 2.03, 
			 "cosmo_total_nonelectrostatic_energy": 10.91, 
			 "SMD_solvation_energy": 1.55 
		},
		"coords": [
			{
				"x": 3.7117907702,
				"y": 0.2555062114,
				"z": -2.0429650614,
				"element": "C" 
			},
			{
				"x": 2.2869093463,
				"y": 0.3660551639,
				"z": -1.7856203618,
				"element": "N" 
			},
			{
				"x": 1.9512929852,
				"y": 1.3487557904,
				"z": -0.757216831,
				"element": "C" 
			},
			{
				"x": 0.4596194439,
				"y": 1.7225611966,
				"z": -0.8672031374,
				"element": "C" 
			},
			{
				"x": -0.3785466619,
				"y": 0.5190168362,
				"z": -1.3689216107,
				"element": "C" 
			},
			{
				"x": 0.2612285727,
				"y": -0.8116490776,
				"z": -0.9247480421,
				"element": "C" 
			},
			{
				"x": 1.6924337754,
				"y": -0.9434940601,
				"z": -1.4937014217,
				"element": "C" 
			},
			{
				"x": -1.8037349431,
				"y": 0.6561228633,
				"z": -1.0700876368,
				"element": "N" 
			},
			{
				"x": -2.4402193676,
				"y": 0.5324536232,
				"z": 0.1557659219,
				"element": "C" 
			},
			{
				"x": -1.7762301925,
				"y": 0.5255969588,
				"z": 1.3999844848,
				"element": "C" 
			},
			{
				"x": -2.4908426481,
				"y": 0.4338088829,
				"z": 2.5944145426,
				"element": "C" 
			},
			{
				"x": -3.8786790271,
				"y": 0.3456363292,
				"z": 2.577066729,
				"element": "C" 
			},
			{
				"x": -4.8526108992,
				"y": 0.2168220255,
				"z": 4.2201871258,
				"element": "Br" 
			},
			{
				"x": -4.5622692522,
				"y": 0.3491453885,
				"z": 1.3611542761,
				"element": "C" 
			},
			{
				"x": -3.8503777035,
				"y": 0.4407999144,
				"z": 0.1722219674,
				"element": "C" 
			},
			{
				"x": 3.8837707007,
				"y": -0.446294071,
				"z": -2.8665391456,
				"element": "H" 
			},
			{
				"x": 4.2896523334,
				"y": -0.1059366424,
				"z": -1.1695255176,
				"element": "H" 
			},
			{
				"x": 4.1158245196,
				"y": 1.2288323741,
				"z": -2.3393583356,
				"element": "H" 
			},
			{
				"x": 2.188815213,
				"y": 0.9764498144,
				"z": 0.2600496139,
				"element": "H" 
			},
			{
				"x": 2.5712124898,
				"y": 2.2384114591,
				"z": -0.9079842111,
				"element": "H" 
			},
			{
				"x": 0.0911614529,
				"y": 2.0744141049,
				"z": 0.1003540458,
				"element": "H" 
			},
			{
				"x": 0.3282206906,
				"y": 2.550944314,
				"z": -1.5705469404,
				"element": "H" 
			},
			{
				"x": -0.3256553282,
				"y": 0.5362148854,
				"z": -2.4620199249,
				"element": "H" 
			},
			{
				"x": 0.2858502029,
				"y": -0.8696802993,
				"z": 0.1670788472,
				"element": "H" 
			},
			{
				"x": -0.3553171303,
				"y": -1.650864449,
				"z": -1.2626930928,
				"element": "H" 
			},
			{
				"x": 1.6811424952,
				"y": -1.5200498044,
				"z": -2.4278249724,
				"element": "H" 
			},
			{
				"x": 2.3134532487,
				"y": -1.5162122433,
				"z": -0.7768923145,
				"element": "H" 
			},
			{
				"x": -2.40975294,
				"y": 0.4863280917,
				"z": -1.8579014904,
				"element": "H" 
			},
			{
				"x": -0.697624087,
				"y": 0.5931642926,
				"z": 1.4520379085,
				"element": "H" 
			},
			{
				"x": -1.9575793086,
				"y": 0.4298369231,
				"z": 3.5387557763,
				"element": "H" 
			},
			{
				"x": -5.6442690383,
				"y": 0.2791908595,
				"z": 1.3423403215,
				"element": "H" 
			},
			{
				"x": -4.3932697127,
				"y": 0.4457123438,
				"z": -0.7703615128,
				"element": "H" 
			}
		],
		 "valence_orbital": [ 
			{
				"type": "occ",
				"energy": -0.27478,
				"method": "rhf"
			},
			{
				"type": "occ",
				"energy": -0.2662,
				"method": "rhf"
			},
			{
				"type": "occ",
				"energy": -0.25323,
				"method": "rhf"
			},
			{
				"type": "occ",
				"energy": -0.21201,
				"method": "rhf"
			},
			{
				"type": "occ",
				"energy": -0.19139,
				"method": "rhf"
			},
			{
				"type": "unocc",
				"energy": -0.0046,
				"method": "rhf"
			},
			{
				"type": "unocc",
				"energy": 0.01248,
				"method": "rhf"
			},
			{
				"type": "unocc",
				"energy": 0.01924,
				"method": "rhf"
			},
			{
				"type": "unocc",
				"energy": 0.06861,
				"method": "rhf"
			},
			{
				"type": "unocc",
				"energy": 0.07314,
				"method": "rhf"
			}
		],
		"cosmo_sigma_profile": { 
			"-0.025": 0.0,
			"-0.024": 0.0,
			"-0.023": 0.0,
			"-0.022": 0.0,
			"-0.021": 0.0,
			"-0.02": 0.0,
			"-0.019": 0.0,
			"-0.018": 0.0,
			"-0.017": 0.0,
			"-0.016": 0.0,
			"-0.015": 0.0,
			"-0.014": 0.0,
			"-0.013": 0.389541874007,
			"-0.012": 1.65985277588,
			"-0.011": 1.29539864627,
			"-0.01": 1.52417395813,
			"-0.009": 1.38556463987,
			"-0.008": 1.8345370574,
			"-0.007": 3.03655815554,
			"-0.006": 6.32998732917,
			"-0.005": 10.1336903439,
			"-0.004": 13.851208,
			"-0.003": 23.9842230358,
			"-0.002": 32.705423315,
			"-0.001": 37.3415370906,
			"0.0": 33.7646131233,
			"0.001": 17.9568542101,
			"0.002": 12.6436605069,
			"0.003": 14.9194720826,
			"0.004": 18.3008803821,
			"0.005": 25.641504503,
			"0.006": 10.0822315673,
			"0.007": 1.5354619315,
			"0.008": 1.24691230566,
			"0.009": 1.28345280559,
			"0.01": 0.76963072481,
			"0.011": 0.340222562815,
			"0.012": 0.550626079554,
			"0.013": 0.449499466278,
			"0.014": 0.355798850812,
			"0.015": 0.487498961694,
			"0.016": 0.0467343685167,
			"0.017": 0.0,
			"0.018": 0.0,
			"0.019": 0.0,
			"0.02": 0.0,
			"0.021": 0.0,
			"0.022": 0.0,
			"0.023": 0.0,
			"0.024": 0.0,
			"0.025": 0.0
		}
	}
}
