{
	 "smiles": "CCOC1=C(OCC(C)C)C=CC(C=CC(O)=O)=C1", 
	 "Tm": 346.15, 
	 "num_atms": 39, 
	 "gaussian": { 
		 "optdone": 1, 
		 "sigma_profile": "yes", 
		 "theory": "DFT", 
		 "functional": "B3LYP", 
		 "basiset": "6-31G**", 
		 "properties": { 
			 "R2extent": 7573.684, 
			 "electric_dipole_moment_norm": 3.43055820239, 
			 "electric_quadrupole_moment_norm": 22.6951612656, 
			 "total_energy": -884.532788689, 
			 "HOMO_LUMO_gap": 0.1609, 
			 "cosmo_polarized_energy": -12.62, 
			 "cosmo_cavitation_energy": 42.62, 
			 "cosmo_dispersion_energy": -28.4, 
			 "cosmo_repulsion_energy": 2.24, 
			 "cosmo_total_nonelectrostatic_energy": 16.45, 
			 "SMD_solvation_energy": 8.93 
		},
		"coords": [
			{
				"x": 2.4464461779,
				"y": 1.251499995,
				"z": 2.5382114172,
				"element": "C" 
			},
			{
				"x": 1.9856114358,
				"y": 0.5989296922,
				"z": 1.2478361244,
				"element": "C" 
			},
			{
				"x": 0.6325463737,
				"y": 0.1427763418,
				"z": 1.4421158365,
				"element": "O" 
			},
			{
				"x": 0.0915232502,
				"y": -0.5148462459,
				"z": 0.358113459,
				"element": "C" 
			},
			{
				"x": -0.3892461984,
				"y": 0.2021266342,
				"z": -0.7570305414,
				"element": "C" 
			},
			{
				"x": -0.2951975846,
				"y": 1.5660953503,
				"z": -0.8478925211,
				"element": "O" 
			},
			{
				"x": -1.0745208968,
				"y": 2.3250590364,
				"z": 0.1013409915,
				"element": "C" 
			},
			{
				"x": -0.9651705701,
				"y": 3.8059201707,
				"z": -0.2564237679,
				"element": "C" 
			},
			{
				"x": 0.4859624641,
				"y": 4.2999873236,
				"z": -0.1939326057,
				"element": "C" 
			},
			{
				"x": -1.8817713123,
				"y": 4.6265747255,
				"z": 0.6625912862,
				"element": "C" 
			},
			{
				"x": -0.9492917379,
				"y": -0.5033863886,
				"z": -1.8251701025,
				"element": "C" 
			},
			{
				"x": -1.0448165779,
				"y": -1.8895414976,
				"z": -1.7817790421,
				"element": "C" 
			},
			{
				"x": -0.564650367,
				"y": -2.6222156305,
				"z": -0.6777195541,
				"element": "C" 
			},
			{
				"x": -0.7490258753,
				"y": -4.077331475,
				"z": -0.7156065666,
				"element": "C" 
			},
			{
				"x": -0.1757530398,
				"y": -5.1371322755,
				"z": -0.1000991413,
				"element": "C" 
			},
			{
				"x": 0.9686545869,
				"y": -5.278846367,
				"z": 0.817911248,
				"element": "C" 
			},
			{
				"x": 1.743260372,
				"y": -4.175402814,
				"z": 0.9911402814,
				"element": "O" 
			},
			{
				"x": 1.2431400835,
				"y": -6.3324141252,
				"z": 1.3634020733,
				"element": "O" 
			},
			{
				"x": -0.0032985131,
				"y": -1.9022596897,
				"z": 0.3928113026,
				"element": "C" 
			},
			{
				"x": 3.4808034007,
				"y": 1.5949919166,
				"z": 2.4374176454,
				"element": "H" 
			},
			{
				"x": 1.8197628418,
				"y": 2.1137811663,
				"z": 2.7843637391,
				"element": "H" 
			},
			{
				"x": 2.3949120893,
				"y": 0.5422184825,
				"z": 3.3692900608,
				"element": "H" 
			},
			{
				"x": 2.6197517826,
				"y": -0.2617085432,
				"z": 0.9938773357,
				"element": "H" 
			},
			{
				"x": 2.019488034,
				"y": 1.305760684,
				"z": 0.4098822016,
				"element": "H" 
			},
			{
				"x": -2.1203613001,
				"y": 1.993262367,
				"z": 0.0437538842,
				"element": "H" 
			},
			{
				"x": -0.7097334493,
				"y": 2.1347526038,
				"z": 1.117444008,
				"element": "H" 
			},
			{
				"x": -1.321266206,
				"y": 3.9138228165,
				"z": -1.2902261015,
				"element": "H" 
			},
			{
				"x": 0.8840223666,
				"y": 4.2147010285,
				"z": 0.8250860624,
				"element": "H" 
			},
			{
				"x": 0.5530390625,
				"y": 5.3524808261,
				"z": -0.4891342659,
				"element": "H" 
			},
			{
				"x": 1.1278461404,
				"y": 3.7174135699,
				"z": -0.859749645,
				"element": "H" 
			},
			{
				"x": -1.8436211898,
				"y": 5.6884171313,
				"z": 0.3997984953,
				"element": "H" 
			},
			{
				"x": -2.9254637345,
				"y": 4.301619763,
				"z": 0.5898696173,
				"element": "H" 
			},
			{
				"x": -1.5745888635,
				"y": 4.5345190381,
				"z": 1.7113112143,
				"element": "H" 
			},
			{
				"x": -1.3157741477,
				"y": 0.0605444986,
				"z": -2.6768498944,
				"element": "H" 
			},
			{
				"x": -1.5000225161,
				"y": -2.4187270259,
				"z": -2.6146081736,
				"element": "H" 
			},
			{
				"x": -1.5416209821,
				"y": -4.3643704206,
				"z": -1.4075526843,
				"element": "H" 
			},
			{
				"x": -0.5977845505,
				"y": -6.1134990638,
				"z": -0.3170483163,
				"element": "H" 
			},
			{
				"x": 2.4539591954,
				"y": -4.4595647565,
				"z": 1.5902000228,
				"element": "H" 
			},
			{
				"x": 0.3691499555,
				"y": -2.4106088427,
				"z": 1.2706546166,
				"element": "H" 
			}
		],
		 "valence_orbital": [ 
			{
				"type": "occ",
				"energy": -0.28403,
				"method": "rhf"
			},
			{
				"type": "occ",
				"energy": -0.27055,
				"method": "rhf"
			},
			{
				"type": "occ",
				"energy": -0.26376,
				"method": "rhf"
			},
			{
				"type": "occ",
				"energy": -0.24764,
				"method": "rhf"
			},
			{
				"type": "occ",
				"energy": -0.22398,
				"method": "rhf"
			},
			{
				"type": "unocc",
				"energy": -0.06308,
				"method": "rhf"
			},
			{
				"type": "unocc",
				"energy": -0.00415,
				"method": "rhf"
			},
			{
				"type": "unocc",
				"energy": 0.01774,
				"method": "rhf"
			},
			{
				"type": "unocc",
				"energy": 0.07086,
				"method": "rhf"
			},
			{
				"type": "unocc",
				"energy": 0.07703,
				"method": "rhf"
			}
		],
		"cosmo_sigma_profile": { 
			"-0.025": 0.0,
			"-0.024": 0.0,
			"-0.023": 0.0,
			"-0.022": 0.0,
			"-0.021": 0.0,
			"-0.02": 0.0,
			"-0.019": 0.0,
			"-0.018": 0.298650156002,
			"-0.017": 1.07177912117,
			"-0.016": 0.593443192962,
			"-0.015": 1.0769110911,
			"-0.014": 0.302056778979,
			"-0.013": 1.08641919593,
			"-0.012": 0.501876279211,
			"-0.011": 0.556845300339,
			"-0.01": 1.13420852047,
			"-0.009": 0.717598361718,
			"-0.008": 0.460444133987,
			"-0.007": 5.57825149951,
			"-0.006": 8.8334006285,
			"-0.005": 8.41492124345,
			"-0.004": 16.7879333821,
			"-0.003": 34.8910687025,
			"-0.002": 43.7104420147,
			"-0.001": 39.81808756,
			"0.0": 38.516864742,
			"0.001": 33.8577842915,
			"0.002": 24.1452131306,
			"0.003": 19.7323079203,
			"0.004": 12.7375659529,
			"0.005": 6.67560677172,
			"0.006": 6.08600484582,
			"0.007": 3.88359805739,
			"0.008": 3.68621502581,
			"0.009": 4.34893217534,
			"0.01": 3.47576295274,
			"0.011": 3.65231615429,
			"0.012": 5.76658893991,
			"0.013": 2.30483688681,
			"0.014": 0.0819929721543,
			"0.015": 0.0,
			"0.016": 0.0,
			"0.017": 0.0,
			"0.018": 0.0,
			"0.019": 0.0,
			"0.02": 0.0,
			"0.021": 0.0,
			"0.022": 0.0,
			"0.023": 0.0,
			"0.024": 0.0,
			"0.025": 0.0
		}
	}
}
