{
	 "smiles": "CC(C)C1=C(C=O)N2N=C(C)SC2=N1", 
	 "Tm": 314.15, 
	 "num_atms": 25, 
	 "gaussian": { 
		 "optdone": 1, 
		 "sigma_profile": "yes", 
		 "theory": "DFT", 
		 "functional": "B3LYP", 
		 "basiset": "6-31G**", 
		 "properties": { 
			 "R2extent": 3910.104, 
			 "electric_dipole_moment_norm": 2.77992435329, 
			 "electric_quadrupole_moment_norm": 22.6850133308, 
			 "total_energy": -987.222088636, 
			 "HOMO_LUMO_gap": 0.18233, 
			 "cosmo_polarized_energy": -13.56, 
			 "cosmo_cavitation_energy": 30.82, 
			 "cosmo_dispersion_energy": -22.36, 
			 "cosmo_repulsion_energy": 1.74, 
			 "cosmo_total_nonelectrostatic_energy": 10.2, 
			 "SMD_solvation_energy": 4.03 
		},
		"coords": [
			{
				"x": -2.1611865076,
				"y": -2.8851723996,
				"z": -2.4359525364,
				"element": "C" 
			},
			{
				"x": -2.2151120876,
				"y": -2.3464893585,
				"z": -0.9931454949,
				"element": "C" 
			},
			{
				"x": -3.4172735708,
				"y": -1.4026656053,
				"z": -0.7962682838,
				"element": "C" 
			},
			{
				"x": -0.9280501884,
				"y": -1.6463115478,
				"z": -0.6401914247,
				"element": "C" 
			},
			{
				"x": -0.0064296523,
				"y": -1.9748377284,
				"z": 0.3622548399,
				"element": "C" 
			},
			{
				"x": 0.0056599885,
				"y": -3.046439481,
				"z": 1.339525749,
				"element": "C" 
			},
			{
				"x": 0.8748394808,
				"y": -3.2345504656,
				"z": 2.1749605274,
				"element": "O" 
			},
			{
				"x": 0.9827043294,
				"y": -0.9979361783,
				"z": 0.2371138572,
				"element": "N" 
			},
			{
				"x": 2.1486415654,
				"y": -0.7310953062,
				"z": 0.8887590078,
				"element": "N" 
			},
			{
				"x": 2.7000221325,
				"y": 0.3169588971,
				"z": 0.3640271823,
				"element": "C" 
			},
			{
				"x": 3.9959385435,
				"y": 0.8803678381,
				"z": 0.847390814,
				"element": "C" 
			},
			{
				"x": 1.8079610266,
				"y": 1.065746167,
				"z": -0.9955626038,
				"element": "S" 
			},
			{
				"x": 0.6042579404,
				"y": -0.1804099367,
				"z": -0.7912623005,
				"element": "C" 
			},
			{
				"x": -0.5367504136,
				"y": -0.5323418497,
				"z": -1.3470235544,
				"element": "N" 
			},
			{
				"x": -3.0970510595,
				"y": -3.3943125406,
				"z": -2.6884696413,
				"element": "H" 
			},
			{
				"x": -1.3396299648,
				"y": -3.5969067373,
				"z": -2.5643347785,
				"element": "H" 
			},
			{
				"x": -2.0116392287,
				"y": -2.0639775452,
				"z": -3.1427961247,
				"element": "H" 
			},
			{
				"x": -2.3336167852,
				"y": -3.1987284379,
				"z": -0.3133954081,
				"element": "H" 
			},
			{
				"x": -4.3505548099,
				"y": -1.9148803244,
				"z": -1.0521077904,
				"element": "H" 
			},
			{
				"x": -3.4885732153,
				"y": -1.0604768493,
				"z": 0.2409521265,
				"element": "H" 
			},
			{
				"x": -3.318030788,
				"y": -0.5221361963,
				"z": -1.4374973205,
				"element": "H" 
			},
			{
				"x": -0.8778793044,
				"y": -3.7153040321,
				"z": 1.2674638452,
				"element": "H" 
			},
			{
				"x": 3.8739575928,
				"y": 1.9114701323,
				"z": 1.1946315715,
				"element": "H" 
			},
			{
				"x": 4.353990539,
				"y": 0.2668068449,
				"z": 1.6760006154,
				"element": "H" 
			},
			{
				"x": 4.7487044372,
				"y": 0.8794226407,
				"z": 0.0524271261,
				"element": "H" 
			}
		],
		 "valence_orbital": [ 
			{
				"type": "occ",
				"energy": -0.33173,
				"method": "rhf"
			},
			{
				"type": "occ",
				"energy": -0.28804,
				"method": "rhf"
			},
			{
				"type": "occ",
				"energy": -0.26026,
				"method": "rhf"
			},
			{
				"type": "occ",
				"energy": -0.24593,
				"method": "rhf"
			},
			{
				"type": "occ",
				"energy": -0.23695,
				"method": "rhf"
			},
			{
				"type": "unocc",
				"energy": -0.05462,
				"method": "rhf"
			},
			{
				"type": "unocc",
				"energy": -0.02416,
				"method": "rhf"
			},
			{
				"type": "unocc",
				"energy": -0.0138,
				"method": "rhf"
			},
			{
				"type": "unocc",
				"energy": 0.03286,
				"method": "rhf"
			},
			{
				"type": "unocc",
				"energy": 0.06134,
				"method": "rhf"
			}
		],
		"cosmo_sigma_profile": { 
			"-0.025": 0.0,
			"-0.024": 0.0,
			"-0.023": 0.0,
			"-0.022": 0.0,
			"-0.021": 0.0,
			"-0.02": 0.0,
			"-0.019": 0.0,
			"-0.018": 0.0,
			"-0.017": 0.0,
			"-0.016": 0.0,
			"-0.015": 0.0,
			"-0.014": 0.0,
			"-0.013": 0.0,
			"-0.012": 0.0,
			"-0.011": 0.0,
			"-0.01": 0.0,
			"-0.009": 0.0,
			"-0.008": 0.609349417876,
			"-0.007": 10.9445181889,
			"-0.006": 12.0252521126,
			"-0.005": 11.0070921132,
			"-0.004": 17.0022101782,
			"-0.003": 28.9747231698,
			"-0.002": 31.0508559776,
			"-0.001": 29.4462371088,
			"0.0": 26.6620811262,
			"0.001": 22.3732721762,
			"0.002": 8.05223642214,
			"0.003": 4.88603698026,
			"0.004": 4.41875685226,
			"0.005": 4.04339338922,
			"0.006": 4.32864353797,
			"0.007": 3.22487129538,
			"0.008": 3.95699839117,
			"0.009": 2.85553705342,
			"0.01": 2.93918585407,
			"0.011": 4.88038433479,
			"0.012": 5.58527256868,
			"0.013": 4.19773331337,
			"0.014": 2.29207355185,
			"0.015": 1.32228556105,
			"0.016": 0.114840908884,
			"0.017": 0.0,
			"0.018": 0.0,
			"0.019": 0.0,
			"0.02": 0.0,
			"0.021": 0.0,
			"0.022": 0.0,
			"0.023": 0.0,
			"0.024": 0.0,
			"0.025": 0.0
		}
	}
}
