{
	 "smiles": "CC1(C)CC2=C(C(=NO2)C(=O)C2=CC=CS2)C(=O)C1", 
	 "Tm": 404.15, 
	 "num_atms": 32, 
	 "gaussian": { 
		 "optdone": 1, 
		 "sigma_profile": "yes", 
		 "theory": "DFT", 
		 "functional": "B3LYP", 
		 "basiset": "6-31G**", 
		 "properties": { 
			 "R2extent": 7084.9063, 
			 "electric_dipole_moment_norm": 4.49706804707, 
			 "electric_quadrupole_moment_norm": 25.6447851939, 
			 "total_energy": -1219.87752388, 
			 "HOMO_LUMO_gap": 0.16923, 
			 "cosmo_polarized_energy": -18.13, 
			 "cosmo_cavitation_energy": 37.25, 
			 "cosmo_dispersion_energy": -26.83, 
			 "cosmo_repulsion_energy": 2.0, 
			 "cosmo_total_nonelectrostatic_energy": 12.42, 
			 "SMD_solvation_energy": 7.26 
		},
		"coords": [
			{
				"x": -1.8304339025,
				"y": -2.5646290867,
				"z": 0.3177178999,
				"element": "C" 
			},
			{
				"x": -1.5117913479,
				"y": -1.9156786559,
				"z": 1.6800153256,
				"element": "C" 
			},
			{
				"x": -2.1270019019,
				"y": -2.7680684759,
				"z": 2.802432329,
				"element": "C" 
			},
			{
				"x": -2.1233651336,
				"y": -0.4841355331,
				"z": 1.742047223,
				"element": "C" 
			},
			{
				"x": -1.2888154712,
				"y": 0.4647543527,
				"z": 0.955874432,
				"element": "C" 
			},
			{
				"x": 0.0241241152,
				"y": 0.322334103,
				"z": 0.5974626393,
				"element": "C" 
			},
			{
				"x": 0.3035723329,
				"y": 1.5265934901,
				"z": -0.1304624989,
				"element": "C" 
			},
			{
				"x": -0.7502664063,
				"y": 2.3092729868,
				"z": -0.190661629,
				"element": "N" 
			},
			{
				"x": -1.7751641914,
				"y": 1.6273762569,
				"z": 0.5027730866,
				"element": "O" 
			},
			{
				"x": 1.6388372345,
				"y": 1.9874410627,
				"z": -0.6584141625,
				"element": "C" 
			},
			{
				"x": 2.63709717,
				"y": 1.7725793513,
				"z": 0.0145079038,
				"element": "O" 
			},
			{
				"x": 1.6874274066,
				"y": 2.6791628137,
				"z": -1.9456948458,
				"element": "C" 
			},
			{
				"x": 0.6817147299,
				"y": 2.9971252485,
				"z": -2.8388805796,
				"element": "C" 
			},
			{
				"x": 1.1608614778,
				"y": 3.6743965541,
				"z": -3.9890581694,
				"element": "C" 
			},
			{
				"x": 2.5224349907,
				"y": 3.8588884043,
				"z": -3.9576377993,
				"element": "C" 
			},
			{
				"x": 3.2458868744,
				"y": 3.2157057709,
				"z": -2.5309436198,
				"element": "S" 
			},
			{
				"x": 0.7632270409,
				"y": -0.9188331207,
				"z": 0.894052129,
				"element": "C" 
			},
			{
				"x": 1.8415875223,
				"y": -1.207976021,
				"z": 0.4095422145,
				"element": "O" 
			},
			{
				"x": 0.0275409522,
				"y": -1.8332682248,
				"z": 1.8801768292,
				"element": "C" 
			},
			{
				"x": -1.3858772055,
				"y": -3.5630811537,
				"z": 0.2553484986,
				"element": "H" 
			},
			{
				"x": -2.9122115417,
				"y": -2.6703145819,
				"z": 0.1815671948,
				"element": "H" 
			},
			{
				"x": -1.4429233004,
				"y": -1.9771413935,
				"z": -0.5203858581,
				"element": "H" 
			},
			{
				"x": -3.2165684929,
				"y": -2.82451905,
				"z": 2.6993601131,
				"element": "H" 
			},
			{
				"x": -1.736426049,
				"y": -3.7904322118,
				"z": 2.7723880586,
				"element": "H" 
			},
			{
				"x": -1.9026476764,
				"y": -2.3514665151,
				"z": 3.7905583443,
				"element": "H" 
			},
			{
				"x": -3.1563390153,
				"y": -0.4817017977,
				"z": 1.3768081438,
				"element": "H" 
			},
			{
				"x": -2.1584885856,
				"y": -0.1380757155,
				"z": 2.7848537469,
				"element": "H" 
			},
			{
				"x": -0.3584976621,
				"y": 2.7614369774,
				"z": -2.6553329567,
				"element": "H" 
			},
			{
				"x": 0.5286706345,
				"y": 4.0095999679,
				"z": -4.8029614817,
				"element": "H" 
			},
			{
				"x": 3.139975565,
				"y": 4.3401098565,
				"z": -4.7045015463,
				"element": "H" 
			},
			{
				"x": 0.2397142372,
				"y": -1.4516930375,
				"z": 2.8900789381,
				"element": "H" 
			},
			{
				"x": 0.4802455993,
				"y": -2.8263626218,
				"z": 1.8099700971,
				"element": "H" 
			}
		],
		 "valence_orbital": [ 
			{
				"type": "occ",
				"energy": -0.27343,
				"method": "rhf"
			},
			{
				"type": "occ",
				"energy": -0.26434,
				"method": "rhf"
			},
			{
				"type": "occ",
				"energy": -0.26227,
				"method": "rhf"
			},
			{
				"type": "occ",
				"energy": -0.24945,
				"method": "rhf"
			},
			{
				"type": "occ",
				"energy": -0.2457,
				"method": "rhf"
			},
			{
				"type": "unocc",
				"energy": -0.07647,
				"method": "rhf"
			},
			{
				"type": "unocc",
				"energy": -0.04643,
				"method": "rhf"
			},
			{
				"type": "unocc",
				"energy": -0.02476,
				"method": "rhf"
			},
			{
				"type": "unocc",
				"energy": 0.02496,
				"method": "rhf"
			},
			{
				"type": "unocc",
				"energy": 0.03057,
				"method": "rhf"
			}
		],
		"cosmo_sigma_profile": { 
			"-0.025": 0.0,
			"-0.024": 0.0,
			"-0.023": 0.0,
			"-0.022": 0.0,
			"-0.021": 0.0,
			"-0.02": 0.0,
			"-0.019": 0.0,
			"-0.018": 0.0,
			"-0.017": 0.0,
			"-0.016": 0.0,
			"-0.015": 0.0,
			"-0.014": 0.0,
			"-0.013": 0.0,
			"-0.012": 0.0,
			"-0.011": 0.0,
			"-0.01": 0.756567561964,
			"-0.009": 2.50441749238,
			"-0.008": 3.34705080118,
			"-0.007": 10.0427141383,
			"-0.006": 15.7247177975,
			"-0.005": 17.0109077807,
			"-0.004": 28.7291402578,
			"-0.003": 30.8638034875,
			"-0.002": 25.0357301105,
			"-0.001": 22.9722898165,
			"0.0": 23.8410024412,
			"0.001": 24.003946343,
			"0.002": 21.1839091856,
			"0.003": 15.5153489972,
			"0.004": 5.59500596634,
			"0.005": 5.99119582635,
			"0.006": 7.38629214898,
			"0.007": 5.36803178967,
			"0.008": 3.85052651211,
			"0.009": 4.54794058265,
			"0.01": 5.58065605952,
			"0.011": 9.05061146676,
			"0.012": 6.6663791428,
			"0.013": 2.53688327707,
			"0.014": 0.0850679393843,
			"0.015": 0.0,
			"0.016": 0.0,
			"0.017": 0.0,
			"0.018": 0.0,
			"0.019": 0.0,
			"0.02": 0.0,
			"0.021": 0.0,
			"0.022": 0.0,
			"0.023": 0.0,
			"0.024": 0.0,
			"0.025": 0.0
		}
	}
}
