{
	 "smiles": "COC1=C(C=CC(F)=C1)[N+]([O-])=O", 
	 "Tm": 323.15, 
	 "num_atms": 18, 
	 "gaussian": { 
		 "optdone": 1, 
		 "sigma_profile": "yes", 
		 "theory": "DFT", 
		 "functional": "B3LYP", 
		 "basiset": "6-31G**", 
		 "properties": { 
			 "R2extent": 2320.0517, 
			 "electric_dipole_moment_norm": 4.52432076449, 
			 "electric_quadrupole_moment_norm": 17.444010495, 
			 "total_energy": -650.494520673, 
			 "HOMO_LUMO_gap": 0.17405, 
			 "cosmo_polarized_energy": -11.36, 
			 "cosmo_cavitation_energy": 23.56, 
			 "cosmo_dispersion_energy": -17.23, 
			 "cosmo_repulsion_energy": 1.35, 
			 "cosmo_total_nonelectrostatic_energy": 7.69, 
			 "SMD_solvation_energy": 7.74 
		},
		"coords": [
			{
				"x": 2.0506685898,
				"y": 0.4185931442,
				"z": 2.3315486576,
				"element": "C" 
			},
			{
				"x": 1.4104676064,
				"y": -0.4746370063,
				"z": 1.4250797074,
				"element": "O" 
			},
			{
				"x": 0.15096311,
				"y": -0.2152239092,
				"z": 1.0342503702,
				"element": "C" 
			},
			{
				"x": -0.5092813362,
				"y": -1.1284439428,
				"z": 0.1713622711,
				"element": "C" 
			},
			{
				"x": -1.8326639233,
				"y": -0.9143638205,
				"z": -0.2176171638,
				"element": "C" 
			},
			{
				"x": -2.5367904453,
				"y": 0.2047235175,
				"z": 0.2059911716,
				"element": "C" 
			},
			{
				"x": -1.8775903608,
				"y": 1.0967842073,
				"z": 1.0443322033,
				"element": "C" 
			},
			{
				"x": -2.5285236912,
				"y": 2.1900620387,
				"z": 1.4757189713,
				"element": "F" 
			},
			{
				"x": -0.5680049775,
				"y": 0.9096586127,
				"z": 1.467255268,
				"element": "C" 
			},
			{
				"x": 0.1480746569,
				"y": -2.3268418602,
				"z": -0.35894133,
				"element": "N" 
			},
			{
				"x": -0.5859031636,
				"y": -3.226641076,
				"z": -0.7792302961,
				"element": "O" 
			},
			{
				"x": 1.37521152,
				"y": -2.3660483303,
				"z": -0.3784060178,
				"element": "O" 
			},
			{
				"x": 3.0405047598,
				"y": -0.003985497,
				"z": 2.5029793487,
				"element": "H" 
			},
			{
				"x": 1.50935571,
				"y": 0.4811532704,
				"z": 3.2829898983,
				"element": "H" 
			},
			{
				"x": 2.1527533393,
				"y": 1.4210400211,
				"z": 1.8997837491,
				"element": "H" 
			},
			{
				"x": -2.2907485995,
				"y": -1.6529778055,
				"z": -0.8631120159,
				"element": "H" 
			},
			{
				"x": -3.559945992,
				"y": 0.3898739326,
				"z": -0.0972387061,
				"element": "H" 
			},
			{
				"x": -0.1302468029,
				"y": 1.6427745033,
				"z": 2.1306539133,
				"element": "H" 
			}
		],
		 "valence_orbital": [ 
			{
				"type": "occ",
				"energy": -0.29904,
				"method": "rhf"
			},
			{
				"type": "occ",
				"energy": -0.29729,
				"method": "rhf"
			},
			{
				"type": "occ",
				"energy": -0.28477,
				"method": "rhf"
			},
			{
				"type": "occ",
				"energy": -0.27202,
				"method": "rhf"
			},
			{
				"type": "occ",
				"energy": -0.2525,
				"method": "rhf"
			},
			{
				"type": "unocc",
				"energy": -0.07845,
				"method": "rhf"
			},
			{
				"type": "unocc",
				"energy": -0.02331,
				"method": "rhf"
			},
			{
				"type": "unocc",
				"energy": 0.00254,
				"method": "rhf"
			},
			{
				"type": "unocc",
				"energy": 0.06406,
				"method": "rhf"
			},
			{
				"type": "unocc",
				"energy": 0.08761,
				"method": "rhf"
			}
		],
		"cosmo_sigma_profile": { 
			"-0.025": 0.0,
			"-0.024": 0.0,
			"-0.023": 0.0,
			"-0.022": 0.0,
			"-0.021": 0.0,
			"-0.02": 0.0,
			"-0.019": 0.0,
			"-0.018": 0.0,
			"-0.017": 0.0,
			"-0.016": 0.0,
			"-0.015": 0.0,
			"-0.014": 0.0,
			"-0.013": 0.0,
			"-0.012": 0.0,
			"-0.011": 0.0,
			"-0.01": 0.0133422955863,
			"-0.009": 1.71635867241,
			"-0.008": 5.404719298,
			"-0.007": 9.39763363525,
			"-0.006": 13.7606601384,
			"-0.005": 12.8960334528,
			"-0.004": 13.9316900228,
			"-0.003": 10.0969047192,
			"-0.002": 9.78597245282,
			"-0.001": 19.5190515287,
			"0.0": 15.733427133,
			"0.001": 13.4725294558,
			"0.002": 7.97929099562,
			"0.003": 11.2776476244,
			"0.004": 6.79491208448,
			"0.005": 3.80502903682,
			"0.006": 3.05143049642,
			"0.007": 4.17682341209,
			"0.008": 10.0709400489,
			"0.009": 7.22328482604,
			"0.01": 5.58468579972,
			"0.011": 2.53552069535,
			"0.012": 0.845814828375,
			"0.013": 0.0570929348808,
			"0.014": 0.0,
			"0.015": 0.0,
			"0.016": 0.0,
			"0.017": 0.0,
			"0.018": 0.0,
			"0.019": 0.0,
			"0.02": 0.0,
			"0.021": 0.0,
			"0.022": 0.0,
			"0.023": 0.0,
			"0.024": 0.0,
			"0.025": 0.0
		}
	}
}
