{
	 "smiles": "CC(C)C1=CC=CC=C1O", 
	 "Tm": 288.65, 
	 "num_atms": 22, 
	 "gaussian": { 
		 "optdone": 1, 
		 "sigma_profile": "yes", 
		 "theory": "DFT", 
		 "functional": "B3LYP", 
		 "basiset": "6-31G**", 
		 "properties": { 
			 "R2extent": 1543.8041, 
			 "electric_dipole_moment_norm": 1.31759214479, 
			 "electric_quadrupole_moment_norm": 6.73633733419, 
			 "total_energy": -425.422135376, 
			 "HOMO_LUMO_gap": 0.21952, 
			 "cosmo_polarized_energy": -6.96, 
			 "cosmo_cavitation_energy": 24.04, 
			 "cosmo_dispersion_energy": -17.66, 
			 "cosmo_repulsion_energy": 1.44, 
			 "cosmo_total_nonelectrostatic_energy": 7.83, 
			 "SMD_solvation_energy": 4.63 
		},
		"coords": [
			{
				"x": -1.4091588398,
				"y": 0.4504175269,
				"z": -2.57689529,
				"element": "C" 
			},
			{
				"x": -0.510398217,
				"y": -0.6607531669,
				"z": -1.9988508244,
				"element": "C" 
			},
			{
				"x": 0.8450511427,
				"y": -0.7256755136,
				"z": -2.7304113855,
				"element": "C" 
			},
			{
				"x": -0.3542514093,
				"y": -0.5586839411,
				"z": -0.4862544264,
				"element": "C" 
			},
			{
				"x": -0.8324688735,
				"y": -1.5825715008,
				"z": 0.3398084344,
				"element": "C" 
			},
			{
				"x": -0.7171572536,
				"y": -1.5426910456,
				"z": 1.7312151123,
				"element": "C" 
			},
			{
				"x": -0.1040727822,
				"y": -0.4461492745,
				"z": 2.3328377722,
				"element": "C" 
			},
			{
				"x": 0.3839888039,
				"y": 0.5922485113,
				"z": 1.5400033707,
				"element": "C" 
			},
			{
				"x": 0.2618451018,
				"y": 0.5393176943,
				"z": 0.148415366,
				"element": "C" 
			},
			{
				"x": 0.7395311693,
				"y": 1.5572111345,
				"z": -0.6405832541,
				"element": "O" 
			},
			{
				"x": -2.3899602096,
				"y": 0.4550585355,
				"z": -2.0902774299,
				"element": "H" 
			},
			{
				"x": -1.5648812448,
				"y": 0.2922341998,
				"z": -3.6500202713,
				"element": "H" 
			},
			{
				"x": -0.9556764982,
				"y": 1.4349461943,
				"z": -2.4392287775,
				"element": "H" 
			},
			{
				"x": -1.0209801702,
				"y": -1.6153272092,
				"z": -2.1835612424,
				"element": "H" 
			},
			{
				"x": 1.4565322695,
				"y": -1.5511865477,
				"z": -2.3517014899,
				"element": "H" 
			},
			{
				"x": 0.6894915485,
				"y": -0.8847939196,
				"z": -3.8034264529,
				"element": "H" 
			},
			{
				"x": 1.4073226651,
				"y": 0.2022469946,
				"z": -2.6009717186,
				"element": "H" 
			},
			{
				"x": -1.3111399277,
				"y": -2.4386324404,
				"z": -0.1299900576,
				"element": "H" 
			},
			{
				"x": -1.102277894,
				"y": -2.3591239704,
				"z": 2.3342728651,
				"element": "H" 
			},
			{
				"x": -0.0023002192,
				"y": -0.3916877849,
				"z": 3.4128023898,
				"element": "H" 
			},
			{
				"x": 0.8648883361,
				"y": 1.4537279105,
				"z": 2.0007660829,
				"element": "H" 
			},
			{
				"x": 1.1310725021,
				"y": 2.2335676129,
				"z": -0.0730487727,
				"element": "H" 
			}
		],
		 "valence_orbital": [ 
			{
				"type": "occ",
				"energy": -0.32481,
				"method": "rhf"
			},
			{
				"type": "occ",
				"energy": -0.31793,
				"method": "rhf"
			},
			{
				"type": "occ",
				"energy": -0.3109,
				"method": "rhf"
			},
			{
				"type": "occ",
				"energy": -0.24135,
				"method": "rhf"
			},
			{
				"type": "occ",
				"energy": -0.21567,
				"method": "rhf"
			},
			{
				"type": "unocc",
				"energy": 0.00385,
				"method": "rhf"
			},
			{
				"type": "unocc",
				"energy": 0.01602,
				"method": "rhf"
			},
			{
				"type": "unocc",
				"energy": 0.06848,
				"method": "rhf"
			},
			{
				"type": "unocc",
				"energy": 0.09752,
				"method": "rhf"
			},
			{
				"type": "unocc",
				"energy": 0.10746,
				"method": "rhf"
			}
		],
		"cosmo_sigma_profile": { 
			"-0.025": 0.0,
			"-0.024": 0.0,
			"-0.023": 0.0,
			"-0.022": 0.0,
			"-0.021": 0.0,
			"-0.02": 0.0,
			"-0.019": 0.0,
			"-0.018": 0.0560357342539,
			"-0.017": 1.23746214154,
			"-0.016": 0.630384905376,
			"-0.015": 0.975922715499,
			"-0.014": 1.11638535039,
			"-0.013": 1.10522177182,
			"-0.012": 0.749073393601,
			"-0.011": 1.21905626425,
			"-0.01": 1.00077417322,
			"-0.009": 1.10329789323,
			"-0.008": 1.03567009741,
			"-0.007": 1.16656312556,
			"-0.006": 2.3439070238,
			"-0.005": 6.882123223,
			"-0.004": 9.61756082377,
			"-0.003": 12.9049886642,
			"-0.002": 17.8004584859,
			"-0.001": 16.1773819774,
			"0.0": 20.5260747234,
			"0.001": 20.182726851,
			"0.002": 19.8778751378,
			"0.003": 9.9903663063,
			"0.004": 11.2910096274,
			"0.005": 10.3010534849,
			"0.006": 11.1357857256,
			"0.007": 7.33042649019,
			"0.008": 0.905603832958,
			"0.009": 0.13784266118,
			"0.01": 0.0,
			"0.011": 0.0,
			"0.012": 0.0,
			"0.013": 0.0,
			"0.014": 0.0,
			"0.015": 0.0,
			"0.016": 0.0,
			"0.017": 0.0,
			"0.018": 0.0,
			"0.019": 0.0,
			"0.02": 0.0,
			"0.021": 0.0,
			"0.022": 0.0,
			"0.023": 0.0,
			"0.024": 0.0,
			"0.025": 0.0
		}
	}
}
