{
	 "smiles": "COC1=C(NC(N)=S)C=CC=C1", 
	 "Tm": 429.15, 
	 "num_atms": 22, 
	 "gaussian": { 
		 "optdone": 1, 
		 "sigma_profile": "yes", 
		 "theory": "DFT", 
		 "functional": "B3LYP", 
		 "basiset": "6-31G**", 
		 "properties": { 
			 "R2extent": 3710.7824, 
			 "electric_dipole_moment_norm": 6.21564613295, 
			 "electric_quadrupole_moment_norm": 22.6910784984, 
			 "total_energy": -893.794171834, 
			 "HOMO_LUMO_gap": 0.17879, 
			 "cosmo_polarized_energy": -18.04, 
			 "cosmo_cavitation_energy": 27.17, 
			 "cosmo_dispersion_energy": -20.72, 
			 "cosmo_repulsion_energy": 1.62, 
			 "cosmo_total_nonelectrostatic_energy": 8.07, 
			 "SMD_solvation_energy": 4.58 
		},
		"coords": [
			{
				"x": -0.1644303693,
				"y": 0.9837530026,
				"z": -2.3888294405,
				"element": "C" 
			},
			{
				"x": -0.1149623263,
				"y": -0.1144882893,
				"z": -1.490670592,
				"element": "O" 
			},
			{
				"x": 0.9523492876,
				"y": -0.2093315082,
				"z": -0.6277522274,
				"element": "C" 
			},
			{
				"x": 0.9317831537,
				"y": -1.3457935194,
				"z": 0.2214296518,
				"element": "C" 
			},
			{
				"x": -0.1839219577,
				"y": -2.1898104817,
				"z": 0.0540092254,
				"element": "N" 
			},
			{
				"x": -0.5329500249,
				"y": -3.3903203616,
				"z": 0.6004244993,
				"element": "C" 
			},
			{
				"x": -1.7601602893,
				"y": -3.8254870037,
				"z": 0.1518893328,
				"element": "N" 
			},
			{
				"x": 0.3594713236,
				"y": -4.3452480022,
				"z": 1.6537266403,
				"element": "S" 
			},
			{
				"x": 1.9715143866,
				"y": -1.5242279293,
				"z": 1.1359010783,
				"element": "C" 
			},
			{
				"x": 3.012285997,
				"y": -0.5927128729,
				"z": 1.2038838394,
				"element": "C" 
			},
			{
				"x": 3.0275516279,
				"y": 0.5175482729,
				"z": 0.3677068026,
				"element": "C" 
			},
			{
				"x": 1.9918924011,
				"y": 0.7121398292,
				"z": -0.5535527572,
				"element": "C" 
			},
			{
				"x": 0.7020035532,
				"y": 0.989198077,
				"z": -3.0612805302,
				"element": "H" 
			},
			{
				"x": -0.2107040124,
				"y": 1.9387709316,
				"z": -1.8511941095,
				"element": "H" 
			},
			{
				"x": -1.0753740388,
				"y": 0.8553388679,
				"z": -2.975351045,
				"element": "H" 
			},
			{
				"x": -0.7993176955,
				"y": -1.8404112678,
				"z": -0.6714058963,
				"element": "H" 
			},
			{
				"x": -2.4590764969,
				"y": -3.1469966846,
				"z": -0.1224703363,
				"element": "H" 
			},
			{
				"x": -2.1087539191,
				"y": -4.6440490499,
				"z": 0.6277006203,
				"element": "H" 
			},
			{
				"x": 1.959018904,
				"y": -2.3941659058,
				"z": 1.777245324,
				"element": "H" 
			},
			{
				"x": 3.8128621335,
				"y": -0.7496892837,
				"z": 1.9199732579,
				"element": "H" 
			},
			{
				"x": 3.8374431325,
				"y": 1.2386442996,
				"z": 0.4202287541,
				"element": "H" 
			},
			{
				"x": 2.0041752296,
				"y": 1.5779388793,
				"z": -1.2048120918,
				"element": "H" 
			}
		],
		 "valence_orbital": [ 
			{
				"type": "occ",
				"energy": -0.30727,
				"method": "rhf"
			},
			{
				"type": "occ",
				"energy": -0.23978,
				"method": "rhf"
			},
			{
				"type": "occ",
				"energy": -0.22741,
				"method": "rhf"
			},
			{
				"type": "occ",
				"energy": -0.20444,
				"method": "rhf"
			},
			{
				"type": "occ",
				"energy": -0.20167,
				"method": "rhf"
			},
			{
				"type": "unocc",
				"energy": -0.02288,
				"method": "rhf"
			},
			{
				"type": "unocc",
				"energy": 0.00904,
				"method": "rhf"
			},
			{
				"type": "unocc",
				"energy": 0.03061,
				"method": "rhf"
			},
			{
				"type": "unocc",
				"energy": 0.06273,
				"method": "rhf"
			},
			{
				"type": "unocc",
				"energy": 0.0845,
				"method": "rhf"
			}
		],
		"cosmo_sigma_profile": { 
			"-0.025": 0.0,
			"-0.024": 0.0,
			"-0.023": 0.0,
			"-0.022": 0.0,
			"-0.021": 0.0,
			"-0.02": 0.0,
			"-0.019": 0.0,
			"-0.018": 0.306035526182,
			"-0.017": 0.587267413984,
			"-0.016": 1.3329992149,
			"-0.015": 1.2997583586,
			"-0.014": 2.26126608947,
			"-0.013": 2.22207975741,
			"-0.012": 2.76441459993,
			"-0.011": 2.43418387042,
			"-0.01": 2.2666647975,
			"-0.009": 2.08696577529,
			"-0.008": 1.58144851762,
			"-0.007": 3.53033676115,
			"-0.006": 10.4909482291,
			"-0.005": 16.8170290745,
			"-0.004": 15.9560681076,
			"-0.003": 15.20604119,
			"-0.002": 10.8102100351,
			"-0.001": 9.2655814996,
			"0.0": 8.4771572185,
			"0.001": 13.0928980674,
			"0.002": 14.0833011428,
			"0.003": 13.5231346536,
			"0.004": 14.1609846278,
			"0.005": 15.7115272321,
			"0.006": 11.2425261765,
			"0.007": 4.80175052195,
			"0.008": 4.8000004845,
			"0.009": 5.32020520023,
			"0.01": 5.90013363884,
			"0.011": 5.12965980895,
			"0.012": 1.58813096642,
			"0.013": 0.0,
			"0.014": 0.0,
			"0.015": 0.0,
			"0.016": 0.0,
			"0.017": 0.0,
			"0.018": 0.0,
			"0.019": 0.0,
			"0.02": 0.0,
			"0.021": 0.0,
			"0.022": 0.0,
			"0.023": 0.0,
			"0.024": 0.0,
			"0.025": 0.0
		}
	}
}
