{
	 "smiles": "S=C=NC1=CC=C(C=C1)N=NC1=CC=CC=C1", 
	 "Tm": 370.15, 
	 "num_atms": 26, 
	 "gaussian": { 
		 "optdone": 1, 
		 "sigma_profile": "yes", 
		 "theory": "DFT", 
		 "functional": "B3LYP", 
		 "basiset": "6-31G**", 
		 "properties": { 
			 "R2extent": 6875.6496, 
			 "electric_dipole_moment_norm": 2.40454555582, 
			 "electric_quadrupole_moment_norm": 22.1900949757, 
			 "total_energy": -1063.1788983, 
			 "HOMO_LUMO_gap": 0.12902, 
			 "cosmo_polarized_energy": -10.03, 
			 "cosmo_cavitation_energy": 34.54, 
			 "cosmo_dispersion_energy": -24.55, 
			 "cosmo_repulsion_energy": 1.89, 
			 "cosmo_total_nonelectrostatic_energy": 11.88, 
			 "SMD_solvation_energy": 4.19 
		},
		"coords": [
			{
				"x": -4.8273803292,
				"y": -1.1874868922,
				"z": 3.1881960399,
				"element": "S" 
			},
			{
				"x": -3.6054773382,
				"y": -1.4900580927,
				"z": 2.2212159383,
				"element": "C" 
			},
			{
				"x": -2.6569194425,
				"y": -1.776887424,
				"z": 1.5496785589,
				"element": "N" 
			},
			{
				"x": -1.8603382966,
				"y": -1.6445254036,
				"z": 0.4296278533,
				"element": "C" 
			},
			{
				"x": -2.1894140164,
				"y": -0.7240724802,
				"z": -0.5820620167,
				"element": "C" 
			},
			{
				"x": -1.3675307831,
				"y": -0.5916573831,
				"z": -1.6929674718,
				"element": "C" 
			},
			{
				"x": -0.2163835401,
				"y": -1.3876173898,
				"z": -1.8190499247,
				"element": "C" 
			},
			{
				"x": 0.07539771,
				"y": -2.3424093134,
				"z": -0.8340843958,
				"element": "C" 
			},
			{
				"x": -0.7206934448,
				"y": -2.4530316558,
				"z": 0.2985239727,
				"element": "C" 
			},
			{
				"x": 0.5811182202,
				"y": -1.4320138379,
				"z": -3.0073029873,
				"element": "N" 
			},
			{
				"x": 0.9925780788,
				"y": -0.4222413071,
				"z": -3.6179408661,
				"element": "N" 
			},
			{
				"x": 0.9101862435,
				"y": 0.9139231138,
				"z": -3.1048063728,
				"element": "C" 
			},
			{
				"x": 0.5568052326,
				"y": 1.9134804962,
				"z": -4.0219174852,
				"element": "C" 
			},
			{
				"x": 0.5558316343,
				"y": 3.2497770369,
				"z": -3.6280083784,
				"element": "C" 
			},
			{
				"x": 0.9646682834,
				"y": 3.6012395468,
				"z": -2.3387187079,
				"element": "C" 
			},
			{
				"x": 1.3689334415,
				"y": 2.6078332523,
				"z": -1.4427013407,
				"element": "C" 
			},
			{
				"x": 1.3357005175,
				"y": 1.2653403109,
				"z": -1.8145445085,
				"element": "C" 
			},
			{
				"x": -3.0852509345,
				"y": -0.1198238489,
				"z": -0.4832730207,
				"element": "H" 
			},
			{
				"x": -1.6231479014,
				"y": 0.1191929054,
				"z": -2.4705697376,
				"element": "H" 
			},
			{
				"x": 0.9373551813,
				"y": -2.9873955622,
				"z": -0.970789252,
				"element": "H" 
			},
			{
				"x": -0.4880520568,
				"y": -3.1715056393,
				"z": 1.0768396354,
				"element": "H" 
			},
			{
				"x": 0.2816439404,
				"y": 1.6232695725,
				"z": -5.0311495072,
				"element": "H" 
			},
			{
				"x": 0.2570075039,
				"y": 4.0190633756,
				"z": -4.3339168961,
				"element": "H" 
			},
			{
				"x": 0.9852464973,
				"y": 4.6446892894,
				"z": -2.0390991025,
				"element": "H" 
			},
			{
				"x": 1.7105152263,
				"y": 2.8791677792,
				"z": -0.4480331635,
				"element": "H" 
			},
			{
				"x": 1.6535003723,
				"y": 0.4952495513,
				"z": -1.1201468629,
				"element": "H" 
			}
		],
		 "valence_orbital": [ 
			{
				"type": "occ",
				"energy": -0.26759,
				"method": "rhf"
			},
			{
				"type": "occ",
				"energy": -0.26503,
				"method": "rhf"
			},
			{
				"type": "occ",
				"energy": -0.26437,
				"method": "rhf"
			},
			{
				"type": "occ",
				"energy": -0.24488,
				"method": "rhf"
			},
			{
				"type": "occ",
				"energy": -0.21572,
				"method": "rhf"
			},
			{
				"type": "unocc",
				"energy": -0.0867,
				"method": "rhf"
			},
			{
				"type": "unocc",
				"energy": -0.03819,
				"method": "rhf"
			},
			{
				"type": "unocc",
				"energy": -0.02874,
				"method": "rhf"
			},
			{
				"type": "unocc",
				"energy": -0.02334,
				"method": "rhf"
			},
			{
				"type": "unocc",
				"energy": -0.01411,
				"method": "rhf"
			}
		],
		"cosmo_sigma_profile": { 
			"-0.025": 0.0,
			"-0.024": 0.0,
			"-0.023": 0.0,
			"-0.022": 0.0,
			"-0.021": 0.0,
			"-0.02": 0.0,
			"-0.019": 0.0,
			"-0.018": 0.0,
			"-0.017": 0.0,
			"-0.016": 0.0,
			"-0.015": 0.0,
			"-0.014": 0.0,
			"-0.013": 0.0,
			"-0.012": 0.0,
			"-0.011": 0.0,
			"-0.01": 0.0,
			"-0.009": 0.0,
			"-0.008": 2.14346768977,
			"-0.007": 9.87632659725,
			"-0.006": 21.1254701488,
			"-0.005": 19.9577423172,
			"-0.004": 19.0569210477,
			"-0.003": 15.8867091053,
			"-0.002": 17.3917913363,
			"-0.001": 20.6500166269,
			"0.0": 25.7399886675,
			"0.001": 25.8103080267,
			"0.002": 26.4877309812,
			"0.003": 21.3963209384,
			"0.004": 21.4597616436,
			"0.005": 17.2145556814,
			"0.006": 4.18065837079,
			"0.007": 1.73297317351,
			"0.008": 1.31577889421,
			"0.009": 1.57742855955,
			"0.01": 2.60102978321,
			"0.011": 2.11559040349,
			"0.012": 2.77948976412,
			"0.013": 1.64364269065,
			"0.014": 0.613754362438,
			"0.015": 0.0,
			"0.016": 0.0,
			"0.017": 0.0,
			"0.018": 0.0,
			"0.019": 0.0,
			"0.02": 0.0,
			"0.021": 0.0,
			"0.022": 0.0,
			"0.023": 0.0,
			"0.024": 0.0,
			"0.025": 0.0
		}
	}
}
