{
	 "smiles": "CC(C)(C)OC(=O)NCC1CCCCS1", 
	 "Tm": 344.15, 
	 "num_atms": 36, 
	 "gaussian": { 
		 "optdone": 1, 
		 "sigma_profile": "yes", 
		 "theory": "DFT", 
		 "functional": "B3LYP", 
		 "basiset": "6-31G**", 
		 "properties": { 
			 "R2extent": 4566.919, 
			 "electric_dipole_moment_norm": 2.39333767154, 
			 "electric_quadrupole_moment_norm": 11.8435352733, 
			 "total_energy": -1035.25796296, 
			 "HOMO_LUMO_gap": 0.25298, 
			 "cosmo_polarized_energy": -12.35, 
			 "cosmo_cavitation_energy": 37.33, 
			 "cosmo_dispersion_energy": -25.69, 
			 "cosmo_repulsion_energy": 1.99, 
			 "cosmo_total_nonelectrostatic_energy": 13.62, 
			 "SMD_solvation_energy": 5.98 
		},
		"coords": [
			{
				"x": -0.79262908,
				"y": -2.4193672492,
				"z": 3.2570031938,
				"element": "C" 
			},
			{
				"x": -0.1931385983,
				"y": -2.7527791687,
				"z": 1.888325485,
				"element": "C" 
			},
			{
				"x": 1.3327929511,
				"y": -2.615704756,
				"z": 1.9169308662,
				"element": "C" 
			},
			{
				"x": -0.6446464003,
				"y": -4.1397266108,
				"z": 1.4181460696,
				"element": "C" 
			},
			{
				"x": -0.7766597753,
				"y": -1.7154929742,
				"z": 1.0242400288,
				"element": "O" 
			},
			{
				"x": -0.4520082859,
				"y": -1.6399217337,
				"z": -0.2842892833,
				"element": "C" 
			},
			{
				"x": 0.2567433011,
				"y": -2.4212721908,
				"z": -0.9014395906,
				"element": "O" 
			},
			{
				"x": -1.0495756594,
				"y": -0.5622119484,
				"z": -0.887405213,
				"element": "N" 
			},
			{
				"x": -1.827108223,
				"y": 0.4906660959,
				"z": -0.2623820817,
				"element": "C" 
			},
			{
				"x": -1.1358696076,
				"y": 1.8693516538,
				"z": -0.2167155124,
				"element": "C" 
			},
			{
				"x": -0.8467719939,
				"y": 2.4439877175,
				"z": -1.6166190491,
				"element": "C" 
			},
			{
				"x": 0.0611235582,
				"y": 3.6822489034,
				"z": -1.5836428112,
				"element": "C" 
			},
			{
				"x": 1.5303097455,
				"y": 3.3347453195,
				"z": -1.2397051782,
				"element": "C" 
			},
			{
				"x": 1.6745407668,
				"y": 2.043660747,
				"z": -0.4166471304,
				"element": "C" 
			},
			{
				"x": 0.375874411,
				"y": 1.8691710874,
				"z": 0.868154848,
				"element": "S" 
			},
			{
				"x": -0.5033470061,
				"y": -1.4116165069,
				"z": 3.5684796777,
				"element": "H" 
			},
			{
				"x": -0.4358744171,
				"y": -3.1315961843,
				"z": 4.0070847378,
				"element": "H" 
			},
			{
				"x": -1.8850233298,
				"y": -2.4712904748,
				"z": 3.2231792502,
				"element": "H" 
			},
			{
				"x": 1.7492454016,
				"y": -3.3078172287,
				"z": 2.6562753657,
				"element": "H" 
			},
			{
				"x": 1.7625661105,
				"y": -2.8413659752,
				"z": 0.940735777,
				"element": "H" 
			},
			{
				"x": 1.6140030738,
				"y": -1.5976049234,
				"z": 2.2029989292,
				"element": "H" 
			},
			{
				"x": -0.2413663919,
				"y": -4.3647255885,
				"z": 0.4306885974,
				"element": "H" 
			},
			{
				"x": -0.2977263612,
				"y": -4.899342852,
				"z": 2.1265033395,
				"element": "H" 
			},
			{
				"x": -1.7374862516,
				"y": -4.1891950763,
				"z": 1.3755263409,
				"element": "H" 
			},
			{
				"x": -0.8574349887,
				"y": -0.5183216923,
				"z": -1.8763735743,
				"element": "H" 
			},
			{
				"x": -2.0683542744,
				"y": 0.1637075976,
				"z": 0.7485825164,
				"element": "H" 
			},
			{
				"x": -2.7776437478,
				"y": 0.6078672641,
				"z": -0.8049109111,
				"element": "H" 
			},
			{
				"x": -1.8293192287,
				"y": 2.5519578696,
				"z": 0.289736448,
				"element": "H" 
			},
			{
				"x": -0.3883647066,
				"y": 1.6762096915,
				"z": -2.2532810652,
				"element": "H" 
			},
			{
				"x": -1.8096591392,
				"y": 2.6924479428,
				"z": -2.080815468,
				"element": "H" 
			},
			{
				"x": -0.3368415901,
				"y": 4.3837019268,
				"z": -0.8411484852,
				"element": "H" 
			},
			{
				"x": 0.0213840341,
				"y": 4.1982943863,
				"z": -2.5489963414,
				"element": "H" 
			},
			{
				"x": 2.1109431528,
				"y": 3.2106659754,
				"z": -2.1633442317,
				"element": "H" 
			},
			{
				"x": 1.9819567794,
				"y": 4.1697771733,
				"z": -0.6942405528,
				"element": "H" 
			},
			{
				"x": 2.623983625,
				"y": 2.0238960525,
				"z": 0.1251011468,
				"element": "H" 
			},
			{
				"x": 1.653982146,
				"y": 1.1558957295,
				"z": -1.0544361386,
				"element": "H" 
			}
		],
		 "valence_orbital": [ 
			{
				"type": "occ",
				"energy": -0.28933,
				"method": "rhf"
			},
			{
				"type": "occ",
				"energy": -0.28073,
				"method": "rhf"
			},
			{
				"type": "occ",
				"energy": -0.25473,
				"method": "rhf"
			},
			{
				"type": "occ",
				"energy": -0.24617,
				"method": "rhf"
			},
			{
				"type": "occ",
				"energy": -0.21424,
				"method": "rhf"
			},
			{
				"type": "unocc",
				"energy": 0.03874,
				"method": "rhf"
			},
			{
				"type": "unocc",
				"energy": 0.05886,
				"method": "rhf"
			},
			{
				"type": "unocc",
				"energy": 0.07221,
				"method": "rhf"
			},
			{
				"type": "unocc",
				"energy": 0.0769,
				"method": "rhf"
			},
			{
				"type": "unocc",
				"energy": 0.08804,
				"method": "rhf"
			}
		],
		"cosmo_sigma_profile": { 
			"-0.025": 0.0,
			"-0.024": 0.0,
			"-0.023": 0.0,
			"-0.022": 0.0,
			"-0.021": 0.0,
			"-0.02": 0.0,
			"-0.019": 0.0,
			"-0.018": 0.0,
			"-0.017": 0.0,
			"-0.016": 0.0,
			"-0.015": 0.0,
			"-0.014": 0.0153661798205,
			"-0.013": 0.521322976167,
			"-0.012": 1.20798308777,
			"-0.011": 0.732881983408,
			"-0.01": 1.29785651396,
			"-0.009": 0.853809727108,
			"-0.008": 1.27102725617,
			"-0.007": 1.58553249261,
			"-0.006": 2.01741994562,
			"-0.005": 9.96209212388,
			"-0.004": 27.8804907808,
			"-0.003": 34.0635428451,
			"-0.002": 37.8537197207,
			"-0.001": 38.0359860694,
			"0.0": 34.1929307079,
			"0.001": 28.421783769,
			"0.002": 11.4055378899,
			"0.003": 9.83566889089,
			"0.004": 7.79859587549,
			"0.005": 6.51807978373,
			"0.006": 7.2257609319,
			"0.007": 6.71043913795,
			"0.008": 4.41656258071,
			"0.009": 2.95990074406,
			"0.01": 2.84211879664,
			"0.011": 2.46165898038,
			"0.012": 2.05186914357,
			"0.013": 2.6347565008,
			"0.014": 3.3938618693,
			"0.015": 0.322967092306,
			"0.016": 0.0,
			"0.017": 0.0,
			"0.018": 0.0,
			"0.019": 0.0,
			"0.02": 0.0,
			"0.021": 0.0,
			"0.022": 0.0,
			"0.023": 0.0,
			"0.024": 0.0,
			"0.025": 0.0
		}
	}
}
