{
	 "smiles": "CCCCN(C)C(=O)NC1=CC=C(Cl)C(Cl)=C1", 
	 "Tm": 375.15, 
	 "num_atms": 33, 
	 "gaussian": { 
		 "optdone": 1, 
		 "sigma_profile": "yes", 
		 "theory": "DFT", 
		 "functional": "B3LYP", 
		 "basiset": "6-31G**", 
		 "properties": { 
			 "R2extent": 9173.0813, 
			 "electric_dipole_moment_norm": 5.62331227925, 
			 "electric_quadrupole_moment_norm": 14.898376527, 
			 "total_energy": -1572.06363658, 
			 "HOMO_LUMO_gap": 0.20205, 
			 "cosmo_polarized_energy": -13.51, 
			 "cosmo_cavitation_energy": 38.79, 
			 "cosmo_dispersion_energy": -27.84, 
			 "cosmo_repulsion_energy": 2.18, 
			 "cosmo_total_nonelectrostatic_energy": 13.13, 
			 "SMD_solvation_energy": 6.18 
		},
		"coords": [
			{
				"x": -1.7908918433,
				"y": 2.3351029798,
				"z": 3.6223131468,
				"element": "C" 
			},
			{
				"x": -2.5401027929,
				"y": 2.7298921652,
				"z": 2.344029685,
				"element": "C" 
			},
			{
				"x": -1.7331508283,
				"y": 3.6159844425,
				"z": 1.381993032,
				"element": "C" 
			},
			{
				"x": -0.4767399367,
				"y": 2.9651522446,
				"z": 0.7803755458,
				"element": "C" 
			},
			{
				"x": -0.7510927,
				"y": 1.7824509103,
				"z": -0.0440058509,
				"element": "N" 
			},
			{
				"x": -1.3688645429,
				"y": 1.9785121004,
				"z": -1.3474130209,
				"element": "C" 
			},
			{
				"x": -0.3525009621,
				"y": 0.546942254,
				"z": 0.4267029105,
				"element": "C" 
			},
			{
				"x": 0.206501912,
				"y": 0.3948976636,
				"z": 1.5116759192,
				"element": "O" 
			},
			{
				"x": -0.6347316557,
				"y": -0.5152568027,
				"z": -0.4291116059,
				"element": "N" 
			},
			{
				"x": -0.3552715713,
				"y": -1.8773493032,
				"z": -0.227915317,
				"element": "C" 
			},
			{
				"x": 0.2885605856,
				"y": -2.3930674557,
				"z": 0.9089850232,
				"element": "C" 
			},
			{
				"x": 0.5171866318,
				"y": -3.7618608524,
				"z": 1.0052304249,
				"element": "C" 
			},
			{
				"x": 0.1231122119,
				"y": -4.6446928108,
				"z": -0.0017827239,
				"element": "C" 
			},
			{
				"x": 0.441165,
				"y": -6.3536264013,
				"z": 0.182196324,
				"element": "Cl" 
			},
			{
				"x": -0.5181957672,
				"y": -4.129607321,
				"z": -1.1340169742,
				"element": "C" 
			},
			{
				"x": -1.0438845142,
				"y": -5.1665408576,
				"z": -2.4407719867,
				"element": "Cl" 
			},
			{
				"x": -0.7530261032,
				"y": -2.7612454239,
				"z": -1.2425785969,
				"element": "C" 
			},
			{
				"x": -1.4325913455,
				"y": 3.221349632,
				"z": 4.1600023535,
				"element": "H" 
			},
			{
				"x": -0.9325384579,
				"y": 1.6954625397,
				"z": 3.3994134277,
				"element": "H" 
			},
			{
				"x": -2.4484905515,
				"y": 1.7818546639,
				"z": 4.3009631317,
				"element": "H" 
			},
			{
				"x": -2.8631240447,
				"y": 1.8233688965,
				"z": 1.8158388532,
				"element": "H" 
			},
			{
				"x": -3.4590422031,
				"y": 3.2677105713,
				"z": 2.6099122621,
				"element": "H" 
			},
			{
				"x": -2.3894749732,
				"y": 3.9580124556,
				"z": 0.5696324881,
				"element": "H" 
			},
			{
				"x": -1.407910748,
				"y": 4.5252827318,
				"z": 1.9062305339,
				"element": "H" 
			},
			{
				"x": 0.0523579686,
				"y": 3.700642328,
				"z": 0.1598820768,
				"element": "H" 
			},
			{
				"x": 0.207461363,
				"y": 2.6447643343,
				"z": 1.5653996041,
				"element": "H" 
			},
			{
				"x": -0.7256869854,
				"y": 1.6290414722,
				"z": -2.1669787911,
				"element": "H" 
			},
			{
				"x": -2.3480073102,
				"y": 1.4869359285,
				"z": -1.4290302159,
				"element": "H" 
			},
			{
				"x": -1.53393685,
				"y": 3.0457965885,
				"z": -1.5000304244,
				"element": "H" 
			},
			{
				"x": -1.1076146646,
				"y": -0.3096752868,
				"z": -1.2943412416,
				"element": "H" 
			},
			{
				"x": 0.5981877581,
				"y": -1.7215123378,
				"z": 1.6957045684,
				"element": "H" 
			},
			{
				"x": 1.0141924875,
				"y": -4.1604955672,
				"z": 1.8829685339,
				"element": "H" 
			},
			{
				"x": -1.2523545668,
				"y": -2.3901264822,
				"z": -2.1324730953,
				"element": "H" 
			}
		],
		 "valence_orbital": [ 
			{
				"type": "occ",
				"energy": -0.29545,
				"method": "rhf"
			},
			{
				"type": "occ",
				"energy": -0.26784,
				"method": "rhf"
			},
			{
				"type": "occ",
				"energy": -0.25518,
				"method": "rhf"
			},
			{
				"type": "occ",
				"energy": -0.24864,
				"method": "rhf"
			},
			{
				"type": "occ",
				"energy": -0.22065,
				"method": "rhf"
			},
			{
				"type": "unocc",
				"energy": -0.0186,
				"method": "rhf"
			},
			{
				"type": "unocc",
				"energy": -0.01522,
				"method": "rhf"
			},
			{
				"type": "unocc",
				"energy": 0.00583,
				"method": "rhf"
			},
			{
				"type": "unocc",
				"energy": 0.05194,
				"method": "rhf"
			},
			{
				"type": "unocc",
				"energy": 0.05716,
				"method": "rhf"
			}
		],
		"cosmo_sigma_profile": { 
			"-0.025": 0.0,
			"-0.024": 0.0,
			"-0.023": 0.0,
			"-0.022": 0.0,
			"-0.021": 0.0,
			"-0.02": 0.0,
			"-0.019": 0.0,
			"-0.018": 0.0,
			"-0.017": 0.0,
			"-0.016": 0.0,
			"-0.015": 0.545948917261,
			"-0.014": 1.43287582727,
			"-0.013": 1.33988469723,
			"-0.012": 1.34269390382,
			"-0.011": 1.45603303032,
			"-0.01": 1.83483827533,
			"-0.009": 1.7382344733,
			"-0.008": 3.26142384908,
			"-0.007": 4.34575247683,
			"-0.006": 8.82953740687,
			"-0.005": 11.5763554952,
			"-0.004": 13.5488786816,
			"-0.003": 19.1954216058,
			"-0.002": 29.5379279153,
			"-0.001": 29.3353281854,
			"0.0": 33.43942551,
			"0.001": 37.1230376106,
			"0.002": 35.999026072,
			"0.003": 26.1764106354,
			"0.004": 21.2010054598,
			"0.005": 11.2942043754,
			"0.006": 3.35180722402,
			"0.007": 2.75261536961,
			"0.008": 1.52946456488,
			"0.009": 1.8382521447,
			"0.01": 1.72727264612,
			"0.011": 1.56893300143,
			"0.012": 1.42864761025,
			"0.013": 1.59654563854,
			"0.014": 0.473136696598,
			"0.015": 0.0,
			"0.016": 0.0,
			"0.017": 0.0,
			"0.018": 0.0,
			"0.019": 0.0,
			"0.02": 0.0,
			"0.021": 0.0,
			"0.022": 0.0,
			"0.023": 0.0,
			"0.024": 0.0,
			"0.025": 0.0
		}
	}
}
