{
	 "smiles": "ClCC1=NC2=C(C=C(S2)C2=CC=CC=C2)C(=O)N1", 
	 "Tm": 560.15, 
	 "num_atms": 27, 
	 "gaussian": { 
		 "optdone": 1, 
		 "sigma_profile": "yes", 
		 "theory": "DFT", 
		 "functional": "B3LYP", 
		 "basiset": "6-31G**", 
		 "properties": { 
			 "R2extent": 8915.8728, 
			 "electric_dipole_moment_norm": 2.25802901886, 
			 "electric_quadrupole_moment_norm": 16.638772431, 
			 "total_energy": -1543.94177233, 
			 "HOMO_LUMO_gap": 0.14816, 
			 "cosmo_polarized_energy": -14.0, 
			 "cosmo_cavitation_energy": 35.31, 
			 "cosmo_dispersion_energy": -26.63, 
			 "cosmo_repulsion_energy": 2.0, 
			 "cosmo_total_nonelectrostatic_energy": 10.68, 
			 "SMD_solvation_energy": 4.06 
		},
		"coords": [
			{
				"x": 2.9251860288,
				"y": -2.2215241253,
				"z": 6.0575529854,
				"element": "Cl" 
			},
			{
				"x": 3.5532672764,
				"y": -1.5636491698,
				"z": 4.4846041668,
				"element": "C" 
			},
			{
				"x": 2.490824434,
				"y": -0.8830507532,
				"z": 3.6650535178,
				"element": "C" 
			},
			{
				"x": 2.4580149862,
				"y": -1.1285967271,
				"z": 2.3848846139,
				"element": "N" 
			},
			{
				"x": 1.5309922894,
				"y": -0.4110640939,
				"z": 1.6891354597,
				"element": "C" 
			},
			{
				"x": 0.6381381611,
				"y": 0.520901941,
				"z": 2.2134163533,
				"element": "C" 
			},
			{
				"x": -0.2177099969,
				"y": 1.0933466356,
				"z": 1.2329345712,
				"element": "C" 
			},
			{
				"x": 0.0141074786,
				"y": 0.6132725792,
				"z": -0.033242807,
				"element": "C" 
			},
			{
				"x": 1.3236550553,
				"y": -0.5746906079,
				"z": -0.0351900933,
				"element": "S" 
			},
			{
				"x": -0.6691209552,
				"y": 0.9785745176,
				"z": -1.2805032619,
				"element": "C" 
			},
			{
				"x": -0.7509039104,
				"y": 0.0862432566,
				"z": -2.3645035392,
				"element": "C" 
			},
			{
				"x": -1.411288941,
				"y": 0.4476411685,
				"z": -3.5369524001,
				"element": "C" 
			},
			{
				"x": -2.0098996648,
				"y": 1.703715766,
				"z": -3.6496142402,
				"element": "C" 
			},
			{
				"x": -1.9360913774,
				"y": 2.5995218529,
				"z": -2.5802090709,
				"element": "C" 
			},
			{
				"x": -1.2679962689,
				"y": 2.2457361167,
				"z": -1.410929795,
				"element": "C" 
			},
			{
				"x": 0.6594294071,
				"y": 0.7797308293,
				"z": 3.6427078873,
				"element": "C" 
			},
			{
				"x": -0.0503062134,
				"y": 1.5400970236,
				"z": 4.2822825372,
				"element": "O" 
			},
			{
				"x": 1.6615832539,
				"y": 0.0094010256,
				"z": 4.2859054215,
				"element": "N" 
			},
			{
				"x": 3.9598695927,
				"y": -2.3906979048,
				"z": 3.9068092375,
				"element": "H" 
			},
			{
				"x": 4.3526226324,
				"y": -0.8672503834,
				"z": 4.7492205674,
				"element": "H" 
			},
			{
				"x": -0.9916376415,
				"y": 1.8106216899,
				"z": 1.475562398,
				"element": "H" 
			},
			{
				"x": -0.3124710125,
				"y": -0.9041408611,
				"z": -2.2808209127,
				"element": "H" 
			},
			{
				"x": -1.4652039526,
				"y": -0.2580463559,
				"z": -4.3607813938,
				"element": "H" 
			},
			{
				"x": -2.5263055829,
				"y": 1.9836999095,
				"z": -4.5629054658,
				"element": "H" 
			},
			{
				"x": -2.3899991342,
				"y": 3.5829760545,
				"z": -2.6610011631,
				"element": "H" 
			},
			{
				"x": -1.1890496388,
				"y": 2.9607035055,
				"z": -0.5980586562,
				"element": "H" 
			},
			{
				"x": 1.6979936948,
				"y": 0.1072271103,
				"z": 5.2950430821,
				"element": "H" 
			}
		],
		 "valence_orbital": [ 
			{
				"type": "occ",
				"energy": -0.26947,
				"method": "rhf"
			},
			{
				"type": "occ",
				"energy": -0.26819,
				"method": "rhf"
			},
			{
				"type": "occ",
				"energy": -0.26649,
				"method": "rhf"
			},
			{
				"type": "occ",
				"energy": -0.25992,
				"method": "rhf"
			},
			{
				"type": "occ",
				"energy": -0.21601,
				"method": "rhf"
			},
			{
				"type": "unocc",
				"energy": -0.06785,
				"method": "rhf"
			},
			{
				"type": "unocc",
				"energy": -0.02916,
				"method": "rhf"
			},
			{
				"type": "unocc",
				"energy": -0.01397,
				"method": "rhf"
			},
			{
				"type": "unocc",
				"energy": -0.01142,
				"method": "rhf"
			},
			{
				"type": "unocc",
				"energy": 0.01314,
				"method": "rhf"
			}
		],
		"cosmo_sigma_profile": { 
			"-0.025": 0.0,
			"-0.024": 0.0,
			"-0.023": 0.0,
			"-0.022": 0.0,
			"-0.021": 0.0,
			"-0.02": 0.0,
			"-0.019": 0.0,
			"-0.018": 0.0,
			"-0.017": 0.0,
			"-0.016": 0.0298004372102,
			"-0.015": 0.421288891318,
			"-0.014": 0.965255778288,
			"-0.013": 0.728697024433,
			"-0.012": 1.15130252675,
			"-0.011": 0.92459472488,
			"-0.01": 3.51391476278,
			"-0.009": 5.2127538053,
			"-0.008": 5.27476271155,
			"-0.007": 7.1583575062,
			"-0.006": 13.6637151164,
			"-0.005": 17.6520866655,
			"-0.004": 18.7694056342,
			"-0.003": 16.2630263462,
			"-0.002": 17.4112058501,
			"-0.001": 17.3888313688,
			"0.0": 22.985537691,
			"0.001": 28.0002494586,
			"0.002": 26.6435786978,
			"0.003": 22.7331880058,
			"0.004": 17.5868163235,
			"0.005": 18.1978708825,
			"0.006": 4.30734584325,
			"0.007": 2.31689637975,
			"0.008": 2.00660480366,
			"0.009": 2.38753664477,
			"0.01": 2.1475533113,
			"0.011": 2.38806881966,
			"0.012": 5.12413839662,
			"0.013": 4.9631552009,
			"0.014": 0.375747858801,
			"0.015": 0.0,
			"0.016": 0.0,
			"0.017": 0.0,
			"0.018": 0.0,
			"0.019": 0.0,
			"0.02": 0.0,
			"0.021": 0.0,
			"0.022": 0.0,
			"0.023": 0.0,
			"0.024": 0.0,
			"0.025": 0.0
		}
	}
}
