{
	 "smiles": "OC(=O)CN(CC=C)S(=O)(=O)C1=CC=C(Cl)C=C1", 
	 "Tm": 410.15, 
	 "num_atms": 30, 
	 "gaussian": { 
		 "optdone": 1, 
		 "sigma_profile": "yes", 
		 "theory": "DFT", 
		 "functional": "B3LYP", 
		 "basiset": "6-31G**", 
		 "properties": { 
			 "R2extent": 6856.7234, 
			 "electric_dipole_moment_norm": 3.79821539937, 
			 "electric_quadrupole_moment_norm": 17.6666340713, 
			 "total_energy": -1640.33787695, 
			 "HOMO_LUMO_gap": 0.2105, 
			 "cosmo_polarized_energy": -17.88, 
			 "cosmo_cavitation_energy": 37.63, 
			 "cosmo_dispersion_energy": -26.18, 
			 "cosmo_repulsion_energy": 1.99, 
			 "cosmo_total_nonelectrostatic_energy": 13.44, 
			 "SMD_solvation_energy": 7.23 
		},
		"coords": [
			{
				"x": 2.2179045731,
				"y": -1.3318501887,
				"z": 3.0820278342,
				"element": "O" 
			},
			{
				"x": 1.4316012922,
				"y": -0.7891675851,
				"z": 2.1293795057,
				"element": "C" 
			},
			{
				"x": 0.2353548552,
				"y": -0.646688398,
				"z": 2.259308688,
				"element": "O" 
			},
			{
				"x": 2.2650212046,
				"y": -0.3801972715,
				"z": 0.9209784545,
				"element": "C" 
			},
			{
				"x": 1.4552652615,
				"y": -0.0918285526,
				"z": -0.2426825036,
				"element": "N" 
			},
			{
				"x": 0.8830570967,
				"y": -1.2101061603,
				"z": -1.0192758275,
				"element": "C" 
			},
			{
				"x": 1.8970290616,
				"y": -2.0534728873,
				"z": -1.7512814265,
				"element": "C" 
			},
			{
				"x": 1.9666611007,
				"y": -2.1444271741,
				"z": -3.0781602742,
				"element": "C" 
			},
			{
				"x": 1.5195224165,
				"y": 1.4300503586,
				"z": -0.950588297,
				"element": "S" 
			},
			{
				"x": 1.8940439285,
				"y": 1.320239182,
				"z": -2.3636293612,
				"element": "O" 
			},
			{
				"x": 2.3060611082,
				"y": 2.2662221587,
				"z": -0.035502693,
				"element": "O" 
			},
			{
				"x": -0.1954206932,
				"y": 1.970437673,
				"z": -0.9244305809,
				"element": "C" 
			},
			{
				"x": -0.6577751068,
				"y": 2.7243815565,
				"z": -2.0056688775,
				"element": "C" 
			},
			{
				"x": -1.9569404758,
				"y": 3.2285120775,
				"z": -1.9862343459,
				"element": "C" 
			},
			{
				"x": -2.7709217351,
				"y": 2.964837038,
				"z": -0.8837926014,
				"element": "C" 
			},
			{
				"x": -4.4088045303,
				"y": 3.5920726733,
				"z": -0.8582583335,
				"element": "Cl" 
			},
			{
				"x": -2.3141615192,
				"y": 2.204839838,
				"z": 0.1945306152,
				"element": "C" 
			},
			{
				"x": -1.0128277362,
				"y": 1.70543334,
				"z": 0.177156415,
				"element": "C" 
			},
			{
				"x": 1.6431313841,
				"y": -1.5316884366,
				"z": 3.840240295,
				"element": "H" 
			},
			{
				"x": 2.8270714193,
				"y": 0.5177342947,
				"z": 1.1949650384,
				"element": "H" 
			},
			{
				"x": 3.0054008321,
				"y": -1.1640681356,
				"z": 0.721753074,
				"element": "H" 
			},
			{
				"x": 0.3082893709,
				"y": -1.8192649032,
				"z": -0.3099095378,
				"element": "H" 
			},
			{
				"x": 0.1629687055,
				"y": -0.7940627694,
				"z": -1.7282901124,
				"element": "H" 
			},
			{
				"x": 2.5919400129,
				"y": -2.6264970625,
				"z": -1.1380167731,
				"element": "H" 
			},
			{
				"x": 1.2963431263,
				"y": -1.5820261446,
				"z": -3.7228718633,
				"element": "H" 
			},
			{
				"x": 2.7022134312,
				"y": -2.774692677,
				"z": -3.5691240563,
				"element": "H" 
			},
			{
				"x": -0.0081232078,
				"y": 2.9027027135,
				"z": -2.8551948544,
				"element": "H" 
			},
			{
				"x": -2.3357250513,
				"y": 3.8142404496,
				"z": -2.8160975634,
				"element": "H" 
			},
			{
				"x": -2.9696106709,
				"y": 2.0028932463,
				"z": 1.0341467167,
				"element": "H" 
			},
			{
				"x": -0.6537694545,
				"y": 1.0884417467,
				"z": 0.994923246,
				"element": "H" 
			}
		],
		 "valence_orbital": [ 
			{
				"type": "occ",
				"energy": -0.30192,
				"method": "rhf"
			},
			{
				"type": "occ",
				"energy": -0.27807,
				"method": "rhf"
			},
			{
				"type": "occ",
				"energy": -0.27167,
				"method": "rhf"
			},
			{
				"type": "occ",
				"energy": -0.26691,
				"method": "rhf"
			},
			{
				"type": "occ",
				"energy": -0.25385,
				"method": "rhf"
			},
			{
				"type": "unocc",
				"energy": -0.04335,
				"method": "rhf"
			},
			{
				"type": "unocc",
				"energy": -0.02799,
				"method": "rhf"
			},
			{
				"type": "unocc",
				"energy": -0.01158,
				"method": "rhf"
			},
			{
				"type": "unocc",
				"energy": 0.00156,
				"method": "rhf"
			},
			{
				"type": "unocc",
				"energy": 0.02114,
				"method": "rhf"
			}
		],
		"cosmo_sigma_profile": { 
			"-0.025": 0.0,
			"-0.024": 0.0,
			"-0.023": 0.0,
			"-0.022": 0.0,
			"-0.021": 0.0,
			"-0.02": 0.0,
			"-0.019": 0.204077806365,
			"-0.018": 1.40170202741,
			"-0.017": 0.442802994994,
			"-0.016": 0.811223099769,
			"-0.015": 0.972964528436,
			"-0.014": 1.04641469241,
			"-0.013": 0.500555553914,
			"-0.012": 0.620489285917,
			"-0.011": 0.852178850724,
			"-0.01": 0.53718736735,
			"-0.009": 1.91917126819,
			"-0.008": 8.94389308142,
			"-0.007": 12.1674780901,
			"-0.006": 15.1015062883,
			"-0.005": 19.0479744049,
			"-0.004": 20.0165336362,
			"-0.003": 18.5402726074,
			"-0.002": 17.470320283,
			"-0.001": 20.2582334348,
			"0.0": 24.1681612407,
			"0.001": 28.315915502,
			"0.002": 20.0939095772,
			"0.003": 15.2725443953,
			"0.004": 17.5496017708,
			"0.005": 8.12165501679,
			"0.006": 6.94170070316,
			"0.007": 6.25231254278,
			"0.008": 6.58483245189,
			"0.009": 7.93723330541,
			"0.01": 9.38427432512,
			"0.011": 9.3474920625,
			"0.012": 1.95965028985,
			"0.013": 0.0,
			"0.014": 0.0,
			"0.015": 0.0,
			"0.016": 0.0,
			"0.017": 0.0,
			"0.018": 0.0,
			"0.019": 0.0,
			"0.02": 0.0,
			"0.021": 0.0,
			"0.022": 0.0,
			"0.023": 0.0,
			"0.024": 0.0,
			"0.025": 0.0
		}
	}
}
