{
	 "smiles": "OC(=O)C1=NC2=C(NN=N2)C=C1", 
	 "Tm": 551.15, 
	 "num_atms": 16, 
	 "gaussian": { 
		 "optdone": 1, 
		 "sigma_profile": "yes", 
		 "theory": "DFT", 
		 "functional": "B3LYP", 
		 "basiset": "6-31G**", 
		 "properties": { 
			 "R2extent": 2488.6835, 
			 "electric_dipole_moment_norm": 6.4393079139, 
			 "electric_quadrupole_moment_norm": 22.1740171379, 
			 "total_energy": -600.473520353, 
			 "HOMO_LUMO_gap": 0.18285, 
			 "cosmo_polarized_energy": -21.0, 
			 "cosmo_cavitation_energy": 21.65, 
			 "cosmo_dispersion_energy": -16.65, 
			 "cosmo_repulsion_energy": 1.31, 
			 "cosmo_total_nonelectrostatic_energy": 6.32, 
			 "SMD_solvation_energy": 2.41 
		},
		"coords": [
			{
				"x": -3.6349831309,
				"y": -0.9715681201,
				"z": -1.9340659206,
				"element": "O" 
			},
			{
				"x": -3.5179143737,
				"y": -0.2956104989,
				"z": -0.7831736847,
				"element": "C" 
			},
			{
				"x": -4.4291686991,
				"y": 0.321648525,
				"z": -0.279079599,
				"element": "O" 
			},
			{
				"x": -2.1421321724,
				"y": -0.3692283815,
				"z": -0.1654087874,
				"element": "C" 
			},
			{
				"x": -1.2415306649,
				"y": -1.0859915823,
				"z": -0.8359847194,
				"element": "N" 
			},
			{
				"x": -0.0274029524,
				"y": -1.1442550095,
				"z": -0.2798141715,
				"element": "C" 
			},
			{
				"x": 0.3175852095,
				"y": -0.5046431462,
				"z": 0.9333276473,
				"element": "C" 
			},
			{
				"x": 1.6239976676,
				"y": -0.8393457563,
				"z": 1.0943470803,
				"element": "N" 
			},
			{
				"x": 2.0532939733,
				"y": -1.6268506043,
				"z": 0.0578725988,
				"element": "N" 
			},
			{
				"x": 1.0787909315,
				"y": -1.8135453255,
				"z": -0.7639917684,
				"element": "N" 
			},
			{
				"x": -0.6339941905,
				"y": 0.2482754755,
				"z": 1.6347656002,
				"element": "C" 
			},
			{
				"x": -1.8898157712,
				"y": 0.3050542331,
				"z": 1.0539409502,
				"element": "C" 
			},
			{
				"x": -2.7625334175,
				"y": -1.3762247298,
				"z": -2.1177870648,
				"element": "H" 
			},
			{
				"x": 2.2758782312,
				"y": -0.6006809786,
				"z": 1.8270364421,
				"element": "H" 
			},
			{
				"x": -0.4107492751,
				"y": 0.7544679798,
				"z": 2.5682508979,
				"element": "H" 
			},
			{
				"x": -2.7058213653,
				"y": 0.8570979198,
				"z": 1.5049644989,
				"element": "H" 
			}
		],
		 "valence_orbital": [ 
			{
				"type": "occ",
				"energy": -0.31679,
				"method": "rhf"
			},
			{
				"type": "occ",
				"energy": -0.29598,
				"method": "rhf"
			},
			{
				"type": "occ",
				"energy": -0.2923,
				"method": "rhf"
			},
			{
				"type": "occ",
				"energy": -0.28456,
				"method": "rhf"
			},
			{
				"type": "occ",
				"energy": -0.27523,
				"method": "rhf"
			},
			{
				"type": "unocc",
				"energy": -0.09238,
				"method": "rhf"
			},
			{
				"type": "unocc",
				"energy": -0.05356,
				"method": "rhf"
			},
			{
				"type": "unocc",
				"energy": -0.00109,
				"method": "rhf"
			},
			{
				"type": "unocc",
				"energy": 0.05073,
				"method": "rhf"
			},
			{
				"type": "unocc",
				"energy": 0.05327,
				"method": "rhf"
			}
		],
		"cosmo_sigma_profile": { 
			"-0.025": 0.0,
			"-0.024": 0.0,
			"-0.023": 0.0,
			"-0.022": 0.0,
			"-0.021": 0.0,
			"-0.02": 0.0,
			"-0.019": 1.24343539295,
			"-0.018": 1.85782923408,
			"-0.017": 1.09469394121,
			"-0.016": 1.29343778241,
			"-0.015": 1.54300616788,
			"-0.014": 1.29249377485,
			"-0.013": 1.38666190334,
			"-0.012": 1.80027398385,
			"-0.011": 2.14786829711,
			"-0.01": 3.12936525906,
			"-0.009": 4.2456886572,
			"-0.008": 4.55403314225,
			"-0.007": 5.60199647971,
			"-0.006": 4.9795957647,
			"-0.005": 7.77030741209,
			"-0.004": 9.58725844034,
			"-0.003": 14.4563629515,
			"-0.002": 14.0791192453,
			"-0.001": 11.1687040389,
			"0.0": 7.91286972079,
			"0.001": 5.68381649566,
			"0.002": 3.80554606557,
			"0.003": 5.23068827182,
			"0.004": 5.0980329372,
			"0.005": 4.94698917942,
			"0.006": 5.30986412609,
			"0.007": 6.11727228129,
			"0.008": 6.56453619001,
			"0.009": 8.4167838028,
			"0.01": 8.43874898879,
			"0.011": 6.80241371999,
			"0.012": 5.19961530854,
			"0.013": 1.86435116486,
			"0.014": 0.738569622121,
			"0.015": 0.00399700038061,
			"0.016": 0.0,
			"0.017": 0.0,
			"0.018": 0.0,
			"0.019": 0.0,
			"0.02": 0.0,
			"0.021": 0.0,
			"0.022": 0.0,
			"0.023": 0.0,
			"0.024": 0.0,
			"0.025": 0.0
		}
	}
}
