{
	 "smiles": "OC(=O)C1=C(SC(F)F)C=CS1", 
	 "Tm": 391.15, 
	 "num_atms": 16, 
	 "gaussian": { 
		 "optdone": 1, 
		 "sigma_profile": "yes", 
		 "theory": "DFT", 
		 "functional": "B3LYP", 
		 "basiset": "6-31G**", 
		 "properties": { 
			 "R2extent": 3138.3321, 
			 "electric_dipole_moment_norm": 4.23129762721, 
			 "electric_quadrupole_moment_norm": 19.9215329016, 
			 "total_energy": -1377.52704568, 
			 "HOMO_LUMO_gap": 0.19064, 
			 "cosmo_polarized_energy": -13.04, 
			 "cosmo_cavitation_energy": 24.89, 
			 "cosmo_dispersion_energy": -18.83, 
			 "cosmo_repulsion_energy": 1.37, 
			 "cosmo_total_nonelectrostatic_energy": 7.44, 
			 "SMD_solvation_energy": 6.17 
		},
		"coords": [
			{
				"x": -0.6205023472,
				"y": 3.0663871597,
				"z": -1.4796069208,
				"element": "O" 
			},
			{
				"x": 0.629792703,
				"y": 2.6853823192,
				"z": -1.7951963363,
				"element": "C" 
			},
			{
				"x": 1.4469675405,
				"y": 3.4856721986,
				"z": -2.1963874012,
				"element": "O" 
			},
			{
				"x": 0.9880948403,
				"y": 1.2474979097,
				"z": -1.6263535998,
				"element": "C" 
			},
			{
				"x": 0.2912346615,
				"y": 0.1310991624,
				"z": -1.1872376901,
				"element": "C" 
			},
			{
				"x": -1.4371529725,
				"y": 0.1348201537,
				"z": -0.7407720623,
				"element": "S" 
			},
			{
				"x": -1.2779373813,
				"y": -0.0866141769,
				"z": 1.0826846358,
				"element": "C" 
			},
			{
				"x": -0.7910964295,
				"y": -1.3181089336,
				"z": 1.3684117551,
				"element": "F" 
			},
			{
				"x": -2.5267975305,
				"y": 0.0134616295,
				"z": 1.5876059135,
				"element": "F" 
			},
			{
				"x": 1.0826579412,
				"y": -1.0569339735,
				"z": -1.177833056,
				"element": "C" 
			},
			{
				"x": 2.3621014329,
				"y": -0.8251926689,
				"z": -1.6047541927,
				"element": "C" 
			},
			{
				"x": 2.6246027774,
				"y": 0.8254296168,
				"z": -2.0338077153,
				"element": "S" 
			},
			{
				"x": -1.1579864761,
				"y": 2.3054029484,
				"z": -1.1814911638,
				"element": "H" 
			},
			{
				"x": -0.6229420097,
				"y": 0.6685103867,
				"z": 1.527469306,
				"element": "H" 
			},
			{
				"x": 0.7029257878,
				"y": -2.0214030665,
				"z": -0.865658872,
				"element": "H" 
			},
			{
				"x": 3.1664374624,
				"y": -1.5425106652,
				"z": -1.6979726002,
				"element": "H" 
			}
		],
		 "valence_orbital": [ 
			{
				"type": "occ",
				"energy": -0.31997,
				"method": "rhf"
			},
			{
				"type": "occ",
				"energy": -0.29975,
				"method": "rhf"
			},
			{
				"type": "occ",
				"energy": -0.28354,
				"method": "rhf"
			},
			{
				"type": "occ",
				"energy": -0.27609,
				"method": "rhf"
			},
			{
				"type": "occ",
				"energy": -0.26848,
				"method": "rhf"
			},
			{
				"type": "unocc",
				"energy": -0.07784,
				"method": "rhf"
			},
			{
				"type": "unocc",
				"energy": -0.01852,
				"method": "rhf"
			},
			{
				"type": "unocc",
				"energy": 0.00325,
				"method": "rhf"
			},
			{
				"type": "unocc",
				"energy": 0.0178,
				"method": "rhf"
			},
			{
				"type": "unocc",
				"energy": 0.04381,
				"method": "rhf"
			}
		],
		"cosmo_sigma_profile": { 
			"-0.025": 0.0,
			"-0.024": 0.0,
			"-0.023": 0.0,
			"-0.022": 0.0,
			"-0.021": 0.0,
			"-0.02": 0.0,
			"-0.019": 0.0,
			"-0.018": 0.0,
			"-0.017": 0.0,
			"-0.016": 0.0,
			"-0.015": 0.0,
			"-0.014": 0.0,
			"-0.013": 0.0,
			"-0.012": 0.559252264113,
			"-0.011": 3.53152774201,
			"-0.01": 5.68988136986,
			"-0.009": 6.93560633487,
			"-0.008": 7.03643538401,
			"-0.007": 5.19214726635,
			"-0.006": 7.26774231002,
			"-0.005": 7.44984004667,
			"-0.004": 7.29924538732,
			"-0.003": 8.53843345269,
			"-0.002": 11.0623529851,
			"-0.001": 14.0312967616,
			"0.0": 19.9329413296,
			"0.001": 20.0714195635,
			"0.002": 22.4937649067,
			"0.003": 21.4538065337,
			"0.004": 5.70188881153,
			"0.005": 2.84271408681,
			"0.006": 2.77578776014,
			"0.007": 3.05594205665,
			"0.008": 2.91822761838,
			"0.009": 3.5727559615,
			"0.01": 5.26794202325,
			"0.011": 5.26574667759,
			"0.012": 3.62634605508,
			"0.013": 1.00415345703,
			"0.014": 0.0,
			"0.015": 0.0,
			"0.016": 0.0,
			"0.017": 0.0,
			"0.018": 0.0,
			"0.019": 0.0,
			"0.02": 0.0,
			"0.021": 0.0,
			"0.022": 0.0,
			"0.023": 0.0,
			"0.024": 0.0,
			"0.025": 0.0
		}
	}
}
