{
	 "smiles": "COC(=O)COC1=C(Cl)C=C(N)C=C1", 
	 "Tm": 340.15, 
	 "num_atms": 24, 
	 "gaussian": { 
		 "optdone": 1, 
		 "sigma_profile": "yes", 
		 "theory": "DFT", 
		 "functional": "B3LYP", 
		 "basiset": "6-31G**", 
		 "properties": { 
			 "R2extent": 3890.146, 
			 "electric_dipole_moment_norm": 3.94476616037, 
			 "electric_quadrupole_moment_norm": 16.8599445824, 
			 "total_energy": -1089.5862016, 
			 "HOMO_LUMO_gap": 0.19572, 
			 "cosmo_polarized_energy": -14.97, 
			 "cosmo_cavitation_energy": 30.4, 
			 "cosmo_dispersion_energy": -21.77, 
			 "cosmo_repulsion_energy": 1.75, 
			 "cosmo_total_nonelectrostatic_energy": 10.38, 
			 "SMD_solvation_energy": 6.75 
		},
		"coords": [
			{
				"x": 3.2552111879,
				"y": 1.0029404898,
				"z": -1.930558027,
				"element": "C" 
			},
			{
				"x": 1.9876697044,
				"y": 1.4233627616,
				"z": -1.394049789,
				"element": "O" 
			},
			{
				"x": 2.0417758988,
				"y": 1.9450701853,
				"z": -0.1558826164,
				"element": "C" 
			},
			{
				"x": 3.0610420079,
				"y": 2.0730220803,
				"z": 0.4870743581,
				"element": "O" 
			},
			{
				"x": 0.6899921668,
				"y": 2.4293521908,
				"z": 0.3640263449,
				"element": "C" 
			},
			{
				"x": -0.4490448045,
				"y": 2.0001999523,
				"z": -0.3640495292,
				"element": "O" 
			},
			{
				"x": -0.9532511164,
				"y": 0.7588084601,
				"z": -0.0351589104,
				"element": "C" 
			},
			{
				"x": -1.8016819522,
				"y": 0.5728819716,
				"z": 1.0654900076,
				"element": "C" 
			},
			{
				"x": -2.1953283603,
				"y": 1.9320837922,
				"z": 2.106480279,
				"element": "Cl" 
			},
			{
				"x": -2.3586533555,
				"y": -0.6705125227,
				"z": 1.3518532083,
				"element": "C" 
			},
			{
				"x": -2.0871843528,
				"y": -1.7742691475,
				"z": 0.5272202935,
				"element": "C" 
			},
			{
				"x": -2.6911019423,
				"y": -3.0078812692,
				"z": 0.7742897922,
				"element": "N" 
			},
			{
				"x": -1.2486342924,
				"y": -1.5897487958,
				"z": -0.5856174022,
				"element": "C" 
			},
			{
				"x": -0.6945475934,
				"y": -0.3431359259,
				"z": -0.8546113271,
				"element": "C" 
			},
			{
				"x": 3.0389046041,
				"y": 0.6162714498,
				"z": -2.9260843221,
				"element": "H" 
			},
			{
				"x": 3.9455263019,
				"y": 1.8478562403,
				"z": -1.9874156021,
				"element": "H" 
			},
			{
				"x": 3.6995268691,
				"y": 0.226765022,
				"z": -1.3027269657,
				"element": "H" 
			},
			{
				"x": 0.6336301451,
				"y": 2.1572689127,
				"z": 1.4228620195,
				"element": "H" 
			},
			{
				"x": 0.7028593278,
				"y": 3.5233129369,
				"z": 0.3076316913,
				"element": "H" 
			},
			{
				"x": -3.0153164224,
				"y": -0.7740992891,
				"z": 2.2095950909,
				"element": "H" 
			},
			{
				"x": -2.2063475592,
				"y": -3.8071971909,
				"z": 0.3905089675,
				"element": "H" 
			},
			{
				"x": -2.978633933,
				"y": -3.1652473287,
				"z": 1.7301915758,
				"element": "H" 
			},
			{
				"x": -1.0369331131,
				"y": -2.4282728054,
				"z": -1.2436984258,
				"element": "H" 
			},
			{
				"x": -0.0457794164,
				"y": -0.1938321702,
				"z": -1.7098707117,
				"element": "H" 
			}
		],
		 "valence_orbital": [ 
			{
				"type": "occ",
				"energy": -0.3044,
				"method": "rhf"
			},
			{
				"type": "occ",
				"energy": -0.29626,
				"method": "rhf"
			},
			{
				"type": "occ",
				"energy": -0.263,
				"method": "rhf"
			},
			{
				"type": "occ",
				"energy": -0.24792,
				"method": "rhf"
			},
			{
				"type": "occ",
				"energy": -0.20702,
				"method": "rhf"
			},
			{
				"type": "unocc",
				"energy": -0.0113,
				"method": "rhf"
			},
			{
				"type": "unocc",
				"energy": 0.00707,
				"method": "rhf"
			},
			{
				"type": "unocc",
				"energy": 0.00883,
				"method": "rhf"
			},
			{
				"type": "unocc",
				"energy": 0.03148,
				"method": "rhf"
			},
			{
				"type": "unocc",
				"energy": 0.07322,
				"method": "rhf"
			}
		],
		"cosmo_sigma_profile": { 
			"-0.025": 0.0,
			"-0.024": 0.0,
			"-0.023": 0.0,
			"-0.022": 0.0,
			"-0.021": 0.0,
			"-0.02": 0.0,
			"-0.019": 0.0,
			"-0.018": 0.0,
			"-0.017": 0.0,
			"-0.016": 0.0,
			"-0.015": 0.0,
			"-0.014": 0.0,
			"-0.013": 1.27610361458,
			"-0.012": 2.92623589128,
			"-0.011": 3.06563925239,
			"-0.01": 3.05364660924,
			"-0.009": 4.42782251649,
			"-0.008": 5.68313659079,
			"-0.007": 7.1277527162,
			"-0.006": 13.5412267514,
			"-0.005": 16.6651288897,
			"-0.004": 18.1012114259,
			"-0.003": 15.8227997666,
			"-0.002": 12.1475927923,
			"-0.001": 12.3879723798,
			"0.0": 11.8509566689,
			"0.001": 13.3958389296,
			"0.002": 15.3491889771,
			"0.003": 17.8618811425,
			"0.004": 20.1445988138,
			"0.005": 13.7932788173,
			"0.006": 5.05933317703,
			"0.007": 4.4170972429,
			"0.008": 3.79514200549,
			"0.009": 4.51645234835,
			"0.01": 5.00918090016,
			"0.011": 6.06618651139,
			"0.012": 4.40457269725,
			"0.013": 1.16070600623,
			"0.014": 0.464965465453,
			"0.015": 0.0,
			"0.016": 0.0,
			"0.017": 0.0,
			"0.018": 0.0,
			"0.019": 0.0,
			"0.02": 0.0,
			"0.021": 0.0,
			"0.022": 0.0,
			"0.023": 0.0,
			"0.024": 0.0,
			"0.025": 0.0
		}
	}
}
