{
	 "smiles": "CC(=O)NC1=CC=C(C=C1)S(=O)(=O)C1=CC=C(NC(C)=O)C=C1", 
	 "Tm": 562.15, 
	 "num_atms": 39, 
	 "gaussian": { 
		 "optdone": 1, 
		 "sigma_profile": "yes", 
		 "theory": "DFT", 
		 "functional": "B3LYP", 
		 "basiset": "6-31G**", 
		 "properties": { 
			 "R2extent": 12045.0172, 
			 "electric_dipole_moment_norm": 2.60542561974, 
			 "electric_quadrupole_moment_norm": 40.2462821856, 
			 "total_energy": -1427.89698556, 
			 "HOMO_LUMO_gap": 0.17789, 
			 "cosmo_polarized_energy": -29.8, 
			 "cosmo_cavitation_energy": 45.54, 
			 "cosmo_dispersion_energy": -32.24, 
			 "cosmo_repulsion_energy": 2.42, 
			 "cosmo_total_nonelectrostatic_energy": 15.72, 
			 "SMD_solvation_energy": 8.71 
		},
		"coords": [
			{
				"x": -2.2682067823,
				"y": -1.2338019766,
				"z": 4.1946063011,
				"element": "C" 
			},
			{
				"x": -0.9523736757,
				"y": -1.7435423167,
				"z": 4.7457894366,
				"element": "C" 
			},
			{
				"x": -0.720692519,
				"y": -1.7762478527,
				"z": 5.9436721597,
				"element": "O" 
			},
			{
				"x": 0.0394652626,
				"y": -2.1661299288,
				"z": 3.8640936312,
				"element": "N" 
			},
			{
				"x": 0.1146661565,
				"y": -2.2377403237,
				"z": 2.4646626243,
				"element": "C" 
			},
			{
				"x": 1.3789098116,
				"y": -2.0686976779,
				"z": 1.8682220783,
				"element": "C" 
			},
			{
				"x": 1.5337044026,
				"y": -2.1567739734,
				"z": 0.4910383809,
				"element": "C" 
			},
			{
				"x": 0.4172278337,
				"y": -2.4039573264,
				"z": -0.311714174,
				"element": "C" 
			},
			{
				"x": -0.8389643721,
				"y": -2.5987407076,
				"z": 0.2632887218,
				"element": "C" 
			},
			{
				"x": -0.9900515198,
				"y": -2.5286121506,
				"z": 1.6454089936,
				"element": "C" 
			},
			{
				"x": 0.6090773385,
				"y": -2.5166559822,
				"z": -2.0941744129,
				"element": "S" 
			},
			{
				"x": -0.5059980376,
				"y": -3.3338548482,
				"z": -2.6002526071,
				"element": "O" 
			},
			{
				"x": 2.0153305693,
				"y": -2.863834762,
				"z": -2.3573412503,
				"element": "O" 
			},
			{
				"x": 0.3543835458,
				"y": -0.8438754943,
				"z": -2.6971470493,
				"element": "C" 
			},
			{
				"x": -0.9287583489,
				"y": -0.425701841,
				"z": -3.0587003532,
				"element": "C" 
			},
			{
				"x": -1.1200258468,
				"y": 0.8692917655,
				"z": -3.5220804099,
				"element": "C" 
			},
			{
				"x": -0.0361136978,
				"y": 1.7598306403,
				"z": -3.6434434333,
				"element": "C" 
			},
			{
				"x": -0.2997394045,
				"y": 3.0424508762,
				"z": -4.1480288653,
				"element": "N" 
			},
			{
				"x": 0.2743380355,
				"y": 4.2916995225,
				"z": -3.9253430497,
				"element": "C" 
			},
			{
				"x": 1.4341182999,
				"y": 4.4144797878,
				"z": -2.9584421226,
				"element": "C" 
			},
			{
				"x": -0.1925669704,
				"y": 5.2597693184,
				"z": -4.5037048518,
				"element": "O" 
			},
			{
				"x": 1.2543861132,
				"y": 1.3085490613,
				"z": -3.3161571533,
				"element": "C" 
			},
			{
				"x": 1.4441769105,
				"y": 0.0164685198,
				"z": -2.8339395884,
				"element": "C" 
			},
			{
				"x": -2.7133624651,
				"y": -0.6003731107,
				"z": 4.9622502977,
				"element": "H" 
			},
			{
				"x": -2.152102269,
				"y": -0.6719343978,
				"z": 3.265034692,
				"element": "H" 
			},
			{
				"x": -2.9528833781,
				"y": -2.0681753605,
				"z": 4.0084651156,
				"element": "H" 
			},
			{
				"x": 0.8991887913,
				"y": -2.3573656453,
				"z": 4.3654277106,
				"element": "H" 
			},
			{
				"x": 2.2408948265,
				"y": -1.8643882333,
				"z": 2.4973154932,
				"element": "H" 
			},
			{
				"x": 2.512509017,
				"y": -2.0488963232,
				"z": 0.0365824864,
				"element": "H" 
			},
			{
				"x": -1.6852927183,
				"y": -2.848457672,
				"z": -0.3674385098,
				"element": "H" 
			},
			{
				"x": -1.9573296743,
				"y": -2.7380280788,
				"z": 2.0826439547,
				"element": "H" 
			},
			{
				"x": -1.7619141225,
				"y": -1.1164190632,
				"z": -2.9880812881,
				"element": "H" 
			},
			{
				"x": -2.1172209618,
				"y": 1.2048779106,
				"z": -3.7931956324,
				"element": "H" 
			},
			{
				"x": -1.1357093589,
				"y": 3.134029105,
				"z": -4.7135401816,
				"element": "H" 
			},
			{
				"x": 1.3462154688,
				"y": 3.7445851167,
				"z": -2.1000584334,
				"element": "H" 
			},
			{
				"x": 1.4634465697,
				"y": 5.4514681826,
				"z": -2.6230988674,
				"element": "H" 
			},
			{
				"x": 2.3797385072,
				"y": 4.1985648829,
				"z": -3.4671583616,
				"element": "H" 
			},
			{
				"x": 2.1144542286,
				"y": 1.9463037858,
				"z": -3.4717052085,
				"element": "H" 
			},
			{
				"x": 2.442374434,
				"y": -0.3409634284,
				"z": -2.6052562736,
				"element": "H" 
			}
		],
		 "valence_orbital": [ 
			{
				"type": "occ",
				"energy": -0.28143,
				"method": "rhf"
			},
			{
				"type": "occ",
				"energy": -0.26933,
				"method": "rhf"
			},
			{
				"type": "occ",
				"energy": -0.26918,
				"method": "rhf"
			},
			{
				"type": "occ",
				"energy": -0.2533,
				"method": "rhf"
			},
			{
				"type": "occ",
				"energy": -0.23915,
				"method": "rhf"
			},
			{
				"type": "unocc",
				"energy": -0.06126,
				"method": "rhf"
			},
			{
				"type": "unocc",
				"energy": -0.03831,
				"method": "rhf"
			},
			{
				"type": "unocc",
				"energy": -0.0345,
				"method": "rhf"
			},
			{
				"type": "unocc",
				"energy": -0.02852,
				"method": "rhf"
			},
			{
				"type": "unocc",
				"energy": 0.01141,
				"method": "rhf"
			}
		],
		"cosmo_sigma_profile": { 
			"-0.025": 0.0,
			"-0.024": 0.0,
			"-0.023": 0.0,
			"-0.022": 0.0,
			"-0.021": 0.0,
			"-0.02": 0.0,
			"-0.019": 0.0,
			"-0.018": 0.0,
			"-0.017": 0.0,
			"-0.016": 0.0,
			"-0.015": 0.58389461221,
			"-0.014": 2.34831508497,
			"-0.013": 2.69256627417,
			"-0.012": 2.16770194107,
			"-0.011": 2.27948683044,
			"-0.01": 2.80451838375,
			"-0.009": 4.93835193308,
			"-0.008": 10.1882241902,
			"-0.007": 16.9344198176,
			"-0.006": 19.290936744,
			"-0.005": 28.0830353123,
			"-0.004": 24.4107000679,
			"-0.003": 23.2595224666,
			"-0.002": 25.1136490523,
			"-0.001": 26.7369426075,
			"0.0": 19.989984987,
			"0.001": 24.4542568471,
			"0.002": 32.5644740015,
			"0.003": 15.0792475844,
			"0.004": 6.45709852249,
			"0.005": 4.72768245209,
			"0.006": 5.47313505123,
			"0.007": 5.12414289092,
			"0.008": 6.21677712332,
			"0.009": 4.6067539767,
			"0.01": 8.84853619387,
			"0.011": 11.3066510536,
			"0.012": 12.7475693011,
			"0.013": 11.0452846517,
			"0.014": 3.09693146057,
			"0.015": 0.0684628763815,
			"0.016": 0.0,
			"0.017": 0.0,
			"0.018": 0.0,
			"0.019": 0.0,
			"0.02": 0.0,
			"0.021": 0.0,
			"0.022": 0.0,
			"0.023": 0.0,
			"0.024": 0.0,
			"0.025": 0.0
		}
	}
}
