{
	 "smiles": "NC(=NO)C1=CC=C(Br)C=C1", 
	 "Tm": 427.15, 
	 "num_atms": 18, 
	 "gaussian": { 
		 "optdone": 1, 
		 "sigma_profile": "yes", 
		 "theory": "DFT", 
		 "functional": "B3LYP", 
		 "basiset": "6-31G**", 
		 "properties": { 
			 "R2extent": 3989.3899, 
			 "electric_dipole_moment_norm": 2.31513146279, 
			 "electric_quadrupole_moment_norm": 7.51668689184, 
			 "total_energy": -3027.04666313, 
			 "HOMO_LUMO_gap": 0.17765, 
			 "cosmo_polarized_energy": -11.21, 
			 "cosmo_cavitation_energy": 24.85, 
			 "cosmo_dispersion_energy": -19.05, 
			 "cosmo_repulsion_energy": 1.55, 
			 "cosmo_total_nonelectrostatic_energy": 7.35, 
			 "SMD_solvation_energy": 3.24 
		},
		"coords": [
			{
				"x": -2.9654951695,
				"y": 2.109212324,
				"z": 0.3268273544,
				"element": "N" 
			},
			{
				"x": -1.8014122945,
				"y": 1.9438537407,
				"z": 1.0551588382,
				"element": "C" 
			},
			{
				"x": -1.3091119005,
				"y": 2.8398234043,
				"z": 1.8489417255,
				"element": "N" 
			},
			{
				"x": -2.2001916337,
				"y": 3.9435082423,
				"z": 1.9341642988,
				"element": "O" 
			},
			{
				"x": -1.0308873919,
				"y": 0.6917816108,
				"z": 0.8712695735,
				"element": "C" 
			},
			{
				"x": -0.1308220119,
				"y": 0.2605226227,
				"z": 1.858656515,
				"element": "C" 
			},
			{
				"x": 0.597420283,
				"y": -0.913484476,
				"z": 1.6948511491,
				"element": "C" 
			},
			{
				"x": 0.4218602098,
				"y": -1.6702819386,
				"z": 0.5350942548,
				"element": "C" 
			},
			{
				"x": 1.4095661789,
				"y": -3.2909791907,
				"z": 0.3113563024,
				"element": "Br" 
			},
			{
				"x": -0.4623425503,
				"y": -1.2632733374,
				"z": -0.4608539267,
				"element": "C" 
			},
			{
				"x": -1.1829138847,
				"y": -0.0813991463,
				"z": -0.2889898593,
				"element": "C" 
			},
			{
				"x": -3.5146231365,
				"y": 1.2735217601,
				"z": 0.184091915,
				"element": "H" 
			},
			{
				"x": -3.5048184511,
				"y": 2.9148502566,
				"z": 0.6152026012,
				"element": "H" 
			},
			{
				"x": -1.7259596455,
				"y": 4.5385596589,
				"z": 2.5270915382,
				"element": "H" 
			},
			{
				"x": -0.0124818647,
				"y": 0.8570864208,
				"z": 2.7560920097,
				"element": "H" 
			},
			{
				"x": 1.2886703179,
				"y": -1.2444177041,
				"z": 2.4615276212,
				"element": "H" 
			},
			{
				"x": -0.580376342,
				"y": -1.8542936853,
				"z": -1.3618514491,
				"element": "H" 
			},
			{
				"x": -1.8462807127,
				"y": 0.2549094369,
				"z": -1.0794304621,
				"element": "H" 
			}
		],
		 "valence_orbital": [ 
			{
				"type": "occ",
				"energy": -0.2881,
				"method": "rhf"
			},
			{
				"type": "occ",
				"energy": -0.27851,
				"method": "rhf"
			},
			{
				"type": "occ",
				"energy": -0.26584,
				"method": "rhf"
			},
			{
				"type": "occ",
				"energy": -0.25074,
				"method": "rhf"
			},
			{
				"type": "occ",
				"energy": -0.21371,
				"method": "rhf"
			},
			{
				"type": "unocc",
				"energy": -0.03606,
				"method": "rhf"
			},
			{
				"type": "unocc",
				"energy": -0.01631,
				"method": "rhf"
			},
			{
				"type": "unocc",
				"energy": 0.00686,
				"method": "rhf"
			},
			{
				"type": "unocc",
				"energy": 0.05175,
				"method": "rhf"
			},
			{
				"type": "unocc",
				"energy": 0.07116,
				"method": "rhf"
			}
		],
		"cosmo_sigma_profile": { 
			"-0.025": 0.0,
			"-0.024": 0.0,
			"-0.023": 0.0,
			"-0.022": 0.0,
			"-0.021": 0.0,
			"-0.02": 0.0,
			"-0.019": 0.0,
			"-0.018": 0.0,
			"-0.017": 0.670757497118,
			"-0.016": 0.968895871031,
			"-0.015": 1.07763177421,
			"-0.014": 0.671252442713,
			"-0.013": 1.6863008952,
			"-0.012": 1.78113615075,
			"-0.011": 2.75283268568,
			"-0.01": 3.53261392556,
			"-0.009": 3.20531087887,
			"-0.008": 2.90806080918,
			"-0.007": 7.29135690254,
			"-0.006": 9.030504732,
			"-0.005": 8.28808145476,
			"-0.004": 8.73924798417,
			"-0.003": 8.53055726753,
			"-0.002": 9.15044917912,
			"-0.001": 10.1239540096,
			"0.0": 11.0064187105,
			"0.001": 15.5072282222,
			"0.002": 20.1002687139,
			"0.003": 24.1840119678,
			"0.004": 16.6559156139,
			"0.005": 9.05648468717,
			"0.006": 4.65006133326,
			"0.007": 5.15264735366,
			"0.008": 4.48037831304,
			"0.009": 4.21669067201,
			"0.01": 2.98342768249,
			"0.011": 1.15537480691,
			"0.012": 1.08521983616,
			"0.013": 0.769591796841,
			"0.014": 0.17795633409,
			"0.015": 0.0,
			"0.016": 0.0,
			"0.017": 0.0,
			"0.018": 0.0,
			"0.019": 0.0,
			"0.02": 0.0,
			"0.021": 0.0,
			"0.022": 0.0,
			"0.023": 0.0,
			"0.024": 0.0,
			"0.025": 0.0
		}
	}
}
