{
	 "smiles": "CC1=NC2=C(S1)C=CC1=C2C=CC=C1", 
	 "Tm": 369.15, 
	 "num_atms": 23, 
	 "gaussian": { 
		 "optdone": 1, 
		 "sigma_profile": "yes", 
		 "theory": "DFT", 
		 "functional": "B3LYP", 
		 "basiset": "6-31G**", 
		 "properties": { 
			 "R2extent": 3474.487, 
			 "electric_dipole_moment_norm": 0.70606155539, 
			 "electric_quadrupole_moment_norm": 11.9421676537, 
			 "total_energy": -915.66910533, 
			 "HOMO_LUMO_gap": 0.16516, 
			 "cosmo_polarized_energy": -6.86, 
			 "cosmo_cavitation_energy": 28.17, 
			 "cosmo_dispersion_energy": -21.62, 
			 "cosmo_repulsion_energy": 1.62, 
			 "cosmo_total_nonelectrostatic_energy": 8.17, 
			 "SMD_solvation_energy": 2.7 
		},
		"coords": [
			{
				"x": -4.2923124324,
				"y": 0.3527386227,
				"z": 1.2762665889,
				"element": "C" 
			},
			{
				"x": -3.0295748756,
				"y": 0.7039003415,
				"z": 0.5528500271,
				"element": "C" 
			},
			{
				"x": -1.8531147037,
				"y": 0.2711417118,
				"z": 0.8809374474,
				"element": "N" 
			},
			{
				"x": -0.8742440825,
				"y": 0.7600392614,
				"z": 0.0342916734,
				"element": "C" 
			},
			{
				"x": -1.3245635166,
				"y": 1.6048708101,
				"z": -0.9869138146,
				"element": "C" 
			},
			{
				"x": -3.060216124,
				"y": 1.7824076596,
				"z": -0.8628444526,
				"element": "S" 
			},
			{
				"x": -0.4400542898,
				"y": 2.1803634375,
				"z": -1.9283396117,
				"element": "C" 
			},
			{
				"x": 0.9001818603,
				"y": 1.8924514768,
				"z": -1.8251991501,
				"element": "C" 
			},
			{
				"x": 1.4112251014,
				"y": 1.0364785119,
				"z": -0.8018451819,
				"element": "C" 
			},
			{
				"x": 0.516991271,
				"y": 0.4533627796,
				"z": 0.1516468348,
				"element": "C" 
			},
			{
				"x": 1.0283172721,
				"y": -0.3942560803,
				"z": 1.1638897491,
				"element": "C" 
			},
			{
				"x": 2.3802600563,
				"y": -0.6583440283,
				"z": 1.2331616202,
				"element": "C" 
			},
			{
				"x": 3.2712917882,
				"y": -0.0865911717,
				"z": 0.2953258841,
				"element": "C" 
			},
			{
				"x": 2.795773941,
				"y": 0.7417122488,
				"z": -0.6988342476,
				"element": "C" 
			},
			{
				"x": -5.0045720686,
				"y": -0.1521911534,
				"z": 0.6148617912,
				"element": "H" 
			},
			{
				"x": -4.0449389611,
				"y": -0.3138852262,
				"z": 2.10426307,
				"element": "H" 
			},
			{
				"x": -4.7859983281,
				"y": 1.2455508074,
				"z": 1.6748676364,
				"element": "H" 
			},
			{
				"x": -0.8104971713,
				"y": 2.8328134074,
				"z": -2.7122592823,
				"element": "H" 
			},
			{
				"x": 1.6002738726,
				"y": 2.3222790753,
				"z": -2.5364792705,
				"element": "H" 
			},
			{
				"x": 0.3324329556,
				"y": -0.8251758911,
				"z": 1.875750054,
				"element": "H" 
			},
			{
				"x": 2.7660342474,
				"y": -1.3095778649,
				"z": 2.0122930007,
				"element": "H" 
			},
			{
				"x": 4.3336947021,
				"y": -0.302828313,
				"z": 0.3612271225,
				"element": "H" 
			},
			{
				"x": 3.4788094856,
				"y": 1.1822395771,
				"z": -1.4207174886,
				"element": "H" 
			}
		],
		 "valence_orbital": [ 
			{
				"type": "occ",
				"energy": -0.28848,
				"method": "rhf"
			},
			{
				"type": "occ",
				"energy": -0.27316,
				"method": "rhf"
			},
			{
				"type": "occ",
				"energy": -0.26784,
				"method": "rhf"
			},
			{
				"type": "occ",
				"energy": -0.23139,
				"method": "rhf"
			},
			{
				"type": "occ",
				"energy": -0.20956,
				"method": "rhf"
			},
			{
				"type": "unocc",
				"energy": -0.0444,
				"method": "rhf"
			},
			{
				"type": "unocc",
				"energy": -0.01006,
				"method": "rhf"
			},
			{
				"type": "unocc",
				"energy": -0.00421,
				"method": "rhf"
			},
			{
				"type": "unocc",
				"energy": 0.01224,
				"method": "rhf"
			},
			{
				"type": "unocc",
				"energy": 0.05374,
				"method": "rhf"
			}
		],
		"cosmo_sigma_profile": { 
			"-0.025": 0.0,
			"-0.024": 0.0,
			"-0.023": 0.0,
			"-0.022": 0.0,
			"-0.021": 0.0,
			"-0.02": 0.0,
			"-0.019": 0.0,
			"-0.018": 0.0,
			"-0.017": 0.0,
			"-0.016": 0.0,
			"-0.015": 0.0,
			"-0.014": 0.0,
			"-0.013": 0.0,
			"-0.012": 0.0,
			"-0.011": 0.0,
			"-0.01": 0.0,
			"-0.009": 0.0,
			"-0.008": 0.164649970938,
			"-0.007": 2.94539642569,
			"-0.006": 14.1949618269,
			"-0.005": 18.904999311,
			"-0.004": 19.4493747896,
			"-0.003": 17.9281627517,
			"-0.002": 16.8473568163,
			"-0.001": 14.8339276395,
			"0.0": 13.6081831803,
			"0.001": 14.7252253597,
			"0.002": 22.5289772191,
			"0.003": 25.939357493,
			"0.004": 24.3488180184,
			"0.005": 12.4019949139,
			"0.006": 2.68378267989,
			"0.007": 1.78078578448,
			"0.008": 0.535304217415,
			"0.009": 1.31005874034,
			"0.01": 1.5248047566,
			"0.011": 1.29348454845,
			"0.012": 0.768764937923,
			"0.013": 0.0,
			"0.014": 0.0,
			"0.015": 0.0,
			"0.016": 0.0,
			"0.017": 0.0,
			"0.018": 0.0,
			"0.019": 0.0,
			"0.02": 0.0,
			"0.021": 0.0,
			"0.022": 0.0,
			"0.023": 0.0,
			"0.024": 0.0,
			"0.025": 0.0
		}
	}
}
