{
	 "smiles": "OCC1=CC=C(I)C=C1", 
	 "Tm": 346.15, 
	 "num_atms": 16, 
	 "gaussian": { 
		 "optdone": 1, 
		 "sigma_profile": "no", 
		 "theory": "DFT", 
		 "functional": "B3LYP", 
		 "basiset": "6-31G**", 
		 "properties": { 
			 "R2extent": 1970.6346, 
			 "electric_dipole_moment_norm": 0.407202713645, 
			 "electric_quadrupole_moment_norm": 9.10529163728, 
			 "total_energy": -357.55880983, 
			 "HOMO_LUMO_gap": 0.20145, 
			 "cosmo_polarized_energy": -101469.03, 
			 "cosmo_cavitation_energy": 23.1, 
			 "cosmo_dispersion_energy": -18.43, 
			 "cosmo_repulsion_energy": 1.48, 
			 "cosmo_total_nonelectrostatic_energy": 6.15, 
			 "SMD_solvation_energy": 3.06 
		},
		"coords": [
			{
				"x": 2.149550751,
				"y": 0.4101734638,
				"z": -2.7870227914,
				"element": "O" 
			},
			{
				"x": 2.358726954,
				"y": 1.4740256703,
				"z": -1.8534462474,
				"element": "C" 
			},
			{
				"x": 1.2731314326,
				"y": 1.5581078528,
				"z": -0.8069075018,
				"element": "C" 
			},
			{
				"x": 0.1160911888,
				"y": 2.3151712263,
				"z": -1.0340520524,
				"element": "C" 
			},
			{
				"x": -0.9196969244,
				"y": 2.3514676371,
				"z": -0.0996682309,
				"element": "C" 
			},
			{
				"x": -0.7974449139,
				"y": 1.6140425067,
				"z": 1.0796515377,
				"element": "C" 
			},
			{
				"x": -2.361051186,
				"y": 1.6628871034,
				"z": 2.5113976621,
				"element": "I" 
			},
			{
				"x": 0.3428051406,
				"y": 0.8482620088,
				"z": 1.33052518,
				"element": "C" 
			},
			{
				"x": 1.3675110578,
				"y": 0.8251425712,
				"z": 0.3836054173,
				"element": "C" 
			},
			{
				"x": 1.3334420159,
				"y": -0.0419964108,
				"z": -2.5421647896,
				"element": "H" 
			},
			{
				"x": 3.3322064444,
				"y": 1.3245331937,
				"z": -1.3672421906,
				"element": "H" 
			},
			{
				"x": 2.4125596645,
				"y": 2.4198226338,
				"z": -2.4093027968,
				"element": "H" 
			},
			{
				"x": 0.0234093995,
				"y": 2.8911805517,
				"z": -1.9513844242,
				"element": "H" 
			},
			{
				"x": -1.8050497186,
				"y": 2.9480248065,
				"z": -0.2889692379,
				"element": "H" 
			},
			{
				"x": 0.4356098358,
				"y": 0.2801666602,
				"z": 2.249326936,
				"element": "H" 
			},
			{
				"x": 2.257098858,
				"y": 0.2315885244,
				"z": 0.5790535297,
				"element": "H" 
			}
		],
		 "valence_orbital": [ 
			{
				"type": "occ",
				"energy": -0.29899,
				"method": "rhf"
			},
			{
				"type": "occ",
				"energy": -0.27514,
				"method": "rhf"
			},
			{
				"type": "occ",
				"energy": -0.27277,
				"method": "rhf"
			},
			{
				"type": "occ",
				"energy": -0.26629,
				"method": "rhf"
			},
			{
				"type": "occ",
				"energy": -0.24462,
				"method": "rhf"
			},
			{
				"type": "unocc",
				"energy": -0.04317,
				"method": "rhf"
			},
			{
				"type": "unocc",
				"energy": -0.03083,
				"method": "rhf"
			},
			{
				"type": "unocc",
				"energy": -0.02306,
				"method": "rhf"
			},
			{
				"type": "unocc",
				"energy": 0.04005,
				"method": "rhf"
			},
			{
				"type": "unocc",
				"energy": 0.04659,
				"method": "rhf"
			}
		],
		"cosmo_sigma_profile": { 
			"0.0": 0.0,
			"0.0": 0.0,
			"0.0": 0.0,
			"0.0": 0.0,
			"0.0": 0.0,
			"0.0": 0.0,
			"0.0": 0.0,
			"0.0": 0.0,
			"0.0": 0.0,
			"0.0": 0.0,
			"0.0": 0.0,
			"0.0": 0.0,
			"0.0": 0.0,
			"0.0": 0.0,
			"0.0": 0.0,
			"0.0": 0.0,
			"0.0": 0.0,
			"0.0": 0.0,
			"0.0": 0.0,
			"0.0": 0.0,
			"0.0": 0.0,
			"0.0": 0.0,
			"0.0": 0.0,
			"0.0": 0.0,
			"0.0": 0.0,
			"0.0": 0.0,
			"0.0": 0.0,
			"0.0": 0.0,
			"0.0": 0.0,
			"0.0": 0.0,
			"0.0": 0.0,
			"0.0": 0.0,
			"0.0": 0.0,
			"0.0": 0.0,
			"0.0": 0.0,
			"0.0": 0.0,
			"0.0": 0.0,
			"0.0": 0.0,
			"0.0": 0.0,
			"0.0": 0.0,
			"0.0": 0.0,
			"0.0": 0.0,
			"0.0": 0.0,
			"0.0": 0.0,
			"0.0": 0.0,
			"0.0": 0.0,
			"0.0": 0.0,
			"0.0": 0.0,
			"0.0": 0.0,
			"0.0": 0.0,
			"0.0": 0.0
		}
	}
}
