{
	 "smiles": "NS(=O)(=O)C1=CC(=C(Cl)C=C1)S(Cl)(=O)=O", 
	 "Tm": 459.15, 
	 "num_atms": 20, 
	 "gaussian": { 
		 "optdone": 1, 
		 "sigma_profile": "yes", 
		 "theory": "DFT", 
		 "functional": "B3LYP", 
		 "basiset": "6-31G**", 
		 "properties": { 
			 "R2extent": 6028.206, 
			 "electric_dipole_moment_norm": 5.17399090355, 
			 "electric_quadrupole_moment_norm": 27.5421824965, 
			 "total_energy": -2303.90135315, 
			 "HOMO_LUMO_gap": 0.18684, 
			 "cosmo_polarized_energy": -22.58, 
			 "cosmo_cavitation_energy": 31.49, 
			 "cosmo_dispersion_energy": -23.86, 
			 "cosmo_repulsion_energy": 1.79, 
			 "cosmo_total_nonelectrostatic_energy": 9.42, 
			 "SMD_solvation_energy": 3.6 
		},
		"coords": [
			{
				"x": -1.3032730938,
				"y": -0.920400674,
				"z": -2.3911752575,
				"element": "N" 
			},
			{
				"x": -1.874333501,
				"y": -0.4082816568,
				"z": -0.9083415857,
				"element": "S" 
			},
			{
				"x": -3.0211502234,
				"y": 0.4497576206,
				"z": -1.1923407797,
				"element": "O" 
			},
			{
				"x": -1.9388853308,
				"y": -1.6007291142,
				"z": -0.0701236027,
				"element": "O" 
			},
			{
				"x": -0.6055217152,
				"y": 0.6616500347,
				"z": -0.1951314986,
				"element": "C" 
			},
			{
				"x": 0.4442474837,
				"y": 0.0938945269,
				"z": 0.5225784705,
				"element": "C" 
			},
			{
				"x": 1.4335013596,
				"y": 0.9234667762,
				"z": 1.0544738811,
				"element": "C" 
			},
			{
				"x": 1.3617504053,
				"y": 2.3182345251,
				"z": 0.8916172077,
				"element": "C" 
			},
			{
				"x": 2.5409505912,
				"y": 3.4062084898,
				"z": 1.5562935071,
				"element": "Cl" 
			},
			{
				"x": 0.2870494125,
				"y": 2.8676017951,
				"z": 0.186429772,
				"element": "C" 
			},
			{
				"x": -0.6948179132,
				"y": 2.0445304345,
				"z": -0.3584494891,
				"element": "C" 
			},
			{
				"x": 2.7891093735,
				"y": 0.0735999346,
				"z": 1.8903658184,
				"element": "S" 
			},
			{
				"x": 2.4458215231,
				"y": 0.6066462603,
				"z": 3.9064543882,
				"element": "Cl" 
			},
			{
				"x": 4.0637911606,
				"y": 0.6526478817,
				"z": 1.4961370866,
				"element": "O" 
			},
			{
				"x": 2.5359874015,
				"y": -1.3579396119,
				"z": 1.7941449366,
				"element": "O" 
			},
			{
				"x": -1.2175853986,
				"y": -0.1884780179,
				"z": -3.0874299808,
				"element": "H" 
			},
			{
				"x": -0.5161885269,
				"y": -1.5577910299,
				"z": -2.342413166,
				"element": "H" 
			},
			{
				"x": 0.4926630295,
				"y": -0.9766821483,
				"z": 0.6871460987,
				"element": "H" 
			},
			{
				"x": 0.2268949075,
				"y": 3.9445575266,
				"z": 0.0773378271,
				"element": "H" 
			},
			{
				"x": -1.5404109451,
				"y": 2.4700064471,
				"z": -0.8881736341,
				"element": "H" 
			}
		],
		 "valence_orbital": [ 
			{
				"type": "occ",
				"energy": -0.32711,
				"method": "rhf"
			},
			{
				"type": "occ",
				"energy": -0.32639,
				"method": "rhf"
			},
			{
				"type": "occ",
				"energy": -0.32571,
				"method": "rhf"
			},
			{
				"type": "occ",
				"energy": -0.31615,
				"method": "rhf"
			},
			{
				"type": "occ",
				"energy": -0.29157,
				"method": "rhf"
			},
			{
				"type": "unocc",
				"energy": -0.10473,
				"method": "rhf"
			},
			{
				"type": "unocc",
				"energy": -0.07812,
				"method": "rhf"
			},
			{
				"type": "unocc",
				"energy": -0.06994,
				"method": "rhf"
			},
			{
				"type": "unocc",
				"energy": -0.00989,
				"method": "rhf"
			},
			{
				"type": "unocc",
				"energy": 0.03097,
				"method": "rhf"
			}
		],
		"cosmo_sigma_profile": { 
			"-0.025": 0.0,
			"-0.024": 0.0,
			"-0.023": 0.0,
			"-0.022": 0.0,
			"-0.021": 0.0,
			"-0.02": 0.0,
			"-0.019": 0.0,
			"-0.018": 0.0,
			"-0.017": 0.0,
			"-0.016": 1.33606785547,
			"-0.015": 3.45108897842,
			"-0.014": 2.75220142685,
			"-0.013": 3.39725407962,
			"-0.012": 2.88298470615,
			"-0.011": 3.01144016497,
			"-0.01": 3.2973688592,
			"-0.009": 6.23188093339,
			"-0.008": 5.41522522102,
			"-0.007": 6.87835989615,
			"-0.006": 7.06889056046,
			"-0.005": 8.00639974777,
			"-0.004": 11.5115058682,
			"-0.003": 21.0370684108,
			"-0.002": 19.406620218,
			"-0.001": 16.53977768,
			"0.0": 11.9514167322,
			"0.001": 14.2423230337,
			"0.002": 22.1553695343,
			"0.003": 16.6380371658,
			"0.004": 5.54970753482,
			"0.005": 7.09371709379,
			"0.006": 8.70258202762,
			"0.007": 13.0918580083,
			"0.008": 12.251296538,
			"0.009": 6.08211028052,
			"0.01": 9.4753914913,
			"0.011": 7.988673709,
			"0.012": 0.299069490157,
			"0.013": 0.0,
			"0.014": 0.0,
			"0.015": 0.0,
			"0.016": 0.0,
			"0.017": 0.0,
			"0.018": 0.0,
			"0.019": 0.0,
			"0.02": 0.0,
			"0.021": 0.0,
			"0.022": 0.0,
			"0.023": 0.0,
			"0.024": 0.0,
			"0.025": 0.0
		}
	}
}
