{
	 "smiles": "CN1CCN(CC1)C1=NC(=CC=C1)C#N", 
	 "Tm": 333.15, 
	 "num_atms": 29, 
	 "gaussian": { 
		 "optdone": 1, 
		 "sigma_profile": "yes", 
		 "theory": "DFT", 
		 "functional": "B3LYP", 
		 "basiset": "6-31G**", 
		 "properties": { 
			 "R2extent": 4045.5001, 
			 "electric_dipole_moment_norm": 6.47791740994, 
			 "electric_quadrupole_moment_norm": 17.0922449301, 
			 "total_energy": -646.57859902, 
			 "HOMO_LUMO_gap": 0.15802, 
			 "cosmo_polarized_energy": -11.97, 
			 "cosmo_cavitation_energy": 31.92, 
			 "cosmo_dispersion_energy": -22.96, 
			 "cosmo_repulsion_energy": 1.8, 
			 "cosmo_total_nonelectrostatic_energy": 10.75, 
			 "SMD_solvation_energy": 2.86 
		},
		"coords": [
			{
				"x": 4.7454591441,
				"y": -0.7378457793,
				"z": -0.2634445764,
				"element": "C" 
			},
			{
				"x": 3.3393702299,
				"y": -0.464875928,
				"z": -0.0282837201,
				"element": "N" 
			},
			{
				"x": 2.520269641,
				"y": -0.6549432214,
				"z": -1.2342162121,
				"element": "C" 
			},
			{
				"x": 1.2463842441,
				"y": 0.2057597095,
				"z": -1.2010463869,
				"element": "C" 
			},
			{
				"x": 0.7157083329,
				"y": 0.3180380187,
				"z": 0.1536807029,
				"element": "N" 
			},
			{
				"x": 1.6433231725,
				"y": 0.7865232457,
				"z": 1.1808007569,
				"element": "C" 
			},
			{
				"x": 3.0746507309,
				"y": 0.8026833403,
				"z": 0.6322145358,
				"element": "C" 
			},
			{
				"x": -0.6074695387,
				"y": 0.0994620062,
				"z": 0.4378967378,
				"element": "C" 
			},
			{
				"x": -1.3977331638,
				"y": -0.3085540087,
				"z": -0.5723853206,
				"element": "N" 
			},
			{
				"x": -2.6911178378,
				"y": -0.5442128122,
				"z": -0.3149561674,
				"element": "C" 
			},
			{
				"x": -3.2937777187,
				"y": -0.3933629723,
				"z": 0.9353877505,
				"element": "C" 
			},
			{
				"x": -2.4695763546,
				"y": 0.0410443394,
				"z": 1.9786041623,
				"element": "C" 
			},
			{
				"x": -1.1284766347,
				"y": 0.2946216097,
				"z": 1.7480823062,
				"element": "C" 
			},
			{
				"x": -3.4899447968,
				"y": -0.9826981335,
				"z": -1.4382602512,
				"element": "C" 
			},
			{
				"x": -4.154996593,
				"y": -1.33648007,
				"z": -2.3233720477,
				"element": "N" 
			},
			{
				"x": 5.2995429414,
				"y": -0.6913891988,
				"z": 0.6798617988,
				"element": "H" 
			},
			{
				"x": 4.8582816559,
				"y": -1.7491420056,
				"z": -0.6685481951,
				"element": "H" 
			},
			{
				"x": 5.2197050863,
				"y": -0.0363960332,
				"z": -0.9773463467,
				"element": "H" 
			},
			{
				"x": 3.0765058106,
				"y": -0.3838583726,
				"z": -2.1503822225,
				"element": "H" 
			},
			{
				"x": 2.261712329,
				"y": -1.7183098678,
				"z": -1.3171134525,
				"element": "H" 
			},
			{
				"x": 0.4736646077,
				"y": -0.2277537077,
				"z": -1.8330874429,
				"element": "H" 
			},
			{
				"x": 1.4630205651,
				"y": 1.2094900227,
				"z": -1.5932509216,
				"element": "H" 
			},
			{
				"x": 1.6115680979,
				"y": 0.1013468241,
				"z": 2.0372168338,
				"element": "H" 
			},
			{
				"x": 1.3678414643,
				"y": 1.7906433431,
				"z": 1.5405192604,
				"element": "H" 
			},
			{
				"x": 3.2353580343,
				"y": 1.683847854,
				"z": -0.0193816129,
				"element": "H" 
			},
			{
				"x": 3.7625605875,
				"y": 0.9134572779,
				"z": 1.476767948,
				"element": "H" 
			},
			{
				"x": -4.3477643037,
				"y": -0.5994686216,
				"z": 1.0752166863,
				"element": "H" 
			},
			{
				"x": -2.8804358094,
				"y": 0.1843072772,
				"z": 2.9737376292,
				"element": "H" 
			},
			{
				"x": -0.4950339242,
				"y": 0.6387658643,
				"z": 2.5551877677,
				"element": "H" 
			}
		],
		 "valence_orbital": [ 
			{
				"type": "occ",
				"energy": -0.30575,
				"method": "rhf"
			},
			{
				"type": "occ",
				"energy": -0.28052,
				"method": "rhf"
			},
			{
				"type": "occ",
				"energy": -0.27275,
				"method": "rhf"
			},
			{
				"type": "occ",
				"energy": -0.22015,
				"method": "rhf"
			},
			{
				"type": "occ",
				"energy": -0.20867,
				"method": "rhf"
			},
			{
				"type": "unocc",
				"energy": -0.05065,
				"method": "rhf"
			},
			{
				"type": "unocc",
				"energy": -0.01058,
				"method": "rhf"
			},
			{
				"type": "unocc",
				"energy": 0.04402,
				"method": "rhf"
			},
			{
				"type": "unocc",
				"energy": 0.07237,
				"method": "rhf"
			},
			{
				"type": "unocc",
				"energy": 0.08753,
				"method": "rhf"
			}
		],
		"cosmo_sigma_profile": { 
			"-0.025": 0.0,
			"-0.024": 0.0,
			"-0.023": 0.0,
			"-0.022": 0.0,
			"-0.021": 0.0,
			"-0.02": 0.0,
			"-0.019": 0.0,
			"-0.018": 0.0,
			"-0.017": 0.0,
			"-0.016": 0.0,
			"-0.015": 0.0,
			"-0.014": 0.0,
			"-0.013": 0.0,
			"-0.012": 0.0,
			"-0.011": 0.0,
			"-0.01": 0.0,
			"-0.009": 0.0,
			"-0.008": 1.64036503097,
			"-0.007": 6.30897825939,
			"-0.006": 7.5126433837,
			"-0.005": 12.1991277246,
			"-0.004": 23.8259602397,
			"-0.003": 31.4507042093,
			"-0.002": 30.8226155464,
			"-0.001": 28.353108271,
			"0.0": 21.1908109073,
			"0.001": 16.643024277,
			"0.002": 13.9176715894,
			"0.003": 11.4885151799,
			"0.004": 7.05969797466,
			"0.005": 5.53858514482,
			"0.006": 5.80788588377,
			"0.007": 5.56780465909,
			"0.008": 6.78926986952,
			"0.009": 4.54098734066,
			"0.01": 3.98496826268,
			"0.011": 3.25480573404,
			"0.012": 2.76120842638,
			"0.013": 1.34613199474,
			"0.014": 0.392631276374,
			"0.015": 0.362562594252,
			"0.016": 0.0884039554368,
			"0.017": 0.0,
			"0.018": 0.0,
			"0.019": 0.0,
			"0.02": 0.0,
			"0.021": 0.0,
			"0.022": 0.0,
			"0.023": 0.0,
			"0.024": 0.0,
			"0.025": 0.0
		}
	}
}
