{
	 "smiles": "CC(=O)C1=NC2=C(C=CC=C2)C=C1", 
	 "Tm": 321.15, 
	 "num_atms": 22, 
	 "gaussian": { 
		 "optdone": 1, 
		 "sigma_profile": "yes", 
		 "theory": "DFT", 
		 "functional": "B3LYP", 
		 "basiset": "6-31G**", 
		 "properties": { 
			 "R2extent": 2996.5132, 
			 "electric_dipole_moment_norm": 4.61917139106, 
			 "electric_quadrupole_moment_norm": 10.223323915, 
			 "total_energy": -554.57194136, 
			 "HOMO_LUMO_gap": 0.16523, 
			 "cosmo_polarized_energy": -14.42, 
			 "cosmo_cavitation_energy": 26.36, 
			 "cosmo_dispersion_energy": -19.45, 
			 "cosmo_repulsion_energy": 1.52, 
			 "cosmo_total_nonelectrostatic_energy": 8.43, 
			 "SMD_solvation_energy": 3.81 
		},
		"coords": [
			{
				"x": 3.4101223523,
				"y": -1.6993728321,
				"z": -0.6428026076,
				"element": "C" 
			},
			{
				"x": 2.253913805,
				"y": -1.0134766847,
				"z": 0.0696821756,
				"element": "C" 
			},
			{
				"x": 2.3565204824,
				"y": -0.6555611326,
				"z": 1.2261621567,
				"element": "O" 
			},
			{
				"x": 0.9657616543,
				"y": -0.7878738323,
				"z": -0.7051624834,
				"element": "C" 
			},
			{
				"x": -0.008326989,
				"y": -0.1875450359,
				"z": -0.0406326373,
				"element": "N" 
			},
			{
				"x": -1.185636088,
				"y": 0.0437967653,
				"z": -0.6756711453,
				"element": "C" 
			},
			{
				"x": -1.4177032296,
				"y": -0.336020163,
				"z": -2.0389480109,
				"element": "C" 
			},
			{
				"x": -2.6773048917,
				"y": -0.058911112,
				"z": -2.6323120006,
				"element": "C" 
			},
			{
				"x": -3.6640836275,
				"y": 0.5676312745,
				"z": -1.9053304275,
				"element": "C" 
			},
			{
				"x": -3.4368213875,
				"y": 0.9444833807,
				"z": -0.555835707,
				"element": "C" 
			},
			{
				"x": -2.2272812621,
				"y": 0.6898949101,
				"z": 0.0472930162,
				"element": "C" 
			},
			{
				"x": -0.3534754179,
				"y": -0.9760324115,
				"z": -2.7188202411,
				"element": "C" 
			},
			{
				"x": 0.8324974795,
				"y": -1.2028334798,
				"z": -2.0608044425,
				"element": "C" 
			},
			{
				"x": 4.2455789984,
				"y": -1.7792437328,
				"z": 0.0531075551,
				"element": "H" 
			},
			{
				"x": 3.1269704671,
				"y": -2.7013237828,
				"z": -0.9848738996,
				"element": "H" 
			},
			{
				"x": 3.7264882341,
				"y": -1.1302451837,
				"z": -1.5243339345,
				"element": "H" 
			},
			{
				"x": -2.8488583616,
				"y": -0.3484949333,
				"z": -3.6659174065,
				"element": "H" 
			},
			{
				"x": -4.6260438473,
				"y": 0.7774291421,
				"z": -2.3637991379,
				"element": "H" 
			},
			{
				"x": -4.2287930119,
				"y": 1.4377759869,
				"z": -0.0000299283,
				"element": "H" 
			},
			{
				"x": -2.0254026394,
				"y": 0.9664741139,
				"z": 1.0767570051,
				"element": "H" 
			},
			{
				"x": -0.4846123856,
				"y": -1.2815991493,
				"z": -3.7538993603,
				"element": "H" 
			},
			{
				"x": 1.6544896658,
				"y": -1.6918521076,
				"z": -2.5704285381,
				"element": "H" 
			}
		],
		 "valence_orbital": [ 
			{
				"type": "occ",
				"energy": -0.31304,
				"method": "rhf"
			},
			{
				"type": "occ",
				"energy": -0.25944,
				"method": "rhf"
			},
			{
				"type": "occ",
				"energy": -0.25898,
				"method": "rhf"
			},
			{
				"type": "occ",
				"energy": -0.24322,
				"method": "rhf"
			},
			{
				"type": "occ",
				"energy": -0.23913,
				"method": "rhf"
			},
			{
				"type": "unocc",
				"energy": -0.0739,
				"method": "rhf"
			},
			{
				"type": "unocc",
				"energy": -0.0405,
				"method": "rhf"
			},
			{
				"type": "unocc",
				"energy": 0.00676,
				"method": "rhf"
			},
			{
				"type": "unocc",
				"energy": 0.0258,
				"method": "rhf"
			},
			{
				"type": "unocc",
				"energy": 0.08621,
				"method": "rhf"
			}
		],
		"cosmo_sigma_profile": { 
			"-0.025": 0.0,
			"-0.024": 0.0,
			"-0.023": 0.0,
			"-0.022": 0.0,
			"-0.021": 0.0,
			"-0.02": 0.0,
			"-0.019": 0.0,
			"-0.018": 0.0,
			"-0.017": 0.0,
			"-0.016": 0.0,
			"-0.015": 0.0,
			"-0.014": 0.0,
			"-0.013": 0.0,
			"-0.012": 0.0,
			"-0.011": 0.0,
			"-0.01": 0.0,
			"-0.009": 0.0,
			"-0.008": 1.18790556776,
			"-0.007": 11.6105075007,
			"-0.006": 20.2035639076,
			"-0.005": 17.3635682272,
			"-0.004": 16.4081129142,
			"-0.003": 13.5190930463,
			"-0.002": 13.4450846424,
			"-0.001": 14.288337407,
			"0.0": 15.6156707409,
			"0.001": 16.8066019249,
			"0.002": 18.7066926574,
			"0.003": 13.6239604634,
			"0.004": 8.84339291716,
			"0.005": 2.88451398008,
			"0.006": 1.96487026991,
			"0.007": 1.66596282994,
			"0.008": 2.7681538261,
			"0.009": 2.45387915384,
			"0.01": 2.43150813083,
			"0.011": 3.53879870594,
			"0.012": 4.07983933215,
			"0.013": 2.83972765188,
			"0.014": 1.17397024188,
			"0.015": 1.10710172143,
			"0.016": 0.567913135212,
			"0.017": 1.30009833135,
			"0.018": 0.767563713531,
			"0.019": 0.375548046956,
			"0.02": 0.0,
			"0.021": 0.0,
			"0.022": 0.0,
			"0.023": 0.0,
			"0.024": 0.0,
			"0.025": 0.0
		}
	}
}
