{
	 "smiles": "NC(=S)C1CCCCC1", 
	 "Tm": 389.15, 
	 "num_atms": 22, 
	 "gaussian": { 
		 "optdone": 1, 
		 "sigma_profile": "yes", 
		 "theory": "DFT", 
		 "functional": "B3LYP", 
		 "basiset": "6-31G**", 
		 "properties": { 
			 "R2extent": 1641.2751, 
			 "electric_dipole_moment_norm": 4.36211560943, 
			 "electric_quadrupole_moment_norm": 14.9371179847, 
			 "total_energy": -727.535866933, 
			 "HOMO_LUMO_gap": 0.17744, 
			 "cosmo_polarized_energy": -13.8, 
			 "cosmo_cavitation_energy": 24.19, 
			 "cosmo_dispersion_energy": -18.44, 
			 "cosmo_repulsion_energy": 1.48, 
			 "cosmo_total_nonelectrostatic_energy": 7.24, 
			 "SMD_solvation_energy": 2.51 
		},
		"coords": [
			{
				"x": 0.5125044557,
				"y": 2.0912729771,
				"z": 2.3946755618,
				"element": "N" 
			},
			{
				"x": 0.3962600955,
				"y": 1.6840720752,
				"z": 1.1151732935,
				"element": "C" 
			},
			{
				"x": 1.1892812409,
				"y": 2.4768202256,
				"z": -0.1198790652,
				"element": "S" 
			},
			{
				"x": -0.454411521,
				"y": 0.4297666583,
				"z": 0.9389917735,
				"element": "C" 
			},
			{
				"x": -1.4187583416,
				"y": 0.5155012422,
				"z": -0.2665201117,
				"element": "C" 
			},
			{
				"x": -1.8741465103,
				"y": -0.882961975,
				"z": -0.7023015311,
				"element": "C" 
			},
			{
				"x": -0.6866831279,
				"y": -1.7154250705,
				"z": -1.2455839669,
				"element": "C" 
			},
			{
				"x": 0.656709892,
				"y": -1.2962815337,
				"z": -0.6057596823,
				"element": "C" 
			},
			{
				"x": 0.4644340309,
				"y": -0.8379745372,
				"z": 0.8439886194,
				"element": "C" 
			},
			{
				"x": 1.0973264791,
				"y": 2.8869100856,
				"z": 2.6070935014,
				"element": "H" 
			},
			{
				"x": 0.030005659,
				"y": 1.6237963881,
				"z": 3.14820921,
				"element": "H" 
			},
			{
				"x": -1.0642718862,
				"y": 0.321694566,
				"z": 1.8479301459,
				"element": "H" 
			},
			{
				"x": -0.9046012941,
				"y": 1.0163499592,
				"z": -1.0931471897,
				"element": "H" 
			},
			{
				"x": -2.2763235429,
				"y": 1.1448673559,
				"z": -0.0031146588,
				"element": "H" 
			},
			{
				"x": -2.660594561,
				"y": -0.8032062514,
				"z": -1.460570191,
				"element": "H" 
			},
			{
				"x": -2.3320322833,
				"y": -1.3964120022,
				"z": 0.1542679835,
				"element": "H" 
			},
			{
				"x": -0.8749413168,
				"y": -2.780154394,
				"z": -1.0617692446,
				"element": "H" 
			},
			{
				"x": -0.6173650183,
				"y": -1.5990354444,
				"z": -2.3332739002,
				"element": "H" 
			},
			{
				"x": 1.3707239308,
				"y": -2.1266789571,
				"z": -0.6434882529,
				"element": "H" 
			},
			{
				"x": 1.1064939798,
				"y": -0.4737604799,
				"z": -1.1722291356,
				"element": "H" 
			},
			{
				"x": 1.4308275879,
				"y": -0.6374435478,
				"z": 1.3181007488,
				"element": "H" 
			},
			{
				"x": -0.0030379481,
				"y": -1.6456173401,
				"z": 1.4216060925,
				"element": "H" 
			}
		],
		 "valence_orbital": [ 
			{
				"type": "occ",
				"energy": -0.30642,
				"method": "rhf"
			},
			{
				"type": "occ",
				"energy": -0.30052,
				"method": "rhf"
			},
			{
				"type": "occ",
				"energy": -0.29851,
				"method": "rhf"
			},
			{
				"type": "occ",
				"energy": -0.22733,
				"method": "rhf"
			},
			{
				"type": "occ",
				"energy": -0.20406,
				"method": "rhf"
			},
			{
				"type": "unocc",
				"energy": -0.02662,
				"method": "rhf"
			},
			{
				"type": "unocc",
				"energy": 0.05943,
				"method": "rhf"
			},
			{
				"type": "unocc",
				"energy": 0.08316,
				"method": "rhf"
			},
			{
				"type": "unocc",
				"energy": 0.09061,
				"method": "rhf"
			},
			{
				"type": "unocc",
				"energy": 0.11434,
				"method": "rhf"
			}
		],
		"cosmo_sigma_profile": { 
			"-0.025": 0.0,
			"-0.024": 0.0,
			"-0.023": 0.0,
			"-0.022": 0.0,
			"-0.021": 0.0,
			"-0.02": 0.0,
			"-0.019": 0.0,
			"-0.018": 0.0,
			"-0.017": 0.0,
			"-0.016": 0.156388286803,
			"-0.015": 1.94350685064,
			"-0.014": 2.12483240901,
			"-0.013": 2.85363864666,
			"-0.012": 3.2888740655,
			"-0.011": 1.70413562907,
			"-0.01": 2.03022479019,
			"-0.009": 2.15914095724,
			"-0.008": 1.6869048789,
			"-0.007": 1.92646228244,
			"-0.006": 2.00700980502,
			"-0.005": 2.31595606309,
			"-0.004": 3.59935160023,
			"-0.003": 14.3316620422,
			"-0.002": 22.283950563,
			"-0.001": 24.325374462,
			"0.0": 27.326804974,
			"0.001": 19.5214404843,
			"0.002": 8.71554364317,
			"0.003": 3.95411207264,
			"0.004": 4.52548430313,
			"0.005": 4.13046732471,
			"0.006": 4.87860251359,
			"0.007": 4.91810843877,
			"0.008": 4.49503536535,
			"0.009": 7.76752691744,
			"0.01": 5.57506208582,
			"0.011": 3.07890066623,
			"0.012": 1.93996115082,
			"0.013": 0.235367334954,
			"0.014": 0.0,
			"0.015": 0.0,
			"0.016": 0.0,
			"0.017": 0.0,
			"0.018": 0.0,
			"0.019": 0.0,
			"0.02": 0.0,
			"0.021": 0.0,
			"0.022": 0.0,
			"0.023": 0.0,
			"0.024": 0.0,
			"0.025": 0.0
		}
	}
}
