{
	 "smiles": "COC1=CC(=CC(OC)=C1O)C(O)=O", 
	 "Tm": 479.15, 
	 "num_atms": 24, 
	 "gaussian": { 
		 "optdone": 1, 
		 "sigma_profile": "yes", 
		 "theory": "DFT", 
		 "functional": "B3LYP", 
		 "basiset": "6-31G**", 
		 "properties": { 
			 "R2extent": 3274.4391, 
			 "electric_dipole_moment_norm": 6.61575062106, 
			 "electric_quadrupole_moment_norm": 24.7707536428, 
			 "total_energy": -725.077162443, 
			 "HOMO_LUMO_gap": 0.18595, 
			 "cosmo_polarized_energy": -19.38, 
			 "cosmo_cavitation_energy": 28.41, 
			 "cosmo_dispersion_energy": -20.89, 
			 "cosmo_repulsion_energy": 1.66, 
			 "cosmo_total_nonelectrostatic_energy": 9.18, 
			 "SMD_solvation_energy": 7.95 
		},
		"coords": [
			{
				"x": 1.0309260735,
				"y": 1.6429914462,
				"z": 2.5029347298,
				"element": "C" 
			},
			{
				"x": 1.4530750415,
				"y": 1.3299733934,
				"z": 1.170330706,
				"element": "O" 
			},
			{
				"x": 0.6822637444,
				"y": 0.4421024985,
				"z": 0.4715127653,
				"element": "C" 
			},
			{
				"x": 1.2781101146,
				"y": -0.7258427793,
				"z": -0.0071000179,
				"element": "C" 
			},
			{
				"x": 0.5618180792,
				"y": -1.6271490838,
				"z": -0.7968544936,
				"element": "C" 
			},
			{
				"x": -0.7946921099,
				"y": -1.384362931,
				"z": -1.0852771001,
				"element": "C" 
			},
			{
				"x": -1.394957575,
				"y": -0.2288654749,
				"z": -0.5988794541,
				"element": "C" 
			},
			{
				"x": -2.7028688036,
				"y": 0.1441857472,
				"z": -0.7891227038,
				"element": "O" 
			},
			{
				"x": -3.5390374398,
				"y": -0.6975777907,
				"z": -1.5707003291,
				"element": "C" 
			},
			{
				"x": -0.6625283643,
				"y": 0.7032891317,
				"z": 0.1645297949,
				"element": "C" 
			},
			{
				"x": -1.2604522484,
				"y": 1.8442934632,
				"z": 0.5955660193,
				"element": "O" 
			},
			{
				"x": 1.2705671078,
				"y": -2.8536483801,
				"z": -1.2726063746,
				"element": "C" 
			},
			{
				"x": 0.739165525,
				"y": -3.4745398844,
				"z": -2.3666003131,
				"element": "O" 
			},
			{
				"x": 2.2606076404,
				"y": -3.3067335797,
				"z": -0.7479932121,
				"element": "O" 
			},
			{
				"x": 1.8063773355,
				"y": 2.2907216419,
				"z": 2.9157134554,
				"element": "H" 
			},
			{
				"x": 0.9599372434,
				"y": 0.7327044255,
				"z": 3.1113928716,
				"element": "H" 
			},
			{
				"x": 0.0711971537,
				"y": 2.1660116639,
				"z": 2.5113342988,
				"element": "H" 
			},
			{
				"x": 2.315901135,
				"y": -0.92581971,
				"z": 0.2317282322,
				"element": "H" 
			},
			{
				"x": -1.3851326175,
				"y": -2.111386095,
				"z": -1.6314521114,
				"element": "H" 
			},
			{
				"x": -4.5138773727,
				"y": -0.2099516167,
				"z": -1.6061594895,
				"element": "H" 
			},
			{
				"x": -3.6456466558,
				"y": -1.6885918555,
				"z": -1.1128897381,
				"element": "H" 
			},
			{
				"x": -3.1504996893,
				"y": -0.8075809939,
				"z": -2.5907389671,
				"element": "H" 
			},
			{
				"x": -2.1781582058,
				"y": 1.8179510971,
				"z": 0.2807913341,
				"element": "H" 
			},
			{
				"x": 0.0962048881,
				"y": -2.8897743336,
				"z": -2.7906599029,
				"element": "H" 
			}
		],
		 "valence_orbital": [ 
			{
				"type": "occ",
				"energy": -0.30736,
				"method": "rhf"
			},
			{
				"type": "occ",
				"energy": -0.2873,
				"method": "rhf"
			},
			{
				"type": "occ",
				"energy": -0.26679,
				"method": "rhf"
			},
			{
				"type": "occ",
				"energy": -0.24036,
				"method": "rhf"
			},
			{
				"type": "occ",
				"energy": -0.22466,
				"method": "rhf"
			},
			{
				"type": "unocc",
				"energy": -0.03871,
				"method": "rhf"
			},
			{
				"type": "unocc",
				"energy": -0.00568,
				"method": "rhf"
			},
			{
				"type": "unocc",
				"energy": 0.04934,
				"method": "rhf"
			},
			{
				"type": "unocc",
				"energy": 0.05957,
				"method": "rhf"
			},
			{
				"type": "unocc",
				"energy": 0.06805,
				"method": "rhf"
			}
		],
		"cosmo_sigma_profile": { 
			"-0.025": 0.0,
			"-0.024": 0.0,
			"-0.023": 0.0,
			"-0.022": 0.0,
			"-0.021": 0.0,
			"-0.02": 0.0,
			"-0.019": 0.0190786255171,
			"-0.018": 0.399723825246,
			"-0.017": 1.19047469244,
			"-0.016": 0.866505824222,
			"-0.015": 1.56049970279,
			"-0.014": 1.46905653769,
			"-0.013": 0.919455252157,
			"-0.012": 1.74800447758,
			"-0.011": 2.55349500915,
			"-0.01": 1.11204263785,
			"-0.009": 2.53894847457,
			"-0.008": 2.93116194032,
			"-0.007": 4.26073078529,
			"-0.006": 12.8240474267,
			"-0.005": 14.4818369877,
			"-0.004": 17.6011171025,
			"-0.003": 18.5593721495,
			"-0.002": 15.952725969,
			"-0.001": 11.64992492,
			"0.0": 12.1858769738,
			"0.001": 16.4372802171,
			"0.002": 15.0843232261,
			"0.003": 12.3268516822,
			"0.004": 7.92013112687,
			"0.005": 6.38853514515,
			"0.006": 4.88350686025,
			"0.007": 4.85133609851,
			"0.008": 6.04106924862,
			"0.009": 5.05187103109,
			"0.01": 6.83464638683,
			"0.011": 6.80161391221,
			"0.012": 6.03594073561,
			"0.013": 2.20903794716,
			"0.014": 0.166426621179,
			"0.015": 0.0,
			"0.016": 0.0,
			"0.017": 0.0,
			"0.018": 0.0,
			"0.019": 0.0,
			"0.02": 0.0,
			"0.021": 0.0,
			"0.022": 0.0,
			"0.023": 0.0,
			"0.024": 0.0,
			"0.025": 0.0
		}
	}
}
