{
	 "smiles": "CC(=O)NC1=CC(NS(=O)(=O)C(F)(F)F)=C(C)C=C1C", 
	 "Tm": 457.15, 
	 "num_atms": 33, 
	 "gaussian": { 
		 "optdone": 1, 
		 "sigma_profile": "yes", 
		 "theory": "DFT", 
		 "functional": "B3LYP", 
		 "basiset": "6-31G**", 
		 "properties": { 
			 "R2extent": 9918.6024, 
			 "electric_dipole_moment_norm": 4.33359773052, 
			 "electric_quadrupole_moment_norm": 15.7645275832, 
			 "total_energy": -1459.82973862, 
			 "HOMO_LUMO_gap": 0.19906, 
			 "cosmo_polarized_energy": -19.02, 
			 "cosmo_cavitation_energy": 39.55, 
			 "cosmo_dispersion_energy": -27.06, 
			 "cosmo_repulsion_energy": 1.98, 
			 "cosmo_total_nonelectrostatic_energy": 14.47, 
			 "SMD_solvation_energy": 8.12 
		},
		"coords": [
			{
				"x": 0.3382971788,
				"y": 3.1860683156,
				"z": -1.1482130892,
				"element": "C" 
			},
			{
				"x": 1.2900083569,
				"y": 2.160094549,
				"z": -1.7349938128,
				"element": "C" 
			},
			{
				"x": 2.0995633015,
				"y": 2.4508285875,
				"z": -2.6026041816,
				"element": "O" 
			},
			{
				"x": 1.2486557532,
				"y": 0.860771238,
				"z": -1.2512897762,
				"element": "N" 
			},
			{
				"x": 0.4217518603,
				"y": 0.2461963844,
				"z": -0.2840691759,
				"element": "C" 
			},
			{
				"x": -0.9612941481,
				"y": 0.4448102114,
				"z": -0.2741374798,
				"element": "C" 
			},
			{
				"x": -1.7675409811,
				"y": -0.16366072,
				"z": 0.6918613938,
				"element": "C" 
			},
			{
				"x": -3.1773680464,
				"y": 0.1453145262,
				"z": 0.7051394988,
				"element": "N" 
			},
			{
				"x": -4.2609610264,
				"y": -0.8783813678,
				"z": -0.1045235664,
				"element": "S" 
			},
			{
				"x": -3.6801266828,
				"y": -2.2112709552,
				"z": -0.1966742889,
				"element": "O" 
			},
			{
				"x": -4.8432096495,
				"y": -0.1782022128,
				"z": -1.2474896321,
				"element": "O" 
			},
			{
				"x": -5.631996368,
				"y": -0.9536676937,
				"z": 1.1628880048,
				"element": "C" 
			},
			{
				"x": -5.2283183568,
				"y": -1.5918699125,
				"z": 2.2613804776,
				"element": "F" 
			},
			{
				"x": -6.0036695564,
				"y": 0.2895400316,
				"z": 1.4822791781,
				"element": "F" 
			},
			{
				"x": -6.6633848636,
				"y": -1.6037315982,
				"z": 0.6276265115,
				"element": "F" 
			},
			{
				"x": -1.2204081826,
				"y": -1.0293783404,
				"z": 1.6504158809,
				"element": "C" 
			},
			{
				"x": -2.0590323208,
				"y": -1.7054980975,
				"z": 2.7028724308,
				"element": "C" 
			},
			{
				"x": 0.1613088614,
				"y": -1.2490139421,
				"z": 1.5865805601,
				"element": "C" 
			},
			{
				"x": 1.0005722199,
				"y": -0.6331555198,
				"z": 0.6565663054,
				"element": "C" 
			},
			{
				"x": 2.4864758766,
				"y": -0.8936302748,
				"z": 0.6629950691,
				"element": "C" 
			},
			{
				"x": -0.5896895799,
				"y": 3.2142373817,
				"z": -1.7293058097,
				"element": "H" 
			},
			{
				"x": 0.8171016799,
				"y": 4.1614135206,
				"z": -1.2432940482,
				"element": "H" 
			},
			{
				"x": 0.0844745532,
				"y": 2.9910992739,
				"z": -0.1041599799,
				"element": "H" 
			},
			{
				"x": 1.9958796939,
				"y": 0.3006383181,
				"z": -1.6437070989,
				"element": "H" 
			},
			{
				"x": -1.4222964657,
				"y": 1.0594392089,
				"z": -1.0395610393,
				"element": "H" 
			},
			{
				"x": -3.3801545516,
				"y": 1.0989492945,
				"z": 0.4155057924,
				"element": "H" 
			},
			{
				"x": -2.6114649352,
				"y": -2.5522472414,
				"z": 2.2823085862,
				"element": "H" 
			},
			{
				"x": -1.4290642188,
				"y": -2.081867836,
				"z": 3.5129111495,
				"element": "H" 
			},
			{
				"x": -2.7967702229,
				"y": -1.0180943627,
				"z": 3.1250474974,
				"element": "H" 
			},
			{
				"x": 0.6079933271,
				"y": -1.9166154284,
				"z": 2.3192560704,
				"element": "H" 
			},
			{
				"x": 3.0573687181,
				"y": 0.0412381942,
				"z": 0.6713816247,
				"element": "H" 
			},
			{
				"x": 2.8073739937,
				"y": -1.4580259521,
				"z": -0.2228672154,
				"element": "H" 
			},
			{
				"x": 2.7753247821,
				"y": -1.4791275798,
				"z": 1.538874163,
				"element": "H" 
			}
		],
		 "valence_orbital": [ 
			{
				"type": "occ",
				"energy": -0.31996,
				"method": "rhf"
			},
			{
				"type": "occ",
				"energy": -0.29591,
				"method": "rhf"
			},
			{
				"type": "occ",
				"energy": -0.26017,
				"method": "rhf"
			},
			{
				"type": "occ",
				"energy": -0.25791,
				"method": "rhf"
			},
			{
				"type": "occ",
				"energy": -0.23165,
				"method": "rhf"
			},
			{
				"type": "unocc",
				"energy": -0.03259,
				"method": "rhf"
			},
			{
				"type": "unocc",
				"energy": -0.02535,
				"method": "rhf"
			},
			{
				"type": "unocc",
				"energy": 0.02354,
				"method": "rhf"
			},
			{
				"type": "unocc",
				"energy": 0.03628,
				"method": "rhf"
			},
			{
				"type": "unocc",
				"energy": 0.03857,
				"method": "rhf"
			}
		],
		"cosmo_sigma_profile": { 
			"-0.025": 0.0,
			"-0.024": 0.0,
			"-0.023": 0.0,
			"-0.022": 0.0,
			"-0.021": 0.0,
			"-0.02": 0.0,
			"-0.019": 0.0,
			"-0.018": 0.0,
			"-0.017": 0.231220436585,
			"-0.016": 0.827024823429,
			"-0.015": 0.920730992302,
			"-0.014": 0.946744170757,
			"-0.013": 1.73190273635,
			"-0.012": 2.51475207684,
			"-0.011": 2.38031560776,
			"-0.01": 2.73409708051,
			"-0.009": 2.90645257286,
			"-0.008": 4.85094132154,
			"-0.007": 5.24053543156,
			"-0.006": 7.56772918877,
			"-0.005": 15.9185323701,
			"-0.004": 19.357221815,
			"-0.003": 22.7511208345,
			"-0.002": 27.2985037908,
			"-0.001": 33.5416768999,
			"0.0": 40.5058921335,
			"0.001": 34.3160511761,
			"0.002": 13.4814399373,
			"0.003": 11.3589488439,
			"0.004": 10.1791659065,
			"0.005": 6.748270367,
			"0.006": 4.05988397629,
			"0.007": 5.14131979916,
			"0.008": 7.5552356209,
			"0.009": 10.946350079,
			"0.01": 4.26673758735,
			"0.011": 1.45969193279,
			"0.012": 2.36283177945,
			"0.013": 5.06699973166,
			"0.014": 3.97766566573,
			"0.015": 0.575295505006,
			"0.016": 0.0,
			"0.017": 0.0,
			"0.018": 0.0,
			"0.019": 0.0,
			"0.02": 0.0,
			"0.021": 0.0,
			"0.022": 0.0,
			"0.023": 0.0,
			"0.024": 0.0,
			"0.025": 0.0
		}
	}
}
