{
	 "smiles": "CC(O)(CCC1C(C)(O)CCC2C(C)(C)CCCC12C)C=C", 
	 "Tm": 370.15, 
	 "num_atms": 58, 
	 "gaussian": { 
		 "optdone": 1, 
		 "sigma_profile": "yes", 
		 "theory": "DFT", 
		 "functional": "B3LYP", 
		 "basiset": "6-31G**", 
		 "properties": { 
			 "R2extent": 8474.095, 
			 "electric_dipole_moment_norm": 1.74352554613, 
			 "electric_quadrupole_moment_norm": 13.1231733704, 
			 "total_energy": -934.255295116, 
			 "HOMO_LUMO_gap": 0.25841, 
			 "cosmo_polarized_energy": -11.3, 
			 "cosmo_cavitation_energy": 49.11, 
			 "cosmo_dispersion_energy": -32.52, 
			 "cosmo_repulsion_energy": 2.4, 
			 "cosmo_total_nonelectrostatic_energy": 19.0, 
			 "SMD_solvation_energy": 8.1 
		},
		"coords": [
			{
				"x": -1.4081688015,
				"y": 2.1688176268,
				"z": 4.1986792909,
				"element": "C" 
			},
			{
				"x": -2.6605632376,
				"y": 1.7383373934,
				"z": 3.4256222556,
				"element": "C" 
			},
			{
				"x": -3.5882478531,
				"y": 2.8447518659,
				"z": 3.3849637017,
				"element": "O" 
			},
			{
				"x": -2.3698775668,
				"y": 1.460551568,
				"z": 1.934528704,
				"element": "C" 
			},
			{
				"x": -1.3577607442,
				"y": 0.3380671277,
				"z": 1.6584543868,
				"element": "C" 
			},
			{
				"x": -1.1113527127,
				"y": 0.0440648162,
				"z": 0.1512308909,
				"element": "C" 
			},
			{
				"x": -2.2483712997,
				"y": -0.8194746252,
				"z": -0.5013934245,
				"element": "C" 
			},
			{
				"x": -2.608147579,
				"y": -2.119802405,
				"z": 0.229235672,
				"element": "C" 
			},
			{
				"x": -3.489917153,
				"y": -0.0847728966,
				"z": -0.4690418087,
				"element": "O" 
			},
			{
				"x": -1.9018582317,
				"y": -1.095925072,
				"z": -1.9734919297,
				"element": "C" 
			},
			{
				"x": -0.5273365575,
				"y": -1.7398006496,
				"z": -2.1528545982,
				"element": "C" 
			},
			{
				"x": 0.6355528893,
				"y": -0.8644065018,
				"z": -1.6383941777,
				"element": "C" 
			},
			{
				"x": 1.1113811533,
				"y": 0.3010504377,
				"z": -2.6215090594,
				"element": "C" 
			},
			{
				"x": 0.5547452883,
				"y": 0.1590963718,
				"z": -4.0552256826,
				"element": "C" 
			},
			{
				"x": 2.6534577601,
				"y": 0.245001064,
				"z": -2.7641689464,
				"element": "C" 
			},
			{
				"x": 0.6983500684,
				"y": 1.6916776698,
				"z": -2.0885636938,
				"element": "C" 
			},
			{
				"x": 1.1871341433,
				"y": 1.9872580866,
				"z": -0.6549832046,
				"element": "C" 
			},
			{
				"x": 1.3606951219,
				"y": 0.7169625407,
				"z": 0.2008873885,
				"element": "C" 
			},
			{
				"x": 0.377483652,
				"y": -0.4341086582,
				"z": -0.1336946782,
				"element": "C" 
			},
			{
				"x": 0.7690177221,
				"y": -1.6299238126,
				"z": 0.7684988656,
				"element": "C" 
			},
			{
				"x": -3.3852890353,
				"y": 0.5584313494,
				"z": 4.0453316022,
				"element": "C" 
			},
			{
				"x": -3.0127915223,
				"y": -0.1621776547,
				"z": 5.1043192615,
				"element": "C" 
			},
			{
				"x": -0.9653642462,
				"y": 3.0425462299,
				"z": 3.7123779271,
				"element": "H" 
			},
			{
				"x": -0.6532723073,
				"y": 1.3788085238,
				"z": 4.2468299364,
				"element": "H" 
			},
			{
				"x": -1.6642701961,
				"y": 2.4464981585,
				"z": 5.2271668171,
				"element": "H" 
			},
			{
				"x": -3.8803396782,
				"y": 3.003274346,
				"z": 4.2932690714,
				"element": "H" 
			},
			{
				"x": -2.0120189876,
				"y": 2.4031675238,
				"z": 1.4983509053,
				"element": "H" 
			},
			{
				"x": -3.3210757526,
				"y": 1.2290832124,
				"z": 1.4511041784,
				"element": "H" 
			},
			{
				"x": -1.6781587102,
				"y": -0.5718437032,
				"z": 2.1749396033,
				"element": "H" 
			},
			{
				"x": -0.408262117,
				"y": 0.615085605,
				"z": 2.1238346537,
				"element": "H" 
			},
			{
				"x": -1.2060898452,
				"y": 1.0083699194,
				"z": -0.3660733532,
				"element": "H" 
			},
			{
				"x": -1.7747325448,
				"y": -2.8214589717,
				"z": 0.2779333385,
				"element": "H" 
			},
			{
				"x": -2.9484871859,
				"y": -1.9175788188,
				"z": 1.2467521657,
				"element": "H" 
			},
			{
				"x": -3.433814273,
				"y": -2.6011196135,
				"z": -0.3029527442,
				"element": "H" 
			},
			{
				"x": -3.3583872056,
				"y": 0.7373061839,
				"z": -0.9613381616,
				"element": "H" 
			},
			{
				"x": -2.6892174751,
				"y": -1.7233327877,
				"z": -2.4071888039,
				"element": "H" 
			},
			{
				"x": -1.9378216997,
				"y": -0.1397101702,
				"z": -2.5136559997,
				"element": "H" 
			},
			{
				"x": -0.5123207523,
				"y": -2.6916515479,
				"z": -1.6085699925,
				"element": "H" 
			},
			{
				"x": -0.3712209976,
				"y": -2.0101565373,
				"z": -3.2003560152,
				"element": "H" 
			},
			{
				"x": 1.4996883174,
				"y": -1.5388011005,
				"z": -1.5841700329,
				"element": "H" 
			},
			{
				"x": 0.8652707754,
				"y": -0.7805472938,
				"z": -4.523894532,
				"element": "H" 
			},
			{
				"x": 0.9435435764,
				"y": 0.9726940286,
				"z": -4.6779902788,
				"element": "H" 
			},
			{
				"x": -0.5364903221,
				"y": 0.2129775315,
				"z": -4.0969947823,
				"element": "H" 
			},
			{
				"x": 3.007756396,
				"y": 1.0432058458,
				"z": -3.4270123821,
				"element": "H" 
			},
			{
				"x": 3.1755615662,
				"y": 0.3530052979,
				"z": -1.8106849571,
				"element": "H" 
			},
			{
				"x": 2.9649210467,
				"y": -0.710476697,
				"z": -3.2017420056,
				"element": "H" 
			},
			{
				"x": -0.3942037557,
				"y": 1.769542383,
				"z": -2.134555021,
				"element": "H" 
			},
			{
				"x": 1.0743762432,
				"y": 2.4620768145,
				"z": -2.7736267214,
				"element": "H" 
			},
			{
				"x": 2.1456101792,
				"y": 2.5179343042,
				"z": -0.687109572,
				"element": "H" 
			},
			{
				"x": 0.4850728417,
				"y": 2.6768574958,
				"z": -0.1720870919,
				"element": "H" 
			},
			{
				"x": 1.3048712173,
				"y": 0.9794708292,
				"z": 1.2622520567,
				"element": "H" 
			},
			{
				"x": 2.3725575999,
				"y": 0.3193971155,
				"z": 0.0639471055,
				"element": "H" 
			},
			{
				"x": 0.5691092893,
				"y": -1.4273268543,
				"z": 1.8243272286,
				"element": "H" 
			},
			{
				"x": 1.8417007653,
				"y": -1.8315623415,
				"z": 0.6733398941,
				"element": "H" 
			},
			{
				"x": 0.2446551121,
				"y": -2.5512850234,
				"z": 0.5058777417,
				"element": "H" 
			},
			{
				"x": -4.3258772266,
				"y": 0.3259385799,
				"z": 3.5452008626,
				"element": "H" 
			},
			{
				"x": -2.0875430337,
				"y": 0.0241881898,
				"z": 5.6419901644,
				"element": "H" 
			},
			{
				"x": -3.6276621175,
				"y": -0.9778523001,
				"z": 5.4739779809,
				"element": "H" 
			}
		],
		 "valence_orbital": [ 
			{
				"type": "occ",
				"energy": -0.27887,
				"method": "rhf"
			},
			{
				"type": "occ",
				"energy": -0.27637,
				"method": "rhf"
			},
			{
				"type": "occ",
				"energy": -0.27277,
				"method": "rhf"
			},
			{
				"type": "occ",
				"energy": -0.25175,
				"method": "rhf"
			},
			{
				"type": "occ",
				"energy": -0.24453,
				"method": "rhf"
			},
			{
				"type": "unocc",
				"energy": 0.01388,
				"method": "rhf"
			},
			{
				"type": "unocc",
				"energy": 0.05875,
				"method": "rhf"
			},
			{
				"type": "unocc",
				"energy": 0.07678,
				"method": "rhf"
			},
			{
				"type": "unocc",
				"energy": 0.0823,
				"method": "rhf"
			},
			{
				"type": "unocc",
				"energy": 0.09082,
				"method": "rhf"
			}
		],
		"cosmo_sigma_profile": { 
			"-0.025": 0.0,
			"-0.024": 0.0,
			"-0.023": 0.0,
			"-0.022": 0.0,
			"-0.021": 0.0,
			"-0.02": 0.0,
			"-0.019": 0.0,
			"-0.018": 0.0,
			"-0.017": 0.0,
			"-0.016": 0.0,
			"-0.015": 0.170896462028,
			"-0.014": 1.00601300277,
			"-0.013": 1.61509726902,
			"-0.012": 1.11970641643,
			"-0.011": 2.01045451867,
			"-0.01": 1.57186226656,
			"-0.009": 1.66353310457,
			"-0.008": 1.82578597981,
			"-0.007": 2.52853191344,
			"-0.006": 2.75234327193,
			"-0.005": 6.09974263415,
			"-0.004": 11.882790496,
			"-0.003": 24.7707880003,
			"-0.002": 55.0434984494,
			"-0.001": 63.6412283931,
			"0.0": 60.4510480582,
			"0.001": 53.4633107207,
			"0.002": 36.0960681706,
			"0.003": 9.79193504891,
			"0.004": 6.08518169151,
			"0.005": 6.23999030191,
			"0.006": 3.8838012078,
			"0.007": 2.21494325487,
			"0.008": 2.33951651381,
			"0.009": 2.2889380283,
			"0.01": 2.49486325087,
			"0.011": 2.35859350505,
			"0.012": 2.64569628867,
			"0.013": 2.15352279559,
			"0.014": 3.3724206145,
			"0.015": 1.83116006363,
			"0.016": 0.0,
			"0.017": 0.0,
			"0.018": 0.0,
			"0.019": 0.0,
			"0.02": 0.0,
			"0.021": 0.0,
			"0.022": 0.0,
			"0.023": 0.0,
			"0.024": 0.0,
			"0.025": 0.0
		}
	}
}
