{
	 "smiles": "CCCOC1=CC=C(C=C1)C1=NC(=CS1)C(O)=O", 
	 "Tm": 457.15, 
	 "num_atms": 31, 
	 "gaussian": { 
		 "optdone": 1, 
		 "sigma_profile": "yes", 
		 "theory": "DFT", 
		 "functional": "B3LYP", 
		 "basiset": "6-31G**", 
		 "properties": { 
			 "R2extent": 9124.9995, 
			 "electric_dipole_moment_norm": 7.07599565503, 
			 "electric_quadrupole_moment_norm": 30.1978813581, 
			 "total_energy": -1181.84226543, 
			 "HOMO_LUMO_gap": 0.15639, 
			 "cosmo_polarized_energy": -13.95, 
			 "cosmo_cavitation_energy": 37.12, 
			 "cosmo_dispersion_energy": -27.39, 
			 "cosmo_repulsion_energy": 2.07, 
			 "cosmo_total_nonelectrostatic_energy": 11.81, 
			 "SMD_solvation_energy": 6.91 
		},
		"coords": [
			{
				"x": 3.2867932537,
				"y": 3.0625905088,
				"z": 2.3547921852,
				"element": "C" 
			},
			{
				"x": 2.0906009531,
				"y": 3.2030534395,
				"z": 1.4084709817,
				"element": "C" 
			},
			{
				"x": 0.7487593236,
				"y": 2.9379037071,
				"z": 2.0923830556,
				"element": "C" 
			},
			{
				"x": 0.6577639442,
				"y": 1.619475495,
				"z": 2.6512825091,
				"element": "O" 
			},
			{
				"x": 0.3335918694,
				"y": 0.5610426322,
				"z": 1.8644275009,
				"element": "C" 
			},
			{
				"x": 0.0341951304,
				"y": 0.6256688482,
				"z": 0.4943973017,
				"element": "C" 
			},
			{
				"x": -0.3044817587,
				"y": -0.5339057874,
				"z": -0.1959454986,
				"element": "C" 
			},
			{
				"x": -0.3516941782,
				"y": -1.7812135903,
				"z": 0.4465674534,
				"element": "C" 
			},
			{
				"x": -0.0456755533,
				"y": -1.8307349267,
				"z": 1.8197955003,
				"element": "C" 
			},
			{
				"x": 0.2911870688,
				"y": -0.6830559996,
				"z": 2.5176944329,
				"element": "C" 
			},
			{
				"x": -0.7100579079,
				"y": -2.9753193981,
				"z": -0.3188192351,
				"element": "C" 
			},
			{
				"x": -1.0010642875,
				"y": -2.9868155254,
				"z": -1.5955885456,
				"element": "N" 
			},
			{
				"x": -1.2993798821,
				"y": -4.2519203468,
				"z": -2.0464607846,
				"element": "C" 
			},
			{
				"x": -1.2429149021,
				"y": -5.2491832283,
				"z": -1.1143579315,
				"element": "C" 
			},
			{
				"x": -0.7941847313,
				"y": -4.5887070122,
				"z": 0.4150698243,
				"element": "S" 
			},
			{
				"x": -1.6548285364,
				"y": -4.4470364191,
				"z": -3.4823995008,
				"element": "C" 
			},
			{
				"x": -1.6413181904,
				"y": -3.3057857588,
				"z": -4.2016394983,
				"element": "O" 
			},
			{
				"x": -1.9303193923,
				"y": -5.5208660657,
				"z": -3.9658060658,
				"element": "O" 
			},
			{
				"x": 3.333581846,
				"y": 2.0559399874,
				"z": 2.7794830344,
				"element": "H" 
			},
			{
				"x": 3.2184120802,
				"y": 3.7729407416,
				"z": 3.1864839593,
				"element": "H" 
			},
			{
				"x": 4.2270698712,
				"y": 3.2526645857,
				"z": 1.8287825494,
				"element": "H" 
			},
			{
				"x": 2.2087585823,
				"y": 2.5263855591,
				"z": 0.5541879143,
				"element": "H" 
			},
			{
				"x": 2.0515921953,
				"y": 4.219644305,
				"z": 0.9955150548,
				"element": "H" 
			},
			{
				"x": 0.6278714935,
				"y": 3.6012784883,
				"z": 2.9543015385,
				"element": "H" 
			},
			{
				"x": -0.0939689834,
				"y": 3.1190000067,
				"z": 1.4143874504,
				"element": "H" 
			},
			{
				"x": 0.0648287511,
				"y": 1.5659940081,
				"z": -0.0419476482,
				"element": "H" 
			},
			{
				"x": -0.535349088,
				"y": -0.4816160293,
				"z": -1.2540343351,
				"element": "H" 
			},
			{
				"x": -0.0713405739,
				"y": -2.7769758468,
				"z": 2.3533244068,
				"element": "H" 
			},
			{
				"x": 0.5239002333,
				"y": -0.7176464209,
				"z": 3.5765440564,
				"element": "H" 
			},
			{
				"x": -1.4396735522,
				"y": -6.3005700178,
				"z": -1.262731144,
				"element": "H" 
			},
			{
				"x": -1.3922550786,
				"y": -2.5840299397,
				"z": -3.5940605217,
				"element": "H" 
			}
		],
		 "valence_orbital": [ 
			{
				"type": "occ",
				"energy": -0.30184,
				"method": "rhf"
			},
			{
				"type": "occ",
				"energy": -0.27603,
				"method": "rhf"
			},
			{
				"type": "occ",
				"energy": -0.27016,
				"method": "rhf"
			},
			{
				"type": "occ",
				"energy": -0.26676,
				"method": "rhf"
			},
			{
				"type": "occ",
				"energy": -0.22182,
				"method": "rhf"
			},
			{
				"type": "unocc",
				"energy": -0.06543,
				"method": "rhf"
			},
			{
				"type": "unocc",
				"energy": -0.03301,
				"method": "rhf"
			},
			{
				"type": "unocc",
				"energy": -0.01863,
				"method": "rhf"
			},
			{
				"type": "unocc",
				"energy": 0.00385,
				"method": "rhf"
			},
			{
				"type": "unocc",
				"energy": 0.0372,
				"method": "rhf"
			}
		],
		"cosmo_sigma_profile": { 
			"-0.025": 0.0,
			"-0.024": 0.0,
			"-0.023": 0.0,
			"-0.022": 0.0,
			"-0.021": 0.0,
			"-0.02": 0.0,
			"-0.019": 0.0,
			"-0.018": 0.0,
			"-0.017": 0.0,
			"-0.016": 0.0,
			"-0.015": 0.0,
			"-0.014": 0.0749871685473,
			"-0.013": 0.354664007231,
			"-0.012": 0.671956618835,
			"-0.011": 1.3081705407,
			"-0.01": 2.00243402079,
			"-0.009": 2.20448567157,
			"-0.008": 2.6805207076,
			"-0.007": 7.2301909419,
			"-0.006": 11.9123051604,
			"-0.005": 16.676385182,
			"-0.004": 18.7568770085,
			"-0.003": 25.2444509518,
			"-0.002": 25.8317187693,
			"-0.001": 29.1586825476,
			"0.0": 33.0260250127,
			"0.001": 28.1570879083,
			"0.002": 21.3044677645,
			"0.003": 18.2493175469,
			"0.004": 14.592327147,
			"0.005": 5.8399919997,
			"0.006": 3.57601738727,
			"0.007": 3.70353116375,
			"0.008": 3.53029926641,
			"0.009": 4.80083580934,
			"0.01": 5.76396494152,
			"0.011": 5.02453090005,
			"0.012": 4.88415962682,
			"0.013": 1.61466549036,
			"0.014": 0.0402931685413,
			"0.015": 0.0,
			"0.016": 0.0,
			"0.017": 0.0,
			"0.018": 0.0,
			"0.019": 0.0,
			"0.02": 0.0,
			"0.021": 0.0,
			"0.022": 0.0,
			"0.023": 0.0,
			"0.024": 0.0,
			"0.025": 0.0
		}
	}
}
