{
	 "smiles": "COC1=C(OC(F)F)C2=C(NC(=C2)C(O)=O)C=C1", 
	 "Tm": 505.15, 
	 "num_atms": 27, 
	 "gaussian": { 
		 "optdone": 1, 
		 "sigma_profile": "yes", 
		 "theory": "DFT", 
		 "functional": "B3LYP", 
		 "basiset": "6-31G**", 
		 "properties": { 
			 "R2extent": 5457.4033, 
			 "electric_dipole_moment_norm": 3.49676285441, 
			 "electric_quadrupole_moment_norm": 20.0827008079, 
			 "total_energy": -979.911220224, 
			 "HOMO_LUMO_gap": 0.1656, 
			 "cosmo_polarized_energy": -17.07, 
			 "cosmo_cavitation_energy": 33.3, 
			 "cosmo_dispersion_energy": -23.32, 
			 "cosmo_repulsion_energy": 1.77, 
			 "cosmo_total_nonelectrostatic_energy": 11.75, 
			 "SMD_solvation_energy": 8.41 
		},
		"coords": [
			{
				"x": -3.7261517811,
				"y": 1.2432320413,
				"z": 0.0246219976,
				"element": "C" 
			},
			{
				"x": -2.6626648513,
				"y": 0.9740685123,
				"z": -0.8989857423,
				"element": "O" 
			},
			{
				"x": -1.4010586451,
				"y": 1.2721748982,
				"z": -0.4298064285,
				"element": "C" 
			},
			{
				"x": -0.758589136,
				"y": 0.4236376033,
				"z": 0.4655832593,
				"element": "C" 
			},
			{
				"x": -1.4135449425,
				"y": -0.6810923169,
				"z": 0.999852587,
				"element": "O" 
			},
			{
				"x": -1.5147323881,
				"y": -1.7714009429,
				"z": 0.1589034428,
				"element": "C" 
			},
			{
				"x": -2.4387194369,
				"y": -2.5873738228,
				"z": 0.6983635834,
				"element": "F" 
			},
			{
				"x": -0.3299418743,
				"y": -2.4448758438,
				"z": 0.1320867831,
				"element": "F" 
			},
			{
				"x": 0.5512218402,
				"y": 0.7168560987,
				"z": 0.8816127504,
				"element": "C" 
			},
			{
				"x": 1.187269879,
				"y": 1.8885168101,
				"z": 0.376522838,
				"element": "C" 
			},
			{
				"x": 2.4407395285,
				"y": 1.9329983261,
				"z": 0.9316551985,
				"element": "N" 
			},
			{
				"x": 2.6211418934,
				"y": 0.8409798726,
				"z": 1.7570778764,
				"element": "C" 
			},
			{
				"x": 1.4763836166,
				"y": 0.0672650437,
				"z": 1.7505681708,
				"element": "C" 
			},
			{
				"x": 3.922338648,
				"y": 0.72296711,
				"z": 2.4399319033,
				"element": "C" 
			},
			{
				"x": 4.1077093241,
				"y": -0.3554446615,
				"z": 3.2356101288,
				"element": "O" 
			},
			{
				"x": 4.7967787914,
				"y": 1.5525979974,
				"z": 2.3017133139,
				"element": "O" 
			},
			{
				"x": 0.5494941488,
				"y": 2.7473616549,
				"z": -0.5303242567,
				"element": "C" 
			},
			{
				"x": -0.7412281042,
				"y": 2.4230841832,
				"z": -0.9193886457,
				"element": "C" 
			},
			{
				"x": -4.6521552242,
				"y": 0.982559676,
				"z": -0.4914996254,
				"element": "H" 
			},
			{
				"x": -3.7477147324,
				"y": 2.3059873607,
				"z": 0.2954676771,
				"element": "H" 
			},
			{
				"x": -3.6285982812,
				"y": 0.6370847695,
				"z": 0.9311541221,
				"element": "H" 
			},
			{
				"x": -1.7927476107,
				"y": -1.500261188,
				"z": -0.8636673012,
				"element": "H" 
			},
			{
				"x": 3.1643775194,
				"y": 2.6240225185,
				"z": 0.7969736923,
				"element": "H" 
			},
			{
				"x": 1.2941731287,
				"y": -0.8567033262,
				"z": 2.2810748669,
				"element": "H" 
			},
			{
				"x": 3.3242751851,
				"y": -0.9235182372,
				"z": 3.2282491701,
				"element": "H" 
			},
			{
				"x": 1.0440674242,
				"y": 3.632724562,
				"z": -0.9164879583,
				"element": "H" 
			},
			{
				"x": -1.2815239195,
				"y": 3.0457513008,
				"z": -1.6247634038,
				"element": "H" 
			}
		],
		 "valence_orbital": [ 
			{
				"type": "occ",
				"energy": -0.2991,
				"method": "rhf"
			},
			{
				"type": "occ",
				"energy": -0.28869,
				"method": "rhf"
			},
			{
				"type": "occ",
				"energy": -0.28399,
				"method": "rhf"
			},
			{
				"type": "occ",
				"energy": -0.24016,
				"method": "rhf"
			},
			{
				"type": "occ",
				"energy": -0.22722,
				"method": "rhf"
			},
			{
				"type": "unocc",
				"energy": -0.06162,
				"method": "rhf"
			},
			{
				"type": "unocc",
				"energy": 0.00112,
				"method": "rhf"
			},
			{
				"type": "unocc",
				"energy": 0.01142,
				"method": "rhf"
			},
			{
				"type": "unocc",
				"energy": 0.04939,
				"method": "rhf"
			},
			{
				"type": "unocc",
				"energy": 0.07965,
				"method": "rhf"
			}
		],
		"cosmo_sigma_profile": { 
			"-0.025": 0.0,
			"-0.024": 0.0,
			"-0.023": 0.0,
			"-0.022": 0.0,
			"-0.021": 0.0,
			"-0.02": 0.0,
			"-0.019": 0.569285525665,
			"-0.018": 0.884251966093,
			"-0.017": 1.3355346201,
			"-0.016": 1.23611083726,
			"-0.015": 2.01444425136,
			"-0.014": 1.78321745015,
			"-0.013": 1.98018240582,
			"-0.012": 2.09358912118,
			"-0.011": 1.50117827685,
			"-0.01": 3.29856658871,
			"-0.009": 3.56636466779,
			"-0.008": 4.1494456397,
			"-0.007": 6.7115217421,
			"-0.006": 8.47532085566,
			"-0.005": 10.9908014206,
			"-0.004": 14.7731586028,
			"-0.003": 17.3328409649,
			"-0.002": 17.4334333583,
			"-0.001": 15.6939502372,
			"0.0": 13.8483534789,
			"0.001": 15.5697571806,
			"0.002": 26.3710427381,
			"0.003": 28.9254538807,
			"0.004": 26.3723867566,
			"0.005": 5.62608765478,
			"0.006": 4.43799967115,
			"0.007": 4.11714140853,
			"0.008": 4.20903146598,
			"0.009": 4.93504030802,
			"0.01": 6.10982801006,
			"0.011": 5.1447375473,
			"0.012": 3.55457309918,
			"0.013": 1.37974745866,
			"0.014": 0.0102907531626,
			"0.015": 0.0,
			"0.016": 0.0,
			"0.017": 0.0,
			"0.018": 0.0,
			"0.019": 0.0,
			"0.02": 0.0,
			"0.021": 0.0,
			"0.022": 0.0,
			"0.023": 0.0,
			"0.024": 0.0,
			"0.025": 0.0
		}
	}
}
