{
	 "smiles": "CNC(=O)C(=O)NC", 
	 "Tm": 489.15, 
	 "num_atms": 16, 
	 "gaussian": { 
		 "optdone": 1, 
		 "sigma_profile": "yes", 
		 "theory": "DFT", 
		 "functional": "B3LYP", 
		 "basiset": "6-31G**", 
		 "properties": { 
			 "R2extent": 1886.3052, 
			 "electric_dipole_moment_norm": 0.410766819497, 
			 "electric_quadrupole_moment_norm": 13.9982320641, 
			 "total_energy": -417.223314285, 
			 "HOMO_LUMO_gap": 0.20712, 
			 "cosmo_polarized_energy": -11.55, 
			 "cosmo_cavitation_energy": 19.9, 
			 "cosmo_dispersion_energy": -14.95, 
			 "cosmo_repulsion_energy": 1.27, 
			 "cosmo_total_nonelectrostatic_energy": 6.22, 
			 "SMD_solvation_energy": 4.44 
		},
		"coords": [
			{
				"x": -3.131301968,
				"y": -3.1145300878,
				"z": 1.6779659343,
				"element": "C" 
			},
			{
				"x": -2.3405374338,
				"y": -2.3848828921,
				"z": 0.7096137797,
				"element": "N" 
			},
			{
				"x": -1.1388843678,
				"y": -1.8400160354,
				"z": 0.9982535329,
				"element": "C" 
			},
			{
				"x": -0.5711850893,
				"y": -1.8879897206,
				"z": 2.0868431596,
				"element": "O" 
			},
			{
				"x": -0.5578511969,
				"y": -1.1324639686,
				"z": -0.2460985463,
				"element": "C" 
			},
			{
				"x": -1.1949659626,
				"y": -1.1302839681,
				"z": -1.3016880385,
				"element": "O" 
			},
			{
				"x": 0.6492442331,
				"y": -0.5320230127,
				"z": -0.126766911,
				"element": "N" 
			},
			{
				"x": 1.5456387817,
				"y": -0.4273172704,
				"z": 1.0240680838,
				"element": "C" 
			},
			{
				"x": -4.1031111598,
				"y": -2.6341985594,
				"z": 1.8377222216,
				"element": "H" 
			},
			{
				"x": -2.5792057295,
				"y": -3.123517872,
				"z": 2.618979209,
				"element": "H" 
			},
			{
				"x": -3.3011270694,
				"y": -4.1470362987,
				"z": 1.3527651277,
				"element": "H" 
			},
			{
				"x": -2.6538723451,
				"y": -2.2448022883,
				"z": -0.2439139071,
				"element": "H" 
			},
			{
				"x": 0.9421025392,
				"y": -0.0978975019,
				"z": -0.9919057426,
				"element": "H" 
			},
			{
				"x": 1.0710882971,
				"y": 0.0931964561,
				"z": 1.8578823118,
				"element": "H" 
			},
			{
				"x": 2.4243228855,
				"y": 0.1360715833,
				"z": 0.7016740364,
				"element": "H" 
			},
			{
				"x": 1.8594455857,
				"y": -1.4101085635,
				"z": 1.3801057487,
				"element": "H" 
			}
		],
		 "valence_orbital": [ 
			{
				"type": "occ",
				"energy": -0.36273,
				"method": "rhf"
			},
			{
				"type": "occ",
				"energy": -0.29827,
				"method": "rhf"
			},
			{
				"type": "occ",
				"energy": -0.25953,
				"method": "rhf"
			},
			{
				"type": "occ",
				"energy": -0.2531,
				"method": "rhf"
			},
			{
				"type": "occ",
				"energy": -0.23758,
				"method": "rhf"
			},
			{
				"type": "unocc",
				"energy": -0.03046,
				"method": "rhf"
			},
			{
				"type": "unocc",
				"energy": 0.08041,
				"method": "rhf"
			},
			{
				"type": "unocc",
				"energy": 0.09971,
				"method": "rhf"
			},
			{
				"type": "unocc",
				"energy": 0.10777,
				"method": "rhf"
			},
			{
				"type": "unocc",
				"energy": 0.12899,
				"method": "rhf"
			}
		],
		"cosmo_sigma_profile": { 
			"-0.025": 0.0,
			"-0.024": 0.0,
			"-0.023": 0.0,
			"-0.022": 0.0,
			"-0.021": 0.0,
			"-0.02": 0.0,
			"-0.019": 0.0,
			"-0.018": 0.0,
			"-0.017": 0.0,
			"-0.016": 0.0,
			"-0.015": 0.143506283589,
			"-0.014": 1.24349859793,
			"-0.013": 1.12320343315,
			"-0.012": 2.08636471926,
			"-0.011": 1.49730548783,
			"-0.01": 1.52674101863,
			"-0.009": 1.84920007481,
			"-0.008": 1.66071294622,
			"-0.007": 2.64238035393,
			"-0.006": 5.00101734115,
			"-0.005": 9.56049946856,
			"-0.004": 15.0661220654,
			"-0.003": 15.3182644498,
			"-0.002": 21.681077932,
			"-0.001": 11.7437882383,
			"0.0": 9.58093671732,
			"0.001": 9.52706203518,
			"0.002": 5.52258011695,
			"0.003": 3.12109271321,
			"0.004": 2.58932208842,
			"0.005": 3.13439850331,
			"0.006": 2.72478567837,
			"0.007": 3.75636628081,
			"0.008": 2.45501785485,
			"0.009": 2.38385053139,
			"0.01": 2.32574977129,
			"0.011": 4.04660327173,
			"0.012": 4.87555977521,
			"0.013": 6.81876358028,
			"0.014": 1.75838740404,
			"0.015": 0.0,
			"0.016": 0.0,
			"0.017": 0.0,
			"0.018": 0.0,
			"0.019": 0.0,
			"0.02": 0.0,
			"0.021": 0.0,
			"0.022": 0.0,
			"0.023": 0.0,
			"0.024": 0.0,
			"0.025": 0.0
		}
	}
}
