{
	 "smiles": "OCCN1CCN(CCCN2C3=CC=CC=C3C=CC3=C2C=CC=C3)CC1", 
	 "Tm": 373.15, 
	 "num_atms": 56, 
	 "gaussian": { 
		 "optdone": 1, 
		 "sigma_profile": "yes", 
		 "theory": "DFT", 
		 "functional": "B3LYP", 
		 "basiset": "6-31G**", 
		 "properties": { 
			 "R2extent": 12518.6324, 
			 "electric_dipole_moment_norm": 2.44605320874, 
			 "electric_quadrupole_moment_norm": 18.6983002129, 
			 "total_energy": -1133.3549316, 
			 "HOMO_LUMO_gap": 0.1577, 
			 "cosmo_polarized_energy": -13.21, 
			 "cosmo_cavitation_energy": 54.81, 
			 "cosmo_dispersion_energy": -35.85, 
			 "cosmo_repulsion_energy": 2.71, 
			 "cosmo_total_nonelectrostatic_energy": 21.68, 
			 "SMD_solvation_energy": 6.56 
		},
		"coords": [
			{
				"x": -4.1114339325,
				"y": 3.023877312,
				"z": 2.242346291,
				"element": "O" 
			},
			{
				"x": -3.5169382784,
				"y": 4.2402954406,
				"z": 2.6446641062,
				"element": "C" 
			},
			{
				"x": -2.4343046083,
				"y": 4.660273207,
				"z": 1.6448605499,
				"element": "C" 
			},
			{
				"x": -1.4889528425,
				"y": 3.5627312984,
				"z": 1.4343528155,
				"element": "N" 
			},
			{
				"x": -0.8541851625,
				"y": 3.5989712269,
				"z": 0.1069376181,
				"element": "C" 
			},
			{
				"x": 0.4364544409,
				"y": 2.7571978336,
				"z": 0.0838429114,
				"element": "C" 
			},
			{
				"x": 0.3009110421,
				"y": 1.6088241875,
				"z": 0.96852008,
				"element": "N" 
			},
			{
				"x": 1.3117929872,
				"y": 0.575496441,
				"z": 0.7607143922,
				"element": "C" 
			},
			{
				"x": 0.9216598058,
				"y": -0.7759632994,
				"z": 1.3731422418,
				"element": "C" 
			},
			{
				"x": -0.3476716356,
				"y": -1.3786597604,
				"z": 0.7596284551,
				"element": "C" 
			},
			{
				"x": -0.1533679808,
				"y": -1.7987168213,
				"z": -0.6474118463,
				"element": "N" 
			},
			{
				"x": 0.6391017526,
				"y": -2.9843550489,
				"z": -0.8269967738,
				"element": "C" 
			},
			{
				"x": 1.9603771958,
				"y": -2.8358152228,
				"z": -1.2647919683,
				"element": "C" 
			},
			{
				"x": 2.8201516921,
				"y": -3.9293533106,
				"z": -1.357845846,
				"element": "C" 
			},
			{
				"x": 2.3599290335,
				"y": -5.2007139986,
				"z": -1.0056588,
				"element": "C" 
			},
			{
				"x": 1.0439896814,
				"y": -5.3654709903,
				"z": -0.5881689596,
				"element": "C" 
			},
			{
				"x": 0.1516841326,
				"y": -4.2770334118,
				"z": -0.5120695222,
				"element": "C" 
			},
			{
				"x": -1.2383746799,
				"y": -4.5436301145,
				"z": -0.149781934,
				"element": "C" 
			},
			{
				"x": -2.3363296465,
				"y": -3.8424389232,
				"z": -0.5119468614,
				"element": "C" 
			},
			{
				"x": -2.3996328621,
				"y": -2.6469138679,
				"z": -1.3495699432,
				"element": "C" 
			},
			{
				"x": -1.3317265428,
				"y": -1.725168886,
				"z": -1.4676475487,
				"element": "C" 
			},
			{
				"x": -1.442970557,
				"y": -0.6503887815,
				"z": -2.3559262196,
				"element": "C" 
			},
			{
				"x": -2.601477861,
				"y": -0.4486663817,
				"z": -3.1042697044,
				"element": "C" 
			},
			{
				"x": -3.6755259188,
				"y": -1.3319607952,
				"z": -2.9659774155,
				"element": "C" 
			},
			{
				"x": -3.5713163628,
				"y": -2.412332666,
				"z": -2.0971706305,
				"element": "C" 
			},
			{
				"x": 0.1843410113,
				"y": 2.0324576529,
				"z": 2.3698412473,
				"element": "C" 
			},
			{
				"x": -0.4837083727,
				"y": 3.4152448158,
				"z": 2.4831451874,
				"element": "C" 
			},
			{
				"x": -3.3688696684,
				"y": 2.5050923402,
				"z": 1.8866943945,
				"element": "H" 
			},
			{
				"x": -4.3000596071,
				"y": 5.0061364436,
				"z": 2.6857081526,
				"element": "H" 
			},
			{
				"x": -3.0909266452,
				"y": 4.1645011416,
				"z": 3.6607564535,
				"element": "H" 
			},
			{
				"x": -1.938035005,
				"y": 5.5958150496,
				"z": 1.9646761689,
				"element": "H" 
			},
			{
				"x": -2.9209560794,
				"y": 4.8608783967,
				"z": 0.683981572,
				"element": "H" 
			},
			{
				"x": -0.6004556736,
				"y": 4.6317338618,
				"z": -0.1933255592,
				"element": "H" 
			},
			{
				"x": -1.5730962601,
				"y": 3.210753834,
				"z": -0.6238186691,
				"element": "H" 
			},
			{
				"x": 1.3084845321,
				"y": 3.3894703326,
				"z": 0.3436959874,
				"element": "H" 
			},
			{
				"x": 0.6103713439,
				"y": 2.4010663075,
				"z": -0.9363650003,
				"element": "H" 
			},
			{
				"x": 2.2991147397,
				"y": 0.8860534321,
				"z": 1.1584472576,
				"element": "H" 
			},
			{
				"x": 1.4272693295,
				"y": 0.4368025863,
				"z": -0.3194570192,
				"element": "H" 
			},
			{
				"x": 1.7622669222,
				"y": -1.4690905506,
				"z": 1.2532459106,
				"element": "H" 
			},
			{
				"x": 0.7673196462,
				"y": -0.6744882651,
				"z": 2.4544576199,
				"element": "H" 
			},
			{
				"x": -0.7014989091,
				"y": -2.211459021,
				"z": 1.3849160926,
				"element": "H" 
			},
			{
				"x": -1.1272730934,
				"y": -0.6119959931,
				"z": 0.7534825402,
				"element": "H" 
			},
			{
				"x": 2.3019251132,
				"y": -1.836998658,
				"z": -1.5171660147,
				"element": "H" 
			},
			{
				"x": 3.844874732,
				"y": -3.7885282057,
				"z": -1.6893201457,
				"element": "H" 
			},
			{
				"x": 3.0229457087,
				"y": -6.0592218824,
				"z": -1.0616658601,
				"element": "H" 
			},
			{
				"x": 0.6792874216,
				"y": -6.3569802904,
				"z": -0.3310465856,
				"element": "H" 
			},
			{
				"x": -1.4031502858,
				"y": -5.4733284491,
				"z": 0.3922257723,
				"element": "H" 
			},
			{
				"x": -3.3021623852,
				"y": -4.2607700607,
				"z": -0.2336231284,
				"element": "H" 
			},
			{
				"x": -0.604697473,
				"y": 0.0352790072,
				"z": -2.4275270876,
				"element": "H" 
			},
			{
				"x": -2.6724997219,
				"y": 0.3995652341,
				"z": -3.7790488109,
				"element": "H" 
			},
			{
				"x": -4.5886815375,
				"y": -1.1782579296,
				"z": -3.5335552811,
				"element": "H" 
			},
			{
				"x": -4.4022749668,
				"y": -3.106131392,
				"z": -1.9958394927,
				"element": "H" 
			},
			{
				"x": -0.413234404,
				"y": 1.2935250292,
				"z": 2.9159226121,
				"element": "H" 
			},
			{
				"x": 1.1740809508,
				"y": 2.0804596445,
				"z": 2.8641665678,
				"element": "H" 
			},
			{
				"x": -0.9616658717,
				"y": 3.5013730199,
				"z": 3.462786356,
				"element": "H" 
			},
			{
				"x": 0.2739216161,
				"y": 4.220157901,
				"z": 2.4341332742,
				"element": "H" 
			}
		],
		 "valence_orbital": [ 
			{
				"type": "occ",
				"energy": -0.23899,
				"method": "rhf"
			},
			{
				"type": "occ",
				"energy": -0.2249,
				"method": "rhf"
			},
			{
				"type": "occ",
				"energy": -0.21843,
				"method": "rhf"
			},
			{
				"type": "occ",
				"energy": -0.20484,
				"method": "rhf"
			},
			{
				"type": "occ",
				"energy": -0.20115,
				"method": "rhf"
			},
			{
				"type": "unocc",
				"energy": -0.04345,
				"method": "rhf"
			},
			{
				"type": "unocc",
				"energy": -0.00606,
				"method": "rhf"
			},
			{
				"type": "unocc",
				"energy": 0.00789,
				"method": "rhf"
			},
			{
				"type": "unocc",
				"energy": 0.00937,
				"method": "rhf"
			},
			{
				"type": "unocc",
				"energy": 0.06538,
				"method": "rhf"
			}
		],
		"cosmo_sigma_profile": { 
			"-0.025": 0.0,
			"-0.024": 0.0,
			"-0.023": 0.0,
			"-0.022": 0.0,
			"-0.021": 0.0,
			"-0.02": 0.0,
			"-0.019": 0.0,
			"-0.018": 0.0,
			"-0.017": 0.0,
			"-0.016": 0.0,
			"-0.015": 0.0,
			"-0.014": 0.0,
			"-0.013": 0.0,
			"-0.012": 0.0,
			"-0.011": 0.0,
			"-0.01": 0.0,
			"-0.009": 0.15226021283,
			"-0.008": 0.374951115721,
			"-0.007": 0.135553379341,
			"-0.006": 10.6466874925,
			"-0.005": 23.0278848337,
			"-0.004": 32.8171753493,
			"-0.003": 45.1517390608,
			"-0.002": 64.4038581167,
			"-0.001": 60.2949949312,
			"0.0": 40.3704614617,
			"0.001": 25.4814645637,
			"0.002": 23.3447960806,
			"0.003": 25.3138810363,
			"0.004": 26.6323975537,
			"0.005": 23.6527958896,
			"0.006": 8.76163236843,
			"0.007": 1.80601764833,
			"0.008": 2.30497810251,
			"0.009": 1.9160578312,
			"0.01": 1.85896759677,
			"0.011": 1.75085164338,
			"0.012": 2.16620709157,
			"0.013": 1.75589432531,
			"0.014": 1.92565310411,
			"0.015": 2.83653503283,
			"0.016": 0.354348055747,
			"0.017": 0.0,
			"0.018": 0.0,
			"0.019": 0.0,
			"0.02": 0.0,
			"0.021": 0.0,
			"0.022": 0.0,
			"0.023": 0.0,
			"0.024": 0.0,
			"0.025": 0.0
		}
	}
}
