{
	 "smiles": "NS(=O)(=O)C1=CC(=C(Br)S1)[N+]([O-])=O", 
	 "Tm": 419.15, 
	 "num_atms": 16, 
	 "gaussian": { 
		 "optdone": 1, 
		 "sigma_profile": "yes", 
		 "theory": "DFT", 
		 "functional": "B3LYP", 
		 "basiset": "6-31G**", 
		 "properties": { 
			 "R2extent": 6042.0488, 
			 "electric_dipole_moment_norm": 4.51242986538, 
			 "electric_quadrupole_moment_norm": 21.4487962105, 
			 "total_energy": -3932.19556477, 
			 "HOMO_LUMO_gap": 0.16846, 
			 "cosmo_polarized_energy": -20.53, 
			 "cosmo_cavitation_energy": 27.43, 
			 "cosmo_dispersion_energy": -21.37, 
			 "cosmo_repulsion_energy": 1.62, 
			 "cosmo_total_nonelectrostatic_energy": 7.67, 
			 "SMD_solvation_energy": 5.31 
		},
		"coords": [
			{
				"x": -1.0991276635,
				"y": 1.8151662152,
				"z": 0.899946608,
				"element": "N" 
			},
			{
				"x": -0.6310539701,
				"y": 1.8161115669,
				"z": -0.6997215167,
				"element": "S" 
			},
			{
				"x": 0.029811707,
				"y": 3.0943451215,
				"z": -0.9283272319,
				"element": "O" 
			},
			{
				"x": -1.783554648,
				"y": 1.3356902731,
				"z": -1.4550989942,
				"element": "O" 
			},
			{
				"x": 0.6284504079,
				"y": 0.5633000973,
				"z": -0.8867204253,
				"element": "C" 
			},
			{
				"x": 1.9741622728,
				"y": 0.7424744376,
				"z": -0.7568757207,
				"element": "C" 
			},
			{
				"x": 2.6905606347,
				"y": -0.4729790369,
				"z": -0.9561172876,
				"element": "C" 
			},
			{
				"x": 1.8775649147,
				"y": -1.5533359593,
				"z": -1.2419566731,
				"element": "C" 
			},
			{
				"x": 2.3018282723,
				"y": -3.3380760839,
				"z": -1.5936016726,
				"element": "Br" 
			},
			{
				"x": 0.2091780724,
				"y": -1.084739108,
				"z": -1.2836303731,
				"element": "S" 
			},
			{
				"x": 4.1424050852,
				"y": -0.4990892145,
				"z": -0.8539364699,
				"element": "N" 
			},
			{
				"x": 4.7222578261,
				"y": -1.5632902597,
				"z": -1.0514946722,
				"element": "O" 
			},
			{
				"x": 4.686751945,
				"y": 0.5680190387,
				"z": -0.5678287095,
				"element": "O" 
			},
			{
				"x": -0.383865714,
				"y": 2.1300046904,
				"z": 1.5462120428,
				"element": "H" 
			},
			{
				"x": -1.5991898331,
				"y": 0.9822758218,
				"z": 1.190662675,
				"element": "H" 
			},
			{
				"x": 2.4554206903,
				"y": 1.6877223999,
				"z": -0.5456115792,
				"element": "H" 
			}
		],
		 "valence_orbital": [ 
			{
				"type": "occ",
				"energy": -0.32464,
				"method": "rhf"
			},
			{
				"type": "occ",
				"energy": -0.31846,
				"method": "rhf"
			},
			{
				"type": "occ",
				"energy": -0.31119,
				"method": "rhf"
			},
			{
				"type": "occ",
				"energy": -0.30121,
				"method": "rhf"
			},
			{
				"type": "occ",
				"energy": -0.27717,
				"method": "rhf"
			},
			{
				"type": "unocc",
				"energy": -0.10871,
				"method": "rhf"
			},
			{
				"type": "unocc",
				"energy": -0.0726,
				"method": "rhf"
			},
			{
				"type": "unocc",
				"energy": -0.04016,
				"method": "rhf"
			},
			{
				"type": "unocc",
				"energy": -0.02718,
				"method": "rhf"
			},
			{
				"type": "unocc",
				"energy": 0.02662,
				"method": "rhf"
			}
		],
		"cosmo_sigma_profile": { 
			"-0.025": 0.0,
			"-0.024": 0.0,
			"-0.023": 0.0,
			"-0.022": 0.0,
			"-0.021": 0.0,
			"-0.02": 0.0,
			"-0.019": 0.0,
			"-0.018": 0.0,
			"-0.017": 0.0421288434969,
			"-0.016": 2.23426210343,
			"-0.015": 2.94500211314,
			"-0.014": 2.92654284135,
			"-0.013": 3.24889944618,
			"-0.012": 3.22670161886,
			"-0.011": 1.80550011894,
			"-0.01": 1.73928684176,
			"-0.009": 2.92719410583,
			"-0.008": 5.02286852528,
			"-0.007": 6.2834416283,
			"-0.006": 6.67137424739,
			"-0.005": 7.7620762055,
			"-0.004": 16.3991431549,
			"-0.003": 19.0882056528,
			"-0.002": 17.0945494762,
			"-0.001": 13.668539879,
			"0.0": 13.0755067482,
			"0.001": 11.7780796755,
			"0.002": 8.19910698168,
			"0.003": 6.50745043394,
			"0.004": 6.89402798513,
			"0.005": 7.65140716428,
			"0.006": 9.56523654885,
			"0.007": 13.68367143,
			"0.008": 8.67735692121,
			"0.009": 11.3052811788,
			"0.01": 11.0883504255,
			"0.011": 4.39042367886,
			"0.012": 0.00448280686859,
			"0.013": 0.0,
			"0.014": 0.0,
			"0.015": 0.0,
			"0.016": 0.0,
			"0.017": 0.0,
			"0.018": 0.0,
			"0.019": 0.0,
			"0.02": 0.0,
			"0.021": 0.0,
			"0.022": 0.0,
			"0.023": 0.0,
			"0.024": 0.0,
			"0.025": 0.0
		}
	}
}
