{
	 "smiles": "NC1=CC=C(C=N1)C(O)=O", 
	 "Tm": 585.15, 
	 "num_atms": 16, 
	 "gaussian": { 
		 "optdone": 1, 
		 "sigma_profile": "yes", 
		 "theory": "DFT", 
		 "functional": "B3LYP", 
		 "basiset": "6-31G**", 
		 "properties": { 
			 "R2extent": 1637.4029, 
			 "electric_dipole_moment_norm": 2.90741157389, 
			 "electric_quadrupole_moment_norm": 12.9483537154, 
			 "total_energy": -492.231315919, 
			 "HOMO_LUMO_gap": 0.18826, 
			 "cosmo_polarized_energy": -14.4, 
			 "cosmo_cavitation_energy": 20.96, 
			 "cosmo_dispersion_energy": -15.82, 
			 "cosmo_repulsion_energy": 1.29, 
			 "cosmo_total_nonelectrostatic_energy": 6.44, 
			 "SMD_solvation_energy": 3.56 
		},
		"coords": [
			{
				"x": -2.6218568374,
				"y": -1.081594541,
				"z": -1.0218539879,
				"element": "N" 
			},
			{
				"x": -1.4501319872,
				"y": -0.564106859,
				"z": -0.5364568204,
				"element": "C" 
			},
			{
				"x": -0.5997587093,
				"y": 0.2228876735,
				"z": -1.3495660427,
				"element": "C" 
			},
			{
				"x": 0.5451867288,
				"y": 0.7450197497,
				"z": -0.7847841896,
				"element": "C" 
			},
			{
				"x": 0.8335301745,
				"y": 0.4875407496,
				"z": 0.5677936337,
				"element": "C" 
			},
			{
				"x": -0.0743103745,
				"y": -0.3038760173,
				"z": 1.2819717103,
				"element": "C" 
			},
			{
				"x": -1.1847250926,
				"y": -0.8233475864,
				"z": 0.7579830352,
				"element": "N" 
			},
			{
				"x": 2.0600511003,
				"y": 1.0501383944,
				"z": 1.1609442123,
				"element": "C" 
			},
			{
				"x": 2.2178444495,
				"y": 0.7264922328,
				"z": 2.4719282146,
				"element": "O" 
			},
			{
				"x": 2.8705121219,
				"y": 1.7379229221,
				"z": 0.5670989699,
				"element": "O" 
			},
			{
				"x": -2.7488150552,
				"y": -1.1682526578,
				"z": -2.0173143318,
				"element": "H" 
			},
			{
				"x": -3.0697432581,
				"y": -1.773624281,
				"z": -0.4397515518,
				"element": "H" 
			},
			{
				"x": -0.8516533005,
				"y": 0.4102288242,
				"z": -2.3889828588,
				"element": "H" 
			},
			{
				"x": 1.2343923315,
				"y": 1.354295825,
				"z": -1.3604874486,
				"element": "H" 
			},
			{
				"x": 0.1114493837,
				"y": -0.5299455149,
				"z": 2.3287835932,
				"element": "H" 
			},
			{
				"x": 3.0482283246,
				"y": 1.1491210863,
				"z": 2.7451938623,
				"element": "H" 
			}
		],
		 "valence_orbital": [ 
			{
				"type": "occ",
				"energy": -0.31056,
				"method": "rhf"
			},
			{
				"type": "occ",
				"energy": -0.28699,
				"method": "rhf"
			},
			{
				"type": "occ",
				"energy": -0.27697,
				"method": "rhf"
			},
			{
				"type": "occ",
				"energy": -0.25982,
				"method": "rhf"
			},
			{
				"type": "occ",
				"energy": -0.2249,
				"method": "rhf"
			},
			{
				"type": "unocc",
				"energy": -0.03664,
				"method": "rhf"
			},
			{
				"type": "unocc",
				"energy": -0.02127,
				"method": "rhf"
			},
			{
				"type": "unocc",
				"energy": 0.06128,
				"method": "rhf"
			},
			{
				"type": "unocc",
				"energy": 0.07805,
				"method": "rhf"
			},
			{
				"type": "unocc",
				"energy": 0.08453,
				"method": "rhf"
			}
		],
		"cosmo_sigma_profile": { 
			"-0.025": 0.0,
			"-0.024": 0.0,
			"-0.023": 0.0,
			"-0.022": 0.0,
			"-0.021": 0.0,
			"-0.02": 0.0,
			"-0.019": 0.0,
			"-0.018": 0.543335619466,
			"-0.017": 0.814752081834,
			"-0.016": 1.02056968683,
			"-0.015": 0.609422494012,
			"-0.014": 2.61045302947,
			"-0.013": 2.71463337208,
			"-0.012": 3.11256444264,
			"-0.011": 2.80345500048,
			"-0.01": 4.30941067291,
			"-0.009": 2.98950803166,
			"-0.008": 2.94226102039,
			"-0.007": 4.24594621771,
			"-0.006": 6.68048703069,
			"-0.005": 5.8838884257,
			"-0.004": 5.81674495096,
			"-0.003": 5.51369139227,
			"-0.002": 7.17276841045,
			"-0.001": 9.63530765455,
			"0.0": 12.3098792965,
			"0.001": 15.7659431406,
			"0.002": 14.1666685372,
			"0.003": 10.5609636797,
			"0.004": 5.82040660148,
			"0.005": 5.80421843767,
			"0.006": 4.40768919328,
			"0.007": 5.06518485349,
			"0.008": 5.27534739331,
			"0.009": 2.71123322585,
			"0.01": 2.89222369402,
			"0.011": 3.4486136551,
			"0.012": 6.23173470976,
			"0.013": 1.7289089252,
			"0.014": 0.786986674418,
			"0.015": 0.753038730489,
			"0.016": 0.053706986866,
			"0.017": 0.0,
			"0.018": 0.0,
			"0.019": 0.0,
			"0.02": 0.0,
			"0.021": 0.0,
			"0.022": 0.0,
			"0.023": 0.0,
			"0.024": 0.0,
			"0.025": 0.0
		}
	}
}
