{
	 "smiles": "OC(=O)C1=C(Cl)C=CC=C1Br", 
	 "Tm": 422.15, 
	 "num_atms": 15, 
	 "gaussian": { 
		 "optdone": 1, 
		 "sigma_profile": "yes", 
		 "theory": "DFT", 
		 "functional": "B3LYP", 
		 "basiset": "6-31G**", 
		 "properties": { 
			 "R2extent": 3092.4827, 
			 "electric_dipole_moment_norm": 5.32599329891, 
			 "electric_quadrupole_moment_norm": 7.28322314501, 
			 "total_energy": -3451.19365319, 
			 "HOMO_LUMO_gap": 0.21545, 
			 "cosmo_polarized_energy": -13.91, 
			 "cosmo_cavitation_energy": 24.22, 
			 "cosmo_dispersion_energy": -17.83, 
			 "cosmo_repulsion_energy": 1.44, 
			 "cosmo_total_nonelectrostatic_energy": 7.83, 
			 "SMD_solvation_energy": 3.91 
		},
		"coords": [
			{
				"x": -1.1200344752,
				"y": -2.4430359653,
				"z": -1.4668749883,
				"element": "O" 
			},
			{
				"x": 0.0305992523,
				"y": -2.0256213126,
				"z": -0.8915166766,
				"element": "C" 
			},
			{
				"x": 1.0641879997,
				"y": -2.6158903182,
				"z": -1.0554426155,
				"element": "O" 
			},
			{
				"x": -0.0849242244,
				"y": -0.7763485624,
				"z": -0.0388658379,
				"element": "C" 
			},
			{
				"x": -0.0994726731,
				"y": 0.4999347558,
				"z": -0.6212681206,
				"element": "C" 
			},
			{
				"x": -0.083422341,
				"y": 0.6536250283,
				"z": -2.370421934,
				"element": "Cl" 
			},
			{
				"x": -0.1272941991,
				"y": 1.6602612862,
				"z": 0.1504583886,
				"element": "C" 
			},
			{
				"x": -0.1462445212,
				"y": 1.5504202259,
				"z": 1.5394372605,
				"element": "C" 
			},
			{
				"x": -0.1412126382,
				"y": 0.2980492807,
				"z": 2.1518610917,
				"element": "C" 
			},
			{
				"x": -0.1073288406,
				"y": -0.8487296658,
				"z": 1.3612659794,
				"element": "C" 
			},
			{
				"x": -0.1220482731,
				"y": -2.5488758187,
				"z": 2.2255732015,
				"element": "Br" 
			},
			{
				"x": -1.8462780171,
				"y": -1.847958816,
				"z": -1.2296437088,
				"element": "H" 
			},
			{
				"x": -0.1316417037,
				"y": 2.6288667603,
				"z": -0.3357845452,
				"element": "H" 
			},
			{
				"x": -0.1670698756,
				"y": 2.4475949291,
				"z": 2.1500916549,
				"element": "H" 
			},
			{
				"x": -0.1622154696,
				"y": 0.2065081928,
				"z": 3.2312308504,
				"element": "H" 
			}
		],
		 "valence_orbital": [ 
			{
				"type": "occ",
				"energy": -0.32429,
				"method": "rhf"
			},
			{
				"type": "occ",
				"energy": -0.30242,
				"method": "rhf"
			},
			{
				"type": "occ",
				"energy": -0.29287,
				"method": "rhf"
			},
			{
				"type": "occ",
				"energy": -0.27121,
				"method": "rhf"
			},
			{
				"type": "occ",
				"energy": -0.2629,
				"method": "rhf"
			},
			{
				"type": "unocc",
				"energy": -0.04745,
				"method": "rhf"
			},
			{
				"type": "unocc",
				"energy": -0.04125,
				"method": "rhf"
			},
			{
				"type": "unocc",
				"energy": -0.02107,
				"method": "rhf"
			},
			{
				"type": "unocc",
				"energy": -0.00284,
				"method": "rhf"
			},
			{
				"type": "unocc",
				"energy": 0.02735,
				"method": "rhf"
			}
		],
		"cosmo_sigma_profile": { 
			"-0.025": 0.0,
			"-0.024": 0.0,
			"-0.023": 0.0,
			"-0.022": 0.0,
			"-0.021": 0.0,
			"-0.02": 0.230477396066,
			"-0.019": 0.840275534296,
			"-0.018": 0.969850280203,
			"-0.017": 0.601690031953,
			"-0.016": 0.901881038329,
			"-0.015": 1.30836686009,
			"-0.014": 0.600774038766,
			"-0.013": 0.768062962026,
			"-0.012": 1.10952995967,
			"-0.011": 0.916185728277,
			"-0.01": 0.666312780092,
			"-0.009": 1.68896637917,
			"-0.008": 5.91004575348,
			"-0.007": 8.34691371794,
			"-0.006": 7.77964596554,
			"-0.005": 6.47029270567,
			"-0.004": 7.53288182589,
			"-0.003": 8.62589420495,
			"-0.002": 8.9770296032,
			"-0.001": 15.3350379339,
			"0.0": 19.24439434,
			"0.001": 21.2554412078,
			"0.002": 22.2670282494,
			"0.003": 17.3513051818,
			"0.004": 10.0430167268,
			"0.005": 2.89184863702,
			"0.006": 3.88438219279,
			"0.007": 2.66414274256,
			"0.008": 4.40521147699,
			"0.009": 4.92179089886,
			"0.01": 5.25913031293,
			"0.011": 5.05176311868,
			"0.012": 1.23100329076,
			"0.013": 0.0,
			"0.014": 0.0,
			"0.015": 0.0,
			"0.016": 0.0,
			"0.017": 0.0,
			"0.018": 0.0,
			"0.019": 0.0,
			"0.02": 0.0,
			"0.021": 0.0,
			"0.022": 0.0,
			"0.023": 0.0,
			"0.024": 0.0,
			"0.025": 0.0
		}
	}
}
