{
	 "smiles": "OC(=O)C1=CC2=C(N=C1)N(CC1=CC=CC=C1)N=C2", 
	 "Tm": 484.15, 
	 "num_atms": 30, 
	 "gaussian": { 
		 "optdone": 1, 
		 "sigma_profile": "yes", 
		 "theory": "DFT", 
		 "functional": "B3LYP", 
		 "basiset": "6-31G**", 
		 "properties": { 
			 "R2extent": 6905.5008, 
			 "electric_dipole_moment_norm": 4.27195306739, 
			 "electric_quadrupole_moment_norm": 21.4143577051, 
			 "total_energy": -854.815320906, 
			 "HOMO_LUMO_gap": 0.17717, 
			 "cosmo_polarized_energy": -18.93, 
			 "cosmo_cavitation_energy": 35.61, 
			 "cosmo_dispersion_energy": -25.27, 
			 "cosmo_repulsion_energy": 1.92, 
			 "cosmo_total_nonelectrostatic_energy": 12.25, 
			 "SMD_solvation_energy": 4.88 
		},
		"coords": [
			{
				"x": -0.7781149418,
				"y": -5.4272058119,
				"z": 2.0422194521,
				"element": "O" 
			},
			{
				"x": -1.4034851761,
				"y": -4.225295503,
				"z": 1.9058523792,
				"element": "C" 
			},
			{
				"x": -2.4793956399,
				"y": -4.0436589935,
				"z": 2.4258591372,
				"element": "O" 
			},
			{
				"x": -0.6980046672,
				"y": -3.1860083254,
				"z": 1.0958075313,
				"element": "C" 
			},
			{
				"x": 0.2862510065,
				"y": -3.4794572955,
				"z": 0.1518453866,
				"element": "C" 
			},
			{
				"x": 0.8441413505,
				"y": -2.408121265,
				"z": -0.5531195586,
				"element": "C" 
			},
			{
				"x": 0.3568089658,
				"y": -1.1078789738,
				"z": -0.2500422498,
				"element": "C" 
			},
			{
				"x": -0.5950940243,
				"y": -0.7931004714,
				"z": 0.6409693763,
				"element": "N" 
			},
			{
				"x": -1.1059043717,
				"y": -1.8349615844,
				"z": 1.2839067112,
				"element": "C" 
			},
			{
				"x": 1.0287379906,
				"y": -0.2423519279,
				"z": -1.0575960713,
				"element": "N" 
			},
			{
				"x": 0.9404470299,
				"y": 1.218208595,
				"z": -1.0703962663,
				"element": "C" 
			},
			{
				"x": 1.9529368544,
				"y": 1.8867423908,
				"z": -0.1609634073,
				"element": "C" 
			},
			{
				"x": 3.2274170615,
				"y": 2.21491005,
				"z": -0.638048878,
				"element": "C" 
			},
			{
				"x": 4.163478425,
				"y": 2.8158899921,
				"z": 0.2043047494,
				"element": "C" 
			},
			{
				"x": 3.8327390819,
				"y": 3.09387393,
				"z": 1.5322617042,
				"element": "C" 
			},
			{
				"x": 2.5640126057,
				"y": 2.766916063,
				"z": 2.0153133271,
				"element": "C" 
			},
			{
				"x": 1.6282748631,
				"y": 2.165959652,
				"z": 1.1723505794,
				"element": "C" 
			},
			{
				"x": 1.9255639299,
				"y": -0.8945555867,
				"z": -1.8474412931,
				"element": "N" 
			},
			{
				"x": 1.8226184278,
				"y": -2.1826401988,
				"z": -1.565785047,
				"element": "C" 
			},
			{
				"x": 0.1396113793,
				"y": -5.3653010797,
				"z": 1.7443256661,
				"element": "H" 
			},
			{
				"x": 0.5909009239,
				"y": -4.5017439527,
				"z": -0.0609057201,
				"element": "H" 
			},
			{
				"x": -1.8916131481,
				"y": -1.6372710496,
				"z": 2.0076102045,
				"element": "H" 
			},
			{
				"x": -0.0780374941,
				"y": 1.4670440369,
				"z": -0.7639007436,
				"element": "H" 
			},
			{
				"x": 1.0803345498,
				"y": 1.5269317038,
				"z": -2.108686985,
				"element": "H" 
			},
			{
				"x": 3.4859601006,
				"y": 1.9936526712,
				"z": -1.6701084273,
				"element": "H" 
			},
			{
				"x": 5.1487816432,
				"y": 3.0693846383,
				"z": -0.1763425954,
				"element": "H" 
			},
			{
				"x": 4.5600382059,
				"y": 3.5651013,
				"z": 2.1872167817,
				"element": "H" 
			},
			{
				"x": 2.3015945028,
				"y": 2.9822931566,
				"z": 3.0471677207,
				"element": "H" 
			},
			{
				"x": 0.6427371773,
				"y": 1.9032554679,
				"z": 1.5477576346,
				"element": "H" 
			},
			{
				"x": 2.4406633877,
				"y": -2.8998116283,
				"z": -2.0891310989,
				"element": "H" 
			}
		],
		 "valence_orbital": [ 
			{
				"type": "occ",
				"energy": -0.27635,
				"method": "rhf"
			},
			{
				"type": "occ",
				"energy": -0.26484,
				"method": "rhf"
			},
			{
				"type": "occ",
				"energy": -0.25742,
				"method": "rhf"
			},
			{
				"type": "occ",
				"energy": -0.25536,
				"method": "rhf"
			},
			{
				"type": "occ",
				"energy": -0.24709,
				"method": "rhf"
			},
			{
				"type": "unocc",
				"energy": -0.06992,
				"method": "rhf"
			},
			{
				"type": "unocc",
				"energy": -0.0403,
				"method": "rhf"
			},
			{
				"type": "unocc",
				"energy": -0.01211,
				"method": "rhf"
			},
			{
				"type": "unocc",
				"energy": -0.00733,
				"method": "rhf"
			},
			{
				"type": "unocc",
				"energy": 0.02704,
				"method": "rhf"
			}
		],
		"cosmo_sigma_profile": { 
			"-0.025": 0.0,
			"-0.024": 0.0,
			"-0.023": 0.0,
			"-0.022": 0.0,
			"-0.021": 0.0,
			"-0.02": 0.143245115772,
			"-0.019": 0.60214650416,
			"-0.018": 1.42311105754,
			"-0.017": 0.702810685811,
			"-0.016": 0.638931129796,
			"-0.015": 0.970643495578,
			"-0.014": 1.45032254867,
			"-0.013": 1.25767075301,
			"-0.012": 1.22027775651,
			"-0.011": 1.3196249168,
			"-0.01": 1.75685755003,
			"-0.009": 2.25020688248,
			"-0.008": 4.73463985568,
			"-0.007": 7.18119470079,
			"-0.006": 13.7360351618,
			"-0.005": 17.5061862963,
			"-0.004": 22.0324039689,
			"-0.003": 19.6666549099,
			"-0.002": 16.7493878764,
			"-0.001": 22.8322707694,
			"0.0": 22.5587630804,
			"0.001": 19.034232568,
			"0.002": 16.2732699079,
			"0.003": 14.422319792,
			"0.004": 14.8174031398,
			"0.005": 15.8218200105,
			"0.006": 10.0721372039,
			"0.007": 4.32355482693,
			"0.008": 4.43108224886,
			"0.009": 6.36307935483,
			"0.01": 5.61902007251,
			"0.011": 6.81317601143,
			"0.012": 5.43443619758,
			"0.013": 2.01429332026,
			"0.014": 0.195431967791,
			"0.015": 0.0,
			"0.016": 0.0,
			"0.017": 0.0,
			"0.018": 0.0,
			"0.019": 0.0,
			"0.02": 0.0,
			"0.021": 0.0,
			"0.022": 0.0,
			"0.023": 0.0,
			"0.024": 0.0,
			"0.025": 0.0
		}
	}
}
