{
	 "smiles": "CN(C1=CC=CC=C1)S(=O)(=O)C1=CC(=CC=C1)C(O)=O", 
	 "Tm": 423.15, 
	 "num_atms": 33, 
	 "gaussian": { 
		 "optdone": 1, 
		 "sigma_profile": "yes", 
		 "theory": "DFT", 
		 "functional": "B3LYP", 
		 "basiset": "6-31G**", 
		 "properties": { 
			 "R2extent": 6472.9171, 
			 "electric_dipole_moment_norm": 5.64321546372, 
			 "electric_quadrupole_moment_norm": 13.9611131841, 
			 "total_energy": -1295.1007346, 
			 "HOMO_LUMO_gap": 0.16659, 
			 "cosmo_polarized_energy": -18.86, 
			 "cosmo_cavitation_energy": 38.59, 
			 "cosmo_dispersion_energy": -26.53, 
			 "cosmo_repulsion_energy": 2.0, 
			 "cosmo_total_nonelectrostatic_energy": 14.06, 
			 "SMD_solvation_energy": 6.69 
		},
		"coords": [
			{
				"x": 1.9469667354,
				"y": 1.2022739285,
				"z": 0.4814982195,
				"element": "C" 
			},
			{
				"x": 0.6820537731,
				"y": 1.8864852489,
				"z": 0.1776347752,
				"element": "N" 
			},
			{
				"x": 0.2770136669,
				"y": 1.9849498702,
				"z": -1.1972795359,
				"element": "C" 
			},
			{
				"x": 0.5931505645,
				"y": 0.9753081508,
				"z": -2.1174477795,
				"element": "C" 
			},
			{
				"x": 0.2346590555,
				"y": 1.113733517,
				"z": -3.4590395586,
				"element": "C" 
			},
			{
				"x": -0.4564900025,
				"y": 2.2460775044,
				"z": -3.8897831379,
				"element": "C" 
			},
			{
				"x": -0.7770833801,
				"y": 3.2486470015,
				"z": -2.9713777226,
				"element": "C" 
			},
			{
				"x": -0.4039260398,
				"y": 3.1304918537,
				"z": -1.6341455932,
				"element": "C" 
			},
			{
				"x": -0.5327347698,
				"y": 1.7238825787,
				"z": 1.3639626964,
				"element": "S" 
			},
			{
				"x": 0.1614900375,
				"y": 1.7688066478,
				"z": 2.6526891652,
				"element": "O" 
			},
			{
				"x": -1.6009485337,
				"y": 2.6617364999,
				"z": 1.0268770806,
				"element": "O" 
			},
			{
				"x": -1.1911482695,
				"y": 0.0605296602,
				"z": 1.1672928562,
				"element": "C" 
			},
			{
				"x": -2.1861062369,
				"y": -0.1758190697,
				"z": 0.2201991216,
				"element": "C" 
			},
			{
				"x": -2.6710315862,
				"y": -1.4785350088,
				"z": 0.0561735988,
				"element": "C" 
			},
			{
				"x": -2.1595873192,
				"y": -2.5242249764,
				"z": 0.8380457524,
				"element": "C" 
			},
			{
				"x": -1.1691916145,
				"y": -2.2688799446,
				"z": 1.785604347,
				"element": "C" 
			},
			{
				"x": -0.6778529514,
				"y": -0.9737721775,
				"z": 1.9565070737,
				"element": "C" 
			},
			{
				"x": -3.7404138133,
				"y": -1.6958785598,
				"z": -0.9584945161,
				"element": "C" 
			},
			{
				"x": -4.138163972,
				"y": -2.9898257609,
				"z": -1.0349817325,
				"element": "O" 
			},
			{
				"x": -4.2200276933,
				"y": -0.8255838442,
				"z": -1.654909937,
				"element": "O" 
			},
			{
				"x": 2.6964865706,
				"y": 1.5630026827,
				"z": -0.2255349792,
				"element": "H" 
			},
			{
				"x": 1.8837212184,
				"y": 0.1077705697,
				"z": 0.4014147663,
				"element": "H" 
			},
			{
				"x": 2.2531257913,
				"y": 1.4670895995,
				"z": 1.4925155272,
				"element": "H" 
			},
			{
				"x": 1.1194886047,
				"y": 0.0844454421,
				"z": -1.791352629,
				"element": "H" 
			},
			{
				"x": 0.4899146418,
				"y": 0.3280215141,
				"z": -4.1642171168,
				"element": "H" 
			},
			{
				"x": -0.7397448739,
				"y": 2.3491918908,
				"z": -4.9329380167,
				"element": "H" 
			},
			{
				"x": -1.3083797648,
				"y": 4.1373312747,
				"z": -3.2989779433,
				"element": "H" 
			},
			{
				"x": -0.6366578627,
				"y": 3.9097040738,
				"z": -0.9194449223,
				"element": "H" 
			},
			{
				"x": -2.6018154111,
				"y": 0.6295710996,
				"z": -0.3740982203,
				"element": "H" 
			},
			{
				"x": -2.5466873415,
				"y": -3.5277409168,
				"z": 0.7042024821,
				"element": "H" 
			},
			{
				"x": -0.7841113221,
				"y": -3.0772389067,
				"z": 2.3992987408,
				"element": "H" 
			},
			{
				"x": 0.0739367501,
				"y": -0.7515251398,
				"z": 2.7058533765,
				"element": "H" 
			},
			{
				"x": -4.8309046516,
				"y": -3.0151263032,
				"z": -1.7154462385,
				"element": "H" 
			}
		],
		 "valence_orbital": [ 
			{
				"type": "occ",
				"energy": -0.2879,
				"method": "rhf"
			},
			{
				"type": "occ",
				"energy": -0.2812,
				"method": "rhf"
			},
			{
				"type": "occ",
				"energy": -0.27578,
				"method": "rhf"
			},
			{
				"type": "occ",
				"energy": -0.2555,
				"method": "rhf"
			},
			{
				"type": "occ",
				"energy": -0.2329,
				"method": "rhf"
			},
			{
				"type": "unocc",
				"energy": -0.06631,
				"method": "rhf"
			},
			{
				"type": "unocc",
				"energy": -0.04377,
				"method": "rhf"
			},
			{
				"type": "unocc",
				"energy": -0.01095,
				"method": "rhf"
			},
			{
				"type": "unocc",
				"energy": -0.00649,
				"method": "rhf"
			},
			{
				"type": "unocc",
				"energy": 0.03285,
				"method": "rhf"
			}
		],
		"cosmo_sigma_profile": { 
			"-0.025": 0.0,
			"-0.024": 0.0,
			"-0.023": 0.0,
			"-0.022": 0.0,
			"-0.021": 0.0,
			"-0.02": 0.0,
			"-0.019": 0.315486014584,
			"-0.018": 0.858283435534,
			"-0.017": 1.09662739825,
			"-0.016": 0.90407714321,
			"-0.015": 0.642084387821,
			"-0.014": 0.462389632344,
			"-0.013": 0.179723789173,
			"-0.012": 1.00179408024,
			"-0.011": 0.734681955089,
			"-0.01": 0.479572513057,
			"-0.009": 0.807622426153,
			"-0.008": 3.24394487076,
			"-0.007": 8.84772271166,
			"-0.006": 17.9453419236,
			"-0.005": 20.8981569422,
			"-0.004": 25.7183558437,
			"-0.003": 24.8541452547,
			"-0.002": 21.8162898513,
			"-0.001": 20.9539483449,
			"0.0": 24.3434206258,
			"0.001": 24.057684025,
			"0.002": 17.9266168138,
			"0.003": 15.5461533861,
			"0.004": 15.9809059848,
			"0.005": 12.5783798558,
			"0.006": 7.65681565308,
			"0.007": 6.24651768825,
			"0.008": 4.73214986811,
			"0.009": 5.98919383664,
			"0.01": 9.50940247312,
			"0.011": 10.3150743848,
			"0.012": 2.06558373533,
			"0.013": 0.0,
			"0.014": 0.0,
			"0.015": 0.0,
			"0.016": 0.0,
			"0.017": 0.0,
			"0.018": 0.0,
			"0.019": 0.0,
			"0.02": 0.0,
			"0.021": 0.0,
			"0.022": 0.0,
			"0.023": 0.0,
			"0.024": 0.0,
			"0.0": 0.0
		}
	}
}
