{
	 "smiles": "NC1=CN=C(OC2=CC=C(Br)C=C2)C=C1", 
	 "Tm": 381.15, 
	 "num_atms": 24, 
	 "gaussian": { 
		 "optdone": 1, 
		 "sigma_profile": "yes", 
		 "theory": "DFT", 
		 "functional": "B3LYP", 
		 "basiset": "6-31G**", 
		 "properties": { 
			 "R2extent": 8426.5296, 
			 "electric_dipole_moment_norm": 5.19547753147, 
			 "electric_quadrupole_moment_norm": 11.5153150691, 
			 "total_energy": -3180.71668283, 
			 "HOMO_LUMO_gap": 0.17506, 
			 "cosmo_polarized_energy": -12.51, 
			 "cosmo_cavitation_energy": 31.39, 
			 "cosmo_dispersion_energy": -23.54, 
			 "cosmo_repulsion_energy": 1.85, 
			 "cosmo_total_nonelectrostatic_energy": 9.7, 
			 "SMD_solvation_energy": 3.64 
		},
		"coords": [
			{
				"x": 1.8632627406,
				"y": 0.6825143226,
				"z": -4.2292803434,
				"element": "N" 
			},
			{
				"x": 1.4834721061,
				"y": 0.4563143763,
				"z": -2.9029675426,
				"element": "C" 
			},
			{
				"x": 0.2091110535,
				"y": -0.0268904215,
				"z": -2.5770936045,
				"element": "C" 
			},
			{
				"x": -0.2231078383,
				"y": -0.2076015732,
				"z": -1.3230092381,
				"element": "N" 
			},
			{
				"x": 0.5970040893,
				"y": 0.0930816455,
				"z": -0.3314917543,
				"element": "C" 
			},
			{
				"x": 0.2201454118,
				"y": -0.1219723055,
				"z": 0.9741877622,
				"element": "O" 
			},
			{
				"x": -1.1009686367,
				"y": -0.2904952252,
				"z": 1.340738025,
				"element": "C" 
			},
			{
				"x": -1.3433381454,
				"y": -1.2380030957,
				"z": 2.3364232684,
				"element": "C" 
			},
			{
				"x": -2.631017366,
				"y": -1.4076476475,
				"z": 2.8433138958,
				"element": "C" 
			},
			{
				"x": -3.6687925576,
				"y": -0.6265974729,
				"z": 2.3398635476,
				"element": "C" 
			},
			{
				"x": -5.4413605811,
				"y": -0.8573148024,
				"z": 3.0229888775,
				"element": "Br" 
			},
			{
				"x": -3.4339103943,
				"y": 0.3221349333,
				"z": 1.3454280849,
				"element": "C" 
			},
			{
				"x": -2.1448458274,
				"y": 0.4951718019,
				"z": 0.8442158773,
				"element": "C" 
			},
			{
				"x": 1.8939362373,
				"y": 0.5864283326,
				"z": -0.5247246364,
				"element": "C" 
			},
			{
				"x": 2.3352908564,
				"y": 0.7659999063,
				"z": -1.8263666765,
				"element": "C" 
			},
			{
				"x": 2.8576026314,
				"y": 0.6194885263,
				"z": -4.4024971551,
				"element": "H" 
			},
			{
				"x": 1.3389159735,
				"y": 0.1525608329,
				"z": -4.9129330487,
				"element": "H" 
			},
			{
				"x": -0.4952728879,
				"y": -0.2815451028,
				"z": -3.3687158805,
				"element": "H" 
			},
			{
				"x": -0.5158073451,
				"y": -1.8321254738,
				"z": 2.709337239,
				"element": "H" 
			},
			{
				"x": -2.8233704439,
				"y": -2.1414989799,
				"z": 3.6175044944,
				"element": "H" 
			},
			{
				"x": -4.2501001527,
				"y": 0.9258608996,
				"z": 0.9652957818,
				"element": "H" 
			},
			{
				"x": -1.9577222135,
				"y": 1.2276020314,
				"z": 0.0693686198,
				"element": "H" 
			},
			{
				"x": 2.5214640919,
				"y": 0.8142493801,
				"z": 0.3293540312,
				"element": "H" 
			},
			{
				"x": 3.333609198,
				"y": 1.1521851116,
				"z": -2.0159396249,
				"element": "H" 
			}
		],
		 "valence_orbital": [ 
			{
				"type": "occ",
				"energy": -0.27927,
				"method": "rhf"
			},
			{
				"type": "occ",
				"energy": -0.27056,
				"method": "rhf"
			},
			{
				"type": "occ",
				"energy": -0.25501,
				"method": "rhf"
			},
			{
				"type": "occ",
				"energy": -0.2304,
				"method": "rhf"
			},
			{
				"type": "occ",
				"energy": -0.20231,
				"method": "rhf"
			},
			{
				"type": "unocc",
				"energy": -0.02725,
				"method": "rhf"
			},
			{
				"type": "unocc",
				"energy": -0.00635,
				"method": "rhf"
			},
			{
				"type": "unocc",
				"energy": -0.00556,
				"method": "rhf"
			},
			{
				"type": "unocc",
				"energy": 0.01417,
				"method": "rhf"
			},
			{
				"type": "unocc",
				"energy": 0.01778,
				"method": "rhf"
			}
		],
		"cosmo_sigma_profile": { 
			"-0.025": 0.0,
			"-0.024": 0.0,
			"-0.023": 0.0,
			"-0.022": 0.0,
			"-0.021": 0.0,
			"-0.02": 0.0,
			"-0.019": 0.0,
			"-0.018": 0.0,
			"-0.017": 0.0,
			"-0.016": 0.0,
			"-0.015": 0.0,
			"-0.014": 0.0,
			"-0.013": 0.88059331743,
			"-0.012": 3.11199158192,
			"-0.011": 2.95647143047,
			"-0.01": 3.64420856389,
			"-0.009": 3.60021449989,
			"-0.008": 3.17173817486,
			"-0.007": 11.3503084826,
			"-0.006": 13.6816734651,
			"-0.005": 13.3578806764,
			"-0.004": 11.862963413,
			"-0.003": 12.248922941,
			"-0.002": 12.2372256581,
			"-0.001": 11.8094062212,
			"0.0": 14.1352931022,
			"0.001": 17.0282127445,
			"0.002": 29.0301849374,
			"0.003": 33.3519659487,
			"0.004": 23.7914180177,
			"0.005": 13.1309918538,
			"0.006": 4.16502716332,
			"0.007": 3.48197754259,
			"0.008": 3.37763433119,
			"0.009": 2.08054360035,
			"0.01": 1.57573455153,
			"0.011": 1.24117419287,
			"0.012": 2.20919409322,
			"0.013": 1.49185152743,
			"0.014": 0.900535401172,
			"0.015": 0.182615593188,
			"0.016": 0.0,
			"0.017": 0.0,
			"0.018": 0.0,
			"0.019": 0.0,
			"0.02": 0.0,
			"0.021": 0.0,
			"0.022": 0.0,
			"0.023": 0.0,
			"0.024": 0.0,
			"0.025": 0.0
		}
	}
}
