{
	 "smiles": "CC(C)(C)N1C=C(C(O)=O)C(=N1)C1=C(F)C=C(F)C=C1", 
	 "Tm": 419.15, 
	 "num_atms": 34, 
	 "gaussian": { 
		 "optdone": 1, 
		 "sigma_profile": "yes", 
		 "theory": "DFT", 
		 "functional": "B3LYP", 
		 "basiset": "6-31G**", 
		 "properties": { 
			 "R2extent": 6891.3635, 
			 "electric_dipole_moment_norm": 5.69048386871, 
			 "electric_quadrupole_moment_norm": 26.7991718463, 
			 "total_energy": -1001.55779258, 
			 "HOMO_LUMO_gap": 0.20674, 
			 "cosmo_polarized_energy": -15.64, 
			 "cosmo_cavitation_energy": 38.5, 
			 "cosmo_dispersion_energy": -26.2, 
			 "cosmo_repulsion_energy": 1.96, 
			 "cosmo_total_nonelectrostatic_energy": 14.26, 
			 "SMD_solvation_energy": 8.17 
		},
		"coords": [
			{
				"x": -2.6992843632,
				"y": -1.1460801576,
				"z": -1.3023859421,
				"element": "C" 
			},
			{
				"x": -2.5732881376,
				"y": 0.2693416012,
				"z": -0.712098316,
				"element": "C" 
			},
			{
				"x": -3.798781124,
				"y": 0.6011023908,
				"z": 0.1479513908,
				"element": "C" 
			},
			{
				"x": -2.4048292539,
				"y": 1.3129775747,
				"z": -1.8298547745,
				"element": "C" 
			},
			{
				"x": -1.3504815764,
				"y": 0.3056059495,
				"z": 0.1380405083,
				"element": "N" 
			},
			{
				"x": -1.2273081153,
				"y": 0.5403474411,
				"z": 1.4618519747,
				"element": "C" 
			},
			{
				"x": 0.12185404,
				"y": 0.4525577303,
				"z": 1.776034672,
				"element": "C" 
			},
			{
				"x": 0.637047599,
				"y": 0.7328660184,
				"z": 3.1332772669,
				"element": "C" 
			},
			{
				"x": 1.963161539,
				"y": 1.0046026186,
				"z": 3.2478235235,
				"element": "O" 
			},
			{
				"x": -0.0741347438,
				"y": 0.7639831649,
				"z": 4.1129853149,
				"element": "O" 
			},
			{
				"x": 0.7495067473,
				"y": 0.1296362178,
				"z": 0.537268545,
				"element": "C" 
			},
			{
				"x": -0.1535330723,
				"y": 0.0475136433,
				"z": -0.4429150842,
				"element": "N" 
			},
			{
				"x": 2.1735375936,
				"y": -0.1087880337,
				"z": 0.2238252671,
				"element": "C" 
			},
			{
				"x": 2.9619563145,
				"y": -0.9918873823,
				"z": 0.9765443587,
				"element": "C" 
			},
			{
				"x": 2.4135472135,
				"y": -1.6211605759,
				"z": 2.0322462549,
				"element": "F" 
			},
			{
				"x": 4.2914349246,
				"y": -1.2617645247,
				"z": 0.6742222195,
				"element": "C" 
			},
			{
				"x": 4.8393506796,
				"y": -0.6356811716,
				"z": -0.4386571898,
				"element": "C" 
			},
			{
				"x": 6.1238431885,
				"y": -0.8833565233,
				"z": -0.7497744844,
				"element": "F" 
			},
			{
				"x": 4.1027324541,
				"y": 0.2345477584,
				"z": -1.2377534081,
				"element": "C" 
			},
			{
				"x": 2.7770975284,
				"y": 0.4871328123,
				"z": -0.8977140527,
				"element": "C" 
			},
			{
				"x": -3.5737903716,
				"y": -1.1993042155,
				"z": -1.9579218554,
				"element": "H" 
			},
			{
				"x": -1.8087206442,
				"y": -1.3990514079,
				"z": -1.8810861519,
				"element": "H" 
			},
			{
				"x": -2.818050239,
				"y": -1.8886844204,
				"z": -0.5074039584,
				"element": "H" 
			},
			{
				"x": -3.9419022942,
				"y": -0.1283374184,
				"z": 0.9508688061,
				"element": "H" 
			},
			{
				"x": -3.7293821682,
				"y": 1.6012366305,
				"z": 0.5865845389,
				"element": "H" 
			},
			{
				"x": -4.6894106374,
				"y": 0.5767043089,
				"z": -0.4852906455,
				"element": "H" 
			},
			{
				"x": -3.2747271351,
				"y": 1.2909521266,
				"z": -2.4930869467,
				"element": "H" 
			},
			{
				"x": -2.3160652424,
				"y": 2.3202734111,
				"z": -1.4110740536,
				"element": "H" 
			},
			{
				"x": -1.5093884039,
				"y": 1.10166107,
				"z": -2.4176560323,
				"element": "H" 
			},
			{
				"x": -2.0569894932,
				"y": 0.7676881745,
				"z": 2.1106317422,
				"element": "H" 
			},
			{
				"x": 2.3843300523,
				"y": 1.0161367937,
				"z": 2.3754053243,
				"element": "H" 
			},
			{
				"x": 4.8700394186,
				"y": -1.9489520924,
				"z": 1.2791194752,
				"element": "H" 
			},
			{
				"x": 4.5692701161,
				"y": 0.698461042,
				"z": -2.099085899,
				"element": "H" 
			},
			{
				"x": 2.1779576067,
				"y": 1.1563194454,
				"z": -1.5054223886,
				"element": "H" 
			}
		],
		 "valence_orbital": [ 
			{
				"type": "occ",
				"energy": -0.28916,
				"method": "rhf"
			},
			{
				"type": "occ",
				"energy": -0.27123,
				"method": "rhf"
			},
			{
				"type": "occ",
				"energy": -0.26432,
				"method": "rhf"
			},
			{
				"type": "occ",
				"energy": -0.25459,
				"method": "rhf"
			},
			{
				"type": "occ",
				"energy": -0.24397,
				"method": "rhf"
			},
			{
				"type": "unocc",
				"energy": -0.03723,
				"method": "rhf"
			},
			{
				"type": "unocc",
				"energy": -0.02337,
				"method": "rhf"
			},
			{
				"type": "unocc",
				"energy": -0.01378,
				"method": "rhf"
			},
			{
				"type": "unocc",
				"energy": 0.01947,
				"method": "rhf"
			},
			{
				"type": "unocc",
				"energy": 0.06969,
				"method": "rhf"
			}
		],
		"cosmo_sigma_profile": { 
			"-0.025": 0.0,
			"-0.024": 0.0,
			"-0.023": 0.0,
			"-0.022": 0.0,
			"-0.021": 0.0,
			"-0.02": 0.0,
			"-0.019": 0.0,
			"-0.018": 0.0,
			"-0.017": 0.0,
			"-0.016": 0.0,
			"-0.015": 0.380379152988,
			"-0.014": 0.760119792468,
			"-0.013": 0.753737896058,
			"-0.012": 1.53361267521,
			"-0.011": 1.07527367258,
			"-0.01": 1.16650853047,
			"-0.009": 3.39412311961,
			"-0.008": 4.44987073318,
			"-0.007": 8.17449554458,
			"-0.006": 8.95550079191,
			"-0.005": 14.499142798,
			"-0.004": 23.3100764623,
			"-0.003": 22.616199363,
			"-0.002": 24.5440951307,
			"-0.001": 31.2133061688,
			"0.0": 39.9951995346,
			"0.001": 25.6661575534,
			"0.002": 17.5238429051,
			"0.003": 19.9925012283,
			"0.004": 16.0915447911,
			"0.005": 4.78461056658,
			"0.006": 4.98353645289,
			"0.007": 3.13104168319,
			"0.008": 3.03410675421,
			"0.009": 4.53187643863,
			"0.01": 5.00150637173,
			"0.011": 5.03332727997,
			"0.012": 6.35549351708,
			"0.013": 2.55891341733,
			"0.014": 0.375794892075,
			"0.015": 0.0,
			"0.016": 0.0,
			"0.017": 0.0,
			"0.018": 0.0,
			"0.019": 0.0,
			"0.02": 0.0,
			"0.021": 0.0,
			"0.022": 0.0,
			"0.023": 0.0,
			"0.024": 0.0,
			"0.025": 0.0
		}
	}
}
