{
	 "smiles": "ON=C(O)C1=C(O)C=CC=C1", 
	 "Tm": 454.15, 
	 "num_atms": 18, 
	 "gaussian": { 
		 "optdone": 1, 
		 "sigma_profile": "yes", 
		 "theory": "DFT", 
		 "functional": "B3LYP", 
		 "basiset": "6-31G**", 
		 "properties": { 
			 "R2extent": 2519.361, 
			 "electric_dipole_moment_norm": 1.80211803443, 
			 "electric_quadrupole_moment_norm": 13.6800096053, 
			 "total_energy": -551.32699151, 
			 "HOMO_LUMO_gap": 0.18736, 
			 "cosmo_polarized_energy": -11.78, 
			 "cosmo_cavitation_energy": 22.14, 
			 "cosmo_dispersion_energy": -16.92, 
			 "cosmo_repulsion_energy": 1.36, 
			 "cosmo_total_nonelectrostatic_energy": 6.58, 
			 "SMD_solvation_energy": 4.39 
		},
		"coords": [
			{
				"x": -1.4128925553,
				"y": 0.0896589789,
				"z": 4.0362912062,
				"element": "O" 
			},
			{
				"x": -2.1117016988,
				"y": 1.1536145593,
				"z": 3.3895894819,
				"element": "N" 
			},
			{
				"x": -1.987886988,
				"y": 1.1221254627,
				"z": 2.105995687,
				"element": "C" 
			},
			{
				"x": -2.7374019996,
				"y": 2.0451563144,
				"z": 1.4464983782,
				"element": "O" 
			},
			{
				"x": -1.2011157665,
				"y": 0.2632081648,
				"z": 1.1980964568,
				"element": "C" 
			},
			{
				"x": 0.1080338045,
				"y": -0.2015351122,
				"z": 1.4803765658,
				"element": "C" 
			},
			{
				"x": 0.7778294324,
				"y": 0.0602746518,
				"z": 2.6235584296,
				"element": "O" 
			},
			{
				"x": 0.8006299871,
				"y": -0.9332924133,
				"z": 0.5016566272,
				"element": "C" 
			},
			{
				"x": 0.2203242374,
				"y": -1.2106071251,
				"z": -0.727641774,
				"element": "C" 
			},
			{
				"x": -1.0751080169,
				"y": -0.7628462887,
				"z": -1.0149741548,
				"element": "C" 
			},
			{
				"x": -1.7635574684,
				"y": -0.0260107184,
				"z": -0.0629568277,
				"element": "C" 
			},
			{
				"x": -1.5463740849,
				"y": 0.3030911814,
				"z": 4.9692559917,
				"element": "H" 
			},
			{
				"x": -3.2857309812,
				"y": 2.4870591386,
				"z": 2.1153510753,
				"element": "H" 
			},
			{
				"x": 0.1272218616,
				"y": 0.1714912861,
				"z": 3.3496112709,
				"element": "H" 
			},
			{
				"x": 1.8032009574,
				"y": -1.2685228569,
				"z": 0.7453079247,
				"element": "H" 
			},
			{
				"x": 0.7768306909,
				"y": -1.7810049684,
				"z": -1.4661037255,
				"element": "H" 
			},
			{
				"x": -1.5352920909,
				"y": -0.9804231231,
				"z": -1.9733473124,
				"element": "H" 
			},
			{
				"x": -2.7584093209,
				"y": 0.3472628682,
				"z": -0.2779653009,
				"element": "H" 
			}
		],
		 "valence_orbital": [ 
			{
				"type": "occ",
				"energy": -0.3198,
				"method": "rhf"
			},
			{
				"type": "occ",
				"energy": -0.29966,
				"method": "rhf"
			},
			{
				"type": "occ",
				"energy": -0.2669,
				"method": "rhf"
			},
			{
				"type": "occ",
				"energy": -0.2397,
				"method": "rhf"
			},
			{
				"type": "occ",
				"energy": -0.22054,
				"method": "rhf"
			},
			{
				"type": "unocc",
				"energy": -0.03318,
				"method": "rhf"
			},
			{
				"type": "unocc",
				"energy": 0.00982,
				"method": "rhf"
			},
			{
				"type": "unocc",
				"energy": 0.04349,
				"method": "rhf"
			},
			{
				"type": "unocc",
				"energy": 0.05156,
				"method": "rhf"
			},
			{
				"type": "unocc",
				"energy": 0.08278,
				"method": "rhf"
			}
		],
		"cosmo_sigma_profile": { 
			"-0.025": 0.0,
			"-0.024": 0.0,
			"-0.023": 0.0,
			"-0.022": 0.0,
			"-0.021": 0.0,
			"-0.02": 0.0,
			"-0.019": 0.264679250418,
			"-0.018": 1.32423007041,
			"-0.017": 1.50014976718,
			"-0.016": 1.88304212045,
			"-0.015": 1.93107908929,
			"-0.014": 1.1719246967,
			"-0.013": 1.37177170344,
			"-0.012": 1.43420707104,
			"-0.011": 1.34769522738,
			"-0.01": 1.48294328713,
			"-0.009": 1.55907837331,
			"-0.008": 2.20622691215,
			"-0.007": 2.28209782941,
			"-0.006": 7.72934581637,
			"-0.005": 9.97657142502,
			"-0.004": 10.281600606,
			"-0.003": 9.05617418279,
			"-0.002": 7.55228783155,
			"-0.001": 9.4061023028,
			"0.0": 9.79977636827,
			"0.001": 9.13735573736,
			"0.002": 13.7205294658,
			"0.003": 15.8962248927,
			"0.004": 16.2715296695,
			"0.005": 11.978303784,
			"0.006": 5.239605812,
			"0.007": 3.80223062786,
			"0.008": 5.48698594542,
			"0.009": 3.87591189775,
			"0.01": 3.81467620137,
			"0.011": 2.43733830727,
			"0.012": 1.38719139496,
			"0.013": 0.0,
			"0.014": 0.0,
			"0.015": 0.0,
			"0.016": 0.0,
			"0.017": 0.0,
			"0.018": 0.0,
			"0.019": 0.0,
			"0.02": 0.0,
			"0.021": 0.0,
			"0.022": 0.0,
			"0.023": 0.0,
			"0.024": 0.0,
			"0.025": 0.0
		}
	}
}
