{
	 "smiles": "BrC1=CC(Br)=C(Br)C=C1OC1=C(Br)C(Br)=C(Br)C(Br)=C1Br", 
	 "Tm": 473.15, 
	 "num_atms": 23, 
	 "gaussian": { 
		 "optdone": 1, 
		 "sigma_profile": "yes", 
		 "theory": "DFT", 
		 "functional": "B3LYP", 
		 "basiset": "6-31G**", 
		 "properties": { 
			 "R2extent": 23620.9171, 
			 "electric_dipole_moment_norm": 0.90185295919, 
			 "electric_quadrupole_moment_norm": 7.0394185598, 
			 "total_energy": -21104.8828698, 
			 "HOMO_LUMO_gap": 0.16454, 
			 "cosmo_polarized_energy": -6.78, 
			 "cosmo_cavitation_energy": 46.34, 
			 "cosmo_dispersion_energy": -34.13, 
			 "cosmo_repulsion_energy": 2.66, 
			 "cosmo_total_nonelectrostatic_energy": 14.87, 
			 "SMD_solvation_energy": -0.25 
		},
		"coords": [
			{
				"x": -0.1553893413,
				"y": -3.6232184533,
				"z": 1.1270079842,
				"element": "Br" 
			},
			{
				"x": -0.5893438717,
				"y": -2.3751201593,
				"z": -0.2339015181,
				"element": "C" 
			},
			{
				"x": -1.1694134241,
				"y": -2.8203124079,
				"z": -1.4156782652,
				"element": "C" 
			},
			{
				"x": -1.4980209767,
				"y": -1.9211691451,
				"z": -2.4328218734,
				"element": "C" 
			},
			{
				"x": -2.2871000283,
				"y": -2.6104457971,
				"z": -4.0157732309,
				"element": "Br" 
			},
			{
				"x": -1.2378797428,
				"y": -0.5598156452,
				"z": -2.2535470244,
				"element": "C" 
			},
			{
				"x": -1.649359066,
				"y": 0.7337093146,
				"z": -3.5801910072,
				"element": "Br" 
			},
			{
				"x": -0.6555250842,
				"y": -0.1108661016,
				"z": -1.0669881603,
				"element": "C" 
			},
			{
				"x": -0.3292530709,
				"y": -1.0100771937,
				"z": -0.0552733079,
				"element": "C" 
			},
			{
				"x": 0.2455164258,
				"y": -0.6339427684,
				"z": 1.1361646737,
				"element": "O" 
			},
			{
				"x": 0.5314946191,
				"y": 0.6819456431,
				"z": 1.3875777057,
				"element": "C" 
			},
			{
				"x": 1.7988419326,
				"y": 1.1899090095,
				"z": 1.0745147465,
				"element": "C" 
			},
			{
				"x": 3.018769555,
				"y": 0.0438254412,
				"z": 0.1949009657,
				"element": "Br" 
			},
			{
				"x": 2.1315167445,
				"y": 2.5071883045,
				"z": 1.4214127547,
				"element": "C" 
			},
			{
				"x": 3.8453021586,
				"y": 3.1835054971,
				"z": 0.9938342168,
				"element": "Br" 
			},
			{
				"x": 1.1889894561,
				"y": 3.3129637355,
				"z": 2.0849352202,
				"element": "C" 
			},
			{
				"x": 1.6325772107,
				"y": 5.0925102875,
				"z": 2.5543613384,
				"element": "Br" 
			},
			{
				"x": -0.0810477603,
				"y": 2.7997865032,
				"z": 2.4035151834,
				"element": "C" 
			},
			{
				"x": -1.3545252548,
				"y": 3.8711982978,
				"z": 3.302133352,
				"element": "Br" 
			},
			{
				"x": -0.4063511895,
				"y": 1.4815506965,
				"z": 2.053248875,
				"element": "C" 
			},
			{
				"x": -2.0876373218,
				"y": 0.7187387178,
				"z": 2.4617509589,
				"element": "Br" 
			},
			{
				"x": -1.3684316603,
				"y": -3.8759997049,
				"z": -1.5487514938,
				"element": "H" 
			},
			{
				"x": -0.4586303096,
				"y": 0.9459359282,
				"z": -0.9395320938,
				"element": "H" 
			}
		],
		 "valence_orbital": [ 
			{
				"type": "occ",
				"energy": -0.27403,
				"method": "rhf"
			},
			{
				"type": "occ",
				"energy": -0.26468,
				"method": "rhf"
			},
			{
				"type": "occ",
				"energy": -0.26401,
				"method": "rhf"
			},
			{
				"type": "occ",
				"energy": -0.26139,
				"method": "rhf"
			},
			{
				"type": "occ",
				"energy": -0.24278,
				"method": "rhf"
			},
			{
				"type": "unocc",
				"energy": -0.07824,
				"method": "rhf"
			},
			{
				"type": "unocc",
				"energy": -0.06304,
				"method": "rhf"
			},
			{
				"type": "unocc",
				"energy": -0.06066,
				"method": "rhf"
			},
			{
				"type": "unocc",
				"energy": -0.04184,
				"method": "rhf"
			},
			{
				"type": "unocc",
				"energy": -0.03561,
				"method": "rhf"
			}
		],
		"cosmo_sigma_profile": { 
			"-0.025": 0.0,
			"-0.024": 0.0,
			"-0.023": 0.0,
			"-0.022": 0.0,
			"-0.021": 0.0,
			"-0.02": 0.0,
			"-0.019": 0.0,
			"-0.018": 0.0,
			"-0.017": 0.0,
			"-0.016": 0.0,
			"-0.015": 0.0,
			"-0.014": 0.0,
			"-0.013": 0.0,
			"-0.012": 0.0,
			"-0.011": 0.0,
			"-0.01": 0.0972403227787,
			"-0.009": 2.37655998305,
			"-0.008": 3.1820158315,
			"-0.007": 5.9457729118,
			"-0.006": 11.3443112475,
			"-0.005": 15.6727126602,
			"-0.004": 17.8564133447,
			"-0.003": 28.0076334623,
			"-0.002": 33.3623727398,
			"-0.001": 34.879492496,
			"0.0": 49.4231045292,
			"0.001": 46.9858552886,
			"0.002": 48.5140879714,
			"0.003": 65.212024315,
			"0.004": 28.627817571,
			"0.005": 5.16073333082,
			"0.006": 2.07719505689,
			"0.007": 1.05517590802,
			"0.008": 0.00308000440356,
			"0.009": 0.0,
			"0.01": 0.0,
			"0.011": 0.0,
			"0.012": 0.0,
			"0.013": 0.0,
			"0.014": 0.0,
			"0.015": 0.0,
			"0.016": 0.0,
			"0.017": 0.0,
			"0.018": 0.0,
			"0.019": 0.0,
			"0.02": 0.0,
			"0.021": 0.0,
			"0.022": 0.0,
			"0.023": 0.0,
			"0.024": 0.0,
			"0.025": 0.0
		}
	}
}
