{
	 "smiles": "COC1=NC(Cl)=NC(Cl)=N1", 
	 "Tm": 363.15, 
	 "num_atms": 13, 
	 "gaussian": { 
		 "optdone": 1, 
		 "sigma_profile": "yes", 
		 "theory": "DFT", 
		 "functional": "B3LYP", 
		 "basiset": "6-31G**", 
		 "properties": { 
			 "R2extent": 2267.7432, 
			 "electric_dipole_moment_norm": 3.16333890059, 
			 "electric_quadrupole_moment_norm": 7.60377434765, 
			 "total_energy": -1314.08757554, 
			 "HOMO_LUMO_gap": 0.23202, 
			 "cosmo_polarized_energy": -7.48, 
			 "cosmo_cavitation_energy": 22.1, 
			 "cosmo_dispersion_energy": -17.02, 
			 "cosmo_repulsion_energy": 1.42, 
			 "cosmo_total_nonelectrostatic_energy": 6.5, 
			 "SMD_solvation_energy": 0.29 
		},
		"coords": [
			{
				"x": -2.8826436964,
				"y": -1.0712252509,
				"z": 0.1570936878,
				"element": "C" 
			},
			{
				"x": -1.9135996761,
				"y": -0.9714327307,
				"z": -0.9031435841,
				"element": "O" 
			},
			{
				"x": -0.6750087871,
				"y": -0.6378936274,
				"z": -0.5820896373,
				"element": "C" 
			},
			{
				"x": 0.1759079259,
				"y": -0.5632926298,
				"z": -1.6194188208,
				"element": "N" 
			},
			{
				"x": 1.4021139766,
				"y": -0.2288579636,
				"z": -1.2667095928,
				"element": "C" 
			},
			{
				"x": 2.5749434169,
				"y": -0.107788808,
				"z": -2.5459101246,
				"element": "Cl" 
			},
			{
				"x": 1.854521245,
				"y": 0.02944955,
				"z": -0.0360492484,
				"element": "N" 
			},
			{
				"x": 0.9084491361,
				"y": -0.0818340608,
				"z": 0.8878858057,
				"element": "C" 
			},
			{
				"x": 1.3922495251,
				"y": 0.2346227511,
				"z": 2.5298732785,
				"element": "Cl" 
			},
			{
				"x": -0.3637029454,
				"y": -0.4064920692,
				"z": 0.7021037581,
				"element": "N" 
			},
			{
				"x": -2.5844129182,
				"y": -1.8327051295,
				"z": 0.8810997859,
				"element": "H" 
			},
			{
				"x": -2.9926582064,
				"y": -0.1130900851,
				"z": 0.6697875861,
				"element": "H" 
			},
			{
				"x": -3.8110589959,
				"y": -1.352459946,
				"z": -0.3379228941,
				"element": "H" 
			}
		],
		 "valence_orbital": [ 
			{
				"type": "occ",
				"energy": -0.33311,
				"method": "rhf"
			},
			{
				"type": "occ",
				"energy": -0.31437,
				"method": "rhf"
			},
			{
				"type": "occ",
				"energy": -0.30565,
				"method": "rhf"
			},
			{
				"type": "occ",
				"energy": -0.30399,
				"method": "rhf"
			},
			{
				"type": "occ",
				"energy": -0.30196,
				"method": "rhf"
			},
			{
				"type": "unocc",
				"energy": -0.06994,
				"method": "rhf"
			},
			{
				"type": "unocc",
				"energy": -0.05388,
				"method": "rhf"
			},
			{
				"type": "unocc",
				"energy": 0.00615,
				"method": "rhf"
			},
			{
				"type": "unocc",
				"energy": 0.03859,
				"method": "rhf"
			},
			{
				"type": "unocc",
				"energy": 0.09554,
				"method": "rhf"
			}
		],
		"cosmo_sigma_profile": { 
			"-0.025": 0.0,
			"-0.024": 0.0,
			"-0.023": 0.0,
			"-0.022": 0.0,
			"-0.021": 0.0,
			"-0.02": 0.0,
			"-0.019": 0.0,
			"-0.018": 0.0,
			"-0.017": 0.0,
			"-0.016": 0.0,
			"-0.015": 0.0,
			"-0.014": 0.0,
			"-0.013": 0.0,
			"-0.012": 0.0,
			"-0.011": 0.0,
			"-0.01": 0.485121688811,
			"-0.009": 1.50979215635,
			"-0.008": 2.14189469439,
			"-0.007": 7.27802289428,
			"-0.006": 11.7557998725,
			"-0.005": 13.3241468555,
			"-0.004": 16.0631603035,
			"-0.003": 10.5968003327,
			"-0.002": 11.3144600784,
			"-0.001": 9.84410332371,
			"0.0": 11.1137120332,
			"0.001": 14.4402459502,
			"0.002": 19.8588465166,
			"0.003": 16.3461317645,
			"0.004": 8.49487155786,
			"0.005": 5.67389075124,
			"0.006": 5.22684733447,
			"0.007": 4.6979048012,
			"0.008": 4.47071517893,
			"0.009": 3.73762012709,
			"0.01": 2.04042508381,
			"0.011": 1.97507948392,
			"0.012": 0.795316028772,
			"0.013": 0.0,
			"0.014": 0.0,
			"0.015": 0.0,
			"0.016": 0.0,
			"0.017": 0.0,
			"0.018": 0.0,
			"0.019": 0.0,
			"0.02": 0.0,
			"0.021": 0.0,
			"0.022": 0.0,
			"0.023": 0.0,
			"0.024": 0.0,
			"0.025": 0.0
		}
	}
}
