{
	 "smiles": "COC1=C(C=CC=C1)C(=O)CC#N", 
	 "Tm": 346.15, 
	 "num_atms": 22, 
	 "gaussian": { 
		 "optdone": 1, 
		 "sigma_profile": "yes", 
		 "theory": "DFT", 
		 "functional": "B3LYP", 
		 "basiset": "6-31G**", 
		 "properties": { 
			 "R2extent": 2887.1143, 
			 "electric_dipole_moment_norm": 8.40167860847, 
			 "electric_quadrupole_moment_norm": 22.1131475032, 
			 "total_energy": -591.650939988, 
			 "HOMO_LUMO_gap": 0.1803, 
			 "cosmo_polarized_energy": -16.29, 
			 "cosmo_cavitation_energy": 27.21, 
			 "cosmo_dispersion_energy": -19.19, 
			 "cosmo_repulsion_energy": 1.51, 
			 "cosmo_total_nonelectrostatic_energy": 9.53, 
			 "SMD_solvation_energy": 7.46 
		},
		"coords": [
			{
				"x": 1.942728652,
				"y": 0.9621861885,
				"z": -1.4553118931,
				"element": "C" 
			},
			{
				"x": 0.9991018071,
				"y": 0.6142297779,
				"z": -0.4474291727,
				"element": "O" 
			},
			{
				"x": -0.3173466892,
				"y": 0.9168427918,
				"z": -0.6338863056,
				"element": "C" 
			},
			{
				"x": -1.2271290776,
				"y": 0.5534938981,
				"z": 0.3910910674,
				"element": "C" 
			},
			{
				"x": -2.5867128197,
				"y": 0.8607823583,
				"z": 0.2094057788,
				"element": "C" 
			},
			{
				"x": -3.0511727212,
				"y": 1.5012733349,
				"z": -0.9318883102,
				"element": "C" 
			},
			{
				"x": -2.1409983781,
				"y": 1.8511538343,
				"z": -1.9302386058,
				"element": "C" 
			},
			{
				"x": -0.7850650472,
				"y": 1.5632779243,
				"z": -1.7865225188,
				"element": "C" 
			},
			{
				"x": -0.8895667971,
				"y": -0.1393165541,
				"z": 1.678026919,
				"element": "C" 
			},
			{
				"x": -1.762354954,
				"y": -0.4021982144,
				"z": 2.4870359165,
				"element": "O" 
			},
			{
				"x": 0.5674015347,
				"y": -0.5241580036,
				"z": 1.9863922988,
				"element": "C" 
			},
			{
				"x": 0.7117677795,
				"y": -1.1900594548,
				"z": 3.2805529982,
				"element": "C" 
			},
			{
				"x": 0.8819378185,
				"y": -1.7220150163,
				"z": 4.2968094286,
				"element": "N" 
			},
			{
				"x": 1.7205919717,
				"y": 0.4583860512,
				"z": -2.4031530894,
				"element": "H" 
			},
			{
				"x": 2.9105299643,
				"y": 0.6229224889,
				"z": -1.0842989669,
				"element": "H" 
			},
			{
				"x": 1.9755637208,
				"y": 2.045947174,
				"z": -1.6164211585,
				"element": "H" 
			},
			{
				"x": -3.2635990951,
				"y": 0.5733324144,
				"z": 1.0064336903,
				"element": "H" 
			},
			{
				"x": -4.1069042709,
				"y": 1.7253800859,
				"z": -1.0435488024,
				"element": "H" 
			},
			{
				"x": -2.4817790535,
				"y": 2.3526852738,
				"z": -2.8315621598,
				"element": "H" 
			},
			{
				"x": -0.0971547343,
				"y": 1.8439782061,
				"z": -2.5740297696,
				"element": "H" 
			},
			{
				"x": 1.1981776468,
				"y": 0.3705455966,
				"z": 1.9580183524,
				"element": "H" 
			},
			{
				"x": 0.9531827423,
				"y": -1.1715701559,
				"z": 1.191924303,
				"element": "H" 
			}
		],
		 "valence_orbital": [ 
			{
				"type": "occ",
				"energy": -0.31797,
				"method": "rhf"
			},
			{
				"type": "occ",
				"energy": -0.31523,
				"method": "rhf"
			},
			{
				"type": "occ",
				"energy": -0.27137,
				"method": "rhf"
			},
			{
				"type": "occ",
				"energy": -0.2649,
				"method": "rhf"
			},
			{
				"type": "occ",
				"energy": -0.24661,
				"method": "rhf"
			},
			{
				"type": "unocc",
				"energy": -0.06631,
				"method": "rhf"
			},
			{
				"type": "unocc",
				"energy": -0.01028,
				"method": "rhf"
			},
			{
				"type": "unocc",
				"energy": 0.02391,
				"method": "rhf"
			},
			{
				"type": "unocc",
				"energy": 0.04064,
				"method": "rhf"
			},
			{
				"type": "unocc",
				"energy": 0.0493,
				"method": "rhf"
			}
		],
		"cosmo_sigma_profile": { 
			"-0.025": 0.0,
			"-0.024": 0.0,
			"-0.023": 0.0,
			"-0.022": 0.0,
			"-0.021": 0.0,
			"-0.02": 0.0,
			"-0.019": 0.0,
			"-0.018": 0.0,
			"-0.017": 0.0,
			"-0.016": 0.0,
			"-0.015": 0.0,
			"-0.014": 0.0,
			"-0.013": 0.0,
			"-0.012": 0.0,
			"-0.011": 0.0,
			"-0.01": 0.699441398625,
			"-0.009": 4.18320527208,
			"-0.008": 4.38956623086,
			"-0.007": 8.62460157952,
			"-0.006": 18.8887665549,
			"-0.005": 19.1382436606,
			"-0.004": 19.0712144949,
			"-0.003": 15.59456264,
			"-0.002": 10.7000915409,
			"-0.001": 10.885524109,
			"0.0": 13.313244409,
			"0.001": 13.1157398648,
			"0.002": 12.7695643754,
			"0.003": 13.0248543811,
			"0.004": 11.1826157565,
			"0.005": 3.94734930852,
			"0.006": 3.89451692191,
			"0.007": 4.48453309468,
			"0.008": 5.78726314422,
			"0.009": 6.36437190683,
			"0.01": 6.21985046303,
			"0.011": 6.78561946069,
			"0.012": 3.69223025215,
			"0.013": 1.737625391,
			"0.014": 0.116175971795,
			"0.015": 0.0,
			"0.016": 0.0,
			"0.017": 0.0,
			"0.018": 0.0,
			"0.019": 0.0,
			"0.02": 0.0,
			"0.021": 0.0,
			"0.022": 0.0,
			"0.023": 0.0,
			"0.024": 0.0,
			"0.025": 0.0
		}
	}
}
