{
	 "smiles": "CC1=C(C=C(C=C1)S(=O)(=O)NCC1=CC=CO1)C(O)=O", 
	 "Tm": 452.15, 
	 "num_atms": 33, 
	 "gaussian": { 
		 "optdone": 1, 
		 "sigma_profile": "yes", 
		 "theory": "DFT", 
		 "functional": "B3LYP", 
		 "basiset": "6-31G**", 
		 "properties": { 
			 "R2extent": 6491.6538, 
			 "electric_dipole_moment_norm": 5.22764558669, 
			 "electric_quadrupole_moment_norm": 22.3694848343, 
			 "total_energy": -1332.19803625, 
			 "HOMO_LUMO_gap": 0.17382, 
			 "cosmo_polarized_energy": -20.78, 
			 "cosmo_cavitation_energy": 39.14, 
			 "cosmo_dispersion_energy": -27.1, 
			 "cosmo_repulsion_energy": 2.05, 
			 "cosmo_total_nonelectrostatic_energy": 14.08, 
			 "SMD_solvation_energy": 7.39 
		},
		"coords": [
			{
				"x": -2.0280787162,
				"y": -1.3999216393,
				"z": -2.4707341009,
				"element": "C" 
			},
			{
				"x": -1.2654627375,
				"y": -0.5332913335,
				"z": -1.4997703159,
				"element": "C" 
			},
			{
				"x": 0.1101525772,
				"y": -0.2193801055,
				"z": -1.6410751454,
				"element": "C" 
			},
			{
				"x": 0.7475509456,
				"y": 0.6010356721,
				"z": -0.6982954313,
				"element": "C" 
			},
			{
				"x": 0.0377585302,
				"y": 1.1029534893,
				"z": 0.3872131675,
				"element": "C" 
			},
			{
				"x": -1.3173936649,
				"y": 0.8124366766,
				"z": 0.543590017,
				"element": "C" 
			},
			{
				"x": -1.9469819883,
				"y": 0.0038161785,
				"z": -0.3979600516,
				"element": "C" 
			},
			{
				"x": 0.8771617596,
				"y": 2.1495839973,
				"z": 1.5856394428,
				"element": "S" 
			},
			{
				"x": 1.9728707556,
				"y": 2.8046193959,
				"z": 0.870962383,
				"element": "O" 
			},
			{
				"x": -0.162219782,
				"y": 2.886777344,
				"z": 2.3083995109,
				"element": "O" 
			},
			{
				"x": 1.6226666782,
				"y": 1.1787993704,
				"z": 2.7228954786,
				"element": "N" 
			},
			{
				"x": 0.9206164618,
				"y": 0.5829503112,
				"z": 3.8680302021,
				"element": "C" 
			},
			{
				"x": 0.5988558929,
				"y": -0.8685767899,
				"z": 3.7385241498,
				"element": "C" 
			},
			{
				"x": 1.143093009,
				"y": -1.9927677352,
				"z": 4.2896653711,
				"element": "C" 
			},
			{
				"x": 0.407964171,
				"y": -3.1059768773,
				"z": 3.7636206023,
				"element": "C" 
			},
			{
				"x": -0.5278123188,
				"y": -2.5765651635,
				"z": 2.9296774172,
				"element": "C" 
			},
			{
				"x": -0.4291047791,
				"y": -1.2167552256,
				"z": 2.903474795,
				"element": "O" 
			},
			{
				"x": 0.9027607082,
				"y": -0.73911012,
				"z": -2.7902744482,
				"element": "C" 
			},
			{
				"x": 2.2026994934,
				"y": -0.3498175236,
				"z": -2.7500323905,
				"element": "O" 
			},
			{
				"x": 0.4817847664,
				"y": -1.4410731237,
				"z": -3.6901312892,
				"element": "O" 
			},
			{
				"x": -1.5821381857,
				"y": -2.3943047167,
				"z": -2.5563721343,
				"element": "H" 
			},
			{
				"x": -2.0098532172,
				"y": -0.9801031734,
				"z": -3.4798908627,
				"element": "H" 
			},
			{
				"x": -3.0673573499,
				"y": -1.502126383,
				"z": -2.1475507214,
				"element": "H" 
			},
			{
				"x": 1.7896869376,
				"y": 0.8630061675,
				"z": -0.8313698838,
				"element": "H" 
			},
			{
				"x": -1.8670374964,
				"y": 1.2295236642,
				"z": 1.3796007332,
				"element": "H" 
			},
			{
				"x": -3.0043790968,
				"y": -0.216018454,
				"z": -0.2822540019,
				"element": "H" 
			},
			{
				"x": 2.4333185538,
				"y": 0.6883436213,
				"z": 2.3625343055,
				"element": "H" 
			},
			{
				"x": 1.5495368021,
				"y": 0.7155449825,
				"z": 4.7547670613,
				"element": "H" 
			},
			{
				"x": 0.0183550377,
				"y": 1.1805059592,
				"z": 4.0254743467,
				"element": "H" 
			},
			{
				"x": 1.9663694348,
				"y": -2.0247590741,
				"z": 4.9895269675,
				"element": "H" 
			},
			{
				"x": 0.5583359993,
				"y": -4.1536025451,
				"z": 3.9805747956,
				"element": "H" 
			},
			{
				"x": -1.3025129225,
				"y": -3.0033923847,
				"z": 2.3118964401,
				"element": "H" 
			},
			{
				"x": 2.6144937409,
				"y": -0.7327544618,
				"z": -3.5416564102,
				"element": "H" 
			}
		],
		 "valence_orbital": [ 
			{
				"type": "occ",
				"energy": -0.28885,
				"method": "rhf"
			},
			{
				"type": "occ",
				"energy": -0.2805,
				"method": "rhf"
			},
			{
				"type": "occ",
				"energy": -0.2756,
				"method": "rhf"
			},
			{
				"type": "occ",
				"energy": -0.25937,
				"method": "rhf"
			},
			{
				"type": "occ",
				"energy": -0.2354,
				"method": "rhf"
			},
			{
				"type": "unocc",
				"energy": -0.06158,
				"method": "rhf"
			},
			{
				"type": "unocc",
				"energy": -0.03529,
				"method": "rhf"
			},
			{
				"type": "unocc",
				"energy": -0.00458,
				"method": "rhf"
			},
			{
				"type": "unocc",
				"energy": 0.03653,
				"method": "rhf"
			},
			{
				"type": "unocc",
				"energy": 0.05618,
				"method": "rhf"
			}
		],
		"cosmo_sigma_profile": { 
			"-0.025": 0.0,
			"-0.024": 0.0,
			"-0.023": 0.0,
			"-0.022": 0.0,
			"-0.021": 0.0,
			"-0.02": 0.0,
			"-0.019": 0.0668740861768,
			"-0.018": 0.805217857547,
			"-0.017": 0.796064052193,
			"-0.016": 0.954551063587,
			"-0.015": 1.88091436653,
			"-0.014": 1.4046450621,
			"-0.013": 1.77415398323,
			"-0.012": 2.27405820324,
			"-0.011": 1.62369464394,
			"-0.01": 1.97471425815,
			"-0.009": 1.80695422764,
			"-0.008": 3.84196758793,
			"-0.007": 13.0181574885,
			"-0.006": 17.5791349563,
			"-0.005": 14.7042939136,
			"-0.004": 18.8018636487,
			"-0.003": 19.4679221647,
			"-0.002": 24.4116126303,
			"-0.001": 22.1044642856,
			"0.0": 25.4103543312,
			"0.001": 22.1725635532,
			"0.002": 19.6000209545,
			"0.003": 14.4350380773,
			"0.004": 15.6748356036,
			"0.005": 13.8047546882,
			"0.006": 8.84761398225,
			"0.007": 7.21023562561,
			"0.008": 5.15754308308,
			"0.009": 4.92144023038,
			"0.01": 8.69685473324,
			"0.011": 12.0420021525,
			"0.012": 5.11244927396,
			"0.013": 0.0,
			"0.014": 0.0,
			"0.015": 0.0,
			"0.016": 0.0,
			"0.017": 0.0,
			"0.018": 0.0,
			"0.019": 0.0,
			"0.02": 0.0,
			"0.021": 0.0,
			"0.022": 0.0,
			"0.023": 0.0,
			"0.024": 0.0,
			"0.025": 0.0
		}
	}
}
