{
	 "smiles": "NC1=NC(=NS1)C1=C(Cl)C=CC=C1", 
	 "Tm": 393.15, 
	 "num_atms": 19, 
	 "gaussian": { 
		 "optdone": 1, 
		 "sigma_profile": "yes", 
		 "theory": "DFT", 
		 "functional": "B3LYP", 
		 "basiset": "6-31G**", 
		 "properties": { 
			 "R2extent": 3695.9511, 
			 "electric_dipole_moment_norm": 2.89228018179, 
			 "electric_quadrupole_moment_norm": 18.2033707527, 
			 "total_energy": -1331.09699651, 
			 "HOMO_LUMO_gap": 0.18756, 
			 "cosmo_polarized_energy": -14.41, 
			 "cosmo_cavitation_energy": 27.19, 
			 "cosmo_dispersion_energy": -20.83, 
			 "cosmo_repulsion_energy": 1.61, 
			 "cosmo_total_nonelectrostatic_energy": 7.97, 
			 "SMD_solvation_energy": 1.72 
		},
		"coords": [
			{
				"x": -2.4818785362,
				"y": 1.9762363579,
				"z": 0.7367343968,
				"element": "N" 
			},
			{
				"x": -1.619806249,
				"y": 1.1516699522,
				"z": 0.0796654324,
				"element": "C" 
			},
			{
				"x": -1.3413886047,
				"y": -0.0679915433,
				"z": 0.4618720824,
				"element": "N" 
			},
			{
				"x": -0.3976959698,
				"y": -0.6007764538,
				"z": -0.3832425457,
				"element": "C" 
			},
			{
				"x": 0.0609786409,
				"y": 0.1109194843,
				"z": -1.3949612636,
				"element": "N" 
			},
			{
				"x": -0.6943798296,
				"y": 1.6185900877,
				"z": -1.3456214004,
				"element": "S" 
			},
			{
				"x": 0.0698823994,
				"y": -2.0003436465,
				"z": -0.2304182137,
				"element": "C" 
			},
			{
				"x": 0.286955932,
				"y": -2.6450107344,
				"z": 1.0010407772,
				"element": "C" 
			},
			{
				"x": 0.1059799603,
				"y": -1.8156464266,
				"z": 2.539268212,
				"element": "Cl" 
			},
			{
				"x": 0.7124670029,
				"y": -3.9744018198,
				"z": 1.0520385911,
				"element": "C" 
			},
			{
				"x": 0.9376631835,
				"y": -4.6834133639,
				"z": -0.1254007653,
				"element": "C" 
			},
			{
				"x": 0.7480934067,
				"y": -4.0589980675,
				"z": -1.359126413,
				"element": "C" 
			},
			{
				"x": 0.3212447322,
				"y": -2.736575852,
				"z": -1.4026000961,
				"element": "C" 
			},
			{
				"x": -2.9052088963,
				"y": 2.7427942077,
				"z": 0.237565739,
				"element": "H" 
			},
			{
				"x": -3.0595329583,
				"y": 1.5262662028,
				"z": 1.4330253084,
				"element": "H" 
			},
			{
				"x": 0.8736965984,
				"y": -4.4386644576,
				"z": 2.0185399906,
				"element": "H" 
			},
			{
				"x": 1.2656548301,
				"y": -5.7173567231,
				"z": -0.0740042115,
				"element": "H" 
			},
			{
				"x": 0.9265719423,
				"y": -4.600412638,
				"z": -2.2829724341,
				"element": "H" 
			},
			{
				"x": 0.1662024152,
				"y": -2.2371845662,
				"z": -2.3525031867,
				"element": "H" 
			}
		],
		 "valence_orbital": [ 
			{
				"type": "occ",
				"energy": -0.29125,
				"method": "rhf"
			},
			{
				"type": "occ",
				"energy": -0.27091,
				"method": "rhf"
			},
			{
				"type": "occ",
				"energy": -0.25983,
				"method": "rhf"
			},
			{
				"type": "occ",
				"energy": -0.24371,
				"method": "rhf"
			},
			{
				"type": "occ",
				"energy": -0.22818,
				"method": "rhf"
			},
			{
				"type": "unocc",
				"energy": -0.04062,
				"method": "rhf"
			},
			{
				"type": "unocc",
				"energy": -0.00992,
				"method": "rhf"
			},
			{
				"type": "unocc",
				"energy": -0.00382,
				"method": "rhf"
			},
			{
				"type": "unocc",
				"energy": 0.00232,
				"method": "rhf"
			},
			{
				"type": "unocc",
				"energy": 0.03865,
				"method": "rhf"
			}
		],
		"cosmo_sigma_profile": { 
			"-0.025": 0.0,
			"-0.024": 0.0,
			"-0.023": 0.0,
			"-0.022": 0.0,
			"-0.021": 0.0,
			"-0.02": 0.0,
			"-0.019": 0.0,
			"-0.018": 0.0,
			"-0.017": 0.0,
			"-0.016": 0.674563363904,
			"-0.015": 2.65978317786,
			"-0.014": 3.1300633242,
			"-0.013": 2.84573607115,
			"-0.012": 1.96108744408,
			"-0.011": 2.20215618067,
			"-0.01": 2.29352194122,
			"-0.009": 1.70833864858,
			"-0.008": 2.18397337982,
			"-0.007": 5.45025430073,
			"-0.006": 9.53756451731,
			"-0.005": 10.3517022963,
			"-0.004": 8.80795976106,
			"-0.003": 6.64718112236,
			"-0.002": 10.7892268659,
			"-0.001": 15.2858479811,
			"0.0": 19.1445710414,
			"0.001": 18.1206236699,
			"0.002": 21.966217963,
			"0.003": 25.7728131446,
			"0.004": 17.589548384,
			"0.005": 9.63464345994,
			"0.006": 5.57779900091,
			"0.007": 3.9255036647,
			"0.008": 3.45615382046,
			"0.009": 2.79188968711,
			"0.01": 2.20264197935,
			"0.011": 1.89227641349,
			"0.012": 2.08285166923,
			"0.013": 1.66031789437,
			"0.014": 0.844062504525,
			"0.015": 0.0498441947011,
			"0.016": 0.0,
			"0.017": 0.0,
			"0.018": 0.0,
			"0.019": 0.0,
			"0.02": 0.0,
			"0.021": 0.0,
			"0.022": 0.0,
			"0.023": 0.0,
			"0.024": 0.0,
			"0.025": 0.0
		}
	}
}
