{
	 "smiles": "CCS(=O)(=O)NCCC(O)=O", 
	 "Tm": 337.15, 
	 "num_atms": 22, 
	 "gaussian": { 
		 "optdone": 1, 
		 "sigma_profile": "yes", 
		 "theory": "DFT", 
		 "functional": "B3LYP", 
		 "basiset": "6-31G**", 
		 "properties": { 
			 "R2extent": 4162.6182, 
			 "electric_dipole_moment_norm": 5.54598940316, 
			 "electric_quadrupole_moment_norm": 27.0573215657, 
			 "total_energy": -950.942658145, 
			 "HOMO_LUMO_gap": 0.28039, 
			 "cosmo_polarized_energy": -23.71, 
			 "cosmo_cavitation_energy": 27.13, 
			 "cosmo_dispersion_energy": -19.67, 
			 "cosmo_repulsion_energy": 1.56, 
			 "cosmo_total_nonelectrostatic_energy": 9.03, 
			 "SMD_solvation_energy": 4.72 
		},
		"coords": [
			{
				"x": -4.0921610148,
				"y": -0.0507997361,
				"z": -1.8123485437,
				"element": "C" 
			},
			{
				"x": -2.8025403339,
				"y": 0.2632555395,
				"z": -2.5592957014,
				"element": "C" 
			},
			{
				"x": -1.5558453229,
				"y": 1.1064504918,
				"z": -1.5484449954,
				"element": "S" 
			},
			{
				"x": -2.2011319677,
				"y": 2.2089800251,
				"z": -0.8230879015,
				"element": "O" 
			},
			{
				"x": -0.3951667897,
				"y": 1.3449530274,
				"z": -2.4148719414,
				"element": "O" 
			},
			{
				"x": -1.1562321881,
				"y": -0.0825816239,
				"z": -0.3937550693,
				"element": "N" 
			},
			{
				"x": -0.9749262066,
				"y": 0.3640221373,
				"z": 1.0066269287,
				"element": "C" 
			},
			{
				"x": -2.3018014662,
				"y": 0.4614540167,
				"z": 1.7574483889,
				"element": "C" 
			},
			{
				"x": -2.0776438124,
				"y": 0.6385511634,
				"z": 3.2529830522,
				"element": "C" 
			},
			{
				"x": -3.176204964,
				"y": 0.986006953,
				"z": 3.972640735,
				"element": "O" 
			},
			{
				"x": -1.0200244163,
				"y": 0.4659143932,
				"z": 3.8068007435,
				"element": "O" 
			},
			{
				"x": -3.9064987914,
				"y": -0.7431575986,
				"z": -0.9874113922,
				"element": "H" 
			},
			{
				"x": -4.5411976888,
				"y": 0.8622428418,
				"z": -1.4144535927,
				"element": "H" 
			},
			{
				"x": -4.8067013158,
				"y": -0.5171244984,
				"z": -2.4971132998,
				"element": "H" 
			},
			{
				"x": -2.3111137116,
				"y": -0.6313081337,
				"z": -2.9517584881,
				"element": "H" 
			},
			{
				"x": -2.9644613636,
				"y": 0.9531242703,
				"z": -3.3932741371,
				"element": "H" 
			},
			{
				"x": -0.3257330043,
				"y": -0.5579857284,
				"z": -0.7394895366,
				"element": "H" 
			},
			{
				"x": -0.3503902339,
				"y": -0.3888494505,
				"z": 1.4921748727,
				"element": "H" 
			},
			{
				"x": -0.4399343515,
				"y": 1.3170391938,
				"z": 1.0749345531,
				"element": "H" 
			},
			{
				"x": -2.8979889302,
				"y": 1.2892139055,
				"z": 1.3595390048,
				"element": "H" 
			},
			{
				"x": -2.8812046755,
				"y": -0.4592289392,
				"z": 1.6058586565,
				"element": "H" 
			},
			{
				"x": -3.9330974505,
				"y": 1.1200277499,
				"z": 3.384597664,
				"element": "H" 
			}
		],
		 "valence_orbital": [ 
			{
				"type": "occ",
				"energy": -0.32137,
				"method": "rhf"
			},
			{
				"type": "occ",
				"energy": -0.31369,
				"method": "rhf"
			},
			{
				"type": "occ",
				"energy": -0.30459,
				"method": "rhf"
			},
			{
				"type": "occ",
				"energy": -0.28322,
				"method": "rhf"
			},
			{
				"type": "occ",
				"energy": -0.27613,
				"method": "rhf"
			},
			{
				"type": "unocc",
				"energy": 0.00426,
				"method": "rhf"
			},
			{
				"type": "unocc",
				"energy": 0.0487,
				"method": "rhf"
			},
			{
				"type": "unocc",
				"energy": 0.05019,
				"method": "rhf"
			},
			{
				"type": "unocc",
				"energy": 0.06166,
				"method": "rhf"
			},
			{
				"type": "unocc",
				"energy": 0.07443,
				"method": "rhf"
			}
		],
		"cosmo_sigma_profile": { 
			"-0.025": 0.0,
			"-0.024": 0.0,
			"-0.023": 0.0,
			"-0.022": 0.0,
			"-0.021": 0.0,
			"-0.02": 0.0680634714519,
			"-0.019": 0.799069963971,
			"-0.018": 1.08098113102,
			"-0.017": 0.881581089665,
			"-0.016": 1.37580348072,
			"-0.015": 1.04787802473,
			"-0.014": 2.03004196342,
			"-0.013": 2.519765652,
			"-0.012": 2.90336671821,
			"-0.011": 2.36368612372,
			"-0.01": 2.47986900864,
			"-0.009": 3.36848108129,
			"-0.008": 6.91914141065,
			"-0.007": 7.80627932563,
			"-0.006": 9.45175513835,
			"-0.005": 15.2221144728,
			"-0.004": 16.4359627725,
			"-0.003": 14.1433711348,
			"-0.002": 13.3430230918,
			"-0.001": 12.9809054608,
			"0.0": 9.27979263497,
			"0.001": 6.60871234355,
			"0.002": 5.33355407741,
			"0.003": 5.1432952538,
			"0.004": 5.23782912638,
			"0.005": 4.32552856108,
			"0.006": 5.02823790816,
			"0.007": 5.67145749763,
			"0.008": 5.62196082263,
			"0.009": 6.30987558296,
			"0.01": 9.46764182168,
			"0.011": 14.2342095913,
			"0.012": 11.1812082296,
			"0.013": 1.72524630683,
			"0.014": 0.04978486591,
			"0.015": 0.0,
			"0.016": 0.0,
			"0.017": 0.0,
			"0.018": 0.0,
			"0.019": 0.0,
			"0.02": 0.0,
			"0.021": 0.0,
			"0.022": 0.0,
			"0.023": 0.0,
			"0.024": 0.0,
			"0.025": 0.0
		}
	}
}
