{
	 "smiles": "OC(=O)COC1=CC=C(F)C=C1", 
	 "Tm": 378.15, 
	 "num_atms": 19, 
	 "gaussian": { 
		 "optdone": 1, 
		 "sigma_profile": "yes", 
		 "theory": "DFT", 
		 "functional": "B3LYP", 
		 "basiset": "6-31G**", 
		 "properties": { 
			 "R2extent": 3303.5534, 
			 "electric_dipole_moment_norm": 2.69610298579, 
			 "electric_quadrupole_moment_norm": 5.79457113081, 
			 "total_energy": -634.567956676, 
			 "HOMO_LUMO_gap": 0.22192, 
			 "cosmo_polarized_energy": -11.49, 
			 "cosmo_cavitation_energy": 24.58, 
			 "cosmo_dispersion_energy": -17.76, 
			 "cosmo_repulsion_energy": 1.41, 
			 "cosmo_total_nonelectrostatic_energy": 8.24, 
			 "SMD_solvation_energy": 6.18 
		},
		"coords": [
			{
				"x": -2.2196724983,
				"y": -0.6212100704,
				"z": -1.3404911337,
				"element": "O" 
			},
			{
				"x": -1.5832671754,
				"y": 0.3928119908,
				"z": -0.7080046619,
				"element": "C" 
			},
			{
				"x": -1.7200077358,
				"y": 1.5551906895,
				"z": -1.0050916782,
				"element": "O" 
			},
			{
				"x": -0.7072409502,
				"y": -0.1628434015,
				"z": 0.4108129787,
				"element": "C" 
			},
			{
				"x": -0.0224952863,
				"y": 0.8431254599,
				"z": 1.1201406857,
				"element": "O" 
			},
			{
				"x": 1.1727515734,
				"y": 1.2818309077,
				"z": 0.5668881691,
				"element": "C" 
			},
			{
				"x": 2.3393815221,
				"y": 0.5357020994,
				"z": 0.7549490279,
				"element": "C" 
			},
			{
				"x": 3.5545862835,
				"y": 1.0049058564,
				"z": 0.2550223484,
				"element": "C" 
			},
			{
				"x": 3.5754983808,
				"y": 2.2219219172,
				"z": -0.4173758876,
				"element": "C" 
			},
			{
				"x": 4.7503753403,
				"y": 2.6822600204,
				"z": -0.8991976065,
				"element": "F" 
			},
			{
				"x": 2.4247418658,
				"y": 2.9799588105,
				"z": -0.6062536747,
				"element": "C" 
			},
			{
				"x": 1.2112888978,
				"y": 2.5022088208,
				"z": -0.1112950912,
				"element": "C" 
			},
			{
				"x": -2.7691417355,
				"y": -0.2146369224,
				"z": -2.0316382306,
				"element": "H" 
			},
			{
				"x": -1.3588774448,
				"y": -0.6825755469,
				"z": 1.1214696663,
				"element": "H" 
			},
			{
				"x": -0.0268440072,
				"y": -0.9107114741,
				"z": -0.0187542387,
				"element": "H" 
			},
			{
				"x": 2.2941350939,
				"y": -0.3989466854,
				"z": 1.3054563225,
				"element": "H" 
			},
			{
				"x": 4.4766570511,
				"y": 0.4498427925,
				"z": 0.3890297152,
				"element": "H" 
			},
			{
				"x": 2.4870888402,
				"y": 3.9241474298,
				"z": -1.1363985972,
				"element": "H" 
			},
			{
				"x": 0.2874419846,
				"y": 3.0503173058,
				"z": -0.2513681134,
				"element": "H" 
			}
		],
		 "valence_orbital": [ 
			{
				"type": "occ",
				"energy": -0.33154,
				"method": "rhf"
			},
			{
				"type": "occ",
				"energy": -0.30083,
				"method": "rhf"
			},
			{
				"type": "occ",
				"energy": -0.27964,
				"method": "rhf"
			},
			{
				"type": "occ",
				"energy": -0.26153,
				"method": "rhf"
			},
			{
				"type": "occ",
				"energy": -0.23524,
				"method": "rhf"
			},
			{
				"type": "unocc",
				"energy": -0.01332,
				"method": "rhf"
			},
			{
				"type": "unocc",
				"energy": -0.00174,
				"method": "rhf"
			},
			{
				"type": "unocc",
				"energy": 0.00569,
				"method": "rhf"
			},
			{
				"type": "unocc",
				"energy": 0.06615,
				"method": "rhf"
			},
			{
				"type": "unocc",
				"energy": 0.08859,
				"method": "rhf"
			}
		],
		"cosmo_sigma_profile": { 
			"-0.025": 0.0,
			"-0.024": 0.0,
			"-0.023": 0.0,
			"-0.022": 0.0,
			"-0.021": 0.0,
			"-0.02": 0.0,
			"-0.019": 0.32552534531,
			"-0.018": 0.908728127666,
			"-0.017": 1.14630944066,
			"-0.016": 0.614442280495,
			"-0.015": 0.807339770399,
			"-0.014": 0.390150810489,
			"-0.013": 0.602027071128,
			"-0.012": 0.687790929566,
			"-0.011": 1.01030269584,
			"-0.01": 0.54998545297,
			"-0.009": 1.00706057581,
			"-0.008": 4.66460770795,
			"-0.007": 11.0894143052,
			"-0.006": 11.9147133605,
			"-0.005": 11.7866617762,
			"-0.004": 10.8877004227,
			"-0.003": 9.53644912672,
			"-0.002": 8.84774469273,
			"-0.001": 8.3575962984,
			"0.0": 8.98996609031,
			"0.001": 15.4253933777,
			"0.002": 14.134606932,
			"0.003": 18.4235983177,
			"0.004": 18.0469817967,
			"0.005": 9.76673434048,
			"0.006": 3.47108555123,
			"0.007": 3.02422010212,
			"0.008": 5.47964704884,
			"0.009": 4.52305959087,
			"0.01": 4.66947289069,
			"0.011": 4.65956717963,
			"0.012": 0.660110699077,
			"0.013": 0.0,
			"0.014": 0.0,
			"0.015": 0.0,
			"0.016": 0.0,
			"0.017": 0.0,
			"0.018": 0.0,
			"0.019": 0.0,
			"0.02": 0.0,
			"0.021": 0.0,
			"0.022": 0.0,
			"0.023": 0.0,
			"0.024": 0.0,
			"0.025": 0.0
		}
	}
}
