{
	 "smiles": "COC1=C(C=CC=C1)C1=NN(C=C1C(O)=O)C1=CC=CC=C1", 
	 "Tm": 469.15, 
	 "num_atms": 36, 
	 "gaussian": { 
		 "optdone": 1, 
		 "sigma_profile": "yes", 
		 "theory": "DFT", 
		 "functional": "B3LYP", 
		 "basiset": "6-31G**", 
		 "properties": { 
			 "R2extent": 8113.6279, 
			 "electric_dipole_moment_norm": 2.25521903371, 
			 "electric_quadrupole_moment_norm": 18.7925088442, 
			 "total_energy": -991.411169669, 
			 "HOMO_LUMO_gap": 0.16989, 
			 "cosmo_polarized_energy": -16.98, 
			 "cosmo_cavitation_energy": 40.89, 
			 "cosmo_dispersion_energy": -28.81, 
			 "cosmo_repulsion_energy": 2.18, 
			 "cosmo_total_nonelectrostatic_energy": 14.26, 
			 "SMD_solvation_energy": 7.94 
		},
		"coords": [
			{
				"x": -2.5491115103,
				"y": 2.5655169931,
				"z": 0.9266269012,
				"element": "C" 
			},
			{
				"x": -1.640270101,
				"y": 1.5276561477,
				"z": 0.5964355987,
				"element": "O" 
			},
			{
				"x": -2.1034476204,
				"y": 0.2483462445,
				"z": 0.5552744134,
				"element": "C" 
			},
			{
				"x": -1.12372533,
				"y": -0.7666032577,
				"z": 0.4878485754,
				"element": "C" 
			},
			{
				"x": -1.5373781899,
				"y": -2.0949494527,
				"z": 0.3432629868,
				"element": "C" 
			},
			{
				"x": -2.8901469609,
				"y": -2.433777811,
				"z": 0.3051429779,
				"element": "C" 
			},
			{
				"x": -3.8465292242,
				"y": -1.4265190225,
				"z": 0.4120763067,
				"element": "C" 
			},
			{
				"x": -3.460861555,
				"y": -0.0897070037,
				"z": 0.5343097044,
				"element": "C" 
			},
			{
				"x": 0.3179234165,
				"y": -0.4540254863,
				"z": 0.5391130575,
				"element": "C" 
			},
			{
				"x": 1.1317780269,
				"y": -0.972750489,
				"z": -0.3768257102,
				"element": "N" 
			},
			{
				"x": 2.3846663533,
				"y": -0.5429970151,
				"z": -0.0485931095,
				"element": "N" 
			},
			{
				"x": 2.3756450388,
				"y": 0.2341732276,
				"z": 1.0617891014,
				"element": "C" 
			},
			{
				"x": 1.0608675029,
				"y": 0.3245596982,
				"z": 1.4853894433,
				"element": "C" 
			},
			{
				"x": 0.6056054268,
				"y": 0.9831251634,
				"z": 2.7112321097,
				"element": "C" 
			},
			{
				"x": 1.6170059491,
				"y": 1.677967097,
				"z": 3.3114275121,
				"element": "O" 
			},
			{
				"x": -0.5077617855,
				"y": 0.9355232261,
				"z": 3.1949011843,
				"element": "O" 
			},
			{
				"x": 3.4981920651,
				"y": -0.9302717554,
				"z": -0.8422923183,
				"element": "C" 
			},
			{
				"x": 3.3866536082,
				"y": -2.0462310747,
				"z": -1.6788609902,
				"element": "C" 
			},
			{
				"x": 4.4799413683,
				"y": -2.4353583712,
				"z": -2.4496573319,
				"element": "C" 
			},
			{
				"x": 5.6822951865,
				"y": -1.7272542192,
				"z": -2.3895198919,
				"element": "C" 
			},
			{
				"x": 5.7816673568,
				"y": -0.6117441521,
				"z": -1.5566831258,
				"element": "C" 
			},
			{
				"x": 4.6925746248,
				"y": -0.2032083406,
				"z": -0.7879356899,
				"element": "C" 
			},
			{
				"x": -1.9507974804,
				"y": 3.4747239863,
				"z": 1.0046194275,
				"element": "H" 
			},
			{
				"x": -3.3084624909,
				"y": 2.7056134011,
				"z": 0.1462470194,
				"element": "H" 
			},
			{
				"x": -3.0416659529,
				"y": 2.37161183,
				"z": 1.886520721,
				"element": "H" 
			},
			{
				"x": -0.7755579332,
				"y": -2.8650974802,
				"z": 0.2773050256,
				"element": "H" 
			},
			{
				"x": -3.1902465261,
				"y": -3.4720067106,
				"z": 0.2043461357,
				"element": "H" 
			},
			{
				"x": -4.9045926592,
				"y": -1.6728322412,
				"z": 0.3959870297,
				"element": "H" 
			},
			{
				"x": -4.2189461176,
				"y": 0.6815358386,
				"z": 0.5987438613,
				"element": "H" 
			},
			{
				"x": 3.2729725529,
				"y": 0.6379209611,
				"z": 1.5020179671,
				"element": "H" 
			},
			{
				"x": 1.2292419913,
				"y": 2.0441792529,
				"z": 4.122860951,
				"element": "H" 
			},
			{
				"x": 2.4476109862,
				"y": -2.5840815552,
				"z": -1.7141593901,
				"element": "H" 
			},
			{
				"x": 4.3902171907,
				"y": -3.3018890572,
				"z": -3.0980679473,
				"element": "H" 
			},
			{
				"x": 6.5314769941,
				"y": -2.0376991292,
				"z": -2.9904346248,
				"element": "H" 
			},
			{
				"x": 6.7064227526,
				"y": -0.0443387817,
				"z": -1.5111895736,
				"element": "H" 
			},
			{
				"x": 4.770243046,
				"y": 0.684989339,
				"z": -0.1702583074,
				"element": "H" 
			}
		],
		 "valence_orbital": [ 
			{
				"type": "occ",
				"energy": -0.26449,
				"method": "rhf"
			},
			{
				"type": "occ",
				"energy": -0.25986,
				"method": "rhf"
			},
			{
				"type": "occ",
				"energy": -0.2451,
				"method": "rhf"
			},
			{
				"type": "occ",
				"energy": -0.22731,
				"method": "rhf"
			},
			{
				"type": "occ",
				"energy": -0.20782,
				"method": "rhf"
			},
			{
				"type": "unocc",
				"energy": -0.03793,
				"method": "rhf"
			},
			{
				"type": "unocc",
				"energy": -0.0205,
				"method": "rhf"
			},
			{
				"type": "unocc",
				"energy": -0.0107,
				"method": "rhf"
			},
			{
				"type": "unocc",
				"energy": 0.01349,
				"method": "rhf"
			},
			{
				"type": "unocc",
				"energy": 0.02032,
				"method": "rhf"
			}
		],
		"cosmo_sigma_profile": { 
			"-0.025": 0.0,
			"-0.024": 0.0,
			"-0.023": 0.0,
			"-0.022": 0.0,
			"-0.021": 0.0,
			"-0.02": 0.0,
			"-0.019": 0.0,
			"-0.018": 0.484011111418,
			"-0.017": 0.828632113568,
			"-0.016": 0.738167711821,
			"-0.015": 0.934347676488,
			"-0.014": 0.765535665919,
			"-0.013": 0.429853102528,
			"-0.012": 0.689136362835,
			"-0.011": 1.23659598724,
			"-0.01": 2.49391343306,
			"-0.009": 2.6028159534,
			"-0.008": 2.89635090571,
			"-0.007": 4.2438140706,
			"-0.006": 19.0100218738,
			"-0.005": 27.4745000141,
			"-0.004": 25.6308278774,
			"-0.003": 24.7957956647,
			"-0.002": 17.8742505493,
			"-0.001": 19.8074895177,
			"0.0": 21.7179448857,
			"0.001": 23.6182738041,
			"0.002": 19.298315425,
			"0.003": 24.2454141127,
			"0.004": 26.4205827363,
			"0.005": 19.079853628,
			"0.006": 11.7765480527,
			"0.007": 6.42287064133,
			"0.008": 6.09882850046,
			"0.009": 4.15480614429,
			"0.01": 3.6946553929,
			"0.011": 3.41425788747,
			"0.012": 4.21989730361,
			"0.013": 0.700113697767,
			"0.014": 0.0,
			"0.015": 0.0,
			"0.016": 0.0,
			"0.017": 0.0,
			"0.018": 0.0,
			"0.019": 0.0,
			"0.02": 0.0,
			"0.021": 0.0,
			"0.022": 0.0,
			"0.023": 0.0,
			"0.024": 0.0,
			"0.025": 0.0
		}
	}
}
