{
	 "smiles": "CC1=NC=NC(=C1)N1N=CC=C1N", 
	 "Tm": 333.15, 
	 "num_atms": 22, 
	 "gaussian": { 
		 "optdone": 1, 
		 "sigma_profile": "yes", 
		 "theory": "DFT", 
		 "functional": "B3LYP", 
		 "basiset": "6-31G**", 
		 "properties": { 
			 "R2extent": 2991.9491, 
			 "electric_dipole_moment_norm": 4.95245854702, 
			 "electric_quadrupole_moment_norm": 11.6011678205, 
			 "total_energy": -584.00487108, 
			 "HOMO_LUMO_gap": 0.17268, 
			 "cosmo_polarized_energy": -18.71, 
			 "cosmo_cavitation_energy": 26.35, 
			 "cosmo_dispersion_energy": -19.57, 
			 "cosmo_repulsion_energy": 1.55, 
			 "cosmo_total_nonelectrostatic_energy": 8.33, 
			 "SMD_solvation_energy": 1.56 
		},
		"coords": [
			{
				"x": 0.4032462818,
				"y": -2.914199984,
				"z": -1.377545847,
				"element": "C" 
			},
			{
				"x": 0.8114746426,
				"y": -1.8029125297,
				"z": -0.4482766777,
				"element": "C" 
			},
			{
				"x": 2.1240358793,
				"y": -1.5079938235,
				"z": -0.3970546718,
				"element": "N" 
			},
			{
				"x": 2.4672058287,
				"y": -0.5039249792,
				"z": 0.4121162915,
				"element": "C" 
			},
			{
				"x": 1.6690712858,
				"y": 0.2251333283,
				"z": 1.1950537159,
				"element": "N" 
			},
			{
				"x": 0.3712763794,
				"y": -0.081026809,
				"z": 1.1412634714,
				"element": "C" 
			},
			{
				"x": -0.1224369888,
				"y": -1.0979383118,
				"z": 0.3129614984,
				"element": "C" 
			},
			{
				"x": -0.4942247863,
				"y": 0.686222016,
				"z": 1.9499284858,
				"element": "N" 
			},
			{
				"x": -0.1884160413,
				"y": 2.0048413817,
				"z": 2.2081520209,
				"element": "N" 
			},
			{
				"x": -1.1923206506,
				"y": 2.4318031841,
				"z": 2.9504085858,
				"element": "C" 
			},
			{
				"x": -2.1520156379,
				"y": 1.4230727893,
				"z": 3.218466379,
				"element": "C" 
			},
			{
				"x": -1.6737724199,
				"y": 0.3077647502,
				"z": 2.5632947375,
				"element": "C" 
			},
			{
				"x": -2.2148507005,
				"y": -0.9741905856,
				"z": 2.4462973859,
				"element": "N" 
			},
			{
				"x": 0.6988181136,
				"y": -2.6715786914,
				"z": -2.4032585672,
				"element": "H" 
			},
			{
				"x": 0.9245173352,
				"y": -3.838222832,
				"z": -1.1073698482,
				"element": "H" 
			},
			{
				"x": -0.6743639392,
				"y": -3.0929492128,
				"z": -1.3528137807,
				"element": "H" 
			},
			{
				"x": 3.5258288623,
				"y": -0.2521636921,
				"z": 0.4474328284,
				"element": "H" 
			},
			{
				"x": -1.1823803435,
				"y": -1.3090157546,
				"z": 0.2468672504,
				"element": "H" 
			},
			{
				"x": -1.2033387688,
				"y": 3.4624561238,
				"z": 3.2815053411,
				"element": "H" 
			},
			{
				"x": -3.0493680597,
				"y": 1.4889477,
				"z": 3.8157646555,
				"element": "H" 
			},
			{
				"x": -1.5329186272,
				"y": -1.7185630417,
				"z": 2.5488822343,
				"element": "H" 
			},
			{
				"x": -2.977467645,
				"y": -1.1119610261,
				"z": 3.0980245106,
				"element": "H" 
			}
		],
		 "valence_orbital": [ 
			{
				"type": "occ",
				"energy": -0.28764,
				"method": "rhf"
			},
			{
				"type": "occ",
				"energy": -0.27928,
				"method": "rhf"
			},
			{
				"type": "occ",
				"energy": -0.25345,
				"method": "rhf"
			},
			{
				"type": "occ",
				"energy": -0.24572,
				"method": "rhf"
			},
			{
				"type": "occ",
				"energy": -0.21603,
				"method": "rhf"
			},
			{
				"type": "unocc",
				"energy": -0.04335,
				"method": "rhf"
			},
			{
				"type": "unocc",
				"energy": -0.02695,
				"method": "rhf"
			},
			{
				"type": "unocc",
				"energy": 0.03583,
				"method": "rhf"
			},
			{
				"type": "unocc",
				"energy": 0.06586,
				"method": "rhf"
			},
			{
				"type": "unocc",
				"energy": 0.08185,
				"method": "rhf"
			}
		],
		"cosmo_sigma_profile": { 
			"-0.025": 0.0,
			"-0.024": 0.0,
			"-0.023": 0.0,
			"-0.022": 0.0,
			"-0.021": 0.0,
			"-0.02": 0.0,
			"-0.019": 0.0,
			"-0.018": 0.0,
			"-0.017": 0.0,
			"-0.016": 0.0,
			"-0.015": 0.00539166826184,
			"-0.014": 1.00363947143,
			"-0.013": 2.67938211604,
			"-0.012": 2.97272253326,
			"-0.011": 3.22198984466,
			"-0.01": 2.85131102997,
			"-0.009": 2.57818708897,
			"-0.008": 3.02071939218,
			"-0.007": 8.36475211194,
			"-0.006": 10.5899540215,
			"-0.005": 12.4947145127,
			"-0.004": 12.9160880835,
			"-0.003": 13.9175404633,
			"-0.002": 18.1907030507,
			"-0.001": 21.652988133,
			"0.0": 13.6835275764,
			"0.001": 9.43235424203,
			"0.002": 8.20983481224,
			"0.003": 7.28380820096,
			"0.004": 9.71246553656,
			"0.005": 8.8544450875,
			"0.006": 5.56094882798,
			"0.007": 3.73337558041,
			"0.008": 4.03796147487,
			"0.009": 3.46578625949,
			"0.01": 3.15808262442,
			"0.011": 2.73648324012,
			"0.012": 2.41712594866,
			"0.013": 2.43043864261,
			"0.014": 2.13323857294,
			"0.015": 2.99340857717,
			"0.016": 1.1407355803,
			"0.017": 1.5263945434,
			"0.018": 1.37083898675,
			"0.019": 0.566887909757,
			"0.02": 0.0,
			"0.021": 0.0,
			"0.022": 0.0,
			"0.023": 0.0,
			"0.024": 0.0,
			"0.025": 0.0
		}
	}
}
