{
	 "smiles": "CCC1=CC=C(CCO)N=C1", 
	 "Tm": 315.15, 
	 "num_atms": 24, 
	 "gaussian": { 
		 "optdone": 1, 
		 "sigma_profile": "yes", 
		 "theory": "DFT", 
		 "functional": "B3LYP", 
		 "basiset": "6-31G**", 
		 "properties": { 
			 "R2extent": 3097.5395, 
			 "electric_dipole_moment_norm": 4.44157199424, 
			 "electric_quadrupole_moment_norm": 8.22937415543, 
			 "total_energy": -480.77563768, 
			 "HOMO_LUMO_gap": 0.20623, 
			 "cosmo_polarized_energy": -8.29, 
			 "cosmo_cavitation_energy": 26.54, 
			 "cosmo_dispersion_energy": -19.5, 
			 "cosmo_repulsion_energy": 1.6, 
			 "cosmo_total_nonelectrostatic_energy": 8.64, 
			 "SMD_solvation_energy": 3.74 
		},
		"coords": [
			{
				"x": 3.0242562974,
				"y": 2.2205518289,
				"z": 2.1643813634,
				"element": "C" 
			},
			{
				"x": 2.7903645485,
				"y": 1.7468528518,
				"z": 0.7185002581,
				"element": "C" 
			},
			{
				"x": 2.174476639,
				"y": 0.3684461785,
				"z": 0.64150597,
				"element": "C" 
			},
			{
				"x": 2.9401035808,
				"y": -0.7988201711,
				"z": 0.7460054703,
				"element": "C" 
			},
			{
				"x": 2.3193231078,
				"y": -2.0433436538,
				"z": 0.7019235296,
				"element": "C" 
			},
			{
				"x": 0.9273867725,
				"y": -2.1145093679,
				"z": 0.5605676533,
				"element": "C" 
			},
			{
				"x": 0.1889863909,
				"y": -3.4355883299,
				"z": 0.5238423424,
				"element": "C" 
			},
			{
				"x": -0.9415758927,
				"y": -3.4791174259,
				"z": -0.5205157096,
				"element": "C" 
			},
			{
				"x": -2.0169028372,
				"y": -2.6263075692,
				"z": -0.1916748162,
				"element": "O" 
			},
			{
				"x": 0.1846610128,
				"y": -0.9966182899,
				"z": 0.4520653342,
				"element": "N" 
			},
			{
				"x": 0.7955000462,
				"y": 0.1925467002,
				"z": 0.4875647824,
				"element": "C" 
			},
			{
				"x": 3.6939288423,
				"y": 1.5390099814,
				"z": 2.6991435964,
				"element": "H" 
			},
			{
				"x": 2.0822010502,
				"y": 2.2632856846,
				"z": 2.7202429236,
				"element": "H" 
			},
			{
				"x": 3.4741831729,
				"y": 3.2184483779,
				"z": 2.1797289009,
				"element": "H" 
			},
			{
				"x": 2.1402544014,
				"y": 2.4635665722,
				"z": 0.2032333673,
				"element": "H" 
			},
			{
				"x": 3.7446887576,
				"y": 1.749736862,
				"z": 0.1778571158,
				"element": "H" 
			},
			{
				"x": 4.0206185373,
				"y": -0.7319040982,
				"z": 0.852614683,
				"element": "H" 
			},
			{
				"x": 2.9035910352,
				"y": -2.9559847231,
				"z": 0.7715943878,
				"element": "H" 
			},
			{
				"x": -0.2604609887,
				"y": -3.6231574745,
				"z": 1.5085462627,
				"element": "H" 
			},
			{
				"x": 0.9027182258,
				"y": -4.2467634592,
				"z": 0.3377132225,
				"element": "H" 
			},
			{
				"x": -1.3424858592,
				"y": -4.4978711805,
				"z": -0.5709298597,
				"element": "H" 
			},
			{
				"x": -0.52156268,
				"y": -3.2464930236,
				"z": -1.5149491778,
				"element": "H" 
			},
			{
				"x": -1.6036276042,
				"y": -1.762612921,
				"z": -0.0075836659,
				"element": "H" 
			},
			{
				"x": 0.1474734434,
				"y": 1.0624466501,
				"z": 0.3837220654,
				"element": "H" 
			}
		],
		 "valence_orbital": [ 
			{
				"type": "occ",
				"energy": -0.31516,
				"method": "rhf"
			},
			{
				"type": "occ",
				"energy": -0.28911,
				"method": "rhf"
			},
			{
				"type": "occ",
				"energy": -0.25786,
				"method": "rhf"
			},
			{
				"type": "occ",
				"energy": -0.25356,
				"method": "rhf"
			},
			{
				"type": "occ",
				"energy": -0.23803,
				"method": "rhf"
			},
			{
				"type": "unocc",
				"energy": -0.0318,
				"method": "rhf"
			},
			{
				"type": "unocc",
				"energy": -0.01382,
				"method": "rhf"
			},
			{
				"type": "unocc",
				"energy": 0.08644,
				"method": "rhf"
			},
			{
				"type": "unocc",
				"energy": 0.10027,
				"method": "rhf"
			},
			{
				"type": "unocc",
				"energy": 0.11904,
				"method": "rhf"
			}
		],
		"cosmo_sigma_profile": { 
			"-0.025": 0.0,
			"-0.024": 0.0,
			"-0.023": 0.0,
			"-0.022": 0.0,
			"-0.021": 0.0,
			"-0.02": 0.0,
			"-0.019": 0.0,
			"-0.018": 0.0,
			"-0.017": 0.0,
			"-0.016": 0.0,
			"-0.015": 0.0,
			"-0.014": 0.0,
			"-0.013": 0.0,
			"-0.012": 0.0,
			"-0.011": 0.0,
			"-0.01": 0.0,
			"-0.009": 0.0,
			"-0.008": 0.0,
			"-0.007": 1.05105014378,
			"-0.006": 6.51456865996,
			"-0.005": 10.8570681517,
			"-0.004": 17.3399977133,
			"-0.003": 25.0402792835,
			"-0.002": 26.6531325943,
			"-0.001": 26.4929382303,
			"0.0": 20.3054637578,
			"0.001": 17.942291318,
			"0.002": 14.369326838,
			"0.003": 13.9997317562,
			"0.004": 6.34464471699,
			"0.005": 3.62653172548,
			"0.006": 2.38718991373,
			"0.007": 1.95155297388,
			"0.008": 1.44272146761,
			"0.009": 1.51656203056,
			"0.01": 1.40279502176,
			"0.011": 1.27998237963,
			"0.012": 1.27481192291,
			"0.013": 0.729173877175,
			"0.014": 2.18885808413,
			"0.015": 2.2654821042,
			"0.016": 1.3053596061,
			"0.017": 0.0,
			"0.018": 0.0,
			"0.019": 0.0,
			"0.02": 0.0,
			"0.021": 0.0,
			"0.022": 0.0,
			"0.023": 0.0,
			"0.024": 0.0,
			"0.025": 0.0
		}
	}
}
