{
	 "smiles": "COC(C)C(N)=S", 
	 "Tm": 332.15, 
	 "num_atms": 16, 
	 "gaussian": { 
		 "optdone": 1, 
		 "sigma_profile": "yes", 
		 "theory": "DFT", 
		 "functional": "B3LYP", 
		 "basiset": "6-31G**", 
		 "properties": { 
			 "R2extent": 1529.3498, 
			 "electric_dipole_moment_norm": 5.31353157984, 
			 "electric_quadrupole_moment_norm": 7.30067494688, 
			 "total_energy": -685.996404461, 
			 "HOMO_LUMO_gap": 0.16837, 
			 "cosmo_polarized_energy": -17.66, 
			 "cosmo_cavitation_energy": 20.44, 
			 "cosmo_dispersion_energy": -15.3, 
			 "cosmo_repulsion_energy": 1.26, 
			 "cosmo_total_nonelectrostatic_energy": 6.4, 
			 "SMD_solvation_energy": 3.16 
		},
		"coords": [
			{
				"x": -2.0289125387,
				"y": -1.2843771284,
				"z": 2.8619580115,
				"element": "C" 
			},
			{
				"x": -2.3597006369,
				"y": -1.3770478418,
				"z": 1.4869634526,
				"element": "O" 
			},
			{
				"x": -1.9029160525,
				"y": -0.3279796242,
				"z": 0.638546872,
				"element": "C" 
			},
			{
				"x": -2.6996103203,
				"y": 0.9667017137,
				"z": 0.8477167322,
				"element": "C" 
			},
			{
				"x": -0.3675535167,
				"y": -0.1755930616,
				"z": 0.7093761523,
				"element": "C" 
			},
			{
				"x": 0.0935931282,
				"y": 0.8505857063,
				"z": 1.4508088712,
				"element": "N" 
			},
			{
				"x": 0.6445352041,
				"y": -1.253279102,
				"z": -0.044752338,
				"element": "S" 
			},
			{
				"x": -2.4974909307,
				"y": -2.14549162,
				"z": 3.3433176156,
				"element": "H" 
			},
			{
				"x": -0.9454259346,
				"y": -1.3353284499,
				"z": 3.0321791862,
				"element": "H" 
			},
			{
				"x": -2.4201717158,
				"y": -0.3715444526,
				"z": 3.3351105714,
				"element": "H" 
			},
			{
				"x": -2.108098062,
				"y": -0.6999703534,
				"z": -0.3675252768,
				"element": "H" 
			},
			{
				"x": -2.6011364858,
				"y": 1.3770586911,
				"z": 1.8593467328,
				"element": "H" 
			},
			{
				"x": -2.3932371478,
				"y": 1.7361539991,
				"z": 0.1320597023,
				"element": "H" 
			},
			{
				"x": -3.7601851594,
				"y": 0.7543770129,
				"z": 0.691448232,
				"element": "H" 
			},
			{
				"x": 1.0919235386,
				"y": 0.9818977185,
				"z": 1.5317465032,
				"element": "H" 
			},
			{
				"x": -0.5211133698,
				"y": 1.5246367923,
				"z": 1.8813989795,
				"element": "H" 
			}
		],
		 "valence_orbital": [ 
			{
				"type": "occ",
				"energy": -0.35696,
				"method": "rhf"
			},
			{
				"type": "occ",
				"energy": -0.31467,
				"method": "rhf"
			},
			{
				"type": "occ",
				"energy": -0.26666,
				"method": "rhf"
			},
			{
				"type": "occ",
				"energy": -0.23238,
				"method": "rhf"
			},
			{
				"type": "occ",
				"energy": -0.2072,
				"method": "rhf"
			},
			{
				"type": "unocc",
				"energy": -0.03883,
				"method": "rhf"
			},
			{
				"type": "unocc",
				"energy": 0.05055,
				"method": "rhf"
			},
			{
				"type": "unocc",
				"energy": 0.08415,
				"method": "rhf"
			},
			{
				"type": "unocc",
				"energy": 0.10736,
				"method": "rhf"
			},
			{
				"type": "unocc",
				"energy": 0.12416,
				"method": "rhf"
			}
		],
		"cosmo_sigma_profile": { 
			"-0.025": 0.0,
			"-0.024": 0.0,
			"-0.023": 0.0,
			"-0.022": 0.0,
			"-0.021": 0.0,
			"-0.02": 0.0,
			"-0.019": 0.0,
			"-0.018": 0.0,
			"-0.017": 0.0,
			"-0.016": 0.207873191099,
			"-0.015": 2.1368568817,
			"-0.014": 2.18771107833,
			"-0.013": 2.86311256262,
			"-0.012": 2.12967547405,
			"-0.011": 3.03517574794,
			"-0.01": 2.12264778029,
			"-0.009": 1.80286650027,
			"-0.008": 1.86619581745,
			"-0.007": 2.46389229169,
			"-0.006": 3.31812318005,
			"-0.005": 12.1328703568,
			"-0.004": 14.1435839664,
			"-0.003": 14.0145801717,
			"-0.002": 15.1021861654,
			"-0.001": 12.3312889217,
			"0.0": 7.69695550781,
			"0.001": 4.4155903868,
			"0.002": 3.31067633829,
			"0.003": 4.33535532935,
			"0.004": 4.65971577618,
			"0.005": 4.13150069195,
			"0.006": 5.15738954646,
			"0.007": 4.61063853485,
			"0.008": 6.93738350982,
			"0.009": 7.43208453045,
			"0.01": 5.76810950941,
			"0.011": 5.46782268037,
			"0.012": 4.88085479586,
			"0.013": 2.08879572135,
			"0.014": 0.0177839296359,
			"0.015": 0.0,
			"0.016": 0.0,
			"0.017": 0.0,
			"0.018": 0.0,
			"0.019": 0.0,
			"0.02": 0.0,
			"0.021": 0.0,
			"0.022": 0.0,
			"0.023": 0.0,
			"0.024": 0.0,
			"0.025": 0.0
		}
	}
}
