{
	 "smiles": "OC(=O)C1=NN(C(=O)C=C1)C1=C(F)C=CC=C1", 
	 "Tm": 473.15, 
	 "num_atms": 24, 
	 "gaussian": { 
		 "optdone": 1, 
		 "sigma_profile": "yes", 
		 "theory": "DFT", 
		 "functional": "B3LYP", 
		 "basiset": "6-31G**", 
		 "properties": { 
			 "R2extent": 4799.0113, 
			 "electric_dipole_moment_norm": 3.49687115147, 
			 "electric_quadrupole_moment_norm": 23.1071315249, 
			 "total_energy": -858.378273041, 
			 "HOMO_LUMO_gap": 0.15932, 
			 "cosmo_polarized_energy": -16.5, 
			 "cosmo_cavitation_energy": 30.4, 
			 "cosmo_dispersion_energy": -21.66, 
			 "cosmo_repulsion_energy": 1.65, 
			 "cosmo_total_nonelectrostatic_energy": 10.4, 
			 "SMD_solvation_energy": 7.3 
		},
		"coords": [
			{
				"x": 3.3827808314,
				"y": 2.6928558605,
				"z": -1.1194904746,
				"element": "O" 
			},
			{
				"x": 2.3666737471,
				"y": 2.891652425,
				"z": -1.9761644828,
				"element": "C" 
			},
			{
				"x": 2.3113512413,
				"y": 3.8457330992,
				"z": -2.7176932063,
				"element": "O" 
			},
			{
				"x": 1.2946301912,
				"y": 1.8403549948,
				"z": -1.9491655476,
				"element": "C" 
			},
			{
				"x": 1.4637537368,
				"y": 0.8656817299,
				"z": -1.0916200114,
				"element": "N" 
			},
			{
				"x": 0.542042302,
				"y": -0.1032935082,
				"z": -1.0259970731,
				"element": "N" 
			},
			{
				"x": -0.6670438493,
				"y": -0.1460094819,
				"z": -1.7999669776,
				"element": "C" 
			},
			{
				"x": -1.4872559185,
				"y": -1.0286299155,
				"z": -1.6199923634,
				"element": "O" 
			},
			{
				"x": -0.7763083337,
				"y": 0.9495981411,
				"z": -2.7538588965,
				"element": "C" 
			},
			{
				"x": 0.1683062558,
				"y": 1.9190673569,
				"z": -2.8268660713,
				"element": "C" 
			},
			{
				"x": 0.7728372722,
				"y": -1.1118386835,
				"z": -0.0333945739,
				"element": "C" 
			},
			{
				"x": 0.8386808129,
				"y": -2.457938521,
				"z": -0.4006574726,
				"element": "C" 
			},
			{
				"x": 0.7097821823,
				"y": -2.7945441785,
				"z": -1.69208237,
				"element": "F" 
			},
			{
				"x": 1.064097965,
				"y": -3.4501237538,
				"z": 0.5446688417,
				"element": "C" 
			},
			{
				"x": 1.2442448962,
				"y": -3.0885714606,
				"z": 1.8801291262,
				"element": "C" 
			},
			{
				"x": 1.1983814175,
				"y": -1.7453365799,
				"z": 2.2605575309,
				"element": "C" 
			},
			{
				"x": 0.9576619044,
				"y": -0.7599092282,
				"z": 1.3045848968,
				"element": "C" 
			},
			{
				"x": 3.2110717936,
				"y": 1.8609945641,
				"z": -0.6403111635,
				"element": "H" 
			},
			{
				"x": -1.6639319701,
				"y": 0.9456190319,
				"z": -3.3764545468,
				"element": "H" 
			},
			{
				"x": 0.1089795898,
				"y": 2.7537638973,
				"z": -3.5164386216,
				"element": "H" 
			},
			{
				"x": 1.1049726684,
				"y": -4.4834147116,
				"z": 0.218389125,
				"element": "H" 
			},
			{
				"x": 1.4238346643,
				"y": -3.8597846399,
				"z": 2.6225547302,
				"element": "H" 
			},
			{
				"x": 1.3395727165,
				"y": -1.4651364214,
				"z": 3.2991342471,
				"element": "H" 
			},
			{
				"x": 0.9071838829,
				"y": 0.2879099833,
				"z": 1.581435355,
				"element": "H" 
			}
		],
		 "valence_orbital": [ 
			{
				"type": "occ",
				"energy": -0.29111,
				"method": "rhf"
			},
			{
				"type": "occ",
				"energy": -0.28436,
				"method": "rhf"
			},
			{
				"type": "occ",
				"energy": -0.27214,
				"method": "rhf"
			},
			{
				"type": "occ",
				"energy": -0.26638,
				"method": "rhf"
			},
			{
				"type": "occ",
				"energy": -0.25299,
				"method": "rhf"
			},
			{
				"type": "unocc",
				"energy": -0.09367,
				"method": "rhf"
			},
			{
				"type": "unocc",
				"energy": -0.05086,
				"method": "rhf"
			},
			{
				"type": "unocc",
				"energy": -0.03016,
				"method": "rhf"
			},
			{
				"type": "unocc",
				"energy": -0.01733,
				"method": "rhf"
			},
			{
				"type": "unocc",
				"energy": 0.04462,
				"method": "rhf"
			}
		],
		"cosmo_sigma_profile": { 
			"-0.025": 0.0,
			"-0.024": 0.0,
			"-0.023": 0.0,
			"-0.022": 0.0,
			"-0.021": 0.0,
			"-0.02": 0.0,
			"-0.019": 0.0,
			"-0.018": 0.0,
			"-0.017": 0.0,
			"-0.016": 0.0,
			"-0.015": 0.257713915273,
			"-0.014": 0.752530203657,
			"-0.013": 0.363099853729,
			"-0.012": 0.490793439299,
			"-0.011": 1.37544503159,
			"-0.01": 0.569311444358,
			"-0.009": 3.0391833557,
			"-0.008": 6.47593008857,
			"-0.007": 13.8620538209,
			"-0.006": 17.4490623274,
			"-0.005": 18.2254212129,
			"-0.004": 15.477306991,
			"-0.003": 16.2468420156,
			"-0.002": 18.0794530506,
			"-0.001": 14.8599573322,
			"0.0": 13.5758745908,
			"0.001": 13.6797751162,
			"0.002": 13.8943644196,
			"0.003": 18.4967371318,
			"0.004": 9.37545649827,
			"0.005": 4.98245398817,
			"0.006": 4.84275243397,
			"0.007": 3.34792177452,
			"0.008": 5.17820139971,
			"0.009": 7.23961180523,
			"0.01": 6.45979338208,
			"0.011": 8.10875998636,
			"0.012": 6.71973998517,
			"0.013": 2.08629020826,
			"0.014": 0.0348675311228,
			"0.015": 0.0,
			"0.016": 0.0,
			"0.017": 0.0,
			"0.018": 0.0,
			"0.019": 0.0,
			"0.02": 0.0,
			"0.021": 0.0,
			"0.022": 0.0,
			"0.023": 0.0,
			"0.024": 0.0,
			"0.025": 0.0
		}
	}
}
