{
	 "smiles": "CS(=O)(=O)CCC(NC(=O)C1=CC=C(Cl)C=C1)C(O)=O", 
	 "Tm": 458.15, 
	 "num_atms": 34, 
	 "gaussian": { 
		 "optdone": 1, 
		 "sigma_profile": "yes", 
		 "theory": "DFT", 
		 "functional": "B3LYP", 
		 "basiset": "6-31G**", 
		 "properties": { 
			 "R2extent": 10265.4125, 
			 "electric_dipole_moment_norm": 3.69451619701, 
			 "electric_quadrupole_moment_norm": 33.1651550034, 
			 "total_energy": -1754.94631552, 
			 "HOMO_LUMO_gap": 0.20313, 
			 "cosmo_polarized_energy": -24.41, 
			 "cosmo_cavitation_energy": 40.87, 
			 "cosmo_dispersion_energy": -29.31, 
			 "cosmo_repulsion_energy": 2.21, 
			 "cosmo_total_nonelectrostatic_energy": 13.77, 
			 "SMD_solvation_energy": 7.3 
		},
		"coords": [
			{
				"x": 3.944224138,
				"y": 1.6246643319,
				"z": 1.0982776474,
				"element": "C" 
			},
			{
				"x": 3.9012896948,
				"y": 1.5374654469,
				"z": -0.7024188408,
				"element": "S" 
			},
			{
				"x": 5.1974873665,
				"y": 1.0222824393,
				"z": -1.1757671996,
				"element": "O" 
			},
			{
				"x": 3.4050877098,
				"y": 2.8338725219,
				"z": -1.2041028269,
				"element": "O" 
			},
			{
				"x": 2.6263996128,
				"y": 0.2538297261,
				"z": -1.051640861,
				"element": "C" 
			},
			{
				"x": 1.6850562207,
				"y": 0.6699026248,
				"z": -2.1866901682,
				"element": "C" 
			},
			{
				"x": 0.5760990731,
				"y": 1.6641776157,
				"z": -1.7586442152,
				"element": "C" 
			},
			{
				"x": -0.4128477844,
				"y": 1.0793584708,
				"z": -0.8612898768,
				"element": "N" 
			},
			{
				"x": -0.3332165127,
				"y": 1.2156409147,
				"z": 0.4953668884,
				"element": "C" 
			},
			{
				"x": 0.6699157065,
				"y": 1.6646269377,
				"z": 1.0555614088,
				"element": "O" 
			},
			{
				"x": -1.5309063725,
				"y": 0.772974432,
				"z": 1.2847966546,
				"element": "C" 
			},
			{
				"x": -1.6269161865,
				"y": 1.2206640168,
				"z": 2.6092483105,
				"element": "C" 
			},
			{
				"x": -2.7074710599,
				"y": 0.8601094978,
				"z": 3.408209248,
				"element": "C" 
			},
			{
				"x": -3.6957718826,
				"y": 0.0292427383,
				"z": 2.8773403537,
				"element": "C" 
			},
			{
				"x": -5.0601853803,
				"y": -0.4355170211,
				"z": 3.8764754284,
				"element": "Cl" 
			},
			{
				"x": -3.6139420043,
				"y": -0.4452061225,
				"z": 1.5679414507,
				"element": "C" 
			},
			{
				"x": -2.5299799665,
				"y": -0.0694711069,
				"z": 0.7768694636,
				"element": "C" 
			},
			{
				"x": -0.1846517277,
				"y": 2.1610321762,
				"z": -2.9828981085,
				"element": "C" 
			},
			{
				"x": 0.6072383413,
				"y": 2.8214546382,
				"z": -3.8411722198,
				"element": "O" 
			},
			{
				"x": -1.3694907233,
				"y": 1.97267993,
				"z": -3.1762728072,
				"element": "O" 
			},
			{
				"x": 4.6661483601,
				"y": 2.4057076596,
				"z": 1.3439321888,
				"element": "H" 
			},
			{
				"x": 2.9455076052,
				"y": 1.8794722912,
				"z": 1.4542188561,
				"element": "H" 
			},
			{
				"x": 4.2806577583,
				"y": 0.6643223808,
				"z": 1.4933822446,
				"element": "H" 
			},
			{
				"x": 2.0841179379,
				"y": 0.0694252076,
				"z": -0.1229200619,
				"element": "H" 
			},
			{
				"x": 3.2021996123,
				"y": -0.6338561306,
				"z": -1.3224242145,
				"element": "H" 
			},
			{
				"x": 1.2056736301,
				"y": -0.2352401201,
				"z": -2.5773780642,
				"element": "H" 
			},
			{
				"x": 2.2583365355,
				"y": 1.1167909641,
				"z": -3.0029847346,
				"element": "H" 
			},
			{
				"x": 1.0563001182,
				"y": 2.5216519013,
				"z": -1.2752582964,
				"element": "H" 
			},
			{
				"x": -1.3241107046,
				"y": 0.9583728316,
				"z": -1.2884569112,
				"element": "H" 
			},
			{
				"x": -0.8385173036,
				"y": 1.8564113677,
				"z": 2.9968219308,
				"element": "H" 
			},
			{
				"x": -2.7864729068,
				"y": 1.2141146102,
				"z": 4.4299854996,
				"element": "H" 
			},
			{
				"x": -4.3829579167,
				"y": -1.1026291059,
				"z": 1.1784413358,
				"element": "H" 
			},
			{
				"x": -2.4614925631,
				"y": -0.469173302,
				"z": -0.2302796658,
				"element": "H" 
			},
			{
				"x": 0.0495915743,
				"y": 3.0943452361,
				"z": -4.5894698371,
				"element": "H" 
			}
		],
		 "valence_orbital": [ 
			{
				"type": "occ",
				"energy": -0.28153,
				"method": "rhf"
			},
			{
				"type": "occ",
				"energy": -0.27998,
				"method": "rhf"
			},
			{
				"type": "occ",
				"energy": -0.27729,
				"method": "rhf"
			},
			{
				"type": "occ",
				"energy": -0.27166,
				"method": "rhf"
			},
			{
				"type": "occ",
				"energy": -0.26042,
				"method": "rhf"
			},
			{
				"type": "unocc",
				"energy": -0.05729,
				"method": "rhf"
			},
			{
				"type": "unocc",
				"energy": -0.02974,
				"method": "rhf"
			},
			{
				"type": "unocc",
				"energy": -0.01607,
				"method": "rhf"
			},
			{
				"type": "unocc",
				"energy": 0.01832,
				"method": "rhf"
			},
			{
				"type": "unocc",
				"energy": 0.03716,
				"method": "rhf"
			}
		],
		"cosmo_sigma_profile": { 
			"-0.025": 0.0,
			"-0.024": 0.0,
			"-0.023": 0.0,
			"-0.022": 0.0,
			"-0.021": 0.0,
			"-0.02": 0.0,
			"-0.019": 0.762353210865,
			"-0.018": 1.01965729891,
			"-0.017": 0.720550829325,
			"-0.016": 0.815133055655,
			"-0.015": 0.912793705609,
			"-0.014": 1.00519483023,
			"-0.013": 0.593931558621,
			"-0.012": 1.15287607289,
			"-0.011": 1.79999176025,
			"-0.01": 1.46486224387,
			"-0.009": 4.01359538926,
			"-0.008": 9.650275461,
			"-0.007": 17.0720973466,
			"-0.006": 22.8382927414,
			"-0.005": 18.7644600044,
			"-0.004": 21.9316672564,
			"-0.003": 20.6249966635,
			"-0.002": 16.7790727248,
			"-0.001": 17.9347016134,
			"0.0": 17.2060723308,
			"0.001": 21.5562453149,
			"0.002": 25.5495229664,
			"0.003": 17.9541307442,
			"0.004": 18.7975219695,
			"0.005": 8.08649741225,
			"0.006": 6.59909104078,
			"0.007": 6.67140966331,
			"0.008": 6.42000865044,
			"0.009": 6.12998117014,
			"0.01": 8.60646519562,
			"0.011": 10.2140397788,
			"0.012": 10.0342145998,
			"0.013": 3.80850284697,
			"0.014": 0.0,
			"0.015": 0.0,
			"0.016": 0.0,
			"0.017": 0.0,
			"0.018": 0.0,
			"0.019": 0.0,
			"0.02": 0.0,
			"0.021": 0.0,
			"0.022": 0.0,
			"0.023": 0.0,
			"0.024": 0.0,
			"0.025": 0.0
		}
	}
}
