{
	 "smiles": "CN1CCCNC2=C1N=C1C=CC=CC1=N2", 
	 "Tm": 420.15, 
	 "num_atms": 30, 
	 "gaussian": { 
		 "optdone": 1, 
		 "sigma_profile": "yes", 
		 "theory": "DFT", 
		 "functional": "B3LYP", 
		 "basiset": "6-31G**", 
		 "properties": { 
			 "R2extent": 4076.2065, 
			 "electric_dipole_moment_norm": 3.42770426962, 
			 "electric_quadrupole_moment_norm": 8.04868758929, 
			 "total_energy": -684.732893832, 
			 "HOMO_LUMO_gap": 0.15169, 
			 "cosmo_polarized_energy": -10.65, 
			 "cosmo_cavitation_energy": 31.48, 
			 "cosmo_dispersion_energy": -23.69, 
			 "cosmo_repulsion_energy": 1.82, 
			 "cosmo_total_nonelectrostatic_energy": 9.61, 
			 "SMD_solvation_energy": 1.22 
		},
		"coords": [
			{
				"x": 0.9113228095,
				"y": 2.6196150702,
				"z": -0.1856369269,
				"element": "C" 
			},
			{
				"x": 0.1150377522,
				"y": 1.6910868749,
				"z": -0.9813573907,
				"element": "N" 
			},
			{
				"x": -0.2227014777,
				"y": 2.1136827179,
				"z": -2.3502402772,
				"element": "C" 
			},
			{
				"x": -1.7338206269,
				"y": 2.1189732481,
				"z": -2.6105763154,
				"element": "C" 
			},
			{
				"x": -2.3782582563,
				"y": 0.8387677001,
				"z": -2.0614650626,
				"element": "C" 
			},
			{
				"x": -1.530633775,
				"y": -0.3343851339,
				"z": -2.2971674161,
				"element": "N" 
			},
			{
				"x": -0.5121269424,
				"y": -0.6765091871,
				"z": -1.4155819604,
				"element": "C" 
			},
			{
				"x": 0.2976516519,
				"y": 0.3357326109,
				"z": -0.7306765452,
				"element": "C" 
			},
			{
				"x": 1.189707188,
				"y": -0.0208462507,
				"z": 0.1648887458,
				"element": "N" 
			},
			{
				"x": 1.3926461227,
				"y": -1.3550243681,
				"z": 0.3965274318,
				"element": "C" 
			},
			{
				"x": 2.3495577689,
				"y": -1.7693149585,
				"z": 1.3505125815,
				"element": "C" 
			},
			{
				"x": 2.5904959441,
				"y": -3.1156461271,
				"z": 1.5526836713,
				"element": "C" 
			},
			{
				"x": 1.8835474142,
				"y": -4.0881391418,
				"z": 0.81128318,
				"element": "C" 
			},
			{
				"x": 0.9380704595,
				"y": -3.7057811388,
				"z": -0.1222209545,
				"element": "C" 
			},
			{
				"x": 0.6740857793,
				"y": -2.3353125098,
				"z": -0.3428026024,
				"element": "C" 
			},
			{
				"x": -0.2975704713,
				"y": -1.9566265985,
				"z": -1.2301822822,
				"element": "N" 
			},
			{
				"x": 0.5090429418,
				"y": 3.6270316402,
				"z": -0.3211335058,
				"element": "H" 
			},
			{
				"x": 0.8508430307,
				"y": 2.3460548413,
				"z": 0.8679989103,
				"element": "H" 
			},
			{
				"x": 1.974656581,
				"y": 2.6148776857,
				"z": -0.4659780409,
				"element": "H" 
			},
			{
				"x": 0.1891696008,
				"y": 3.1144597503,
				"z": -2.5032234659,
				"element": "H" 
			},
			{
				"x": 0.2694771989,
				"y": 1.4578182742,
				"z": -3.0774301981,
				"element": "H" 
			},
			{
				"x": -1.900064868,
				"y": 2.2018140573,
				"z": -3.6912675065,
				"element": "H" 
			},
			{
				"x": -2.2055934429,
				"y": 2.9878859956,
				"z": -2.1368497442,
				"element": "H" 
			},
			{
				"x": -2.5869721777,
				"y": 0.9603890001,
				"z": -0.9904987248,
				"element": "H" 
			},
			{
				"x": -3.3370711287,
				"y": 0.6564867223,
				"z": -2.5543581476,
				"element": "H" 
			},
			{
				"x": -2.0234470046,
				"y": -1.1728851792,
				"z": -2.57992356,
				"element": "H" 
			},
			{
				"x": 2.8856060715,
				"y": -1.0034851558,
				"z": 1.9026015539,
				"element": "H" 
			},
			{
				"x": 3.3294709209,
				"y": -3.4298773704,
				"z": 2.2842268575,
				"element": "H" 
			},
			{
				"x": 2.0836045491,
				"y": -5.1425061782,
				"z": 0.979351586,
				"element": "H" 
			},
			{
				"x": 0.3759663862,
				"y": -4.4343368912,
				"z": -0.6983038903,
				"element": "H" 
			}
		],
		 "valence_orbital": [ 
			{
				"type": "occ",
				"energy": -0.27296,
				"method": "rhf"
			},
			{
				"type": "occ",
				"energy": -0.26176,
				"method": "rhf"
			},
			{
				"type": "occ",
				"energy": -0.2381,
				"method": "rhf"
			},
			{
				"type": "occ",
				"energy": -0.21318,
				"method": "rhf"
			},
			{
				"type": "occ",
				"energy": -0.1898,
				"method": "rhf"
			},
			{
				"type": "unocc",
				"energy": -0.03811,
				"method": "rhf"
			},
			{
				"type": "unocc",
				"energy": 0.00534,
				"method": "rhf"
			},
			{
				"type": "unocc",
				"energy": 0.03115,
				"method": "rhf"
			},
			{
				"type": "unocc",
				"energy": 0.07533,
				"method": "rhf"
			},
			{
				"type": "unocc",
				"energy": 0.09615,
				"method": "rhf"
			}
		],
		"cosmo_sigma_profile": { 
			"-0.025": 0.0,
			"-0.024": 0.0,
			"-0.023": 0.0,
			"-0.022": 0.0,
			"-0.021": 0.0,
			"-0.02": 0.0,
			"-0.019": 0.0,
			"-0.018": 0.0,
			"-0.017": 0.0,
			"-0.016": 0.0,
			"-0.015": 0.0,
			"-0.014": 0.0,
			"-0.013": 0.160968395646,
			"-0.012": 1.00866083422,
			"-0.011": 0.839127243446,
			"-0.01": 1.1174056027,
			"-0.009": 0.919850363158,
			"-0.008": 1.03387675419,
			"-0.007": 1.5019806098,
			"-0.006": 5.78626815048,
			"-0.005": 15.0604575928,
			"-0.004": 22.6175280273,
			"-0.003": 33.4469864586,
			"-0.002": 30.8852444459,
			"-0.001": 24.1020277629,
			"0.0": 13.3591318165,
			"0.001": 11.5081173527,
			"0.002": 11.621792256,
			"0.003": 13.3986335113,
			"0.004": 16.6039151281,
			"0.005": 16.0732201778,
			"0.006": 9.85605411419,
			"0.007": 3.51975555768,
			"0.008": 4.46914523386,
			"0.009": 3.24843073968,
			"0.01": 1.6044438781,
			"0.011": 1.99073101329,
			"0.012": 1.47548826884,
			"0.013": 1.1665570026,
			"0.014": 0.571061595801,
			"0.015": 0.0345111033991,
			"0.016": 0.0,
			"0.017": 0.0,
			"0.018": 0.0,
			"0.019": 0.0,
			"0.02": 0.0,
			"0.021": 0.0,
			"0.022": 0.0,
			"0.023": 0.0,
			"0.024": 0.0,
			"0.025": 0.0
		}
	}
}
