{
	 "smiles": "COC1=CC2=C(C=C1)C(CCN)=CN2", 
	 "Tm": 417.15, 
	 "num_atms": 28, 
	 "gaussian": { 
		 "optdone": 1, 
		 "sigma_profile": "yes", 
		 "theory": "DFT", 
		 "functional": "B3LYP", 
		 "basiset": "6-31G**", 
		 "properties": { 
			 "R2extent": 3678.4521, 
			 "electric_dipole_moment_norm": 1.88175705127, 
			 "electric_quadrupole_moment_norm": 22.0884503979, 
			 "total_energy": -612.324940161, 
			 "HOMO_LUMO_gap": 0.1817, 
			 "cosmo_polarized_energy": -13.58, 
			 "cosmo_cavitation_energy": 30.92, 
			 "cosmo_dispersion_energy": -22.37, 
			 "cosmo_repulsion_energy": 1.77, 
			 "cosmo_total_nonelectrostatic_energy": 10.32, 
			 "SMD_solvation_energy": 4.13 
		},
		"coords": [
			{
				"x": -0.0124746336,
				"y": 4.1918114133,
				"z": 1.6301396725,
				"element": "C" 
			},
			{
				"x": 0.5761427314,
				"y": 2.9333485278,
				"z": 1.9053564183,
				"element": "O" 
			},
			{
				"x": 0.3530646074,
				"y": 1.9017588453,
				"z": 1.0303451845,
				"element": "C" 
			},
			{
				"x": 0.9668594901,
				"y": 0.6941573052,
				"z": 1.3661257598,
				"element": "C" 
			},
			{
				"x": 0.7728722216,
				"y": -0.3890164661,
				"z": 0.5088891154,
				"element": "C" 
			},
			{
				"x": -0.0150345442,
				"y": -0.3029729319,
				"z": -0.6736481786,
				"element": "C" 
			},
			{
				"x": -0.6179183934,
				"y": 0.9250326162,
				"z": -0.9791985996,
				"element": "C" 
			},
			{
				"x": -0.4366597314,
				"y": 2.0173546052,
				"z": -0.1360846908,
				"element": "C" 
			},
			{
				"x": -0.0009721648,
				"y": -1.6071735792,
				"z": -1.3009653314,
				"element": "C" 
			},
			{
				"x": -0.6621522319,
				"y": -1.9902504692,
				"z": -2.5932523971,
				"element": "C" 
			},
			{
				"x": 0.1176541351,
				"y": -1.5259605073,
				"z": -3.8505442893,
				"element": "C" 
			},
			{
				"x": 1.4548309937,
				"y": -2.0917003542,
				"z": -4.0213658092,
				"element": "N" 
			},
			{
				"x": 0.7774414238,
				"y": -2.4052736266,
				"z": -0.5010534615,
				"element": "C" 
			},
			{
				"x": 1.2452524132,
				"y": -1.6814784135,
				"z": 0.5876926217,
				"element": "N" 
			},
			{
				"x": 0.3399765972,
				"y": 4.6088632273,
				"z": 0.6774531483,
				"element": "H" 
			},
			{
				"x": -1.1089261552,
				"y": 4.1351399175,
				"z": 1.6094775719,
				"element": "H" 
			},
			{
				"x": 0.2945107188,
				"y": 4.8522987065,
				"z": 2.44321116,
				"element": "H" 
			},
			{
				"x": 1.5664753507,
				"y": 0.6319788027,
				"z": 2.2682743829,
				"element": "H" 
			},
			{
				"x": -1.2295930507,
				"y": 1.0338613224,
				"z": -1.8705934005,
				"element": "H" 
			},
			{
				"x": -0.9083949852,
				"y": 2.9601521634,
				"z": -0.3844122116,
				"element": "H" 
			},
			{
				"x": -0.7815000767,
				"y": -3.0811178044,
				"z": -2.6381248665,
				"element": "H" 
			},
			{
				"x": -1.6763571996,
				"y": -1.5687387894,
				"z": -2.6312838506,
				"element": "H" 
			},
			{
				"x": 0.215519676,
				"y": -0.4339054939,
				"z": -3.8278218716,
				"element": "H" 
			},
			{
				"x": -0.4717321567,
				"y": -1.7691352394,
				"z": -4.7431557316,
				"element": "H" 
			},
			{
				"x": 1.3885849774,
				"y": -3.1052152793,
				"z": -4.098910094,
				"element": "H" 
			},
			{
				"x": 2.0002202357,
				"y": -1.9114107036,
				"z": -3.1802008654,
				"element": "H" 
			},
			{
				"x": 1.0264478928,
				"y": -3.4520163147,
				"z": -0.6087118984,
				"element": "H" 
			},
			{
				"x": 1.8185618585,
				"y": -2.0489914801,
				"z": 1.3285625125,
				"element": "H" 
			}
		],
		 "valence_orbital": [ 
			{
				"type": "occ",
				"energy": -0.2977,
				"method": "rhf"
			},
			{
				"type": "occ",
				"energy": -0.25628,
				"method": "rhf"
			},
			{
				"type": "occ",
				"energy": -0.226,
				"method": "rhf"
			},
			{
				"type": "occ",
				"energy": -0.21162,
				"method": "rhf"
			},
			{
				"type": "occ",
				"energy": -0.18529,
				"method": "rhf"
			},
			{
				"type": "unocc",
				"energy": -0.00359,
				"method": "rhf"
			},
			{
				"type": "unocc",
				"energy": 0.03758,
				"method": "rhf"
			},
			{
				"type": "unocc",
				"energy": 0.0689,
				"method": "rhf"
			},
			{
				"type": "unocc",
				"energy": 0.08361,
				"method": "rhf"
			},
			{
				"type": "unocc",
				"energy": 0.09598,
				"method": "rhf"
			}
		],
		"cosmo_sigma_profile": { 
			"-0.025": 0.0,
			"-0.024": 0.0,
			"-0.023": 0.0,
			"-0.022": 0.0,
			"-0.021": 0.0,
			"-0.02": 0.0,
			"-0.019": 0.0,
			"-0.018": 0.0,
			"-0.017": 0.0,
			"-0.016": 0.0610991880583,
			"-0.015": 1.26055443425,
			"-0.014": 1.60103050786,
			"-0.013": 0.698029463507,
			"-0.012": 1.40893104858,
			"-0.011": 1.23123005837,
			"-0.01": 1.14606743535,
			"-0.009": 2.29686097961,
			"-0.008": 2.88118211956,
			"-0.007": 4.98929871188,
			"-0.006": 8.38318466334,
			"-0.005": 16.9341805146,
			"-0.004": 18.2281490037,
			"-0.003": 27.5613339064,
			"-0.002": 23.090482643,
			"-0.001": 18.9723702736,
			"0.0": 15.4381514114,
			"0.001": 11.7289272818,
			"0.002": 9.31091813586,
			"0.003": 8.6996218682,
			"0.004": 10.9162566902,
			"0.005": 15.7298764124,
			"0.006": 16.1681607403,
			"0.007": 9.1060834906,
			"0.008": 2.63454676226,
			"0.009": 2.44463729106,
			"0.01": 2.11895598603,
			"0.011": 2.1059932807,
			"0.012": 0.765380350056,
			"0.013": 0.740912439981,
			"0.014": 0.862746113571,
			"0.015": 0.666681626842,
			"0.016": 0.579294174057,
			"0.017": 0.541550337431,
			"0.018": 0.666441846289,
			"0.019": 0.871360012699,
			"0.02": 0.438605886579,
			"0.021": 0.0841048129702,
			"0.022": 0.0,
			"0.023": 0.0,
			"0.024": 0.0,
			"0.025": 0.0
		}
	}
}
