{
	 "smiles": "CC1=C(C=C(N)C=C1)N1C=NN=N1", 
	 "Tm": 387.15, 
	 "num_atms": 22, 
	 "gaussian": { 
		 "optdone": 1, 
		 "sigma_profile": "yes", 
		 "theory": "DFT", 
		 "functional": "B3LYP", 
		 "basiset": "6-31G**", 
		 "properties": { 
			 "R2extent": 3191.9227, 
			 "electric_dipole_moment_norm": 6.78243644275, 
			 "electric_quadrupole_moment_norm": 24.275835025, 
			 "total_energy": -583.980290388, 
			 "HOMO_LUMO_gap": 0.18267, 
			 "cosmo_polarized_energy": -17.92, 
			 "cosmo_cavitation_energy": 26.54, 
			 "cosmo_dispersion_energy": -19.18, 
			 "cosmo_repulsion_energy": 1.5, 
			 "cosmo_total_nonelectrostatic_energy": 8.86, 
			 "SMD_solvation_energy": 3.41 
		},
		"coords": [
			{
				"x": 1.0694320827,
				"y": -1.333074241,
				"z": 3.4731787286,
				"element": "C" 
			},
			{
				"x": 0.177586443,
				"y": -0.7280364973,
				"z": 2.4168460207,
				"element": "C" 
			},
			{
				"x": 0.3698557142,
				"y": -0.9387786425,
				"z": 1.041970403,
				"element": "C" 
			},
			{
				"x": -0.4496856359,
				"y": -0.3659839663,
				"z": 0.0687547906,
				"element": "C" 
			},
			{
				"x": -1.5156334274,
				"y": 0.466609921,
				"z": 0.4403952405,
				"element": "C" 
			},
			{
				"x": -2.3035835684,
				"y": 1.0917204329,
				"z": -0.5236113478,
				"element": "N" 
			},
			{
				"x": -1.7292054154,
				"y": 0.6870658136,
				"z": 1.8110395764,
				"element": "C" 
			},
			{
				"x": -0.900338921,
				"y": 0.098366127,
				"z": 2.7604959924,
				"element": "C" 
			},
			{
				"x": 1.4540812285,
				"y": -1.753868992,
				"z": 0.5843441219,
				"element": "N" 
			},
			{
				"x": 2.4250526552,
				"y": -1.4709120931,
				"z": -0.3138396181,
				"element": "C" 
			},
			{
				"x": 3.1952137747,
				"y": -2.526463364,
				"z": -0.4665886231,
				"element": "N" 
			},
			{
				"x": 2.6767248189,
				"y": -3.4785855541,
				"z": 0.3594584307,
				"element": "N" 
			},
			{
				"x": 1.6394943778,
				"y": -3.0389498058,
				"z": 0.9918298147,
				"element": "N" 
			},
			{
				"x": 2.1289128473,
				"y": -1.1571415658,
				"z": 3.258002843,
				"element": "H" 
			},
			{
				"x": 0.9386526055,
				"y": -2.4169354755,
				"z": 3.5412871354,
				"element": "H" 
			},
			{
				"x": 0.8474975457,
				"y": -0.8964037037,
				"z": 4.4503502808,
				"element": "H" 
			},
			{
				"x": -0.265984925,
				"y": -0.5849137195,
				"z": -0.9791303982,
				"element": "H" 
			},
			{
				"x": -3.2227341315,
				"y": 1.3745535728,
				"z": -0.2133666067,
				"element": "H" 
			},
			{
				"x": -2.331546573,
				"y": 0.6379796366,
				"z": -1.4261347009,
				"element": "H" 
			},
			{
				"x": -2.5476549798,
				"y": 1.3270210569,
				"z": 2.1302719595,
				"element": "H" 
			},
			{
				"x": -1.0900372249,
				"y": 0.2914914173,
				"z": 3.8128804379,
				"element": "H" 
			},
			{
				"x": 2.536000709,
				"y": -0.5134603576,
				"z": -0.7989344813,
				"element": "H" 
			}
		],
		 "valence_orbital": [ 
			{
				"type": "occ",
				"energy": -0.29946,
				"method": "rhf"
			},
			{
				"type": "occ",
				"energy": -0.2934,
				"method": "rhf"
			},
			{
				"type": "occ",
				"energy": -0.28385,
				"method": "rhf"
			},
			{
				"type": "occ",
				"energy": -0.26053,
				"method": "rhf"
			},
			{
				"type": "occ",
				"energy": -0.21808,
				"method": "rhf"
			},
			{
				"type": "unocc",
				"energy": -0.03541,
				"method": "rhf"
			},
			{
				"type": "unocc",
				"energy": -0.0072,
				"method": "rhf"
			},
			{
				"type": "unocc",
				"energy": 0.00492,
				"method": "rhf"
			},
			{
				"type": "unocc",
				"energy": 0.02469,
				"method": "rhf"
			},
			{
				"type": "unocc",
				"energy": 0.06552,
				"method": "rhf"
			}
		],
		"cosmo_sigma_profile": { 
			"-0.025": 0.0,
			"-0.024": 0.0,
			"-0.023": 0.0,
			"-0.022": 0.0,
			"-0.021": 0.0,
			"-0.02": 0.0,
			"-0.019": 0.0,
			"-0.018": 0.0,
			"-0.017": 0.0,
			"-0.016": 0.0,
			"-0.015": 0.0,
			"-0.014": 0.0,
			"-0.013": 1.27870160934,
			"-0.012": 4.7455014945,
			"-0.011": 4.3654423192,
			"-0.01": 5.20342685362,
			"-0.009": 5.09817997996,
			"-0.008": 6.36125598383,
			"-0.007": 6.9718818947,
			"-0.006": 7.74881149634,
			"-0.005": 11.3978797627,
			"-0.004": 14.1966955622,
			"-0.003": 12.76075618,
			"-0.002": 11.2555223479,
			"-0.001": 11.5337793254,
			"0.0": 15.1109789113,
			"0.001": 10.1946177037,
			"0.002": 9.64174377424,
			"0.003": 10.5963566585,
			"0.004": 13.463663284,
			"0.005": 10.5046622523,
			"0.006": 4.09143077058,
			"0.007": 4.67352486351,
			"0.008": 6.13967677758,
			"0.009": 5.03799716573,
			"0.01": 5.32488794434,
			"0.011": 4.89720495459,
			"0.012": 3.1371194712,
			"0.013": 3.40553878614,
			"0.014": 2.16814645245,
			"0.015": 0.600176288783,
			"0.016": 0.00264173342544,
			"0.017": 0.0,
			"0.018": 0.0,
			"0.019": 0.0,
			"0.02": 0.0,
			"0.021": 0.0,
			"0.022": 0.0,
			"0.023": 0.0,
			"0.024": 0.0,
			"0.025": 0.0
		}
	}
}
