{
	 "smiles": "FC(F)(F)COC(=O)NC1=C(Cl)C2=C(S1)C=CC=C2", 
	 "Tm": 369.15, 
	 "num_atms": 26, 
	 "gaussian": { 
		 "optdone": 1, 
		 "sigma_profile": "yes", 
		 "theory": "DFT", 
		 "functional": "B3LYP", 
		 "basiset": "6-31G**", 
		 "properties": { 
			 "R2extent": 7565.8997, 
			 "electric_dipole_moment_norm": 2.21433546013, 
			 "electric_quadrupole_moment_norm": 8.88128677557, 
			 "total_energy": -1786.50990286, 
			 "HOMO_LUMO_gap": 0.17622, 
			 "cosmo_polarized_energy": -10.05, 
			 "cosmo_cavitation_energy": 35.91, 
			 "cosmo_dispersion_energy": -25.76, 
			 "cosmo_repulsion_energy": 1.88, 
			 "cosmo_total_nonelectrostatic_energy": 12.02, 
			 "SMD_solvation_energy": 7.64 
		},
		"coords": [
			{
				"x": -1.8122574396,
				"y": -4.0584287867,
				"z": -0.03981505,
				"element": "F" 
			},
			{
				"x": -0.8317062673,
				"y": -4.0830502385,
				"z": -0.9599362259,
				"element": "C" 
			},
			{
				"x": -1.0801287037,
				"y": -3.1070867579,
				"z": -1.8536763476,
				"element": "F" 
			},
			{
				"x": -0.8824585266,
				"y": -5.265587053,
				"z": -1.6063709799,
				"element": "F" 
			},
			{
				"x": 0.5350213206,
				"y": -3.9192881308,
				"z": -0.3171699545,
				"element": "C" 
			},
			{
				"x": 0.5864531875,
				"y": -2.6607170504,
				"z": 0.3480212343,
				"element": "O" 
			},
			{
				"x": 0.5374718652,
				"y": -2.6895512009,
				"z": 1.7093233387,
				"element": "C" 
			},
			{
				"x": 0.6005740219,
				"y": -3.6888250607,
				"z": 2.3922839084,
				"element": "O" 
			},
			{
				"x": 0.4284548307,
				"y": -1.4222770442,
				"z": 2.2247044721,
				"element": "N" 
			},
			{
				"x": 0.2930464391,
				"y": -0.1852914902,
				"z": 1.6029628713,
				"element": "C" 
			},
			{
				"x": 0.2933206189,
				"y": 1.0065205233,
				"z": 2.2736695757,
				"element": "C" 
			},
			{
				"x": 0.5091670059,
				"y": 1.1061129634,
				"z": 4.005187518,
				"element": "Cl" 
			},
			{
				"x": 0.0888806417,
				"y": 2.1612364816,
				"z": 1.443163517,
				"element": "C" 
			},
			{
				"x": -0.0683777224,
				"y": 1.7817574537,
				"z": 0.0908005711,
				"element": "C" 
			},
			{
				"x": 0.0347759992,
				"y": 0.0360831795,
				"z": -0.1282617664,
				"element": "S" 
			},
			{
				"x": -0.2713007789,
				"y": 2.7298241267,
				"z": -0.9140692436,
				"element": "C" 
			},
			{
				"x": -0.3234982058,
				"y": 4.0739249323,
				"z": -0.5548063677,
				"element": "C" 
			},
			{
				"x": -0.1716745667,
				"y": 4.46436801,
				"z": 0.7867400685,
				"element": "C" 
			},
			{
				"x": 0.0342922767,
				"y": 3.5221198972,
				"z": 1.7864977743,
				"element": "C" 
			},
			{
				"x": 1.2984861304,
				"y": -3.9185453703,
				"z": -1.0970406577,
				"element": "H" 
			},
			{
				"x": 0.7060621492,
				"y": -4.7315161312,
				"z": 0.3908805856,
				"element": "H" 
			},
			{
				"x": 0.442960187,
				"y": -1.4019551683,
				"z": 3.2372489183,
				"element": "H" 
			},
			{
				"x": -0.3885769006,
				"y": 2.4263686426,
				"z": -1.9499933621,
				"element": "H" 
			},
			{
				"x": -0.4837817068,
				"y": 4.8263707092,
				"z": -1.320805679,
				"element": "H" 
			},
			{
				"x": -0.2155613688,
				"y": 5.5179908846,
				"z": 1.0454037467,
				"element": "H" 
			},
			{
				"x": 0.1526555134,
				"y": 3.822941679,
				"z": 2.8224575343,
				"element": "H" 
			}
		],
		 "valence_orbital": [ 
			{
				"type": "occ",
				"energy": -0.30907,
				"method": "rhf"
			},
			{
				"type": "occ",
				"energy": -0.30704,
				"method": "rhf"
			},
			{
				"type": "occ",
				"energy": -0.28185,
				"method": "rhf"
			},
			{
				"type": "occ",
				"energy": -0.2392,
				"method": "rhf"
			},
			{
				"type": "occ",
				"energy": -0.21516,
				"method": "rhf"
			},
			{
				"type": "unocc",
				"energy": -0.03894,
				"method": "rhf"
			},
			{
				"type": "unocc",
				"energy": -0.01061,
				"method": "rhf"
			},
			{
				"type": "unocc",
				"energy": -0.00464,
				"method": "rhf"
			},
			{
				"type": "unocc",
				"energy": 0.02163,
				"method": "rhf"
			},
			{
				"type": "unocc",
				"energy": 0.03721,
				"method": "rhf"
			}
		],
		"cosmo_sigma_profile": { 
			"-0.025": 0.0,
			"-0.024": 0.0,
			"-0.023": 0.0,
			"-0.022": 0.0,
			"-0.021": 0.0,
			"-0.02": 0.0,
			"-0.019": 0.0,
			"-0.018": 0.0,
			"-0.017": 0.0,
			"-0.016": 0.0,
			"-0.015": 0.0,
			"-0.014": 0.512860407844,
			"-0.013": 0.936500704675,
			"-0.012": 0.300667926987,
			"-0.011": 1.31464597544,
			"-0.01": 2.84406760502,
			"-0.009": 4.67722963791,
			"-0.008": 4.93257102999,
			"-0.007": 7.57234206145,
			"-0.006": 11.6024555418,
			"-0.005": 13.6307679326,
			"-0.004": 14.8838822868,
			"-0.003": 15.5701700973,
			"-0.002": 16.8171071038,
			"-0.001": 17.265321661,
			"0.0": 22.3981429135,
			"0.001": 30.4494404967,
			"0.002": 48.8326209026,
			"0.003": 35.2234545507,
			"0.004": 19.6024629885,
			"0.005": 10.2760205763,
			"0.006": 1.43663414995,
			"0.007": 0.835651241564,
			"0.008": 1.21873158828,
			"0.009": 1.58382022141,
			"0.01": 2.35917894289,
			"0.011": 4.59864266503,
			"0.012": 1.38481737007,
			"0.013": 0.0,
			"0.014": 0.0,
			"0.015": 0.0,
			"0.016": 0.0,
			"0.017": 0.0,
			"0.018": 0.0,
			"0.019": 0.0,
			"0.02": 0.0,
			"0.021": 0.0,
			"0.022": 0.0,
			"0.023": 0.0,
			"0.024": 0.0,
			"0.025": 0.0
		}
	}
}
