{
	 "smiles": "CN1C(=O)N(CC(O)=O)C2=C1C=CC=C2", 
	 "Tm": 476.15, 
	 "num_atms": 25, 
	 "gaussian": { 
		 "optdone": 1, 
		 "sigma_profile": "yes", 
		 "theory": "DFT", 
		 "functional": "B3LYP", 
		 "basiset": "6-31G**", 
		 "properties": { 
			 "R2extent": 3556.4172, 
			 "electric_dipole_moment_norm": 2.02355837573, 
			 "electric_quadrupole_moment_norm": 19.0091135382, 
			 "total_energy": -722.313665403, 
			 "HOMO_LUMO_gap": 0.20019, 
			 "cosmo_polarized_energy": -16.67, 
			 "cosmo_cavitation_energy": 29.69, 
			 "cosmo_dispersion_energy": -21.02, 
			 "cosmo_repulsion_energy": 1.64, 
			 "cosmo_total_nonelectrostatic_energy": 10.31, 
			 "SMD_solvation_energy": 6.93 
		},
		"coords": [
			{
				"x": -0.2537420674,
				"y": 2.3833797892,
				"z": 0.7525239607,
				"element": "C" 
			},
			{
				"x": -0.0827726852,
				"y": 0.9538516563,
				"z": 0.6061751939,
				"element": "N" 
			},
			{
				"x": 0.1838572743,
				"y": 0.1131312639,
				"z": 1.6830882393,
				"element": "C" 
			},
			{
				"x": 0.2998849346,
				"y": 0.4193854199,
				"z": 2.8604673835,
				"element": "O" 
			},
			{
				"x": 0.2744959332,
				"y": -1.1743160461,
				"z": 1.1421032351,
				"element": "N" 
			},
			{
				"x": 0.5994527839,
				"y": -2.3106383077,
				"z": 1.9551976131,
				"element": "C" 
			},
			{
				"x": 2.0503976451,
				"y": -2.7571310229,
				"z": 1.8044474226,
				"element": "C" 
			},
			{
				"x": 2.2617150652,
				"y": -3.8905847846,
				"z": 2.5127104594,
				"element": "O" 
			},
			{
				"x": 2.9039169871,
				"y": -2.1973690561,
				"z": 1.1611007598,
				"element": "O" 
			},
			{
				"x": 0.0965275712,
				"y": -1.1303180238,
				"z": -0.2391468086,
				"element": "C" 
			},
			{
				"x": -0.1408904521,
				"y": 0.2189932118,
				"z": -0.5744542806,
				"element": "C" 
			},
			{
				"x": -0.3783225212,
				"y": 0.6034117639,
				"z": -1.8877404933,
				"element": "C" 
			},
			{
				"x": -0.3736744881,
				"y": -0.3985842491,
				"z": -2.8682455792,
				"element": "C" 
			},
			{
				"x": -0.1364185887,
				"y": -1.735145288,
				"z": -2.5357581093,
				"element": "C" 
			},
			{
				"x": 0.1043460704,
				"y": -2.1221521959,
				"z": -1.2098657668,
				"element": "C" 
			},
			{
				"x": -0.1385211106,
				"y": 2.616693725,
				"z": 1.8118202822,
				"element": "H" 
			},
			{
				"x": 0.5022638153,
				"y": 2.928428237,
				"z": 0.1770095075,
				"element": "H" 
			},
			{
				"x": -1.2494455619,
				"y": 2.6951716281,
				"z": 0.4186704729,
				"element": "H" 
			},
			{
				"x": -0.060078669,
				"y": -3.158087873,
				"z": 1.7373010321,
				"element": "H" 
			},
			{
				"x": 0.4366404697,
				"y": -2.0218649984,
				"z": 2.9986589815,
				"element": "H" 
			},
			{
				"x": 3.2011469588,
				"y": -4.1138737772,
				"z": 2.4017983144,
				"element": "H" 
			},
			{
				"x": -0.5603221813,
				"y": 1.6412139489,
				"z": -2.1470951361,
				"element": "H" 
			},
			{
				"x": -0.5551808337,
				"y": -0.1273216005,
				"z": -3.9035672752,
				"element": "H" 
			},
			{
				"x": -0.1338073826,
				"y": -2.4900395469,
				"z": -3.3157769226,
				"element": "H" 
			},
			{
				"x": 0.2983310329,
				"y": -3.1596338739,
				"z": -0.9580224863,
				"element": "H" 
			}
		],
		 "valence_orbital": [ 
			{
				"type": "occ",
				"energy": -0.30009,
				"method": "rhf"
			},
			{
				"type": "occ",
				"energy": -0.28701,
				"method": "rhf"
			},
			{
				"type": "occ",
				"energy": -0.27235,
				"method": "rhf"
			},
			{
				"type": "occ",
				"energy": -0.23409,
				"method": "rhf"
			},
			{
				"type": "occ",
				"energy": -0.2047,
				"method": "rhf"
			},
			{
				"type": "unocc",
				"energy": -0.00451,
				"method": "rhf"
			},
			{
				"type": "unocc",
				"energy": 0.00056,
				"method": "rhf"
			},
			{
				"type": "unocc",
				"energy": 0.01308,
				"method": "rhf"
			},
			{
				"type": "unocc",
				"energy": 0.06205,
				"method": "rhf"
			},
			{
				"type": "unocc",
				"energy": 0.07097,
				"method": "rhf"
			}
		],
		"cosmo_sigma_profile": { 
			"-0.025": 0.0,
			"-0.024": 0.0,
			"-0.023": 0.0,
			"-0.022": 0.0,
			"-0.021": 0.0,
			"-0.02": 0.0,
			"-0.019": 0.485806622246,
			"-0.018": 0.947739303253,
			"-0.017": 1.00531142478,
			"-0.016": 0.939436689145,
			"-0.015": 0.466467035824,
			"-0.014": 0.53665770871,
			"-0.013": 0.175005705773,
			"-0.012": 0.987449533813,
			"-0.011": 1.22639065915,
			"-0.01": 0.753868005228,
			"-0.009": 1.82023432253,
			"-0.008": 5.46205441959,
			"-0.007": 7.3908494028,
			"-0.006": 12.9857543923,
			"-0.005": 20.1045780578,
			"-0.004": 20.1955250055,
			"-0.003": 17.9882913408,
			"-0.002": 15.502027236,
			"-0.001": 15.7891702908,
			"0.0": 12.4467649219,
			"0.001": 10.7633483492,
			"0.002": 10.674347996,
			"0.003": 10.149747775,
			"0.004": 10.9686791284,
			"0.005": 12.5042277917,
			"0.006": 10.0536049503,
			"0.007": 5.28384510057,
			"0.008": 4.56672267721,
			"0.009": 3.71530472845,
			"0.01": 3.90132337779,
			"0.011": 6.98820025217,
			"0.012": 3.02153974723,
			"0.013": 5.44913357172,
			"0.014": 1.34848813335,
			"0.015": 0.0,
			"0.016": 0.0,
			"0.017": 0.0,
			"0.018": 0.0,
			"0.019": 0.0,
			"0.02": 0.0,
			"0.021": 0.0,
			"0.022": 0.0,
			"0.023": 0.0,
			"0.024": 0.0,
			"0.025": 0.0
		}
	}
}
