{
	 "smiles": "OC(=O)C1=C2C(ON=C2C2CC2)=NC(=C1)C1=CC=CO1", 
	 "Tm": 489.15, 
	 "num_atms": 30, 
	 "gaussian": { 
		 "optdone": 1, 
		 "sigma_profile": "yes", 
		 "theory": "DFT", 
		 "functional": "B3LYP", 
		 "basiset": "6-31G**", 
		 "properties": { 
			 "R2extent": 6595.3797, 
			 "electric_dipole_moment_norm": 1.3002118712, 
			 "electric_quadrupole_moment_norm": 29.6840483322, 
			 "total_energy": -949.827251077, 
			 "HOMO_LUMO_gap": 0.13639, 
			 "cosmo_polarized_energy": -16.24, 
			 "cosmo_cavitation_energy": 35.29, 
			 "cosmo_dispersion_energy": -25.75, 
			 "cosmo_repulsion_energy": 1.91, 
			 "cosmo_total_nonelectrostatic_energy": 11.46, 
			 "SMD_solvation_energy": 5.98 
		},
		"coords": [
			{
				"x": 2.0980240429,
				"y": 1.9153298057,
				"z": 1.2313391338,
				"element": "O" 
			},
			{
				"x": 1.4558745762,
				"y": 1.8602605037,
				"z": 0.0436572632,
				"element": "C" 
			},
			{
				"x": 1.8485298804,
				"y": 2.5144688803,
				"z": -0.8923854443,
				"element": "O" 
			},
			{
				"x": 0.2303203071,
				"y": 0.9850371823,
				"z": -0.0468487823,
				"element": "C" 
			},
			{
				"x": -0.0722644193,
				"y": -0.1338248892,
				"z": 0.7635504435,
				"element": "C" 
			},
			{
				"x": -1.2969320366,
				"y": -0.7774122267,
				"z": 0.5018642964,
				"element": "C" 
			},
			{
				"x": -1.4587731088,
				"y": -1.8202827804,
				"z": 1.3481127026,
				"element": "O" 
			},
			{
				"x": -0.3254217596,
				"y": -1.8962532063,
				"z": 2.1703210149,
				"element": "N" 
			},
			{
				"x": 0.4865820383,
				"y": -0.919730553,
				"z": 1.8383346536,
				"element": "C" 
			},
			{
				"x": 1.7713509687,
				"y": -0.7543026853,
				"z": 2.5638738904,
				"element": "C" 
			},
			{
				"x": 2.0124643276,
				"y": -1.4918921523,
				"z": 3.8532671202,
				"element": "C" 
			},
			{
				"x": 1.7980947879,
				"y": -0.0057584126,
				"z": 3.9041914192,
				"element": "C" 
			},
			{
				"x": -2.2046637899,
				"y": -0.4822745241,
				"z": -0.4065185848,
				"element": "N" 
			},
			{
				"x": -1.8914329121,
				"y": 0.5719840117,
				"z": -1.1842144832,
				"element": "C" 
			},
			{
				"x": -0.6922627971,
				"y": 1.3117307671,
				"z": -1.0336728981,
				"element": "C" 
			},
			{
				"x": -2.8631933955,
				"y": 0.9229464554,
				"z": -2.2029069924,
				"element": "C" 
			},
			{
				"x": -4.0729633134,
				"y": 0.3779667298,
				"z": -2.5529015532,
				"element": "C" 
			},
			{
				"x": -4.5684741523,
				"y": 1.158291595,
				"z": -3.6380572046,
				"element": "C" 
			},
			{
				"x": -3.6296208646,
				"y": 2.1216451105,
				"z": -3.8733975185,
				"element": "C" 
			},
			{
				"x": -2.58739002,
				"y": 1.9949546036,
				"z": -3.0120717486,
				"element": "O" 
			},
			{
				"x": 1.6524305354,
				"y": 1.3908593053,
				"z": 1.9151249311,
				"element": "H" 
			},
			{
				"x": 2.6343169599,
				"y": -0.6055510178,
				"z": 1.9201979305,
				"element": "H" 
			},
			{
				"x": 1.2141903115,
				"y": -2.1321646707,
				"z": 4.2100691757,
				"element": "H" 
			},
			{
				"x": 3.0150001895,
				"y": -1.8699993092,
				"z": 4.0230162793,
				"element": "H" 
			},
			{
				"x": 2.6488545168,
				"y": 0.6387902528,
				"z": 4.1048040098,
				"element": "H" 
			},
			{
				"x": 0.849955161,
				"y": 0.3508424085,
				"z": 4.2957290741,
				"element": "H" 
			},
			{
				"x": -0.4848871696,
				"y": 2.148585179,
				"z": -1.6880467093,
				"element": "H" 
			},
			{
				"x": -4.5332145849,
				"y": -0.4763185568,
				"z": -2.0802068674,
				"element": "H" 
			},
			{
				"x": -5.497168733,
				"y": 1.0230769218,
				"z": -4.1730689076,
				"element": "H" 
			},
			{
				"x": -3.5572255464,
				"y": 2.9316952718,
				"z": -4.5825556442,
				"element": "H" 
			}
		],
		 "valence_orbital": [ 
			{
				"type": "occ",
				"energy": -0.29538,
				"method": "rhf"
			},
			{
				"type": "occ",
				"energy": -0.29034,
				"method": "rhf"
			},
			{
				"type": "occ",
				"energy": -0.28579,
				"method": "rhf"
			},
			{
				"type": "occ",
				"energy": -0.27159,
				"method": "rhf"
			},
			{
				"type": "occ",
				"energy": -0.22803,
				"method": "rhf"
			},
			{
				"type": "unocc",
				"energy": -0.09164,
				"method": "rhf"
			},
			{
				"type": "unocc",
				"energy": -0.04363,
				"method": "rhf"
			},
			{
				"type": "unocc",
				"energy": -0.00437,
				"method": "rhf"
			},
			{
				"type": "unocc",
				"energy": 0.0228,
				"method": "rhf"
			},
			{
				"type": "unocc",
				"energy": 0.03697,
				"method": "rhf"
			}
		],
		"cosmo_sigma_profile": { 
			"-0.025": 0.0,
			"-0.024": 0.0,
			"-0.023": 0.0,
			"-0.022": 0.0,
			"-0.021": 0.0,
			"-0.02": 0.0,
			"-0.019": 0.0,
			"-0.018": 0.0,
			"-0.017": 0.0,
			"-0.016": 0.0,
			"-0.015": 0.326059911719,
			"-0.014": 0.596911156389,
			"-0.013": 0.807313017642,
			"-0.012": 0.548727297989,
			"-0.011": 0.451391521014,
			"-0.01": 2.62062960383,
			"-0.009": 3.43043120063,
			"-0.008": 5.56823661994,
			"-0.007": 10.0475254223,
			"-0.006": 17.9270248736,
			"-0.005": 17.4494265741,
			"-0.004": 17.4495846282,
			"-0.003": 23.878674216,
			"-0.002": 21.6616916329,
			"-0.001": 22.665530583,
			"0.0": 16.6801933846,
			"0.001": 18.9153923538,
			"0.002": 18.8924753189,
			"0.003": 16.668238848,
			"0.004": 11.4133454958,
			"0.005": 8.31668601808,
			"0.006": 7.54456479938,
			"0.007": 9.88594467779,
			"0.008": 7.2742172718,
			"0.009": 7.63925684821,
			"0.01": 6.78940292961,
			"0.011": 6.91916821953,
			"0.012": 2.33359524788,
			"0.013": 0.107438210516,
			"0.014": 0.0,
			"0.015": 0.0,
			"0.016": 0.0,
			"0.017": 0.0,
			"0.018": 0.0,
			"0.019": 0.0,
			"0.02": 0.0,
			"0.021": 0.0,
			"0.022": 0.0,
			"0.023": 0.0,
			"0.024": 0.0,
			"0.025": 0.0
		}
	}
}
