{
	 "smiles": "FC(F)(F)C1=CC(=CC(C=CC2=NOC(CCl)=N2)=C1)C(F)(F)F", 
	 "Tm": 380.15, 
	 "num_atms": 30, 
	 "gaussian": { 
		 "optdone": 1, 
		 "sigma_profile": "yes", 
		 "theory": "DFT", 
		 "functional": "B3LYP", 
		 "basiset": "6-31G**", 
		 "properties": { 
			 "R2extent": 9728.3077, 
			 "electric_dipole_moment_norm": 1.67113887514, 
			 "electric_quadrupole_moment_norm": 15.494477684, 
			 "total_energy": -1743.51859432, 
			 "HOMO_LUMO_gap": 0.17242, 
			 "cosmo_polarized_energy": -10.92, 
			 "cosmo_cavitation_energy": 41.38, 
			 "cosmo_dispersion_energy": -27.39, 
			 "cosmo_repulsion_energy": 1.98, 
			 "cosmo_total_nonelectrostatic_energy": 15.97, 
			 "SMD_solvation_energy": 7.86 
		},
		"coords": [
			{
				"x": 4.4125677589,
				"y": 1.7322793075,
				"z": 2.6175467722,
				"element": "F" 
			},
			{
				"x": 3.9795583003,
				"y": 0.6321259217,
				"z": 1.9606991929,
				"element": "C" 
			},
			{
				"x": 4.9232584978,
				"y": 0.3211234346,
				"z": 1.0468995631,
				"element": "F" 
			},
			{
				"x": 3.9330898681,
				"y": -0.372540576,
				"z": 2.8619946531,
				"element": "F" 
			},
			{
				"x": 2.6377268392,
				"y": 0.8688124104,
				"z": 1.3172591203,
				"element": "C" 
			},
			{
				"x": 2.5746415683,
				"y": 1.4148265832,
				"z": 0.0335525967,
				"element": "C" 
			},
			{
				"x": 1.3264179094,
				"y": 1.7010303599,
				"z": -0.5161050032,
				"element": "C" 
			},
			{
				"x": 0.1550387468,
				"y": 1.4357316523,
				"z": 0.1921017483,
				"element": "C" 
			},
			{
				"x": 0.2062373906,
				"y": 0.8487300454,
				"z": 1.4639499784,
				"element": "C" 
			},
			{
				"x": -0.9868498803,
				"y": 0.5281641928,
				"z": 2.2659742826,
				"element": "C" 
			},
			{
				"x": -2.2205916957,
				"y": 0.1067404181,
				"z": 1.9165083026,
				"element": "C" 
			},
			{
				"x": -2.7669393333,
				"y": -0.2597644543,
				"z": 0.6165103797,
				"element": "C" 
			},
			{
				"x": -4.0323880213,
				"y": -0.6317324828,
				"z": 0.5297050669,
				"element": "N" 
			},
			{
				"x": -4.1967518306,
				"y": -0.9309444717,
				"z": -0.8247621493,
				"element": "O" 
			},
			{
				"x": -3.0079300836,
				"y": -0.7140137573,
				"z": -1.4118118421,
				"element": "C" 
			},
			{
				"x": -2.8661643168,
				"y": -0.9386233617,
				"z": -2.8744917924,
				"element": "C" 
			},
			{
				"x": -2.7469877366,
				"y": -2.7046297886,
				"z": -3.2717136893,
				"element": "Cl" 
			},
			{
				"x": -2.0923074268,
				"y": -0.3040195412,
				"z": -0.5889014392,
				"element": "N" 
			},
			{
				"x": 1.4700570085,
				"y": 0.5964613774,
				"z": 2.0266612341,
				"element": "C" 
			},
			{
				"x": 1.2049380742,
				"y": 2.2615319977,
				"z": -1.908989675,
				"element": "C" 
			},
			{
				"x": 0.3548165451,
				"y": 3.3118547935,
				"z": -1.9470246156,
				"element": "F" 
			},
			{
				"x": 2.3904737075,
				"y": 2.6762341139,
				"z": -2.3988205795,
				"element": "F" 
			},
			{
				"x": 0.7151502687,
				"y": 1.3371680397,
				"z": -2.7704235631,
				"element": "F" 
			},
			{
				"x": 3.4809330612,
				"y": 1.6181534262,
				"z": -0.5234184822,
				"element": "H" 
			},
			{
				"x": -0.7985947714,
				"y": 1.6826343043,
				"z": -0.251099314,
				"element": "H" 
			},
			{
				"x": -0.8278248887,
				"y": 0.629726032,
				"z": 3.3385875439,
				"element": "H" 
			},
			{
				"x": -2.9387441711,
				"y": -0.0413969808,
				"z": 2.7180486637,
				"element": "H" 
			},
			{
				"x": -3.7285416507,
				"y": -0.5504581002,
				"z": -3.4166331915,
				"element": "H" 
			},
			{
				"x": -1.9492036032,
				"y": -0.4596646132,
				"z": -3.2143730747,
				"element": "H" 
			},
			{
				"x": 1.5393138654,
				"y": 0.1633597174,
				"z": 3.0193693128,
				"element": "H" 
			}
		],
		 "valence_orbital": [ 
			{
				"type": "occ",
				"energy": -0.32111,
				"method": "rhf"
			},
			{
				"type": "occ",
				"energy": -0.31615,
				"method": "rhf"
			},
			{
				"type": "occ",
				"energy": -0.30456,
				"method": "rhf"
			},
			{
				"type": "occ",
				"energy": -0.28611,
				"method": "rhf"
			},
			{
				"type": "occ",
				"energy": -0.25498,
				"method": "rhf"
			},
			{
				"type": "unocc",
				"energy": -0.08256,
				"method": "rhf"
			},
			{
				"type": "unocc",
				"energy": -0.05918,
				"method": "rhf"
			},
			{
				"type": "unocc",
				"energy": -0.04879,
				"method": "rhf"
			},
			{
				"type": "unocc",
				"energy": -0.01461,
				"method": "rhf"
			},
			{
				"type": "unocc",
				"energy": 0.02871,
				"method": "rhf"
			}
		],
		"cosmo_sigma_profile": { 
			"-0.025": 0.0,
			"-0.024": 0.0,
			"-0.023": 0.0,
			"-0.022": 0.0,
			"-0.021": 0.0,
			"-0.02": 0.0,
			"-0.019": 0.0,
			"-0.018": 0.0,
			"-0.017": 0.0,
			"-0.016": 0.0,
			"-0.015": 0.0,
			"-0.014": 0.0,
			"-0.013": 0.0,
			"-0.012": 0.0,
			"-0.011": 0.693087199224,
			"-0.01": 2.50060647673,
			"-0.009": 3.61730488684,
			"-0.008": 8.43580280392,
			"-0.007": 13.8077819724,
			"-0.006": 11.4421618764,
			"-0.005": 13.6798938864,
			"-0.004": 13.196032054,
			"-0.003": 14.9053498964,
			"-0.002": 18.9552193455,
			"-0.001": 25.1099330088,
			"0.0": 36.0236006436,
			"0.001": 32.8869934818,
			"0.002": 51.1469834605,
			"0.003": 48.2862339399,
			"0.004": 12.2017541437,
			"0.005": 13.2836845467,
			"0.006": 4.9918668624,
			"0.007": 2.9029878038,
			"0.008": 2.33482314397,
			"0.009": 1.75198661234,
			"0.01": 1.43980808979,
			"0.011": 1.11293359482,
			"0.012": 1.11615373856,
			"0.013": 0.138899396593,
			"0.014": 0.0,
			"0.015": 0.0,
			"0.016": 0.0,
			"0.017": 0.0,
			"0.018": 0.0,
			"0.019": 0.0,
			"0.02": 0.0,
			"0.021": 0.0,
			"0.022": 0.0,
			"0.023": 0.0,
			"0.024": 0.0,
			"0.025": 0.0
		}
	}
}
