{
	 "smiles": "O=P(OC1=NOC2=C1C=CC=C2)(OC1=CC=CC=C1)OC1=CC=CC=C1", 
	 "Tm": 339.15, 
	 "num_atms": 40, 
	 "gaussian": { 
		 "optdone": 1, 
		 "sigma_profile": "yes", 
		 "theory": "DFT", 
		 "functional": "B3LYP", 
		 "basiset": "6-31G**", 
		 "properties": { 
			 "R2extent": 9467.2934, 
			 "electric_dipole_moment_norm": 4.60245235174, 
			 "electric_quadrupole_moment_norm": 18.6211268069, 
			 "total_energy": -1504.69576895, 
			 "HOMO_LUMO_gap": 0.19205, 
			 "cosmo_polarized_energy": -15.45, 
			 "cosmo_cavitation_energy": 47.2, 
			 "cosmo_dispersion_energy": -31.96, 
			 "cosmo_repulsion_energy": 2.43, 
			 "cosmo_total_nonelectrostatic_energy": 17.68, 
			 "SMD_solvation_energy": 10.2 
		},
		"coords": [
			{
				"x": 3.1953890434,
				"y": -0.8946478908,
				"z": 1.9145615612,
				"element": "O" 
			},
			{
				"x": 2.4844579455,
				"y": -0.4395212587,
				"z": 0.7127622123,
				"element": "P" 
			},
			{
				"x": 1.0493094508,
				"y": 0.2380150394,
				"z": 1.1553429177,
				"element": "O" 
			},
			{
				"x": -0.0675513142,
				"y": 0.5073021928,
				"z": 0.4365695188,
				"element": "C" 
			},
			{
				"x": -0.2146921769,
				"y": 0.2478474419,
				"z": -0.8344685945,
				"element": "N" 
			},
			{
				"x": -1.5141665905,
				"y": 0.6829072706,
				"z": -1.1745808741,
				"element": "O" 
			},
			{
				"x": -2.1008844801,
				"y": 1.1977416202,
				"z": -0.0622943979,
				"element": "C" 
			},
			{
				"x": -1.2246954608,
				"y": 1.118886126,
				"z": 1.0227911298,
				"element": "C" 
			},
			{
				"x": -1.6041565435,
				"y": 1.5874255129,
				"z": 2.2880228322,
				"element": "C" 
			},
			{
				"x": -2.8774456789,
				"y": 2.1285227694,
				"z": 2.4093216672,
				"element": "C" 
			},
			{
				"x": -3.749694533,
				"y": 2.2008652684,
				"z": 1.300487112,
				"element": "C" 
			},
			{
				"x": -3.3833069224,
				"y": 1.7378906509,
				"z": 0.0403767198,
				"element": "C" 
			},
			{
				"x": 3.2831445015,
				"y": 0.6773435679,
				"z": -0.1029940069,
				"element": "O" 
			},
			{
				"x": 2.8944965527,
				"y": 1.3770978057,
				"z": -1.2556731034,
				"element": "C" 
			},
			{
				"x": 2.9348197812,
				"y": 0.7546023078,
				"z": -2.4999880799,
				"element": "C" 
			},
			{
				"x": 2.6191213639,
				"y": 1.5057325681,
				"z": -3.6324510087,
				"element": "C" 
			},
			{
				"x": 2.2792141381,
				"y": 2.8553766763,
				"z": -3.5162409557,
				"element": "C" 
			},
			{
				"x": 2.2565930674,
				"y": 3.4615140976,
				"z": -2.2587347969,
				"element": "C" 
			},
			{
				"x": 2.5683251276,
				"y": 2.7230104924,
				"z": -1.116282337,
				"element": "C" 
			},
			{
				"x": 2.1421989799,
				"y": -1.5153071645,
				"z": -0.4301831192,
				"element": "O" 
			},
			{
				"x": 1.5025169477,
				"y": -2.745954471,
				"z": -0.1896027895,
				"element": "C" 
			},
			{
				"x": 0.4595577426,
				"y": -3.0823218178,
				"z": -1.0488179497,
				"element": "C" 
			},
			{
				"x": -0.161080183,
				"y": -4.3225023371,
				"z": -0.8955779985,
				"element": "C" 
			},
			{
				"x": 0.2577405717,
				"y": -5.2034131224,
				"z": 0.1042995021,
				"element": "C" 
			},
			{
				"x": 1.3048448131,
				"y": -4.8419950421,
				"z": 0.9539938194,
				"element": "C" 
			},
			{
				"x": 1.9438457921,
				"y": -3.6083186107,
				"z": 0.8123852778,
				"element": "C" 
			},
			{
				"x": -0.926778902,
				"y": 1.5252587964,
				"z": 3.1329916281,
				"element": "H" 
			},
			{
				"x": -3.2135789888,
				"y": 2.5031391557,
				"z": 3.3708508283,
				"element": "H" 
			},
			{
				"x": -4.7375727736,
				"y": 2.6309920948,
				"z": 1.4361152379,
				"element": "H" 
			},
			{
				"x": -4.0486087285,
				"y": 1.7903260521,
				"z": -0.8137509329,
				"element": "H" 
			},
			{
				"x": 3.1994089702,
				"y": -0.293719363,
				"z": -2.5690636034,
				"element": "H" 
			},
			{
				"x": 2.6419184392,
				"y": 1.0318060293,
				"z": -4.609173973,
				"element": "H" 
			},
			{
				"x": 2.0365917633,
				"y": 3.4331422765,
				"z": -4.402856422,
				"element": "H" 
			},
			{
				"x": 1.9994417294,
				"y": 4.5121525284,
				"z": -2.1627557018,
				"element": "H" 
			},
			{
				"x": 2.5688947918,
				"y": 3.1734316184,
				"z": -0.1294052881,
				"element": "H" 
			},
			{
				"x": 0.1479829702,
				"y": -2.3709188802,
				"z": -1.8046100017,
				"element": "H" 
			},
			{
				"x": -0.9758675586,
				"y": -4.5967735569,
				"z": -1.5591253719,
				"element": "H" 
			},
			{
				"x": -0.2294680103,
				"y": -6.1668279011,
				"z": 0.220248344,
				"element": "H" 
			},
			{
				"x": 1.6356288905,
				"y": -5.523418022,
				"z": 1.7321777022,
				"element": "H" 
			},
			{
				"x": 2.7591054715,
				"y": -3.3122905215,
				"z": 1.4620332961,
				"element": "H" 
			}
		],
		 "valence_orbital": [ 
			{
				"type": "occ",
				"energy": -0.25885,
				"method": "rhf"
			},
			{
				"type": "occ",
				"energy": -0.25574,
				"method": "rhf"
			},
			{
				"type": "occ",
				"energy": -0.25269,
				"method": "rhf"
			},
			{
				"type": "occ",
				"energy": -0.24733,
				"method": "rhf"
			},
			{
				"type": "occ",
				"energy": -0.24236,
				"method": "rhf"
			},
			{
				"type": "unocc",
				"energy": -0.05031,
				"method": "rhf"
			},
			{
				"type": "unocc",
				"energy": -0.00981,
				"method": "rhf"
			},
			{
				"type": "unocc",
				"energy": -0.00802,
				"method": "rhf"
			},
			{
				"type": "unocc",
				"energy": -0.0069,
				"method": "rhf"
			},
			{
				"type": "unocc",
				"energy": -0.00563,
				"method": "rhf"
			}
		],
		"cosmo_sigma_profile": { 
			"-0.025": 0.0,
			"-0.024": 0.0,
			"-0.023": 0.0,
			"-0.022": 0.0,
			"-0.021": 0.0,
			"-0.02": 0.0,
			"-0.019": 0.0,
			"-0.018": 0.0,
			"-0.017": 0.0,
			"-0.016": 0.0,
			"-0.015": 0.0,
			"-0.014": 0.0,
			"-0.013": 0.0,
			"-0.012": 0.0,
			"-0.011": 0.0,
			"-0.01": 0.0,
			"-0.009": 0.0,
			"-0.008": 1.94897466642,
			"-0.007": 11.8620585158,
			"-0.006": 26.6382023604,
			"-0.005": 31.659314699,
			"-0.004": 28.7859178954,
			"-0.003": 24.687733799,
			"-0.002": 27.733177392,
			"-0.001": 24.63264962,
			"0.0": 28.2214522288,
			"0.001": 29.8203077845,
			"0.002": 33.9905554605,
			"0.003": 33.3028389079,
			"0.004": 26.5248275905,
			"0.005": 11.6101823413,
			"0.006": 7.08129607213,
			"0.007": 7.50018913783,
			"0.008": 6.25986582099,
			"0.009": 3.98038155818,
			"0.01": 2.81121459054,
			"0.011": 1.42152216337,
			"0.012": 4.95937319983,
			"0.013": 3.4283597399,
			"0.014": 0.0,
			"0.015": 0.0,
			"0.016": 0.0,
			"0.017": 0.0,
			"0.018": 0.0,
			"0.019": 0.0,
			"0.02": 0.0,
			"0.021": 0.0,
			"0.022": 0.0,
			"0.023": 0.0,
			"0.024": 0.0,
			"0.025": 0.0
		}
	}
}
