{
	 "smiles": "CC1(C)CC2=C(C=C(N2C2=CC=C(Cl)C=C2)C2=CC=CC=C2)C(=O)C1", 
	 "Tm": 459.15, 
	 "num_atms": 45, 
	 "gaussian": { 
		 "optdone": 1, 
		 "sigma_profile": "yes", 
		 "theory": "DFT", 
		 "functional": "B3LYP", 
		 "basiset": "6-31G**", 
		 "properties": { 
			 "R2extent": 10386.7858, 
			 "electric_dipole_moment_norm": 3.89430509077, 
			 "electric_quadrupole_moment_norm": 28.5151670028, 
			 "total_energy": -1440.58409272, 
			 "HOMO_LUMO_gap": 0.16797, 
			 "cosmo_polarized_energy": -14.83, 
			 "cosmo_cavitation_energy": 48.73, 
			 "cosmo_dispersion_energy": -32.61, 
			 "cosmo_repulsion_energy": 2.49, 
			 "cosmo_total_nonelectrostatic_energy": 18.61, 
			 "SMD_solvation_energy": 7.87 
		},
		"coords": [
			{
				"x": -0.1167056515,
				"y": 4.4622225561,
				"z": 2.3653021956,
				"element": "C" 
			},
			{
				"x": -0.0289454779,
				"y": 2.9377019708,
				"z": 2.5514991778,
				"element": "C" 
			},
			{
				"x": -1.1888972438,
				"y": 2.4758608622,
				"z": 3.4571760371,
				"element": "C" 
			},
			{
				"x": -0.1330925655,
				"y": 2.2538549588,
				"z": 1.1574769639,
				"element": "C" 
			},
			{
				"x": 0.254511118,
				"y": 0.8107736742,
				"z": 1.2459417263,
				"element": "C" 
			},
			{
				"x": 1.0995876422,
				"y": 0.2725714991,
				"z": 2.2046259523,
				"element": "C" 
			},
			{
				"x": 1.2837488229,
				"y": -1.1064498453,
				"z": 1.8994777167,
				"element": "C" 
			},
			{
				"x": 0.5587642912,
				"y": -1.3893539994,
				"z": 0.7637102206,
				"element": "C" 
			},
			{
				"x": -0.0870383574,
				"y": -0.1956264874,
				"z": 0.3681005291,
				"element": "N" 
			},
			{
				"x": -0.8314477312,
				"y": 0.0023762317,
				"z": -0.8361752233,
				"element": "C" 
			},
			{
				"x": -0.2079235269,
				"y": -0.1496495523,
				"z": -2.0786126734,
				"element": "C" 
			},
			{
				"x": -0.9282253828,
				"y": 0.0517479974,
				"z": -3.2543234013,
				"element": "C" 
			},
			{
				"x": -2.2723931178,
				"y": 0.4182072676,
				"z": -3.178188156,
				"element": "C" 
			},
			{
				"x": -3.1808297474,
				"y": 0.6814518772,
				"z": -4.6565674017,
				"element": "Cl" 
			},
			{
				"x": -2.9070249801,
				"y": 0.5758599591,
				"z": -1.9462368505,
				"element": "C" 
			},
			{
				"x": -2.1824976339,
				"y": 0.3589927031,
				"z": -0.7746676764,
				"element": "C" 
			},
			{
				"x": 0.4082980855,
				"y": -2.6820230496,
				"z": 0.0779902644,
				"element": "C" 
			},
			{
				"x": -0.8232472411,
				"y": -3.1429837034,
				"z": -0.4218189632,
				"element": "C" 
			},
			{
				"x": -0.9231947457,
				"y": -4.3968329541,
				"z": -1.0227963293,
				"element": "C" 
			},
			{
				"x": 0.1979415797,
				"y": -5.2221403571,
				"z": -1.1283995135,
				"element": "C" 
			},
			{
				"x": 1.4246825325,
				"y": -4.7809084057,
				"z": -0.6280283283,
				"element": "C" 
			},
			{
				"x": 1.5306454215,
				"y": -3.5231322726,
				"z": -0.0379529428,
				"element": "C" 
			},
			{
				"x": 1.6484598945,
				"y": 1.0801384834,
				"z": 3.2925540602,
				"element": "C" 
			},
			{
				"x": 2.3500671126,
				"y": 0.6250102522,
				"z": 4.1867728482,
				"element": "O" 
			},
			{
				"x": 1.330127881,
				"y": 2.5769038231,
				"z": 3.2043888627,
				"element": "C" 
			},
			{
				"x": -1.0650594628,
				"y": 4.7475106138,
				"z": 1.8952137144,
				"element": "H" 
			},
			{
				"x": 0.6973843543,
				"y": 4.8357166169,
				"z": 1.7340690251,
				"element": "H" 
			},
			{
				"x": -0.0555510535,
				"y": 4.9770193812,
				"z": 3.3300862329,
				"element": "H" 
			},
			{
				"x": -1.1857299913,
				"y": 1.3920315414,
				"z": 3.6045183266,
				"element": "H" 
			},
			{
				"x": -1.1173926536,
				"y": 2.9469245091,
				"z": 4.4432285605,
				"element": "H" 
			},
			{
				"x": -2.156005973,
				"y": 2.7563627182,
				"z": 3.0240783304,
				"element": "H" 
			},
			{
				"x": -1.1449895514,
				"y": 2.3805608346,
				"z": 0.7581117019,
				"element": "H" 
			},
			{
				"x": 0.5360854295,
				"y": 2.7716720501,
				"z": 0.4529912432,
				"element": "H" 
			},
			{
				"x": 1.8529766005,
				"y": -1.8156541999,
				"z": 2.4821573669,
				"element": "H" 
			},
			{
				"x": 0.8391316684,
				"y": -0.4294345332,
				"z": -2.120917699,
				"element": "H" 
			},
			{
				"x": -0.4509079917,
				"y": -0.0676628594,
				"z": -4.2203695123,
				"element": "H" 
			},
			{
				"x": -3.9542836963,
				"y": 0.8531685567,
				"z": -1.9045112772,
				"element": "H" 
			},
			{
				"x": -2.6679915944,
				"y": 0.4531810298,
				"z": 0.1912988101,
				"element": "H" 
			},
			{
				"x": -1.7101558507,
				"y": -2.5264202292,
				"z": -0.3241850861,
				"element": "H" 
			},
			{
				"x": -1.8846711802,
				"y": -4.7339935393,
				"z": -1.3997344954,
				"element": "H" 
			},
			{
				"x": 0.1161067916,
				"y": -6.1994660314,
				"z": -1.5949218873,
				"element": "H" 
			},
			{
				"x": 2.3048322367,
				"y": -5.4128348076,
				"z": -0.7064826238,
				"element": "H" 
			},
			{
				"x": 2.4906620006,
				"y": -3.1742839236,
				"z": 0.3302213126,
				"element": "H" 
			},
			{
				"x": 1.4047484682,
				"y": 2.9957286939,
				"z": 4.2130247331,
				"element": "H" 
			},
			{
				"x": 2.1416404705,
				"y": 3.0316000889,
				"z": 2.6158741282,
				"element": "H" 
			}
		],
		 "valence_orbital": [ 
			{
				"type": "occ",
				"energy": -0.26292,
				"method": "rhf"
			},
			{
				"type": "occ",
				"energy": -0.25338,
				"method": "rhf"
			},
			{
				"type": "occ",
				"energy": -0.24317,
				"method": "rhf"
			},
			{
				"type": "occ",
				"energy": -0.22732,
				"method": "rhf"
			},
			{
				"type": "occ",
				"energy": -0.20572,
				"method": "rhf"
			},
			{
				"type": "unocc",
				"energy": -0.03775,
				"method": "rhf"
			},
			{
				"type": "unocc",
				"energy": -0.0348,
				"method": "rhf"
			},
			{
				"type": "unocc",
				"energy": -0.02197,
				"method": "rhf"
			},
			{
				"type": "unocc",
				"energy": -0.01829,
				"method": "rhf"
			},
			{
				"type": "unocc",
				"energy": -0.00322,
				"method": "rhf"
			}
		],
		"cosmo_sigma_profile": { 
			"-0.025": 0.0,
			"-0.024": 0.0,
			"-0.023": 0.0,
			"-0.022": 0.0,
			"-0.021": 0.0,
			"-0.02": 0.0,
			"-0.019": 0.0,
			"-0.018": 0.0,
			"-0.017": 0.0,
			"-0.016": 0.0,
			"-0.015": 0.0,
			"-0.014": 0.0,
			"-0.013": 0.0,
			"-0.012": 0.0,
			"-0.011": 0.0,
			"-0.01": 0.0,
			"-0.009": 0.0,
			"-0.008": 2.68002562996,
			"-0.007": 7.87467018923,
			"-0.006": 13.7484027003,
			"-0.005": 22.861643984,
			"-0.004": 33.2688955088,
			"-0.003": 43.2071033174,
			"-0.002": 33.3114576626,
			"-0.001": 34.7456853715,
			"0.0": 35.6621570958,
			"0.001": 37.5726932756,
			"0.002": 28.5798422207,
			"0.003": 23.3295114474,
			"0.004": 25.2282679153,
			"0.005": 19.6581835399,
			"0.006": 6.89572568861,
			"0.007": 1.79741943071,
			"0.008": 2.26862776365,
			"0.009": 1.13019053482,
			"0.01": 1.95251829214,
			"0.011": 1.60474320171,
			"0.012": 2.71176006874,
			"0.013": 4.89660459141,
			"0.014": 3.35250414362,
			"0.015": 0.667037050002,
			"0.016": 0.0,
			"0.017": 0.0,
			"0.018": 0.0,
			"0.019": 0.0,
			"0.02": 0.0,
			"0.021": 0.0,
			"0.022": 0.0,
			"0.023": 0.0,
			"0.024": 0.0,
			"0.025": 0.0
		}
	}
}
