{
	 "smiles": "NC1=NN(C=C1)C1=C(F)C=CC=N1", 
	 "Tm": 363.15, 
	 "num_atms": 20, 
	 "gaussian": { 
		 "optdone": 1, 
		 "sigma_profile": "yes", 
		 "theory": "DFT", 
		 "functional": "B3LYP", 
		 "basiset": "6-31G**", 
		 "properties": { 
			 "R2extent": 3146.6384, 
			 "electric_dipole_moment_norm": 1.37274845839, 
			 "electric_quadrupole_moment_norm": 15.6808057765, 
			 "total_energy": -627.879354059, 
			 "HOMO_LUMO_gap": 0.16264, 
			 "cosmo_polarized_energy": -12.08, 
			 "cosmo_cavitation_energy": 25.24, 
			 "cosmo_dispersion_energy": -18.87, 
			 "cosmo_repulsion_energy": 1.47, 
			 "cosmo_total_nonelectrostatic_energy": 7.85, 
			 "SMD_solvation_energy": 3.6 
		},
		"coords": [
			{
				"x": 0.885266577,
				"y": -3.3389461915,
				"z": 0.3450622027,
				"element": "N" 
			},
			{
				"x": 0.1181428976,
				"y": -2.183211564,
				"z": 0.2552715532,
				"element": "C" 
			},
			{
				"x": 0.285071626,
				"y": -1.1877731927,
				"z": 1.114763465,
				"element": "N" 
			},
			{
				"x": -0.6835432072,
				"y": -0.2747963261,
				"z": 0.7723733762,
				"element": "N" 
			},
			{
				"x": -1.4284503245,
				"y": -0.6967579001,
				"z": -0.2997233346,
				"element": "C" 
			},
			{
				"x": -0.9456763044,
				"y": -1.9266958255,
				"z": -0.663142216,
				"element": "C" 
			},
			{
				"x": -0.8491216148,
				"y": 0.9413369446,
				"z": 1.4503400615,
				"element": "C" 
			},
			{
				"x": -0.100324418,
				"y": 1.3140115748,
				"z": 2.5860943245,
				"element": "C" 
			},
			{
				"x": 0.8396086591,
				"y": 0.522284456,
				"z": 3.1197366409,
				"element": "F" 
			},
			{
				"x": -0.3411231255,
				"y": 2.5419244439,
				"z": 3.1826908355,
				"element": "C" 
			},
			{
				"x": -1.3206436434,
				"y": 3.3811909999,
				"z": 2.6513600036,
				"element": "C" 
			},
			{
				"x": -2.0161853374,
				"y": 2.932451144,
				"z": 1.5319033839,
				"element": "C" 
			},
			{
				"x": -1.785773801,
				"y": 1.7527443829,
				"z": 0.9508504982,
				"element": "N" 
			},
			{
				"x": 1.6988853423,
				"y": -3.214233045,
				"z": 0.9349978275,
				"element": "H" 
			},
			{
				"x": 1.1305563326,
				"y": -3.7424796303,
				"z": -0.5493593564,
				"element": "H" 
			},
			{
				"x": -2.2239936535,
				"y": -0.0832328775,
				"z": -0.6891826849,
				"element": "H" 
			},
			{
				"x": -1.3057746241,
				"y": -2.5634003766,
				"z": -1.457428767,
				"element": "H" 
			},
			{
				"x": 0.2437220882,
				"y": 2.8138886624,
				"z": 4.0552052687,
				"element": "H" 
			},
			{
				"x": -1.534279779,
				"y": 4.3477818514,
				"z": 3.0941033618,
				"element": "H" 
			},
			{
				"x": -2.7925636899,
				"y": 3.5425124694,
				"z": 1.0756835557,
				"element": "H" 
			}
		],
		 "valence_orbital": [ 
			{
				"type": "occ",
				"energy": -0.28191,
				"method": "rhf"
			},
			{
				"type": "occ",
				"energy": -0.27281,
				"method": "rhf"
			},
			{
				"type": "occ",
				"energy": -0.26572,
				"method": "rhf"
			},
			{
				"type": "occ",
				"energy": -0.23947,
				"method": "rhf"
			},
			{
				"type": "occ",
				"energy": -0.19951,
				"method": "rhf"
			},
			{
				"type": "unocc",
				"energy": -0.03687,
				"method": "rhf"
			},
			{
				"type": "unocc",
				"energy": -0.01465,
				"method": "rhf"
			},
			{
				"type": "unocc",
				"energy": 0.04338,
				"method": "rhf"
			},
			{
				"type": "unocc",
				"energy": 0.07832,
				"method": "rhf"
			},
			{
				"type": "unocc",
				"energy": 0.09014,
				"method": "rhf"
			}
		],
		"cosmo_sigma_profile": { 
			"-0.025": 0.0,
			"-0.024": 0.0,
			"-0.023": 0.0,
			"-0.022": 0.0,
			"-0.021": 0.0,
			"-0.02": 0.0,
			"-0.019": 0.0,
			"-0.018": 0.0,
			"-0.017": 0.0,
			"-0.016": 0.0,
			"-0.015": 0.0,
			"-0.014": 0.0,
			"-0.013": 1.02863869436,
			"-0.012": 1.9744767255,
			"-0.011": 2.72439436452,
			"-0.01": 2.48344830429,
			"-0.009": 3.42383092499,
			"-0.008": 4.92464983215,
			"-0.007": 10.4139219125,
			"-0.006": 11.6008621374,
			"-0.005": 10.116503945,
			"-0.004": 9.29957355071,
			"-0.003": 7.89984382338,
			"-0.002": 9.05602731596,
			"-0.001": 14.9967536452,
			"0.0": 16.0961787706,
			"0.001": 15.8370474976,
			"0.002": 16.8691315564,
			"0.003": 12.2914563812,
			"0.004": 13.6786165539,
			"0.005": 9.30325819089,
			"0.006": 6.01100747444,
			"0.007": 4.38128562352,
			"0.008": 3.97857559319,
			"0.009": 3.75480489792,
			"0.01": 2.90615760061,
			"0.011": 1.87896808251,
			"0.012": 1.99378481921,
			"0.013": 2.56226734294,
			"0.014": 1.30597644009,
			"0.015": 0.319114241076,
			"0.016": 0.0,
			"0.017": 0.0,
			"0.018": 0.0,
			"0.019": 0.0,
			"0.02": 0.0,
			"0.021": 0.0,
			"0.022": 0.0,
			"0.023": 0.0,
			"0.024": 0.0,
			"0.025": 0.0
		}
	}
}
