{
	 "smiles": "COC1=CC=C(C=C1)C1=CC(F)=C(C=C1)C(O)=O", 
	 "Tm": 475.15, 
	 "num_atms": 29, 
	 "gaussian": { 
		 "optdone": 1, 
		 "sigma_profile": "yes", 
		 "theory": "DFT", 
		 "functional": "B3LYP", 
		 "basiset": "6-31G**", 
		 "properties": { 
			 "R2extent": 7925.6523, 
			 "electric_dipole_moment_norm": 3.96979529069, 
			 "electric_quadrupole_moment_norm": 12.5831539667, 
			 "total_energy": -865.637067463, 
			 "HOMO_LUMO_gap": 0.1615, 
			 "cosmo_polarized_energy": -12.86, 
			 "cosmo_cavitation_energy": 34.39, 
			 "cosmo_dispersion_energy": -25.11, 
			 "cosmo_repulsion_energy": 1.89, 
			 "cosmo_total_nonelectrostatic_energy": 11.16, 
			 "SMD_solvation_energy": 8.12 
		},
		"coords": [
			{
				"x": -1.4795969662,
				"y": -4.4421288277,
				"z": -3.6112460136,
				"element": "C" 
			},
			{
				"x": -1.6372196858,
				"y": -3.0483960156,
				"z": -3.3901721558,
				"element": "O" 
			},
			{
				"x": -1.0639273062,
				"y": -2.4998064574,
				"z": -2.2835461265,
				"element": "C" 
			},
			{
				"x": -1.2454865548,
				"y": -1.1171218862,
				"z": -2.1230561047,
				"element": "C" 
			},
			{
				"x": -0.7025536265,
				"y": -0.4639699547,
				"z": -1.0272555524,
				"element": "C" 
			},
			{
				"x": 0.0433974156,
				"y": -1.1588230306,
				"z": -0.0544700662,
				"element": "C" 
			},
			{
				"x": 0.2147849286,
				"y": -2.538855441,
				"z": -0.2330667518,
				"element": "C" 
			},
			{
				"x": -0.3282071191,
				"y": -3.2117097595,
				"z": -1.3280153163,
				"element": "C" 
			},
			{
				"x": 0.6214436582,
				"y": -0.4553083889,
				"z": 1.1132185445,
				"element": "C" 
			},
			{
				"x": 1.8537524452,
				"y": -0.8521148958,
				"z": 1.6543473431,
				"element": "C" 
			},
			{
				"x": 2.3888761904,
				"y": -0.1927007582,
				"z": 2.7531161062,
				"element": "C" 
			},
			{
				"x": 3.5759745957,
				"y": -0.626254238,
				"z": 3.2078596471,
				"element": "F" 
			},
			{
				"x": 1.7374397609,
				"y": 0.8897781263,
				"z": 3.3616948015,
				"element": "C" 
			},
			{
				"x": 0.5049768482,
				"y": 1.2811350786,
				"z": 2.8100384312,
				"element": "C" 
			},
			{
				"x": -0.0449939452,
				"y": 0.6302213382,
				"z": 1.7167803341,
				"element": "C" 
			},
			{
				"x": 2.2296568617,
				"y": 1.656976828,
				"z": 4.5348246073,
				"element": "C" 
			},
			{
				"x": 3.4156890451,
				"y": 1.2330295894,
				"z": 5.0255564523,
				"element": "O" 
			},
			{
				"x": 1.6273602015,
				"y": 2.5930176077,
				"z": 5.0278051489,
				"element": "O" 
			},
			{
				"x": -1.923021636,
				"y": -5.0330623875,
				"z": -2.7997393973,
				"element": "H" 
			},
			{
				"x": -0.4228074671,
				"y": -4.7171991429,
				"z": -3.7201577533,
				"element": "H" 
			},
			{
				"x": -2.0050706705,
				"y": -4.6601966812,
				"z": -4.5420136258,
				"element": "H" 
			},
			{
				"x": -1.8085587209,
				"y": -0.5778851677,
				"z": -2.877644695,
				"element": "H" 
			},
			{
				"x": -0.8335407373,
				"y": 0.6099820491,
				"z": -0.9365115579,
				"element": "H" 
			},
			{
				"x": 0.7594614007,
				"y": -3.1117000383,
				"z": 0.5115436318,
				"element": "H" 
			},
			{
				"x": -0.1810073058,
				"y": -4.2812420096,
				"z": -1.4188306035,
				"element": "H" 
			},
			{
				"x": 2.4297219816,
				"y": -1.658157698,
				"z": 1.2139594436,
				"element": "H" 
			},
			{
				"x": -0.0090815874,
				"y": 2.1111127615,
				"z": 3.2825081628,
				"element": "H" 
			},
			{
				"x": -1.0134178726,
				"y": 0.942263328,
				"z": 1.3406301515,
				"element": "H" 
			},
			{
				"x": 3.6041558679,
				"y": 1.8203160722,
				"z": 5.7767429142,
				"element": "H" 
			}
		],
		 "valence_orbital": [ 
			{
				"type": "occ",
				"energy": -0.27589,
				"method": "rhf"
			},
			{
				"type": "occ",
				"energy": -0.27138,
				"method": "rhf"
			},
			{
				"type": "occ",
				"energy": -0.26109,
				"method": "rhf"
			},
			{
				"type": "occ",
				"energy": -0.25341,
				"method": "rhf"
			},
			{
				"type": "occ",
				"energy": -0.21818,
				"method": "rhf"
			},
			{
				"type": "unocc",
				"energy": -0.05668,
				"method": "rhf"
			},
			{
				"type": "unocc",
				"energy": -0.01316,
				"method": "rhf"
			},
			{
				"type": "unocc",
				"energy": -0.00583,
				"method": "rhf"
			},
			{
				"type": "unocc",
				"energy": 0.00712,
				"method": "rhf"
			},
			{
				"type": "unocc",
				"energy": 0.06434,
				"method": "rhf"
			}
		],
		"cosmo_sigma_profile": { 
			"-0.025": 0.0,
			"-0.024": 0.0,
			"-0.023": 0.0,
			"-0.022": 0.0,
			"-0.021": 0.0,
			"-0.02": 0.0,
			"-0.019": 0.0,
			"-0.018": 0.987969040217,
			"-0.017": 0.736952642455,
			"-0.016": 0.530902512595,
			"-0.015": 0.845015293213,
			"-0.014": 0.736575924032,
			"-0.013": 0.952734689337,
			"-0.012": 0.707724761053,
			"-0.011": 0.558762135097,
			"-0.01": 0.680932909608,
			"-0.009": 0.490590948257,
			"-0.008": 0.957317306427,
			"-0.007": 5.82884803718,
			"-0.006": 18.3295683266,
			"-0.005": 21.7634683259,
			"-0.004": 19.9912519815,
			"-0.003": 18.7123876867,
			"-0.002": 15.956980763,
			"-0.001": 16.3819654289,
			"0.0": 19.9234210567,
			"0.001": 20.86126051,
			"0.002": 23.9874765384,
			"0.003": 21.6930537526,
			"0.004": 20.7181970269,
			"0.005": 13.1498036891,
			"0.006": 4.95092511289,
			"0.007": 3.72597489377,
			"0.008": 4.20076862791,
			"0.009": 5.38513493745,
			"0.01": 4.11435614672,
			"0.011": 3.52529804257,
			"0.012": 4.0577697852,
			"0.013": 0.0793399596502,
			"0.014": 0.0,
			"0.015": 0.0,
			"0.016": 0.0,
			"0.017": 0.0,
			"0.018": 0.0,
			"0.019": 0.0,
			"0.02": 0.0,
			"0.021": 0.0,
			"0.022": 0.0,
			"0.023": 0.0,
			"0.024": 0.0,
			"0.025": 0.0
		}
	}
}
