{
	 "smiles": "OC1=CC=CC=C1Br", 
	 "Tm": 278.45, 
	 "num_atms": 13, 
	 "gaussian": { 
		 "optdone": 1, 
		 "sigma_profile": "yes", 
		 "theory": "DFT", 
		 "functional": "B3LYP", 
		 "basiset": "6-31G**", 
		 "properties": { 
			 "R2extent": 1731.1737, 
			 "electric_dipole_moment_norm": 0.904243733736, 
			 "electric_quadrupole_moment_norm": 4.7652847554, 
			 "total_energy": -2878.27734441, 
			 "HOMO_LUMO_gap": 0.21446, 
			 "cosmo_polarized_energy": -5.12, 
			 "cosmo_cavitation_energy": 19.05, 
			 "cosmo_dispersion_energy": -14.99, 
			 "cosmo_repulsion_energy": 1.23, 
			 "cosmo_total_nonelectrostatic_energy": 5.29, 
			 "SMD_solvation_energy": 2.59 
		},
		"coords": [
			{
				"x": 1.3414025994,
				"y": 2.0578766273,
				"z": 1.2517345906,
				"element": "O" 
			},
			{
				"x": 0.9916312992,
				"y": 0.889781641,
				"z": 0.6611136857,
				"element": "C" 
			},
			{
				"x": 1.962855149,
				"y": 0.209466782,
				"z": -0.0858175219,
				"element": "C" 
			},
			{
				"x": 1.6556648235,
				"y": -0.9940861691,
				"z": -0.7126932284,
				"element": "C" 
			},
			{
				"x": 0.3751589528,
				"y": -1.544874314,
				"z": -0.6086834607,
				"element": "C" 
			},
			{
				"x": -0.6022184271,
				"y": -0.8802177687,
				"z": 0.1308668609,
				"element": "C" 
			},
			{
				"x": -0.2886381472,
				"y": 0.3236828582,
				"z": 0.7558070011,
				"element": "C" 
			},
			{
				"x": -1.620521223,
				"y": 1.254391953,
				"z": 1.7789387618,
				"element": "Br" 
			},
			{
				"x": 0.5708929925,
				"y": 2.4071444647,
				"z": 1.7283266655,
				"element": "H" 
			},
			{
				"x": 2.9511113679,
				"y": 0.6518715283,
				"z": -0.1555717116,
				"element": "H" 
			},
			{
				"x": 2.4224154325,
				"y": -1.505555401,
				"z": -1.2867719672,
				"element": "H" 
			},
			{
				"x": 0.1347461025,
				"y": -2.4834269639,
				"z": -1.0972436998,
				"element": "H" 
			},
			{
				"x": -1.6027009219,
				"y": -1.2872552378,
				"z": 0.226294024,
				"element": "H" 
			}
		],
		 "valence_orbital": [ 
			{
				"type": "occ",
				"energy": -0.34988,
				"method": "rhf"
			},
			{
				"type": "occ",
				"energy": -0.31994,
				"method": "rhf"
			},
			{
				"type": "occ",
				"energy": -0.30568,
				"method": "rhf"
			},
			{
				"type": "occ",
				"energy": -0.25265,
				"method": "rhf"
			},
			{
				"type": "occ",
				"energy": -0.22881,
				"method": "rhf"
			},
			{
				"type": "unocc",
				"energy": -0.01435,
				"method": "rhf"
			},
			{
				"type": "unocc",
				"energy": -0.00319,
				"method": "rhf"
			},
			{
				"type": "unocc",
				"energy": 0.00187,
				"method": "rhf"
			},
			{
				"type": "unocc",
				"energy": 0.09093,
				"method": "rhf"
			},
			{
				"type": "unocc",
				"energy": 0.1072,
				"method": "rhf"
			}
		],
		"cosmo_sigma_profile": { 
			"-0.025": 0.0,
			"-0.024": 0.0,
			"-0.023": 0.0,
			"-0.022": 0.0,
			"-0.021": 0.0,
			"-0.02": 0.0,
			"-0.019": 0.0,
			"-0.018": 0.0,
			"-0.017": 0.0,
			"-0.016": 0.0,
			"-0.015": 0.0266011990314,
			"-0.014": 0.367955460153,
			"-0.013": 0.862261644776,
			"-0.012": 0.552632251961,
			"-0.011": 0.795156999917,
			"-0.01": 0.599541942795,
			"-0.009": 0.854658851383,
			"-0.008": 1.27977772434,
			"-0.007": 3.48534318657,
			"-0.006": 8.41588925487,
			"-0.005": 10.6217653707,
			"-0.004": 10.8119087422,
			"-0.003": 8.81716570463,
			"-0.002": 8.39841117029,
			"-0.001": 9.3986127814,
			"0.0": 11.3371295775,
			"0.001": 11.719589208,
			"0.002": 17.1733801408,
			"0.003": 17.6782640676,
			"0.004": 16.9728274689,
			"0.005": 6.74018240835,
			"0.006": 1.98846975808,
			"0.007": 1.41641322945,
			"0.008": 1.49399351235,
			"0.009": 1.13584447973,
			"0.01": 2.12630501545,
			"0.011": 1.00908595593,
			"0.012": 0.0,
			"0.013": 0.0,
			"0.014": 0.0,
			"0.015": 0.0,
			"0.016": 0.0,
			"0.017": 0.0,
			"0.018": 0.0,
			"0.019": 0.0,
			"0.02": 0.0,
			"0.021": 0.0,
			"0.022": 0.0,
			"0.023": 0.0,
			"0.024": 0.0,
			"0.025": 0.0
		}
	}
}
