{
	 "smiles": "[O-][N+](=O)C1=CC=C2NC(=O)NC2=C1", 
	 "Tm": 589.15, 
	 "num_atms": 18, 
	 "gaussian": { 
		 "optdone": 1, 
		 "sigma_profile": "yes", 
		 "theory": "DFT", 
		 "functional": "B3LYP", 
		 "basiset": "6-31G**", 
		 "properties": { 
			 "R2extent": 2846.725, 
			 "electric_dipole_moment_norm": 3.16868304663, 
			 "electric_quadrupole_moment_norm": 24.5470536067, 
			 "total_energy": -659.61876522, 
			 "HOMO_LUMO_gap": 0.1506, 
			 "cosmo_polarized_energy": -19.15, 
			 "cosmo_cavitation_energy": 23.71, 
			 "cosmo_dispersion_energy": -17.98, 
			 "cosmo_repulsion_energy": 1.41, 
			 "cosmo_total_nonelectrostatic_energy": 7.14, 
			 "SMD_solvation_energy": 6.93 
		},
		"coords": [
			{
				"x": 2.2299930479,
				"y": 1.7346468728,
				"z": -1.9248263516,
				"element": "O" 
			},
			{
				"x": 2.0649417717,
				"y": 1.393901699,
				"z": -0.7515482342,
				"element": "N" 
			},
			{
				"x": 2.8091795078,
				"y": 1.7081359807,
				"z": 0.1784074026,
				"element": "O" 
			},
			{
				"x": 0.9024728732,
				"y": 0.5556365779,
				"z": -0.4462276932,
				"element": "C" 
			},
			{
				"x": 0.6930540821,
				"y": 0.1549830648,
				"z": 0.875204303,
				"element": "C" 
			},
			{
				"x": -0.4064922209,
				"y": -0.6437746056,
				"z": 1.1940848939,
				"element": "C" 
			},
			{
				"x": -1.2631702706,
				"y": -1.0136559551,
				"z": 0.1620061735,
				"element": "C" 
			},
			{
				"x": -2.4128978966,
				"y": -1.7789554945,
				"z": 0.1406897634,
				"element": "N" 
			},
			{
				"x": -2.9423180724,
				"y": -1.8778632199,
				"z": -1.1549489478,
				"element": "C" 
			},
			{
				"x": -3.9383172368,
				"y": -2.475249949,
				"z": -1.5063564169,
				"element": "O" 
			},
			{
				"x": -2.0586545004,
				"y": -1.1321776753,
				"z": -1.9373940127,
				"element": "N" 
			},
			{
				"x": -1.0319560936,
				"y": -0.595859911,
				"z": -1.1723517031,
				"element": "C" 
			},
			{
				"x": 0.0530307361,
				"y": 0.1950986321,
				"z": -1.5012988992,
				"element": "C" 
			},
			{
				"x": 1.3945216155,
				"y": 0.4747405482,
				"z": 1.6348843087,
				"element": "H" 
			},
			{
				"x": -0.5830014112,
				"y": -0.963240275,
				"z": 2.2154641264,
				"element": "H" 
			},
			{
				"x": -2.857064037,
				"y": -2.2307907979,
				"z": 0.9243257605,
				"element": "H" 
			},
			{
				"x": -2.193968918,
				"y": -1.0270448119,
				"z": -2.93019892,
				"element": "H" 
			},
			{
				"x": 0.2620470232,
				"y": 0.5333693197,
				"z": -2.5078155531,
				"element": "H" 
			}
		],
		 "valence_orbital": [ 
			{
				"type": "occ",
				"energy": -0.30703,
				"method": "rhf"
			},
			{
				"type": "occ",
				"energy": -0.29096,
				"method": "rhf"
			},
			{
				"type": "occ",
				"energy": -0.28893,
				"method": "rhf"
			},
			{
				"type": "occ",
				"energy": -0.26967,
				"method": "rhf"
			},
			{
				"type": "occ",
				"energy": -0.23733,
				"method": "rhf"
			},
			{
				"type": "unocc",
				"energy": -0.08673,
				"method": "rhf"
			},
			{
				"type": "unocc",
				"energy": -0.03098,
				"method": "rhf"
			},
			{
				"type": "unocc",
				"energy": 0.00948,
				"method": "rhf"
			},
			{
				"type": "unocc",
				"energy": 0.0462,
				"method": "rhf"
			},
			{
				"type": "unocc",
				"energy": 0.05801,
				"method": "rhf"
			}
		],
		"cosmo_sigma_profile": { 
			"-0.025": 0.0,
			"-0.024": 0.0,
			"-0.023": 0.0,
			"-0.022": 0.0,
			"-0.021": 0.0,
			"-0.02": 0.0,
			"-0.019": 0.0,
			"-0.018": 0.0153308264187,
			"-0.017": 2.06266064504,
			"-0.016": 2.61075426174,
			"-0.015": 2.59855817905,
			"-0.014": 2.15646304957,
			"-0.013": 2.66308956518,
			"-0.012": 1.82720668202,
			"-0.011": 2.79423110799,
			"-0.01": 2.153749528,
			"-0.009": 2.71051505848,
			"-0.008": 5.56984939803,
			"-0.007": 5.71744153863,
			"-0.006": 6.20924721298,
			"-0.005": 5.97557705089,
			"-0.004": 5.66122893336,
			"-0.003": 10.3315705517,
			"-0.002": 11.0128007215,
			"-0.001": 16.3613157993,
			"0.0": 19.0770463279,
			"0.001": 15.1385110936,
			"0.002": 8.72875167014,
			"0.003": 4.94285105027,
			"0.004": 3.1624315404,
			"0.005": 4.43902261188,
			"0.006": 3.8035745192,
			"0.007": 6.57410740629,
			"0.008": 10.8268377791,
			"0.009": 6.28274975721,
			"0.01": 5.24386645984,
			"0.011": 2.53121311521,
			"0.012": 4.41043655323,
			"0.013": 6.42664396776,
			"0.014": 0.737983676171,
			"0.015": 0.0,
			"0.016": 0.0,
			"0.017": 0.0,
			"0.018": 0.0,
			"0.019": 0.0,
			"0.02": 0.0,
			"0.021": 0.0,
			"0.022": 0.0,
			"0.023": 0.0,
			"0.024": 0.0,
			"0.025": 0.0
		}
	}
}
