{
	 "smiles": "CC(C)(C)C1=CC2=C(O)C(CC3=CC(=CC(CC4=C(O)C(CC5=C(O)C(C2)=CC(=C5)C(C)(C)C)=CC(=C4)C(C)(C)C)=C3O)C(C)(C)C)=C1", 
	 "Tm": 573.15, 
	 "num_atms": 104, 
	 "gaussian": { 
		 "optdone": 1, 
		 "sigma_profile": "yes", 
		 "theory": "DFT", 
		 "functional": "B3LYP", 
		 "basiset": "6-31G**", 
		 "properties": { 
			 "R2extent": 31477.8962, 
			 "electric_dipole_moment_norm": 3.87467018725, 
			 "electric_quadrupole_moment_norm": 16.5792188429, 
			 "total_energy": -2011.40517203, 
			 "HOMO_LUMO_gap": 0.18187, 
			 "cosmo_polarized_energy": -17.33, 
			 "cosmo_cavitation_energy": 92.28, 
			 "cosmo_dispersion_energy": -55.42, 
			 "cosmo_repulsion_energy": 4.06, 
			 "cosmo_total_nonelectrostatic_energy": 40.92, 
			 "SMD_solvation_energy": 14.43 
		},
		"coords": [
			{
				"x": 5.634005584,
				"y": -2.3793659985,
				"z": 3.1212330665,
				"element": "C" 
			},
			{
				"x": 4.4028022117,
				"y": -3.2624536874,
				"z": 2.842781979,
				"element": "C" 
			},
			{
				"x": 3.4769660994,
				"y": -3.2021832926,
				"z": 4.0812714568,
				"element": "C" 
			},
			{
				"x": 4.8894395046,
				"y": -4.7167595396,
				"z": 2.6368592018,
				"element": "C" 
			},
			{
				"x": 3.6216421286,
				"y": -2.8014716185,
				"z": 1.598372608,
				"element": "C" 
			},
			{
				"x": 2.4698146226,
				"y": -3.4930252512,
				"z": 1.1953114961,
				"element": "C" 
			},
			{
				"x": 1.7034232172,
				"y": -3.112363091,
				"z": 0.0912121982,
				"element": "C" 
			},
			{
				"x": 2.1142890908,
				"y": -1.9907076508,
				"z": -0.6503853619,
				"element": "C" 
			},
			{
				"x": 1.3751988285,
				"y": -1.6115110883,
				"z": -1.7639636442,
				"element": "O" 
			},
			{
				"x": 3.2943729468,
				"y": -1.3017296157,
				"z": -0.3231777119,
				"element": "C" 
			},
			{
				"x": 3.9042833498,
				"y": -0.2236714224,
				"z": -1.217592663,
				"element": "C" 
			},
			{
				"x": 3.034312396,
				"y": 0.9090811545,
				"z": -1.7377913857,
				"element": "C" 
			},
			{
				"x": 3.1776695199,
				"y": 1.3198637574,
				"z": -3.0718953958,
				"element": "C" 
			},
			{
				"x": 2.448937949,
				"y": 2.3741839856,
				"z": -3.6279220036,
				"element": "C" 
			},
			{
				"x": 1.5156699057,
				"y": 3.0045805448,
				"z": -2.787435503,
				"element": "C" 
			},
			{
				"x": 1.3190479399,
				"y": 2.6229654598,
				"z": -1.4575172067,
				"element": "C" 
			},
			{
				"x": 0.2390786697,
				"y": 3.2691576865,
				"z": -0.6135990903,
				"element": "C" 
			},
			{
				"x": -1.166654015,
				"y": 2.6477176462,
				"z": -0.6191604321,
				"element": "C" 
			},
			{
				"x": -1.5148610613,
				"y": 1.3899170844,
				"z": -1.1439856324,
				"element": "C" 
			},
			{
				"x": -0.6148313712,
				"y": 0.592103032,
				"z": -1.8333279237,
				"element": "O" 
			},
			{
				"x": -2.8180027408,
				"y": 0.8813649391,
				"z": -0.9931818578,
				"element": "C" 
			},
			{
				"x": -3.1589090006,
				"y": -0.5282505196,
				"z": -1.4514593805,
				"element": "C" 
			},
			{
				"x": -2.5828053206,
				"y": -1.5574122514,
				"z": -0.486964573,
				"element": "C" 
			},
			{
				"x": -1.5239101316,
				"y": -2.3878849185,
				"z": -0.8810511373,
				"element": "C" 
			},
			{
				"x": -1.1986748671,
				"y": -2.4429615073,
				"z": -2.2115257674,
				"element": "O" 
			},
			{
				"x": -0.8308949769,
				"y": -3.14526004,
				"z": 0.0839768708,
				"element": "C" 
			},
			{
				"x": 0.4450226481,
				"y": -3.8922394119,
				"z": -0.2716277342,
				"element": "C" 
			},
			{
				"x": -1.2923297009,
				"y": -3.1449993014,
				"z": 1.40117591,
				"element": "C" 
			},
			{
				"x": -2.4120676344,
				"y": -2.4061302309,
				"z": 1.8097346231,
				"element": "C" 
			},
			{
				"x": -3.021282936,
				"y": -1.6016326351,
				"z": 0.8418354836,
				"element": "C" 
			},
			{
				"x": -2.893432575,
				"y": -2.4769876414,
				"z": 3.2707640061,
				"element": "C" 
			},
			{
				"x": -1.7660428063,
				"y": -1.994397113,
				"z": 4.2143711109,
				"element": "C" 
			},
			{
				"x": -3.2626089561,
				"y": -3.9378555868,
				"z": 3.6221044402,
				"element": "C" 
			},
			{
				"x": -4.1336202723,
				"y": -1.5976714855,
				"z": 3.520007828,
				"element": "C" 
			},
			{
				"x": -3.7796248124,
				"y": 1.6731025848,
				"z": -0.360461946,
				"element": "C" 
			},
			{
				"x": -3.4921187296,
				"y": 2.9489719735,
				"z": 0.1409161112,
				"element": "C" 
			},
			{
				"x": -2.174917599,
				"y": 3.3969112053,
				"z": 0.0013844471,
				"element": "C" 
			},
			{
				"x": -4.5447374053,
				"y": 3.8412080447,
				"z": 0.8253100972,
				"element": "C" 
			},
			{
				"x": -5.9311695176,
				"y": 3.1715374141,
				"z": 0.8800146864,
				"element": "C" 
			},
			{
				"x": -4.1015435559,
				"y": 4.1462044968,
				"z": 2.2760112005,
				"element": "C" 
			},
			{
				"x": -4.6841062652,
				"y": 5.169542067,
				"z": 0.0441736591,
				"element": "C" 
			},
			{
				"x": 2.1187430072,
				"y": 1.590160397,
				"z": -0.9225230901,
				"element": "C" 
			},
			{
				"x": 1.909938622,
				"y": 1.2724644046,
				"z": 0.3893735943,
				"element": "O" 
			},
			{
				"x": 2.6165977575,
				"y": 2.8405926249,
				"z": -5.0853681427,
				"element": "C" 
			},
			{
				"x": 3.6800180931,
				"y": 2.0213230595,
				"z": -5.8408646921,
				"element": "C" 
			},
			{
				"x": 1.2716075901,
				"y": 2.6923354301,
				"z": -5.8361403814,
				"element": "C" 
			},
			{
				"x": 3.0502329055,
				"y": 4.3259038863,
				"z": -5.1018590169,
				"element": "C" 
			},
			{
				"x": 4.0117397314,
				"y": -1.7114937778,
				"z": 0.8148173653,
				"element": "C" 
			},
			{
				"x": 6.3518343826,
				"y": -2.4062988537,
				"z": 2.2946618069,
				"element": "H" 
			},
			{
				"x": 6.1506956235,
				"y": -2.7401552201,
				"z": 4.0163293637,
				"element": "H" 
			},
			{
				"x": 5.355695603,
				"y": -1.3355403607,
				"z": 3.3006649214,
				"element": "H" 
			},
			{
				"x": 2.5988209756,
				"y": -3.8441888759,
				"z": 3.9649375835,
				"element": "H" 
			},
			{
				"x": 3.1226243575,
				"y": -2.1811570406,
				"z": 4.2568035231,
				"element": "H" 
			},
			{
				"x": 4.0153726434,
				"y": -3.5336965937,
				"z": 4.9762657487,
				"element": "H" 
			},
			{
				"x": 5.4425321164,
				"y": -5.0615696198,
				"z": 3.5177644699,
				"element": "H" 
			},
			{
				"x": 4.0559349077,
				"y": -5.4070996022,
				"z": 2.4772016042,
				"element": "H" 
			},
			{
				"x": 5.5534126656,
				"y": -4.788693899,
				"z": 1.7691599602,
				"element": "H" 
			},
			{
				"x": 2.1412257063,
				"y": -4.3605246273,
				"z": 1.7610565682,
				"element": "H" 
			},
			{
				"x": 0.8364870056,
				"y": -0.8202236921,
				"z": -1.5639997375,
				"element": "H" 
			},
			{
				"x": 4.75542096,
				"y": 0.2053784411,
				"z": -0.6717303495,
				"element": "H" 
			},
			{
				"x": 4.3375850596,
				"y": -0.7260402644,
				"z": -2.0908053412,
				"element": "H" 
			},
			{
				"x": 3.8903827765,
				"y": 0.776255158,
				"z": -3.6824877598,
				"element": "H" 
			},
			{
				"x": 0.8982442744,
				"y": 3.8113045568,
				"z": -3.1740749484,
				"element": "H" 
			},
			{
				"x": 0.5795376096,
				"y": 3.2917895956,
				"z": 0.4270990073,
				"element": "H" 
			},
			{
				"x": 0.1393905728,
				"y": 4.3145408252,
				"z": -0.9283200533,
				"element": "H" 
			},
			{
				"x": 0.0559459451,
				"y": 1.1758398555,
				"z": -2.221602643,
				"element": "H" 
			},
			{
				"x": -4.2491306797,
				"y": -0.6256108553,
				"z": -1.504894954,
				"element": "H" 
			},
			{
				"x": -2.7555492744,
				"y": -0.7147228393,
				"z": -2.4478694864,
				"element": "H" 
			},
			{
				"x": -0.2292511208,
				"y": -2.4105415724,
				"z": -2.2955692593,
				"element": "H" 
			},
			{
				"x": 0.470084716,
				"y": -4.8442990618,
				"z": 0.2680332428,
				"element": "H" 
			},
			{
				"x": 0.4504341698,
				"y": -4.1402839529,
				"z": -1.3374963024,
				"element": "H" 
			},
			{
				"x": -0.7504192484,
				"y": -3.7461632862,
				"z": 2.1275597572,
				"element": "H" 
			},
			{
				"x": -3.8457404035,
				"y": -0.9532109114,
				"z": 1.1177279705,
				"element": "H" 
			},
			{
				"x": -1.4892075231,
				"y": -0.9584861014,
				"z": 3.9926828948,
				"element": "H" 
			},
			{
				"x": -0.8646730885,
				"y": -2.6072337935,
				"z": 4.1177014071,
				"element": "H" 
			},
			{
				"x": -2.091966121,
				"y": -2.0442732395,
				"z": 5.2600274606,
				"element": "H" 
			},
			{
				"x": -3.6009510845,
				"y": -4.0099670893,
				"z": 4.6624760971,
				"element": "H" 
			},
			{
				"x": -4.0679432983,
				"y": -4.3031683106,
				"z": 2.9763169943,
				"element": "H" 
			},
			{
				"x": -2.4091176804,
				"y": -4.6120443207,
				"z": 3.5020729428,
				"element": "H" 
			},
			{
				"x": -4.4480947821,
				"y": -1.6890886037,
				"z": 4.5650761426,
				"element": "H" 
			},
			{
				"x": -3.9274966923,
				"y": -0.5394514834,
				"z": 3.3286303719,
				"element": "H" 
			},
			{
				"x": -4.9783476196,
				"y": -1.9001100331,
				"z": 2.8922887485,
				"element": "H" 
			},
			{
				"x": -4.7815675673,
				"y": 1.2669915648,
				"z": -0.2735460379,
				"element": "H" 
			},
			{
				"x": -1.8984144203,
				"y": 4.3727093029,
				"z": 0.394413293,
				"element": "H" 
			},
			{
				"x": -6.3174857951,
				"y": 2.9521263576,
				"z": -0.1207841327,
				"element": "H" 
			},
			{
				"x": -6.6456710529,
				"y": 3.8409948998,
				"z": 1.3703078958,
				"element": "H" 
			},
			{
				"x": -5.9102210052,
				"y": 2.2371776461,
				"z": 1.4505961926,
				"element": "H" 
			},
			{
				"x": -4.0013230412,
				"y": 3.2228081055,
				"z": 2.8559677845,
				"element": "H" 
			},
			{
				"x": -3.1383006701,
				"y": 4.6641805636,
				"z": 2.3067410081,
				"element": "H" 
			},
			{
				"x": -4.8390583544,
				"y": 4.7843623394,
				"z": 2.7765508895,
				"element": "H" 
			},
			{
				"x": -5.0063392558,
				"y": 4.9849373616,
				"z": -0.9859627659,
				"element": "H" 
			},
			{
				"x": -3.7382157218,
				"y": 5.7180724422,
				"z": 0.0039445323,
				"element": "H" 
			},
			{
				"x": -5.4263746543,
				"y": 5.8198518098,
				"z": 0.5215159765,
				"element": "H" 
			},
			{
				"x": 2.3847555701,
				"y": 0.4570072664,
				"z": 0.6142350634,
				"element": "H" 
			},
			{
				"x": 3.4149464097,
				"y": 0.9602860053,
				"z": -5.8953366592,
				"element": "H" 
			},
			{
				"x": 3.7689216224,
				"y": 2.390988627,
				"z": -6.8674680281,
				"element": "H" 
			},
			{
				"x": 4.6670200102,
				"y": 2.1052274709,
				"z": -5.3739287594,
				"element": "H" 
			},
			{
				"x": 0.4787642167,
				"y": 3.2894602035,
				"z": -5.3756560381,
				"element": "H" 
			},
			{
				"x": 1.3754784274,
				"y": 3.0251018764,
				"z": -6.8750881294,
				"element": "H" 
			},
			{
				"x": 0.9411162434,
				"y": 1.6484650239,
				"z": -5.8458253719,
				"element": "H" 
			},
			{
				"x": 2.3139935116,
				"y": 4.9701598885,
				"z": -4.6117789326,
				"element": "H" 
			},
			{
				"x": 3.1666885508,
				"y": 4.6786334788,
				"z": -6.1328952535,
				"element": "H" 
			},
			{
				"x": 4.0069283214,
				"y": 4.4604899613,
				"z": -4.5864349881,
				"element": "H" 
			},
			{
				"x": 4.9152771323,
				"y": -1.1636707254,
				"z": 1.060312942,
				"element": "H" 
			}
		],
		 "valence_orbital": [ 
			{
				"type": "occ",
				"energy": -0.22961,
				"method": "rhf"
			},
			{
				"type": "occ",
				"energy": -0.22031,
				"method": "rhf"
			},
			{
				"type": "occ",
				"energy": -0.21767,
				"method": "rhf"
			},
			{
				"type": "occ",
				"energy": -0.20533,
				"method": "rhf"
			},
			{
				"type": "occ",
				"energy": -0.19945,
				"method": "rhf"
			},
			{
				"type": "unocc",
				"energy": -0.01758,
				"method": "rhf"
			},
			{
				"type": "unocc",
				"energy": -0.01193,
				"method": "rhf"
			},
			{
				"type": "unocc",
				"energy": -0.00593,
				"method": "rhf"
			},
			{
				"type": "unocc",
				"energy": -0.00141,
				"method": "rhf"
			},
			{
				"type": "unocc",
				"energy": 0.00559,
				"method": "rhf"
			}
		],
		"cosmo_sigma_profile": { 
			"-0.025": 0.0,
			"-0.024": 0.0,
			"-0.023": 0.0,
			"-0.022": 0.0,
			"-0.021": 0.0,
			"-0.02": 0.0,
			"-0.019": 0.0,
			"-0.018": 0.0,
			"-0.017": 0.0,
			"-0.016": 0.0,
			"-0.015": 0.0,
			"-0.014": 0.0,
			"-0.013": 0.0,
			"-0.012": 0.0,
			"-0.011": 0.0114449340148,
			"-0.01": 0.101468673759,
			"-0.009": 0.564338110683,
			"-0.008": 1.73316310724,
			"-0.007": 2.40049925024,
			"-0.006": 10.0384048616,
			"-0.005": 26.6765037789,
			"-0.004": 37.3411209385,
			"-0.003": 70.3794966138,
			"-0.002": 111.055354456,
			"-0.001": 87.1073276604,
			"0.0": 81.9110127587,
			"0.001": 101.406131205,
			"0.002": 60.8650484141,
			"0.003": 25.6597912074,
			"0.004": 23.0823848852,
			"0.005": 26.9530931767,
			"0.006": 21.1537820475,
			"0.007": 12.3239609771,
			"0.008": 4.42939644418,
			"0.009": 4.23424856722,
			"0.01": 3.53176570014,
			"0.011": 2.13129904059,
			"0.012": 1.30450254167,
			"0.013": 0.849556462015,
			"0.014": 0.0498658400202,
			"0.015": 0.0,
			"0.016": 0.0,
			"0.017": 0.0,
			"0.018": 0.0,
			"0.019": 0.0,
			"0.02": 0.0,
			"0.021": 0.0,
			"0.022": 0.0,
			"0.023": 0.0,
			"0.024": 0.0,
			"0.025": 0.0
		}
	}
}
