{
	 "smiles": "CCCC(C)I", 
	 "Tm": 223.15, 
	 "num_atms": 17, 
	 "gaussian": { 
		 "optdone": 1, 
		 "sigma_profile": "no", 
		 "theory": "DFT", 
		 "functional": "B3LYP", 
		 "basiset": "6-31G**", 
		 "properties": { 
			 "R2extent": 956.5181, 
			 "electric_dipole_moment_norm": 2.56882054453, 
			 "electric_quadrupole_moment_norm": 6.24550630614, 
			 "total_energy": -208.57049687, 
			 "HOMO_LUMO_gap": 0.21109, 
			 "cosmo_polarized_energy": -88540.27, 
			 "cosmo_cavitation_energy": 21.71, 
			 "cosmo_dispersion_energy": -17.11, 
			 "cosmo_repulsion_energy": 1.43, 
			 "cosmo_total_nonelectrostatic_energy": 6.03, 
			 "SMD_solvation_energy": 2.76 
		},
		"coords": [
			{
				"x": -1.6497264643,
				"y": -1.5057459911,
				"z": -0.8838718819,
				"element": "C" 
			},
			{
				"x": -0.9053865776,
				"y": -0.2322762788,
				"z": -0.4678233707,
				"element": "C" 
			},
			{
				"x": 0.6133317321,
				"y": -0.3723764637,
				"z": -0.6263295291,
				"element": "C" 
			},
			{
				"x": 1.4687239326,
				"y": 0.8400521169,
				"z": -0.2528590222,
				"element": "C" 
			},
			{
				"x": 1.2840096361,
				"y": 1.3594164295,
				"z": 1.1670473502,
				"element": "C" 
			},
			{
				"x": 1.1516260941,
				"y": 2.5117516589,
				"z": -1.6960314591,
				"element": "I" 
			},
			{
				"x": -1.3394349482,
				"y": -2.366658624,
				"z": -0.2804412454,
				"element": "H" 
			},
			{
				"x": -2.7311463487,
				"y": -1.3884995997,
				"z": -0.7630494875,
				"element": "H" 
			},
			{
				"x": -1.4574070989,
				"y": -1.7516045935,
				"z": -1.9342894811,
				"element": "H" 
			},
			{
				"x": -1.1517068667,
				"y": 0.0073377082,
				"z": 0.5737239122,
				"element": "H" 
			},
			{
				"x": -1.2551156365,
				"y": 0.6125983284,
				"z": -1.0724602986,
				"element": "H" 
			},
			{
				"x": 0.9639148856,
				"y": -1.1930324482,
				"z": 0.0206902052,
				"element": "H" 
			},
			{
				"x": 0.8493909694,
				"y": -0.6731707742,
				"z": -1.6533968848,
				"element": "H" 
			},
			{
				"x": 2.5189709459,
				"y": 0.6129929653,
				"z": -0.4397637101,
				"element": "H" 
			},
			{
				"x": 1.9866530596,
				"y": 2.1647776663,
				"z": 1.3917029833,
				"element": "H" 
			},
			{
				"x": 0.2719004048,
				"y": 1.7314773347,
				"z": 1.3413077909,
				"element": "H" 
			},
			{
				"x": 1.4701022808,
				"y": 0.5365605651,
				"z": 1.8707441289,
				"element": "H" 
			}
		],
		 "valence_orbital": [ 
			{
				"type": "occ",
				"energy": -0.34116,
				"method": "rhf"
			},
			{
				"type": "occ",
				"energy": -0.33239,
				"method": "rhf"
			},
			{
				"type": "occ",
				"energy": -0.31085,
				"method": "rhf"
			},
			{
				"type": "occ",
				"energy": -0.25236,
				"method": "rhf"
			},
			{
				"type": "occ",
				"energy": -0.251,
				"method": "rhf"
			},
			{
				"type": "unocc",
				"energy": -0.03991,
				"method": "rhf"
			},
			{
				"type": "unocc",
				"energy": 0.04001,
				"method": "rhf"
			},
			{
				"type": "unocc",
				"energy": 0.04512,
				"method": "rhf"
			},
			{
				"type": "unocc",
				"energy": 0.0555,
				"method": "rhf"
			},
			{
				"type": "unocc",
				"energy": 0.09304,
				"method": "rhf"
			}
		],
		"cosmo_sigma_profile": { 
			"0.0": 0.0,
			"0.0": 0.0,
			"0.0": 0.0,
			"0.0": 0.0,
			"0.0": 0.0,
			"0.0": 0.0,
			"0.0": 0.0,
			"0.0": 0.0,
			"0.0": 0.0,
			"0.0": 0.0,
			"0.0": 0.0,
			"0.0": 0.0,
			"0.0": 0.0,
			"0.0": 0.0,
			"0.0": 0.0,
			"0.0": 0.0,
			"0.0": 0.0,
			"0.0": 0.0,
			"0.0": 0.0,
			"0.0": 0.0,
			"0.0": 0.0,
			"0.0": 0.0,
			"0.0": 0.0,
			"0.0": 0.0,
			"0.0": 0.0,
			"0.0": 0.0,
			"0.0": 0.0,
			"0.0": 0.0,
			"0.0": 0.0,
			"0.0": 0.0,
			"0.0": 0.0,
			"0.0": 0.0,
			"0.0": 0.0,
			"0.0": 0.0,
			"0.0": 0.0,
			"0.0": 0.0,
			"0.0": 0.0,
			"0.0": 0.0,
			"0.0": 0.0,
			"0.0": 0.0,
			"0.0": 0.0,
			"0.0": 0.0,
			"0.0": 0.0,
			"0.0": 0.0,
			"0.0": 0.0,
			"0.0": 0.0,
			"0.0": 0.0,
			"0.0": 0.0,
			"0.0": 0.0,
			"0.0": 0.0,
			"0.0": 0.0
		}
	}
}
