{
	 "smiles": "CC(C)(C)OOC(C)(C)C1=CC=CC=C1", 
	 "Tm": 279.65, 
	 "num_atms": 35, 
	 "gaussian": { 
		 "optdone": 1, 
		 "sigma_profile": "yes", 
		 "theory": "DFT", 
		 "functional": "B3LYP", 
		 "basiset": "6-31G**", 
		 "properties": { 
			 "R2extent": 3829.4323, 
			 "electric_dipole_moment_norm": 0.831676078771, 
			 "electric_quadrupole_moment_norm": 5.51934370827, 
			 "total_energy": -657.816675484, 
			 "HOMO_LUMO_gap": 0.23418, 
			 "cosmo_polarized_energy": -6.52, 
			 "cosmo_cavitation_energy": 36.15, 
			 "cosmo_dispersion_energy": -23.9, 
			 "cosmo_repulsion_energy": 1.88, 
			 "cosmo_total_nonelectrostatic_energy": 14.13, 
			 "SMD_solvation_energy": 6.28 
		},
		"coords": [
			{
				"x": 1.525668983,
				"y": 0.5099797911,
				"z": 3.2844621577,
				"element": "C" 
			},
			{
				"x": 1.6645068432,
				"y": -0.5408729221,
				"z": 2.1748811359,
				"element": "C" 
			},
			{
				"x": 3.0586643712,
				"y": -0.5077844719,
				"z": 1.5368868857,
				"element": "C" 
			},
			{
				"x": 1.3298746412,
				"y": -1.9430486513,
				"z": 2.7005776927,
				"element": "C" 
			},
			{
				"x": 0.6392343019,
				"y": -0.3516607194,
				"z": 1.177155091,
				"element": "O" 
			},
			{
				"x": 0.8194194588,
				"y": 0.9916375117,
				"z": 0.5975623815,
				"element": "O" 
			},
			{
				"x": 0.2160959981,
				"y": 0.9838742392,
				"z": -0.7083235887,
				"element": "C" 
			},
			{
				"x": 0.5220928881,
				"y": 2.4119174943,
				"z": -1.1995518558,
				"element": "C" 
			},
			{
				"x": 0.9076998942,
				"y": -0.0547921764,
				"z": -1.6022429305,
				"element": "C" 
			},
			{
				"x": -1.3027652202,
				"y": 0.7903142987,
				"z": -0.6022003485,
				"element": "C" 
			},
			{
				"x": -2.0624211586,
				"y": 0.3124689872,
				"z": -1.6778802945,
				"element": "C" 
			},
			{
				"x": -3.4518837412,
				"y": 0.2059866836,
				"z": -1.5826032263,
				"element": "C" 
			},
			{
				"x": -4.1058085854,
				"y": 0.5746191232,
				"z": -0.4073570695,
				"element": "C" 
			},
			{
				"x": -3.3578749904,
				"y": 1.0523855302,
				"z": 0.6706765297,
				"element": "C" 
			},
			{
				"x": -1.9713274418,
				"y": 1.1608334018,
				"z": 0.5725895782,
				"element": "C" 
			},
			{
				"x": 2.2467608106,
				"y": 0.3181267394,
				"z": 4.0857587411,
				"element": "H" 
			},
			{
				"x": 0.5183864942,
				"y": 0.4797373555,
				"z": 3.7106516948,
				"element": "H" 
			},
			{
				"x": 1.7052217121,
				"y": 1.5135911852,
				"z": 2.8926568234,
				"element": "H" 
			},
			{
				"x": 3.8276913571,
				"y": -0.7158229803,
				"z": 2.2879270375,
				"element": "H" 
			},
			{
				"x": 3.2585547627,
				"y": 0.473140024,
				"z": 1.1006729445,
				"element": "H" 
			},
			{
				"x": 3.1354420446,
				"y": -1.2616738506,
				"z": 0.7475266261,
				"element": "H" 
			},
			{
				"x": 2.0356640131,
				"y": -2.2220734286,
				"z": 3.4886318901,
				"element": "H" 
			},
			{
				"x": 1.3954899017,
				"y": -2.6834195806,
				"z": 1.8981074978,
				"element": "H" 
			},
			{
				"x": 0.3178177019,
				"y": -1.9686369752,
				"z": 3.1139950179,
				"element": "H" 
			},
			{
				"x": 0.0936127154,
				"y": 3.1506396829,
				"z": -0.5174029749,
				"element": "H" 
			},
			{
				"x": 0.0825448021,
				"y": 2.5624012464,
				"z": -2.1891315159,
				"element": "H" 
			},
			{
				"x": 1.6026483676,
				"y": 2.5725086936,
				"z": -1.263285558,
				"element": "H" 
			},
			{
				"x": 1.9895029482,
				"y": 0.0973995609,
				"z": -1.5548038664,
				"element": "H" 
			},
			{
				"x": 0.599387741,
				"y": 0.0523595936,
				"z": -2.6455717387,
				"element": "H" 
			},
			{
				"x": 0.6814651955,
				"y": -1.0690615512,
				"z": -1.2706361147,
				"element": "H" 
			},
			{
				"x": -1.5768503829,
				"y": 0.0178592319,
				"z": -2.602846806,
				"element": "H" 
			},
			{
				"x": -4.0206296038,
				"y": -0.1687064991,
				"z": -2.4292933515,
				"element": "H" 
			},
			{
				"x": -5.1860882084,
				"y": 0.4888997099,
				"z": -0.3310363817,
				"element": "H" 
			},
			{
				"x": -3.8552511907,
				"y": 1.3390815332,
				"z": 1.5934034536,
				"element": "H" 
			},
			{
				"x": -1.3901474241,
				"y": 1.521092189,
				"z": 1.4137444423,
				"element": "H" 
			}
		],
		 "valence_orbital": [ 
			{
				"type": "occ",
				"energy": -0.31029,
				"method": "rhf"
			},
			{
				"type": "occ",
				"energy": -0.29674,
				"method": "rhf"
			},
			{
				"type": "occ",
				"energy": -0.24124,
				"method": "rhf"
			},
			{
				"type": "occ",
				"energy": -0.23482,
				"method": "rhf"
			},
			{
				"type": "occ",
				"energy": -0.22908,
				"method": "rhf"
			},
			{
				"type": "unocc",
				"energy": 0.0051,
				"method": "rhf"
			},
			{
				"type": "unocc",
				"energy": 0.00761,
				"method": "rhf"
			},
			{
				"type": "unocc",
				"energy": 0.02861,
				"method": "rhf"
			},
			{
				"type": "unocc",
				"energy": 0.08006,
				"method": "rhf"
			},
			{
				"type": "unocc",
				"energy": 0.10272,
				"method": "rhf"
			}
		],
		"cosmo_sigma_profile": { 
			"-0.025": 0.0,
			"-0.024": 0.0,
			"-0.023": 0.0,
			"-0.022": 0.0,
			"-0.021": 0.0,
			"-0.02": 0.0,
			"-0.019": 0.0,
			"-0.018": 0.0,
			"-0.017": 0.0,
			"-0.016": 0.0,
			"-0.015": 0.0,
			"-0.014": 0.0,
			"-0.013": 0.0,
			"-0.012": 0.0,
			"-0.011": 0.0,
			"-0.01": 0.0,
			"-0.009": 0.0,
			"-0.008": 0.0,
			"-0.007": 0.0,
			"-0.006": 2.72957373461,
			"-0.005": 10.3222734353,
			"-0.004": 21.0823674522,
			"-0.003": 35.6969929499,
			"-0.002": 32.2805309202,
			"-0.001": 34.1906933147,
			"0.0": 41.15885926,
			"0.001": 32.6262223963,
			"0.002": 14.4296987241,
			"0.003": 10.5332691568,
			"0.004": 11.8534503827,
			"0.005": 11.6976249768,
			"0.006": 11.552823798,
			"0.007": 6.46823207219,
			"0.008": 1.67692435514,
			"0.009": 1.49693506456,
			"0.01": 1.48177252764,
			"0.011": 0.55372633983,
			"0.012": 0.0,
			"0.013": 0.0,
			"0.014": 0.0,
			"0.015": 0.0,
			"0.016": 0.0,
			"0.017": 0.0,
			"0.018": 0.0,
			"0.019": 0.0,
			"0.02": 0.0,
			"0.021": 0.0,
			"0.022": 0.0,
			"0.023": 0.0,
			"0.024": 0.0,
			"0.025": 0.0
		}
	}
}
