{
	 "smiles": "O=C1CC(CN1)C1CCCCN1", 
	 "Tm": 336.15, 
	 "num_atms": 28, 
	 "gaussian": { 
		 "optdone": 1, 
		 "sigma_profile": "yes", 
		 "theory": "DFT", 
		 "functional": "B3LYP", 
		 "basiset": "6-31G**", 
		 "properties": { 
			 "R2extent": 3017.7428, 
			 "electric_dipole_moment_norm": 3.81147327027, 
			 "electric_quadrupole_moment_norm": 18.0028850899, 
			 "total_energy": -537.339067531, 
			 "HOMO_LUMO_gap": 0.25337, 
			 "cosmo_polarized_energy": -13.47, 
			 "cosmo_cavitation_energy": 26.96, 
			 "cosmo_dispersion_energy": -20.34, 
			 "cosmo_repulsion_energy": 1.63, 
			 "cosmo_total_nonelectrostatic_energy": 8.25, 
			 "SMD_solvation_energy": 1.98 
		},
		"coords": [
			{
				"x": -3.9090132677,
				"y": -1.9188851175,
				"z": 0.5399660926,
				"element": "O" 
			},
			{
				"x": -3.1631164502,
				"y": -1.8728573494,
				"z": -0.4235429429,
				"element": "C" 
			},
			{
				"x": -2.8590324576,
				"y": -0.6648060081,
				"z": -1.3112161781,
				"element": "C" 
			},
			{
				"x": -1.6149999022,
				"y": -1.0559580741,
				"z": -2.1433495781,
				"element": "C" 
			},
			{
				"x": -1.6849253134,
				"y": -2.6139161327,
				"z": -2.1396538525,
				"element": "C" 
			},
			{
				"x": -2.4415778638,
				"y": -2.9204515359,
				"z": -0.9361174971,
				"element": "N" 
			},
			{
				"x": -0.222167665,
				"y": -0.5458892433,
				"z": -1.67668489,
				"element": "C" 
			},
			{
				"x": 0.2101577711,
				"y": -0.9180651334,
				"z": -0.2328729083,
				"element": "C" 
			},
			{
				"x": -0.263419906,
				"y": 0.0727402289,
				"z": 0.845396996,
				"element": "C" 
			},
			{
				"x": 0.0989929289,
				"y": 1.5121138249,
				"z": 0.4536680014,
				"element": "C" 
			},
			{
				"x": -0.4429496876,
				"y": 1.8432281161,
				"z": -0.9453278912,
				"element": "C" 
			},
			{
				"x": -0.0476616271,
				"y": 0.8889608147,
				"z": -1.9923786394,
				"element": "N" 
			},
			{
				"x": -2.7629602571,
				"y": 0.236274077,
				"z": -0.7094315932,
				"element": "H" 
			},
			{
				"x": -3.7287632509,
				"y": -0.5167527556,
				"z": -1.9636078988,
				"element": "H" 
			},
			{
				"x": -1.7169495371,
				"y": -0.6865772958,
				"z": -3.1670621639,
				"element": "H" 
			},
			{
				"x": -0.6883677101,
				"y": -3.0698532875,
				"z": -2.1068076752,
				"element": "H" 
			},
			{
				"x": -2.191000792,
				"y": -2.9897389533,
				"z": -3.0406623346,
				"element": "H" 
			},
			{
				"x": -2.5887694396,
				"y": -3.8563829294,
				"z": -0.5870177265,
				"element": "H" 
			},
			{
				"x": 0.4729999378,
				"y": -1.0623852558,
				"z": -2.3522547634,
				"element": "H" 
			},
			{
				"x": 1.3091234129,
				"y": -0.9303219713,
				"z": -0.2167823762,
				"element": "H" 
			},
			{
				"x": -0.1139420664,
				"y": -1.9345702224,
				"z": 0.0155260754,
				"element": "H" 
			},
			{
				"x": 0.1984891249,
				"y": -0.1892282797,
				"z": 1.8045349697,
				"element": "H" 
			},
			{
				"x": -1.3453683046,
				"y": -0.0107231769,
				"z": 1.0006015602,
				"element": "H" 
			},
			{
				"x": 1.1931161381,
				"y": 1.6252112168,
				"z": 0.4515237957,
				"element": "H" 
			},
			{
				"x": -0.2916715298,
				"y": 2.2268575677,
				"z": 1.1886037909,
				"element": "H" 
			},
			{
				"x": -0.1052077902,
				"y": 2.8354752735,
				"z": -1.2653109419,
				"element": "H" 
			},
			{
				"x": -1.537539304,
				"y": 1.8965312855,
				"z": -0.9098283463,
				"element": "H" 
			},
			{
				"x": 0.9356248084,
				"y": 1.0441703169,
				"z": -2.1994110845,
				"element": "H" 
			}
		],
		 "valence_orbital": [ 
			{
				"type": "occ",
				"energy": -0.31237,
				"method": "rhf"
			},
			{
				"type": "occ",
				"energy": -0.30439,
				"method": "rhf"
			},
			{
				"type": "occ",
				"energy": -0.24667,
				"method": "rhf"
			},
			{
				"type": "occ",
				"energy": -0.23596,
				"method": "rhf"
			},
			{
				"type": "occ",
				"energy": -0.21659,
				"method": "rhf"
			},
			{
				"type": "unocc",
				"energy": 0.03678,
				"method": "rhf"
			},
			{
				"type": "unocc",
				"energy": 0.06224,
				"method": "rhf"
			},
			{
				"type": "unocc",
				"energy": 0.08549,
				"method": "rhf"
			},
			{
				"type": "unocc",
				"energy": 0.10184,
				"method": "rhf"
			},
			{
				"type": "unocc",
				"energy": 0.11042,
				"method": "rhf"
			}
		],
		"cosmo_sigma_profile": { 
			"-0.025": 0.0,
			"-0.024": 0.0,
			"-0.023": 0.0,
			"-0.022": 0.0,
			"-0.021": 0.0,
			"-0.02": 0.0,
			"-0.019": 0.0,
			"-0.018": 0.0,
			"-0.017": 0.0,
			"-0.016": 0.0,
			"-0.015": 0.000631857306518,
			"-0.014": 0.736255731935,
			"-0.013": 1.24380508758,
			"-0.012": 1.12964718691,
			"-0.011": 1.04737361966,
			"-0.01": 1.09085125083,
			"-0.009": 1.89336763917,
			"-0.008": 1.91099079073,
			"-0.007": 2.7137636818,
			"-0.006": 3.030196291,
			"-0.005": 9.90576441379,
			"-0.004": 18.6632928568,
			"-0.003": 26.089060413,
			"-0.002": 28.2719623485,
			"-0.001": 24.1709112451,
			"0.0": 22.32103032,
			"0.001": 19.4085983538,
			"0.002": 6.06206208608,
			"0.003": 3.85129920664,
			"0.004": 2.95347641252,
			"0.005": 2.10079197122,
			"0.006": 2.05041936461,
			"0.007": 1.2129565492,
			"0.008": 2.2215555447,
			"0.009": 2.85077830871,
			"0.01": 1.25162941273,
			"0.011": 1.94219908497,
			"0.012": 2.4625455498,
			"0.013": 3.0908211425,
			"0.014": 6.67838234165,
			"0.015": 3.88934048075,
			"0.016": 0.907730082831,
			"0.017": 0.704157435706,
			"0.018": 0.1493011936,
			"0.019": 0.0,
			"0.02": 0.0,
			"0.021": 0.0,
			"0.022": 0.0,
			"0.023": 0.0,
			"0.024": 0.0,
			"0.025": 0.0
		}
	}
}
