{
	 "smiles": "COC1=CC(F)=C(C(F)=C1)S(Cl)(=O)=O", 
	 "Tm": 327.15, 
	 "num_atms": 19, 
	 "gaussian": { 
		 "optdone": 1, 
		 "sigma_profile": "yes", 
		 "theory": "DFT", 
		 "functional": "B3LYP", 
		 "basiset": "6-31G**", 
		 "properties": { 
			 "R2extent": 5423.3445, 
			 "electric_dipole_moment_norm": 7.8258446707, 
			 "electric_quadrupole_moment_norm": 9.69864344896, 
			 "total_energy": -1553.38089067, 
			 "HOMO_LUMO_gap": 0.18291, 
			 "cosmo_polarized_energy": -11.99, 
			 "cosmo_cavitation_energy": 27.94, 
			 "cosmo_dispersion_energy": -20.86, 
			 "cosmo_repulsion_energy": 1.56, 
			 "cosmo_total_nonelectrostatic_energy": 8.63, 
			 "SMD_solvation_energy": 5.29 
		},
		"coords": [
			{
				"x": 3.2704509662,
				"y": 1.3150518535,
				"z": 1.2084116499,
				"element": "C" 
			},
			{
				"x": 2.9132474145,
				"y": 0.0722812997,
				"z": 1.8117743018,
				"element": "O" 
			},
			{
				"x": 1.7340141935,
				"y": -0.493632552,
				"z": 1.4883488975,
				"element": "C" 
			},
			{
				"x": 1.4570246057,
				"y": -1.7191400368,
				"z": 2.1183840887,
				"element": "C" 
			},
			{
				"x": 0.2688214854,
				"y": -2.3603799654,
				"z": 1.8424613261,
				"element": "C" 
			},
			{
				"x": 0.028986461,
				"y": -3.5355347439,
				"z": 2.4275932699,
				"element": "F" 
			},
			{
				"x": -0.6905670476,
				"y": -1.8318656047,
				"z": 0.9541490536,
				"element": "C" 
			},
			{
				"x": -0.3722910299,
				"y": -0.6163156561,
				"z": 0.330380832,
				"element": "C" 
			},
			{
				"x": -1.2138497139,
				"y": -0.0551754506,
				"z": -0.5371304807,
				"element": "F" 
			},
			{
				"x": 0.8141328479,
				"y": 0.0597582272,
				"z": 0.5885173942,
				"element": "C" 
			},
			{
				"x": -2.2222610041,
				"y": -2.6939248049,
				"z": 0.6782153078,
				"element": "S" 
			},
			{
				"x": -1.5429061084,
				"y": -4.3699549417,
				"z": -0.4528465084,
				"element": "Cl" 
			},
			{
				"x": -2.709461524,
				"y": -3.2225620171,
				"z": 1.9426365633,
				"element": "O" 
			},
			{
				"x": -3.0724860173,
				"y": -1.922856175,
				"z": -0.2132292899,
				"element": "O" 
			},
			{
				"x": 2.5517977211,
				"y": 2.1017982472,
				"z": 1.4645734726,
				"element": "H" 
			},
			{
				"x": 3.3421728,
				"y": 1.2213080413,
				"z": 0.1188822558,
				"element": "H" 
			},
			{
				"x": 4.2484608,
				"y": 1.5700348533,
				"z": 1.6160692825,
				"element": "H" 
			},
			{
				"x": 2.1681176197,
				"y": -2.157538691,
				"z": 2.8071309466,
				"element": "H" 
			},
			{
				"x": 0.9826955302,
				"y": 0.9976481171,
				"z": 0.0773776367,
				"element": "H" 
			}
		],
		 "valence_orbital": [ 
			{
				"type": "occ",
				"energy": -0.33506,
				"method": "rhf"
			},
			{
				"type": "occ",
				"energy": -0.32691,
				"method": "rhf"
			},
			{
				"type": "occ",
				"energy": -0.30937,
				"method": "rhf"
			},
			{
				"type": "occ",
				"energy": -0.28146,
				"method": "rhf"
			},
			{
				"type": "occ",
				"energy": -0.26895,
				"method": "rhf"
			},
			{
				"type": "unocc",
				"energy": -0.08604,
				"method": "rhf"
			},
			{
				"type": "unocc",
				"energy": -0.04316,
				"method": "rhf"
			},
			{
				"type": "unocc",
				"energy": -0.03382,
				"method": "rhf"
			},
			{
				"type": "unocc",
				"energy": 0.03222,
				"method": "rhf"
			},
			{
				"type": "unocc",
				"energy": 0.0601,
				"method": "rhf"
			}
		],
		"cosmo_sigma_profile": { 
			"-0.025": 0.0,
			"-0.024": 0.0,
			"-0.023": 0.0,
			"-0.022": 0.0,
			"-0.021": 0.0,
			"-0.02": 0.0,
			"-0.019": 0.0,
			"-0.018": 0.0,
			"-0.017": 0.0,
			"-0.016": 0.0,
			"-0.015": 0.0,
			"-0.014": 0.0,
			"-0.013": 0.0,
			"-0.012": 0.0,
			"-0.011": 0.0,
			"-0.01": 0.49996205409,
			"-0.009": 3.39687770914,
			"-0.008": 4.30191749729,
			"-0.007": 9.80578217661,
			"-0.006": 12.2128960992,
			"-0.005": 11.6683303201,
			"-0.004": 13.1293718292,
			"-0.003": 15.1768147537,
			"-0.002": 18.4403610139,
			"-0.001": 19.6946548047,
			"0.0": 15.067199755,
			"0.001": 13.1682586236,
			"0.002": 19.7230680379,
			"0.003": 24.5358295333,
			"0.004": 10.0424763707,
			"0.005": 5.61567281921,
			"0.006": 5.4914225791,
			"0.007": 9.66197956003,
			"0.008": 13.4107413967,
			"0.009": 2.35898378246,
			"0.01": 0.0,
			"0.011": 0.0,
			"0.012": 0.0,
			"0.013": 0.0,
			"0.014": 0.0,
			"0.015": 0.0,
			"0.016": 0.0,
			"0.017": 0.0,
			"0.018": 0.0,
			"0.019": 0.0,
			"0.02": 0.0,
			"0.021": 0.0,
			"0.022": 0.0,
			"0.023": 0.0,
			"0.024": 0.0,
			"0.025": 0.0
		}
	}
}
