{
	 "smiles": "CC(C)C(=O)NC1=CC=C(C=C1)C(O)=O", 
	 "Tm": 514.15, 
	 "num_atms": 28, 
	 "gaussian": { 
		 "optdone": 1, 
		 "sigma_profile": "yes", 
		 "theory": "DFT", 
		 "functional": "B3LYP", 
		 "basiset": "6-31G**", 
		 "properties": { 
			 "R2extent": 4986.8783, 
			 "electric_dipole_moment_norm": 1.69203372011, 
			 "electric_quadrupole_moment_norm": 14.1082151479, 
			 "total_energy": -707.472787646, 
			 "HOMO_LUMO_gap": 0.18222, 
			 "cosmo_polarized_energy": -15.89, 
			 "cosmo_cavitation_energy": 32.06, 
			 "cosmo_dispersion_energy": -22.82, 
			 "cosmo_repulsion_energy": 1.8, 
			 "cosmo_total_nonelectrostatic_energy": 11.04, 
			 "SMD_solvation_energy": 7.39 
		},
		"coords": [
			{
				"x": 4.1820792874,
				"y": 1.2016203231,
				"z": 0.398891462,
				"element": "C" 
			},
			{
				"x": 3.0476437592,
				"y": 1.0620897776,
				"z": -0.6333685293,
				"element": "C" 
			},
			{
				"x": 3.5325985478,
				"y": 1.4566791893,
				"z": -2.0396571345,
				"element": "C" 
			},
			{
				"x": 2.5755868,
				"y": -0.3909793324,
				"z": -0.6728350981,
				"element": "C" 
			},
			{
				"x": 3.2805029864,
				"y": -1.2774679542,
				"z": -1.134870315,
				"element": "O" 
			},
			{
				"x": 1.3012144349,
				"y": -0.7242944322,
				"z": -0.2262613075,
				"element": "N" 
			},
			{
				"x": 0.2777008848,
				"y": 0.0104400262,
				"z": 0.3996816967,
				"element": "C" 
			},
			{
				"x": 0.5284241657,
				"y": 0.9860677525,
				"z": 1.3802384189,
				"element": "C" 
			},
			{
				"x": -0.5290817711,
				"y": 1.661835776,
				"z": 1.9765540284,
				"element": "C" 
			},
			{
				"x": -1.8550194397,
				"y": 1.3634183099,
				"z": 1.6370040984,
				"element": "C" 
			},
			{
				"x": -2.1082929288,
				"y": 0.3662565777,
				"z": 0.6838771945,
				"element": "C" 
			},
			{
				"x": -1.0543534087,
				"y": -0.297623434,
				"z": 0.0699600097,
				"element": "C" 
			},
			{
				"x": -2.93880981,
				"y": 2.1125490242,
				"z": 2.3170846571,
				"element": "C" 
			},
			{
				"x": -4.1799098666,
				"y": 1.7304817986,
				"z": 1.9198257079,
				"element": "O" 
			},
			{
				"x": -2.7681240865,
				"y": 2.9839044267,
				"z": 3.1478760748,
				"element": "O" 
			},
			{
				"x": 3.8510263303,
				"y": 0.9566531761,
				"z": 1.4141065744,
				"element": "H" 
			},
			{
				"x": 4.5655622641,
				"y": 2.226559237,
				"z": 0.4070305236,
				"element": "H" 
			},
			{
				"x": 5.0023222694,
				"y": 0.5245404905,
				"z": 0.1435808717,
				"element": "H" 
			},
			{
				"x": 2.2197020443,
				"y": 1.7189068109,
				"z": -0.3537549041,
				"element": "H" 
			},
			{
				"x": 4.3281354647,
				"y": 0.7831593616,
				"z": -2.3671925757,
				"element": "H" 
			},
			{
				"x": 2.7204800972,
				"y": 1.4047660888,
				"z": -2.7718743872,
				"element": "H" 
			},
			{
				"x": 3.9163226897,
				"y": 2.4816810534,
				"z": -2.0315169364,
				"element": "H" 
			},
			{
				"x": 1.0768823935,
				"y": -1.6824297728,
				"z": -0.4700215072,
				"element": "H" 
			},
			{
				"x": 1.5438495253,
				"y": 1.1907098045,
				"z": 1.6971509121,
				"element": "H" 
			},
			{
				"x": -0.3456810706,
				"y": 2.4169930188,
				"z": 2.7334182458,
				"element": "H" 
			},
			{
				"x": -3.1310684323,
				"y": 0.1235222094,
				"z": 0.4192241686,
				"element": "H" 
			},
			{
				"x": -1.2531196656,
				"y": -1.0542192632,
				"z": -0.683980019,
				"element": "H" 
			},
			{
				"x": -4.7985734646,
				"y": 2.2827799562,
				"z": 2.4251280694,
				"element": "H" 
			}
		],
		 "valence_orbital": [ 
			{
				"type": "occ",
				"energy": -0.30552,
				"method": "rhf"
			},
			{
				"type": "occ",
				"energy": -0.27983,
				"method": "rhf"
			},
			{
				"type": "occ",
				"energy": -0.27192,
				"method": "rhf"
			},
			{
				"type": "occ",
				"energy": -0.25886,
				"method": "rhf"
			},
			{
				"type": "occ",
				"energy": -0.23777,
				"method": "rhf"
			},
			{
				"type": "unocc",
				"energy": -0.05555,
				"method": "rhf"
			},
			{
				"type": "unocc",
				"energy": -0.02157,
				"method": "rhf"
			},
			{
				"type": "unocc",
				"energy": 0.01236,
				"method": "rhf"
			},
			{
				"type": "unocc",
				"energy": 0.056,
				"method": "rhf"
			},
			{
				"type": "unocc",
				"energy": 0.07179,
				"method": "rhf"
			}
		],
		"cosmo_sigma_profile": { 
			"-0.025": 0.0,
			"-0.024": 0.0,
			"-0.023": 0.0,
			"-0.022": 0.0,
			"-0.021": 0.0,
			"-0.02": 0.0,
			"-0.019": 0.00413943133586,
			"-0.018": 0.797038644963,
			"-0.017": 0.73892349406,
			"-0.016": 1.41772599921,
			"-0.015": 0.695131986981,
			"-0.014": 0.917351144096,
			"-0.013": 1.45114883219,
			"-0.012": 2.40823144937,
			"-0.011": 2.50063408149,
			"-0.01": 1.64409614806,
			"-0.009": 0.974963268387,
			"-0.008": 3.19757870719,
			"-0.007": 5.68198478533,
			"-0.006": 8.87962087446,
			"-0.005": 10.6922938207,
			"-0.004": 13.5128783263,
			"-0.003": 21.696991933,
			"-0.002": 22.2057884973,
			"-0.001": 23.3918230295,
			"0.0": 25.4249628637,
			"0.001": 24.3866637636,
			"0.002": 17.0362143788,
			"0.003": 16.6800649193,
			"0.004": 5.23114460503,
			"0.005": 4.26704923376,
			"0.006": 4.10152545111,
			"0.007": 4.88837687575,
			"0.008": 3.35087290222,
			"0.009": 2.50465760546,
			"0.01": 3.46817077228,
			"0.011": 5.08917672198,
			"0.012": 7.19283579377,
			"0.013": 5.10472367503,
			"0.014": 2.02618241026,
			"0.015": 0.0,
			"0.016": 0.0,
			"0.017": 0.0,
			"0.018": 0.0,
			"0.019": 0.0,
			"0.02": 0.0,
			"0.021": 0.0,
			"0.022": 0.0,
			"0.023": 0.0,
			"0.024": 0.0,
			"0.025": 0.0
		}
	}
}
