{
	 "smiles": "CCC(CC)(NC(=O)OC(C)(C)C)C#N", 
	 "Tm": 372.15, 
	 "num_atms": 35, 
	 "gaussian": { 
		 "optdone": 1, 
		 "sigma_profile": "yes", 
		 "theory": "DFT", 
		 "functional": "B3LYP", 
		 "basiset": "6-31G**", 
		 "properties": { 
			 "R2extent": 3597.1244, 
			 "electric_dipole_moment_norm": 3.24121629022, 
			 "electric_quadrupole_moment_norm": 19.4017866247, 
			 "total_energy": -691.198640143, 
			 "HOMO_LUMO_gap": 0.29022, 
			 "cosmo_polarized_energy": -13.37, 
			 "cosmo_cavitation_energy": 36.26, 
			 "cosmo_dispersion_energy": -23.36, 
			 "cosmo_repulsion_energy": 1.83, 
			 "cosmo_total_nonelectrostatic_energy": 14.73, 
			 "SMD_solvation_energy": 8.3 
		},
		"coords": [
			{
				"x": -2.1004743362,
				"y": -3.6102880999,
				"z": -1.1523682503,
				"element": "C" 
			},
			{
				"x": -0.6146958368,
				"y": -3.2465887268,
				"z": -1.2445547592,
				"element": "C" 
			},
			{
				"x": -0.2299089889,
				"y": -1.7787686764,
				"z": -0.8828358173,
				"element": "C" 
			},
			{
				"x": -0.9177864468,
				"y": -0.7239398315,
				"z": -1.8141244688,
				"element": "C" 
			},
			{
				"x": -2.2974634991,
				"y": -0.2304001373,
				"z": -1.3675820123,
				"element": "C" 
			},
			{
				"x": -0.5309655589,
				"y": -1.5792900365,
				"z": 0.5402525208,
				"element": "N" 
			},
			{
				"x": -0.0965104716,
				"y": -0.5433955819,
				"z": 1.3463057199,
				"element": "C" 
			},
			{
				"x": -0.1480903303,
				"y": -0.6042971102,
				"z": 2.5620028323,
				"element": "O" 
			},
			{
				"x": 0.3387900075,
				"y": 0.4925831922,
				"z": 0.6043184571,
				"element": "O" 
			},
			{
				"x": 0.9815468455,
				"y": 1.6649459421,
				"z": 1.2357035963,
				"element": "C" 
			},
			{
				"x": 2.2231099313,
				"y": 1.2147752681,
				"z": 2.0114352382,
				"element": "C" 
			},
			{
				"x": 1.3748814031,
				"y": 2.5167206197,
				"z": 0.0269153111,
				"element": "C" 
			},
			{
				"x": -0.0312168974,
				"y": 2.3970428651,
				"z": 2.1207333386,
				"element": "C" 
			},
			{
				"x": 1.2405012951,
				"y": -1.6844592249,
				"z": -1.1076886432,
				"element": "C" 
			},
			{
				"x": 2.3846234378,
				"y": -1.6310110132,
				"z": -1.2980797641,
				"element": "N" 
			},
			{
				"x": -2.5302034451,
				"y": -3.3650718648,
				"z": -0.1764346382,
				"element": "H" 
			},
			{
				"x": -2.6926141355,
				"y": -3.1031006184,
				"z": -1.917873093,
				"element": "H" 
			},
			{
				"x": -2.2198792509,
				"y": -4.6871286743,
				"z": -1.3059608243,
				"element": "H" 
			},
			{
				"x": -0.0319562411,
				"y": -3.9061695554,
				"z": -0.5893398363,
				"element": "H" 
			},
			{
				"x": -0.2530496426,
				"y": -3.4346513411,
				"z": -2.2602939691,
				"element": "H" 
			},
			{
				"x": -0.2555555627,
				"y": 0.1402503196,
				"z": -1.8950256653,
				"element": "H" 
			},
			{
				"x": -0.973164302,
				"y": -1.168851551,
				"z": -2.8147968004,
				"element": "H" 
			},
			{
				"x": -2.2303802201,
				"y": 0.3099318722,
				"z": -0.421203375,
				"element": "H" 
			},
			{
				"x": -2.6912096629,
				"y": 0.4605445515,
				"z": -2.120194496,
				"element": "H" 
			},
			{
				"x": -3.0239491462,
				"y": -1.0356398443,
				"z": -1.2433880132,
				"element": "H" 
			},
			{
				"x": -0.707609438,
				"y": -2.4134577155,
				"z": 1.0824927705,
				"element": "H" 
			},
			{
				"x": 2.8899650169,
				"y": 0.6434047143,
				"z": 1.3586948751,
				"element": "H" 
			},
			{
				"x": 2.7662047798,
				"y": 2.0946522917,
				"z": 2.3709619593,
				"element": "H" 
			},
			{
				"x": 1.9494719137,
				"y": 0.5982482913,
				"z": 2.8682316898,
				"element": "H" 
			},
			{
				"x": 1.8771856858,
				"y": 3.4292086857,
				"z": 0.3614263439,
				"element": "H" 
			},
			{
				"x": 0.4904693994,
				"y": 2.8031251044,
				"z": -0.5502429427,
				"element": "H" 
			},
			{
				"x": 2.0552725883,
				"y": 1.9647876621,
				"z": -0.6274945331,
				"element": "H" 
			},
			{
				"x": -0.3319823068,
				"y": 1.7766956648,
				"z": 2.9651937523,
				"element": "H" 
			},
			{
				"x": -0.920439747,
				"y": 2.665739372,
				"z": 1.5414317136,
				"element": "H" 
			},
			{
				"x": 0.4168831626,
				"y": 3.3209531865,
				"z": 2.500681783,
				"element": "H" 
			}
		],
		 "valence_orbital": [ 
			{
				"type": "occ",
				"energy": -0.32509,
				"method": "rhf"
			},
			{
				"type": "occ",
				"energy": -0.31812,
				"method": "rhf"
			},
			{
				"type": "occ",
				"energy": -0.29479,
				"method": "rhf"
			},
			{
				"type": "occ",
				"energy": -0.27244,
				"method": "rhf"
			},
			{
				"type": "occ",
				"energy": -0.26539,
				"method": "rhf"
			},
			{
				"type": "unocc",
				"energy": 0.02483,
				"method": "rhf"
			},
			{
				"type": "unocc",
				"energy": 0.03896,
				"method": "rhf"
			},
			{
				"type": "unocc",
				"energy": 0.04491,
				"method": "rhf"
			},
			{
				"type": "unocc",
				"energy": 0.06119,
				"method": "rhf"
			},
			{
				"type": "unocc",
				"energy": 0.08005,
				"method": "rhf"
			}
		],
		"cosmo_sigma_profile": { 
			"-0.025": 0.0,
			"-0.024": 0.0,
			"-0.023": 0.0,
			"-0.022": 0.0,
			"-0.021": 0.0,
			"-0.02": 0.0,
			"-0.019": 0.0,
			"-0.018": 0.0,
			"-0.017": 0.0,
			"-0.016": 0.0,
			"-0.015": 0.0,
			"-0.014": 0.398059497373,
			"-0.013": 0.778130446394,
			"-0.012": 1.24586972744,
			"-0.011": 1.14959823956,
			"-0.01": 1.38706745702,
			"-0.009": 1.45390891693,
			"-0.008": 1.01667023297,
			"-0.007": 2.17297333478,
			"-0.006": 4.12509794354,
			"-0.005": 9.13882638371,
			"-0.004": 23.4170173045,
			"-0.003": 32.2300319115,
			"-0.002": 38.4203324026,
			"-0.001": 36.2458415961,
			"0.0": 40.7318792668,
			"0.001": 24.6471518624,
			"0.002": 8.97456945603,
			"0.003": 7.88293813909,
			"0.004": 6.29441350201,
			"0.005": 5.24319465812,
			"0.006": 3.99109924943,
			"0.007": 4.09248716853,
			"0.008": 3.77856322182,
			"0.009": 3.71950550041,
			"0.01": 4.55155009361,
			"0.011": 4.322504383,
			"0.012": 4.72109835297,
			"0.013": 5.23777007086,
			"0.014": 0.768923587616,
			"0.015": 0.0,
			"0.016": 0.0,
			"0.017": 0.0,
			"0.018": 0.0,
			"0.019": 0.0,
			"0.02": 0.0,
			"0.021": 0.0,
			"0.022": 0.0,
			"0.023": 0.0,
			"0.024": 0.0,
			"0.025": 0.0
		}
	}
}
