{
	 "smiles": "CCCNC(=O)C1=CC(O)=CC=C1", 
	 "Tm": 342.15, 
	 "num_atms": 26, 
	 "gaussian": { 
		 "optdone": 1, 
		 "sigma_profile": "yes", 
		 "theory": "DFT", 
		 "functional": "B3LYP", 
		 "basiset": "6-31G**", 
		 "properties": { 
			 "R2extent": 3036.0503, 
			 "electric_dipole_moment_norm": 3.85567048774, 
			 "electric_quadrupole_moment_norm": 10.388867613, 
			 "total_energy": -594.113589046, 
			 "HOMO_LUMO_gap": 0.19491, 
			 "cosmo_polarized_energy": -15.54, 
			 "cosmo_cavitation_energy": 29.43, 
			 "cosmo_dispersion_energy": -20.73, 
			 "cosmo_repulsion_energy": 1.67, 
			 "cosmo_total_nonelectrostatic_energy": 10.37, 
			 "SMD_solvation_energy": 5.76 
		},
		"coords": [
			{
				"x": 0.0438938672,
				"y": -3.1944048604,
				"z": 1.2775494913,
				"element": "C" 
			},
			{
				"x": 1.1294510018,
				"y": -2.8070850686,
				"z": 0.2699118994,
				"element": "C" 
			},
			{
				"x": 1.0338177332,
				"y": -1.359994196,
				"z": -0.2299686932,
				"element": "C" 
			},
			{
				"x": 1.2517114055,
				"y": -0.3941512224,
				"z": 0.8509060169,
				"element": "N" 
			},
			{
				"x": 0.7873600645,
				"y": 0.9061312723,
				"z": 0.9131820795,
				"element": "C" 
			},
			{
				"x": 1.443199566,
				"y": 1.7778168945,
				"z": 1.4743017041,
				"element": "O" 
			},
			{
				"x": -0.5638000819,
				"y": 1.2180349855,
				"z": 0.3315612656,
				"element": "C" 
			},
			{
				"x": -1.6630861525,
				"y": 0.3638791025,
				"z": 0.4957698226,
				"element": "C" 
			},
			{
				"x": -2.9182313717,
				"y": 0.7360459439,
				"z": 0.0054460777,
				"element": "C" 
			},
			{
				"x": -4.0273943049,
				"y": -0.0484614323,
				"z": 0.1533796612,
				"element": "O" 
			},
			{
				"x": -3.0768969607,
				"y": 1.9541272847,
				"z": -0.6652130194,
				"element": "C" 
			},
			{
				"x": -1.9814563878,
				"y": 2.8012783365,
				"z": -0.8177654497,
				"element": "C" 
			},
			{
				"x": -0.7297745005,
				"y": 2.4493415251,
				"z": -0.3117605423,
				"element": "C" 
			},
			{
				"x": -0.9534139078,
				"y": -3.1305321605,
				"z": 0.826212521,
				"element": "H" 
			},
			{
				"x": 0.0642849585,
				"y": -2.5331041628,
				"z": 2.1491628878,
				"element": "H" 
			},
			{
				"x": 0.1799080237,
				"y": -4.2215393914,
				"z": 1.6298641371,
				"element": "H" 
			},
			{
				"x": 1.0841180771,
				"y": -3.4680519155,
				"z": -0.6044946336,
				"element": "H" 
			},
			{
				"x": 2.1210781581,
				"y": -2.9649675241,
				"z": 0.7159582508,
				"element": "H" 
			},
			{
				"x": 0.0513697405,
				"y": -1.1732204933,
				"z": -0.6677406443,
				"element": "H" 
			},
			{
				"x": 1.7728832514,
				"y": -1.2042123189,
				"z": -1.0301048596,
				"element": "H" 
			},
			{
				"x": 2.1703916316,
				"y": -0.4455895835,
				"z": 1.2799176324,
				"element": "H" 
			},
			{
				"x": -1.5468748037,
				"y": -0.5736342616,
				"z": 1.0338675701,
				"element": "H" 
			},
			{
				"x": -3.7916791307,
				"y": -0.8416793028,
				"z": 0.651637019,
				"element": "H" 
			},
			{
				"x": -4.0584722787,
				"y": 2.2197043316,
				"z": -1.043535643,
				"element": "H" 
			},
			{
				"x": -2.1097145149,
				"y": 3.75080932,
				"z": -1.3292433131,
				"element": "H" 
			},
			{
				"x": 0.1205269168,
				"y": 3.1161588974,
				"z": -0.399101238,
				"element": "H" 
			}
		],
		 "valence_orbital": [ 
			{
				"type": "occ",
				"energy": -0.33239,
				"method": "rhf"
			},
			{
				"type": "occ",
				"energy": -0.2625,
				"method": "rhf"
			},
			{
				"type": "occ",
				"energy": -0.25479,
				"method": "rhf"
			},
			{
				"type": "occ",
				"energy": -0.24191,
				"method": "rhf"
			},
			{
				"type": "occ",
				"energy": -0.22468,
				"method": "rhf"
			},
			{
				"type": "unocc",
				"energy": -0.02977,
				"method": "rhf"
			},
			{
				"type": "unocc",
				"energy": 0.0046,
				"method": "rhf"
			},
			{
				"type": "unocc",
				"energy": 0.05051,
				"method": "rhf"
			},
			{
				"type": "unocc",
				"energy": 0.05716,
				"method": "rhf"
			},
			{
				"type": "unocc",
				"energy": 0.07849,
				"method": "rhf"
			}
		],
		"cosmo_sigma_profile": { 
			"-0.025": 0.0,
			"-0.024": 0.0,
			"-0.023": 0.0,
			"-0.022": 0.0,
			"-0.021": 0.0,
			"-0.02": 0.0,
			"-0.019": 0.0,
			"-0.018": 0.17369285637,
			"-0.017": 0.959178802107,
			"-0.016": 1.13619357468,
			"-0.015": 1.26581445173,
			"-0.014": 0.889070362833,
			"-0.013": 1.41131003494,
			"-0.012": 2.07477611719,
			"-0.011": 1.38913130607,
			"-0.01": 2.17713745374,
			"-0.009": 2.35846865925,
			"-0.008": 2.17788641654,
			"-0.007": 2.20262433472,
			"-0.006": 5.88690731528,
			"-0.005": 9.75731397242,
			"-0.004": 16.5086804914,
			"-0.003": 22.5855156549,
			"-0.002": 24.3428590032,
			"-0.001": 21.5528495314,
			"0.0": 20.0654356945,
			"0.001": 16.0112942795,
			"0.002": 10.8189088989,
			"0.003": 13.3306863123,
			"0.004": 13.544905536,
			"0.005": 8.8597813158,
			"0.006": 3.14883237689,
			"0.007": 2.53647956274,
			"0.008": 2.75910555945,
			"0.009": 3.1988805058,
			"0.01": 3.02421699546,
			"0.011": 3.78458404439,
			"0.012": 2.33674907333,
			"0.013": 4.35542272038,
			"0.014": 4.50532347604,
			"0.015": 0.562865300794,
			"0.016": 0.0,
			"0.017": 0.0,
			"0.018": 0.0,
			"0.019": 0.0,
			"0.02": 0.0,
			"0.021": 0.0,
			"0.022": 0.0,
			"0.023": 0.0,
			"0.024": 0.0,
			"0.025": 0.0
		}
	}
}
