{
	 "smiles": "CCC(C)Cl", 
	 "Tm": 133.15, 
	 "num_atms": 14, 
	 "gaussian": { 
		 "optdone": 1, 
		 "sigma_profile": "yes", 
		 "theory": "DFT", 
		 "functional": "B3LYP", 
		 "basiset": "6-31G**", 
		 "properties": { 
			 "R2extent": 975.96, 
			 "electric_dipole_moment_norm": 2.32006626414, 
			 "electric_quadrupole_moment_norm": 5.09253595078, 
			 "total_energy": -618.063195107, 
			 "HOMO_LUMO_gap": 0.31387, 
			 "cosmo_polarized_energy": -3.79, 
			 "cosmo_cavitation_energy": 17.75, 
			 "cosmo_dispersion_energy": -13.25, 
			 "cosmo_repulsion_energy": 1.17, 
			 "cosmo_total_nonelectrostatic_energy": 5.67, 
			 "SMD_solvation_energy": 2.89 
		},
		"coords": [
			{
				"x": -0.3466050619,
				"y": 1.9808816003,
				"z": -0.4837459719,
				"element": "C" 
			},
			{
				"x": 0.3959837509,
				"y": 1.1368151163,
				"z": 0.5540878397,
				"element": "C" 
			},
			{
				"x": -0.3368030785,
				"y": -0.1271725435,
				"z": 1.002908637,
				"element": "C" 
			},
			{
				"x": 0.487470231,
				"y": -1.0065654574,
				"z": 1.9338832197,
				"element": "C" 
			},
			{
				"x": -1.9101699573,
				"y": 0.3212881779,
				"z": 1.8547462726,
				"element": "Cl" 
			},
			{
				"x": 0.2579569062,
				"y": 2.8421890714,
				"z": -0.7841487538,
				"element": "H" 
			},
			{
				"x": -0.5666629226,
				"y": 1.397297344,
				"z": -1.384907358,
				"element": "H" 
			},
			{
				"x": -1.2937581159,
				"y": 2.353634701,
				"z": -0.0852228047,
				"element": "H" 
			},
			{
				"x": 1.3573244331,
				"y": 0.8054748037,
				"z": 0.1364739463,
				"element": "H" 
			},
			{
				"x": 0.6329143935,
				"y": 1.7396447582,
				"z": 1.4390427492,
				"element": "H" 
			},
			{
				"x": -0.6685511452,
				"y": -0.6990562216,
				"z": 0.1317130086,
				"element": "H" 
			},
			{
				"x": 0.7845335635,
				"y": -0.4544747121,
				"z": 2.8303879233,
				"element": "H" 
			},
			{
				"x": -0.0728002415,
				"y": -1.8918275502,
				"z": 2.243287793,
				"element": "H" 
			},
			{
				"x": 1.3952672446,
				"y": -1.3362290881,
				"z": 1.415093499,
				"element": "H" 
			}
		],
		 "valence_orbital": [ 
			{
				"type": "occ",
				"energy": -0.35589,
				"method": "rhf"
			},
			{
				"type": "occ",
				"energy": -0.34874,
				"method": "rhf"
			},
			{
				"type": "occ",
				"energy": -0.34178,
				"method": "rhf"
			},
			{
				"type": "occ",
				"energy": -0.28818,
				"method": "rhf"
			},
			{
				"type": "occ",
				"energy": -0.28729,
				"method": "rhf"
			},
			{
				"type": "unocc",
				"energy": 0.02658,
				"method": "rhf"
			},
			{
				"type": "unocc",
				"energy": 0.08684,
				"method": "rhf"
			},
			{
				"type": "unocc",
				"energy": 0.11849,
				"method": "rhf"
			},
			{
				"type": "unocc",
				"energy": 0.12357,
				"method": "rhf"
			},
			{
				"type": "unocc",
				"energy": 0.15328,
				"method": "rhf"
			}
		],
		"cosmo_sigma_profile": { 
			"-0.025": 0.0,
			"-0.024": 0.0,
			"-0.023": 0.0,
			"-0.022": 0.0,
			"-0.021": 0.0,
			"-0.02": 0.0,
			"-0.019": 0.0,
			"-0.018": 0.0,
			"-0.017": 0.0,
			"-0.016": 0.0,
			"-0.015": 0.0,
			"-0.014": 0.0,
			"-0.013": 0.0,
			"-0.012": 0.0,
			"-0.011": 0.0,
			"-0.01": 0.0,
			"-0.009": 0.0,
			"-0.008": 0.0,
			"-0.007": 0.0178008627738,
			"-0.006": 1.83359227917,
			"-0.005": 5.78771358477,
			"-0.004": 13.2019040549,
			"-0.003": 16.9066039503,
			"-0.002": 16.4786486614,
			"-0.001": 19.3225313812,
			"0.0": 15.9724723509,
			"0.001": 12.7148797318,
			"0.002": 6.31906019381,
			"0.003": 4.60239627111,
			"0.004": 5.27130015579,
			"0.005": 4.85941768988,
			"0.006": 6.19674720851,
			"0.007": 8.37253228416,
			"0.008": 1.96471342554,
			"0.009": 0.0,
			"0.01": 0.0,
			"0.011": 0.0,
			"0.012": 0.0,
			"0.013": 0.0,
			"0.014": 0.0,
			"0.015": 0.0,
			"0.016": 0.0,
			"0.017": 0.0,
			"0.018": 0.0,
			"0.019": 0.0,
			"0.02": 0.0,
			"0.021": 0.0,
			"0.022": 0.0,
			"0.023": 0.0,
			"0.024": 0.0,
			"0.025": 0.0
		}
	}
}
