{
	 "smiles": "CC(NC(=O)C1=CC=C(Br)S1)C(O)=O", 
	 "Tm": 409.15, 
	 "num_atms": 22, 
	 "gaussian": { 
		 "optdone": 1, 
		 "sigma_profile": "yes", 
		 "theory": "DFT", 
		 "functional": "B3LYP", 
		 "basiset": "6-31G**", 
		 "properties": { 
			 "R2extent": 5563.4683, 
			 "electric_dipole_moment_norm": 4.07284115698, 
			 "electric_quadrupole_moment_norm": 11.3029234833, 
			 "total_energy": -3559.68264295, 
			 "HOMO_LUMO_gap": 0.18144, 
			 "cosmo_polarized_energy": -17.27, 
			 "cosmo_cavitation_energy": 30.21, 
			 "cosmo_dispersion_energy": -22.33, 
			 "cosmo_repulsion_energy": 1.75, 
			 "cosmo_total_nonelectrostatic_energy": 9.64, 
			 "SMD_solvation_energy": 5.47 
		},
		"coords": [
			{
				"x": -0.2951614222,
				"y": -0.5593191794,
				"z": -2.4759629043,
				"element": "C" 
			},
			{
				"x": -1.5215392245,
				"y": -0.240030701,
				"z": -1.599176608,
				"element": "C" 
			},
			{
				"x": -1.4851019401,
				"y": -0.7938612111,
				"z": -0.2518681307,
				"element": "N" 
			},
			{
				"x": -0.4757247084,
				"y": -0.9411818076,
				"z": 0.677084249,
				"element": "C" 
			},
			{
				"x": -0.5787773485,
				"y": -1.8110850668,
				"z": 1.5379902689,
				"element": "O" 
			},
			{
				"x": 0.7401074303,
				"y": -0.0794708287,
				"z": 0.6728925272,
				"element": "C" 
			},
			{
				"x": 1.9449783318,
				"y": -0.5389361998,
				"z": 1.1532686922,
				"element": "C" 
			},
			{
				"x": 2.9821811612,
				"y": 0.4314808103,
				"z": 1.1462286198,
				"element": "C" 
			},
			{
				"x": 2.5360674344,
				"y": 1.637330309,
				"z": 0.6765328576,
				"element": "C" 
			},
			{
				"x": 3.5413864111,
				"y": 3.2245044939,
				"z": 0.5128034702,
				"element": "Br" 
			},
			{
				"x": 0.8558117724,
				"y": 1.617680532,
				"z": 0.2400728508,
				"element": "S" 
			},
			{
				"x": -1.8901322783,
				"y": 1.2489789693,
				"z": -1.5991051988,
				"element": "C" 
			},
			{
				"x": -2.0546485129,
				"y": 1.7015107532,
				"z": -2.8640600667,
				"element": "O" 
			},
			{
				"x": -2.0571454931,
				"y": 1.9425725722,
				"z": -0.6236686676,
				"element": "O" 
			},
			{
				"x": -0.1397700472,
				"y": -1.6410119421,
				"z": -2.4970238265,
				"element": "H" 
			},
			{
				"x": -0.4701966631,
				"y": -0.2075185484,
				"z": -3.4945565443,
				"element": "H" 
			},
			{
				"x": 0.6127415336,
				"y": -0.0869133922,
				"z": -2.0995003828,
				"element": "H" 
			},
			{
				"x": -2.3792508408,
				"y": -0.7231447231,
				"z": -2.0833687721,
				"element": "H" 
			},
			{
				"x": -2.2351937617,
				"y": -1.4343151121,
				"z": -0.0279803842,
				"element": "H" 
			},
			{
				"x": 2.0592279445,
				"y": -1.5564660347,
				"z": 1.506402748,
				"element": "H" 
			},
			{
				"x": 3.9979992989,
				"y": 0.2541803897,
				"z": 1.4756251731,
				"element": "H" 
			},
			{
				"x": -2.3014590775,
				"y": 2.6389159173,
				"z": -2.7897299709,
				"element": "H" 
			}
		],
		 "valence_orbital": [ 
			{
				"type": "occ",
				"energy": -0.29142,
				"method": "rhf"
			},
			{
				"type": "occ",
				"energy": -0.26861,
				"method": "rhf"
			},
			{
				"type": "occ",
				"energy": -0.26543,
				"method": "rhf"
			},
			{
				"type": "occ",
				"energy": -0.25675,
				"method": "rhf"
			},
			{
				"type": "occ",
				"energy": -0.23217,
				"method": "rhf"
			},
			{
				"type": "unocc",
				"energy": -0.05073,
				"method": "rhf"
			},
			{
				"type": "unocc",
				"energy": -0.00888,
				"method": "rhf"
			},
			{
				"type": "unocc",
				"energy": -0.00649,
				"method": "rhf"
			},
			{
				"type": "unocc",
				"energy": 0.01663,
				"method": "rhf"
			},
			{
				"type": "unocc",
				"energy": 0.03022,
				"method": "rhf"
			}
		],
		"cosmo_sigma_profile": { 
			"-0.025": 0.0,
			"-0.024": 0.0,
			"-0.023": 0.0,
			"-0.022": 0.0,
			"-0.021": 0.0,
			"-0.02": 0.0,
			"-0.019": 0.48688238646,
			"-0.018": 0.857978071541,
			"-0.017": 1.00346284949,
			"-0.016": 0.816880873038,
			"-0.015": 0.832047432157,
			"-0.014": 1.67025038019,
			"-0.013": 2.02628499835,
			"-0.012": 2.20059938421,
			"-0.011": 2.51438443717,
			"-0.01": 2.32980542646,
			"-0.009": 3.18307011994,
			"-0.008": 5.45885157989,
			"-0.007": 6.12634102071,
			"-0.006": 7.77206759647,
			"-0.005": 9.92053203182,
			"-0.004": 11.5802003294,
			"-0.003": 13.8614658999,
			"-0.002": 18.3442100395,
			"-0.001": 21.9655342462,
			"0.0": 19.7239254295,
			"0.001": 20.1714337956,
			"0.002": 21.9213908869,
			"0.003": 19.2112763174,
			"0.004": 8.80161164711,
			"0.005": 4.71782579019,
			"0.006": 4.71605104876,
			"0.007": 4.39982770967,
			"0.008": 4.04809469954,
			"0.009": 3.43092741489,
			"0.01": 4.58006308048,
			"0.011": 5.89176205,
			"0.012": 3.78832347403,
			"0.013": 5.52648561306,
			"0.014": 1.50121912787,
			"0.015": 0.0,
			"0.016": 0.0,
			"0.017": 0.0,
			"0.018": 0.0,
			"0.019": 0.0,
			"0.02": 0.0,
			"0.021": 0.0,
			"0.022": 0.0,
			"0.023": 0.0,
			"0.024": 0.0,
			"0.025": 0.0
		}
	}
}
