{
	 "smiles": "CCOC(=O)C1=C2CC(C)(C)CC(=O)C2=C(SCC2=CC=CC=C2)S1", 
	 "Tm": 393.15, 
	 "num_atms": 47, 
	 "gaussian": { 
		 "optdone": 1, 
		 "sigma_profile": "yes", 
		 "theory": "DFT", 
		 "functional": "B3LYP", 
		 "basiset": "6-31G**", 
		 "properties": { 
			 "R2extent": 11952.6461, 
			 "electric_dipole_moment_norm": 2.7467302343, 
			 "electric_quadrupole_moment_norm": 24.065937272, 
			 "total_energy": -1797.46490561, 
			 "HOMO_LUMO_gap": 0.15879, 
			 "cosmo_polarized_energy": -15.98, 
			 "cosmo_cavitation_energy": 51.44, 
			 "cosmo_dispersion_energy": -35.5, 
			 "cosmo_repulsion_energy": 2.66, 
			 "cosmo_total_nonelectrostatic_energy": 18.6, 
			 "SMD_solvation_energy": 9.35 
		},
		"coords": [
			{
				"x": -2.3442075151,
				"y": -5.4547771649,
				"z": -0.6652030868,
				"element": "C" 
			},
			{
				"x": -2.1365992659,
				"y": -4.1731540444,
				"z": -1.4492868186,
				"element": "C" 
			},
			{
				"x": -1.1424529103,
				"y": -3.3897610332,
				"z": -0.7477790626,
				"element": "O" 
			},
			{
				"x": -0.8374642038,
				"y": -2.1985285325,
				"z": -1.3147982984,
				"element": "C" 
			},
			{
				"x": -1.3575774565,
				"y": -1.7930044713,
				"z": -2.3413127123,
				"element": "O" 
			},
			{
				"x": 0.1727538335,
				"y": -1.4418881441,
				"z": -0.570517761,
				"element": "C" 
			},
			{
				"x": 0.8994778517,
				"y": -1.7044533919,
				"z": 0.5710572347,
				"element": "C" 
			},
			{
				"x": 0.8440714949,
				"y": -2.9420520464,
				"z": 1.4325610904,
				"element": "C" 
			},
			{
				"x": 2.1557295867,
				"y": -3.1942998225,
				"z": 2.2193491572,
				"element": "C" 
			},
			{
				"x": 1.9154418069,
				"y": -4.3187166435,
				"z": 3.2412740307,
				"element": "C" 
			},
			{
				"x": 3.2857128434,
				"y": -3.619529343,
				"z": 1.2597479421,
				"element": "C" 
			},
			{
				"x": 2.548700877,
				"y": -1.8984403246,
				"z": 2.9659724651,
				"element": "C" 
			},
			{
				"x": 2.6639479962,
				"y": -0.6666628957,
				"z": 2.0771212793,
				"element": "C" 
			},
			{
				"x": 3.4429885968,
				"y": 0.2458787864,
				"z": 2.3371721516,
				"element": "O" 
			},
			{
				"x": 1.7710047343,
				"y": -0.6208185213,
				"z": 0.9151166798,
				"element": "C" 
			},
			{
				"x": 1.7029726973,
				"y": 0.4548082482,
				"z": 0.0249663086,
				"element": "C" 
			},
			{
				"x": 2.6814819953,
				"y": 1.8991371334,
				"z": 0.147740228,
				"element": "S" 
			},
			{
				"x": 2.1144201665,
				"y": 2.9126950691,
				"z": -1.293259054,
				"element": "C" 
			},
			{
				"x": 0.7871509507,
				"y": 3.625084804,
				"z": -1.1467373644,
				"element": "C" 
			},
			{
				"x": 0.5200175932,
				"y": 4.4376092534,
				"z": -0.0355276848,
				"element": "C" 
			},
			{
				"x": -0.6846016139,
				"y": 5.1313979437,
				"z": 0.0621700253,
				"element": "C" 
			},
			{
				"x": -1.6421209938,
				"y": 5.0251650411,
				"z": -0.9503029676,
				"element": "C" 
			},
			{
				"x": -1.3856077503,
				"y": 4.220440241,
				"z": -2.0598242512,
				"element": "C" 
			},
			{
				"x": -0.1783582437,
				"y": 3.5249143463,
				"z": -2.1557403908,
				"element": "C" 
			},
			{
				"x": 0.5479310521,
				"y": 0.1451025382,
				"z": -1.2297987294,
				"element": "S" 
			},
			{
				"x": -1.4166160023,
				"y": -6.0311788081,
				"z": -0.6008347357,
				"element": "H" 
			},
			{
				"x": -3.0980478689,
				"y": -6.0736654532,
				"z": -1.1616687451,
				"element": "H" 
			},
			{
				"x": -2.6898858448,
				"y": -5.2413715117,
				"z": 0.3503726105,
				"element": "H" 
			},
			{
				"x": -3.0562502045,
				"y": -3.5852742292,
				"z": -1.5278796842,
				"element": "H" 
			},
			{
				"x": -1.782263121,
				"y": -4.3651955713,
				"z": -2.4668186941,
				"element": "H" 
			},
			{
				"x": 0.5912917232,
				"y": -3.8127160109,
				"z": 0.823961207,
				"element": "H" 
			},
			{
				"x": 0.0178367948,
				"y": -2.8262892629,
				"z": 2.149552928,
				"element": "H" 
			},
			{
				"x": 2.8242362828,
				"y": -4.5252959018,
				"z": 3.8169472187,
				"element": "H" 
			},
			{
				"x": 1.6200416196,
				"y": -5.2472635832,
				"z": 2.7397909949,
				"element": "H" 
			},
			{
				"x": 1.1227111103,
				"y": -4.0525004992,
				"z": 3.9495365972,
				"element": "H" 
			},
			{
				"x": 3.022900775,
				"y": -4.547655834,
				"z": 0.7403596803,
				"element": "H" 
			},
			{
				"x": 4.2153925146,
				"y": -3.7959420589,
				"z": 1.8114452612,
				"element": "H" 
			},
			{
				"x": 3.4891022633,
				"y": -2.8591607562,
				"z": 0.4995518675,
				"element": "H" 
			},
			{
				"x": 3.4957310507,
				"y": -2.0117596774,
				"z": 3.5030267439,
				"element": "H" 
			},
			{
				"x": 1.7820429592,
				"y": -1.6715130204,
				"z": 3.722456549,
				"element": "H" 
			},
			{
				"x": 2.1392172346,
				"y": 2.2973440731,
				"z": -2.1974261946,
				"element": "H" 
			},
			{
				"x": 2.9310259529,
				"y": 3.637981482,
				"z": -1.3819057097,
				"element": "H" 
			},
			{
				"x": 1.2568019098,
				"y": 4.5187220569,
				"z": 0.7590009279,
				"element": "H" 
			},
			{
				"x": -0.8766894043,
				"y": 5.7564548193,
				"z": 0.9296266667,
				"element": "H" 
			},
			{
				"x": -2.5813004255,
				"y": 5.565124508,
				"z": -0.8720907597,
				"element": "H" 
			},
			{
				"x": -2.1243767982,
				"y": 4.1272988442,
				"z": -2.850551352,
				"element": "H" 
			},
			{
				"x": 0.0141833555,
				"y": 2.8985093694,
				"z": -3.0229137883,
				"element": "H" 
			}
		],
		 "valence_orbital": [ 
			{
				"type": "occ",
				"energy": -0.25905,
				"method": "rhf"
			},
			{
				"type": "occ",
				"energy": -0.25111,
				"method": "rhf"
			},
			{
				"type": "occ",
				"energy": -0.24751,
				"method": "rhf"
			},
			{
				"type": "occ",
				"energy": -0.23628,
				"method": "rhf"
			},
			{
				"type": "occ",
				"energy": -0.21534,
				"method": "rhf"
			},
			{
				"type": "unocc",
				"energy": -0.05655,
				"method": "rhf"
			},
			{
				"type": "unocc",
				"energy": -0.0354,
				"method": "rhf"
			},
			{
				"type": "unocc",
				"energy": -0.01592,
				"method": "rhf"
			},
			{
				"type": "unocc",
				"energy": -0.00327,
				"method": "rhf"
			},
			{
				"type": "unocc",
				"energy": 0.02546,
				"method": "rhf"
			}
		],
		"cosmo_sigma_profile": { 
			"-0.025": 0.0,
			"-0.024": 0.0,
			"-0.023": 0.0,
			"-0.022": 0.0,
			"-0.021": 0.0,
			"-0.02": 0.0,
			"-0.019": 0.0,
			"-0.018": 0.0,
			"-0.017": 0.0,
			"-0.016": 0.0,
			"-0.015": 0.0,
			"-0.014": 0.0,
			"-0.013": 0.0,
			"-0.012": 0.0,
			"-0.011": 0.0,
			"-0.01": 0.0,
			"-0.009": 0.0404654062289,
			"-0.008": 2.19301923595,
			"-0.007": 5.03297265742,
			"-0.006": 14.1101812746,
			"-0.005": 27.5478600271,
			"-0.004": 36.7566691074,
			"-0.003": 49.3194714436,
			"-0.002": 37.3164931148,
			"-0.001": 39.7252969725,
			"0.0": 40.9793261445,
			"0.001": 38.493076656,
			"0.002": 22.928147259,
			"0.003": 18.3244873539,
			"0.004": 16.8663781228,
			"0.005": 15.7443258412,
			"0.006": 9.8431044295,
			"0.007": 5.19188879398,
			"0.008": 3.02364735197,
			"0.009": 3.85981265578,
			"0.01": 4.75913831118,
			"0.011": 5.75092079774,
			"0.012": 8.5248119512,
			"0.013": 2.30812824402,
			"0.014": 0.450846971701,
			"0.015": 0.0,
			"0.016": 0.0,
			"0.017": 0.0,
			"0.018": 0.0,
			"0.019": 0.0,
			"0.02": 0.0,
			"0.021": 0.0,
			"0.022": 0.0,
			"0.023": 0.0,
			"0.024": 0.0,
			"0.025": 0.0
		}
	}
}
