{
	 "smiles": "NC1=C(C=NN1C1=CC=C(Cl)C=C1)C#N", 
	 "Tm": 444.15, 
	 "num_atms": 22, 
	 "gaussian": { 
		 "optdone": 1, 
		 "sigma_profile": "yes", 
		 "theory": "DFT", 
		 "functional": "B3LYP", 
		 "basiset": "6-31G**", 
		 "properties": { 
			 "R2extent": 6138.8656, 
			 "electric_dipole_moment_norm": 3.59669991103, 
			 "electric_quadrupole_moment_norm": 33.4952077083, 
			 "total_energy": -1064.44607097, 
			 "HOMO_LUMO_gap": 0.19046, 
			 "cosmo_polarized_energy": -16.25, 
			 "cosmo_cavitation_energy": 29.83, 
			 "cosmo_dispersion_energy": -21.47, 
			 "cosmo_repulsion_energy": 1.67, 
			 "cosmo_total_nonelectrostatic_energy": 10.03, 
			 "SMD_solvation_energy": 5.68 
		},
		"coords": [
			{
				"x": 2.102245972,
				"y": 0.1621924267,
				"z": -2.1352118628,
				"element": "N" 
			},
			{
				"x": 2.435635263,
				"y": -1.047837121,
				"z": -1.5694047239,
				"element": "C" 
			},
			{
				"x": 3.6919789496,
				"y": -1.6537099074,
				"z": -1.457453186,
				"element": "C" 
			},
			{
				"x": 3.4399749173,
				"y": -2.8717972943,
				"z": -0.7646128438,
				"element": "C" 
			},
			{
				"x": 2.166392057,
				"y": -3.0227753083,
				"z": -0.4703342817,
				"element": "N" 
			},
			{
				"x": 1.5497085418,
				"y": -1.884567387,
				"z": -0.9539312581,
				"element": "N" 
			},
			{
				"x": 0.1428446043,
				"y": -1.7469449036,
				"z": -0.8139056784,
				"element": "C" 
			},
			{
				"x": -0.6584298532,
				"y": -2.8921432133,
				"z": -0.8910601192,
				"element": "C" 
			},
			{
				"x": -2.0379480771,
				"y": -2.7853836439,
				"z": -0.7445413355,
				"element": "C" 
			},
			{
				"x": -2.6131698867,
				"y": -1.5312704314,
				"z": -0.530496928,
				"element": "C" 
			},
			{
				"x": -4.3542013163,
				"y": -1.3951259506,
				"z": -0.3619828386,
				"element": "Cl" 
			},
			{
				"x": -1.8224437169,
				"y": -0.3871785328,
				"z": -0.4418899183,
				"element": "C" 
			},
			{
				"x": -0.4379729549,
				"y": -0.4961767968,
				"z": -0.5731436655,
				"element": "C" 
			},
			{
				"x": 4.8983194347,
				"y": -1.1334877966,
				"z": -1.9766834901,
				"element": "C" 
			},
			{
				"x": 5.8713290144,
				"y": -0.6749027758,
				"z": -2.4265148846,
				"element": "N" 
			},
			{
				"x": 1.1919949677,
				"y": 0.2071329005,
				"z": -2.5760379161,
				"element": "H" 
			},
			{
				"x": 2.8383080946,
				"y": 0.5487388127,
				"z": -2.7130821577,
				"element": "H" 
			},
			{
				"x": 4.1597265143,
				"y": -3.627971078,
				"z": -0.4824812493,
				"element": "H" 
			},
			{
				"x": -0.1890028978,
				"y": -3.8549955779,
				"z": -1.0522119894,
				"element": "H" 
			},
			{
				"x": -2.66507433,
				"y": -3.6678534093,
				"z": -0.8026826877,
				"element": "H" 
			},
			{
				"x": -2.2795588457,
				"y": 0.5776600435,
				"z": -0.2534716596,
				"element": "H" 
			},
			{
				"x": 0.184643548,
				"y": 0.3844969444,
				"z": -0.4629653257,
				"element": "H" 
			}
		],
		 "valence_orbital": [ 
			{
				"type": "occ",
				"energy": -0.30669,
				"method": "rhf"
			},
			{
				"type": "occ",
				"energy": -0.29335,
				"method": "rhf"
			},
			{
				"type": "occ",
				"energy": -0.2842,
				"method": "rhf"
			},
			{
				"type": "occ",
				"energy": -0.24503,
				"method": "rhf"
			},
			{
				"type": "occ",
				"energy": -0.23491,
				"method": "rhf"
			},
			{
				"type": "unocc",
				"energy": -0.04445,
				"method": "rhf"
			},
			{
				"type": "unocc",
				"energy": -0.0358,
				"method": "rhf"
			},
			{
				"type": "unocc",
				"energy": -0.00158,
				"method": "rhf"
			},
			{
				"type": "unocc",
				"energy": 0.01326,
				"method": "rhf"
			},
			{
				"type": "unocc",
				"energy": 0.01912,
				"method": "rhf"
			}
		],
		"cosmo_sigma_profile": { 
			"-0.025": 0.0,
			"-0.024": 0.0,
			"-0.023": 0.0,
			"-0.022": 0.0,
			"-0.021": 0.0,
			"-0.02": 0.0,
			"-0.019": 0.0,
			"-0.018": 0.0,
			"-0.017": 0.0,
			"-0.016": 0.0,
			"-0.015": 0.375652309695,
			"-0.014": 2.33186094035,
			"-0.013": 2.98145394781,
			"-0.012": 2.06448760612,
			"-0.011": 2.77041597667,
			"-0.01": 2.58061509631,
			"-0.009": 4.09843398471,
			"-0.008": 6.34554978568,
			"-0.007": 10.4427097885,
			"-0.006": 11.3907840265,
			"-0.005": 10.0254409128,
			"-0.004": 10.093006933,
			"-0.003": 9.54436948675,
			"-0.002": 14.3011250552,
			"-0.001": 13.707209595,
			"0.0": 19.288227103,
			"0.001": 24.4724375358,
			"0.002": 23.7121223564,
			"0.003": 15.8541633029,
			"0.004": 14.7892480671,
			"0.005": 7.8726680031,
			"0.006": 4.62907766373,
			"0.007": 3.84545381864,
			"0.008": 5.29717546134,
			"0.009": 4.83005862707,
			"0.01": 4.56392631532,
			"0.011": 3.8870270938,
			"0.012": 3.84822700494,
			"0.013": 3.06273132478,
			"0.014": 0.751575155037,
			"0.015": 0.0,
			"0.016": 0.0,
			"0.017": 0.0,
			"0.018": 0.0,
			"0.019": 0.0,
			"0.02": 0.0,
			"0.021": 0.0,
			"0.022": 0.0,
			"0.023": 0.0,
			"0.024": 0.0,
			"0.025": 0.0
		}
	}
}
