{
	 "smiles": "CNS(=O)(=O)C1=CC(C(O)=O)=C(C=C1)C1=CC(Cl)=C(Cl)C=C1", 
	 "Tm": 467.15, 
	 "num_atms": 33, 
	 "gaussian": { 
		 "optdone": 1, 
		 "sigma_profile": "yes", 
		 "theory": "DFT", 
		 "functional": "B3LYP", 
		 "basiset": "6-31G**", 
		 "properties": { 
			 "R2extent": 12166.0269, 
			 "electric_dipole_moment_norm": 6.30744021137, 
			 "electric_quadrupole_moment_norm": 23.785023577, 
			 "total_energy": -2214.27206805, 
			 "HOMO_LUMO_gap": 0.18519, 
			 "cosmo_polarized_energy": -24.73, 
			 "cosmo_cavitation_energy": 43.16, 
			 "cosmo_dispersion_energy": -30.63, 
			 "cosmo_repulsion_energy": 2.32, 
			 "cosmo_total_nonelectrostatic_energy": 14.85, 
			 "SMD_solvation_energy": 6.75 
		},
		"coords": [
			{
				"x": 3.9143842513,
				"y": 2.2089314908,
				"z": 2.17383175,
				"element": "C" 
			},
			{
				"x": 4.0268091043,
				"y": 0.9317158034,
				"z": 1.4582723647,
				"element": "N" 
			},
			{
				"x": 3.1535655391,
				"y": -0.3806960856,
				"z": 2.058932684,
				"element": "S" 
			},
			{
				"x": 2.8722472734,
				"y": -0.2176912393,
				"z": 3.4907576504,
				"element": "O" 
			},
			{
				"x": 3.8486693448,
				"y": -1.5641903206,
				"z": 1.5480234476,
				"element": "O" 
			},
			{
				"x": 1.5807624497,
				"y": -0.2065170304,
				"z": 1.204533742,
				"element": "C" 
			},
			{
				"x": 1.542917944,
				"y": -0.2195477386,
				"z": -0.1859138936,
				"element": "C" 
			},
			{
				"x": 0.3210857208,
				"y": -0.1171738186,
				"z": -0.8620795546,
				"element": "C" 
			},
			{
				"x": 0.4516724476,
				"y": -0.0413450258,
				"z": -2.3687088011,
				"element": "C" 
			},
			{
				"x": -0.5344765347,
				"y": 0.5619037484,
				"z": -3.0686444745,
				"element": "O" 
			},
			{
				"x": 1.4308464641,
				"y": -0.4555612637,
				"z": -2.9434337806,
				"element": "O" 
			},
			{
				"x": -0.8834861241,
				"y": -0.0566765289,
				"z": -0.1181216757,
				"element": "C" 
			},
			{
				"x": -0.8109386444,
				"y": -0.0480215866,
				"z": 1.2840919192,
				"element": "C" 
			},
			{
				"x": 0.4087601259,
				"y": -0.1133576211,
				"z": 1.9527803154,
				"element": "C" 
			},
			{
				"x": -2.2448417844,
				"y": -0.0449050051,
				"z": -0.7332529652,
				"element": "C" 
			},
			{
				"x": -2.6593116235,
				"y": -1.0840763474,
				"z": -1.5809797237,
				"element": "C" 
			},
			{
				"x": -3.9538537042,
				"y": -1.1128173981,
				"z": -2.1003140004,
				"element": "C" 
			},
			{
				"x": -4.4098291252,
				"y": -2.4376387174,
				"z": -3.1351381142,
				"element": "Cl" 
			},
			{
				"x": -4.8594611608,
				"y": -0.0898279271,
				"z": -1.7784300216,
				"element": "C" 
			},
			{
				"x": -6.484245361,
				"y": -0.0805882531,
				"z": -2.4049921357,
				"element": "Cl" 
			},
			{
				"x": -4.453541491,
				"y": 0.9486114763,
				"z": -0.9373928962,
				"element": "C" 
			},
			{
				"x": -3.1631574004,
				"y": 0.9699561299,
				"z": -0.4159300953,
				"element": "C" 
			},
			{
				"x": 2.8807072361,
				"y": 2.5605203262,
				"z": 2.1233317938,
				"element": "H" 
			},
			{
				"x": 4.2141538878,
				"y": 2.1475595311,
				"z": 3.225393452,
				"element": "H" 
			},
			{
				"x": 4.5413800945,
				"y": 2.9368178089,
				"z": 1.6538622496,
				"element": "H" 
			},
			{
				"x": 4.9813105534,
				"y": 0.6108009456,
				"z": 1.3139393026,
				"element": "H" 
			},
			{
				"x": 2.4518915986,
				"y": -0.2902859867,
				"z": -0.771943231,
				"element": "H" 
			},
			{
				"x": -1.2572577857,
				"y": 0.8433707238,
				"z": -2.4877177942,
				"element": "H" 
			},
			{
				"x": -1.7334508329,
				"y": -0.0194938668,
				"z": 1.855410195,
				"element": "H" 
			},
			{
				"x": 0.460730105,
				"y": -0.1105471687,
				"z": 3.0358505133,
				"element": "H" 
			},
			{
				"x": -1.9783444233,
				"y": -1.8898687855,
				"z": -1.8315007287,
				"element": "H" 
			},
			{
				"x": -5.1577152831,
				"y": 1.7375055643,
				"z": -0.697943462,
				"element": "H" 
			},
			{
				"x": -2.8619828618,
				"y": 1.7847341665,
				"z": 0.2349259685,
				"element": "H" 
			}
		],
		 "valence_orbital": [ 
			{
				"type": "occ",
				"energy": -0.29392,
				"method": "rhf"
			},
			{
				"type": "occ",
				"energy": -0.28464,
				"method": "rhf"
			},
			{
				"type": "occ",
				"energy": -0.28082,
				"method": "rhf"
			},
			{
				"type": "occ",
				"energy": -0.27623,
				"method": "rhf"
			},
			{
				"type": "occ",
				"energy": -0.26519,
				"method": "rhf"
			},
			{
				"type": "unocc",
				"energy": -0.08,
				"method": "rhf"
			},
			{
				"type": "unocc",
				"energy": -0.05969,
				"method": "rhf"
			},
			{
				"type": "unocc",
				"energy": -0.04807,
				"method": "rhf"
			},
			{
				"type": "unocc",
				"energy": -0.03812,
				"method": "rhf"
			},
			{
				"type": "unocc",
				"energy": -0.01333,
				"method": "rhf"
			}
		],
		"cosmo_sigma_profile": { 
			"-0.025": 0.0,
			"-0.024": 0.0,
			"-0.023": 0.0,
			"-0.022": 0.0,
			"-0.021": 0.0,
			"-0.02": 0.0,
			"-0.019": 0.0,
			"-0.018": 0.0,
			"-0.017": 0.0,
			"-0.016": 0.00971353723589,
			"-0.015": 0.537501277273,
			"-0.014": 2.03287507991,
			"-0.013": 1.60067501978,
			"-0.012": 2.0040351442,
			"-0.011": 3.33155139434,
			"-0.01": 1.53124350764,
			"-0.009": 4.37417752273,
			"-0.008": 9.9200382815,
			"-0.007": 14.1906465842,
			"-0.006": 17.7651382063,
			"-0.005": 17.1440436285,
			"-0.004": 19.4150477284,
			"-0.003": 23.9787383628,
			"-0.002": 24.3870320486,
			"-0.001": 29.5715347581,
			"0.0": 34.6714297746,
			"0.001": 23.3043118891,
			"0.002": 17.3894383463,
			"0.003": 20.7391444435,
			"0.004": 17.7462077336,
			"0.005": 6.9629262857,
			"0.006": 5.87700828487,
			"0.007": 5.87710938231,
			"0.008": 6.3258276426,
			"0.009": 7.08224956552,
			"0.01": 13.8858838626,
			"0.011": 13.3854876201,
			"0.012": 4.74855172825,
			"0.013": 0.625880395575,
			"0.014": 0.0,
			"0.015": 0.0,
			"0.016": 0.0,
			"0.017": 0.0,
			"0.018": 0.0,
			"0.019": 0.0,
			"0.02": 0.0,
			"0.021": 0.0,
			"0.022": 0.0,
			"0.023": 0.0,
			"0.024": 0.0,
			"0.025": 0.0
		}
	}
}
