{
	 "smiles": "OCC1OC(SC2=C(C=CC=C2)[N+]([O-])=O)C(O)C(O)C1O", 
	 "Tm": 473.15, 
	 "num_atms": 36, 
	 "gaussian": { 
		 "optdone": 1, 
		 "sigma_profile": "yes", 
		 "theory": "DFT", 
		 "functional": "B3LYP", 
		 "basiset": "6-31G**", 
		 "properties": { 
			 "R2extent": 6800.1577, 
			 "electric_dipole_moment_norm": 5.2328737019, 
			 "electric_quadrupole_moment_norm": 23.3471427896, 
			 "total_energy": -1445.6661731, 
			 "HOMO_LUMO_gap": 0.14519, 
			 "cosmo_polarized_energy": -21.17, 
			 "cosmo_cavitation_energy": 39.38, 
			 "cosmo_dispersion_energy": -27.87, 
			 "cosmo_repulsion_energy": 2.09, 
			 "cosmo_total_nonelectrostatic_energy": 13.59, 
			 "SMD_solvation_energy": 7.25 
		},
		"coords": [
			{
				"x": 1.41776193,
				"y": 2.2914058909,
				"z": 1.5644169862,
				"element": "O" 
			},
			{
				"x": 0.5845272515,
				"y": 1.486625636,
				"z": 2.3714007075,
				"element": "C" 
			},
			{
				"x": 0.9453602211,
				"y": 0.0009896814,
				"z": 2.2374549936,
				"element": "C" 
			},
			{
				"x": 0.922216688,
				"y": -0.4458456018,
				"z": 0.8595113889,
				"element": "O" 
			},
			{
				"x": -0.3626895419,
				"y": -0.5349336563,
				"z": 0.2882356,
				"element": "C" 
			},
			{
				"x": -0.1861207127,
				"y": -1.0748049957,
				"z": -1.4863672665,
				"element": "S" 
			},
			{
				"x": 1.4819995275,
				"y": -0.5915118227,
				"z": -1.919900271,
				"element": "C" 
			},
			{
				"x": 1.8773191799,
				"y": 0.6985752389,
				"z": -2.3197925779,
				"element": "C" 
			},
			{
				"x": 3.1510462518,
				"y": 0.962038171,
				"z": -2.8230960771,
				"element": "C" 
			},
			{
				"x": 4.0830291876,
				"y": -0.0679000292,
				"z": -2.9090642824,
				"element": "C" 
			},
			{
				"x": 3.7216295069,
				"y": -1.3570477857,
				"z": -2.51793213,
				"element": "C" 
			},
			{
				"x": 2.4357982436,
				"y": -1.6115589271,
				"z": -2.0405014428,
				"element": "C" 
			},
			{
				"x": 0.9744013074,
				"y": 1.8534166611,
				"z": -2.2398181475,
				"element": "N" 
			},
			{
				"x": 1.00235098,
				"y": 2.656317662,
				"z": -3.1664018768,
				"element": "O" 
			},
			{
				"x": 0.2618657787,
				"y": 1.9678944861,
				"z": -1.2373921779,
				"element": "O" 
			},
			{
				"x": -1.2068930473,
				"y": -1.5734405666,
				"z": 1.0386071071,
				"element": "C" 
			},
			{
				"x": -2.5386930112,
				"y": -1.6652419137,
				"z": 0.5433898568,
				"element": "O" 
			},
			{
				"x": -1.3033237825,
				"y": -1.1365547076,
				"z": 2.4988159864,
				"element": "C" 
			},
			{
				"x": -1.9662628973,
				"y": -2.1086198809,
				"z": 3.2942213824,
				"element": "O" 
			},
			{
				"x": 0.0939233979,
				"y": -0.953846322,
				"z": 3.0919996441,
				"element": "C" 
			},
			{
				"x": 0.026059798,
				"y": -0.4480515644,
				"z": 4.413560531,
				"element": "O" 
			},
			{
				"x": 1.2128922894,
				"y": 2.0771803218,
				"z": 0.6419838884,
				"element": "H" 
			},
			{
				"x": 0.7475101151,
				"y": 1.7770456218,
				"z": 3.4119578062,
				"element": "H" 
			},
			{
				"x": -0.4807523415,
				"y": 1.6628458502,
				"z": 2.155955547,
				"element": "H" 
			},
			{
				"x": 1.9972596748,
				"y": -0.1018472593,
				"z": 2.5176195229,
				"element": "H" 
			},
			{
				"x": -0.8781267265,
				"y": 0.4300809663,
				"z": 0.2722583544,
				"element": "H" 
			},
			{
				"x": 3.3920164506,
				"y": 1.972001598,
				"z": -3.1330235128,
				"element": "H" 
			},
			{
				"x": 5.0806445101,
				"y": 0.1374845713,
				"z": -3.2832322891,
				"element": "H" 
			},
			{
				"x": 4.4384189499,
				"y": -2.1696741344,
				"z": -2.585119012,
				"element": "H" 
			},
			{
				"x": 2.1489427615,
				"y": -2.6165999289,
				"z": -1.7529577145,
				"element": "H" 
			},
			{
				"x": -0.6959442272,
				"y": -2.5447770844,
				"z": 0.9922373995,
				"element": "H" 
			},
			{
				"x": -2.5451500739,
				"y": -2.2555329343,
				"z": -0.2210591723,
				"element": "H" 
			},
			{
				"x": -1.8464332882,
				"y": -0.1793024019,
				"z": 2.5392510567,
				"element": "H" 
			},
			{
				"x": -2.8289527693,
				"y": -2.2579985844,
				"z": 2.8820790334,
				"element": "H" 
			},
			{
				"x": 0.5786561618,
				"y": -1.9438143151,
				"z": 3.0794045169,
				"element": "H" 
			},
			{
				"x": -0.6180877436,
				"y": -1.0003979405,
				"z": 4.879696641,
				"element": "H" 
			}
		],
		 "valence_orbital": [ 
			{
				"type": "occ",
				"energy": -0.28206,
				"method": "rhf"
			},
			{
				"type": "occ",
				"energy": -0.27545,
				"method": "rhf"
			},
			{
				"type": "occ",
				"energy": -0.27386,
				"method": "rhf"
			},
			{
				"type": "occ",
				"energy": -0.25116,
				"method": "rhf"
			},
			{
				"type": "occ",
				"energy": -0.24307,
				"method": "rhf"
			},
			{
				"type": "unocc",
				"energy": -0.09788,
				"method": "rhf"
			},
			{
				"type": "unocc",
				"energy": -0.04534,
				"method": "rhf"
			},
			{
				"type": "unocc",
				"energy": -0.02571,
				"method": "rhf"
			},
			{
				"type": "unocc",
				"energy": 0.00951,
				"method": "rhf"
			},
			{
				"type": "unocc",
				"energy": 0.04151,
				"method": "rhf"
			}
		],
		"cosmo_sigma_profile": { 
			"-0.025": 0.0,
			"-0.024": 0.0,
			"-0.023": 0.0,
			"-0.022": 0.0,
			"-0.021": 0.0,
			"-0.02": 0.0,
			"-0.019": 0.0,
			"-0.018": 0.0,
			"-0.017": 0.0298074991041,
			"-0.016": 0.630014941632,
			"-0.015": 0.915083757707,
			"-0.014": 1.65980878706,
			"-0.013": 1.84206767832,
			"-0.012": 2.25473328907,
			"-0.011": 2.33584471737,
			"-0.01": 2.08188940049,
			"-0.009": 3.62017955083,
			"-0.008": 9.06415640258,
			"-0.007": 14.840550598,
			"-0.006": 18.1566984011,
			"-0.005": 17.8942902933,
			"-0.004": 21.4891621796,
			"-0.003": 18.1640290997,
			"-0.002": 17.7637458681,
			"-0.001": 20.2217289589,
			"0.0": 19.5287130996,
			"0.001": 22.7626789678,
			"0.002": 17.7587929499,
			"0.003": 13.1035559797,
			"0.004": 9.89068488699,
			"0.005": 12.8851271666,
			"0.006": 11.5669022774,
			"0.007": 13.2516437604,
			"0.008": 10.8502538221,
			"0.009": 8.9739131653,
			"0.01": 3.44201171252,
			"0.011": 4.79505685347,
			"0.012": 3.53566600587,
			"0.013": 2.98404699358,
			"0.014": 2.47651612471,
			"0.015": 0.650067568266,
			"0.016": 0.0,
			"0.017": 0.0,
			"0.018": 0.0,
			"0.019": 0.0,
			"0.02": 0.0,
			"0.021": 0.0,
			"0.022": 0.0,
			"0.023": 0.0,
			"0.024": 0.0,
			"0.025": 0.0
		}
	}
}
