{
	 "smiles": "CC(C)(C)C1CCC2=C(C1)SC1=C2C(S)=NC(S)=N1", 
	 "Tm": 575.15, 
	 "num_atms": 37, 
	 "gaussian": { 
		 "optdone": 1, 
		 "sigma_profile": "yes", 
		 "theory": "DFT", 
		 "functional": "B3LYP", 
		 "basiset": "6-31G**", 
		 "properties": { 
			 "R2extent": 12688.5077, 
			 "electric_dipole_moment_norm": 5.57940069721, 
			 "electric_quadrupole_moment_norm": 23.9718711979, 
			 "total_energy": -1848.42521554, 
			 "HOMO_LUMO_gap": 0.17015, 
			 "cosmo_polarized_energy": -10.81, 
			 "cosmo_cavitation_energy": 41.54, 
			 "cosmo_dispersion_energy": -31.37, 
			 "cosmo_repulsion_energy": 2.24, 
			 "cosmo_total_nonelectrostatic_energy": 12.42, 
			 "SMD_solvation_energy": 1.65 
		},
		"coords": [
			{
				"x": -1.8000647603,
				"y": -1.6141624049,
				"z": -1.3343065259,
				"element": "C" 
			},
			{
				"x": -0.3888287611,
				"y": -1.9308075383,
				"z": -0.7937732752,
				"element": "C" 
			},
			{
				"x": 0.3985245353,
				"y": -2.6278882927,
				"z": -1.9246905342,
				"element": "C" 
			},
			{
				"x": -0.5166999591,
				"y": -2.903729244,
				"z": 0.3966117123,
				"element": "C" 
			},
			{
				"x": 0.3420039776,
				"y": -0.6023982733,
				"z": -0.3975296932,
				"element": "C" 
			},
			{
				"x": 1.7216780925,
				"y": -0.8038633341,
				"z": 0.2581653106,
				"element": "C" 
			},
			{
				"x": 2.5116739833,
				"y": 0.5128490257,
				"z": 0.3560267581,
				"element": "C" 
			},
			{
				"x": 1.6672565,
				"y": 1.6391134951,
				"z": 0.9083856811,
				"element": "C" 
			},
			{
				"x": 0.3116074807,
				"y": 1.5001191232,
				"z": 0.9890469868,
				"element": "C" 
			},
			{
				"x": -0.4948103957,
				"y": 0.3218225213,
				"z": 0.5156549272,
				"element": "C" 
			},
			{
				"x": -0.4943176271,
				"y": 2.8802600077,
				"z": 1.729267329,
				"element": "S" 
			},
			{
				"x": 1.0428513327,
				"y": 3.6894466179,
				"z": 1.9432825106,
				"element": "C" 
			},
			{
				"x": 2.1196625793,
				"y": 2.9163526824,
				"z": 1.4330681717,
				"element": "C" 
			},
			{
				"x": 3.3698063196,
				"y": 3.5745593005,
				"z": 1.5439732969,
				"element": "C" 
			},
			{
				"x": 4.947508332,
				"y": 3.0039912741,
				"z": 0.9484663029,
				"element": "S" 
			},
			{
				"x": 3.4854340026,
				"y": 4.7622901407,
				"z": 2.1357642797,
				"element": "N" 
			},
			{
				"x": 2.3787843337,
				"y": 5.3501609098,
				"z": 2.6047388783,
				"element": "C" 
			},
			{
				"x": 2.6595553076,
				"y": 6.9185836707,
				"z": 3.3924311826,
				"element": "S" 
			},
			{
				"x": 1.1327591579,
				"y": 4.8848980293,
				"z": 2.5231096304,
				"element": "N" 
			},
			{
				"x": -2.2639768233,
				"y": -2.5211524276,
				"z": -1.7365092186,
				"element": "H" 
			},
			{
				"x": -2.4657897042,
				"y": -1.2284198337,
				"z": -0.5562480873,
				"element": "H" 
			},
			{
				"x": -1.7615229836,
				"y": -0.8756556439,
				"z": -2.1438036714,
				"element": "H" 
			},
			{
				"x": 1.4016142551,
				"y": -2.9310861543,
				"z": -1.6099463571,
				"element": "H" 
			},
			{
				"x": -0.1251841953,
				"y": -3.5329564741,
				"z": -2.2507708604,
				"element": "H" 
			},
			{
				"x": 0.5027815261,
				"y": -1.972599883,
				"z": -2.7971119653,
				"element": "H" 
			},
			{
				"x": -1.0611747363,
				"y": -2.4591511937,
				"z": 1.2365568985,
				"element": "H" 
			},
			{
				"x": -1.0674374996,
				"y": -3.8004107361,
				"z": 0.0921976753,
				"element": "H" 
			},
			{
				"x": 0.4607321862,
				"y": -3.2306758199,
				"z": 0.764756239,
				"element": "H" 
			},
			{
				"x": 0.5037765676,
				"y": -0.0532556377,
				"z": -1.3379951376,
				"element": "H" 
			},
			{
				"x": 1.5882021865,
				"y": -1.2092956146,
				"z": 1.2687296108,
				"element": "H" 
			},
			{
				"x": 2.322087222,
				"y": -1.5305228588,
				"z": -0.2964701216,
				"element": "H" 
			},
			{
				"x": 2.896067894,
				"y": 0.7814160408,
				"z": -0.6398496759,
				"element": "H" 
			},
			{
				"x": 3.385541641,
				"y": 0.3491187852,
				"z": 0.9971815483,
				"element": "H" 
			},
			{
				"x": -1.3811107958,
				"y": 0.6833043947,
				"z": -0.0164429037,
				"element": "H" 
			},
			{
				"x": -0.8686027325,
				"y": -0.2373387464,
				"z": 1.3852267488,
				"element": "H" 
			},
			{
				"x": 4.5170993556,
				"y": 1.928139534,
				"z": 0.2695786448,
				"element": "H" 
			},
			{
				"x": 1.362912205,
				"y": 7.1266445574,
				"z": 3.6909277035,
				"element": "H" 
			}
		],
		 "valence_orbital": [ 
			{
				"type": "occ",
				"energy": -0.28269,
				"method": "rhf"
			},
			{
				"type": "occ",
				"energy": -0.26411,
				"method": "rhf"
			},
			{
				"type": "occ",
				"energy": -0.26293,
				"method": "rhf"
			},
			{
				"type": "occ",
				"energy": -0.25145,
				"method": "rhf"
			},
			{
				"type": "occ",
				"energy": -0.21656,
				"method": "rhf"
			},
			{
				"type": "unocc",
				"energy": -0.04641,
				"method": "rhf"
			},
			{
				"type": "unocc",
				"energy": -0.03266,
				"method": "rhf"
			},
			{
				"type": "unocc",
				"energy": 0.00325,
				"method": "rhf"
			},
			{
				"type": "unocc",
				"energy": 0.02405,
				"method": "rhf"
			},
			{
				"type": "unocc",
				"energy": 0.02513,
				"method": "rhf"
			}
		],
		"cosmo_sigma_profile": { 
			"-0.025": 0.0,
			"-0.024": 0.0,
			"-0.023": 0.0,
			"-0.022": 0.0,
			"-0.021": 0.0,
			"-0.02": 0.0,
			"-0.019": 0.0,
			"-0.018": 0.0,
			"-0.017": 0.0,
			"-0.016": 0.0,
			"-0.015": 0.0,
			"-0.014": 0.0,
			"-0.013": 0.0,
			"-0.012": 0.0237990847609,
			"-0.011": 1.57681384619,
			"-0.01": 2.89354131468,
			"-0.009": 3.49837097461,
			"-0.008": 2.90958405747,
			"-0.007": 3.38740329144,
			"-0.006": 4.13934925099,
			"-0.005": 8.10057152392,
			"-0.004": 14.9889766581,
			"-0.003": 27.238428226,
			"-0.002": 51.0270564867,
			"-0.001": 37.5406854868,
			"0.0": 34.1114109528,
			"0.001": 37.4567345805,
			"0.002": 34.2448440034,
			"0.003": 19.0935431309,
			"0.004": 16.4083507894,
			"0.005": 10.1232858694,
			"0.006": 10.1500682595,
			"0.007": 6.59761430019,
			"0.008": 2.55405433264,
			"0.009": 2.2320710939,
			"0.01": 1.85602367299,
			"0.011": 1.68845440272,
			"0.012": 0.252730574068,
			"0.013": 0.0,
			"0.014": 0.0,
			"0.015": 0.0,
			"0.016": 0.0,
			"0.017": 0.0,
			"0.018": 0.0,
			"0.019": 0.0,
			"0.02": 0.0,
			"0.021": 0.0,
			"0.022": 0.0,
			"0.023": 0.0,
			"0.024": 0.0,
			"0.025": 0.0
		}
	}
}
