{
	 "smiles": "OC(=O)C(Cl)CCl", 
	 "Tm": 323.15, 
	 "num_atms": 11, 
	 "gaussian": { 
		 "optdone": 1, 
		 "sigma_profile": "yes", 
		 "theory": "DFT", 
		 "functional": "B3LYP", 
		 "basiset": "6-31G**", 
		 "properties": { 
			 "R2extent": 1347.8422, 
			 "electric_dipole_moment_norm": 2.63715352037, 
			 "electric_quadrupole_moment_norm": 5.49470227947, 
			 "total_energy": -1187.57271179, 
			 "HOMO_LUMO_gap": 0.24836, 
			 "cosmo_polarized_energy": -10.96, 
			 "cosmo_cavitation_energy": 18.99, 
			 "cosmo_dispersion_energy": -14.12, 
			 "cosmo_repulsion_energy": 1.22, 
			 "cosmo_total_nonelectrostatic_energy": 6.1, 
			 "SMD_solvation_energy": 3.92 
		},
		"coords": [
			{
				"x": -0.2250656014,
				"y": -1.9242034099,
				"z": 1.7627428734,
				"element": "O" 
			},
			{
				"x": -0.3710152418,
				"y": -0.6989694824,
				"z": 1.2300311752,
				"element": "C" 
			},
			{
				"x": -1.134814886,
				"y": 0.1395291646,
				"z": 1.6508139915,
				"element": "O" 
			},
			{
				"x": 0.535838983,
				"y": -0.5040395597,
				"z": 0.0161312724,
				"element": "C" 
			},
			{
				"x": 2.2339145011,
				"y": -0.2701173182,
				"z": 0.6200022161,
				"element": "Cl" 
			},
			{
				"x": 0.0601706894,
				"y": 0.6847233813,
				"z": -0.8049827275,
				"element": "C" 
			},
			{
				"x": 0.9400247928,
				"y": 0.8230007112,
				"z": -2.3716849569,
				"element": "Cl" 
			},
			{
				"x": -0.8052603067,
				"y": -1.9637623598,
				"z": 2.5421855919,
				"element": "H" 
			},
			{
				"x": 0.5562580288,
				"y": -1.418012269,
				"z": -0.5795573572,
				"element": "H" 
			},
			{
				"x": 0.1922855575,
				"y": 1.6167449955,
				"z": -0.2576518999,
				"element": "H" 
			},
			{
				"x": -0.9978365169,
				"y": 0.5582061463,
				"z": -1.0402301789,
				"element": "H" 
			}
		],
		 "valence_orbital": [ 
			{
				"type": "occ",
				"energy": -0.33315,
				"method": "rhf"
			},
			{
				"type": "occ",
				"energy": -0.32064,
				"method": "rhf"
			},
			{
				"type": "occ",
				"energy": -0.30987,
				"method": "rhf"
			},
			{
				"type": "occ",
				"energy": -0.30653,
				"method": "rhf"
			},
			{
				"type": "occ",
				"energy": -0.2955,
				"method": "rhf"
			},
			{
				"type": "unocc",
				"energy": -0.04714,
				"method": "rhf"
			},
			{
				"type": "unocc",
				"energy": 0.01308,
				"method": "rhf"
			},
			{
				"type": "unocc",
				"energy": 0.03678,
				"method": "rhf"
			},
			{
				"type": "unocc",
				"energy": 0.05929,
				"method": "rhf"
			},
			{
				"type": "unocc",
				"energy": 0.09926,
				"method": "rhf"
			}
		],
		"cosmo_sigma_profile": { 
			"-0.025": 0.0,
			"-0.024": 0.0,
			"-0.023": 0.0,
			"-0.022": 0.0,
			"-0.021": 0.0,
			"-0.02": 0.226303925628,
			"-0.019": 0.938921725228,
			"-0.018": 0.940228318107,
			"-0.017": 0.98586526425,
			"-0.016": 0.816235509687,
			"-0.015": 0.437715537162,
			"-0.014": 0.496184192424,
			"-0.013": 0.671147020033,
			"-0.012": 1.20050153144,
			"-0.011": 1.55492369156,
			"-0.01": 4.09477160905,
			"-0.009": 5.13413860485,
			"-0.008": 5.68837129695,
			"-0.007": 4.21943993352,
			"-0.006": 5.06864452066,
			"-0.005": 5.64271090262,
			"-0.004": 4.89357719484,
			"-0.003": 5.30327400359,
			"-0.002": 6.37327407646,
			"-0.001": 6.74849735796,
			"0.0": 8.12701461054,
			"0.001": 9.16234254169,
			"0.002": 7.77559123308,
			"0.003": 11.6413743999,
			"0.004": 13.7798203013,
			"0.005": 17.8969047806,
			"0.006": 9.83473964505,
			"0.007": 3.71312581696,
			"0.008": 2.74656218007,
			"0.009": 2.38764595081,
			"0.01": 4.34848448331,
			"0.011": 1.86143502457,
			"0.012": 0.0,
			"0.013": 0.0,
			"0.014": 0.0,
			"0.015": 0.0,
			"0.016": 0.0,
			"0.017": 0.0,
			"0.018": 0.0,
			"0.019": 0.0,
			"0.02": 0.0,
			"0.021": 0.0,
			"0.022": 0.0,
			"0.023": 0.0,
			"0.024": 0.0,
			"0.025": 0.0
		}
	}
}
