{
	 "smiles": "CC(=O)C1=CC=C(OCC2=CC=C(C=C2)[N+]([O-])=O)C=C1", 
	 "Tm": 403.15, 
	 "num_atms": 33, 
	 "gaussian": { 
		 "optdone": 1, 
		 "sigma_profile": "yes", 
		 "theory": "DFT", 
		 "functional": "B3LYP", 
		 "basiset": "6-31G**", 
		 "properties": { 
			 "R2extent": 11339.4396, 
			 "electric_dipole_moment_norm": 2.30061708678, 
			 "electric_quadrupole_moment_norm": 44.380287254, 
			 "total_energy": -934.975558756, 
			 "HOMO_LUMO_gap": 0.14936, 
			 "cosmo_polarized_energy": -16.89, 
			 "cosmo_cavitation_energy": 38.94, 
			 "cosmo_dispersion_energy": -28.02, 
			 "cosmo_repulsion_energy": 2.11, 
			 "cosmo_total_nonelectrostatic_energy": 13.04, 
			 "SMD_solvation_energy": 9.61 
		},
		"coords": [
			{
				"x": 4.2826509495,
				"y": 0.5731199504,
				"z": -5.2606962376,
				"element": "C" 
			},
			{
				"x": 3.8432012186,
				"y": 1.3950420757,
				"z": -4.0595558449,
				"element": "C" 
			},
			{
				"x": 4.2853048568,
				"y": 2.5218476169,
				"z": -3.8842792505,
				"element": "O" 
			},
			{
				"x": 2.8632825651,
				"y": 0.8011415189,
				"z": -3.0996935068,
				"element": "C" 
			},
			{
				"x": 2.4658972257,
				"y": 1.5673788335,
				"z": -1.9958142113,
				"element": "C" 
			},
			{
				"x": 1.5575364726,
				"y": 1.079449829,
				"z": -1.0612625193,
				"element": "C" 
			},
			{
				"x": 1.0262755385,
				"y": -0.207989225,
				"z": -1.2272416719,
				"element": "C" 
			},
			{
				"x": 0.1317730189,
				"y": -0.7904418805,
				"z": -0.3783726857,
				"element": "O" 
			},
			{
				"x": -0.3189321351,
				"y": -0.0566855778,
				"z": 0.7504978386,
				"element": "C" 
			},
			{
				"x": -1.3256699968,
				"y": -0.8805589406,
				"z": 1.5201594767,
				"element": "C" 
			},
			{
				"x": -1.9292694582,
				"y": -2.0145732874,
				"z": 0.9648615826,
				"element": "C" 
			},
			{
				"x": -2.8769994985,
				"y": -2.7354149718,
				"z": 1.6881153948,
				"element": "C" 
			},
			{
				"x": -3.2153097098,
				"y": -2.3057354395,
				"z": 2.9684406963,
				"element": "C" 
			},
			{
				"x": -2.6305867597,
				"y": -1.179707627,
				"z": 3.5463401481,
				"element": "C" 
			},
			{
				"x": -1.6827749634,
				"y": -0.4737492732,
				"z": 2.8141001817,
				"element": "C" 
			},
			{
				"x": -4.2161184419,
				"y": -3.062606467,
				"z": 3.7362320143,
				"element": "N" 
			},
			{
				"x": -4.7148685103,
				"y": -4.05324371,
				"z": 3.2033505068,
				"element": "O" 
			},
			{
				"x": -4.4941202153,
				"y": -2.6581904893,
				"z": 4.864950427,
				"element": "O" 
			},
			{
				"x": 1.4137183546,
				"y": -0.9897167983,
				"z": -2.3262064576,
				"element": "C" 
			},
			{
				"x": 2.3207960072,
				"y": -0.4879078034,
				"z": -3.2482967936,
				"element": "C" 
			},
			{
				"x": 4.759243273,
				"y": -0.361810604,
				"z": -4.9455227657,
				"element": "H" 
			},
			{
				"x": 4.9916906361,
				"y": 1.1609624975,
				"z": -5.8440922554,
				"element": "H" 
			},
			{
				"x": 3.4267325178,
				"y": 0.3071133781,
				"z": -5.8909356592,
				"element": "H" 
			},
			{
				"x": 2.8891924386,
				"y": 2.5604791281,
				"z": -1.8871377845,
				"element": "H" 
			},
			{
				"x": 1.274436226,
				"y": 1.6990722957,
				"z": -0.2188528776,
				"element": "H" 
			},
			{
				"x": 0.5284811222,
				"y": 0.2031826762,
				"z": 1.4008011141,
				"element": "H" 
			},
			{
				"x": -0.7832788221,
				"y": 0.8865939943,
				"z": 0.4244804924,
				"element": "H" 
			},
			{
				"x": -1.6479474224,
				"y": -2.3325763322,
				"z": -0.0315184055,
				"element": "H" 
			},
			{
				"x": -3.3545251283,
				"y": -3.6171281298,
				"z": 1.2794228619,
				"element": "H" 
			},
			{
				"x": -2.9186724886,
				"y": -0.8827979311,
				"z": 4.5468244276,
				"element": "H" 
			},
			{
				"x": -1.2137637659,
				"y": 0.4018020284,
				"z": 3.2556064053,
				"element": "H" 
			},
			{
				"x": 0.9906151707,
				"y": -1.9830848592,
				"z": -2.432164392,
				"element": "H" 
			},
			{
				"x": 2.6064097246,
				"y": -1.1094664758,
				"z": -4.0907402491,
				"element": "H" 
			}
		],
		 "valence_orbital": [ 
			{
				"type": "occ",
				"energy": -0.28344,
				"method": "rhf"
			},
			{
				"type": "occ",
				"energy": -0.28065,
				"method": "rhf"
			},
			{
				"type": "occ",
				"energy": -0.27102,
				"method": "rhf"
			},
			{
				"type": "occ",
				"energy": -0.24864,
				"method": "rhf"
			},
			{
				"type": "occ",
				"energy": -0.24122,
				"method": "rhf"
			},
			{
				"type": "unocc",
				"energy": -0.09186,
				"method": "rhf"
			},
			{
				"type": "unocc",
				"energy": -0.05367,
				"method": "rhf"
			},
			{
				"type": "unocc",
				"energy": -0.03307,
				"method": "rhf"
			},
			{
				"type": "unocc",
				"energy": -0.01986,
				"method": "rhf"
			},
			{
				"type": "unocc",
				"energy": -0.00462,
				"method": "rhf"
			}
		],
		"cosmo_sigma_profile": { 
			"-0.025": 0.0,
			"-0.024": 0.0,
			"-0.023": 0.0,
			"-0.022": 0.0,
			"-0.021": 0.0,
			"-0.02": 0.0,
			"-0.019": 0.0,
			"-0.018": 0.0,
			"-0.017": 0.0,
			"-0.016": 0.0,
			"-0.015": 0.0,
			"-0.014": 0.0,
			"-0.013": 0.0,
			"-0.012": 0.0,
			"-0.011": 0.0,
			"-0.01": 0.0,
			"-0.009": 0.0224002352767,
			"-0.008": 5.48648090168,
			"-0.007": 18.1919962503,
			"-0.006": 23.4448122309,
			"-0.005": 22.9336434486,
			"-0.004": 20.5086312464,
			"-0.003": 18.6169251174,
			"-0.002": 19.602571403,
			"-0.001": 24.0394274956,
			"0.0": 21.1766846549,
			"0.001": 24.5854996228,
			"0.002": 27.805161798,
			"0.003": 18.2752311434,
			"0.004": 14.7310908362,
			"0.005": 5.81350396591,
			"0.006": 6.24977620222,
			"0.007": 10.1168518467,
			"0.008": 9.26693343975,
			"0.009": 6.21490641888,
			"0.01": 4.76939320717,
			"0.011": 2.38435393555,
			"0.012": 4.38952482875,
			"0.013": 2.4725259875,
			"0.014": 0.56712007988,
			"0.015": 0.0,
			"0.016": 0.0,
			"0.017": 0.0,
			"0.018": 0.0,
			"0.019": 0.0,
			"0.02": 0.0,
			"0.021": 0.0,
			"0.022": 0.0,
			"0.023": 0.0,
			"0.024": 0.0,
			"0.025": 0.0
		}
	}
}
