{
	 "smiles": "NC(=S)CN1C(=O)CCC1=O", 
	 "Tm": 430.15, 
	 "num_atms": 19, 
	 "gaussian": { 
		 "optdone": 1, 
		 "sigma_profile": "yes", 
		 "theory": "DFT", 
		 "functional": "B3LYP", 
		 "basiset": "6-31G**", 
		 "properties": { 
			 "R2extent": 2516.5781, 
			 "electric_dipole_moment_norm": 5.87749071373, 
			 "electric_quadrupole_moment_norm": 17.3912539712, 
			 "total_energy": -891.639871771, 
			 "HOMO_LUMO_gap": 0.16793, 
			 "cosmo_polarized_energy": -20.08, 
			 "cosmo_cavitation_energy": 24.63, 
			 "cosmo_dispersion_energy": -18.48, 
			 "cosmo_repulsion_energy": 1.47, 
			 "cosmo_total_nonelectrostatic_energy": 7.62, 
			 "SMD_solvation_energy": 4.23 
		},
		"coords": [
			{
				"x": -0.2583753439,
				"y": -2.1842871392,
				"z": 1.7908505017,
				"element": "N" 
			},
			{
				"x": -1.4440473687,
				"y": -1.8639922646,
				"z": 1.2489849936,
				"element": "C" 
			},
			{
				"x": -2.8364570889,
				"y": -1.6248822167,
				"z": 2.1217664255,
				"element": "S" 
			},
			{
				"x": -1.4291198292,
				"y": -1.7819264902,
				"z": -0.2816005297,
				"element": "C" 
			},
			{
				"x": -0.5407778775,
				"y": -0.7488553197,
				"z": -0.8228433356,
				"element": "N" 
			},
			{
				"x": -1.0386617696,
				"y": 0.419004162,
				"z": -1.4378026233,
				"element": "C" 
			},
			{
				"x": -2.2113695403,
				"y": 0.6846154662,
				"z": -1.5520896398,
				"element": "O" 
			},
			{
				"x": 0.1585255058,
				"y": 1.2307388952,
				"z": -1.9202155517,
				"element": "C" 
			},
			{
				"x": 1.3834341341,
				"y": 0.3452989545,
				"z": -1.6451068878,
				"element": "C" 
			},
			{
				"x": 0.8365142792,
				"y": -0.8694764849,
				"z": -0.9091972638,
				"element": "C" 
			},
			{
				"x": 1.4812121501,
				"y": -1.8061958827,
				"z": -0.4621520567,
				"element": "O" 
			},
			{
				"x": -0.1922522472,
				"y": -2.2663308103,
				"z": 2.7951141355,
				"element": "H" 
			},
			{
				"x": 0.5623819994,
				"y": -2.3216953903,
				"z": 1.2057596199,
				"element": "H" 
			},
			{
				"x": -1.108560253,
				"y": -2.7484873581,
				"z": -0.6877245149,
				"element": "H" 
			},
			{
				"x": -2.43112982,
				"y": -1.5455677702,
				"z": -0.6334550911,
				"element": "H" 
			},
			{
				"x": 0.1796963599,
				"y": 2.1752469567,
				"z": -1.368227567,
				"element": "H" 
			},
			{
				"x": 0.0168467024,
				"y": 1.4786616143,
				"z": -2.9749719765,
				"element": "H" 
			},
			{
				"x": 2.1476808781,
				"y": 0.8214031933,
				"z": -1.0251600387,
				"element": "H" 
			},
			{
				"x": 1.8809591292,
				"y": 0.0013278849,
				"z": -2.5570285997,
				"element": "H" 
			}
		],
		 "valence_orbital": [ 
			{
				"type": "occ",
				"energy": -0.30716,
				"method": "rhf"
			},
			{
				"type": "occ",
				"energy": -0.29878,
				"method": "rhf"
			},
			{
				"type": "occ",
				"energy": -0.27934,
				"method": "rhf"
			},
			{
				"type": "occ",
				"energy": -0.23285,
				"method": "rhf"
			},
			{
				"type": "occ",
				"energy": -0.20837,
				"method": "rhf"
			},
			{
				"type": "unocc",
				"energy": -0.04044,
				"method": "rhf"
			},
			{
				"type": "unocc",
				"energy": -0.03682,
				"method": "rhf"
			},
			{
				"type": "unocc",
				"energy": 0.00389,
				"method": "rhf"
			},
			{
				"type": "unocc",
				"energy": 0.07164,
				"method": "rhf"
			},
			{
				"type": "unocc",
				"energy": 0.08034,
				"method": "rhf"
			}
		],
		"cosmo_sigma_profile": { 
			"-0.025": 0.0,
			"-0.024": 0.0,
			"-0.023": 0.0,
			"-0.022": 0.0,
			"-0.021": 0.0,
			"-0.02": 0.0,
			"-0.019": 0.0,
			"-0.018": 0.0,
			"-0.017": 0.0,
			"-0.016": 0.0267594103149,
			"-0.015": 0.764615179279,
			"-0.014": 1.3021146673,
			"-0.013": 0.920684833395,
			"-0.012": 1.41036554703,
			"-0.011": 1.3571057567,
			"-0.01": 1.7419658099,
			"-0.009": 2.27542004458,
			"-0.008": 10.6055500088,
			"-0.007": 19.788835765,
			"-0.006": 15.6803433691,
			"-0.005": 14.1165972565,
			"-0.004": 12.2112786822,
			"-0.003": 12.2410132295,
			"-0.002": 7.50426916343,
			"-0.001": 5.26240202843,
			"0.0": 5.26618052415,
			"0.001": 5.67495174226,
			"0.002": 5.22131321158,
			"0.003": 5.31684163839,
			"0.004": 5.91819400155,
			"0.005": 7.48721577814,
			"0.006": 6.14717472322,
			"0.007": 7.28004193876,
			"0.008": 9.54441971658,
			"0.009": 8.45653667524,
			"0.01": 9.34604438682,
			"0.011": 10.3271817891,
			"0.012": 4.85680826232,
			"0.013": 0.349263003461,
			"0.014": 0.0,
			"0.015": 0.0,
			"0.016": 0.0,
			"0.017": 0.0,
			"0.018": 0.0,
			"0.019": 0.0,
			"0.02": 0.0,
			"0.021": 0.0,
			"0.022": 0.0,
			"0.023": 0.0,
			"0.024": 0.0,
			"0.025": 0.0
		}
	}
}
