{
	 "smiles": "CC1=NC=CC(NC(=O)OC(C)(C)C)=C1", 
	 "Tm": 441.15, 
	 "num_atms": 31, 
	 "gaussian": { 
		 "optdone": 1, 
		 "sigma_profile": "yes", 
		 "theory": "DFT", 
		 "functional": "B3LYP", 
		 "basiset": "6-31G**", 
		 "properties": { 
			 "R2extent": 5060.0648, 
			 "electric_dipole_moment_norm": 2.0329977816, 
			 "electric_quadrupole_moment_norm": 11.6290063118, 
			 "total_energy": -688.809247277, 
			 "HOMO_LUMO_gap": 0.22072, 
			 "cosmo_polarized_energy": -11.74, 
			 "cosmo_cavitation_energy": 33.77, 
			 "cosmo_dispersion_energy": -23.43, 
			 "cosmo_repulsion_energy": 1.83, 
			 "cosmo_total_nonelectrostatic_energy": 12.17, 
			 "SMD_solvation_energy": 5.63 
		},
		"coords": [
			{
				"x": -0.8204595472,
				"y": -2.6054686709,
				"z": 2.8322579457,
				"element": "C" 
			},
			{
				"x": -1.0255361461,
				"y": -3.127894842,
				"z": 1.4297032225,
				"element": "C" 
			},
			{
				"x": -1.2596700518,
				"y": -4.4433868046,
				"z": 1.3057743076,
				"element": "N" 
			},
			{
				"x": -1.442415336,
				"y": -4.9125451456,
				"z": 0.0633041481,
				"element": "C" 
			},
			{
				"x": -1.4041486462,
				"y": -4.1304813572,
				"z": -1.0811721693,
				"element": "C" 
			},
			{
				"x": -1.1586273421,
				"y": -2.7508746564,
				"z": -0.9516914035,
				"element": "C" 
			},
			{
				"x": -1.1284358151,
				"y": -1.9977951242,
				"z": -2.1322880127,
				"element": "N" 
			},
			{
				"x": -0.9233980584,
				"y": -0.6570889423,
				"z": -2.4203346532,
				"element": "C" 
			},
			{
				"x": -0.9529037569,
				"y": -0.2634698561,
				"z": -3.5736942772,
				"element": "O" 
			},
			{
				"x": -0.7045754678,
				"y": 0.0850082104,
				"z": -1.3240731092,
				"element": "O" 
			},
			{
				"x": -0.4653066303,
				"y": 1.542391313,
				"z": -1.4358934519,
				"element": "C" 
			},
			{
				"x": -1.6958037278,
				"y": 2.2256616503,
				"z": -2.0392651856,
				"element": "C" 
			},
			{
				"x": -0.2721031329,
				"y": 1.9576995053,
				"z": 0.024246078,
				"element": "C" 
			},
			{
				"x": 0.8068510048,
				"y": 1.798762408,
				"z": -2.2488884395,
				"element": "C" 
			},
			{
				"x": -0.9661407837,
				"y": -2.2484051012,
				"z": 0.3396242917,
				"element": "C" 
			},
			{
				"x": -0.9015308588,
				"y": -3.4287592787,
				"z": 3.5434047453,
				"element": "H" 
			},
			{
				"x": -1.567823433,
				"y": -1.845067977,
				"z": 3.0862285418,
				"element": "H" 
			},
			{
				"x": 0.1655896141,
				"y": -2.1398502875,
				"z": 2.9425621878,
				"element": "H" 
			},
			{
				"x": -1.6313594916,
				"y": -5.9815564306,
				"z": -0.0215606363,
				"element": "H" 
			},
			{
				"x": -1.5613327239,
				"y": -4.5782859265,
				"z": -2.0587374709,
				"element": "H" 
			},
			{
				"x": -1.2880068316,
				"y": -2.5150042659,
				"z": -2.9859079465,
				"element": "H" 
			},
			{
				"x": -1.5598699388,
				"y": 3.3114723886,
				"z": -2.0082640544,
				"element": "H" 
			},
			{
				"x": -2.5908383425,
				"y": 1.9794113386,
				"z": -1.4594312516,
				"element": "H" 
			},
			{
				"x": -1.8474674928,
				"y": 1.9193960195,
				"z": -3.0743022901,
				"element": "H" 
			},
			{
				"x": 0.5800574237,
				"y": 1.4341803168,
				"z": 0.4674917396,
				"element": "H" 
			},
			{
				"x": -1.1655223141,
				"y": 1.7319751316,
				"z": 0.6137996373,
				"element": "H" 
			},
			{
				"x": -0.0836227291,
				"y": 3.0335743233,
				"z": 0.0832525003,
				"element": "H" 
			},
			{
				"x": 0.6798404323,
				"y": 1.4883108666,
				"z": -3.285998151,
				"element": "H" 
			},
			{
				"x": 1.6521795167,
				"y": 1.2557061747,
				"z": -1.8147850833,
				"element": "H" 
			},
			{
				"x": 1.0428889489,
				"y": 2.8675049064,
				"z": -2.2263000876,
				"element": "H" 
			},
			{
				"x": -0.774108342,
				"y": -1.1980198865,
				"z": 0.4994383281,
				"element": "H" 
			}
		],
		 "valence_orbital": [ 
			{
				"type": "occ",
				"energy": -0.30218,
				"method": "rhf"
			},
			{
				"type": "occ",
				"energy": -0.27887,
				"method": "rhf"
			},
			{
				"type": "occ",
				"energy": -0.25042,
				"method": "rhf"
			},
			{
				"type": "occ",
				"energy": -0.248,
				"method": "rhf"
			},
			{
				"type": "occ",
				"energy": -0.23733,
				"method": "rhf"
			},
			{
				"type": "unocc",
				"energy": -0.01661,
				"method": "rhf"
			},
			{
				"type": "unocc",
				"energy": -0.00705,
				"method": "rhf"
			},
			{
				"type": "unocc",
				"energy": 0.05547,
				"method": "rhf"
			},
			{
				"type": "unocc",
				"energy": 0.07199,
				"method": "rhf"
			},
			{
				"type": "unocc",
				"energy": 0.07962,
				"method": "rhf"
			}
		],
		"cosmo_sigma_profile": { 
			"-0.025": 0.0,
			"-0.024": 0.0,
			"-0.023": 0.0,
			"-0.022": 0.0,
			"-0.021": 0.0,
			"-0.02": 0.0,
			"-0.019": 0.0,
			"-0.018": 0.0,
			"-0.017": 0.0,
			"-0.016": 0.0,
			"-0.015": 0.687235793011,
			"-0.014": 1.27872518987,
			"-0.013": 1.33821110126,
			"-0.012": 0.756048236911,
			"-0.011": 1.16021660156,
			"-0.01": 1.58078136361,
			"-0.009": 1.10794294471,
			"-0.008": 1.64777393202,
			"-0.007": 1.92550635728,
			"-0.006": 3.54155696796,
			"-0.005": 7.72251193826,
			"-0.004": 21.3090349777,
			"-0.003": 27.3945599589,
			"-0.002": 28.7372960791,
			"-0.001": 31.7483990524,
			"0.0": 38.928438553,
			"0.001": 23.2637080537,
			"0.002": 14.8678557843,
			"0.003": 17.5047839623,
			"0.004": 7.74717921007,
			"0.005": 4.19325155764,
			"0.006": 3.7557628171,
			"0.007": 2.40941505956,
			"0.008": 3.29621994815,
			"0.009": 2.82385919121,
			"0.01": 2.72058383504,
			"0.011": 2.40912952003,
			"0.012": 3.6669568387,
			"0.013": 2.89436327178,
			"0.014": 1.29692800706,
			"0.015": 0.827993219846,
			"0.016": 0.667381409039,
			"0.017": 0.495191596531,
			"0.018": 0.0443956653803,
			"0.019": 0.0,
			"0.02": 0.0,
			"0.021": 0.0,
			"0.022": 0.0,
			"0.023": 0.0,
			"0.024": 0.0,
			"0.025": 0.0
		}
	}
}
