{
	 "smiles": "ClC(=O)C1=CC2=C(ON=C2C=C1)C1=CC=C(Cl)C=C1", 
	 "Tm": 453.5, 
	 "num_atms": 26, 
	 "gaussian": { 
		 "optdone": 1, 
		 "sigma_profile": "yes", 
		 "theory": "DFT", 
		 "functional": "B3LYP", 
		 "basiset": "6-31G**", 
		 "properties": { 
			 "R2extent": 8946.5768, 
			 "electric_dipole_moment_norm": 2.1517565406, 
			 "electric_quadrupole_moment_norm": 11.1492422644, 
			 "total_energy": -1663.24952898, 
			 "HOMO_LUMO_gap": 0.12701, 
			 "cosmo_polarized_energy": -10.92, 
			 "cosmo_cavitation_energy": 35.57, 
			 "cosmo_dispersion_energy": -26.23, 
			 "cosmo_repulsion_energy": 1.97, 
			 "cosmo_total_nonelectrostatic_energy": 11.31, 
			 "SMD_solvation_energy": 5.63 
		},
		"coords": [
			{
				"x": 5.3930203469,
				"y": 3.3111811455,
				"z": 0.0544347128,
				"element": "Cl" 
			},
			{
				"x": 3.8597851652,
				"y": 2.4439387821,
				"z": 0.5474394873,
				"element": "C" 
			},
			{
				"x": 3.3984290984,
				"y": 2.6683423372,
				"z": 1.627873706,
				"element": "O" 
			},
			{
				"x": 3.3080541353,
				"y": 1.5117050104,
				"z": -0.4618984244,
				"element": "C" 
			},
			{
				"x": 2.1450794651,
				"y": 0.8575643371,
				"z": -0.0920476563,
				"element": "C" 
			},
			{
				"x": 1.5610763941,
				"y": -0.047934694,
				"z": -1.0040239221,
				"element": "C" 
			},
			{
				"x": 0.4285928382,
				"y": -0.8638946199,
				"z": -1.0274363062,
				"element": "C" 
			},
			{
				"x": 0.379179073,
				"y": -1.4667292464,
				"z": -2.226071107,
				"element": "O" 
			},
			{
				"x": 1.4539096904,
				"y": -1.0983093638,
				"z": -3.0445487272,
				"element": "N" 
			},
			{
				"x": 2.1529273525,
				"y": -0.2529782905,
				"z": -2.3008166349,
				"element": "C" 
			},
			{
				"x": 3.3553017222,
				"y": 0.428670742,
				"z": -2.6615076877,
				"element": "C" 
			},
			{
				"x": 3.9090611492,
				"y": 1.2829787776,
				"z": -1.7508732605,
				"element": "C" 
			},
			{
				"x": -0.6432795136,
				"y": -1.1616923734,
				"z": -0.0889141821,
				"element": "C" 
			},
			{
				"x": -1.8560332544,
				"y": -1.7074126863,
				"z": -0.5512212873,
				"element": "C" 
			},
			{
				"x": -2.8893956433,
				"y": -1.9915905019,
				"z": 0.3336319931,
				"element": "C" 
			},
			{
				"x": -2.7163506429,
				"y": -1.7316332372,
				"z": 1.6950143252,
				"element": "C" 
			},
			{
				"x": -4.0172068068,
				"y": -2.0842518415,
				"z": 2.8122760761,
				"element": "Cl" 
			},
			{
				"x": -1.5199843168,
				"y": -1.1999458598,
				"z": 2.1791530245,
				"element": "C" 
			},
			{
				"x": -0.4889940984,
				"y": -0.9206634639,
				"z": 1.2881226903,
				"element": "C" 
			},
			{
				"x": 1.7087753704,
				"y": 1.0683135321,
				"z": 0.8768055976,
				"element": "H" 
			},
			{
				"x": 3.801431835,
				"y": 0.2643727988,
				"z": -3.6356894041,
				"element": "H" 
			},
			{
				"x": 4.8203249008,
				"y": 1.8140871736,
				"z": -1.9953784535,
				"element": "H" 
			},
			{
				"x": -1.9856132611,
				"y": -1.9001553186,
				"z": -1.6103111504,
				"element": "H" 
			},
			{
				"x": -3.8242362762,
				"y": -2.4069300624,
				"z": -0.0253517202,
				"element": "H" 
			},
			{
				"x": -1.3958512955,
				"y": -1.0172400037,
				"z": 3.2404397072,
				"element": "H" 
			},
			{
				"x": 0.4497965725,
				"y": -0.5416930731,
				"z": 1.6752986036,
				"element": "H" 
			}
		],
		 "valence_orbital": [ 
			{
				"type": "occ",
				"energy": -0.29957,
				"method": "rhf"
			},
			{
				"type": "occ",
				"energy": -0.29861,
				"method": "rhf"
			},
			{
				"type": "occ",
				"energy": -0.28889,
				"method": "rhf"
			},
			{
				"type": "occ",
				"energy": -0.27925,
				"method": "rhf"
			},
			{
				"type": "occ",
				"energy": -0.23449,
				"method": "rhf"
			},
			{
				"type": "unocc",
				"energy": -0.10748,
				"method": "rhf"
			},
			{
				"type": "unocc",
				"energy": -0.05765,
				"method": "rhf"
			},
			{
				"type": "unocc",
				"energy": -0.04081,
				"method": "rhf"
			},
			{
				"type": "unocc",
				"energy": -0.03739,
				"method": "rhf"
			},
			{
				"type": "unocc",
				"energy": 0.01213,
				"method": "rhf"
			}
		],
		"cosmo_sigma_profile": { 
			"-0.025": 0.0,
			"-0.024": 0.0,
			"-0.023": 0.0,
			"-0.022": 0.0,
			"-0.021": 0.0,
			"-0.02": 0.0,
			"-0.019": 0.0,
			"-0.018": 0.0,
			"-0.017": 0.0,
			"-0.016": 0.0,
			"-0.015": 0.0,
			"-0.014": 0.0,
			"-0.013": 0.0,
			"-0.012": 0.0,
			"-0.011": 0.248209842631,
			"-0.01": 1.46629147322,
			"-0.009": 2.00500489103,
			"-0.008": 7.82321325644,
			"-0.007": 11.7889038825,
			"-0.006": 11.7415724246,
			"-0.005": 9.88564836028,
			"-0.004": 14.1275680876,
			"-0.003": 19.9665310425,
			"-0.002": 24.5203135465,
			"-0.001": 28.514268757,
			"0.0": 30.2883494889,
			"0.001": 32.1801831479,
			"0.002": 26.7105268148,
			"0.003": 15.5847638642,
			"0.004": 19.4614051359,
			"0.005": 9.20260564479,
			"0.006": 6.12243753165,
			"0.007": 4.75918276434,
			"0.008": 5.26006958446,
			"0.009": 5.03729584748,
			"0.01": 1.97738562179,
			"0.011": 1.47387633291,
			"0.012": 1.25573022181,
			"0.013": 1.34292285185,
			"0.014": 0.503914738979,
			"0.015": 0.0,
			"0.016": 0.0,
			"0.017": 0.0,
			"0.018": 0.0,
			"0.019": 0.0,
			"0.02": 0.0,
			"0.021": 0.0,
			"0.022": 0.0,
			"0.023": 0.0,
			"0.024": 0.0,
			"0.025": 0.0
		}
	}
}
