{
	 "smiles": "CC1=C(C=CC(=C1)N1C=CC=C1)C(O)=O", 
	 "Tm": 424.15, 
	 "num_atms": 26, 
	 "gaussian": { 
		 "optdone": 1, 
		 "sigma_profile": "yes", 
		 "theory": "DFT", 
		 "functional": "B3LYP", 
		 "basiset": "6-31G**", 
		 "properties": { 
			 "R2extent": 4046.8275, 
			 "electric_dipole_moment_norm": 1.68304874855, 
			 "electric_quadrupole_moment_norm": 11.0912823172, 
			 "total_energy": -669.115039052, 
			 "HOMO_LUMO_gap": 0.16398, 
			 "cosmo_polarized_energy": -10.84, 
			 "cosmo_cavitation_energy": 30.01, 
			 "cosmo_dispersion_energy": -22.03, 
			 "cosmo_repulsion_energy": 1.68, 
			 "cosmo_total_nonelectrostatic_energy": 9.67, 
			 "SMD_solvation_energy": 7.0 
		},
		"coords": [
			{
				"x": 0.9217600986,
				"y": 2.7460279674,
				"z": -1.2473157964,
				"element": "C" 
			},
			{
				"x": 0.2535337928,
				"y": 1.6851342318,
				"z": -0.4020317485,
				"element": "C" 
			},
			{
				"x": -0.3237663967,
				"y": 1.9192681537,
				"z": 0.8711744607,
				"element": "C" 
			},
			{
				"x": -0.9057449364,
				"y": 0.8486523745,
				"z": 1.5708524947,
				"element": "C" 
			},
			{
				"x": -0.943477797,
				"y": -0.4346727838,
				"z": 1.0503042796,
				"element": "C" 
			},
			{
				"x": -0.371398809,
				"y": -0.6780030232,
				"z": -0.2052003678,
				"element": "C" 
			},
			{
				"x": 0.2206269567,
				"y": 0.3804368293,
				"z": -0.9051319265,
				"element": "C" 
			},
			{
				"x": -0.388520694,
				"y": -1.9749586175,
				"z": -0.7604382653,
				"element": "N" 
			},
			{
				"x": -0.3505242221,
				"y": -3.1626670636,
				"z": -0.0437558263,
				"element": "C" 
			},
			{
				"x": -0.3801942968,
				"y": -4.2065461377,
				"z": -0.9350655707,
				"element": "C" 
			},
			{
				"x": -0.4496774048,
				"y": -3.6473559686,
				"z": -2.2469485818,
				"element": "C" 
			},
			{
				"x": -0.4472860739,
				"y": -2.280921693,
				"z": -2.1127409555,
				"element": "C" 
			},
			{
				"x": -0.3865862162,
				"y": 3.2274666184,
				"z": 1.5783824501,
				"element": "C" 
			},
			{
				"x": 0.1528948043,
				"y": 4.2726386944,
				"z": 0.9002738736,
				"element": "O" 
			},
			{
				"x": -0.8787454312,
				"y": 3.3867381665,
				"z": 2.6806010277,
				"element": "O" 
			},
			{
				"x": 1.7542928535,
				"y": 3.2174715618,
				"z": -0.718827555,
				"element": "H" 
			},
			{
				"x": 1.302268321,
				"y": 2.3054900327,
				"z": -2.1722837624,
				"element": "H" 
			},
			{
				"x": 0.2268929038,
				"y": 3.5494282113,
				"z": -1.5057520556,
				"element": "H" 
			},
			{
				"x": -1.3466445093,
				"y": 1.061590747,
				"z": 2.5382261929,
				"element": "H" 
			},
			{
				"x": -1.4352538441,
				"y": -1.2337820219,
				"z": 1.5932349616,
				"element": "H" 
			},
			{
				"x": 0.6955155312,
				"y": 0.1771760865,
				"z": -1.8589695506,
				"element": "H" 
			},
			{
				"x": -0.2512017345,
				"y": -3.1538152601,
				"z": 1.0303357997,
				"element": "H" 
			},
			{
				"x": -0.3450091819,
				"y": -5.2557525474,
				"z": -0.6774583753,
				"element": "H" 
			},
			{
				"x": -0.5071271637,
				"y": -4.1882368152,
				"z": -3.1810851056,
				"element": "H" 
			},
			{
				"x": -0.5382441177,
				"y": -1.499011754,
				"z": -2.8502141024,
				"element": "H" 
			},
			{
				"x": 0.0339175675,
				"y": 5.0396040109,
				"z": 1.4853340051,
				"element": "H" 
			}
		],
		 "valence_orbital": [ 
			{
				"type": "occ",
				"energy": -0.28146,
				"method": "rhf"
			},
			{
				"type": "occ",
				"energy": -0.27706,
				"method": "rhf"
			},
			{
				"type": "occ",
				"energy": -0.25941,
				"method": "rhf"
			},
			{
				"type": "occ",
				"energy": -0.22574,
				"method": "rhf"
			},
			{
				"type": "occ",
				"energy": -0.21655,
				"method": "rhf"
			},
			{
				"type": "unocc",
				"energy": -0.05257,
				"method": "rhf"
			},
			{
				"type": "unocc",
				"energy": -0.0133,
				"method": "rhf"
			},
			{
				"type": "unocc",
				"energy": 0.02519,
				"method": "rhf"
			},
			{
				"type": "unocc",
				"energy": 0.06762,
				"method": "rhf"
			},
			{
				"type": "unocc",
				"energy": 0.07459,
				"method": "rhf"
			}
		],
		"cosmo_sigma_profile": { 
			"-0.025": 0.0,
			"-0.024": 0.0,
			"-0.023": 0.0,
			"-0.022": 0.0,
			"-0.021": 0.0,
			"-0.02": 0.0,
			"-0.019": 0.0,
			"-0.018": 0.411348436262,
			"-0.017": 0.688454554433,
			"-0.016": 1.16108204462,
			"-0.015": 0.7239383107,
			"-0.014": 0.519266601816,
			"-0.013": 0.907422599242,
			"-0.012": 0.56864239844,
			"-0.011": 0.756538318918,
			"-0.01": 0.833146134928,
			"-0.009": 0.487332320671,
			"-0.008": 2.91787185578,
			"-0.007": 7.56074607575,
			"-0.006": 11.5115539947,
			"-0.005": 13.2643630728,
			"-0.004": 13.3099999282,
			"-0.003": 14.5091091693,
			"-0.002": 19.151796382,
			"-0.001": 20.8271398239,
			"0.0": 21.6695720813,
			"0.001": 19.296110283,
			"0.002": 18.8627704766,
			"0.003": 20.3611570341,
			"0.004": 9.79024630057,
			"0.005": 9.39651745915,
			"0.006": 7.33712933952,
			"0.007": 7.09728054501,
			"0.008": 4.68249643994,
			"0.009": 1.58447614989,
			"0.01": 1.48822758089,
			"0.011": 3.04177422702,
			"0.012": 4.89807712421,
			"0.013": 0.376730024329,
			"0.014": 0.0,
			"0.015": 0.0,
			"0.016": 0.0,
			"0.017": 0.0,
			"0.018": 0.0,
			"0.019": 0.0,
			"0.02": 0.0,
			"0.021": 0.0,
			"0.022": 0.0,
			"0.023": 0.0,
			"0.024": 0.0,
			"0.025": 0.0
		}
	}
}
