{
	 "smiles": "CC(Cl)C(=O)NC1=C(C=C(C=C1)[N+]([O-])=O)C(F)(F)F", 
	 "Tm": 457.15, 
	 "num_atms": 27, 
	 "gaussian": { 
		 "optdone": 1, 
		 "sigma_profile": "yes", 
		 "theory": "DFT", 
		 "functional": "B3LYP", 
		 "basiset": "6-31G**", 
		 "properties": { 
			 "R2extent": 7096.8978, 
			 "electric_dipole_moment_norm": 4.90044053632, 
			 "electric_quadrupole_moment_norm": 10.4231212614, 
			 "total_energy": -1480.69368279, 
			 "HOMO_LUMO_gap": 0.17103, 
			 "cosmo_polarized_energy": -15.57, 
			 "cosmo_cavitation_energy": 35.16, 
			 "cosmo_dispersion_energy": -24.56, 
			 "cosmo_repulsion_energy": 1.84, 
			 "cosmo_total_nonelectrostatic_energy": 12.44, 
			 "SMD_solvation_energy": 9.43 
		},
		"coords": [
			{
				"x": 2.671889469,
				"y": -1.1560168044,
				"z": -4.0257541992,
				"element": "C" 
			},
			{
				"x": 1.9259776209,
				"y": 0.025493594,
				"z": -3.4221385186,
				"element": "C" 
			},
			{
				"x": 3.1183737268,
				"y": 1.2126244337,
				"z": -2.6812020922,
				"element": "Cl" 
			},
			{
				"x": 0.8274855168,
				"y": -0.4309216241,
				"z": -2.4442415597,
				"element": "C" 
			},
			{
				"x": 0.1682618904,
				"y": -1.4181611743,
				"z": -2.7133705894,
				"element": "O" 
			},
			{
				"x": 0.613106769,
				"y": 0.3547822539,
				"z": -1.3366795661,
				"element": "N" 
			},
			{
				"x": -0.3365550889,
				"y": 0.0756080976,
				"z": -0.3301537662,
				"element": "C" 
			},
			{
				"x": -1.7158194397,
				"y": -0.1026747821,
				"z": -0.5737836308,
				"element": "C" 
			},
			{
				"x": -2.5629585374,
				"y": -0.3867369526,
				"z": 0.4998550352,
				"element": "C" 
			},
			{
				"x": -2.0560080878,
				"y": -0.45796076,
				"z": 1.7899964544,
				"element": "C" 
			},
			{
				"x": -0.7074198821,
				"y": -0.2386138632,
				"z": 2.058366772,
				"element": "C" 
			},
			{
				"x": 0.1390202565,
				"y": 0.0209942809,
				"z": 0.9916069444,
				"element": "C" 
			},
			{
				"x": -2.9717498341,
				"y": -0.7513640554,
				"z": 2.902479563,
				"element": "N" 
			},
			{
				"x": -4.1547633582,
				"y": -0.9467910382,
				"z": 2.6307530802,
				"element": "O" 
			},
			{
				"x": -2.4922753052,
				"y": -0.7820581176,
				"z": 4.0351474967,
				"element": "O" 
			},
			{
				"x": -2.3937219742,
				"y": 0.0362630606,
				"z": -1.9254247039,
				"element": "C" 
			},
			{
				"x": -2.6162595442,
				"y": -1.1509299142,
				"z": -2.5100155165,
				"element": "F" 
			},
			{
				"x": -3.6050188211,
				"y": 0.6242623885,
				"z": -1.7661858626,
				"element": "F" 
			},
			{
				"x": -1.7013464561,
				"y": 0.8088530992,
				"z": -2.786101864,
				"element": "F" 
			},
			{
				"x": 3.3575369113,
				"y": -0.8168481195,
				"z": -4.8044454579,
				"element": "H" 
			},
			{
				"x": 1.9403114208,
				"y": -1.8423404106,
				"z": -4.4575317457,
				"element": "H" 
			},
			{
				"x": 3.2407310824,
				"y": -1.6911290597,
				"z": -3.2611975279,
				"element": "H" 
			},
			{
				"x": 1.4231603316,
				"y": 0.6056004761,
				"z": -4.2011229203,
				"element": "H" 
			},
			{
				"x": 1.3423841068,
				"y": 1.0178749854,
				"z": -1.1061131347,
				"element": "H" 
			},
			{
				"x": -3.6249705067,
				"y": -0.5225851181,
				"z": 0.3431796092,
				"element": "H" 
			},
			{
				"x": -0.3450754513,
				"y": -0.2898502547,
				"z": 3.0772409373,
				"element": "H" 
			},
			{
				"x": 1.2007031848,
				"y": 0.1637253788,
				"z": 1.1675367633,
				"element": "H" 
			}
		],
		 "valence_orbital": [ 
			{
				"type": "occ",
				"energy": -0.31754,
				"method": "rhf"
			},
			{
				"type": "occ",
				"energy": -0.30156,
				"method": "rhf"
			},
			{
				"type": "occ",
				"energy": -0.29996,
				"method": "rhf"
			},
			{
				"type": "occ",
				"energy": -0.28223,
				"method": "rhf"
			},
			{
				"type": "occ",
				"energy": -0.2733,
				"method": "rhf"
			},
			{
				"type": "unocc",
				"energy": -0.10227,
				"method": "rhf"
			},
			{
				"type": "unocc",
				"energy": -0.05506,
				"method": "rhf"
			},
			{
				"type": "unocc",
				"energy": -0.03348,
				"method": "rhf"
			},
			{
				"type": "unocc",
				"energy": -0.00742,
				"method": "rhf"
			},
			{
				"type": "unocc",
				"energy": 0.0082,
				"method": "rhf"
			}
		],
		"cosmo_sigma_profile": { 
			"-0.025": 0.0,
			"-0.024": 0.0,
			"-0.023": 0.0,
			"-0.022": 0.0,
			"-0.021": 0.0,
			"-0.02": 0.0,
			"-0.019": 0.0,
			"-0.018": 0.0,
			"-0.017": 0.0,
			"-0.016": 0.0,
			"-0.015": 0.117533285234,
			"-0.014": 0.955471127607,
			"-0.013": 1.1298423096,
			"-0.012": 1.21271779789,
			"-0.011": 0.857446745227,
			"-0.01": 1.52287438548,
			"-0.009": 5.58140172091,
			"-0.008": 7.67482105532,
			"-0.007": 8.73306457456,
			"-0.006": 9.86465210046,
			"-0.005": 15.6899320044,
			"-0.004": 15.733312873,
			"-0.003": 19.5267808206,
			"-0.002": 22.8385195115,
			"-0.001": 26.7835212318,
			"0.0": 18.4466779269,
			"0.001": 15.4245697797,
			"0.002": 25.3560073298,
			"0.003": 21.6346038594,
			"0.004": 10.4277032238,
			"0.005": 11.6420484838,
			"0.006": 8.57290130741,
			"0.007": 10.9796069378,
			"0.008": 8.43628197186,
			"0.009": 5.21126775859,
			"0.01": 4.28455493956,
			"0.011": 3.06393992205,
			"0.012": 1.7363167177,
			"0.013": 0.0,
			"0.014": 0.0,
			"0.015": 0.0,
			"0.016": 0.0,
			"0.017": 0.0,
			"0.018": 0.0,
			"0.019": 0.0,
			"0.02": 0.0,
			"0.021": 0.0,
			"0.022": 0.0,
			"0.023": 0.0,
			"0.024": 0.0,
			"0.025": 0.0
		}
	}
}
