{
	 "smiles": "NC(=O)C1=C2N=C(C=C(N2C=N1)C(O)=O)C1=CC=CC=C1", 
	 "Tm": 528.15, 
	 "num_atms": 31, 
	 "gaussian": { 
		 "optdone": 1, 
		 "sigma_profile": "yes", 
		 "theory": "DFT", 
		 "functional": "B3LYP", 
		 "basiset": "6-31G**", 
		 "properties": { 
			 "R2extent": 8122.7341, 
			 "electric_dipole_moment_norm": 7.15467912418, 
			 "electric_quadrupole_moment_norm": 38.1234518629, 
			 "total_energy": -984.214867363, 
			 "HOMO_LUMO_gap": 0.11375, 
			 "cosmo_polarized_energy": -27.56, 
			 "cosmo_cavitation_energy": 36.81, 
			 "cosmo_dispersion_energy": -26.76, 
			 "cosmo_repulsion_energy": 2.0, 
			 "cosmo_total_nonelectrostatic_energy": 12.05, 
			 "SMD_solvation_energy": 6.4 
		},
		"coords": [
			{
				"x": -1.5014741935,
				"y": 0.2172473642,
				"z": -3.5704714698,
				"element": "N" 
			},
			{
				"x": -2.822971849,
				"y": -0.0869544701,
				"z": -3.3889431435,
				"element": "C" 
			},
			{
				"x": -3.6683148229,
				"y": 0.0480342319,
				"z": -4.2617547693,
				"element": "O" 
			},
			{
				"x": -3.1558321889,
				"y": -0.6084714876,
				"z": -2.0291056388,
				"element": "C" 
			},
			{
				"x": -2.3037534773,
				"y": -0.8325815449,
				"z": -0.9418282443,
				"element": "C" 
			},
			{
				"x": -0.98374695,
				"y": -0.6619547054,
				"z": -0.7841991091,
				"element": "N" 
			},
			{
				"x": -0.4222707504,
				"y": -0.94772633,
				"z": 0.3815498439,
				"element": "C" 
			},
			{
				"x": -1.2202878347,
				"y": -1.4477046995,
				"z": 1.4626758966,
				"element": "C" 
			},
			{
				"x": -2.5677396864,
				"y": -1.6325162199,
				"z": 1.3203440959,
				"element": "C" 
			},
			{
				"x": -3.1475629929,
				"y": -1.3184164422,
				"z": 0.1010309691,
				"element": "N" 
			},
			{
				"x": -4.4158450885,
				"y": -1.3505074138,
				"z": -0.4318326291,
				"element": "C" 
			},
			{
				"x": -4.4306448479,
				"y": -0.9353785624,
				"z": -1.6830544323,
				"element": "N" 
			},
			{
				"x": -3.3374171898,
				"y": -2.1722825684,
				"z": 2.4782732785,
				"element": "C" 
			},
			{
				"x": -4.6547046304,
				"y": -2.3246589416,
				"z": 2.2287380194,
				"element": "O" 
			},
			{
				"x": -2.828058825,
				"y": -2.4471836759,
				"z": 3.5434706013,
				"element": "O" 
			},
			{
				"x": 1.0388600705,
				"y": -0.7611717979,
				"z": 0.5251028327,
				"element": "C" 
			},
			{
				"x": 1.6360725435,
				"y": -0.5899878018,
				"z": 1.7855999954,
				"element": "C" 
			},
			{
				"x": 3.0136387692,
				"y": -0.410056519,
				"z": 1.8997732637,
				"element": "C" 
			},
			{
				"x": 3.8178665645,
				"y": -0.4031797134,
				"z": 0.7591939106,
				"element": "C" 
			},
			{
				"x": 3.2343914377,
				"y": -0.5728152099,
				"z": -0.499504707,
				"element": "C" 
			},
			{
				"x": 1.8588880365,
				"y": -0.7479410172,
				"z": -0.6168522776,
				"element": "C" 
			},
			{
				"x": -0.8367622342,
				"y": 0.1604859422,
				"z": -2.8111681686,
				"element": "H" 
			},
			{
				"x": -1.2402552399,
				"y": 0.6246051806,
				"z": -4.4543270313,
				"element": "H" 
			},
			{
				"x": -0.7834332446,
				"y": -1.7223823031,
				"z": 2.4129377941,
				"element": "H" 
			},
			{
				"x": -5.2697534849,
				"y": -1.680484791,
				"z": 0.134152414,
				"element": "H" 
			},
			{
				"x": -5.0509309121,
				"y": -2.6783258379,
				"z": 3.043280765,
				"element": "H" 
			},
			{
				"x": 1.025603794,
				"y": -0.5684021544,
				"z": 2.6828317702,
				"element": "H" 
			},
			{
				"x": 3.4570873305,
				"y": -0.2701913711,
				"z": 2.8810742977,
				"element": "H" 
			},
			{
				"x": 4.891457279,
				"y": -0.2670178178,
				"z": 0.8495010897,
				"element": "H" 
			},
			{
				"x": 3.8545864059,
				"y": -0.5741777764,
				"z": -1.3910361846,
				"element": "H" 
			},
			{
				"x": 1.4041082122,
				"y": -0.8918015463,
				"z": -1.5906530326,
				"element": "H" 
			}
		],
		 "valence_orbital": [ 
			{
				"type": "occ",
				"energy": -0.26894,
				"method": "rhf"
			},
			{
				"type": "occ",
				"energy": -0.26671,
				"method": "rhf"
			},
			{
				"type": "occ",
				"energy": -0.24803,
				"method": "rhf"
			},
			{
				"type": "occ",
				"energy": -0.23508,
				"method": "rhf"
			},
			{
				"type": "occ",
				"energy": -0.22166,
				"method": "rhf"
			},
			{
				"type": "unocc",
				"energy": -0.10791,
				"method": "rhf"
			},
			{
				"type": "unocc",
				"energy": -0.05553,
				"method": "rhf"
			},
			{
				"type": "unocc",
				"energy": -0.019,
				"method": "rhf"
			},
			{
				"type": "unocc",
				"energy": -0.00201,
				"method": "rhf"
			},
			{
				"type": "unocc",
				"energy": 0.00871,
				"method": "rhf"
			}
		],
		"cosmo_sigma_profile": { 
			"-0.025": 0.0,
			"-0.024": 0.0,
			"-0.023": 0.0,
			"-0.022": 0.0,
			"-0.021": 0.0,
			"-0.02": 0.355240907258,
			"-0.019": 0.99926530669,
			"-0.018": 0.887272558185,
			"-0.017": 1.3314786561,
			"-0.016": 0.613300413759,
			"-0.015": 0.430347632425,
			"-0.014": 0.70609177456,
			"-0.013": 2.53210150312,
			"-0.012": 1.87068968197,
			"-0.011": 1.57489809328,
			"-0.01": 1.7729437918,
			"-0.009": 3.79890022471,
			"-0.008": 5.03929524577,
			"-0.007": 8.66752169436,
			"-0.006": 17.9360609673,
			"-0.005": 21.1393784708,
			"-0.004": 22.2187835331,
			"-0.003": 20.5261160646,
			"-0.002": 20.3724060617,
			"-0.001": 18.9271331471,
			"0.0": 21.5690212079,
			"0.001": 17.7037856765,
			"0.002": 16.5283128984,
			"0.003": 18.1835723076,
			"0.004": 17.240102683,
			"0.005": 6.78466509353,
			"0.006": 4.37384203801,
			"0.007": 4.18065282315,
			"0.008": 3.03362968918,
			"0.009": 4.63496044211,
			"0.01": 6.4812230678,
			"0.011": 3.03356569676,
			"0.012": 2.65803354829,
			"0.013": 3.6712675603,
			"0.014": 6.93444130493,
			"0.015": 3.36231200761,
			"0.016": 2.28405395572,
			"0.017": 1.63542474601,
			"0.018": 0.969945815066,
			"0.019": 0.00963716155438,
			"0.02": 0.0,
			"0.021": 0.0,
			"0.022": 0.0,
			"0.023": 0.0,
			"0.024": 0.0,
			"0.025": 0.0
		}
	}
}
