{
	 "smiles": "COC1=C2C=CC=CC2=CC(=N1)C(O)=O", 
	 "Tm": 458.15, 
	 "num_atms": 24, 
	 "gaussian": { 
		 "optdone": 1, 
		 "sigma_profile": "yes", 
		 "theory": "DFT", 
		 "functional": "B3LYP", 
		 "basiset": "6-31G**", 
		 "properties": { 
			 "R2extent": 3758.0976, 
			 "electric_dipole_moment_norm": 2.82126962909, 
			 "electric_quadrupole_moment_norm": 11.6706626196, 
			 "total_energy": -705.039460699, 
			 "HOMO_LUMO_gap": 0.16462, 
			 "cosmo_polarized_energy": -13.52, 
			 "cosmo_cavitation_energy": 28.92, 
			 "cosmo_dispersion_energy": -21.25, 
			 "cosmo_repulsion_energy": 1.65, 
			 "cosmo_total_nonelectrostatic_energy": 9.33, 
			 "SMD_solvation_energy": 6.13 
		},
		"coords": [
			{
				"x": 2.0202967347,
				"y": 2.7760646473,
				"z": 0.1162860941,
				"element": "C" 
			},
			{
				"x": 1.3487512637,
				"y": 2.0875094554,
				"z": -0.9471155925,
				"element": "O" 
			},
			{
				"x": 1.0736630401,
				"y": 0.7828111022,
				"z": -0.7465860389,
				"element": "C" 
			},
			{
				"x": 0.3989062313,
				"y": 0.1133354494,
				"z": -1.8291935711,
				"element": "C" 
			},
			{
				"x": 0.0365632064,
				"y": 0.7557837012,
				"z": -3.0338463979,
				"element": "C" 
			},
			{
				"x": -0.6092274943,
				"y": 0.044401219,
				"z": -4.0259984737,
				"element": "C" 
			},
			{
				"x": -0.9103620638,
				"y": -1.3245892594,
				"z": -3.8434092662,
				"element": "C" 
			},
			{
				"x": -0.5642886557,
				"y": -1.9689041466,
				"z": -2.673752203,
				"element": "C" 
			},
			{
				"x": 0.0994706017,
				"y": -1.2656896273,
				"z": -1.6365657091,
				"element": "C" 
			},
			{
				"x": 0.4823427087,
				"y": -1.8737683372,
				"z": -0.4076062458,
				"element": "C" 
			},
			{
				"x": 1.1229924131,
				"y": -1.1122464558,
				"z": 0.5418858564,
				"element": "C" 
			},
			{
				"x": 1.4184147597,
				"y": 0.2105115038,
				"z": 0.3752716688,
				"element": "N" 
			},
			{
				"x": 1.5527915579,
				"y": -1.6876366802,
				"z": 1.8547902052,
				"element": "C" 
			},
			{
				"x": 1.2342802947,
				"y": -3.0061932429,
				"z": 1.9686634167,
				"element": "O" 
			},
			{
				"x": 2.1194835347,
				"y": -1.0821710814,
				"z": 2.7367214492,
				"element": "O" 
			},
			{
				"x": 2.1470008959,
				"y": 3.7993748797,
				"z": -0.2387957442,
				"element": "H" 
			},
			{
				"x": 1.4231881198,
				"y": 2.7557244915,
				"z": 1.0315922659,
				"element": "H" 
			},
			{
				"x": 2.989781045,
				"y": 2.3170160102,
				"z": 0.3263172944,
				"element": "H" 
			},
			{
				"x": 0.2733137123,
				"y": 1.8058962542,
				"z": -3.1611136265,
				"element": "H" 
			},
			{
				"x": -0.8885897393,
				"y": 0.5365238353,
				"z": -4.9527864741,
				"element": "H" 
			},
			{
				"x": -1.4185961823,
				"y": -1.8710418102,
				"z": -4.6326610928,
				"element": "H" 
			},
			{
				"x": -0.7950353573,
				"y": -3.0210027832,
				"z": -2.5319438354,
				"element": "H" 
			},
			{
				"x": 0.2716204435,
				"y": -2.9203638104,
				"z": -0.2245216903,
				"element": "H" 
			},
			{
				"x": 1.5540389294,
				"y": -3.2735453146,
				"z": 2.8455677108,
				"element": "H" 
			}
		],
		 "valence_orbital": [ 
			{
				"type": "occ",
				"energy": -0.28026,
				"method": "rhf"
			},
			{
				"type": "occ",
				"energy": -0.27083,
				"method": "rhf"
			},
			{
				"type": "occ",
				"energy": -0.26851,
				"method": "rhf"
			},
			{
				"type": "occ",
				"energy": -0.26643,
				"method": "rhf"
			},
			{
				"type": "occ",
				"energy": -0.22382,
				"method": "rhf"
			},
			{
				"type": "unocc",
				"energy": -0.0592,
				"method": "rhf"
			},
			{
				"type": "unocc",
				"energy": -0.04062,
				"method": "rhf"
			},
			{
				"type": "unocc",
				"energy": 0.01715,
				"method": "rhf"
			},
			{
				"type": "unocc",
				"energy": 0.04781,
				"method": "rhf"
			},
			{
				"type": "unocc",
				"energy": 0.08335,
				"method": "rhf"
			}
		],
		"cosmo_sigma_profile": { 
			"-0.025": 0.0,
			"-0.024": 0.0,
			"-0.023": 0.0,
			"-0.022": 0.0,
			"-0.021": 0.0,
			"-0.02": 0.0,
			"-0.019": 0.0191055734731,
			"-0.018": 0.656051919754,
			"-0.017": 1.00392361938,
			"-0.016": 0.81421493111,
			"-0.015": 0.796875504497,
			"-0.014": 0.85974694035,
			"-0.013": 0.345261826441,
			"-0.012": 0.374083004506,
			"-0.011": 1.09079254295,
			"-0.01": 1.16644249785,
			"-0.009": 0.510581526217,
			"-0.008": 0.549659779532,
			"-0.007": 7.07064694396,
			"-0.006": 12.6242764467,
			"-0.005": 16.0277115591,
			"-0.004": 15.7491311063,
			"-0.003": 16.7042957113,
			"-0.002": 15.6576585796,
			"-0.001": 16.4595118731,
			"0.0": 18.8960086287,
			"0.001": 22.5480096928,
			"0.002": 20.5533389811,
			"0.003": 16.7236542851,
			"0.004": 8.91224199065,
			"0.005": 4.74733514054,
			"0.006": 5.11289090611,
			"0.007": 4.84338979181,
			"0.008": 3.04058705613,
			"0.009": 1.97664724693,
			"0.01": 1.66448157137,
			"0.011": 4.31616751428,
			"0.012": 4.91002349751,
			"0.013": 1.75302842915,
			"0.014": 0.973507664383,
			"0.015": 0.941058902428,
			"0.016": 1.02691713642,
			"0.017": 0.399191446344,
			"0.018": 0.0,
			"0.019": 0.0,
			"0.02": 0.0,
			"0.021": 0.0,
			"0.022": 0.0,
			"0.023": 0.0,
			"0.024": 0.0,
			"0.025": 0.0
		}
	}
}
