{
	 "smiles": "CNCC(=O)NC1=CC=C(Cl)C=C1", 
	 "Tm": 332.15, 
	 "num_atms": 24, 
	 "gaussian": { 
		 "optdone": 1, 
		 "sigma_profile": "yes", 
		 "theory": "DFT", 
		 "functional": "B3LYP", 
		 "basiset": "6-31G**", 
		 "properties": { 
			 "R2extent": 5201.2935, 
			 "electric_dipole_moment_norm": 1.2864352646, 
			 "electric_quadrupole_moment_norm": 11.7373456833, 
			 "total_energy": -994.504825767, 
			 "HOMO_LUMO_gap": 0.18561, 
			 "cosmo_polarized_energy": -13.72, 
			 "cosmo_cavitation_energy": 29.49, 
			 "cosmo_dispersion_energy": -21.52, 
			 "cosmo_repulsion_energy": 1.71, 
			 "cosmo_total_nonelectrostatic_energy": 9.68, 
			 "SMD_solvation_energy": 3.13 
		},
		"coords": [
			{
				"x": 1.9502433012,
				"y": 2.6862125276,
				"z": 1.427435045,
				"element": "C" 
			},
			{
				"x": 2.2519845565,
				"y": 1.4521181491,
				"z": 0.6978711111,
				"element": "N" 
			},
			{
				"x": 1.3883908482,
				"y": 0.3125852752,
				"z": 1.0114670119,
				"element": "C" 
			},
			{
				"x": -0.0765023629,
				"y": 0.5000413137,
				"z": 0.6077631662,
				"element": "C" 
			},
			{
				"x": -0.8159219906,
				"y": 1.2618639957,
				"z": 1.2186499333,
				"element": "O" 
			},
			{
				"x": -0.5804652567,
				"y": -0.188829472,
				"z": -0.4885576803,
				"element": "N" 
			},
			{
				"x": -0.0067721221,
				"y": -1.1502256562,
				"z": -1.3517550737,
				"element": "C" 
			},
			{
				"x": -0.7544784565,
				"y": -2.2922984346,
				"z": -1.6784236566,
				"element": "C" 
			},
			{
				"x": -0.2549458801,
				"y": -3.2471066509,
				"z": -2.5597341084,
				"element": "C" 
			},
			{
				"x": 1.0140812053,
				"y": -3.0715596878,
				"z": -3.1114802362,
				"element": "C" 
			},
			{
				"x": 1.6585212458,
				"y": -4.2795573661,
				"z": -4.2110947401,
				"element": "Cl" 
			},
			{
				"x": 1.7713185444,
				"y": -1.9422054456,
				"z": -2.8059103118,
				"element": "C" 
			},
			{
				"x": 1.2527391939,
				"y": -0.9774947181,
				"z": -1.9435317433,
				"element": "C" 
			},
			{
				"x": 2.6724417239,
				"y": 3.4519670003,
				"z": 1.1272000512,
				"element": "H" 
			},
			{
				"x": 0.9329644527,
				"y": 3.0737897458,
				"z": 1.2802847718,
				"element": "H" 
			},
			{
				"x": 2.0829419314,
				"y": 2.5041704996,
				"z": 2.4994848442,
				"element": "H" 
			},
			{
				"x": 2.2370854031,
				"y": 1.6373054384,
				"z": -0.3018705597,
				"element": "H" 
			},
			{
				"x": 1.3834124964,
				"y": 0.1851068303,
				"z": 2.0989783108,
				"element": "H" 
			},
			{
				"x": 1.8178037119,
				"y": -0.5911830367,
				"z": 0.5721462864,
				"element": "H" 
			},
			{
				"x": -1.5809537798,
				"y": -0.0489797069,
				"z": -0.5739561439,
				"element": "H" 
			},
			{
				"x": -1.7323330182,
				"y": -2.4364430919,
				"z": -1.2278363944,
				"element": "H" 
			},
			{
				"x": -0.8392938352,
				"y": -4.1265678922,
				"z": -2.8062999672,
				"element": "H" 
			},
			{
				"x": 2.7484770664,
				"y": -1.804480832,
				"z": -3.2551749245,
				"element": "H" 
			},
			{
				"x": 1.8274610207,
				"y": -0.0787287846,
				"z": -1.7521549915,
				"element": "H" 
			}
		],
		 "valence_orbital": [ 
			{
				"type": "occ",
				"energy": -0.29338,
				"method": "rhf"
			},
			{
				"type": "occ",
				"energy": -0.27772,
				"method": "rhf"
			},
			{
				"type": "occ",
				"energy": -0.27388,
				"method": "rhf"
			},
			{
				"type": "occ",
				"energy": -0.23751,
				"method": "rhf"
			},
			{
				"type": "occ",
				"energy": -0.21605,
				"method": "rhf"
			},
			{
				"type": "unocc",
				"energy": -0.03044,
				"method": "rhf"
			},
			{
				"type": "unocc",
				"energy": -0.02829,
				"method": "rhf"
			},
			{
				"type": "unocc",
				"energy": 0.01378,
				"method": "rhf"
			},
			{
				"type": "unocc",
				"energy": 0.02253,
				"method": "rhf"
			},
			{
				"type": "unocc",
				"energy": 0.07395,
				"method": "rhf"
			}
		],
		"cosmo_sigma_profile": { 
			"-0.025": 0.0,
			"-0.024": 0.0,
			"-0.023": 0.0,
			"-0.022": 0.0,
			"-0.021": 0.0,
			"-0.02": 0.0,
			"-0.019": 0.0,
			"-0.018": 0.0,
			"-0.017": 0.0,
			"-0.016": 0.0,
			"-0.015": 0.111373537822,
			"-0.014": 0.773925487135,
			"-0.013": 0.941389940088,
			"-0.012": 1.68417414306,
			"-0.011": 3.15249886147,
			"-0.01": 2.90571108415,
			"-0.009": 3.00996919998,
			"-0.008": 4.76859349716,
			"-0.007": 8.1744520356,
			"-0.006": 9.37890503044,
			"-0.005": 10.1669095673,
			"-0.004": 16.5037814882,
			"-0.003": 16.3140118719,
			"-0.002": 15.9717584976,
			"-0.001": 17.0636412413,
			"0.0": 19.1730069403,
			"0.001": 18.460984031,
			"0.002": 19.5593408105,
			"0.003": 20.1095748188,
			"0.004": 13.8301107321,
			"0.005": 8.51878634098,
			"0.006": 1.60852970161,
			"0.007": 2.53555430724,
			"0.008": 2.15486095222,
			"0.009": 2.37011130449,
			"0.01": 2.2238484698,
			"0.011": 2.18269245558,
			"0.012": 2.74988456139,
			"0.013": 4.64303647084,
			"0.014": 3.19382182969,
			"0.015": 1.04357362932,
			"0.016": 0.380284293281,
			"0.017": 0.434323331929,
			"0.018": 0.128866483666,
			"0.019": 0.0,
			"0.02": 0.0,
			"0.021": 0.0,
			"0.022": 0.0,
			"0.023": 0.0,
			"0.024": 0.0,
			"0.025": 0.0
		}
	}
}
