{
	 "smiles": "NC(=S)N1CCN(CC1)C1=CC=C(Cl)C=C1", 
	 "Tm": 450.15, 
	 "num_atms": 30, 
	 "gaussian": { 
		 "optdone": 1, 
		 "sigma_profile": "yes", 
		 "theory": "DFT", 
		 "functional": "B3LYP", 
		 "basiset": "6-31G**", 
		 "properties": { 
			 "R2extent": 7921.7512, 
			 "electric_dipole_moment_norm": 3.92313982035, 
			 "electric_quadrupole_moment_norm": 36.5050034651, 
			 "total_energy": -1450.24655745, 
			 "HOMO_LUMO_gap": 0.18664, 
			 "cosmo_polarized_energy": -21.06, 
			 "cosmo_cavitation_energy": 35.15, 
			 "cosmo_dispersion_energy": -26.62, 
			 "cosmo_repulsion_energy": 2.02, 
			 "cosmo_total_nonelectrostatic_energy": 10.55, 
			 "SMD_solvation_energy": 2.9 
		},
		"coords": [
			{
				"x": -4.0865114424,
				"y": 1.2121581768,
				"z": -1.8762551443,
				"element": "N" 
			},
			{
				"x": -2.7461267369,
				"y": 1.5082651362,
				"z": -1.9653503849,
				"element": "C" 
			},
			{
				"x": -2.1875186833,
				"y": 2.5785811347,
				"z": -3.1421724699,
				"element": "S" 
			},
			{
				"x": -1.9568457564,
				"y": 0.9200818357,
				"z": -1.0245865421,
				"element": "N" 
			},
			{
				"x": -2.518352584,
				"y": 0.1653067571,
				"z": 0.1011162737,
				"element": "C" 
			},
			{
				"x": -1.5306679626,
				"y": 0.0893109948,
				"z": 1.2673481796,
				"element": "C" 
			},
			{
				"x": -0.2705604054,
				"y": -0.4951620791,
				"z": 0.8432161915,
				"element": "N" 
			},
			{
				"x": 0.1928994759,
				"y": -0.1586656539,
				"z": -0.502416922,
				"element": "C" 
			},
			{
				"x": -0.5031585746,
				"y": 1.0932819125,
				"z": -1.0330117458,
				"element": "C" 
			},
			{
				"x": 0.5572720479,
				"y": -1.1647196556,
				"z": 1.7374743193,
				"element": "C" 
			},
			{
				"x": 0.3248212715,
				"y": -1.1360441588,
				"z": 3.1298727157,
				"element": "C" 
			},
			{
				"x": 1.1513146204,
				"y": -1.8264854887,
				"z": 4.012888362,
				"element": "C" 
			},
			{
				"x": 2.2370752872,
				"y": -2.5520028733,
				"z": 3.5288770534,
				"element": "C" 
			},
			{
				"x": 3.2845321972,
				"y": -3.418993022,
				"z": 4.6470943377,
				"element": "Cl" 
			},
			{
				"x": 2.4961929208,
				"y": -2.5902155036,
				"z": 2.1604014407,
				"element": "C" 
			},
			{
				"x": 1.6655065233,
				"y": -1.9089033135,
				"z": 1.2755899782,
				"element": "C" 
			},
			{
				"x": -4.3771539497,
				"y": 0.3061586188,
				"z": -1.5338238418,
				"element": "H" 
			},
			{
				"x": -4.6275610737,
				"y": 1.5742776964,
				"z": -2.6477519581,
				"element": "H" 
			},
			{
				"x": -2.7819138537,
				"y": -0.8580588059,
				"z": -0.2079139874,
				"element": "H" 
			},
			{
				"x": -3.4313863397,
				"y": 0.6615404181,
				"z": 0.4468177252,
				"element": "H" 
			},
			{
				"x": -1.98366216,
				"y": -0.5470195743,
				"z": 2.0333411917,
				"element": "H" 
			},
			{
				"x": -1.4066143274,
				"y": 1.0912416506,
				"z": 1.7109167544,
				"element": "H" 
			},
			{
				"x": 1.2697573734,
				"y": 0.0437052358,
				"z": -0.4788302621,
				"element": "H" 
			},
			{
				"x": 0.0335097221,
				"y": -0.9921533963,
				"z": -1.2042042934,
				"element": "H" 
			},
			{
				"x": -0.219649904,
				"y": 1.9702838789,
				"z": -0.4362272536,
				"element": "H" 
			},
			{
				"x": -0.1931101589,
				"y": 1.2914311491,
				"z": -2.0598043438,
				"element": "H" 
			},
			{
				"x": -0.4891839121,
				"y": -0.550717342,
				"z": 3.5410806654,
				"element": "H" 
			},
			{
				"x": 0.9569319697,
				"y": -1.7861538748,
				"z": 5.0792847606,
				"element": "H" 
			},
			{
				"x": 3.338230495,
				"y": -3.1601048373,
				"z": 1.7825481971,
				"element": "H" 
			},
			{
				"x": 1.8709339204,
				"y": -1.9816250165,
				"z": 0.213981003,
				"element": "H" 
			}
		],
		 "valence_orbital": [ 
			{
				"type": "occ",
				"energy": -0.26929,
				"method": "rhf"
			},
			{
				"type": "occ",
				"energy": -0.2623,
				"method": "rhf"
			},
			{
				"type": "occ",
				"energy": -0.21652,
				"method": "rhf"
			},
			{
				"type": "occ",
				"energy": -0.2052,
				"method": "rhf"
			},
			{
				"type": "occ",
				"energy": -0.20045,
				"method": "rhf"
			},
			{
				"type": "unocc",
				"energy": -0.01381,
				"method": "rhf"
			},
			{
				"type": "unocc",
				"energy": -0.00522,
				"method": "rhf"
			},
			{
				"type": "unocc",
				"energy": 0.00284,
				"method": "rhf"
			},
			{
				"type": "unocc",
				"energy": 0.03427,
				"method": "rhf"
			},
			{
				"type": "unocc",
				"energy": 0.05512,
				"method": "rhf"
			}
		],
		"cosmo_sigma_profile": { 
			"-0.025": 0.0,
			"-0.024": 0.0,
			"-0.023": 0.0,
			"-0.022": 0.0,
			"-0.021": 0.0,
			"-0.02": 0.0,
			"-0.019": 0.0,
			"-0.018": 0.0,
			"-0.017": 0.0,
			"-0.016": 0.0,
			"-0.015": 0.176871598965,
			"-0.014": 1.33978122179,
			"-0.013": 2.33398944448,
			"-0.012": 2.98412794171,
			"-0.011": 2.58263198449,
			"-0.01": 2.46761848658,
			"-0.009": 2.08339332413,
			"-0.008": 2.07196528834,
			"-0.007": 6.91355045492,
			"-0.006": 20.0345923438,
			"-0.005": 29.824398056,
			"-0.004": 27.7189463053,
			"-0.003": 15.8141975889,
			"-0.002": 12.0558492077,
			"-0.001": 12.4836475218,
			"0.0": 11.2214298896,
			"0.001": 12.144037241,
			"0.002": 13.1526890481,
			"0.003": 16.3694208928,
			"0.004": 19.5011206953,
			"0.005": 26.2813894089,
			"0.006": 10.8848118107,
			"0.007": 3.94504505801,
			"0.008": 4.47071160317,
			"0.009": 4.08012957216,
			"0.01": 5.62149625417,
			"0.011": 6.32606041952,
			"0.012": 6.42680759697,
			"0.013": 1.50346504386,
			"0.014": 0.0,
			"0.015": 0.0,
			"0.016": 0.0,
			"0.017": 0.0,
			"0.018": 0.0,
			"0.019": 0.0,
			"0.02": 0.0,
			"0.021": 0.0,
			"0.022": 0.0,
			"0.023": 0.0,
			"0.024": 0.0,
			"0.025": 0.0
		}
	}
}
