{
	 "smiles": "CC1=CC2=C(CCCC2)C=C1", 
	 "Tm": 233.15, 
	 "num_atms": 25, 
	 "gaussian": { 
		 "optdone": 1, 
		 "sigma_profile": "yes", 
		 "theory": "DFT", 
		 "functional": "B3LYP", 
		 "basiset": "6-31G**", 
		 "properties": { 
			 "R2extent": 2161.2357, 
			 "electric_dipole_moment_norm": 0.403734491962, 
			 "electric_quadrupole_moment_norm": 3.85598855289, 
			 "total_energy": -427.631907634, 
			 "HOMO_LUMO_gap": 0.23024, 
			 "cosmo_polarized_energy": -3.0, 
			 "cosmo_cavitation_energy": 26.01, 
			 "cosmo_dispersion_energy": -19.48, 
			 "cosmo_repulsion_energy": 1.57, 
			 "cosmo_total_nonelectrostatic_energy": 8.1, 
			 "SMD_solvation_energy": 3.65 
		},
		"coords": [
			{
				"x": 3.4055581128,
				"y": -0.792564387,
				"z": 2.6986185602,
				"element": "C" 
			},
			{
				"x": 2.201151343,
				"y": -0.4144535469,
				"z": 1.8673778832,
				"element": "C" 
			},
			{
				"x": 1.0717167518,
				"y": -1.2449043211,
				"z": 1.823921939,
				"element": "C" 
			},
			{
				"x": -0.0399361942,
				"y": -0.9236978664,
				"z": 1.0446900846,
				"element": "C" 
			},
			{
				"x": -0.0362842849,
				"y": 0.2553512362,
				"z": 0.2753738162,
				"element": "C" 
			},
			{
				"x": -1.2674036566,
				"y": 0.5383590734,
				"z": -0.5502714273,
				"element": "C" 
			},
			{
				"x": -1.6994473213,
				"y": -0.7100230125,
				"z": -1.3551333955,
				"element": "C" 
			},
			{
				"x": -1.7024277915,
				"y": -2.014875394,
				"z": -0.505101153,
				"element": "C" 
			},
			{
				"x": -1.2774243864,
				"y": -1.7845188728,
				"z": 0.9642147874,
				"element": "C" 
			},
			{
				"x": 1.0857691757,
				"y": 1.0837897085,
				"z": 0.3093127197,
				"element": "C" 
			},
			{
				"x": 2.1895085563,
				"y": 0.7557902245,
				"z": 1.1000653362,
				"element": "C" 
			},
			{
				"x": 4.0266556089,
				"y": -1.5385426922,
				"z": 2.1865480969,
				"element": "H" 
			},
			{
				"x": 4.0397340131,
				"y": 0.0754987626,
				"z": 2.9015283904,
				"element": "H" 
			},
			{
				"x": 3.1099963201,
				"y": -1.2262095026,
				"z": 3.6597025903,
				"element": "H" 
			},
			{
				"x": 1.0604053088,
				"y": -2.1608188463,
				"z": 2.4127391632,
				"element": "H" 
			},
			{
				"x": -2.0921052715,
				"y": 0.8334262577,
				"z": 0.1156802495,
				"element": "H" 
			},
			{
				"x": -1.0999508365,
				"y": 1.38515111,
				"z": -1.2245406406,
				"element": "H" 
			},
			{
				"x": -2.690062774,
				"y": -0.5322173905,
				"z": -1.787785807,
				"element": "H" 
			},
			{
				"x": -1.0113598491,
				"y": -0.829155159,
				"z": -2.1988517267,
				"element": "H" 
			},
			{
				"x": -1.0131641755,
				"y": -2.7396621179,
				"z": -0.9513780488,
				"element": "H" 
			},
			{
				"x": -2.6935597792,
				"y": -2.4811926961,
				"z": -0.5221040156,
				"element": "H" 
			},
			{
				"x": -1.1208016514,
				"y": -2.7439372088,
				"z": 1.4688020525,
				"element": "H" 
			},
			{
				"x": -2.1006022717,
				"y": -1.2860908072,
				"z": 1.4975596139,
				"element": "H" 
			},
			{
				"x": 1.0984914164,
				"y": 1.9959095526,
				"z": -0.2833776596,
				"element": "H" 
			},
			{
				"x": 3.0535436368,
				"y": 1.4158878956,
				"z": 1.1175085907,
				"element": "H" 
			}
		],
		 "valence_orbital": [ 
			{
				"type": "occ",
				"energy": -0.3226,
				"method": "rhf"
			},
			{
				"type": "occ",
				"energy": -0.30806,
				"method": "rhf"
			},
			{
				"type": "occ",
				"energy": -0.29954,
				"method": "rhf"
			},
			{
				"type": "occ",
				"energy": -0.23337,
				"method": "rhf"
			},
			{
				"type": "occ",
				"energy": -0.221,
				"method": "rhf"
			},
			{
				"type": "unocc",
				"energy": 0.00924,
				"method": "rhf"
			},
			{
				"type": "unocc",
				"energy": 0.01204,
				"method": "rhf"
			},
			{
				"type": "unocc",
				"energy": 0.08973,
				"method": "rhf"
			},
			{
				"type": "unocc",
				"energy": 0.11016,
				"method": "rhf"
			},
			{
				"type": "unocc",
				"energy": 0.12083,
				"method": "rhf"
			}
		],
		"cosmo_sigma_profile": { 
			"-0.025": 0.0,
			"-0.024": 0.0,
			"-0.023": 0.0,
			"-0.022": 0.0,
			"-0.021": 0.0,
			"-0.02": 0.0,
			"-0.019": 0.0,
			"-0.018": 0.0,
			"-0.017": 0.0,
			"-0.016": 0.0,
			"-0.015": 0.0,
			"-0.014": 0.0,
			"-0.013": 0.0,
			"-0.012": 0.0,
			"-0.011": 0.0,
			"-0.01": 0.0,
			"-0.009": 0.0,
			"-0.008": 0.0,
			"-0.007": 0.0,
			"-0.006": 0.0,
			"-0.005": 1.42252102118,
			"-0.004": 11.0600850302,
			"-0.003": 26.7109838628,
			"-0.002": 30.5359108564,
			"-0.001": 32.04984093,
			"0.0": 32.8010323457,
			"0.001": 22.8093989737,
			"0.002": 10.3598714877,
			"0.003": 7.29206760261,
			"0.004": 6.83485144623,
			"0.005": 6.63685896995,
			"0.006": 6.72234166517,
			"0.007": 6.44146244751,
			"0.008": 1.55356291072,
			"0.009": 0.0,
			"0.01": 0.0,
			"0.011": 0.0,
			"0.012": 0.0,
			"0.013": 0.0,
			"0.014": 0.0,
			"0.015": 0.0,
			"0.016": 0.0,
			"0.017": 0.0,
			"0.018": 0.0,
			"0.019": 0.0,
			"0.02": 0.0,
			"0.021": 0.0,
			"0.022": 0.0,
			"0.023": 0.0,
			"0.024": 0.0,
			"0.025": 0.0
		}
	}
}
