{
	 "smiles": "NC1=NC(=NC(N)=N1)C1=CC=C(Cl)C=C1", 
	 "Tm": 474.15, 
	 "num_atms": 23, 
	 "gaussian": { 
		 "optdone": 1, 
		 "sigma_profile": "yes", 
		 "theory": "DFT", 
		 "functional": "B3LYP", 
		 "basiset": "6-31G**", 
		 "properties": { 
			 "R2extent": 5221.1353, 
			 "electric_dipole_moment_norm": 3.90176338339, 
			 "electric_quadrupole_moment_norm": 12.0979109197, 
			 "total_energy": -1081.7828923, 
			 "HOMO_LUMO_gap": 0.18712, 
			 "cosmo_polarized_energy": -13.73, 
			 "cosmo_cavitation_energy": 29.96, 
			 "cosmo_dispersion_energy": -22.71, 
			 "cosmo_repulsion_energy": 1.8, 
			 "cosmo_total_nonelectrostatic_energy": 9.05, 
			 "SMD_solvation_energy": 1.16 
		},
		"coords": [
			{
				"x": 2.2092128708,
				"y": 2.7527726675,
				"z": -0.7956322185,
				"element": "N" 
			},
			{
				"x": 1.2668211775,
				"y": 2.3002286537,
				"z": 0.0676064238,
				"element": "C" 
			},
			{
				"x": 0.9593707814,
				"y": 0.9890432965,
				"z": -0.0025885349,
				"element": "N" 
			},
			{
				"x": 0.0391402221,
				"y": 0.5878159638,
				"z": 0.883749363,
				"element": "C" 
			},
			{
				"x": -0.5602978817,
				"y": 1.3719308904,
				"z": 1.7888696808,
				"element": "N" 
			},
			{
				"x": -0.1667956319,
				"y": 2.661432394,
				"z": 1.7574718085,
				"element": "C" 
			},
			{
				"x": -0.7295108475,
				"y": 3.4931792881,
				"z": 2.6683242171,
				"element": "N" 
			},
			{
				"x": 0.7365298918,
				"y": 3.191619723,
				"z": 0.9188496285,
				"element": "N" 
			},
			{
				"x": -0.3509795722,
				"y": -0.8456541874,
				"z": 0.8592527884,
				"element": "C" 
			},
			{
				"x": 0.2338855153,
				"y": -1.7261088908,
				"z": -0.0623552653,
				"element": "C" 
			},
			{
				"x": -0.1273297464,
				"y": -3.0702970069,
				"z": -0.0910297278,
				"element": "C" 
			},
			{
				"x": -1.0834793812,
				"y": -3.5349473474,
				"z": 0.8129126912,
				"element": "C" 
			},
			{
				"x": -1.5456493397,
				"y": -5.2309638468,
				"z": 0.7834996562,
				"element": "Cl" 
			},
			{
				"x": -1.6795527703,
				"y": -2.6790644136,
				"z": 1.7399426667,
				"element": "C" 
			},
			{
				"x": -1.309044891,
				"y": -1.3372237949,
				"z": 1.7576468286,
				"element": "C" 
			},
			{
				"x": 2.3755059145,
				"y": 3.7433521543,
				"z": -0.8558471756,
				"element": "H" 
			},
			{
				"x": 2.5285006292,
				"y": 2.13682471,
				"z": -1.524342374,
				"element": "H" 
			},
			{
				"x": -0.5533704149,
				"y": 4.481252336,
				"z": 2.596102436,
				"element": "H" 
			},
			{
				"x": -1.4975760014,
				"y": 3.1511645043,
				"z": 3.2210085141,
				"element": "H" 
			},
			{
				"x": 0.9744010436,
				"y": -1.3401127881,
				"z": -0.7532831462,
				"element": "H" 
			},
			{
				"x": 0.3240196178,
				"y": -3.7524932817,
				"z": -0.802897382,
				"element": "H" 
			},
			{
				"x": -2.420044087,
				"y": -3.060854845,
				"z": 2.4340413545,
				"element": "H" 
			},
			{
				"x": -1.7564570989,
				"y": -0.651796179,
				"z": 2.4680977671,
				"element": "H" 
			}
		],
		 "valence_orbital": [ 
			{
				"type": "occ",
				"energy": -0.25909,
				"method": "rhf"
			},
			{
				"type": "occ",
				"energy": -0.25852,
				"method": "rhf"
			},
			{
				"type": "occ",
				"energy": -0.25542,
				"method": "rhf"
			},
			{
				"type": "occ",
				"energy": -0.24043,
				"method": "rhf"
			},
			{
				"type": "occ",
				"energy": -0.23608,
				"method": "rhf"
			},
			{
				"type": "unocc",
				"energy": -0.04896,
				"method": "rhf"
			},
			{
				"type": "unocc",
				"energy": -0.00919,
				"method": "rhf"
			},
			{
				"type": "unocc",
				"energy": 0.01301,
				"method": "rhf"
			},
			{
				"type": "unocc",
				"energy": 0.03379,
				"method": "rhf"
			},
			{
				"type": "unocc",
				"energy": 0.03494,
				"method": "rhf"
			}
		],
		"cosmo_sigma_profile": { 
			"-0.025": 0.0,
			"-0.024": 0.0,
			"-0.023": 0.0,
			"-0.022": 0.0,
			"-0.021": 0.0,
			"-0.02": 0.0,
			"-0.019": 0.0,
			"-0.018": 0.0,
			"-0.017": 0.0,
			"-0.016": 0.0,
			"-0.015": 0.0942206886721,
			"-0.014": 3.29409053368,
			"-0.013": 4.16687420022,
			"-0.012": 2.72020646045,
			"-0.011": 4.37614188173,
			"-0.01": 5.07982630991,
			"-0.009": 3.84506256212,
			"-0.008": 3.44176416036,
			"-0.007": 6.01732775341,
			"-0.006": 7.3062061442,
			"-0.005": 8.75668223831,
			"-0.004": 7.82500686712,
			"-0.003": 9.52181520473,
			"-0.002": 10.4275806299,
			"-0.001": 12.8039985183,
			"0.0": 16.1049961383,
			"0.001": 21.8291255019,
			"0.002": 28.6694642577,
			"0.003": 28.962844275,
			"0.004": 18.2736900868,
			"0.005": 12.8204468983,
			"0.006": 5.83582558752,
			"0.007": 5.27576631869,
			"0.008": 4.96271607293,
			"0.009": 3.83784876747,
			"0.01": 2.46312550413,
			"0.011": 1.19298697206,
			"0.012": 1.51210681802,
			"0.013": 0.490166072534,
			"0.014": 0.417015236521,
			"0.015": 0.0,
			"0.016": 0.0,
			"0.017": 0.0,
			"0.018": 0.0,
			"0.019": 0.0,
			"0.02": 0.0,
			"0.021": 0.0,
			"0.022": 0.0,
			"0.023": 0.0,
			"0.024": 0.0,
			"0.025": 0.0
		}
	}
}
