{
	 "smiles": "FC1=CC=CC(F)=C1C#C", 
	 "Tm": 308.15, 
	 "num_atms": 14, 
	 "gaussian": { 
		 "optdone": 1, 
		 "sigma_profile": "yes", 
		 "theory": "DFT", 
		 "functional": "B3LYP", 
		 "basiset": "6-31G**", 
		 "properties": { 
			 "R2extent": 2103.2657, 
			 "electric_dipole_moment_norm": 1.55989764728, 
			 "electric_quadrupole_moment_norm": 7.22823222441, 
			 "total_energy": -506.855268126, 
			 "HOMO_LUMO_gap": 0.19877, 
			 "cosmo_polarized_energy": -5.49, 
			 "cosmo_cavitation_energy": 20.62, 
			 "cosmo_dispersion_energy": -14.28, 
			 "cosmo_repulsion_energy": 1.11, 
			 "cosmo_total_nonelectrostatic_energy": 7.45, 
			 "SMD_solvation_energy": 5.93 
		},
		"coords": [
			{
				"x": -0.2422048669,
				"y": -2.323789119,
				"z": -2.9028293607,
				"element": "F" 
			},
			{
				"x": -0.1534774928,
				"y": -1.2944178343,
				"z": -2.045668454,
				"element": "C" 
			},
			{
				"x": 1.1010397289,
				"y": -0.8261618446,
				"z": -1.6810666628,
				"element": "C" 
			},
			{
				"x": 1.185444527,
				"y": 0.2445507001,
				"z": -0.7893590661,
				"element": "C" 
			},
			{
				"x": 0.0313308956,
				"y": 0.8354943051,
				"z": -0.2721591517,
				"element": "C" 
			},
			{
				"x": -1.204948246,
				"y": 0.3389032906,
				"z": -0.6607717326,
				"element": "C" 
			},
			{
				"x": -2.3190803905,
				"y": 0.9023327434,
				"z": -0.1673589133,
				"element": "F" 
			},
			{
				"x": -1.3470497623,
				"y": -0.7364552065,
				"z": -1.5551683681,
				"element": "C" 
			},
			{
				"x": -2.6235585638,
				"y": -1.2309160817,
				"z": -1.9411469738,
				"element": "C" 
			},
			{
				"x": -3.7085651272,
				"y": -1.6509435001,
				"z": -2.2694453297,
				"element": "C" 
			},
			{
				"x": 1.9835319283,
				"y": -1.3001246989,
				"z": -2.0949417138,
				"element": "H" 
			},
			{
				"x": 2.1593742498,
				"y": 0.6218148328,
				"z": -0.4948531807,
				"element": "H" 
			},
			{
				"x": 0.0731224861,
				"y": 1.6674717137,
				"z": 0.4212341279,
				"element": "H" 
			},
			{
				"x": -4.6647593663,
				"y": -2.0200593005,
				"z": -2.5598652206,
				"element": "H" 
			}
		],
		 "valence_orbital": [ 
			{
				"type": "occ",
				"energy": -0.36742,
				"method": "rhf"
			},
			{
				"type": "occ",
				"energy": -0.31992,
				"method": "rhf"
			},
			{
				"type": "occ",
				"energy": -0.28047,
				"method": "rhf"
			},
			{
				"type": "occ",
				"energy": -0.25517,
				"method": "rhf"
			},
			{
				"type": "occ",
				"energy": -0.24035,
				"method": "rhf"
			},
			{
				"type": "unocc",
				"energy": -0.04158,
				"method": "rhf"
			},
			{
				"type": "unocc",
				"energy": -0.00752,
				"method": "rhf"
			},
			{
				"type": "unocc",
				"energy": 0.04308,
				"method": "rhf"
			},
			{
				"type": "unocc",
				"energy": 0.07497,
				"method": "rhf"
			},
			{
				"type": "unocc",
				"energy": 0.07855,
				"method": "rhf"
			}
		],
		"cosmo_sigma_profile": { 
			"-0.025": 0.0,
			"-0.024": 0.0,
			"-0.023": 0.0,
			"-0.022": 0.0,
			"-0.021": 0.0,
			"-0.02": 0.0,
			"-0.019": 0.0,
			"-0.018": 0.0,
			"-0.017": 0.0,
			"-0.016": 0.0,
			"-0.015": 0.0,
			"-0.014": 0.0,
			"-0.013": 0.128461032906,
			"-0.012": 1.40322688317,
			"-0.011": 0.7895282122,
			"-0.01": 1.30772750823,
			"-0.009": 1.47467590911,
			"-0.008": 4.30686684442,
			"-0.007": 6.40192850484,
			"-0.006": 8.08239272347,
			"-0.005": 6.79164238222,
			"-0.004": 5.15951899018,
			"-0.003": 5.90872292383,
			"-0.002": 5.240614159,
			"-0.001": 13.0122285924,
			"0.0": 20.8142968016,
			"0.001": 15.8198454383,
			"0.002": 15.4765666816,
			"0.003": 20.673441573,
			"0.004": 17.0120744077,
			"0.005": 9.80815316155,
			"0.006": 8.402260381,
			"0.007": 0.133305106276,
			"0.008": 0.0,
			"0.009": 0.0,
			"0.01": 0.0,
			"0.011": 0.0,
			"0.012": 0.0,
			"0.013": 0.0,
			"0.014": 0.0,
			"0.015": 0.0,
			"0.016": 0.0,
			"0.017": 0.0,
			"0.018": 0.0,
			"0.019": 0.0,
			"0.02": 0.0,
			"0.021": 0.0,
			"0.022": 0.0,
			"0.023": 0.0,
			"0.024": 0.0,
			"0.025": 0.0
		}
	}
}
