{
	 "smiles": "CC(C)CN1NC(=CC1=N)C1=CC=CC=C1", 
	 "Tm": 373.15, 
	 "num_atms": 33, 
	 "gaussian": { 
		 "optdone": 1, 
		 "sigma_profile": "yes", 
		 "theory": "DFT", 
		 "functional": "B3LYP", 
		 "basiset": "6-31G**", 
		 "properties": { 
			 "R2extent": 5286.5709, 
			 "electric_dipole_moment_norm": 3.98549186049, 
			 "electric_quadrupole_moment_norm": 13.2220786834, 
			 "total_energy": -669.853095113, 
			 "HOMO_LUMO_gap": 0.14101, 
			 "cosmo_polarized_energy": -13.83, 
			 "cosmo_cavitation_energy": 35.5, 
			 "cosmo_dispersion_energy": -24.75, 
			 "cosmo_repulsion_energy": 1.92, 
			 "cosmo_total_nonelectrostatic_energy": 12.67, 
			 "SMD_solvation_energy": 4.79 
		},
		"coords": [
			{
				"x": -0.4699358496,
				"y": 2.368871221,
				"z": 0.9981231226,
				"element": "C" 
			},
			{
				"x": 1.0465471655,
				"y": 2.5920252947,
				"z": 0.9274741278,
				"element": "C" 
			},
			{
				"x": 1.4175439911,
				"y": 4.0045316261,
				"z": 1.4036568421,
				"element": "C" 
			},
			{
				"x": 1.6259301155,
				"y": 2.3695611299,
				"z": -0.4853451602,
				"element": "C" 
			},
			{
				"x": 1.5795225402,
				"y": 1.0089185239,
				"z": -1.0058206931,
				"element": "N" 
			},
			{
				"x": 0.3576004081,
				"y": 0.5093568381,
				"z": -1.5240775724,
				"element": "N" 
			},
			{
				"x": 0.4662824695,
				"y": -0.8877271633,
				"z": -1.4952867954,
				"element": "C" 
			},
			{
				"x": 1.5844175923,
				"y": -1.2513240627,
				"z": -0.8144555045,
				"element": "C" 
			},
			{
				"x": 2.2991656871,
				"y": -0.0417371803,
				"z": -0.4152879977,
				"element": "C" 
			},
			{
				"x": 3.3312007813,
				"y": 0.1901306705,
				"z": 0.3229835981,
				"element": "N" 
			},
			{
				"x": -0.571607388,
				"y": -1.702385431,
				"z": -2.1376544479,
				"element": "C" 
			},
			{
				"x": -0.2833449325,
				"y": -3.0053273972,
				"z": -2.5778637102,
				"element": "C" 
			},
			{
				"x": -1.2694825455,
				"y": -3.781483659,
				"z": -3.181327704,
				"element": "C" 
			},
			{
				"x": -2.5557404089,
				"y": -3.2669309665,
				"z": -3.3654631767,
				"element": "C" 
			},
			{
				"x": -2.8507578002,
				"y": -1.9714734565,
				"z": -2.9366003798,
				"element": "C" 
			},
			{
				"x": -1.8687899439,
				"y": -1.1944619384,
				"z": -2.3240492637,
				"element": "C" 
			},
			{
				"x": -1.0021022328,
				"y": 3.073223312,
				"z": 0.34524687,
				"element": "H" 
			},
			{
				"x": -0.7479932171,
				"y": 1.357814927,
				"z": 0.6908596944,
				"element": "H" 
			},
			{
				"x": -0.8352740182,
				"y": 2.5270465509,
				"z": 2.0190509764,
				"element": "H" 
			},
			{
				"x": 1.5451823186,
				"y": 1.8684949184,
				"z": 1.5836029958,
				"element": "H" 
			},
			{
				"x": 0.9780625907,
				"y": 4.7715379614,
				"z": 0.7527803199,
				"element": "H" 
			},
			{
				"x": 1.0471743405,
				"y": 4.1845551256,
				"z": 2.4182880535,
				"element": "H" 
			},
			{
				"x": 2.5026125383,
				"y": 4.1531132019,
				"z": 1.4122489991,
				"element": "H" 
			},
			{
				"x": 2.6872006215,
				"y": 2.6325581565,
				"z": -0.4781795606,
				"element": "H" 
			},
			{
				"x": 1.1262045123,
				"y": 3.0230149704,
				"z": -1.2126073924,
				"element": "H" 
			},
			{
				"x": 0.1753752828,
				"y": 0.8886902292,
				"z": -2.4531417893,
				"element": "H" 
			},
			{
				"x": 1.868080116,
				"y": -2.2535091136,
				"z": -0.5272390505,
				"element": "H" 
			},
			{
				"x": 3.7236909145,
				"y": -0.6922530515,
				"z": 0.6488771375,
				"element": "H" 
			},
			{
				"x": 0.722522956,
				"y": -3.3967458345,
				"z": -2.4608658718,
				"element": "H" 
			},
			{
				"x": -1.0318432829,
				"y": -4.786254338,
				"z": -3.5183584589,
				"element": "H" 
			},
			{
				"x": -3.3221042947,
				"y": -3.8722330631,
				"z": -3.8405925892,
				"element": "H" 
			},
			{
				"x": -3.8502345128,
				"y": -1.5678158551,
				"z": -3.0701505642,
				"element": "H" 
			},
			{
				"x": -2.1074065148,
				"y": -0.1989821467,
				"z": -1.9621250545,
				"element": "H" 
			}
		],
		 "valence_orbital": [ 
			{
				"type": "occ",
				"energy": -0.2845,
				"method": "rhf"
			},
			{
				"type": "occ",
				"energy": -0.26317,
				"method": "rhf"
			},
			{
				"type": "occ",
				"energy": -0.24038,
				"method": "rhf"
			},
			{
				"type": "occ",
				"energy": -0.23335,
				"method": "rhf"
			},
			{
				"type": "occ",
				"energy": -0.18484,
				"method": "rhf"
			},
			{
				"type": "unocc",
				"energy": -0.04383,
				"method": "rhf"
			},
			{
				"type": "unocc",
				"energy": -0.01368,
				"method": "rhf"
			},
			{
				"type": "unocc",
				"energy": 0.03342,
				"method": "rhf"
			},
			{
				"type": "unocc",
				"energy": 0.07715,
				"method": "rhf"
			},
			{
				"type": "unocc",
				"energy": 0.09056,
				"method": "rhf"
			}
		],
		"cosmo_sigma_profile": { 
			"-0.025": 0.0,
			"-0.024": 0.0,
			"-0.023": 0.0,
			"-0.022": 0.0,
			"-0.021": 0.0,
			"-0.02": 0.0,
			"-0.019": 0.0,
			"-0.018": 0.0,
			"-0.017": 0.0,
			"-0.016": 0.0,
			"-0.015": 0.130269347776,
			"-0.014": 0.880102024106,
			"-0.013": 1.59467357586,
			"-0.012": 0.850919731238,
			"-0.011": 1.05489571274,
			"-0.01": 1.33553147057,
			"-0.009": 1.68384667793,
			"-0.008": 3.21138213121,
			"-0.007": 4.03877366758,
			"-0.006": 13.5996407863,
			"-0.005": 15.9807304489,
			"-0.004": 17.1481526907,
			"-0.003": 20.9339269708,
			"-0.002": 23.731454623,
			"-0.001": 24.9307111876,
			"0.0": 26.5456386167,
			"0.001": 29.4638201794,
			"0.002": 23.9103577388,
			"0.003": 16.9447523168,
			"0.004": 17.4314760393,
			"0.005": 11.6785778089,
			"0.006": 3.55036854037,
			"0.007": 2.20938082519,
			"0.008": 2.40484648648,
			"0.009": 1.64656032589,
			"0.01": 1.6191765151,
			"0.011": 1.67689135153,
			"0.012": 1.56084114016,
			"0.013": 0.948446121651,
			"0.014": 1.62278728953,
			"0.015": 0.973336465388,
			"0.016": 0.859007258552,
			"0.017": 1.2850688349,
			"0.018": 1.00364731027,
			"0.019": 0.772505183879,
			"0.02": 0.300052433942,
			"0.021": 0.0,
			"0.022": 0.0,
			"0.023": 0.0,
			"0.024": 0.0,
			"0.025": 0.0
		}
	}
}
