{
	 "smiles": "CCOC1=C(OCC)C=C(C=C1)C(=O)CC", 
	 "Tm": 313.15, 
	 "num_atms": 34, 
	 "gaussian": { 
		 "optdone": 1, 
		 "sigma_profile": "yes", 
		 "theory": "DFT", 
		 "functional": "B3LYP", 
		 "basiset": "6-31G**", 
		 "properties": { 
			 "R2extent": 5077.1054, 
			 "electric_dipole_moment_norm": 3.78017447216, 
			 "electric_quadrupole_moment_norm": 15.753821007, 
			 "total_energy": -731.895739198, 
			 "HOMO_LUMO_gap": 0.18434, 
			 "cosmo_polarized_energy": -9.74, 
			 "cosmo_cavitation_energy": 36.97, 
			 "cosmo_dispersion_energy": -25.38, 
			 "cosmo_repulsion_energy": 2.04, 
			 "cosmo_total_nonelectrostatic_energy": 13.63, 
			 "SMD_solvation_energy": 7.48 
		},
		"coords": [
			{
				"x": -2.884872002,
				"y": -2.6014883331,
				"z": 1.0840274262,
				"element": "C" 
			},
			{
				"x": -1.9221474415,
				"y": -1.4293191437,
				"z": 1.0447192601,
				"element": "C" 
			},
			{
				"x": -0.7116961562,
				"y": -1.8800387669,
				"z": 0.3982215184,
				"element": "O" 
			},
			{
				"x": 0.2837935565,
				"y": -0.9445851023,
				"z": 0.2776066844,
				"element": "C" 
			},
			{
				"x": 0.1540621877,
				"y": 0.1728895156,
				"z": -0.571598951,
				"element": "C" 
			},
			{
				"x": -1.0015090729,
				"y": 0.4033221334,
				"z": -1.2845278282,
				"element": "O" 
			},
			{
				"x": -1.219782074,
				"y": -0.4909260365,
				"z": -2.3952871544,
				"element": "C" 
			},
			{
				"x": -2.5148421491,
				"y": -0.0808245769,
				"z": -3.0718267118,
				"element": "C" 
			},
			{
				"x": 1.2007019713,
				"y": 1.0877057152,
				"z": -0.6713551694,
				"element": "C" 
			},
			{
				"x": 2.391557191,
				"y": 0.9075728713,
				"z": 0.0493884654,
				"element": "C" 
			},
			{
				"x": 2.5200391125,
				"y": -0.2251627561,
				"z": 0.8689821272,
				"element": "C" 
			},
			{
				"x": 1.4771849625,
				"y": -1.1361028155,
				"z": 0.9826495503,
				"element": "C" 
			},
			{
				"x": 3.5444302581,
				"y": 1.8622494319,
				"z": -0.0206542255,
				"element": "C" 
			},
			{
				"x": 4.5765397371,
				"y": 1.6318479591,
				"z": 0.5952454788,
				"element": "O" 
			},
			{
				"x": 3.4143026723,
				"y": 3.1491418001,
				"z": -0.8289747506,
				"element": "C" 
			},
			{
				"x": 2.6767350575,
				"y": 4.2472739995,
				"z": -0.0386709278,
				"element": "C" 
			},
			{
				"x": -3.1347798895,
				"y": -2.9343341693,
				"z": 0.0722916794,
				"element": "H" 
			},
			{
				"x": -3.8106370682,
				"y": -2.309108504,
				"z": 1.5894926883,
				"element": "H" 
			},
			{
				"x": -2.4460506596,
				"y": -3.4452754799,
				"z": 1.6241240315,
				"element": "H" 
			},
			{
				"x": -1.6742790651,
				"y": -1.0902620758,
				"z": 2.059765176,
				"element": "H" 
			},
			{
				"x": -2.3417144139,
				"y": -0.5820129512,
				"z": 0.4925277696,
				"element": "H" 
			},
			{
				"x": -0.3714786742,
				"y": -0.4105892454,
				"z": -3.0890748817,
				"element": "H" 
			},
			{
				"x": -1.2671030024,
				"y": -1.5240183277,
				"z": -2.0326037003,
				"element": "H" 
			},
			{
				"x": -2.7073030225,
				"y": -0.7244548065,
				"z": -3.9359313742,
				"element": "H" 
			},
			{
				"x": -2.4599330463,
				"y": 0.9557872349,
				"z": -3.4165349346,
				"element": "H" 
			},
			{
				"x": -3.3595861059,
				"y": -0.168350864,
				"z": -2.3821584536,
				"element": "H" 
			},
			{
				"x": 1.0536484387,
				"y": 1.937219306,
				"z": -1.3291491284,
				"element": "H" 
			},
			{
				"x": 3.446929397,
				"y": -0.3601404689,
				"z": 1.4154671602,
				"element": "H" 
			},
			{
				"x": 1.5574899304,
				"y": -2.0112341483,
				"z": 1.6198669167,
				"element": "H" 
			},
			{
				"x": 2.9050316269,
				"y": 2.9648125231,
				"z": -1.7811568697,
				"element": "H" 
			},
			{
				"x": 4.4332874243,
				"y": 3.476001572,
				"z": -1.0521659616,
				"element": "H" 
			},
			{
				"x": 3.1955438317,
				"y": 4.4553587657,
				"z": 0.9018754308,
				"element": "H" 
			},
			{
				"x": 2.6381597626,
				"y": 5.1751777204,
				"z": -0.6172265817,
				"element": "H" 
			},
			{
				"x": 1.6498767251,
				"y": 3.9543680239,
				"z": 0.200246241,
				"element": "H" 
			}
		],
		 "valence_orbital": [ 
			{
				"type": "occ",
				"energy": -0.29938,
				"method": "rhf"
			},
			{
				"type": "occ",
				"energy": -0.26919,
				"method": "rhf"
			},
			{
				"type": "occ",
				"energy": -0.25188,
				"method": "rhf"
			},
			{
				"type": "occ",
				"energy": -0.23896,
				"method": "rhf"
			},
			{
				"type": "occ",
				"energy": -0.23437,
				"method": "rhf"
			},
			{
				"type": "unocc",
				"energy": -0.05003,
				"method": "rhf"
			},
			{
				"type": "unocc",
				"energy": -0.00576,
				"method": "rhf"
			},
			{
				"type": "unocc",
				"energy": 0.04391,
				"method": "rhf"
			},
			{
				"type": "unocc",
				"energy": 0.07743,
				"method": "rhf"
			},
			{
				"type": "unocc",
				"energy": 0.08836,
				"method": "rhf"
			}
		],
		"cosmo_sigma_profile": { 
			"-0.025": 0.0,
			"-0.024": 0.0,
			"-0.023": 0.0,
			"-0.022": 0.0,
			"-0.021": 0.0,
			"-0.02": 0.0,
			"-0.019": 0.0,
			"-0.018": 0.0,
			"-0.017": 0.0,
			"-0.016": 0.0,
			"-0.015": 0.0,
			"-0.014": 0.0,
			"-0.013": 0.0,
			"-0.012": 0.0,
			"-0.011": 0.0,
			"-0.01": 0.0,
			"-0.009": 0.0,
			"-0.008": 0.245293537413,
			"-0.007": 2.36233558148,
			"-0.006": 4.39039791921,
			"-0.005": 8.04135082414,
			"-0.004": 25.7612665066,
			"-0.003": 40.4322829072,
			"-0.002": 41.8899873886,
			"-0.001": 39.0943698167,
			"0.0": 34.5130602564,
			"0.001": 20.2185155768,
			"0.002": 16.0570890556,
			"0.003": 15.0612875831,
			"0.004": 8.30439425627,
			"0.005": 4.60995636339,
			"0.006": 4.40844594558,
			"0.007": 3.35236898582,
			"0.008": 3.46862143138,
			"0.009": 3.31450510273,
			"0.01": 3.98036924567,
			"0.011": 4.17811355692,
			"0.012": 4.37428885873,
			"0.013": 2.04069102231,
			"0.014": 0.437342848907,
			"0.015": 0.0,
			"0.016": 0.0,
			"0.017": 0.0,
			"0.018": 0.0,
			"0.019": 0.0,
			"0.02": 0.0,
			"0.021": 0.0,
			"0.022": 0.0,
			"0.023": 0.0,
			"0.024": 0.0,
			"0.025": 0.0
		}
	}
}
