{
	 "smiles": "CC1=CC=C(C=C1)C1=NN=C(S)N1CC(O)=O", 
	 "Tm": 290.15, 
	 "num_atms": 28, 
	 "gaussian": { 
		 "optdone": 1, 
		 "sigma_profile": "yes", 
		 "theory": "DFT", 
		 "functional": "B3LYP", 
		 "basiset": "6-31G**", 
		 "properties": { 
			 "R2extent": 5559.0684, 
			 "electric_dipole_moment_norm": 6.65464368994, 
			 "electric_quadrupole_moment_norm": 20.6447669708, 
			 "total_energy": -1138.67095554, 
			 "HOMO_LUMO_gap": 0.19055, 
			 "cosmo_polarized_energy": -28.37, 
			 "cosmo_cavitation_energy": 34.52, 
			 "cosmo_dispersion_energy": -24.7, 
			 "cosmo_repulsion_energy": 1.89, 
			 "cosmo_total_nonelectrostatic_energy": 11.71, 
			 "SMD_solvation_energy": 4.64 
		},
		"coords": [
			{
				"x": 0.9184359501,
				"y": 0.6885926913,
				"z": 4.6692999216,
				"element": "C" 
			},
			{
				"x": 0.9778485578,
				"y": 0.76895063,
				"z": 3.1627691536,
				"element": "C" 
			},
			{
				"x": 0.4810947758,
				"y": -0.2659581867,
				"z": 2.3611520063,
				"element": "C" 
			},
			{
				"x": 0.5155971646,
				"y": -0.1848713041,
				"z": 0.9692376754,
				"element": "C" 
			},
			{
				"x": 1.0434687318,
				"y": 0.9535611991,
				"z": 0.3401685187,
				"element": "C" 
			},
			{
				"x": 1.5601775795,
				"y": 1.9887299613,
				"z": 1.1373009467,
				"element": "C" 
			},
			{
				"x": 1.5271247991,
				"y": 1.8916878219,
				"z": 2.5238930343,
				"element": "C" 
			},
			{
				"x": 1.1242073383,
				"y": 1.0754569972,
				"z": -1.1208527108,
				"element": "C" 
			},
			{
				"x": 2.1433193081,
				"y": 1.578210638,
				"z": -1.7818337103,
				"element": "N" 
			},
			{
				"x": 1.8556594515,
				"y": 1.5273299547,
				"z": -3.1310013544,
				"element": "N" 
			},
			{
				"x": 0.6608327181,
				"y": 1.0044215828,
				"z": -3.2475222059,
				"element": "C" 
			},
			{
				"x": -0.2158392757,
				"y": 0.7172542223,
				"z": -4.7551684816,
				"element": "S" 
			},
			{
				"x": 0.1299215668,
				"y": 0.6966153227,
				"z": -2.0155070117,
				"element": "N" 
			},
			{
				"x": -1.2339161457,
				"y": 0.3072807868,
				"z": -1.743118251,
				"element": "C" 
			},
			{
				"x": -1.4721655429,
				"y": -1.2075694706,
				"z": -1.8357171917,
				"element": "C" 
			},
			{
				"x": -2.7771874433,
				"y": -1.570023746,
				"z": -1.8375735116,
				"element": "O" 
			},
			{
				"x": -0.5958828343,
				"y": -2.0291140524,
				"z": -1.8627151395,
				"element": "O" 
			},
			{
				"x": 0.781870085,
				"y": -0.3414317372,
				"z": 5.0103088534,
				"element": "H" 
			},
			{
				"x": 0.082625646,
				"y": 1.2794802117,
				"z": 5.064656617,
				"element": "H" 
			},
			{
				"x": 1.8330577089,
				"y": 1.079295207,
				"z": 5.1264810165,
				"element": "H" 
			},
			{
				"x": 0.078706975,
				"y": -1.1598924015,
				"z": 2.8308349031,
				"element": "H" 
			},
			{
				"x": 0.1826070817,
				"y": -1.0285740051,
				"z": 0.3728822857,
				"element": "H" 
			},
			{
				"x": 1.9913398433,
				"y": 2.8583045432,
				"z": 0.6525985994,
				"element": "H" 
			},
			{
				"x": 1.9338440359,
				"y": 2.7018005352,
				"z": 3.124193738,
				"element": "H" 
			},
			{
				"x": 0.5496199028,
				"y": 1.5754590013,
				"z": -5.4545359952,
				"element": "H" 
			},
			{
				"x": -1.4916819439,
				"y": 0.6292811163,
				"z": -0.7283910743,
				"element": "H" 
			},
			{
				"x": -1.8974894714,
				"y": 0.8344588628,
				"z": -2.4395676742,
				"element": "H" 
			},
			{
				"x": -3.359196563,
				"y": -0.7959363818,
				"z": -1.8473729577,
				"element": "H" 
			}
		],
		 "valence_orbital": [ 
			{
				"type": "occ",
				"energy": -0.29095,
				"method": "rhf"
			},
			{
				"type": "occ",
				"energy": -0.2647,
				"method": "rhf"
			},
			{
				"type": "occ",
				"energy": -0.26035,
				"method": "rhf"
			},
			{
				"type": "occ",
				"energy": -0.25606,
				"method": "rhf"
			},
			{
				"type": "occ",
				"energy": -0.22361,
				"method": "rhf"
			},
			{
				"type": "unocc",
				"energy": -0.03306,
				"method": "rhf"
			},
			{
				"type": "unocc",
				"energy": -0.02091,
				"method": "rhf"
			},
			{
				"type": "unocc",
				"energy": -0.01246,
				"method": "rhf"
			},
			{
				"type": "unocc",
				"energy": 0.00255,
				"method": "rhf"
			},
			{
				"type": "unocc",
				"energy": 0.01792,
				"method": "rhf"
			}
		],
		"cosmo_sigma_profile": { 
			"-0.025": 0.0,
			"-0.024": 0.0,
			"-0.023": 0.0,
			"-0.022": 0.0,
			"-0.021": 0.407432423436,
			"-0.02": 1.48130172686,
			"-0.019": 1.54080105566,
			"-0.018": 0.988699344382,
			"-0.017": 1.50488030023,
			"-0.016": 1.0515614043,
			"-0.015": 1.1864011766,
			"-0.014": 1.19072186416,
			"-0.013": 1.68749868758,
			"-0.012": 3.81592942554,
			"-0.011": 2.72084323939,
			"-0.01": 3.44133647405,
			"-0.009": 5.18454070279,
			"-0.008": 5.0860170402,
			"-0.007": 5.2432581922,
			"-0.006": 8.91406997013,
			"-0.005": 14.1889759978,
			"-0.004": 18.9249718723,
			"-0.003": 16.8785465136,
			"-0.002": 16.6898033725,
			"-0.001": 19.9448796922,
			"0.0": 21.4712381312,
			"0.001": 16.7976273928,
			"0.002": 14.5152188972,
			"0.003": 14.7413344556,
			"0.004": 18.0127588078,
			"0.005": 9.82444191384,
			"0.006": 7.41994456018,
			"0.007": 4.68491900685,
			"0.008": 4.62446314906,
			"0.009": 6.41322367609,
			"0.01": 6.86449774925,
			"0.011": 6.80840403171,
			"0.012": 3.55634364847,
			"0.013": 3.28589675662,
			"0.014": 2.82320207498,
			"0.015": 2.49428128669,
			"0.016": 1.58275633836,
			"0.017": 0.155634760425,
			"0.018": 0.0,
			"0.019": 0.0,
			"0.02": 0.0,
			"0.021": 0.0,
			"0.022": 0.0,
			"0.023": 0.0,
			"0.024": 0.0,
			"0.025": 0.0
		}
	}
}
