{
	 "smiles": "NC1=C(C=NC=C1)[N+]([O-])=O", 
	 "Tm": 476.15, 
	 "num_atms": 15, 
	 "gaussian": { 
		 "optdone": 1, 
		 "sigma_profile": "yes", 
		 "theory": "DFT", 
		 "functional": "B3LYP", 
		 "basiset": "6-31G**", 
		 "properties": { 
			 "R2extent": 1541.7621, 
			 "electric_dipole_moment_norm": 5.05439896625, 
			 "electric_quadrupole_moment_norm": 7.59322014958, 
			 "total_energy": -508.149109795, 
			 "HOMO_LUMO_gap": 0.15928, 
			 "cosmo_polarized_energy": -13.39, 
			 "cosmo_cavitation_energy": 19.68, 
			 "cosmo_dispersion_energy": -15.13, 
			 "cosmo_repulsion_energy": 1.22, 
			 "cosmo_total_nonelectrostatic_energy": 5.76, 
			 "SMD_solvation_energy": 4.06 
		},
		"coords": [
			{
				"x": -1.7559711086,
				"y": 0.933489365,
				"z": -0.6754722281,
				"element": "N" 
			},
			{
				"x": -0.6814514664,
				"y": 0.5039433834,
				"z": 0.0175330195,
				"element": "C" 
			},
			{
				"x": -0.6686289336,
				"y": -0.656665684,
				"z": 0.8410968044,
				"element": "C" 
			},
			{
				"x": 0.5050268466,
				"y": -1.0195671719,
				"z": 1.5226393096,
				"element": "C" 
			},
			{
				"x": 1.6447350646,
				"y": -0.3454697908,
				"z": 1.4600839455,
				"element": "N" 
			},
			{
				"x": 1.6379573993,
				"y": 0.7578003408,
				"z": 0.6791231297,
				"element": "C" 
			},
			{
				"x": 0.547535922,
				"y": 1.2090270278,
				"z": -0.034525748,
				"element": "C" 
			},
			{
				"x": -1.8341142902,
				"y": -1.4978766283,
				"z": 1.0120416377,
				"element": "N" 
			},
			{
				"x": -1.7456029992,
				"y": -2.4845961521,
				"z": 1.7402959826,
				"element": "O" 
			},
			{
				"x": -2.8828722911,
				"y": -1.189753117,
				"z": 0.4145369358,
				"element": "O" 
			},
			{
				"x": -2.6134977251,
				"y": 0.4028674912,
				"z": -0.6110117454,
				"element": "H" 
			},
			{
				"x": -1.6918921922,
				"y": 1.7654234909,
				"z": -1.2381898415,
				"element": "H" 
			},
			{
				"x": 0.4782228149,
				"y": -1.9107941041,
				"z": 2.1417264872,
				"element": "H" 
			},
			{
				"x": 2.5752622629,
				"y": 1.3085494188,
				"z": 0.630167625,
				"element": "H" 
			},
			{
				"x": 0.620390696,
				"y": 2.1066221303,
				"z": -0.6415453141,
				"element": "H" 
			}
		],
		 "valence_orbital": [ 
			{
				"type": "occ",
				"energy": -0.31266,
				"method": "rhf"
			},
			{
				"type": "occ",
				"energy": -0.29561,
				"method": "rhf"
			},
			{
				"type": "occ",
				"energy": -0.287,
				"method": "rhf"
			},
			{
				"type": "occ",
				"energy": -0.26821,
				"method": "rhf"
			},
			{
				"type": "occ",
				"energy": -0.24989,
				"method": "rhf"
			},
			{
				"type": "unocc",
				"energy": -0.09061,
				"method": "rhf"
			},
			{
				"type": "unocc",
				"energy": -0.02231,
				"method": "rhf"
			},
			{
				"type": "unocc",
				"energy": -0.00323,
				"method": "rhf"
			},
			{
				"type": "unocc",
				"energy": 0.06741,
				"method": "rhf"
			},
			{
				"type": "unocc",
				"energy": 0.09156,
				"method": "rhf"
			}
		],
		"cosmo_sigma_profile": { 
			"-0.025": 0.0,
			"-0.024": 0.0,
			"-0.023": 0.0,
			"-0.022": 0.0,
			"-0.021": 0.0,
			"-0.02": 0.0,
			"-0.019": 0.0,
			"-0.018": 0.0,
			"-0.017": 0.0,
			"-0.016": 0.173945241406,
			"-0.015": 1.43806474412,
			"-0.014": 1.85044260683,
			"-0.013": 1.48024873277,
			"-0.012": 1.59352497649,
			"-0.011": 2.02865707669,
			"-0.01": 2.79313636615,
			"-0.009": 2.36338240538,
			"-0.008": 3.13577652848,
			"-0.007": 5.66699352746,
			"-0.006": 7.05998628331,
			"-0.005": 8.28401626858,
			"-0.004": 6.77043935333,
			"-0.003": 8.20990182024,
			"-0.002": 10.6348833362,
			"-0.001": 13.6748293357,
			"0.0": 12.0730623963,
			"0.001": 11.1675686371,
			"0.002": 9.40857491635,
			"0.003": 5.38401152969,
			"0.004": 4.8995791364,
			"0.005": 3.57247843181,
			"0.006": 4.14683822484,
			"0.007": 6.07885068189,
			"0.008": 7.79864716964,
			"0.009": 5.39755388904,
			"0.01": 4.61636142215,
			"0.011": 1.884498218,
			"0.012": 0.629224050841,
			"0.013": 1.39018140435,
			"0.014": 0.697041308385,
			"0.015": 0.848195980914,
			"0.016": 0.821444723707,
			"0.017": 0.14780666042,
			"0.018": 0.0,
			"0.019": 0.0,
			"0.02": 0.0,
			"0.021": 0.0,
			"0.022": 0.0,
			"0.023": 0.0,
			"0.024": 0.0,
			"0.025": 0.0
		}
	}
}
