{
	 "smiles": "COC1=C(C=CC=C1)C(C)CC(O)=O", 
	 "Tm": 324.15, 
	 "num_atms": 28, 
	 "gaussian": { 
		 "optdone": 1, 
		 "sigma_profile": "yes", 
		 "theory": "DFT", 
		 "functional": "B3LYP", 
		 "basiset": "6-31G**", 
		 "properties": { 
			 "R2extent": 3422.0797, 
			 "electric_dipole_moment_norm": 1.42590515112, 
			 "electric_quadrupole_moment_norm": 13.3861522859, 
			 "total_energy": -653.289929976, 
			 "HOMO_LUMO_gap": 0.21736, 
			 "cosmo_polarized_energy": -11.63, 
			 "cosmo_cavitation_energy": 30.65, 
			 "cosmo_dispersion_energy": -21.3, 
			 "cosmo_repulsion_energy": 1.7, 
			 "cosmo_total_nonelectrostatic_energy": 11.06, 
			 "SMD_solvation_energy": 7.07 
		},
		"coords": [
			{
				"x": 3.247793399,
				"y": -2.2715897672,
				"z": 1.3327605554,
				"element": "C" 
			},
			{
				"x": 2.1460240608,
				"y": -1.4684726915,
				"z": 0.9417172497,
				"element": "O" 
			},
			{
				"x": 1.8015224434,
				"y": -1.4282733928,
				"z": -0.3845079426,
				"element": "C" 
			},
			{
				"x": 0.69454801,
				"y": -0.6072845868,
				"z": -0.7019199459,
				"element": "C" 
			},
			{
				"x": 0.3042298975,
				"y": -0.5329854945,
				"z": -2.0402520435,
				"element": "C" 
			},
			{
				"x": 0.9726337769,
				"y": -1.2404658971,
				"z": -3.0448022757,
				"element": "C" 
			},
			{
				"x": 2.0567768051,
				"y": -2.0437001653,
				"z": -2.7094235185,
				"element": "C" 
			},
			{
				"x": 2.4748962106,
				"y": -2.142433054,
				"z": -1.3793097652,
				"element": "C" 
			},
			{
				"x": -0.0103121287,
				"y": 0.1643219702,
				"z": 0.4078589353,
				"element": "C" 
			},
			{
				"x": -1.4667659331,
				"y": 0.5338404771,
				"z": 0.0902867591,
				"element": "C" 
			},
			{
				"x": 0.8355350504,
				"y": 1.3922252027,
				"z": 0.8686262851,
				"element": "C" 
			},
			{
				"x": 1.2912680138,
				"y": 2.3205066836,
				"z": -0.2357782675,
				"element": "C" 
			},
			{
				"x": 0.2558580629,
				"y": 2.9326133012,
				"z": -0.8725338056,
				"element": "O" 
			},
			{
				"x": 2.4426485374,
				"y": 2.5345914199,
				"z": -0.5440635259,
				"element": "O" 
			},
			{
				"x": 3.337921185,
				"y": -2.1537659204,
				"z": 2.4138603281,
				"element": "H" 
			},
			{
				"x": 3.0802444763,
				"y": -3.3307004503,
				"z": 1.0984498303,
				"element": "H" 
			},
			{
				"x": 4.1786008596,
				"y": -1.9409671323,
				"z": 0.8550063664,
				"element": "H" 
			},
			{
				"x": -0.5436592148,
				"y": 0.0887246041,
				"z": -2.3079899592,
				"element": "H" 
			},
			{
				"x": 0.6432197284,
				"y": -1.1611370347,
				"z": -4.0762632206,
				"element": "H" 
			},
			{
				"x": 2.5873330585,
				"y": -2.6009025469,
				"z": -3.4762591475,
				"element": "H" 
			},
			{
				"x": 3.3212386836,
				"y": -2.7716392282,
				"z": -1.1313014992,
				"element": "H" 
			},
			{
				"x": -0.0274885426,
				"y": -0.4946387855,
				"z": 1.283454231,
				"element": "H" 
			},
			{
				"x": -2.0364561399,
				"y": -0.3547573756,
				"z": -0.1991499609,
				"element": "H" 
			},
			{
				"x": -1.5455447462,
				"y": 1.2734070141,
				"z": -0.7091712175,
				"element": "H" 
			},
			{
				"x": -1.9420099874,
				"y": 0.9638127,
				"z": 0.9783450458,
				"element": "H" 
			},
			{
				"x": 0.2479948564,
				"y": 1.9745525755,
				"z": 1.5891011698,
				"element": "H" 
			},
			{
				"x": 1.7409409902,
				"y": 1.0400243785,
				"z": 1.3633682069,
				"element": "H" 
			},
			{
				"x": 0.663708587,
				"y": 3.4861931964,
				"z": -1.5600088676,
				"element": "H" 
			}
		],
		 "valence_orbital": [ 
			{
				"type": "occ",
				"energy": -0.31501,
				"method": "rhf"
			},
			{
				"type": "occ",
				"energy": -0.3087,
				"method": "rhf"
			},
			{
				"type": "occ",
				"energy": -0.26393,
				"method": "rhf"
			},
			{
				"type": "occ",
				"energy": -0.24239,
				"method": "rhf"
			},
			{
				"type": "occ",
				"energy": -0.21505,
				"method": "rhf"
			},
			{
				"type": "unocc",
				"energy": 0.00231,
				"method": "rhf"
			},
			{
				"type": "unocc",
				"energy": 0.01243,
				"method": "rhf"
			},
			{
				"type": "unocc",
				"energy": 0.01826,
				"method": "rhf"
			},
			{
				"type": "unocc",
				"energy": 0.0815,
				"method": "rhf"
			},
			{
				"type": "unocc",
				"energy": 0.09298,
				"method": "rhf"
			}
		],
		"cosmo_sigma_profile": { 
			"-0.025": 0.0,
			"-0.024": 0.0,
			"-0.023": 0.0,
			"-0.022": 0.0,
			"-0.021": 0.0,
			"-0.02": 0.0,
			"-0.019": 0.0,
			"-0.018": 0.595197455467,
			"-0.017": 0.869029926623,
			"-0.016": 0.760347213688,
			"-0.015": 0.666318656508,
			"-0.014": 0.921645835139,
			"-0.013": 0.267226997162,
			"-0.012": 0.332099579797,
			"-0.011": 1.03893262914,
			"-0.01": 0.597199329346,
			"-0.009": 0.512214406735,
			"-0.008": 0.825332221704,
			"-0.007": 0.860106108367,
			"-0.006": 7.56686647618,
			"-0.005": 19.9010448715,
			"-0.004": 21.6091473094,
			"-0.003": 26.0207435159,
			"-0.002": 21.3474653687,
			"-0.001": 18.4575294008,
			"0.0": 17.1276451111,
			"0.001": 16.4473844608,
			"0.002": 12.341540077,
			"0.003": 13.7694937451,
			"0.004": 13.2818262814,
			"0.005": 12.3896755823,
			"0.006": 11.5463045984,
			"0.007": 4.91307297639,
			"0.008": 2.19347435056,
			"0.009": 2.18618516163,
			"0.01": 2.52735953175,
			"0.011": 2.72114244501,
			"0.012": 5.17426158083,
			"0.013": 1.41933108297,
			"0.014": 0.0672783987548,
			"0.015": 0.0,
			"0.016": 0.0,
			"0.017": 0.0,
			"0.018": 0.0,
			"0.019": 0.0,
			"0.02": 0.0,
			"0.021": 0.0,
			"0.022": 0.0,
			"0.023": 0.0,
			"0.024": 0.0,
			"0.025": 0.0
		}
	}
}
