{
	 "smiles": "CCOC(=O)C(C(Br)C1=CC(C(Br)C(C(=O)OCC)C(=O)OCC)=C(C=C1[N+]([O-])=O)[N+]([O-])=O)C(=O)OCC", 
	 "Tm": 403.15, 
	 "num_atms": 64, 
	 "gaussian": { 
		 "optdone": 1, 
		 "sigma_profile": "yes", 
		 "theory": "DFT", 
		 "functional": "B3LYP", 
		 "basiset": "6-31G**", 
		 "properties": { 
			 "R2extent": 25070.6943, 
			 "electric_dipole_moment_norm": 4.65192661271, 
			 "electric_quadrupole_moment_norm": 39.5009150055, 
			 "total_energy": -7008.8480106, 
			 "HOMO_LUMO_gap": 0.14963, 
			 "cosmo_polarized_energy": -28.32, 
			 "cosmo_cavitation_energy": 74.75, 
			 "cosmo_dispersion_energy": -43.86, 
			 "cosmo_repulsion_energy": 3.44, 
			 "cosmo_total_nonelectrostatic_energy": 34.33, 
			 "SMD_solvation_energy": 18.2 
		},
		"coords": [
			{
				"x": -0.2972866894,
				"y": -3.4630773685,
				"z": -4.1748647339,
				"element": "C" 
			},
			{
				"x": -0.491992416,
				"y": -1.9863442435,
				"z": -3.8951987811,
				"element": "C" 
			},
			{
				"x": -0.8478014016,
				"y": -1.8478193539,
				"z": -2.4900059894,
				"element": "O" 
			},
			{
				"x": -1.1895261594,
				"y": -0.6137905828,
				"z": -2.0848684023,
				"element": "C" 
			},
			{
				"x": -1.2014030621,
				"y": 0.3684496946,
				"z": -2.7888343629,
				"element": "O" 
			},
			{
				"x": -1.6178544214,
				"y": -0.5984424796,
				"z": -0.6060371158,
				"element": "C" 
			},
			{
				"x": -0.94872979,
				"y": -1.7043499262,
				"z": 0.2191039728,
				"element": "C" 
			},
			{
				"x": -1.5253164184,
				"y": -1.5268117425,
				"z": 2.133172103,
				"element": "Br" 
			},
			{
				"x": 0.5614373153,
				"y": -1.6822562515,
				"z": 0.1874919581,
				"element": "C" 
			},
			{
				"x": 1.233527519,
				"y": -0.478097419,
				"z": 0.4305516024,
				"element": "C" 
			},
			{
				"x": 2.6265972728,
				"y": -0.3416827564,
				"z": 0.4124810759,
				"element": "C" 
			},
			{
				"x": 3.2676667558,
				"y": 1.005149281,
				"z": 0.7007219588,
				"element": "C" 
			},
			{
				"x": 2.3138476616,
				"y": 2.4520495822,
				"z": -0.281640908,
				"element": "Br" 
			},
			{
				"x": 3.4084087584,
				"y": 1.2988138989,
				"z": 2.2059404982,
				"element": "C" 
			},
			{
				"x": 4.2156313273,
				"y": 2.5886044153,
				"z": 2.4179035427,
				"element": "C" 
			},
			{
				"x": 5.1151094189,
				"y": 2.9360355262,
				"z": 1.6884723474,
				"element": "O" 
			},
			{
				"x": 3.8326048059,
				"y": 3.233318264,
				"z": 3.5278843447,
				"element": "O" 
			},
			{
				"x": 4.5628328547,
				"y": 4.4500034674,
				"z": 3.841521444,
				"element": "C" 
			},
			{
				"x": 3.9514892148,
				"y": 5.0340083295,
				"z": 5.0994053747,
				"element": "C" 
			},
			{
				"x": 2.1075381907,
				"y": 1.273528245,
				"z": 3.0078845248,
				"element": "C" 
			},
			{
				"x": 1.0585638299,
				"y": 1.7724896538,
				"z": 2.6640761004,
				"element": "O" 
			},
			{
				"x": 2.2847025199,
				"y": 0.5980571355,
				"z": 4.1546431777,
				"element": "O" 
			},
			{
				"x": 1.1228771008,
				"y": 0.5101982296,
				"z": 5.0210807613,
				"element": "C" 
			},
			{
				"x": 1.528252252,
				"y": -0.2879049061,
				"z": 6.2445953592,
				"element": "C" 
			},
			{
				"x": 3.3634588328,
				"y": -1.5023637497,
				"z": 0.1061473563,
				"element": "C" 
			},
			{
				"x": 2.7405180471,
				"y": -2.7045766086,
				"z": -0.2059528178,
				"element": "C" 
			},
			{
				"x": 1.3574412287,
				"y": -2.7951595687,
				"z": -0.138931442,
				"element": "C" 
			},
			{
				"x": 0.7956683081,
				"y": -4.1280989436,
				"z": -0.4304131483,
				"element": "N" 
			},
			{
				"x": -0.2127707901,
				"y": -4.4764312474,
				"z": 0.1779093074,
				"element": "O" 
			},
			{
				"x": 1.4024635199,
				"y": -4.820372239,
				"z": -1.2462955947,
				"element": "O" 
			},
			{
				"x": 4.837451304,
				"y": -1.5343689033,
				"z": 0.1113673765,
				"element": "N" 
			},
			{
				"x": 5.4247092396,
				"y": -0.7567539,
				"z": 0.8668711034,
				"element": "O" 
			},
			{
				"x": 5.3882520314,
				"y": -2.3547220858,
				"z": -0.6154436848,
				"element": "O" 
			},
			{
				"x": -3.1428946196,
				"y": -0.795284942,
				"z": -0.5878493667,
				"element": "C" 
			},
			{
				"x": -3.6832965056,
				"y": -1.8672876968,
				"z": -0.744940968,
				"element": "O" 
			},
			{
				"x": -3.7721616172,
				"y": 0.3702597147,
				"z": -0.4087340637,
				"element": "O" 
			},
			{
				"x": -5.2239496567,
				"y": 0.315556658,
				"z": -0.4138740444,
				"element": "C" 
			},
			{
				"x": -5.7302605791,
				"y": 1.7295576461,
				"z": -0.2102633708,
				"element": "C" 
			},
			{
				"x": -0.0199218831,
				"y": -3.6008542244,
				"z": -5.224553319,
				"element": "H" 
			},
			{
				"x": -1.2192890483,
				"y": -4.0200663797,
				"z": -3.9867811743,
				"element": "H" 
			},
			{
				"x": 0.4949796498,
				"y": -3.8861584032,
				"z": -3.5515176534,
				"element": "H" 
			},
			{
				"x": -1.2948683903,
				"y": -1.5494507297,
				"z": -4.494976954,
				"element": "H" 
			},
			{
				"x": 0.4161258241,
				"y": -1.4032321678,
				"z": -4.0768767333,
				"element": "H" 
			},
			{
				"x": -1.3942681743,
				"y": 0.3994192073,
				"z": -0.2285907556,
				"element": "H" 
			},
			{
				"x": -1.3512227834,
				"y": -2.6673157454,
				"z": -0.068359012,
				"element": "H" 
			},
			{
				"x": 0.6516811552,
				"y": 0.4055791038,
				"z": 0.6611680365,
				"element": "H" 
			},
			{
				"x": 4.2678243546,
				"y": 1.0642899206,
				"z": 0.2862854388,
				"element": "H" 
			},
			{
				"x": 4.0492128354,
				"y": 0.4980254601,
				"z": 2.5952735409,
				"element": "H" 
			},
			{
				"x": 4.4844226507,
				"y": 5.1280025253,
				"z": 2.9870398042,
				"element": "H" 
			},
			{
				"x": 5.6189682943,
				"y": 4.1953684813,
				"z": 3.9710243,
				"element": "H" 
			},
			{
				"x": 4.0347391761,
				"y": 4.3356687307,
				"z": 5.9370040477,
				"element": "H" 
			},
			{
				"x": 2.8945560085,
				"y": 5.2694374864,
				"z": 4.9469456405,
				"element": "H" 
			},
			{
				"x": 4.4748932014,
				"y": 5.9567419788,
				"z": 5.3678629476,
				"element": "H" 
			},
			{
				"x": 0.3125372332,
				"y": 0.032875282,
				"z": 4.4619474585,
				"element": "H" 
			},
			{
				"x": 0.8021306323,
				"y": 1.5251149901,
				"z": 5.2744740951,
				"element": "H" 
			},
			{
				"x": 0.6760790555,
				"y": -0.3766062552,
				"z": 6.9253885859,
				"element": "H" 
			},
			{
				"x": 1.8509012427,
				"y": -1.2951747409,
				"z": 5.9664131403,
				"element": "H" 
			},
			{
				"x": 2.346644377,
				"y": 0.2020629554,
				"z": 6.7797040691,
				"element": "H" 
			},
			{
				"x": 3.3322012907,
				"y": -3.5647344527,
				"z": -0.4884928438,
				"element": "H" 
			},
			{
				"x": -5.5509295289,
				"y": -0.1104490532,
				"z": -1.3671070276,
				"element": "H" 
			},
			{
				"x": -5.5460316443,
				"y": -0.361641354,
				"z": 0.3826876774,
				"element": "H" 
			},
			{
				"x": -5.3829555328,
				"y": 2.1357666874,
				"z": 0.74377471,
				"element": "H" 
			},
			{
				"x": -5.3854003917,
				"y": 2.387577051,
				"z": -1.0126105525,
				"element": "H" 
			},
			{
				"x": -6.8246147873,
				"y": 1.731570819,
				"z": -0.208103962,
				"element": "H" 
			}
		],
		 "valence_orbital": [ 
			{
				"type": "occ",
				"energy": -0.28802,
				"method": "rhf"
			},
			{
				"type": "occ",
				"energy": -0.28435,
				"method": "rhf"
			},
			{
				"type": "occ",
				"energy": -0.28082,
				"method": "rhf"
			},
			{
				"type": "occ",
				"energy": -0.27871,
				"method": "rhf"
			},
			{
				"type": "occ",
				"energy": -0.268,
				"method": "rhf"
			},
			{
				"type": "unocc",
				"energy": -0.11837,
				"method": "rhf"
			},
			{
				"type": "unocc",
				"energy": -0.1059,
				"method": "rhf"
			},
			{
				"type": "unocc",
				"energy": -0.05758,
				"method": "rhf"
			},
			{
				"type": "unocc",
				"energy": -0.04338,
				"method": "rhf"
			},
			{
				"type": "unocc",
				"energy": -0.02907,
				"method": "rhf"
			}
		],
		"cosmo_sigma_profile": { 
			"-0.025": 0.0,
			"-0.024": 0.0,
			"-0.023": 0.0,
			"-0.022": 0.0,
			"-0.021": 0.0,
			"-0.02": 0.0,
			"-0.019": 0.0,
			"-0.018": 0.0,
			"-0.017": 0.0,
			"-0.016": 0.0,
			"-0.015": 0.0,
			"-0.014": 0.0686655601637,
			"-0.013": 0.431959294063,
			"-0.012": 0.697756498359,
			"-0.011": 0.665310337546,
			"-0.01": 2.38856754795,
			"-0.009": 5.77930586716,
			"-0.008": 6.88205175948,
			"-0.007": 7.75058478343,
			"-0.006": 21.6267759026,
			"-0.005": 44.4099460135,
			"-0.004": 66.0276553846,
			"-0.003": 60.9336865528,
			"-0.002": 50.8584746426,
			"-0.001": 49.5436690333,
			"0.0": 46.5373014937,
			"0.001": 32.2054603659,
			"0.002": 23.7903128042,
			"0.003": 28.6120094133,
			"0.004": 30.3436092315,
			"0.005": 26.0091874416,
			"0.006": 23.4154631148,
			"0.007": 17.3322120524,
			"0.008": 13.5256797318,
			"0.009": 10.7388956258,
			"0.01": 10.7746625171,
			"0.011": 14.2241564448,
			"0.012": 1.34598217064,
			"0.013": 0.0,
			"0.014": 0.0,
			"0.015": 0.0,
			"0.016": 0.0,
			"0.017": 0.0,
			"0.018": 0.0,
			"0.019": 0.0,
			"0.02": 0.0,
			"0.021": 0.0,
			"0.022": 0.0,
			"0.023": 0.0,
			"0.024": 0.0,
			"0.025": 0.0
		}
	}
}
