{
	 "smiles": "CCCC1=C(C=NN1C1=CC(Cl)=CC(Cl)=C1)C(O)=O", 
	 "Tm": 443.15, 
	 "num_atms": 31, 
	 "gaussian": { 
		 "optdone": 1, 
		 "sigma_profile": "yes", 
		 "theory": "DFT", 
		 "functional": "B3LYP", 
		 "basiset": "6-31G**", 
		 "properties": { 
			 "R2extent": 8523.0982, 
			 "electric_dipole_moment_norm": 3.24159542972, 
			 "electric_quadrupole_moment_norm": 10.4720078867, 
			 "total_energy": -1682.95915187, 
			 "HOMO_LUMO_gap": 0.20448, 
			 "cosmo_polarized_energy": -13.0, 
			 "cosmo_cavitation_energy": 39.14, 
			 "cosmo_dispersion_energy": -26.8, 
			 "cosmo_repulsion_energy": 2.1, 
			 "cosmo_total_nonelectrostatic_energy": 14.45, 
			 "SMD_solvation_energy": 6.43 
		},
		"coords": [
			{
				"x": 0.3082629711,
				"y": -2.2225182066,
				"z": 0.7908187726,
				"element": "C" 
			},
			{
				"x": 1.3566044542,
				"y": -1.1521873439,
				"z": 0.4757070482,
				"element": "C" 
			},
			{
				"x": 0.7680794952,
				"y": 0.170117807,
				"z": -0.0730365809,
				"element": "C" 
			},
			{
				"x": -0.1222930645,
				"y": 0.882738456,
				"z": 0.9059227272,
				"element": "C" 
			},
			{
				"x": 0.1944664143,
				"y": 1.5685683247,
				"z": 2.0823792414,
				"element": "C" 
			},
			{
				"x": -1.0512519041,
				"y": 1.9143479383,
				"z": 2.6648127858,
				"element": "C" 
			},
			{
				"x": -2.0702004102,
				"y": 1.5010423402,
				"z": 1.9365754452,
				"element": "N" 
			},
			{
				"x": -1.4922347486,
				"y": 0.8799372547,
				"z": 0.8565094449,
				"element": "N" 
			},
			{
				"x": -2.3653999265,
				"y": 0.3450290512,
				"z": -0.1337223762,
				"element": "C" 
			},
			{
				"x": -2.2016753849,
				"y": 0.6820602309,
				"z": -1.4798405798,
				"element": "C" 
			},
			{
				"x": -3.0867487895,
				"y": 0.1448062006,
				"z": -2.4134301985,
				"element": "C" 
			},
			{
				"x": -2.8880340668,
				"y": 0.5511205732,
				"z": -4.106795521,
				"element": "Cl" 
			},
			{
				"x": -4.1369597377,
				"y": -0.6897396605,
				"z": -2.0360902982,
				"element": "C" 
			},
			{
				"x": -4.2875682135,
				"y": -0.9806142322,
				"z": -0.6793790898,
				"element": "C" 
			},
			{
				"x": -5.6071793314,
				"y": -2.0178170411,
				"z": -0.1775661154,
				"element": "Cl" 
			},
			{
				"x": -3.4147255024,
				"y": -0.4790352275,
				"z": 0.2818070686,
				"element": "C" 
			},
			{
				"x": 1.4858700212,
				"y": 1.926068033,
				"z": 2.6686120102,
				"element": "C" 
			},
			{
				"x": 2.5562717593,
				"y": 1.5380439444,
				"z": 1.9192922408,
				"element": "O" 
			},
			{
				"x": 1.624192952,
				"y": 2.5216222988,
				"z": 3.719813492,
				"element": "O" 
			},
			{
				"x": -0.3841074048,
				"y": -1.8905488005,
				"z": 1.5716818893,
				"element": "H" 
			},
			{
				"x": -0.2843813001,
				"y": -2.4774379037,
				"z": -0.0950212661,
				"element": "H" 
			},
			{
				"x": 0.7861086729,
				"y": -3.1411851336,
				"z": 1.1453550881,
				"element": "H" 
			},
			{
				"x": 1.9505297274,
				"y": -0.9292990632,
				"z": 1.3672064616,
				"element": "H" 
			},
			{
				"x": 2.0571903264,
				"y": -1.5341410793,
				"z": -0.2769500076,
				"element": "H" 
			},
			{
				"x": 1.5932503173,
				"y": 0.8396513807,
				"z": -0.3308784324,
				"element": "H" 
			},
			{
				"x": 0.2191802401,
				"y": -0.0424478346,
				"z": -0.9935610126,
				"element": "H" 
			},
			{
				"x": -1.21283962,
				"y": 2.4572591377,
				"z": 3.5856416411,
				"element": "H" 
			},
			{
				"x": -1.4243934377,
				"y": 1.3682165775,
				"z": -1.7911284082,
				"element": "H" 
			},
			{
				"x": -4.8207118945,
				"y": -1.0932999907,
				"z": -2.7721041797,
				"element": "H" 
			},
			{
				"x": -3.5425650568,
				"y": -0.7045085784,
				"z": 1.3324734401,
				"element": "H" 
			},
			{
				"x": 3.3379624426,
				"y": 1.8392505469,
				"z": 2.4118952693,
				"element": "H" 
			}
		],
		 "valence_orbital": [ 
			{
				"type": "occ",
				"energy": -0.29256,
				"method": "rhf"
			},
			{
				"type": "occ",
				"energy": -0.27907,
				"method": "rhf"
			},
			{
				"type": "occ",
				"energy": -0.26619,
				"method": "rhf"
			},
			{
				"type": "occ",
				"energy": -0.26046,
				"method": "rhf"
			},
			{
				"type": "occ",
				"energy": -0.25643,
				"method": "rhf"
			},
			{
				"type": "unocc",
				"energy": -0.05195,
				"method": "rhf"
			},
			{
				"type": "unocc",
				"energy": -0.04019,
				"method": "rhf"
			},
			{
				"type": "unocc",
				"energy": -0.02323,
				"method": "rhf"
			},
			{
				"type": "unocc",
				"energy": -0.00622,
				"method": "rhf"
			},
			{
				"type": "unocc",
				"energy": 0.00917,
				"method": "rhf"
			}
		],
		"cosmo_sigma_profile": { 
			"-0.025": 0.0,
			"-0.024": 0.0,
			"-0.023": 0.0,
			"-0.022": 0.0,
			"-0.021": 0.0,
			"-0.02": 0.0,
			"-0.019": 0.0,
			"-0.018": 0.58639370372,
			"-0.017": 0.625335231315,
			"-0.016": 0.925325042338,
			"-0.015": 0.92248156668,
			"-0.014": 1.11015639444,
			"-0.013": 0.685886863953,
			"-0.012": 0.186148729381,
			"-0.011": 0.735788533795,
			"-0.01": 0.834639485375,
			"-0.009": 2.6010926771,
			"-0.008": 6.91217746025,
			"-0.007": 6.39757561918,
			"-0.006": 7.31965130088,
			"-0.005": 8.58503185996,
			"-0.004": 11.2571440363,
			"-0.003": 24.3688834879,
			"-0.002": 31.0120899057,
			"-0.001": 35.362392484,
			"0.0": 44.6625879126,
			"0.001": 34.3629056126,
			"0.002": 21.4489523963,
			"0.003": 21.7986598464,
			"0.004": 21.0763621704,
			"0.005": 5.94880868987,
			"0.006": 3.48750543509,
			"0.007": 2.58805802361,
			"0.008": 3.19247600079,
			"0.009": 2.68943942201,
			"0.01": 2.45155697025,
			"0.011": 3.69164461127,
			"0.012": 6.95690436049,
			"0.013": 1.2132024902,
			"0.014": 0.62387743772,
			"0.015": 0.038070976121,
			"0.016": 0.0,
			"0.017": 0.0,
			"0.018": 0.0,
			"0.019": 0.0,
			"0.02": 0.0,
			"0.021": 0.0,
			"0.022": 0.0,
			"0.023": 0.0,
			"0.024": 0.0,
			"0.025": 0.0
		}
	}
}
