{
	 "smiles": "NC1=NC=NC(NC2=CC=C(Cl)C=C2)=N1", 
	 "Tm": 506.15, 
	 "num_atms": 23, 
	 "gaussian": { 
		 "optdone": 1, 
		 "sigma_profile": "yes", 
		 "theory": "DFT", 
		 "functional": "B3LYP", 
		 "basiset": "6-31G**", 
		 "properties": { 
			 "R2extent": 6296.4919, 
			 "electric_dipole_moment_norm": 4.35308203116, 
			 "electric_quadrupole_moment_norm": 11.3447643924, 
			 "total_energy": -1081.76595969, 
			 "HOMO_LUMO_gap": 0.18127, 
			 "cosmo_polarized_energy": -13.34, 
			 "cosmo_cavitation_energy": 29.88, 
			 "cosmo_dispersion_energy": -22.79, 
			 "cosmo_repulsion_energy": 1.78, 
			 "cosmo_total_nonelectrostatic_energy": 8.87, 
			 "SMD_solvation_energy": 1.2 
		},
		"coords": [
			{
				"x": -3.2102739577,
				"y": -0.1126569449,
				"z": 2.3550238441,
				"element": "N" 
			},
			{
				"x": -2.4162348346,
				"y": -0.2669404603,
				"z": 1.2721224121,
				"element": "C" 
			},
			{
				"x": -3.0334205777,
				"y": -0.2859733506,
				"z": 0.0636715815,
				"element": "N" 
			},
			{
				"x": -2.1952160621,
				"y": -0.4487496487,
				"z": -0.9514883188,
				"element": "C" 
			},
			{
				"x": -0.8670434761,
				"y": -0.5883396135,
				"z": -0.8965524132,
				"element": "N" 
			},
			{
				"x": -0.3741934855,
				"y": -0.5512655386,
				"z": 0.355766831,
				"element": "C" 
			},
			{
				"x": 0.9701724038,
				"y": -0.6798055959,
				"z": 0.5750369335,
				"element": "N" 
			},
			{
				"x": 2.0582111995,
				"y": -0.8584962924,
				"z": -0.2953133185,
				"element": "C" 
			},
			{
				"x": 3.3302502795,
				"y": -0.9505817353,
				"z": 0.2964877724,
				"element": "C" 
			},
			{
				"x": 4.4711374794,
				"y": -1.1280488372,
				"z": -0.4783606339,
				"element": "C" 
			},
			{
				"x": 4.3473271248,
				"y": -1.2155548647,
				"z": -1.8642171412,
				"element": "C" 
			},
			{
				"x": 5.7842403937,
				"y": -1.4400865103,
				"z": -2.8543799936,
				"element": "Cl" 
			},
			{
				"x": 3.0951610482,
				"y": -1.1264536285,
				"z": -2.4678834664,
				"element": "C" 
			},
			{
				"x": 1.9502495014,
				"y": -0.9485800375,
				"z": -1.6924333,
				"element": "C" 
			},
			{
				"x": -1.0991118924,
				"y": -0.3923148967,
				"z": 1.478340156,
				"element": "N" 
			},
			{
				"x": -4.1972876176,
				"y": 0.0263773592,
				"z": 2.2190690754,
				"element": "H" 
			},
			{
				"x": -2.7976194926,
				"y": -0.0485154584,
				"z": 3.2700765023,
				"element": "H" 
			},
			{
				"x": -2.637576015,
				"y": -0.4711075301,
				"z": -1.9469168272,
				"element": "H" 
			},
			{
				"x": 1.1938431959,
				"y": -0.6336337471,
				"z": 1.559969906,
				"element": "H" 
			},
			{
				"x": 3.4280248211,
				"y": -0.8824085038,
				"z": 1.3773425505,
				"element": "H" 
			},
			{
				"x": 5.4466867362,
				"y": -1.1976601448,
				"z": -0.0102697806,
				"element": "H" 
			},
			{
				"x": 3.0085473047,
				"y": -1.1956692563,
				"z": -3.5467805454,
				"element": "H" 
			},
			{
				"x": 0.9760259231,
				"y": -0.8786347636,
				"z": -2.1546118262,
				"element": "H" 
			}
		],
		 "valence_orbital": [ 
			{
				"type": "occ",
				"energy": -0.26828,
				"method": "rhf"
			},
			{
				"type": "occ",
				"energy": -0.2661,
				"method": "rhf"
			},
			{
				"type": "occ",
				"energy": -0.26164,
				"method": "rhf"
			},
			{
				"type": "occ",
				"energy": -0.25386,
				"method": "rhf"
			},
			{
				"type": "occ",
				"energy": -0.21349,
				"method": "rhf"
			},
			{
				"type": "unocc",
				"energy": -0.03222,
				"method": "rhf"
			},
			{
				"type": "unocc",
				"energy": -0.01653,
				"method": "rhf"
			},
			{
				"type": "unocc",
				"energy": -0.0093,
				"method": "rhf"
			},
			{
				"type": "unocc",
				"energy": 0.02437,
				"method": "rhf"
			},
			{
				"type": "unocc",
				"energy": 0.03433,
				"method": "rhf"
			}
		],
		"cosmo_sigma_profile": { 
			"-0.025": 0.0,
			"-0.024": 0.0,
			"-0.023": 0.0,
			"-0.022": 0.0,
			"-0.021": 0.0,
			"-0.02": 0.0,
			"-0.019": 0.0,
			"-0.018": 0.0,
			"-0.017": 0.0,
			"-0.016": 0.0,
			"-0.015": 0.931748836285,
			"-0.014": 2.97052981522,
			"-0.013": 3.59192778757,
			"-0.012": 2.87299052462,
			"-0.011": 2.65574645687,
			"-0.01": 2.71188072759,
			"-0.009": 3.95946019411,
			"-0.008": 4.39927939743,
			"-0.007": 8.04602829788,
			"-0.006": 8.05128161146,
			"-0.005": 8.17134874191,
			"-0.004": 9.33570683597,
			"-0.003": 10.3172890141,
			"-0.002": 11.480431106,
			"-0.001": 13.5421289034,
			"0.0": 17.9973915519,
			"0.001": 20.7002699896,
			"0.002": 23.8964522723,
			"0.003": 25.4016791491,
			"0.004": 25.0121721543,
			"0.005": 14.2367221035,
			"0.006": 4.82082878094,
			"0.007": 4.2075686429,
			"0.008": 3.35543639116,
			"0.009": 2.62094668846,
			"0.01": 1.81113254603,
			"0.011": 2.13029410204,
			"0.012": 1.18649002109,
			"0.013": 0.481100907607,
			"0.014": 1.02154548037,
			"0.015": 0.588292304321,
			"0.016": 0.0166136061044,
			"0.017": 0.0,
			"0.018": 0.0,
			"0.019": 0.0,
			"0.02": 0.0,
			"0.021": 0.0,
			"0.022": 0.0,
			"0.023": 0.0,
			"0.024": 0.0,
			"0.025": 0.0
		}
	}
}
