{
	 "smiles": "OC(=O)CC1=CSC(=N1)C1=CC=CS1", 
	 "Tm": 371.15, 
	 "num_atms": 21, 
	 "gaussian": { 
		 "optdone": 1, 
		 "sigma_profile": "yes", 
		 "theory": "DFT", 
		 "functional": "B3LYP", 
		 "basiset": "6-31G**", 
		 "properties": { 
			 "R2extent": 5259.726, 
			 "electric_dipole_moment_norm": 1.83736029401, 
			 "electric_quadrupole_moment_norm": 16.9074509859, 
			 "total_energy": -1348.74456648, 
			 "HOMO_LUMO_gap": 0.15496, 
			 "cosmo_polarized_energy": -13.51, 
			 "cosmo_cavitation_energy": 29.84, 
			 "cosmo_dispersion_energy": -22.45, 
			 "cosmo_repulsion_energy": 1.71, 
			 "cosmo_total_nonelectrostatic_energy": 9.09, 
			 "SMD_solvation_energy": 4.86 
		},
		"coords": [
			{
				"x": 0.5490213646,
				"y": 2.5045204913,
				"z": -0.9995667451,
				"element": "O" 
			},
			{
				"x": 1.5964801708,
				"y": 1.8045385675,
				"z": -0.5048759012,
				"element": "C" 
			},
			{
				"x": 2.7242185224,
				"y": 1.9242484791,
				"z": -0.9251249053,
				"element": "O" 
			},
			{
				"x": 1.1854468122,
				"y": 0.9053228755,
				"z": 0.6521343111,
				"element": "C" 
			},
			{
				"x": -0.0336518029,
				"y": 0.0684340745,
				"z": 0.375305227,
				"element": "C" 
			},
			{
				"x": -1.2197461404,
				"y": 0.1318586585,
				"z": 1.0537711333,
				"element": "C" 
			},
			{
				"x": -2.3426084265,
				"y": -1.0191409823,
				"z": 0.4088708962,
				"element": "S" 
			},
			{
				"x": -1.1078273455,
				"y": -1.5150387261,
				"z": -0.7549003737,
				"element": "C" 
			},
			{
				"x": 0.0195239595,
				"y": -0.8600966419,
				"z": -0.6364874701,
				"element": "N" 
			},
			{
				"x": -1.323610617,
				"y": -2.5540635875,
				"z": -1.7459111275,
				"element": "C" 
			},
			{
				"x": -0.4042312571,
				"y": -2.9911852998,
				"z": -2.6755569814,
				"element": "C" 
			},
			{
				"x": -0.9063164458,
				"y": -4.0228144573,
				"z": -3.5145843225,
				"element": "C" 
			},
			{
				"x": -2.1998808948,
				"y": -4.3648994283,
				"z": -3.2213831726,
				"element": "C" 
			},
			{
				"x": -2.8311688741,
				"y": -3.428074887,
				"z": -1.907942281,
				"element": "S" 
			},
			{
				"x": 0.9074135975,
				"y": 3.0484444486,
				"z": -1.7210019916,
				"element": "H" 
			},
			{
				"x": 1.0029623941,
				"y": 1.5479382701,
				"z": 1.5206554566,
				"element": "H" 
			},
			{
				"x": 2.0473927149,
				"y": 0.2718044064,
				"z": 0.8747286286,
				"element": "H" 
			},
			{
				"x": -1.4936257788,
				"y": 0.7801084599,
				"z": 1.8736015413,
				"element": "H" 
			},
			{
				"x": 0.5918381623,
				"y": -2.570774101,
				"z": -2.7349948234,
				"element": "H" 
			},
			{
				"x": -0.3309669205,
				"y": -4.4923879482,
				"z": -4.3040538694,
				"element": "H" 
			},
			{
				"x": -2.8236631949,
				"y": -5.1101426723,
				"z": -3.6949832294,
				"element": "H" 
			}
		],
		 "valence_orbital": [ 
			{
				"type": "occ",
				"energy": -0.28397,
				"method": "rhf"
			},
			{
				"type": "occ",
				"energy": -0.27953,
				"method": "rhf"
			},
			{
				"type": "occ",
				"energy": -0.26662,
				"method": "rhf"
			},
			{
				"type": "occ",
				"energy": -0.25995,
				"method": "rhf"
			},
			{
				"type": "occ",
				"energy": -0.21603,
				"method": "rhf"
			},
			{
				"type": "unocc",
				"energy": -0.06107,
				"method": "rhf"
			},
			{
				"type": "unocc",
				"energy": -0.00724,
				"method": "rhf"
			},
			{
				"type": "unocc",
				"energy": 0.00422,
				"method": "rhf"
			},
			{
				"type": "unocc",
				"energy": 0.01727,
				"method": "rhf"
			},
			{
				"type": "unocc",
				"energy": 0.03824,
				"method": "rhf"
			}
		],
		"cosmo_sigma_profile": { 
			"-0.025": 0.0,
			"-0.024": 0.0,
			"-0.023": 0.0,
			"-0.022": 0.0,
			"-0.021": 0.0,
			"-0.02": 0.0,
			"-0.019": 0.120589836418,
			"-0.018": 0.914689028592,
			"-0.017": 0.841123776724,
			"-0.016": 0.536549265987,
			"-0.015": 1.30780258035,
			"-0.014": 0.654023057924,
			"-0.013": 0.371522070136,
			"-0.012": 0.617903901447,
			"-0.011": 0.550990064395,
			"-0.01": 1.06592576742,
			"-0.009": 4.8537165436,
			"-0.008": 8.30297697542,
			"-0.007": 10.7033530701,
			"-0.006": 11.448649429,
			"-0.005": 10.2822475733,
			"-0.004": 11.6393589539,
			"-0.003": 10.170909777,
			"-0.002": 13.2729612116,
			"-0.001": 15.8385758107,
			"0.0": 16.5319330832,
			"0.001": 21.3542023932,
			"0.002": 23.0728070103,
			"0.003": 25.0910616472,
			"0.004": 15.5865319675,
			"0.005": 6.99199954074,
			"0.006": 6.21979803857,
			"0.007": 3.2698937715,
			"0.008": 4.35795223504,
			"0.009": 5.00957515261,
			"0.01": 3.33391455706,
			"0.011": 4.99695871181,
			"0.012": 3.91004943149,
			"0.013": 0.507533954815,
			"0.014": 0.0,
			"0.015": 0.0,
			"0.016": 0.0,
			"0.017": 0.0,
			"0.018": 0.0,
			"0.019": 0.0,
			"0.02": 0.0,
			"0.021": 0.0,
			"0.022": 0.0,
			"0.023": 0.0,
			"0.024": 0.0,
			"0.025": 0.0
		}
	}
}
