{
	 "smiles": "CC1=NN=C(O1)C1=CC(F)=C(Br)C=C1", 
	 "Tm": 412.15, 
	 "num_atms": 20, 
	 "gaussian": { 
		 "optdone": 1, 
		 "sigma_profile": "yes", 
		 "theory": "DFT", 
		 "functional": "B3LYP", 
		 "basiset": "6-31G**", 
		 "properties": { 
			 "R2extent": 5990.7923, 
			 "electric_dipole_moment_norm": 4.35399254019, 
			 "electric_quadrupole_moment_norm": 12.9312793261, 
			 "total_energy": -3202.5168145, 
			 "HOMO_LUMO_gap": 0.1786, 
			 "cosmo_polarized_energy": -10.67, 
			 "cosmo_cavitation_energy": 28.35, 
			 "cosmo_dispersion_energy": -21.26, 
			 "cosmo_repulsion_energy": 1.64, 
			 "cosmo_total_nonelectrostatic_energy": 8.73, 
			 "SMD_solvation_energy": 2.86 
		},
		"coords": [
			{
				"x": -4.2014376257,
				"y": 2.4935495038,
				"z": -0.3002439802,
				"element": "C" 
			},
			{
				"x": -2.7420044035,
				"y": 2.2256073425,
				"z": -0.2886226958,
				"element": "C" 
			},
			{
				"x": -1.77991595,
				"y": 2.9385064801,
				"z": -0.7859637414,
				"element": "N" 
			},
			{
				"x": -0.5965560996,
				"y": 2.256441341,
				"z": -0.5127953806,
				"element": "N" 
			},
			{
				"x": -0.9303844787,
				"y": 1.1781759391,
				"z": 0.1317803913,
				"element": "C" 
			},
			{
				"x": -2.2826290802,
				"y": 1.0875267422,
				"z": 0.313391164,
				"element": "O" 
			},
			{
				"x": -0.0632335398,
				"y": 0.1253652098,
				"z": 0.6461211198,
				"element": "C" 
			},
			{
				"x": 1.3216016035,
				"y": 0.235185476,
				"z": 0.4503855543,
				"element": "C" 
			},
			{
				"x": 2.1557491716,
				"y": -0.7591911872,
				"z": 0.9347684804,
				"element": "C" 
			},
			{
				"x": 3.4778608728,
				"y": -0.6487713937,
				"z": 0.7447389948,
				"element": "F" 
			},
			{
				"x": 1.6433647568,
				"y": -1.8682100871,
				"z": 1.6139729795,
				"element": "C" 
			},
			{
				"x": 2.823060005,
				"y": -3.2047452049,
				"z": 2.2597760688,
				"element": "Br" 
			},
			{
				"x": 0.2664002619,
				"y": -1.9748438747,
				"z": 1.8070796963,
				"element": "C" 
			},
			{
				"x": -0.5862867039,
				"y": -0.9841934046,
				"z": 1.3265750721,
				"element": "C" 
			},
			{
				"x": -4.7426437723,
				"y": 1.6930392837,
				"z": -0.8147883644,
				"element": "H" 
			},
			{
				"x": -4.3797696355,
				"y": 3.4363144276,
				"z": -0.8182746662,
				"element": "H" 
			},
			{
				"x": -4.5949959934,
				"y": 2.5637072531,
				"z": 0.7189052999,
				"element": "H" 
			},
			{
				"x": 1.7417729741,
				"y": 1.0860772335,
				"z": -0.0732725429,
				"element": "H" 
			},
			{
				"x": -0.1306840732,
				"y": -2.8349873794,
				"z": 2.3338110176,
				"element": "H" 
			},
			{
				"x": -1.6559682899,
				"y": -1.0711537008,
				"z": 1.4789555329,
				"element": "H" 
			}
		],
		 "valence_orbital": [ 
			{
				"type": "occ",
				"energy": -0.29872,
				"method": "rhf"
			},
			{
				"type": "occ",
				"energy": -0.29093,
				"method": "rhf"
			},
			{
				"type": "occ",
				"energy": -0.28206,
				"method": "rhf"
			},
			{
				"type": "occ",
				"energy": -0.27126,
				"method": "rhf"
			},
			{
				"type": "occ",
				"energy": -0.24275,
				"method": "rhf"
			},
			{
				"type": "unocc",
				"energy": -0.06415,
				"method": "rhf"
			},
			{
				"type": "unocc",
				"energy": -0.02488,
				"method": "rhf"
			},
			{
				"type": "unocc",
				"energy": -0.00653,
				"method": "rhf"
			},
			{
				"type": "unocc",
				"energy": 0.00779,
				"method": "rhf"
			},
			{
				"type": "unocc",
				"energy": 0.04936,
				"method": "rhf"
			}
		],
		"cosmo_sigma_profile": { 
			"-0.025": 0.0,
			"-0.024": 0.0,
			"-0.023": 0.0,
			"-0.022": 0.0,
			"-0.021": 0.0,
			"-0.02": 0.0,
			"-0.019": 0.0,
			"-0.018": 0.0,
			"-0.017": 0.0,
			"-0.016": 0.0,
			"-0.015": 0.0,
			"-0.014": 0.0,
			"-0.013": 0.0,
			"-0.012": 0.0,
			"-0.011": 0.0,
			"-0.01": 0.0,
			"-0.009": 0.215397367288,
			"-0.008": 3.24478532533,
			"-0.007": 9.94743954338,
			"-0.006": 11.9390168208,
			"-0.005": 13.0388862207,
			"-0.004": 15.6952679656,
			"-0.003": 19.2766785358,
			"-0.002": 19.4650057049,
			"-0.001": 21.3416560648,
			"0.0": 23.9818781585,
			"0.001": 19.4637555747,
			"0.002": 14.2505566016,
			"0.003": 20.7102269797,
			"0.004": 14.3226778319,
			"0.005": 3.2103845908,
			"0.006": 2.00215373208,
			"0.007": 1.89690794995,
			"0.008": 2.12064039514,
			"0.009": 1.78053195972,
			"0.01": 3.44353559289,
			"0.011": 2.65570348062,
			"0.012": 2.49060285272,
			"0.013": 2.94600313355,
			"0.014": 1.80016935085,
			"0.015": 0.903144321861,
			"0.016": 0.0428857316799,
			"0.017": 0.0,
			"0.018": 0.0,
			"0.019": 0.0,
			"0.02": 0.0,
			"0.021": 0.0,
			"0.022": 0.0,
			"0.023": 0.0,
			"0.024": 0.0,
			"0.025": 0.0
		}
	}
}
