{
	 "smiles": "OC(=O)CCNC(=O)C1=C(Cl)C=C(F)C=C1", 
	 "Tm": 415.15, 
	 "num_atms": 25, 
	 "gaussian": { 
		 "optdone": 1, 
		 "sigma_profile": "yes", 
		 "theory": "DFT", 
		 "functional": "B3LYP", 
		 "basiset": "6-31G**", 
		 "properties": { 
			 "R2extent": 5852.9287, 
			 "electric_dipole_moment_norm": 8.41194934008, 
			 "electric_quadrupole_moment_norm": 33.2990431429, 
			 "total_energy": -1226.96445666, 
			 "HOMO_LUMO_gap": 0.19094, 
			 "cosmo_polarized_energy": -22.18, 
			 "cosmo_cavitation_energy": 31.99, 
			 "cosmo_dispersion_energy": -22.83, 
			 "cosmo_repulsion_energy": 1.76, 
			 "cosmo_total_nonelectrostatic_energy": 10.92, 
			 "SMD_solvation_energy": 6.66 
		},
		"coords": [
			{
				"x": 3.2971861657,
				"y": 2.2732848656,
				"z": 1.891163784,
				"element": "O" 
			},
			{
				"x": 3.3091089771,
				"y": 1.4161317898,
				"z": 2.9229691156,
				"element": "C" 
			},
			{
				"x": 4.274559619,
				"y": 1.2985629639,
				"z": 3.6423663705,
				"element": "O" 
			},
			{
				"x": 2.0287652423,
				"y": 0.5981791869,
				"z": 3.1304987782,
				"element": "C" 
			},
			{
				"x": 0.7353613527,
				"y": 1.4559004811,
				"z": 3.2270264113,
				"element": "C" 
			},
			{
				"x": -0.270016469,
				"y": 1.1571883466,
				"z": 2.2077001493,
				"element": "N" 
			},
			{
				"x": -0.0753294036,
				"y": 1.48430506,
				"z": 0.9041586432,
				"element": "C" 
			},
			{
				"x": 0.9519420255,
				"y": 2.0452512019,
				"z": 0.5106173939,
				"element": "O" 
			},
			{
				"x": -1.215552227,
				"y": 1.1632503422,
				"z": -0.0192512258,
				"element": "C" 
			},
			{
				"x": -1.0321267365,
				"y": 0.5231929334,
				"z": -1.2581289073,
				"element": "C" 
			},
			{
				"x": 0.5369473389,
				"y": -0.0607926664,
				"z": -1.7613958777,
				"element": "Cl" 
			},
			{
				"x": -2.1090822403,
				"y": 0.2879257026,
				"z": -2.1110161294,
				"element": "C" 
			},
			{
				"x": -3.3750141499,
				"y": 0.7112387138,
				"z": -1.7220166961,
				"element": "C" 
			},
			{
				"x": -4.407751391,
				"y": 0.4889523189,
				"z": -2.5507370999,
				"element": "F" 
			},
			{
				"x": -3.6032020275,
				"y": 1.3483740642,
				"z": -0.5082297823,
				"element": "C" 
			},
			{
				"x": -2.5148979148,
				"y": 1.5627224858,
				"z": 0.3325939499,
				"element": "C" 
			},
			{
				"x": 2.460694655,
				"y": 2.2082874082,
				"z": 1.3706772307,
				"element": "H" 
			},
			{
				"x": 2.176851853,
				"y": 0.0104782198,
				"z": 4.037641431,
				"element": "H" 
			},
			{
				"x": 1.9330669167,
				"y": -0.1050359705,
				"z": 2.2953565531,
				"element": "H" 
			},
			{
				"x": 0.9791767086,
				"y": 2.5195116449,
				"z": 3.1508335401,
				"element": "H" 
			},
			{
				"x": 0.2557560897,
				"y": 1.3055587746,
				"z": 4.1962128797,
				"element": "H" 
			},
			{
				"x": -1.050592041,
				"y": 0.5629946172,
				"z": 2.4441302068,
				"element": "H" 
			},
			{
				"x": -1.9723557855,
				"y": -0.2170658347,
				"z": -3.0593328285,
				"element": "H" 
			},
			{
				"x": -4.6039229281,
				"y": 1.6695981228,
				"z": -0.2436670899,
				"element": "H" 
			},
			{
				"x": -2.6655736301,
				"y": 2.0782052275,
				"z": 1.2760291995,
				"element": "H" 
			}
		],
		 "valence_orbital": [ 
			{
				"type": "occ",
				"energy": -0.29361,
				"method": "rhf"
			},
			{
				"type": "occ",
				"energy": -0.28553,
				"method": "rhf"
			},
			{
				"type": "occ",
				"energy": -0.28384,
				"method": "rhf"
			},
			{
				"type": "occ",
				"energy": -0.27145,
				"method": "rhf"
			},
			{
				"type": "occ",
				"energy": -0.24781,
				"method": "rhf"
			},
			{
				"type": "unocc",
				"energy": -0.05687,
				"method": "rhf"
			},
			{
				"type": "unocc",
				"energy": -0.04718,
				"method": "rhf"
			},
			{
				"type": "unocc",
				"energy": 0.00638,
				"method": "rhf"
			},
			{
				"type": "unocc",
				"energy": 0.01194,
				"method": "rhf"
			},
			{
				"type": "unocc",
				"energy": 0.02779,
				"method": "rhf"
			}
		],
		"cosmo_sigma_profile": { 
			"-0.025": 0.0,
			"-0.024": 0.0,
			"-0.023": 0.0,
			"-0.022": 0.0,
			"-0.021": 0.0,
			"-0.02": 0.0,
			"-0.019": 0.0,
			"-0.018": 0.0,
			"-0.017": 0.0,
			"-0.016": 0.21012062278,
			"-0.015": 1.03865783504,
			"-0.014": 1.48275451323,
			"-0.013": 1.20896135953,
			"-0.012": 1.26250668979,
			"-0.011": 1.33013904592,
			"-0.01": 2.10472633915,
			"-0.009": 2.69746070049,
			"-0.008": 7.62541925864,
			"-0.007": 12.423747828,
			"-0.006": 15.6856445469,
			"-0.005": 15.3108331234,
			"-0.004": 16.1531654433,
			"-0.003": 13.9095445373,
			"-0.002": 14.265820394,
			"-0.001": 18.0987516751,
			"0.0": 23.0667975376,
			"0.001": 18.4800347551,
			"0.002": 14.0389645867,
			"0.003": 17.2717670449,
			"0.004": 13.6185799336,
			"0.005": 4.24676904477,
			"0.006": 4.75115826788,
			"0.007": 3.83920068977,
			"0.008": 3.27451157315,
			"0.009": 4.13255729265,
			"0.01": 4.95935934531,
			"0.011": 5.99064017316,
			"0.012": 8.30885646636,
			"0.013": 5.16551872716,
			"0.014": 1.70868174896,
			"0.015": 0.0284679125171,
			"0.016": 0.0,
			"0.017": 0.0,
			"0.018": 0.0,
			"0.019": 0.0,
			"0.02": 0.0,
			"0.021": 0.0,
			"0.022": 0.0,
			"0.023": 0.0,
			"0.024": 0.0,
			"0.025": 0.0
		}
	}
}
