{
	 "smiles": "ClC1=NC=C(C=C1)S(Cl)(=O)=O", 
	 "Tm": 322.15, 
	 "num_atms": 14, 
	 "gaussian": { 
		 "optdone": 1, 
		 "sigma_profile": "yes", 
		 "theory": "DFT", 
		 "functional": "B3LYP", 
		 "basiset": "6-31G**", 
		 "properties": { 
			 "R2extent": 3730.9968, 
			 "electric_dipole_moment_norm": 3.18600938166, 
			 "electric_quadrupole_moment_norm": 11.1485426684, 
			 "total_energy": -1716.02960914, 
			 "HOMO_LUMO_gap": 0.19161, 
			 "cosmo_polarized_energy": -9.94, 
			 "cosmo_cavitation_energy": 24.44, 
			 "cosmo_dispersion_energy": -18.73, 
			 "cosmo_repulsion_energy": 1.46, 
			 "cosmo_total_nonelectrostatic_energy": 7.18, 
			 "SMD_solvation_energy": 1.29 
		},
		"coords": [
			{
				"x": 2.7293680854,
				"y": -0.9859479043,
				"z": -1.9170835433,
				"element": "Cl" 
			},
			{
				"x": 1.7394844925,
				"y": -0.0295616786,
				"z": -0.838185566,
				"element": "C" 
			},
			{
				"x": 1.2505390039,
				"y": 1.0995910253,
				"z": -1.3272881703,
				"element": "N" 
			},
			{
				"x": 0.4852036044,
				"y": 1.8451454222,
				"z": -0.5238115027,
				"element": "C" 
			},
			{
				"x": 0.2029751012,
				"y": 1.4587647649,
				"z": 0.7865024054,
				"element": "C" 
			},
			{
				"x": 0.727670222,
				"y": 0.2704753944,
				"z": 1.3009541807,
				"element": "C" 
			},
			{
				"x": 1.5229539054,
				"y": -0.5005845544,
				"z": 0.4644974527,
				"element": "C" 
			},
			{
				"x": -0.8039656374,
				"y": 2.5051344059,
				"z": 1.8221636354,
				"element": "S" 
			},
			{
				"x": -2.7371357871,
				"y": 1.6878720151,
				"z": 1.477706144,
				"element": "Cl" 
			},
			{
				"x": -0.4855865839,
				"y": 2.2315838065,
				"z": 3.2172034277,
				"element": "O" 
			},
			{
				"x": -0.8179998801,
				"y": 3.8503879433,
				"z": 1.2652194704,
				"element": "O" 
			},
			{
				"x": 0.0965310539,
				"y": 2.774516863,
				"z": -0.9295982923,
				"element": "H" 
			},
			{
				"x": 0.5244275587,
				"y": -0.0283973962,
				"z": 2.3235954927,
				"element": "H" 
			},
			{
				"x": 1.965734861,
				"y": -1.4307801071,
				"z": 0.7986248656,
				"element": "H" 
			}
		],
		 "valence_orbital": [ 
			{
				"type": "occ",
				"energy": -0.34159,
				"method": "rhf"
			},
			{
				"type": "occ",
				"energy": -0.33575,
				"method": "rhf"
			},
			{
				"type": "occ",
				"energy": -0.3268,
				"method": "rhf"
			},
			{
				"type": "occ",
				"energy": -0.30866,
				"method": "rhf"
			},
			{
				"type": "occ",
				"energy": -0.29716,
				"method": "rhf"
			},
			{
				"type": "unocc",
				"energy": -0.10555,
				"method": "rhf"
			},
			{
				"type": "unocc",
				"energy": -0.07384,
				"method": "rhf"
			},
			{
				"type": "unocc",
				"energy": -0.06472,
				"method": "rhf"
			},
			{
				"type": "unocc",
				"energy": 0.00816,
				"method": "rhf"
			},
			{
				"type": "unocc",
				"energy": 0.03814,
				"method": "rhf"
			}
		],
		"cosmo_sigma_profile": { 
			"-0.025": 0.0,
			"-0.024": 0.0,
			"-0.023": 0.0,
			"-0.022": 0.0,
			"-0.021": 0.0,
			"-0.02": 0.0,
			"-0.019": 0.0,
			"-0.018": 0.0,
			"-0.017": 0.0,
			"-0.016": 0.0,
			"-0.015": 0.0,
			"-0.014": 0.0,
			"-0.013": 0.0,
			"-0.012": 0.0,
			"-0.011": 0.407664608425,
			"-0.01": 3.69557254042,
			"-0.009": 5.70337090984,
			"-0.008": 6.29339122404,
			"-0.007": 6.36626491205,
			"-0.006": 5.08676602471,
			"-0.005": 7.45800000579,
			"-0.004": 11.3455198026,
			"-0.003": 19.0884518752,
			"-0.002": 17.9090375965,
			"-0.001": 11.6850784638,
			"0.0": 10.8545533386,
			"0.001": 13.1529778737,
			"0.002": 17.0267138003,
			"0.003": 24.6381227383,
			"0.004": 7.83964593592,
			"0.005": 4.80774056407,
			"0.006": 5.03112519203,
			"0.007": 9.37722735326,
			"0.008": 9.76892711046,
			"0.009": 2.5174725687,
			"0.01": 0.669705043931,
			"0.011": 1.04412731321,
			"0.012": 0.785084567933,
			"0.013": 0.139392723143,
			"0.014": 0.0,
			"0.015": 0.0,
			"0.016": 0.0,
			"0.017": 0.0,
			"0.018": 0.0,
			"0.019": 0.0,
			"0.02": 0.0,
			"0.021": 0.0,
			"0.022": 0.0,
			"0.023": 0.0,
			"0.024": 0.0,
			"0.025": 0.0
		}
	}
}
