{
	 "smiles": "CCOC1=C(OC)C=C(N)C(=C1)C(O)=O", 
	 "Tm": 459.15, 
	 "num_atms": 28, 
	 "gaussian": { 
		 "optdone": 1, 
		 "sigma_profile": "yes", 
		 "theory": "DFT", 
		 "functional": "B3LYP", 
		 "basiset": "6-31G**", 
		 "properties": { 
			 "R2extent": 4525.9074, 
			 "electric_dipole_moment_norm": 4.17811319258, 
			 "electric_quadrupole_moment_norm": 23.7483305167, 
			 "total_energy": -744.539797555, 
			 "HOMO_LUMO_gap": 0.16277, 
			 "cosmo_polarized_energy": -15.9, 
			 "cosmo_cavitation_energy": 31.48, 
			 "cosmo_dispersion_energy": -22.77, 
			 "cosmo_repulsion_energy": 1.81, 
			 "cosmo_total_nonelectrostatic_energy": 10.52, 
			 "SMD_solvation_energy": 7.34 
		},
		"coords": [
			{
				"x": 3.089309678,
				"y": -1.5184463066,
				"z": 1.7667805634,
				"element": "C" 
			},
			{
				"x": 1.6192504298,
				"y": -1.1427611715,
				"z": 1.8016845407,
				"element": "C" 
			},
			{
				"x": 1.4071554345,
				"y": -0.0971415196,
				"z": 0.8320763672,
				"element": "O" 
			},
			{
				"x": 0.1102656031,
				"y": 0.3699100341,
				"z": 0.7662348264,
				"element": "C" 
			},
			{
				"x": -0.9174824862,
				"y": -0.3737579946,
				"z": 0.1390348598,
				"element": "C" 
			},
			{
				"x": -0.6889380298,
				"y": -1.6247489906,
				"z": -0.3743284792,
				"element": "O" 
			},
			{
				"x": 0.2019941624,
				"y": -1.6772284481,
				"z": -1.4980364381,
				"element": "C" 
			},
			{
				"x": -2.202788546,
				"y": 0.1401701552,
				"z": 0.068799751,
				"element": "C" 
			},
			{
				"x": -2.5317138689,
				"y": 1.4079304691,
				"z": 0.5968489035,
				"element": "C" 
			},
			{
				"x": -3.8168625098,
				"y": 1.8668256037,
				"z": 0.5209228024,
				"element": "N" 
			},
			{
				"x": -1.4984913586,
				"y": 2.1627096972,
				"z": 1.2288714002,
				"element": "C" 
			},
			{
				"x": -0.2007914371,
				"y": 1.6147415748,
				"z": 1.284189781,
				"element": "C" 
			},
			{
				"x": -1.7948920343,
				"y": 3.5042468252,
				"z": 1.781102976,
				"element": "C" 
			},
			{
				"x": -0.8770058058,
				"y": 4.0597037624,
				"z": 2.6165149914,
				"element": "O" 
			},
			{
				"x": -2.8059973753,
				"y": 4.1433501429,
				"z": 1.5374302605,
				"element": "O" 
			},
			{
				"x": 3.7158068463,
				"y": -0.6513056356,
				"z": 1.9950219528,
				"element": "H" 
			},
			{
				"x": 3.2954118391,
				"y": -2.299911155,
				"z": 2.5048546119,
				"element": "H" 
			},
			{
				"x": 3.3719458878,
				"y": -1.8947240179,
				"z": 0.7791884282,
				"element": "H" 
			},
			{
				"x": 1.3308627784,
				"y": -0.7733119541,
				"z": 2.7959003296,
				"element": "H" 
			},
			{
				"x": 0.9818095188,
				"y": -2.0021829501,
				"z": 1.5615460503,
				"element": "H" 
			},
			{
				"x": -0.2211925491,
				"y": -1.1279996342,
				"z": -2.3481445576,
				"element": "H" 
			},
			{
				"x": 1.1837963178,
				"y": -1.2664037352,
				"z": -1.2485235602,
				"element": "H" 
			},
			{
				"x": 0.2940711455,
				"y": -2.7326439334,
				"z": -1.7609029293,
				"element": "H" 
			},
			{
				"x": -2.9661239,
				"y": -0.4598709078,
				"z": -0.4174276933,
				"element": "H" 
			},
			{
				"x": -4.4549636139,
				"y": 1.3947709409,
				"z": -0.0987610804,
				"element": "H" 
			},
			{
				"x": -3.9526359482,
				"y": 2.8538785494,
				"z": 0.7060474345,
				"element": "H" 
			},
			{
				"x": 0.629216576,
				"y": 2.176841785,
				"z": 1.7045466579,
				"element": "H" 
			},
			{
				"x": -0.2174167542,
				"y": 3.4013588143,
				"z": 2.8722272491,
				"element": "H" 
			}
		],
		 "valence_orbital": [ 
			{
				"type": "occ",
				"energy": -0.29451,
				"method": "rhf"
			},
			{
				"type": "occ",
				"energy": -0.27523,
				"method": "rhf"
			},
			{
				"type": "occ",
				"energy": -0.26546,
				"method": "rhf"
			},
			{
				"type": "occ",
				"energy": -0.24923,
				"method": "rhf"
			},
			{
				"type": "occ",
				"energy": -0.20414,
				"method": "rhf"
			},
			{
				"type": "unocc",
				"energy": -0.04137,
				"method": "rhf"
			},
			{
				"type": "unocc",
				"energy": 0.0048,
				"method": "rhf"
			},
			{
				"type": "unocc",
				"energy": 0.05559,
				"method": "rhf"
			},
			{
				"type": "unocc",
				"energy": 0.06352,
				"method": "rhf"
			},
			{
				"type": "unocc",
				"energy": 0.08321,
				"method": "rhf"
			}
		],
		"cosmo_sigma_profile": { 
			"-0.025": 0.0,
			"-0.024": 0.0,
			"-0.023": 0.0,
			"-0.022": 0.0,
			"-0.021": 0.0,
			"-0.02": 0.0,
			"-0.019": 0.0716654810408,
			"-0.018": 0.735100834969,
			"-0.017": 1.16140783085,
			"-0.016": 0.617134637152,
			"-0.015": 0.612431051408,
			"-0.014": 1.60814738942,
			"-0.013": 1.99529645516,
			"-0.012": 2.47666405703,
			"-0.011": 2.70687582403,
			"-0.01": 2.48713149943,
			"-0.009": 2.16961515563,
			"-0.008": 3.92287148282,
			"-0.007": 4.49336253163,
			"-0.006": 4.94012099847,
			"-0.005": 7.96314511597,
			"-0.004": 14.784703219,
			"-0.003": 24.9094162751,
			"-0.002": 26.281041268,
			"-0.001": 21.0766217019,
			"0.0": 19.1722707097,
			"0.001": 14.7094146738,
			"0.002": 15.6527249158,
			"0.003": 18.5915993792,
			"0.004": 9.24041508438,
			"0.005": 5.74265503633,
			"0.006": 6.55824048245,
			"0.007": 5.13789603615,
			"0.008": 3.73831443316,
			"0.009": 5.97366779877,
			"0.01": 6.46191542647,
			"0.011": 6.2591200918,
			"0.012": 3.96740477102,
			"0.013": 2.09272640952,
			"0.014": 0.50575565258,
			"0.015": 0.0,
			"0.016": 0.0,
			"0.017": 0.0,
			"0.018": 0.0,
			"0.019": 0.0,
			"0.02": 0.0,
			"0.021": 0.0,
			"0.022": 0.0,
			"0.023": 0.0,
			"0.024": 0.0,
			"0.025": 0.0
		}
	}
}
