{
	 "smiles": "ClC(=O)C12CC3CC(CC(C3)C1)C2", 
	 "Tm": 324.15, 
	 "num_atms": 28, 
	 "gaussian": { 
		 "optdone": 1, 
		 "sigma_profile": "yes", 
		 "theory": "DFT", 
		 "functional": "B3LYP", 
		 "basiset": "6-31G**", 
		 "properties": { 
			 "R2extent": 2902.9573, 
			 "electric_dipole_moment_norm": 3.6957561892, 
			 "electric_quadrupole_moment_norm": 9.27054596397, 
			 "total_energy": -963.665877129, 
			 "HOMO_LUMO_gap": 0.24643, 
			 "cosmo_polarized_energy": -4.78, 
			 "cosmo_cavitation_energy": 27.92, 
			 "cosmo_dispersion_energy": -21.13, 
			 "cosmo_repulsion_energy": 1.64, 
			 "cosmo_total_nonelectrostatic_energy": 8.42, 
			 "SMD_solvation_energy": 3.87 
		},
		"coords": [
			{
				"x": -0.9088387311,
				"y": 1.876247457,
				"z": -3.1150231599,
				"element": "Cl" 
			},
			{
				"x": -0.4982230621,
				"y": 1.8179531317,
				"z": -1.3101227075,
				"element": "C" 
			},
			{
				"x": -0.0582471611,
				"y": 2.7978295157,
				"z": -0.8015139089,
				"element": "O" 
			},
			{
				"x": -0.7791626148,
				"y": 0.4742642714,
				"z": -0.6531488595,
				"element": "C" 
			},
			{
				"x": -0.3899003829,
				"y": 0.5778845319,
				"z": 0.8435257488,
				"element": "C" 
			},
			{
				"x": -0.65971041,
				"y": -0.7667422137,
				"z": 1.5484567822,
				"element": "C" 
			},
			{
				"x": -2.1578855451,
				"y": -1.1153861485,
				"z": 1.4370121348,
				"element": "C" 
			},
			{
				"x": -2.5480606004,
				"y": -1.2301995787,
				"z": -0.0503601809,
				"element": "C" 
			},
			{
				"x": -1.7093074187,
				"y": -2.3383126457,
				"z": -0.7199121617,
				"element": "C" 
			},
			{
				"x": -0.2109034134,
				"y": -1.990048323,
				"z": -0.6054353341,
				"element": "C" 
			},
			{
				"x": 0.1800291264,
				"y": -1.8752716037,
				"z": 0.88180268,
				"element": "C" 
			},
			{
				"x": 0.0613479781,
				"y": -0.650179564,
				"z": -1.3215011772,
				"element": "C" 
			},
			{
				"x": -2.2875512193,
				"y": 0.1136531164,
				"z": -0.7633439928,
				"element": "C" 
			},
			{
				"x": 0.6673861694,
				"y": 0.8520863738,
				"z": 0.9302596748,
				"element": "H" 
			},
			{
				"x": -0.9630972363,
				"y": 1.3824397498,
				"z": 1.3175594007,
				"element": "H" 
			},
			{
				"x": -0.3786538905,
				"y": -0.6737994379,
				"z": 2.6046701882,
				"element": "H" 
			},
			{
				"x": -2.36490907,
				"y": -2.0609591497,
				"z": 1.9541288413,
				"element": "H" 
			},
			{
				"x": -2.7636154757,
				"y": -0.3432405177,
				"z": 1.9288432529,
				"element": "H" 
			},
			{
				"x": -3.6149118501,
				"y": -1.4701854745,
				"z": -0.1370453469,
				"element": "H" 
			},
			{
				"x": -1.9940401089,
				"y": -2.4436942899,
				"z": -1.7746493224,
				"element": "H" 
			},
			{
				"x": -1.9084907605,
				"y": -3.3034255068,
				"z": -0.2370577326,
				"element": "H" 
			},
			{
				"x": 0.3886866658,
				"y": -2.7717392049,
				"z": -1.0878485483,
				"element": "H" 
			},
			{
				"x": 0.0118951716,
				"y": -2.8334501967,
				"z": 1.3897363097,
				"element": "H" 
			},
			{
				"x": 1.2497704313,
				"y": -1.6475371697,
				"z": 0.9756021923,
				"element": "H" 
			},
			{
				"x": 1.1275273449,
				"y": -0.3981135679,
				"z": -1.2621378247,
				"element": "H" 
			},
			{
				"x": -0.1957175905,
				"y": -0.7268015023,
				"z": -2.3823429803,
				"element": "H" 
			},
			{
				"x": -2.8907019039,
				"y": 0.9083512988,
				"z": -0.3067684178,
				"element": "H" 
			},
			{
				"x": -2.5791144424,
				"y": 0.0485766487,
				"z": -1.8159855501,
				"element": "H" 
			}
		],
		 "valence_orbital": [ 
			{
				"type": "occ",
				"energy": -0.311,
				"method": "rhf"
			},
			{
				"type": "occ",
				"energy": -0.30624,
				"method": "rhf"
			},
			{
				"type": "occ",
				"energy": -0.29318,
				"method": "rhf"
			},
			{
				"type": "occ",
				"energy": -0.29212,
				"method": "rhf"
			},
			{
				"type": "occ",
				"energy": -0.28106,
				"method": "rhf"
			},
			{
				"type": "unocc",
				"energy": -0.03463,
				"method": "rhf"
			},
			{
				"type": "unocc",
				"energy": 0.01999,
				"method": "rhf"
			},
			{
				"type": "unocc",
				"energy": 0.06068,
				"method": "rhf"
			},
			{
				"type": "unocc",
				"energy": 0.1151,
				"method": "rhf"
			},
			{
				"type": "unocc",
				"energy": 0.11575,
				"method": "rhf"
			}
		],
		"cosmo_sigma_profile": { 
			"-0.025": 0.0,
			"-0.024": 0.0,
			"-0.023": 0.0,
			"-0.022": 0.0,
			"-0.021": 0.0,
			"-0.02": 0.0,
			"-0.019": 0.0,
			"-0.018": 0.0,
			"-0.017": 0.0,
			"-0.016": 0.0,
			"-0.015": 0.0,
			"-0.014": 0.0,
			"-0.013": 0.0,
			"-0.012": 0.0,
			"-0.011": 0.0,
			"-0.01": 0.0,
			"-0.009": 0.0,
			"-0.008": 0.0,
			"-0.007": 0.0,
			"-0.006": 0.677515295184,
			"-0.005": 3.72160336982,
			"-0.004": 7.45802678447,
			"-0.003": 24.1729993379,
			"-0.002": 43.261913743,
			"-0.001": 40.0031507021,
			"0.0": 31.3183199518,
			"0.001": 18.6621573298,
			"0.002": 7.07349178948,
			"0.003": 7.61218864266,
			"0.004": 8.62990164606,
			"0.005": 8.72263548991,
			"0.006": 5.49701639076,
			"0.007": 3.2124279693,
			"0.008": 4.60148262862,
			"0.009": 2.88272503007,
			"0.01": 0.120844281115,
			"0.011": 0.0,
			"0.012": 0.0,
			"0.013": 0.0,
			"0.014": 0.0,
			"0.015": 0.0,
			"0.016": 0.0,
			"0.017": 0.0,
			"0.018": 0.0,
			"0.019": 0.0,
			"0.02": 0.0,
			"0.021": 0.0,
			"0.022": 0.0,
			"0.023": 0.0,
			"0.024": 0.0,
			"0.025": 0.0
		}
	}
}
