{
	 "smiles": "OC(C1=CC=CC=C1)C1=CC(Cl)=CC=C1NC(=O)C1=CC=NC=C1", 
	 "Tm": 484.15, 
	 "num_atms": 39, 
	 "gaussian": { 
		 "optdone": 1, 
		 "sigma_profile": "yes", 
		 "theory": "DFT", 
		 "functional": "B3LYP", 
		 "basiset": "6-31G**", 
		 "properties": { 
			 "R2extent": 9748.3979, 
			 "electric_dipole_moment_norm": 2.50288052252, 
			 "electric_quadrupole_moment_norm": 19.4062214295, 
			 "total_energy": -1453.21086772, 
			 "HOMO_LUMO_gap": 0.16223, 
			 "cosmo_polarized_energy": -18.41, 
			 "cosmo_cavitation_energy": 45.11, 
			 "cosmo_dispersion_energy": -30.51, 
			 "cosmo_repulsion_energy": 2.29, 
			 "cosmo_total_nonelectrostatic_energy": 16.89, 
			 "SMD_solvation_energy": 6.07 
		},
		"coords": [
			{
				"x": 1.1587003452,
				"y": 1.5110590293,
				"z": 2.2885799964,
				"element": "O" 
			},
			{
				"x": 0.5739750273,
				"y": 0.7786959237,
				"z": 1.214966507,
				"element": "C" 
			},
			{
				"x": -0.546583803,
				"y": -0.0603125701,
				"z": 1.8188697123,
				"element": "C" 
			},
			{
				"x": -0.3007614631,
				"y": -1.3923317907,
				"z": 2.1777036256,
				"element": "C" 
			},
			{
				"x": -1.3022233415,
				"y": -2.1678371695,
				"z": 2.7673572338,
				"element": "C" 
			},
			{
				"x": -2.5595542689,
				"y": -1.6128276971,
				"z": 3.0096945282,
				"element": "C" 
			},
			{
				"x": -2.8105869158,
				"y": -0.2828348383,
				"z": 2.6614833287,
				"element": "C" 
			},
			{
				"x": -1.8118489104,
				"y": 0.4879129559,
				"z": 2.0677054366,
				"element": "C" 
			},
			{
				"x": 0.1168614302,
				"y": 1.6874726965,
				"z": 0.0720646288,
				"element": "C" 
			},
			{
				"x": 0.0777580769,
				"y": 3.0695933542,
				"z": 0.2657634015,
				"element": "C" 
			},
			{
				"x": -0.2701377706,
				"y": 3.917966123,
				"z": -0.782625117,
				"element": "C" 
			},
			{
				"x": -0.3038917613,
				"y": 5.6554813486,
				"z": -0.5122781269,
				"element": "Cl" 
			},
			{
				"x": -0.5807067436,
				"y": 3.4069123201,
				"z": -2.0390566096,
				"element": "C" 
			},
			{
				"x": -0.5668456441,
				"y": 2.0286043803,
				"z": -2.2410814745,
				"element": "C" 
			},
			{
				"x": -0.2332087493,
				"y": 1.1599986296,
				"z": -1.1921421335,
				"element": "C" 
			},
			{
				"x": -0.2658323525,
				"y": -0.2444710798,
				"z": -1.3495487608,
				"element": "N" 
			},
			{
				"x": -0.1989478787,
				"y": -0.9597315958,
				"z": -2.5251769958,
				"element": "C" 
			},
			{
				"x": -0.0277680245,
				"y": -0.4524541485,
				"z": -3.6269741159,
				"element": "O" 
			},
			{
				"x": -0.3288215999,
				"y": -2.454660772,
				"z": -2.3735290189,
				"element": "C" 
			},
			{
				"x": 0.1758328865,
				"y": -3.2524578176,
				"z": -3.4056723998,
				"element": "C" 
			},
			{
				"x": 0.0672573991,
				"y": -4.637351696,
				"z": -3.3003787026,
				"element": "C" 
			},
			{
				"x": -0.5114534207,
				"y": -5.2629409996,
				"z": -2.2656616266,
				"element": "N" 
			},
			{
				"x": -1.0099493761,
				"y": -4.492011021,
				"z": -1.2930162857,
				"element": "C" 
			},
			{
				"x": -0.9460073364,
				"y": -3.0971065471,
				"z": -1.293629303,
				"element": "C" 
			},
			{
				"x": 1.9557325063,
				"y": 1.943216423,
				"z": 1.9498682474,
				"element": "H" 
			},
			{
				"x": 1.3192217829,
				"y": 0.0791165327,
				"z": 0.8011018696,
				"element": "H" 
			},
			{
				"x": 0.6835080668,
				"y": -1.8211319025,
				"z": 2.0039297181,
				"element": "H" 
			},
			{
				"x": -1.0973505478,
				"y": -3.1987859248,
				"z": 3.0410546037,
				"element": "H" 
			},
			{
				"x": -3.3405813552,
				"y": -2.2124224178,
				"z": 3.468074167,
				"element": "H" 
			},
			{
				"x": -3.7872118262,
				"y": 0.1532324987,
				"z": 2.8501781697,
				"element": "H" 
			},
			{
				"x": -2.0117969495,
				"y": 1.5185002328,
				"z": 1.7913693168,
				"element": "H" 
			},
			{
				"x": 0.3272020039,
				"y": 3.4724579314,
				"z": 1.2399510589,
				"element": "H" 
			},
			{
				"x": -0.8388879759,
				"y": 4.074240223,
				"z": -2.8536286484,
				"element": "H" 
			},
			{
				"x": -0.8003502317,
				"y": 1.6188070927,
				"z": -3.2134143928,
				"element": "H" 
			},
			{
				"x": -0.3553807896,
				"y": -0.7799165617,
				"z": -0.4976298057,
				"element": "H" 
			},
			{
				"x": 0.637810288,
				"y": -2.7819089306,
				"z": -4.2661433848,
				"element": "H" 
			},
			{
				"x": 0.4627494846,
				"y": -5.2779237537,
				"z": -4.0862945882,
				"element": "H" 
			},
			{
				"x": -1.4918466189,
				"y": -5.0119012324,
				"z": -0.4669302429,
				"element": "H" 
			},
			{
				"x": -1.4002736426,
				"y": -2.5493472291,
				"z": -0.4736038167,
				"element": "H" 
			}
		],
		 "valence_orbital": [ 
			{
				"type": "occ",
				"energy": -0.26938,
				"method": "rhf"
			},
			{
				"type": "occ",
				"energy": -0.26731,
				"method": "rhf"
			},
			{
				"type": "occ",
				"energy": -0.26262,
				"method": "rhf"
			},
			{
				"type": "occ",
				"energy": -0.26016,
				"method": "rhf"
			},
			{
				"type": "occ",
				"energy": -0.22837,
				"method": "rhf"
			},
			{
				"type": "unocc",
				"energy": -0.06614,
				"method": "rhf"
			},
			{
				"type": "unocc",
				"energy": -0.03058,
				"method": "rhf"
			},
			{
				"type": "unocc",
				"energy": -0.02545,
				"method": "rhf"
			},
			{
				"type": "unocc",
				"energy": -0.02146,
				"method": "rhf"
			},
			{
				"type": "unocc",
				"energy": -0.01406,
				"method": "rhf"
			}
		],
		"cosmo_sigma_profile": { 
			"-0.025": 0.0,
			"-0.024": 0.0,
			"-0.023": 0.0,
			"-0.022": 0.0,
			"-0.021": 0.0,
			"-0.02": 0.0,
			"-0.019": 0.0,
			"-0.018": 0.0,
			"-0.017": 0.0141847285287,
			"-0.016": 0.675779090911,
			"-0.015": 1.19895819814,
			"-0.014": 0.778151415399,
			"-0.013": 0.952831229071,
			"-0.012": 1.17275667866,
			"-0.011": 1.40888768902,
			"-0.01": 2.28592973003,
			"-0.009": 2.52032577232,
			"-0.008": 3.64884168381,
			"-0.007": 10.1355357648,
			"-0.006": 21.8225737796,
			"-0.005": 24.2443196941,
			"-0.004": 24.8677001768,
			"-0.003": 23.1951622133,
			"-0.002": 24.3910845813,
			"-0.001": 24.6592739976,
			"0.0": 26.6662058545,
			"0.001": 34.6724305817,
			"0.002": 30.442982127,
			"0.003": 25.7266472555,
			"0.004": 22.6070045101,
			"0.005": 18.0247557994,
			"0.006": 5.78714173186,
			"0.007": 4.69916523135,
			"0.008": 4.53252574472,
			"0.009": 3.91864866108,
			"0.01": 3.90070443823,
			"0.011": 4.193874399,
			"0.012": 6.14110286741,
			"0.013": 2.85316028294,
			"0.014": 0.89152831076,
			"0.015": 0.887497248879,
			"0.016": 0.695142830898,
			"0.017": 0.0335930774397,
			"0.018": 0.0,
			"0.019": 0.0,
			"0.02": 0.0,
			"0.021": 0.0,
			"0.022": 0.0,
			"0.023": 0.0,
			"0.024": 0.0,
			"0.025": 0.0
		}
	}
}
