{
	 "smiles": "CNCC1=CC=C(O)C=C1", 
	 "Tm": 377.15, 
	 "num_atms": 21, 
	 "gaussian": { 
		 "optdone": 1, 
		 "sigma_profile": "yes", 
		 "theory": "DFT", 
		 "functional": "B3LYP", 
		 "basiset": "6-31G**", 
		 "properties": { 
			 "R2extent": 1806.8315, 
			 "electric_dipole_moment_norm": 1.82526297557, 
			 "electric_quadrupole_moment_norm": 8.06473084052, 
			 "total_energy": -441.443164897, 
			 "HOMO_LUMO_gap": 0.20585, 
			 "cosmo_polarized_energy": -10.36, 
			 "cosmo_cavitation_energy": 24.11, 
			 "cosmo_dispersion_energy": -17.53, 
			 "cosmo_repulsion_energy": 1.43, 
			 "cosmo_total_nonelectrostatic_energy": 8.01, 
			 "SMD_solvation_energy": 2.08 
		},
		"coords": [
			{
				"x": -2.5466046499,
				"y": 1.3501193502,
				"z": 1.0777408251,
				"element": "C" 
			},
			{
				"x": -2.4254471754,
				"y": -0.102609678,
				"z": 1.1517514054,
				"element": "N" 
			},
			{
				"x": -1.8375708494,
				"y": -0.7268516387,
				"z": -0.0417760583,
				"element": "C" 
			},
			{
				"x": -0.3986432162,
				"y": -0.3518046085,
				"z": -0.3621117655,
				"element": "C" 
			},
			{
				"x": -0.0858113404,
				"y": 0.6533453964,
				"z": -1.2889942079,
				"element": "C" 
			},
			{
				"x": 1.2313291069,
				"y": 1.0249693217,
				"z": -1.5486291429,
				"element": "C" 
			},
			{
				"x": 2.2767922137,
				"y": 0.3856562902,
				"z": -0.8749742619,
				"element": "C" 
			},
			{
				"x": 3.5527691616,
				"y": 0.7825355924,
				"z": -1.1649537883,
				"element": "O" 
			},
			{
				"x": 1.9897933054,
				"y": -0.623822766,
				"z": 0.0506296651,
				"element": "C" 
			},
			{
				"x": 0.6649776859,
				"y": -0.9816353244,
				"z": 0.2970190925,
				"element": "C" 
			},
			{
				"x": -2.9748650277,
				"y": 1.7223183579,
				"z": 2.0137009657,
				"element": "H" 
			},
			{
				"x": -3.2415253555,
				"y": 1.6122879161,
				"z": 0.2708254939,
				"element": "H" 
			},
			{
				"x": -1.6027275951,
				"y": 1.8897370424,
				"z": 0.8925806255,
				"element": "H" 
			},
			{
				"x": -1.8630714003,
				"y": -0.3506803446,
				"z": 1.962593541,
				"element": "H" 
			},
			{
				"x": -1.9082287199,
				"y": -1.8129129735,
				"z": 0.0938749765,
				"element": "H" 
			},
			{
				"x": -2.4807774897,
				"y": -0.4730617304,
				"z": -0.893725453,
				"element": "H" 
			},
			{
				"x": -0.8898232933,
				"y": 1.1506574641,
				"z": -1.8264631125,
				"element": "H" 
			},
			{
				"x": 1.4685639915,
				"y": 1.8012357617,
				"z": -2.2688433825,
				"element": "H" 
			},
			{
				"x": 4.1725121364,
				"y": 0.2616545857,
				"z": -0.6381618442,
				"element": "H" 
			},
			{
				"x": 2.8000949393,
				"y": -1.1328966006,
				"z": 0.5693646991,
				"element": "H" 
			},
			{
				"x": 0.4580635723,
				"y": -1.7748414141,
				"z": 1.012851727,
				"element": "H" 
			}
		],
		 "valence_orbital": [ 
			{
				"type": "occ",
				"energy": -0.33377,
				"method": "rhf"
			},
			{
				"type": "occ",
				"energy": -0.32558,
				"method": "rhf"
			},
			{
				"type": "occ",
				"energy": -0.25134,
				"method": "rhf"
			},
			{
				"type": "occ",
				"energy": -0.22407,
				"method": "rhf"
			},
			{
				"type": "occ",
				"energy": -0.20886,
				"method": "rhf"
			},
			{
				"type": "unocc",
				"energy": -0.00301,
				"method": "rhf"
			},
			{
				"type": "unocc",
				"energy": 0.01183,
				"method": "rhf"
			},
			{
				"type": "unocc",
				"energy": 0.07038,
				"method": "rhf"
			},
			{
				"type": "unocc",
				"energy": 0.08919,
				"method": "rhf"
			},
			{
				"type": "unocc",
				"energy": 0.10972,
				"method": "rhf"
			}
		],
		"cosmo_sigma_profile": { 
			"-0.025": 0.0,
			"-0.024": 0.0,
			"-0.023": 0.0,
			"-0.022": 0.0,
			"-0.021": 0.0,
			"-0.02": 0.0,
			"-0.019": 0.0,
			"-0.018": 0.124732569392,
			"-0.017": 1.02910185095,
			"-0.016": 1.15741848175,
			"-0.015": 1.27890650721,
			"-0.014": 0.928426016928,
			"-0.013": 0.69443632607,
			"-0.012": 0.496612834009,
			"-0.011": 0.740766858272,
			"-0.01": 1.84956020456,
			"-0.009": 2.29635067625,
			"-0.008": 2.09132797101,
			"-0.007": 2.70080869027,
			"-0.006": 5.07809687054,
			"-0.005": 9.71884790849,
			"-0.004": 14.5552932774,
			"-0.003": 18.0604321614,
			"-0.002": 15.2059233673,
			"-0.001": 15.055534891,
			"0.0": 17.709888699,
			"0.001": 11.1944913976,
			"0.002": 7.76587910603,
			"0.003": 10.0377792072,
			"0.004": 11.310172602,
			"0.005": 10.9876145273,
			"0.006": 10.6045048214,
			"0.007": 2.30483567545,
			"0.008": 1.92409001801,
			"0.009": 1.49975715254,
			"0.01": 3.35677399092,
			"0.011": 2.05486389629,
			"0.012": 1.90007191109,
			"0.013": 0.728834689125,
			"0.014": 0.739625111284,
			"0.015": 0.136605135141,
			"0.016": 0.889392596926,
			"0.017": 0.539313139514,
			"0.018": 0.504294124413,
			"0.019": 0.180431190006,
			"0.02": 0.0,
			"0.021": 0.0,
			"0.022": 0.0,
			"0.023": 0.0,
			"0.024": 0.0,
			"0.025": 0.0
		}
	}
}
