{
	 "smiles": "OC(=O)C(=CC1=CC=CC=C1F)C1=CC=CC=C1", 
	 "Tm": 442.0, 
	 "num_atms": 29, 
	 "gaussian": { 
		 "optdone": 1, 
		 "sigma_profile": "yes", 
		 "theory": "DFT", 
		 "functional": "B3LYP", 
		 "basiset": "6-31G**", 
		 "properties": { 
			 "R2extent": 5445.0913, 
			 "electric_dipole_moment_norm": 6.58684540125, 
			 "electric_quadrupole_moment_norm": 15.0013884537, 
			 "total_energy": -828.506326556, 
			 "HOMO_LUMO_gap": 0.16565, 
			 "cosmo_polarized_energy": -13.73, 
			 "cosmo_cavitation_energy": 34.1, 
			 "cosmo_dispersion_energy": -23.59, 
			 "cosmo_repulsion_energy": 1.81, 
			 "cosmo_total_nonelectrostatic_energy": 12.32, 
			 "SMD_solvation_energy": 7.32 
		},
		"coords": [
			{
				"x": 3.6287964056,
				"y": -0.2554510636,
				"z": 1.0983744647,
				"element": "O" 
			},
			{
				"x": 2.4285539515,
				"y": -0.8444333685,
				"z": 1.324244886,
				"element": "C" 
			},
			{
				"x": 2.3810830035,
				"y": -2.0036221686,
				"z": 1.6699622,
				"element": "O" 
			},
			{
				"x": 1.209095392,
				"y": 0.0268657523,
				"z": 1.1257474603,
				"element": "C" 
			},
			{
				"x": 0.0279793895,
				"y": -0.5460455919,
				"z": 1.4523460757,
				"element": "C" 
			},
			{
				"x": -1.337677062,
				"y": -0.0329089976,
				"z": 1.3413377397,
				"element": "C" 
			},
			{
				"x": -1.7535631514,
				"y": 1.0069582614,
				"z": 0.4841459732,
				"element": "C" 
			},
			{
				"x": -3.0875300271,
				"y": 1.3966598436,
				"z": 0.4116354131,
				"element": "C" 
			},
			{
				"x": -4.0527762888,
				"y": 0.7582925914,
				"z": 1.1963782647,
				"element": "C" 
			},
			{
				"x": -3.680950804,
				"y": -0.2815531461,
				"z": 2.0473888199,
				"element": "C" 
			},
			{
				"x": -2.3459159805,
				"y": -0.6575501201,
				"z": 2.098111148,
				"element": "C" 
			},
			{
				"x": -2.0031817657,
				"y": -1.6703217387,
				"z": 2.9219700433,
				"element": "F" 
			},
			{
				"x": 1.4048127573,
				"y": 1.4303024078,
				"z": 0.6568548994,
				"element": "C" 
			},
			{
				"x": 1.1407358885,
				"y": 2.513704554,
				"z": 1.5136325575,
				"element": "C" 
			},
			{
				"x": 1.3448335293,
				"y": 3.8248232185,
				"z": 1.086215962,
				"element": "C" 
			},
			{
				"x": 1.822354952,
				"y": 4.0792984893,
				"z": -0.2021094894,
				"element": "C" 
			},
			{
				"x": 2.0974538514,
				"y": 3.0141892891,
				"z": -1.0609298718,
				"element": "C" 
			},
			{
				"x": 1.8943527589,
				"y": 1.6994196433,
				"z": -0.6351755193,
				"element": "C" 
			},
			{
				"x": 3.4986055222,
				"y": 0.6737471175,
				"z": 0.850891597,
				"element": "H" 
			},
			{
				"x": 0.1120589511,
				"y": -1.5511880784,
				"z": 1.8569481544,
				"element": "H" 
			},
			{
				"x": -1.0199403121,
				"y": 1.4964837057,
				"z": -0.1439479442,
				"element": "H" 
			},
			{
				"x": -3.3773674002,
				"y": 2.1957828918,
				"z": -0.2633833145,
				"element": "H" 
			},
			{
				"x": -5.0933412881,
				"y": 1.0635275211,
				"z": 1.1427659685,
				"element": "H" 
			},
			{
				"x": -4.4003300279,
				"y": -0.8055532589,
				"z": 2.6670280521,
				"element": "H" 
			},
			{
				"x": 0.7723916996,
				"y": 2.3165787372,
				"z": 2.5157557805,
				"element": "H" 
			},
			{
				"x": 1.1352590958,
				"y": 4.649339534,
				"z": 1.76147126,
				"element": "H" 
			},
			{
				"x": 1.9824016333,
				"y": 5.1013380125,
				"z": -0.5324400626,
				"element": "H" 
			},
			{
				"x": 2.4683813112,
				"y": 3.2032478477,
				"z": -2.0640485051,
				"element": "H" 
			},
			{
				"x": 2.1000240151,
				"y": 0.873268114,
				"z": -1.3106720129,
				"element": "H" 
			}
		],
		 "valence_orbital": [ 
			{
				"type": "occ",
				"energy": -0.28409,
				"method": "rhf"
			},
			{
				"type": "occ",
				"energy": -0.27298,
				"method": "rhf"
			},
			{
				"type": "occ",
				"energy": -0.25988,
				"method": "rhf"
			},
			{
				"type": "occ",
				"energy": -0.2543,
				"method": "rhf"
			},
			{
				"type": "occ",
				"energy": -0.23569,
				"method": "rhf"
			},
			{
				"type": "unocc",
				"energy": -0.07004,
				"method": "rhf"
			},
			{
				"type": "unocc",
				"energy": -0.02634,
				"method": "rhf"
			},
			{
				"type": "unocc",
				"energy": -0.02543,
				"method": "rhf"
			},
			{
				"type": "unocc",
				"energy": -0.00734,
				"method": "rhf"
			},
			{
				"type": "unocc",
				"energy": 0.01424,
				"method": "rhf"
			}
		],
		"cosmo_sigma_profile": { 
			"-0.025": 0.0,
			"-0.024": 0.0,
			"-0.023": 0.0,
			"-0.022": 0.0,
			"-0.021": 0.0,
			"-0.02": 0.0,
			"-0.019": 0.0,
			"-0.018": 0.0,
			"-0.017": 0.0,
			"-0.016": 0.0,
			"-0.015": 0.0,
			"-0.014": 0.37608332402,
			"-0.013": 0.549740263992,
			"-0.012": 0.238523152973,
			"-0.011": 1.12227547056,
			"-0.01": 0.9512185005,
			"-0.009": 0.845525352904,
			"-0.008": 1.15717980863,
			"-0.007": 8.37352362482,
			"-0.006": 18.5502144882,
			"-0.005": 19.7877904518,
			"-0.004": 20.91530459,
			"-0.003": 17.3755513035,
			"-0.002": 19.9139204709,
			"-0.001": 18.0218784936,
			"0.0": 24.4679478252,
			"0.001": 23.6721129089,
			"0.002": 22.5316963952,
			"0.003": 25.0815775527,
			"0.004": 19.4296847533,
			"0.005": 3.43662964469,
			"0.006": 2.45884668082,
			"0.007": 2.37658582597,
			"0.008": 2.05718260042,
			"0.009": 3.0877367632,
			"0.01": 4.64959224453,
			"0.011": 4.7872088251,
			"0.012": 5.62218533165,
			"0.013": 2.22314871065,
			"0.014": 0.248046089186,
			"0.015": 0.0,
			"0.016": 0.0,
			"0.017": 0.0,
			"0.018": 0.0,
			"0.019": 0.0,
			"0.02": 0.0,
			"0.021": 0.0,
			"0.022": 0.0,
			"0.023": 0.0,
			"0.024": 0.0,
			"0.025": 0.0
		}
	}
}
