{
	 "smiles": "OC(=O)C=CC1=CC=CC2=C(Br)C=CC(=C12)[N+]([O-])=O", 
	 "Tm": 415.15, 
	 "num_atms": 27, 
	 "gaussian": { 
		 "optdone": 1, 
		 "sigma_profile": "yes", 
		 "theory": "DFT", 
		 "functional": "B3LYP", 
		 "basiset": "6-31G**", 
		 "properties": { 
			 "R2extent": 9908.0643, 
			 "electric_dipole_moment_norm": 4.52340651501, 
			 "electric_quadrupole_moment_norm": 17.8194416113, 
			 "total_energy": -3427.14479053, 
			 "HOMO_LUMO_gap": 0.14522, 
			 "cosmo_polarized_energy": -15.62, 
			 "cosmo_cavitation_energy": 35.32, 
			 "cosmo_dispersion_energy": -25.26, 
			 "cosmo_repulsion_energy": 1.92, 
			 "cosmo_total_nonelectrostatic_energy": 11.98, 
			 "SMD_solvation_energy": 8.33 
		},
		"coords": [
			{
				"x": 3.8744933697,
				"y": 1.2602849835,
				"z": -0.3938598474,
				"element": "O" 
			},
			{
				"x": 2.6016461466,
				"y": 1.6294823631,
				"z": -0.097201754,
				"element": "C" 
			},
			{
				"x": 2.1549300875,
				"y": 2.7230843385,
				"z": -0.3787718728,
				"element": "O" 
			},
			{
				"x": 1.8754811765,
				"y": 0.5396880193,
				"z": 0.592835123,
				"element": "C" 
			},
			{
				"x": 0.5872142804,
				"y": 0.6976784062,
				"z": 0.9401579432,
				"element": "C" 
			},
			{
				"x": -0.1669606214,
				"y": -0.3273788941,
				"z": 1.6920488311,
				"element": "C" 
			},
			{
				"x": 0.4831724901,
				"y": -0.9026335777,
				"z": 2.7772080524,
				"element": "C" 
			},
			{
				"x": -0.0786110205,
				"y": -1.9519711093,
				"z": 3.5238564609,
				"element": "C" 
			},
			{
				"x": -1.2950769928,
				"y": -2.4733621918,
				"z": 3.1611998159,
				"element": "C" 
			},
			{
				"x": -2.0155568621,
				"y": -1.9407858711,
				"z": 2.061455361,
				"element": "C" 
			},
			{
				"x": -3.2491753888,
				"y": -2.521762734,
				"z": 1.6336213081,
				"element": "C" 
			},
			{
				"x": -4.003640582,
				"y": -4.0098005499,
				"z": 2.5662021846,
				"element": "Br" 
			},
			{
				"x": -3.9365172208,
				"y": -2.0611645163,
				"z": 0.5377124336,
				"element": "C" 
			},
			{
				"x": -3.4430501713,
				"y": -0.9440365926,
				"z": -0.1552736825,
				"element": "C" 
			},
			{
				"x": -2.2898031163,
				"y": -0.31947561,
				"z": 0.2610296446,
				"element": "C" 
			},
			{
				"x": -1.4840774174,
				"y": -0.8040467101,
				"z": 1.3381147527,
				"element": "C" 
			},
			{
				"x": -2.0325023063,
				"y": 0.9536306484,
				"z": -0.4346391794,
				"element": "N" 
			},
			{
				"x": -1.9438799632,
				"y": 1.9618840514,
				"z": 0.2662962827,
				"element": "O" 
			},
			{
				"x": -2.0043913638,
				"y": 0.9352176077,
				"z": -1.6618410046,
				"element": "O" 
			},
			{
				"x": 4.2751409528,
				"y": 2.0231052498,
				"z": -0.8430734837,
				"element": "H" 
			},
			{
				"x": 2.4236399741,
				"y": -0.3782980108,
				"z": 0.780441677,
				"element": "H" 
			},
			{
				"x": 0.1104400701,
				"y": 1.6334309195,
				"z": 0.6694379032,
				"element": "H" 
			},
			{
				"x": 1.4570786921,
				"y": -0.5144266607,
				"z": 3.0547310541,
				"element": "H" 
			},
			{
				"x": 0.4616948461,
				"y": -2.3600112898,
				"z": 4.3721802556,
				"element": "H" 
			},
			{
				"x": -1.71989275,
				"y": -3.3074028796,
				"z": 3.7050517677,
				"element": "H" 
			},
			{
				"x": -4.857986576,
				"y": -2.5349877986,
				"z": 0.2228167372,
				"element": "H" 
			},
			{
				"x": -3.9866097331,
				"y": -0.539341591,
				"z": -1.0009367639,
				"element": "H" 
			}
		],
		 "valence_orbital": [ 
			{
				"type": "occ",
				"energy": -0.30177,
				"method": "rhf"
			},
			{
				"type": "occ",
				"energy": -0.2807,
				"method": "rhf"
			},
			{
				"type": "occ",
				"energy": -0.27684,
				"method": "rhf"
			},
			{
				"type": "occ",
				"energy": -0.2742,
				"method": "rhf"
			},
			{
				"type": "occ",
				"energy": -0.24018,
				"method": "rhf"
			},
			{
				"type": "unocc",
				"energy": -0.09496,
				"method": "rhf"
			},
			{
				"type": "unocc",
				"energy": -0.07897,
				"method": "rhf"
			},
			{
				"type": "unocc",
				"energy": -0.04586,
				"method": "rhf"
			},
			{
				"type": "unocc",
				"energy": -0.0409,
				"method": "rhf"
			},
			{
				"type": "unocc",
				"energy": -0.01416,
				"method": "rhf"
			}
		],
		"cosmo_sigma_profile": { 
			"-0.025": 0.0,
			"-0.024": 0.0,
			"-0.023": 0.0,
			"-0.022": 0.0,
			"-0.021": 0.0,
			"-0.02": 0.0,
			"-0.019": 0.0,
			"-0.018": 0.559474557054,
			"-0.017": 1.09255325315,
			"-0.016": 1.10305833234,
			"-0.015": 0.407400291963,
			"-0.014": 0.589861121833,
			"-0.013": 0.82221518956,
			"-0.012": 0.874503099728,
			"-0.011": 0.672028180326,
			"-0.01": 1.03186258068,
			"-0.009": 3.68464446698,
			"-0.008": 5.51645088379,
			"-0.007": 10.604491752,
			"-0.006": 13.5590953783,
			"-0.005": 13.177113649,
			"-0.004": 12.5364076993,
			"-0.003": 13.8222382419,
			"-0.002": 19.0884971298,
			"-0.001": 28.2174070696,
			"0.0": 37.8875621068,
			"0.001": 27.372639701,
			"0.002": 20.1679967571,
			"0.003": 15.5594128796,
			"0.004": 8.29684989211,
			"0.005": 5.67167072077,
			"0.006": 8.51675172047,
			"0.007": 12.0233863521,
			"0.008": 8.57620850709,
			"0.009": 5.73810656295,
			"0.01": 2.28625974601,
			"0.011": 3.55545901875,
			"0.012": 4.66296598036,
			"0.013": 0.171685514723,
			"0.014": 0.0,
			"0.015": 0.0,
			"0.016": 0.0,
			"0.017": 0.0,
			"0.018": 0.0,
			"0.019": 0.0,
			"0.02": 0.0,
			"0.021": 0.0,
			"0.022": 0.0,
			"0.023": 0.0,
			"0.024": 0.0,
			"0.025": 0.0
		}
	}
}
