{
	 "smiles": "C=CCNC(=S)NNC(=O)C(=O)C1=CNC2=C1C=CC=C2", 
	 "Tm": 502.15, 
	 "num_atms": 35, 
	 "gaussian": { 
		 "optdone": 1, 
		 "sigma_profile": "yes", 
		 "theory": "DFT", 
		 "functional": "B3LYP", 
		 "basiset": "6-31G**", 
		 "properties": { 
			 "R2extent": 11052.187, 
			 "electric_dipole_moment_norm": 7.27168035807, 
			 "electric_quadrupole_moment_norm": 33.7098529125, 
			 "total_energy": -1309.5493513, 
			 "HOMO_LUMO_gap": 0.12055, 
			 "cosmo_polarized_energy": -26.04, 
			 "cosmo_cavitation_energy": 42.74, 
			 "cosmo_dispersion_energy": -30.27, 
			 "cosmo_repulsion_energy": 2.29, 
			 "cosmo_total_nonelectrostatic_energy": 14.77, 
			 "SMD_solvation_energy": 7.8 
		},
		"coords": [
			{
				"x": -3.8910388917,
				"y": 1.9116732229,
				"z": -0.7321919043,
				"element": "C" 
			},
			{
				"x": -3.532683461,
				"y": 0.881259036,
				"z": -1.4981292051,
				"element": "C" 
			},
			{
				"x": -2.8562688539,
				"y": 1.0172618523,
				"z": -2.8357224545,
				"element": "C" 
			},
			{
				"x": -1.5624668217,
				"y": 0.3411120374,
				"z": -2.8519931804,
				"element": "N" 
			},
			{
				"x": -1.2351696063,
				"y": -0.7006789804,
				"z": -3.6407065848,
				"element": "C" 
			},
			{
				"x": -2.20940849,
				"y": -1.4155160249,
				"z": -4.8045523878,
				"element": "S" 
			},
			{
				"x": 0.0713105241,
				"y": -1.159367648,
				"z": -3.4892914045,
				"element": "N" 
			},
			{
				"x": 0.8156848797,
				"y": -0.8204998482,
				"z": -2.3654114281,
				"element": "N" 
			},
			{
				"x": 0.913818952,
				"y": -1.6944175915,
				"z": -1.3078361727,
				"element": "C" 
			},
			{
				"x": 0.2157565136,
				"y": -2.6885128641,
				"z": -1.1848022587,
				"element": "O" 
			},
			{
				"x": 2.0205637788,
				"y": -1.2409316234,
				"z": -0.3231234194,
				"element": "C" 
			},
			{
				"x": 2.7281185113,
				"y": -0.289741909,
				"z": -0.6683624267,
				"element": "O" 
			},
			{
				"x": 2.1685286169,
				"y": -1.9359850594,
				"z": 0.931482113,
				"element": "C" 
			},
			{
				"x": 1.4266878222,
				"y": -3.0182302166,
				"z": 1.3988707218,
				"element": "C" 
			},
			{
				"x": 1.8804539752,
				"y": -3.3769521538,
				"z": 2.6277741921,
				"element": "N" 
			},
			{
				"x": 2.9339446554,
				"y": -2.5496948356,
				"z": 3.0131053889,
				"element": "C" 
			},
			{
				"x": 3.1440096399,
				"y": -1.6251129516,
				"z": 1.9624162263,
				"element": "C" 
			},
			{
				"x": 4.1587461869,
				"y": -0.6651910605,
				"z": 2.0918421952,
				"element": "C" 
			},
			{
				"x": 4.9228235767,
				"y": -0.6600507781,
				"z": 3.2549275155,
				"element": "C" 
			},
			{
				"x": 4.6955802373,
				"y": -1.5898367842,
				"z": 4.2875815772,
				"element": "C" 
			},
			{
				"x": 3.6949997847,
				"y": -2.5517503613,
				"z": 4.1829158628,
				"element": "C" 
			},
			{
				"x": -4.3957371869,
				"y": 1.7691835519,
				"z": 0.2185556874,
				"element": "H" 
			},
			{
				"x": -3.703505331,
				"y": 2.939492123,
				"z": -1.0353809896,
				"element": "H" 
			},
			{
				"x": -3.7287049729,
				"y": -0.1400104666,
				"z": -1.1738040491,
				"element": "H" 
			},
			{
				"x": -2.7177461084,
				"y": 2.0756521751,
				"z": -3.0891392672,
				"element": "H" 
			},
			{
				"x": -3.4523076454,
				"y": 0.5535344692,
				"z": -3.6278701593,
				"element": "H" 
			},
			{
				"x": -0.8875653058,
				"y": 0.6073058705,
				"z": -2.1452901726,
				"element": "H" 
			},
			{
				"x": 0.1976250895,
				"y": -2.1093148397,
				"z": -3.8211946194,
				"element": "H" 
			},
			{
				"x": 1.5949997867,
				"y": -0.180248784,
				"z": -2.4868303867,
				"element": "H" 
			},
			{
				"x": 0.6159893257,
				"y": -3.5363328052,
				"z": 0.9114976432,
				"element": "H" 
			},
			{
				"x": 1.5087180976,
				"y": -4.1376468031,
				"z": 3.1757592557,
				"element": "H" 
			},
			{
				"x": 4.3313333,
				"y": 0.0478091458,
				"z": 1.2947579685,
				"element": "H" 
			},
			{
				"x": 5.7127680739,
				"y": 0.0759877772,
				"z": 3.3710207076,
				"element": "H" 
			},
			{
				"x": 5.3109980365,
				"y": -1.5572301603,
				"z": 5.1815152504,
				"element": "H" 
			},
			{
				"x": 3.5168433104,
				"y": -3.2708167118,
				"z": 4.9771101653,
				"element": "H" 
			}
		],
		 "valence_orbital": [ 
			{
				"type": "occ",
				"energy": -0.25164,
				"method": "rhf"
			},
			{
				"type": "occ",
				"energy": -0.24421,
				"method": "rhf"
			},
			{
				"type": "occ",
				"energy": -0.23038,
				"method": "rhf"
			},
			{
				"type": "occ",
				"energy": -0.21145,
				"method": "rhf"
			},
			{
				"type": "occ",
				"energy": -0.20431,
				"method": "rhf"
			},
			{
				"type": "unocc",
				"energy": -0.08376,
				"method": "rhf"
			},
			{
				"type": "unocc",
				"energy": -0.02631,
				"method": "rhf"
			},
			{
				"type": "unocc",
				"energy": -0.00601,
				"method": "rhf"
			},
			{
				"type": "unocc",
				"energy": 0.01013,
				"method": "rhf"
			},
			{
				"type": "unocc",
				"energy": 0.01435,
				"method": "rhf"
			}
		],
		"cosmo_sigma_profile": { 
			"-0.025": 0.0,
			"-0.024": 0.0,
			"-0.023": 0.0,
			"-0.022": 0.0,
			"-0.021": 0.0,
			"-0.02": 0.0,
			"-0.019": 0.0,
			"-0.018": 0.0,
			"-0.017": 1.25977366713,
			"-0.016": 2.05572908776,
			"-0.015": 1.12664237624,
			"-0.014": 2.70634325951,
			"-0.013": 3.87637756672,
			"-0.012": 4.12820192583,
			"-0.011": 3.56105656691,
			"-0.01": 5.01560289125,
			"-0.009": 5.20296092533,
			"-0.008": 5.61281785586,
			"-0.007": 7.04313194425,
			"-0.006": 12.4945280464,
			"-0.005": 22.9778293367,
			"-0.004": 20.014760933,
			"-0.003": 22.0972935049,
			"-0.002": 20.3595474262,
			"-0.001": 19.961571799,
			"0.0": 19.6970523293,
			"0.001": 22.8228224093,
			"0.002": 20.2163886225,
			"0.003": 19.7957909153,
			"0.004": 22.2130717421,
			"0.005": 19.2564251978,
			"0.006": 14.9047473287,
			"0.007": 6.7316650845,
			"0.008": 6.34439393326,
			"0.009": 9.02860980448,
			"0.01": 11.9956889974,
			"0.011": 10.1410988124,
			"0.012": 2.09738555685,
			"0.013": 0.0,
			"0.014": 0.0,
			"0.015": 0.0,
			"0.016": 0.0,
			"0.017": 0.0,
			"0.018": 0.0,
			"0.019": 0.0,
			"0.02": 0.0,
			"0.021": 0.0,
			"0.022": 0.0,
			"0.023": 0.0,
			"0.024": 0.0,
			"0.025": 0.0
		}
	}
}
