{
	 "smiles": "CCCCCCCCCCCCC(C)CC", 
	 "Tm": 251.15, 
	 "num_atms": 50, 
	 "gaussian": { 
		 "optdone": 1, 
		 "sigma_profile": "yes", 
		 "theory": "DFT", 
		 "functional": "B3LYP", 
		 "basiset": "6-31G**", 
		 "properties": { 
			 "R2extent": 8214.1587, 
			 "electric_dipole_moment_norm": 0.0666448047488, 
			 "electric_quadrupole_moment_norm": 0.402107895968, 
			 "total_energy": -630.245527921, 
			 "HOMO_LUMO_gap": 0.36765, 
			 "cosmo_polarized_energy": -1.09, 
			 "cosmo_cavitation_energy": 47.67, 
			 "cosmo_dispersion_energy": -31.8, 
			 "cosmo_repulsion_energy": 2.61, 
			 "cosmo_total_nonelectrostatic_energy": 18.48, 
			 "SMD_solvation_energy": 6.52 
		},
		"coords": [
			{
				"x": 4.0963602297,
				"y": -0.5346533998,
				"z": 4.931443892,
				"element": "C" 
			},
			{
				"x": 4.5724253555,
				"y": -1.0439789951,
				"z": 3.5655375783,
				"element": "C" 
			},
			{
				"x": 3.5512882442,
				"y": -1.9187840124,
				"z": 2.8193910547,
				"element": "C" 
			},
			{
				"x": 2.2745305714,
				"y": -1.1866099137,
				"z": 2.3820868002,
				"element": "C" 
			},
			{
				"x": 1.3162330804,
				"y": -2.0813057492,
				"z": 1.5821703818,
				"element": "C" 
			},
			{
				"x": 0.0554879388,
				"y": -1.3725772906,
				"z": 1.0588046835,
				"element": "C" 
			},
			{
				"x": -0.9276248258,
				"y": -0.9325958705,
				"z": 2.1569941128,
				"element": "C" 
			},
			{
				"x": -2.2524447862,
				"y": -0.3182463804,
				"z": 1.6523429338,
				"element": "C" 
			},
			{
				"x": -2.2649792113,
				"y": 1.2119424439,
				"z": 1.4650333057,
				"element": "C" 
			},
			{
				"x": -1.3487017952,
				"y": 1.8058526235,
				"z": 0.3812765204,
				"element": "C" 
			},
			{
				"x": -1.6845489207,
				"y": 1.3729699978,
				"z": -1.0528200958,
				"element": "C" 
			},
			{
				"x": -0.7963271741,
				"y": 2.0533106703,
				"z": -2.1049097033,
				"element": "C" 
			},
			{
				"x": -1.1556169975,
				"y": 1.72593783,
				"z": -3.5693322928,
				"element": "C" 
			},
			{
				"x": -0.917902926,
				"y": 0.246646741,
				"z": -3.9161020097,
				"element": "C" 
			},
			{
				"x": -0.4430750633,
				"y": 2.6721054675,
				"z": -4.5638712941,
				"element": "C" 
			},
			{
				"x": 1.0896463431,
				"y": 2.5962657033,
				"z": -4.5865232912,
				"element": "C" 
			},
			{
				"x": 3.2235479578,
				"y": 0.1202797848,
				"z": 4.8427684901,
				"element": "H" 
			},
			{
				"x": 4.8834092921,
				"y": 0.0360909242,
				"z": 5.4354616529,
				"element": "H" 
			},
			{
				"x": 3.819041022,
				"y": -1.3680650122,
				"z": 5.5877467013,
				"element": "H" 
			},
			{
				"x": 5.4943498256,
				"y": -1.6231809226,
				"z": 3.7047340654,
				"element": "H" 
			},
			{
				"x": 4.8457532783,
				"y": -0.1889029958,
				"z": 2.9318220159,
				"element": "H" 
			},
			{
				"x": 4.0349004518,
				"y": -2.3445567684,
				"z": 1.9294106617,
				"element": "H" 
			},
			{
				"x": 3.2785534951,
				"y": -2.7750936077,
				"z": 3.4533963363,
				"element": "H" 
			},
			{
				"x": 2.5505503435,
				"y": -0.3157123112,
				"z": 1.7690510053,
				"element": "H" 
			},
			{
				"x": 1.7580314769,
				"y": -0.7874766162,
				"z": 3.2631734642,
				"element": "H" 
			},
			{
				"x": 1.8624819134,
				"y": -2.5041293322,
				"z": 0.7278151976,
				"element": "H" 
			},
			{
				"x": 1.0178574487,
				"y": -2.9387017517,
				"z": 2.203063854,
				"element": "H" 
			},
			{
				"x": -0.4724903669,
				"y": -2.0546244297,
				"z": 0.3782659947,
				"element": "H" 
			},
			{
				"x": 0.3576440294,
				"y": -0.5125404497,
				"z": 0.4480873003,
				"element": "H" 
			},
			{
				"x": -0.4416951165,
				"y": -0.2229602639,
				"z": 2.8398701959,
				"element": "H" 
			},
			{
				"x": -1.1603707145,
				"y": -1.817665999,
				"z": 2.7650223337,
				"element": "H" 
			},
			{
				"x": -2.5555561835,
				"y": -0.8173044537,
				"z": 0.722108251,
				"element": "H" 
			},
			{
				"x": -3.0401899934,
				"y": -0.5536256365,
				"z": 2.3791816716,
				"element": "H" 
			},
			{
				"x": -2.0095613131,
				"y": 1.6756272319,
				"z": 2.427942168,
				"element": "H" 
			},
			{
				"x": -3.2977328072,
				"y": 1.520503114,
				"z": 1.2497473592,
				"element": "H" 
			},
			{
				"x": -1.4169370546,
				"y": 2.9010191985,
				"z": 0.441228277,
				"element": "H" 
			},
			{
				"x": -0.3005811284,
				"y": 1.564465406,
				"z": 0.601634986,
				"element": "H" 
			},
			{
				"x": -1.5931086386,
				"y": 0.2839115151,
				"z": -1.1393159929,
				"element": "H" 
			},
			{
				"x": -2.7387519261,
				"y": 1.6081517164,
				"z": -1.2612437389,
				"element": "H" 
			},
			{
				"x": 0.2522038801,
				"y": 1.784656655,
				"z": -1.9140927664,
				"element": "H" 
			},
			{
				"x": -0.8595990436,
				"y": 3.1420532353,
				"z": -1.9641126732,
				"element": "H" 
			},
			{
				"x": -2.2331577,
				"y": 1.9187416263,
				"z": -3.686277084,
				"element": "H" 
			},
			{
				"x": 0.1246126972,
				"y": -0.0448672179,
				"z": -3.7450076744,
				"element": "H" 
			},
			{
				"x": -1.150057841,
				"y": 0.0482117825,
				"z": -4.9685788655,
				"element": "H" 
			},
			{
				"x": -1.5455920526,
				"y": -0.4156932427,
				"z": -3.3123858971,
				"element": "H" 
			},
			{
				"x": -0.8230459973,
				"y": 2.4621247726,
				"z": -5.5727716332,
				"element": "H" 
			},
			{
				"x": -0.7434856477,
				"y": 3.703786704,
				"z": -4.336307194,
				"element": "H" 
			},
			{
				"x": 1.5253532974,
				"y": 2.8538948057,
				"z": -3.6157053734,
				"element": "H" 
			},
			{
				"x": 1.497732473,
				"y": 3.2960897318,
				"z": -5.3233417078,
				"element": "H" 
			},
			{
				"x": 1.4452405797,
				"y": 1.5962129415,
				"z": -4.8554139577,
				"element": "H" 
			}
		],
		 "valence_orbital": [ 
			{
				"type": "occ",
				"energy": -0.30571,
				"method": "rhf"
			},
			{
				"type": "occ",
				"energy": -0.30432,
				"method": "rhf"
			},
			{
				"type": "occ",
				"energy": -0.29893,
				"method": "rhf"
			},
			{
				"type": "occ",
				"energy": -0.29542,
				"method": "rhf"
			},
			{
				"type": "occ",
				"energy": -0.29004,
				"method": "rhf"
			},
			{
				"type": "unocc",
				"energy": 0.07761,
				"method": "rhf"
			},
			{
				"type": "unocc",
				"energy": 0.08857,
				"method": "rhf"
			},
			{
				"type": "unocc",
				"energy": 0.09338,
				"method": "rhf"
			},
			{
				"type": "unocc",
				"energy": 0.10166,
				"method": "rhf"
			},
			{
				"type": "unocc",
				"energy": 0.1044,
				"method": "rhf"
			}
		],
		"cosmo_sigma_profile": { 
			"-0.025": 0.0,
			"-0.024": 0.0,
			"-0.023": 0.0,
			"-0.022": 0.0,
			"-0.021": 0.0,
			"-0.02": 0.0,
			"-0.019": 0.0,
			"-0.018": 0.0,
			"-0.017": 0.0,
			"-0.016": 0.0,
			"-0.015": 0.0,
			"-0.014": 0.0,
			"-0.013": 0.0,
			"-0.012": 0.0,
			"-0.011": 0.0,
			"-0.01": 0.0,
			"-0.009": 0.0,
			"-0.008": 0.0,
			"-0.007": 0.0,
			"-0.006": 0.0,
			"-0.005": 0.0,
			"-0.004": 0.0,
			"-0.003": 2.85337933025,
			"-0.002": 40.4587790257,
			"-0.001": 88.0819297256,
			"0.0": 98.7865828662,
			"0.001": 89.8843795313,
			"0.002": 41.3922148152,
			"0.003": 1.81747251876,
			"0.004": 0.0,
			"0.005": 0.0,
			"0.006": 0.0,
			"0.007": 0.0,
			"0.008": 0.0,
			"0.009": 0.0,
			"0.01": 0.0,
			"0.011": 0.0,
			"0.012": 0.0,
			"0.013": 0.0,
			"0.014": 0.0,
			"0.015": 0.0,
			"0.016": 0.0,
			"0.017": 0.0,
			"0.018": 0.0,
			"0.019": 0.0,
			"0.02": 0.0,
			"0.021": 0.0,
			"0.022": 0.0,
			"0.023": 0.0,
			"0.024": 0.0,
			"0.025": 0.0
		}
	}
}
