{
	 "smiles": "CCOC1=C(OC2CCCCC2)C(C=CC(O)=O)=CC=C1", 
	 "Tm": 411.15, 
	 "num_atms": 43, 
	 "gaussian": { 
		 "optdone": 1, 
		 "sigma_profile": "yes", 
		 "theory": "DFT", 
		 "functional": "B3LYP", 
		 "basiset": "6-31G**", 
		 "properties": { 
			 "R2extent": 7675.0322, 
			 "electric_dipole_moment_norm": 7.98891972046, 
			 "electric_quadrupole_moment_norm": 32.9316213093, 
			 "total_energy": -961.949169797, 
			 "HOMO_LUMO_gap": 0.15885, 
			 "cosmo_polarized_energy": -17.19, 
			 "cosmo_cavitation_energy": 43.94, 
			 "cosmo_dispersion_energy": -29.66, 
			 "cosmo_repulsion_energy": 2.28, 
			 "cosmo_total_nonelectrostatic_energy": 16.55, 
			 "SMD_solvation_energy": 8.23 
		},
		"coords": [
			{
				"x": -0.3726412663,
				"y": -3.3728742719,
				"z": 2.6326683824,
				"element": "C" 
			},
			{
				"x": 0.4174520457,
				"y": -3.2254138652,
				"z": 1.3369830954,
				"element": "C" 
			},
			{
				"x": 0.0916341046,
				"y": -2.0246670608,
				"z": 0.6280943247,
				"element": "O" 
			},
			{
				"x": 0.6258142517,
				"y": -0.8315388813,
				"z": 1.0239332838,
				"element": "C" 
			},
			{
				"x": 0.1663010937,
				"y": 0.3030998392,
				"z": 0.3108281651,
				"element": "C" 
			},
			{
				"x": -0.7943088385,
				"y": 0.1698363396,
				"z": -0.6533704389,
				"element": "O" 
			},
			{
				"x": -0.4589714459,
				"y": -0.5906332649,
				"z": -1.8609999203,
				"element": "C" 
			},
			{
				"x": -0.1798977726,
				"y": 0.3839419865,
				"z": -3.0071578659,
				"element": "C" 
			},
			{
				"x": -1.4054135381,
				"y": 1.2554432828,
				"z": -3.3878742482,
				"element": "C" 
			},
			{
				"x": -2.7468023236,
				"y": 0.6033161755,
				"z": -2.989125125,
				"element": "C" 
			},
			{
				"x": -2.6744123419,
				"y": -0.9213336753,
				"z": -3.1445714746,
				"element": "C" 
			},
			{
				"x": -1.6363347193,
				"y": -1.5325158238,
				"z": -2.1762662115,
				"element": "C" 
			},
			{
				"x": 0.6380729765,
				"y": 1.5898666219,
				"z": 0.6455503677,
				"element": "C" 
			},
			{
				"x": 0.1102136538,
				"y": 2.733163509,
				"z": -0.0979206469,
				"element": "C" 
			},
			{
				"x": 0.5484599038,
				"y": 4.0062082082,
				"z": -0.0667070998,
				"element": "C" 
			},
			{
				"x": -0.0016871505,
				"y": 5.1040115888,
				"z": -0.8992035991,
				"element": "C" 
			},
			{
				"x": -1.2323498945,
				"y": 4.9185434698,
				"z": -1.4619306557,
				"element": "O" 
			},
			{
				"x": 0.6035841178,
				"y": 6.131990682,
				"z": -1.1038745533,
				"element": "O" 
			},
			{
				"x": 1.5752230654,
				"y": 1.7256913575,
				"z": 1.6898433285,
				"element": "C" 
			},
			{
				"x": 2.0361710286,
				"y": 0.6099603502,
				"z": 2.3677540977,
				"element": "C" 
			},
			{
				"x": 1.5659725547,
				"y": -0.6689361661,
				"z": 2.0424660547,
				"element": "C" 
			},
			{
				"x": -0.1422953697,
				"y": -4.3350018031,
				"z": 3.1022346256,
				"element": "H" 
			},
			{
				"x": -1.4460022494,
				"y": -3.3377336911,
				"z": 2.4265759919,
				"element": "H" 
			},
			{
				"x": -0.1361925087,
				"y": -2.5792487177,
				"z": 3.3461986502,
				"element": "H" 
			},
			{
				"x": 1.4992357487,
				"y": -3.2832960039,
				"z": 1.5110037628,
				"element": "H" 
			},
			{
				"x": 0.1562609303,
				"y": -4.0265035358,
				"z": 0.6402117632,
				"element": "H" 
			},
			{
				"x": 0.4352394857,
				"y": -1.1788205631,
				"z": -1.6438479344,
				"element": "H" 
			},
			{
				"x": 0.1228441682,
				"y": -0.2261170005,
				"z": -3.8683886704,
				"element": "H" 
			},
			{
				"x": 0.6831786416,
				"y": 1.0117551259,
				"z": -2.7612493214,
				"element": "H" 
			},
			{
				"x": -1.3888292568,
				"y": 1.4236850451,
				"z": -4.4710376904,
				"element": "H" 
			},
			{
				"x": -1.3239530105,
				"y": 2.2499435462,
				"z": -2.9358360416,
				"element": "H" 
			},
			{
				"x": -3.5594778426,
				"y": 1.0176140553,
				"z": -3.5961512583,
				"element": "H" 
			},
			{
				"x": -2.9785926879,
				"y": 0.8389686533,
				"z": -1.9436210969,
				"element": "H" 
			},
			{
				"x": -3.6553061847,
				"y": -1.377731177,
				"z": -2.9723856742,
				"element": "H" 
			},
			{
				"x": -2.4049032903,
				"y": -1.1597596117,
				"z": -4.1824935212,
				"element": "H" 
			},
			{
				"x": -2.0989011493,
				"y": -1.7927789408,
				"z": -1.2202181142,
				"element": "H" 
			},
			{
				"x": -1.2386089406,
				"y": -2.4635289013,
				"z": -2.5970300016,
				"element": "H" 
			},
			{
				"x": -0.7099607594,
				"y": 2.46804043,
				"z": -0.7596183328,
				"element": "H" 
			},
			{
				"x": 1.4124180502,
				"y": 4.3064689959,
				"z": 0.5172295571,
				"element": "H" 
			},
			{
				"x": -1.6573862127,
				"y": 4.1398891726,
				"z": -1.0767147079,
				"element": "H" 
			},
			{
				"x": 1.9282140988,
				"y": 2.7126012042,
				"z": 1.9687662564,
				"element": "H" 
			},
			{
				"x": 2.7580152823,
				"y": 0.720649846,
				"z": 3.1710337046,
				"element": "H" 
			},
			{
				"x": 1.9263235517,
				"y": -1.5243565305,
				"z": 2.600918793,
				"element": "H" 
			}
		],
		 "valence_orbital": [ 
			{
				"type": "occ",
				"energy": -0.29767,
				"method": "rhf"
			},
			{
				"type": "occ",
				"energy": -0.27796,
				"method": "rhf"
			},
			{
				"type": "occ",
				"energy": -0.26066,
				"method": "rhf"
			},
			{
				"type": "occ",
				"energy": -0.23282,
				"method": "rhf"
			},
			{
				"type": "occ",
				"energy": -0.22355,
				"method": "rhf"
			},
			{
				"type": "unocc",
				"energy": -0.0647,
				"method": "rhf"
			},
			{
				"type": "unocc",
				"energy": -0.00273,
				"method": "rhf"
			},
			{
				"type": "unocc",
				"energy": 0.02165,
				"method": "rhf"
			},
			{
				"type": "unocc",
				"energy": 0.05272,
				"method": "rhf"
			},
			{
				"type": "unocc",
				"energy": 0.07023,
				"method": "rhf"
			}
		],
		"cosmo_sigma_profile": { 
			"-0.025": 0.0,
			"-0.024": 0.0,
			"-0.023": 0.0,
			"-0.022": 0.0,
			"-0.021": 0.0,
			"-0.02": 0.0,
			"-0.019": 0.0,
			"-0.018": 0.150882802606,
			"-0.017": 0.844397930386,
			"-0.016": 0.360043343404,
			"-0.015": 0.958151617935,
			"-0.014": 0.519489137791,
			"-0.013": 0.909963498944,
			"-0.012": 0.909250136798,
			"-0.011": 1.06403973711,
			"-0.01": 1.12213031865,
			"-0.009": 1.07007813278,
			"-0.008": 2.74524914078,
			"-0.007": 5.5404705641,
			"-0.006": 10.7657160492,
			"-0.005": 13.5630743968,
			"-0.004": 20.579504306,
			"-0.003": 31.1881958701,
			"-0.002": 40.8968845767,
			"-0.001": 42.453563757,
			"0.0": 39.8588008263,
			"0.001": 32.9168813864,
			"0.002": 19.9403849675,
			"0.003": 16.3724520282,
			"0.004": 12.319790417,
			"0.005": 9.98486669584,
			"0.006": 5.07340219921,
			"0.007": 3.50647901295,
			"0.008": 4.56227115024,
			"0.009": 3.84970491929,
			"0.01": 5.02307460526,
			"0.011": 5.10686344935,
			"0.012": 5.99671067442,
			"0.013": 4.0882383752,
			"0.014": 0.834757813556,
			"0.015": 0.0,
			"0.016": 0.0,
			"0.017": 0.0,
			"0.018": 0.0,
			"0.019": 0.0,
			"0.02": 0.0,
			"0.021": 0.0,
			"0.022": 0.0,
			"0.023": 0.0,
			"0.024": 0.0,
			"0.025": 0.0
		}
	}
}
