{
	 "smiles": "OC(=O)C(C1=CC=CC=C1)(C1=CC=CC=C1)C1=CC=CC=C1", 
	 "Tm": 541.15, 
	 "num_atms": 38, 
	 "gaussian": { 
		 "optdone": 1, 
		 "sigma_profile": "yes", 
		 "theory": "DFT", 
		 "functional": "B3LYP", 
		 "basiset": "6-31G**", 
		 "properties": { 
			 "R2extent": 6346.9007, 
			 "electric_dipole_moment_norm": 1.45770753582, 
			 "electric_quadrupole_moment_norm": 6.11306128548, 
			 "total_energy": -922.220610941, 
			 "HOMO_LUMO_gap": 0.21756, 
			 "cosmo_polarized_energy": -12.23, 
			 "cosmo_cavitation_energy": 40.19, 
			 "cosmo_dispersion_energy": -27.59, 
			 "cosmo_repulsion_energy": 2.12, 
			 "cosmo_total_nonelectrostatic_energy": 14.72, 
			 "SMD_solvation_energy": 7.77 
		},
		"coords": [
			{
				"x": -0.2535420102,
				"y": -0.4038497523,
				"z": -2.5875174358,
				"element": "O" 
			},
			{
				"x": 0.2603671638,
				"y": -0.4442814697,
				"z": -1.3319398817,
				"element": "C" 
			},
			{
				"x": 1.4110142827,
				"y": -0.7650871005,
				"z": -1.1415270268,
				"element": "O" 
			},
			{
				"x": -0.7757785941,
				"y": -0.0176827795,
				"z": -0.2499739554,
				"element": "C" 
			},
			{
				"x": -0.3128690373,
				"y": -0.5788468663,
				"z": 1.1198522146,
				"element": "C" 
			},
			{
				"x": 0.968194742,
				"y": -0.2654611929,
				"z": 1.6085409499,
				"element": "C" 
			},
			{
				"x": 1.3940513805,
				"y": -0.7272434096,
				"z": 2.851314299,
				"element": "C" 
			},
			{
				"x": 0.5472377515,
				"y": -1.5042418635,
				"z": 3.6458267099,
				"element": "C" 
			},
			{
				"x": -0.7305210095,
				"y": -1.8057852737,
				"z": 3.182582046,
				"element": "C" 
			},
			{
				"x": -1.1566508491,
				"y": -1.3457713173,
				"z": 1.9322743283,
				"element": "C" 
			},
			{
				"x": -0.7959333995,
				"y": 1.5397078153,
				"z": -0.2025497392,
				"element": "C" 
			},
			{
				"x": -1.0152764355,
				"y": 2.2025694797,
				"z": 1.0149991669,
				"element": "C" 
			},
			{
				"x": -1.0894396083,
				"y": 3.5949596174,
				"z": 1.0740711795,
				"element": "C" 
			},
			{
				"x": -0.9400889606,
				"y": 4.3595611388,
				"z": -0.0827777628,
				"element": "C" 
			},
			{
				"x": -0.7301271963,
				"y": 3.7135791405,
				"z": -1.3006056702,
				"element": "C" 
			},
			{
				"x": -0.6665859955,
				"y": 2.3204804661,
				"z": -1.3619514373,
				"element": "C" 
			},
			{
				"x": -2.1607645136,
				"y": -0.5796756615,
				"z": -0.6496513283,
				"element": "C" 
			},
			{
				"x": -2.2760923351,
				"y": -1.932198391,
				"z": -1.0125015866,
				"element": "C" 
			},
			{
				"x": -3.509717208,
				"y": -2.4861009086,
				"z": -1.3439435092,
				"element": "C" 
			},
			{
				"x": -4.663005477,
				"y": -1.6971955742,
				"z": -1.3163017821,
				"element": "C" 
			},
			{
				"x": -4.5629432875,
				"y": -0.3563378675,
				"z": -0.9526124743,
				"element": "C" 
			},
			{
				"x": -3.3222450902,
				"y": 0.1979128824,
				"z": -0.6220178779,
				"element": "C" 
			},
			{
				"x": 0.4807325344,
				"y": -0.6536463417,
				"z": -3.1746655791,
				"element": "H" 
			},
			{
				"x": 1.6364203246,
				"y": 0.3409047098,
				"z": 1.0106869884,
				"element": "H" 
			},
			{
				"x": 2.3915245023,
				"y": -0.4758220789,
				"z": 3.2007841801,
				"element": "H" 
			},
			{
				"x": 0.8801838106,
				"y": -1.8631154895,
				"z": 4.6156423719,
				"element": "H" 
			},
			{
				"x": -1.4074820978,
				"y": -2.3998335715,
				"z": 3.7901985101,
				"element": "H" 
			},
			{
				"x": -2.1574749084,
				"y": -1.5899311557,
				"z": 1.5982683808,
				"element": "H" 
			},
			{
				"x": -1.1287534258,
				"y": 1.6277440553,
				"z": 1.9265042039,
				"element": "H" 
			},
			{
				"x": -1.2609618147,
				"y": 4.0792737641,
				"z": 2.0312954544,
				"element": "H" 
			},
			{
				"x": -0.9895150099,
				"y": 5.4436121333,
				"z": -0.0361468032,
				"element": "H" 
			},
			{
				"x": -0.6177234456,
				"y": 4.2921487608,
				"z": -2.2132946845,
				"element": "H" 
			},
			{
				"x": -0.528219341,
				"y": 1.8429975464,
				"z": -2.3241448759,
				"element": "H" 
			},
			{
				"x": -1.3901774565,
				"y": -2.5616075261,
				"z": -1.0295571154,
				"element": "H" 
			},
			{
				"x": -3.5706670924,
				"y": -3.5340028681,
				"z": -1.6239599588,
				"element": "H" 
			},
			{
				"x": -5.6266068326,
				"y": -2.1260652089,
				"z": -1.5758722749,
				"element": "H" 
			},
			{
				"x": -5.450618182,
				"y": 0.2694228923,
				"z": -0.9253433866,
				"element": "H" 
			},
			{
				"x": -3.266145878,
				"y": 1.2438092662,
				"z": -0.3439848382,
				"element": "H" 
			}
		],
		 "valence_orbital": [ 
			{
				"type": "occ",
				"energy": -0.25174,
				"method": "rhf"
			},
			{
				"type": "occ",
				"energy": -0.24917,
				"method": "rhf"
			},
			{
				"type": "occ",
				"energy": -0.24317,
				"method": "rhf"
			},
			{
				"type": "occ",
				"energy": -0.23818,
				"method": "rhf"
			},
			{
				"type": "occ",
				"energy": -0.23515,
				"method": "rhf"
			},
			{
				"type": "unocc",
				"energy": -0.01759,
				"method": "rhf"
			},
			{
				"type": "unocc",
				"energy": -0.01125,
				"method": "rhf"
			},
			{
				"type": "unocc",
				"energy": -0.0029,
				"method": "rhf"
			},
			{
				"type": "unocc",
				"energy": 0.00107,
				"method": "rhf"
			},
			{
				"type": "unocc",
				"energy": 0.00258,
				"method": "rhf"
			}
		],
		"cosmo_sigma_profile": { 
			"-0.025": 0.0,
			"-0.024": 0.0,
			"-0.023": 0.0,
			"-0.022": 0.0,
			"-0.021": 0.0,
			"-0.02": 0.0,
			"-0.019": 0.0458314375178,
			"-0.018": 0.804572865499,
			"-0.017": 1.21619150739,
			"-0.016": 0.494445718147,
			"-0.015": 0.829373897583,
			"-0.014": 0.708173425522,
			"-0.013": 1.04978147345,
			"-0.012": 0.627721927537,
			"-0.011": 0.687204020871,
			"-0.01": 0.483731466035,
			"-0.009": 0.6309940028,
			"-0.008": 0.717446125651,
			"-0.007": 0.919662828011,
			"-0.006": 12.3261313049,
			"-0.005": 23.6154002666,
			"-0.004": 33.0532886726,
			"-0.003": 28.5962307869,
			"-0.002": 22.0644758846,
			"-0.001": 21.8591169623,
			"0.0": 23.9421340113,
			"0.001": 22.3059854261,
			"0.002": 22.854258169,
			"0.003": 24.8610236889,
			"0.004": 23.6759089431,
			"0.005": 21.7491771627,
			"0.006": 11.6291806728,
			"0.007": 4.50685738741,
			"0.008": 3.13835635684,
			"0.009": 3.64742623197,
			"0.01": 3.30936687221,
			"0.011": 4.37743248799,
			"0.012": 0.687214205928,
			"0.013": 0.0,
			"0.014": 0.0,
			"0.015": 0.0,
			"0.016": 0.0,
			"0.017": 0.0,
			"0.018": 0.0,
			"0.019": 0.0,
			"0.02": 0.0,
			"0.021": 0.0,
			"0.022": 0.0,
			"0.023": 0.0,
			"0.024": 0.0,
			"0.025": 0.0
		}
	}
}
