{
	 "smiles": "FC(F)(F)C1=CC(=CC(C=C)=C1)C(F)(F)F", 
	 "Tm": 280.65, 
	 "num_atms": 22, 
	 "gaussian": { 
		 "optdone": 1, 
		 "sigma_profile": "yes", 
		 "theory": "DFT", 
		 "functional": "B3LYP", 
		 "basiset": "6-31G**", 
		 "properties": { 
			 "R2extent": 4252.2559, 
			 "electric_dipole_moment_norm": 2.70108301613, 
			 "electric_quadrupole_moment_norm": 6.82807478064, 
			 "total_energy": -983.718593245, 
			 "HOMO_LUMO_gap": 0.18931, 
			 "cosmo_polarized_energy": -4.75, 
			 "cosmo_cavitation_energy": 29.85, 
			 "cosmo_dispersion_energy": -20.18, 
			 "cosmo_repulsion_energy": 1.44, 
			 "cosmo_total_nonelectrostatic_energy": 11.11, 
			 "SMD_solvation_energy": 8.05 
		},
		"coords": [
			{
				"x": 3.0817404105,
				"y": -1.3585164272,
				"z": 1.4881599679,
				"element": "F" 
			},
			{
				"x": 1.9108211129,
				"y": -1.7924783142,
				"z": 0.974135142,
				"element": "C" 
			},
			{
				"x": 1.3146582036,
				"y": -2.5646107272,
				"z": 1.9082601765,
				"element": "F" 
			},
			{
				"x": 2.2126620426,
				"y": -2.5961771498,
				"z": -0.0704836983,
				"element": "F" 
			},
			{
				"x": 1.0315574542,
				"y": -0.6445757662,
				"z": 0.5480466765,
				"element": "C" 
			},
			{
				"x": 1.6207249467,
				"y": 0.5037858433,
				"z": 0.0111862202,
				"element": "C" 
			},
			{
				"x": 0.7994815964,
				"y": 1.5402299538,
				"z": -0.4257850988,
				"element": "C" 
			},
			{
				"x": -0.5887563032,
				"y": 1.432412102,
				"z": -0.3275754598,
				"element": "C" 
			},
			{
				"x": -1.1900709095,
				"y": 0.2850530095,
				"z": 0.2103837424,
				"element": "C" 
			},
			{
				"x": -2.658631667,
				"y": 0.2250242154,
				"z": 0.3004272997,
				"element": "C" 
			},
			{
				"x": -3.3988138795,
				"y": -0.7844011036,
				"z": 0.7731393575,
				"element": "C" 
			},
			{
				"x": -0.3518649409,
				"y": -0.7557953423,
				"z": 0.6471648989,
				"element": "C" 
			},
			{
				"x": 1.4060876119,
				"y": 2.7671230798,
				"z": -1.0564804435,
				"element": "C" 
			},
			{
				"x": 1.4577077789,
				"y": 2.6550248448,
				"z": -2.4030540668,
				"element": "F" 
			},
			{
				"x": 0.6854470338,
				"y": 3.8767226671,
				"z": -0.7822967214,
				"element": "F" 
			},
			{
				"x": 2.6676311579,
				"y": 2.9815061575,
				"z": -0.6273586479,
				"element": "F" 
			},
			{
				"x": 2.6986605552,
				"y": 0.5930309609,
				"z": -0.0481124187,
				"element": "H" 
			},
			{
				"x": -1.2114478044,
				"y": 2.2560600707,
				"z": -0.6624510969,
				"element": "H" 
			},
			{
				"x": -3.1707239182,
				"y": 1.1130515553,
				"z": -0.0669345059,
				"element": "H" 
			},
			{
				"x": -2.9684658736,
				"y": -1.704912662,
				"z": 1.1562223515,
				"element": "H" 
			},
			{
				"x": -4.481378256,
				"y": -0.7177553106,
				"z": 0.7904208769,
				"element": "H" 
			},
			{
				"x": -0.7759263523,
				"y": -1.654601657,
				"z": 1.0793854478,
				"element": "H" 
			}
		],
		 "valence_orbital": [ 
			{
				"type": "occ",
				"energy": -0.36869,
				"method": "rhf"
			},
			{
				"type": "occ",
				"energy": -0.36219,
				"method": "rhf"
			},
			{
				"type": "occ",
				"energy": -0.32538,
				"method": "rhf"
			},
			{
				"type": "occ",
				"energy": -0.28648,
				"method": "rhf"
			},
			{
				"type": "occ",
				"energy": -0.25094,
				"method": "rhf"
			},
			{
				"type": "unocc",
				"energy": -0.06163,
				"method": "rhf"
			},
			{
				"type": "unocc",
				"energy": -0.04571,
				"method": "rhf"
			},
			{
				"type": "unocc",
				"energy": 0.02376,
				"method": "rhf"
			},
			{
				"type": "unocc",
				"energy": 0.08723,
				"method": "rhf"
			},
			{
				"type": "unocc",
				"energy": 0.09705,
				"method": "rhf"
			}
		],
		"cosmo_sigma_profile": { 
			"-0.025": 0.0,
			"-0.024": 0.0,
			"-0.023": 0.0,
			"-0.022": 0.0,
			"-0.021": 0.0,
			"-0.02": 0.0,
			"-0.019": 0.0,
			"-0.018": 0.0,
			"-0.017": 0.0,
			"-0.016": 0.0,
			"-0.015": 0.0,
			"-0.014": 0.0,
			"-0.013": 0.0,
			"-0.012": 0.0,
			"-0.011": 0.0,
			"-0.01": 0.0,
			"-0.009": 0.653084178913,
			"-0.008": 4.37606682926,
			"-0.007": 5.78101812904,
			"-0.006": 9.36573447931,
			"-0.005": 9.19521095437,
			"-0.004": 11.2617261171,
			"-0.003": 10.6901597371,
			"-0.002": 13.9171700234,
			"-0.001": 17.1076528559,
			"0.0": 24.0077258365,
			"0.001": 31.8126560662,
			"0.002": 48.7510979372,
			"0.003": 45.8007124354,
			"0.004": 4.30468828608,
			"0.005": 2.62675527177,
			"0.006": 0.673031404396,
			"0.007": 0.0,
			"0.008": 0.0,
			"0.009": 0.0,
			"0.01": 0.0,
			"0.011": 0.0,
			"0.012": 0.0,
			"0.013": 0.0,
			"0.014": 0.0,
			"0.015": 0.0,
			"0.016": 0.0,
			"0.017": 0.0,
			"0.018": 0.0,
			"0.019": 0.0,
			"0.02": 0.0,
			"0.021": 0.0,
			"0.022": 0.0,
			"0.023": 0.0,
			"0.024": 0.0,
			"0.025": 0.0
		}
	}
}
