{
	 "smiles": "OC(=O)C1=CN2C=CC=NC2=N1", 
	 "Tm": 529.15, 
	 "num_atms": 17, 
	 "gaussian": { 
		 "optdone": 1, 
		 "sigma_profile": "yes", 
		 "theory": "DFT", 
		 "functional": "B3LYP", 
		 "basiset": "6-31G**", 
		 "properties": { 
			 "R2extent": 2461.6733, 
			 "electric_dipole_moment_norm": 9.18362012444, 
			 "electric_quadrupole_moment_norm": 11.9466782676, 
			 "total_energy": -584.440752719, 
			 "HOMO_LUMO_gap": 0.17098, 
			 "cosmo_polarized_energy": -29.16, 
			 "cosmo_cavitation_energy": 22.61, 
			 "cosmo_dispersion_energy": -16.98, 
			 "cosmo_repulsion_energy": 1.33, 
			 "cosmo_total_nonelectrostatic_energy": 6.96, 
			 "SMD_solvation_energy": 2.43 
		},
		"coords": [
			{
				"x": -0.4754068207,
				"y": -1.5106765799,
				"z": -2.53100193,
				"element": "O" 
			},
			{
				"x": 0.3094706353,
				"y": -0.392342321,
				"z": -2.5165205891,
				"element": "C" 
			},
			{
				"x": 0.6561710097,
				"y": 0.1317435128,
				"z": -3.541454056,
				"element": "O" 
			},
			{
				"x": 0.6392908247,
				"y": 0.1165463736,
				"z": -1.1519950617,
				"element": "C" 
			},
			{
				"x": -0.1422192217,
				"y": -0.0327765945,
				"z": -0.0115310424,
				"element": "C" 
			},
			{
				"x": 0.5328235427,
				"y": 0.6429275911,
				"z": 0.9729319947,
				"element": "N" 
			},
			{
				"x": 0.2680181047,
				"y": 0.8701451048,
				"z": 2.2961056506,
				"element": "C" 
			},
			{
				"x": 1.1728694052,
				"y": 1.6003603192,
				"z": 3.0117949473,
				"element": "C" 
			},
			{
				"x": 2.3398313625,
				"y": 2.0867686586,
				"z": 2.3505316284,
				"element": "C" 
			},
			{
				"x": 2.6055949275,
				"y": 1.8813522727,
				"z": 1.0795178864,
				"element": "N" 
			},
			{
				"x": 1.7134830258,
				"y": 1.1678713542,
				"z": 0.3657542841,
				"element": "C" 
			},
			{
				"x": 1.7629241581,
				"y": 0.8494207498,
				"z": -0.9170272542,
				"element": "N" 
			},
			{
				"x": -0.4877630199,
				"y": -1.9106582576,
				"z": -1.6498455494,
				"element": "H" 
			},
			{
				"x": -1.1083166082,
				"y": -0.4836133263,
				"z": 0.1603539744,
				"element": "H" 
			},
			{
				"x": -0.6479237173,
				"y": 0.4533243843,
				"z": 2.6994182134,
				"element": "H" 
			},
			{
				"x": 1.004743454,
				"y": 1.8029169648,
				"z": 4.0623397678,
				"element": "H" 
			},
			{
				"x": 3.0691089375,
				"y": 2.6665897936,
				"z": 2.9128271355,
				"element": "H" 
			}
		],
		 "valence_orbital": [ 
			{
				"type": "occ",
				"energy": -0.30168,
				"method": "rhf"
			},
			{
				"type": "occ",
				"energy": -0.28589,
				"method": "rhf"
			},
			{
				"type": "occ",
				"energy": -0.28099,
				"method": "rhf"
			},
			{
				"type": "occ",
				"energy": -0.26892,
				"method": "rhf"
			},
			{
				"type": "occ",
				"energy": -0.24872,
				"method": "rhf"
			},
			{
				"type": "unocc",
				"energy": -0.07774,
				"method": "rhf"
			},
			{
				"type": "unocc",
				"energy": -0.03683,
				"method": "rhf"
			},
			{
				"type": "unocc",
				"energy": -0.00485,
				"method": "rhf"
			},
			{
				"type": "unocc",
				"energy": 0.05972,
				"method": "rhf"
			},
			{
				"type": "unocc",
				"energy": 0.06567,
				"method": "rhf"
			}
		],
		"cosmo_sigma_profile": { 
			"-0.025": 0.0,
			"-0.024": 0.0,
			"-0.023": 0.0,
			"-0.022": 0.0,
			"-0.021": 0.0,
			"-0.02": 0.0,
			"-0.019": 0.132840873948,
			"-0.018": 1.02060956517,
			"-0.017": 1.13354919182,
			"-0.016": 0.843940193549,
			"-0.015": 1.24179865416,
			"-0.014": 1.23112698715,
			"-0.013": 1.29097653074,
			"-0.012": 3.6528381132,
			"-0.011": 6.15236547327,
			"-0.01": 3.59462108852,
			"-0.009": 5.06552496588,
			"-0.008": 9.51048161522,
			"-0.007": 8.02475747619,
			"-0.006": 6.43448325808,
			"-0.005": 6.81991173439,
			"-0.004": 10.6239159089,
			"-0.003": 10.4129654361,
			"-0.002": 11.1749750199,
			"-0.001": 11.2939445642,
			"0.0": 10.393941259,
			"0.001": 5.91538779353,
			"0.002": 3.85174053289,
			"0.003": 2.92651367852,
			"0.004": 3.49885328111,
			"0.005": 4.40390032983,
			"0.006": 4.020528539,
			"0.007": 4.351435533,
			"0.008": 4.16295779882,
			"0.009": 5.38342167033,
			"0.01": 7.63174262903,
			"0.011": 7.99991327289,
			"0.012": 7.40667179546,
			"0.013": 4.7563800637,
			"0.014": 3.35724795325,
			"0.015": 2.00918299975,
			"0.016": 1.17942598713,
			"0.017": 0.119447754402,
			"0.018": 0.0,
			"0.019": 0.0,
			"0.02": 0.0,
			"0.021": 0.0,
			"0.022": 0.0,
			"0.023": 0.0,
			"0.024": 0.0,
			"0.025": 0.0
		}
	}
}
