{
	 "smiles": "CNC(=O)C1=NN(C=C1)C1=CC=C(N)C=C1", 
	 "Tm": 426.15, 
	 "num_atms": 28, 
	 "gaussian": { 
		 "optdone": 1, 
		 "sigma_profile": "yes", 
		 "theory": "DFT", 
		 "functional": "B3LYP", 
		 "basiset": "6-31G**", 
		 "properties": { 
			 "R2extent": 5422.834, 
			 "electric_dipole_moment_norm": 5.35462565732, 
			 "electric_quadrupole_moment_norm": 28.6580300809, 
			 "total_energy": -720.619236158, 
			 "HOMO_LUMO_gap": 0.17926, 
			 "cosmo_polarized_energy": -23.57, 
			 "cosmo_cavitation_energy": 32.69, 
			 "cosmo_dispersion_energy": -23.84, 
			 "cosmo_repulsion_energy": 1.87, 
			 "cosmo_total_nonelectrostatic_energy": 10.71, 
			 "SMD_solvation_energy": 5.42 
		},
		"coords": [
			{
				"x": 1.8017039388,
				"y": -4.4049527694,
				"z": 2.4709052985,
				"element": "C" 
			},
			{
				"x": 1.587798451,
				"y": -3.4051602781,
				"z": 3.504404193,
				"element": "N" 
			},
			{
				"x": 1.0298882364,
				"y": -2.1520681842,
				"z": 3.394875005,
				"element": "C" 
			},
			{
				"x": 0.6259346363,
				"y": -1.5537512943,
				"z": 4.3843113937,
				"element": "O" 
			},
			{
				"x": 0.9927633141,
				"y": -1.5347778287,
				"z": 2.03211498,
				"element": "C" 
			},
			{
				"x": -0.0349017239,
				"y": -0.7416749667,
				"z": 1.7141592476,
				"element": "N" 
			},
			{
				"x": 0.2488948268,
				"y": -0.2705566485,
				"z": 0.4833462237,
				"element": "N" 
			},
			{
				"x": 1.4472590582,
				"y": -0.7352124729,
				"z": 0.0171721502,
				"element": "C" 
			},
			{
				"x": 1.9558315184,
				"y": -1.5679067595,
				"z": 0.9901278027,
				"element": "C" 
			},
			{
				"x": -0.6517741644,
				"y": 0.6219197138,
				"z": -0.1632250657,
				"element": "C" 
			},
			{
				"x": -1.4973928248,
				"y": 1.4277317822,
				"z": 0.6059682418,
				"element": "C" 
			},
			{
				"x": -2.3759901486,
				"y": 2.3053478347,
				"z": -0.0157242115,
				"element": "C" 
			},
			{
				"x": -2.4274732654,
				"y": 2.4096181806,
				"z": -1.4179560616,
				"element": "C" 
			},
			{
				"x": -3.2646182902,
				"y": 3.3386457386,
				"z": -2.0347901184,
				"element": "N" 
			},
			{
				"x": -1.5743596391,
				"y": 1.5906890324,
				"z": -2.1770232899,
				"element": "C" 
			},
			{
				"x": -0.7029612315,
				"y": 0.7002113803,
				"z": -1.5573185148,
				"element": "C" 
			},
			{
				"x": 2.8680305309,
				"y": -4.581253469,
				"z": 2.2770151931,
				"element": "H" 
			},
			{
				"x": 1.3492246103,
				"y": -5.3573322122,
				"z": 2.7680619042,
				"element": "H" 
			},
			{
				"x": 1.3330365576,
				"y": -4.0868985057,
				"z": 1.5392056348,
				"element": "H" 
			},
			{
				"x": 1.6023262567,
				"y": -3.7200967454,
				"z": 4.4656921372,
				"element": "H" 
			},
			{
				"x": 1.8507350268,
				"y": -0.4157180202,
				"z": -0.9312177871,
				"element": "H" 
			},
			{
				"x": 2.9015249758,
				"y": -2.0878233341,
				"z": 0.9703601174,
				"element": "H" 
			},
			{
				"x": -1.4593168214,
				"y": 1.3482674075,
				"z": 1.6859285589,
				"element": "H" 
			},
			{
				"x": -3.0260404875,
				"y": 2.9298979724,
				"z": 0.5915914481,
				"element": "H" 
			},
			{
				"x": -4.0676288458,
				"y": 3.6240959826,
				"z": -1.4916761445,
				"element": "H" 
			},
			{
				"x": -3.5098707946,
				"y": 3.1323875074,
				"z": -2.9931929327,
				"element": "H" 
			},
			{
				"x": -1.6030697387,
				"y": 1.6440715547,
				"z": -3.2622089541,
				"element": "H" 
			},
			{
				"x": -0.0812539625,
				"y": 0.0520994019,
				"z": -2.1666064496,
				"element": "H" 
			}
		],
		 "valence_orbital": [ 
			{
				"type": "occ",
				"energy": -0.2569,
				"method": "rhf"
			},
			{
				"type": "occ",
				"energy": -0.2511,
				"method": "rhf"
			},
			{
				"type": "occ",
				"energy": -0.24098,
				"method": "rhf"
			},
			{
				"type": "occ",
				"energy": -0.23087,
				"method": "rhf"
			},
			{
				"type": "occ",
				"energy": -0.19919,
				"method": "rhf"
			},
			{
				"type": "unocc",
				"energy": -0.01993,
				"method": "rhf"
			},
			{
				"type": "unocc",
				"energy": -0.00719,
				"method": "rhf"
			},
			{
				"type": "unocc",
				"energy": 0.01845,
				"method": "rhf"
			},
			{
				"type": "unocc",
				"energy": 0.04529,
				"method": "rhf"
			},
			{
				"type": "unocc",
				"energy": 0.07546,
				"method": "rhf"
			}
		],
		"cosmo_sigma_profile": { 
			"-0.025": 0.0,
			"-0.024": 0.0,
			"-0.023": 0.0,
			"-0.022": 0.0,
			"-0.021": 0.0,
			"-0.02": 0.0,
			"-0.019": 0.0,
			"-0.018": 0.0,
			"-0.017": 0.0,
			"-0.016": 0.0,
			"-0.015": 0.0,
			"-0.014": 0.14071502965,
			"-0.013": 1.80518871948,
			"-0.012": 3.95697859578,
			"-0.011": 3.62506327714,
			"-0.01": 4.71440485637,
			"-0.009": 7.10811055001,
			"-0.008": 6.2819909764,
			"-0.007": 9.38082386073,
			"-0.006": 11.7090553906,
			"-0.005": 17.1239710079,
			"-0.004": 19.1194500841,
			"-0.003": 16.535669508,
			"-0.002": 18.9735830133,
			"-0.001": 13.0462982121,
			"0.0": 11.6427981711,
			"0.001": 14.1667551241,
			"0.002": 15.481743515,
			"0.003": 15.528845856,
			"0.004": 13.7378694165,
			"0.005": 16.0109118689,
			"0.006": 5.61650285877,
			"0.007": 2.67620385996,
			"0.008": 2.95295169619,
			"0.009": 2.99354495911,
			"0.01": 3.15918779675,
			"0.011": 2.71000056159,
			"0.012": 3.17032544697,
			"0.013": 4.95613811999,
			"0.014": 7.26581496662,
			"0.015": 3.07726637505,
			"0.016": 1.6451436499,
			"0.017": 0.0652349478015,
			"0.018": 0.0,
			"0.019": 0.0,
			"0.02": 0.0,
			"0.021": 0.0,
			"0.022": 0.0,
			"0.023": 0.0,
			"0.024": 0.0,
			"0.025": 0.0
		}
	}
}
