{
	 "smiles": "COC1=CC2=C(C=C1)C(CC(O)=O)CO2", 
	 "Tm": 368.15, 
	 "num_atms": 27, 
	 "gaussian": { 
		 "optdone": 1, 
		 "sigma_profile": "yes", 
		 "theory": "DFT", 
		 "functional": "B3LYP", 
		 "basiset": "6-31G**", 
		 "properties": { 
			 "R2extent": 3997.9644, 
			 "electric_dipole_moment_norm": 3.2870467505, 
			 "electric_quadrupole_moment_norm": 15.7771062923, 
			 "total_energy": -727.292187235, 
			 "HOMO_LUMO_gap": 0.20428, 
			 "cosmo_polarized_energy": -14.13, 
			 "cosmo_cavitation_energy": 30.4, 
			 "cosmo_dispersion_energy": -22.05, 
			 "cosmo_repulsion_energy": 1.74, 
			 "cosmo_total_nonelectrostatic_energy": 10.08, 
			 "SMD_solvation_energy": 7.0 
		},
		"coords": [
			{
				"x": 2.0518946341,
				"y": 3.5886150299,
				"z": -2.3454125804,
				"element": "C" 
			},
			{
				"x": 2.6989200667,
				"y": 2.7933293739,
				"z": -1.3664309738,
				"element": "O" 
			},
			{
				"x": 2.0127472999,
				"y": 1.7440376991,
				"z": -0.8243502919,
				"element": "C" 
			},
			{
				"x": 2.7221149718,
				"y": 1.0123702497,
				"z": 0.1444107174,
				"element": "C" 
			},
			{
				"x": 2.0774747571,
				"y": -0.0631282626,
				"z": 0.7320495328,
				"element": "C" 
			},
			{
				"x": 0.7681301033,
				"y": -0.4341839745,
				"z": 0.398034687,
				"element": "C" 
			},
			{
				"x": 0.082158979,
				"y": 0.2974950202,
				"z": -0.5587673884,
				"element": "C" 
			},
			{
				"x": 0.6991082506,
				"y": 1.3974335047,
				"z": -1.1740932168,
				"element": "C" 
			},
			{
				"x": 0.4232856244,
				"y": -1.6855586328,
				"z": 1.1808391056,
				"element": "C" 
			},
			{
				"x": -0.9884710992,
				"y": -1.735079937,
				"z": 1.8143945426,
				"element": "C" 
			},
			{
				"x": -1.3084437629,
				"y": -0.5179673214,
				"z": 2.6566349971,
				"element": "C" 
			},
			{
				"x": -2.2318311137,
				"y": 0.2792105587,
				"z": 2.0715045463,
				"element": "O" 
			},
			{
				"x": -0.8088573913,
				"y": -0.2547653336,
				"z": 3.7304038197,
				"element": "O" 
			},
			{
				"x": 1.5903172623,
				"y": -1.7175042107,
				"z": 2.2052662638,
				"element": "C" 
			},
			{
				"x": 2.641306188,
				"y": -0.8694517763,
				"z": 1.6758858911,
				"element": "O" 
			},
			{
				"x": 1.1513440786,
				"y": 4.0726142202,
				"z": -1.9455046943,
				"element": "H" 
			},
			{
				"x": 1.7775289998,
				"y": 3.000223164,
				"z": -3.230642819,
				"element": "H" 
			},
			{
				"x": 2.77218548,
				"y": 4.3557155936,
				"z": -2.634590406,
				"element": "H" 
			},
			{
				"x": 3.7324573014,
				"y": 1.2969699473,
				"z": 0.4123042003,
				"element": "H" 
			},
			{
				"x": -0.9354661339,
				"y": 0.0362004801,
				"z": -0.8356840296,
				"element": "H" 
			},
			{
				"x": 0.1524127019,
				"y": 1.9670194261,
				"z": -1.914813497,
				"element": "H" 
			},
			{
				"x": 0.4913910408,
				"y": -2.5630392208,
				"z": 0.5219654539,
				"element": "H" 
			},
			{
				"x": -1.7386531955,
				"y": -1.8361958921,
				"z": 1.0266796562,
				"element": "H" 
			},
			{
				"x": -1.0614105118,
				"y": -2.6139422178,
				"z": 2.4643123766,
				"element": "H" 
			},
			{
				"x": -2.3459711722,
				"y": 1.0419132745,
				"z": 2.6643836299,
				"element": "H" 
			},
			{
				"x": 2.0113813754,
				"y": -2.7155985651,
				"z": 2.3472968872,
				"element": "H" 
			},
			{
				"x": 1.2751452655,
				"y": -1.3119321971,
				"z": 3.1716235899,
				"element": "H" 
			}
		],
		 "valence_orbital": [ 
			{
				"type": "occ",
				"energy": -0.3188,
				"method": "rhf"
			},
			{
				"type": "occ",
				"energy": -0.29288,
				"method": "rhf"
			},
			{
				"type": "occ",
				"energy": -0.27548,
				"method": "rhf"
			},
			{
				"type": "occ",
				"energy": -0.22422,
				"method": "rhf"
			},
			{
				"type": "occ",
				"energy": -0.20335,
				"method": "rhf"
			},
			{
				"type": "unocc",
				"energy": 0.00093,
				"method": "rhf"
			},
			{
				"type": "unocc",
				"energy": 0.00267,
				"method": "rhf"
			},
			{
				"type": "unocc",
				"energy": 0.02526,
				"method": "rhf"
			},
			{
				"type": "unocc",
				"energy": 0.07463,
				"method": "rhf"
			},
			{
				"type": "unocc",
				"energy": 0.09288,
				"method": "rhf"
			}
		],
		"cosmo_sigma_profile": { 
			"-0.025": 0.0,
			"-0.024": 0.0,
			"-0.023": 0.0,
			"-0.022": 0.0,
			"-0.021": 0.0,
			"-0.02": 0.0,
			"-0.019": 0.0184622252473,
			"-0.018": 0.673031382818,
			"-0.017": 0.96745750892,
			"-0.016": 0.763456039121,
			"-0.015": 0.663434738606,
			"-0.014": 0.66952591189,
			"-0.013": 0.683673660918,
			"-0.012": 0.814007618465,
			"-0.011": 1.00594341283,
			"-0.01": 0.726025853394,
			"-0.009": 0.457849662054,
			"-0.008": 0.650215468309,
			"-0.007": 1.69346130182,
			"-0.006": 15.0323779066,
			"-0.005": 30.1246575258,
			"-0.004": 22.6299235932,
			"-0.003": 22.4124302792,
			"-0.002": 14.1617525704,
			"-0.001": 10.337697168,
			"0.0": 11.4289496559,
			"0.001": 9.49317144757,
			"0.002": 10.3886576213,
			"0.003": 12.4953661899,
			"0.004": 15.8027663039,
			"0.005": 16.7495398228,
			"0.006": 9.13604464324,
			"0.007": 5.11591710021,
			"0.008": 5.18855906623,
			"0.009": 5.11820733525,
			"0.01": 5.91491003877,
			"0.011": 5.29483245334,
			"0.012": 3.63000184787,
			"0.013": 0.0654483519156,
			"0.014": 0.0,
			"0.015": 0.0,
			"0.016": 0.0,
			"0.017": 0.0,
			"0.018": 0.0,
			"0.019": 0.0,
			"0.02": 0.0,
			"0.021": 0.0,
			"0.022": 0.0,
			"0.023": 0.0,
			"0.024": 0.0,
			"0.025": 0.0
		}
	}
}
