{
	 "smiles": "CCOC1=NC2=C(C=CC=C2)C(=O)N1N", 
	 "Tm": 370.65, 
	 "num_atms": 26, 
	 "gaussian": { 
		 "optdone": 1, 
		 "sigma_profile": "yes", 
		 "theory": "DFT", 
		 "functional": "B3LYP", 
		 "basiset": "6-31G**", 
		 "properties": { 
			 "R2extent": 3767.3268, 
			 "electric_dipole_moment_norm": 2.84190523945, 
			 "electric_quadrupole_moment_norm": 9.38208509181, 
			 "total_energy": -702.397028541, 
			 "HOMO_LUMO_gap": 0.17953, 
			 "cosmo_polarized_energy": -12.22, 
			 "cosmo_cavitation_energy": 29.96, 
			 "cosmo_dispersion_energy": -22.23, 
			 "cosmo_repulsion_energy": 1.75, 
			 "cosmo_total_nonelectrostatic_energy": 9.48, 
			 "SMD_solvation_energy": 5.45 
		},
		"coords": [
			{
				"x": 0.6934780307,
				"y": -3.4013321501,
				"z": -1.7300168622,
				"element": "C" 
			},
			{
				"x": 0.059188482,
				"y": -2.3989918176,
				"z": -0.7852285958,
				"element": "C" 
			},
			{
				"x": 0.5097285645,
				"y": -1.0868119387,
				"z": -1.1964234975,
				"element": "O" 
			},
			{
				"x": 0.0438539006,
				"y": -0.0475316436,
				"z": -0.4991703874,
				"element": "C" 
			},
			{
				"x": -0.7265686724,
				"y": -0.1867723139,
				"z": 0.5322434803,
				"element": "N" 
			},
			{
				"x": -1.1249389815,
				"y": 0.9616707427,
				"z": 1.1915867617,
				"element": "C" 
			},
			{
				"x": -0.7051913613,
				"y": 2.251972644,
				"z": 0.7889178863,
				"element": "C" 
			},
			{
				"x": -1.1262956495,
				"y": 3.3950621081,
				"z": 1.4907050774,
				"element": "C" 
			},
			{
				"x": -1.9607768797,
				"y": 3.2637701026,
				"z": 2.5879381645,
				"element": "C" 
			},
			{
				"x": -2.3844389653,
				"y": 1.9834340091,
				"z": 2.993412031,
				"element": "C" 
			},
			{
				"x": -1.976407773,
				"y": 0.8493193911,
				"z": 2.3102965267,
				"element": "C" 
			},
			{
				"x": 0.1711435435,
				"y": 2.3866262219,
				"z": -0.3696082888,
				"element": "C" 
			},
			{
				"x": 0.5973589785,
				"y": 3.4332806569,
				"z": -0.8541833676,
				"element": "O" 
			},
			{
				"x": 0.5142681995,
				"y": 1.1590259846,
				"z": -0.9697656485,
				"element": "N" 
			},
			{
				"x": 1.253777248,
				"y": 1.2086921263,
				"z": -2.1786446987,
				"element": "N" 
			},
			{
				"x": 1.784956214,
				"y": -3.356979818,
				"z": -1.6745084091,
				"element": "H" 
			},
			{
				"x": 0.3920337851,
				"y": -3.209117254,
				"z": -2.7633778992,
				"element": "H" 
			},
			{
				"x": 0.3760322929,
				"y": -4.412917231,
				"z": -1.4590353256,
				"element": "H" 
			},
			{
				"x": -1.0337329429,
				"y": -2.4241592705,
				"z": -0.8267373033,
				"element": "H" 
			},
			{
				"x": 0.3541089524,
				"y": -2.5633228075,
				"z": 0.2555575828,
				"element": "H" 
			},
			{
				"x": -0.7812694662,
				"y": 4.3646694281,
				"z": 1.1470517185,
				"element": "H" 
			},
			{
				"x": -2.2894783551,
				"y": 4.1427371046,
				"z": 3.1336271203,
				"element": "H" 
			},
			{
				"x": -3.0402086045,
				"y": 1.8830108667,
				"z": 3.8538791791,
				"element": "H" 
			},
			{
				"x": -2.2949567347,
				"y": -0.1426157457,
				"z": 2.6133545078,
				"element": "H" 
			},
			{
				"x": 1.3420016256,
				"y": 2.2142024822,
				"z": -2.3466356255,
				"element": "H" 
			},
			{
				"x": 2.1883345687,
				"y": 0.8525781219,
				"z": -1.9782341271,
				"element": "H" 
			}
		],
		 "valence_orbital": [ 
			{
				"type": "occ",
				"energy": -0.28268,
				"method": "rhf"
			},
			{
				"type": "occ",
				"energy": -0.27131,
				"method": "rhf"
			},
			{
				"type": "occ",
				"energy": -0.25931,
				"method": "rhf"
			},
			{
				"type": "occ",
				"energy": -0.24963,
				"method": "rhf"
			},
			{
				"type": "occ",
				"energy": -0.21841,
				"method": "rhf"
			},
			{
				"type": "unocc",
				"energy": -0.03888,
				"method": "rhf"
			},
			{
				"type": "unocc",
				"energy": -0.01892,
				"method": "rhf"
			},
			{
				"type": "unocc",
				"energy": 0.0355,
				"method": "rhf"
			},
			{
				"type": "unocc",
				"energy": 0.07819,
				"method": "rhf"
			},
			{
				"type": "unocc",
				"energy": 0.08305,
				"method": "rhf"
			}
		],
		"cosmo_sigma_profile": { 
			"-0.025": 0.0,
			"-0.024": 0.0,
			"-0.023": 0.0,
			"-0.022": 0.0,
			"-0.021": 0.0,
			"-0.02": 0.0,
			"-0.019": 0.0,
			"-0.018": 0.0,
			"-0.017": 0.0,
			"-0.016": 0.0,
			"-0.015": 0.0,
			"-0.014": 0.0,
			"-0.013": 1.27035901017,
			"-0.012": 1.64547755229,
			"-0.011": 2.10581978026,
			"-0.01": 2.39478778889,
			"-0.009": 2.11415687327,
			"-0.008": 1.93152087206,
			"-0.007": 1.93373638833,
			"-0.006": 8.59370371707,
			"-0.005": 17.0567050081,
			"-0.004": 24.7301809458,
			"-0.003": 21.662195895,
			"-0.002": 20.3222530753,
			"-0.001": 17.5169902015,
			"0.0": 17.4885883377,
			"0.001": 13.5731935062,
			"0.002": 16.2568996992,
			"0.003": 15.9956754429,
			"0.004": 14.0373592809,
			"0.005": 5.00083173042,
			"0.006": 4.42747746616,
			"0.007": 4.177221782,
			"0.008": 4.03209399775,
			"0.009": 3.81152211209,
			"0.01": 2.99829751803,
			"0.011": 4.11050704867,
			"0.012": 4.57562088544,
			"0.013": 2.4372544613,
			"0.014": 0.867809022748,
			"0.015": 1.04246261755,
			"0.016": 0.362061515035,
			"0.017": 0.00319740782479,
			"0.018": 0.0,
			"0.019": 0.0,
			"0.02": 0.0,
			"0.021": 0.0,
			"0.022": 0.0,
			"0.023": 0.0,
			"0.024": 0.0,
			"0.025": 0.0
		}
	}
}
