{
	 "smiles": "SC1=NN=C(N1)C1=C(Br)C=CC=C1", 
	 "Tm": 469.15, 
	 "num_atms": 19, 
	 "gaussian": { 
		 "optdone": 1, 
		 "sigma_profile": "yes", 
		 "theory": "DFT", 
		 "functional": "B3LYP", 
		 "basiset": "6-31G**", 
		 "properties": { 
			 "R2extent": 5346.8419, 
			 "electric_dipole_moment_norm": 3.16969392055, 
			 "electric_quadrupole_moment_norm": 18.2689219304, 
			 "total_energy": -3442.28968524, 
			 "HOMO_LUMO_gap": 0.17315, 
			 "cosmo_polarized_energy": -13.99, 
			 "cosmo_cavitation_energy": 27.54, 
			 "cosmo_dispersion_energy": -21.55, 
			 "cosmo_repulsion_energy": 1.64, 
			 "cosmo_total_nonelectrostatic_energy": 7.63, 
			 "SMD_solvation_energy": 1.06 
		},
		"coords": [
			{
				"x": 2.9058600205,
				"y": -2.4719836968,
				"z": 4.5239200613,
				"element": "S" 
			},
			{
				"x": 2.8569705154,
				"y": -1.8124537204,
				"z": 2.8887985971,
				"element": "C" 
			},
			{
				"x": 3.8921682135,
				"y": -1.5121779491,
				"z": 2.1328943768,
				"element": "N" 
			},
			{
				"x": 3.394160721,
				"y": -1.0324246312,
				"z": 0.94856311,
				"element": "N" 
			},
			{
				"x": 2.0737048691,
				"y": -1.050578059,
				"z": 1.0075495013,
				"element": "C" 
			},
			{
				"x": 1.6908837485,
				"y": -1.5436486646,
				"z": 2.234872648,
				"element": "N" 
			},
			{
				"x": 1.2125831017,
				"y": -0.6020595506,
				"z": -0.0952105466,
				"element": "C" 
			},
			{
				"x": -0.1929167463,
				"y": -0.58091082,
				"z": -0.1361462868,
				"element": "C" 
			},
			{
				"x": -1.3072468765,
				"y": -1.1681477103,
				"z": 1.3255132706,
				"element": "Br" 
			},
			{
				"x": -0.8905914292,
				"y": -0.1258567037,
				"z": -1.2563467904,
				"element": "C" 
			},
			{
				"x": -0.1962592776,
				"y": 0.3239054654,
				"z": -2.3748503987,
				"element": "C" 
			},
			{
				"x": 1.2005905101,
				"y": 0.3157003993,
				"z": -2.3659897469,
				"element": "C" 
			},
			{
				"x": 1.8846031763,
				"y": -0.1382488369,
				"z": -1.2482739192,
				"element": "C" 
			},
			{
				"x": 4.2520684146,
				"y": -2.4863634185,
				"z": 4.551436397,
				"element": "H" 
			},
			{
				"x": 0.741923845,
				"y": -1.6705796335,
				"z": 2.558959054,
				"element": "H" 
			},
			{
				"x": -1.9742760368,
				"y": -0.1275830248,
				"z": -1.2432193528,
				"element": "H" 
			},
			{
				"x": -0.7454527014,
				"y": 0.67637457,
				"z": -3.2423328914,
				"element": "H" 
			},
			{
				"x": 1.7571167888,
				"y": 0.6633256833,
				"z": -3.2306582201,
				"element": "H" 
			},
			{
				"x": 2.9683091436,
				"y": -0.1510896986,
				"z": -1.225278863,
				"element": "H" 
			}
		],
		 "valence_orbital": [ 
			{
				"type": "occ",
				"energy": -0.30957,
				"method": "rhf"
			},
			{
				"type": "occ",
				"energy": -0.2793,
				"method": "rhf"
			},
			{
				"type": "occ",
				"energy": -0.26118,
				"method": "rhf"
			},
			{
				"type": "occ",
				"energy": -0.26105,
				"method": "rhf"
			},
			{
				"type": "occ",
				"energy": -0.22334,
				"method": "rhf"
			},
			{
				"type": "unocc",
				"energy": -0.05019,
				"method": "rhf"
			},
			{
				"type": "unocc",
				"energy": -0.0241,
				"method": "rhf"
			},
			{
				"type": "unocc",
				"energy": -0.01691,
				"method": "rhf"
			},
			{
				"type": "unocc",
				"energy": -0.00069,
				"method": "rhf"
			},
			{
				"type": "unocc",
				"energy": 0.02868,
				"method": "rhf"
			}
		],
		"cosmo_sigma_profile": { 
			"-0.025": 0.0,
			"-0.024": 0.0,
			"-0.023": 0.0,
			"-0.022": 0.0,
			"-0.021": 0.0,
			"-0.02": 0.0,
			"-0.019": 0.0,
			"-0.018": 0.0,
			"-0.017": 0.0,
			"-0.016": 0.0064689520367,
			"-0.015": 0.895169725375,
			"-0.014": 1.20953832842,
			"-0.013": 0.586091655732,
			"-0.012": 2.58211094046,
			"-0.011": 2.51336292954,
			"-0.01": 2.38820677305,
			"-0.009": 2.05797985507,
			"-0.008": 2.88302451354,
			"-0.007": 7.84610304666,
			"-0.006": 9.77359341753,
			"-0.005": 14.4611225432,
			"-0.004": 11.8309610915,
			"-0.003": 13.3342226605,
			"-0.002": 13.4167825841,
			"-0.001": 16.1230209502,
			"0.0": 16.5308683011,
			"0.001": 22.4288825102,
			"0.002": 25.04577092,
			"0.003": 21.8688436457,
			"0.004": 9.11485958496,
			"0.005": 4.65478758911,
			"0.006": 4.25634164085,
			"0.007": 3.39833475639,
			"0.008": 1.99401152603,
			"0.009": 1.43921191069,
			"0.01": 1.87596255966,
			"0.011": 2.41656048677,
			"0.012": 2.78367590507,
			"0.013": 3.32331415246,
			"0.014": 2.94330125709,
			"0.015": 1.52511156034,
			"0.016": 0.668577581823,
			"0.017": 0.0020376057813,
			"0.018": 0.0,
			"0.019": 0.0,
			"0.02": 0.0,
			"0.021": 0.0,
			"0.022": 0.0,
			"0.023": 0.0,
			"0.024": 0.0,
			"0.025": 0.0
		}
	}
}
