{
	 "smiles": "COC1=CC=C(C=CC(=O)C2=CC=CC=C2)C=C1", 
	 "Tm": 350.15, 
	 "num_atms": 32, 
	 "gaussian": { 
		 "optdone": 1, 
		 "sigma_profile": "yes", 
		 "theory": "DFT", 
		 "functional": "B3LYP", 
		 "basiset": "6-31G**", 
		 "properties": { 
			 "R2extent": 9467.4676, 
			 "electric_dipole_moment_norm": 3.56143594636, 
			 "electric_quadrupole_moment_norm": 25.1053995461, 
			 "total_energy": -768.568408747, 
			 "HOMO_LUMO_gap": 0.14328, 
			 "cosmo_polarized_energy": -13.04, 
			 "cosmo_cavitation_energy": 36.9, 
			 "cosmo_dispersion_energy": -26.81, 
			 "cosmo_repulsion_energy": 2.03, 
			 "cosmo_total_nonelectrostatic_energy": 12.12, 
			 "SMD_solvation_energy": 7.51 
		},
		"coords": [
			{
				"x": 5.62976767,
				"y": -0.8948051114,
				"z": -1.6609861657,
				"element": "C" 
			},
			{
				"x": 4.8082608481,
				"y": -1.3071704747,
				"z": -0.5775281861,
				"element": "O" 
			},
			{
				"x": 3.6598786989,
				"y": -0.620217281,
				"z": -0.3377252815,
				"element": "C" 
			},
			{
				"x": 2.8925756762,
				"y": -1.0786384507,
				"z": 0.7494834546,
				"element": "C" 
			},
			{
				"x": 1.7057716465,
				"y": -0.4508310027,
				"z": 1.0800781827,
				"element": "C" 
			},
			{
				"x": 1.2322824367,
				"y": 0.6586773668,
				"z": 0.3435166501,
				"element": "C" 
			},
			{
				"x": -0.008641576,
				"y": 1.3588229155,
				"z": 0.645934188,
				"element": "C" 
			},
			{
				"x": -0.9016659809,
				"y": 1.0957800379,
				"z": 1.6242964969,
				"element": "C" 
			},
			{
				"x": -2.1046267512,
				"y": 1.9457635418,
				"z": 1.7754633129,
				"element": "C" 
			},
			{
				"x": -2.277570021,
				"y": 2.9398381025,
				"z": 1.0698881019,
				"element": "O" 
			},
			{
				"x": -3.1236028024,
				"y": 1.5938195959,
				"z": 2.8241881869,
				"element": "C" 
			},
			{
				"x": -4.1085593305,
				"y": 2.5514450824,
				"z": 3.1168040367,
				"element": "C" 
			},
			{
				"x": -5.0877659189,
				"y": 2.2947935379,
				"z": 4.0712212488,
				"element": "C" 
			},
			{
				"x": -5.1058346898,
				"y": 1.0684368549,
				"z": 4.7427510495,
				"element": "C" 
			},
			{
				"x": -4.1405105089,
				"y": 0.1033572971,
				"z": 4.4518862899,
				"element": "C" 
			},
			{
				"x": -3.1531175719,
				"y": 0.3647301723,
				"z": 3.5012683573,
				"element": "C" 
			},
			{
				"x": 2.0152118084,
				"y": 1.0984897156,
				"z": -0.7368960176,
				"element": "C" 
			},
			{
				"x": 3.213842369,
				"y": 0.4774884073,
				"z": -1.0840394225,
				"element": "C" 
			},
			{
				"x": 5.9882286093,
				"y": 0.1333914071,
				"z": -1.526368313,
				"element": "H" 
			},
			{
				"x": 6.4823024882,
				"y": -1.5751526717,
				"z": -1.6670516584,
				"element": "H" 
			},
			{
				"x": 5.1005017017,
				"y": -0.9692844537,
				"z": -2.6191838119,
				"element": "H" 
			},
			{
				"x": 3.2576362421,
				"y": -1.9303006229,
				"z": 1.3140321329,
				"element": "H" 
			},
			{
				"x": 1.1331811286,
				"y": -0.823751612,
				"z": 1.9235557906,
				"element": "H" 
			},
			{
				"x": -0.2505163502,
				"y": 2.2042358712,
				"z": 0.0027909833,
				"element": "H" 
			},
			{
				"x": -0.7442685371,
				"y": 0.2813688786,
				"z": 2.3224207272,
				"element": "H" 
			},
			{
				"x": -4.0793334672,
				"y": 3.4909304965,
				"z": 2.5754420499,
				"element": "H" 
			},
			{
				"x": -5.8393178557,
				"y": 3.0472210628,
				"z": 4.2928285745,
				"element": "H" 
			},
			{
				"x": -5.8708959951,
				"y": 0.8653205555,
				"z": 5.4868912951,
				"element": "H" 
			},
			{
				"x": -4.1564956532,
				"y": -0.8546632225,
				"z": 4.9635879811,
				"element": "H" 
			},
			{
				"x": -2.4225956585,
				"y": -0.4056893168,
				"z": 3.2790955193,
				"element": "H" 
			},
			{
				"x": 1.6750129266,
				"y": 1.9501131985,
				"z": -1.3201397114,
				"element": "H" 
			},
			{
				"x": 3.7846644182,
				"y": 0.8514801218,
				"z": -1.9254060421,
				"element": "H" 
			}
		],
		 "valence_orbital": [ 
			{
				"type": "occ",
				"energy": -0.26187,
				"method": "rhf"
			},
			{
				"type": "occ",
				"energy": -0.25358,
				"method": "rhf"
			},
			{
				"type": "occ",
				"energy": -0.24986,
				"method": "rhf"
			},
			{
				"type": "occ",
				"energy": -0.23843,
				"method": "rhf"
			},
			{
				"type": "occ",
				"energy": -0.21354,
				"method": "rhf"
			},
			{
				"type": "unocc",
				"energy": -0.07026,
				"method": "rhf"
			},
			{
				"type": "unocc",
				"energy": -0.01706,
				"method": "rhf"
			},
			{
				"type": "unocc",
				"energy": -0.00983,
				"method": "rhf"
			},
			{
				"type": "unocc",
				"energy": -0.00129,
				"method": "rhf"
			},
			{
				"type": "unocc",
				"energy": 0.04154,
				"method": "rhf"
			}
		],
		"cosmo_sigma_profile": { 
			"-0.025": 0.0,
			"-0.024": 0.0,
			"-0.023": 0.0,
			"-0.022": 0.0,
			"-0.021": 0.0,
			"-0.02": 0.0,
			"-0.019": 0.0,
			"-0.018": 0.0,
			"-0.017": 0.0,
			"-0.016": 0.0,
			"-0.015": 0.0,
			"-0.014": 0.0,
			"-0.013": 0.0,
			"-0.012": 0.0,
			"-0.011": 0.0,
			"-0.01": 0.0,
			"-0.009": 0.427454695417,
			"-0.008": 3.05139395597,
			"-0.007": 7.52497049238,
			"-0.006": 23.0150711765,
			"-0.005": 26.4118239004,
			"-0.004": 26.8313137356,
			"-0.003": 20.6895382221,
			"-0.002": 15.4321224868,
			"-0.001": 17.199497516,
			"0.0": 16.668031711,
			"0.001": 19.0335173199,
			"0.002": 23.8358349582,
			"0.003": 29.599918134,
			"0.004": 30.9175675294,
			"0.005": 11.3668021021,
			"0.006": 2.40375500475,
			"0.007": 3.63713162679,
			"0.008": 2.86054535155,
			"0.009": 2.94851032706,
			"0.01": 2.85126288562,
			"0.011": 2.14764696223,
			"0.012": 2.88963489574,
			"0.013": 3.98578927339,
			"0.014": 0.153990689205,
			"0.015": 0.0,
			"0.016": 0.0,
			"0.017": 0.0,
			"0.018": 0.0,
			"0.019": 0.0,
			"0.02": 0.0,
			"0.021": 0.0,
			"0.022": 0.0,
			"0.023": 0.0,
			"0.024": 0.0,
			"0.025": 0.0
		}
	}
}
