{
	 "smiles": "OC(=O)C1=CC(Cl)=CC=C1", 
	 "Tm": 430.15, 
	 "num_atms": 15, 
	 "gaussian": { 
		 "optdone": 1, 
		 "sigma_profile": "yes", 
		 "theory": "DFT", 
		 "functional": "B3LYP", 
		 "basiset": "6-31G**", 
		 "properties": { 
			 "R2extent": 2323.8751, 
			 "electric_dipole_moment_norm": 4.86907335948, 
			 "electric_quadrupole_moment_norm": 14.5637656562, 
			 "total_energy": -880.405146689, 
			 "HOMO_LUMO_gap": 0.20437, 
			 "cosmo_polarized_energy": -13.78, 
			 "cosmo_cavitation_energy": 21.65, 
			 "cosmo_dispersion_energy": -16.25, 
			 "cosmo_repulsion_energy": 1.32, 
			 "cosmo_total_nonelectrostatic_energy": 6.71, 
			 "SMD_solvation_energy": 4.66 
		},
		"coords": [
			{
				"x": 0.4577639209,
				"y": 0.9454078717,
				"z": -3.5724140706,
				"element": "O" 
			},
			{
				"x": -0.2934252029,
				"y": 1.1149559304,
				"z": -2.4524401033,
				"element": "C" 
			},
			{
				"x": -1.497563839,
				"y": 1.1596335351,
				"z": -2.5303979193,
				"element": "O" 
			},
			{
				"x": 0.4510517884,
				"y": 1.239751075,
				"z": -1.1534239051,
				"element": "C" 
			},
			{
				"x": -0.2699190729,
				"y": 0.9820229377,
				"z": 0.0196930869,
				"element": "C" 
			},
			{
				"x": 0.3712136751,
				"y": 1.0862305314,
				"z": 1.2492407215,
				"element": "C" 
			},
			{
				"x": -0.5231303169,
				"y": 0.7443177686,
				"z": 2.7197860681,
				"element": "Cl" 
			},
			{
				"x": 1.7138772088,
				"y": 1.4612130696,
				"z": 1.3383215249,
				"element": "C" 
			},
			{
				"x": 2.4186246621,
				"y": 1.739438416,
				"z": 0.1675093482,
				"element": "C" 
			},
			{
				"x": 1.795009462,
				"y": 1.628973473,
				"z": -1.0752421781,
				"element": "C" 
			},
			{
				"x": 1.3768226353,
				"y": 0.7584506386,
				"z": -3.3363938602,
				"element": "H" 
			},
			{
				"x": -1.3152318591,
				"y": 0.7059939175,
				"z": -0.0516975822,
				"element": "H" 
			},
			{
				"x": 2.1916933558,
				"y": 1.539939921,
				"z": 2.3084480327,
				"element": "H" 
			},
			{
				"x": 3.4568941874,
				"y": 2.0502854402,
				"z": 0.2284062654,
				"element": "H" 
			},
			{
				"x": 2.353319395,
				"y": 1.8889854743,
				"z": -1.9706954291,
				"element": "H" 
			}
		],
		 "valence_orbital": [ 
			{
				"type": "occ",
				"energy": -0.32501,
				"method": "rhf"
			},
			{
				"type": "occ",
				"energy": -0.32439,
				"method": "rhf"
			},
			{
				"type": "occ",
				"energy": -0.28855,
				"method": "rhf"
			},
			{
				"type": "occ",
				"energy": -0.27654,
				"method": "rhf"
			},
			{
				"type": "occ",
				"energy": -0.26744,
				"method": "rhf"
			},
			{
				"type": "unocc",
				"energy": -0.06307,
				"method": "rhf"
			},
			{
				"type": "unocc",
				"energy": -0.03541,
				"method": "rhf"
			},
			{
				"type": "unocc",
				"energy": 0.01677,
				"method": "rhf"
			},
			{
				"type": "unocc",
				"energy": 0.03741,
				"method": "rhf"
			},
			{
				"type": "unocc",
				"energy": 0.05577,
				"method": "rhf"
			}
		],
		"cosmo_sigma_profile": { 
			"-0.025": 0.0,
			"-0.024": 0.0,
			"-0.023": 0.0,
			"-0.022": 0.0,
			"-0.021": 0.0,
			"-0.02": 0.0,
			"-0.019": 0.429213451262,
			"-0.018": 0.859657544905,
			"-0.017": 1.06736306558,
			"-0.016": 1.04437526154,
			"-0.015": 0.912918524254,
			"-0.014": 0.73492438906,
			"-0.013": 1.29223401723,
			"-0.012": 1.36698218105,
			"-0.011": 1.50325098829,
			"-0.01": 1.04505273592,
			"-0.009": 1.41435801834,
			"-0.008": 4.47575391334,
			"-0.007": 7.4631758422,
			"-0.006": 8.12042886034,
			"-0.005": 6.60902698834,
			"-0.004": 7.47216521625,
			"-0.003": 7.98064433617,
			"-0.002": 9.62315931176,
			"-0.001": 10.5459420399,
			"0.0": 12.8997287343,
			"0.001": 20.775593727,
			"0.002": 16.3742256433,
			"0.003": 9.51359732964,
			"0.004": 11.7702813516,
			"0.005": 5.22920789698,
			"0.006": 2.08749994187,
			"0.007": 2.66759523094,
			"0.008": 2.3634159453,
			"0.009": 3.87070273209,
			"0.01": 4.83680854688,
			"0.011": 5.51220472638,
			"0.012": 3.6612151169,
			"0.013": 0.908987830137,
			"0.014": 0.0,
			"0.015": 0.0,
			"0.016": 0.0,
			"0.017": 0.0,
			"0.018": 0.0,
			"0.019": 0.0,
			"0.02": 0.0,
			"0.021": 0.0,
			"0.022": 0.0,
			"0.023": 0.0,
			"0.024": 0.0,
			"0.025": 0.0
		}
	}
}
