{
	 "smiles": "FC(F)(F)COC(=O)NC1=NN=C(S1)C1CCCCC1", 
	 "Tm": 456.15, 
	 "num_atms": 34, 
	 "gaussian": { 
		 "optdone": 1, 
		 "sigma_profile": "yes", 
		 "theory": "DFT", 
		 "functional": "B3LYP", 
		 "basiset": "6-31G**", 
		 "properties": { 
			 "R2extent": 9422.0847, 
			 "electric_dipole_moment_norm": 3.46308645719, 
			 "electric_quadrupole_moment_norm": 10.033368262, 
			 "total_energy": -1440.02034338, 
			 "HOMO_LUMO_gap": 0.20838, 
			 "cosmo_polarized_energy": -14.07, 
			 "cosmo_cavitation_energy": 39.85, 
			 "cosmo_dispersion_energy": -27.86, 
			 "cosmo_repulsion_energy": 2.08, 
			 "cosmo_total_nonelectrostatic_energy": 14.07, 
			 "SMD_solvation_energy": 6.15 
		},
		"coords": [
			{
				"x": 2.2605697174,
				"y": -0.5188873864,
				"z": -3.9074013292,
				"element": "F" 
			},
			{
				"x": 2.2882548539,
				"y": -1.7347458879,
				"z": -4.4859231196,
				"element": "C" 
			},
			{
				"x": 2.523563997,
				"y": -1.5669969996,
				"z": -5.8026689341,
				"element": "F" 
			},
			{
				"x": 3.3151757545,
				"y": -2.4206971711,
				"z": -3.9532113618,
				"element": "F" 
			},
			{
				"x": 0.9738551266,
				"y": -2.4728634908,
				"z": -4.2986200767,
				"element": "C" 
			},
			{
				"x": 0.7259137315,
				"y": -2.6238975298,
				"z": -2.90334977,
				"element": "O" 
			},
			{
				"x": 0.8724550211,
				"y": -3.8785948503,
				"z": -2.3924933162,
				"element": "C" 
			},
			{
				"x": 1.0492511075,
				"y": -4.8846925439,
				"z": -3.0426700975,
				"element": "O" 
			},
			{
				"x": 0.7682690577,
				"y": -3.8636599848,
				"z": -1.0233750061,
				"element": "N" 
			},
			{
				"x": 0.6294075299,
				"y": -2.8143534388,
				"z": -0.1233669524,
				"element": "C" 
			},
			{
				"x": 0.5065455138,
				"y": -3.0824909064,
				"z": 1.1469731562,
				"element": "N" 
			},
			{
				"x": 0.4093853174,
				"y": -1.9533099593,
				"z": 1.9149184376,
				"element": "N" 
			},
			{
				"x": 0.4581072048,
				"y": -0.8463892603,
				"z": 1.2340921127,
				"element": "C" 
			},
			{
				"x": 0.6362842794,
				"y": -1.1072355609,
				"z": -0.5102386498,
				"element": "S" 
			},
			{
				"x": 0.3715760889,
				"y": 0.5165505069,
				"z": 1.8635255138,
				"element": "C" 
			},
			{
				"x": -0.9062079867,
				"y": 1.2836562653,
				"z": 1.4227535302,
				"element": "C" 
			},
			{
				"x": -0.7756693482,
				"y": 2.7788894235,
				"z": 1.737776248,
				"element": "C" 
			},
			{
				"x": 0.3506341105,
				"y": 3.4337465991,
				"z": 0.9002611056,
				"element": "C" 
			},
			{
				"x": 1.4684220103,
				"y": 2.4285149623,
				"z": 0.5373900773,
				"element": "C" 
			},
			{
				"x": 1.656205555,
				"y": 1.3791666617,
				"z": 1.640840799,
				"element": "C" 
			},
			{
				"x": 0.1646477,
				"y": -1.8752130403,
				"z": -4.7218273521,
				"element": "H" 
			},
			{
				"x": 1.0282186036,
				"y": -3.4483700939,
				"z": -4.7840784056,
				"element": "H" 
			},
			{
				"x": 0.8169583767,
				"y": -4.7760074892,
				"z": -0.5865164314,
				"element": "H" 
			},
			{
				"x": 0.286927144,
				"y": 0.3005980087,
				"z": 2.933848892,
				"element": "H" 
			},
			{
				"x": -1.0701946097,
				"y": 1.1547843949,
				"z": 0.3451194108,
				"element": "H" 
			},
			{
				"x": -1.7782576321,
				"y": 0.8461225605,
				"z": 1.9197236251,
				"element": "H" 
			},
			{
				"x": -0.5648025119,
				"y": 2.8960826983,
				"z": 2.8086827526,
				"element": "H" 
			},
			{
				"x": -1.7280739028,
				"y": 3.2892960247,
				"z": 1.5590024029,
				"element": "H" 
			},
			{
				"x": -0.0665427146,
				"y": 3.8574051705,
				"z": -0.0207217442,
				"element": "H" 
			},
			{
				"x": 0.775501353,
				"y": 4.2754888041,
				"z": 1.4594692852,
				"element": "H" 
			},
			{
				"x": 2.4105942396,
				"y": 2.9573831993,
				"z": 0.3572479323,
				"element": "H" 
			},
			{
				"x": 1.2257646034,
				"y": 1.9238554739,
				"z": -0.4069374404,
				"element": "H" 
			},
			{
				"x": 2.5107931604,
				"y": 0.7306129767,
				"z": 1.4228360084,
				"element": "H" 
			},
			{
				"x": 1.8949675481,
				"y": 1.8914518631,
				"z": 2.5805386974,
				"element": "H" 
			}
		],
		 "valence_orbital": [ 
			{
				"type": "occ",
				"energy": -0.30983,
				"method": "rhf"
			},
			{
				"type": "occ",
				"energy": -0.29887,
				"method": "rhf"
			},
			{
				"type": "occ",
				"energy": -0.29428,
				"method": "rhf"
			},
			{
				"type": "occ",
				"energy": -0.26572,
				"method": "rhf"
			},
			{
				"type": "occ",
				"energy": -0.2458,
				"method": "rhf"
			},
			{
				"type": "unocc",
				"energy": -0.03742,
				"method": "rhf"
			},
			{
				"type": "unocc",
				"energy": 0.00327,
				"method": "rhf"
			},
			{
				"type": "unocc",
				"energy": 0.01647,
				"method": "rhf"
			},
			{
				"type": "unocc",
				"energy": 0.04808,
				"method": "rhf"
			},
			{
				"type": "unocc",
				"energy": 0.05736,
				"method": "rhf"
			}
		],
		"cosmo_sigma_profile": { 
			"-0.025": 0.0,
			"-0.024": 0.0,
			"-0.023": 0.0,
			"-0.022": 0.0,
			"-0.021": 0.0,
			"-0.02": 0.0,
			"-0.019": 0.0,
			"-0.018": 0.0,
			"-0.017": 0.458863320401,
			"-0.016": 0.620993050974,
			"-0.015": 1.08622615168,
			"-0.014": 0.869297397015,
			"-0.013": 0.332553101185,
			"-0.012": 0.736173558379,
			"-0.011": 0.988261378521,
			"-0.01": 2.6984333145,
			"-0.009": 4.45518683012,
			"-0.008": 4.36853025748,
			"-0.007": 4.21364982937,
			"-0.006": 4.80261363415,
			"-0.005": 6.92873027765,
			"-0.004": 14.0899743622,
			"-0.003": 31.4865811897,
			"-0.002": 37.5560707806,
			"-0.001": 42.6374929617,
			"0.0": 35.0952593944,
			"0.001": 27.2032332703,
			"0.002": 34.6881922513,
			"0.003": 20.3087961748,
			"0.004": 2.42584971119,
			"0.005": 3.44951986652,
			"0.006": 3.6699254353,
			"0.007": 2.91263366587,
			"0.008": 2.43676240334,
			"0.009": 4.0556827765,
			"0.01": 5.51548764952,
			"0.011": 7.11749254745,
			"0.012": 3.86170117401,
			"0.013": 2.264674452,
			"0.014": 2.06037412163,
			"0.015": 0.762710310199,
			"0.016": 0.0095351661368,
			"0.017": 0.0,
			"0.018": 0.0,
			"0.019": 0.0,
			"0.02": 0.0,
			"0.021": 0.0,
			"0.022": 0.0,
			"0.023": 0.0,
			"0.024": 0.0,
			"0.025": 0.0
		}
	}
}
