{
	 "smiles": "CC1=C(O)N=CC=N1", 
	 "Tm": 426.15, 
	 "num_atms": 14, 
	 "gaussian": { 
		 "optdone": 1, 
		 "sigma_profile": "yes", 
		 "theory": "DFT", 
		 "functional": "B3LYP", 
		 "basiset": "6-31G**", 
		 "properties": { 
			 "R2extent": 900.7526, 
			 "electric_dipole_moment_norm": 1.03245386338, 
			 "electric_quadrupole_moment_norm": 2.9399672124, 
			 "total_energy": -378.874483846, 
			 "HOMO_LUMO_gap": 0.20017, 
			 "cosmo_polarized_energy": -7.43, 
			 "cosmo_cavitation_energy": 18.07, 
			 "cosmo_dispersion_energy": -13.75, 
			 "cosmo_repulsion_energy": 1.15, 
			 "cosmo_total_nonelectrostatic_energy": 5.47, 
			 "SMD_solvation_energy": 1.12 
		},
		"coords": [
			{
				"x": 1.9736695494,
				"y": 0.1526459683,
				"z": 1.2569476304,
				"element": "C" 
			},
			{
				"x": 0.737674588,
				"y": 0.585386699,
				"z": 0.5216832901,
				"element": "C" 
			},
			{
				"x": -0.4372956396,
				"y": -0.2087395465,
				"z": 0.5264412871,
				"element": "C" 
			},
			{
				"x": -0.4229258112,
				"y": -1.3738657564,
				"z": 1.2122310622,
				"element": "O" 
			},
			{
				"x": -1.5476592081,
				"y": 0.1337097437,
				"z": -0.1071633767,
				"element": "N" 
			},
			{
				"x": -1.5190166193,
				"y": 1.2989270332,
				"z": -0.7762748857,
				"element": "C" 
			},
			{
				"x": -0.3818226579,
				"y": 2.0939010844,
				"z": -0.7962584199,
				"element": "C" 
			},
			{
				"x": 0.7412068109,
				"y": 1.7354191406,
				"z": -0.1483494074,
				"element": "N" 
			},
			{
				"x": 2.3326853282,
				"y": -0.8146068306,
				"z": 0.8878646316,
				"element": "H" 
			},
			{
				"x": 2.7547129265,
				"y": 0.9026438265,
				"z": 1.1242756236,
				"element": "H" 
			},
			{
				"x": 1.7709507928,
				"y": 0.0247564975,
				"z": 2.326167786,
				"element": "H" 
			},
			{
				"x": -1.3031765147,
				"y": -1.7673866665,
				"z": 1.098079205,
				"element": "H" 
			},
			{
				"x": -2.4264107344,
				"y": 1.5894556759,
				"z": -1.3002780724,
				"element": "H" 
			},
			{
				"x": -0.3618928106,
				"y": 3.0356531308,
				"z": -1.338266354,
				"element": "H" 
			}
		],
		 "valence_orbital": [ 
			{
				"type": "occ",
				"energy": -0.37114,
				"method": "rhf"
			},
			{
				"type": "occ",
				"energy": -0.31352,
				"method": "rhf"
			},
			{
				"type": "occ",
				"energy": -0.30652,
				"method": "rhf"
			},
			{
				"type": "occ",
				"energy": -0.25323,
				"method": "rhf"
			},
			{
				"type": "occ",
				"energy": -0.24069,
				"method": "rhf"
			},
			{
				"type": "unocc",
				"energy": -0.04052,
				"method": "rhf"
			},
			{
				"type": "unocc",
				"energy": -0.00724,
				"method": "rhf"
			},
			{
				"type": "unocc",
				"energy": 0.08052,
				"method": "rhf"
			},
			{
				"type": "unocc",
				"energy": 0.12539,
				"method": "rhf"
			},
			{
				"type": "unocc",
				"energy": 0.12916,
				"method": "rhf"
			}
		],
		"cosmo_sigma_profile": { 
			"-0.025": 0.0,
			"-0.024": 0.0,
			"-0.023": 0.0,
			"-0.022": 0.0,
			"-0.021": 0.0,
			"-0.02": 0.0,
			"-0.019": 0.0,
			"-0.018": 0.132137086977,
			"-0.017": 0.812107059378,
			"-0.016": 0.979882084877,
			"-0.015": 0.717696703279,
			"-0.014": 0.568245993258,
			"-0.013": 0.589153781867,
			"-0.012": 0.379401860049,
			"-0.011": 0.72220208562,
			"-0.01": 0.800625198142,
			"-0.009": 0.607877368931,
			"-0.008": 0.918660350561,
			"-0.007": 3.99187071445,
			"-0.006": 6.37556498073,
			"-0.005": 7.82213552097,
			"-0.004": 7.93809571011,
			"-0.003": 9.29757440301,
			"-0.002": 12.6753233785,
			"-0.001": 16.4384191202,
			"0.0": 14.2720986405,
			"0.001": 11.1824828223,
			"0.002": 8.5766619016,
			"0.003": 5.77261580502,
			"0.004": 5.75707221561,
			"0.005": 3.17883555604,
			"0.006": 3.54518958395,
			"0.007": 4.16480104579,
			"0.008": 4.32429783115,
			"0.009": 3.15567303167,
			"0.01": 2.31056701226,
			"0.011": 1.92955649322,
			"0.012": 1.31924016329,
			"0.013": 1.54367019248,
			"0.014": 0.618719946491,
			"0.015": 0.677936000327,
			"0.016": 0.01151980337,
			"0.017": 0.0,
			"0.018": 0.0,
			"0.019": 0.0,
			"0.02": 0.0,
			"0.021": 0.0,
			"0.022": 0.0,
			"0.023": 0.0,
			"0.024": 0.0,
			"0.025": 0.0
		}
	}
}
