{
	 "smiles": "CC(=O)C12CC3CC(C1)CC(C3)(C2)C(O)=O", 
	 "Tm": 397.15, 
	 "num_atms": 34, 
	 "gaussian": { 
		 "optdone": 1, 
		 "sigma_profile": "yes", 
		 "theory": "DFT", 
		 "functional": "B3LYP", 
		 "basiset": "6-31G**", 
		 "properties": { 
			 "R2extent": 3707.0465, 
			 "electric_dipole_moment_norm": 1.13467958914, 
			 "electric_quadrupole_moment_norm": 15.7586388127, 
			 "total_energy": -731.946913482, 
			 "HOMO_LUMO_gap": 0.22187, 
			 "cosmo_polarized_energy": -13.18, 
			 "cosmo_cavitation_energy": 32.33, 
			 "cosmo_dispersion_energy": -23.4, 
			 "cosmo_repulsion_energy": 1.78, 
			 "cosmo_total_nonelectrostatic_energy": 10.71, 
			 "SMD_solvation_energy": 6.15 
		},
		"coords": [
			{
				"x": 2.0274246967,
				"y": 0.0716655486,
				"z": 2.6058632889,
				"element": "C" 
			},
			{
				"x": 0.9729431224,
				"y": 0.8847426959,
				"z": 1.8683620265,
				"element": "C" 
			},
			{
				"x": 0.5420924685,
				"y": 1.9146772709,
				"z": 2.3551103263,
				"element": "O" 
			},
			{
				"x": 0.4715608005,
				"y": 0.3826613166,
				"z": 0.5028934144,
				"element": "C" 
			},
			{
				"x": 0.1843703514,
				"y": -1.1416699617,
				"z": 0.5114817726,
				"element": "C" 
			},
			{
				"x": -0.2968537414,
				"y": -1.5944721067,
				"z": -0.8827198443,
				"element": "C" 
			},
			{
				"x": -1.5843265543,
				"y": -0.8365897346,
				"z": -1.2609040738,
				"element": "C" 
			},
			{
				"x": -1.2928122673,
				"y": 0.6764125749,
				"z": -1.2889356388,
				"element": "C" 
			},
			{
				"x": -0.814867199,
				"y": 1.1382122609,
				"z": 0.1004417916,
				"element": "C" 
			},
			{
				"x": -0.2018775303,
				"y": 0.9762548306,
				"z": -2.335458911,
				"element": "C" 
			},
			{
				"x": 1.0976183106,
				"y": 0.2091813338,
				"z": -1.9649781026,
				"element": "C" 
			},
			{
				"x": 0.8006836359,
				"y": -1.3049780353,
				"z": -1.9246000434,
				"element": "C" 
			},
			{
				"x": 1.5704637306,
				"y": 0.6771204973,
				"z": -0.5601336091,
				"element": "C" 
			},
			{
				"x": 2.1832643204,
				"y": 0.4958303905,
				"z": -2.9928782369,
				"element": "C" 
			},
			{
				"x": 2.4984353538,
				"y": 1.8153481187,
				"z": -3.0564949407,
				"element": "O" 
			},
			{
				"x": 2.7298814658,
				"y": -0.3258163246,
				"z": -3.6975800123,
				"element": "O" 
			},
			{
				"x": 2.8159718167,
				"y": -0.2959914291,
				"z": 1.9426030064,
				"element": "H" 
			},
			{
				"x": 1.5591642248,
				"y": -0.8067116316,
				"z": 3.0656795856,
				"element": "H" 
			},
			{
				"x": 2.4602087397,
				"y": 0.687620292,
				"z": 3.3954313731,
				"element": "H" 
			},
			{
				"x": -0.5797358543,
				"y": -1.3705002674,
				"z": 1.2659850294,
				"element": "H" 
			},
			{
				"x": 1.0858911728,
				"y": -1.7019004946,
				"z": 0.7869235585,
				"element": "H" 
			},
			{
				"x": -0.4945568041,
				"y": -2.6732636665,
				"z": -0.8598163128,
				"element": "H" 
			},
			{
				"x": -2.3789555512,
				"y": -1.0538730335,
				"z": -0.5356305232,
				"element": "H" 
			},
			{
				"x": -1.9449713284,
				"y": -1.1735938173,
				"z": -2.2412370822,
				"element": "H" 
			},
			{
				"x": -2.2039998937,
				"y": 1.2248346021,
				"z": -1.5582459203,
				"element": "H" 
			},
			{
				"x": -1.5933814606,
				"y": 0.9583674641,
				"z": 0.8513260621,
				"element": "H" 
			},
			{
				"x": -0.6225790141,
				"y": 2.2154689882,
				"z": 0.1094620758,
				"element": "H" 
			},
			{
				"x": -0.5373967907,
				"y": 0.6675923013,
				"z": -3.3338335583,
				"element": "H" 
			},
			{
				"x": 0.0027154346,
				"y": 2.0511075936,
				"z": -2.3795044169,
				"element": "H" 
			},
			{
				"x": 0.4883671398,
				"y": -1.6439334119,
				"z": -2.9182800902,
				"element": "H" 
			},
			{
				"x": 1.7178997896,
				"y": -1.8547619473,
				"z": -1.6846347858,
				"element": "H" 
			},
			{
				"x": 1.7903376022,
				"y": 1.7493628606,
				"z": -0.5800004605,
				"element": "H" 
			},
			{
				"x": 2.5017374684,
				"y": 0.1576844288,
				"z": -0.3017065166,
				"element": "H" 
			},
			{
				"x": 3.1887823441,
				"y": 1.8923104926,
				"z": -3.7362902317,
				"element": "H" 
			}
		],
		 "valence_orbital": [ 
			{
				"type": "occ",
				"energy": -0.31187,
				"method": "rhf"
			},
			{
				"type": "occ",
				"energy": -0.30253,
				"method": "rhf"
			},
			{
				"type": "occ",
				"energy": -0.28859,
				"method": "rhf"
			},
			{
				"type": "occ",
				"energy": -0.26916,
				"method": "rhf"
			},
			{
				"type": "occ",
				"energy": -0.23894,
				"method": "rhf"
			},
			{
				"type": "unocc",
				"energy": -0.01707,
				"method": "rhf"
			},
			{
				"type": "unocc",
				"energy": 0.01003,
				"method": "rhf"
			},
			{
				"type": "unocc",
				"energy": 0.0589,
				"method": "rhf"
			},
			{
				"type": "unocc",
				"energy": 0.07843,
				"method": "rhf"
			},
			{
				"type": "unocc",
				"energy": 0.09808,
				"method": "rhf"
			}
		],
		"cosmo_sigma_profile": { 
			"-0.025": 0.0,
			"-0.024": 0.0,
			"-0.023": 0.0,
			"-0.022": 0.0,
			"-0.021": 0.0,
			"-0.02": 0.0,
			"-0.019": 0.0,
			"-0.018": 0.545635876664,
			"-0.017": 0.991860842781,
			"-0.016": 0.830807162271,
			"-0.015": 1.01517163547,
			"-0.014": 0.700315598816,
			"-0.013": 0.0,
			"-0.012": 0.271061498358,
			"-0.011": 1.67184004297,
			"-0.01": 0.391124630369,
			"-0.009": 0.412324640118,
			"-0.008": 0.57342396768,
			"-0.007": 1.3665808805,
			"-0.006": 4.61649953887,
			"-0.005": 9.35919507449,
			"-0.004": 15.5025295477,
			"-0.003": 33.8806398461,
			"-0.002": 41.4562493123,
			"-0.001": 36.1599863524,
			"0.0": 25.8561013122,
			"0.001": 13.4882549654,
			"0.002": 5.6319957883,
			"0.003": 5.24012647734,
			"0.004": 4.8167074623,
			"0.005": 5.46043993976,
			"0.006": 4.00821472418,
			"0.007": 4.29322434456,
			"0.008": 4.23219088999,
			"0.009": 3.65307770325,
			"0.01": 4.06110222534,
			"0.011": 6.03678079373,
			"0.012": 9.003546495,
			"0.013": 3.23398327567,
			"0.014": 0.223481610244,
			"0.015": 0.0,
			"0.016": 0.0,
			"0.017": 0.0,
			"0.018": 0.0,
			"0.019": 0.0,
			"0.02": 0.0,
			"0.021": 0.0,
			"0.022": 0.0,
			"0.023": 0.0,
			"0.024": 0.0,
			"0.025": 0.0
		}
	}
}
