{
	 "smiles": "OC(=O)CCC1=NC(=NO1)C1=CC=C(F)C=C1", 
	 "Tm": 424.15, 
	 "num_atms": 26, 
	 "gaussian": { 
		 "optdone": 1, 
		 "sigma_profile": "yes", 
		 "theory": "DFT", 
		 "functional": "B3LYP", 
		 "basiset": "6-31G**", 
		 "properties": { 
			 "R2extent": 6964.7428, 
			 "electric_dipole_moment_norm": 3.21995961776, 
			 "electric_quadrupole_moment_norm": 23.9132135827, 
			 "total_energy": -859.583040096, 
			 "HOMO_LUMO_gap": 0.19401, 
			 "cosmo_polarized_energy": -18.79, 
			 "cosmo_cavitation_energy": 32.77, 
			 "cosmo_dispersion_energy": -23.68, 
			 "cosmo_repulsion_energy": 1.82, 
			 "cosmo_total_nonelectrostatic_energy": 10.91, 
			 "SMD_solvation_energy": 5.95 
		},
		"coords": [
			{
				"x": -1.6707323857,
				"y": -4.5807929271,
				"z": 3.0328117834,
				"element": "O" 
			},
			{
				"x": -1.4773404832,
				"y": -3.3455522128,
				"z": 3.563806693,
				"element": "C" 
			},
			{
				"x": -1.5464451819,
				"y": -3.1782489919,
				"z": 4.7555250705,
				"element": "O" 
			},
			{
				"x": -1.1789009993,
				"y": -2.2440980124,
				"z": 2.5557568142,
				"element": "C" 
			},
			{
				"x": -0.9753359452,
				"y": -0.8931508275,
				"z": 3.2403219462,
				"element": "C" 
			},
			{
				"x": -0.6821802127,
				"y": 0.1945327092,
				"z": 2.2618939128,
				"element": "C" 
			},
			{
				"x": -0.5879523218,
				"y": 0.1219158135,
				"z": 0.9669919751,
				"element": "N" 
			},
			{
				"x": -0.3039872969,
				"y": 1.4301079919,
				"z": 0.6117078184,
				"element": "C" 
			},
			{
				"x": -0.2282610773,
				"y": 2.257991616,
				"z": 1.6297818574,
				"element": "N" 
			},
			{
				"x": -0.4811794523,
				"y": 1.4340676817,
				"z": 2.7396263917,
				"element": "O" 
			},
			{
				"x": -0.1051444833,
				"y": 1.8547359326,
				"z": -0.7789266279,
				"element": "C" 
			},
			{
				"x": 0.182853682,
				"y": 3.1951917816,
				"z": -1.0855955489,
				"element": "C" 
			},
			{
				"x": 0.3703041936,
				"y": 3.5911358619,
				"z": -2.4054048069,
				"element": "C" 
			},
			{
				"x": 0.2670065785,
				"y": 2.635138662,
				"z": -3.4128483261,
				"element": "C" 
			},
			{
				"x": 0.4480690992,
				"y": 3.0156804437,
				"z": -4.6921882981,
				"element": "F" 
			},
			{
				"x": -0.0168542588,
				"y": 1.3014207729,
				"z": -3.1402281975,
				"element": "C" 
			},
			{
				"x": -0.2029084638,
				"y": 0.9147994272,
				"z": -1.8151715092,
				"element": "C" 
			},
			{
				"x": -1.5834743701,
				"y": -4.5538903158,
				"z": 2.0691349019,
				"element": "H" 
			},
			{
				"x": -2.0002018611,
				"y": -2.1860290564,
				"z": 1.830829473,
				"element": "H" 
			},
			{
				"x": -0.2889089581,
				"y": -2.5171981607,
				"z": 1.9754554959,
				"element": "H" 
			},
			{
				"x": -1.8628588741,
				"y": -0.6261417256,
				"z": 3.824047764,
				"element": "H" 
			},
			{
				"x": -0.159025736,
				"y": -0.9557555662,
				"z": 3.9679528362,
				"element": "H" 
			},
			{
				"x": 0.2582090989,
				"y": 3.9210846271,
				"z": -0.2830937199,
				"element": "H" 
			},
			{
				"x": 0.5934427856,
				"y": 4.6201936254,
				"z": -2.6646075078,
				"element": "H" 
			},
			{
				"x": -0.0879826791,
				"y": 0.5909704761,
				"z": -3.9564365411,
				"element": "H" 
			},
			{
				"x": -0.4254103971,
				"y": -0.1179096264,
				"z": -1.5711436501,
				"element": "H" 
			}
		],
		 "valence_orbital": [ 
			{
				"type": "occ",
				"energy": -0.30656,
				"method": "rhf"
			},
			{
				"type": "occ",
				"energy": -0.30194,
				"method": "rhf"
			},
			{
				"type": "occ",
				"energy": -0.28422,
				"method": "rhf"
			},
			{
				"type": "occ",
				"energy": -0.27231,
				"method": "rhf"
			},
			{
				"type": "occ",
				"energy": -0.24519,
				"method": "rhf"
			},
			{
				"type": "unocc",
				"energy": -0.05118,
				"method": "rhf"
			},
			{
				"type": "unocc",
				"energy": -0.02252,
				"method": "rhf"
			},
			{
				"type": "unocc",
				"energy": -0.00971,
				"method": "rhf"
			},
			{
				"type": "unocc",
				"energy": 0.00027,
				"method": "rhf"
			},
			{
				"type": "unocc",
				"energy": 0.04365,
				"method": "rhf"
			}
		],
		"cosmo_sigma_profile": { 
			"-0.025": 0.0,
			"-0.024": 0.0,
			"-0.023": 0.0,
			"-0.022": 0.0,
			"-0.021": 0.0,
			"-0.02": 0.120285388589,
			"-0.019": 1.06558204853,
			"-0.018": 0.979059190393,
			"-0.017": 0.975963801369,
			"-0.016": 1.82861897345,
			"-0.015": 0.837131345043,
			"-0.014": 0.545716766575,
			"-0.013": 0.996444371126,
			"-0.012": 1.40886390007,
			"-0.011": 1.3081507939,
			"-0.01": 1.75150652353,
			"-0.009": 1.44559471112,
			"-0.008": 6.01194870848,
			"-0.007": 16.3533442491,
			"-0.006": 17.1320889709,
			"-0.005": 12.8692814814,
			"-0.004": 12.3203816637,
			"-0.003": 10.8278373298,
			"-0.002": 10.7703112453,
			"-0.001": 14.2686296379,
			"0.0": 19.1194269412,
			"0.001": 21.2685530368,
			"0.002": 21.6894174108,
			"0.003": 18.7986275789,
			"0.004": 14.6429996899,
			"0.005": 6.42899605274,
			"0.006": 8.21382073736,
			"0.007": 8.15223334325,
			"0.008": 4.95884507479,
			"0.009": 5.3123055045,
			"0.01": 6.85171162655,
			"0.011": 6.91530547465,
			"0.012": 5.22213079989,
			"0.013": 1.11246663731,
			"0.014": 0.0,
			"0.015": 0.0,
			"0.016": 0.0,
			"0.017": 0.0,
			"0.018": 0.0,
			"0.019": 0.0,
			"0.02": 0.0,
			"0.021": 0.0,
			"0.022": 0.0,
			"0.023": 0.0,
			"0.024": 0.0,
			"0.025": 0.0
		}
	}
}
