{
	 "smiles": "CC(=O)CCC1=CNC2=CC=CC=C12", 
	 "Tm": 368.15, 
	 "num_atms": 27, 
	 "gaussian": { 
		 "optdone": 1, 
		 "sigma_profile": "yes", 
		 "theory": "DFT", 
		 "functional": "B3LYP", 
		 "basiset": "6-31G**", 
		 "properties": { 
			 "R2extent": 5244.3209, 
			 "electric_dipole_moment_norm": 3.36109564577, 
			 "electric_quadrupole_moment_norm": 20.5830330163, 
			 "total_energy": -595.098569041, 
			 "HOMO_LUMO_gap": 0.18816, 
			 "cosmo_polarized_energy": -13.54, 
			 "cosmo_cavitation_energy": 30.81, 
			 "cosmo_dispersion_energy": -21.98, 
			 "cosmo_repulsion_energy": 1.75, 
			 "cosmo_total_nonelectrostatic_energy": 10.59, 
			 "SMD_solvation_energy": 5.59 
		},
		"coords": [
			{
				"x": -4.4730703095,
				"y": -1.7477813504,
				"z": 0.6430211962,
				"element": "C" 
			},
			{
				"x": -3.1578588979,
				"y": -2.4221310209,
				"z": 0.9999668608,
				"element": "C" 
			},
			{
				"x": -3.115954929,
				"y": -3.3751259752,
				"z": 1.7560707995,
				"element": "O" 
			},
			{
				"x": -1.9012756159,
				"y": -1.8425545542,
				"z": 0.3630386882,
				"element": "C" 
			},
			{
				"x": -0.6152775887,
				"y": -2.6031135458,
				"z": 0.7254175634,
				"element": "C" 
			},
			{
				"x": 0.6136017193,
				"y": -2.0213938586,
				"z": 0.0871006686,
				"element": "C" 
			},
			{
				"x": 1.5894759344,
				"y": -1.2821488167,
				"z": 0.7073284878,
				"element": "C" 
			},
			{
				"x": 2.551198617,
				"y": -0.893497097,
				"z": -0.2098960286,
				"element": "N" 
			},
			{
				"x": 2.2148055421,
				"y": -1.3864596053,
				"z": -1.4534246605,
				"element": "C" 
			},
			{
				"x": 2.8696226603,
				"y": -1.2713655558,
				"z": -2.6844351918,
				"element": "C" 
			},
			{
				"x": 2.2849060259,
				"y": -1.8901747619,
				"z": -3.7836650786,
				"element": "C" 
			},
			{
				"x": 1.0784991377,
				"y": -2.6098917923,
				"z": -3.660480164,
				"element": "C" 
			},
			{
				"x": 0.4320800442,
				"y": -2.7211995159,
				"z": -2.435582841,
				"element": "C" 
			},
			{
				"x": 0.9945932646,
				"y": -2.1033575491,
				"z": -1.3041425703,
				"element": "C" 
			},
			{
				"x": -5.2889335218,
				"y": -2.2137247926,
				"z": 1.1974475085,
				"element": "H" 
			},
			{
				"x": -4.4346551102,
				"y": -0.6764048231,
				"z": 0.8707032328,
				"element": "H" 
			},
			{
				"x": -4.6652387792,
				"y": -1.8367991232,
				"z": -0.4327459341,
				"element": "H" 
			},
			{
				"x": -1.8198923999,
				"y": -0.7883891112,
				"z": 0.6644320358,
				"element": "H" 
			},
			{
				"x": -2.0453430634,
				"y": -1.8107847758,
				"z": -0.725727623,
				"element": "H" 
			},
			{
				"x": -0.7362415055,
				"y": -3.6533613049,
				"z": 0.4346794503,
				"element": "H" 
			},
			{
				"x": -0.5061615511,
				"y": -2.6114162065,
				"z": 1.8145974741,
				"element": "H" 
			},
			{
				"x": 1.6787314959,
				"y": -1.0002299254,
				"z": 1.7475685835,
				"element": "H" 
			},
			{
				"x": 3.381044186,
				"y": -0.3661877391,
				"z": 0.0050189753,
				"element": "H" 
			},
			{
				"x": 3.8013709876,
				"y": -0.7203779766,
				"z": -2.7794866336,
				"element": "H" 
			},
			{
				"x": 2.7678423893,
				"y": -1.8201753102,
				"z": -4.7539997299,
				"element": "H" 
			},
			{
				"x": 0.6520449826,
				"y": -3.0852483664,
				"z": -4.5390556763,
				"element": "H" 
			},
			{
				"x": -0.4929137149,
				"y": -3.2858055459,
				"z": -2.353149393,
				"element": "H" 
			}
		],
		 "valence_orbital": [ 
			{
				"type": "occ",
				"energy": -0.32323,
				"method": "rhf"
			},
			{
				"type": "occ",
				"energy": -0.2685,
				"method": "rhf"
			},
			{
				"type": "occ",
				"energy": -0.24195,
				"method": "rhf"
			},
			{
				"type": "occ",
				"energy": -0.21724,
				"method": "rhf"
			},
			{
				"type": "occ",
				"energy": -0.19689,
				"method": "rhf"
			},
			{
				"type": "unocc",
				"energy": -0.00873,
				"method": "rhf"
			},
			{
				"type": "unocc",
				"energy": -0.00578,
				"method": "rhf"
			},
			{
				"type": "unocc",
				"energy": 0.03074,
				"method": "rhf"
			},
			{
				"type": "unocc",
				"energy": 0.07064,
				"method": "rhf"
			},
			{
				"type": "unocc",
				"energy": 0.08078,
				"method": "rhf"
			}
		],
		"cosmo_sigma_profile": { 
			"-0.025": 0.0,
			"-0.024": 0.0,
			"-0.023": 0.0,
			"-0.022": 0.0,
			"-0.021": 0.0,
			"-0.02": 0.0,
			"-0.019": 0.0,
			"-0.018": 0.0,
			"-0.017": 0.0,
			"-0.016": 0.139017545419,
			"-0.015": 1.43117467514,
			"-0.014": 1.290378407,
			"-0.013": 1.45321608295,
			"-0.012": 1.09557147282,
			"-0.011": 0.837622944686,
			"-0.01": 1.30699665627,
			"-0.009": 1.59517861132,
			"-0.008": 1.74133500062,
			"-0.007": 3.91711536314,
			"-0.006": 10.7677732535,
			"-0.005": 17.8746076297,
			"-0.004": 22.9297971189,
			"-0.003": 22.7460680993,
			"-0.002": 22.6377036075,
			"-0.001": 18.0672396854,
			"0.0": 14.1350513645,
			"0.001": 10.9357263558,
			"0.002": 9.64079830752,
			"0.003": 10.3254189939,
			"0.004": 11.506434148,
			"0.005": 13.9169364805,
			"0.006": 15.4642575655,
			"0.007": 10.5828999038,
			"0.008": 3.81512303773,
			"0.009": 1.7323715633,
			"0.01": 2.40301794696,
			"0.011": 2.33060437212,
			"0.012": 4.63269095707,
			"0.013": 2.44923283102,
			"0.014": 0.175898106499,
			"0.015": 0.0,
			"0.016": 0.0,
			"0.017": 0.0,
			"0.018": 0.0,
			"0.019": 0.0,
			"0.02": 0.0,
			"0.021": 0.0,
			"0.022": 0.0,
			"0.023": 0.0,
			"0.024": 0.0,
			"0.025": 0.0
		}
	}
}
