{
	 "smiles": "NC1=C(C=C(C=C1Cl)[N+]([O-])=O)[N+]([O-])=O", 
	 "Tm": 429.15, 
	 "num_atms": 18, 
	 "gaussian": { 
		 "optdone": 1, 
		 "sigma_profile": "yes", 
		 "theory": "DFT", 
		 "functional": "B3LYP", 
		 "basiset": "6-31G**", 
		 "properties": { 
			 "R2extent": 4585.4505, 
			 "electric_dipole_moment_norm": 5.15571307677, 
			 "electric_quadrupole_moment_norm": 20.0519605635, 
			 "total_energy": -1156.19629813, 
			 "HOMO_LUMO_gap": 0.14751, 
			 "cosmo_polarized_energy": -13.51, 
			 "cosmo_cavitation_energy": 25.68, 
			 "cosmo_dispersion_energy": -19.43, 
			 "cosmo_repulsion_energy": 1.52, 
			 "cosmo_total_nonelectrostatic_energy": 7.76, 
			 "SMD_solvation_energy": 8.39 
		},
		"coords": [
			{
				"x": 2.8997296281,
				"y": 1.538336389,
				"z": -2.5076971217,
				"element": "N" 
			},
			{
				"x": 2.352182577,
				"y": 0.6796615255,
				"z": -1.6331103079,
				"element": "C" 
			},
			{
				"x": 1.3039717798,
				"y": 1.025070789,
				"z": -0.7229463113,
				"element": "C" 
			},
			{
				"x": 0.7635122367,
				"y": 0.1008881569,
				"z": 0.1698442026,
				"element": "C" 
			},
			{
				"x": 1.2497996673,
				"y": -1.1917801375,
				"z": 0.1827007625,
				"element": "C" 
			},
			{
				"x": 2.2759607511,
				"y": -1.5931522709,
				"z": -0.6841502942,
				"element": "C" 
			},
			{
				"x": 2.8046605691,
				"y": -0.6765114452,
				"z": -1.5623692912,
				"element": "C" 
			},
			{
				"x": 4.0890800428,
				"y": -1.176146584,
				"z": -2.6485047918,
				"element": "Cl" 
			},
			{
				"x": 0.6873317989,
				"y": -2.1653980699,
				"z": 1.1165352068,
				"element": "N" 
			},
			{
				"x": 1.1526923232,
				"y": -3.3058809538,
				"z": 1.0919238365,
				"element": "O" 
			},
			{
				"x": -0.2118641038,
				"y": -1.7846848153,
				"z": 1.8647657439,
				"element": "O" 
			},
			{
				"x": 0.7429834583,
				"y": 2.3713150635,
				"z": -0.6822371469,
				"element": "N" 
			},
			{
				"x": 1.1944573773,
				"y": 3.2296931511,
				"z": -1.4603289555,
				"element": "O" 
			},
			{
				"x": -0.1546489919,
				"y": 2.6002133445,
				"z": 0.1220480057,
				"element": "O" 
			},
			{
				"x": 3.6358522493,
				"y": 1.224124008,
				"z": -3.1198104617,
				"element": "H" 
			},
			{
				"x": 2.5498178184,
				"y": 2.4870061629,
				"z": -2.5238286,
				"element": "H" 
			},
			{
				"x": -0.0281951677,
				"y": 0.4020786287,
				"z": 0.8417575484,
				"element": "H" 
			},
			{
				"x": 2.6367759861,
				"y": -2.6131329425,
				"z": -0.6512920243,
				"element": "H" 
			}
		],
		 "valence_orbital": [ 
			{
				"type": "occ",
				"energy": -0.3179,
				"method": "rhf"
			},
			{
				"type": "occ",
				"energy": -0.31319,
				"method": "rhf"
			},
			{
				"type": "occ",
				"energy": -0.30097,
				"method": "rhf"
			},
			{
				"type": "occ",
				"energy": -0.30083,
				"method": "rhf"
			},
			{
				"type": "occ",
				"energy": -0.2586,
				"method": "rhf"
			},
			{
				"type": "unocc",
				"energy": -0.11109,
				"method": "rhf"
			},
			{
				"type": "unocc",
				"energy": -0.09756,
				"method": "rhf"
			},
			{
				"type": "unocc",
				"energy": -0.03505,
				"method": "rhf"
			},
			{
				"type": "unocc",
				"energy": -0.00959,
				"method": "rhf"
			},
			{
				"type": "unocc",
				"energy": -0.00314,
				"method": "rhf"
			}
		],
		"cosmo_sigma_profile": { 
			"-0.025": 0.0,
			"-0.024": 0.0,
			"-0.023": 0.0,
			"-0.022": 0.0,
			"-0.021": 0.0,
			"-0.02": 0.0,
			"-0.019": 0.0,
			"-0.018": 0.0,
			"-0.017": 0.0,
			"-0.016": 0.0,
			"-0.015": 0.325337106101,
			"-0.014": 0.772825977797,
			"-0.013": 1.24266083637,
			"-0.012": 1.93958264734,
			"-0.011": 2.07424367873,
			"-0.01": 1.73131207773,
			"-0.009": 2.26218127377,
			"-0.008": 3.24979995174,
			"-0.007": 5.74773763478,
			"-0.006": 7.67196125393,
			"-0.005": 9.16863490031,
			"-0.004": 16.0318892669,
			"-0.003": 23.6664411593,
			"-0.002": 22.6519459371,
			"-0.001": 13.9092248468,
			"0.0": 10.294161993,
			"0.001": 9.53123613779,
			"0.002": 9.76706584352,
			"0.003": 10.0605838993,
			"0.004": 5.9872506485,
			"0.005": 5.59665364216,
			"0.006": 7.55076191371,
			"0.007": 14.1863252122,
			"0.008": 11.5452310801,
			"0.009": 8.52892309683,
			"0.01": 3.79719142174,
			"0.011": 0.0789973865464,
			"0.012": 0.0,
			"0.013": 0.0,
			"0.014": 0.0,
			"0.015": 0.0,
			"0.016": 0.0,
			"0.017": 0.0,
			"0.018": 0.0,
			"0.019": 0.0,
			"0.02": 0.0,
			"0.021": 0.0,
			"0.022": 0.0,
			"0.023": 0.0,
			"0.024": 0.0,
			"0.025": 0.0
		}
	}
}
