{
	 "smiles": "NC1=NC=C(Br)C=C1", 
	 "Tm": 410.65, 
	 "num_atms": 13, 
	 "gaussian": { 
		 "optdone": 1, 
		 "sigma_profile": "yes", 
		 "theory": "DFT", 
		 "functional": "B3LYP", 
		 "basiset": "6-31G**", 
		 "properties": { 
			 "R2extent": 2429.7907, 
			 "electric_dipole_moment_norm": 3.20051050459, 
			 "electric_quadrupole_moment_norm": 8.5891323159, 
			 "total_energy": -2874.45535449, 
			 "HOMO_LUMO_gap": 0.18842, 
			 "cosmo_polarized_energy": -9.06, 
			 "cosmo_cavitation_energy": 19.55, 
			 "cosmo_dispersion_energy": -15.27, 
			 "cosmo_repulsion_energy": 1.27, 
			 "cosmo_total_nonelectrostatic_energy": 5.55, 
			 "SMD_solvation_energy": 0.91 
		},
		"coords": [
			{
				"x": 0.9357246865,
				"y": 2.4657461128,
				"z": 1.6178441701,
				"element": "N" 
			},
			{
				"x": 0.2765088423,
				"y": 1.2748279408,
				"z": 1.3893342059,
				"element": "C" 
			},
			{
				"x": 0.6801607657,
				"y": 0.2238605317,
				"z": 2.1204994432,
				"element": "N" 
			},
			{
				"x": 0.1095913278,
				"y": -0.9639220878,
				"z": 1.8988763841,
				"element": "C" 
			},
			{
				"x": -0.8906679384,
				"y": -1.157837627,
				"z": 0.951269262,
				"element": "C" 
			},
			{
				"x": -1.6614230695,
				"y": -2.8860869245,
				"z": 0.7044257161,
				"element": "Br" 
			},
			{
				"x": -1.3211146939,
				"y": -0.0673930123,
				"z": 0.1914733234,
				"element": "C" 
			},
			{
				"x": -0.7313078637,
				"y": 1.1681120443,
				"z": 0.4069865303,
				"element": "C" 
			},
			{
				"x": 1.4673157831,
				"y": 2.487329143,
				"z": 2.4765146872,
				"element": "H" 
			},
			{
				"x": 0.4503819546,
				"y": 3.3204683407,
				"z": 1.3917855406,
				"element": "H" 
			},
			{
				"x": 0.4609037184,
				"y": -1.7945263021,
				"z": 2.5062084322,
				"element": "H" 
			},
			{
				"x": -2.1001654495,
				"y": -0.1878091377,
				"z": -0.5534483808,
				"element": "H" 
			},
			{
				"x": -1.0338080633,
				"y": 2.0351309782,
				"z": -0.1725693142,
				"element": "H" 
			}
		],
		 "valence_orbital": [ 
			{
				"type": "occ",
				"energy": -0.29446,
				"method": "rhf"
			},
			{
				"type": "occ",
				"energy": -0.28968,
				"method": "rhf"
			},
			{
				"type": "occ",
				"energy": -0.28237,
				"method": "rhf"
			},
			{
				"type": "occ",
				"energy": -0.26361,
				"method": "rhf"
			},
			{
				"type": "occ",
				"energy": -0.21489,
				"method": "rhf"
			},
			{
				"type": "unocc",
				"energy": -0.02647,
				"method": "rhf"
			},
			{
				"type": "unocc",
				"energy": -0.00129,
				"method": "rhf"
			},
			{
				"type": "unocc",
				"energy": 0.0107,
				"method": "rhf"
			},
			{
				"type": "unocc",
				"energy": 0.08174,
				"method": "rhf"
			},
			{
				"type": "unocc",
				"energy": 0.11291,
				"method": "rhf"
			}
		],
		"cosmo_sigma_profile": { 
			"-0.025": 0.0,
			"-0.024": 0.0,
			"-0.023": 0.0,
			"-0.022": 0.0,
			"-0.021": 0.0,
			"-0.02": 0.0,
			"-0.019": 0.0,
			"-0.018": 0.0,
			"-0.017": 0.0,
			"-0.016": 0.0,
			"-0.015": 0.0,
			"-0.014": 0.360546473886,
			"-0.013": 1.77867560347,
			"-0.012": 2.86667534023,
			"-0.011": 2.22665335739,
			"-0.01": 2.8386884958,
			"-0.009": 2.53548363888,
			"-0.008": 3.65184335415,
			"-0.007": 5.8372038041,
			"-0.006": 6.84768487479,
			"-0.005": 6.66850487158,
			"-0.004": 6.60245930359,
			"-0.003": 7.40333395042,
			"-0.002": 6.12977114837,
			"-0.001": 7.93748284678,
			"0.0": 9.21689599003,
			"0.001": 12.9230573553,
			"0.002": 20.4390544917,
			"0.003": 14.0564645493,
			"0.004": 12.101118438,
			"0.005": 11.6348528249,
			"0.006": 2.85289450556,
			"0.007": 2.13954276181,
			"0.008": 2.27429438201,
			"0.009": 1.66238514407,
			"0.01": 1.18131375871,
			"0.011": 1.82529196702,
			"0.012": 1.25172207389,
			"0.013": 0.968413970969,
			"0.014": 0.947195360214,
			"0.015": 0.462176122005,
			"0.016": 0.0339098970971,
			"0.017": 0.0,
			"0.018": 0.0,
			"0.019": 0.0,
			"0.02": 0.0,
			"0.021": 0.0,
			"0.022": 0.0,
			"0.023": 0.0,
			"0.024": 0.0,
			"0.025": 0.0
		}
	}
}
