{
	 "smiles": "CC1=NN(CN2CCCCC2)C(=O)C1=N/NC1=C(Cl)C=C(Cl)C=C1", 
	 "Tm": 396.15, 
	 "num_atms": 43, 
	 "gaussian": { 
		 "optdone": 1, 
		 "sigma_profile": "yes", 
		 "theory": "DFT", 
		 "functional": "B3LYP", 
		 "basiset": "6-31G**", 
		 "properties": { 
			 "R2extent": 17876.716, 
			 "electric_dipole_moment_norm": 1.50869020345, 
			 "electric_quadrupole_moment_norm": 4.2685822049, 
			 "total_energy": -1890.4749769, 
			 "HOMO_LUMO_gap": 0.11852, 
			 "cosmo_polarized_energy": -12.55, 
			 "cosmo_cavitation_energy": 49.39, 
			 "cosmo_dispersion_energy": -34.94, 
			 "cosmo_repulsion_energy": 2.67, 
			 "cosmo_total_nonelectrostatic_energy": 17.11, 
			 "SMD_solvation_energy": 3.75 
		},
		"coords": [
			{
				"x": 3.4232773031,
				"y": -1.0624356475,
				"z": 0.1401248655,
				"element": "C" 
			},
			{
				"x": 2.1315630491,
				"y": -0.374329732,
				"z": -0.1535862772,
				"element": "C" 
			},
			{
				"x": 1.4320073057,
				"y": -0.6294221646,
				"z": -1.2257793711,
				"element": "N" 
			},
			{
				"x": 0.2971244326,
				"y": 0.1886910303,
				"z": -1.2021630234,
				"element": "N" 
			},
			{
				"x": -0.7436496944,
				"y": 0.0421098069,
				"z": -2.2079242788,
				"element": "C" 
			},
			{
				"x": -1.7185159143,
				"y": -0.9740834483,
				"z": -1.8599681792,
				"element": "N" 
			},
			{
				"x": -3.1032365484,
				"y": -0.677839357,
				"z": -2.2373954119,
				"element": "C" 
			},
			{
				"x": -3.4209962728,
				"y": -0.9508065158,
				"z": -3.7191728689,
				"element": "C" 
			},
			{
				"x": -3.0355695096,
				"y": -2.3917337765,
				"z": -4.0906456151,
				"element": "C" 
			},
			{
				"x": -1.5775989973,
				"y": -2.6843005639,
				"z": -3.7006937389,
				"element": "C" 
			},
			{
				"x": -1.3287878645,
				"y": -2.3448253898,
				"z": -2.218787462,
				"element": "C" 
			},
			{
				"x": 0.2366478466,
				"y": 0.9795498595,
				"z": -0.0881520162,
				"element": "C" 
			},
			{
				"x": -0.643065056,
				"y": 1.7979106636,
				"z": 0.2282686867,
				"element": "O" 
			},
			{
				"x": 1.4731833203,
				"y": 0.6410204202,
				"z": 0.6462969467,
				"element": "C" 
			},
			{
				"x": 1.8786159025,
				"y": 1.1407916363,
				"z": 1.7863926938,
				"element": "N" 
			},
			{
				"x": 1.1048728755,
				"y": 2.0648722076,
				"z": 2.325897983,
				"element": "N" 
			},
			{
				"x": 1.3511474149,
				"y": 2.6564214056,
				"z": 3.5696870782,
				"element": "C" 
			},
			{
				"x": 2.615205035,
				"y": 2.8345948905,
				"z": 4.1678349599,
				"element": "C" 
			},
			{
				"x": 4.1110587875,
				"y": 2.368053301,
				"z": 3.3911466395,
				"element": "Cl" 
			},
			{
				"x": 2.7227457355,
				"y": 3.4545197223,
				"z": 5.4146388965,
				"element": "C" 
			},
			{
				"x": 1.5843580621,
				"y": 3.923461581,
				"z": 6.0631270789,
				"element": "C" 
			},
			{
				"x": 1.7437705648,
				"y": 4.7031768413,
				"z": 7.6248133482,
				"element": "Cl" 
			},
			{
				"x": 0.3252729946,
				"y": 3.7869790656,
				"z": 5.4792669447,
				"element": "C" 
			},
			{
				"x": 0.2238586974,
				"y": 3.154071191,
				"z": 4.2485512435,
				"element": "C" 
			},
			{
				"x": 3.3740079696,
				"y": -1.5941120827,
				"z": 1.096469749,
				"element": "H" 
			},
			{
				"x": 4.242693925,
				"y": -0.3397208775,
				"z": 0.2171823135,
				"element": "H" 
			},
			{
				"x": 3.6514065605,
				"y": -1.7764817185,
				"z": -0.6536654135,
				"element": "H" 
			},
			{
				"x": -1.2479202986,
				"y": 1.0098362132,
				"z": -2.2643161638,
				"element": "H" 
			},
			{
				"x": -0.21858605,
				"y": -0.1367128538,
				"z": -3.1570629051,
				"element": "H" 
			},
			{
				"x": -3.7547043784,
				"y": -1.308304503,
				"z": -1.6147058294,
				"element": "H" 
			},
			{
				"x": -3.3232750212,
				"y": 0.3611723277,
				"z": -1.9694303009,
				"element": "H" 
			},
			{
				"x": -4.4866680044,
				"y": -0.7727847839,
				"z": -3.9105592083,
				"element": "H" 
			},
			{
				"x": -2.8649218483,
				"y": -0.2443360489,
				"z": -4.3513470607,
				"element": "H" 
			},
			{
				"x": -3.6977183716,
				"y": -3.0879863578,
				"z": -3.5553423334,
				"element": "H" 
			},
			{
				"x": -3.1936346116,
				"y": -2.5715876545,
				"z": -5.16046428,
				"element": "H" 
			},
			{
				"x": -0.9025565029,
				"y": -2.0916840724,
				"z": -4.3334747109,
				"element": "H" 
			},
			{
				"x": -1.3297832313,
				"y": -3.7369383728,
				"z": -3.8846915801,
				"element": "H" 
			},
			{
				"x": -1.9123361375,
				"y": -3.0317845786,
				"z": -1.5894379182,
				"element": "H" 
			},
			{
				"x": -0.2764659242,
				"y": -2.4841454982,
				"z": -1.9550850731,
				"element": "H" 
			},
			{
				"x": 0.2240626796,
				"y": 2.2808188026,
				"z": 1.8363501217,
				"element": "H" 
			},
			{
				"x": 3.7013701449,
				"y": 3.5814692223,
				"z": 5.8608323161,
				"element": "H" 
			},
			{
				"x": -0.5592394281,
				"y": 4.1573358399,
				"z": 5.9840454827,
				"element": "H" 
			},
			{
				"x": -0.7533209414,
				"y": 3.0206999696,
				"z": 3.793223672,
				"element": "H" 
			}
		],
		 "valence_orbital": [ 
			{
				"type": "occ",
				"energy": -0.26874,
				"method": "rhf"
			},
			{
				"type": "occ",
				"energy": -0.2513,
				"method": "rhf"
			},
			{
				"type": "occ",
				"energy": -0.23992,
				"method": "rhf"
			},
			{
				"type": "occ",
				"energy": -0.21716,
				"method": "rhf"
			},
			{
				"type": "occ",
				"energy": -0.20563,
				"method": "rhf"
			},
			{
				"type": "unocc",
				"energy": -0.08711,
				"method": "rhf"
			},
			{
				"type": "unocc",
				"energy": -0.03392,
				"method": "rhf"
			},
			{
				"type": "unocc",
				"energy": -0.01525,
				"method": "rhf"
			},
			{
				"type": "unocc",
				"energy": 0.00283,
				"method": "rhf"
			},
			{
				"type": "unocc",
				"energy": 0.03468,
				"method": "rhf"
			}
		],
		"cosmo_sigma_profile": { 
			"-0.025": 0.0,
			"-0.024": 0.0,
			"-0.023": 0.0,
			"-0.022": 0.0,
			"-0.021": 0.0,
			"-0.02": 0.0,
			"-0.019": 0.0,
			"-0.018": 0.0,
			"-0.017": 0.0,
			"-0.016": 0.0,
			"-0.015": 0.0,
			"-0.014": 0.0,
			"-0.013": 0.00270628264007,
			"-0.012": 0.351175070902,
			"-0.011": 1.1403756606,
			"-0.01": 1.45449179536,
			"-0.009": 3.12208680205,
			"-0.008": 5.07793811208,
			"-0.007": 5.71826892019,
			"-0.006": 7.95950007704,
			"-0.005": 14.0903985027,
			"-0.004": 19.1207874906,
			"-0.003": 33.0756778896,
			"-0.002": 47.0798463166,
			"-0.001": 54.371390946,
			"0.0": 51.8541270937,
			"0.001": 44.2981794387,
			"0.002": 22.6179716718,
			"0.003": 21.4486722157,
			"0.004": 20.6431012619,
			"0.005": 9.661384548,
			"0.006": 5.58330912858,
			"0.007": 4.89130579211,
			"0.008": 4.19311047033,
			"0.009": 4.05754625074,
			"0.01": 3.48276068723,
			"0.011": 3.1081672439,
			"0.012": 3.78475684887,
			"0.013": 2.83094851074,
			"0.014": 0.461484587673,
			"0.015": 0.000696213743764,
			"0.016": 0.0,
			"0.017": 0.0,
			"0.018": 0.0,
			"0.019": 0.0,
			"0.02": 0.0,
			"0.021": 0.0,
			"0.022": 0.0,
			"0.023": 0.0,
			"0.024": 0.0,
			"0.025": 0.0
		}
	}
}
