{
	 "smiles": "CCOC1=NC=CC(=C1)C(O)=O", 
	 "Tm": 445.15, 
	 "num_atms": 21, 
	 "gaussian": { 
		 "optdone": 1, 
		 "sigma_profile": "yes", 
		 "theory": "DFT", 
		 "functional": "B3LYP", 
		 "basiset": "6-31G**", 
		 "properties": { 
			 "R2extent": 3568.5913, 
			 "electric_dipole_moment_norm": 1.50942699393, 
			 "electric_quadrupole_moment_norm": 10.1624940015, 
			 "total_energy": -590.715655638, 
			 "HOMO_LUMO_gap": 0.17497, 
			 "cosmo_polarized_energy": -9.79, 
			 "cosmo_cavitation_energy": 25.87, 
			 "cosmo_dispersion_energy": -19.21, 
			 "cosmo_repulsion_energy": 1.56, 
			 "cosmo_total_nonelectrostatic_energy": 8.22, 
			 "SMD_solvation_energy": 5.37 
		},
		"coords": [
			{
				"x": 0.8959637123,
				"y": 2.6872952803,
				"z": 1.6014681792,
				"element": "C" 
			},
			{
				"x": 1.3976427617,
				"y": 1.6940585158,
				"z": 0.5695735452,
				"element": "C" 
			},
			{
				"x": 0.2386061099,
				"y": 1.1174288971,
				"z": -0.0617480413,
				"element": "O" 
			},
			{
				"x": 0.4436609805,
				"y": 0.1956293851,
				"z": -1.0247907564,
				"element": "C" 
			},
			{
				"x": 1.6841759735,
				"y": -0.1478680463,
				"z": -1.3576911691,
				"element": "N" 
			},
			{
				"x": 1.8370355852,
				"y": -1.0713725077,
				"z": -2.3236556872,
				"element": "C" 
			},
			{
				"x": 0.7809800023,
				"y": -1.6787080362,
				"z": -2.9847095835,
				"element": "C" 
			},
			{
				"x": -0.5233436533,
				"y": -1.3032004985,
				"z": -2.6196336042,
				"element": "C" 
			},
			{
				"x": -0.7072319098,
				"y": -0.3519459772,
				"z": -1.6252238686,
				"element": "C" 
			},
			{
				"x": -1.6699467866,
				"y": -1.9496671915,
				"z": -3.3238090517,
				"element": "C" 
			},
			{
				"x": -2.87425401,
				"y": -1.5101476518,
				"z": -2.8889600485,
				"element": "O" 
			},
			{
				"x": -1.5570636393,
				"y": -2.7845594153,
				"z": -4.1974687593,
				"element": "O" 
			},
			{
				"x": 0.3013324597,
				"y": 3.47448684,
				"z": 1.1289997195,
				"element": "H" 
			},
			{
				"x": 1.7445055771,
				"y": 3.1544069665,
				"z": 2.1109005559,
				"element": "H" 
			},
			{
				"x": 0.2741410398,
				"y": 2.190389607,
				"z": 2.3517406002,
				"element": "H" 
			},
			{
				"x": 2.0229246232,
				"y": 2.1744996703,
				"z": -0.1907625894,
				"element": "H" 
			},
			{
				"x": 1.9958910601,
				"y": 0.897576652,
				"z": 1.025231034,
				"element": "H" 
			},
			{
				"x": 2.8647385743,
				"y": -1.328838343,
				"z": -2.5710073848,
				"element": "H" 
			},
			{
				"x": 0.936599549,
				"y": -2.4197502982,
				"z": -3.759115184,
				"element": "H" 
			},
			{
				"x": -1.691545232,
				"y": -0.0307193635,
				"z": -1.3099860601,
				"element": "H" 
			},
			{
				"x": -3.5382127775,
				"y": -1.991994485,
				"z": -3.4093518461,
				"element": "H" 
			}
		],
		 "valence_orbital": [ 
			{
				"type": "occ",
				"energy": -0.32224,
				"method": "rhf"
			},
			{
				"type": "occ",
				"energy": -0.29299,
				"method": "rhf"
			},
			{
				"type": "occ",
				"energy": -0.28677,
				"method": "rhf"
			},
			{
				"type": "occ",
				"energy": -0.27073,
				"method": "rhf"
			},
			{
				"type": "occ",
				"energy": -0.23703,
				"method": "rhf"
			},
			{
				"type": "unocc",
				"energy": -0.06206,
				"method": "rhf"
			},
			{
				"type": "unocc",
				"energy": -0.00672,
				"method": "rhf"
			},
			{
				"type": "unocc",
				"energy": 0.0525,
				"method": "rhf"
			},
			{
				"type": "unocc",
				"energy": 0.07228,
				"method": "rhf"
			},
			{
				"type": "unocc",
				"energy": 0.10481,
				"method": "rhf"
			}
		],
		"cosmo_sigma_profile": { 
			"-0.025": 0.0,
			"-0.024": 0.0,
			"-0.023": 0.0,
			"-0.022": 0.0,
			"-0.021": 0.0,
			"-0.02": 0.0,
			"-0.019": 0.359122696198,
			"-0.018": 1.10882163646,
			"-0.017": 0.920106776414,
			"-0.016": 1.02425725293,
			"-0.015": 0.0,
			"-0.014": 0.107509054085,
			"-0.013": 1.21979054185,
			"-0.012": 1.34229838677,
			"-0.011": 0.9938637523,
			"-0.01": 0.0352572527964,
			"-0.009": 0.256592398986,
			"-0.008": 1.12471051367,
			"-0.007": 3.89194016675,
			"-0.006": 5.28774062516,
			"-0.005": 8.59527860971,
			"-0.004": 15.2216642241,
			"-0.003": 18.7209956477,
			"-0.002": 18.5847632303,
			"-0.001": 16.3559230594,
			"0.0": 26.8784671971,
			"0.001": 19.8015805031,
			"0.002": 13.36652206,
			"0.003": 7.16706711283,
			"0.004": 7.39126303163,
			"0.005": 6.57861085388,
			"0.006": 4.0650968381,
			"0.007": 4.83124678765,
			"0.008": 5.20428734912,
			"0.009": 3.65760378435,
			"0.01": 3.8136962896,
			"0.011": 5.61744377485,
			"0.012": 1.78013933705,
			"0.013": 0.340254476122,
			"0.014": 0.0,
			"0.015": 0.0,
			"0.016": 0.0,
			"0.017": 0.0,
			"0.018": 0.0,
			"0.019": 0.0,
			"0.02": 0.0,
			"0.021": 0.0,
			"0.022": 0.0,
			"0.023": 0.0,
			"0.024": 0.0,
			"0.025": 0.0
		}
	}
}
