{
	 "smiles": "OC1O[C@H](COCC2=CC=CC=C2)[C@@H](OCC2=CC=CC=C2)[C@H](OCC2=CC=CC=C2)[C@H]1OCC1=CC=CC=C1", 
	 "Tm": 425.65, 
	 "num_atms": 76, 
	 "gaussian": { 
		 "optdone": 1, 
		 "sigma_profile": "yes", 
		 "theory": "DFT", 
		 "functional": "B3LYP", 
		 "basiset": "6-31G**", 
		 "properties": { 
			 "R2extent": 22944.4758, 
			 "electric_dipole_moment_norm": 2.68109604826, 
			 "electric_quadrupole_moment_norm": 10.321279442, 
			 "total_energy": -1768.59822987, 
			 "HOMO_LUMO_gap": 0.2182, 
			 "cosmo_polarized_energy": -20.17, 
			 "cosmo_cavitation_energy": 76.51, 
			 "cosmo_dispersion_energy": -46.1, 
			 "cosmo_repulsion_energy": 3.46, 
			 "cosmo_total_nonelectrostatic_energy": 33.87, 
			 "SMD_solvation_energy": 11.21 
		},
		"coords": [
			{
				"x": 2.7715493299,
				"y": -2.1306419895,
				"z": -0.2854894359,
				"element": "O" 
			},
			{
				"x": 2.6575720821,
				"y": -0.8355627397,
				"z": -0.8378433698,
				"element": "C" 
			},
			{
				"x": 3.2325058727,
				"y": 0.1686746034,
				"z": -0.024092847,
				"element": "O" 
			},
			{
				"x": 2.4773668697,
				"y": 0.6393551908,
				"z": 1.1027888332,
				"element": "C" 
			},
			{
				"x": 2.5468442463,
				"y": -0.324896868,
				"z": 2.289927343,
				"element": "C" 
			},
			{
				"x": 3.8582817674,
				"y": -0.2492549528,
				"z": 2.8387697485,
				"element": "O" 
			},
			{
				"x": 4.263792121,
				"y": -1.3948379154,
				"z": 3.5668435807,
				"element": "C" 
			},
			{
				"x": 4.8224666229,
				"y": -2.5002561649,
				"z": 2.6861905878,
				"element": "C" 
			},
			{
				"x": 5.529440723,
				"y": -2.1752695351,
				"z": 1.5188059122,
				"element": "C" 
			},
			{
				"x": 6.0931224094,
				"y": -3.1817321695,
				"z": 0.7306645541,
				"element": "C" 
			},
			{
				"x": 5.9600667623,
				"y": -4.5237090961,
				"z": 1.1012412002,
				"element": "C" 
			},
			{
				"x": 5.2584837061,
				"y": -4.8517849633,
				"z": 2.2616178581,
				"element": "C" 
			},
			{
				"x": 4.6908044907,
				"y": -3.8446738623,
				"z": 3.0463182867,
				"element": "C" 
			},
			{
				"x": 1.0254619472,
				"y": 1.0485836171,
				"z": 0.7200289511,
				"element": "C" 
			},
			{
				"x": 0.7992231309,
				"y": 2.4356561234,
				"z": 0.956003118,
				"element": "O" 
			},
			{
				"x": 0.5780241777,
				"y": 2.8086327726,
				"z": 2.3091882385,
				"element": "C" 
			},
			{
				"x": -0.7316087175,
				"y": 2.3153901883,
				"z": 2.9007268798,
				"element": "C" 
			},
			{
				"x": -1.8561546987,
				"y": 2.1155436073,
				"z": 2.0900778832,
				"element": "C" 
			},
			{
				"x": -3.0686721546,
				"y": 1.7184508835,
				"z": 2.6554244,
				"element": "C" 
			},
			{
				"x": -3.1751654503,
				"y": 1.5257384909,
				"z": 4.0346802276,
				"element": "C" 
			},
			{
				"x": -2.0570098415,
				"y": 1.7209556123,
				"z": 4.8477203289,
				"element": "C" 
			},
			{
				"x": -0.8409176958,
				"y": 2.1065828517,
				"z": 4.2809666689,
				"element": "C" 
			},
			{
				"x": 0.7442382743,
				"y": 0.8161043257,
				"z": -0.7666187862,
				"element": "C" 
			},
			{
				"x": -0.6468899655,
				"y": 1.0040930426,
				"z": -0.974561375,
				"element": "O" 
			},
			{
				"x": -0.9915273994,
				"y": 1.6825447611,
				"z": -2.1758215687,
				"element": "C" 
			},
			{
				"x": -2.4962684507,
				"y": 1.740994137,
				"z": -2.3084141488,
				"element": "C" 
			},
			{
				"x": -3.3129003516,
				"y": 0.7603107717,
				"z": -1.7313923477,
				"element": "C" 
			},
			{
				"x": -4.6983651878,
				"y": 0.8073088978,
				"z": -1.8999754745,
				"element": "C" 
			},
			{
				"x": -5.2842829462,
				"y": 1.8279660351,
				"z": -2.6510166263,
				"element": "C" 
			},
			{
				"x": -4.4751819907,
				"y": 2.8080915788,
				"z": -3.2295469633,
				"element": "C" 
			},
			{
				"x": -3.0916901105,
				"y": 2.7660572825,
				"z": -3.0538392524,
				"element": "C" 
			},
			{
				"x": 1.1602066696,
				"y": -0.6056915003,
				"z": -1.1445093731,
				"element": "C" 
			},
			{
				"x": 0.887039527,
				"y": -0.797444085,
				"z": -2.5265183701,
				"element": "O" 
			},
			{
				"x": 0.8432286938,
				"y": -2.1688850527,
				"z": -2.9461189457,
				"element": "C" 
			},
			{
				"x": -0.3414043705,
				"y": -2.9359854278,
				"z": -2.3965829374,
				"element": "C" 
			},
			{
				"x": -1.6465870291,
				"y": -2.5702793791,
				"z": -2.7557018186,
				"element": "C" 
			},
			{
				"x": -2.7421017378,
				"y": -3.2763776814,
				"z": -2.2615908197,
				"element": "C" 
			},
			{
				"x": -2.5465670074,
				"y": -4.3598590483,
				"z": -1.3995878533,
				"element": "C" 
			},
			{
				"x": -1.2524072341,
				"y": -4.7259655881,
				"z": -1.0296054767,
				"element": "C" 
			},
			{
				"x": -0.1561625583,
				"y": -4.0135842681,
				"z": -1.5230762878,
				"element": "C" 
			},
			{
				"x": 3.7034426493,
				"y": -2.2887500881,
				"z": -0.0642703216,
				"element": "H" 
			},
			{
				"x": 3.2212064374,
				"y": -0.7559949705,
				"z": -1.777125783,
				"element": "H" 
			},
			{
				"x": 2.9998719377,
				"y": 1.5553939176,
				"z": 1.3949318161,
				"element": "H" 
			},
			{
				"x": 2.3068999877,
				"y": -1.3417053391,
				"z": 1.9591952106,
				"element": "H" 
			},
			{
				"x": 1.8090213203,
				"y": -0.0250641973,
				"z": 3.0519647221,
				"element": "H" 
			},
			{
				"x": 5.0470864896,
				"y": -1.0440115988,
				"z": 4.250848726,
				"element": "H" 
			},
			{
				"x": 3.4451714534,
				"y": -1.784578423,
				"z": 4.1911595333,
				"element": "H" 
			},
			{
				"x": 5.613733839,
				"y": -1.1314744746,
				"z": 1.2326343573,
				"element": "H" 
			},
			{
				"x": 6.643725088,
				"y": -2.9185740426,
				"z": -0.1687254931,
				"element": "H" 
			},
			{
				"x": 6.3991267275,
				"y": -5.3055702922,
				"z": 0.4884139085,
				"element": "H" 
			},
			{
				"x": 5.1436373334,
				"y": -5.8921510532,
				"z": 2.5525612751,
				"element": "H" 
			},
			{
				"x": 4.1375148675,
				"y": -4.1089010487,
				"z": 3.9448288185,
				"element": "H" 
			},
			{
				"x": 0.2947866568,
				"y": 0.4534398646,
				"z": 1.2870067513,
				"element": "H" 
			},
			{
				"x": 1.4167915209,
				"y": 2.4994759324,
				"z": 2.9529082811,
				"element": "H" 
			},
			{
				"x": 0.5859633514,
				"y": 3.9050669182,
				"z": 2.2921875408,
				"element": "H" 
			},
			{
				"x": -1.7645223174,
				"y": 2.2421550696,
				"z": 1.0165888588,
				"element": "H" 
			},
			{
				"x": -3.9303778609,
				"y": 1.5587300037,
				"z": 2.0132266774,
				"element": "H" 
			},
			{
				"x": -4.1209402004,
				"y": 1.219116979,
				"z": 4.4726965038,
				"element": "H" 
			},
			{
				"x": -2.1283797453,
				"y": 1.5651059096,
				"z": 5.9207206506,
				"element": "H" 
			},
			{
				"x": 0.0297205708,
				"y": 2.250506158,
				"z": 4.917850801,
				"element": "H" 
			},
			{
				"x": 1.3264464585,
				"y": 1.542583733,
				"z": -1.3492383424,
				"element": "H" 
			},
			{
				"x": -0.5770466156,
				"y": 2.7028372409,
				"z": -2.1664651456,
				"element": "H" 
			},
			{
				"x": -0.5559393873,
				"y": 1.1552751887,
				"z": -3.0357930087,
				"element": "H" 
			},
			{
				"x": -2.8536876882,
				"y": -0.0296529158,
				"z": -1.1479401514,
				"element": "H" 
			},
			{
				"x": -5.3213479689,
				"y": 0.0432399027,
				"z": -1.4423885281,
				"element": "H" 
			},
			{
				"x": -6.362339346,
				"y": 1.8630046252,
				"z": -2.7806984715,
				"element": "H" 
			},
			{
				"x": -4.921487932,
				"y": 3.6113296009,
				"z": -3.8093570878,
				"element": "H" 
			},
			{
				"x": -2.4684709837,
				"y": 3.5399501426,
				"z": -3.4966087271,
				"element": "H" 
			},
			{
				"x": 0.568259792,
				"y": -1.3075052608,
				"z": -0.5412603007,
				"element": "H" 
			},
			{
				"x": 0.7874344028,
				"y": -2.1127810768,
				"z": -4.0379685629,
				"element": "H" 
			},
			{
				"x": 1.7752560976,
				"y": -2.6828545273,
				"z": -2.679330321,
				"element": "H" 
			},
			{
				"x": -1.8017008338,
				"y": -1.7255902054,
				"z": -3.4213891179,
				"element": "H" 
			},
			{
				"x": -3.7477429948,
				"y": -2.9840244212,
				"z": -2.5505515177,
				"element": "H" 
			},
			{
				"x": -3.4002746072,
				"y": -4.9125951119,
				"z": -1.0174147105,
				"element": "H" 
			},
			{
				"x": -1.0943240768,
				"y": -5.5612934392,
				"z": -0.3531035899,
				"element": "H" 
			},
			{
				"x": 0.8519310507,
				"y": -4.2832811862,
				"z": -1.219575774,
				"element": "H" 
			}
		],
		 "valence_orbital": [ 
			{
				"type": "occ",
				"energy": -0.24237,
				"method": "rhf"
			},
			{
				"type": "occ",
				"energy": -0.24197,
				"method": "rhf"
			},
			{
				"type": "occ",
				"energy": -0.24047,
				"method": "rhf"
			},
			{
				"type": "occ",
				"energy": -0.23633,
				"method": "rhf"
			},
			{
				"type": "occ",
				"energy": -0.23044,
				"method": "rhf"
			},
			{
				"type": "unocc",
				"energy": -0.01224,
				"method": "rhf"
			},
			{
				"type": "unocc",
				"energy": -0.00964,
				"method": "rhf"
			},
			{
				"type": "unocc",
				"energy": -0.00528,
				"method": "rhf"
			},
			{
				"type": "unocc",
				"energy": 0.00224,
				"method": "rhf"
			},
			{
				"type": "unocc",
				"energy": 0.00304,
				"method": "rhf"
			}
		],
		"cosmo_sigma_profile": { 
			"-0.025": 0.0,
			"-0.024": 0.0,
			"-0.023": 0.0,
			"-0.022": 0.0,
			"-0.021": 0.0,
			"-0.02": 0.0,
			"-0.019": 0.0,
			"-0.018": 0.0,
			"-0.017": 0.0,
			"-0.016": 0.0,
			"-0.015": 0.0,
			"-0.014": 0.0,
			"-0.013": 0.0,
			"-0.012": 0.0,
			"-0.011": 0.0,
			"-0.01": 0.0,
			"-0.009": 0.190104281989,
			"-0.008": 1.02458903392,
			"-0.007": 2.20268384764,
			"-0.006": 19.68274871,
			"-0.005": 58.085306463,
			"-0.004": 65.9717768985,
			"-0.003": 69.5785342228,
			"-0.002": 47.2301747487,
			"-0.001": 40.8600129675,
			"0.0": 37.5578240577,
			"0.001": 42.9321241684,
			"0.002": 42.828340197,
			"0.003": 37.5953841839,
			"0.004": 40.3942255686,
			"0.005": 38.7691900884,
			"0.006": 30.3288809835,
			"0.007": 10.6519985925,
			"0.008": 5.04960278703,
			"0.009": 5.01954432839,
			"0.01": 3.47792984507,
			"0.011": 3.45688879896,
			"0.012": 2.10713717069,
			"0.013": 0.304936194711,
			"0.014": 0.0,
			"0.015": 0.0,
			"0.016": 0.0,
			"0.017": 0.0,
			"0.018": 0.0,
			"0.019": 0.0,
			"0.02": 0.0,
			"0.021": 0.0,
			"0.022": 0.0,
			"0.023": 0.0,
			"0.024": 0.0,
			"0.025": 0.0
		}
	}
}
