{
	 "smiles": "NCCCNCCCN", 
	 "Tm": 259.15, 
	 "num_atms": 26, 
	 "gaussian": { 
		 "optdone": 1, 
		 "sigma_profile": "yes", 
		 "theory": "DFT", 
		 "functional": "B3LYP", 
		 "basiset": "6-31G**", 
		 "properties": { 
			 "R2extent": 2407.3904, 
			 "electric_dipole_moment_norm": 3.42053236938, 
			 "electric_quadrupole_moment_norm": 5.53410758027, 
			 "total_energy": -403.124353842, 
			 "HOMO_LUMO_gap": 0.27064, 
			 "cosmo_polarized_energy": -11.52, 
			 "cosmo_cavitation_energy": 27.19, 
			 "cosmo_dispersion_energy": -19.4, 
			 "cosmo_repulsion_energy": 1.66, 
			 "cosmo_total_nonelectrostatic_energy": 9.45, 
			 "SMD_solvation_energy": 0.07 
		},
		"coords": [
			{
				"x": 3.8897916655,
				"y": -0.5341487514,
				"z": -0.6552324258,
				"element": "N" 
			},
			{
				"x": 2.6400902275,
				"y": -0.4913657282,
				"z": 0.1110421739,
				"element": "C" 
			},
			{
				"x": 2.1871258606,
				"y": 0.9572667263,
				"z": 0.3147915597,
				"element": "C" 
			},
			{
				"x": 0.9211486487,
				"y": 1.1016687687,
				"z": 1.1664019365,
				"element": "C" 
			},
			{
				"x": -0.2472514532,
				"y": 0.5261843691,
				"z": 0.5080856216,
				"element": "N" 
			},
			{
				"x": -1.534189288,
				"y": 0.8055684315,
				"z": 1.1373162498,
				"element": "C" 
			},
			{
				"x": -1.7331513001,
				"y": 0.3088312999,
				"z": 2.5874053892,
				"element": "C" 
			},
			{
				"x": -1.4066749323,
				"y": -1.1748683588,
				"z": 2.7934655527,
				"element": "C" 
			},
			{
				"x": -2.102634107,
				"y": -2.0161462287,
				"z": 1.8114838182,
				"element": "N" 
			},
			{
				"x": 4.6407540144,
				"y": -0.1195170297,
				"z": -0.1070704373,
				"element": "H" 
			},
			{
				"x": 4.1627585999,
				"y": -1.4987894521,
				"z": -0.8262850782,
				"element": "H" 
			},
			{
				"x": 1.8833481487,
				"y": -1.0331042852,
				"z": -0.4695230002,
				"element": "H" 
			},
			{
				"x": 2.7004790423,
				"y": -0.9905846806,
				"z": 1.0977826454,
				"element": "H" 
			},
			{
				"x": 2.9988139333,
				"y": 1.5125662817,
				"z": 0.8067942485,
				"element": "H" 
			},
			{
				"x": 2.0260955546,
				"y": 1.4190890948,
				"z": -0.6647661079,
				"element": "H" 
			},
			{
				"x": 0.7177868334,
				"y": 2.1703605965,
				"z": 1.315334272,
				"element": "H" 
			},
			{
				"x": 1.1194282391,
				"y": 0.6867597773,
				"z": 2.1747328092,
				"element": "H" 
			},
			{
				"x": -0.1501091858,
				"y": -0.4795224006,
				"z": 0.4007739199,
				"element": "H" 
			},
			{
				"x": -2.3033356467,
				"y": 0.3551867313,
				"z": 0.5025372864,
				"element": "H" 
			},
			{
				"x": -1.6974160933,
				"y": 1.8916784292,
				"z": 1.1135642878,
				"element": "H" 
			},
			{
				"x": -1.1198033862,
				"y": 0.8938424332,
				"z": 3.2842515219,
				"element": "H" 
			},
			{
				"x": -2.7781111034,
				"y": 0.4980377335,
				"z": 2.8741268611,
				"element": "H" 
			},
			{
				"x": -0.3299644583,
				"y": -1.3297646685,
				"z": 2.6498209262,
				"element": "H" 
			},
			{
				"x": -1.6185393609,
				"y": -1.4406735635,
				"z": 3.8440814974,
				"element": "H" 
			},
			{
				"x": -1.8748437681,
				"y": -2.9951736966,
				"z": 1.9655733144,
				"element": "H" 
			},
			{
				"x": -3.1093966845,
				"y": -1.9352818291,
				"z": 1.9400111576,
				"element": "H" 
			}
		],
		 "valence_orbital": [ 
			{
				"type": "occ",
				"energy": -0.32056,
				"method": "rhf"
			},
			{
				"type": "occ",
				"energy": -0.31681,
				"method": "rhf"
			},
			{
				"type": "occ",
				"energy": -0.2378,
				"method": "rhf"
			},
			{
				"type": "occ",
				"energy": -0.2266,
				"method": "rhf"
			},
			{
				"type": "occ",
				"energy": -0.20213,
				"method": "rhf"
			},
			{
				"type": "unocc",
				"energy": 0.06851,
				"method": "rhf"
			},
			{
				"type": "unocc",
				"energy": 0.08921,
				"method": "rhf"
			},
			{
				"type": "unocc",
				"energy": 0.09975,
				"method": "rhf"
			},
			{
				"type": "unocc",
				"energy": 0.11254,
				"method": "rhf"
			},
			{
				"type": "unocc",
				"energy": 0.12951,
				"method": "rhf"
			}
		],
		"cosmo_sigma_profile": { 
			"-0.025": 0.0,
			"-0.024": 0.0,
			"-0.023": 0.0,
			"-0.022": 0.0,
			"-0.021": 0.0,
			"-0.02": 0.0,
			"-0.019": 0.0,
			"-0.018": 0.0,
			"-0.017": 0.0,
			"-0.016": 0.0,
			"-0.015": 0.0,
			"-0.014": 0.0,
			"-0.013": 0.0,
			"-0.012": 0.0,
			"-0.011": 0.0,
			"-0.01": 0.768618096489,
			"-0.009": 4.59978869138,
			"-0.008": 5.55571016453,
			"-0.007": 5.03905203488,
			"-0.006": 7.25649626768,
			"-0.005": 6.89725983277,
			"-0.004": 8.51994045874,
			"-0.003": 12.0717010056,
			"-0.002": 28.6812663403,
			"-0.001": 39.9874382957,
			"0.0": 28.9257254616,
			"0.001": 15.730599983,
			"0.002": 6.06971701931,
			"0.003": 3.92317467854,
			"0.004": 3.81680220141,
			"0.005": 3.0273898411,
			"0.006": 3.2371129751,
			"0.007": 2.51441483086,
			"0.008": 2.49142961279,
			"0.009": 2.26421829269,
			"0.01": 1.63247960831,
			"0.011": 1.61340809866,
			"0.012": 2.48457652659,
			"0.013": 1.63986205016,
			"0.014": 2.02257768319,
			"0.015": 1.51658569401,
			"0.016": 1.55935029185,
			"0.017": 1.10417288418,
			"0.018": 1.11544436983,
			"0.019": 0.966859501081,
			"0.02": 0.319040338565,
			"0.021": 0.069377782094,
			"0.022": 0.0,
			"0.023": 0.0,
			"0.024": 0.0,
			"0.025": 0.0
		}
	}
}
