{
	 "smiles": "ClC1=CC(Cl)=C(Cl)C=C1N=C=S", 
	 "Tm": 318.15, 
	 "num_atms": 14, 
	 "gaussian": { 
		 "optdone": 1, 
		 "sigma_profile": "yes", 
		 "theory": "DFT", 
		 "functional": "B3LYP", 
		 "basiset": "6-31G**", 
		 "properties": { 
			 "R2extent": 4983.8268, 
			 "electric_dipole_moment_norm": 1.50612888227, 
			 "electric_quadrupole_moment_norm": 9.15954654063, 
			 "total_energy": -2101.45021318, 
			 "HOMO_LUMO_gap": 0.17152, 
			 "cosmo_polarized_energy": -5.19, 
			 "cosmo_cavitation_energy": 27.71, 
			 "cosmo_dispersion_energy": -20.78, 
			 "cosmo_repulsion_energy": 1.64, 
			 "cosmo_total_nonelectrostatic_energy": 8.56, 
			 "SMD_solvation_energy": 4.53 
		},
		"coords": [
			{
				"x": 2.1397587248,
				"y": 2.6824321494,
				"z": -0.0717071739,
				"element": "Cl" 
			},
			{
				"x": 1.739590165,
				"y": 0.9910736163,
				"z": 0.022145335,
				"element": "C" 
			},
			{
				"x": 2.3630930724,
				"y": 0.1883866557,
				"z": 0.9704210585,
				"element": "C" 
			},
			{
				"x": 2.0563730856,
				"y": -1.1706862156,
				"z": 1.0623797661,
				"element": "C" 
			},
			{
				"x": 2.8671398905,
				"y": -2.128511459,
				"z": 2.2678913414,
				"element": "Cl" 
			},
			{
				"x": 1.11050983,
				"y": -1.730804095,
				"z": 0.1898048568,
				"element": "C" 
			},
			{
				"x": 0.6915096909,
				"y": -3.4197583833,
				"z": 0.2617610896,
				"element": "Cl" 
			},
			{
				"x": 0.4852846904,
				"y": -0.9289026944,
				"z": -0.7601820899,
				"element": "C" 
			},
			{
				"x": 0.7865083515,
				"y": 0.438569401,
				"z": -0.8601145943,
				"element": "C" 
			},
			{
				"x": 0.1638480151,
				"y": 1.2037498359,
				"z": -1.7973534611,
				"element": "N" 
			},
			{
				"x": -0.3910690666,
				"y": 1.8843868481,
				"z": -2.5995455086,
				"element": "C" 
			},
			{
				"x": -1.132848141,
				"y": 2.7832014933,
				"z": -3.6771334806,
				"element": "S" 
			},
			{
				"x": 3.0931963986,
				"y": 0.6195481424,
				"z": 1.6442194037,
				"element": "H" 
			},
			{
				"x": -0.2448947073,
				"y": -1.3583852949,
				"z": -1.4350865428,
				"element": "H" 
			}
		],
		 "valence_orbital": [ 
			{
				"type": "occ",
				"energy": -0.32893,
				"method": "rhf"
			},
			{
				"type": "occ",
				"energy": -0.301,
				"method": "rhf"
			},
			{
				"type": "occ",
				"energy": -0.27572,
				"method": "rhf"
			},
			{
				"type": "occ",
				"energy": -0.26773,
				"method": "rhf"
			},
			{
				"type": "occ",
				"energy": -0.2449,
				"method": "rhf"
			},
			{
				"type": "unocc",
				"energy": -0.07338,
				"method": "rhf"
			},
			{
				"type": "unocc",
				"energy": -0.05132,
				"method": "rhf"
			},
			{
				"type": "unocc",
				"energy": -0.02542,
				"method": "rhf"
			},
			{
				"type": "unocc",
				"energy": -0.012,
				"method": "rhf"
			},
			{
				"type": "unocc",
				"energy": 0.0163,
				"method": "rhf"
			}
		],
		"cosmo_sigma_profile": { 
			"-0.025": 0.0,
			"-0.024": 0.0,
			"-0.023": 0.0,
			"-0.022": 0.0,
			"-0.021": 0.0,
			"-0.02": 0.0,
			"-0.019": 0.0,
			"-0.018": 0.0,
			"-0.017": 0.0,
			"-0.016": 0.0,
			"-0.015": 0.0,
			"-0.014": 0.0,
			"-0.013": 0.0,
			"-0.012": 0.0,
			"-0.011": 0.0,
			"-0.01": 1.32976401653,
			"-0.009": 3.83496386561,
			"-0.008": 2.86751589384,
			"-0.007": 3.04818173664,
			"-0.006": 4.41512760556,
			"-0.005": 3.85249049946,
			"-0.004": 7.24332453935,
			"-0.003": 16.9677823087,
			"-0.002": 27.3899007295,
			"-0.001": 34.1319432851,
			"0.0": 22.7490013889,
			"0.001": 21.7126210016,
			"0.002": 22.5680712392,
			"0.003": 30.8651244144,
			"0.004": 16.6132160856,
			"0.005": 14.1556767408,
			"0.006": 1.37014992924,
			"0.007": 0.0,
			"0.008": 0.0,
			"0.009": 0.0,
			"0.01": 0.0,
			"0.011": 0.0,
			"0.012": 0.0,
			"0.013": 0.0,
			"0.014": 0.0,
			"0.015": 0.0,
			"0.016": 0.0,
			"0.017": 0.0,
			"0.018": 0.0,
			"0.019": 0.0,
			"0.02": 0.0,
			"0.021": 0.0,
			"0.022": 0.0,
			"0.023": 0.0,
			"0.024": 0.0,
			"0.025": 0.0
		}
	}
}
