{
	 "smiles": "CC(C)=C1OC(=O)N(C1=O)C1=CC(OC2CCCC2)=C(Cl)C=C1F", 
	 "Tm": 377.15, 
	 "num_atms": 41, 
	 "gaussian": { 
		 "optdone": 1, 
		 "sigma_profile": "yes", 
		 "theory": "DFT", 
		 "functional": "B3LYP", 
		 "basiset": "6-31G**", 
		 "properties": { 
			 "R2extent": 11042.7947, 
			 "electric_dipole_moment_norm": 2.9518880348, 
			 "electric_quadrupole_moment_norm": 32.5869627179, 
			 "total_energy": -1573.7428785, 
			 "HOMO_LUMO_gap": 0.17674, 
			 "cosmo_polarized_energy": -13.38, 
			 "cosmo_cavitation_energy": 46.57, 
			 "cosmo_dispersion_energy": -32.24, 
			 "cosmo_repulsion_energy": 2.47, 
			 "cosmo_total_nonelectrostatic_energy": 16.8, 
			 "SMD_solvation_energy": 9.83 
		},
		"coords": [
			{
				"x": 0.2215944677,
				"y": -1.0825286559,
				"z": -5.8391457649,
				"element": "C" 
			},
			{
				"x": -0.1695003371,
				"y": 0.2905026643,
				"z": -5.36750654,
				"element": "C" 
			},
			{
				"x": -0.1004589931,
				"y": 1.4059746905,
				"z": -6.3729463671,
				"element": "C" 
			},
			{
				"x": -0.5668408439,
				"y": 0.5192277136,
				"z": -4.1035880671,
				"element": "C" 
			},
			{
				"x": -0.9289139953,
				"y": 1.7982470764,
				"z": -3.6677181124,
				"element": "O" 
			},
			{
				"x": -1.2946220852,
				"y": 1.7612162221,
				"z": -2.3495550392,
				"element": "C" 
			},
			{
				"x": -1.6216836645,
				"y": 2.7213209847,
				"z": -1.7099789965,
				"element": "O" 
			},
			{
				"x": -1.1924951436,
				"y": 0.42900666,
				"z": -1.9244300987,
				"element": "N" 
			},
			{
				"x": -0.7207232454,
				"y": -0.4038226918,
				"z": -2.9563586026,
				"element": "C" 
			},
			{
				"x": -0.5045039589,
				"y": -1.5959575431,
				"z": -2.8612695267,
				"element": "O" 
			},
			{
				"x": -1.5252342969,
				"y": -0.0010454091,
				"z": -0.6134279136,
				"element": "C" 
			},
			{
				"x": -0.601521343,
				"y": -0.6870792445,
				"z": 0.1749832791,
				"element": "C" 
			},
			{
				"x": -0.9285645401,
				"y": -1.1275655436,
				"z": 1.4613804954,
				"element": "C" 
			},
			{
				"x": -0.019396336,
				"y": -1.8538411397,
				"z": 2.1720431269,
				"element": "O" 
			},
			{
				"x": 0.7044928448,
				"y": -1.1674094379,
				"z": 3.2368578905,
				"element": "C" 
			},
			{
				"x": 1.480809089,
				"y": -2.2529617414,
				"z": 3.9794704214,
				"element": "C" 
			},
			{
				"x": 2.6792352863,
				"y": -2.5545297731,
				"z": 3.0546104246,
				"element": "C" 
			},
			{
				"x": 2.9829219715,
				"y": -1.2134844554,
				"z": 2.3225741895,
				"element": "C" 
			},
			{
				"x": 1.8062275305,
				"y": -0.2617325474,
				"z": 2.6716776191,
				"element": "C" 
			},
			{
				"x": -2.2228332201,
				"y": -0.8639708566,
				"z": 1.9477509434,
				"element": "C" 
			},
			{
				"x": -2.7022868972,
				"y": -1.4397316903,
				"z": 3.5283177655,
				"element": "Cl" 
			},
			{
				"x": -3.1565686085,
				"y": -0.1770308777,
				"z": 1.1735472322,
				"element": "C" 
			},
			{
				"x": -2.8024827051,
				"y": 0.2389415824,
				"z": -0.1016459704,
				"element": "C" 
			},
			{
				"x": -3.71289206,
				"y": 0.8651698921,
				"z": -0.8629168428,
				"element": "F" 
			},
			{
				"x": 1.252014862,
				"y": -1.0659513652,
				"z": -6.2163258689,
				"element": "H" 
			},
			{
				"x": 0.142417319,
				"y": -1.831722723,
				"z": -5.0529636746,
				"element": "H" 
			},
			{
				"x": -0.4138836551,
				"y": -1.3797132221,
				"z": -6.6829664345,
				"element": "H" 
			},
			{
				"x": -0.4004032297,
				"y": 2.3661879487,
				"z": -5.9530969374,
				"element": "H" 
			},
			{
				"x": 0.9202345561,
				"y": 1.4953444577,
				"z": -6.7651351618,
				"element": "H" 
			},
			{
				"x": -0.7458869276,
				"y": 1.1785408618,
				"z": -7.2303991999,
				"element": "H" 
			},
			{
				"x": 0.3842057905,
				"y": -0.9106477331,
				"z": -0.2138178018,
				"element": "H" 
			},
			{
				"x": -0.0153207903,
				"y": -0.6345307085,
				"z": 3.865744064,
				"element": "H" 
			},
			{
				"x": 1.8213202677,
				"y": -1.8390839618,
				"z": 4.936217047,
				"element": "H" 
			},
			{
				"x": 0.8573821082,
				"y": -3.1251213929,
				"z": 4.1925314353,
				"element": "H" 
			},
			{
				"x": 2.3958167047,
				"y": -3.3225744586,
				"z": 2.3295011981,
				"element": "H" 
			},
			{
				"x": 3.5422629384,
				"y": -2.9347006343,
				"z": 3.6087819891,
				"element": "H" 
			},
			{
				"x": 3.9369000269,
				"y": -0.7832871185,
				"z": 2.642002705,
				"element": "H" 
			},
			{
				"x": 3.0574314961,
				"y": -1.3715882047,
				"z": 1.2426821119,
				"element": "H" 
			},
			{
				"x": 2.0998602285,
				"y": 0.4444400835,
				"z": 3.4573232722,
				"element": "H" 
			},
			{
				"x": 1.4596191616,
				"y": 0.3376876675,
				"z": 1.8250596947,
				"element": "H" 
			},
			{
				"x": -4.156529773,
				"y": 0.0170046249,
				"z": 1.5415360159,
				"element": "H" 
			}
		],
		 "valence_orbital": [ 
			{
				"type": "occ",
				"energy": -0.2819,
				"method": "rhf"
			},
			{
				"type": "occ",
				"energy": -0.28049,
				"method": "rhf"
			},
			{
				"type": "occ",
				"energy": -0.26474,
				"method": "rhf"
			},
			{
				"type": "occ",
				"energy": -0.25603,
				"method": "rhf"
			},
			{
				"type": "occ",
				"energy": -0.24207,
				"method": "rhf"
			},
			{
				"type": "unocc",
				"energy": -0.06533,
				"method": "rhf"
			},
			{
				"type": "unocc",
				"energy": -0.03493,
				"method": "rhf"
			},
			{
				"type": "unocc",
				"energy": -0.01448,
				"method": "rhf"
			},
			{
				"type": "unocc",
				"energy": 0.01747,
				"method": "rhf"
			},
			{
				"type": "unocc",
				"energy": 0.03684,
				"method": "rhf"
			}
		],
		"cosmo_sigma_profile": { 
			"-0.025": 0.0,
			"-0.024": 0.0,
			"-0.023": 0.0,
			"-0.022": 0.0,
			"-0.021": 0.0,
			"-0.02": 0.0,
			"-0.019": 0.0,
			"-0.018": 0.0,
			"-0.017": 0.0,
			"-0.016": 0.0,
			"-0.015": 0.0,
			"-0.014": 0.0,
			"-0.013": 0.0,
			"-0.012": 0.0,
			"-0.011": 0.0,
			"-0.01": 0.155359016356,
			"-0.009": 1.74897299783,
			"-0.008": 2.83623804947,
			"-0.007": 5.70035995619,
			"-0.006": 9.75108086042,
			"-0.005": 18.0280053435,
			"-0.004": 23.6196166784,
			"-0.003": 37.1374168842,
			"-0.002": 43.4990362725,
			"-0.001": 52.3467069944,
			"0.0": 46.1227642087,
			"0.001": 30.2176338605,
			"0.002": 18.7071740819,
			"0.003": 18.0009201129,
			"0.004": 14.2965463162,
			"0.005": 7.71901184445,
			"0.006": 7.83758550254,
			"0.007": 6.04604438209,
			"0.008": 6.30350866809,
			"0.009": 5.39491593049,
			"0.01": 9.26455410061,
			"0.011": 6.4516018028,
			"0.012": 0.510275875445,
			"0.013": 0.0,
			"0.014": 0.0,
			"0.015": 0.0,
			"0.016": 0.0,
			"0.017": 0.0,
			"0.018": 0.0,
			"0.019": 0.0,
			"0.02": 0.0,
			"0.021": 0.0,
			"0.022": 0.0,
			"0.023": 0.0,
			"0.024": 0.0,
			"0.025": 0.0
		}
	}
}
