{
	 "smiles": "FC(F)(F)C1=NC(=NC(Cl)=C1)C1=CC=NC=C1", 
	 "Tm": 432.15, 
	 "num_atms": 22, 
	 "gaussian": { 
		 "optdone": 1, 
		 "sigma_profile": "yes", 
		 "theory": "DFT", 
		 "functional": "B3LYP", 
		 "basiset": "6-31G**", 
		 "properties": { 
			 "R2extent": 5470.5083, 
			 "electric_dipole_moment_norm": 1.87803534844, 
			 "electric_quadrupole_moment_norm": 6.64948160461, 
			 "total_energy": -1308.04205473, 
			 "HOMO_LUMO_gap": 0.17135, 
			 "cosmo_polarized_energy": -8.2, 
			 "cosmo_cavitation_energy": 31.21, 
			 "cosmo_dispersion_energy": -22.32, 
			 "cosmo_repulsion_energy": 1.67, 
			 "cosmo_total_nonelectrostatic_energy": 10.55, 
			 "SMD_solvation_energy": 2.91 
		},
		"coords": [
			{
				"x": -0.0172694204,
				"y": 1.3548692813,
				"z": -2.9519569313,
				"element": "F" 
			},
			{
				"x": 0.0870443054,
				"y": 0.0255830417,
				"z": -2.9595116957,
				"element": "C" 
			},
			{
				"x": -0.7225747584,
				"y": -0.4620441424,
				"z": -3.9241717997,
				"element": "F" 
			},
			{
				"x": 1.3526495861,
				"y": -0.3027521673,
				"z": -3.297559833,
				"element": "F" 
			},
			{
				"x": -0.2706915477,
				"y": -0.5973418063,
				"z": -1.6163679381,
				"element": "C" 
			},
			{
				"x": -0.629938453,
				"y": 0.2219569506,
				"z": -0.6333581325,
				"element": "N" 
			},
			{
				"x": -0.9412085414,
				"y": -0.3477038496,
				"z": 0.5427284311,
				"element": "C" 
			},
			{
				"x": -0.9129740334,
				"y": -1.6714001927,
				"z": 0.7846156599,
				"element": "N" 
			},
			{
				"x": -0.5521773301,
				"y": -2.4555537536,
				"z": -0.212565577,
				"element": "C" 
			},
			{
				"x": -0.5138901253,
				"y": -4.1762846547,
				"z": 0.0965095051,
				"element": "Cl" 
			},
			{
				"x": -0.2065063712,
				"y": -1.9819847916,
				"z": -1.4782412201,
				"element": "C" 
			},
			{
				"x": -1.3451217877,
				"y": 0.5441412983,
				"z": 1.6558906722,
				"element": "C" 
			},
			{
				"x": -1.3982173496,
				"y": 1.9327586119,
				"z": 1.4801810539,
				"element": "C" 
			},
			{
				"x": -1.7843300832,
				"y": 2.7257079385,
				"z": 2.5595183706,
				"element": "C" 
			},
			{
				"x": -2.110684848,
				"y": 2.2402170318,
				"z": 3.764599418,
				"element": "N" 
			},
			{
				"x": -2.0561201476,
				"y": 0.9108174296,
				"z": 3.9204047807,
				"element": "C" 
			},
			{
				"x": -1.6840539953,
				"y": 0.0242196471,
				"z": 2.9113568561,
				"element": "C" 
			},
			{
				"x": 0.0875548534,
				"y": -2.6385010598,
				"z": -2.2864130006,
				"element": "H" 
			},
			{
				"x": -1.1431071361,
				"y": 2.3721486042,
				"z": 0.5231189663,
				"element": "H" 
			},
			{
				"x": -1.833715509,
				"y": 3.8073254533,
				"z": 2.4493513992,
				"element": "H" 
			},
			{
				"x": -2.324199463,
				"y": 0.5325021644,
				"z": 4.9050228201,
				"element": "H" 
			},
			{
				"x": -1.6551678444,
				"y": -1.0447810347,
				"z": 3.0863481948,
				"element": "H" 
			}
		],
		 "valence_orbital": [ 
			{
				"type": "occ",
				"energy": -0.31703,
				"method": "rhf"
			},
			{
				"type": "occ",
				"energy": -0.29217,
				"method": "rhf"
			},
			{
				"type": "occ",
				"energy": -0.27894,
				"method": "rhf"
			},
			{
				"type": "occ",
				"energy": -0.27117,
				"method": "rhf"
			},
			{
				"type": "occ",
				"energy": -0.26284,
				"method": "rhf"
			},
			{
				"type": "unocc",
				"energy": -0.09149,
				"method": "rhf"
			},
			{
				"type": "unocc",
				"energy": -0.07751,
				"method": "rhf"
			},
			{
				"type": "unocc",
				"energy": -0.01772,
				"method": "rhf"
			},
			{
				"type": "unocc",
				"energy": -0.00701,
				"method": "rhf"
			},
			{
				"type": "unocc",
				"energy": 0.00824,
				"method": "rhf"
			}
		],
		"cosmo_sigma_profile": { 
			"-0.025": 0.0,
			"-0.024": 0.0,
			"-0.023": 0.0,
			"-0.022": 0.0,
			"-0.021": 0.0,
			"-0.02": 0.0,
			"-0.019": 0.0,
			"-0.018": 0.0,
			"-0.017": 0.0,
			"-0.016": 0.0,
			"-0.015": 0.0,
			"-0.014": 0.0,
			"-0.013": 0.0,
			"-0.012": 0.0,
			"-0.011": 0.655626288068,
			"-0.01": 1.80587276947,
			"-0.009": 0.984978529027,
			"-0.008": 2.23918482146,
			"-0.007": 5.75012299428,
			"-0.006": 11.3023455696,
			"-0.005": 13.0809269356,
			"-0.004": 18.2531049361,
			"-0.003": 16.8146028946,
			"-0.002": 16.6422817379,
			"-0.001": 17.2503081946,
			"0.0": 21.4477479785,
			"0.001": 35.4094408964,
			"0.002": 43.7728580568,
			"0.003": 18.8703219242,
			"0.004": 7.45005474071,
			"0.005": 5.61151824179,
			"0.006": 4.51712260206,
			"0.007": 4.3541935677,
			"0.008": 2.01947036377,
			"0.009": 0.25452644462,
			"0.01": 1.5617484869,
			"0.011": 1.00675512262,
			"0.012": 1.22832288815,
			"0.013": 0.641236577428,
			"0.014": 0.821775032983,
			"0.015": 0.943818950039,
			"0.016": 0.65097683921,
			"0.017": 0.0559817153467,
			"0.018": 0.0,
			"0.019": 0.0,
			"0.02": 0.0,
			"0.021": 0.0,
			"0.022": 0.0,
			"0.023": 0.0,
			"0.024": 0.0,
			"0.025": 0.0
		}
	}
}
