{
	 "smiles": "NC1=NC(=O)N(C=C1)C1OC(CO)C(O)C1O", 
	 "Tm": 485.15, 
	 "num_atms": 30, 
	 "gaussian": { 
		 "optdone": 1, 
		 "sigma_profile": "yes", 
		 "theory": "DFT", 
		 "functional": "B3LYP", 
		 "basiset": "6-31G**", 
		 "properties": { 
			 "R2extent": 4785.6985, 
			 "electric_dipole_moment_norm": 5.25877556566, 
			 "electric_quadrupole_moment_norm": 34.7630606741, 
			 "total_energy": -891.148501353, 
			 "HOMO_LUMO_gap": 0.19641, 
			 "cosmo_polarized_energy": -29.18, 
			 "cosmo_cavitation_energy": 32.03, 
			 "cosmo_dispersion_energy": -24.19, 
			 "cosmo_repulsion_energy": 1.88, 
			 "cosmo_total_nonelectrostatic_energy": 9.73, 
			 "SMD_solvation_energy": 4.2 
		},
		"coords": [
			{
				"x": -3.5686720688,
				"y": 1.7821417976,
				"z": -2.3539970749,
				"element": "N" 
			},
			{
				"x": -2.5546185139,
				"y": 1.0435756326,
				"z": -1.8325467702,
				"element": "C" 
			},
			{
				"x": -2.6374334639,
				"y": 0.7322356953,
				"z": -0.5496154108,
				"element": "N" 
			},
			{
				"x": -1.6573113725,
				"y": 0.0104808353,
				"z": 0.0552432566,
				"element": "C" 
			},
			{
				"x": -1.7164543793,
				"y": -0.3520105528,
				"z": 1.2351770257,
				"element": "O" 
			},
			{
				"x": -0.5115490993,
				"y": -0.3540352934,
				"z": -0.7229627356,
				"element": "N" 
			},
			{
				"x": -0.4472378817,
				"y": -0.0172700881,
				"z": -2.0389624658,
				"element": "C" 
			},
			{
				"x": -1.4481801837,
				"y": 0.6625781347,
				"z": -2.6587363464,
				"element": "C" 
			},
			{
				"x": 0.6722718291,
				"y": -0.9723714811,
				"z": -0.078895896,
				"element": "C" 
			},
			{
				"x": 1.1807116746,
				"y": -0.1304806092,
				"z": 0.9245263262,
				"element": "O" 
			},
			{
				"x": 1.1588233718,
				"y": -0.7899801364,
				"z": 2.2063505168,
				"element": "C" 
			},
			{
				"x": 2.3903829764,
				"y": -0.3042849017,
				"z": 2.9648665683,
				"element": "C" 
			},
			{
				"x": 2.599530017,
				"y": -1.2057199555,
				"z": 4.0576125582,
				"element": "O" 
			},
			{
				"x": 1.1718548956,
				"y": -2.2976939662,
				"z": 1.8964927776,
				"element": "C" 
			},
			{
				"x": 2.4905913753,
				"y": -2.8007960168,
				"z": 1.722890048,
				"element": "O" 
			},
			{
				"x": 0.441151021,
				"y": -2.3974723858,
				"z": 0.5378767921,
				"element": "C" 
			},
			{
				"x": -0.8923210626,
				"y": -2.8146861051,
				"z": 0.6154478961,
				"element": "O" 
			},
			{
				"x": -4.3729381168,
				"y": 1.9385310208,
				"z": -1.7657593996,
				"element": "H" 
			},
			{
				"x": -3.6620090568,
				"y": 1.9090326091,
				"z": -3.3475915065,
				"element": "H" 
			},
			{
				"x": 0.4512104824,
				"y": -0.3231747867,
				"z": -2.564955891,
				"element": "H" 
			},
			{
				"x": -1.3853372116,
				"y": 0.9233470068,
				"z": -3.7075504909,
				"element": "H" 
			},
			{
				"x": 1.417956443,
				"y": -1.036555964,
				"z": -0.8794345957,
				"element": "H" 
			},
			{
				"x": 0.2348879362,
				"y": -0.5236346027,
				"z": 2.7297055282,
				"element": "H" 
			},
			{
				"x": 2.238323057,
				"y": 0.7239335276,
				"z": 3.3176030418,
				"element": "H" 
			},
			{
				"x": 3.241061486,
				"y": -0.3124198588,
				"z": 2.2715840715,
				"element": "H" 
			},
			{
				"x": 3.3099331315,
				"y": -0.8553370302,
				"z": 4.6084795495,
				"element": "H" 
			},
			{
				"x": 0.6193775678,
				"y": -2.8706292244,
				"z": 2.6504944566,
				"element": "H" 
			},
			{
				"x": 2.9176654373,
				"y": -2.702838289,
				"z": 2.5884560923,
				"element": "H" 
			},
			{
				"x": 0.9664879945,
				"y": -3.1401546691,
				"z": -0.0695594718,
				"element": "H" 
			},
			{
				"x": -1.3834582858,
				"y": -2.1017103426,
				"z": 1.0714615497,
				"element": "H" 
			}
		],
		 "valence_orbital": [ 
			{
				"type": "occ",
				"energy": -0.26285,
				"method": "rhf"
			},
			{
				"type": "occ",
				"energy": -0.25769,
				"method": "rhf"
			},
			{
				"type": "occ",
				"energy": -0.25187,
				"method": "rhf"
			},
			{
				"type": "occ",
				"energy": -0.24526,
				"method": "rhf"
			},
			{
				"type": "occ",
				"energy": -0.2321,
				"method": "rhf"
			},
			{
				"type": "unocc",
				"energy": -0.03569,
				"method": "rhf"
			},
			{
				"type": "unocc",
				"energy": 0.00927,
				"method": "rhf"
			},
			{
				"type": "unocc",
				"energy": 0.05288,
				"method": "rhf"
			},
			{
				"type": "unocc",
				"energy": 0.06559,
				"method": "rhf"
			},
			{
				"type": "unocc",
				"energy": 0.07293,
				"method": "rhf"
			}
		],
		"cosmo_sigma_profile": { 
			"-0.025": 0.0,
			"-0.024": 0.0,
			"-0.023": 0.0,
			"-0.022": 0.0,
			"-0.021": 0.0,
			"-0.02": 0.0,
			"-0.019": 0.0,
			"-0.018": 0.0,
			"-0.017": 0.489802932209,
			"-0.016": 1.30573090107,
			"-0.015": 2.14865973087,
			"-0.014": 3.33094128361,
			"-0.013": 2.85503063492,
			"-0.012": 3.37225889293,
			"-0.011": 6.2515681372,
			"-0.01": 6.20640971406,
			"-0.009": 8.20284542413,
			"-0.008": 7.33682632543,
			"-0.007": 7.91846272901,
			"-0.006": 8.06469000017,
			"-0.005": 10.7446928569,
			"-0.004": 16.0335471842,
			"-0.003": 16.6677932928,
			"-0.002": 13.8100437988,
			"-0.001": 12.6073942687,
			"0.0": 14.1865057967,
			"0.001": 12.262941653,
			"0.002": 12.009328252,
			"0.003": 9.85122683353,
			"0.004": 8.30031009202,
			"0.005": 7.33167569576,
			"0.006": 6.97211995856,
			"0.007": 6.13235996069,
			"0.008": 7.48403019495,
			"0.009": 6.07671613568,
			"0.01": 5.91229534874,
			"0.011": 5.09739437485,
			"0.012": 6.10009488556,
			"0.013": 6.09613442972,
			"0.014": 4.51991767344,
			"0.015": 2.66715858511,
			"0.016": 2.12901949642,
			"0.017": 1.0101896984,
			"0.018": 0.0,
			"0.019": 0.0,
			"0.02": 0.0,
			"0.021": 0.0,
			"0.022": 0.0,
			"0.023": 0.0,
			"0.024": 0.0,
			"0.025": 0.0
		}
	}
}
