{
	 "smiles": "CCC(=NNC(N)=O)C1=CC2(C)CCC1C2(C)C", 
	 "Tm": 469.15, 
	 "num_atms": 41, 
	 "gaussian": { 
		 "optdone": 1, 
		 "sigma_profile": "yes", 
		 "theory": "DFT", 
		 "functional": "B3LYP", 
		 "basiset": "6-31G**", 
		 "properties": { 
			 "R2extent": 5604.2081, 
			 "electric_dipole_moment_norm": 5.54588961033, 
			 "electric_quadrupole_moment_norm": 26.2877048382, 
			 "total_energy": -786.802771943, 
			 "HOMO_LUMO_gap": 0.18024, 
			 "cosmo_polarized_energy": -20.17, 
			 "cosmo_cavitation_energy": 40.3, 
			 "cosmo_dispersion_energy": -27.09, 
			 "cosmo_repulsion_energy": 2.12, 
			 "cosmo_total_nonelectrostatic_energy": 15.33, 
			 "SMD_solvation_energy": 6.98 
		},
		"coords": [
			{
				"x": -1.6687601116,
				"y": 2.9892756118,
				"z": -2.3192120124,
				"element": "C" 
			},
			{
				"x": -1.6543144221,
				"y": 2.9932839605,
				"z": -0.7817553355,
				"element": "C" 
			},
			{
				"x": -1.7994877363,
				"y": 1.6140801685,
				"z": -0.1656964348,
				"element": "C" 
			},
			{
				"x": -2.9060655603,
				"y": 1.4267524355,
				"z": 0.4794745608,
				"element": "N" 
			},
			{
				"x": -3.1510851765,
				"y": 0.2330419671,
				"z": 1.0813024649,
				"element": "N" 
			},
			{
				"x": -4.213627521,
				"y": 0.1574020845,
				"z": 1.9930575386,
				"element": "C" 
			},
			{
				"x": -4.260525685,
				"y": -1.0900735271,
				"z": 2.6142538597,
				"element": "N" 
			},
			{
				"x": -4.9910707139,
				"y": 1.0568406946,
				"z": 2.2356573821,
				"element": "O" 
			},
			{
				"x": -0.6995658485,
				"y": 0.6395074532,
				"z": -0.325481463,
				"element": "C" 
			},
			{
				"x": -0.7319994782,
				"y": -0.7077990769,
				"z": -0.4491126836,
				"element": "C" 
			},
			{
				"x": 0.6930427192,
				"y": -1.2455755559,
				"z": -0.4526950496,
				"element": "C" 
			},
			{
				"x": 0.8764416142,
				"y": -2.6601119571,
				"z": -0.9840080571,
				"element": "C" 
			},
			{
				"x": 1.179413009,
				"y": -1.029571673,
				"z": 1.0271108142,
				"element": "C" 
			},
			{
				"x": 1.2397199594,
				"y": 0.5201341629,
				"z": 1.1661164922,
				"element": "C" 
			},
			{
				"x": 0.787783861,
				"y": 1.0079449675,
				"z": -0.2506953328,
				"element": "C" 
			},
			{
				"x": 1.4355000789,
				"y": -0.0619375669,
				"z": -1.1904181256,
				"element": "C" 
			},
			{
				"x": 1.0521552489,
				"y": 0.085703387,
				"z": -2.6727585351,
				"element": "C" 
			},
			{
				"x": 2.9721927969,
				"y": -0.1144158277,
				"z": -1.1265309478,
				"element": "C" 
			},
			{
				"x": -1.5931823241,
				"y": 4.0104482823,
				"z": -2.7069036101,
				"element": "H" 
			},
			{
				"x": -0.8363366761,
				"y": 2.4129016416,
				"z": -2.7346172015,
				"element": "H" 
			},
			{
				"x": -2.5997450423,
				"y": 2.5534706826,
				"z": -2.6956699626,
				"element": "H" 
			},
			{
				"x": -2.4827124387,
				"y": 3.5974556727,
				"z": -0.4033506207,
				"element": "H" 
			},
			{
				"x": -0.7267957895,
				"y": 3.4623793099,
				"z": -0.42852577,
				"element": "H" 
			},
			{
				"x": -2.3756622576,
				"y": -0.4163557631,
				"z": 1.2003180755,
				"element": "H" 
			},
			{
				"x": -3.9780690863,
				"y": -1.8945942397,
				"z": 2.0702735448,
				"element": "H" 
			},
			{
				"x": -5.1219911905,
				"y": -1.2243151931,
				"z": 3.1249775293,
				"element": "H" 
			},
			{
				"x": -1.6102724885,
				"y": -1.3420484676,
				"z": -0.5199863019,
				"element": "H" 
			},
			{
				"x": 1.9298127891,
				"y": -2.958967602,
				"z": -0.9622352492,
				"element": "H" 
			},
			{
				"x": 0.5203416003,
				"y": -2.7534048162,
				"z": -2.0154213547,
				"element": "H" 
			},
			{
				"x": 0.3200174741,
				"y": -3.3829459686,
				"z": -0.3760431474,
				"element": "H" 
			},
			{
				"x": 0.4915573871,
				"y": -1.4957199248,
				"z": 1.7388158938,
				"element": "H" 
			},
			{
				"x": 2.1601619837,
				"y": -1.4911586484,
				"z": 1.1830277514,
				"element": "H" 
			},
			{
				"x": 2.2498926583,
				"y": 0.8676889377,
				"z": 1.4008297446,
				"element": "H" 
			},
			{
				"x": 0.578439645,
				"y": 0.9033007081,
				"z": 1.9478678913,
				"element": "H" 
			},
			{
				"x": 1.0338951268,
				"y": 2.0502903793,
				"z": -0.4639434775,
				"element": "H" 
			},
			{
				"x": 1.4638968836,
				"y": -0.7426312258,
				"z": -3.2602029093,
				"element": "H" 
			},
			{
				"x": -0.0269910275,
				"y": 0.1052620032,
				"z": -2.8314710961,
				"element": "H" 
			},
			{
				"x": 1.4733822857,
				"y": 1.0100744224,
				"z": -3.0843614519,
				"element": "H" 
			},
			{
				"x": 3.351321939,
				"y": -0.9468361664,
				"z": -1.7296872637,
				"element": "H" 
			},
			{
				"x": 3.3764310391,
				"y": -0.227916479,
				"z": -0.1197935152,
				"element": "H" 
			},
			{
				"x": 3.3947604751,
				"y": 0.8048407463,
				"z": -1.5481066343,
				"element": "H" 
			}
		],
		 "valence_orbital": [ 
			{
				"type": "occ",
				"energy": -0.27454,
				"method": "rhf"
			},
			{
				"type": "occ",
				"energy": -0.26496,
				"method": "rhf"
			},
			{
				"type": "occ",
				"energy": -0.26075,
				"method": "rhf"
			},
			{
				"type": "occ",
				"energy": -0.25039,
				"method": "rhf"
			},
			{
				"type": "occ",
				"energy": -0.21574,
				"method": "rhf"
			},
			{
				"type": "unocc",
				"energy": -0.0355,
				"method": "rhf"
			},
			{
				"type": "unocc",
				"energy": 0.04211,
				"method": "rhf"
			},
			{
				"type": "unocc",
				"energy": 0.06094,
				"method": "rhf"
			},
			{
				"type": "unocc",
				"energy": 0.06229,
				"method": "rhf"
			},
			{
				"type": "unocc",
				"energy": 0.07501,
				"method": "rhf"
			}
		],
		"cosmo_sigma_profile": { 
			"-0.025": 0.0,
			"-0.024": 0.0,
			"-0.023": 0.0,
			"-0.022": 0.0,
			"-0.021": 0.0,
			"-0.02": 0.0,
			"-0.019": 0.0,
			"-0.018": 0.0,
			"-0.017": 0.0,
			"-0.016": 0.0,
			"-0.015": 0.000407385553792,
			"-0.014": 1.74995503783,
			"-0.013": 2.9979643527,
			"-0.012": 2.8478118486,
			"-0.011": 2.73121932101,
			"-0.01": 2.90745485368,
			"-0.009": 3.39208000127,
			"-0.008": 2.70692287304,
			"-0.007": 2.72804949106,
			"-0.006": 4.37271775741,
			"-0.005": 4.20816703148,
			"-0.004": 8.39151481561,
			"-0.003": 27.4390532164,
			"-0.002": 45.6207888627,
			"-0.001": 51.6860064089,
			"0.0": 42.9093626677,
			"0.001": 40.0630905694,
			"0.002": 17.6543276713,
			"0.003": 5.04603115701,
			"0.004": 3.4415981478,
			"0.005": 3.43594601112,
			"0.006": 4.14775084702,
			"0.007": 3.03141259717,
			"0.008": 3.45551137022,
			"0.009": 2.38492002275,
			"0.01": 1.74205941427,
			"0.011": 2.6408596184,
			"0.012": 2.85309589282,
			"0.013": 4.28226273974,
			"0.014": 5.48623164282,
			"0.015": 2.09588298204,
			"0.016": 1.38318199054,
			"0.017": 1.00411949019,
			"0.018": 0.980114257948,
			"0.019": 0.684579855104,
			"0.02": 0.0351620874233,
			"0.021": 0.0,
			"0.022": 0.0,
			"0.023": 0.0,
			"0.024": 0.0,
			"0.025": 0.0
		}
	}
}
