{
	 "smiles": "CCN(CC)CC(C)O", 
	 "Tm": 286.65, 
	 "num_atms": 26, 
	 "gaussian": { 
		 "optdone": 1, 
		 "sigma_profile": "yes", 
		 "theory": "DFT", 
		 "functional": "B3LYP", 
		 "basiset": "6-31G**", 
		 "properties": { 
			 "R2extent": 1937.4997, 
			 "electric_dipole_moment_norm": 2.47465863706, 
			 "electric_quadrupole_moment_norm": 2.92118968744, 
			 "total_energy": -406.960508085, 
			 "HOMO_LUMO_gap": 0.28589, 
			 "cosmo_polarized_energy": -5.78, 
			 "cosmo_cavitation_energy": 26.15, 
			 "cosmo_dispersion_energy": -18.46, 
			 "cosmo_repulsion_energy": 1.52, 
			 "cosmo_total_nonelectrostatic_energy": 9.2, 
			 "SMD_solvation_energy": 4.27 
		},
		"coords": [
			{
				"x": -0.9489462258,
				"y": 2.7605578862,
				"z": -1.601118464,
				"element": "C" 
			},
			{
				"x": -0.9746195693,
				"y": 2.4608624221,
				"z": -0.1017440353,
				"element": "C" 
			},
			{
				"x": -0.8694751707,
				"y": 1.0289339578,
				"z": 0.2093454855,
				"element": "N" 
			},
			{
				"x": -2.0001449187,
				"y": 0.2099460866,
				"z": -0.2575270099,
				"element": "C" 
			},
			{
				"x": -3.3778295051,
				"y": 0.5247265533,
				"z": 0.3479490984,
				"element": "C" 
			},
			{
				"x": -0.4759211915,
				"y": 0.7537611738,
				"z": 1.6028800036,
				"element": "C" 
			},
			{
				"x": 0.9982470428,
				"y": 0.2928290941,
				"z": 1.6745365508,
				"element": "C" 
			},
			{
				"x": 2.0190369496,
				"y": 1.4220362338,
				"z": 1.5008760384,
				"element": "C" 
			},
			{
				"x": 1.2032130298,
				"y": -0.7266175647,
				"z": 0.7059882512,
				"element": "O" 
			},
			{
				"x": -0.0665727993,
				"y": 2.3113523447,
				"z": -2.067897548,
				"element": "H" 
			},
			{
				"x": -0.9148590278,
				"y": 3.8422842064,
				"z": -1.7661589279,
				"element": "H" 
			},
			{
				"x": -1.8359205782,
				"y": 2.3807285231,
				"z": -2.1173310841,
				"element": "H" 
			},
			{
				"x": -0.1188232823,
				"y": 2.9556375317,
				"z": 0.3661633727,
				"element": "H" 
			},
			{
				"x": -1.8742397151,
				"y": 2.9164875166,
				"z": 0.3503467456,
				"element": "H" 
			},
			{
				"x": -1.7393200514,
				"y": -0.8336260281,
				"z": -0.0512313134,
				"element": "H" 
			},
			{
				"x": -2.057525007,
				"y": 0.2961930949,
				"z": -1.3482108367,
				"element": "H" 
			},
			{
				"x": -3.7151514057,
				"y": 1.5355171317,
				"z": 0.0978169497,
				"element": "H" 
			},
			{
				"x": -4.1253229534,
				"y": -0.1763461009,
				"z": -0.0384784772,
				"element": "H" 
			},
			{
				"x": -3.3699935502,
				"y": 0.4338405211,
				"z": 1.4392811199,
				"element": "H" 
			},
			{
				"x": -1.0937472291,
				"y": -0.0604790478,
				"z": 1.9956130199,
				"element": "H" 
			},
			{
				"x": -0.6462439148,
				"y": 1.6225642196,
				"z": 2.2552045303,
				"element": "H" 
			},
			{
				"x": 1.1581634735,
				"y": -0.1760321947,
				"z": 2.654243607,
				"element": "H" 
			},
			{
				"x": 1.9052175922,
				"y": 2.1933081446,
				"z": 2.2719271494,
				"element": "H" 
			},
			{
				"x": 3.0326360928,
				"y": 1.0162203688,
				"z": 1.5649041424,
				"element": "H" 
			},
			{
				"x": 1.9131498757,
				"y": 1.8960823333,
				"z": 0.5191226611,
				"element": "H" 
			},
			{
				"x": 0.7921920387,
				"y": -0.3582684077,
				"z": -0.0961010295,
				"element": "H" 
			}
		],
		 "valence_orbital": [ 
			{
				"type": "occ",
				"energy": -0.33782,
				"method": "rhf"
			},
			{
				"type": "occ",
				"energy": -0.33168,
				"method": "rhf"
			},
			{
				"type": "occ",
				"energy": -0.30328,
				"method": "rhf"
			},
			{
				"type": "occ",
				"energy": -0.25195,
				"method": "rhf"
			},
			{
				"type": "occ",
				"energy": -0.21368,
				"method": "rhf"
			},
			{
				"type": "unocc",
				"energy": 0.07221,
				"method": "rhf"
			},
			{
				"type": "unocc",
				"energy": 0.0989,
				"method": "rhf"
			},
			{
				"type": "unocc",
				"energy": 0.10769,
				"method": "rhf"
			},
			{
				"type": "unocc",
				"energy": 0.12073,
				"method": "rhf"
			},
			{
				"type": "unocc",
				"energy": 0.12904,
				"method": "rhf"
			}
		],
		"cosmo_sigma_profile": { 
			"-0.025": 0.0,
			"-0.024": 0.0,
			"-0.023": 0.0,
			"-0.022": 0.0,
			"-0.021": 0.0,
			"-0.02": 0.0,
			"-0.019": 0.0,
			"-0.018": 0.0,
			"-0.017": 0.0,
			"-0.016": 0.0,
			"-0.015": 0.0,
			"-0.014": 0.0,
			"-0.013": 0.0,
			"-0.012": 0.0,
			"-0.011": 0.0,
			"-0.01": 0.0,
			"-0.009": 0.0772632849129,
			"-0.008": 0.386647326082,
			"-0.007": 0.57884875013,
			"-0.006": 0.357116924015,
			"-0.005": 0.592161253235,
			"-0.004": 3.74507109584,
			"-0.003": 31.4678684108,
			"-0.002": 39.4730417538,
			"-0.001": 36.3979990359,
			"0.0": 31.5501009246,
			"0.001": 24.1037185923,
			"0.002": 10.1556235111,
			"0.003": 3.65444517071,
			"0.004": 2.073130685,
			"0.005": 1.91555642912,
			"0.006": 1.01535029267,
			"0.007": 0.890273774812,
			"0.008": 1.46754506964,
			"0.009": 1.24791386744,
			"0.01": 0.753719943295,
			"0.011": 1.48249109197,
			"0.012": 1.37367505131,
			"0.013": 1.43370572055,
			"0.014": 1.56701116248,
			"0.015": 2.63602382391,
			"0.016": 0.498308077306,
			"0.017": 0.0,
			"0.018": 0.0,
			"0.019": 0.0,
			"0.02": 0.0,
			"0.021": 0.0,
			"0.022": 0.0,
			"0.023": 0.0,
			"0.024": 0.0,
			"0.025": 0.0
		}
	}
}
