{
	 "smiles": "CC(=O)CC(=O)C1=CN=CC=C1", 
	 "Tm": 358.15, 
	 "num_atms": 21, 
	 "gaussian": { 
		 "optdone": 1, 
		 "sigma_profile": "yes", 
		 "theory": "DFT", 
		 "functional": "B3LYP", 
		 "basiset": "6-31G**", 
		 "properties": { 
			 "R2extent": 2923.4305, 
			 "electric_dipole_moment_norm": 2.3314702593, 
			 "electric_quadrupole_moment_norm": 15.5123848985, 
			 "total_energy": -553.571702205, 
			 "HOMO_LUMO_gap": 0.17621, 
			 "cosmo_polarized_energy": -11.77, 
			 "cosmo_cavitation_energy": 25.62, 
			 "cosmo_dispersion_energy": -18.29, 
			 "cosmo_repulsion_energy": 1.45, 
			 "cosmo_total_nonelectrostatic_energy": 8.78, 
			 "SMD_solvation_energy": 4.29 
		},
		"coords": [
			{
				"x": 1.9761887665,
				"y": -2.5356429802,
				"z": 0.6496407182,
				"element": "C" 
			},
			{
				"x": 1.0209070565,
				"y": -1.6360024587,
				"z": -0.1009487411,
				"element": "C" 
			},
			{
				"x": 0.3719667874,
				"y": -2.0094814,
				"z": -1.0591989481,
				"element": "O" 
			},
			{
				"x": 0.8871162238,
				"y": -0.200934028,
				"z": 0.432766695,
				"element": "C" 
			},
			{
				"x": -0.0881951722,
				"y": -0.1561781615,
				"z": 1.6192105555,
				"element": "C" 
			},
			{
				"x": 0.3402253866,
				"y": -0.2551293764,
				"z": 2.7585870306,
				"element": "O" 
			},
			{
				"x": -1.547241224,
				"y": -0.0043553114,
				"z": 1.3460695518,
				"element": "C" 
			},
			{
				"x": -2.4008469973,
				"y": 0.2964405952,
				"z": 2.4225817568,
				"element": "C" 
			},
			{
				"x": -3.7198832831,
				"y": 0.4577750183,
				"z": 2.3054267994,
				"element": "N" 
			},
			{
				"x": -4.2478951701,
				"y": 0.3050766102,
				"z": 1.0813709816,
				"element": "C" 
			},
			{
				"x": -3.4989604449,
				"y": -0.0078967393,
				"z": -0.0538625506,
				"element": "C" 
			},
			{
				"x": -2.1207323004,
				"y": -0.1606809397,
				"z": 0.0762026567,
				"element": "C" 
			},
			{
				"x": 1.814406333,
				"y": -2.4438527077,
				"z": 1.729057228,
				"element": "H" 
			},
			{
				"x": 1.8531593177,
				"y": -3.5697875168,
				"z": 0.3257027108,
				"element": "H" 
			},
			{
				"x": 3.0072436618,
				"y": -2.2150569616,
				"z": 0.4559957823,
				"element": "H" 
			},
			{
				"x": 0.5547953283,
				"y": 0.4417167962,
				"z": -0.3843697452,
				"element": "H" 
			},
			{
				"x": 1.8491319516,
				"y": 0.1470959578,
				"z": 0.8163824361,
				"element": "H" 
			},
			{
				"x": -1.9730447428,
				"y": 0.4131850232,
				"z": 3.4150802782,
				"element": "H" 
			},
			{
				"x": -5.32602921,
				"y": 0.4370599518,
				"z": 1.0079289371,
				"element": "H" 
			},
			{
				"x": -3.9865204765,
				"y": -0.1313713715,
				"z": -1.0154865573,
				"element": "H" 
			},
			{
				"x": -1.511791792,
				"y": -0.4336799998,
				"z": -0.779937576,
				"element": "H" 
			}
		],
		 "valence_orbital": [ 
			{
				"type": "occ",
				"energy": -0.29886,
				"method": "rhf"
			},
			{
				"type": "occ",
				"energy": -0.28075,
				"method": "rhf"
			},
			{
				"type": "occ",
				"energy": -0.27292,
				"method": "rhf"
			},
			{
				"type": "occ",
				"energy": -0.26318,
				"method": "rhf"
			},
			{
				"type": "occ",
				"energy": -0.25369,
				"method": "rhf"
			},
			{
				"type": "unocc",
				"energy": -0.07748,
				"method": "rhf"
			},
			{
				"type": "unocc",
				"energy": -0.03259,
				"method": "rhf"
			},
			{
				"type": "unocc",
				"energy": -0.02745,
				"method": "rhf"
			},
			{
				"type": "unocc",
				"energy": 0.02421,
				"method": "rhf"
			},
			{
				"type": "unocc",
				"energy": 0.092,
				"method": "rhf"
			}
		],
		"cosmo_sigma_profile": { 
			"-0.025": 0.0,
			"-0.024": 0.0,
			"-0.023": 0.0,
			"-0.022": 0.0,
			"-0.021": 0.0,
			"-0.02": 0.0,
			"-0.019": 0.0,
			"-0.018": 0.0,
			"-0.017": 0.0,
			"-0.016": 0.0,
			"-0.015": 0.0,
			"-0.014": 0.0,
			"-0.013": 0.0,
			"-0.012": 0.0,
			"-0.011": 0.0,
			"-0.01": 0.0,
			"-0.009": 0.0,
			"-0.008": 2.22786520066,
			"-0.007": 12.9855929879,
			"-0.006": 16.0624861327,
			"-0.005": 16.1345761507,
			"-0.004": 17.7608577083,
			"-0.003": 15.6316240186,
			"-0.002": 16.5015449957,
			"-0.001": 13.9648683594,
			"0.0": 17.2618354923,
			"0.001": 15.489228247,
			"0.002": 9.25466117283,
			"0.003": 5.17263084187,
			"0.004": 4.74544147101,
			"0.005": 4.00928522592,
			"0.006": 3.97899343721,
			"0.007": 4.62436557907,
			"0.008": 4.28196381932,
			"0.009": 3.70584169349,
			"0.01": 6.45246763208,
			"0.011": 7.61507461778,
			"0.012": 3.59002308657,
			"0.013": 0.938522649425,
			"0.014": 0.978079748733,
			"0.015": 0.75957933112,
			"0.016": 0.546164406922,
			"0.017": 0.0445999744229,
			"0.018": 0.0,
			"0.019": 0.0,
			"0.02": 0.0,
			"0.021": 0.0,
			"0.022": 0.0,
			"0.023": 0.0,
			"0.024": 0.0,
			"0.025": 0.0
		}
	}
}
