{
	 "smiles": "NC1=CC=C(C=C1)S(N)(=O)=O", 
	 "Tm": 439.15, 
	 "num_atms": 19, 
	 "gaussian": { 
		 "optdone": 1, 
		 "sigma_profile": "yes", 
		 "theory": "DFT", 
		 "functional": "B3LYP", 
		 "basiset": "6-31G**", 
		 "properties": { 
			 "R2extent": 2553.8553, 
			 "electric_dipole_moment_norm": 8.33524305824, 
			 "electric_quadrupole_moment_norm": 12.2123862603, 
			 "total_energy": -891.532570746, 
			 "HOMO_LUMO_gap": 0.20187, 
			 "cosmo_polarized_energy": -23.69, 
			 "cosmo_cavitation_energy": 24.54, 
			 "cosmo_dispersion_energy": -18.76, 
			 "cosmo_repulsion_energy": 1.47, 
			 "cosmo_total_nonelectrostatic_energy": 7.25, 
			 "SMD_solvation_energy": 3.89 
		},
		"coords": [
			{
				"x": -0.5722883507,
				"y": -1.7164301044,
				"z": -3.0209000163,
				"element": "N" 
			},
			{
				"x": -0.6431473823,
				"y": -0.9260795926,
				"z": -1.8877378733,
				"element": "C" 
			},
			{
				"x": -1.593700666,
				"y": 0.1106412287,
				"z": -1.7936932068,
				"element": "C" 
			},
			{
				"x": -1.6310115799,
				"y": 0.9374033857,
				"z": -0.6788238005,
				"element": "C" 
			},
			{
				"x": -0.722545942,
				"y": 0.7410485665,
				"z": 0.3665799008,
				"element": "C" 
			},
			{
				"x": 0.235001556,
				"y": -0.275289256,
				"z": 0.2837039396,
				"element": "C" 
			},
			{
				"x": 0.2728827794,
				"y": -1.1024079905,
				"z": -0.8308817364,
				"element": "C" 
			},
			{
				"x": -0.7930499197,
				"y": 1.7831334916,
				"z": 1.8166147339,
				"element": "S" 
			},
			{
				"x": -1.8404788163,
				"y": 1.0455764596,
				"z": 2.9170446341,
				"element": "N" 
			},
			{
				"x": 0.5225863784,
				"y": 1.7427585841,
				"z": 2.4550702208,
				"element": "O" 
			},
			{
				"x": -1.456244959,
				"y": 3.0297237414,
				"z": 1.434101539,
				"element": "O" 
			},
			{
				"x": -1.3924199553,
				"y": -1.7541014184,
				"z": -3.6074465587,
				"element": "H" 
			},
			{
				"x": -0.0912427711,
				"y": -2.5993520657,
				"z": -2.9365335014,
				"element": "H" 
			},
			{
				"x": -2.2917755061,
				"y": 0.2722938485,
				"z": -2.6108756865,
				"element": "H" 
			},
			{
				"x": -2.3473844455,
				"y": 1.7503488196,
				"z": -0.6216511831,
				"element": "H" 
			},
			{
				"x": 0.9579811226,
				"y": -0.3978105879,
				"z": 1.0834590483,
				"element": "H" 
			},
			{
				"x": 1.0254343286,
				"y": -1.8835312467,
				"z": -0.8997406726,
				"element": "H" 
			},
			{
				"x": -2.7911463416,
				"y": 0.990771205,
				"z": 2.5641488976,
				"element": "H" 
			},
			{
				"x": -1.4921495297,
				"y": 0.1459029315,
				"z": 3.2341613217,
				"element": "H" 
			}
		],
		 "valence_orbital": [ 
			{
				"type": "occ",
				"energy": -0.29818,
				"method": "rhf"
			},
			{
				"type": "occ",
				"energy": -0.29412,
				"method": "rhf"
			},
			{
				"type": "occ",
				"energy": -0.29354,
				"method": "rhf"
			},
			{
				"type": "occ",
				"energy": -0.26945,
				"method": "rhf"
			},
			{
				"type": "occ",
				"energy": -0.22318,
				"method": "rhf"
			},
			{
				"type": "unocc",
				"energy": -0.02131,
				"method": "rhf"
			},
			{
				"type": "unocc",
				"energy": -0.01884,
				"method": "rhf"
			},
			{
				"type": "unocc",
				"energy": 0.05636,
				"method": "rhf"
			},
			{
				"type": "unocc",
				"energy": 0.06354,
				"method": "rhf"
			},
			{
				"type": "unocc",
				"energy": 0.0875,
				"method": "rhf"
			}
		],
		"cosmo_sigma_profile": { 
			"-0.025": 0.0,
			"-0.024": 0.0,
			"-0.023": 0.0,
			"-0.022": 0.0,
			"-0.021": 0.0,
			"-0.02": 0.0,
			"-0.019": 0.0,
			"-0.018": 0.0,
			"-0.017": 0.0,
			"-0.016": 0.0,
			"-0.015": 1.25677989193,
			"-0.014": 2.89025496805,
			"-0.013": 4.23041974425,
			"-0.012": 6.74139159011,
			"-0.011": 5.85838153951,
			"-0.01": 4.9773457387,
			"-0.009": 4.96673670873,
			"-0.008": 4.92950795224,
			"-0.007": 7.22854262657,
			"-0.006": 9.60947759464,
			"-0.005": 9.53598878955,
			"-0.004": 8.30123307494,
			"-0.003": 6.34127568341,
			"-0.002": 8.20467974511,
			"-0.001": 5.27910787406,
			"0.0": 6.10744630754,
			"0.001": 7.86736290391,
			"0.002": 9.22125125111,
			"0.003": 11.8258796944,
			"0.004": 15.4430725368,
			"0.005": 6.27505368848,
			"0.006": 4.51451352094,
			"0.007": 4.05346714905,
			"0.008": 4.94398776174,
			"0.009": 5.98384986897,
			"0.01": 6.63271081046,
			"0.011": 10.3051526965,
			"0.012": 9.61476436695,
			"0.013": 1.61581523673,
			"0.014": 0.0103538256397,
			"0.015": 0.0,
			"0.016": 0.0,
			"0.017": 0.0,
			"0.018": 0.0,
			"0.019": 0.0,
			"0.02": 0.0,
			"0.021": 0.0,
			"0.022": 0.0,
			"0.023": 0.0,
			"0.024": 0.0,
			"0.025": 0.0
		}
	}
}
