{
	 "smiles": "CC(NC(=O)OC(C)(C)C)C1CCNCC1", 
	 "Tm": 377.15, 
	 "num_atms": 40, 
	 "gaussian": { 
		 "optdone": 1, 
		 "sigma_profile": "yes", 
		 "theory": "DFT", 
		 "functional": "B3LYP", 
		 "basiset": "6-31G**", 
		 "properties": { 
			 "R2extent": 4746.1056, 
			 "electric_dipole_moment_norm": 2.57498643492, 
			 "electric_quadrupole_moment_norm": 13.8789369964, 
			 "total_energy": -731.726096981, 
			 "HOMO_LUMO_gap": 0.26426, 
			 "cosmo_polarized_energy": -11.6, 
			 "cosmo_cavitation_energy": 38.73, 
			 "cosmo_dispersion_energy": -25.99, 
			 "cosmo_repulsion_energy": 2.04, 
			 "cosmo_total_nonelectrostatic_energy": 14.78, 
			 "SMD_solvation_energy": 4.77 
		},
		"coords": [
			{
				"x": -0.7810687782,
				"y": 2.4329171165,
				"z": 0.8981553181,
				"element": "C" 
			},
			{
				"x": 0.3613727104,
				"y": 1.529720207,
				"z": 0.4055353587,
				"element": "C" 
			},
			{
				"x": 0.3091857479,
				"y": 1.3449967136,
				"z": -1.0548808234,
				"element": "N" 
			},
			{
				"x": -0.6659219633,
				"y": 0.7889272058,
				"z": -1.8391516187,
				"element": "C" 
			},
			{
				"x": -0.6043439167,
				"y": 0.7862857307,
				"z": -3.059774104,
				"element": "O" 
			},
			{
				"x": -1.6654427972,
				"y": 0.2529376148,
				"z": -1.0944614227,
				"element": "O" 
			},
			{
				"x": -2.8074125365,
				"y": -0.4132155047,
				"z": -1.7429613106,
				"element": "C" 
			},
			{
				"x": -3.5729412254,
				"y": 0.5860217177,
				"z": -2.6173267123,
				"element": "C" 
			},
			{
				"x": -3.6614709496,
				"y": -0.8526616674,
				"z": -0.5505004054,
				"element": "C" 
			},
			{
				"x": -2.3231905626,
				"y": -1.6300682504,
				"z": -2.5388891325,
				"element": "C" 
			},
			{
				"x": 0.467476856,
				"y": 0.1884190278,
				"z": 1.1776391411,
				"element": "C" 
			},
			{
				"x": 1.6673130399,
				"y": -0.6753184627,
				"z": 0.6975710922,
				"element": "C" 
			},
			{
				"x": 2.9051391259,
				"y": -0.4817993044,
				"z": 1.5753543638,
				"element": "C" 
			},
			{
				"x": 2.639140477,
				"y": -0.9816721156,
				"z": 2.9333856778,
				"element": "N" 
			},
			{
				"x": 1.2579163084,
				"y": -0.7582048741,
				"z": 3.3954709616,
				"element": "C" 
			},
			{
				"x": 0.5692130119,
				"y": 0.4287647132,
				"z": 2.7067382756,
				"element": "C" 
			},
			{
				"x": -1.7454774303,
				"y": 1.9317020636,
				"z": 0.7888581684,
				"element": "H" 
			},
			{
				"x": -0.646104911,
				"y": 2.7020044164,
				"z": 1.9489943161,
				"element": "H" 
			},
			{
				"x": -0.8073893621,
				"y": 3.3574311596,
				"z": 0.3134466174,
				"element": "H" 
			},
			{
				"x": 1.3050482596,
				"y": 2.0678895647,
				"z": 0.5684171039,
				"element": "H" 
			},
			{
				"x": 1.0316203765,
				"y": 1.7733403728,
				"z": -1.6128616065,
				"element": "H" 
			},
			{
				"x": -4.4826646955,
				"y": 0.114290983,
				"z": -3.0031472699,
				"element": "H" 
			},
			{
				"x": -2.9617218052,
				"y": 0.9167450577,
				"z": -3.456904285,
				"element": "H" 
			},
			{
				"x": -3.8682358555,
				"y": 1.459126142,
				"z": -2.0265103488,
				"element": "H" 
			},
			{
				"x": -3.9741130976,
				"y": 0.0116232291,
				"z": 0.0430294431,
				"element": "H" 
			},
			{
				"x": -4.5581739727,
				"y": -1.3710646577,
				"z": -0.9030084802,
				"element": "H" 
			},
			{
				"x": -3.1020350167,
				"y": -1.5335743286,
				"z": 0.097794108,
				"element": "H" 
			},
			{
				"x": -3.185822833,
				"y": -2.184853818,
				"z": -2.9223470599,
				"element": "H" 
			},
			{
				"x": -1.7478531104,
				"y": -2.301403182,
				"z": -1.8933213074,
				"element": "H" 
			},
			{
				"x": -1.6981728824,
				"y": -1.3231147603,
				"z": -3.3773834681,
				"element": "H" 
			},
			{
				"x": -0.4539034038,
				"y": -0.3673756864,
				"z": 0.9773624992,
				"element": "H" 
			},
			{
				"x": 1.904363888,
				"y": -0.4453299884,
				"z": -0.3454430311,
				"element": "H" 
			},
			{
				"x": 1.3936574813,
				"y": -1.736248288,
				"z": 0.7244683594,
				"element": "H" 
			},
			{
				"x": 3.7563104002,
				"y": -1.0321729176,
				"z": 1.1550165303,
				"element": "H" 
			},
			{
				"x": 3.1893396109,
				"y": 0.5872693183,
				"z": 1.5588574763,
				"element": "H" 
			},
			{
				"x": 3.2898782628,
				"y": -0.5552518847,
				"z": 3.5843165897,
				"element": "H" 
			},
			{
				"x": 0.6618218746,
				"y": -1.6649132846,
				"z": 3.2145669626,
				"element": "H" 
			},
			{
				"x": 1.2731022187,
				"y": -0.6181407184,
				"z": 4.4816458579,
				"element": "H" 
			},
			{
				"x": 1.1516829552,
				"y": 1.3388512289,
				"z": 2.9110404566,
				"element": "H" 
			},
			{
				"x": -0.4238214994,
				"y": 0.5914201107,
				"z": 3.1400077087,
				"element": "H" 
			}
		],
		 "valence_orbital": [ 
			{
				"type": "occ",
				"energy": -0.30143,
				"method": "rhf"
			},
			{
				"type": "occ",
				"energy": -0.28401,
				"method": "rhf"
			},
			{
				"type": "occ",
				"energy": -0.25695,
				"method": "rhf"
			},
			{
				"type": "occ",
				"energy": -0.24465,
				"method": "rhf"
			},
			{
				"type": "occ",
				"energy": -0.20703,
				"method": "rhf"
			},
			{
				"type": "unocc",
				"energy": 0.05723,
				"method": "rhf"
			},
			{
				"type": "unocc",
				"energy": 0.0649,
				"method": "rhf"
			},
			{
				"type": "unocc",
				"energy": 0.07616,
				"method": "rhf"
			},
			{
				"type": "unocc",
				"energy": 0.08913,
				"method": "rhf"
			},
			{
				"type": "unocc",
				"energy": 0.10538,
				"method": "rhf"
			}
		],
		"cosmo_sigma_profile": { 
			"-0.025": 0.0,
			"-0.024": 0.0,
			"-0.023": 0.0,
			"-0.022": 0.0,
			"-0.021": 0.0,
			"-0.02": 0.0,
			"-0.019": 0.0,
			"-0.018": 0.0,
			"-0.017": 0.0,
			"-0.016": 0.0,
			"-0.015": 0.0,
			"-0.014": 0.0287285616218,
			"-0.013": 0.995464075532,
			"-0.012": 1.11068088051,
			"-0.011": 1.08121370443,
			"-0.01": 0.986394783364,
			"-0.009": 2.16816927131,
			"-0.008": 2.13604407148,
			"-0.007": 2.77955722426,
			"-0.006": 2.63783801295,
			"-0.005": 3.45060804408,
			"-0.004": 15.0253618974,
			"-0.003": 30.6952025177,
			"-0.002": 40.5022836379,
			"-0.001": 48.4751137665,
			"0.0": 46.9461139114,
			"0.001": 41.1706665555,
			"0.002": 14.6205680452,
			"0.003": 8.09881668935,
			"0.004": 5.53576329384,
			"0.005": 3.42958832383,
			"0.006": 2.8220660539,
			"0.007": 2.11169276446,
			"0.008": 2.72391056043,
			"0.009": 2.39113971592,
			"0.01": 1.42301124322,
			"0.011": 1.63353916541,
			"0.012": 2.79656548544,
			"0.013": 2.43780436801,
			"0.014": 4.64068356887,
			"0.015": 0.95943814736,
			"0.016": 0.300284872501,
			"0.017": 0.577807559827,
			"0.018": 0.53332307951,
			"0.019": 0.509305775723,
			"0.02": 0.00837136643758,
			"0.021": 0.0,
			"0.022": 0.0,
			"0.023": 0.0,
			"0.024": 0.0,
			"0.025": 0.0
		}
	}
}
