{
	 "smiles": "CC1=C(SC(=N1)C1=NC=CN=C1)C(O)=O", 
	 "Tm": 511.15, 
	 "num_atms": 22, 
	 "gaussian": { 
		 "optdone": 1, 
		 "sigma_profile": "yes", 
		 "theory": "DFT", 
		 "functional": "B3LYP", 
		 "basiset": "6-31G**", 
		 "properties": { 
			 "R2extent": 4352.6032, 
			 "electric_dipole_moment_norm": 4.10231546569, 
			 "electric_quadrupole_moment_norm": 14.042475917, 
			 "total_energy": -1060.05136986, 
			 "HOMO_LUMO_gap": 0.15644, 
			 "cosmo_polarized_energy": -18.32, 
			 "cosmo_cavitation_energy": 29.03, 
			 "cosmo_dispersion_energy": -22.07, 
			 "cosmo_repulsion_energy": 1.67, 
			 "cosmo_total_nonelectrostatic_energy": 8.63, 
			 "SMD_solvation_energy": 1.86 
		},
		"coords": [
			{
				"x": -0.1759480443,
				"y": 3.2019197024,
				"z": -2.3195942236,
				"element": "C" 
			},
			{
				"x": 0.0209925729,
				"y": 2.2401408935,
				"z": -1.1879270427,
				"element": "C" 
			},
			{
				"x": 0.4010682745,
				"y": 2.5455942244,
				"z": 0.1088284755,
				"element": "C" 
			},
			{
				"x": 0.4833636508,
				"y": 1.0782616824,
				"z": 1.0581234707,
				"element": "S" 
			},
			{
				"x": 0.0130608081,
				"y": 0.1659611207,
				"z": -0.3736855461,
				"element": "C" 
			},
			{
				"x": -0.182945071,
				"y": 0.9057689339,
				"z": -1.4296906285,
				"element": "N" 
			},
			{
				"x": -0.1497556737,
				"y": -1.2995470421,
				"z": -0.3394539074,
				"element": "C" 
			},
			{
				"x": -0.2728972059,
				"y": -1.9278629097,
				"z": -1.5209608641,
				"element": "N" 
			},
			{
				"x": -0.4185106903,
				"y": -3.2512582321,
				"z": -1.4780994947,
				"element": "C" 
			},
			{
				"x": -0.4364576249,
				"y": -3.9614846837,
				"z": -0.2732756187,
				"element": "C" 
			},
			{
				"x": -0.3197586582,
				"y": -3.3440246352,
				"z": 0.9070832258,
				"element": "N" 
			},
			{
				"x": -0.1820755583,
				"y": -2.017947844,
				"z": 0.868411665,
				"element": "C" 
			},
			{
				"x": 0.7041090511,
				"y": 3.8842843031,
				"z": 0.6688230611,
				"element": "C" 
			},
			{
				"x": 1.3832951115,
				"y": 3.9185661068,
				"z": 1.8472334424,
				"element": "O" 
			},
			{
				"x": 0.3740654274,
				"y": 4.920688509,
				"z": 0.1391886465,
				"element": "O" 
			},
			{
				"x": 0.3418956657,
				"y": 2.8298665908,
				"z": -3.208401813,
				"element": "H" 
			},
			{
				"x": -1.241778092,
				"y": 3.2615222978,
				"z": -2.5679910212,
				"element": "H" 
			},
			{
				"x": 0.1718422483,
				"y": 4.1999196819,
				"z": -2.0610089126,
				"element": "H" 
			},
			{
				"x": -0.5203187875,
				"y": -3.7661951607,
				"z": -2.4312061907,
				"element": "H" 
			},
			{
				"x": -0.5473296122,
				"y": -5.0433129488,
				"z": -0.2601642376,
				"element": "H" 
			},
			{
				"x": -0.1053490817,
				"y": -1.5111141704,
				"z": 1.8288306748,
				"element": "H" 
			},
			{
				"x": 1.7295312897,
				"y": 3.0465535799,
				"z": 2.085636839,
				"element": "H" 
			}
		],
		 "valence_orbital": [ 
			{
				"type": "occ",
				"energy": -0.30134,
				"method": "rhf"
			},
			{
				"type": "occ",
				"energy": -0.29248,
				"method": "rhf"
			},
			{
				"type": "occ",
				"energy": -0.2852,
				"method": "rhf"
			},
			{
				"type": "occ",
				"energy": -0.26667,
				"method": "rhf"
			},
			{
				"type": "occ",
				"energy": -0.25291,
				"method": "rhf"
			},
			{
				"type": "unocc",
				"energy": -0.09647,
				"method": "rhf"
			},
			{
				"type": "unocc",
				"energy": -0.06338,
				"method": "rhf"
			},
			{
				"type": "unocc",
				"energy": -0.03247,
				"method": "rhf"
			},
			{
				"type": "unocc",
				"energy": -0.01989,
				"method": "rhf"
			},
			{
				"type": "unocc",
				"energy": 0.01838,
				"method": "rhf"
			}
		],
		"cosmo_sigma_profile": { 
			"-0.025": 0.0,
			"-0.024": 0.0,
			"-0.023": 0.0,
			"-0.022": 0.0,
			"-0.021": 0.0,
			"-0.02": 0.0,
			"-0.019": 0.095848172428,
			"-0.018": 0.985445256687,
			"-0.017": 0.733289927712,
			"-0.016": 0.882398026325,
			"-0.015": 0.959029842342,
			"-0.014": 0.616757302303,
			"-0.013": 1.24772351446,
			"-0.012": 0.989172892492,
			"-0.011": 0.893553364063,
			"-0.01": 0.894062200172,
			"-0.009": 2.69488689898,
			"-0.008": 9.34762930811,
			"-0.007": 7.5562302626,
			"-0.006": 8.87705671833,
			"-0.005": 11.7964117238,
			"-0.004": 13.9869470249,
			"-0.003": 20.5420026498,
			"-0.002": 27.0379822026,
			"-0.001": 26.9144621199,
			"0.0": 15.6489777871,
			"0.001": 10.2233506413,
			"0.002": 8.20171808773,
			"0.003": 4.87380197396,
			"0.004": 5.49489441336,
			"0.005": 6.37642674506,
			"0.006": 6.14209278948,
			"0.007": 4.84959661091,
			"0.008": 5.09679044239,
			"0.009": 6.12240101627,
			"0.01": 6.98438898649,
			"0.011": 7.01402086593,
			"0.012": 4.91135232977,
			"0.013": 2.04663994215,
			"0.014": 2.1373642444,
			"0.015": 0.945566459302,
			"0.016": 1.31943416997,
			"0.017": 0.83819280005,
			"0.018": 0.0826357043965,
			"0.019": 0.0,
			"0.02": 0.0,
			"0.021": 0.0,
			"0.022": 0.0,
			"0.023": 0.0,
			"0.024": 0.0,
			"0.025": 0.0
		}
	}
}
