{
	 "smiles": "COC1=CC=C(C=CC(=O)OC2=CC=C(C=CC(=O)C3=CC=CC=C3)C=C2)C=C1", 
	 "Tm": 431.15, 
	 "num_atms": 49, 
	 "gaussian": { 
		 "optdone": 1, 
		 "sigma_profile": "yes", 
		 "theory": "DFT", 
		 "functional": "B3LYP", 
		 "basiset": "6-31G**", 
		 "properties": { 
			 "R2extent": 22033.0999, 
			 "electric_dipole_moment_norm": 6.02472943293, 
			 "electric_quadrupole_moment_norm": 20.2422495805, 
			 "total_energy": -1265.57629583, 
			 "HOMO_LUMO_gap": 0.14069, 
			 "cosmo_polarized_energy": -18.82, 
			 "cosmo_cavitation_energy": 55.69, 
			 "cosmo_dispersion_energy": -38.54, 
			 "cosmo_repulsion_energy": 2.87, 
			 "cosmo_total_nonelectrostatic_energy": 20.02, 
			 "SMD_solvation_energy": 11.58 
		},
		"coords": [
			{
				"x": -4.4860558589,
				"y": -3.3733819838,
				"z": -1.4651068472,
				"element": "C" 
			},
			{
				"x": -4.4494945286,
				"y": -2.812141695,
				"z": -2.7702493805,
				"element": "O" 
			},
			{
				"x": -3.243047437,
				"y": -2.659053719,
				"z": -3.3775417335,
				"element": "C" 
			},
			{
				"x": -3.274591934,
				"y": -2.1136901932,
				"z": -4.6711661882,
				"element": "C" 
			},
			{
				"x": -2.0944387349,
				"y": -1.9303578977,
				"z": -5.3718387063,
				"element": "C" 
			},
			{
				"x": -0.8382885523,
				"y": -2.2455240862,
				"z": -4.8076368651,
				"element": "C" 
			},
			{
				"x": 0.3510563522,
				"y": -2.0418712166,
				"z": -5.6377257347,
				"element": "C" 
			},
			{
				"x": 1.6595297647,
				"y": -1.8186759479,
				"z": -5.3724931266,
				"element": "C" 
			},
			{
				"x": 2.3960067944,
				"y": -1.5625695204,
				"z": -4.1228509443,
				"element": "C" 
			},
			{
				"x": 3.6069959876,
				"y": -1.588420926,
				"z": -4.0542053886,
				"element": "O" 
			},
			{
				"x": 1.5764451316,
				"y": -1.2225440069,
				"z": -3.0740696239,
				"element": "O" 
			},
			{
				"x": 2.0380149503,
				"y": -0.8978398993,
				"z": -1.8082150502,
				"element": "C" 
			},
			{
				"x": 1.1605052175,
				"y": -0.092596437,
				"z": -1.0697851106,
				"element": "C" 
			},
			{
				"x": 1.4708729618,
				"y": 0.2576975314,
				"z": 0.2348777637,
				"element": "C" 
			},
			{
				"x": 2.6638378502,
				"y": -0.187695612,
				"z": 0.8405867786,
				"element": "C" 
			},
			{
				"x": 3.0486409722,
				"y": 0.1474137636,
				"z": 2.2077065538,
				"element": "C" 
			},
			{
				"x": 2.3855997051,
				"y": 0.9183779192,
				"z": 3.0946756851,
				"element": "C" 
			},
			{
				"x": 2.9544758272,
				"y": 1.1516944608,
				"z": 4.4440504087,
				"element": "C" 
			},
			{
				"x": 4.0570422472,
				"y": 0.7027426695,
				"z": 4.7553877231,
				"element": "O" 
			},
			{
				"x": 2.1742264564,
				"y": 1.9647512548,
				"z": 5.4390749278,
				"element": "C" 
			},
			{
				"x": 2.8398714158,
				"y": 2.3671860523,
				"z": 6.6088129286,
				"element": "C" 
			},
			{
				"x": 2.1820285926,
				"y": 3.1175312552,
				"z": 7.578098637,
				"element": "C" 
			},
			{
				"x": 0.8407863122,
				"y": 3.4700870015,
				"z": 7.3989859745,
				"element": "C" 
			},
			{
				"x": 0.1645031747,
				"y": 3.0662689057,
				"z": 6.2468906604,
				"element": "C" 
			},
			{
				"x": 0.8270279126,
				"y": 2.3210581048,
				"z": 5.2709145876,
				"element": "C" 
			},
			{
				"x": 3.520192291,
				"y": -0.9997456264,
				"z": 0.0750101037,
				"element": "C" 
			},
			{
				"x": 3.2263136033,
				"y": -1.3622896374,
				"z": -1.2376209719,
				"element": "C" 
			},
			{
				"x": -0.8321881646,
				"y": -2.8085632238,
				"z": -3.5205304215,
				"element": "C" 
			},
			{
				"x": -2.0118272509,
				"y": -3.0179157683,
				"z": -2.81025289,
				"element": "C" 
			},
			{
				"x": -3.9284158951,
				"y": -2.7600068266,
				"z": -0.7464805166,
				"element": "H" 
			},
			{
				"x": -5.5381374762,
				"y": -3.3964696667,
				"z": -1.1782347879,
				"element": "H" 
			},
			{
				"x": -4.0858640797,
				"y": -4.3948295643,
				"z": -1.4539214795,
				"element": "H" 
			},
			{
				"x": -4.2357927131,
				"y": -1.8561776732,
				"z": -5.1032267251,
				"element": "H" 
			},
			{
				"x": -2.1348833356,
				"y": -1.5205512869,
				"z": -6.3778408297,
				"element": "H" 
			},
			{
				"x": 0.1270990517,
				"y": -2.0921368023,
				"z": -6.7041167411,
				"element": "H" 
			},
			{
				"x": 2.3395361749,
				"y": -1.7940167001,
				"z": -6.21863602,
				"element": "H" 
			},
			{
				"x": 0.2427946639,
				"y": 0.2428551565,
				"z": -1.5410191371,
				"element": "H" 
			},
			{
				"x": 0.7788507559,
				"y": 0.8830562919,
				"z": 0.789866833,
				"element": "H" 
			},
			{
				"x": 3.98955332,
				"y": -0.2748522339,
				"z": 2.5580940613,
				"element": "H" 
			},
			{
				"x": 1.448224367,
				"y": 1.3951311452,
				"z": 2.8312613245,
				"element": "H" 
			},
			{
				"x": 3.8772107049,
				"y": 2.0739311253,
				"z": 6.7289080471,
				"element": "H" 
			},
			{
				"x": 2.7108510513,
				"y": 3.4279304287,
				"z": 8.4747374325,
				"element": "H" 
			},
			{
				"x": 0.3249104685,
				"y": 4.054679651,
				"z": 8.1555420817,
				"element": "H" 
			},
			{
				"x": -0.8799299298,
				"y": 3.3300638405,
				"z": 6.1075963227,
				"element": "H" 
			},
			{
				"x": 0.2772220886,
				"y": 2.0054175,
				"z": 4.3908172682,
				"element": "H" 
			},
			{
				"x": 4.4442653139,
				"y": -1.3561211802,
				"z": 0.5220668075,
				"element": "H" 
			},
			{
				"x": 3.9079904609,
				"y": -1.9745415177,
				"z": -1.808979227,
				"element": "H" 
			},
			{
				"x": 0.105236351,
				"y": -3.1091511661,
				"z": -3.0711944913,
				"element": "H" 
			},
			{
				"x": -1.9618624025,
				"y": -3.4668420424,
				"z": -1.8255239727,
				"element": "H" 
			}
		],
		 "valence_orbital": [ 
			{
				"type": "occ",
				"energy": -0.25683,
				"method": "rhf"
			},
			{
				"type": "occ",
				"energy": -0.25305,
				"method": "rhf"
			},
			{
				"type": "occ",
				"energy": -0.24273,
				"method": "rhf"
			},
			{
				"type": "occ",
				"energy": -0.22758,
				"method": "rhf"
			},
			{
				"type": "occ",
				"energy": -0.21922,
				"method": "rhf"
			},
			{
				"type": "unocc",
				"energy": -0.07853,
				"method": "rhf"
			},
			{
				"type": "unocc",
				"energy": -0.06436,
				"method": "rhf"
			},
			{
				"type": "unocc",
				"energy": -0.02216,
				"method": "rhf"
			},
			{
				"type": "unocc",
				"energy": -0.01266,
				"method": "rhf"
			},
			{
				"type": "unocc",
				"energy": -0.01058,
				"method": "rhf"
			}
		],
		"cosmo_sigma_profile": { 
			"-0.025": 0.0,
			"-0.024": 0.0,
			"-0.023": 0.0,
			"-0.022": 0.0,
			"-0.021": 0.0,
			"-0.02": 0.0,
			"-0.019": 0.0,
			"-0.018": 0.0,
			"-0.017": 0.0,
			"-0.016": 0.0,
			"-0.015": 0.0,
			"-0.014": 0.0,
			"-0.013": 0.0,
			"-0.012": 0.0,
			"-0.011": 0.0,
			"-0.01": 0.00078720656397,
			"-0.009": 1.53056061912,
			"-0.008": 3.25921648978,
			"-0.007": 13.8465236315,
			"-0.006": 32.9020596381,
			"-0.005": 39.2397593612,
			"-0.004": 34.4620199794,
			"-0.003": 30.974399633,
			"-0.002": 25.6213936185,
			"-0.001": 28.286290254,
			"0.0": 29.3860342372,
			"0.001": 30.6579983351,
			"0.002": 41.6500447449,
			"0.003": 45.1756224682,
			"0.004": 36.6370460914,
			"0.005": 14.1532337231,
			"0.006": 6.22565082292,
			"0.007": 4.92205860837,
			"0.008": 3.88389517162,
			"0.009": 5.11786323081,
			"0.01": 5.57611757807,
			"0.011": 5.29160718,
			"0.012": 5.87957008463,
			"0.013": 2.87565679042,
			"0.014": 0.0,
			"0.015": 0.0,
			"0.016": 0.0,
			"0.017": 0.0,
			"0.018": 0.0,
			"0.019": 0.0,
			"0.02": 0.0,
			"0.021": 0.0,
			"0.022": 0.0,
			"0.023": 0.0,
			"0.024": 0.0,
			"0.025": 0.0
		}
	}
}
