{
	 "smiles": "CC1=C(O)C(=O)CC(C)(C)C1", 
	 "Tm": 362.15, 
	 "num_atms": 25, 
	 "gaussian": { 
		 "optdone": 1, 
		 "sigma_profile": "yes", 
		 "theory": "DFT", 
		 "functional": "B3LYP", 
		 "basiset": "6-31G**", 
		 "properties": { 
			 "R2extent": 2422.6423, 
			 "electric_dipole_moment_norm": 3.09989208522, 
			 "electric_quadrupole_moment_norm": 6.10478246869, 
			 "total_energy": -501.854021764, 
			 "HOMO_LUMO_gap": 0.17148, 
			 "cosmo_polarized_energy": -7.8, 
			 "cosmo_cavitation_energy": 26.11, 
			 "cosmo_dispersion_energy": -18.88, 
			 "cosmo_repulsion_energy": 1.51, 
			 "cosmo_total_nonelectrostatic_energy": 8.75, 
			 "SMD_solvation_energy": 5.27 
		},
		"coords": [
			{
				"x": 0.4343646075,
				"y": 1.9483036613,
				"z": -0.8659664191,
				"element": "C" 
			},
			{
				"x": -0.4520455984,
				"y": 0.8491895944,
				"z": -0.3565791999,
				"element": "C" 
			},
			{
				"x": -1.0511615228,
				"y": 0.9192434646,
				"z": 0.8536457192,
				"element": "C" 
			},
			{
				"x": -0.9331210401,
				"y": 1.9858092306,
				"z": 1.6893811621,
				"element": "O" 
			},
			{
				"x": -1.888994858,
				"y": -0.1728680384,
				"z": 1.3870390699,
				"element": "C" 
			},
			{
				"x": -2.4093350263,
				"y": -0.027432019,
				"z": 2.4929664066,
				"element": "O" 
			},
			{
				"x": -2.0137716819,
				"y": -1.4394584169,
				"z": 0.5708276595,
				"element": "C" 
			},
			{
				"x": -1.9109688746,
				"y": -1.2014284761,
				"z": -0.952492203,
				"element": "C" 
			},
			{
				"x": -1.8144884825,
				"y": -2.5537873647,
				"z": -1.6784977139,
				"element": "C" 
			},
			{
				"x": -3.1605462129,
				"y": -0.4512950671,
				"z": -1.4575653362,
				"element": "C" 
			},
			{
				"x": -0.633307916,
				"y": -0.3710583019,
				"z": -1.2314464944,
				"element": "C" 
			},
			{
				"x": 0.5577542981,
				"y": 2.7406238149,
				"z": -0.1263982492,
				"element": "H" 
			},
			{
				"x": 0.0198111367,
				"y": 2.3877572942,
				"z": -1.7831468344,
				"element": "H" 
			},
			{
				"x": 1.4260247274,
				"y": 1.5569321994,
				"z": -1.1296221115,
				"element": "H" 
			},
			{
				"x": -1.4695387508,
				"y": 1.7377589173,
				"z": 2.4685057742,
				"element": "H" 
			},
			{
				"x": -1.1946354312,
				"y": -2.1012556402,
				"z": 0.8916062265,
				"element": "H" 
			},
			{
				"x": -2.9475646289,
				"y": -1.9397593902,
				"z": 0.8475642738,
				"element": "H" 
			},
			{
				"x": -1.7222792059,
				"y": -2.4102406614,
				"z": -2.7609913998,
				"element": "H" 
			},
			{
				"x": -0.9448771661,
				"y": -3.1287535856,
				"z": -1.3408838796,
				"element": "H" 
			},
			{
				"x": -2.7088968071,
				"y": -3.1604785215,
				"z": -1.4987781406,
				"element": "H" 
			},
			{
				"x": -3.1108797187,
				"y": -0.3076679848,
				"z": -2.5424959588,
				"element": "H" 
			},
			{
				"x": -4.0696893342,
				"y": -1.0216284146,
				"z": -1.2380363755,
				"element": "H" 
			},
			{
				"x": -3.2619286577,
				"y": 0.5344041996,
				"z": -0.9945986228,
				"element": "H" 
			},
			{
				"x": -0.6285030923,
				"y": -0.0586044707,
				"z": -2.2847996073,
				"element": "H" 
			},
			{
				"x": 0.2499792368,
				"y": -1.0213060233,
				"z": -1.1188377458,
				"element": "H" 
			}
		],
		 "valence_orbital": [ 
			{
				"type": "occ",
				"energy": -0.33691,
				"method": "rhf"
			},
			{
				"type": "occ",
				"energy": -0.32976,
				"method": "rhf"
			},
			{
				"type": "occ",
				"energy": -0.31951,
				"method": "rhf"
			},
			{
				"type": "occ",
				"energy": -0.25784,
				"method": "rhf"
			},
			{
				"type": "occ",
				"energy": -0.22016,
				"method": "rhf"
			},
			{
				"type": "unocc",
				"energy": -0.04868,
				"method": "rhf"
			},
			{
				"type": "unocc",
				"energy": 0.06371,
				"method": "rhf"
			},
			{
				"type": "unocc",
				"energy": 0.08371,
				"method": "rhf"
			},
			{
				"type": "unocc",
				"energy": 0.10529,
				"method": "rhf"
			},
			{
				"type": "unocc",
				"energy": 0.12304,
				"method": "rhf"
			}
		],
		"cosmo_sigma_profile": { 
			"-0.025": 0.0,
			"-0.024": 0.0,
			"-0.023": 0.0,
			"-0.022": 0.0,
			"-0.021": 0.0,
			"-0.02": 0.0,
			"-0.019": 0.0,
			"-0.018": 0.0,
			"-0.017": 0.0,
			"-0.016": 0.0,
			"-0.015": 0.0,
			"-0.014": 0.0,
			"-0.013": 0.0,
			"-0.012": 0.203820752575,
			"-0.011": 0.710958887627,
			"-0.01": 0.34266454514,
			"-0.009": 0.586508752319,
			"-0.008": 0.690378773101,
			"-0.007": 0.559744112572,
			"-0.006": 2.10502530212,
			"-0.005": 6.35205662399,
			"-0.004": 15.7284406225,
			"-0.003": 33.5833278444,
			"-0.002": 27.5810744858,
			"-0.001": 27.0240674602,
			"0.0": 23.075444767,
			"0.001": 20.3076039825,
			"0.002": 7.26853313099,
			"0.003": 4.42533467923,
			"0.004": 3.78019669263,
			"0.005": 2.41729178359,
			"0.006": 3.29009688507,
			"0.007": 3.28210463493,
			"0.008": 2.80644801977,
			"0.009": 3.18369058998,
			"0.01": 3.75006006892,
			"0.011": 4.83517169246,
			"0.012": 2.8915479465,
			"0.013": 1.55542550292,
			"0.014": 0.258961520124,
			"0.015": 0.0,
			"0.016": 0.0,
			"0.017": 0.0,
			"0.018": 0.0,
			"0.019": 0.0,
			"0.02": 0.0,
			"0.021": 0.0,
			"0.022": 0.0,
			"0.023": 0.0,
			"0.024": 0.0,
			"0.025": 0.0
		}
	}
}
