{
	 "smiles": "ClC1=CC=C(CC#N)C=C1", 
	 "Tm": 303.65, 
	 "num_atms": 16, 
	 "gaussian": { 
		 "optdone": 1, 
		 "sigma_profile": "yes", 
		 "theory": "DFT", 
		 "functional": "B3LYP", 
		 "basiset": "6-31G**", 
		 "properties": { 
			 "R2extent": 3071.0856, 
			 "electric_dipole_moment_norm": 3.41434506897, 
			 "electric_quadrupole_moment_norm": 21.2584591429, 
			 "total_energy": -823.394076445, 
			 "HOMO_LUMO_gap": 0.22601, 
			 "cosmo_polarized_energy": -11.24, 
			 "cosmo_cavitation_energy": 23.31, 
			 "cosmo_dispersion_energy": -16.5, 
			 "cosmo_repulsion_energy": 1.35, 
			 "cosmo_total_nonelectrostatic_energy": 8.16, 
			 "SMD_solvation_energy": 5.17 
		},
		"coords": [
			{
				"x": -2.9050169878,
				"y": -2.6038567012,
				"z": 0.488112749,
				"element": "Cl" 
			},
			{
				"x": -1.6878142345,
				"y": -1.4777053829,
				"z": 1.0652022391,
				"element": "C" 
			},
			{
				"x": -0.7863928372,
				"y": -0.9183151396,
				"z": 0.1601765462,
				"element": "C" 
			},
			{
				"x": 0.1739773447,
				"y": -0.0211484627,
				"z": 0.6261293485,
				"element": "C" 
			},
			{
				"x": 0.2400076849,
				"y": 0.32074873,
				"z": 1.9807796259,
				"element": "C" 
			},
			{
				"x": 1.2974276612,
				"y": 1.2951558276,
				"z": 2.4817098577,
				"element": "C" 
			},
			{
				"x": 2.5437369461,
				"y": 0.626981149,
				"z": 2.882762288,
				"element": "C" 
			},
			{
				"x": 3.5246820131,
				"y": 0.0925846791,
				"z": 3.1975196009,
				"element": "N" 
			},
			{
				"x": -0.673815025,
				"y": -0.2545788681,
				"z": 2.8697386935,
				"element": "C" 
			},
			{
				"x": -1.6405510072,
				"y": -1.1535037166,
				"z": 2.4206367873,
				"element": "C" 
			},
			{
				"x": -0.8374078492,
				"y": -1.1795408973,
				"z": -0.8908603686,
				"element": "H" 
			},
			{
				"x": 0.8780209752,
				"y": 0.4148946922,
				"z": -0.0774904468,
				"element": "H" 
			},
			{
				"x": 0.9223753857,
				"y": 1.859023002,
				"z": 3.3432239478,
				"element": "H" 
			},
			{
				"x": 1.5407864979,
				"y": 2.0296808753,
				"z": 1.70578167,
				"element": "H" 
			},
			{
				"x": -0.6347369069,
				"y": -0.001598128,
				"z": 3.9258484725,
				"element": "H" 
			},
			{
				"x": -2.3496796611,
				"y": -1.5959216587,
				"z": 3.1112289889,
				"element": "H" 
			}
		],
		 "valence_orbital": [ 
			{
				"type": "occ",
				"energy": -0.32823,
				"method": "rhf"
			},
			{
				"type": "occ",
				"energy": -0.32803,
				"method": "rhf"
			},
			{
				"type": "occ",
				"energy": -0.32107,
				"method": "rhf"
			},
			{
				"type": "occ",
				"energy": -0.27739,
				"method": "rhf"
			},
			{
				"type": "occ",
				"energy": -0.25747,
				"method": "rhf"
			},
			{
				"type": "unocc",
				"energy": -0.03146,
				"method": "rhf"
			},
			{
				"type": "unocc",
				"energy": -0.02997,
				"method": "rhf"
			},
			{
				"type": "unocc",
				"energy": 0.01802,
				"method": "rhf"
			},
			{
				"type": "unocc",
				"energy": 0.03668,
				"method": "rhf"
			},
			{
				"type": "unocc",
				"energy": 0.03698,
				"method": "rhf"
			}
		],
		"cosmo_sigma_profile": { 
			"-0.025": 0.0,
			"-0.024": 0.0,
			"-0.023": 0.0,
			"-0.022": 0.0,
			"-0.021": 0.0,
			"-0.02": 0.0,
			"-0.019": 0.0,
			"-0.018": 0.0,
			"-0.017": 0.0,
			"-0.016": 0.0,
			"-0.015": 0.0,
			"-0.014": 0.0,
			"-0.013": 0.0,
			"-0.012": 0.0,
			"-0.011": 0.0,
			"-0.01": 0.00879541660264,
			"-0.009": 6.05459148566,
			"-0.008": 8.29913017531,
			"-0.007": 13.2109378246,
			"-0.006": 12.2462334855,
			"-0.005": 10.4838036649,
			"-0.004": 7.62324208061,
			"-0.003": 8.74046845969,
			"-0.002": 7.5735926098,
			"-0.001": 9.36528309992,
			"0.0": 10.2313177298,
			"0.001": 16.0271658284,
			"0.002": 16.432191713,
			"0.003": 19.3784574673,
			"0.004": 13.8723119808,
			"0.005": 7.17978105929,
			"0.006": 3.67042011147,
			"0.007": 2.04217946429,
			"0.008": 3.24415377112,
			"0.009": 3.74540082705,
			"0.01": 3.25792866901,
			"0.011": 2.90222170462,
			"0.012": 2.493542832,
			"0.013": 1.92064527239,
			"0.014": 0.261691501883,
			"0.015": 0.0,
			"0.016": 0.0,
			"0.017": 0.0,
			"0.018": 0.0,
			"0.019": 0.0,
			"0.02": 0.0,
			"0.021": 0.0,
			"0.022": 0.0,
			"0.023": 0.0,
			"0.024": 0.0,
			"0.025": 0.0
		}
	}
}
