{
	 "smiles": "C[C@H](NC(=O)OC(C)(C)C)C(O)=O", 
	 "Tm": 353.95, 
	 "num_atms": 28, 
	 "gaussian": { 
		 "optdone": 1, 
		 "sigma_profile": "yes", 
		 "theory": "DFT", 
		 "functional": "B3LYP", 
		 "basiset": "6-31G**", 
		 "properties": { 
			 "R2extent": 2920.2256, 
			 "electric_dipole_moment_norm": 1.12363492292, 
			 "electric_quadrupole_moment_norm": 17.0801444789, 
			 "total_energy": -669.591752766, 
			 "HOMO_LUMO_gap": 0.2528, 
			 "cosmo_polarized_energy": -15.15, 
			 "cosmo_cavitation_energy": 30.67, 
			 "cosmo_dispersion_energy": -20.39, 
			 "cosmo_repulsion_energy": 1.63, 
			 "cosmo_total_nonelectrostatic_energy": 11.9, 
			 "SMD_solvation_energy": 7.15 
		},
		"coords": [
			{
				"x": 1.0923448945,
				"y": 0.0393954915,
				"z": 3.4139680994,
				"element": "C" 
			},
			{
				"x": -0.0877782005,
				"y": -0.8945995044,
				"z": 3.131301551,
				"element": "C" 
			},
			{
				"x": 0.2351836363,
				"y": -1.9844475348,
				"z": 2.2177001036,
				"element": "N" 
			},
			{
				"x": 0.3466340445,
				"y": -1.8894919951,
				"z": 0.8521305602,
				"element": "C" 
			},
			{
				"x": 0.4665079772,
				"y": -2.8607278958,
				"z": 0.1254397545,
				"element": "O" 
			},
			{
				"x": 0.3159641835,
				"y": -0.5918466203,
				"z": 0.4685435487,
				"element": "O" 
			},
			{
				"x": 0.3266855173,
				"y": -0.2176047188,
				"z": -0.9569016762,
				"element": "C" 
			},
			{
				"x": 0.2387545705,
				"y": 1.309470089,
				"z": -0.8997390085,
				"element": "C" 
			},
			{
				"x": -0.9017407046,
				"y": -0.8110464337,
				"z": -1.6542488767,
				"element": "C" 
			},
			{
				"x": 1.6390711403,
				"y": -0.667806824,
				"z": -1.6058081734,
				"element": "C" 
			},
			{
				"x": -1.3313681914,
				"y": -0.1030946321,
				"z": 2.7008196157,
				"element": "C" 
			},
			{
				"x": -2.29492304,
				"y": -0.9048283226,
				"z": 2.1920627394,
				"element": "O" 
			},
			{
				"x": -1.480881829,
				"y": 1.0879078096,
				"z": 2.8523423046,
				"element": "O" 
			},
			{
				"x": 1.9251909419,
				"y": -0.5371391637,
				"z": 3.8245736565,
				"element": "H" 
			},
			{
				"x": 1.4182259578,
				"y": 0.526958063,
				"z": 2.4941238878,
				"element": "H" 
			},
			{
				"x": 0.8010121103,
				"y": 0.8115445122,
				"z": 4.12893024,
				"element": "H" 
			},
			{
				"x": -0.3809004493,
				"y": -1.3803873791,
				"z": 4.0714118932,
				"element": "H" 
			},
			{
				"x": 0.1254159758,
				"y": -2.9345673518,
				"z": 2.535964399,
				"element": "H" 
			},
			{
				"x": 1.108428933,
				"y": 1.7285507837,
				"z": -0.3852748921,
				"element": "H" 
			},
			{
				"x": 0.2055860452,
				"y": 1.7209732174,
				"z": -1.9129426666,
				"element": "H" 
			},
			{
				"x": -0.6601681239,
				"y": 1.6258545932,
				"z": -0.3632398202,
				"element": "H" 
			},
			{
				"x": -0.9588947017,
				"y": -0.4358656613,
				"z": -2.6810702907,
				"element": "H" 
			},
			{
				"x": -0.849306947,
				"y": -1.8998669631,
				"z": -1.6783960141,
				"element": "H" 
			},
			{
				"x": -1.8149439809,
				"y": -0.5122925482,
				"z": -1.1299517362,
				"element": "H" 
			},
			{
				"x": 1.7116489909,
				"y": -1.755285723,
				"z": -1.6254392225,
				"element": "H" 
			},
			{
				"x": 1.6888652666,
				"y": -0.2887474944,
				"z": -2.631859598,
				"element": "H" 
			},
			{
				"x": 2.4936408254,
				"y": -0.2643584515,
				"z": -1.0534936463,
				"element": "H" 
			},
			{
				"x": -3.0440548427,
				"y": -0.3216493419,
				"z": 1.984653268,
				"element": "H" 
			}
		],
		 "valence_orbital": [ 
			{
				"type": "occ",
				"energy": -0.3231,
				"method": "rhf"
			},
			{
				"type": "occ",
				"energy": -0.29211,
				"method": "rhf"
			},
			{
				"type": "occ",
				"energy": -0.28894,
				"method": "rhf"
			},
			{
				"type": "occ",
				"energy": -0.26418,
				"method": "rhf"
			},
			{
				"type": "occ",
				"energy": -0.25066,
				"method": "rhf"
			},
			{
				"type": "unocc",
				"energy": 0.00214,
				"method": "rhf"
			},
			{
				"type": "unocc",
				"energy": 0.05223,
				"method": "rhf"
			},
			{
				"type": "unocc",
				"energy": 0.0645,
				"method": "rhf"
			},
			{
				"type": "unocc",
				"energy": 0.07857,
				"method": "rhf"
			},
			{
				"type": "unocc",
				"energy": 0.08925,
				"method": "rhf"
			}
		],
		"cosmo_sigma_profile": { 
			"-0.025": 0.0,
			"-0.024": 0.0,
			"-0.023": 0.0,
			"-0.022": 0.0,
			"-0.021": 0.0,
			"-0.02": 0.0,
			"-0.019": 0.0460830186748,
			"-0.018": 0.821330721431,
			"-0.017": 0.927385401806,
			"-0.016": 0.508840445971,
			"-0.015": 0.997251181889,
			"-0.014": 2.24467718749,
			"-0.013": 2.09340571882,
			"-0.012": 1.59010763318,
			"-0.011": 2.26740052386,
			"-0.01": 1.73421698375,
			"-0.009": 2.655891485,
			"-0.008": 4.09670818858,
			"-0.007": 3.74926770811,
			"-0.006": 3.19768596208,
			"-0.005": 3.03315045611,
			"-0.004": 16.7318726212,
			"-0.003": 21.6392993559,
			"-0.002": 20.4123521812,
			"-0.001": 23.1930666395,
			"0.0": 32.4643586749,
			"0.001": 23.9781378776,
			"0.002": 11.3720766176,
			"0.003": 8.72586767815,
			"0.004": 6.55574858871,
			"0.005": 6.35737449953,
			"0.006": 4.93867448043,
			"0.007": 4.55730252366,
			"0.008": 3.78193930269,
			"0.009": 4.49151503918,
			"0.01": 3.06431785503,
			"0.011": 5.51118908213,
			"0.012": 5.41584088908,
			"0.013": 3.98244464635,
			"0.014": 1.23728600242,
			"0.015": 0.0,
			"0.016": 0.0,
			"0.017": 0.0,
			"0.018": 0.0,
			"0.019": 0.0,
			"0.02": 0.0,
			"0.021": 0.0,
			"0.022": 0.0,
			"0.023": 0.0,
			"0.024": 0.0,
			"0.025": 0.0
		}
	}
}
