{
	 "smiles": "CNC(=O)C(F)(F)F", 
	 "Tm": 324.15, 
	 "num_atms": 12, 
	 "gaussian": { 
		 "optdone": 1, 
		 "sigma_profile": "yes", 
		 "theory": "DFT", 
		 "functional": "B3LYP", 
		 "basiset": "6-31G**", 
		 "properties": { 
			 "R2extent": 1285.231, 
			 "electric_dipole_moment_norm": 3.98959495814, 
			 "electric_quadrupole_moment_norm": 9.11226976554, 
			 "total_energy": -546.234525175, 
			 "HOMO_LUMO_gap": 0.26929, 
			 "cosmo_polarized_energy": -9.34, 
			 "cosmo_cavitation_energy": 17.74, 
			 "cosmo_dispersion_energy": -12.78, 
			 "cosmo_repulsion_energy": 1.04, 
			 "cosmo_total_nonelectrostatic_energy": 6.01, 
			 "SMD_solvation_energy": 5.0 
		},
		"coords": [
			{
				"x": 1.2754395513,
				"y": 2.3227082674,
				"z": 1.5437109884,
				"element": "C" 
			},
			{
				"x": 1.131645708,
				"y": 1.1557610799,
				"z": 0.6890603894,
				"element": "N" 
			},
			{
				"x": 1.0544620135,
				"y": -0.0989477251,
				"z": 1.19243522,
				"element": "C" 
			},
			{
				"x": 1.0925335203,
				"y": -0.4128371184,
				"z": 2.3693483074,
				"element": "O" 
			},
			{
				"x": 0.9042159489,
				"y": -1.2020022543,
				"z": 0.1178023077,
				"element": "C" 
			},
			{
				"x": -0.2336183684,
				"y": -1.8830292705,
				"z": 0.3076083674,
				"element": "F" 
			},
			{
				"x": 1.9301723542,
				"y": -2.0605998827,
				"z": 0.1874408884,
				"element": "F" 
			},
			{
				"x": 0.8757691629,
				"y": -0.694602712,
				"z": -1.1444667097,
				"element": "F" 
			},
			{
				"x": 2.2017255476,
				"y": 2.8608537686,
				"z": 1.3178230349,
				"element": "H" 
			},
			{
				"x": 1.3064298264,
				"y": 1.9732655938,
				"z": 2.5759796106,
				"element": "H" 
			},
			{
				"x": 0.4281408744,
				"y": 3.004983092,
				"z": 1.4200377406,
				"element": "H" 
			},
			{
				"x": 1.0859838611,
				"y": 1.2695471613,
				"z": -0.3122801451,
				"element": "H" 
			}
		],
		 "valence_orbital": [ 
			{
				"type": "occ",
				"energy": -0.40866,
				"method": "rhf"
			},
			{
				"type": "occ",
				"energy": -0.40175,
				"method": "rhf"
			},
			{
				"type": "occ",
				"energy": -0.39259,
				"method": "rhf"
			},
			{
				"type": "occ",
				"energy": -0.27584,
				"method": "rhf"
			},
			{
				"type": "occ",
				"energy": -0.27574,
				"method": "rhf"
			},
			{
				"type": "unocc",
				"energy": -0.00645,
				"method": "rhf"
			},
			{
				"type": "unocc",
				"energy": 0.0806,
				"method": "rhf"
			},
			{
				"type": "unocc",
				"energy": 0.1095,
				"method": "rhf"
			},
			{
				"type": "unocc",
				"energy": 0.14158,
				"method": "rhf"
			},
			{
				"type": "unocc",
				"energy": 0.14867,
				"method": "rhf"
			}
		],
		"cosmo_sigma_profile": { 
			"-0.025": 0.0,
			"-0.024": 0.0,
			"-0.023": 0.0,
			"-0.022": 0.0,
			"-0.021": 0.0,
			"-0.02": 0.0,
			"-0.019": 0.0,
			"-0.018": 0.0,
			"-0.017": 0.0,
			"-0.016": 0.0,
			"-0.015": 0.782070079736,
			"-0.014": 0.55375180543,
			"-0.013": 1.28492957243,
			"-0.012": 0.834990816685,
			"-0.011": 0.658787455166,
			"-0.01": 1.15576819656,
			"-0.009": 1.38330527252,
			"-0.008": 1.66809870971,
			"-0.007": 2.52347563538,
			"-0.006": 7.06063963267,
			"-0.005": 8.65869904668,
			"-0.004": 9.30322326131,
			"-0.003": 9.29120990945,
			"-0.002": 10.263849676,
			"-0.001": 8.88250163014,
			"0.0": 7.08272612603,
			"0.001": 11.7675578675,
			"0.002": 28.2743630498,
			"0.003": 8.14945316907,
			"0.004": 2.21349084705,
			"0.005": 2.30425073626,
			"0.006": 1.79152753052,
			"0.007": 1.38570698052,
			"0.008": 1.89608314869,
			"0.009": 1.12343985897,
			"0.01": 1.95778806744,
			"0.011": 2.40427693394,
			"0.012": 5.58367282992,
			"0.013": 1.1398862944,
			"0.014": 0.0,
			"0.015": 0.0,
			"0.016": 0.0,
			"0.017": 0.0,
			"0.018": 0.0,
			"0.019": 0.0,
			"0.02": 0.0,
			"0.021": 0.0,
			"0.022": 0.0,
			"0.023": 0.0,
			"0.024": 0.0,
			"0.025": 0.0
		}
	}
}
