{
	 "smiles": "CCCOC(=O)C(=O)OCCC", 
	 "Tm": 228.85, 
	 "num_atms": 26, 
	 "gaussian": { 
		 "optdone": 1, 
		 "sigma_profile": "yes", 
		 "theory": "DFT", 
		 "functional": "B3LYP", 
		 "basiset": "6-31G**", 
		 "properties": { 
			 "R2extent": 3684.4158, 
			 "electric_dipole_moment_norm": 3.66643631473, 
			 "electric_quadrupole_moment_norm": 17.1706589326, 
			 "total_energy": -614.202721106, 
			 "HOMO_LUMO_gap": 0.22689, 
			 "cosmo_polarized_energy": -10.33, 
			 "cosmo_cavitation_energy": 30.25, 
			 "cosmo_dispersion_energy": -21.08, 
			 "cosmo_repulsion_energy": 1.77, 
			 "cosmo_total_nonelectrostatic_energy": 10.93, 
			 "SMD_solvation_energy": 7.53 
		},
		"coords": [
			{
				"x": -4.3948886993,
				"y": -1.2380531125,
				"z": 3.4081314418,
				"element": "C" 
			},
			{
				"x": -3.0298039834,
				"y": -0.9789170182,
				"z": 2.7612578998,
				"element": "C" 
			},
			{
				"x": -3.0759912176,
				"y": 0.2156027619,
				"z": 1.8147075046,
				"element": "C" 
			},
			{
				"x": -1.8062263045,
				"y": 0.4034548759,
				"z": 1.1358454288,
				"element": "O" 
			},
			{
				"x": -0.8870778284,
				"y": 1.1300875613,
				"z": 1.7867599004,
				"element": "C" 
			},
			{
				"x": -1.0203367049,
				"y": 1.6442461383,
				"z": 2.871337203,
				"element": "O" 
			},
			{
				"x": 0.402137238,
				"y": 1.2918179908,
				"z": 0.9616558356,
				"element": "C" 
			},
			{
				"x": 1.1081194907,
				"y": 2.2660520493,
				"z": 1.066268842,
				"element": "O" 
			},
			{
				"x": 0.6263191787,
				"y": 0.229884855,
				"z": 0.1761654252,
				"element": "O" 
			},
			{
				"x": 1.821662333,
				"y": 0.2780769176,
				"z": -0.650379166,
				"element": "C" 
			},
			{
				"x": 1.5523333506,
				"y": 0.986092667,
				"z": -1.974361291,
				"element": "C" 
			},
			{
				"x": 0.4481994385,
				"y": 0.3286122753,
				"z": -2.8077777145,
				"element": "C" 
			},
			{
				"x": -4.7294018633,
				"y": -0.374658294,
				"z": 3.9934856684,
				"element": "H" 
			},
			{
				"x": -5.1624601664,
				"y": -1.4491877036,
				"z": 2.6549656667,
				"element": "H" 
			},
			{
				"x": -4.3480843141,
				"y": -2.0974461984,
				"z": 4.0831044763,
				"element": "H" 
			},
			{
				"x": -2.7005718295,
				"y": -1.8616437613,
				"z": 2.200863465,
				"element": "H" 
			},
			{
				"x": -2.2786826781,
				"y": -0.7856030376,
				"z": 3.53433289,
				"element": "H" 
			},
			{
				"x": -3.3279663045,
				"y": 1.1343935526,
				"z": 2.3511804106,
				"element": "H" 
			},
			{
				"x": -3.7938107797,
				"y": 0.0563956406,
				"z": 1.0061066254,
				"element": "H" 
			},
			{
				"x": 2.6154035952,
				"y": 0.7760157899,
				"z": -0.0887434389,
				"element": "H" 
			},
			{
				"x": 2.0805807922,
				"y": -0.7727257833,
				"z": -0.8038859003,
				"element": "H" 
			},
			{
				"x": 2.4966961255,
				"y": 0.9947784178,
				"z": -2.5341825707,
				"element": "H" 
			},
			{
				"x": 1.3064827764,
				"y": 2.0333126542,
				"z": -1.7664256634,
				"element": "H" 
			},
			{
				"x": 0.2833783114,
				"y": 0.8766967917,
				"z": -3.7403372325,
				"element": "H" 
			},
			{
				"x": 0.7086920346,
				"y": -0.7037201263,
				"z": -3.0680625851,
				"element": "H" 
			},
			{
				"x": -0.4965019913,
				"y": 0.3045340961,
				"z": -2.256913121,
				"element": "H" 
			}
		],
		 "valence_orbital": [ 
			{
				"type": "occ",
				"energy": -0.3418,
				"method": "rhf"
			},
			{
				"type": "occ",
				"energy": -0.30996,
				"method": "rhf"
			},
			{
				"type": "occ",
				"energy": -0.30407,
				"method": "rhf"
			},
			{
				"type": "occ",
				"energy": -0.29818,
				"method": "rhf"
			},
			{
				"type": "occ",
				"energy": -0.27525,
				"method": "rhf"
			},
			{
				"type": "unocc",
				"energy": -0.04836,
				"method": "rhf"
			},
			{
				"type": "unocc",
				"energy": 0.06147,
				"method": "rhf"
			},
			{
				"type": "unocc",
				"energy": 0.08896,
				"method": "rhf"
			},
			{
				"type": "unocc",
				"energy": 0.09497,
				"method": "rhf"
			},
			{
				"type": "unocc",
				"energy": 0.11178,
				"method": "rhf"
			}
		],
		"cosmo_sigma_profile": { 
			"-0.025": 0.0,
			"-0.024": 0.0,
			"-0.023": 0.0,
			"-0.022": 0.0,
			"-0.021": 0.0,
			"-0.02": 0.0,
			"-0.019": 0.0,
			"-0.018": 0.0,
			"-0.017": 0.0,
			"-0.016": 0.0,
			"-0.015": 0.0,
			"-0.014": 0.0,
			"-0.013": 0.0,
			"-0.012": 0.0,
			"-0.011": 0.0,
			"-0.01": 0.0,
			"-0.009": 0.0,
			"-0.008": 0.0,
			"-0.007": 1.06168351471,
			"-0.006": 8.08943565712,
			"-0.005": 13.3504341962,
			"-0.004": 25.6841402196,
			"-0.003": 31.9307527512,
			"-0.002": 28.2979504708,
			"-0.001": 30.0742498917,
			"0.0": 23.928411922,
			"0.001": 17.5501776402,
			"0.002": 6.82294191076,
			"0.003": 6.16088986466,
			"0.004": 4.30029270035,
			"0.005": 4.02304983794,
			"0.006": 3.54947916508,
			"0.007": 4.43087840151,
			"0.008": 4.76551538752,
			"0.009": 4.69245917354,
			"0.01": 9.30600343227,
			"0.011": 6.88105607181,
			"0.012": 1.73774705597,
			"0.013": 0.0,
			"0.014": 0.0,
			"0.015": 0.0,
			"0.016": 0.0,
			"0.017": 0.0,
			"0.018": 0.0,
			"0.019": 0.0,
			"0.02": 0.0,
			"0.021": 0.0,
			"0.022": 0.0,
			"0.023": 0.0,
			"0.024": 0.0,
			"0.025": 0.0
		}
	}
}
