{
	 "smiles": "NC1=C(Cl)C=CC(I)=C1", 
	 "Tm": 330.15, 
	 "num_atms": 14, 
	 "gaussian": { 
		 "optdone": 1, 
		 "sigma_profile": "yes", 
		 "theory": "DFT", 
		 "functional": "B3LYP", 
		 "basiset": "6-31G**", 
		 "properties": { 
			 "R2extent": 2367.306, 
			 "electric_dipole_moment_norm": 1.89265177727, 
			 "electric_quadrupole_moment_norm": 5.98915192327, 
			 "total_energy": -757.9851481, 
			 "HOMO_LUMO_gap": 0.17834, 
			 "cosmo_polarized_energy": -7.61, 
			 "cosmo_cavitation_energy": 22.87, 
			 "cosmo_dispersion_energy": -18.78, 
			 "cosmo_repulsion_energy": 1.5, 
			 "cosmo_total_nonelectrostatic_energy": 5.59, 
			 "SMD_solvation_energy": 2.69 
		},
		"coords": [
			{
				"x": -0.9747329948,
				"y": 0.4840100613,
				"z": 1.4171300009,
				"element": "N" 
			},
			{
				"x": 0.0704647489,
				"y": 0.9623174757,
				"z": 0.64956593,
				"element": "C" 
			},
			{
				"x": 0.6245738439,
				"y": 2.2413702372,
				"z": 0.8559175407,
				"element": "C" 
			},
			{
				"x": 0.0215663779,
				"y": 3.2303835617,
				"z": 2.1848880686,
				"element": "Cl" 
			},
			{
				"x": 1.6373871145,
				"y": 2.7396058651,
				"z": 0.0442548741,
				"element": "C" 
			},
			{
				"x": 2.141937628,
				"y": 1.9769814127,
				"z": -1.0092744106,
				"element": "C" 
			},
			{
				"x": 1.6026692218,
				"y": 0.7069668061,
				"z": -1.2204723595,
				"element": "C" 
			},
			{
				"x": 2.3470860991,
				"y": -0.4874689855,
				"z": -2.8086354356,
				"element": "I" 
			},
			{
				"x": 0.5895440888,
				"y": 0.1987135734,
				"z": -0.4153860719,
				"element": "C" 
			},
			{
				"x": -1.0961657679,
				"y": -0.5176953088,
				"z": 1.4302150282,
				"element": "H" 
			},
			{
				"x": -1.1079844371,
				"y": 0.9265633323,
				"z": 2.3151346957,
				"element": "H" 
			},
			{
				"x": 2.035214662,
				"y": 3.7293608289,
				"z": 0.2409096909,
				"element": "H" 
			},
			{
				"x": 2.9307215258,
				"y": 2.3676515627,
				"z": -1.6399230054,
				"element": "H" 
			},
			{
				"x": 0.179117889,
				"y": -0.788460423,
				"z": -0.5996245461,
				"element": "H" 
			}
		],
		 "valence_orbital": [ 
			{
				"type": "occ",
				"energy": -0.32404,
				"method": "rhf"
			},
			{
				"type": "occ",
				"energy": -0.28373,
				"method": "rhf"
			},
			{
				"type": "occ",
				"energy": -0.26929,
				"method": "rhf"
			},
			{
				"type": "occ",
				"energy": -0.24342,
				"method": "rhf"
			},
			{
				"type": "occ",
				"energy": -0.21867,
				"method": "rhf"
			},
			{
				"type": "unocc",
				"energy": -0.04033,
				"method": "rhf"
			},
			{
				"type": "unocc",
				"energy": -0.02203,
				"method": "rhf"
			},
			{
				"type": "unocc",
				"energy": -0.00465,
				"method": "rhf"
			},
			{
				"type": "unocc",
				"energy": 0.02489,
				"method": "rhf"
			},
			{
				"type": "unocc",
				"energy": 0.04081,
				"method": "rhf"
			}
		],
		"cosmo_sigma_profile": { 
			"-0.025": 0.0,
			"-0.024": 0.0,
			"-0.023": 0.0,
			"-0.022": 0.0,
			"-0.021": 0.0,
			"-0.02": 0.0,
			"-0.019": 0.0,
			"-0.018": 0.0,
			"-0.017": 0.0,
			"-0.016": 0.0,
			"-0.015": 0.0,
			"-0.014": 0.310901319385,
			"-0.013": 1.55948469929,
			"-0.012": 2.00661586698,
			"-0.011": 2.57812762951,
			"-0.01": 3.00792671657,
			"-0.009": 3.09798738076,
			"-0.008": 2.77392006207,
			"-0.007": 5.64361150582,
			"-0.006": 7.59882937984,
			"-0.005": 7.59024827626,
			"-0.004": 8.37022199155,
			"-0.003": 6.92592960284,
			"-0.002": 8.9041083481,
			"-0.001": 9.91909154971,
			"0.0": 12.2018836672,
			"0.001": 13.9452500197,
			"0.002": 21.9945677277,
			"0.003": 24.809727958,
			"0.004": 29.5509230811,
			"0.005": 12.5348946557,
			"0.006": 1.07626038213,
			"0.007": 0.97656331782,
			"0.008": 0.429199243296,
			"0.009": 0.80441103343,
			"0.01": 0.585622495001,
			"0.011": 0.550844497868,
			"0.012": 0.536145358349,
			"0.013": 0.115808830075,
			"0.014": 0.0,
			"0.015": 0.0,
			"0.016": 0.0,
			"0.017": 0.0,
			"0.018": 0.0,
			"0.019": 0.0,
			"0.02": 0.0,
			"0.021": 0.0,
			"0.022": 0.0,
			"0.023": 0.0,
			"0.024": 0.0,
			"0.025": 0.0
		}
	}
}
