{
	 "smiles": "CC1=NC(=C(S1)C(O)=O)C1=CC=CC=C1", 
	 "Tm": 475.15, 
	 "num_atms": 24, 
	 "gaussian": { 
		 "optdone": 1, 
		 "sigma_profile": "yes", 
		 "theory": "DFT", 
		 "functional": "B3LYP", 
		 "basiset": "6-31G**", 
		 "properties": { 
			 "R2extent": 4215.4893, 
			 "electric_dipole_moment_norm": 4.44137392594, 
			 "electric_quadrupole_moment_norm": 22.2328851034, 
			 "total_energy": -1027.9869916, 
			 "HOMO_LUMO_gap": 0.15787, 
			 "cosmo_polarized_energy": -15.29, 
			 "cosmo_cavitation_energy": 30.03, 
			 "cosmo_dispersion_energy": -22.52, 
			 "cosmo_repulsion_energy": 1.72, 
			 "cosmo_total_nonelectrostatic_energy": 9.24, 
			 "SMD_solvation_energy": 4.74 
		},
		"coords": [
			{
				"x": 3.5985535868,
				"y": -1.4813320319,
				"z": -1.8584248751,
				"element": "C" 
			},
			{
				"x": 2.7672932734,
				"y": -0.6907216378,
				"z": -0.8958939576,
				"element": "C" 
			},
			{
				"x": 1.6136782408,
				"y": -1.073169963,
				"z": -0.4391353447,
				"element": "N" 
			},
			{
				"x": 1.0387332306,
				"y": -0.1651879216,
				"z": 0.4338373025,
				"element": "C" 
			},
			{
				"x": 1.8003202227,
				"y": 0.9770985803,
				"z": 0.6433813518,
				"element": "C" 
			},
			{
				"x": 3.2821849679,
				"y": 0.8744745381,
				"z": -0.2963133635,
				"element": "S" 
			},
			{
				"x": 1.4891466226,
				"y": 2.2232105242,
				"z": 1.3882259784,
				"element": "C" 
			},
			{
				"x": 2.5646874337,
				"y": 2.9636893359,
				"z": 1.7832493577,
				"element": "O" 
			},
			{
				"x": 0.3738856532,
				"y": 2.6193973529,
				"z": 1.6291701369,
				"element": "O" 
			},
			{
				"x": -0.2610092659,
				"y": -0.5547094095,
				"z": 1.0236618683,
				"element": "C" 
			},
			{
				"x": -1.0653152152,
				"y": -1.4665236277,
				"z": 0.315638655,
				"element": "C" 
			},
			{
				"x": -2.2884790347,
				"y": -1.8860822402,
				"z": 0.8323848348,
				"element": "C" 
			},
			{
				"x": -2.7238885499,
				"y": -1.4167821895,
				"z": 2.0729227243,
				"element": "C" 
			},
			{
				"x": -1.9247363458,
				"y": -0.5252054371,
				"z": 2.791470557,
				"element": "C" 
			},
			{
				"x": -0.7049961988,
				"y": -0.0955926515,
				"z": 2.2743855822,
				"element": "C" 
			},
			{
				"x": 3.0600552354,
				"y": -2.3968538651,
				"z": -2.1084745532,
				"element": "H" 
			},
			{
				"x": 4.5674037904,
				"y": -1.7480766199,
				"z": -1.423447859,
				"element": "H" 
			},
			{
				"x": 3.7893930618,
				"y": -0.9181357554,
				"z": -2.7776955793,
				"element": "H" 
			},
			{
				"x": 3.3867216528,
				"y": 2.4601311198,
				"z": 1.6929604034,
				"element": "H" 
			},
			{
				"x": -0.7160215088,
				"y": -1.8406867561,
				"z": -0.6397005336,
				"element": "H" 
			},
			{
				"x": -2.8999414082,
				"y": -2.5831557625,
				"z": 0.2666488143,
				"element": "H" 
			},
			{
				"x": -3.676326011,
				"y": -1.7455807095,
				"z": 2.4788096811,
				"element": "H" 
			},
			{
				"x": -2.2503711769,
				"y": -0.1614913089,
				"z": 3.7615431285,
				"element": "H" 
			},
			{
				"x": -0.1034722568,
				"y": 0.5981864362,
				"z": 2.8460956898,
				"element": "H" 
			}
		],
		 "valence_orbital": [ 
			{
				"type": "occ",
				"energy": -0.29009,
				"method": "rhf"
			},
			{
				"type": "occ",
				"energy": -0.2843,
				"method": "rhf"
			},
			{
				"type": "occ",
				"energy": -0.27228,
				"method": "rhf"
			},
			{
				"type": "occ",
				"energy": -0.24797,
				"method": "rhf"
			},
			{
				"type": "occ",
				"energy": -0.22998,
				"method": "rhf"
			},
			{
				"type": "unocc",
				"energy": -0.07211,
				"method": "rhf"
			},
			{
				"type": "unocc",
				"energy": -0.0189,
				"method": "rhf"
			},
			{
				"type": "unocc",
				"energy": -0.00822,
				"method": "rhf"
			},
			{
				"type": "unocc",
				"energy": 0.00332,
				"method": "rhf"
			},
			{
				"type": "unocc",
				"energy": 0.01958,
				"method": "rhf"
			}
		],
		"cosmo_sigma_profile": { 
			"-0.025": 0.0,
			"-0.024": 0.0,
			"-0.023": 0.0,
			"-0.022": 0.0,
			"-0.021": 0.0,
			"-0.02": 0.0,
			"-0.019": 0.0,
			"-0.018": 0.401855677584,
			"-0.017": 1.10325760617,
			"-0.016": 0.998552237459,
			"-0.015": 0.898876622185,
			"-0.014": 0.350636957002,
			"-0.013": 0.846622736742,
			"-0.012": 1.58439018383,
			"-0.011": 0.963084190197,
			"-0.01": 0.532062182869,
			"-0.009": 0.605853101086,
			"-0.008": 0.857638418711,
			"-0.007": 3.95974846896,
			"-0.006": 16.1063170468,
			"-0.005": 17.2309773114,
			"-0.004": 21.5049652025,
			"-0.003": 17.22016769,
			"-0.002": 19.6081374021,
			"-0.001": 17.8249029495,
			"0.0": 16.5311386089,
			"0.001": 16.8133555733,
			"0.002": 12.7249061257,
			"0.003": 11.8862639191,
			"0.004": 13.2109530556,
			"0.005": 14.2527836339,
			"0.006": 5.01126658859,
			"0.007": 4.48909186563,
			"0.008": 4.36433167011,
			"0.009": 5.12899625528,
			"0.01": 5.6330580681,
			"0.011": 6.28413893917,
			"0.012": 3.66770268052,
			"0.013": 0.559756023121,
			"0.014": 0.0,
			"0.015": 0.0,
			"0.016": 0.0,
			"0.017": 0.0,
			"0.018": 0.0,
			"0.019": 0.0,
			"0.02": 0.0,
			"0.021": 0.0,
			"0.022": 0.0,
			"0.023": 0.0,
			"0.024": 0.0,
			"0.025": 0.0
		}
	}
}
