{
	 "smiles": "CC1=CC(O)=C(C=C1SC1=C(C)C=C(O)C(=C1)C(C)(C)C)C(C)(C)C", 
	 "Tm": 435.15, 
	 "num_atms": 55, 
	 "gaussian": { 
		 "optdone": 1, 
		 "sigma_profile": "yes", 
		 "theory": "DFT", 
		 "functional": "B3LYP", 
		 "basiset": "6-31G**", 
		 "properties": { 
			 "R2extent": 10862.7982, 
			 "electric_dipole_moment_norm": 1.93943251494, 
			 "electric_quadrupole_moment_norm": 14.1530318614, 
			 "total_energy": -1405.08333217, 
			 "HOMO_LUMO_gap": 0.18188, 
			 "cosmo_polarized_energy": -14.01, 
			 "cosmo_cavitation_energy": 54.53, 
			 "cosmo_dispersion_energy": -35.37, 
			 "cosmo_repulsion_energy": 2.66, 
			 "cosmo_total_nonelectrostatic_energy": 21.82, 
			 "SMD_solvation_energy": 9.77 
		},
		"coords": [
			{
				"x": -0.2998766383,
				"y": -2.9136704932,
				"z": -0.9092426756,
				"element": "C" 
			},
			{
				"x": -1.1123445258,
				"y": -1.804896606,
				"z": -0.2913366766,
				"element": "C" 
			},
			{
				"x": -1.8181749225,
				"y": -2.0234974928,
				"z": 0.8930986794,
				"element": "C" 
			},
			{
				"x": -2.5929414886,
				"y": -1.029959557,
				"z": 1.5001804028,
				"element": "C" 
			},
			{
				"x": -3.2685588718,
				"y": -1.3105596138,
				"z": 2.6595996914,
				"element": "O" 
			},
			{
				"x": -2.6976458635,
				"y": 0.2633357608,
				"z": 0.943355073,
				"element": "C" 
			},
			{
				"x": -1.9726223243,
				"y": 0.4709982243,
				"z": -0.2359778149,
				"element": "C" 
			},
			{
				"x": -1.1939263882,
				"y": -0.5173006338,
				"z": -0.8550063904,
				"element": "C" 
			},
			{
				"x": -0.4073921226,
				"y": -0.1148312092,
				"z": -2.4139188673,
				"element": "S" 
			},
			{
				"x": 1.3373171346,
				"y": 0.0535535294,
				"z": -1.9923696387,
				"element": "C" 
			},
			{
				"x": 2.2737765472,
				"y": 0.040177696,
				"z": -3.0438368247,
				"element": "C" 
			},
			{
				"x": 1.8645121736,
				"y": -0.1331909317,
				"z": -4.4850380771,
				"element": "C" 
			},
			{
				"x": 3.6141962064,
				"y": 0.2021172569,
				"z": -2.7007722872,
				"element": "C" 
			},
			{
				"x": 4.0519514119,
				"y": 0.3657758345,
				"z": -1.3795615752,
				"element": "C" 
			},
			{
				"x": 5.3967460541,
				"y": 0.5099617245,
				"z": -1.1386229779,
				"element": "O" 
			},
			{
				"x": 3.1273394073,
				"y": 0.3814969843,
				"z": -0.3172792676,
				"element": "C" 
			},
			{
				"x": 1.7781114274,
				"y": 0.2291852871,
				"z": -0.6811083864,
				"element": "C" 
			},
			{
				"x": 3.4411833231,
				"y": 0.5555597329,
				"z": 1.190011667,
				"element": "C" 
			},
			{
				"x": 2.7146597047,
				"y": 1.8206787428,
				"z": 1.7111492056,
				"element": "C" 
			},
			{
				"x": 2.9190952902,
				"y": -0.6848207301,
				"z": 1.9576695777,
				"element": "C" 
			},
			{
				"x": 4.9373228118,
				"y": 0.7107408912,
				"z": 1.5353401169,
				"element": "C" 
			},
			{
				"x": -3.5472602633,
				"y": 1.3756287267,
				"z": 1.5902952602,
				"element": "C" 
			},
			{
				"x": -3.4883822224,
				"y": 2.6855056002,
				"z": 0.7790121173,
				"element": "C" 
			},
			{
				"x": -5.0303256207,
				"y": 0.9344407866,
				"z": 1.6597176704,
				"element": "C" 
			},
			{
				"x": -3.0216065953,
				"y": 1.6827817511,
				"z": 3.0143994981,
				"element": "C" 
			},
			{
				"x": 0.7671786242,
				"y": -2.6666372264,
				"z": -0.9112824074,
				"element": "H" 
			},
			{
				"x": -0.4328527264,
				"y": -3.8504858053,
				"z": -0.3614473115,
				"element": "H" 
			},
			{
				"x": -0.587305178,
				"y": -3.0757626859,
				"z": -1.9528370839,
				"element": "H" 
			},
			{
				"x": -1.7739789,
				"y": -3.0074415313,
				"z": 1.3589751254,
				"element": "H" 
			},
			{
				"x": -3.0958601622,
				"y": -2.228349105,
				"z": 2.9068128017,
				"element": "H" 
			},
			{
				"x": -2.0020260927,
				"y": 1.4422442471,
				"z": -0.7125441534,
				"element": "H" 
			},
			{
				"x": 1.2283638003,
				"y": 0.6927449132,
				"z": -4.8258866952,
				"element": "H" 
			},
			{
				"x": 1.2871411015,
				"y": -1.0539266377,
				"z": -4.6270973062,
				"element": "H" 
			},
			{
				"x": 2.738961409,
				"y": -0.1728212777,
				"z": -5.1401048769,
				"element": "H" 
			},
			{
				"x": 4.3597699088,
				"y": 0.194867745,
				"z": -3.4958049761,
				"element": "H" 
			},
			{
				"x": 5.8597877012,
				"y": 0.4773701147,
				"z": -1.9852590042,
				"element": "H" 
			},
			{
				"x": 1.0299891288,
				"y": 0.2478697269,
				"z": 0.1025902535,
				"element": "H" 
			},
			{
				"x": 2.90953993,
				"y": 1.9529505056,
				"z": 2.7816008568,
				"element": "H" 
			},
			{
				"x": 3.0701447149,
				"y": 2.7153607507,
				"z": 1.1895517546,
				"element": "H" 
			},
			{
				"x": 1.6308358685,
				"y": 1.7632816787,
				"z": 1.5755825519,
				"element": "H" 
			},
			{
				"x": 3.1125533326,
				"y": -0.5723689758,
				"z": 3.0306662379,
				"element": "H" 
			},
			{
				"x": 3.4261281436,
				"y": -1.5937478749,
				"z": 1.616817291,
				"element": "H" 
			},
			{
				"x": 1.8431061172,
				"y": -0.8326253714,
				"z": 1.8280478338,
				"element": "H" 
			},
			{
				"x": 5.5226268835,
				"y": -0.1583883063,
				"z": 1.2287301128,
				"element": "H" 
			},
			{
				"x": 5.0331208027,
				"y": 0.820412204,
				"z": 2.621691368,
				"element": "H" 
			},
			{
				"x": 5.3790644703,
				"y": 1.5910667837,
				"z": 1.0647547057,
				"element": "H" 
			},
			{
				"x": -3.8749107461,
				"y": 2.5587572494,
				"z": -0.2376524983,
				"element": "H" 
			},
			{
				"x": -2.470871041,
				"y": 3.0848175072,
				"z": 0.7130235188,
				"element": "H" 
			},
			{
				"x": -4.1061022825,
				"y": 3.4421674596,
				"z": 1.2731431378,
				"element": "H" 
			},
			{
				"x": -5.6350072675,
				"y": 1.7282588392,
				"z": 2.1131159442,
				"element": "H" 
			},
			{
				"x": -5.4243889748,
				"y": 0.744167392,
				"z": 0.6555372591,
				"element": "H" 
			},
			{
				"x": -5.1550621552,
				"y": 0.0286315145,
				"z": 2.2547535515,
				"element": "H" 
			},
			{
				"x": -3.0700358094,
				"y": 0.8054450442,
				"z": 3.6609508527,
				"element": "H" 
			},
			{
				"x": -1.9821572637,
				"y": 2.0265926519,
				"z": 2.977123704,
				"element": "H" 
			},
			{
				"x": -3.6220069831,
				"y": 2.4782372085,
				"z": 3.470589952,
				"element": "H" 
			}
		],
		 "valence_orbital": [ 
			{
				"type": "occ",
				"energy": -0.25676,
				"method": "rhf"
			},
			{
				"type": "occ",
				"energy": -0.24434,
				"method": "rhf"
			},
			{
				"type": "occ",
				"energy": -0.23268,
				"method": "rhf"
			},
			{
				"type": "occ",
				"energy": -0.21988,
				"method": "rhf"
			},
			{
				"type": "occ",
				"energy": -0.18933,
				"method": "rhf"
			},
			{
				"type": "unocc",
				"energy": -0.00745,
				"method": "rhf"
			},
			{
				"type": "unocc",
				"energy": -0.00309,
				"method": "rhf"
			},
			{
				"type": "unocc",
				"energy": 0.00512,
				"method": "rhf"
			},
			{
				"type": "unocc",
				"energy": 0.01732,
				"method": "rhf"
			},
			{
				"type": "unocc",
				"energy": 0.058,
				"method": "rhf"
			}
		],
		"cosmo_sigma_profile": { 
			"-0.025": 0.0,
			"-0.024": 0.0,
			"-0.023": 0.0,
			"-0.022": 0.0,
			"-0.021": 0.0,
			"-0.02": 0.0,
			"-0.019": 0.0,
			"-0.018": 0.403923294804,
			"-0.017": 1.8117551629,
			"-0.016": 2.34019337665,
			"-0.015": 2.10005607249,
			"-0.014": 2.20058942043,
			"-0.013": 1.59484114565,
			"-0.012": 0.978535328443,
			"-0.011": 1.85892070877,
			"-0.01": 2.53584249064,
			"-0.009": 2.76011635845,
			"-0.008": 1.66133646889,
			"-0.007": 2.28437555325,
			"-0.006": 4.22933168088,
			"-0.005": 7.62159318793,
			"-0.004": 12.1542800244,
			"-0.003": 24.8571227525,
			"-0.002": 48.966733204,
			"-0.001": 48.3012392874,
			"0.0": 55.3487114819,
			"0.001": 60.6062632321,
			"0.002": 46.9656045459,
			"0.003": 26.6879529875,
			"0.004": 22.9583232045,
			"0.005": 19.2551787099,
			"0.006": 14.0064223862,
			"0.007": 5.71024842513,
			"0.008": 4.71619666477,
			"0.009": 1.7621182474,
			"0.01": 0.011671189357,
			"0.011": 0.0,
			"0.012": 0.0,
			"0.013": 0.0,
			"0.014": 0.0,
			"0.015": 0.0,
			"0.016": 0.0,
			"0.017": 0.0,
			"0.018": 0.0,
			"0.019": 0.0,
			"0.02": 0.0,
			"0.021": 0.0,
			"0.022": 0.0,
			"0.023": 0.0,
			"0.024": 0.0,
			"0.025": 0.0
		}
	}
}
