{
	 "smiles": "CCCCC(=O)OC1(CCC2C3CCC4=CC(=O)C=CC4(C)C3C(O)CC12C)C(=O)CO", 
	 "Tm": 485.15, 
	 "num_atms": 68, 
	 "gaussian": { 
		 "optdone": 1, 
		 "sigma_profile": "yes", 
		 "theory": "DFT", 
		 "functional": "B3LYP", 
		 "basiset": "6-31G**", 
		 "properties": { 
			 "R2extent": 18385.3254, 
			 "electric_dipole_moment_norm": 8.47541444178, 
			 "electric_quadrupole_moment_norm": 30.4417873099, 
			 "total_energy": -1463.7780067, 
			 "HOMO_LUMO_gap": 0.17566, 
			 "cosmo_polarized_energy": -26.07, 
			 "cosmo_cavitation_energy": 61.19, 
			 "cosmo_dispersion_energy": -40.28, 
			 "cosmo_repulsion_energy": 2.97, 
			 "cosmo_total_nonelectrostatic_energy": 23.87, 
			 "SMD_solvation_energy": 10.56 
		},
		"coords": [
			{
				"x": -5.049916749,
				"y": -3.7130238087,
				"z": -3.4290628304,
				"element": "C" 
			},
			{
				"x": -3.5299194191,
				"y": -3.6935975457,
				"z": -3.6228328278,
				"element": "C" 
			},
			{
				"x": -2.7280510396,
				"y": -4.1599622392,
				"z": -2.3966868406,
				"element": "C" 
			},
			{
				"x": -2.9152371765,
				"y": -3.3281082875,
				"z": -1.1046101594,
				"element": "C" 
			},
			{
				"x": -2.4398682106,
				"y": -1.8986654378,
				"z": -1.2422810105,
				"element": "C" 
			},
			{
				"x": -2.9681896679,
				"y": -1.0476158599,
				"z": -1.9292665269,
				"element": "O" 
			},
			{
				"x": -1.3163447909,
				"y": -1.6719299626,
				"z": -0.5125296928,
				"element": "O" 
			},
			{
				"x": -0.7967146472,
				"y": -0.3162193479,
				"z": -0.4516742527,
				"element": "C" 
			},
			{
				"x": -1.8255498016,
				"y": 0.7002577028,
				"z": 0.1367522005,
				"element": "C" 
			},
			{
				"x": -1.1002444654,
				"y": 1.4985958465,
				"z": 1.2490407795,
				"element": "C" 
			},
			{
				"x": 0.3843834407,
				"y": 1.1872550659,
				"z": 1.0195169821,
				"element": "C" 
			},
			{
				"x": 1.4206691764,
				"y": 1.5816719939,
				"z": 2.098302511,
				"element": "C" 
			},
			{
				"x": 0.9459302259,
				"y": 1.581029387,
				"z": 3.5679186155,
				"element": "C" 
			},
			{
				"x": 2.1633681143,
				"y": 1.7137580041,
				"z": 4.5369181849,
				"element": "C" 
			},
			{
				"x": 3.3035526313,
				"y": 2.3756895455,
				"z": 3.8085211207,
				"element": "C" 
			},
			{
				"x": 3.6919487888,
				"y": 3.6382579264,
				"z": 4.0656534918,
				"element": "C" 
			},
			{
				"x": 4.6376414841,
				"y": 4.375594972,
				"z": 3.2057704933,
				"element": "C" 
			},
			{
				"x": 5.0129041243,
				"y": 5.5153374996,
				"z": 3.4723119079,
				"element": "O" 
			},
			{
				"x": 5.0665311379,
				"y": 3.6742860065,
				"z": 1.976375533,
				"element": "C" 
			},
			{
				"x": 4.7107804604,
				"y": 2.406435599,
				"z": 1.720668452,
				"element": "C" 
			},
			{
				"x": 3.9087092778,
				"y": 1.5519771386,
				"z": 2.6756717346,
				"element": "C" 
			},
			{
				"x": 4.9259381105,
				"y": 0.5438240541,
				"z": 3.3007481049,
				"element": "C" 
			},
			{
				"x": 2.7336714302,
				"y": 0.7538491634,
				"z": 1.9808629998,
				"element": "C" 
			},
			{
				"x": 2.9535825296,
				"y": 0.322290499,
				"z": 0.5193883658,
				"element": "C" 
			},
			{
				"x": 4.2281370851,
				"y": -0.2739294962,
				"z": 0.2746075494,
				"element": "O" 
			},
			{
				"x": 1.8336022768,
				"y": -0.632073966,
				"z": 0.0221145284,
				"element": "C" 
			},
			{
				"x": 0.4144509937,
				"y": -0.3019912773,
				"z": 0.5810676225,
				"element": "C" 
			},
			{
				"x": 0.0725545551,
				"y": -1.2791917663,
				"z": 1.729099771,
				"element": "C" 
			},
			{
				"x": -0.2974419728,
				"y": 0.1051588184,
				"z": -1.8366203244,
				"element": "C" 
			},
			{
				"x": -0.0948187455,
				"y": 1.2804192468,
				"z": -2.0957303503,
				"element": "O" 
			},
			{
				"x": 0.0599069662,
				"y": -0.9380709775,
				"z": -2.8974589946,
				"element": "C" 
			},
			{
				"x": 1.0600518691,
				"y": -0.440386499,
				"z": -3.749579983,
				"element": "O" 
			},
			{
				"x": -5.3698616209,
				"y": -2.9735568475,
				"z": -2.6882679466,
				"element": "H" 
			},
			{
				"x": -5.5632941461,
				"y": -3.4739154842,
				"z": -4.3656283975,
				"element": "H" 
			},
			{
				"x": -5.4010010611,
				"y": -4.6987278319,
				"z": -3.1006574446,
				"element": "H" 
			},
			{
				"x": -3.2179208505,
				"y": -2.683122911,
				"z": -3.9070586836,
				"element": "H" 
			},
			{
				"x": -3.2624322803,
				"y": -4.3492337699,
				"z": -4.4610194206,
				"element": "H" 
			},
			{
				"x": -3.0096245712,
				"y": -5.1925466216,
				"z": -2.1541317515,
				"element": "H" 
			},
			{
				"x": -1.6600525706,
				"y": -4.1870287333,
				"z": -2.6473678357,
				"element": "H" 
			},
			{
				"x": -3.9777403382,
				"y": -3.2857036804,
				"z": -0.8436673851,
				"element": "H" 
			},
			{
				"x": -2.3840318704,
				"y": -3.8059968329,
				"z": -0.278147281,
				"element": "H" 
			},
			{
				"x": -2.1852598281,
				"y": 1.3539664376,
				"z": -0.6576887475,
				"element": "H" 
			},
			{
				"x": -2.6895397478,
				"y": 0.1566849496,
				"z": 0.5243352812,
				"element": "H" 
			},
			{
				"x": -1.429861332,
				"y": 1.1696453387,
				"z": 2.2392543273,
				"element": "H" 
			},
			{
				"x": -1.3089426499,
				"y": 2.5703866564,
				"z": 1.182499631,
				"element": "H" 
			},
			{
				"x": 0.6615688441,
				"y": 1.7479581438,
				"z": 0.119646569,
				"element": "H" 
			},
			{
				"x": 1.7013633165,
				"y": 2.6191711102,
				"z": 1.8713281516,
				"element": "H" 
			},
			{
				"x": 0.3883938052,
				"y": 0.6699608066,
				"z": 3.8080205853,
				"element": "H" 
			},
			{
				"x": 0.2619148511,
				"y": 2.4212463695,
				"z": 3.7262368018,
				"element": "H" 
			},
			{
				"x": 2.4648244149,
				"y": 0.7159468534,
				"z": 4.8793302955,
				"element": "H" 
			},
			{
				"x": 1.8884211075,
				"y": 2.2839096662,
				"z": 5.4284661961,
				"element": "H" 
			},
			{
				"x": 3.2694037808,
				"y": 4.2004372597,
				"z": 4.8952257601,
				"element": "H" 
			},
			{
				"x": 5.7035143338,
				"y": 4.238263517,
				"z": 1.3006790624,
				"element": "H" 
			},
			{
				"x": 5.084558326,
				"y": 1.8987044012,
				"z": 0.8359945005,
				"element": "H" 
			},
			{
				"x": 4.4277121099,
				"y": -0.127113893,
				"z": 4.008789609,
				"element": "H" 
			},
			{
				"x": 5.3818228324,
				"y": -0.0588344834,
				"z": 2.5122948747,
				"element": "H" 
			},
			{
				"x": 5.7169567083,
				"y": 1.0796702906,
				"z": 3.8313102269,
				"element": "H" 
			},
			{
				"x": 2.6119055333,
				"y": -0.1694565142,
				"z": 2.5653491768,
				"element": "H" 
			},
			{
				"x": 2.9597514023,
				"y": 1.220137014,
				"z": -0.1087844037,
				"element": "H" 
			},
			{
				"x": 4.2407151405,
				"y": -1.1388982674,
				"z": 0.7068520493,
				"element": "H" 
			},
			{
				"x": 2.1076550907,
				"y": -1.652242451,
				"z": 0.3237706821,
				"element": "H" 
			},
			{
				"x": 1.8841170793,
				"y": -0.6207288198,
				"z": -1.0693357226,
				"element": "H" 
			},
			{
				"x": 0.8207308434,
				"y": -1.2198765612,
				"z": 2.5218010863,
				"element": "H" 
			},
			{
				"x": -0.9051159171,
				"y": -1.0771524152,
				"z": 2.1745012977,
				"element": "H" 
			},
			{
				"x": 0.0576610108,
				"y": -2.3069716887,
				"z": 1.3606665849,
				"element": "H" 
			},
			{
				"x": -0.8716205596,
				"y": -1.1726576596,
				"z": -3.4388227505,
				"element": "H" 
			},
			{
				"x": 0.412211269,
				"y": -1.8644162348,
				"z": -2.4332729708,
				"element": "H" 
			},
			{
				"x": 0.9355795519,
				"y": 0.5236708883,
				"z": -3.7580791631,
				"element": "H" 
			}
		],
		 "valence_orbital": [ 
			{
				"type": "occ",
				"energy": -0.27229,
				"method": "rhf"
			},
			{
				"type": "occ",
				"energy": -0.26281,
				"method": "rhf"
			},
			{
				"type": "occ",
				"energy": -0.26225,
				"method": "rhf"
			},
			{
				"type": "occ",
				"energy": -0.25359,
				"method": "rhf"
			},
			{
				"type": "occ",
				"energy": -0.22898,
				"method": "rhf"
			},
			{
				"type": "unocc",
				"energy": -0.05332,
				"method": "rhf"
			},
			{
				"type": "unocc",
				"energy": -0.04038,
				"method": "rhf"
			},
			{
				"type": "unocc",
				"energy": -0.01364,
				"method": "rhf"
			},
			{
				"type": "unocc",
				"energy": 0.00503,
				"method": "rhf"
			},
			{
				"type": "unocc",
				"energy": 0.05444,
				"method": "rhf"
			}
		],
		"cosmo_sigma_profile": { 
			"-0.025": 0.0,
			"-0.024": 0.0,
			"-0.023": 0.0,
			"-0.022": 0.0,
			"-0.021": 0.0,
			"-0.02": 0.0,
			"-0.019": 0.0,
			"-0.018": 0.0,
			"-0.017": 0.0,
			"-0.016": 0.0,
			"-0.015": 0.434066869562,
			"-0.014": 0.814913124969,
			"-0.013": 1.10571472166,
			"-0.012": 1.12327793988,
			"-0.011": 2.05689088854,
			"-0.01": 1.97289582799,
			"-0.009": 1.57001375651,
			"-0.008": 2.31827247059,
			"-0.007": 2.57063451515,
			"-0.006": 8.28065904316,
			"-0.005": 25.4966423162,
			"-0.004": 40.5934314059,
			"-0.003": 57.9320339802,
			"-0.002": 64.8446242314,
			"-0.001": 57.5156878064,
			"0.0": 49.6899543144,
			"0.001": 36.8934080133,
			"0.002": 22.3768545381,
			"0.003": 14.6916608895,
			"0.004": 11.093699342,
			"0.005": 8.24273463936,
			"0.006": 5.99431035451,
			"0.007": 7.13896336236,
			"0.008": 6.93688381746,
			"0.009": 6.8483402368,
			"0.01": 7.74735391209,
			"0.011": 6.51916214661,
			"0.012": 5.64659635209,
			"0.013": 8.16242535673,
			"0.014": 5.85802297135,
			"0.015": 1.48652325125,
			"0.016": 0.0,
			"0.017": 0.0,
			"0.018": 0.0,
			"0.019": 0.0,
			"0.02": 0.0,
			"0.021": 0.0,
			"0.022": 0.0,
			"0.023": 0.0,
			"0.024": 0.0,
			"0.025": 0.0
		}
	}
}
