{
	 "smiles": "ClCOC(=O)OC1CCCCC1", 
	 "Tm": 310.15, 
	 "num_atms": 25, 
	 "gaussian": { 
		 "optdone": 1, 
		 "sigma_profile": "yes", 
		 "theory": "DFT", 
		 "functional": "B3LYP", 
		 "basiset": "6-31G**", 
		 "properties": { 
			 "R2extent": 4098.6343, 
			 "electric_dipole_moment_norm": 2.43118404486, 
			 "electric_quadrupole_moment_norm": 10.3911856422, 
			 "total_energy": -998.567198638, 
			 "HOMO_LUMO_gap": 0.30939, 
			 "cosmo_polarized_energy": -7.24, 
			 "cosmo_cavitation_energy": 28.15, 
			 "cosmo_dispersion_energy": -21.4, 
			 "cosmo_repulsion_energy": 1.76, 
			 "cosmo_total_nonelectrostatic_energy": 8.5, 
			 "SMD_solvation_energy": 5.12 
		},
		"coords": [
			{
				"x": 5.3775165739,
				"y": -0.5936985964,
				"z": 2.2607147715,
				"element": "Cl" 
			},
			{
				"x": 3.8626905701,
				"y": 0.1989576455,
				"z": 1.7422708111,
				"element": "C" 
			},
			{
				"x": 3.0860745176,
				"y": -0.779500393,
				"z": 1.0641045665,
				"element": "O" 
			},
			{
				"x": 1.8959471875,
				"y": -0.3077259181,
				"z": 0.6141010996,
				"element": "C" 
			},
			{
				"x": 1.5257186465,
				"y": 0.8372410919,
				"z": 0.7725254645,
				"element": "O" 
			},
			{
				"x": 1.2845079334,
				"y": -1.3156604187,
				"z": 0.0091682814,
				"element": "O" 
			},
			{
				"x": -0.0447635324,
				"y": -1.2101547839,
				"z": -0.6160387129,
				"element": "C" 
			},
			{
				"x": -0.0810569124,
				"y": -0.2868854523,
				"z": -1.8464523501,
				"element": "C" 
			},
			{
				"x": -0.4929029187,
				"y": 1.171609821,
				"z": -1.5848207796,
				"element": "C" 
			},
			{
				"x": -1.7636155822,
				"y": 1.2475508927,
				"z": -0.7247775824,
				"element": "C" 
			},
			{
				"x": -1.5758190873,
				"y": 0.5111933486,
				"z": 0.6102631775,
				"element": "C" 
			},
			{
				"x": -1.1840624902,
				"y": -0.9592084483,
				"z": 0.387383512,
				"element": "C" 
			},
			{
				"x": 4.115952719,
				"y": 1.0257766402,
				"z": 1.0784839696,
				"element": "H" 
			},
			{
				"x": 3.3438213991,
				"y": 0.5642039146,
				"z": 2.628692405,
				"element": "H" 
			},
			{
				"x": -0.1351706726,
				"y": -2.2396793555,
				"z": -0.9705342027,
				"element": "H" 
			},
			{
				"x": -0.8166856971,
				"y": -0.7353367164,
				"z": -2.5287851152,
				"element": "H" 
			},
			{
				"x": 0.8841158841,
				"y": -0.3466975603,
				"z": -2.3617765152,
				"element": "H" 
			},
			{
				"x": 0.3166543343,
				"y": 1.7032078214,
				"z": -1.0793574327,
				"element": "H" 
			},
			{
				"x": -0.6578158551,
				"y": 1.6671350938,
				"z": -2.549235267,
				"element": "H" 
			},
			{
				"x": -2.6067723942,
				"y": 0.8024282754,
				"z": -1.2745636628,
				"element": "H" 
			},
			{
				"x": -2.0307690338,
				"y": 2.2946289639,
				"z": -0.5416592382,
				"element": "H" 
			},
			{
				"x": -0.8057055225,
				"y": 1.0182053741,
				"z": 1.1961991572,
				"element": "H" 
			},
			{
				"x": -2.504020425,
				"y": 0.541694484,
				"z": 1.1936616141,
				"element": "H" 
			},
			{
				"x": -0.939865316,
				"y": -1.4586803358,
				"z": 1.3316205155,
				"element": "H" 
			},
			{
				"x": -2.056274326,
				"y": -1.4901053884,
				"z": -0.0190884866,
				"element": "H" 
			}
		],
		 "valence_orbital": [ 
			{
				"type": "occ",
				"energy": -0.31814,
				"method": "rhf"
			},
			{
				"type": "occ",
				"energy": -0.30792,
				"method": "rhf"
			},
			{
				"type": "occ",
				"energy": -0.30396,
				"method": "rhf"
			},
			{
				"type": "occ",
				"energy": -0.29367,
				"method": "rhf"
			},
			{
				"type": "occ",
				"energy": -0.28668,
				"method": "rhf"
			},
			{
				"type": "unocc",
				"energy": 0.02271,
				"method": "rhf"
			},
			{
				"type": "unocc",
				"energy": 0.02617,
				"method": "rhf"
			},
			{
				"type": "unocc",
				"energy": 0.06705,
				"method": "rhf"
			},
			{
				"type": "unocc",
				"energy": 0.08973,
				"method": "rhf"
			},
			{
				"type": "unocc",
				"energy": 0.09679,
				"method": "rhf"
			}
		],
		"cosmo_sigma_profile": { 
			"-0.025": 0.0,
			"-0.024": 0.0,
			"-0.023": 0.0,
			"-0.022": 0.0,
			"-0.021": 0.0,
			"-0.02": 0.0,
			"-0.019": 0.0,
			"-0.018": 0.0,
			"-0.017": 0.0,
			"-0.016": 0.0,
			"-0.015": 0.0,
			"-0.014": 0.0,
			"-0.013": 0.0,
			"-0.012": 0.0,
			"-0.011": 0.0,
			"-0.01": 0.168812092293,
			"-0.009": 3.918236112,
			"-0.008": 4.43751233872,
			"-0.007": 3.96466876248,
			"-0.006": 5.05013977171,
			"-0.005": 7.60684846771,
			"-0.004": 14.1156010288,
			"-0.003": 17.8328176942,
			"-0.002": 25.5878904099,
			"-0.001": 25.4306798041,
			"0.0": 25.5053324002,
			"0.001": 22.6211476364,
			"0.002": 11.2161338491,
			"0.003": 8.20509563289,
			"0.004": 10.5384202843,
			"0.005": 13.6860039619,
			"0.006": 5.52891415773,
			"0.007": 4.16163402321,
			"0.008": 4.41127154405,
			"0.009": 4.31862256348,
			"0.01": 2.23476906235,
			"0.011": 1.31087860981,
			"0.012": 0.0655348747677,
			"0.013": 0.0,
			"0.014": 0.0,
			"0.015": 0.0,
			"0.016": 0.0,
			"0.017": 0.0,
			"0.018": 0.0,
			"0.019": 0.0,
			"0.02": 0.0,
			"0.021": 0.0,
			"0.022": 0.0,
			"0.023": 0.0,
			"0.024": 0.0,
			"0.025": 0.0
		}
	}
}
