{
	 "smiles": "COC1=C(OC(F)F)C(C=O)=CC=C1", 
	 "Tm": 304.15, 
	 "num_atms": 22, 
	 "gaussian": { 
		 "optdone": 1, 
		 "sigma_profile": "yes", 
		 "theory": "DFT", 
		 "functional": "B3LYP", 
		 "basiset": "6-31G**", 
		 "properties": { 
			 "R2extent": 2836.6168, 
			 "electric_dipole_moment_norm": 5.08142350725, 
			 "electric_quadrupole_moment_norm": 7.60020292032, 
			 "total_energy": -773.086116912, 
			 "HOMO_LUMO_gap": 0.18163, 
			 "cosmo_polarized_energy": -12.25, 
			 "cosmo_cavitation_energy": 27.52, 
			 "cosmo_dispersion_energy": -19.04, 
			 "cosmo_repulsion_energy": 1.46, 
			 "cosmo_total_nonelectrostatic_energy": 9.94, 
			 "SMD_solvation_energy": 7.67 
		},
		"coords": [
			{
				"x": 1.5363532996,
				"y": 2.3057705128,
				"z": -2.4142804149,
				"element": "C" 
			},
			{
				"x": 1.9595584407,
				"y": 0.9752360373,
				"z": -2.073629677,
				"element": "O" 
			},
			{
				"x": 2.0978167366,
				"y": 0.7323878254,
				"z": -0.7280220388,
				"element": "C" 
			},
			{
				"x": 0.9696452892,
				"y": 0.5644670229,
				"z": 0.09124024,
				"element": "C" 
			},
			{
				"x": -0.2875349623,
				"y": 0.7441376001,
				"z": -0.4522771982,
				"element": "O" 
			},
			{
				"x": -0.7438328696,
				"y": -0.2747985273,
				"z": -1.2739435299,
				"element": "C" 
			},
			{
				"x": -1.8591163348,
				"y": 0.191914957,
				"z": -1.8606886553,
				"element": "F" 
			},
			{
				"x": -1.0702898246,
				"y": -1.3640081248,
				"z": -0.5351647245,
				"element": "F" 
			},
			{
				"x": 1.1253102403,
				"y": 0.2795414911,
				"z": 1.4598578488,
				"element": "C" 
			},
			{
				"x": -0.0082000669,
				"y": 0.0929815708,
				"z": 2.4075149029,
				"element": "C" 
			},
			{
				"x": -1.1909671863,
				"y": 0.1724871392,
				"z": 2.1578361169,
				"element": "O" 
			},
			{
				"x": 2.4227754565,
				"y": 0.1534070061,
				"z": 1.9799369569,
				"element": "C" 
			},
			{
				"x": 3.5428785549,
				"y": 0.2974778271,
				"z": 1.1665528716,
				"element": "C" 
			},
			{
				"x": 3.3782260653,
				"y": 0.5907861841,
				"z": -0.1870804601,
				"element": "C" 
			},
			{
				"x": 1.4887133673,
				"y": 2.3371447049,
				"z": -3.503986622,
				"element": "H" 
			},
			{
				"x": 2.2652672461,
				"y": 3.0443657174,
				"z": -2.0600623214,
				"element": "H" 
			},
			{
				"x": 0.5510272639,
				"y": 2.5297442879,
				"z": -1.9951804438,
				"element": "H" 
			},
			{
				"x": -0.0105857513,
				"y": -0.5682399928,
				"z": -2.0319152222,
				"element": "H" 
			},
			{
				"x": 0.3409161838,
				"y": -0.1386503173,
				"z": 3.4404814364,
				"element": "H" 
			},
			{
				"x": 2.5395800738,
				"y": -0.0686788653,
				"z": 3.0376361536,
				"element": "H" 
			},
			{
				"x": 4.5400268505,
				"y": 0.1893910615,
				"z": 1.5811994488,
				"element": "H" 
			},
			{
				"x": 4.2292319272,
				"y": 0.7124348818,
				"z": -0.8496246677,
				"element": "H" 
			}
		],
		 "valence_orbital": [ 
			{
				"type": "occ",
				"energy": -0.32991,
				"method": "rhf"
			},
			{
				"type": "occ",
				"energy": -0.29579,
				"method": "rhf"
			},
			{
				"type": "occ",
				"energy": -0.27201,
				"method": "rhf"
			},
			{
				"type": "occ",
				"energy": -0.25768,
				"method": "rhf"
			},
			{
				"type": "occ",
				"energy": -0.25063,
				"method": "rhf"
			},
			{
				"type": "unocc",
				"energy": -0.069,
				"method": "rhf"
			},
			{
				"type": "unocc",
				"energy": -0.02251,
				"method": "rhf"
			},
			{
				"type": "unocc",
				"energy": 0.03229,
				"method": "rhf"
			},
			{
				"type": "unocc",
				"energy": 0.07274,
				"method": "rhf"
			},
			{
				"type": "unocc",
				"energy": 0.09432,
				"method": "rhf"
			}
		],
		"cosmo_sigma_profile": { 
			"-0.025": 0.0,
			"-0.024": 0.0,
			"-0.023": 0.0,
			"-0.022": 0.0,
			"-0.021": 0.0,
			"-0.02": 0.0,
			"-0.019": 0.0,
			"-0.018": 0.0,
			"-0.017": 0.0,
			"-0.016": 0.0,
			"-0.015": 0.0,
			"-0.014": 0.0,
			"-0.013": 0.0,
			"-0.012": 0.0,
			"-0.011": 0.0,
			"-0.01": 0.267838655192,
			"-0.009": 1.50675865851,
			"-0.008": 4.97056420864,
			"-0.007": 9.82609163113,
			"-0.006": 12.936322279,
			"-0.005": 14.7429589286,
			"-0.004": 15.9150161508,
			"-0.003": 20.9455788672,
			"-0.002": 16.1683055354,
			"-0.001": 12.7301219136,
			"0.0": 12.7506179339,
			"0.001": 14.010733889,
			"0.002": 13.8202299733,
			"0.003": 21.1387523308,
			"0.004": 15.7812074797,
			"0.005": 5.26260209225,
			"0.006": 3.39668542285,
			"0.007": 3.32874093052,
			"0.008": 3.67004686202,
			"0.009": 3.71310876584,
			"0.01": 4.2347228544,
			"0.011": 5.12726603868,
			"0.012": 3.49702961892,
			"0.013": 0.492051146742,
			"0.014": 0.0,
			"0.015": 0.0,
			"0.016": 0.0,
			"0.017": 0.0,
			"0.018": 0.0,
			"0.019": 0.0,
			"0.02": 0.0,
			"0.021": 0.0,
			"0.022": 0.0,
			"0.023": 0.0,
			"0.024": 0.0,
			"0.025": 0.0
		}
	}
}
