{
	 "smiles": "OC(=O)C1=CC=C(S1)S(Cl)(=O)=O", 
	 "Tm": 393.15, 
	 "num_atms": 15, 
	 "gaussian": { 
		 "optdone": 1, 
		 "sigma_profile": "yes", 
		 "theory": "DFT", 
		 "functional": "B3LYP", 
		 "basiset": "6-31G**", 
		 "properties": { 
			 "R2extent": 4297.1021, 
			 "electric_dipole_moment_norm": 5.40108290346, 
			 "electric_quadrupole_moment_norm": 6.22659207914, 
			 "total_energy": -1749.72313269, 
			 "HOMO_LUMO_gap": 0.17622, 
			 "cosmo_polarized_energy": -13.2, 
			 "cosmo_cavitation_energy": 25.97, 
			 "cosmo_dispersion_energy": -19.9, 
			 "cosmo_repulsion_energy": 1.51, 
			 "cosmo_total_nonelectrostatic_energy": 7.57, 
			 "SMD_solvation_energy": 4.23 
		},
		"coords": [
			{
				"x": 1.874982926,
				"y": 1.1655030202,
				"z": 3.3249705187,
				"element": "O" 
			},
			{
				"x": 2.5393822163,
				"y": 0.7364884714,
				"z": 2.229700644,
				"element": "C" 
			},
			{
				"x": 3.736893436,
				"y": 0.5416780307,
				"z": 2.1992534215,
				"element": "O" 
			},
			{
				"x": 1.637814314,
				"y": 0.5359079185,
				"z": 1.0796291812,
				"element": "C" 
			},
			{
				"x": 0.2721600364,
				"y": 0.7124672865,
				"z": 1.005660405,
				"element": "C" 
			},
			{
				"x": -0.2459116046,
				"y": 0.4031260012,
				"z": -0.2747713852,
				"element": "C" 
			},
			{
				"x": 0.7515884743,
				"y": -0.0043887808,
				"z": -1.1315635517,
				"element": "C" 
			},
			{
				"x": 2.3278165287,
				"y": -0.0216507857,
				"z": -0.4123939398,
				"element": "S" 
			},
			{
				"x": 0.4933523718,
				"y": -0.4788180604,
				"z": -2.8108700571,
				"element": "S" 
			},
			{
				"x": 0.7701195284,
				"y": 1.365493941,
				"z": -3.8295724418,
				"element": "Cl" 
			},
			{
				"x": 1.5876078934,
				"y": -1.3431977139,
				"z": -3.2287601412,
				"element": "O" 
			},
			{
				"x": -0.9092850472,
				"y": -0.8291442499,
				"z": -2.9803502356,
				"element": "O" 
			},
			{
				"x": 2.5406861554,
				"y": 1.2710697466,
				"z": 4.0251649839,
				"element": "H" 
			},
			{
				"x": -0.3221547409,
				"y": 1.04594546,
				"z": 1.8469585945,
				"element": "H" 
			},
			{
				"x": -1.2881524881,
				"y": 0.4659197146,
				"z": -0.5617559962,
				"element": "H" 
			}
		],
		 "valence_orbital": [ 
			{
				"type": "occ",
				"energy": -0.34207,
				"method": "rhf"
			},
			{
				"type": "occ",
				"energy": -0.3226,
				"method": "rhf"
			},
			{
				"type": "occ",
				"energy": -0.30916,
				"method": "rhf"
			},
			{
				"type": "occ",
				"energy": -0.29971,
				"method": "rhf"
			},
			{
				"type": "occ",
				"energy": -0.28891,
				"method": "rhf"
			},
			{
				"type": "unocc",
				"energy": -0.11269,
				"method": "rhf"
			},
			{
				"type": "unocc",
				"energy": -0.07606,
				"method": "rhf"
			},
			{
				"type": "unocc",
				"energy": -0.01629,
				"method": "rhf"
			},
			{
				"type": "unocc",
				"energy": -0.0092,
				"method": "rhf"
			},
			{
				"type": "unocc",
				"energy": 0.02834,
				"method": "rhf"
			}
		],
		"cosmo_sigma_profile": { 
			"-0.025": 0.0,
			"-0.024": 0.0,
			"-0.023": 0.0,
			"-0.022": 0.0,
			"-0.021": 0.0,
			"-0.02": 0.133095408303,
			"-0.019": 0.910728196709,
			"-0.018": 0.933951874969,
			"-0.017": 0.741740738916,
			"-0.016": 1.0144437425,
			"-0.015": 0.271176567649,
			"-0.014": 0.304339871628,
			"-0.013": 1.14862262094,
			"-0.012": 1.3967237919,
			"-0.011": 0.703108028405,
			"-0.01": 2.03078749031,
			"-0.009": 3.902371584,
			"-0.008": 4.88044409149,
			"-0.007": 4.98941693897,
			"-0.006": 5.54622868645,
			"-0.005": 5.62976434441,
			"-0.004": 9.43658174552,
			"-0.003": 13.731211623,
			"-0.002": 20.7731018864,
			"-0.001": 24.395572173,
			"0.0": 18.4022746445,
			"0.001": 12.5674291692,
			"0.002": 13.1695744318,
			"0.003": 16.0012926491,
			"0.004": 6.66413759101,
			"0.005": 5.15342145695,
			"0.006": 8.0930995684,
			"0.007": 10.9964739181,
			"0.008": 9.82092519938,
			"0.009": 3.06412835586,
			"0.01": 3.64570676462,
			"0.011": 3.40249047187,
			"0.012": 0.112871721822,
			"0.013": 0.0,
			"0.014": 0.0,
			"0.015": 0.0,
			"0.016": 0.0,
			"0.017": 0.0,
			"0.018": 0.0,
			"0.019": 0.0,
			"0.02": 0.0,
			"0.021": 0.0,
			"0.022": 0.0,
			"0.023": 0.0,
			"0.024": 0.0,
			"0.025": 0.0
		}
	}
}
