{
	 "smiles": "ClC1=CC2=C(Cl)C=CC=C2C(Cl)=C1Cl", 
	 "Tm": 414.15, 
	 "num_atms": 18, 
	 "gaussian": { 
		 "optdone": 1, 
		 "sigma_profile": "yes", 
		 "theory": "DFT", 
		 "functional": "B3LYP", 
		 "basiset": "6-31G**", 
		 "properties": { 
			 "R2extent": 5090.3138, 
			 "electric_dipole_moment_norm": 2.6743865577, 
			 "electric_quadrupole_moment_norm": 5.42445175294, 
			 "total_energy": -2224.2445178, 
			 "HOMO_LUMO_gap": 0.16243, 
			 "cosmo_polarized_energy": -4.17, 
			 "cosmo_cavitation_energy": 28.94, 
			 "cosmo_dispersion_energy": -22.16, 
			 "cosmo_repulsion_energy": 1.71, 
			 "cosmo_total_nonelectrostatic_energy": 8.49, 
			 "SMD_solvation_energy": 3.66 
		},
		"coords": [
			{
				"x": 2.7500040296,
				"y": -1.2934736542,
				"z": -2.8607531088,
				"element": "Cl" 
			},
			{
				"x": 1.4492239548,
				"y": -0.5321993909,
				"z": -1.981185667,
				"element": "C" 
			},
			{
				"x": 1.735424627,
				"y": 0.5548871931,
				"z": -1.1927896983,
				"element": "C" 
			},
			{
				"x": 0.7167335615,
				"y": 1.2078976096,
				"z": -0.4594375228,
				"element": "C" 
			},
			{
				"x": 0.9691876114,
				"y": 2.3401943216,
				"z": 0.3717303709,
				"element": "C" 
			},
			{
				"x": 2.603372245,
				"y": 2.9722079315,
				"z": 0.5099072301,
				"element": "Cl" 
			},
			{
				"x": -0.0340301263,
				"y": 2.9617403,
				"z": 1.0771044503,
				"element": "C" 
			},
			{
				"x": -1.355858231,
				"y": 2.4742779527,
				"z": 0.9839679702,
				"element": "C" 
			},
			{
				"x": -1.6535319686,
				"y": 1.3861810351,
				"z": 0.1972615896,
				"element": "C" 
			},
			{
				"x": -0.6343729878,
				"y": 0.7280226394,
				"z": -0.5402531728,
				"element": "C" 
			},
			{
				"x": -0.8908538265,
				"y": -0.4061606886,
				"z": -1.3720133762,
				"element": "C" 
			},
			{
				"x": -2.5263435975,
				"y": -1.0105858437,
				"z": -1.4882865666,
				"element": "Cl" 
			},
			{
				"x": 0.1196190954,
				"y": -1.0336947019,
				"z": -2.0836237239,
				"element": "C" 
			},
			{
				"x": -0.209310316,
				"y": -2.4099466054,
				"z": -3.0890000409,
				"element": "Cl" 
			},
			{
				"x": 2.7540643295,
				"y": 0.9146161504,
				"z": -1.1334677985,
				"element": "H" 
			},
			{
				"x": 0.1948570701,
				"y": 3.8197921145,
				"z": 1.6987793202,
				"element": "H" 
			},
			{
				"x": -2.1425935128,
				"y": 2.9700847147,
				"z": 1.5437200507,
				"element": "H" 
			},
			{
				"x": -2.6704919579,
				"y": 1.0212589221,
				"z": 0.1335396937,
				"element": "H" 
			}
		],
		 "valence_orbital": [ 
			{
				"type": "occ",
				"energy": -0.32152,
				"method": "rhf"
			},
			{
				"type": "occ",
				"energy": -0.31004,
				"method": "rhf"
			},
			{
				"type": "occ",
				"energy": -0.28494,
				"method": "rhf"
			},
			{
				"type": "occ",
				"energy": -0.26274,
				"method": "rhf"
			},
			{
				"type": "occ",
				"energy": -0.23605,
				"method": "rhf"
			},
			{
				"type": "unocc",
				"energy": -0.07362,
				"method": "rhf"
			},
			{
				"type": "unocc",
				"energy": -0.0442,
				"method": "rhf"
			},
			{
				"type": "unocc",
				"energy": -0.02223,
				"method": "rhf"
			},
			{
				"type": "unocc",
				"energy": 0.00236,
				"method": "rhf"
			},
			{
				"type": "unocc",
				"energy": 0.01367,
				"method": "rhf"
			}
		],
		"cosmo_sigma_profile": { 
			"-0.025": 0.0,
			"-0.024": 0.0,
			"-0.023": 0.0,
			"-0.022": 0.0,
			"-0.021": 0.0,
			"-0.02": 0.0,
			"-0.019": 0.0,
			"-0.018": 0.0,
			"-0.017": 0.0,
			"-0.016": 0.0,
			"-0.015": 0.0,
			"-0.014": 0.0,
			"-0.013": 0.0,
			"-0.012": 0.0,
			"-0.011": 0.0,
			"-0.01": 0.0,
			"-0.009": 0.0285488658566,
			"-0.008": 1.82947930956,
			"-0.007": 5.81473346592,
			"-0.006": 8.32029758551,
			"-0.005": 6.38295692027,
			"-0.004": 8.048029955,
			"-0.003": 10.6797694695,
			"-0.002": 18.2697671703,
			"-0.001": 35.3408330953,
			"0.0": 37.7711359962,
			"0.001": 28.3744926649,
			"0.002": 28.1435424511,
			"0.003": 29.5843763936,
			"0.004": 21.760312819,
			"0.005": 2.64017175707,
			"0.006": 0.0,
			"0.007": 0.0,
			"0.008": 0.0,
			"0.009": 0.0,
			"0.01": 0.0,
			"0.011": 0.0,
			"0.012": 0.0,
			"0.013": 0.0,
			"0.014": 0.0,
			"0.015": 0.0,
			"0.016": 0.0,
			"0.017": 0.0,
			"0.018": 0.0,
			"0.019": 0.0,
			"0.02": 0.0,
			"0.021": 0.0,
			"0.022": 0.0,
			"0.023": 0.0,
			"0.024": 0.0,
			"0.025": 0.0
		}
	}
}
