{
	 "smiles": "CC(C)(S)C(N)C(O)=O", 
	 "Tm": 485.15, 
	 "num_atms": 20, 
	 "gaussian": { 
		 "optdone": 1, 
		 "sigma_profile": "yes", 
		 "theory": "DFT", 
		 "functional": "B3LYP", 
		 "basiset": "6-31G**", 
		 "properties": { 
			 "R2extent": 1732.1029, 
			 "electric_dipole_moment_norm": 5.24782959613, 
			 "electric_quadrupole_moment_norm": 7.37447357986, 
			 "total_energy": -800.564275355, 
			 "HOMO_LUMO_gap": 0.23118, 
			 "cosmo_polarized_energy": -15.51, 
			 "cosmo_cavitation_energy": 23.0, 
			 "cosmo_dispersion_energy": -17.4, 
			 "cosmo_repulsion_energy": 1.36, 
			 "cosmo_total_nonelectrostatic_energy": 6.97, 
			 "SMD_solvation_energy": 4.15 
		},
		"coords": [
			{
				"x": -1.432838624,
				"y": -1.2216517778,
				"z": 1.4130179878,
				"element": "C" 
			},
			{
				"x": -0.2634955609,
				"y": -1.2954554334,
				"z": 0.414674734,
				"element": "C" 
			},
			{
				"x": -0.7967096039,
				"y": -1.3433422839,
				"z": -1.0258654413,
				"element": "C" 
			},
			{
				"x": 0.6121668995,
				"y": -2.8883051766,
				"z": 0.8405519602,
				"element": "S" 
			},
			{
				"x": 0.6967763075,
				"y": -0.0862563285,
				"z": 0.6407544862,
				"element": "C" 
			},
			{
				"x": 0.0526416753,
				"y": 1.2422642038,
				"z": 0.6823601289,
				"element": "N" 
			},
			{
				"x": 1.8690503959,
				"y": 0.0125824554,
				"z": -0.3756616352,
				"element": "C" 
			},
			{
				"x": 2.2722139234,
				"y": 1.2693003407,
				"z": -0.5853070025,
				"element": "O" 
			},
			{
				"x": 2.4061071087,
				"y": -0.9353782074,
				"z": -0.9085400363,
				"element": "O" 
			},
			{
				"x": -2.0472808857,
				"y": -2.1234588001,
				"z": 1.340134894,
				"element": "H" 
			},
			{
				"x": -1.0768564672,
				"y": -1.1393977324,
				"z": 2.4452977045,
				"element": "H" 
			},
			{
				"x": -2.0799327029,
				"y": -0.364890332,
				"z": 1.1983196095,
				"element": "H" 
			},
			{
				"x": 0.0133093948,
				"y": -1.4773606326,
				"z": -1.7452009898,
				"element": "H" 
			},
			{
				"x": -1.5006600652,
				"y": -2.17088556,
				"z": -1.1411173451,
				"element": "H" 
			},
			{
				"x": -1.3333901091,
				"y": -0.4174275579,
				"z": -1.2785872143,
				"element": "H" 
			},
			{
				"x": 1.6390682949,
				"y": -2.6975102984,
				"z": -0.0123972897,
				"element": "H" 
			},
			{
				"x": 1.1755239949,
				"y": -0.2325362245,
				"z": 1.6169584873,
				"element": "H" 
			},
			{
				"x": -0.3986633043,
				"y": 1.4097961166,
				"z": 1.5752859286,
				"element": "H" 
			},
			{
				"x": -0.6564108246,
				"y": 1.3323945721,
				"z": -0.0419323839,
				"element": "H" 
			},
			{
				"x": 1.628280153,
				"y": 1.8249186569,
				"z": -0.0813465828,
				"element": "H" 
			}
		],
		 "valence_orbital": [ 
			{
				"type": "occ",
				"energy": -0.32777,
				"method": "rhf"
			},
			{
				"type": "occ",
				"energy": -0.31148,
				"method": "rhf"
			},
			{
				"type": "occ",
				"energy": -0.30169,
				"method": "rhf"
			},
			{
				"type": "occ",
				"energy": -0.26304,
				"method": "rhf"
			},
			{
				"type": "occ",
				"energy": -0.23281,
				"method": "rhf"
			},
			{
				"type": "unocc",
				"energy": -0.00163,
				"method": "rhf"
			},
			{
				"type": "unocc",
				"energy": 0.02789,
				"method": "rhf"
			},
			{
				"type": "unocc",
				"energy": 0.0488,
				"method": "rhf"
			},
			{
				"type": "unocc",
				"energy": 0.08692,
				"method": "rhf"
			},
			{
				"type": "unocc",
				"energy": 0.09631,
				"method": "rhf"
			}
		],
		"cosmo_sigma_profile": { 
			"-0.025": 0.0,
			"-0.024": 0.0,
			"-0.023": 0.0,
			"-0.022": 0.0,
			"-0.021": 0.0,
			"-0.02": 0.0,
			"-0.019": 0.0,
			"-0.018": 0.0,
			"-0.017": 0.0,
			"-0.016": 0.0,
			"-0.015": 0.0,
			"-0.014": 0.0,
			"-0.013": 0.0,
			"-0.012": 1.12831910164,
			"-0.011": 4.33640389086,
			"-0.01": 4.07018804236,
			"-0.009": 5.29217950908,
			"-0.008": 5.76843448286,
			"-0.007": 6.67003562112,
			"-0.006": 6.37237901012,
			"-0.005": 8.35737013754,
			"-0.004": 10.2083912748,
			"-0.003": 12.8475850248,
			"-0.002": 12.6431648587,
			"-0.001": 14.5908288683,
			"0.0": 16.611574727,
			"0.001": 9.37529630469,
			"0.002": 6.91433008857,
			"0.003": 6.09791612699,
			"0.004": 5.51181523758,
			"0.005": 5.80279544423,
			"0.006": 6.39407050918,
			"0.007": 4.82920155815,
			"0.008": 5.75594236982,
			"0.009": 5.12315502292,
			"0.01": 6.42507868755,
			"0.011": 5.51914957487,
			"0.012": 2.56164883585,
			"0.013": 1.86815433289,
			"0.014": 0.197066578494,
			"0.015": 0.0,
			"0.016": 0.0,
			"0.017": 0.0,
			"0.018": 0.0,
			"0.019": 0.0,
			"0.02": 0.0,
			"0.021": 0.0,
			"0.022": 0.0,
			"0.023": 0.0,
			"0.024": 0.0,
			"0.025": 0.0
		}
	}
}
