{
	 "smiles": "O=COC1OC(=O)C2=CC=CC=C12", 
	 "Tm": 355.15, 
	 "num_atms": 19, 
	 "gaussian": { 
		 "optdone": 1, 
		 "sigma_profile": "yes", 
		 "theory": "DFT", 
		 "functional": "B3LYP", 
		 "basiset": "6-31G**", 
		 "properties": { 
			 "R2extent": 2142.8176, 
			 "electric_dipole_moment_norm": 5.20506613503, 
			 "electric_quadrupole_moment_norm": 10.4711700263, 
			 "total_energy": -647.470423486, 
			 "HOMO_LUMO_gap": 0.21109, 
			 "cosmo_polarized_energy": -14.11, 
			 "cosmo_cavitation_energy": 24.27, 
			 "cosmo_dispersion_energy": -17.54, 
			 "cosmo_repulsion_energy": 1.39, 
			 "cosmo_total_nonelectrostatic_energy": 8.12, 
			 "SMD_solvation_energy": 6.82 
		},
		"coords": [
			{
				"x": 0.4540992353,
				"y": 1.6050032906,
				"z": -0.5120331524,
				"element": "O" 
			},
			{
				"x": 0.8879919974,
				"y": 1.0172110543,
				"z": -1.4654842691,
				"element": "C" 
			},
			{
				"x": 0.9052408737,
				"y": -0.3277986136,
				"z": -1.6523266464,
				"element": "O" 
			},
			{
				"x": 0.4049665184,
				"y": -1.1811277749,
				"z": -0.6166137316,
				"element": "C" 
			},
			{
				"x": 1.1714675327,
				"y": -1.0449174698,
				"z": 0.5709503123,
				"element": "O" 
			},
			{
				"x": 0.3584023735,
				"y": -0.7531855854,
				"z": 1.662887685,
				"element": "C" 
			},
			{
				"x": 0.8038246143,
				"y": -0.6014272134,
				"z": 2.7672681648,
				"element": "O" 
			},
			{
				"x": -1.037607254,
				"y": -0.720421599,
				"z": 1.1720653589,
				"element": "C" 
			},
			{
				"x": -2.2185682603,
				"y": -0.4948288457,
				"z": 1.8720411834,
				"element": "C" 
			},
			{
				"x": -3.4100672604,
				"y": -0.5057261317,
				"z": 1.1439331553,
				"element": "C" 
			},
			{
				"x": -3.4023875599,
				"y": -0.7333875392,
				"z": -0.2399499459,
				"element": "C" 
			},
			{
				"x": -2.207342106,
				"y": -0.959179547,
				"z": -0.9328096879,
				"element": "C" 
			},
			{
				"x": -1.0281149811,
				"y": -0.9439075454,
				"z": -0.198758494,
				"element": "C" 
			},
			{
				"x": 1.3437237906,
				"y": 1.4862819464,
				"z": -2.3511550922,
				"element": "H" 
			},
			{
				"x": 0.573710099,
				"y": -2.181616065,
				"z": -1.0245099733,
				"element": "H" 
			},
			{
				"x": -2.2014944472,
				"y": -0.3176867398,
				"z": 2.9424933414,
				"element": "H" 
			},
			{
				"x": -4.3548414534,
				"y": -0.336178861,
				"z": 1.651242485,
				"element": "H" 
			},
			{
				"x": -4.342485253,
				"y": -0.7351539319,
				"z": -0.7836936616,
				"element": "H" 
			},
			{
				"x": -2.2096184595,
				"y": -1.1311528286,
				"z": -2.0050470316,
				"element": "H" 
			}
		],
		 "valence_orbital": [ 
			{
				"type": "occ",
				"energy": -0.31864,
				"method": "rhf"
			},
			{
				"type": "occ",
				"energy": -0.29658,
				"method": "rhf"
			},
			{
				"type": "occ",
				"energy": -0.28111,
				"method": "rhf"
			},
			{
				"type": "occ",
				"energy": -0.27775,
				"method": "rhf"
			},
			{
				"type": "occ",
				"energy": -0.27039,
				"method": "rhf"
			},
			{
				"type": "unocc",
				"energy": -0.0593,
				"method": "rhf"
			},
			{
				"type": "unocc",
				"energy": -0.03369,
				"method": "rhf"
			},
			{
				"type": "unocc",
				"energy": -0.01184,
				"method": "rhf"
			},
			{
				"type": "unocc",
				"energy": 0.04541,
				"method": "rhf"
			},
			{
				"type": "unocc",
				"energy": 0.08381,
				"method": "rhf"
			}
		],
		"cosmo_sigma_profile": { 
			"-0.025": 0.0,
			"-0.024": 0.0,
			"-0.023": 0.0,
			"-0.022": 0.0,
			"-0.021": 0.0,
			"-0.02": 0.0,
			"-0.019": 0.0,
			"-0.018": 0.0,
			"-0.017": 0.0,
			"-0.016": 0.0,
			"-0.015": 0.0,
			"-0.014": 0.0,
			"-0.013": 0.0,
			"-0.012": 0.0,
			"-0.011": 0.0,
			"-0.01": 4.43199315971,
			"-0.009": 5.38698775964,
			"-0.008": 6.25789111214,
			"-0.007": 13.1106681029,
			"-0.006": 12.882818619,
			"-0.005": 12.2906000366,
			"-0.004": 11.8807999608,
			"-0.003": 9.94060661123,
			"-0.002": 8.42678773744,
			"-0.001": 11.016133602,
			"0.0": 10.0662182484,
			"0.001": 12.2362847692,
			"0.002": 14.1452202077,
			"0.003": 11.7406773779,
			"0.004": 6.85844409055,
			"0.005": 5.72907454177,
			"0.006": 5.11995146124,
			"0.007": 6.13367121158,
			"0.008": 6.22521719615,
			"0.009": 6.0314409374,
			"0.01": 6.87221731134,
			"0.011": 7.36765657652,
			"0.012": 1.45713464771,
			"0.013": 0.0,
			"0.014": 0.0,
			"0.015": 0.0,
			"0.016": 0.0,
			"0.017": 0.0,
			"0.018": 0.0,
			"0.019": 0.0,
			"0.02": 0.0,
			"0.021": 0.0,
			"0.022": 0.0,
			"0.023": 0.0,
			"0.024": 0.0,
			"0.025": 0.0
		}
	}
}
