{
	 "smiles": "CSC1=NN(C(N)=C1C#N)C1=CC=CC=C1", 
	 "Tm": 409.15, 
	 "num_atms": 26, 
	 "gaussian": { 
		 "optdone": 1, 
		 "sigma_profile": "yes", 
		 "theory": "DFT", 
		 "functional": "B3LYP", 
		 "basiset": "6-31G**", 
		 "properties": { 
			 "R2extent": 5044.6867, 
			 "electric_dipole_moment_norm": 6.41276901502, 
			 "electric_quadrupole_moment_norm": 30.5309435418, 
			 "total_energy": -1042.35872606, 
			 "HOMO_LUMO_gap": 0.18133, 
			 "cosmo_polarized_energy": -16.89, 
			 "cosmo_cavitation_energy": 33.05, 
			 "cosmo_dispersion_energy": -23.68, 
			 "cosmo_repulsion_energy": 1.81, 
			 "cosmo_total_nonelectrostatic_energy": 11.19, 
			 "SMD_solvation_energy": 6.42 
		},
		"coords": [
			{
				"x": -3.0928769723,
				"y": 0.8554385718,
				"z": -1.818442053,
				"element": "C" 
			},
			{
				"x": -2.0787057674,
				"y": 2.3731849198,
				"z": -1.7754827264,
				"element": "S" 
			},
			{
				"x": -0.8876994348,
				"y": 1.9125446818,
				"z": -0.5650655178,
				"element": "C" 
			},
			{
				"x": -0.8885305503,
				"y": 0.7400992821,
				"z": 0.0396429242,
				"element": "N" 
			},
			{
				"x": 0.1822495847,
				"y": 0.7865339379,
				"z": 0.9218090471,
				"element": "N" 
			},
			{
				"x": 0.8543849294,
				"y": 1.9682361481,
				"z": 0.8379231792,
				"element": "C" 
			},
			{
				"x": 1.9540155008,
				"y": 2.2962692855,
				"z": 1.5956285578,
				"element": "N" 
			},
			{
				"x": 0.1866242685,
				"y": 2.745371169,
				"z": -0.1139433552,
				"element": "C" 
			},
			{
				"x": 0.5689506898,
				"y": 4.0417243309,
				"z": -0.5177726466,
				"element": "C" 
			},
			{
				"x": 0.9267733354,
				"y": 5.1081882992,
				"z": -0.8263246842,
				"element": "N" 
			},
			{
				"x": 0.4841509504,
				"y": -0.3576805206,
				"z": 1.7074062191,
				"element": "C" 
			},
			{
				"x": 0.9611418362,
				"y": -0.220565619,
				"z": 3.0174824403,
				"element": "C" 
			},
			{
				"x": 1.2576676912,
				"y": -1.3633541223,
				"z": 3.7624739021,
				"element": "C" 
			},
			{
				"x": 1.0605839685,
				"y": -2.6333426675,
				"z": 3.2202174802,
				"element": "C" 
			},
			{
				"x": 0.5598030481,
				"y": -2.7593670168,
				"z": 1.9214923485,
				"element": "C" 
			},
			{
				"x": 0.2746349714,
				"y": -1.6291529769,
				"z": 1.159594224,
				"element": "C" 
			},
			{
				"x": -2.4955897987,
				"y": 0.0027328958,
				"z": -2.1434650888,
				"element": "H" 
			},
			{
				"x": -3.5187507561,
				"y": 0.6523359211,
				"z": -0.8352969713,
				"element": "H" 
			},
			{
				"x": -3.8887408251,
				"y": 1.0506996603,
				"z": -2.539469471,
				"element": "H" 
			},
			{
				"x": 2.5637448511,
				"y": 1.5283004464,
				"z": 1.8459183293,
				"element": "H" 
			},
			{
				"x": 2.4524183318,
				"y": 3.1073554944,
				"z": 1.2515579747,
				"element": "H" 
			},
			{
				"x": 1.0708177013,
				"y": 0.7646012863,
				"z": 3.4571408214,
				"element": "H" 
			},
			{
				"x": 1.6263827422,
				"y": -1.2543488687,
				"z": 4.778071429,
				"element": "H" 
			},
			{
				"x": 1.2869109885,
				"y": -3.5185015356,
				"z": 3.8066054833,
				"element": "H" 
			},
			{
				"x": 0.3956841871,
				"y": -3.7444148322,
				"z": 1.4948232069,
				"element": "H" 
			},
			{
				"x": -0.1162454718,
				"y": -1.7094881708,
				"z": 0.1524749471,
				"element": "H" 
			}
		],
		 "valence_orbital": [ 
			{
				"type": "occ",
				"energy": -0.30205,
				"method": "rhf"
			},
			{
				"type": "occ",
				"energy": -0.27082,
				"method": "rhf"
			},
			{
				"type": "occ",
				"energy": -0.2615,
				"method": "rhf"
			},
			{
				"type": "occ",
				"energy": -0.23042,
				"method": "rhf"
			},
			{
				"type": "occ",
				"energy": -0.2149,
				"method": "rhf"
			},
			{
				"type": "unocc",
				"energy": -0.03357,
				"method": "rhf"
			},
			{
				"type": "unocc",
				"energy": -0.02287,
				"method": "rhf"
			},
			{
				"type": "unocc",
				"energy": 0.00581,
				"method": "rhf"
			},
			{
				"type": "unocc",
				"energy": 0.01762,
				"method": "rhf"
			},
			{
				"type": "unocc",
				"energy": 0.02512,
				"method": "rhf"
			}
		],
		"cosmo_sigma_profile": { 
			"-0.025": 0.0,
			"-0.024": 0.0,
			"-0.023": 0.0,
			"-0.022": 0.0,
			"-0.021": 0.0,
			"-0.02": 0.0,
			"-0.019": 0.0,
			"-0.018": 0.0,
			"-0.017": 0.0,
			"-0.016": 0.0,
			"-0.015": 0.367295268848,
			"-0.014": 2.19613341113,
			"-0.013": 2.14193724606,
			"-0.012": 2.48571328459,
			"-0.011": 2.70272449987,
			"-0.01": 2.51949488557,
			"-0.009": 2.53354846571,
			"-0.008": 2.40300274553,
			"-0.007": 6.10790385657,
			"-0.006": 14.1315613978,
			"-0.005": 16.9506460329,
			"-0.004": 18.6910213127,
			"-0.003": 15.5482822305,
			"-0.002": 18.9228698223,
			"-0.001": 15.3948922661,
			"0.0": 20.1494344825,
			"0.001": 19.3487413557,
			"0.002": 18.1825248607,
			"0.003": 18.2460740034,
			"0.004": 19.709598329,
			"0.005": 11.94543679,
			"0.006": 6.86032098632,
			"0.007": 6.54355368399,
			"0.008": 5.30923452969,
			"0.009": 4.93721394107,
			"0.01": 4.26422064339,
			"0.011": 3.65590451083,
			"0.012": 2.90052690924,
			"0.013": 2.15252478857,
			"0.014": 0.550718143313,
			"0.015": 0.0,
			"0.016": 0.0,
			"0.017": 0.0,
			"0.018": 0.0,
			"0.019": 0.0,
			"0.02": 0.0,
			"0.021": 0.0,
			"0.022": 0.0,
			"0.023": 0.0,
			"0.024": 0.0,
			"0.025": 0.0
		}
	}
}
