{
	 "smiles": "CC1=CC=C2C=CC(=O)OC2=C1", 
	 "Tm": 401.15, 
	 "num_atms": 20, 
	 "gaussian": { 
		 "optdone": 1, 
		 "sigma_profile": "yes", 
		 "theory": "DFT", 
		 "functional": "B3LYP", 
		 "basiset": "6-31G**", 
		 "properties": { 
			 "R2extent": 2191.2903, 
			 "electric_dipole_moment_norm": 5.1247799221, 
			 "electric_quadrupole_moment_norm": 11.2446471012, 
			 "total_energy": -536.344188131, 
			 "HOMO_LUMO_gap": 0.16735, 
			 "cosmo_polarized_energy": -10.74, 
			 "cosmo_cavitation_energy": 24.29, 
			 "cosmo_dispersion_energy": -18.17, 
			 "cosmo_repulsion_energy": 1.43, 
			 "cosmo_total_nonelectrostatic_energy": 7.55, 
			 "SMD_solvation_energy": 5.37 
		},
		"coords": [
			{
				"x": -0.7742100966,
				"y": -3.5533787086,
				"z": -1.3949378951,
				"element": "C" 
			},
			{
				"x": -0.8709067018,
				"y": -2.0835306403,
				"z": -1.0657186322,
				"element": "C" 
			},
			{
				"x": -2.0688220597,
				"y": -1.3783048569,
				"z": -1.3087008361,
				"element": "C" 
			},
			{
				"x": -2.1710723731,
				"y": -0.0291864608,
				"z": -1.013122324,
				"element": "C" 
			},
			{
				"x": -1.0808682528,
				"y": 0.6716245321,
				"z": -0.4623008334,
				"element": "C" 
			},
			{
				"x": -1.0980367798,
				"y": 2.071417251,
				"z": -0.1245204111,
				"element": "C" 
			},
			{
				"x": -0.0043183726,
				"y": 2.6684178359,
				"z": 0.4022503896,
				"element": "C" 
			},
			{
				"x": 1.2290747354,
				"y": 1.9280508426,
				"z": 0.6492514884,
				"element": "C" 
			},
			{
				"x": 2.2504609762,
				"y": 2.3756448669,
				"z": 1.1142480674,
				"element": "O" 
			},
			{
				"x": 1.2073785726,
				"y": 0.5718846646,
				"z": 0.3087200265,
				"element": "O" 
			},
			{
				"x": 0.1094469651,
				"y": -0.0391243852,
				"z": -0.2230419112,
				"element": "C" 
			},
			{
				"x": 0.2151110533,
				"y": -1.3997813949,
				"z": -0.5202980761,
				"element": "C" 
			},
			{
				"x": -0.9409062965,
				"y": -3.729498737,
				"z": -2.4638528759,
				"element": "H" 
			},
			{
				"x": -1.5325671115,
				"y": -4.1296929853,
				"z": -0.8528785218,
				"element": "H" 
			},
			{
				"x": 0.2065805497,
				"y": -3.9596703251,
				"z": -1.1360891779,
				"element": "H" 
			},
			{
				"x": -2.9196525286,
				"y": -1.9039716333,
				"z": -1.7331476025,
				"element": "H" 
			},
			{
				"x": -3.0975825983,
				"y": 0.5061016587,
				"z": -1.2034513161,
				"element": "H" 
			},
			{
				"x": -2.0075879126,
				"y": 2.6408202004,
				"z": -0.3008402654,
				"element": "H" 
			},
			{
				"x": 0.0195261984,
				"y": 3.7182704107,
				"z": 0.6683423865,
				"element": "H" 
			},
			{
				"x": 1.1544520332,
				"y": -1.9038921356,
				"z": -0.3174116797,
				"element": "H" 
			}
		],
		 "valence_orbital": [ 
			{
				"type": "occ",
				"energy": -0.3429,
				"method": "rhf"
			},
			{
				"type": "occ",
				"energy": -0.31016,
				"method": "rhf"
			},
			{
				"type": "occ",
				"energy": -0.27068,
				"method": "rhf"
			},
			{
				"type": "occ",
				"energy": -0.25474,
				"method": "rhf"
			},
			{
				"type": "occ",
				"energy": -0.23257,
				"method": "rhf"
			},
			{
				"type": "unocc",
				"energy": -0.06522,
				"method": "rhf"
			},
			{
				"type": "unocc",
				"energy": -0.01348,
				"method": "rhf"
			},
			{
				"type": "unocc",
				"energy": 0.00443,
				"method": "rhf"
			},
			{
				"type": "unocc",
				"energy": 0.08415,
				"method": "rhf"
			},
			{
				"type": "unocc",
				"energy": 0.08948,
				"method": "rhf"
			}
		],
		"cosmo_sigma_profile": { 
			"-0.025": 0.0,
			"-0.024": 0.0,
			"-0.023": 0.0,
			"-0.022": 0.0,
			"-0.021": 0.0,
			"-0.02": 0.0,
			"-0.019": 0.0,
			"-0.018": 0.0,
			"-0.017": 0.0,
			"-0.016": 0.0,
			"-0.015": 0.0,
			"-0.014": 0.0,
			"-0.013": 0.0,
			"-0.012": 0.0,
			"-0.011": 0.0,
			"-0.01": 0.0,
			"-0.009": 0.43621547567,
			"-0.008": 4.15209473234,
			"-0.007": 6.99382565844,
			"-0.006": 9.48882481953,
			"-0.005": 13.3318377243,
			"-0.004": 15.9217664178,
			"-0.003": 16.5788402535,
			"-0.002": 15.4183346697,
			"-0.001": 17.415886144,
			"0.0": 19.6525076207,
			"0.001": 16.0680519288,
			"0.002": 13.4946868759,
			"0.003": 12.3855068108,
			"0.004": 6.23817717174,
			"0.005": 2.12603358439,
			"0.006": 2.62500560073,
			"0.007": 1.90961038854,
			"0.008": 2.22902982671,
			"0.009": 2.15587189691,
			"0.01": 2.69169888319,
			"0.011": 3.54150232837,
			"0.012": 6.42322180665,
			"0.013": 3.26027092579,
			"0.014": 0.184029516542,
			"0.015": 0.0,
			"0.016": 0.0,
			"0.017": 0.0,
			"0.018": 0.0,
			"0.019": 0.0,
			"0.02": 0.0,
			"0.021": 0.0,
			"0.022": 0.0,
			"0.023": 0.0,
			"0.024": 0.0,
			"0.025": 0.0
		}
	}
}
