{
	 "smiles": "FC1=C(C=CC=C1)C1=CSC(=O)N1", 
	 "Tm": 461.15, 
	 "num_atms": 19, 
	 "gaussian": { 
		 "optdone": 1, 
		 "sigma_profile": "yes", 
		 "theory": "DFT", 
		 "functional": "B3LYP", 
		 "basiset": "6-31G**", 
		 "properties": { 
			 "R2extent": 3080.4033, 
			 "electric_dipole_moment_norm": 5.72618407406, 
			 "electric_quadrupole_moment_norm": 11.0352954437, 
			 "total_energy": -974.579663743, 
			 "HOMO_LUMO_gap": 0.15889, 
			 "cosmo_polarized_energy": -10.83, 
			 "cosmo_cavitation_energy": 25.55, 
			 "cosmo_dispersion_energy": -19.64, 
			 "cosmo_repulsion_energy": 1.46, 
			 "cosmo_total_nonelectrostatic_energy": 7.37, 
			 "SMD_solvation_energy": 5.39 
		},
		"coords": [
			{
				"x": 1.1802834166,
				"y": -1.7165595808,
				"z": -0.0789841792,
				"element": "F" 
			},
			{
				"x": 0.0927408223,
				"y": -1.1986659027,
				"z": -0.7141100688,
				"element": "C" 
			},
			{
				"x": -0.4474575347,
				"y": 0.0195852111,
				"z": -0.276379734,
				"element": "C" 
			},
			{
				"x": -1.5638050059,
				"y": 0.4924367399,
				"z": -0.994938785,
				"element": "C" 
			},
			{
				"x": -2.1075380659,
				"y": -0.2207091959,
				"z": -2.0576588796,
				"element": "C" 
			},
			{
				"x": -1.5398492696,
				"y": -1.4350091853,
				"z": -2.453688699,
				"element": "C" 
			},
			{
				"x": -0.4251855268,
				"y": -1.9253517461,
				"z": -1.7768827693,
				"element": "C" 
			},
			{
				"x": 0.086331829,
				"y": 0.779492765,
				"z": 0.8638269128,
				"element": "C" 
			},
			{
				"x": -0.5628057665,
				"y": 1.7382921863,
				"z": 1.5720013304,
				"element": "C" 
			},
			{
				"x": 0.4291701117,
				"y": 2.4304148095,
				"z": 2.8371919907,
				"element": "S" 
			},
			{
				"x": 1.8199317993,
				"y": 1.3395608101,
				"z": 2.392144032,
				"element": "C" 
			},
			{
				"x": 2.9018764846,
				"y": 1.299367929,
				"z": 2.9328236718,
				"element": "O" 
			},
			{
				"x": 1.3908063285,
				"y": 0.5803168577,
				"z": 1.3246053239,
				"element": "N" 
			},
			{
				"x": -1.9931590563,
				"y": 1.4497495226,
				"z": -0.7193993402,
				"element": "H" 
			},
			{
				"x": -2.9670956071,
				"y": 0.1782563846,
				"z": -2.5866606778,
				"element": "H" 
			},
			{
				"x": -1.9545083808,
				"y": -1.9926885345,
				"z": -3.2872283862,
				"element": "H" 
			},
			{
				"x": 0.0508880042,
				"y": -2.8605239315,
				"z": -2.0506172237,
				"element": "H" 
			},
			{
				"x": -1.5834660933,
				"y": 2.0609587977,
				"z": 1.4352706752,
				"element": "H" 
			},
			{
				"x": 1.9957415105,
				"y": -0.1393239366,
				"z": 0.9564848059,
				"element": "H" 
			}
		],
		 "valence_orbital": [ 
			{
				"type": "occ",
				"energy": -0.2997,
				"method": "rhf"
			},
			{
				"type": "occ",
				"energy": -0.28124,
				"method": "rhf"
			},
			{
				"type": "occ",
				"energy": -0.26847,
				"method": "rhf"
			},
			{
				"type": "occ",
				"energy": -0.26652,
				"method": "rhf"
			},
			{
				"type": "occ",
				"energy": -0.21,
				"method": "rhf"
			},
			{
				"type": "unocc",
				"energy": -0.05111,
				"method": "rhf"
			},
			{
				"type": "unocc",
				"energy": -0.01978,
				"method": "rhf"
			},
			{
				"type": "unocc",
				"energy": 0.01379,
				"method": "rhf"
			},
			{
				"type": "unocc",
				"energy": 0.01806,
				"method": "rhf"
			},
			{
				"type": "unocc",
				"energy": 0.05125,
				"method": "rhf"
			}
		],
		"cosmo_sigma_profile": { 
			"-0.025": 0.0,
			"-0.024": 0.0,
			"-0.023": 0.0,
			"-0.022": 0.0,
			"-0.021": 0.0,
			"-0.02": 0.0,
			"-0.019": 0.0,
			"-0.018": 0.0,
			"-0.017": 0.0,
			"-0.016": 0.0,
			"-0.015": 0.0,
			"-0.014": 0.508099660419,
			"-0.013": 0.546075137481,
			"-0.012": 0.350917696917,
			"-0.011": 0.631582759038,
			"-0.01": 2.19805857882,
			"-0.009": 3.97540448674,
			"-0.008": 4.79425260081,
			"-0.007": 7.40120791294,
			"-0.006": 11.233625056,
			"-0.005": 10.8519089494,
			"-0.004": 9.72498953188,
			"-0.003": 8.38972773479,
			"-0.002": 10.4438366195,
			"-0.001": 17.4119394044,
			"0.0": 19.8875383457,
			"0.001": 21.8633204235,
			"0.002": 22.3010830204,
			"0.003": 21.6583931125,
			"0.004": 12.8311720863,
			"0.005": 3.24022530123,
			"0.006": 1.68338805747,
			"0.007": 1.25463880515,
			"0.008": 0.884623813911,
			"0.009": 1.39640810092,
			"0.01": 1.87430978334,
			"0.011": 2.37626672014,
			"0.012": 7.01870279924,
			"0.013": 2.05525379989,
			"0.014": 0.0,
			"0.015": 0.0,
			"0.016": 0.0,
			"0.017": 0.0,
			"0.018": 0.0,
			"0.019": 0.0,
			"0.02": 0.0,
			"0.021": 0.0,
			"0.022": 0.0,
			"0.023": 0.0,
			"0.024": 0.0,
			"0.025": 0.0
		}
	}
}
