{
	 "smiles": "NC(=O)C1=CC(Cl)=C(N)N=C1", 
	 "Tm": 491.15, 
	 "num_atms": 17, 
	 "gaussian": { 
		 "optdone": 1, 
		 "sigma_profile": "yes", 
		 "theory": "DFT", 
		 "functional": "B3LYP", 
		 "basiset": "6-31G**", 
		 "properties": { 
			 "R2extent": 3134.9942, 
			 "electric_dipole_moment_norm": 3.87128844314, 
			 "electric_quadrupole_moment_norm": 17.6594231474, 
			 "total_energy": -931.951392792, 
			 "HOMO_LUMO_gap": 0.19088, 
			 "cosmo_polarized_energy": -16.15, 
			 "cosmo_cavitation_energy": 23.46, 
			 "cosmo_dispersion_energy": -17.86, 
			 "cosmo_repulsion_energy": 1.45, 
			 "cosmo_total_nonelectrostatic_energy": 7.06, 
			 "SMD_solvation_energy": 3.14 
		},
		"coords": [
			{
				"x": -1.8246525378,
				"y": -2.8263875191,
				"z": 3.8433080575,
				"element": "N" 
			},
			{
				"x": -1.3243233243,
				"y": -1.5513580736,
				"z": 3.7144474804,
				"element": "C" 
			},
			{
				"x": -1.3731461644,
				"y": -0.7440132914,
				"z": 4.6357522485,
				"element": "O" 
			},
			{
				"x": -0.6897770195,
				"y": -1.2105915665,
				"z": 2.405137358,
				"element": "C" 
			},
			{
				"x": -0.3915100562,
				"y": 0.1393903934,
				"z": 2.1529165776,
				"element": "C" 
			},
			{
				"x": 0.1965760545,
				"y": 0.4872229859,
				"z": 0.9570867602,
				"element": "C" 
			},
			{
				"x": 0.5717564492,
				"y": 2.1687910774,
				"z": 0.5976016517,
				"element": "Cl" 
			},
			{
				"x": 0.5021207771,
				"y": -0.5181305325,
				"z": 0.0027442295,
				"element": "C" 
			},
			{
				"x": 1.1065214748,
				"y": -0.2331293232,
				"z": -1.1832656379,
				"element": "N" 
			},
			{
				"x": 0.2301126682,
				"y": -1.8101142557,
				"z": 0.253312881,
				"element": "N" 
			},
			{
				"x": -0.3390140619,
				"y": -2.1328168466,
				"z": 1.4155015006,
				"element": "C" 
			},
			{
				"x": -2.0931383668,
				"y": -3.3574008723,
				"z": 3.0297136718,
				"element": "H" 
			},
			{
				"x": -2.3501886131,
				"y": -2.9950455886,
				"z": 4.6890774617,
				"element": "H" 
			},
			{
				"x": -0.6292595081,
				"y": 0.8809418947,
				"z": 2.907358115,
				"element": "H" 
			},
			{
				"x": 1.1558688925,
				"y": -0.9817595234,
				"z": -1.855953856,
				"element": "H" 
			},
			{
				"x": 1.1588175092,
				"y": 0.718426589,
				"z": -1.5072879434,
				"element": "H" 
			},
			{
				"x": -0.4993641736,
				"y": -3.1992255475,
				"z": 1.5655494438,
				"element": "H" 
			}
		],
		 "valence_orbital": [ 
			{
				"type": "occ",
				"energy": -0.28274,
				"method": "rhf"
			},
			{
				"type": "occ",
				"energy": -0.28028,
				"method": "rhf"
			},
			{
				"type": "occ",
				"energy": -0.27076,
				"method": "rhf"
			},
			{
				"type": "occ",
				"energy": -0.25127,
				"method": "rhf"
			},
			{
				"type": "occ",
				"energy": -0.22651,
				"method": "rhf"
			},
			{
				"type": "unocc",
				"energy": -0.03563,
				"method": "rhf"
			},
			{
				"type": "unocc",
				"energy": -0.03136,
				"method": "rhf"
			},
			{
				"type": "unocc",
				"energy": 0.02366,
				"method": "rhf"
			},
			{
				"type": "unocc",
				"energy": 0.05672,
				"method": "rhf"
			},
			{
				"type": "unocc",
				"energy": 0.07652,
				"method": "rhf"
			}
		],
		"cosmo_sigma_profile": { 
			"-0.025": 0.0,
			"-0.024": 0.0,
			"-0.023": 0.0,
			"-0.022": 0.0,
			"-0.021": 0.0,
			"-0.02": 0.0,
			"-0.019": 0.0,
			"-0.018": 0.0,
			"-0.017": 0.0,
			"-0.016": 0.0,
			"-0.015": 0.22101202362,
			"-0.014": 2.96921055472,
			"-0.013": 4.41860837546,
			"-0.012": 4.73983634039,
			"-0.011": 4.77241618157,
			"-0.01": 3.79193588127,
			"-0.009": 4.26106367194,
			"-0.008": 4.1946366625,
			"-0.007": 4.56737824126,
			"-0.006": 5.90607473382,
			"-0.005": 5.52505433355,
			"-0.004": 4.7121895736,
			"-0.003": 6.25344125726,
			"-0.002": 8.26867478864,
			"-0.001": 11.1002889172,
			"0.0": 19.8827863101,
			"0.001": 21.0033532891,
			"0.002": 12.8354079722,
			"0.003": 11.2550744816,
			"0.004": 11.3709674208,
			"0.005": 6.26914676887,
			"0.006": 3.55491263065,
			"0.007": 3.94687531742,
			"0.008": 3.50936051879,
			"0.009": 2.61165959859,
			"0.01": 2.29549107289,
			"0.011": 2.77448811547,
			"0.012": 2.67158717709,
			"0.013": 5.1200027232,
			"0.014": 4.30458597508,
			"0.015": 0.465674316333,
			"0.016": 0.0,
			"0.017": 0.0,
			"0.018": 0.0,
			"0.019": 0.0,
			"0.02": 0.0,
			"0.021": 0.0,
			"0.022": 0.0,
			"0.023": 0.0,
			"0.024": 0.0,
			"0.025": 0.0
		}
	}
}
