{
	 "smiles": "CN(C1=CC=C(O)C=C1)S(=O)(=O)C1=CC=C(Cl)C=C1", 
	 "Tm": 428.15, 
	 "num_atms": 31, 
	 "gaussian": { 
		 "optdone": 1, 
		 "sigma_profile": "yes", 
		 "theory": "DFT", 
		 "functional": "B3LYP", 
		 "basiset": "6-31G**", 
		 "properties": { 
			 "R2extent": 7301.3795, 
			 "electric_dipole_moment_norm": 5.39094798343, 
			 "electric_quadrupole_moment_norm": 5.94230849586, 
			 "total_energy": -1641.33818354, 
			 "HOMO_LUMO_gap": 0.17227, 
			 "cosmo_polarized_energy": -18.2, 
			 "cosmo_cavitation_energy": 38.05, 
			 "cosmo_dispersion_energy": -26.84, 
			 "cosmo_repulsion_energy": 2.03, 
			 "cosmo_total_nonelectrostatic_energy": 13.24, 
			 "SMD_solvation_energy": 5.39 
		},
		"coords": [
			{
				"x": -0.3612968314,
				"y": -2.1042236977,
				"z": 0.2145731873,
				"element": "C" 
			},
			{
				"x": 0.3051580411,
				"y": -0.9246901138,
				"z": -0.354140054,
				"element": "N" 
			},
			{
				"x": -0.5120407159,
				"y": 0.0860342767,
				"z": -0.9663629059,
				"element": "C" 
			},
			{
				"x": -1.7680580577,
				"y": 0.424954306,
				"z": -0.4493051848,
				"element": "C" 
			},
			{
				"x": -2.5663019592,
				"y": 1.3734277733,
				"z": -1.0888293848,
				"element": "C" 
			},
			{
				"x": -2.1041255384,
				"y": 2.0121989117,
				"z": -2.2434738023,
				"element": "C" 
			},
			{
				"x": -2.832900362,
				"y": 2.9524920218,
				"z": -2.9119857079,
				"element": "O" 
			},
			{
				"x": -0.8436386555,
				"y": 1.6854410029,
				"z": -2.7600338877,
				"element": "C" 
			},
			{
				"x": -0.062340749,
				"y": 0.7226841076,
				"z": -2.1338895657,
				"element": "C" 
			},
			{
				"x": 1.7152959598,
				"y": -0.4169807719,
				"z": 0.4580879293,
				"element": "S" 
			},
			{
				"x": 2.403242673,
				"y": -1.6421930858,
				"z": 0.8710230378,
				"element": "O" 
			},
			{
				"x": 2.3575509908,
				"y": 0.586283243,
				"z": -0.38956562,
				"element": "O" 
			},
			{
				"x": 1.1599819659,
				"y": 0.4186410882,
				"z": 1.948170053,
				"element": "C" 
			},
			{
				"x": 0.8163931701,
				"y": 1.7724207693,
				"z": 1.8895757802,
				"element": "C" 
			},
			{
				"x": 0.349583688,
				"y": 2.4115475568,
				"z": 3.036396952,
				"element": "C" 
			},
			{
				"x": 0.2345886255,
				"y": 1.6846815166,
				"z": 4.2231935533,
				"element": "C" 
			},
			{
				"x": -0.3534337904,
				"y": 2.4887959525,
				"z": 5.6665740051,
				"element": "Cl" 
			},
			{
				"x": 0.5849512862,
				"y": 0.3351948017,
				"z": 4.2890936803,
				"element": "C" 
			},
			{
				"x": 1.0507915335,
				"y": -0.3022657136,
				"z": 3.1399371522,
				"element": "C" 
			},
			{
				"x": -1.0883843575,
				"y": -2.4587495295,
				"z": -0.5187866415,
				"element": "H" 
			},
			{
				"x": -0.8842342779,
				"y": -1.8995735357,
				"z": 1.1597877743,
				"element": "H" 
			},
			{
				"x": 0.3836482508,
				"y": -2.8809094123,
				"z": 0.3827639713,
				"element": "H" 
			},
			{
				"x": -2.1360200478,
				"y": -0.0530594627,
				"z": 0.4525627212,
				"element": "H" 
			},
			{
				"x": -3.5450139122,
				"y": 1.6196054439,
				"z": -0.682475202,
				"element": "H" 
			},
			{
				"x": -3.6776380485,
				"y": 3.0819353152,
				"z": -2.4616913309,
				"element": "H" 
			},
			{
				"x": -0.501614295,
				"y": 2.183342432,
				"z": -3.6610441134,
				"element": "H" 
			},
			{
				"x": 0.9081896676,
				"y": 0.4575200714,
				"z": -2.5348276557,
				"element": "H" 
			},
			{
				"x": 0.9343076484,
				"y": 2.3209977579,
				"z": 0.9620678702,
				"element": "H" 
			},
			{
				"x": 0.0843113257,
				"y": 3.4624909729,
				"z": 3.0146250853,
				"element": "H" 
			},
			{
				"x": 0.5020615266,
				"y": -0.2034441648,
				"z": 5.2263197174,
				"element": "H" 
			},
			{
				"x": 1.3535852453,
				"y": -1.3430998336,
				"z": 3.1691585865,
				"element": "H" 
			}
		],
		 "valence_orbital": [ 
			{
				"type": "occ",
				"energy": -0.28513,
				"method": "rhf"
			},
			{
				"type": "occ",
				"energy": -0.28254,
				"method": "rhf"
			},
			{
				"type": "occ",
				"energy": -0.26534,
				"method": "rhf"
			},
			{
				"type": "occ",
				"energy": -0.2596,
				"method": "rhf"
			},
			{
				"type": "occ",
				"energy": -0.22092,
				"method": "rhf"
			},
			{
				"type": "unocc",
				"energy": -0.04865,
				"method": "rhf"
			},
			{
				"type": "unocc",
				"energy": -0.03385,
				"method": "rhf"
			},
			{
				"type": "unocc",
				"energy": -0.01316,
				"method": "rhf"
			},
			{
				"type": "unocc",
				"energy": -0.00454,
				"method": "rhf"
			},
			{
				"type": "unocc",
				"energy": 0.01598,
				"method": "rhf"
			}
		],
		"cosmo_sigma_profile": { 
			"-0.025": 0.0,
			"-0.024": 0.0,
			"-0.023": 0.0,
			"-0.022": 0.0,
			"-0.021": 0.0,
			"-0.02": 0.0,
			"-0.019": 0.0,
			"-0.018": 0.595949253258,
			"-0.017": 1.17515000507,
			"-0.016": 0.987044563881,
			"-0.015": 1.00982052432,
			"-0.014": 1.33079504481,
			"-0.013": 0.771100802368,
			"-0.012": 0.541679898853,
			"-0.011": 1.405790832,
			"-0.01": 0.891522753328,
			"-0.009": 1.77977901721,
			"-0.008": 6.10701378002,
			"-0.007": 11.4970734713,
			"-0.006": 14.881818398,
			"-0.005": 18.4303085277,
			"-0.004": 19.7944716346,
			"-0.003": 20.205371795,
			"-0.002": 18.2120203992,
			"-0.001": 18.7166750853,
			"0.0": 20.6785072569,
			"0.001": 27.9366371939,
			"0.002": 22.5879067516,
			"0.003": 24.6548043195,
			"0.004": 23.9386309413,
			"0.005": 8.2734554713,
			"0.006": 5.26632564507,
			"0.007": 6.0279894868,
			"0.008": 4.9657376751,
			"0.009": 5.38257617795,
			"0.01": 8.43998633829,
			"0.011": 8.32783076147,
			"0.012": 1.62211892256,
			"0.013": 0.0,
			"0.014": 0.0,
			"0.015": 0.0,
			"0.016": 0.0,
			"0.017": 0.0,
			"0.018": 0.0,
			"0.019": 0.0,
			"0.02": 0.0,
			"0.021": 0.0,
			"0.022": 0.0,
			"0.023": 0.0,
			"0.024": 0.0,
			"0.025": 0.0
		}
	}
}
