{
	 "smiles": "CCOC1=C(C=C(Br)C=C1)S(=O)(=O)NC", 
	 "Tm": 381.15, 
	 "num_atms": 27, 
	 "gaussian": { 
		 "optdone": 1, 
		 "sigma_profile": "yes", 
		 "theory": "DFT", 
		 "functional": "B3LYP", 
		 "basiset": "6-31G**", 
		 "properties": { 
			 "R2extent": 6285.7329, 
			 "electric_dipole_moment_norm": 2.20860423345, 
			 "electric_quadrupole_moment_norm": 20.0845272073, 
			 "total_energy": -3600.11946589, 
			 "HOMO_LUMO_gap": 0.19206, 
			 "cosmo_polarized_energy": -17.4, 
			 "cosmo_cavitation_energy": 34.2, 
			 "cosmo_dispersion_energy": -24.84, 
			 "cosmo_repulsion_energy": 1.94, 
			 "cosmo_total_nonelectrostatic_energy": 11.3, 
			 "SMD_solvation_energy": 4.53 
		},
		"coords": [
			{
				"x": -4.4886932248,
				"y": -0.924618392,
				"z": 1.0929437008,
				"element": "C" 
			},
			{
				"x": -3.1814703841,
				"y": -0.6896776039,
				"z": 1.8394333608,
				"element": "C" 
			},
			{
				"x": -2.1780798608,
				"y": -0.0958487262,
				"z": 1.0042043916,
				"element": "O" 
			},
			{
				"x": -1.4742902142,
				"y": -0.8413140919,
				"z": 0.1257965539,
				"element": "C" 
			},
			{
				"x": -0.5887535566,
				"y": -0.1370247945,
				"z": -0.7205784109,
				"element": "C" 
			},
			{
				"x": 0.2246496919,
				"y": -0.8128564168,
				"z": -1.6260966404,
				"element": "C" 
			},
			{
				"x": 0.146216879,
				"y": -2.201722752,
				"z": -1.7131620545,
				"element": "C" 
			},
			{
				"x": 1.254432563,
				"y": -3.1298098332,
				"z": -2.961884655,
				"element": "Br" 
			},
			{
				"x": -0.7315331606,
				"y": -2.9128917447,
				"z": -0.9021356929,
				"element": "C" 
			},
			{
				"x": -1.5381026931,
				"y": -2.2365375213,
				"z": 0.0136987583,
				"element": "C" 
			},
			{
				"x": -0.5332099687,
				"y": 1.6600811595,
				"z": -0.5813705072,
				"element": "S" 
			},
			{
				"x": 0.1499989152,
				"y": 2.0219506457,
				"z": 0.6640253843,
				"element": "O" 
			},
			{
				"x": -1.8661089539,
				"y": 2.1773684018,
				"z": -0.9024394286,
				"element": "O" 
			},
			{
				"x": 0.5387969609,
				"y": 2.0824426399,
				"z": -1.8225681589,
				"element": "N" 
			},
			{
				"x": -0.035431439,
				"y": 2.6219828028,
				"z": -3.0631172448,
				"element": "C" 
			},
			{
				"x": -5.2496003262,
				"y": -1.298577654,
				"z": 1.7858992049,
				"element": "H" 
			},
			{
				"x": -4.8449053383,
				"y": 0.0124847338,
				"z": 0.6572807665,
				"element": "H" 
			},
			{
				"x": -4.3734719753,
				"y": -1.6547468808,
				"z": 0.2869984453,
				"element": "H" 
			},
			{
				"x": -3.3210037886,
				"y": 0.041604893,
				"z": 2.6386415261,
				"element": "H" 
			},
			{
				"x": -2.7954767827,
				"y": -1.6089734006,
				"z": 2.2967261605,
				"element": "H" 
			},
			{
				"x": 0.9089832727,
				"y": -0.2496939601,
				"z": -2.2467110928,
				"element": "H" 
			},
			{
				"x": -0.7902163004,
				"y": -3.9928000749,
				"z": -0.9778597858,
				"element": "H" 
			},
			{
				"x": -2.2132271197,
				"y": -2.8078100513,
				"z": 0.638537535,
				"element": "H" 
			},
			{
				"x": 1.2500460513,
				"y": 2.6716995802,
				"z": -1.3982816696,
				"element": "H" 
			},
			{
				"x": -0.6690104164,
				"y": 1.8647075477,
				"z": -3.5291349738,
				"element": "H" 
			},
			{
				"x": -0.6323895087,
				"y": 3.5268153178,
				"z": -2.9103460299,
				"element": "H" 
			},
			{
				"x": 0.7926506782,
				"y": 2.8380661758,
				"z": -3.7428994428,
				"element": "H" 
			}
		],
		 "valence_orbital": [ 
			{
				"type": "occ",
				"energy": -0.29522,
				"method": "rhf"
			},
			{
				"type": "occ",
				"energy": -0.29111,
				"method": "rhf"
			},
			{
				"type": "occ",
				"energy": -0.2735,
				"method": "rhf"
			},
			{
				"type": "occ",
				"energy": -0.27044,
				"method": "rhf"
			},
			{
				"type": "occ",
				"energy": -0.22973,
				"method": "rhf"
			},
			{
				"type": "unocc",
				"energy": -0.03767,
				"method": "rhf"
			},
			{
				"type": "unocc",
				"energy": -0.01529,
				"method": "rhf"
			},
			{
				"type": "unocc",
				"energy": -0.00091,
				"method": "rhf"
			},
			{
				"type": "unocc",
				"energy": 0.05552,
				"method": "rhf"
			},
			{
				"type": "unocc",
				"energy": 0.07655,
				"method": "rhf"
			}
		],
		"cosmo_sigma_profile": { 
			"-0.025": 0.0,
			"-0.024": 0.0,
			"-0.023": 0.0,
			"-0.022": 0.0,
			"-0.021": 0.0,
			"-0.02": 0.0,
			"-0.019": 0.0,
			"-0.018": 0.0,
			"-0.017": 0.0,
			"-0.016": 0.0,
			"-0.015": 0.309160991043,
			"-0.014": 0.95787807098,
			"-0.013": 1.13323466427,
			"-0.012": 0.623149788352,
			"-0.011": 1.55782678167,
			"-0.01": 0.679712802527,
			"-0.009": 2.07678889376,
			"-0.008": 4.91179998383,
			"-0.007": 7.67898992944,
			"-0.006": 12.3712641338,
			"-0.005": 18.4417900617,
			"-0.004": 26.7339024558,
			"-0.003": 22.8657072833,
			"-0.002": 22.2020153834,
			"-0.001": 19.0986743543,
			"0.0": 20.3620566932,
			"0.001": 21.4818071451,
			"0.002": 19.123103176,
			"0.003": 10.7102497928,
			"0.004": 13.847036148,
			"0.005": 6.61702156642,
			"0.006": 3.1338435968,
			"0.007": 2.91224097184,
			"0.008": 3.48670658649,
			"0.009": 5.02075230718,
			"0.01": 7.75307253876,
			"0.011": 12.5706909894,
			"0.012": 5.99918067738,
			"0.013": 0.0840379956941,
			"0.014": 0.0,
			"0.015": 0.0,
			"0.016": 0.0,
			"0.017": 0.0,
			"0.018": 0.0,
			"0.019": 0.0,
			"0.02": 0.0,
			"0.021": 0.0,
			"0.022": 0.0,
			"0.023": 0.0,
			"0.024": 0.0,
			"0.025": 0.0
		}
	}
}
