{
	 "smiles": "NC(=O)NC1=CC=C(Br)C=C1", 
	 "Tm": 499.15, 
	 "num_atms": 18, 
	 "gaussian": { 
		 "optdone": 1, 
		 "sigma_profile": "yes", 
		 "theory": "DFT", 
		 "functional": "B3LYP", 
		 "basiset": "6-31G**", 
		 "properties": { 
			 "R2extent": 7752.0054, 
			 "electric_dipole_moment_norm": 5.0612343208, 
			 "electric_quadrupole_moment_norm": 6.1240898336, 
			 "total_energy": -3027.12239276, 
			 "HOMO_LUMO_gap": 0.20535, 
			 "cosmo_polarized_energy": -16.69, 
			 "cosmo_cavitation_energy": 24.89, 
			 "cosmo_dispersion_energy": -19.1, 
			 "cosmo_repulsion_energy": 1.54, 
			 "cosmo_total_nonelectrostatic_energy": 7.33, 
			 "SMD_solvation_energy": 3.91 
		},
		"coords": [
			{
				"x": -1.3542568362,
				"y": 1.5631359682,
				"z": 0.4810108384,
				"element": "N" 
			},
			{
				"x": 0.0248769981,
				"y": 1.4366800461,
				"z": 0.6151580441,
				"element": "C" 
			},
			{
				"x": 0.7455228257,
				"y": 2.3856924488,
				"z": 0.8851346598,
				"element": "O" 
			},
			{
				"x": 0.4713374206,
				"y": 0.1468435877,
				"z": 0.3661087581,
				"element": "N" 
			},
			{
				"x": 1.7935922164,
				"y": -0.3341910075,
				"z": 0.4025223717,
				"element": "C" 
			},
			{
				"x": 2.0029301382,
				"y": -1.6749429275,
				"z": 0.041183673,
				"element": "C" 
			},
			{
				"x": 3.277964084,
				"y": -2.2319812257,
				"z": 0.0628834833,
				"element": "C" 
			},
			{
				"x": 4.359270798,
				"y": -1.4444097696,
				"z": 0.4516816803,
				"element": "C" 
			},
			{
				"x": 6.1160053913,
				"y": -2.20012095,
				"z": 0.4864816915,
				"element": "Br" 
			},
			{
				"x": 4.1691544348,
				"y": -0.1128998372,
				"z": 0.8130793317,
				"element": "C" 
			},
			{
				"x": 2.8929737723,
				"y": 0.4481857812,
				"z": 0.7903401577,
				"element": "C" 
			},
			{
				"x": -1.6871087469,
				"y": 2.4568916998,
				"z": 0.8143012095,
				"element": "H" 
			},
			{
				"x": -1.9382890101,
				"y": 0.7816258565,
				"z": 0.7456381783,
				"element": "H" 
			},
			{
				"x": -0.2070352053,
				"y": -0.4993499669,
				"z": -0.0103738519,
				"element": "H" 
			},
			{
				"x": 1.1597410668,
				"y": -2.2928795237,
				"z": -0.2596871819,
				"element": "H" 
			},
			{
				"x": 3.4262572185,
				"y": -3.2679991471,
				"z": -0.2193600049,
				"element": "H" 
			},
			{
				"x": 5.0159277449,
				"y": 0.4947635437,
				"z": 1.1118662091,
				"element": "H" 
			},
			{
				"x": 2.7401356887,
				"y": 1.4834554234,
				"z": 1.0598307523,
				"element": "H" 
			}
		],
		 "valence_orbital": [ 
			{
				"type": "occ",
				"energy": -0.28341,
				"method": "rhf"
			},
			{
				"type": "occ",
				"energy": -0.28168,
				"method": "rhf"
			},
			{
				"type": "occ",
				"energy": -0.26685,
				"method": "rhf"
			},
			{
				"type": "occ",
				"energy": -0.26068,
				"method": "rhf"
			},
			{
				"type": "occ",
				"energy": -0.2167,
				"method": "rhf"
			},
			{
				"type": "unocc",
				"energy": -0.01135,
				"method": "rhf"
			},
			{
				"type": "unocc",
				"energy": -0.01006,
				"method": "rhf"
			},
			{
				"type": "unocc",
				"energy": 0.01247,
				"method": "rhf"
			},
			{
				"type": "unocc",
				"energy": 0.04633,
				"method": "rhf"
			},
			{
				"type": "unocc",
				"energy": 0.0569,
				"method": "rhf"
			}
		],
		"cosmo_sigma_profile": { 
			"-0.025": 0.0,
			"-0.024": 0.0,
			"-0.023": 0.0,
			"-0.022": 0.0,
			"-0.021": 0.0,
			"-0.02": 0.0,
			"-0.019": 0.0,
			"-0.018": 0.0,
			"-0.017": 0.0613400364243,
			"-0.016": 1.56662027585,
			"-0.015": 2.57838955759,
			"-0.014": 2.79023717494,
			"-0.013": 3.32077063189,
			"-0.012": 2.94974616886,
			"-0.011": 3.72448002437,
			"-0.01": 3.20031188594,
			"-0.009": 3.17274776024,
			"-0.008": 2.65607015056,
			"-0.007": 5.07991820279,
			"-0.006": 7.87509489535,
			"-0.005": 6.46950974314,
			"-0.004": 7.60196519443,
			"-0.003": 8.15701097406,
			"-0.002": 9.65410652971,
			"-0.001": 8.54746977685,
			"0.0": 9.80487214678,
			"0.001": 14.2636349431,
			"0.002": 16.7298736369,
			"0.003": 21.3343949141,
			"0.004": 25.1530650862,
			"0.005": 14.2055266924,
			"0.006": 2.3664593067,
			"0.007": 2.52599445796,
			"0.008": 1.81805053956,
			"0.009": 2.02164538482,
			"0.01": 2.3046680089,
			"0.011": 2.08489637951,
			"0.012": 2.48578626816,
			"0.013": 3.35099509712,
			"0.014": 2.1248037492,
			"0.015": 0.101423172539,
			"0.016": 0.0,
			"0.017": 0.0,
			"0.018": 0.0,
			"0.019": 0.0,
			"0.02": 0.0,
			"0.021": 0.0,
			"0.022": 0.0,
			"0.023": 0.0,
			"0.024": 0.0,
			"0.025": 0.0
		}
	}
}
