{
	 "smiles": "OC(=O)CCI", 
	 "Tm": 354.95, 
	 "num_atms": 11, 
	 "gaussian": { 
		 "optdone": 1, 
		 "sigma_profile": "no", 
		 "theory": "DFT", 
		 "functional": "B3LYP", 
		 "basiset": "6-31G**", 
		 "properties": { 
			 "R2extent": 1042.2825, 
			 "electric_dipole_moment_norm": 2.0679124377, 
			 "electric_quadrupole_moment_norm": 6.14075869254, 
			 "total_energy": -279.187806125, 
			 "HOMO_LUMO_gap": 0.21667, 
			 "cosmo_polarized_energy": -108179.97, 
			 "cosmo_cavitation_energy": 18.36, 
			 "cosmo_dispersion_energy": -15.09, 
			 "cosmo_repulsion_energy": 1.28, 
			 "cosmo_total_nonelectrostatic_energy": 4.55, 
			 "SMD_solvation_energy": 3.49 
		},
		"coords": [
			{
				"x": 0.1832930596,
				"y": -3.1696006372,
				"z": -0.216066306,
				"element": "O" 
			},
			{
				"x": 0.3449944478,
				"y": -1.9618851798,
				"z": -0.8012390752,
				"element": "C" 
			},
			{
				"x": 1.2017735191,
				"y": -1.7354300376,
				"z": -1.6267797139,
				"element": "O" 
			},
			{
				"x": -0.6742411764,
				"y": -0.9604709384,
				"z": -0.2899717595,
				"element": "C" 
			},
			{
				"x": -0.4823638237,
				"y": 0.3936897549,
				"z": -0.9560549861,
				"element": "C" 
			},
			{
				"x": -1.9357769129,
				"y": 1.8528148202,
				"z": -0.2415504283,
				"element": "I" 
			},
			{
				"x": 0.8659707064,
				"y": -3.7506440229,
				"z": -0.5924987364,
				"element": "H" 
			},
			{
				"x": -1.6757664288,
				"y": -1.3631340142,
				"z": -0.4756695383,
				"element": "H" 
			},
			{
				"x": -0.5741618122,
				"y": -0.8924525803,
				"z": 0.7986180052,
				"element": "H" 
			},
			{
				"x": 0.4932052127,
				"y": 0.8242205538,
				"z": -0.7408850388,
				"element": "H" 
			},
			{
				"x": -0.6223267917,
				"y": 0.3462922815,
				"z": -2.0338024226,
				"element": "H" 
			}
		],
		 "valence_orbital": [ 
			{
				"type": "occ",
				"energy": -0.34926,
				"method": "rhf"
			},
			{
				"type": "occ",
				"energy": -0.3329,
				"method": "rhf"
			},
			{
				"type": "occ",
				"energy": -0.29228,
				"method": "rhf"
			},
			{
				"type": "occ",
				"energy": -0.26346,
				"method": "rhf"
			},
			{
				"type": "occ",
				"energy": -0.26302,
				"method": "rhf"
			},
			{
				"type": "unocc",
				"energy": -0.04635,
				"method": "rhf"
			},
			{
				"type": "unocc",
				"energy": -0.0039,
				"method": "rhf"
			},
			{
				"type": "unocc",
				"energy": 0.03914,
				"method": "rhf"
			},
			{
				"type": "unocc",
				"energy": 0.04038,
				"method": "rhf"
			},
			{
				"type": "unocc",
				"energy": 0.051,
				"method": "rhf"
			}
		],
		"cosmo_sigma_profile": { 
			"0.0": 0.0,
			"0.0": 0.0,
			"0.0": 0.0,
			"0.0": 0.0,
			"0.0": 0.0,
			"0.0": 0.0,
			"0.0": 0.0,
			"0.0": 0.0,
			"0.0": 0.0,
			"0.0": 0.0,
			"0.0": 0.0,
			"0.0": 0.0,
			"0.0": 0.0,
			"0.0": 0.0,
			"0.0": 0.0,
			"0.0": 0.0,
			"0.0": 0.0,
			"0.0": 0.0,
			"0.0": 0.0,
			"0.0": 0.0,
			"0.0": 0.0,
			"0.0": 0.0,
			"0.0": 0.0,
			"0.0": 0.0,
			"0.0": 0.0,
			"0.0": 0.0,
			"0.0": 0.0,
			"0.0": 0.0,
			"0.0": 0.0,
			"0.0": 0.0,
			"0.0": 0.0,
			"0.0": 0.0,
			"0.0": 0.0,
			"0.0": 0.0,
			"0.0": 0.0,
			"0.0": 0.0,
			"0.0": 0.0,
			"0.0": 0.0,
			"0.0": 0.0,
			"0.0": 0.0,
			"0.0": 0.0,
			"0.0": 0.0,
			"0.0": 0.0,
			"0.0": 0.0,
			"0.0": 0.0,
			"0.0": 0.0,
			"0.0": 0.0,
			"0.0": 0.0,
			"0.0": 0.0,
			"0.0": 0.0,
			"0.0": 0.0
		}
	}
}
