{
	 "smiles": "CN1C=CC=C1C1=NN=C(S)N1C1=C(Cl)C=C(Cl)C=C1", 
	 "Tm": 527.15, 
	 "num_atms": 30, 
	 "gaussian": { 
		 "optdone": 1, 
		 "sigma_profile": "yes", 
		 "theory": "DFT", 
		 "functional": "B3LYP", 
		 "basiset": "6-31G**", 
		 "properties": { 
			 "R2extent": 8120.4901, 
			 "electric_dipole_moment_norm": 3.82607089584, 
			 "electric_quadrupole_moment_norm": 15.1267206714, 
			 "total_energy": -2038.94418848, 
			 "HOMO_LUMO_gap": 0.15516, 
			 "cosmo_polarized_energy": -16.05, 
			 "cosmo_cavitation_energy": 39.68, 
			 "cosmo_dispersion_energy": -27.64, 
			 "cosmo_repulsion_energy": 2.09, 
			 "cosmo_total_nonelectrostatic_energy": 14.13, 
			 "SMD_solvation_energy": 4.48 
		},
		"coords": [
			{
				"x": 2.8817479196,
				"y": -1.6323481189,
				"z": 0.9110333137,
				"element": "C" 
			},
			{
				"x": 1.8063999319,
				"y": -1.8011819228,
				"z": -0.062095093,
				"element": "N" 
			},
			{
				"x": 1.5852796556,
				"y": -2.9596981007,
				"z": -0.75565858,
				"element": "C" 
			},
			{
				"x": 0.4962333902,
				"y": -2.7904104281,
				"z": -1.5887713425,
				"element": "C" 
			},
			{
				"x": 0.0301970401,
				"y": -1.4727771728,
				"z": -1.3942420382,
				"element": "C" 
			},
			{
				"x": 0.8512714941,
				"y": -0.8662102414,
				"z": -0.4438048399,
				"element": "C" 
			},
			{
				"x": 0.8376904309,
				"y": 0.4785212146,
				"z": 0.0965749309,
				"element": "C" 
			},
			{
				"x": 1.8315674714,
				"y": 1.051970873,
				"z": 0.7579128726,
				"element": "N" 
			},
			{
				"x": 1.4577683345,
				"y": 2.3283676414,
				"z": 1.0902387126,
				"element": "N" 
			},
			{
				"x": 0.2491124024,
				"y": 2.5249165637,
				"z": 0.6280788838,
				"element": "C" 
			},
			{
				"x": -0.709944877,
				"y": 3.9814816287,
				"z": 0.8978114335,
				"element": "S" 
			},
			{
				"x": -0.2139775352,
				"y": 1.3769544099,
				"z": -0.0102664639,
				"element": "N" 
			},
			{
				"x": -1.5165126611,
				"y": 1.1711310826,
				"z": -0.5442286128,
				"element": "C" 
			},
			{
				"x": -1.8835547471,
				"y": 1.6716349048,
				"z": -1.8024464202,
				"element": "C" 
			},
			{
				"x": -0.7351382789,
				"y": 2.5651538396,
				"z": -2.7714065366,
				"element": "Cl" 
			},
			{
				"x": -3.1662900052,
				"y": 1.4623733651,
				"z": -2.3086086726,
				"element": "C" 
			},
			{
				"x": -4.0833697331,
				"y": 0.7422113194,
				"z": -1.5448463276,
				"element": "C" 
			},
			{
				"x": -5.6930327245,
				"y": 0.4757658439,
				"z": -2.1791883062,
				"element": "Cl" 
			},
			{
				"x": -3.7433782612,
				"y": 0.2342624373,
				"z": -0.2904810976,
				"element": "C" 
			},
			{
				"x": -2.460859265,
				"y": 0.4571072354,
				"z": 0.1998653829,
				"element": "C" 
			},
			{
				"x": 2.4843853873,
				"y": -1.3051305794,
				"z": 1.8734731302,
				"element": "H" 
			},
			{
				"x": 3.3780006654,
				"y": -2.5971989199,
				"z": 1.0310712214,
				"element": "H" 
			},
			{
				"x": 3.5984412393,
				"y": -0.8814637042,
				"z": 0.5763207503,
				"element": "H" 
			},
			{
				"x": 2.2235078314,
				"y": -3.8170669573,
				"z": -0.598494862,
				"element": "H" 
			},
			{
				"x": 0.0871348017,
				"y": -3.5313522542,
				"z": -2.26029405,
				"element": "H" 
			},
			{
				"x": -0.7989767752,
				"y": -1.0073074577,
				"z": -1.9033873009,
				"element": "H" 
			},
			{
				"x": -0.7164631995,
				"y": 4.411820871,
				"z": -0.3831620879,
				"element": "H" 
			},
			{
				"x": -3.4396367707,
				"y": 1.8534921848,
				"z": -3.2806592296,
				"element": "H" 
			},
			{
				"x": -4.4705165911,
				"y": -0.3203841015,
				"z": 0.2906408988,
				"element": "H" 
			},
			{
				"x": -2.1724865711,
				"y": 0.0748645438,
				"z": 1.1730203308,
				"element": "H" 
			}
		],
		 "valence_orbital": [ 
			{
				"type": "occ",
				"energy": -0.27745,
				"method": "rhf"
			},
			{
				"type": "occ",
				"energy": -0.26268,
				"method": "rhf"
			},
			{
				"type": "occ",
				"energy": -0.25178,
				"method": "rhf"
			},
			{
				"type": "occ",
				"energy": -0.24351,
				"method": "rhf"
			},
			{
				"type": "occ",
				"energy": -0.20608,
				"method": "rhf"
			},
			{
				"type": "unocc",
				"energy": -0.05092,
				"method": "rhf"
			},
			{
				"type": "unocc",
				"energy": -0.04645,
				"method": "rhf"
			},
			{
				"type": "unocc",
				"energy": -0.02547,
				"method": "rhf"
			},
			{
				"type": "unocc",
				"energy": -0.01098,
				"method": "rhf"
			},
			{
				"type": "unocc",
				"energy": 0.00825,
				"method": "rhf"
			}
		],
		"cosmo_sigma_profile": { 
			"-0.025": 0.0,
			"-0.024": 0.0,
			"-0.023": 0.0,
			"-0.022": 0.0,
			"-0.021": 0.0,
			"-0.02": 0.0,
			"-0.019": 0.0,
			"-0.018": 0.0,
			"-0.017": 0.0,
			"-0.016": 0.0,
			"-0.015": 0.0,
			"-0.014": 0.0,
			"-0.013": 0.0,
			"-0.012": 0.0,
			"-0.011": 0.843985955934,
			"-0.01": 1.25652940011,
			"-0.009": 4.29291800161,
			"-0.008": 10.8292170451,
			"-0.007": 10.6952380408,
			"-0.006": 12.521156906,
			"-0.005": 17.1716714391,
			"-0.004": 18.0807614316,
			"-0.003": 24.4340935636,
			"-0.002": 28.8491386819,
			"-0.001": 26.6067075076,
			"0.0": 31.0170932208,
			"0.001": 25.5953166497,
			"0.002": 23.9408970658,
			"0.003": 24.5362593978,
			"0.004": 18.9148274177,
			"0.005": 8.92719142334,
			"0.006": 8.99017676695,
			"0.007": 7.56717499424,
			"0.008": 3.43613163931,
			"0.009": 2.89120011118,
			"0.01": 2.29281689924,
			"0.011": 2.14886604526,
			"0.012": 3.41546516061,
			"0.013": 3.25430146285,
			"0.014": 1.72038887705,
			"0.015": 1.10802408059,
			"0.016": 0.853299247314,
			"0.017": 0.039675225884,
			"0.018": 0.0,
			"0.019": 0.0,
			"0.02": 0.0,
			"0.021": 0.0,
			"0.022": 0.0,
			"0.023": 0.0,
			"0.024": 0.0,
			"0.025": 0.0
		}
	}
}
