{
	 "smiles": "CN1C=C(NS(=O)(=O)C2=C(SC=C2)C(O)=O)C=N1", 
	 "Tm": 513.15, 
	 "num_atms": 27, 
	 "gaussian": { 
		 "optdone": 1, 
		 "sigma_profile": "yes", 
		 "theory": "DFT", 
		 "functional": "B3LYP", 
		 "basiset": "6-31G**", 
		 "properties": { 
			 "R2extent": 5932.6545, 
			 "electric_dipole_moment_norm": 6.17390102042, 
			 "electric_quadrupole_moment_norm": 34.7645617644, 
			 "total_energy": -1609.78055914, 
			 "HOMO_LUMO_gap": 0.17479, 
			 "cosmo_polarized_energy": -28.9, 
			 "cosmo_cavitation_energy": 35.69, 
			 "cosmo_dispersion_energy": -25.79, 
			 "cosmo_repulsion_energy": 1.93, 
			 "cosmo_total_nonelectrostatic_energy": 11.83, 
			 "SMD_solvation_energy": 6.33 
		},
		"coords": [
			{
				"x": 1.2404603474,
				"y": 4.2802623667,
				"z": -3.3168086364,
				"element": "C" 
			},
			{
				"x": 1.7293637242,
				"y": 3.2161997454,
				"z": -2.457896322,
				"element": "N" 
			},
			{
				"x": 1.5969378797,
				"y": 3.1068435692,
				"z": -1.1156075056,
				"element": "C" 
			},
			{
				"x": 2.1489663976,
				"y": 1.8792694436,
				"z": -0.7692432748,
				"element": "C" 
			},
			{
				"x": 2.2793777524,
				"y": 1.2845687544,
				"z": 0.5141340363,
				"element": "N" 
			},
			{
				"x": 0.9376428673,
				"y": 1.151151488,
				"z": 1.5482330547,
				"element": "S" 
			},
			{
				"x": -0.0681566978,
				"y": 2.1574494135,
				"z": 1.2113818453,
				"element": "O" 
			},
			{
				"x": 1.5306074692,
				"y": 1.0587888476,
				"z": 2.8820708278,
				"element": "O" 
			},
			{
				"x": 0.2816271517,
				"y": -0.4516026356,
				"z": 1.0628924247,
				"element": "C" 
			},
			{
				"x": -1.030837194,
				"y": -0.8324067776,
				"z": 1.241341239,
				"element": "C" 
			},
			{
				"x": -1.2721732612,
				"y": -2.4564745168,
				"z": 0.6457350161,
				"element": "S" 
			},
			{
				"x": 0.3834335227,
				"y": -2.5921932815,
				"z": 0.1703133643,
				"element": "C" 
			},
			{
				"x": 1.0901080942,
				"y": -1.4577351054,
				"z": 0.4556385791,
				"element": "C" 
			},
			{
				"x": -2.1430629444,
				"y": -0.1062297525,
				"z": 1.9266265395,
				"element": "C" 
			},
			{
				"x": -3.3792307922,
				"y": -0.2985472898,
				"z": 1.3944011087,
				"element": "O" 
			},
			{
				"x": -1.9880478364,
				"y": 0.5628627251,
				"z": 2.9138584933,
				"element": "O" 
			},
			{
				"x": 2.585203682,
				"y": 1.3253435842,
				"z": -1.9947214391,
				"element": "C" 
			},
			{
				"x": 2.3347805049,
				"y": 2.1405716063,
				"z": -3.015613413,
				"element": "N" 
			},
			{
				"x": 1.0247306495,
				"y": 5.1598406142,
				"z": -2.708209247,
				"element": "H" 
			},
			{
				"x": 2.0087055163,
				"y": 4.5237516629,
				"z": -4.0526146992,
				"element": "H" 
			},
			{
				"x": 0.330970541,
				"y": 3.9692038703,
				"z": -3.8395310941,
				"element": "H" 
			},
			{
				"x": 1.1119088767,
				"y": 3.8583155372,
				"z": -0.5120078797,
				"element": "H" 
			},
			{
				"x": 3.0657302732,
				"y": 1.5818961554,
				"z": 1.086555679,
				"element": "H" 
			},
			{
				"x": 0.7429465916,
				"y": -3.5063802612,
				"z": -0.2816019464,
				"element": "H" 
			},
			{
				"x": 2.1400704929,
				"y": -1.3186731368,
				"z": 0.2377827542,
				"element": "H" 
			},
			{
				"x": -3.3138453504,
				"y": -0.6910375433,
				"z": 0.5115364815,
				"element": "H" 
			},
			{
				"x": 3.0855817418,
				"y": 0.3804609163,
				"z": -2.1600459862,
				"element": "H" 
			}
		],
		 "valence_orbital": [ 
			{
				"type": "occ",
				"energy": -0.28647,
				"method": "rhf"
			},
			{
				"type": "occ",
				"energy": -0.27719,
				"method": "rhf"
			},
			{
				"type": "occ",
				"energy": -0.26738,
				"method": "rhf"
			},
			{
				"type": "occ",
				"energy": -0.26302,
				"method": "rhf"
			},
			{
				"type": "occ",
				"energy": -0.24959,
				"method": "rhf"
			},
			{
				"type": "unocc",
				"energy": -0.0748,
				"method": "rhf"
			},
			{
				"type": "unocc",
				"energy": -0.01805,
				"method": "rhf"
			},
			{
				"type": "unocc",
				"energy": 0.00212,
				"method": "rhf"
			},
			{
				"type": "unocc",
				"energy": 0.00619,
				"method": "rhf"
			},
			{
				"type": "unocc",
				"energy": 0.02265,
				"method": "rhf"
			}
		],
		"cosmo_sigma_profile": { 
			"-0.025": 0.0,
			"-0.024": 0.0,
			"-0.023": 0.0,
			"-0.022": 0.0,
			"-0.021": 0.0,
			"-0.02": 0.0,
			"-0.019": 0.535736754179,
			"-0.018": 1.09599944111,
			"-0.017": 1.16821754176,
			"-0.016": 0.198033080289,
			"-0.015": 2.4379696622,
			"-0.014": 1.47536641303,
			"-0.013": 1.39777343244,
			"-0.012": 2.81605376751,
			"-0.011": 2.65032835838,
			"-0.01": 4.4028505507,
			"-0.009": 6.30642688361,
			"-0.008": 7.95137617802,
			"-0.007": 10.8872115277,
			"-0.006": 15.4706514383,
			"-0.005": 16.1552985747,
			"-0.004": 17.130555612,
			"-0.003": 19.5630641356,
			"-0.002": 14.8912872058,
			"-0.001": 20.7367999985,
			"0.0": 19.5316164767,
			"0.001": 16.4342171638,
			"0.002": 11.967431725,
			"0.003": 10.5058779406,
			"0.004": 6.17314292138,
			"0.005": 7.71126824969,
			"0.006": 6.57094239568,
			"0.007": 6.26862506411,
			"0.008": 8.71548453246,
			"0.009": 12.1517903844,
			"0.01": 15.3941796655,
			"0.011": 13.548293685,
			"0.012": 2.66759842866,
			"0.013": 1.12890043264,
			"0.014": 1.19245282519,
			"0.015": 0.798012894954,
			"0.016": 0.290875357481,
			"0.017": 0.0,
			"0.018": 0.0,
			"0.019": 0.0,
			"0.02": 0.0,
			"0.021": 0.0,
			"0.022": 0.0,
			"0.023": 0.0,
			"0.024": 0.0,
			"0.025": 0.0
		}
	}
}
