{
	 "smiles": "CCOC(=O)[C@H](CCC1=CC=CC=C1)N[C@@H](C)C(=O)N1CC2=CC=CC=C2C[C@H]1C(O)=O", 
	 "Tm": 398.15, 
	 "num_atms": 62, 
	 "gaussian": { 
		 "optdone": 1, 
		 "sigma_profile": "yes", 
		 "theory": "DFT", 
		 "functional": "B3LYP", 
		 "basiset": "6-31G**", 
		 "properties": { 
			 "R2extent": 14227.0895, 
			 "electric_dipole_moment_norm": 1.70583816642, 
			 "electric_quadrupole_moment_norm": 11.6200691715, 
			 "total_energy": -1456.41203538, 
			 "HOMO_LUMO_gap": 0.21417, 
			 "cosmo_polarized_energy": -20.12, 
			 "cosmo_cavitation_energy": 60.7, 
			 "cosmo_dispersion_energy": -37.64, 
			 "cosmo_repulsion_energy": 2.81, 
			 "cosmo_total_nonelectrostatic_energy": 25.88, 
			 "SMD_solvation_energy": 9.85 
		},
		"coords": [
			{
				"x": 2.3130526386,
				"y": -1.1623361266,
				"z": 3.5038935248,
				"element": "C" 
			},
			{
				"x": 1.3119509661,
				"y": -2.2360067248,
				"z": 3.122129644,
				"element": "C" 
			},
			{
				"x": 0.6865564254,
				"y": -1.8273193907,
				"z": 1.8752425583,
				"element": "O" 
			},
			{
				"x": -0.0188421937,
				"y": -2.7792456843,
				"z": 1.2270401805,
				"element": "C" 
			},
			{
				"x": -0.1857844141,
				"y": -3.9004546572,
				"z": 1.6613502975,
				"element": "O" 
			},
			{
				"x": -0.552272335,
				"y": -2.3204683455,
				"z": -0.1329437454,
				"element": "C" 
			},
			{
				"x": -2.0796689899,
				"y": -2.524721948,
				"z": -0.2006300086,
				"element": "C" 
			},
			{
				"x": -2.8665540532,
				"y": -1.743905413,
				"z": 0.8699960959,
				"element": "C" 
			},
			{
				"x": -2.6745969527,
				"y": -0.2350409414,
				"z": 0.8794183594,
				"element": "C" 
			},
			{
				"x": -2.6272197155,
				"y": 0.4517486578,
				"z": 2.1009590095,
				"element": "C" 
			},
			{
				"x": -2.4994910303,
				"y": 1.8407773952,
				"z": 2.1464220149,
				"element": "C" 
			},
			{
				"x": -2.407841626,
				"y": 2.5730263548,
				"z": 0.9618868817,
				"element": "C" 
			},
			{
				"x": -2.4436475192,
				"y": 1.9019955427,
				"z": -0.2617097313,
				"element": "C" 
			},
			{
				"x": -2.5770001513,
				"y": 0.5126844655,
				"z": -0.3044540707,
				"element": "C" 
			},
			{
				"x": 0.2733288178,
				"y": -3.077083076,
				"z": -1.0916628098,
				"element": "N" 
			},
			{
				"x": 0.1711178164,
				"y": -2.840844084,
				"z": -2.5425364919,
				"element": "C" 
			},
			{
				"x": -1.0047145991,
				"y": -3.5113467182,
				"z": -3.2709043119,
				"element": "C" 
			},
			{
				"x": 0.1897978205,
				"y": -1.3265279308,
				"z": -2.843345714,
				"element": "C" 
			},
			{
				"x": -0.8407815321,
				"y": -0.7442922376,
				"z": -3.1780294417,
				"element": "O" 
			},
			{
				"x": 1.3859127026,
				"y": -0.6534090408,
				"z": -2.7681792575,
				"element": "N" 
			},
			{
				"x": 1.3163129669,
				"y": 0.790754447,
				"z": -3.0416569369,
				"element": "C" 
			},
			{
				"x": 2.6662224291,
				"y": 1.463281064,
				"z": -3.1692808967,
				"element": "C" 
			},
			{
				"x": 2.700459516,
				"y": 2.8528349936,
				"z": -3.3527782154,
				"element": "C" 
			},
			{
				"x": 3.9099077253,
				"y": 3.5268323965,
				"z": -3.4933525487,
				"element": "C" 
			},
			{
				"x": 5.1115483424,
				"y": 2.8143892384,
				"z": -3.4411582701,
				"element": "C" 
			},
			{
				"x": 5.0856711414,
				"y": 1.4362413868,
				"z": -3.2480498243,
				"element": "C" 
			},
			{
				"x": 3.8711331327,
				"y": 0.7491922624,
				"z": -3.1159230345,
				"element": "C" 
			},
			{
				"x": 3.8415845119,
				"y": -0.7475043428,
				"z": -2.9130140045,
				"element": "C" 
			},
			{
				"x": 2.5886269614,
				"y": -1.1851766774,
				"z": -2.1388128417,
				"element": "C" 
			},
			{
				"x": 2.7180862812,
				"y": -0.8475518171,
				"z": -0.6453291187,
				"element": "C" 
			},
			{
				"x": 1.7266304356,
				"y": -0.0606820922,
				"z": -0.192313217,
				"element": "O" 
			},
			{
				"x": 3.6153003596,
				"y": -1.2740571323,
				"z": 0.0491320901,
				"element": "O" 
			},
			{
				"x": 2.8047818229,
				"y": -1.4319855883,
				"z": 4.4437695322,
				"element": "H" 
			},
			{
				"x": 1.8199728983,
				"y": -0.1952416163,
				"z": 3.6477839697,
				"element": "H" 
			},
			{
				"x": 3.0809242048,
				"y": -1.0636899583,
				"z": 2.7305334278,
				"element": "H" 
			},
			{
				"x": 1.7880187507,
				"y": -3.2073804796,
				"z": 2.9689701075,
				"element": "H" 
			},
			{
				"x": 0.5276600112,
				"y": -2.3614692039,
				"z": 3.8755880531,
				"element": "H" 
			},
			{
				"x": -0.3253609738,
				"y": -1.2611963047,
				"z": -0.2545065057,
				"element": "H" 
			},
			{
				"x": -2.2990436478,
				"y": -3.5927073733,
				"z": -0.0901115904,
				"element": "H" 
			},
			{
				"x": -2.4178967137,
				"y": -2.2232503253,
				"z": -1.1942669786,
				"element": "H" 
			},
			{
				"x": -3.9330708091,
				"y": -1.9655216613,
				"z": 0.7249648915,
				"element": "H" 
			},
			{
				"x": -2.6207450055,
				"y": -2.1387962936,
				"z": 1.8633687414,
				"element": "H" 
			},
			{
				"x": -2.6957675355,
				"y": -0.111247899,
				"z": 3.0292050398,
				"element": "H" 
			},
			{
				"x": -2.4680507945,
				"y": 2.3488638021,
				"z": 3.1065801987,
				"element": "H" 
			},
			{
				"x": -2.3054455316,
				"y": 3.6541605916,
				"z": 0.992034559,
				"element": "H" 
			},
			{
				"x": -2.3667776111,
				"y": 2.458866349,
				"z": -1.1915664999,
				"element": "H" 
			},
			{
				"x": -2.5817784023,
				"y": 0.0169590559,
				"z": -1.2706603754,
				"element": "H" 
			},
			{
				"x": 0.182719908,
				"y": -4.0711713497,
				"z": -0.8965890269,
				"element": "H" 
			},
			{
				"x": 1.0845071162,
				"y": -3.2779496617,
				"z": -2.9705116922,
				"element": "H" 
			},
			{
				"x": -1.9554015823,
				"y": -3.0256338488,
				"z": -3.0551881926,
				"element": "H" 
			},
			{
				"x": -0.8506028603,
				"y": -3.4653313419,
				"z": -4.3541167959,
				"element": "H" 
			},
			{
				"x": -1.0638692019,
				"y": -4.5662723673,
				"z": -2.9827659504,
				"element": "H" 
			},
			{
				"x": 0.7295620497,
				"y": 1.2797074934,
				"z": -2.2537581713,
				"element": "H" 
			},
			{
				"x": 0.7437351782,
				"y": 0.9144174221,
				"z": -3.9662766187,
				"element": "H" 
			},
			{
				"x": 1.765338724,
				"y": 3.4074437677,
				"z": -3.3854553293,
				"element": "H" 
			},
			{
				"x": 3.9173779322,
				"y": 4.6033787733,
				"z": -3.6371707336,
				"element": "H" 
			},
			{
				"x": 6.0608397265,
				"y": 3.3324335618,
				"z": -3.5413857358,
				"element": "H" 
			},
			{
				"x": 6.0171138296,
				"y": 0.8778312819,
				"z": -3.1936018919,
				"element": "H" 
			},
			{
				"x": 3.8398589962,
				"y": -1.2663893748,
				"z": -3.8803343275,
				"element": "H" 
			},
			{
				"x": 4.7260494857,
				"y": -1.0841217576,
				"z": -2.364702158,
				"element": "H" 
			},
			{
				"x": 2.5381125206,
				"y": -2.2736918254,
				"z": -2.1471685432,
				"element": "H" 
			},
			{
				"x": 1.7572516359,
				"y": -0.0773976922,
				"z": 0.7799324311,
				"element": "H" 
			}
		],
		 "valence_orbital": [ 
			{
				"type": "occ",
				"energy": -0.24531,
				"method": "rhf"
			},
			{
				"type": "occ",
				"energy": -0.24267,
				"method": "rhf"
			},
			{
				"type": "occ",
				"energy": -0.23917,
				"method": "rhf"
			},
			{
				"type": "occ",
				"energy": -0.23512,
				"method": "rhf"
			},
			{
				"type": "occ",
				"energy": -0.22602,
				"method": "rhf"
			},
			{
				"type": "unocc",
				"energy": -0.01185,
				"method": "rhf"
			},
			{
				"type": "unocc",
				"energy": -0.00231,
				"method": "rhf"
			},
			{
				"type": "unocc",
				"energy": 0.00098,
				"method": "rhf"
			},
			{
				"type": "unocc",
				"energy": 0.00547,
				"method": "rhf"
			},
			{
				"type": "unocc",
				"energy": 0.0063,
				"method": "rhf"
			}
		],
		"cosmo_sigma_profile": { 
			"-0.025": 0.0,
			"-0.024": 0.0,
			"-0.023": 0.0,
			"-0.022": 0.0,
			"-0.021": 0.0,
			"-0.02": 0.0,
			"-0.019": 0.0,
			"-0.018": 0.0,
			"-0.017": 0.0,
			"-0.016": 0.0,
			"-0.015": 0.0,
			"-0.014": 0.0,
			"-0.013": 0.246427141483,
			"-0.012": 0.610588543395,
			"-0.011": 1.13002578893,
			"-0.01": 1.42775163971,
			"-0.009": 2.67503439911,
			"-0.008": 3.92368217827,
			"-0.007": 4.1079694419,
			"-0.006": 14.2191852537,
			"-0.005": 37.782963864,
			"-0.004": 49.2436561402,
			"-0.003": 49.5151416545,
			"-0.002": 41.7726354948,
			"-0.001": 42.9805632102,
			"0.0": 37.4591572708,
			"0.001": 30.7633254077,
			"0.002": 26.8996722098,
			"0.003": 26.4786782832,
			"0.004": 25.5635418291,
			"0.005": 23.6658179504,
			"0.006": 19.3634790231,
			"0.007": 6.69880653417,
			"0.008": 4.834180099,
			"0.009": 3.88357786189,
			"0.01": 5.1893119323,
			"0.011": 7.52799184828,
			"0.012": 6.37400317254,
			"0.013": 2.7119103893,
			"0.014": 0.584637969269,
			"0.015": 0.0,
			"0.016": 0.0,
			"0.017": 0.0,
			"0.018": 0.0,
			"0.019": 0.0,
			"0.02": 0.0,
			"0.021": 0.0,
			"0.022": 0.0,
			"0.023": 0.0,
			"0.024": 0.0,
			"0.025": 0.0
		}
	}
}
