{
	 "smiles": "ClC1=CC(=C(C=C1)C#N)S(Cl)(=O)=O", 
	 "Tm": 353.15, 
	 "num_atms": 16, 
	 "gaussian": { 
		 "optdone": 1, 
		 "sigma_profile": "yes", 
		 "theory": "DFT", 
		 "functional": "B3LYP", 
		 "basiset": "6-31G**", 
		 "properties": { 
			 "R2extent": 3931.0777, 
			 "electric_dipole_moment_norm": 5.87432219835, 
			 "electric_quadrupole_moment_norm": 7.07692491694, 
			 "total_energy": -1792.22174646, 
			 "HOMO_LUMO_gap": 0.17947, 
			 "cosmo_polarized_energy": -13.64, 
			 "cosmo_cavitation_energy": 27.34, 
			 "cosmo_dispersion_energy": -19.9, 
			 "cosmo_repulsion_energy": 1.54, 
			 "cosmo_total_nonelectrostatic_energy": 8.98, 
			 "SMD_solvation_energy": 4.31 
		},
		"coords": [
			{
				"x": 0.7611177869,
				"y": -0.6882199744,
				"z": 3.9417000872,
				"element": "Cl" 
			},
			{
				"x": 0.3693669795,
				"y": -0.3662410581,
				"z": 2.2739530256,
				"element": "C" 
			},
			{
				"x": 1.3508149813,
				"y": 0.1586078161,
				"z": 1.4308451005,
				"element": "C" 
			},
			{
				"x": 1.0258809003,
				"y": 0.414637545,
				"z": 0.1027880467,
				"element": "C" 
			},
			{
				"x": -0.2604462542,
				"y": 0.1550407862,
				"z": -0.4101417419,
				"element": "C" 
			},
			{
				"x": -1.2217356626,
				"y": -0.3751479758,
				"z": 0.4665974432,
				"element": "C" 
			},
			{
				"x": -0.9148357953,
				"y": -0.6339957052,
				"z": 1.7991344388,
				"element": "C" 
			},
			{
				"x": -0.6414081883,
				"y": 0.3801898062,
				"z": -1.7728833115,
				"element": "C" 
			},
			{
				"x": -1.0285884828,
				"y": 0.5159726239,
				"z": -2.8603496626,
				"element": "N" 
			},
			{
				"x": 2.3309048018,
				"y": 1.1443175617,
				"z": -0.9073011879,
				"element": "S" 
			},
			{
				"x": 2.8555785184,
				"y": -0.4975009223,
				"z": -2.1311651862,
				"element": "Cl" 
			},
			{
				"x": 1.7591929074,
				"y": 2.1642004215,
				"z": -1.7713507428,
				"element": "O" 
			},
			{
				"x": 3.4755928559,
				"y": 1.4048577683,
				"z": -0.0449038832,
				"element": "O" 
			},
			{
				"x": 2.3482181489,
				"y": 0.3703076451,
				"z": 1.7960211434,
				"element": "H" 
			},
			{
				"x": -2.2166727254,
				"y": -0.5820783388,
				"z": 0.0883139814,
				"element": "H" 
			},
			{
				"x": -1.6664807718,
				"y": -1.0416479995,
				"z": 2.4653424492,
				"element": "H" 
			}
		],
		 "valence_orbital": [ 
			{
				"type": "occ",
				"energy": -0.34968,
				"method": "rhf"
			},
			{
				"type": "occ",
				"energy": -0.34393,
				"method": "rhf"
			},
			{
				"type": "occ",
				"energy": -0.32852,
				"method": "rhf"
			},
			{
				"type": "occ",
				"energy": -0.31999,
				"method": "rhf"
			},
			{
				"type": "occ",
				"energy": -0.29158,
				"method": "rhf"
			},
			{
				"type": "unocc",
				"energy": -0.11211,
				"method": "rhf"
			},
			{
				"type": "unocc",
				"energy": -0.08608,
				"method": "rhf"
			},
			{
				"type": "unocc",
				"energy": -0.07077,
				"method": "rhf"
			},
			{
				"type": "unocc",
				"energy": -0.00926,
				"method": "rhf"
			},
			{
				"type": "unocc",
				"energy": 0.00674,
				"method": "rhf"
			}
		],
		"cosmo_sigma_profile": { 
			"-0.025": 0.0,
			"-0.024": 0.0,
			"-0.023": 0.0,
			"-0.022": 0.0,
			"-0.021": 0.0,
			"-0.02": 0.0,
			"-0.019": 0.0,
			"-0.018": 0.0,
			"-0.017": 0.0,
			"-0.016": 0.0,
			"-0.015": 0.0,
			"-0.014": 0.0,
			"-0.013": 0.0,
			"-0.012": 0.0,
			"-0.011": 0.447094322207,
			"-0.01": 4.41957834202,
			"-0.009": 6.60006277352,
			"-0.008": 5.90258850655,
			"-0.007": 5.47504066435,
			"-0.006": 7.66554905828,
			"-0.005": 8.65902163937,
			"-0.004": 17.3954662438,
			"-0.003": 20.787722431,
			"-0.002": 19.6902626433,
			"-0.001": 13.6478750143,
			"0.0": 11.3678658269,
			"0.001": 15.8611466546,
			"0.002": 22.0498875948,
			"0.003": 16.7827392823,
			"0.004": 5.02694726101,
			"0.005": 5.79515345781,
			"0.006": 7.81592987613,
			"0.007": 13.0203100747,
			"0.008": 9.85774875794,
			"0.009": 2.88186955659,
			"0.01": 2.67368917587,
			"0.011": 2.3567408214,
			"0.012": 0.86002709032,
			"0.013": 0.0,
			"0.014": 0.0,
			"0.015": 0.0,
			"0.016": 0.0,
			"0.017": 0.0,
			"0.018": 0.0,
			"0.019": 0.0,
			"0.02": 0.0,
			"0.021": 0.0,
			"0.022": 0.0,
			"0.023": 0.0,
			"0.024": 0.0,
			"0.025": 0.0
		}
	}
}
