{
	 "smiles": "[O-][N+](=O)C1=CC=C2CCC3=CC=CC1=C23", 
	 "Tm": 376.15, 
	 "num_atms": 24, 
	 "gaussian": { 
		 "optdone": 1, 
		 "sigma_profile": "yes", 
		 "theory": "DFT", 
		 "functional": "B3LYP", 
		 "basiset": "6-31G**", 
		 "properties": { 
			 "R2extent": 3077.0199, 
			 "electric_dipole_moment_norm": 6.02981920293, 
			 "electric_quadrupole_moment_norm": 14.4183516166, 
			 "total_energy": -667.815214259, 
			 "HOMO_LUMO_gap": 0.1398, 
			 "cosmo_polarized_energy": -9.52, 
			 "cosmo_cavitation_energy": 27.34, 
			 "cosmo_dispersion_energy": -20.78, 
			 "cosmo_repulsion_energy": 1.59, 
			 "cosmo_total_nonelectrostatic_energy": 8.16, 
			 "SMD_solvation_energy": 5.93 
		},
		"coords": [
			{
				"x": -0.5227372337,
				"y": -4.2702335919,
				"z": -0.0389561793,
				"element": "O" 
			},
			{
				"x": -1.0291972446,
				"y": -3.1899884891,
				"z": 0.2739686675,
				"element": "N" 
			},
			{
				"x": -2.1967575897,
				"y": -3.0727895482,
				"z": 0.6554371594,
				"element": "O" 
			},
			{
				"x": -0.1980396071,
				"y": -1.983653581,
				"z": 0.1873667104,
				"element": "C" 
			},
			{
				"x": 1.1074889706,
				"y": -2.1739620175,
				"z": -0.243768864,
				"element": "C" 
			},
			{
				"x": 2.0205531104,
				"y": -1.1078150838,
				"z": -0.3751587828,
				"element": "C" 
			},
			{
				"x": 1.5916367289,
				"y": 0.1653202224,
				"z": -0.0620559335,
				"element": "C" 
			},
			{
				"x": 2.3095653027,
				"y": 1.4987974121,
				"z": -0.0943509505,
				"element": "C" 
			},
			{
				"x": 1.2435529913,
				"y": 2.5402472809,
				"z": 0.379805973,
				"element": "C" 
			},
			{
				"x": -0.0036596278,
				"y": 1.7198457259,
				"z": 0.6507816075,
				"element": "C" 
			},
			{
				"x": -1.2571878866,
				"y": 2.0802334774,
				"z": 1.0897274051,
				"element": "C" 
			},
			{
				"x": -2.2318999838,
				"y": 1.0630555602,
				"z": 1.24772563,
				"element": "C" 
			},
			{
				"x": -1.9818802375,
				"y": -0.2733669229,
				"z": 0.9814950969,
				"element": "C" 
			},
			{
				"x": -0.6970068639,
				"y": -0.680945421,
				"z": 0.5262415847,
				"element": "C" 
			},
			{
				"x": 0.2624668905,
				"y": 0.3576440368,
				"z": 0.3761379639,
				"element": "C" 
			},
			{
				"x": 1.4114571179,
				"y": -3.185616413,
				"z": -0.4812619679,
				"element": "H" 
			},
			{
				"x": 3.0318097563,
				"y": -1.3073363425,
				"z": -0.7161007119,
				"element": "H" 
			},
			{
				"x": 2.6784975469,
				"y": 1.7238892715,
				"z": -1.1013877549,
				"element": "H" 
			},
			{
				"x": 3.1877638711,
				"y": 1.4890217478,
				"z": 0.5611373007,
				"element": "H" 
			},
			{
				"x": 1.5743794373,
				"y": 3.0734566397,
				"z": 1.2780733623,
				"element": "H" 
			},
			{
				"x": 1.0607155822,
				"y": 3.3038400549,
				"z": -0.3845453425,
				"element": "H" 
			},
			{
				"x": -1.5094266214,
				"y": 3.1130066537,
				"z": 1.3136032678,
				"element": "H" 
			},
			{
				"x": -3.2232894616,
				"y": 1.3421825504,
				"z": 1.5940523524,
				"element": "H" 
			},
			{
				"x": -2.7596049483,
				"y": -1.0087332229,
				"z": 1.1183324056,
				"element": "H" 
			}
		],
		 "valence_orbital": [ 
			{
				"type": "occ",
				"energy": -0.29503,
				"method": "rhf"
			},
			{
				"type": "occ",
				"energy": -0.29309,
				"method": "rhf"
			},
			{
				"type": "occ",
				"energy": -0.27701,
				"method": "rhf"
			},
			{
				"type": "occ",
				"energy": -0.26054,
				"method": "rhf"
			},
			{
				"type": "occ",
				"energy": -0.22631,
				"method": "rhf"
			},
			{
				"type": "unocc",
				"energy": -0.08651,
				"method": "rhf"
			},
			{
				"type": "unocc",
				"energy": -0.02919,
				"method": "rhf"
			},
			{
				"type": "unocc",
				"energy": -0.02541,
				"method": "rhf"
			},
			{
				"type": "unocc",
				"energy": 0.02606,
				"method": "rhf"
			},
			{
				"type": "unocc",
				"energy": 0.08461,
				"method": "rhf"
			}
		],
		"cosmo_sigma_profile": { 
			"-0.025": 0.0,
			"-0.024": 0.0,
			"-0.023": 0.0,
			"-0.022": 0.0,
			"-0.021": 0.0,
			"-0.02": 0.0,
			"-0.019": 0.0,
			"-0.018": 0.0,
			"-0.017": 0.0,
			"-0.016": 0.0,
			"-0.015": 0.0,
			"-0.014": 0.0,
			"-0.013": 0.0,
			"-0.012": 0.0,
			"-0.011": 0.0,
			"-0.01": 0.0,
			"-0.009": 0.0,
			"-0.008": 0.0593141168745,
			"-0.007": 2.86533944374,
			"-0.006": 8.63403331487,
			"-0.005": 18.4009479021,
			"-0.004": 23.3161559382,
			"-0.003": 22.2272031086,
			"-0.002": 19.6977101695,
			"-0.001": 16.7202220105,
			"0.0": 14.5172481924,
			"0.001": 19.9047166237,
			"0.002": 17.8887710013,
			"0.003": 14.0814870101,
			"0.004": 11.1272657241,
			"0.005": 3.66258963307,
			"0.006": 3.36503249276,
			"0.007": 4.10589180418,
			"0.008": 6.96633721546,
			"0.009": 5.15129569089,
			"0.01": 4.33416961759,
			"0.011": 2.26874093306,
			"0.012": 0.0440324119177,
			"0.013": 0.0,
			"0.014": 0.0,
			"0.015": 0.0,
			"0.016": 0.0,
			"0.017": 0.0,
			"0.018": 0.0,
			"0.019": 0.0,
			"0.02": 0.0,
			"0.021": 0.0,
			"0.022": 0.0,
			"0.023": 0.0,
			"0.024": 0.0,
			"0.025": 0.0
		}
	}
}
