{
	 "smiles": "OC1=C(Cl)C=C(C=C1)C1=NC2=C(S1)C=CC=C2", 
	 "Tm": 460.15, 
	 "num_atms": 25, 
	 "gaussian": { 
		 "optdone": 1, 
		 "sigma_profile": "yes", 
		 "theory": "DFT", 
		 "functional": "B3LYP", 
		 "basiset": "6-31G**", 
		 "properties": { 
			 "R2extent": 7276.637, 
			 "electric_dipole_moment_norm": 0.868003531099, 
			 "electric_quadrupole_moment_norm": 9.98848457375, 
			 "total_energy": -1488.5753601, 
			 "HOMO_LUMO_gap": 0.15811, 
			 "cosmo_polarized_energy": -8.73, 
			 "cosmo_cavitation_energy": 32.93, 
			 "cosmo_dispersion_energy": -25.32, 
			 "cosmo_repulsion_energy": 1.88, 
			 "cosmo_total_nonelectrostatic_energy": 9.49, 
			 "SMD_solvation_energy": 3.63 
		},
		"coords": [
			{
				"x": -1.7679488371,
				"y": 4.4438161352,
				"z": 2.4724822734,
				"element": "O" 
			},
			{
				"x": -1.101873033,
				"y": 3.4777593671,
				"z": 1.8031838702,
				"element": "C" 
			},
			{
				"x": 0.2367623863,
				"y": 3.1353429253,
				"z": 2.0669589495,
				"element": "C" 
			},
			{
				"x": 1.083874197,
				"y": 4.0170568328,
				"z": 3.3389731125,
				"element": "Cl" 
			},
			{
				"x": 0.8867103455,
				"y": 2.1380328865,
				"z": 1.3588574265,
				"element": "C" 
			},
			{
				"x": 0.2058971551,
				"y": 1.4399081523,
				"z": 0.3470462944,
				"element": "C" 
			},
			{
				"x": -1.1316641864,
				"y": 1.7774102609,
				"z": 0.0788641679,
				"element": "C" 
			},
			{
				"x": -1.7749837766,
				"y": 2.7782259162,
				"z": 0.7935139342,
				"element": "C" 
			},
			{
				"x": 0.9213485208,
				"y": 0.3897865696,
				"z": -0.3846546715,
				"element": "C" 
			},
			{
				"x": 2.1571175182,
				"y": 0.0622398165,
				"z": -0.1525384692,
				"element": "N" 
			},
			{
				"x": 2.5846778327,
				"y": -0.9553509965,
				"z": -0.9825874061,
				"element": "C" 
			},
			{
				"x": 1.6199052853,
				"y": -1.4345402134,
				"z": -1.903709307,
				"element": "C" 
			},
			{
				"x": 0.12639709,
				"y": -0.544466223,
				"z": -1.6866592049,
				"element": "S" 
			},
			{
				"x": 1.9152029089,
				"y": -2.4609847577,
				"z": -2.8028342198,
				"element": "C" 
			},
			{
				"x": 3.1954504497,
				"y": -3.0096665711,
				"z": -2.7731271263,
				"element": "C" 
			},
			{
				"x": 4.1624939163,
				"y": -2.5442025814,
				"z": -1.8647728333,
				"element": "C" 
			},
			{
				"x": 3.8684490881,
				"y": -1.5227859066,
				"z": -0.9701231387,
				"element": "C" 
			},
			{
				"x": -1.1757529831,
				"y": 4.8343020648,
				"z": 3.1343998404,
				"element": "H" 
			},
			{
				"x": 1.9181652793,
				"y": 1.8867906427,
				"z": 1.5747523185,
				"element": "H" 
			},
			{
				"x": -1.6811750177,
				"y": 1.2538741123,
				"z": -0.6975771341,
				"element": "H" 
			},
			{
				"x": -2.8071081755,
				"y": 3.0424968111,
				"z": 0.5904025618,
				"element": "H" 
			},
			{
				"x": 1.1720072393,
				"y": -2.8235451074,
				"z": -3.5057346903,
				"element": "H" 
			},
			{
				"x": 3.4481981969,
				"y": -3.8091315702,
				"z": -3.4630811123,
				"element": "H" 
			},
			{
				"x": 5.1522090772,
				"y": -2.9908124938,
				"z": -1.8643806675,
				"element": "H" 
			},
			{
				"x": 4.6039395229,
				"y": -1.1529560724,
				"z": -0.2633547684,
				"element": "H" 
			}
		],
		 "valence_orbital": [ 
			{
				"type": "occ",
				"energy": -0.27834,
				"method": "rhf"
			},
			{
				"type": "occ",
				"energy": -0.2664,
				"method": "rhf"
			},
			{
				"type": "occ",
				"energy": -0.25991,
				"method": "rhf"
			},
			{
				"type": "occ",
				"energy": -0.23632,
				"method": "rhf"
			},
			{
				"type": "occ",
				"energy": -0.21783,
				"method": "rhf"
			},
			{
				"type": "unocc",
				"energy": -0.05972,
				"method": "rhf"
			},
			{
				"type": "unocc",
				"energy": -0.02233,
				"method": "rhf"
			},
			{
				"type": "unocc",
				"energy": -0.00693,
				"method": "rhf"
			},
			{
				"type": "unocc",
				"energy": 0.00817,
				"method": "rhf"
			},
			{
				"type": "unocc",
				"energy": 0.00947,
				"method": "rhf"
			}
		],
		"cosmo_sigma_profile": { 
			"-0.025": 0.0,
			"-0.024": 0.0,
			"-0.023": 0.0,
			"-0.022": 0.0,
			"-0.021": 0.0,
			"-0.02": 0.0,
			"-0.019": 0.0,
			"-0.018": 0.0,
			"-0.017": 0.0,
			"-0.016": 0.0923251309753,
			"-0.015": 1.04134581857,
			"-0.014": 0.428144952522,
			"-0.013": 0.584733400949,
			"-0.012": 0.531055530132,
			"-0.011": 1.17685093919,
			"-0.01": 1.17699390295,
			"-0.009": 0.586991382931,
			"-0.008": 2.09797999385,
			"-0.007": 8.26130393464,
			"-0.006": 14.8120023253,
			"-0.005": 13.8894242144,
			"-0.004": 14.3746175196,
			"-0.003": 14.1233149701,
			"-0.002": 14.7152757164,
			"-0.001": 17.1463523828,
			"0.0": 25.7977807828,
			"0.001": 30.4128190514,
			"0.002": 34.4335470673,
			"0.003": 28.774108174,
			"0.004": 21.4621134973,
			"0.005": 9.00237356396,
			"0.006": 3.04697658001,
			"0.007": 3.35954336638,
			"0.008": 2.9339300809,
			"0.009": 2.41407543531,
			"0.01": 2.65652520855,
			"0.011": 1.0519458487,
			"0.012": 0.0172481960866,
			"0.013": 0.0,
			"0.014": 0.0,
			"0.015": 0.0,
			"0.016": 0.0,
			"0.017": 0.0,
			"0.018": 0.0,
			"0.019": 0.0,
			"0.02": 0.0,
			"0.021": 0.0,
			"0.022": 0.0,
			"0.023": 0.0,
			"0.024": 0.0,
			"0.025": 0.0
		}
	}
}
