{
	 "smiles": "ClCCNC(=O)C1CCCC1", 
	 "Tm": 346.15, 
	 "num_atms": 25, 
	 "gaussian": { 
		 "optdone": 1, 
		 "sigma_profile": "yes", 
		 "theory": "DFT", 
		 "functional": "B3LYP", 
		 "basiset": "6-31G**", 
		 "properties": { 
			 "R2extent": 4475.5588, 
			 "electric_dipole_moment_norm": 4.45048262776, 
			 "electric_quadrupole_moment_norm": 15.1350910119, 
			 "total_energy": -903.488482504, 
			 "HOMO_LUMO_gap": 0.26541, 
			 "cosmo_polarized_energy": -12.86, 
			 "cosmo_cavitation_energy": 28.64, 
			 "cosmo_dispersion_energy": -21.01, 
			 "cosmo_repulsion_energy": 1.76, 
			 "cosmo_total_nonelectrostatic_energy": 9.39, 
			 "SMD_solvation_energy": 3.76 
		},
		"coords": [
			{
				"x": 1.8800201328,
				"y": -5.2301024009,
				"z": -2.2923550382,
				"element": "Cl" 
			},
			{
				"x": 0.7206206439,
				"y": -4.0612981544,
				"z": -1.5295728039,
				"element": "C" 
			},
			{
				"x": 1.0873525277,
				"y": -2.6226816286,
				"z": -1.8996645852,
				"element": "C" 
			},
			{
				"x": 0.1412130766,
				"y": -1.6754711399,
				"z": -1.3301851745,
				"element": "N" 
			},
			{
				"x": 0.2277096437,
				"y": -1.2721175642,
				"z": -0.0231227718,
				"element": "C" 
			},
			{
				"x": 1.1009124737,
				"y": -1.6995555589,
				"z": 0.7258517161,
				"element": "O" 
			},
			{
				"x": -0.8221247464,
				"y": -0.2685928553,
				"z": 0.4380231451,
				"element": "C" 
			},
			{
				"x": -1.6748461858,
				"y": -0.8035884313,
				"z": 1.6086228908,
				"element": "C" 
			},
			{
				"x": -2.3143450096,
				"y": 0.4634977597,
				"z": 2.2031784561,
				"element": "C" 
			},
			{
				"x": -1.2545385394,
				"y": 1.5851914186,
				"z": 2.0122995054,
				"element": "C" 
			},
			{
				"x": -0.1889391854,
				"y": 1.0079940078,
				"z": 1.04107209,
				"element": "C" 
			},
			{
				"x": -0.2765659861,
				"y": -4.3279731451,
				"z": -1.8839085704,
				"element": "H" 
			},
			{
				"x": 0.7820430245,
				"y": -4.2021478263,
				"z": -0.4508385836,
				"element": "H" 
			},
			{
				"x": 1.0997655184,
				"y": -2.5018807275,
				"z": -2.9860385819,
				"element": "H" 
			},
			{
				"x": 2.0832642065,
				"y": -2.3945349194,
				"z": -1.5125517153,
				"element": "H" 
			},
			{
				"x": -0.6128736753,
				"y": -1.3294125346,
				"z": -1.9032489445,
				"element": "H" 
			},
			{
				"x": -1.4839575989,
				"y": 0.0034794773,
				"z": -0.3964153178,
				"element": "H" 
			},
			{
				"x": -0.9989500823,
				"y": -1.2771627495,
				"z": 2.3293468334,
				"element": "H" 
			},
			{
				"x": -2.4097957065,
				"y": -1.5533036016,
				"z": 1.2968979924,
				"element": "H" 
			},
			{
				"x": -2.6043349749,
				"y": 0.3291588712,
				"z": 3.2496984651,
				"element": "H" 
			},
			{
				"x": -3.2284463235,
				"y": 0.710889028,
				"z": 1.6506858264,
				"element": "H" 
			},
			{
				"x": -1.7154690486,
				"y": 2.4920095421,
				"z": 1.6083280807,
				"element": "H" 
			},
			{
				"x": -0.7936534068,
				"y": 1.8669237973,
				"z": 2.9639208457,
				"element": "H" 
			},
			{
				"x": 0.1192953988,
				"y": 1.722341777,
				"z": 0.2713812206,
				"element": "H" 
			},
			{
				"x": 0.7094438228,
				"y": 0.7058375584,
				"z": 1.5876950193,
				"element": "H" 
			}
		],
		 "valence_orbital": [ 
			{
				"type": "occ",
				"energy": -0.31885,
				"method": "rhf"
			},
			{
				"type": "occ",
				"energy": -0.30023,
				"method": "rhf"
			},
			{
				"type": "occ",
				"energy": -0.29417,
				"method": "rhf"
			},
			{
				"type": "occ",
				"energy": -0.26106,
				"method": "rhf"
			},
			{
				"type": "occ",
				"energy": -0.25246,
				"method": "rhf"
			},
			{
				"type": "unocc",
				"energy": 0.01295,
				"method": "rhf"
			},
			{
				"type": "unocc",
				"energy": 0.03443,
				"method": "rhf"
			},
			{
				"type": "unocc",
				"energy": 0.06227,
				"method": "rhf"
			},
			{
				"type": "unocc",
				"energy": 0.08727,
				"method": "rhf"
			},
			{
				"type": "unocc",
				"energy": 0.10085,
				"method": "rhf"
			}
		],
		"cosmo_sigma_profile": { 
			"-0.025": 0.0,
			"-0.024": 0.0,
			"-0.023": 0.0,
			"-0.022": 0.0,
			"-0.021": 0.0,
			"-0.02": 0.0,
			"-0.019": 0.0,
			"-0.018": 0.0,
			"-0.017": 0.0,
			"-0.016": 0.0,
			"-0.015": 0.175717250803,
			"-0.014": 1.30252102313,
			"-0.013": 1.66160918757,
			"-0.012": 0.93172634682,
			"-0.011": 1.83070886251,
			"-0.01": 1.44859010171,
			"-0.009": 1.24832722868,
			"-0.008": 2.22854160453,
			"-0.007": 4.90865942887,
			"-0.006": 7.10158857012,
			"-0.005": 7.70988291003,
			"-0.004": 7.15852745157,
			"-0.003": 18.2416326249,
			"-0.002": 28.6419195536,
			"-0.001": 32.1418496694,
			"0.0": 22.913186628,
			"0.001": 23.433578232,
			"0.002": 9.08823162108,
			"0.003": 6.71359110735,
			"0.004": 7.25982186562,
			"0.005": 7.57236012181,
			"0.006": 11.1447595235,
			"0.007": 5.50701643725,
			"0.008": 1.61929851624,
			"0.009": 1.74251404301,
			"0.01": 1.15021573538,
			"0.011": 1.66453810881,
			"0.012": 1.2637032827,
			"0.013": 1.96832988448,
			"0.014": 4.34766070459,
			"0.015": 0.81461305683,
			"0.016": 0.0,
			"0.017": 0.0,
			"0.018": 0.0,
			"0.019": 0.0,
			"0.02": 0.0,
			"0.021": 0.0,
			"0.022": 0.0,
			"0.023": 0.0,
			"0.024": 0.0,
			"0.025": 0.0
		}
	}
}
