{
	 "smiles": "NC1=C(C=C(Cl)C=C1)C(F)(F)F", 
	 "Tm": 282.15, 
	 "num_atms": 17, 
	 "gaussian": { 
		 "optdone": 1, 
		 "sigma_profile": "yes", 
		 "theory": "DFT", 
		 "functional": "B3LYP", 
		 "basiset": "6-31G**", 
		 "properties": { 
			 "R2extent": 3227.8063, 
			 "electric_dipole_moment_norm": 3.3130522317, 
			 "electric_quadrupole_moment_norm": 4.73353415959, 
			 "total_energy": -1084.23500985, 
			 "HOMO_LUMO_gap": 0.18663, 
			 "cosmo_polarized_energy": -7.65, 
			 "cosmo_cavitation_energy": 24.08, 
			 "cosmo_dispersion_energy": -17.71, 
			 "cosmo_repulsion_energy": 1.36, 
			 "cosmo_total_nonelectrostatic_energy": 7.72, 
			 "SMD_solvation_energy": 4.84 
		},
		"coords": [
			{
				"x": 0.2434631366,
				"y": -1.3617410287,
				"z": -0.0767825056,
				"element": "N" 
			},
			{
				"x": -0.3204978136,
				"y": -0.1684460257,
				"z": 0.3392184235,
				"element": "C" 
			},
			{
				"x": -0.7869352311,
				"y": 0.8049863702,
				"z": -0.5770784674,
				"element": "C" 
			},
			{
				"x": -1.3934180865,
				"y": 1.978692068,
				"z": -0.1232348087,
				"element": "C" 
			},
			{
				"x": -1.5481766659,
				"y": 2.2034231652,
				"z": 1.2390824916,
				"element": "C" 
			},
			{
				"x": -2.3081632494,
				"y": 3.6851369996,
				"z": 1.8005433028,
				"element": "Cl" 
			},
			{
				"x": -1.1014446844,
				"y": 1.2561075225,
				"z": 2.1611727412,
				"element": "C" 
			},
			{
				"x": -0.4956183235,
				"y": 0.0900766472,
				"z": 1.7120476139,
				"element": "C" 
			},
			{
				"x": -0.6702143045,
				"y": 0.5664404908,
				"z": -2.0549309198,
				"element": "C" 
			},
			{
				"x": -1.0300883603,
				"y": 1.638963553,
				"z": -2.7840511384,
				"element": "F" 
			},
			{
				"x": -1.429147464,
				"y": -0.4748319287,
				"z": -2.4661510165,
				"element": "F" 
			},
			{
				"x": 0.6122271639,
				"y": 0.2563405179,
				"z": -2.4156824048,
				"element": "F" 
			},
			{
				"x": 0.6707364526,
				"y": -1.3727232433,
				"z": -0.9906807088,
				"element": "H" 
			},
			{
				"x": 0.7685906455,
				"y": -1.8666407357,
				"z": 0.6214862548,
				"element": "H" 
			},
			{
				"x": -1.7401522879,
				"y": 2.7119708211,
				"z": -0.8403754045,
				"element": "H" 
			},
			{
				"x": -1.2227980351,
				"y": 1.4331990103,
				"z": 3.2243124957,
				"element": "H" 
			},
			{
				"x": -0.1482628923,
				"y": -0.6437542038,
				"z": 2.434304051,
				"element": "H" 
			}
		],
		 "valence_orbital": [ 
			{
				"type": "occ",
				"energy": -0.36233,
				"method": "rhf"
			},
			{
				"type": "occ",
				"energy": -0.31356,
				"method": "rhf"
			},
			{
				"type": "occ",
				"energy": -0.30384,
				"method": "rhf"
			},
			{
				"type": "occ",
				"energy": -0.27568,
				"method": "rhf"
			},
			{
				"type": "occ",
				"energy": -0.21795,
				"method": "rhf"
			},
			{
				"type": "unocc",
				"energy": -0.03132,
				"method": "rhf"
			},
			{
				"type": "unocc",
				"energy": -0.00802,
				"method": "rhf"
			},
			{
				"type": "unocc",
				"energy": 0.02814,
				"method": "rhf"
			},
			{
				"type": "unocc",
				"energy": 0.07676,
				"method": "rhf"
			},
			{
				"type": "unocc",
				"energy": 0.10542,
				"method": "rhf"
			}
		],
		"cosmo_sigma_profile": { 
			"-0.025": 0.0,
			"-0.024": 0.0,
			"-0.023": 0.0,
			"-0.022": 0.0,
			"-0.021": 0.0,
			"-0.02": 0.0,
			"-0.019": 0.0,
			"-0.018": 0.0,
			"-0.017": 0.0,
			"-0.016": 0.0,
			"-0.015": 0.0,
			"-0.014": 0.356854913752,
			"-0.013": 1.55020240703,
			"-0.012": 2.272007104,
			"-0.011": 2.82884605084,
			"-0.01": 2.46473135783,
			"-0.009": 1.92172018554,
			"-0.008": 3.76355920968,
			"-0.007": 5.70680208802,
			"-0.006": 5.73188648158,
			"-0.005": 7.08776101325,
			"-0.004": 6.19318243125,
			"-0.003": 6.34026809323,
			"-0.002": 8.87616538956,
			"-0.001": 12.2164654367,
			"0.0": 12.8250895713,
			"0.001": 17.9966381124,
			"0.002": 33.3102582659,
			"0.003": 35.9226849481,
			"0.004": 13.419788729,
			"0.005": 9.21489379112,
			"0.006": 1.91278312751,
			"0.007": 0.53710647921,
			"0.008": 0.933842434753,
			"0.009": 0.62298851592,
			"0.01": 0.569978497464,
			"0.011": 0.629086468198,
			"0.012": 0.196984303003,
			"0.013": 0.0,
			"0.014": 0.0,
			"0.015": 0.0,
			"0.016": 0.0,
			"0.017": 0.0,
			"0.018": 0.0,
			"0.019": 0.0,
			"0.02": 0.0,
			"0.021": 0.0,
			"0.022": 0.0,
			"0.023": 0.0,
			"0.024": 0.0,
			"0.025": 0.0
		}
	}
}
