{
	 "smiles": "COC(=O)C1=CC=C(O1)C#CC1=CC=CC=C1", 
	 "Tm": 353.65, 
	 "num_atms": 27, 
	 "gaussian": { 
		 "optdone": 1, 
		 "sigma_profile": "yes", 
		 "theory": "DFT", 
		 "functional": "B3LYP", 
		 "basiset": "6-31G**", 
		 "properties": { 
			 "R2extent": 8412.3342, 
			 "electric_dipole_moment_norm": 2.6811891746, 
			 "electric_quadrupole_moment_norm": 12.3692959209, 
			 "total_energy": -765.116761485, 
			 "HOMO_LUMO_gap": 0.14632, 
			 "cosmo_polarized_energy": -10.45, 
			 "cosmo_cavitation_energy": 34.64, 
			 "cosmo_dispersion_energy": -24.86, 
			 "cosmo_repulsion_energy": 1.96, 
			 "cosmo_total_nonelectrostatic_energy": 11.73, 
			 "SMD_solvation_energy": 8.27 
		},
		"coords": [
			{
				"x": 5.0363355595,
				"y": -2.9068281341,
				"z": -4.1462552071,
				"element": "C" 
			},
			{
				"x": 3.9323203894,
				"y": -2.6209370207,
				"z": -3.2733738157,
				"element": "O" 
			},
			{
				"x": 3.1636259062,
				"y": -3.6846153169,
				"z": -2.9639742733,
				"element": "C" 
			},
			{
				"x": 3.3551067813,
				"y": -4.8155879135,
				"z": -3.3711775134,
				"element": "O" 
			},
			{
				"x": 2.0536026873,
				"y": -3.3369720687,
				"z": -2.0721720864,
				"element": "C" 
			},
			{
				"x": 1.0743266239,
				"y": -4.1444302393,
				"z": -1.5481857504,
				"element": "C" 
			},
			{
				"x": 0.2522756231,
				"y": -3.3110242637,
				"z": -0.7515017754,
				"element": "C" 
			},
			{
				"x": 0.7827362264,
				"y": -2.0379972842,
				"z": -0.8381417981,
				"element": "C" 
			},
			{
				"x": 1.8874450391,
				"y": -2.0511976397,
				"z": -1.6474262305,
				"element": "O" 
			},
			{
				"x": 0.3953338703,
				"y": -0.8155199718,
				"z": -0.2668599576,
				"element": "C" 
			},
			{
				"x": 0.0483785776,
				"y": 0.2375483495,
				"z": 0.2349172469,
				"element": "C" 
			},
			{
				"x": -0.3541989981,
				"y": 1.4704022338,
				"z": 0.8195170362,
				"element": "C" 
			},
			{
				"x": 0.3712768488,
				"y": 2.6519400227,
				"z": 0.562515095,
				"element": "C" 
			},
			{
				"x": -0.0259992816,
				"y": 3.8560242085,
				"z": 1.1364858683,
				"element": "C" 
			},
			{
				"x": -1.1456417342,
				"y": 3.9046698973,
				"z": 1.9712990151,
				"element": "C" 
			},
			{
				"x": -1.870379079,
				"y": 2.738540098,
				"z": 2.2313604696,
				"element": "C" 
			},
			{
				"x": -1.4825670487,
				"y": 1.5286902943,
				"z": 1.6629834989,
				"element": "C" 
			},
			{
				"x": 5.7093141107,
				"y": -3.6374306674,
				"z": -3.6902400719,
				"element": "H" 
			},
			{
				"x": 5.5463271295,
				"y": -1.9550551291,
				"z": -4.2931389614,
				"element": "H" 
			},
			{
				"x": 4.6807259971,
				"y": -3.3039070695,
				"z": -5.1004559698,
				"element": "H" 
			},
			{
				"x": 0.977963753,
				"y": -5.2046858665,
				"z": -1.7281318557,
				"element": "H" 
			},
			{
				"x": -0.6205907172,
				"y": -3.5904656301,
				"z": -0.1804873738,
				"element": "H" 
			},
			{
				"x": 1.239940942,
				"y": 2.6092148296,
				"z": -0.0863319693,
				"element": "H" 
			},
			{
				"x": 0.5398463996,
				"y": 4.7601699216,
				"z": 0.9319459834,
				"element": "H" 
			},
			{
				"x": -1.451830872,
				"y": 4.8464779195,
				"z": 2.4168975989,
				"element": "H" 
			},
			{
				"x": -2.7411113302,
				"y": 2.7722090277,
				"z": 2.8796043523,
				"element": "H" 
			},
			{
				"x": -2.0427634035,
				"y": 0.6209674129,
				"z": 1.8625284454,
				"element": "H" 
			}
		],
		 "valence_orbital": [ 
			{
				"type": "occ",
				"energy": -0.28574,
				"method": "rhf"
			},
			{
				"type": "occ",
				"energy": -0.2757,
				"method": "rhf"
			},
			{
				"type": "occ",
				"energy": -0.26907,
				"method": "rhf"
			},
			{
				"type": "occ",
				"energy": -0.26211,
				"method": "rhf"
			},
			{
				"type": "occ",
				"energy": -0.21166,
				"method": "rhf"
			},
			{
				"type": "unocc",
				"energy": -0.06534,
				"method": "rhf"
			},
			{
				"type": "unocc",
				"energy": -0.01982,
				"method": "rhf"
			},
			{
				"type": "unocc",
				"energy": -0.01062,
				"method": "rhf"
			},
			{
				"type": "unocc",
				"energy": 0.02309,
				"method": "rhf"
			},
			{
				"type": "unocc",
				"energy": 0.03156,
				"method": "rhf"
			}
		],
		"cosmo_sigma_profile": { 
			"-0.025": 0.0,
			"-0.024": 0.0,
			"-0.023": 0.0,
			"-0.022": 0.0,
			"-0.021": 0.0,
			"-0.02": 0.0,
			"-0.019": 0.0,
			"-0.018": 0.0,
			"-0.017": 0.0,
			"-0.016": 0.0,
			"-0.015": 0.0,
			"-0.014": 0.0,
			"-0.013": 0.0,
			"-0.012": 0.0,
			"-0.011": 0.0,
			"-0.01": 0.0,
			"-0.009": 1.10760973182,
			"-0.008": 3.22392233065,
			"-0.007": 6.22527106956,
			"-0.006": 19.3713789135,
			"-0.005": 21.4423927734,
			"-0.004": 23.3330432776,
			"-0.003": 20.482261546,
			"-0.002": 17.4101060707,
			"-0.001": 16.9877935585,
			"0.0": 18.9750090898,
			"0.001": 23.465562414,
			"0.002": 27.9558563686,
			"0.003": 24.0218214863,
			"0.004": 23.8103447531,
			"0.005": 7.29834550868,
			"0.006": 3.30697536101,
			"0.007": 3.38366381738,
			"0.008": 3.82171203794,
			"0.009": 2.87395578007,
			"0.01": 3.62081667778,
			"0.011": 3.31136431561,
			"0.012": 4.24809144763,
			"0.013": 0.192382339451,
			"0.014": 0.0,
			"0.015": 0.0,
			"0.016": 0.0,
			"0.017": 0.0,
			"0.018": 0.0,
			"0.019": 0.0,
			"0.02": 0.0,
			"0.021": 0.0,
			"0.022": 0.0,
			"0.023": 0.0,
			"0.024": 0.0,
			"0.025": 0.0
		}
	}
}
