{
	 "smiles": "FC(F)(F)C(F)(F)C(F)(F)C(F)(F)C(F)(F)C(F)(F)C(F)(F)C(F)(F)C(=O)NC1=NC2=CC=CC=C2S1", 
	 "Tm": 442.15, 
	 "num_atms": 42, 
	 "gaussian": { 
		 "optdone": 1, 
		 "sigma_profile": "yes", 
		 "theory": "DFT", 
		 "functional": "B3LYP", 
		 "basiset": "6-31G**", 
		 "properties": { 
			 "R2extent": 19331.5219, 
			 "electric_dipole_moment_norm": 4.73908528832, 
			 "electric_quadrupole_moment_norm": 16.956101017, 
			 "total_energy": -2892.84313226, 
			 "HOMO_LUMO_gap": 0.18226, 
			 "cosmo_polarized_energy": -11.91, 
			 "cosmo_cavitation_energy": 53.85, 
			 "cosmo_dispersion_energy": -35.19, 
			 "cosmo_repulsion_energy": 2.27, 
			 "cosmo_total_nonelectrostatic_energy": 20.94, 
			 "SMD_solvation_energy": 13.02 
		},
		"coords": [
			{
				"x": 2.5195128272,
				"y": -4.488632039,
				"z": -3.440529017,
				"element": "F" 
			},
			{
				"x": 2.1781804748,
				"y": -3.3107161943,
				"z": -3.9757846643,
				"element": "C" 
			},
			{
				"x": 3.2013284743,
				"y": -2.455637262,
				"z": -3.8575284967,
				"element": "F" 
			},
			{
				"x": 1.9179975333,
				"y": -3.485358538,
				"z": -5.2771114093,
				"element": "F" 
			},
			{
				"x": 0.9135494788,
				"y": -2.7388117953,
				"z": -3.2879694424,
				"element": "C" 
			},
			{
				"x": -0.1383702931,
				"y": -3.4851193762,
				"z": -3.6992375911,
				"element": "F" 
			},
			{
				"x": 0.7467721322,
				"y": -1.4688654315,
				"z": -3.7176359474,
				"element": "F" 
			},
			{
				"x": 0.8536168282,
				"y": -2.7519910569,
				"z": -1.7280861226,
				"element": "C" 
			},
			{
				"x": 0.8184994297,
				"y": -4.0380453511,
				"z": -1.3175874302,
				"element": "F" 
			},
			{
				"x": -0.3184114619,
				"y": -2.1541716572,
				"z": -1.4106549144,
				"element": "F" 
			},
			{
				"x": 2.0093807703,
				"y": -2.0303211157,
				"z": -0.9898511125,
				"element": "C" 
			},
			{
				"x": 3.1351469008,
				"y": -2.7528411585,
				"z": -1.2257817386,
				"element": "F" 
			},
			{
				"x": 2.1707970306,
				"y": -0.7939920054,
				"z": -1.5130043245,
				"element": "F" 
			},
			{
				"x": 1.9207045492,
				"y": -1.9184728069,
				"z": 0.5656625981,
				"element": "C" 
			},
			{
				"x": 1.8024492778,
				"y": -3.1772576265,
				"z": 1.0512410364,
				"element": "F" 
			},
			{
				"x": 3.1110408722,
				"y": -1.4096209952,
				"z": 0.957464282,
				"element": "F" 
			},
			{
				"x": 0.8033214935,
				"y": -1.081052799,
				"z": 1.2745117948,
				"element": "C" 
			},
			{
				"x": 1.1519040467,
				"y": -1.0755708586,
				"z": 2.5804889228,
				"element": "F" 
			},
			{
				"x": -0.3723336012,
				"y": -1.7353110394,
				"z": 1.1389621547,
				"element": "F" 
			},
			{
				"x": 0.6151814596,
				"y": 0.3810326895,
				"z": 0.7887320789,
				"element": "C" 
			},
			{
				"x": 0.0028599262,
				"y": 0.3423359475,
				"z": -0.4155490193,
				"element": "F" 
			},
			{
				"x": 1.8384678794,
				"y": 0.9475498165,
				"z": 0.6455765787,
				"element": "F" 
			},
			{
				"x": -0.2006186879,
				"y": 1.3238239445,
				"z": 1.7264310581,
				"element": "C" 
			},
			{
				"x": 0.4993597212,
				"y": 1.4651371405,
				"z": 2.8771944596,
				"element": "F" 
			},
			{
				"x": -0.2373333627,
				"y": 2.5359551599,
				"z": 1.118512141,
				"element": "F" 
			},
			{
				"x": -1.6165269393,
				"y": 0.8316311291,
				"z": 2.1323989435,
				"element": "C" 
			},
			{
				"x": -1.7017407835,
				"y": -0.0214121772,
				"z": 2.9917345119,
				"element": "O" 
			},
			{
				"x": -2.7426339398,
				"y": 1.4476310264,
				"z": 1.6228318861,
				"element": "N" 
			},
			{
				"x": -2.9462305196,
				"y": 2.2232376166,
				"z": 0.4768665868,
				"element": "C" 
			},
			{
				"x": -2.3715062299,
				"y": 2.037094405,
				"z": -0.6598573186,
				"element": "N" 
			},
			{
				"x": -2.8019299151,
				"y": 2.9751178663,
				"z": -1.5855019577,
				"element": "C" 
			},
			{
				"x": -2.362660152,
				"y": 3.0494780423,
				"z": -2.9144863494,
				"element": "C" 
			},
			{
				"x": -2.903353818,
				"y": 4.021922825,
				"z": -3.7474184752,
				"element": "C" 
			},
			{
				"x": -3.876859699,
				"y": 4.9182025575,
				"z": -3.2746338564,
				"element": "C" 
			},
			{
				"x": -4.3287077985,
				"y": 4.8610540224,
				"z": -1.9577681736,
				"element": "C" 
			},
			{
				"x": -3.7800334934,
				"y": 3.8888899836,
				"z": -1.1201698269,
				"element": "C" 
			},
			{
				"x": -4.112421485,
				"y": 3.5660833714,
				"z": 0.5741362026,
				"element": "S" 
			},
			{
				"x": -3.574549694,
				"y": 1.1362766153,
				"z": 2.1139752286,
				"element": "H" 
			},
			{
				"x": -1.6129131076,
				"y": 2.3480659272,
				"z": -3.264565378,
				"element": "H" 
			},
			{
				"x": -2.5705445491,
				"y": 4.0904134537,
				"z": -4.7784581081,
				"element": "H" 
			},
			{
				"x": -4.2851248325,
				"y": 5.6693394521,
				"z": -3.9438705339,
				"element": "H" 
			},
			{
				"x": -5.0798667432,
				"y": 5.5561282916,
				"z": -1.5972792564,
				"element": "H" 
			}
		],
		 "valence_orbital": [ 
			{
				"type": "occ",
				"energy": -0.31533,
				"method": "rhf"
			},
			{
				"type": "occ",
				"energy": -0.30572,
				"method": "rhf"
			},
			{
				"type": "occ",
				"energy": -0.29254,
				"method": "rhf"
			},
			{
				"type": "occ",
				"energy": -0.2509,
				"method": "rhf"
			},
			{
				"type": "occ",
				"energy": -0.24634,
				"method": "rhf"
			},
			{
				"type": "unocc",
				"energy": -0.06408,
				"method": "rhf"
			},
			{
				"type": "unocc",
				"energy": -0.02521,
				"method": "rhf"
			},
			{
				"type": "unocc",
				"energy": -0.01971,
				"method": "rhf"
			},
			{
				"type": "unocc",
				"energy": -0.01544,
				"method": "rhf"
			},
			{
				"type": "unocc",
				"energy": 0.0123,
				"method": "rhf"
			}
		],
		"cosmo_sigma_profile": { 
			"-0.025": 0.0,
			"-0.024": 0.0,
			"-0.023": 0.0,
			"-0.022": 0.0,
			"-0.021": 0.0,
			"-0.02": 0.0,
			"-0.019": 0.0,
			"-0.018": 0.175576534056,
			"-0.017": 1.00843144888,
			"-0.016": 1.23940616558,
			"-0.015": 1.57330254334,
			"-0.014": 0.97831013239,
			"-0.013": 1.13084031281,
			"-0.012": 0.68880785601,
			"-0.011": 0.820332014661,
			"-0.01": 1.35353670947,
			"-0.009": 0.924947017318,
			"-0.008": 2.75950981371,
			"-0.007": 6.66596581918,
			"-0.006": 10.5758802824,
			"-0.005": 12.7752795056,
			"-0.004": 14.1732382768,
			"-0.003": 15.8996745068,
			"-0.002": 21.2615405013,
			"-0.001": 36.5425297995,
			"0.0": 81.8087623132,
			"0.001": 124.148193949,
			"0.002": 37.9376585844,
			"0.003": 21.1355886818,
			"0.004": 14.016418792,
			"0.005": 6.20081084787,
			"0.006": 4.76136186533,
			"0.007": 3.45930765459,
			"0.008": 3.40530602628,
			"0.009": 4.24630805523,
			"0.01": 4.00535118563,
			"0.011": 0.507963497376,
			"0.012": 0.0,
			"0.013": 0.0,
			"0.014": 0.0,
			"0.015": 0.0,
			"0.016": 0.0,
			"0.017": 0.0,
			"0.018": 0.0,
			"0.019": 0.0,
			"0.02": 0.0,
			"0.021": 0.0,
			"0.022": 0.0,
			"0.023": 0.0,
			"0.024": 0.0,
			"0.025": 0.0
		}
	}
}
