{
	 "smiles": "COC1=CC=C(C=C(S)C(O)=O)C=C1", 
	 "Tm": 413.15, 
	 "num_atms": 24, 
	 "gaussian": { 
		 "optdone": 1, 
		 "sigma_profile": "yes", 
		 "theory": "DFT", 
		 "functional": "B3LYP", 
		 "basiset": "6-31G**", 
		 "properties": { 
			 "R2extent": 4483.6501, 
			 "electric_dipole_moment_norm": 4.07860511572, 
			 "electric_quadrupole_moment_norm": 10.5391056461, 
			 "total_energy": -1010.92762453, 
			 "HOMO_LUMO_gap": 0.13898, 
			 "cosmo_polarized_energy": -12.44, 
			 "cosmo_cavitation_energy": 30.22, 
			 "cosmo_dispersion_energy": -22.6, 
			 "cosmo_repulsion_energy": 1.74, 
			 "cosmo_total_nonelectrostatic_energy": 9.37, 
			 "SMD_solvation_energy": 6.62 
		},
		"coords": [
			{
				"x": 1.3067636975,
				"y": -4.2666423703,
				"z": -1.657438309,
				"element": "C" 
			},
			{
				"x": 0.0886287281,
				"y": -3.5821046082,
				"z": -1.9116051668,
				"element": "O" 
			},
			{
				"x": -0.1157143236,
				"y": -2.3777539356,
				"z": -1.3122580415,
				"element": "C" 
			},
			{
				"x": -1.3426135034,
				"y": -1.7555534115,
				"z": -1.5927532669,
				"element": "C" 
			},
			{
				"x": -1.6433464138,
				"y": -0.5313900484,
				"z": -1.0198469826,
				"element": "C" 
			},
			{
				"x": -0.729201825,
				"y": 0.1396498549,
				"z": -0.1765593461,
				"element": "C" 
			},
			{
				"x": -1.1615916341,
				"y": 1.4061057035,
				"z": 0.4178978493,
				"element": "C" 
			},
			{
				"x": -0.5102526169,
				"y": 2.5257917106,
				"z": 0.8318798218,
				"element": "C" 
			},
			{
				"x": -1.4597253316,
				"y": 3.7334066769,
				"z": 1.7529102009,
				"element": "S" 
			},
			{
				"x": 0.895101877,
				"y": 2.9333629155,
				"z": 0.5628509113,
				"element": "C" 
			},
			{
				"x": 1.5838436865,
				"y": 2.0960665548,
				"z": -0.2450693711,
				"element": "O" 
			},
			{
				"x": 1.3944219755,
				"y": 3.9705371036,
				"z": 0.9650203611,
				"element": "O" 
			},
			{
				"x": 0.4819251792,
				"y": -0.5122774307,
				"z": 0.1082765259,
				"element": "C" 
			},
			{
				"x": 0.7915412192,
				"y": -1.7521136948,
				"z": -0.4459393749,
				"element": "C" 
			},
			{
				"x": 1.2589179851,
				"y": -5.1898877258,
				"z": -2.2364918915,
				"element": "H" 
			},
			{
				"x": 2.1751249217,
				"y": -3.6802645963,
				"z": -1.9832284593,
				"element": "H" 
			},
			{
				"x": 1.4175836202,
				"y": -4.512943892,
				"z": -0.5938719566,
				"element": "H" 
			},
			{
				"x": -2.0421243527,
				"y": -2.2589331394,
				"z": -2.2517504322,
				"element": "H" 
			},
			{
				"x": -2.6026542859,
				"y": -0.0678817032,
				"z": -1.2349760654,
				"element": "H" 
			},
			{
				"x": -2.2405980855,
				"y": 1.441593248,
				"z": 0.5751153529,
				"element": "H" 
			},
			{
				"x": -0.5383121643,
				"y": 4.710986152,
				"z": 1.6529836771,
				"element": "H" 
			},
			{
				"x": 2.4470972015,
				"y": 2.522535753,
				"z": -0.3771543665,
				"element": "H" 
			},
			{
				"x": 1.1890410996,
				"y": -0.0540191972,
				"z": 0.7875782443,
				"element": "H" 
			},
			{
				"x": 1.7321433457,
				"y": -2.2245699194,
				"z": -0.188969914,
				"element": "H" 
			}
		],
		 "valence_orbital": [ 
			{
				"type": "occ",
				"energy": -0.30821,
				"method": "rhf"
			},
			{
				"type": "occ",
				"energy": -0.2848,
				"method": "rhf"
			},
			{
				"type": "occ",
				"energy": -0.25848,
				"method": "rhf"
			},
			{
				"type": "occ",
				"energy": -0.24629,
				"method": "rhf"
			},
			{
				"type": "occ",
				"energy": -0.20378,
				"method": "rhf"
			},
			{
				"type": "unocc",
				"energy": -0.0648,
				"method": "rhf"
			},
			{
				"type": "unocc",
				"energy": -0.00694,
				"method": "rhf"
			},
			{
				"type": "unocc",
				"energy": 0.01635,
				"method": "rhf"
			},
			{
				"type": "unocc",
				"energy": 0.02751,
				"method": "rhf"
			},
			{
				"type": "unocc",
				"energy": 0.0783,
				"method": "rhf"
			}
		],
		"cosmo_sigma_profile": { 
			"-0.025": 0.0,
			"-0.024": 0.0,
			"-0.023": 0.0,
			"-0.022": 0.0,
			"-0.021": 0.0,
			"-0.02": 0.0,
			"-0.019": 0.0412676309462,
			"-0.018": 0.882797371404,
			"-0.017": 0.86359754039,
			"-0.016": 0.98514588619,
			"-0.015": 0.76286866056,
			"-0.014": 0.410468243887,
			"-0.013": 0.0929382294711,
			"-0.012": 1.3319871338,
			"-0.011": 0.734433759415,
			"-0.01": 0.68861091462,
			"-0.009": 1.57716086728,
			"-0.008": 1.63234763856,
			"-0.007": 6.34024825564,
			"-0.006": 15.4139514007,
			"-0.005": 19.3335662499,
			"-0.004": 20.3050396905,
			"-0.003": 17.0106608732,
			"-0.002": 15.43976162,
			"-0.001": 12.5662250351,
			"0.0": 12.1738243028,
			"0.001": 12.7354722849,
			"0.002": 16.700447716,
			"0.003": 18.3970585922,
			"0.004": 18.4776891063,
			"0.005": 13.1955436046,
			"0.006": 7.94769192419,
			"0.007": 7.0573581992,
			"0.008": 6.64409246055,
			"0.009": 5.54193222364,
			"0.01": 3.23119596671,
			"0.011": 3.69208778124,
			"0.012": 1.32597665005,
			"0.013": 0.0,
			"0.014": 0.0,
			"0.015": 0.0,
			"0.016": 0.0,
			"0.017": 0.0,
			"0.018": 0.0,
			"0.019": 0.0,
			"0.02": 0.0,
			"0.021": 0.0,
			"0.022": 0.0,
			"0.023": 0.0,
			"0.024": 0.0,
			"0.025": 0.0
		}
	}
}
