{
	 "smiles": "ClC1=NC=CN2N=NN=C12", 
	 "Tm": 373.15, 
	 "num_atms": 12, 
	 "gaussian": { 
		 "optdone": 1, 
		 "sigma_profile": "yes", 
		 "theory": "DFT", 
		 "functional": "B3LYP", 
		 "basiset": "6-31G**", 
		 "properties": { 
			 "R2extent": 1951.9504, 
			 "electric_dipole_moment_norm": 4.58614532478, 
			 "electric_quadrupole_moment_norm": 8.51297151352, 
			 "total_energy": -887.494960766, 
			 "HOMO_LUMO_gap": 0.18541, 
			 "cosmo_polarized_energy": -13.25, 
			 "cosmo_cavitation_energy": 19.3, 
			 "cosmo_dispersion_energy": -14.84, 
			 "cosmo_repulsion_energy": 1.18, 
			 "cosmo_total_nonelectrostatic_energy": 5.64, 
			 "SMD_solvation_energy": 0.19 
		},
		"coords": [
			{
				"x": 0.4262536419,
				"y": 3.0801589463,
				"z": -2.1480981432,
				"element": "Cl" 
			},
			{
				"x": 0.1295793557,
				"y": 1.6598685008,
				"z": -1.1972573465,
				"element": "C" 
			},
			{
				"x": -0.8223259719,
				"y": 0.8444194523,
				"z": -1.5385552749,
				"element": "N" 
			},
			{
				"x": -1.0444513815,
				"y": -0.2734983309,
				"z": -0.7773380415,
				"element": "C" 
			},
			{
				"x": -0.315583645,
				"y": -0.5875085678,
				"z": 0.3345238136,
				"element": "C" 
			},
			{
				"x": 0.6814361669,
				"y": 0.2919964568,
				"z": 0.6689825161,
				"element": "N" 
			},
			{
				"x": 1.5486128946,
				"y": 0.234388907,
				"z": 1.705130449,
				"element": "N" 
			},
			{
				"x": 2.2976542334,
				"y": 1.3004406185,
				"z": 1.5904442893,
				"element": "N" 
			},
			{
				"x": 1.9690848787,
				"y": 2.0569668702,
				"z": 0.5305637306,
				"element": "N" 
			},
			{
				"x": 0.9519084464,
				"y": 1.4287809014,
				"z": -0.0543747089,
				"element": "C" 
			},
			{
				"x": -1.849731186,
				"y": -0.9217840491,
				"z": -1.103823294,
				"element": "H" 
			},
			{
				"x": -0.4512374332,
				"y": -1.4545297054,
				"z": 0.9663020103,
				"element": "H" 
			}
		],
		 "valence_orbital": [ 
			{
				"type": "occ",
				"energy": -0.32748,
				"method": "rhf"
			},
			{
				"type": "occ",
				"energy": -0.32689,
				"method": "rhf"
			},
			{
				"type": "occ",
				"energy": -0.31539,
				"method": "rhf"
			},
			{
				"type": "occ",
				"energy": -0.30323,
				"method": "rhf"
			},
			{
				"type": "occ",
				"energy": -0.27872,
				"method": "rhf"
			},
			{
				"type": "unocc",
				"energy": -0.09331,
				"method": "rhf"
			},
			{
				"type": "unocc",
				"energy": -0.06141,
				"method": "rhf"
			},
			{
				"type": "unocc",
				"energy": -0.00186,
				"method": "rhf"
			},
			{
				"type": "unocc",
				"energy": 0.0114,
				"method": "rhf"
			},
			{
				"type": "unocc",
				"energy": 0.07415,
				"method": "rhf"
			}
		],
		"cosmo_sigma_profile": { 
			"-0.025": 0.0,
			"-0.024": 0.0,
			"-0.023": 0.0,
			"-0.022": 0.0,
			"-0.021": 0.0,
			"-0.02": 0.0,
			"-0.019": 0.0,
			"-0.018": 0.0,
			"-0.017": 0.0,
			"-0.016": 0.0,
			"-0.015": 0.0,
			"-0.014": 0.0,
			"-0.013": 0.182839299356,
			"-0.012": 2.40654019874,
			"-0.011": 2.12589199211,
			"-0.01": 4.41224021467,
			"-0.009": 5.96011547157,
			"-0.008": 6.65540420722,
			"-0.007": 6.18685579915,
			"-0.006": 7.22155988133,
			"-0.005": 8.31602514961,
			"-0.004": 8.27687512706,
			"-0.003": 9.18340376317,
			"-0.002": 9.34396234402,
			"-0.001": 7.24566184298,
			"0.0": 7.42676792557,
			"0.001": 7.15492749951,
			"0.002": 12.5475182048,
			"0.003": 9.29307152397,
			"0.004": 4.65792427961,
			"0.005": 5.27224720771,
			"0.006": 6.31003786108,
			"0.007": 6.70935541898,
			"0.008": 4.67996881719,
			"0.009": 5.71701180789,
			"0.01": 5.62556339215,
			"0.011": 2.92841922467,
			"0.012": 3.02898385314,
			"0.013": 0.914493364352,
			"0.014": 0.161251579349,
			"0.015": 0.0,
			"0.016": 0.0,
			"0.017": 0.0,
			"0.018": 0.0,
			"0.019": 0.0,
			"0.02": 0.0,
			"0.021": 0.0,
			"0.022": 0.0,
			"0.023": 0.0,
			"0.024": 0.0,
			"0.025": 0.0
		}
	}
}
