{
	 "smiles": "CC(C)(C)OC(=O)N1CCC(N)CC1", 
	 "Tm": 319.15, 
	 "num_atms": 34, 
	 "gaussian": { 
		 "optdone": 1, 
		 "sigma_profile": "yes", 
		 "theory": "DFT", 
		 "functional": "B3LYP", 
		 "basiset": "6-31G**", 
		 "properties": { 
			 "R2extent": 3843.1457, 
			 "electric_dipole_moment_norm": 2.85844513328, 
			 "electric_quadrupole_moment_norm": 16.1749219256, 
			 "total_energy": -653.112057277, 
			 "HOMO_LUMO_gap": 0.28528, 
			 "cosmo_polarized_energy": -11.12, 
			 "cosmo_cavitation_energy": 33.83, 
			 "cosmo_dispersion_energy": -24.01, 
			 "cosmo_repulsion_energy": 1.92, 
			 "cosmo_total_nonelectrostatic_energy": 11.74, 
			 "SMD_solvation_energy": 4.96 
		},
		"coords": [
			{
				"x": 3.5131777698,
				"y": -0.343947661,
				"z": -1.5089464598,
				"element": "C" 
			},
			{
				"x": 2.8533867746,
				"y": 0.6170600339,
				"z": -0.5156354204,
				"element": "C" 
			},
			{
				"x": 3.3316866577,
				"y": 0.3313336177,
				"z": 0.9122139602,
				"element": "C" 
			},
			{
				"x": 3.0958721288,
				"y": 2.0729141132,
				"z": -0.9292340007,
				"element": "C" 
			},
			{
				"x": 1.4283926495,
				"y": 0.2835017027,
				"z": -0.6502240255,
				"element": "O" 
			},
			{
				"x": 0.4902456764,
				"y": 0.9282138191,
				"z": 0.0899974969,
				"element": "C" 
			},
			{
				"x": 0.7219166663,
				"y": 1.8202144788,
				"z": 0.8960666248,
				"element": "O" 
			},
			{
				"x": -0.766877315,
				"y": 0.4480525582,
				"z": -0.1738912272,
				"element": "N" 
			},
			{
				"x": -1.0825902478,
				"y": -0.5767582107,
				"z": -1.1673238229,
				"element": "C" 
			},
			{
				"x": -1.966551019,
				"y": -1.6708983846,
				"z": -0.5540585995,
				"element": "C" 
			},
			{
				"x": -3.2195073915,
				"y": -1.0807255236,
				"z": 0.1070877333,
				"element": "C" 
			},
			{
				"x": -3.9731071967,
				"y": -2.1455137662,
				"z": 0.775613345,
				"element": "N" 
			},
			{
				"x": -2.8052106698,
				"y": -0.0157248815,
				"z": 1.1313639942,
				"element": "C" 
			},
			{
				"x": -1.914680387,
				"y": 1.0572986224,
				"z": 0.4945991576,
				"element": "C" 
			},
			{
				"x": 3.138062025,
				"y": -0.1703118388,
				"z": -2.5219160228,
				"element": "H" 
			},
			{
				"x": 4.5973176051,
				"y": -0.1967232907,
				"z": -1.511453313,
				"element": "H" 
			},
			{
				"x": 3.3058950687,
				"y": -1.3832591085,
				"z": -1.2371781162,
				"element": "H" 
			},
			{
				"x": 3.1058218211,
				"y": -0.7038801361,
				"z": 1.1876347318,
				"element": "H" 
			},
			{
				"x": 4.4164257655,
				"y": 0.4690930947,
				"z": 0.9708624669,
				"element": "H" 
			},
			{
				"x": 2.8502799239,
				"y": 1.0004792855,
				"z": 1.625247063,
				"element": "H" 
			},
			{
				"x": 4.1713809244,
				"y": 2.278516528,
				"z": -0.9377795762,
				"element": "H" 
			},
			{
				"x": 2.7086196354,
				"y": 2.2498660673,
				"z": -1.9378594085,
				"element": "H" 
			},
			{
				"x": 2.60899568,
				"y": 2.7600467598,
				"z": -0.2373495984,
				"element": "H" 
			},
			{
				"x": -0.1538595943,
				"y": -0.9947535899,
				"z": -1.549064306,
				"element": "H" 
			},
			{
				"x": -1.6095218902,
				"y": -0.1070014321,
				"z": -2.0136996018,
				"element": "H" 
			},
			{
				"x": -1.4009881877,
				"y": -2.2249479223,
				"z": 0.2042197585,
				"element": "H" 
			},
			{
				"x": -2.2511342631,
				"y": -2.3849922481,
				"z": -1.338244249,
				"element": "H" 
			},
			{
				"x": -3.8048597666,
				"y": -0.5710713075,
				"z": -0.6845540474,
				"element": "H" 
			},
			{
				"x": -4.8155274122,
				"y": -1.7600568707,
				"z": 1.197731667,
				"element": "H" 
			},
			{
				"x": -4.2860915732,
				"y": -2.8310654911,
				"z": 0.0911227939,
				"element": "H" 
			},
			{
				"x": -3.694669697,
				"y": 0.4624079273,
				"z": 1.5625530734,
				"element": "H" 
			},
			{
				"x": -2.2686181763,
				"y": -0.5083570061,
				"z": 1.9505934698,
				"element": "H" 
			},
			{
				"x": -2.4965924472,
				"y": 1.6350605242,
				"z": -0.2414150997,
				"element": "H" 
			},
			{
				"x": -1.5316895375,
				"y": 1.7548295363,
				"z": 1.2386195591,
				"element": "H" 
			}
		],
		 "valence_orbital": [ 
			{
				"type": "occ",
				"energy": -0.31614,
				"method": "rhf"
			},
			{
				"type": "occ",
				"energy": -0.28066,
				"method": "rhf"
			},
			{
				"type": "occ",
				"energy": -0.25268,
				"method": "rhf"
			},
			{
				"type": "occ",
				"energy": -0.23838,
				"method": "rhf"
			},
			{
				"type": "occ",
				"energy": -0.22894,
				"method": "rhf"
			},
			{
				"type": "unocc",
				"energy": 0.05634,
				"method": "rhf"
			},
			{
				"type": "unocc",
				"energy": 0.0852,
				"method": "rhf"
			},
			{
				"type": "unocc",
				"energy": 0.08733,
				"method": "rhf"
			},
			{
				"type": "unocc",
				"energy": 0.10596,
				"method": "rhf"
			},
			{
				"type": "unocc",
				"energy": 0.10826,
				"method": "rhf"
			}
		],
		"cosmo_sigma_profile": { 
			"-0.025": 0.0,
			"-0.024": 0.0,
			"-0.023": 0.0,
			"-0.022": 0.0,
			"-0.021": 0.0,
			"-0.02": 0.0,
			"-0.019": 0.0,
			"-0.018": 0.0,
			"-0.017": 0.0,
			"-0.016": 0.0,
			"-0.015": 0.0,
			"-0.014": 0.0,
			"-0.013": 0.0,
			"-0.012": 0.0,
			"-0.011": 0.0,
			"-0.01": 0.269961988001,
			"-0.009": 2.76765897415,
			"-0.008": 2.4325435711,
			"-0.007": 3.12603199752,
			"-0.006": 3.72100451071,
			"-0.005": 3.53946552342,
			"-0.004": 18.888331439,
			"-0.003": 36.6381600619,
			"-0.002": 38.6952038734,
			"-0.001": 33.0492632759,
			"0.0": 31.9295374356,
			"0.001": 28.8924979636,
			"0.002": 11.8458993849,
			"0.003": 6.71624327484,
			"0.004": 5.53964846998,
			"0.005": 6.57475456589,
			"0.006": 3.44540843251,
			"0.007": 2.80943428419,
			"0.008": 2.13260255027,
			"0.009": 1.79639910698,
			"0.01": 2.94181800726,
			"0.011": 2.32382115543,
			"0.012": 2.10281736102,
			"0.013": 3.18893912581,
			"0.014": 2.38996776054,
			"0.015": 0.524100748123,
			"0.016": 0.388284310736,
			"0.017": 0.882965416612,
			"0.018": 0.479592826523,
			"0.019": 0.387750088098,
			"0.02": 0.291985570031,
			"0.021": 0.0,
			"0.022": 0.0,
			"0.023": 0.0,
			"0.024": 0.0,
			"0.025": 0.0
		}
	}
}
