{
	 "smiles": "C1=CC2=C(C=C1)C1=C2N=C2C=CC=CC2=N1", 
	 "Tm": 476.15, 
	 "num_atms": 24, 
	 "gaussian": { 
		 "optdone": 1, 
		 "sigma_profile": "yes", 
		 "theory": "DFT", 
		 "functional": "B3LYP", 
		 "basiset": "6-31G**", 
		 "properties": { 
			 "R2extent": 4099.3643, 
			 "electric_dipole_moment_norm": 1.75861521943, 
			 "electric_quadrupole_moment_norm": 13.9391883655, 
			 "total_energy": -647.757447669, 
			 "HOMO_LUMO_gap": 0.14924, 
			 "cosmo_polarized_energy": -8.71, 
			 "cosmo_cavitation_energy": 28.83, 
			 "cosmo_dispersion_energy": -21.78, 
			 "cosmo_repulsion_energy": 1.64, 
			 "cosmo_total_nonelectrostatic_energy": 8.7, 
			 "SMD_solvation_energy": 0.53 
		},
		"coords": [
			{
				"x": -2.8266946248,
				"y": -2.165423062,
				"z": -2.1442641067,
				"element": "C" 
			},
			{
				"x": -2.5704183098,
				"y": -1.2960304248,
				"z": -1.0633548241,
				"element": "C" 
			},
			{
				"x": -1.2391159196,
				"y": -1.0569711191,
				"z": -0.7877327895,
				"element": "C" 
			},
			{
				"x": -0.1881289619,
				"y": -1.6505638869,
				"z": -1.5467305972,
				"element": "C" 
			},
			{
				"x": -0.4358109663,
				"y": -2.5016411588,
				"z": -2.6049410493,
				"element": "C" 
			},
			{
				"x": -1.7954260104,
				"y": -2.7478740044,
				"z": -2.8890315474,
				"element": "C" 
			},
			{
				"x": 0.835051112,
				"y": -0.95560664,
				"z": -0.6966731522,
				"element": "C" 
			},
			{
				"x": -0.2341731417,
				"y": -0.3516882205,
				"z": 0.0754745357,
				"element": "C" 
			},
			{
				"x": -0.0888935585,
				"y": 0.4506823859,
				"z": 1.0746066555,
				"element": "N" 
			},
			{
				"x": 1.2705775244,
				"y": 0.6817242163,
				"z": 1.3397976638,
				"element": "C" 
			},
			{
				"x": 1.5991824168,
				"y": 1.5391698703,
				"z": 2.4044863478,
				"element": "C" 
			},
			{
				"x": 2.9234022597,
				"y": 1.8075656979,
				"z": 2.7168637919,
				"element": "C" 
			},
			{
				"x": 3.9595270886,
				"y": 1.2223175631,
				"z": 1.9686275504,
				"element": "C" 
			},
			{
				"x": 3.6643770293,
				"y": 0.3726702109,
				"z": 0.9130946186,
				"element": "C" 
			},
			{
				"x": 2.3310902928,
				"y": 0.0827211364,
				"z": 0.5739413252,
				"element": "C" 
			},
			{
				"x": 2.0989680272,
				"y": -0.7850723005,
				"z": -0.5053757409,
				"element": "N" 
			},
			{
				"x": -3.8558444962,
				"y": -2.3910307573,
				"z": -2.4082827816,
				"element": "H" 
			},
			{
				"x": -3.3804226718,
				"y": -0.8515078593,
				"z": -0.4945896979,
				"element": "H" 
			},
			{
				"x": 0.3535130643,
				"y": -2.9604361427,
				"z": -3.1911801306,
				"element": "H" 
			},
			{
				"x": -2.0519161054,
				"y": -3.4098816928,
				"z": -3.7110500639,
				"element": "H" 
			},
			{
				"x": 0.7811920934,
				"y": 1.9784045419,
				"z": 2.9667192602,
				"element": "H" 
			},
			{
				"x": 3.1605799612,
				"y": 2.472149615,
				"z": 3.5423646941,
				"element": "H" 
			},
			{
				"x": 4.9946668668,
				"y": 1.4361705358,
				"z": 2.2178833523,
				"element": "H" 
			},
			{
				"x": 4.4460170298,
				"y": -0.0916485044,
				"z": 0.3201466857,
				"element": "H" 
			}
		],
		 "valence_orbital": [ 
			{
				"type": "occ",
				"energy": -0.28697,
				"method": "rhf"
			},
			{
				"type": "occ",
				"energy": -0.27619,
				"method": "rhf"
			},
			{
				"type": "occ",
				"energy": -0.24196,
				"method": "rhf"
			},
			{
				"type": "occ",
				"energy": -0.23959,
				"method": "rhf"
			},
			{
				"type": "occ",
				"energy": -0.22005,
				"method": "rhf"
			},
			{
				"type": "unocc",
				"energy": -0.07081,
				"method": "rhf"
			},
			{
				"type": "unocc",
				"energy": -0.06053,
				"method": "rhf"
			},
			{
				"type": "unocc",
				"energy": 0.00264,
				"method": "rhf"
			},
			{
				"type": "unocc",
				"energy": 0.00756,
				"method": "rhf"
			},
			{
				"type": "unocc",
				"energy": 0.02616,
				"method": "rhf"
			}
		],
		"cosmo_sigma_profile": { 
			"-0.025": 0.0,
			"-0.024": 0.0,
			"-0.023": 0.0,
			"-0.022": 0.0,
			"-0.021": 0.0,
			"-0.02": 0.0,
			"-0.019": 0.0,
			"-0.018": 0.0,
			"-0.017": 0.0,
			"-0.016": 0.0,
			"-0.015": 0.0,
			"-0.014": 0.0,
			"-0.013": 0.0,
			"-0.012": 0.0,
			"-0.011": 0.0,
			"-0.01": 0.0,
			"-0.009": 0.0,
			"-0.008": 1.21309678431,
			"-0.007": 8.59381993927,
			"-0.006": 16.8486394241,
			"-0.005": 17.311425704,
			"-0.004": 15.6718633897,
			"-0.003": 16.0960453105,
			"-0.002": 14.5484909193,
			"-0.001": 17.4529387862,
			"0.0": 19.1294563077,
			"0.001": 19.5974383237,
			"0.002": 25.1365117126,
			"0.003": 24.8380035271,
			"0.004": 13.319126939,
			"0.005": 4.6291133408,
			"0.006": 2.64053009971,
			"0.007": 4.14080223191,
			"0.008": 1.29632282338,
			"0.009": 2.16337568601,
			"0.01": 1.84961671308,
			"0.011": 2.21853702509,
			"0.012": 1.12209912357,
			"0.013": 2.08421598198,
			"0.014": 1.52638968011,
			"0.015": 0.921012660328,
			"0.016": 0.00267209850402,
			"0.017": 0.0,
			"0.018": 0.0,
			"0.019": 0.0,
			"0.02": 0.0,
			"0.021": 0.0,
			"0.022": 0.0,
			"0.023": 0.0,
			"0.024": 0.0,
			"0.025": 0.0
		}
	}
}
