{
	 "smiles": "CC(C)(C)P(C1=CC=CC=C1C1=CC=CC=C1)C(C)(C)C", 
	 "Tm": 358.65, 
	 "num_atms": 48, 
	 "gaussian": { 
		 "optdone": 1, 
		 "sigma_profile": "yes", 
		 "theory": "DFT", 
		 "functional": "B3LYP", 
		 "basiset": "6-31G**", 
		 "properties": { 
			 "R2extent": 6795.8609, 
			 "electric_dipole_moment_norm": 0.97313836118, 
			 "electric_quadrupole_moment_norm": 4.06608427852, 
			 "total_energy": -1119.76034968, 
			 "HOMO_LUMO_gap": 0.18009, 
			 "cosmo_polarized_energy": -7.69, 
			 "cosmo_cavitation_energy": 46.83, 
			 "cosmo_dispersion_energy": -30.42, 
			 "cosmo_repulsion_energy": 2.29, 
			 "cosmo_total_nonelectrostatic_energy": 18.69, 
			 "SMD_solvation_energy": 7.87 
		},
		"coords": [
			{
				"x": 0.9578101136,
				"y": 1.8428788796,
				"z": 1.9855376533,
				"element": "C" 
			},
			{
				"x": 0.7538782868,
				"y": 1.9606771751,
				"z": 0.4580131411,
				"element": "C" 
			},
			{
				"x": 1.9259236962,
				"y": 2.7775477081,
				"z": -0.1225277312,
				"element": "C" 
			},
			{
				"x": -0.5683025804,
				"y": 2.7050157183,
				"z": 0.203960678,
				"element": "C" 
			},
			{
				"x": 0.915535968,
				"y": 0.1478754658,
				"z": -0.1843353352,
				"element": "P" 
			},
			{
				"x": -0.6766167931,
				"y": -0.6239578709,
				"z": 0.4238256248,
				"element": "C" 
			},
			{
				"x": -1.939751766,
				"y": -0.292096786,
				"z": -0.1027235102,
				"element": "C" 
			},
			{
				"x": -3.1222277267,
				"y": -0.8407283236,
				"z": 0.3902453903,
				"element": "C" 
			},
			{
				"x": -3.0705014211,
				"y": -1.7403584363,
				"z": 1.453875613,
				"element": "C" 
			},
			{
				"x": -1.8361258908,
				"y": -2.0863825849,
				"z": 1.9948962335,
				"element": "C" 
			},
			{
				"x": -0.6321791449,
				"y": -1.5578223768,
				"z": 1.4929515826,
				"element": "C" 
			},
			{
				"x": 0.6262304871,
				"y": -2.0352827443,
				"z": 2.1478329419,
				"element": "C" 
			},
			{
				"x": 0.8229421849,
				"y": -1.8198320664,
				"z": 3.5205277493,
				"element": "C" 
			},
			{
				"x": 1.9573683677,
				"y": -2.3116711659,
				"z": 4.1690083435,
				"element": "C" 
			},
			{
				"x": 2.9093600928,
				"y": -3.0409726391,
				"z": 3.4565192412,
				"element": "C" 
			},
			{
				"x": 2.7184922667,
				"y": -3.2744894501,
				"z": 2.092515464,
				"element": "C" 
			},
			{
				"x": 1.5893814058,
				"y": -2.7759271629,
				"z": 1.445143824,
				"element": "C" 
			},
			{
				"x": 0.8077917638,
				"y": 0.0936690459,
				"z": -2.1164421824,
				"element": "C" 
			},
			{
				"x": 0.3405298828,
				"y": -1.326651475,
				"z": -2.4993566869,
				"element": "C" 
			},
			{
				"x": -0.0625727221,
				"y": 1.127353783,
				"z": -2.8545471589,
				"element": "C" 
			},
			{
				"x": 2.2674837258,
				"y": 0.2530209254,
				"z": -2.6051067569,
				"element": "C" 
			},
			{
				"x": 0.1514565154,
				"y": 1.2735732339,
				"z": 2.4579055256,
				"element": "H" 
			},
			{
				"x": 1.9052013454,
				"y": 1.3544442689,
				"z": 2.2321513133,
				"element": "H" 
			},
			{
				"x": 0.9634369283,
				"y": 2.8448715331,
				"z": 2.4337395383,
				"element": "H" 
			},
			{
				"x": 1.984187943,
				"y": 3.7486674393,
				"z": 0.3855249451,
				"element": "H" 
			},
			{
				"x": 2.8849108625,
				"y": 2.2689405085,
				"z": 0.0215996217,
				"element": "H" 
			},
			{
				"x": 1.8028416338,
				"y": 2.9787704306,
				"z": -1.1907897545,
				"element": "H" 
			},
			{
				"x": -1.4176653536,
				"y": 2.1878919188,
				"z": 0.6571660373,
				"element": "H" 
			},
			{
				"x": -0.5148620694,
				"y": 3.7041306133,
				"z": 0.6572871309,
				"element": "H" 
			},
			{
				"x": -0.7786285526,
				"y": 2.8424742403,
				"z": -0.859030617,
				"element": "H" 
			},
			{
				"x": -2.0051283397,
				"y": 0.4226598551,
				"z": -0.9137240038,
				"element": "H" 
			},
			{
				"x": -4.0751920428,
				"y": -0.559884669,
				"z": -0.0496273852,
				"element": "H" 
			},
			{
				"x": -3.9816863817,
				"y": -2.1751560273,
				"z": 1.8550382877,
				"element": "H" 
			},
			{
				"x": -1.7864975946,
				"y": -2.8002443358,
				"z": 2.8120369067,
				"element": "H" 
			},
			{
				"x": 0.0838683122,
				"y": -1.2522913808,
				"z": 4.0793348499,
				"element": "H" 
			},
			{
				"x": 2.094457179,
				"y": -2.1249295171,
				"z": 5.2305395408,
				"element": "H" 
			},
			{
				"x": 3.7916009829,
				"y": -3.4272190014,
				"z": 3.9590578007,
				"element": "H" 
			},
			{
				"x": 3.4500825114,
				"y": -3.8488053337,
				"z": 1.5310203413,
				"element": "H" 
			},
			{
				"x": 1.4437708765,
				"y": -2.9693412751,
				"z": 0.3874762018,
				"element": "H" 
			},
			{
				"x": 0.9405812709,
				"y": -2.0968025296,
				"z": -2.0020180079,
				"element": "H" 
			},
			{
				"x": 0.4554425163,
				"y": -1.4696598241,
				"z": -3.5814295158,
				"element": "H" 
			},
			{
				"x": -0.7077070142,
				"y": -1.5018346091,
				"z": -2.2457156685,
				"element": "H" 
			},
			{
				"x": -1.1209667126,
				"y": 1.0612393335,
				"z": -2.5909265329,
				"element": "H" 
			},
			{
				"x": 0.008230483,
				"y": 0.9534134045,
				"z": -3.9368710438,
				"element": "H" 
			},
			{
				"x": 0.2699327406,
				"y": 2.1527833939,
				"z": -2.672990009,
				"element": "H" 
			},
			{
				"x": 2.6786280594,
				"y": 1.2390035623,
				"z": -2.3720559169,
				"element": "H" 
			},
			{
				"x": 2.923423282,
				"y": -0.4967676328,
				"z": -2.1531284318,
				"element": "H" 
			},
			{
				"x": 2.3080304218,
				"y": 0.1285067808,
				"z": -3.6950852727,
				"element": "H" 
			}
		],
		 "valence_orbital": [ 
			{
				"type": "occ",
				"energy": -0.25856,
				"method": "rhf"
			},
			{
				"type": "occ",
				"energy": -0.24705,
				"method": "rhf"
			},
			{
				"type": "occ",
				"energy": -0.24306,
				"method": "rhf"
			},
			{
				"type": "occ",
				"energy": -0.23235,
				"method": "rhf"
			},
			{
				"type": "occ",
				"energy": -0.19925,
				"method": "rhf"
			},
			{
				"type": "unocc",
				"energy": -0.01916,
				"method": "rhf"
			},
			{
				"type": "unocc",
				"energy": -0.01226,
				"method": "rhf"
			},
			{
				"type": "unocc",
				"energy": 0.00669,
				"method": "rhf"
			},
			{
				"type": "unocc",
				"energy": 0.01663,
				"method": "rhf"
			},
			{
				"type": "unocc",
				"energy": 0.0644,
				"method": "rhf"
			}
		],
		"cosmo_sigma_profile": { 
			"-0.025": 0.0,
			"-0.024": 0.0,
			"-0.023": 0.0,
			"-0.022": 0.0,
			"-0.021": 0.0,
			"-0.02": 0.0,
			"-0.019": 0.0,
			"-0.018": 0.0,
			"-0.017": 0.0,
			"-0.016": 0.0,
			"-0.015": 0.0,
			"-0.014": 0.0,
			"-0.013": 0.0,
			"-0.012": 0.0,
			"-0.011": 0.0,
			"-0.01": 0.0,
			"-0.009": 0.000769302469104,
			"-0.008": 0.0116340563061,
			"-0.007": 0.0131672152248,
			"-0.006": 5.54123525323,
			"-0.005": 15.770048012,
			"-0.004": 24.4002298871,
			"-0.003": 33.7347073934,
			"-0.002": 47.7759346878,
			"-0.001": 44.9853766165,
			"0.0": 42.7228151169,
			"0.001": 52.2434222018,
			"0.002": 31.856762226,
			"0.003": 16.2286500718,
			"0.004": 14.9316962441,
			"0.005": 14.7126709826,
			"0.006": 9.63669694164,
			"0.007": 2.58465118075,
			"0.008": 2.04232070404,
			"0.009": 0.723157745805,
			"0.01": 1.02951718007,
			"0.011": 0.743641203255,
			"0.012": 0.522878788181,
			"0.013": 0.930152737191,
			"0.014": 0.789508181519,
			"0.015": 0.371594700234,
			"0.016": 0.0227066682275,
			"0.017": 0.0,
			"0.018": 0.0,
			"0.019": 0.0,
			"0.02": 0.0,
			"0.021": 0.0,
			"0.022": 0.0,
			"0.023": 0.0,
			"0.024": 0.0,
			"0.025": 0.0
		}
	}
}
