{
	 "smiles": "FC(F)(F)C1=CC(C#N)=C(C=C1)S(Cl)(=O)=O", 
	 "Tm": 361.15, 
	 "num_atms": 19, 
	 "gaussian": { 
		 "optdone": 1, 
		 "sigma_profile": "yes", 
		 "theory": "DFT", 
		 "functional": "B3LYP", 
		 "basiset": "6-31G**", 
		 "properties": { 
			 "R2extent": 5849.6795, 
			 "electric_dipole_moment_norm": 5.04484806213, 
			 "electric_quadrupole_moment_norm": 16.3211812232, 
			 "total_energy": -1669.66198002, 
			 "HOMO_LUMO_gap": 0.192, 
			 "cosmo_polarized_energy": -13.85, 
			 "cosmo_cavitation_energy": 30.19, 
			 "cosmo_dispersion_energy": -21.18, 
			 "cosmo_repulsion_energy": 1.54, 
			 "cosmo_total_nonelectrostatic_energy": 10.55, 
			 "SMD_solvation_energy": 6.23 
		},
		"coords": [
			{
				"x": -2.2148507966,
				"y": -2.0700653526,
				"z": 2.6146315125,
				"element": "F" 
			},
			{
				"x": -2.1905734139,
				"y": -1.6728738602,
				"z": 1.3271526407,
				"element": "C" 
			},
			{
				"x": -3.4693681086,
				"y": -1.5309656921,
				"z": 0.9237994804,
				"element": "F" 
			},
			{
				"x": -1.6412925291,
				"y": -2.6612571547,
				"z": 0.5953994267,
				"element": "F" 
			},
			{
				"x": -1.4297584733,
				"y": -0.3760180439,
				"z": 1.1682922893,
				"element": "C" 
			},
			{
				"x": -0.7379971657,
				"y": -0.1232411627,
				"z": -0.0152496566,
				"element": "C" 
			},
			{
				"x": -0.070284777,
				"y": 1.0966216319,
				"z": -0.201021414,
				"element": "C" 
			},
			{
				"x": 0.6411859835,
				"y": 1.2903673047,
				"z": -1.4309677801,
				"element": "C" 
			},
			{
				"x": 1.2046138912,
				"y": 1.3605937926,
				"z": -2.4448520001,
				"element": "N" 
			},
			{
				"x": -0.1184415889,
				"y": 2.0481335395,
				"z": 0.8371547306,
				"element": "C" 
			},
			{
				"x": -0.8039656281,
				"y": 1.7931956159,
				"z": 2.0217494052,
				"element": "C" 
			},
			{
				"x": -1.4637661667,
				"y": 0.5762931189,
				"z": 2.1875181237,
				"element": "C" 
			},
			{
				"x": 0.6563994343,
				"y": 3.670375018,
				"z": 0.6859380413,
				"element": "S" 
			},
			{
				"x": 2.6974846404,
				"y": 3.1584432675,
				"z": 0.880625331,
				"element": "Cl" 
			},
			{
				"x": 0.4611250532,
				"y": 4.1750396987,
				"z": -0.6634684181,
				"element": "O" 
			},
			{
				"x": 0.3050814591,
				"y": 4.4464171152,
				"z": 1.8675857024,
				"element": "O" 
			},
			{
				"x": -0.7028081513,
				"y": -0.869596046,
				"z": -0.7999146476,
				"element": "H" 
			},
			{
				"x": -0.8178567438,
				"y": 2.5463367991,
				"z": 2.8005926227,
				"element": "H" 
			},
			{
				"x": -1.9953269189,
				"y": 0.3679004104,
				"z": 3.1091346098,
				"element": "H" 
			}
		],
		 "valence_orbital": [ 
			{
				"type": "occ",
				"energy": -0.35514,
				"method": "rhf"
			},
			{
				"type": "occ",
				"energy": -0.34793,
				"method": "rhf"
			},
			{
				"type": "occ",
				"energy": -0.33119,
				"method": "rhf"
			},
			{
				"type": "occ",
				"energy": -0.32363,
				"method": "rhf"
			},
			{
				"type": "occ",
				"energy": -0.30973,
				"method": "rhf"
			},
			{
				"type": "unocc",
				"energy": -0.11773,
				"method": "rhf"
			},
			{
				"type": "unocc",
				"energy": -0.08943,
				"method": "rhf"
			},
			{
				"type": "unocc",
				"energy": -0.07739,
				"method": "rhf"
			},
			{
				"type": "unocc",
				"energy": 0.00275,
				"method": "rhf"
			},
			{
				"type": "unocc",
				"energy": 0.02288,
				"method": "rhf"
			}
		],
		"cosmo_sigma_profile": { 
			"-0.025": 0.0,
			"-0.024": 0.0,
			"-0.023": 0.0,
			"-0.022": 0.0,
			"-0.021": 0.0,
			"-0.02": 0.0,
			"-0.019": 0.0,
			"-0.018": 0.0,
			"-0.017": 0.0,
			"-0.016": 0.0,
			"-0.015": 0.0,
			"-0.014": 0.0,
			"-0.013": 0.0,
			"-0.012": 0.0,
			"-0.011": 0.699164932564,
			"-0.01": 4.96063194711,
			"-0.009": 5.71926694065,
			"-0.008": 6.33474730234,
			"-0.007": 5.816002781,
			"-0.006": 8.24551283249,
			"-0.005": 12.4663137947,
			"-0.004": 19.4046825094,
			"-0.003": 19.3912954538,
			"-0.002": 15.2297557181,
			"-0.001": 11.050449063,
			"0.0": 13.0640003874,
			"0.001": 22.7399073865,
			"0.002": 41.2102280455,
			"0.003": 12.201397164,
			"0.004": 4.56269963793,
			"0.005": 5.82721360009,
			"0.006": 8.74241479843,
			"0.007": 12.7096824063,
			"0.008": 9.24937624562,
			"0.009": 2.88030217178,
			"0.01": 2.63319110271,
			"0.011": 2.07649866784,
			"0.012": 0.56912825877,
			"0.013": 0.0,
			"0.014": 0.0,
			"0.015": 0.0,
			"0.016": 0.0,
			"0.017": 0.0,
			"0.018": 0.0,
			"0.019": 0.0,
			"0.02": 0.0,
			"0.021": 0.0,
			"0.022": 0.0,
			"0.023": 0.0,
			"0.024": 0.0,
			"0.025": 0.0
		}
	}
}
