{
	 "smiles": "CC1=C(SC=C1)C(=O)CC#N", 
	 "Tm": 388.15, 
	 "num_atms": 18, 
	 "gaussian": { 
		 "optdone": 1, 
		 "sigma_profile": "yes", 
		 "theory": "DFT", 
		 "functional": "B3LYP", 
		 "basiset": "6-31G**", 
		 "properties": { 
			 "R2extent": 2906.5789, 
			 "electric_dipole_moment_norm": 4.41865992921, 
			 "electric_quadrupole_moment_norm": 13.0701880182, 
			 "total_energy": -837.200385244, 
			 "HOMO_LUMO_gap": 0.17765, 
			 "cosmo_polarized_energy": -12.48, 
			 "cosmo_cavitation_energy": 24.76, 
			 "cosmo_dispersion_energy": -17.79, 
			 "cosmo_repulsion_energy": 1.39, 
			 "cosmo_total_nonelectrostatic_energy": 8.36, 
			 "SMD_solvation_energy": 6.28 
		},
		"coords": [
			{
				"x": -2.4994393515,
				"y": -1.5125008821,
				"z": -0.4918029664,
				"element": "C" 
			},
			{
				"x": -1.2620604724,
				"y": -0.7055669269,
				"z": -0.7672015015,
				"element": "C" 
			},
			{
				"x": -0.052143037,
				"y": -1.2209415497,
				"z": -1.2275463369,
				"element": "C" 
			},
			{
				"x": 1.1465524609,
				"y": 0.0467087802,
				"z": -1.4209516761,
				"element": "S" 
			},
			{
				"x": 0.0276000286,
				"y": 1.2423357772,
				"z": -0.8971812773,
				"element": "C" 
			},
			{
				"x": -1.1943194816,
				"y": 0.7041158953,
				"z": -0.5834523736,
				"element": "C" 
			},
			{
				"x": 0.2248034149,
				"y": -2.6220816863,
				"z": -1.539668372,
				"element": "C" 
			},
			{
				"x": -0.6264524587,
				"y": -3.4946644605,
				"z": -1.4537934805,
				"element": "O" 
			},
			{
				"x": 1.6467508279,
				"y": -3.016509079,
				"z": -2.022905921,
				"element": "C" 
			},
			{
				"x": 2.6517978884,
				"y": -2.9434440336,
				"z": -0.962456957,
				"element": "C" 
			},
			{
				"x": 3.4396772442,
				"y": -2.8874374061,
				"z": -0.1117734462,
				"element": "N" 
			},
			{
				"x": -3.295959689,
				"y": -0.8711571548,
				"z": -0.1055124973,
				"element": "H" 
			},
			{
				"x": -2.8541135934,
				"y": -2.0125093396,
				"z": -1.3979034594,
				"element": "H" 
			},
			{
				"x": -2.2999896513,
				"y": -2.3082721497,
				"z": 0.231302671,
				"element": "H" 
			},
			{
				"x": 0.3321625114,
				"y": 2.2786945466,
				"z": -0.8407840371,
				"element": "H" 
			},
			{
				"x": -2.0310472235,
				"y": 1.2954492535,
				"z": -0.2286251644,
				"element": "H" 
			},
			{
				"x": 1.5766372874,
				"y": -4.0451692068,
				"z": -2.3860600815,
				"element": "H" 
			},
			{
				"x": 1.9616432945,
				"y": -2.3768503774,
				"z": -2.8562831229,
				"element": "H" 
			}
		],
		 "valence_orbital": [ 
			{
				"type": "occ",
				"energy": -0.33795,
				"method": "rhf"
			},
			{
				"type": "occ",
				"energy": -0.32925,
				"method": "rhf"
			},
			{
				"type": "occ",
				"energy": -0.2681,
				"method": "rhf"
			},
			{
				"type": "occ",
				"energy": -0.26755,
				"method": "rhf"
			},
			{
				"type": "occ",
				"energy": -0.2553,
				"method": "rhf"
			},
			{
				"type": "unocc",
				"energy": -0.07765,
				"method": "rhf"
			},
			{
				"type": "unocc",
				"energy": -0.00104,
				"method": "rhf"
			},
			{
				"type": "unocc",
				"energy": 0.0099,
				"method": "rhf"
			},
			{
				"type": "unocc",
				"energy": 0.03158,
				"method": "rhf"
			},
			{
				"type": "unocc",
				"energy": 0.04278,
				"method": "rhf"
			}
		],
		"cosmo_sigma_profile": { 
			"-0.025": 0.0,
			"-0.024": 0.0,
			"-0.023": 0.0,
			"-0.022": 0.0,
			"-0.021": 0.0,
			"-0.02": 0.0,
			"-0.019": 0.0,
			"-0.018": 0.0,
			"-0.017": 0.0,
			"-0.016": 0.0,
			"-0.015": 0.0,
			"-0.014": 0.0,
			"-0.013": 0.0,
			"-0.012": 0.0,
			"-0.011": 0.0110647014769,
			"-0.01": 3.35132324295,
			"-0.009": 7.34320328525,
			"-0.008": 7.05087595221,
			"-0.007": 9.06956284999,
			"-0.006": 8.9665411435,
			"-0.005": 10.0873425734,
			"-0.004": 9.9165423399,
			"-0.003": 12.9618671232,
			"-0.002": 13.0944887141,
			"-0.001": 14.3534894258,
			"0.0": 16.9388980498,
			"0.001": 16.4979812078,
			"0.002": 15.6718174755,
			"0.003": 11.9298023195,
			"0.004": 5.17545176177,
			"0.005": 4.08619911525,
			"0.006": 4.06686315996,
			"0.007": 3.84356181337,
			"0.008": 5.30630226354,
			"0.009": 5.01716631283,
			"0.01": 5.1014277478,
			"0.011": 6.12455564623,
			"0.012": 3.56677947772,
			"0.013": 1.26540667544,
			"0.014": 0.0121811177187,
			"0.015": 0.0,
			"0.016": 0.0,
			"0.017": 0.0,
			"0.018": 0.0,
			"0.019": 0.0,
			"0.02": 0.0,
			"0.021": 0.0,
			"0.022": 0.0,
			"0.023": 0.0,
			"0.024": 0.0,
			"0.025": 0.0
		}
	}
}
