{
	 "smiles": "OCC(=O)NC1=CC=C(OC2=CC=CC=C2)C=C1", 
	 "Tm": 423.15, 
	 "num_atms": 31, 
	 "gaussian": { 
		 "optdone": 1, 
		 "sigma_profile": "yes", 
		 "theory": "DFT", 
		 "functional": "B3LYP", 
		 "basiset": "6-31G**", 
		 "properties": { 
			 "R2extent": 7583.787, 
			 "electric_dipole_moment_norm": 5.22696268783, 
			 "electric_quadrupole_moment_norm": 22.167106666, 
			 "total_energy": -821.740775791, 
			 "HOMO_LUMO_gap": 0.20393, 
			 "cosmo_polarized_energy": -14.64, 
			 "cosmo_cavitation_energy": 35.92, 
			 "cosmo_dispersion_energy": -25.62, 
			 "cosmo_repulsion_energy": 2.01, 
			 "cosmo_total_nonelectrostatic_energy": 12.31, 
			 "SMD_solvation_energy": 7.06 
		},
		"coords": [
			{
				"x": -2.8115043268,
				"y": 3.8888737019,
				"z": -3.9630478981,
				"element": "O" 
			},
			{
				"x": -2.6935385931,
				"y": 2.780956,
				"z": -3.1161883371,
				"element": "C" 
			},
			{
				"x": -3.2956856429,
				"y": 1.5487000778,
				"z": -3.7992983712,
				"element": "C" 
			},
			{
				"x": -3.8196374954,
				"y": 1.6672258718,
				"z": -4.9041198119,
				"element": "O" 
			},
			{
				"x": -3.2192335294,
				"y": 0.3434180802,
				"z": -3.161097709,
				"element": "N" 
			},
			{
				"x": -2.6046419363,
				"y": 0.0758536139,
				"z": -1.8979940344,
				"element": "C" 
			},
			{
				"x": -1.3972788117,
				"y": -0.6284475352,
				"z": -1.8399367133,
				"element": "C" 
			},
			{
				"x": -0.8016767862,
				"y": -0.9252807373,
				"z": -0.6152136383,
				"element": "C" 
			},
			{
				"x": -1.4117367688,
				"y": -0.4935646229,
				"z": 0.5678610066,
				"element": "C" 
			},
			{
				"x": -0.92522188,
				"y": -0.7754251312,
				"z": 1.8215890881,
				"element": "O" 
			},
			{
				"x": 0.4225807624,
				"y": -1.0390441906,
				"z": 2.0171103381,
				"element": "C" 
			},
			{
				"x": 1.4107813065,
				"y": -0.1415988818,
				"z": 1.6037449553,
				"element": "C" 
			},
			{
				"x": 2.745824922,
				"y": -0.4180303523,
				"z": 1.8996723351,
				"element": "C" 
			},
			{
				"x": 3.0911326888,
				"y": -1.5710532019,
				"z": 2.6091249199,
				"element": "C" 
			},
			{
				"x": 2.0917580455,
				"y": -2.4531699902,
				"z": 3.0243985823,
				"element": "C" 
			},
			{
				"x": 0.753111061,
				"y": -2.1931370586,
				"z": 2.7268980884,
				"element": "C" 
			},
			{
				"x": -2.6201076292,
				"y": 0.2102020195,
				"z": 0.5214265216,
				"element": "C" 
			},
			{
				"x": -3.218290609,
				"y": 0.4795636685,
				"z": -0.7053722505,
				"element": "C" 
			},
			{
				"x": -3.288492738,
				"y": 3.5487419946,
				"z": -4.7434051031,
				"element": "H" 
			},
			{
				"x": -1.6401959742,
				"y": 2.5732659758,
				"z": -2.8710770186,
				"element": "H" 
			},
			{
				"x": -3.2078564164,
				"y": 2.9545393162,
				"z": -2.1585288297,
				"element": "H" 
			},
			{
				"x": -3.5802202134,
				"y": -0.4320955863,
				"z": -3.7040931553,
				"element": "H" 
			},
			{
				"x": -0.9238451788,
				"y": -0.9487594797,
				"z": -2.7633528997,
				"element": "H" 
			},
			{
				"x": 0.1283339998,
				"y": -1.4805946119,
				"z": -0.578901409,
				"element": "H" 
			},
			{
				"x": 1.1329847444,
				"y": 0.7586351828,
				"z": 1.0654676436,
				"element": "H" 
			},
			{
				"x": 3.5172050897,
				"y": 0.2772253747,
				"z": 1.5815279334,
				"element": "H" 
			},
			{
				"x": 4.1316914873,
				"y": -1.7776496725,
				"z": 2.8396272905,
				"element": "H" 
			},
			{
				"x": 2.3516908123,
				"y": -3.3498944123,
				"z": 3.5791861048,
				"element": "H" 
			},
			{
				"x": -0.0399008357,
				"y": -2.8639482516,
				"z": 3.0403743906,
				"element": "H" 
			},
			{
				"x": -3.0803629711,
				"y": 0.52171645,
				"z": 1.45289412,
				"element": "H" 
			},
			{
				"x": -4.1692665834,
				"y": 1.0014763887,
				"z": -0.7446761392,
				"element": "H" 
			}
		],
		 "valence_orbital": [ 
			{
				"type": "occ",
				"energy": -0.27141,
				"method": "rhf"
			},
			{
				"type": "occ",
				"energy": -0.26416,
				"method": "rhf"
			},
			{
				"type": "occ",
				"energy": -0.25857,
				"method": "rhf"
			},
			{
				"type": "occ",
				"energy": -0.2535,
				"method": "rhf"
			},
			{
				"type": "occ",
				"energy": -0.23084,
				"method": "rhf"
			},
			{
				"type": "unocc",
				"energy": -0.02691,
				"method": "rhf"
			},
			{
				"type": "unocc",
				"energy": -0.02226,
				"method": "rhf"
			},
			{
				"type": "unocc",
				"energy": -0.01187,
				"method": "rhf"
			},
			{
				"type": "unocc",
				"energy": -0.00459,
				"method": "rhf"
			},
			{
				"type": "unocc",
				"energy": 0.02149,
				"method": "rhf"
			}
		],
		"cosmo_sigma_profile": { 
			"-0.025": 0.0,
			"-0.024": 0.0,
			"-0.023": 0.0,
			"-0.022": 0.0,
			"-0.021": 0.0,
			"-0.02": 0.0,
			"-0.019": 0.0,
			"-0.018": 0.0,
			"-0.017": 0.0,
			"-0.016": 0.0,
			"-0.015": 0.36107037911,
			"-0.014": 1.40467818329,
			"-0.013": 0.55537195835,
			"-0.012": 1.01146754224,
			"-0.011": 1.09026477665,
			"-0.01": 0.984948321402,
			"-0.009": 1.09839832412,
			"-0.008": 1.76357580443,
			"-0.007": 8.31220273938,
			"-0.006": 19.1294071783,
			"-0.005": 23.8540039052,
			"-0.004": 24.3232036662,
			"-0.003": 20.4512671783,
			"-0.002": 19.1598464219,
			"-0.001": 18.0883018565,
			"0.0": 19.2496946193,
			"0.001": 19.0513656086,
			"0.002": 19.888264538,
			"0.003": 23.1661453752,
			"0.004": 19.1138946017,
			"0.005": 11.6080876208,
			"0.006": 3.63967201709,
			"0.007": 4.14796019943,
			"0.008": 3.36677997429,
			"0.009": 2.90410457129,
			"0.01": 3.11856881865,
			"0.011": 3.28290580406,
			"0.012": 5.10403513859,
			"0.013": 4.04020181205,
			"0.014": 2.86332587726,
			"0.015": 0.487344344417,
			"0.016": 0.0,
			"0.017": 0.0,
			"0.018": 0.0,
			"0.019": 0.0,
			"0.02": 0.0,
			"0.021": 0.0,
			"0.022": 0.0,
			"0.023": 0.0,
			"0.024": 0.0,
			"0.025": 0.0
		}
	}
}
