{
	 "smiles": "CC1CCCC(C)N1S(=O)(=O)C1=CC=C(N)C=C1", 
	 "Tm": 489.15, 
	 "num_atms": 38, 
	 "gaussian": { 
		 "optdone": 1, 
		 "sigma_profile": "yes", 
		 "theory": "DFT", 
		 "functional": "B3LYP", 
		 "basiset": "6-31G**", 
		 "properties": { 
			 "R2extent": 5656.4054, 
			 "electric_dipole_moment_norm": 5.99591542135, 
			 "electric_quadrupole_moment_norm": 29.9059778907, 
			 "total_energy": -1165.52396614, 
			 "HOMO_LUMO_gap": 0.19935, 
			 "cosmo_polarized_energy": -17.91, 
			 "cosmo_cavitation_energy": 38.45, 
			 "cosmo_dispersion_energy": -27.4, 
			 "cosmo_repulsion_energy": 2.06, 
			 "cosmo_total_nonelectrostatic_energy": 13.12, 
			 "SMD_solvation_energy": 5.0 
		},
		"coords": [
			{
				"x": -1.5744022215,
				"y": -0.3757235919,
				"z": -0.9857382562,
				"element": "C" 
			},
			{
				"x": -1.2321934921,
				"y": 0.3430416682,
				"z": 0.3214552744,
				"element": "C" 
			},
			{
				"x": -2.0142978993,
				"y": -0.2036482354,
				"z": 1.5292399273,
				"element": "C" 
			},
			{
				"x": -1.7468765826,
				"y": 0.6373072744,
				"z": 2.7864530159,
				"element": "C" 
			},
			{
				"x": -0.240213608,
				"y": 0.7725314825,
				"z": 3.0525763298,
				"element": "C" 
			},
			{
				"x": 0.544164982,
				"y": 1.2657963204,
				"z": 1.819301027,
				"element": "C" 
			},
			{
				"x": 0.3319660088,
				"y": 2.7536885192,
				"z": 1.5057019368,
				"element": "C" 
			},
			{
				"x": 0.2335867294,
				"y": 0.4329158657,
				"z": 0.6147466916,
				"element": "N" 
			},
			{
				"x": 1.1857464648,
				"y": -0.9701594413,
				"z": 0.4451220406,
				"element": "S" 
			},
			{
				"x": 0.3982513771,
				"y": -2.1941579147,
				"z": 0.6773844067,
				"element": "O" 
			},
			{
				"x": 2.4034589159,
				"y": -0.7406754039,
				"z": 1.2366943296,
				"element": "O" 
			},
			{
				"x": 1.6375804874,
				"y": -0.9568815823,
				"z": -1.2838346202,
				"element": "C" 
			},
			{
				"x": 1.5164117971,
				"y": -2.1327163627,
				"z": -2.0273811291,
				"element": "C" 
			},
			{
				"x": 1.9436782297,
				"y": -2.1644965483,
				"z": -3.3496331612,
				"element": "C" 
			},
			{
				"x": 2.5071171587,
				"y": -1.0223717587,
				"z": -3.9490612052,
				"element": "C" 
			},
			{
				"x": 2.9782247186,
				"y": -1.0652149185,
				"z": -5.2516022538,
				"element": "N" 
			},
			{
				"x": 2.6288052815,
				"y": 0.1544781427,
				"z": -3.1814175063,
				"element": "C" 
			},
			{
				"x": 2.2047529995,
				"y": 0.1839206979,
				"z": -1.8606264604,
				"element": "C" 
			},
			{
				"x": -2.6408377432,
				"y": -0.2328616631,
				"z": -1.1879725372,
				"element": "H" 
			},
			{
				"x": -1.0114353653,
				"y": 0.0365061774,
				"z": -1.8268688775,
				"element": "H" 
			},
			{
				"x": -1.3838104085,
				"y": -1.4487518982,
				"z": -0.9248652546,
				"element": "H" 
			},
			{
				"x": -1.5250416541,
				"y": 1.3912650084,
				"z": 0.1809437895,
				"element": "H" 
			},
			{
				"x": -1.7200254685,
				"y": -1.2456935356,
				"z": 1.694582644,
				"element": "H" 
			},
			{
				"x": -3.0855755792,
				"y": -0.198634367,
				"z": 1.2915461433,
				"element": "H" 
			},
			{
				"x": -2.2394472311,
				"y": 0.1877593085,
				"z": 3.6562667849,
				"element": "H" 
			},
			{
				"x": -2.1961844624,
				"y": 1.63208341,
				"z": 2.660895246,
				"element": "H" 
			},
			{
				"x": 0.1660593702,
				"y": -0.2039073459,
				"z": 3.3431712205,
				"element": "H" 
			},
			{
				"x": -0.0578543824,
				"y": 1.4529918261,
				"z": 3.8935391968,
				"element": "H" 
			},
			{
				"x": 1.607409379,
				"y": 1.1230062524,
				"z": 2.0118973999,
				"element": "H" 
			},
			{
				"x": 0.7040114268,
				"y": 3.3554142261,
				"z": 2.3414006039,
				"element": "H" 
			},
			{
				"x": -0.717901666,
				"y": 3.0211274964,
				"z": 1.3549102005,
				"element": "H" 
			},
			{
				"x": 0.8866505201,
				"y": 3.037583845,
				"z": 0.6067243337,
				"element": "H" 
			},
			{
				"x": 1.0794712258,
				"y": -3.0112325197,
				"z": -1.5656653868,
				"element": "H" 
			},
			{
				"x": 1.8474181153,
				"y": -3.0804186589,
				"z": -3.9267789531,
				"element": "H" 
			},
			{
				"x": 3.0809352851,
				"y": -0.1802506864,
				"z": -5.726033303,
				"element": "H" 
			},
			{
				"x": 2.6093868465,
				"y": -1.7956761787,
				"z": -5.8425891863,
				"element": "H" 
			},
			{
				"x": 3.0649863567,
				"y": 1.0432602086,
				"z": -3.6299705047,
				"element": "H" 
			},
			{
				"x": 2.297124088,
				"y": 1.0955948811,
				"z": -1.2802139471,
				"element": "H" 
			}
		],
		 "valence_orbital": [ 
			{
				"type": "occ",
				"energy": -0.28626,
				"method": "rhf"
			},
			{
				"type": "occ",
				"energy": -0.28228,
				"method": "rhf"
			},
			{
				"type": "occ",
				"energy": -0.2619,
				"method": "rhf"
			},
			{
				"type": "occ",
				"energy": -0.23645,
				"method": "rhf"
			},
			{
				"type": "occ",
				"energy": -0.21395,
				"method": "rhf"
			},
			{
				"type": "unocc",
				"energy": -0.0146,
				"method": "rhf"
			},
			{
				"type": "unocc",
				"energy": -0.01027,
				"method": "rhf"
			},
			{
				"type": "unocc",
				"energy": 0.06135,
				"method": "rhf"
			},
			{
				"type": "unocc",
				"energy": 0.07373,
				"method": "rhf"
			},
			{
				"type": "unocc",
				"energy": 0.07784,
				"method": "rhf"
			}
		],
		"cosmo_sigma_profile": { 
			"-0.025": 0.0,
			"-0.024": 0.0,
			"-0.023": 0.0,
			"-0.022": 0.0,
			"-0.021": 0.0,
			"-0.02": 0.0,
			"-0.019": 0.0,
			"-0.018": 0.0,
			"-0.017": 0.0,
			"-0.016": 0.0,
			"-0.015": 0.0,
			"-0.014": 0.171240749596,
			"-0.013": 2.44981252111,
			"-0.012": 3.0261534927,
			"-0.011": 3.04126019286,
			"-0.01": 2.77526172801,
			"-0.009": 3.54018427573,
			"-0.008": 2.12210655303,
			"-0.007": 5.05139091523,
			"-0.006": 7.73375184609,
			"-0.005": 10.2658433569,
			"-0.004": 15.5945885776,
			"-0.003": 29.3969074278,
			"-0.002": 28.3037523528,
			"-0.001": 35.0908281432,
			"0.0": 37.5025462369,
			"0.001": 27.6123445299,
			"0.002": 12.8256915815,
			"0.003": 12.1845984091,
			"0.004": 16.8228238115,
			"0.005": 7.66376920116,
			"0.006": 5.1909787985,
			"0.007": 3.55846900948,
			"0.008": 3.00028517168,
			"0.009": 3.91735984016,
			"0.01": 5.2515053089,
			"0.011": 7.45027950894,
			"0.012": 7.26848576973,
			"0.013": 1.63130582489,
			"0.014": 0.0,
			"0.015": 0.0,
			"0.016": 0.0,
			"0.017": 0.0,
			"0.018": 0.0,
			"0.019": 0.0,
			"0.02": 0.0,
			"0.021": 0.0,
			"0.022": 0.0,
			"0.023": 0.0,
			"0.024": 0.0,
			"0.025": 0.0
		}
	}
}
