{
	 "smiles": "NC(=N)C(F)(F)C(F)(F)C(F)(F)F", 
	 "Tm": 323.15, 
	 "num_atms": 16, 
	 "gaussian": { 
		 "optdone": 1, 
		 "sigma_profile": "yes", 
		 "theory": "DFT", 
		 "functional": "B3LYP", 
		 "basiset": "6-31G**", 
		 "properties": { 
			 "R2extent": 2623.7938, 
			 "electric_dipole_moment_norm": 1.96240872654, 
			 "electric_quadrupole_moment_norm": 6.21475019208, 
			 "total_energy": -962.593925761, 
			 "HOMO_LUMO_gap": 0.24928, 
			 "cosmo_polarized_energy": -8.46, 
			 "cosmo_cavitation_energy": 23.05, 
			 "cosmo_dispersion_energy": -15.71, 
			 "cosmo_repulsion_energy": 1.13, 
			 "cosmo_total_nonelectrostatic_energy": 8.47, 
			 "SMD_solvation_energy": 5.63 
		},
		"coords": [
			{
				"x": -0.4679553509,
				"y": -0.8317979171,
				"z": 1.3171891371,
				"element": "N" 
			},
			{
				"x": 0.8915124279,
				"y": -0.9989003995,
				"z": 1.2659317197,
				"element": "C" 
			},
			{
				"x": 1.5820050644,
				"y": -1.3875046454,
				"z": 2.2646987657,
				"element": "N" 
			},
			{
				"x": 1.5059926919,
				"y": -0.5978602248,
				"z": -0.0819454096,
				"element": "C" 
			},
			{
				"x": 0.59936522,
				"y": -0.756560601,
				"z": -1.0933919287,
				"element": "F" 
			},
			{
				"x": 2.5704005031,
				"y": -1.4032916253,
				"z": -0.3413775619,
				"element": "F" 
			},
			{
				"x": 2.051866725,
				"y": 0.8521128744,
				"z": -0.1650833631,
				"element": "C" 
			},
			{
				"x": 3.0789469655,
				"y": 0.9665885913,
				"z": 0.7127727549,
				"element": "F" 
			},
			{
				"x": 2.5219932357,
				"y": 1.0466201395,
				"z": -1.4194125538,
				"element": "F" 
			},
			{
				"x": 1.0483711827,
				"y": 1.9889419179,
				"z": 0.1380173813,
				"element": "C" 
			},
			{
				"x": 0.7354219414,
				"y": 2.0004529335,
				"z": 1.4387185242,
				"element": "F" 
			},
			{
				"x": 1.6031896517,
				"y": 3.1642929347,
				"z": -0.1814471831,
				"element": "F" 
			},
			{
				"x": -0.0739269074,
				"y": 1.8332683139,
				"z": -0.5812228602,
				"element": "F" 
			},
			{
				"x": -0.9896761399,
				"y": -0.9097400947,
				"z": 0.4582075036,
				"element": "H" 
			},
			{
				"x": -0.9102809821,
				"y": -1.1881405171,
				"z": 2.1526372854,
				"element": "H" 
			},
			{
				"x": 2.5764737711,
				"y": -1.3835816804,
				"z": 2.0424077886,
				"element": "H" 
			}
		],
		 "valence_orbital": [ 
			{
				"type": "occ",
				"energy": -0.40901,
				"method": "rhf"
			},
			{
				"type": "occ",
				"energy": -0.38586,
				"method": "rhf"
			},
			{
				"type": "occ",
				"energy": -0.36136,
				"method": "rhf"
			},
			{
				"type": "occ",
				"energy": -0.28091,
				"method": "rhf"
			},
			{
				"type": "occ",
				"energy": -0.26107,
				"method": "rhf"
			},
			{
				"type": "unocc",
				"energy": -0.01179,
				"method": "rhf"
			},
			{
				"type": "unocc",
				"energy": 0.0445,
				"method": "rhf"
			},
			{
				"type": "unocc",
				"energy": 0.07179,
				"method": "rhf"
			},
			{
				"type": "unocc",
				"energy": 0.08156,
				"method": "rhf"
			},
			{
				"type": "unocc",
				"energy": 0.11966,
				"method": "rhf"
			}
		],
		"cosmo_sigma_profile": { 
			"-0.025": 0.0,
			"-0.024": 0.0,
			"-0.023": 0.0,
			"-0.022": 0.0,
			"-0.021": 0.0,
			"-0.02": 0.0,
			"-0.019": 0.0,
			"-0.018": 0.0,
			"-0.017": 0.0,
			"-0.016": 0.0,
			"-0.015": 0.0826308524227,
			"-0.014": 1.51045824209,
			"-0.013": 2.42142251748,
			"-0.012": 1.74293710114,
			"-0.011": 2.43736906631,
			"-0.01": 2.96461110172,
			"-0.009": 2.24084623234,
			"-0.008": 2.98555159531,
			"-0.007": 2.43544801792,
			"-0.006": 3.83226362321,
			"-0.005": 3.77995132391,
			"-0.004": 4.04961125477,
			"-0.003": 5.08100713706,
			"-0.002": 9.30950984065,
			"-0.001": 13.0980590781,
			"0.0": 22.6832729047,
			"0.001": 52.0353822683,
			"0.002": 26.522357165,
			"0.003": 4.24334859609,
			"0.004": 3.81774821015,
			"0.005": 2.42608164748,
			"0.006": 2.15631935006,
			"0.007": 2.18555275077,
			"0.008": 0.882321573019,
			"0.009": 1.0375612484,
			"0.01": 0.760765833941,
			"0.011": 1.41803890178,
			"0.012": 0.806770620195,
			"0.013": 1.23770211637,
			"0.014": 1.10432096109,
			"0.015": 1.14719462315,
			"0.016": 0.909600268478,
			"0.017": 0.588631425175,
			"0.018": 0.00597627833806,
			"0.019": 0.0,
			"0.02": 0.0,
			"0.021": 0.0,
			"0.022": 0.0,
			"0.023": 0.0,
			"0.024": 0.0,
			"0.025": 0.0
		}
	}
}
