{
	 "smiles": "CC(=N/NC(=O)NC1=CC(F)=CC(F)=C1)C1=NC=CC=C1C(O)=O", 
	 "Tm": 409.15, 
	 "num_atms": 36, 
	 "gaussian": { 
		 "optdone": 1, 
		 "sigma_profile": "yes", 
		 "theory": "DFT", 
		 "functional": "B3LYP", 
		 "basiset": "6-31G**", 
		 "properties": { 
			 "R2extent": 10554.0893, 
			 "electric_dipole_moment_norm": 5.70555008654, 
			 "electric_quadrupole_moment_norm": 9.78544605473, 
			 "total_energy": -1223.18417968, 
			 "HOMO_LUMO_gap": 0.15659, 
			 "cosmo_polarized_energy": -20.29, 
			 "cosmo_cavitation_energy": 43.42, 
			 "cosmo_dispersion_energy": -29.39, 
			 "cosmo_repulsion_energy": 2.15, 
			 "cosmo_total_nonelectrostatic_energy": 16.18, 
			 "SMD_solvation_energy": 8.79 
		},
		"coords": [
			{
				"x": -2.7151851306,
				"y": -1.3795864514,
				"z": -1.9493230547,
				"element": "C" 
			},
			{
				"x": -1.6146785531,
				"y": -0.494384258,
				"z": -1.4318732616,
				"element": "C" 
			},
			{
				"x": -0.6571913725,
				"y": -0.8848939039,
				"z": -0.6594885392,
				"element": "N" 
			},
			{
				"x": -0.5574113067,
				"y": -2.1777324538,
				"z": -0.2933352384,
				"element": "N" 
			},
			{
				"x": 0.4728812421,
				"y": -2.6164892884,
				"z": 0.5503263845,
				"element": "C" 
			},
			{
				"x": 0.5801172531,
				"y": -3.8057560217,
				"z": 0.8087959857,
				"element": "O" 
			},
			{
				"x": 1.261422489,
				"y": -1.5898134283,
				"z": 1.007908307,
				"element": "N" 
			},
			{
				"x": 2.38060965,
				"y": -1.6716057646,
				"z": 1.8460365338,
				"element": "C" 
			},
			{
				"x": 2.8652157085,
				"y": -2.8839368419,
				"z": 2.3592913899,
				"element": "C" 
			},
			{
				"x": 3.9868094702,
				"y": -2.841888281,
				"z": 3.1778290638,
				"element": "C" 
			},
			{
				"x": 4.4552248241,
				"y": -4.0042313847,
				"z": 3.67224626,
				"element": "F" 
			},
			{
				"x": 4.6550876744,
				"y": -1.6701449928,
				"z": 3.5157866722,
				"element": "C" 
			},
			{
				"x": 4.1395657102,
				"y": -0.4934565501,
				"z": 2.9858041739,
				"element": "C" 
			},
			{
				"x": 4.7503772699,
				"y": 0.6715150262,
				"z": 3.2831515933,
				"element": "F" 
			},
			{
				"x": 3.0239820505,
				"y": -0.4615670512,
				"z": 2.1625494634,
				"element": "C" 
			},
			{
				"x": -1.6025706349,
				"y": 0.9539830402,
				"z": -1.7549645567,
				"element": "C" 
			},
			{
				"x": -2.7982898074,
				"y": 1.5220863398,
				"z": -1.9691203861,
				"element": "N" 
			},
			{
				"x": -2.8624027535,
				"y": 2.8467733952,
				"z": -2.1312083341,
				"element": "C" 
			},
			{
				"x": -1.748542369,
				"y": 3.6821879239,
				"z": -2.0614421671,
				"element": "C" 
			},
			{
				"x": -0.4985709455,
				"y": 3.0939058662,
				"z": -1.878277252,
				"element": "C" 
			},
			{
				"x": -0.4047509063,
				"y": 1.706210881,
				"z": -1.760138925,
				"element": "C" 
			},
			{
				"x": 0.9490011669,
				"y": 1.0660608659,
				"z": -1.7890783163,
				"element": "C" 
			},
			{
				"x": 1.7495710118,
				"y": 1.5018503754,
				"z": -0.7783531542,
				"element": "O" 
			},
			{
				"x": 1.3379045161,
				"y": 0.3100065598,
				"z": -2.6487071561,
				"element": "O" 
			},
			{
				"x": -3.4894537251,
				"y": -0.7734470663,
				"z": -2.4177065174,
				"element": "H" 
			},
			{
				"x": -3.172582996,
				"y": -1.9562917709,
				"z": -1.1360552614,
				"element": "H" 
			},
			{
				"x": -2.3277734921,
				"y": -2.0912716216,
				"z": -2.6901168953,
				"element": "H" 
			},
			{
				"x": -1.1414428497,
				"y": -2.912557602,
				"z": -0.6784808501,
				"element": "H" 
			},
			{
				"x": 0.9999638743,
				"y": -0.6714338948,
				"z": 0.6681613341,
				"element": "H" 
			},
			{
				"x": 2.382244568,
				"y": -3.8214870772,
				"z": 2.1267859933,
				"element": "H" 
			},
			{
				"x": 5.5269185345,
				"y": -1.6744664307,
				"z": 4.1570205313,
				"element": "H" 
			},
			{
				"x": 2.6606418656,
				"y": 0.4884173425,
				"z": 1.7851199887,
				"element": "H" 
			},
			{
				"x": -3.852666935,
				"y": 3.2580898369,
				"z": -2.3165744843,
				"element": "H" 
			},
			{
				"x": -1.8540490763,
				"y": 4.7563180533,
				"z": -2.1701669375,
				"element": "H" 
			},
			{
				"x": 0.4025747986,
				"y": 3.6989131203,
				"z": -1.8560775071,
				"element": "H" 
			},
			{
				"x": 2.6239491761,
				"y": 1.1064235086,
				"z": -0.94352488,
				"element": "H" 
			}
		],
		 "valence_orbital": [ 
			{
				"type": "occ",
				"energy": -0.27991,
				"method": "rhf"
			},
			{
				"type": "occ",
				"energy": -0.27527,
				"method": "rhf"
			},
			{
				"type": "occ",
				"energy": -0.24551,
				"method": "rhf"
			},
			{
				"type": "occ",
				"energy": -0.24302,
				"method": "rhf"
			},
			{
				"type": "occ",
				"energy": -0.22619,
				"method": "rhf"
			},
			{
				"type": "unocc",
				"energy": -0.0696,
				"method": "rhf"
			},
			{
				"type": "unocc",
				"energy": -0.05041,
				"method": "rhf"
			},
			{
				"type": "unocc",
				"energy": -0.01279,
				"method": "rhf"
			},
			{
				"type": "unocc",
				"energy": -0.00309,
				"method": "rhf"
			},
			{
				"type": "unocc",
				"energy": 0.00119,
				"method": "rhf"
			}
		],
		"cosmo_sigma_profile": { 
			"-0.025": 0.0,
			"-0.024": 0.0,
			"-0.023": 0.0,
			"-0.022": 0.0,
			"-0.021": 0.0,
			"-0.02": 0.0,
			"-0.019": 0.0403441536686,
			"-0.018": 0.462051217855,
			"-0.017": 0.620345809246,
			"-0.016": 0.618666209548,
			"-0.015": 0.837351171893,
			"-0.014": 1.42124952766,
			"-0.013": 1.81893033666,
			"-0.012": 2.06519088592,
			"-0.011": 1.94107891735,
			"-0.01": 2.32792778281,
			"-0.009": 4.26638498477,
			"-0.008": 9.2185387417,
			"-0.007": 14.3502589251,
			"-0.006": 17.1751804614,
			"-0.005": 14.7115469101,
			"-0.004": 14.5715185784,
			"-0.003": 16.1775703935,
			"-0.002": 18.9267457694,
			"-0.001": 23.8904701473,
			"0.0": 32.5059997944,
			"0.001": 39.0363761123,
			"0.002": 33.4814773145,
			"0.003": 21.8434372211,
			"0.004": 27.0382561501,
			"0.005": 8.76946182145,
			"0.006": 5.56781859719,
			"0.007": 4.70486927044,
			"0.008": 4.73372157577,
			"0.009": 4.24830659553,
			"0.01": 4.65021832525,
			"0.011": 8.0991611024,
			"0.012": 6.28447094095,
			"0.013": 2.2761674481,
			"0.014": 0.0950999071862,
			"0.015": 0.0,
			"0.016": 0.0,
			"0.017": 0.0,
			"0.018": 0.0,
			"0.019": 0.0,
			"0.02": 0.0,
			"0.021": 0.0,
			"0.022": 0.0,
			"0.023": 0.0,
			"0.024": 0.0,
			"0.025": 0.0
		}
	}
}
