{
	 "smiles": "CN(C)C(=O)C1=CC=C(C=C1)S(N)(=O)=O", 
	 "Tm": 480.15, 
	 "num_atms": 27, 
	 "gaussian": { 
		 "optdone": 1, 
		 "sigma_profile": "yes", 
		 "theory": "DFT", 
		 "functional": "B3LYP", 
		 "basiset": "6-31G**", 
		 "properties": { 
			 "R2extent": 5265.0977, 
			 "electric_dipole_moment_norm": 7.74210803141, 
			 "electric_quadrupole_moment_norm": 24.0766349634, 
			 "total_energy": -1083.48864067, 
			 "HOMO_LUMO_gap": 0.18872, 
			 "cosmo_polarized_energy": -24.75, 
			 "cosmo_cavitation_energy": 32.29, 
			 "cosmo_dispersion_energy": -23.7, 
			 "cosmo_repulsion_energy": 1.82, 
			 "cosmo_total_nonelectrostatic_energy": 10.41, 
			 "SMD_solvation_energy": 5.79 
		},
		"coords": [
			{
				"x": 1.4909995191,
				"y": 4.0962946574,
				"z": -1.077050783,
				"element": "C" 
			},
			{
				"x": 0.9091279451,
				"y": 2.7858754931,
				"z": -0.8101245879,
				"element": "N" 
			},
			{
				"x": -0.5236676306,
				"y": 2.6883695061,
				"z": -1.0550099333,
				"element": "C" 
			},
			{
				"x": 1.6465676729,
				"y": 1.8991104132,
				"z": -0.0594150806,
				"element": "C" 
			},
			{
				"x": 2.7315844206,
				"y": 2.2004089946,
				"z": 0.4324846424,
				"element": "O" 
			},
			{
				"x": 1.1302255417,
				"y": 0.4912769319,
				"z": 0.1161767629,
				"element": "C" 
			},
			{
				"x": 1.3270960072,
				"y": -0.1163970384,
				"z": 1.364524757,
				"element": "C" 
			},
			{
				"x": 0.9581180072,
				"y": -1.4419081875,
				"z": 1.5735364957,
				"element": "C" 
			},
			{
				"x": 0.40972511,
				"y": -2.1712444866,
				"z": 0.5144416709,
				"element": "C" 
			},
			{
				"x": 0.2485937391,
				"y": -1.5997967179,
				"z": -0.748700504,
				"element": "C" 
			},
			{
				"x": 0.6058370389,
				"y": -0.2654736169,
				"z": -0.9412315613,
				"element": "C" 
			},
			{
				"x": -0.0916109052,
				"y": -3.8805050851,
				"z": 0.7803247219,
				"element": "S" 
			},
			{
				"x": -1.6818554432,
				"y": -3.8369984873,
				"z": 1.3238860725,
				"element": "N" 
			},
			{
				"x": -0.1414889351,
				"y": -4.5279483391,
				"z": -0.5289452178,
				"element": "O" 
			},
			{
				"x": 0.6916122233,
				"y": -4.3965439883,
				"z": 1.9005671719,
				"element": "O" 
			},
			{
				"x": 1.1023845637,
				"y": 4.854245197,
				"z": -0.3833542001,
				"element": "H" 
			},
			{
				"x": 1.2439695248,
				"y": 4.4032149913,
				"z": -2.0990778596,
				"element": "H" 
			},
			{
				"x": 2.570926122,
				"y": 4.0351111824,
				"z": -0.9563844548,
				"element": "H" 
			},
			{
				"x": -0.7444329302,
				"y": 2.7338816786,
				"z": -2.1288645921,
				"element": "H" 
			},
			{
				"x": -1.0443192764,
				"y": 3.5240921384,
				"z": -0.5684847299,
				"element": "H" 
			},
			{
				"x": -0.925547001,
				"y": 1.7599523872,
				"z": -0.6543505429,
				"element": "H" 
			},
			{
				"x": 1.792240694,
				"y": 0.45946,
				"z": 2.157357614,
				"element": "H" 
			},
			{
				"x": 1.1214583245,
				"y": -1.9222389124,
				"z": 2.5324877689,
				"element": "H" 
			},
			{
				"x": -0.1247496642,
				"y": -2.2030964525,
				"z": -1.5692604299,
				"element": "H" 
			},
			{
				"x": 0.5037054518,
				"y": 0.1781806332,
				"z": -1.9266422202,
				"element": "H" 
			},
			{
				"x": -1.7804190158,
				"y": -3.3975743584,
				"z": 2.2333359445,
				"element": "H" 
			},
			{
				"x": -2.3309811041,
				"y": -3.4797485339,
				"z": 0.6304730747,
				"element": "H" 
			}
		],
		 "valence_orbital": [ 
			{
				"type": "occ",
				"energy": -0.30613,
				"method": "rhf"
			},
			{
				"type": "occ",
				"energy": -0.28146,
				"method": "rhf"
			},
			{
				"type": "occ",
				"energy": -0.27812,
				"method": "rhf"
			},
			{
				"type": "occ",
				"energy": -0.25874,
				"method": "rhf"
			},
			{
				"type": "occ",
				"energy": -0.24822,
				"method": "rhf"
			},
			{
				"type": "unocc",
				"energy": -0.0595,
				"method": "rhf"
			},
			{
				"type": "unocc",
				"energy": -0.03052,
				"method": "rhf"
			},
			{
				"type": "unocc",
				"energy": 0.02592,
				"method": "rhf"
			},
			{
				"type": "unocc",
				"energy": 0.04722,
				"method": "rhf"
			},
			{
				"type": "unocc",
				"energy": 0.07031,
				"method": "rhf"
			}
		],
		"cosmo_sigma_profile": { 
			"-0.025": 0.0,
			"-0.024": 0.0,
			"-0.023": 0.0,
			"-0.022": 0.0,
			"-0.021": 0.0,
			"-0.02": 0.0,
			"-0.019": 0.0,
			"-0.018": 0.0,
			"-0.017": 0.0,
			"-0.016": 0.279326156474,
			"-0.015": 2.25043171365,
			"-0.014": 2.86081933892,
			"-0.013": 2.87313699964,
			"-0.012": 2.68672345814,
			"-0.011": 2.92509740964,
			"-0.01": 1.9712390947,
			"-0.009": 1.70408932195,
			"-0.008": 3.37802525686,
			"-0.007": 7.17429187992,
			"-0.006": 10.316621094,
			"-0.005": 18.5945221527,
			"-0.004": 23.9067692696,
			"-0.003": 23.8805719973,
			"-0.002": 24.8156781011,
			"-0.001": 12.7811064049,
			"0.0": 11.9877630613,
			"0.001": 14.9533863277,
			"0.002": 13.5056124994,
			"0.003": 5.89991289248,
			"0.004": 4.78643222091,
			"0.005": 4.59418559006,
			"0.006": 5.01160601568,
			"0.007": 6.47901768878,
			"0.008": 6.09118088728,
			"0.009": 5.77559453865,
			"0.01": 9.13025580626,
			"0.011": 12.3123982731,
			"0.012": 5.6687571466,
			"0.013": 4.42730643196,
			"0.014": 2.97799442657,
			"0.015": 0.253137309804,
			"0.016": 0.0,
			"0.017": 0.0,
			"0.018": 0.0,
			"0.019": 0.0,
			"0.02": 0.0,
			"0.021": 0.0,
			"0.022": 0.0,
			"0.023": 0.0,
			"0.024": 0.0,
			"0.025": 0.0
		}
	}
}
