{
	 "smiles": "NC1=C(C=O)C=C2C=C(C(=O)C3=CC=CC=C3)C(=O)NC2=C1", 
	 "Tm": 551.15, 
	 "num_atms": 34, 
	 "gaussian": { 
		 "optdone": 1, 
		 "sigma_profile": "yes", 
		 "theory": "DFT", 
		 "functional": "B3LYP", 
		 "basiset": "6-31G**", 
		 "properties": { 
			 "R2extent": 9405.0588, 
			 "electric_dipole_moment_norm": 4.08203479285, 
			 "electric_quadrupole_moment_norm": 17.2763840311, 
			 "total_energy": -990.248361916, 
			 "HOMO_LUMO_gap": 0.14034, 
			 "cosmo_polarized_energy": -23.23, 
			 "cosmo_cavitation_energy": 39.1, 
			 "cosmo_dispersion_energy": -28.55, 
			 "cosmo_repulsion_energy": 2.12, 
			 "cosmo_total_nonelectrostatic_energy": 12.67, 
			 "SMD_solvation_energy": 7.99 
		},
		"coords": [
			{
				"x": 0.6690315321,
				"y": 5.99066781,
				"z": 0.1574404282,
				"element": "N" 
			},
			{
				"x": 0.7410755811,
				"y": 4.6572323969,
				"z": 0.3678699873,
				"element": "C" 
			},
			{
				"x": 1.7574137491,
				"y": 4.1297758236,
				"z": 1.2459391845,
				"element": "C" 
			},
			{
				"x": 2.7168897341,
				"y": 4.9912166235,
				"z": 1.9250194981,
				"element": "C" 
			},
			{
				"x": 2.7781977296,
				"y": 6.2164198861,
				"z": 1.8371310582,
				"element": "O" 
			},
			{
				"x": 1.826454511,
				"y": 2.7535215849,
				"z": 1.4560514818,
				"element": "C" 
			},
			{
				"x": 0.9445778503,
				"y": 1.8560428116,
				"z": 0.8461338191,
				"element": "C" 
			},
			{
				"x": 0.9815466006,
				"y": 0.4438080953,
				"z": 1.042412213,
				"element": "C" 
			},
			{
				"x": 0.1340368024,
				"y": -0.4260619791,
				"z": 0.4116430048,
				"element": "C" 
			},
			{
				"x": 0.2653954299,
				"y": -1.8841257972,
				"z": 0.76057384,
				"element": "C" 
			},
			{
				"x": 0.6611688328,
				"y": -2.1743426846,
				"z": 1.8868457273,
				"element": "O" 
			},
			{
				"x": -0.0005761146,
				"y": -2.9671897796,
				"z": -0.2342661036,
				"element": "C" 
			},
			{
				"x": -0.2129344143,
				"y": -4.2635319523,
				"z": 0.2623523072,
				"element": "C" 
			},
			{
				"x": -0.3945504982,
				"y": -5.3328156351,
				"z": -0.6093168507,
				"element": "C" 
			},
			{
				"x": -0.3390875813,
				"y": -5.1236460597,
				"z": -1.9903864924,
				"element": "C" 
			},
			{
				"x": -0.1069095292,
				"y": -3.8417758481,
				"z": -2.4929985893,
				"element": "C" 
			},
			{
				"x": 0.0528686532,
				"y": -2.766296726,
				"z": -1.621015284,
				"element": "C" 
			},
			{
				"x": -0.9296973005,
				"y": 0.1008505337,
				"z": -0.4547606336,
				"element": "C" 
			},
			{
				"x": -1.8075059641,
				"y": -0.5415236463,
				"z": -1.0185267728,
				"element": "O" 
			},
			{
				"x": -0.9193876682,
				"y": 1.5012512487,
				"z": -0.6047575162,
				"element": "N" 
			},
			{
				"x": -0.0573155285,
				"y": 2.3937645704,
				"z": -0.0190353297,
				"element": "C" 
			},
			{
				"x": -0.1520619265,
				"y": 3.7651186503,
				"z": -0.2501572669,
				"element": "C" 
			},
			{
				"x": -0.0372240607,
				"y": 6.3800617213,
				"z": -0.44432964,
				"element": "H" 
			},
			{
				"x": 1.3392912814,
				"y": 6.5837158748,
				"z": 0.636658573,
				"element": "H" 
			},
			{
				"x": 3.4400031481,
				"y": 4.4505273663,
				"z": 2.5706120781,
				"element": "H" 
			},
			{
				"x": 2.5944598504,
				"y": 2.3642324397,
				"z": 2.1211357982,
				"element": "H" 
			},
			{
				"x": 1.7159590793,
				"y": 0.0277833317,
				"z": 1.7273232991,
				"element": "H" 
			},
			{
				"x": -0.2290959542,
				"y": -4.4070879085,
				"z": 1.3373566762,
				"element": "H" 
			},
			{
				"x": -0.5729916678,
				"y": -6.3293325968,
				"z": -0.2157560008,
				"element": "H" 
			},
			{
				"x": -0.4747276319,
				"y": -5.9581320375,
				"z": -2.6728359423,
				"element": "H" 
			},
			{
				"x": -0.0555214425,
				"y": -3.6783764856,
				"z": -3.5654395913,
				"element": "H" 
			},
			{
				"x": 0.225955515,
				"y": -1.7750348981,
				"z": -2.021967691,
				"element": "H" 
			},
			{
				"x": -1.6696245786,
				"y": 1.8422670047,
				"z": -1.1940498804,
				"element": "H" 
			},
			{
				"x": -0.9224140195,
				"y": 4.1510162609,
				"z": -0.9125993892,
				"element": "H" 
			}
		],
		 "valence_orbital": [ 
			{
				"type": "occ",
				"energy": -0.25279,
				"method": "rhf"
			},
			{
				"type": "occ",
				"energy": -0.24737,
				"method": "rhf"
			},
			{
				"type": "occ",
				"energy": -0.24342,
				"method": "rhf"
			},
			{
				"type": "occ",
				"energy": -0.24334,
				"method": "rhf"
			},
			{
				"type": "occ",
				"energy": -0.21966,
				"method": "rhf"
			},
			{
				"type": "unocc",
				"energy": -0.07932,
				"method": "rhf"
			},
			{
				"type": "unocc",
				"energy": -0.06476,
				"method": "rhf"
			},
			{
				"type": "unocc",
				"energy": -0.03501,
				"method": "rhf"
			},
			{
				"type": "unocc",
				"energy": 0.0034,
				"method": "rhf"
			},
			{
				"type": "unocc",
				"energy": 0.00539,
				"method": "rhf"
			}
		],
		"cosmo_sigma_profile": { 
			"-0.025": 0.0,
			"-0.024": 0.0,
			"-0.023": 0.0,
			"-0.022": 0.0,
			"-0.021": 0.0,
			"-0.02": 0.0,
			"-0.019": 0.0,
			"-0.018": 0.0,
			"-0.017": 0.0,
			"-0.016": 0.340334086951,
			"-0.015": 1.3213108964,
			"-0.014": 2.78337383391,
			"-0.013": 2.86049437533,
			"-0.012": 1.83648167446,
			"-0.011": 2.66631668239,
			"-0.01": 3.6718547993,
			"-0.009": 4.29090221108,
			"-0.008": 9.08354814626,
			"-0.007": 9.68984249829,
			"-0.006": 15.4356755971,
			"-0.005": 16.0234024304,
			"-0.004": 19.3184172486,
			"-0.003": 15.8883807533,
			"-0.002": 19.7102802789,
			"-0.001": 21.9020801751,
			"0.0": 25.8598152857,
			"0.001": 29.0405120182,
			"0.002": 21.2827266461,
			"0.003": 15.7974118805,
			"0.004": 16.5535812289,
			"0.005": 10.4043303834,
			"0.006": 5.07824483766,
			"0.007": 4.76923028619,
			"0.008": 4.70615642233,
			"0.009": 5.14052071289,
			"0.01": 5.21623096356,
			"0.011": 6.46690922894,
			"0.012": 8.85980496301,
			"0.013": 6.48223016501,
			"0.014": 1.84086717479,
			"0.015": 0.0,
			"0.016": 0.0,
			"0.017": 0.0,
			"0.018": 0.0,
			"0.019": 0.0,
			"0.02": 0.0,
			"0.021": 0.0,
			"0.022": 0.0,
			"0.023": 0.0,
			"0.024": 0.0,
			"0.025": 0.0
		}
	}
}
