{
	 "smiles": "CC1=CC=C(C=C1)S(=O)(=O)NC(CC1=CC=CC=C1)C(=O)CCl", 
	 "Tm": 380.15, 
	 "num_atms": 41, 
	 "gaussian": { 
		 "optdone": 1, 
		 "sigma_profile": "yes", 
		 "theory": "DFT", 
		 "functional": "B3LYP", 
		 "basiset": "6-31G**", 
		 "properties": { 
			 "R2extent": 8903.3647, 
			 "electric_dipole_moment_norm": 5.29911378817, 
			 "electric_quadrupole_moment_norm": 20.4983654048, 
			 "total_energy": -1797.39877427, 
			 "HOMO_LUMO_gap": 0.19691, 
			 "cosmo_polarized_energy": -17.25, 
			 "cosmo_cavitation_energy": 48.18, 
			 "cosmo_dispersion_energy": -30.53, 
			 "cosmo_repulsion_energy": 2.32, 
			 "cosmo_total_nonelectrostatic_energy": 19.97, 
			 "SMD_solvation_energy": 7.23 
		},
		"coords": [
			{
				"x": -4.1352582057,
				"y": -2.3091084673,
				"z": -0.0403778599,
				"element": "C" 
			},
			{
				"x": -3.1395075411,
				"y": -1.3333001859,
				"z": 0.5382722868,
				"element": "C" 
			},
			{
				"x": -3.1917465707,
				"y": 0.0286231726,
				"z": 0.2173580568,
				"element": "C" 
			},
			{
				"x": -2.2588773637,
				"y": 0.9280217138,
				"z": 0.7341427248,
				"element": "C" 
			},
			{
				"x": -1.2629283774,
				"y": 0.4546635652,
				"z": 1.5876863609,
				"element": "C" 
			},
			{
				"x": -1.189332871,
				"y": -0.8986883141,
				"z": 1.9314655437,
				"element": "C" 
			},
			{
				"x": -2.1238551842,
				"y": -1.7803713187,
				"z": 1.3997164846,
				"element": "C" 
			},
			{
				"x": -0.1318097065,
				"y": 1.6318029735,
				"z": 2.3186040018,
				"element": "S" 
			},
			{
				"x": -0.3125034717,
				"y": 1.6903550552,
				"z": 3.7710817005,
				"element": "O" 
			},
			{
				"x": -0.2045089353,
				"y": 2.861214292,
				"z": 1.5075594076,
				"element": "O" 
			},
			{
				"x": 1.3682408915,
				"y": 0.8645110205,
				"z": 2.0965962759,
				"element": "N" 
			},
			{
				"x": 2.0330031766,
				"y": 1.1047653265,
				"z": 0.8077595766,
				"element": "C" 
			},
			{
				"x": 3.134007286,
				"y": 0.0356353012,
				"z": 0.5808269816,
				"element": "C" 
			},
			{
				"x": 2.5935149348,
				"y": -1.3726649992,
				"z": 0.4703581685,
				"element": "C" 
			},
			{
				"x": 2.5720028015,
				"y": -2.2272380027,
				"z": 1.5801068194,
				"element": "C" 
			},
			{
				"x": 2.0605991712,
				"y": -3.5219132852,
				"z": 1.4752901073,
				"element": "C" 
			},
			{
				"x": 1.560233522,
				"y": -3.9808559871,
				"z": 0.2552410207,
				"element": "C" 
			},
			{
				"x": 1.577832007,
				"y": -3.1384496485,
				"z": -0.8582361836,
				"element": "C" 
			},
			{
				"x": 2.0922417342,
				"y": -1.8460130528,
				"z": -0.7498878726,
				"element": "C" 
			},
			{
				"x": 2.6749910808,
				"y": 2.5038014762,
				"z": 0.8053302109,
				"element": "C" 
			},
			{
				"x": 3.3317328853,
				"y": 2.8702287068,
				"z": 1.7595231314,
				"element": "O" 
			},
			{
				"x": 2.4429705805,
				"y": 3.4524486643,
				"z": -0.3605222866,
				"element": "C" 
			},
			{
				"x": 2.5583539959,
				"y": 2.6469490098,
				"z": -1.9815213373,
				"element": "Cl" 
			},
			{
				"x": -4.9705241121,
				"y": -1.7928150463,
				"z": -0.5205617039,
				"element": "H" 
			},
			{
				"x": -3.6633390058,
				"y": -2.9510189,
				"z": -0.7939826727,
				"element": "H" 
			},
			{
				"x": -4.5423899826,
				"y": -2.9677711049,
				"z": 0.7337731764,
				"element": "H" 
			},
			{
				"x": -3.9702050524,
				"y": 0.3927390945,
				"z": -0.4474914226,
				"element": "H" 
			},
			{
				"x": -2.2938641886,
				"y": 1.9816739678,
				"z": 0.4808660775,
				"element": "H" 
			},
			{
				"x": -0.3997378656,
				"y": -1.2545300369,
				"z": 2.5830970831,
				"element": "H" 
			},
			{
				"x": -2.0630082048,
				"y": -2.8351033826,
				"z": 1.6540195807,
				"element": "H" 
			},
			{
				"x": 1.9604538702,
				"y": 1.1507062343,
				"z": 2.8782720728,
				"element": "H" 
			},
			{
				"x": 1.2869131597,
				"y": 1.0226305864,
				"z": 0.0141389027,
				"element": "H" 
			},
			{
				"x": 3.6734277611,
				"y": 0.3023501613,
				"z": -0.3347160704,
				"element": "H" 
			},
			{
				"x": 3.8511131719,
				"y": 0.1134625191,
				"z": 1.4056572938,
				"element": "H" 
			},
			{
				"x": 2.962522049,
				"y": -1.8764774938,
				"z": 2.5315691229,
				"element": "H" 
			},
			{
				"x": 2.0590204492,
				"y": -4.1731613994,
				"z": 2.3449683933,
				"element": "H" 
			},
			{
				"x": 1.1672326627,
				"y": -4.9900456325,
				"z": 0.1707071751,
				"element": "H" 
			},
			{
				"x": 1.198184489,
				"y": -3.4896090206,
				"z": -1.8136404566,
				"element": "H" 
			},
			{
				"x": 2.110379856,
				"y": -1.1980390309,
				"z": -1.623204219,
				"element": "H" 
			},
			{
				"x": 3.1751427977,
				"y": 4.257818682,
				"z": -0.328281894,
				"element": "H" 
			},
			{
				"x": 1.4288823054,
				"y": 3.8500727866,
				"z": -0.2701637588,
				"element": "H" 
			}
		],
		 "valence_orbital": [ 
			{
				"type": "occ",
				"energy": -0.26924,
				"method": "rhf"
			},
			{
				"type": "occ",
				"energy": -0.26582,
				"method": "rhf"
			},
			{
				"type": "occ",
				"energy": -0.25924,
				"method": "rhf"
			},
			{
				"type": "occ",
				"energy": -0.25469,
				"method": "rhf"
			},
			{
				"type": "occ",
				"energy": -0.24847,
				"method": "rhf"
			},
			{
				"type": "unocc",
				"energy": -0.05156,
				"method": "rhf"
			},
			{
				"type": "unocc",
				"energy": -0.03741,
				"method": "rhf"
			},
			{
				"type": "unocc",
				"energy": -0.01983,
				"method": "rhf"
			},
			{
				"type": "unocc",
				"energy": -0.00929,
				"method": "rhf"
			},
			{
				"type": "unocc",
				"energy": -0.00755,
				"method": "rhf"
			}
		],
		"cosmo_sigma_profile": { 
			"-0.025": 0.0,
			"-0.024": 0.0,
			"-0.023": 0.0,
			"-0.022": 0.0,
			"-0.021": 0.0,
			"-0.02": 0.0,
			"-0.019": 0.0,
			"-0.018": 0.0,
			"-0.017": 0.0,
			"-0.016": 0.0,
			"-0.015": 0.0,
			"-0.014": 0.0,
			"-0.013": 0.34501081151,
			"-0.012": 0.344470014025,
			"-0.011": 0.530008780873,
			"-0.01": 0.972557974653,
			"-0.009": 2.01815231157,
			"-0.008": 3.91007747652,
			"-0.007": 6.55382242223,
			"-0.006": 17.6771777751,
			"-0.005": 33.4728063315,
			"-0.004": 36.9981761198,
			"-0.003": 33.5259403937,
			"-0.002": 28.7649763614,
			"-0.001": 28.5988984531,
			"0.0": 25.3843379148,
			"0.001": 26.7399012103,
			"0.002": 25.1721109643,
			"0.003": 30.6663986968,
			"0.004": 22.9102397348,
			"0.005": 16.9462604387,
			"0.006": 9.13072354601,
			"0.007": 4.14624626957,
			"0.008": 5.14622487413,
			"0.009": 5.4002016772,
			"0.01": 9.38324529249,
			"0.011": 9.1022748186,
			"0.012": 1.19867186238,
			"0.013": 0.0,
			"0.014": 0.0,
			"0.015": 0.0,
			"0.016": 0.0,
			"0.017": 0.0,
			"0.018": 0.0,
			"0.019": 0.0,
			"0.02": 0.0,
			"0.021": 0.0,
			"0.022": 0.0,
			"0.023": 0.0,
			"0.024": 0.0,
			"0.025": 0.0
		}
	}
}
