{
	 "smiles": "OC(=O)C1=NN(C=C1O)C1=CC=C(Cl)C=C1", 
	 "Tm": 522.15, 
	 "num_atms": 23, 
	 "gaussian": { 
		 "optdone": 1, 
		 "sigma_profile": "yes", 
		 "theory": "DFT", 
		 "functional": "B3LYP", 
		 "basiset": "6-31G**", 
		 "properties": { 
			 "R2extent": 6300.1242, 
			 "electric_dipole_moment_norm": 3.55096290181, 
			 "electric_quadrupole_moment_norm": 20.7220678662, 
			 "total_energy": -1180.64009549, 
			 "HOMO_LUMO_gap": 0.1669, 
			 "cosmo_polarized_energy": -13.35, 
			 "cosmo_cavitation_energy": 30.35, 
			 "cosmo_dispersion_energy": -22.8, 
			 "cosmo_repulsion_energy": 1.75, 
			 "cosmo_total_nonelectrostatic_energy": 9.31, 
			 "SMD_solvation_energy": 6.16 
		},
		"coords": [
			{
				"x": -1.0351246647,
				"y": -1.7661149205,
				"z": -4.725197956,
				"element": "O" 
			},
			{
				"x": -0.0777501337,
				"y": -2.3550224004,
				"z": -3.9896067665,
				"element": "C" 
			},
			{
				"x": 0.44349105,
				"y": -3.4065906801,
				"z": -4.3315452495,
				"element": "O" 
			},
			{
				"x": 0.3189449096,
				"y": -1.6822167377,
				"z": -2.7525543777,
				"element": "C" 
			},
			{
				"x": -0.2067433343,
				"y": -0.526386004,
				"z": -2.3283138338,
				"element": "N" 
			},
			{
				"x": 0.4190942125,
				"y": -0.2696588141,
				"z": -1.1702060184,
				"element": "N" 
			},
			{
				"x": 1.3433609494,
				"y": -1.2405349669,
				"z": -0.8393801951,
				"element": "C" 
			},
			{
				"x": 1.2981978189,
				"y": -2.1767957889,
				"z": -1.8543049762,
				"element": "C" 
			},
			{
				"x": 2.0158482558,
				"y": -3.3030522054,
				"z": -1.9876867421,
				"element": "O" 
			},
			{
				"x": 0.1051012071,
				"y": 0.9021578005,
				"z": -0.4320894312,
				"element": "C" 
			},
			{
				"x": -0.4389975489,
				"y": 2.0083746453,
				"z": -1.0932556419,
				"element": "C" 
			},
			{
				"x": -0.7473994535,
				"y": 3.1612124201,
				"z": -0.3776756574,
				"element": "C" 
			},
			{
				"x": -0.5005974306,
				"y": 3.2075894614,
				"z": 0.9954066065,
				"element": "C" 
			},
			{
				"x": -0.8795683653,
				"y": 4.6644837531,
				"z": 1.8950918892,
				"element": "Cl" 
			},
			{
				"x": 0.0404872801,
				"y": 2.1086679131,
				"z": 1.661204294,
				"element": "C" 
			},
			{
				"x": 0.3368014184,
				"y": 0.9500018236,
				"z": 0.9461648065,
				"element": "C" 
			},
			{
				"x": -1.3133881694,
				"y": -0.9531153441,
				"z": -4.2690277406,
				"element": "H" 
			},
			{
				"x": 1.9663683665,
				"y": -1.1734717091,
				"z": 0.0364897114,
				"element": "H" 
			},
			{
				"x": 1.7199315333,
				"y": -3.7071504979,
				"z": -2.8299517883,
				"element": "H" 
			},
			{
				"x": -0.6139509536,
				"y": 1.9561370517,
				"z": -2.1606520937,
				"element": "H" 
			},
			{
				"x": -1.1676605917,
				"y": 4.0230236257,
				"z": -0.8836000146,
				"element": "H" 
			},
			{
				"x": 0.2159640718,
				"y": 2.1514523234,
				"z": 2.7300539363,
				"element": "H" 
			},
			{
				"x": 0.7241895722,
				"y": 0.0841092511,
				"z": 1.471137239,
				"element": "H" 
			}
		],
		 "valence_orbital": [ 
			{
				"type": "occ",
				"energy": -0.29787,
				"method": "rhf"
			},
			{
				"type": "occ",
				"energy": -0.29139,
				"method": "rhf"
			},
			{
				"type": "occ",
				"energy": -0.28605,
				"method": "rhf"
			},
			{
				"type": "occ",
				"energy": -0.2598,
				"method": "rhf"
			},
			{
				"type": "occ",
				"energy": -0.23269,
				"method": "rhf"
			},
			{
				"type": "unocc",
				"energy": -0.06579,
				"method": "rhf"
			},
			{
				"type": "unocc",
				"energy": -0.03628,
				"method": "rhf"
			},
			{
				"type": "unocc",
				"energy": -0.01836,
				"method": "rhf"
			},
			{
				"type": "unocc",
				"energy": 0.01553,
				"method": "rhf"
			},
			{
				"type": "unocc",
				"energy": 0.02422,
				"method": "rhf"
			}
		],
		"cosmo_sigma_profile": { 
			"-0.025": 0.0,
			"-0.024": 0.0,
			"-0.023": 0.0,
			"-0.022": 0.0,
			"-0.021": 0.0,
			"-0.02": 0.0,
			"-0.019": 0.0,
			"-0.018": 0.0,
			"-0.017": 0.0813181854465,
			"-0.016": 0.659717996955,
			"-0.015": 0.535235561893,
			"-0.014": 0.518769168138,
			"-0.013": 0.710936672209,
			"-0.012": 0.624465836907,
			"-0.011": 1.72081499155,
			"-0.01": 3.75956332265,
			"-0.009": 3.8119338722,
			"-0.008": 7.38404500873,
			"-0.007": 10.7930924079,
			"-0.006": 9.70405266491,
			"-0.005": 9.22685805513,
			"-0.004": 11.1738427361,
			"-0.003": 13.4681774604,
			"-0.002": 13.4190830508,
			"-0.001": 17.8532263675,
			"0.0": 21.12253941,
			"0.001": 24.1960803401,
			"0.002": 26.9239334587,
			"0.003": 16.1424973826,
			"0.004": 13.8243136646,
			"0.005": 7.66831699891,
			"0.006": 4.59109332343,
			"0.007": 4.80473959521,
			"0.008": 4.4511340916,
			"0.009": 5.96233518567,
			"0.01": 6.05956509064,
			"0.011": 3.28940257205,
			"0.012": 2.19644096362,
			"0.013": 0.455482301497,
			"0.014": 0.0,
			"0.015": 0.0,
			"0.016": 0.0,
			"0.017": 0.0,
			"0.018": 0.0,
			"0.019": 0.0,
			"0.02": 0.0,
			"0.021": 0.0,
			"0.022": 0.0,
			"0.023": 0.0,
			"0.024": 0.0,
			"0.025": 0.0
		}
	}
}
