{
	 "smiles": "NC1=CC=CC(=C1)C1=CSC=C1", 
	 "Tm": 362.15, 
	 "num_atms": 21, 
	 "gaussian": { 
		 "optdone": 1, 
		 "sigma_profile": "yes", 
		 "theory": "DFT", 
		 "functional": "B3LYP", 
		 "basiset": "6-31G**", 
		 "properties": { 
			 "R2extent": 3379.9234, 
			 "electric_dipole_moment_norm": 2.08854322914, 
			 "electric_quadrupole_moment_norm": 10.9212119959, 
			 "total_energy": -839.420126598, 
			 "HOMO_LUMO_gap": 0.17833, 
			 "cosmo_polarized_energy": -9.89, 
			 "cosmo_cavitation_energy": 26.45, 
			 "cosmo_dispersion_energy": -20.2, 
			 "cosmo_repulsion_energy": 1.55, 
			 "cosmo_total_nonelectrostatic_energy": 7.79, 
			 "SMD_solvation_energy": 4.43 
		},
		"coords": [
			{
				"x": -0.1920045483,
				"y": -3.9087856877,
				"z": -1.6114750335,
				"element": "N" 
			},
			{
				"x": -0.2550743232,
				"y": -3.3081756851,
				"z": -0.3511253009,
				"element": "C" 
			},
			{
				"x": -0.5753906068,
				"y": -4.0655401856,
				"z": 0.7883205662,
				"element": "C" 
			},
			{
				"x": -0.5830654437,
				"y": -3.4632723671,
				"z": 2.0441057741,
				"element": "C" 
			},
			{
				"x": -0.2755526829,
				"y": -2.1125196243,
				"z": 2.1958987055,
				"element": "C" 
			},
			{
				"x": 0.0423242364,
				"y": -1.337459786,
				"z": 1.067630595,
				"element": "C" 
			},
			{
				"x": 0.0491028023,
				"y": -1.9470003651,
				"z": -0.1945740917,
				"element": "C" 
			},
			{
				"x": 0.3596586513,
				"y": 0.1012150531,
				"z": 1.1988524956,
				"element": "C" 
			},
			{
				"x": -0.1928804818,
				"y": 0.9367624805,
				"z": 2.1419931096,
				"element": "C" 
			},
			{
				"x": 0.3952226909,
				"y": 2.5598328566,
				"z": 2.0121692383,
				"element": "S" 
			},
			{
				"x": 1.4087959282,
				"y": 2.1306032248,
				"z": 0.6710272259,
				"element": "C" 
			},
			{
				"x": 1.2846871124,
				"y": 0.8091856224,
				"z": 0.3538620108,
				"element": "C" 
			},
			{
				"x": -0.3113120404,
				"y": -3.2774583452,
				"z": -2.3919052117,
				"element": "H" 
			},
			{
				"x": -0.7554750014,
				"y": -4.7414987347,
				"z": -1.715687629,
				"element": "H" 
			},
			{
				"x": -0.8089030216,
				"y": -5.1222352208,
				"z": 0.684284435,
				"element": "H" 
			},
			{
				"x": -0.8248074692,
				"y": -4.0612423756,
				"z": 2.9186321363,
				"element": "H" 
			},
			{
				"x": -0.2527956627,
				"y": -1.6641348222,
				"z": 3.1836853877,
				"element": "H" 
			},
			{
				"x": 0.2727235156,
				"y": -1.3519148827,
				"z": -1.0763930406,
				"element": "H" 
			},
			{
				"x": -0.9413008529,
				"y": 0.692983828,
				"z": 2.882653944,
				"element": "H" 
			},
			{
				"x": 2.0455836692,
				"y": 2.8735672295,
				"z": 0.211457674,
				"element": "H" 
			},
			{
				"x": 1.8543635286,
				"y": 0.3326877872,
				"z": -0.4356129903,
				"element": "H" 
			}
		],
		 "valence_orbital": [ 
			{
				"type": "occ",
				"energy": -0.30769,
				"method": "rhf"
			},
			{
				"type": "occ",
				"energy": -0.26527,
				"method": "rhf"
			},
			{
				"type": "occ",
				"energy": -0.2387,
				"method": "rhf"
			},
			{
				"type": "occ",
				"energy": -0.21816,
				"method": "rhf"
			},
			{
				"type": "occ",
				"energy": -0.19881,
				"method": "rhf"
			},
			{
				"type": "unocc",
				"energy": -0.02048,
				"method": "rhf"
			},
			{
				"type": "unocc",
				"energy": 0.00617,
				"method": "rhf"
			},
			{
				"type": "unocc",
				"energy": 0.02006,
				"method": "rhf"
			},
			{
				"type": "unocc",
				"energy": 0.03683,
				"method": "rhf"
			},
			{
				"type": "unocc",
				"energy": 0.07934,
				"method": "rhf"
			}
		],
		"cosmo_sigma_profile": { 
			"-0.025": 0.0,
			"-0.024": 0.0,
			"-0.023": 0.0,
			"-0.022": 0.0,
			"-0.021": 0.0,
			"-0.02": 0.0,
			"-0.019": 0.0,
			"-0.018": 0.0,
			"-0.017": 0.0,
			"-0.016": 0.0,
			"-0.015": 0.0,
			"-0.014": 0.0,
			"-0.013": 0.223772418803,
			"-0.012": 2.19732589747,
			"-0.011": 2.63158812006,
			"-0.01": 2.58029536849,
			"-0.009": 3.20843747186,
			"-0.008": 6.47240758799,
			"-0.007": 6.83564316749,
			"-0.006": 9.86858819119,
			"-0.005": 13.2524898109,
			"-0.004": 12.9489003179,
			"-0.003": 13.4835813641,
			"-0.002": 11.5155901011,
			"-0.001": 10.9937205992,
			"0.0": 10.4549013194,
			"0.001": 11.5167066089,
			"0.002": 12.4923393727,
			"0.003": 15.4575136554,
			"0.004": 21.6793262366,
			"0.005": 20.0520664736,
			"0.006": 12.909273472,
			"0.007": 7.61496222418,
			"0.008": 0.656826439711,
			"0.009": 0.715356961269,
			"0.01": 0.785116411384,
			"0.011": 0.492273197265,
			"0.012": 1.07330580926,
			"0.013": 0.577752900116,
			"0.014": 0.696894891922,
			"0.015": 0.277483608648,
			"0.016": 0.0,
			"0.017": 0.0,
			"0.018": 0.0,
			"0.019": 0.0,
			"0.02": 0.0,
			"0.021": 0.0,
			"0.022": 0.0,
			"0.023": 0.0,
			"0.024": 0.0,
			"0.025": 0.0
		}
	}
}
