{
	 "smiles": "ClCCOP(=O)(OCCCl)OCCCl", 
	 "Tm": 238.15, 
	 "num_atms": 26, 
	 "gaussian": { 
		 "optdone": 1, 
		 "sigma_profile": "yes", 
		 "theory": "DFT", 
		 "functional": "B3LYP", 
		 "basiset": "6-31G**", 
		 "properties": { 
			 "R2extent": 7084.343, 
			 "electric_dipole_moment_norm": 2.19792274887, 
			 "electric_quadrupole_moment_norm": 14.6269660067, 
			 "total_energy": -2258.77671973, 
			 "HOMO_LUMO_gap": 0.29237, 
			 "cosmo_polarized_energy": -15.78, 
			 "cosmo_cavitation_energy": 37.24, 
			 "cosmo_dispersion_energy": -26.05, 
			 "cosmo_repulsion_energy": 2.16, 
			 "cosmo_total_nonelectrostatic_energy": 13.34, 
			 "SMD_solvation_energy": 6.91 
		},
		"coords": [
			{
				"x": 2.5082290946,
				"y": -3.4369289341,
				"z": 0.9843841533,
				"element": "Cl" 
			},
			{
				"x": 1.1042673666,
				"y": -2.8362435418,
				"z": 0.0138083275,
				"element": "C" 
			},
			{
				"x": 0.0283432779,
				"y": -2.3083491588,
				"z": 0.9520912109,
				"element": "C" 
			},
			{
				"x": -1.1108045843,
				"y": -1.9025074487,
				"z": 0.1597676792,
				"element": "O" 
			},
			{
				"x": -1.4352906102,
				"y": -0.365566692,
				"z": -0.1594936385,
				"element": "P" 
			},
			{
				"x": -2.643955465,
				"y": -0.1834829849,
				"z": -0.9852733133,
				"element": "O" 
			},
			{
				"x": -1.4474318125,
				"y": 0.3994741023,
				"z": 1.2695148776,
				"element": "O" 
			},
			{
				"x": -2.6693316865,
				"y": 0.4234626912,
				"z": 2.0477949453,
				"element": "C" 
			},
			{
				"x": -3.5485837285,
				"y": 1.5811570004,
				"z": 1.5938026383,
				"element": "C" 
			},
			{
				"x": -4.9930706601,
				"y": 1.6923928694,
				"z": 2.6781421567,
				"element": "Cl" 
			},
			{
				"x": -0.0267594627,
				"y": 0.1546103687,
				"z": -0.7464576548,
				"element": "O" 
			},
			{
				"x": 0.0916199053,
				"y": 1.5329353949,
				"z": -1.1718754892,
				"element": "C" 
			},
			{
				"x": 1.3518415995,
				"y": 1.6105093693,
				"z": -2.0180569137,
				"element": "C" 
			},
			{
				"x": 1.6121081022,
				"y": 3.3148676365,
				"z": -2.5557320025,
				"element": "Cl" 
			},
			{
				"x": 1.4695668637,
				"y": -2.0493850592,
				"z": -0.6451082203,
				"element": "H" 
			},
			{
				"x": 0.7314555643,
				"y": -3.6718829234,
				"z": -0.5789562045,
				"element": "H" 
			},
			{
				"x": -0.3239665347,
				"y": -3.0973200197,
				"z": 1.620103053,
				"element": "H" 
			},
			{
				"x": 0.4032373892,
				"y": -1.4766886024,
				"z": 1.5539460896,
				"element": "H" 
			},
			{
				"x": -3.2053103306,
				"y": -0.5262075495,
				"z": 1.9596582776,
				"element": "H" 
			},
			{
				"x": -2.3567869167,
				"y": 0.5558306283,
				"z": 3.0852983965,
				"element": "H" 
			},
			{
				"x": -3.0129272928,
				"y": 2.5287126159,
				"z": 1.6645968656,
				"element": "H" 
			},
			{
				"x": -3.904934445,
				"y": 1.4243826597,
				"z": 0.5763648816,
				"element": "H" 
			},
			{
				"x": 0.1698285109,
				"y": 2.1773486051,
				"z": -0.291558729,
				"element": "H" 
			},
			{
				"x": -0.7875373163,
				"y": 1.8179321538,
				"z": -1.7565115315,
				"element": "H" 
			},
			{
				"x": 1.264305041,
				"y": 0.9911149654,
				"z": -2.9111194642,
				"element": "H" 
			},
			{
				"x": 2.2299881307,
				"y": 1.3081318535,
				"z": -1.4462303913,
				"element": "H" 
			}
		],
		 "valence_orbital": [ 
			{
				"type": "occ",
				"energy": -0.31364,
				"method": "rhf"
			},
			{
				"type": "occ",
				"energy": -0.31207,
				"method": "rhf"
			},
			{
				"type": "occ",
				"energy": -0.30964,
				"method": "rhf"
			},
			{
				"type": "occ",
				"energy": -0.30684,
				"method": "rhf"
			},
			{
				"type": "occ",
				"energy": -0.29891,
				"method": "rhf"
			},
			{
				"type": "unocc",
				"energy": -0.00654,
				"method": "rhf"
			},
			{
				"type": "unocc",
				"energy": 0.00672,
				"method": "rhf"
			},
			{
				"type": "unocc",
				"energy": 0.0125,
				"method": "rhf"
			},
			{
				"type": "unocc",
				"energy": 0.05768,
				"method": "rhf"
			},
			{
				"type": "unocc",
				"energy": 0.0725,
				"method": "rhf"
			}
		],
		"cosmo_sigma_profile": { 
			"-0.025": 0.0,
			"-0.024": 0.0,
			"-0.023": 0.0,
			"-0.022": 0.0,
			"-0.021": 0.0,
			"-0.02": 0.0,
			"-0.019": 0.0,
			"-0.018": 0.0,
			"-0.017": 0.0,
			"-0.016": 0.0,
			"-0.015": 0.0,
			"-0.014": 0.0,
			"-0.013": 0.0,
			"-0.012": 0.0,
			"-0.011": 0.0,
			"-0.01": 0.0,
			"-0.009": 0.0,
			"-0.008": 5.93575112147,
			"-0.007": 20.3716754413,
			"-0.006": 23.6258024444,
			"-0.005": 23.5330317384,
			"-0.004": 25.5115861597,
			"-0.003": 17.308072971,
			"-0.002": 13.2811774512,
			"-0.001": 17.9579132538,
			"0.0": 16.1367642331,
			"0.001": 16.1821436748,
			"0.002": 15.8796613202,
			"0.003": 15.1081571076,
			"0.004": 16.8692944217,
			"0.005": 24.7437145024,
			"0.006": 25.5767467308,
			"0.007": 3.58993340053,
			"0.008": 2.64890328202,
			"0.009": 2.51819889411,
			"0.01": 1.31921190688,
			"0.011": 0.798725745071,
			"0.012": 2.37133956485,
			"0.013": 3.88348410342,
			"0.014": 2.94178227425,
			"0.015": 0.00582420108979,
			"0.016": 0.0,
			"0.017": 0.0,
			"0.018": 0.0,
			"0.019": 0.0,
			"0.02": 0.0,
			"0.021": 0.0,
			"0.022": 0.0,
			"0.023": 0.0,
			"0.024": 0.0,
			"0.025": 0.0
		}
	}
}
