{
	 "smiles": "C(CCCP(C1=CC=CC=C1)C1=CC=CC=C1)CCP(C1=CC=CC=C1)C1=CC=CC=C1", 
	 "Tm": 400.15, 
	 "num_atms": 64, 
	 "gaussian": { 
		 "optdone": 1, 
		 "sigma_profile": "yes", 
		 "theory": "DFT", 
		 "functional": "B3LYP", 
		 "basiset": "6-31G**", 
		 "properties": { 
			 "R2extent": 16033.687, 
			 "electric_dipole_moment_norm": 0.840971693935, 
			 "electric_quadrupole_moment_norm": 26.4339144199, 
			 "total_energy": -1845.1922163, 
			 "HOMO_LUMO_gap": 0.19104, 
			 "cosmo_polarized_energy": -12.07, 
			 "cosmo_cavitation_energy": 67.32, 
			 "cosmo_dispersion_energy": -40.97, 
			 "cosmo_repulsion_energy": 3.32, 
			 "cosmo_total_nonelectrostatic_energy": 29.67, 
			 "SMD_solvation_energy": 9.8 
		},
		"coords": [
			{
				"x": 0.9955857461,
				"y": 4.1188667445,
				"z": -2.1450516284,
				"element": "C" 
			},
			{
				"x": 1.7770741673,
				"y": 4.1068915762,
				"z": -0.8172767125,
				"element": "C" 
			},
			{
				"x": 0.9572869,
				"y": 3.8160069514,
				"z": 0.4604210376,
				"element": "C" 
			},
			{
				"x": 0.8592375601,
				"y": 2.3320307234,
				"z": 0.851793176,
				"element": "C" 
			},
			{
				"x": -0.0220102742,
				"y": 2.109372636,
				"z": 2.4999592932,
				"element": "P" 
			},
			{
				"x": -0.0605383592,
				"y": 0.2611016771,
				"z": 2.6469549748,
				"element": "C" 
			},
			{
				"x": -1.1996861672,
				"y": -0.4109875166,
				"z": 3.1216981353,
				"element": "C" 
			},
			{
				"x": -1.182067176,
				"y": -1.7894050618,
				"z": 3.3407897955,
				"element": "C" 
			},
			{
				"x": -0.0238636045,
				"y": -2.5290670806,
				"z": 3.0934916497,
				"element": "C" 
			},
			{
				"x": 1.1205112227,
				"y": -1.8736147837,
				"z": 2.6339243448,
				"element": "C" 
			},
			{
				"x": 1.1034996384,
				"y": -0.4944569378,
				"z": 2.4203802176,
				"element": "C" 
			},
			{
				"x": -1.7661783597,
				"y": 2.5076971029,
				"z": 2.0126363542,
				"element": "C" 
			},
			{
				"x": -2.4433615358,
				"y": 1.8740832979,
				"z": 0.9556114854,
				"element": "C" 
			},
			{
				"x": -3.7408622994,
				"y": 2.253529531,
				"z": 0.6136933512,
				"element": "C" 
			},
			{
				"x": -4.3854641215,
				"y": 3.2716106609,
				"z": 1.3226836922,
				"element": "C" 
			},
			{
				"x": -3.727606061,
				"y": 3.9059676879,
				"z": 2.3762378512,
				"element": "C" 
			},
			{
				"x": -2.4268610165,
				"y": 3.5249070079,
				"z": 2.7175982392,
				"element": "C" 
			},
			{
				"x": 0.4157890901,
				"y": 2.7870913549,
				"z": -2.6565567372,
				"element": "C" 
			},
			{
				"x": 1.4772568219,
				"y": 1.7094907725,
				"z": -2.9313044233,
				"element": "C" 
			},
			{
				"x": 0.8095458968,
				"y": 0.2912079457,
				"z": -3.9647123848,
				"element": "P" 
			},
			{
				"x": 2.1811805871,
				"y": -0.9486071148,
				"z": -3.8493482242,
				"element": "C" 
			},
			{
				"x": 3.5084325402,
				"y": -0.6065287466,
				"z": -3.5464376795,
				"element": "C" 
			},
			{
				"x": 4.5216618077,
				"y": -1.5690076297,
				"z": -3.5740135061,
				"element": "C" 
			},
			{
				"x": 4.2282909797,
				"y": -2.8914934601,
				"z": -3.9032598389,
				"element": "C" 
			},
			{
				"x": 2.9121439573,
				"y": -3.2462826333,
				"z": -4.2115606079,
				"element": "C" 
			},
			{
				"x": 1.9037928954,
				"y": -2.2851772958,
				"z": -4.1912360888,
				"element": "C" 
			},
			{
				"x": -0.4455744264,
				"y": -0.4474239,
				"z": -2.8135454719,
				"element": "C" 
			},
			{
				"x": -1.7939625609,
				"y": -0.3952766088,
				"z": -3.1977970175,
				"element": "C" 
			},
			{
				"x": -2.7948654969,
				"y": -0.9165984986,
				"z": -2.3731139044,
				"element": "C" 
			},
			{
				"x": -2.4572705902,
				"y": -1.501775694,
				"z": -1.1522277919,
				"element": "C" 
			},
			{
				"x": -1.1170670206,
				"y": -1.5637755569,
				"z": -0.7558589691,
				"element": "C" 
			},
			{
				"x": -0.1211838062,
				"y": -1.041453033,
				"z": -1.5817186179,
				"element": "C" 
			},
			{
				"x": 1.658474034,
				"y": 4.5212709998,
				"z": -2.9238278719,
				"element": "H" 
			},
			{
				"x": 0.1713122048,
				"y": 4.8391544159,
				"z": -2.0520870312,
				"element": "H" 
			},
			{
				"x": 2.2278960773,
				"y": 5.101533267,
				"z": -0.7091564297,
				"element": "H" 
			},
			{
				"x": 2.6226180021,
				"y": 3.4085769581,
				"z": -0.8797374816,
				"element": "H" 
			},
			{
				"x": 1.4153647683,
				"y": 4.3545152195,
				"z": 1.2996425855,
				"element": "H" 
			},
			{
				"x": -0.0500581011,
				"y": 4.2374585373,
				"z": 0.3489367783,
				"element": "H" 
			},
			{
				"x": 0.3712592813,
				"y": 1.7330316098,
				"z": 0.0767367673,
				"element": "H" 
			},
			{
				"x": 1.8716752879,
				"y": 1.9303036865,
				"z": 0.979124422,
				"element": "H" 
			},
			{
				"x": -2.1119803065,
				"y": 0.1450907674,
				"z": 3.3138597978,
				"element": "H" 
			},
			{
				"x": -2.0775341744,
				"y": -2.2856548691,
				"z": 3.7054236177,
				"element": "H" 
			},
			{
				"x": -0.0102249694,
				"y": -3.6017402265,
				"z": 3.2639013191,
				"element": "H" 
			},
			{
				"x": 2.0311825634,
				"y": -2.4352161986,
				"z": 2.4438390269,
				"element": "H" 
			},
			{
				"x": 2.012169375,
				"y": -0.0086074032,
				"z": 2.0765424281,
				"element": "H" 
			},
			{
				"x": -1.9631653839,
				"y": 1.0712077577,
				"z": 0.4039438243,
				"element": "H" 
			},
			{
				"x": -4.2474847678,
				"y": 1.7528515382,
				"z": -0.2068222671,
				"element": "H" 
			},
			{
				"x": -5.3963501286,
				"y": 3.5662586014,
				"z": 1.0546579388,
				"element": "H" 
			},
			{
				"x": -4.2236952355,
				"y": 4.6959792919,
				"z": 2.933190447,
				"element": "H" 
			},
			{
				"x": -1.9162507064,
				"y": 4.0211723367,
				"z": 3.5386974147,
				"element": "H" 
			},
			{
				"x": -0.1301186694,
				"y": 2.9975867011,
				"z": -3.5857429078,
				"element": "H" 
			},
			{
				"x": -0.3311155016,
				"y": 2.3996445018,
				"z": -1.9545955114,
				"element": "H" 
			},
			{
				"x": 1.9113728224,
				"y": 1.3361281941,
				"z": -1.9968468433,
				"element": "H" 
			},
			{
				"x": 2.2951855418,
				"y": 2.151132722,
				"z": -3.5154242447,
				"element": "H" 
			},
			{
				"x": 3.7658321452,
				"y": 0.4144579246,
				"z": -3.2838892285,
				"element": "H" 
			},
			{
				"x": 5.5414018373,
				"y": -1.2806739755,
				"z": -3.3331946521,
				"element": "H" 
			},
			{
				"x": 5.0160042356,
				"y": -3.6391690444,
				"z": -3.9226720125,
				"element": "H" 
			},
			{
				"x": 2.6712151033,
				"y": -4.2735871936,
				"z": -4.4710272362,
				"element": "H" 
			},
			{
				"x": 0.8855700319,
				"y": -2.5766779846,
				"z": -4.4357525016,
				"element": "H" 
			},
			{
				"x": -2.0586060014,
				"y": 0.0517088512,
				"z": -4.1525124609,
				"element": "H" 
			},
			{
				"x": -3.8335778571,
				"y": -0.8728539149,
				"z": -2.6893992097,
				"element": "H" 
			},
			{
				"x": -3.2319973912,
				"y": -1.9125392021,
				"z": -0.5108134757,
				"element": "H" 
			},
			{
				"x": -0.8493839434,
				"y": -2.0152226958,
				"z": 0.1948282815,
				"element": "H" 
			},
			{
				"x": 0.9175428915,
				"y": -1.1074452919,
				"z": -1.2706772766,
				"element": "H" 
			}
		],
		 "valence_orbital": [ 
			{
				"type": "occ",
				"energy": -0.25095,
				"method": "rhf"
			},
			{
				"type": "occ",
				"energy": -0.24731,
				"method": "rhf"
			},
			{
				"type": "occ",
				"energy": -0.24704,
				"method": "rhf"
			},
			{
				"type": "occ",
				"energy": -0.21289,
				"method": "rhf"
			},
			{
				"type": "occ",
				"energy": -0.21106,
				"method": "rhf"
			},
			{
				"type": "unocc",
				"energy": -0.02002,
				"method": "rhf"
			},
			{
				"type": "unocc",
				"energy": -0.01684,
				"method": "rhf"
			},
			{
				"type": "unocc",
				"energy": -0.00939,
				"method": "rhf"
			},
			{
				"type": "unocc",
				"energy": -0.00908,
				"method": "rhf"
			},
			{
				"type": "unocc",
				"energy": -0.00624,
				"method": "rhf"
			}
		],
		"cosmo_sigma_profile": { 
			"-0.025": 0.0,
			"-0.024": 0.0,
			"-0.023": 0.0,
			"-0.022": 0.0,
			"-0.021": 0.0,
			"-0.02": 0.0,
			"-0.019": 0.0,
			"-0.018": 0.0,
			"-0.017": 0.0,
			"-0.016": 0.0,
			"-0.015": 0.0,
			"-0.014": 0.0,
			"-0.013": 0.0,
			"-0.012": 0.0,
			"-0.011": 0.0,
			"-0.01": 0.0,
			"-0.009": 0.0,
			"-0.008": 0.0,
			"-0.007": 0.757059557591,
			"-0.006": 13.9630553342,
			"-0.005": 34.7266248806,
			"-0.004": 40.5314694484,
			"-0.003": 48.3859409738,
			"-0.002": 54.6170311786,
			"-0.001": 60.2430578208,
			"0.0": 60.6914566084,
			"0.001": 56.7173425663,
			"0.002": 44.2695552176,
			"0.003": 33.6152333368,
			"0.004": 28.4340153391,
			"0.005": 29.4939077775,
			"0.006": 16.3272220537,
			"0.007": 2.12363209284,
			"0.008": 1.67798879339,
			"0.009": 2.04475022943,
			"0.01": 1.03095699955,
			"0.011": 1.72383675866,
			"0.012": 1.34631340758,
			"0.013": 1.17588063739,
			"0.014": 1.34478322595,
			"0.015": 0.269724051827,
			"0.016": 0.0,
			"0.017": 0.0,
			"0.018": 0.0,
			"0.019": 0.0,
			"0.02": 0.0,
			"0.021": 0.0,
			"0.022": 0.0,
			"0.023": 0.0,
			"0.024": 0.0,
			"0.025": 0.0
		}
	}
}
