{
	 "smiles": "[O-][N+](=O)C(=CC1=C(C=CC=C1)[N+]([O-])=O)C1=CC=CC=C1", 
	 "Tm": 380.15, 
	 "num_atms": 30, 
	 "gaussian": { 
		 "optdone": 1, 
		 "sigma_profile": "yes", 
		 "theory": "DFT", 
		 "functional": "B3LYP", 
		 "basiset": "6-31G**", 
		 "properties": { 
			 "R2extent": 5705.3403, 
			 "electric_dipole_moment_norm": 7.50285234694, 
			 "electric_quadrupole_moment_norm": 11.7927443146, 
			 "total_energy": -949.69137465, 
			 "HOMO_LUMO_gap": 0.14309, 
			 "cosmo_polarized_energy": -15.2, 
			 "cosmo_cavitation_energy": 36.19, 
			 "cosmo_dispersion_energy": -24.58, 
			 "cosmo_repulsion_energy": 1.9, 
			 "cosmo_total_nonelectrostatic_energy": 13.51, 
			 "SMD_solvation_energy": 10.32 
		},
		"coords": [
			{
				"x": -3.0348400761,
				"y": -2.8555282763,
				"z": -1.1359417534,
				"element": "O" 
			},
			{
				"x": -2.6816734924,
				"y": -2.353888914,
				"z": -0.0699493215,
				"element": "N" 
			},
			{
				"x": -3.060940702,
				"y": -2.7310338833,
				"z": 1.0368372196,
				"element": "O" 
			},
			{
				"x": -1.7342349487,
				"y": -1.1999670874,
				"z": -0.1059250948,
				"element": "C" 
			},
			{
				"x": -1.2516254801,
				"y": -0.8867542789,
				"z": -1.3209846424,
				"element": "C" 
			},
			{
				"x": -0.4344388201,
				"y": 0.2976894059,
				"z": -1.6427416731,
				"element": "C" 
			},
			{
				"x": 0.6854335322,
				"y": 0.2642502101,
				"z": -2.4981880064,
				"element": "C" 
			},
			{
				"x": 1.368075133,
				"y": 1.4181388696,
				"z": -2.8826588868,
				"element": "C" 
			},
			{
				"x": 0.9460757305,
				"y": 2.6545656823,
				"z": -2.4063363569,
				"element": "C" 
			},
			{
				"x": -0.1576535325,
				"y": 2.7234110102,
				"z": -1.5526719013,
				"element": "C" 
			},
			{
				"x": -0.8354484816,
				"y": 1.5647714785,
				"z": -1.1832800815,
				"element": "C" 
			},
			{
				"x": 1.2179351165,
				"y": -1.0170227483,
				"z": -2.9905771458,
				"element": "N" 
			},
			{
				"x": 2.0415105714,
				"y": -0.9822776494,
				"z": -3.9026048013,
				"element": "O" 
			},
			{
				"x": 0.8192078795,
				"y": -2.0511515339,
				"z": -2.4506976198,
				"element": "O" 
			},
			{
				"x": -1.3757216657,
				"y": -0.5976976523,
				"z": 1.1967560033,
				"element": "C" 
			},
			{
				"x": -0.0210258243,
				"y": -0.4893535096,
				"z": 1.5477421245,
				"element": "C" 
			},
			{
				"x": 0.3526403752,
				"y": 0.1090489096,
				"z": 2.7505493391,
				"element": "C" 
			},
			{
				"x": -0.6223968972,
				"y": 0.6052890226,
				"z": 3.6167600325,
				"element": "C" 
			},
			{
				"x": -1.9738672958,
				"y": 0.4951198369,
				"z": 3.2784679422,
				"element": "C" 
			},
			{
				"x": -2.3511144327,
				"y": -0.105880839,
				"z": 2.0800184701,
				"element": "C" 
			},
			{
				"x": -1.540519656,
				"y": -1.537962807,
				"z": -2.1382267553,
				"element": "H" 
			},
			{
				"x": 2.2216238355,
				"y": 1.3198582042,
				"z": -3.5412622614,
				"element": "H" 
			},
			{
				"x": 1.4760817631,
				"y": 3.5556168606,
				"z": -2.6971343758,
				"element": "H" 
			},
			{
				"x": -0.4980283704,
				"y": 3.6837997521,
				"z": -1.1778846768,
				"element": "H" 
			},
			{
				"x": -1.7041517921,
				"y": 1.6286742006,
				"z": -0.5381837421,
				"element": "H" 
			},
			{
				"x": 0.7337243494,
				"y": -0.8892133493,
				"z": 0.8776564493,
				"element": "H" 
			},
			{
				"x": 1.404080988,
				"y": 0.1796144492,
				"z": 3.0128396774,
				"element": "H" 
			},
			{
				"x": -0.3326119832,
				"y": 1.0694901799,
				"z": 4.5549378699,
				"element": "H" 
			},
			{
				"x": -2.7364585219,
				"y": 0.8735051612,
				"z": 3.9526946381,
				"element": "H" 
			},
			{
				"x": -3.4018373013,
				"y": -0.2033107049,
				"z": 1.8292893305,
				"element": "H" 
			}
		],
		 "valence_orbital": [ 
			{
				"type": "occ",
				"energy": -0.29433,
				"method": "rhf"
			},
			{
				"type": "occ",
				"energy": -0.29211,
				"method": "rhf"
			},
			{
				"type": "occ",
				"energy": -0.27986,
				"method": "rhf"
			},
			{
				"type": "occ",
				"energy": -0.2632,
				"method": "rhf"
			},
			{
				"type": "occ",
				"energy": -0.24979,
				"method": "rhf"
			},
			{
				"type": "unocc",
				"energy": -0.1067,
				"method": "rhf"
			},
			{
				"type": "unocc",
				"energy": -0.08613,
				"method": "rhf"
			},
			{
				"type": "unocc",
				"energy": -0.04074,
				"method": "rhf"
			},
			{
				"type": "unocc",
				"energy": -0.03172,
				"method": "rhf"
			},
			{
				"type": "unocc",
				"energy": -0.01691,
				"method": "rhf"
			}
		],
		"cosmo_sigma_profile": { 
			"-0.025": 0.0,
			"-0.024": 0.0,
			"-0.023": 0.0,
			"-0.022": 0.0,
			"-0.021": 0.0,
			"-0.02": 0.0,
			"-0.019": 0.0,
			"-0.018": 0.0,
			"-0.017": 0.0,
			"-0.016": 0.0,
			"-0.015": 0.0,
			"-0.014": 0.0,
			"-0.013": 0.0,
			"-0.012": 0.0,
			"-0.011": 0.0,
			"-0.01": 0.346910956184,
			"-0.009": 0.937636373153,
			"-0.008": 5.56902973407,
			"-0.007": 12.9471153629,
			"-0.006": 21.3903600514,
			"-0.005": 21.4437673702,
			"-0.004": 24.4479392045,
			"-0.003": 19.798962478,
			"-0.002": 19.9004782583,
			"-0.001": 18.734475537,
			"0.0": 19.7717647285,
			"0.001": 20.3327718817,
			"0.002": 17.363646797,
			"0.003": 11.4579659699,
			"0.004": 14.3742277816,
			"0.005": 10.9836768419,
			"0.006": 8.4309344304,
			"0.007": 14.9579675094,
			"0.008": 14.1164309346,
			"0.009": 9.76776188842,
			"0.01": 3.90883153882,
			"0.011": 0.140113987241,
			"0.012": 0.0,
			"0.013": 0.0,
			"0.014": 0.0,
			"0.015": 0.0,
			"0.016": 0.0,
			"0.017": 0.0,
			"0.018": 0.0,
			"0.019": 0.0,
			"0.02": 0.0,
			"0.021": 0.0,
			"0.022": 0.0,
			"0.023": 0.0,
			"0.024": 0.0,
			"0.025": 0.0
		}
	}
}
