{
	 "smiles": "BrC1=CC=C(C=C1)C#C", 
	 "Tm": 339.15, 
	 "num_atms": 14, 
	 "gaussian": { 
		 "optdone": 1, 
		 "sigma_profile": "yes", 
		 "theory": "DFT", 
		 "functional": "B3LYP", 
		 "basiset": "6-31G**", 
		 "properties": { 
			 "R2extent": 4237.4563, 
			 "electric_dipole_moment_norm": 1.20680083692, 
			 "electric_quadrupole_moment_norm": 5.54928149043, 
			 "total_energy": -2879.19814538, 
			 "HOMO_LUMO_gap": 0.19162, 
			 "cosmo_polarized_energy": -4.93, 
			 "cosmo_cavitation_energy": 21.83, 
			 "cosmo_dispersion_energy": -15.91, 
			 "cosmo_repulsion_energy": 1.29, 
			 "cosmo_total_nonelectrostatic_energy": 7.21, 
			 "SMD_solvation_energy": 3.98 
		},
		"coords": [
			{
				"x": -1.0650978278,
				"y": -4.7534987097,
				"z": 1.034176295,
				"element": "Br" 
			},
			{
				"x": -0.4260412483,
				"y": -2.9886605453,
				"z": 0.6825493407,
				"element": "C" 
			},
			{
				"x": -1.2473502648,
				"y": -1.8950783962,
				"z": 0.9562551067,
				"element": "C" 
			},
			{
				"x": -0.7785674056,
				"y": -0.610029028,
				"z": 0.698943783,
				"element": "C" 
			},
			{
				"x": 0.5092724647,
				"y": -0.4062972999,
				"z": 0.1681938116,
				"element": "C" 
			},
			{
				"x": 1.3170843405,
				"y": -1.5279030499,
				"z": -0.0985843551,
				"element": "C" 
			},
			{
				"x": 0.8540767284,
				"y": -2.8154757456,
				"z": 0.15652332,
				"element": "C" 
			},
			{
				"x": 0.9874386585,
				"y": 0.9138269006,
				"z": -0.0947100071,
				"element": "C" 
			},
			{
				"x": 1.3925790538,
				"y": 2.0321434371,
				"z": -0.3174587109,
				"element": "C" 
			},
			{
				"x": -2.2396544878,
				"y": -2.0472169315,
				"z": 1.3650103061,
				"element": "H" 
			},
			{
				"x": -1.4093898936,
				"y": 0.2475229213,
				"z": 0.9082799735,
				"element": "H" 
			},
			{
				"x": 2.3113151605,
				"y": -1.3821217306,
				"z": -0.5077356351,
				"element": "H" 
			},
			{
				"x": 1.4795422521,
				"y": -3.6762045524,
				"z": -0.0504390826,
				"element": "H" 
			},
			{
				"x": 1.7495924694,
				"y": 3.0164927301,
				"z": -0.5138041459,
				"element": "H" 
			}
		],
		 "valence_orbital": [ 
			{
				"type": "occ",
				"energy": -0.29177,
				"method": "rhf"
			},
			{
				"type": "occ",
				"energy": -0.28879,
				"method": "rhf"
			},
			{
				"type": "occ",
				"energy": -0.27977,
				"method": "rhf"
			},
			{
				"type": "occ",
				"energy": -0.2713,
				"method": "rhf"
			},
			{
				"type": "occ",
				"energy": -0.2334,
				"method": "rhf"
			},
			{
				"type": "unocc",
				"energy": -0.04178,
				"method": "rhf"
			},
			{
				"type": "unocc",
				"energy": -0.01994,
				"method": "rhf"
			},
			{
				"type": "unocc",
				"energy": 0.00294,
				"method": "rhf"
			},
			{
				"type": "unocc",
				"energy": 0.04696,
				"method": "rhf"
			},
			{
				"type": "unocc",
				"energy": 0.07886,
				"method": "rhf"
			}
		],
		"cosmo_sigma_profile": { 
			"-0.025": 0.0,
			"-0.024": 0.0,
			"-0.023": 0.0,
			"-0.022": 0.0,
			"-0.021": 0.0,
			"-0.02": 0.0,
			"-0.019": 0.0,
			"-0.018": 0.0,
			"-0.017": 0.0,
			"-0.016": 0.0,
			"-0.015": 0.0,
			"-0.014": 0.0,
			"-0.013": 0.0272863998337,
			"-0.012": 0.93584212614,
			"-0.011": 1.20088792776,
			"-0.01": 0.730911683734,
			"-0.009": 1.2138350799,
			"-0.008": 2.88374323261,
			"-0.007": 7.86254640233,
			"-0.006": 8.48087618772,
			"-0.005": 9.73122913106,
			"-0.004": 7.19215990588,
			"-0.003": 9.37718445504,
			"-0.002": 8.70957248293,
			"-0.001": 10.2359022077,
			"0.0": 11.4162140721,
			"0.001": 18.1116024982,
			"0.002": 25.9298908078,
			"0.003": 21.8074565011,
			"0.004": 15.6269147565,
			"0.005": 10.8580113663,
			"0.006": 7.45283155502,
			"0.007": 0.831164249379,
			"0.008": 0.0,
			"0.009": 0.0,
			"0.01": 0.0,
			"0.011": 0.0,
			"0.012": 0.0,
			"0.013": 0.0,
			"0.014": 0.0,
			"0.015": 0.0,
			"0.016": 0.0,
			"0.017": 0.0,
			"0.018": 0.0,
			"0.019": 0.0,
			"0.02": 0.0,
			"0.021": 0.0,
			"0.022": 0.0,
			"0.023": 0.0,
			"0.024": 0.0,
			"0.025": 0.0
		}
	}
}
