{
	 "smiles": "NC1=C(N=C2SC=CN12)C1=CC=CC=C1", 
	 "Tm": 423.15, 
	 "num_atms": 24, 
	 "gaussian": { 
		 "optdone": 1, 
		 "sigma_profile": "yes", 
		 "theory": "DFT", 
		 "functional": "B3LYP", 
		 "basiset": "6-31G**", 
		 "properties": { 
			 "R2extent": 4951.9573, 
			 "electric_dipole_moment_norm": 4.00258433765, 
			 "electric_quadrupole_moment_norm": 16.256828632, 
			 "total_energy": -987.011326359, 
			 "HOMO_LUMO_gap": 0.16906, 
			 "cosmo_polarized_energy": -14.85, 
			 "cosmo_cavitation_energy": 29.73, 
			 "cosmo_dispersion_energy": -22.69, 
			 "cosmo_repulsion_energy": 1.7, 
			 "cosmo_total_nonelectrostatic_energy": 8.74, 
			 "SMD_solvation_energy": 3.48 
		},
		"coords": [
			{
				"x": -0.8071022225,
				"y": -1.0426290854,
				"z": 1.459335693,
				"element": "N" 
			},
			{
				"x": 0.403957818,
				"y": -1.1369393566,
				"z": 0.7553318734,
				"element": "C" 
			},
			{
				"x": 0.7674207265,
				"y": -1.1424321436,
				"z": -0.5877630559,
				"element": "C" 
			},
			{
				"x": 2.1542020207,
				"y": -1.2332018751,
				"z": -0.7263245778,
				"element": "N" 
			},
			{
				"x": 2.6015805793,
				"y": -1.2888039445,
				"z": 0.4963802566,
				"element": "C" 
			},
			{
				"x": 4.1737637434,
				"y": -1.4076577348,
				"z": 1.2758089157,
				"element": "S" 
			},
			{
				"x": 3.3764815556,
				"y": -1.4159271272,
				"z": 2.853103445,
				"element": "C" 
			},
			{
				"x": 2.0307839063,
				"y": -1.3303898382,
				"z": 2.7677926392,
				"element": "C" 
			},
			{
				"x": 1.5970671984,
				"y": -1.2508595239,
				"z": 1.4500859775,
				"element": "N" 
			},
			{
				"x": -0.1033849748,
				"y": -1.0405000825,
				"z": -1.7644843473,
				"element": "C" 
			},
			{
				"x": -1.4101363853,
				"y": -1.5609796522,
				"z": -1.7729664266,
				"element": "C" 
			},
			{
				"x": -2.2311404567,
				"y": -1.4165888529,
				"z": -2.8921813794,
				"element": "C" 
			},
			{
				"x": -1.756157253,
				"y": -0.7688784566,
				"z": -4.0329059523,
				"element": "C" 
			},
			{
				"x": -0.4475789724,
				"y": -0.2765837899,
				"z": -4.0482120658,
				"element": "C" 
			},
			{
				"x": 0.3698658456,
				"y": -0.4090992821,
				"z": -2.9290835326,
				"element": "C" 
			},
			{
				"x": -0.8625751557,
				"y": -0.1833828127,
				"z": 2.0040420679,
				"element": "H" 
			},
			{
				"x": -1.5944100323,
				"y": -1.0575392706,
				"z": 0.8222427554,
				"element": "H" 
			},
			{
				"x": 3.9650895004,
				"y": -1.4953676612,
				"z": 3.7547245074,
				"element": "H" 
			},
			{
				"x": 1.3143822013,
				"y": -1.3373860413,
				"z": 3.5768197938,
				"element": "H" 
			},
			{
				"x": -1.769589495,
				"y": -2.137533525,
				"z": -0.9243997678,
				"element": "H" 
			},
			{
				"x": -3.2357909527,
				"y": -1.8303278099,
				"z": -2.8783478092,
				"element": "H" 
			},
			{
				"x": -2.3928846975,
				"y": -0.6605809703,
				"z": -4.9061583635,
				"element": "H" 
			},
			{
				"x": -0.0640518843,
				"y": 0.2166796141,
				"z": -4.9372318714,
				"element": "H" 
			},
			{
				"x": 1.3859073864,
				"y": -0.0289907774,
				"z": -2.9357087753,
				"element": "H" 
			}
		],
		 "valence_orbital": [ 
			{
				"type": "occ",
				"energy": -0.27078,
				"method": "rhf"
			},
			{
				"type": "occ",
				"energy": -0.26203,
				"method": "rhf"
			},
			{
				"type": "occ",
				"energy": -0.24416,
				"method": "rhf"
			},
			{
				"type": "occ",
				"energy": -0.21841,
				"method": "rhf"
			},
			{
				"type": "occ",
				"energy": -0.18944,
				"method": "rhf"
			},
			{
				"type": "unocc",
				"energy": -0.02038,
				"method": "rhf"
			},
			{
				"type": "unocc",
				"energy": 0.0035,
				"method": "rhf"
			},
			{
				"type": "unocc",
				"energy": 0.00442,
				"method": "rhf"
			},
			{
				"type": "unocc",
				"energy": 0.01189,
				"method": "rhf"
			},
			{
				"type": "unocc",
				"energy": 0.05031,
				"method": "rhf"
			}
		],
		"cosmo_sigma_profile": { 
			"-0.025": 0.0,
			"-0.024": 0.0,
			"-0.023": 0.0,
			"-0.022": 0.0,
			"-0.021": 0.0,
			"-0.02": 0.0,
			"-0.019": 0.0,
			"-0.018": 0.0,
			"-0.017": 0.0,
			"-0.016": 0.0,
			"-0.015": 0.0,
			"-0.014": 0.0,
			"-0.013": 0.770152380508,
			"-0.012": 2.06780669955,
			"-0.011": 2.74879023254,
			"-0.01": 5.23298114167,
			"-0.009": 6.9822829928,
			"-0.008": 6.88981571807,
			"-0.007": 6.0566304963,
			"-0.006": 7.78758040192,
			"-0.005": 13.2662855367,
			"-0.004": 13.3575649793,
			"-0.003": 14.1531460713,
			"-0.002": 12.2429695881,
			"-0.001": 15.6064497102,
			"0.0": 16.2018096967,
			"0.001": 17.2604269244,
			"0.002": 18.3804454976,
			"0.003": 19.2781903202,
			"0.004": 17.6242149157,
			"0.005": 14.7066077955,
			"0.006": 12.7848610795,
			"0.007": 3.53177515221,
			"0.008": 2.53600302846,
			"0.009": 2.30349466103,
			"0.01": 2.18298439339,
			"0.011": 1.1729934757,
			"0.012": 1.5305065382,
			"0.013": 1.66790404259,
			"0.014": 1.49673336037,
			"0.015": 0.996946218891,
			"0.016": 0.66561001261,
			"0.017": 0.179340229094,
			"0.018": 0.0,
			"0.019": 0.0,
			"0.02": 0.0,
			"0.021": 0.0,
			"0.022": 0.0,
			"0.023": 0.0,
			"0.024": 0.0,
			"0.025": 0.0
		}
	}
}
