{
	 "smiles": "NC1=NC(NC2=CC=CC=C2)=NC(CCl)=N1", 
	 "Tm": 413.15, 
	 "num_atms": 26, 
	 "gaussian": { 
		 "optdone": 1, 
		 "sigma_profile": "yes", 
		 "theory": "DFT", 
		 "functional": "B3LYP", 
		 "basiset": "6-31G**", 
		 "properties": { 
			 "R2extent": 6450.0217, 
			 "electric_dipole_moment_norm": 2.85274692533, 
			 "electric_quadrupole_moment_norm": 22.3622441548, 
			 "total_energy": -1121.08590292, 
			 "HOMO_LUMO_gap": 0.17118, 
			 "cosmo_polarized_energy": -14.58, 
			 "cosmo_cavitation_energy": 32.77, 
			 "cosmo_dispersion_energy": -24.37, 
			 "cosmo_repulsion_energy": 1.93, 
			 "cosmo_total_nonelectrostatic_energy": 10.33, 
			 "SMD_solvation_energy": 1.49 
		},
		"coords": [
			{
				"x": -0.7778261005,
				"y": -2.3782782255,
				"z": 1.3436244852,
				"element": "N" 
			},
			{
				"x": -1.3981268888,
				"y": -1.4103656067,
				"z": 0.6311824569,
				"element": "C" 
			},
			{
				"x": -0.7244412018,
				"y": -0.2616728212,
				"z": 0.4368381294,
				"element": "N" 
			},
			{
				"x": -1.3835060682,
				"y": 0.6420054334,
				"z": -0.2949069139,
				"element": "C" 
			},
			{
				"x": -0.8302704139,
				"y": 1.8553778216,
				"z": -0.5840498534,
				"element": "N" 
			},
			{
				"x": 0.4066180566,
				"y": 2.4416933925,
				"z": -0.2601775136,
				"element": "C" 
			},
			{
				"x": 0.6191940405,
				"y": 3.7521616836,
				"z": -0.7239418843,
				"element": "C" 
			},
			{
				"x": 1.8135165366,
				"y": 4.4129339134,
				"z": -0.4560312108,
				"element": "C" 
			},
			{
				"x": 2.8192468742,
				"y": 3.7815025183,
				"z": 0.2790738245,
				"element": "C" 
			},
			{
				"x": 2.6073807794,
				"y": 2.4816369255,
				"z": 0.7386077242,
				"element": "C" 
			},
			{
				"x": 1.415509089,
				"y": 1.8041791714,
				"z": 0.4786766674,
				"element": "C" 
			},
			{
				"x": -2.6256429074,
				"y": 0.476105077,
				"z": -0.8174587635,
				"element": "N" 
			},
			{
				"x": -3.1804061496,
				"y": -0.7000990044,
				"z": -0.5394962329,
				"element": "C" 
			},
			{
				"x": -4.5683390711,
				"y": -0.9385278904,
				"z": -1.0763156528,
				"element": "C" 
			},
			{
				"x": -5.8238791985,
				"y": -0.4382406941,
				"z": 0.1427279594,
				"element": "Cl" 
			},
			{
				"x": -2.63263153,
				"y": -1.6930079849,
				"z": 0.1661588211,
				"element": "N" 
			},
			{
				"x": -1.3047838379,
				"y": -3.1968053832,
				"z": 1.5996594735,
				"element": "H" 
			},
			{
				"x": 0.0928525061,
				"y": -2.1683425281,
				"z": 1.8024084989,
				"element": "H" 
			},
			{
				"x": -1.4606485722,
				"y": 2.4254248016,
				"z": -1.1321723399,
				"element": "H" 
			},
			{
				"x": -0.1597711266,
				"y": 4.2507387845,
				"z": -1.2964719179,
				"element": "H" 
			},
			{
				"x": 1.9561892977,
				"y": 5.4249611923,
				"z": -0.8237493053,
				"element": "H" 
			},
			{
				"x": 3.7519329993,
				"y": 4.2956103405,
				"z": 0.4894598813,
				"element": "H" 
			},
			{
				"x": 3.3808268109,
				"y": 1.9776395464,
				"z": 1.3116734401,
				"element": "H" 
			},
			{
				"x": 1.2545379171,
				"y": 0.7980337367,
				"z": 0.83677473,
				"element": "H" 
			},
			{
				"x": -4.743248464,
				"y": -0.3378437984,
				"z": -1.9670470528,
				"element": "H" 
			},
			{
				"x": -4.7280833767,
				"y": -1.9983204016,
				"z": -1.2676474509,
				"element": "H" 
			}
		],
		 "valence_orbital": [ 
			{
				"type": "occ",
				"energy": -0.27125,
				"method": "rhf"
			},
			{
				"type": "occ",
				"energy": -0.26487,
				"method": "rhf"
			},
			{
				"type": "occ",
				"energy": -0.25603,
				"method": "rhf"
			},
			{
				"type": "occ",
				"energy": -0.25187,
				"method": "rhf"
			},
			{
				"type": "occ",
				"energy": -0.21465,
				"method": "rhf"
			},
			{
				"type": "unocc",
				"energy": -0.04347,
				"method": "rhf"
			},
			{
				"type": "unocc",
				"energy": -0.01746,
				"method": "rhf"
			},
			{
				"type": "unocc",
				"energy": -0.00198,
				"method": "rhf"
			},
			{
				"type": "unocc",
				"energy": 0.02477,
				"method": "rhf"
			},
			{
				"type": "unocc",
				"energy": 0.04977,
				"method": "rhf"
			}
		],
		"cosmo_sigma_profile": { 
			"-0.025": 0.0,
			"-0.024": 0.0,
			"-0.023": 0.0,
			"-0.022": 0.0,
			"-0.021": 0.0,
			"-0.02": 0.0,
			"-0.019": 0.0,
			"-0.018": 0.0,
			"-0.017": 0.0,
			"-0.016": 0.0,
			"-0.015": 0.509943788162,
			"-0.014": 3.48726847506,
			"-0.013": 2.61806460881,
			"-0.012": 3.14250911207,
			"-0.011": 2.7496642099,
			"-0.01": 4.05056538172,
			"-0.009": 2.97843014606,
			"-0.008": 4.48765122501,
			"-0.007": 5.93428755589,
			"-0.006": 9.65501503132,
			"-0.005": 14.8940723393,
			"-0.004": 13.9972093161,
			"-0.003": 15.7994629254,
			"-0.002": 13.4375647148,
			"-0.001": 14.440089595,
			"0.0": 16.2308003686,
			"0.001": 19.5281379967,
			"0.002": 16.5218071321,
			"0.003": 19.9451401745,
			"0.004": 20.1471808124,
			"0.005": 22.1806123425,
			"0.006": 21.9476676177,
			"0.007": 5.6357870864,
			"0.008": 2.56553925362,
			"0.009": 1.99356250766,
			"0.01": 1.77171479436,
			"0.011": 1.37091750477,
			"0.012": 1.6022464799,
			"0.013": 0.630088321571,
			"0.014": 0.319708027645,
			"0.015": 0.0,
			"0.016": 0.0,
			"0.017": 0.0,
			"0.018": 0.0,
			"0.019": 0.0,
			"0.02": 0.0,
			"0.021": 0.0,
			"0.022": 0.0,
			"0.023": 0.0,
			"0.024": 0.0,
			"0.025": 0.0
		}
	}
}
