{
	 "smiles": "CC1=CC(=CC=C1N)C1=CC=C(N)C(C)=C1", 
	 "Tm": 404.15, 
	 "num_atms": 32, 
	 "gaussian": { 
		 "optdone": 1, 
		 "sigma_profile": "yes", 
		 "theory": "DFT", 
		 "functional": "B3LYP", 
		 "basiset": "6-31G**", 
		 "properties": { 
			 "R2extent": 5483.4168, 
			 "electric_dipole_moment_norm": 1.98412377386, 
			 "electric_quadrupole_moment_norm": 17.6369666689, 
			 "total_energy": -652.665753471, 
			 "HOMO_LUMO_gap": 0.17512, 
			 "cosmo_polarized_energy": -14.47, 
			 "cosmo_cavitation_energy": 34.5, 
			 "cosmo_dispersion_energy": -25.22, 
			 "cosmo_repulsion_energy": 1.96, 
			 "cosmo_total_nonelectrostatic_energy": 11.24, 
			 "SMD_solvation_energy": 5.38 
		},
		"coords": [
			{
				"x": -3.7830259486,
				"y": 0.3568544933,
				"z": 2.1327396704,
				"element": "C" 
			},
			{
				"x": -2.4283888481,
				"y": -0.2723622878,
				"z": 2.3474240311,
				"element": "C" 
			},
			{
				"x": -1.3934058603,
				"y": -0.0849083635,
				"z": 1.4310288542,
				"element": "C" 
			},
			{
				"x": -0.1251860518,
				"y": -0.6719737012,
				"z": 1.5792421564,
				"element": "C" 
			},
			{
				"x": 0.0761357965,
				"y": -1.4801319332,
				"z": 2.7094269397,
				"element": "C" 
			},
			{
				"x": -0.9372006412,
				"y": -1.6828399661,
				"z": 3.6400874401,
				"element": "C" 
			},
			{
				"x": -2.1967346049,
				"y": -1.0869286561,
				"z": 3.4787924209,
				"element": "C" 
			},
			{
				"x": -3.229988829,
				"y": -1.3451812839,
				"z": 4.389089576,
				"element": "N" 
			},
			{
				"x": 0.9512669577,
				"y": -0.4495495913,
				"z": 0.5843658311,
				"element": "C" 
			},
			{
				"x": 1.8539077166,
				"y": -1.4683340383,
				"z": 0.2402633776,
				"element": "C" 
			},
			{
				"x": 2.8661987225,
				"y": -1.2507705471,
				"z": -0.688080924,
				"element": "C" 
			},
			{
				"x": 3.012668272,
				"y": -0.0070970274,
				"z": -1.3202704447,
				"element": "C" 
			},
			{
				"x": 3.9949901262,
				"y": 0.1820406888,
				"z": -2.3010202411,
				"element": "N" 
			},
			{
				"x": 2.1132732743,
				"y": 1.0341410274,
				"z": -0.9979058667,
				"element": "C" 
			},
			{
				"x": 2.2436305107,
				"y": 2.3815376506,
				"z": -1.6649009285,
				"element": "C" 
			},
			{
				"x": 1.1136537923,
				"y": 0.7909427359,
				"z": -0.0555973743,
				"element": "C" 
			},
			{
				"x": -4.0345037776,
				"y": 1.0780311602,
				"z": 2.9243211089,
				"element": "H" 
			},
			{
				"x": -4.5794730687,
				"y": -0.397728369,
				"z": 2.1240412057,
				"element": "H" 
			},
			{
				"x": -3.8196857612,
				"y": 0.8969384343,
				"z": 1.1833255589,
				"element": "H" 
			},
			{
				"x": -1.5924234113,
				"y": 0.5211108329,
				"z": 0.5505871633,
				"element": "H" 
			},
			{
				"x": 1.0488248389,
				"y": -1.932559299,
				"z": 2.8797483764,
				"element": "H" 
			},
			{
				"x": -0.7516908964,
				"y": -2.3049299233,
				"z": 4.5132496835,
				"element": "H" 
			},
			{
				"x": -3.8977757178,
				"y": -0.5950137527,
				"z": 4.5054717022,
				"element": "H" 
			},
			{
				"x": -2.9169816096,
				"y": -1.6992021466,
				"z": 5.2831717514,
				"element": "H" 
			},
			{
				"x": 1.7502053731,
				"y": -2.451945676,
				"z": 0.6891396625,
				"element": "H" 
			},
			{
				"x": 3.5475672697,
				"y": -2.0596726596,
				"z": -0.9433648182,
				"element": "H" 
			},
			{
				"x": 4.3429812825,
				"y": 1.127507213,
				"z": -2.3844716288,
				"element": "H" 
			},
			{
				"x": 4.75316355,
				"y": -0.4861267567,
				"z": -2.2644971645,
				"element": "H" 
			},
			{
				"x": 2.1911738938,
				"y": 2.2955713243,
				"z": -2.757580455,
				"element": "H" 
			},
			{
				"x": 3.1998657677,
				"y": 2.8707215264,
				"z": -1.4280001233,
				"element": "H" 
			},
			{
				"x": 1.4485682777,
				"y": 3.0584234624,
				"z": -1.3422152347,
				"element": "H" 
			},
			{
				"x": 0.4472896042,
				"y": 1.6090354296,
				"z": 0.2066886935,
				"element": "H" 
			}
		],
		 "valence_orbital": [ 
			{
				"type": "occ",
				"energy": -0.28477,
				"method": "rhf"
			},
			{
				"type": "occ",
				"energy": -0.23152,
				"method": "rhf"
			},
			{
				"type": "occ",
				"energy": -0.23028,
				"method": "rhf"
			},
			{
				"type": "occ",
				"energy": -0.21034,
				"method": "rhf"
			},
			{
				"type": "occ",
				"energy": -0.17262,
				"method": "rhf"
			},
			{
				"type": "unocc",
				"energy": 0.0025,
				"method": "rhf"
			},
			{
				"type": "unocc",
				"energy": 0.01186,
				"method": "rhf"
			},
			{
				"type": "unocc",
				"energy": 0.01671,
				"method": "rhf"
			},
			{
				"type": "unocc",
				"energy": 0.05537,
				"method": "rhf"
			},
			{
				"type": "unocc",
				"energy": 0.08042,
				"method": "rhf"
			}
		],
		"cosmo_sigma_profile": { 
			"-0.025": 0.0,
			"-0.024": 0.0,
			"-0.023": 0.0,
			"-0.022": 0.0,
			"-0.021": 0.0,
			"-0.02": 0.0,
			"-0.019": 0.0,
			"-0.018": 0.0,
			"-0.017": 0.0,
			"-0.016": 0.0,
			"-0.015": 0.0,
			"-0.014": 0.0,
			"-0.013": 0.0190903279944,
			"-0.012": 2.19997572416,
			"-0.011": 4.52399065317,
			"-0.01": 5.46231880392,
			"-0.009": 6.74686639859,
			"-0.008": 5.38570107145,
			"-0.007": 6.07541770565,
			"-0.006": 6.96438301003,
			"-0.005": 9.01087764091,
			"-0.004": 22.6757858123,
			"-0.003": 23.3791922143,
			"-0.002": 20.0878272101,
			"-0.001": 18.7228368679,
			"0.0": 22.4122212534,
			"0.001": 17.5609403581,
			"0.002": 11.4540995659,
			"0.003": 11.469176108,
			"0.004": 13.2951529393,
			"0.005": 15.225128812,
			"0.006": 18.5867493641,
			"0.007": 17.3717842876,
			"0.008": 4.82249869569,
			"0.009": 1.33304568204,
			"0.01": 1.45051332843,
			"0.011": 1.36270062588,
			"0.012": 1.01798972853,
			"0.013": 1.66878341568,
			"0.014": 0.91323389871,
			"0.015": 0.882260217142,
			"0.016": 0.0199889520402,
			"0.017": 0.0,
			"0.018": 0.0,
			"0.019": 0.0,
			"0.02": 0.0,
			"0.021": 0.0,
			"0.022": 0.0,
			"0.023": 0.0,
			"0.024": 0.0,
			"0.025": 0.0
		}
	}
}
