{
	 "smiles": "OC(=O)[C@@H]1CCCN1C(=O)OCC1C2=CC=CC=C2C2=CC=CC=C12", 
	 "Tm": 388.15, 
	 "num_atms": 44, 
	 "gaussian": { 
		 "optdone": 1, 
		 "sigma_profile": "yes", 
		 "theory": "DFT", 
		 "functional": "B3LYP", 
		 "basiset": "6-31G**", 
		 "properties": { 
			 "R2extent": 10628.7935, 
			 "electric_dipole_moment_norm": 3.15665917387, 
			 "electric_quadrupole_moment_norm": 30.4222207301, 
			 "total_energy": -1129.27683154, 
			 "HOMO_LUMO_gap": 0.18431, 
			 "cosmo_polarized_energy": -19.53, 
			 "cosmo_cavitation_energy": 47.0, 
			 "cosmo_dispersion_energy": -31.79, 
			 "cosmo_repulsion_energy": 2.39, 
			 "cosmo_total_nonelectrostatic_energy": 17.59, 
			 "SMD_solvation_energy": 8.96 
		},
		"coords": [
			{
				"x": -3.9832062757,
				"y": -2.6342602449,
				"z": -1.4195639274,
				"element": "O" 
			},
			{
				"x": -4.3862780224,
				"y": -1.9689507037,
				"z": -0.322452742,
				"element": "C" 
			},
			{
				"x": -5.1475737428,
				"y": -2.4469654116,
				"z": 0.4830660938,
				"element": "O" 
			},
			{
				"x": -3.8306773904,
				"y": -0.5394012014,
				"z": -0.158406699,
				"element": "C" 
			},
			{
				"x": -4.9678921731,
				"y": 0.5030929955,
				"z": -0.1818513246,
				"element": "C" 
			},
			{
				"x": -5.0608017364,
				"y": 0.8855680636,
				"z": -1.6681919398,
				"element": "C" 
			},
			{
				"x": -3.5949884285,
				"y": 0.914458106,
				"z": -2.1193545244,
				"element": "C" 
			},
			{
				"x": -2.9585242445,
				"y": -0.1260812853,
				"z": -1.277893965,
				"element": "N" 
			},
			{
				"x": -1.5802769375,
				"y": -0.1636461067,
				"z": -1.2312359553,
				"element": "C" 
			},
			{
				"x": -0.8599916204,
				"y": 0.4357951448,
				"z": -2.008993314,
				"element": "O" 
			},
			{
				"x": -1.1454804305,
				"y": -0.9824256405,
				"z": -0.2399895224,
				"element": "O" 
			},
			{
				"x": 0.2862374128,
				"y": -1.1772301343,
				"z": -0.1733931854,
				"element": "C" 
			},
			{
				"x": 1.0055938929,
				"y": -0.0513676077,
				"z": 0.5887164336,
				"element": "C" 
			},
			{
				"x": 0.7092755995,
				"y": -0.014610981,
				"z": 2.0805496967,
				"element": "C" 
			},
			{
				"x": -0.4990901001,
				"y": 0.1859559929,
				"z": 2.7401458751,
				"element": "C" 
			},
			{
				"x": -0.5232468893,
				"y": 0.1680703118,
				"z": 4.1396876701,
				"element": "C" 
			},
			{
				"x": 0.6511702074,
				"y": -0.0447729758,
				"z": 4.868909258,
				"element": "C" 
			},
			{
				"x": 1.869124135,
				"y": -0.2398979996,
				"z": 4.2139831965,
				"element": "C" 
			},
			{
				"x": 1.8945266993,
				"y": -0.2235603102,
				"z": 2.8180389215,
				"element": "C" 
			},
			{
				"x": 3.0115743481,
				"y": -0.3819667355,
				"z": 1.8774025492,
				"element": "C" 
			},
			{
				"x": 4.3739064068,
				"y": -0.5945250989,
				"z": 2.0983225161,
				"element": "C" 
			},
			{
				"x": 5.2280350624,
				"y": -0.6928881406,
				"z": 0.9973413972,
				"element": "C" 
			},
			{
				"x": 4.7311962008,
				"y": -0.5766023095,
				"z": -0.3053565162,
				"element": "C" 
			},
			{
				"x": 3.3659081593,
				"y": -0.3624662159,
				"z": -0.5293702702,
				"element": "C" 
			},
			{
				"x": 2.5116799345,
				"y": -0.2678032566,
				"z": 0.5642022809,
				"element": "C" 
			},
			{
				"x": -3.3842127109,
				"y": -2.0402835552,
				"z": -1.9082072459,
				"element": "H" 
			},
			{
				"x": -3.282935762,
				"y": -0.5335942938,
				"z": 0.7857934964,
				"element": "H" 
			},
			{
				"x": -4.6771859532,
				"y": 1.3725366584,
				"z": 0.417357818,
				"element": "H" 
			},
			{
				"x": -5.8894344021,
				"y": 0.0926924774,
				"z": 0.2340407922,
				"element": "H" 
			},
			{
				"x": -5.5595574268,
				"y": 1.843152387,
				"z": -1.835526725,
				"element": "H" 
			},
			{
				"x": -5.6155465981,
				"y": 0.1195918768,
				"z": -2.2219123332,
				"element": "H" 
			},
			{
				"x": -3.4571027174,
				"y": 0.6890561785,
				"z": -3.1795271584,
				"element": "H" 
			},
			{
				"x": -3.122723535,
				"y": 1.8842963353,
				"z": -1.924342802,
				"element": "H" 
			},
			{
				"x": 0.4123005161,
				"y": -2.1326652512,
				"z": 0.3388486518,
				"element": "H" 
			},
			{
				"x": 0.6743141184,
				"y": -1.2469709623,
				"z": -1.1913804826,
				"element": "H" 
			},
			{
				"x": 0.741632389,
				"y": 0.8953699598,
				"z": 0.1002620254,
				"element": "H" 
			},
			{
				"x": -1.4136074443,
				"y": 0.3579882434,
				"z": 2.181503932,
				"element": "H" 
			},
			{
				"x": -1.4621571559,
				"y": 0.3216433797,
				"z": 4.6636907831,
				"element": "H" 
			},
			{
				"x": 0.615837005,
				"y": -0.0547921596,
				"z": 5.9545395155,
				"element": "H" 
			},
			{
				"x": 2.7796115308,
				"y": -0.3983462435,
				"z": 4.7853136311,
				"element": "H" 
			},
			{
				"x": 4.7679778429,
				"y": -0.681108614,
				"z": 3.1071083258,
				"element": "H" 
			},
			{
				"x": 6.290174426,
				"y": -0.8580762027,
				"z": 1.1541961295,
				"element": "H" 
			},
			{
				"x": 5.4104427896,
				"y": -0.6498785968,
				"z": -1.1496502323,
				"element": "H" 
			},
			{
				"x": 2.9873730208,
				"y": -0.2628298722,
				"z": -1.5434201243,
				"element": "H" 
			}
		],
		 "valence_orbital": [ 
			{
				"type": "occ",
				"energy": -0.28382,
				"method": "rhf"
			},
			{
				"type": "occ",
				"energy": -0.25492,
				"method": "rhf"
			},
			{
				"type": "occ",
				"energy": -0.25363,
				"method": "rhf"
			},
			{
				"type": "occ",
				"energy": -0.24713,
				"method": "rhf"
			},
			{
				"type": "occ",
				"energy": -0.21868,
				"method": "rhf"
			},
			{
				"type": "unocc",
				"energy": -0.03437,
				"method": "rhf"
			},
			{
				"type": "unocc",
				"energy": -0.0158,
				"method": "rhf"
			},
			{
				"type": "unocc",
				"energy": 0.00338,
				"method": "rhf"
			},
			{
				"type": "unocc",
				"energy": 0.00481,
				"method": "rhf"
			},
			{
				"type": "unocc",
				"energy": 0.0269,
				"method": "rhf"
			}
		],
		"cosmo_sigma_profile": { 
			"-0.025": 0.0,
			"-0.024": 0.0,
			"-0.023": 0.0,
			"-0.022": 0.0,
			"-0.021": 0.0,
			"-0.02": 0.0,
			"-0.019": 0.0,
			"-0.018": 0.0,
			"-0.017": 0.0,
			"-0.016": 0.0119492181898,
			"-0.015": 0.449016266561,
			"-0.014": 0.410285730163,
			"-0.013": 0.691749259956,
			"-0.012": 1.10692190907,
			"-0.011": 0.987068094083,
			"-0.01": 1.37161322438,
			"-0.009": 1.29040390444,
			"-0.008": 1.09527509277,
			"-0.007": 4.35655303019,
			"-0.006": 18.5051259335,
			"-0.005": 40.1540167817,
			"-0.004": 42.8648369153,
			"-0.003": 38.7715456127,
			"-0.002": 27.8302954403,
			"-0.001": 24.3506155417,
			"0.0": 18.1252382676,
			"0.001": 16.8118230963,
			"0.002": 18.7332045821,
			"0.003": 20.4917919897,
			"0.004": 20.561179655,
			"0.005": 22.6401385106,
			"0.006": 13.8741581098,
			"0.007": 2.71840376586,
			"0.008": 3.62765912996,
			"0.009": 6.18651612746,
			"0.01": 6.27084253297,
			"0.011": 5.47557193798,
			"0.012": 9.05993686941,
			"0.013": 4.25061991275,
			"0.014": 0.079451186319,
			"0.015": 0.0,
			"0.016": 0.0,
			"0.017": 0.0,
			"0.018": 0.0,
			"0.019": 0.0,
			"0.02": 0.0,
			"0.021": 0.0,
			"0.022": 0.0,
			"0.023": 0.0,
			"0.024": 0.0,
			"0.025": 0.0
		}
	}
}
