{
	 "smiles": "ClCC1=NC2=C(C(=CS2)C2=CC=C(Cl)C=C2)C(=O)N1", 
	 "Tm": 398.15, 
	 "num_atms": 27, 
	 "gaussian": { 
		 "optdone": 1, 
		 "sigma_profile": "yes", 
		 "theory": "DFT", 
		 "functional": "B3LYP", 
		 "basiset": "6-31G**", 
		 "properties": { 
			 "R2extent": 9032.275, 
			 "electric_dipole_moment_norm": 3.67806951267, 
			 "electric_quadrupole_moment_norm": 13.6064846463, 
			 "total_energy": -2003.52768887, 
			 "HOMO_LUMO_gap": 0.1572, 
			 "cosmo_polarized_energy": -14.56, 
			 "cosmo_cavitation_energy": 37.08, 
			 "cosmo_dispersion_energy": -27.93, 
			 "cosmo_repulsion_energy": 2.1, 
			 "cosmo_total_nonelectrostatic_energy": 11.26, 
			 "SMD_solvation_energy": 4.02 
		},
		"coords": [
			{
				"x": 5.433044779,
				"y": -0.4755801571,
				"z": 1.2993021044,
				"element": "Cl" 
			},
			{
				"x": 4.5197972061,
				"y": 1.091197948,
				"z": 1.2366794683,
				"element": "C" 
			},
			{
				"x": 3.0401572181,
				"y": 0.9032125429,
				"z": 1.032746593,
				"element": "C" 
			},
			{
				"x": 2.2278818854,
				"y": 1.6482657997,
				"z": 1.7254635106,
				"element": "N" 
			},
			{
				"x": 0.9066949188,
				"y": 1.4878261304,
				"z": 1.4273977654,
				"element": "C" 
			},
			{
				"x": 0.3490437774,
				"y": 0.6238894681,
				"z": 0.4813387382,
				"element": "C" 
			},
			{
				"x": -1.095808727,
				"y": 0.679805355,
				"z": 0.4525471329,
				"element": "C" 
			},
			{
				"x": -1.5615049319,
				"y": 1.589206719,
				"z": 1.3707934803,
				"element": "C" 
			},
			{
				"x": -0.3162158814,
				"y": 2.3848580102,
				"z": 2.2834059131,
				"element": "S" 
			},
			{
				"x": -2.0226267645,
				"y": -0.094700068,
				"z": -0.4076180879,
				"element": "C" 
			},
			{
				"x": -1.7878056758,
				"y": -0.2850430615,
				"z": -1.7787492862,
				"element": "C" 
			},
			{
				"x": -2.7094157567,
				"y": -0.9576035214,
				"z": -2.5770337713,
				"element": "C" 
			},
			{
				"x": -3.8813718852,
				"y": -1.4507731546,
				"z": -2.0042628635,
				"element": "C" 
			},
			{
				"x": -5.0461710273,
				"y": -2.3017707907,
				"z": -3.0093177358,
				"element": "Cl" 
			},
			{
				"x": -4.1392578728,
				"y": -1.2852005159,
				"z": -0.6450267363,
				"element": "C" 
			},
			{
				"x": -3.2082237434,
				"y": -0.6103285373,
				"z": 0.1420292222,
				"element": "C" 
			},
			{
				"x": 1.264437479,
				"y": -0.2268817652,
				"z": -0.2692177125,
				"element": "C" 
			},
			{
				"x": 1.0133499913,
				"y": -1.0692232716,
				"z": -1.1179618833,
				"element": "O" 
			},
			{
				"x": 2.615708817,
				"y": 0.0170865933,
				"z": 0.0873550433,
				"element": "N" 
			},
			{
				"x": 4.9576321342,
				"y": 1.6635758746,
				"z": 0.4152921528,
				"element": "H" 
			},
			{
				"x": 4.675987197,
				"y": 1.6170394017,
				"z": 2.1761234121,
				"element": "H" 
			},
			{
				"x": -2.5947627164,
				"y": 1.8599646547,
				"z": 1.5377192458,
				"element": "H" 
			},
			{
				"x": -0.8741534431,
				"y": 0.0850736201,
				"z": -2.2258830359,
				"element": "H" 
			},
			{
				"x": -2.5206580953,
				"y": -1.0984678641,
				"z": -3.6353867821,
				"element": "H" 
			},
			{
				"x": -5.0473161497,
				"y": -1.6859467963,
				"z": -0.2084878746,
				"element": "H" 
			},
			{
				"x": -3.3956090462,
				"y": -0.5016765198,
				"z": 1.2059929349,
				"element": "H" 
			},
			{
				"x": 3.2882663134,
				"y": -0.5866060943,
				"z": -0.3740409481,
				"element": "H" 
			}
		],
		 "valence_orbital": [ 
			{
				"type": "occ",
				"energy": -0.27942,
				"method": "rhf"
			},
			{
				"type": "occ",
				"energy": -0.27598,
				"method": "rhf"
			},
			{
				"type": "occ",
				"energy": -0.25922,
				"method": "rhf"
			},
			{
				"type": "occ",
				"energy": -0.24823,
				"method": "rhf"
			},
			{
				"type": "occ",
				"energy": -0.22392,
				"method": "rhf"
			},
			{
				"type": "unocc",
				"energy": -0.06672,
				"method": "rhf"
			},
			{
				"type": "unocc",
				"energy": -0.03516,
				"method": "rhf"
			},
			{
				"type": "unocc",
				"energy": -0.01898,
				"method": "rhf"
			},
			{
				"type": "unocc",
				"energy": -0.01111,
				"method": "rhf"
			},
			{
				"type": "unocc",
				"energy": 0.00364,
				"method": "rhf"
			}
		],
		"cosmo_sigma_profile": { 
			"-0.025": 0.0,
			"-0.024": 0.0,
			"-0.023": 0.0,
			"-0.022": 0.0,
			"-0.021": 0.0,
			"-0.02": 0.0,
			"-0.019": 0.0,
			"-0.018": 0.0,
			"-0.017": 0.0,
			"-0.016": 0.0,
			"-0.015": 0.150104394775,
			"-0.014": 0.975389189312,
			"-0.013": 0.535838258502,
			"-0.012": 1.31703881747,
			"-0.011": 1.61932128807,
			"-0.01": 3.35400081093,
			"-0.009": 6.83751687555,
			"-0.008": 6.43537630248,
			"-0.007": 10.4621931267,
			"-0.006": 13.1738898763,
			"-0.005": 14.2492675904,
			"-0.004": 14.6101380641,
			"-0.003": 15.8058979613,
			"-0.002": 18.0260261139,
			"-0.001": 18.8444785233,
			"0.0": 25.2610126862,
			"0.001": 30.4282426329,
			"0.002": 32.8401242869,
			"0.003": 27.5814959565,
			"0.004": 22.2691624999,
			"0.005": 16.7546672445,
			"0.006": 3.34616877817,
			"0.007": 3.03340229565,
			"0.008": 2.75004077638,
			"0.009": 2.17048272844,
			"0.01": 2.57733959532,
			"0.011": 3.27255739691,
			"0.012": 3.80100015102,
			"0.013": 3.08640188654,
			"0.014": 0.084958303677,
			"0.015": 0.0,
			"0.016": 0.0,
			"0.017": 0.0,
			"0.018": 0.0,
			"0.019": 0.0,
			"0.02": 0.0,
			"0.021": 0.0,
			"0.022": 0.0,
			"0.023": 0.0,
			"0.024": 0.0,
			"0.025": 0.0
		}
	}
}
