{
	 "smiles": "NC1=CC=C(C=C1)C1=NC2=C(O1)C=CC=C2", 
	 "Tm": 444.15, 
	 "num_atms": 26, 
	 "gaussian": { 
		 "optdone": 1, 
		 "sigma_profile": "yes", 
		 "theory": "DFT", 
		 "functional": "B3LYP", 
		 "basiset": "6-31G**", 
		 "properties": { 
			 "R2extent": 4885.9326, 
			 "electric_dipole_moment_norm": 3.40078509024, 
			 "electric_quadrupole_moment_norm": 20.9260106948, 
			 "total_energy": -686.152218141, 
			 "HOMO_LUMO_gap": 0.15805, 
			 "cosmo_polarized_energy": -12.79, 
			 "cosmo_cavitation_energy": 30.66, 
			 "cosmo_dispersion_energy": -23.09, 
			 "cosmo_repulsion_energy": 1.77, 
			 "cosmo_total_nonelectrostatic_energy": 9.34, 
			 "SMD_solvation_energy": 3.56 
		},
		"coords": [
			{
				"x": -0.6102695986,
				"y": 4.3648553747,
				"z": 2.4226559938,
				"element": "N" 
			},
			{
				"x": -0.4278351465,
				"y": 3.2070152443,
				"z": 1.6804512442,
				"element": "C" 
			},
			{
				"x": 0.5445838805,
				"y": 3.1484473607,
				"z": 0.6638482227,
				"element": "C" 
			},
			{
				"x": 0.7611941946,
				"y": 1.9733604317,
				"z": -0.0416754471,
				"element": "C" 
			},
			{
				"x": 0.0150123118,
				"y": 0.8171130052,
				"z": 0.24172273,
				"element": "C" 
			},
			{
				"x": -0.9562049646,
				"y": 0.8744750971,
				"z": 1.2575923506,
				"element": "C" 
			},
			{
				"x": -1.1749617731,
				"y": 2.0456796904,
				"z": 1.9642906021,
				"element": "C" 
			},
			{
				"x": 0.2197965371,
				"y": -0.424375639,
				"z": -0.485126261,
				"element": "C" 
			},
			{
				"x": -0.4024853345,
				"y": -1.5572935598,
				"z": -0.3250343893,
				"element": "N" 
			},
			{
				"x": 0.1699689539,
				"y": -2.4098983003,
				"z": -1.264154067,
				"element": "C" 
			},
			{
				"x": 1.155525068,
				"y": -1.7062579272,
				"z": -1.9732644298,
				"element": "C" 
			},
			{
				"x": 1.1888141506,
				"y": -0.428786945,
				"z": -1.4731331908,
				"element": "O" 
			},
			{
				"x": 1.9233791872,
				"y": -2.2589292546,
				"z": -2.9858224957,
				"element": "C" 
			},
			{
				"x": 1.6628574714,
				"y": -3.6009704339,
				"z": -3.2816919023,
				"element": "C" 
			},
			{
				"x": 0.6809857139,
				"y": -4.3301347885,
				"z": -2.5870846694,
				"element": "C" 
			},
			{
				"x": -0.0795629811,
				"y": -3.7506600131,
				"z": -1.5706249774,
				"element": "C" 
			},
			{
				"x": -0.3001450721,
				"y": 5.2252586437,
				"z": 1.9945962548,
				"element": "H" 
			},
			{
				"x": -1.4964804198,
				"y": 4.4569831695,
				"z": 2.897910768,
				"element": "H" 
			},
			{
				"x": 1.1323072697,
				"y": 4.0337445495,
				"z": 0.4347355166,
				"element": "H" 
			},
			{
				"x": 1.512674702,
				"y": 1.9456995268,
				"z": -0.8233368101,
				"element": "H" 
			},
			{
				"x": -1.5344174027,
				"y": -0.0169244187,
				"z": 1.4766211067,
				"element": "H" 
			},
			{
				"x": -1.9268725655,
				"y": 2.0731979789,
				"z": 2.7489403566,
				"element": "H" 
			},
			{
				"x": 2.6777811277,
				"y": -1.6863819009,
				"z": -3.5140688696,
				"element": "H" 
			},
			{
				"x": 2.2327967978,
				"y": -4.0898235675,
				"z": -4.0659846124,
				"element": "H" 
			},
			{
				"x": 0.5130460922,
				"y": -5.3701536063,
				"z": -2.8507504965,
				"element": "H" 
			},
			{
				"x": -0.8373881999,
				"y": -4.3107397178,
				"z": -1.0331125276,
				"element": "H" 
			}
		],
		 "valence_orbital": [ 
			{
				"type": "occ",
				"energy": -0.27834,
				"method": "rhf"
			},
			{
				"type": "occ",
				"energy": -0.25559,
				"method": "rhf"
			},
			{
				"type": "occ",
				"energy": -0.24216,
				"method": "rhf"
			},
			{
				"type": "occ",
				"energy": -0.2362,
				"method": "rhf"
			},
			{
				"type": "occ",
				"energy": -0.19669,
				"method": "rhf"
			},
			{
				"type": "unocc",
				"energy": -0.03864,
				"method": "rhf"
			},
			{
				"type": "unocc",
				"energy": -0.00346,
				"method": "rhf"
			},
			{
				"type": "unocc",
				"energy": 0.01148,
				"method": "rhf"
			},
			{
				"type": "unocc",
				"energy": 0.02382,
				"method": "rhf"
			},
			{
				"type": "unocc",
				"energy": 0.06817,
				"method": "rhf"
			}
		],
		"cosmo_sigma_profile": { 
			"-0.025": 0.0,
			"-0.024": 0.0,
			"-0.023": 0.0,
			"-0.022": 0.0,
			"-0.021": 0.0,
			"-0.02": 0.0,
			"-0.019": 0.0,
			"-0.018": 0.0,
			"-0.017": 0.0,
			"-0.016": 0.0,
			"-0.015": 0.0,
			"-0.014": 0.0759572056198,
			"-0.013": 2.06717886256,
			"-0.012": 2.97349391895,
			"-0.011": 2.94863959576,
			"-0.01": 3.01341890698,
			"-0.009": 3.36280950027,
			"-0.008": 2.59641837995,
			"-0.007": 5.89933455085,
			"-0.006": 12.5124505663,
			"-0.005": 15.1404859008,
			"-0.004": 15.6161095447,
			"-0.003": 13.1321428469,
			"-0.002": 12.1064922067,
			"-0.001": 13.7119687823,
			"0.0": 14.8205328693,
			"0.001": 18.8544916744,
			"0.002": 20.1575815674,
			"0.003": 20.8574319067,
			"0.004": 24.3145705036,
			"0.005": 23.0930169761,
			"0.006": 5.14910236434,
			"0.007": 2.78981724328,
			"0.008": 1.46488060002,
			"0.009": 1.76132302921,
			"0.01": 2.4484990105,
			"0.011": 1.34566783423,
			"0.012": 1.80241983133,
			"0.013": 1.18720153097,
			"0.014": 1.01515142846,
			"0.015": 0.241842290664,
			"0.016": 0.0,
			"0.017": 0.0,
			"0.018": 0.0,
			"0.019": 0.0,
			"0.02": 0.0,
			"0.021": 0.0,
			"0.022": 0.0,
			"0.023": 0.0,
			"0.024": 0.0,
			"0.025": 0.0
		}
	}
}
