{
	 "smiles": "ON=C(C1=CC=CC=C1)C1=CC=CC=C1", 
	 "Tm": 415.15, 
	 "num_atms": 26, 
	 "gaussian": { 
		 "optdone": 1, 
		 "sigma_profile": "yes", 
		 "theory": "DFT", 
		 "functional": "B3LYP", 
		 "basiset": "6-31G**", 
		 "properties": { 
			 "R2extent": 4221.1044, 
			 "electric_dipole_moment_norm": 0.432454090049, 
			 "electric_quadrupole_moment_norm": 6.82896246585, 
			 "total_energy": -631.931016042, 
			 "HOMO_LUMO_gap": 0.17971, 
			 "cosmo_polarized_energy": -9.32, 
			 "cosmo_cavitation_energy": 30.17, 
			 "cosmo_dispersion_energy": -21.74, 
			 "cosmo_repulsion_energy": 1.72, 
			 "cosmo_total_nonelectrostatic_energy": 10.16, 
			 "SMD_solvation_energy": 5.18 
		},
		"coords": [
			{
				"x": -1.2437083513,
				"y": -0.3157723775,
				"z": -2.329826333,
				"element": "O" 
			},
			{
				"x": -0.5567747498,
				"y": 0.2381949522,
				"z": -1.2419025935,
				"element": "N" 
			},
			{
				"x": 0.3224778947,
				"y": -0.5575192221,
				"z": -0.7298281612,
				"element": "C" 
			},
			{
				"x": 0.648402882,
				"y": -1.9222379762,
				"z": -1.2386699415,
				"element": "C" 
			},
			{
				"x": 0.9235678983,
				"y": -2.1504426367,
				"z": -2.5962662928,
				"element": "C" 
			},
			{
				"x": 1.2380036705,
				"y": -3.4310808178,
				"z": -3.0476326023,
				"element": "C" 
			},
			{
				"x": 1.2685052179,
				"y": -4.5051905469,
				"z": -2.155350009,
				"element": "C" 
			},
			{
				"x": 0.9903081565,
				"y": -4.2902105477,
				"z": -0.8044997346,
				"element": "C" 
			},
			{
				"x": 0.6909190434,
				"y": -3.0068462535,
				"z": -0.3480708109,
				"element": "C" 
			},
			{
				"x": 1.0343732941,
				"y": -0.0239044662,
				"z": 0.4656291155,
				"element": "C" 
			},
			{
				"x": 0.4273144572,
				"y": 0.9443274569,
				"z": 1.2852237328,
				"element": "C" 
			},
			{
				"x": 1.1030722773,
				"y": 1.4683605084,
				"z": 2.3835293513,
				"element": "C" 
			},
			{
				"x": 2.3969668582,
				"y": 1.0357346526,
				"z": 2.6882370852,
				"element": "C" 
			},
			{
				"x": 3.0087703321,
				"y": 0.0749525961,
				"z": 1.8826942265,
				"element": "C" 
			},
			{
				"x": 2.3339977971,
				"y": -0.4525610583,
				"z": 0.7812862676,
				"element": "C" 
			},
			{
				"x": -1.8439664514,
				"y": 0.4030202499,
				"z": -2.5687869116,
				"element": "H" 
			},
			{
				"x": 0.8853550696,
				"y": -1.3216092312,
				"z": -3.2934850234,
				"element": "H" 
			},
			{
				"x": 1.4562187089,
				"y": -3.5912727112,
				"z": -4.0996628629,
				"element": "H" 
			},
			{
				"x": 1.5083114007,
				"y": -5.5032289897,
				"z": -2.5110143688,
				"element": "H" 
			},
			{
				"x": 1.0097714724,
				"y": -5.1202075713,
				"z": -0.1040108077,
				"element": "H" 
			},
			{
				"x": 0.4836204939,
				"y": -2.8410227107,
				"z": 0.7047096129,
				"element": "H" 
			},
			{
				"x": -0.5779094525,
				"y": 1.2735631638,
				"z": 1.047094225,
				"element": "H" 
			},
			{
				"x": 0.6164688937,
				"y": 2.2111292968,
				"z": 3.0095220721,
				"element": "H" 
			},
			{
				"x": 2.9208733918,
				"y": 1.4421127359,
				"z": 3.5486956841,
				"element": "H" 
			},
			{
				"x": 4.0156218147,
				"y": -0.2650047811,
				"z": 2.1080827957,
				"element": "H" 
			},
			{
				"x": 2.82063798,
				"y": -1.1941837147,
				"z": 0.1567022843,
				"element": "H" 
			}
		],
		 "valence_orbital": [ 
			{
				"type": "occ",
				"energy": -0.26969,
				"method": "rhf"
			},
			{
				"type": "occ",
				"energy": -0.25387,
				"method": "rhf"
			},
			{
				"type": "occ",
				"energy": -0.24969,
				"method": "rhf"
			},
			{
				"type": "occ",
				"energy": -0.24733,
				"method": "rhf"
			},
			{
				"type": "occ",
				"energy": -0.21908,
				"method": "rhf"
			},
			{
				"type": "unocc",
				"energy": -0.03937,
				"method": "rhf"
			},
			{
				"type": "unocc",
				"energy": -0.00772,
				"method": "rhf"
			},
			{
				"type": "unocc",
				"energy": -0.0047,
				"method": "rhf"
			},
			{
				"type": "unocc",
				"energy": 0.00655,
				"method": "rhf"
			},
			{
				"type": "unocc",
				"energy": 0.05799,
				"method": "rhf"
			}
		],
		"cosmo_sigma_profile": { 
			"-0.025": 0.0,
			"-0.024": 0.0,
			"-0.023": 0.0,
			"-0.022": 0.0,
			"-0.021": 0.0,
			"-0.02": 0.0,
			"-0.019": 0.0,
			"-0.018": 0.0899842621766,
			"-0.017": 0.82306356468,
			"-0.016": 1.21991678885,
			"-0.015": 0.985952174641,
			"-0.014": 0.396217287403,
			"-0.013": 0.73561242506,
			"-0.012": 0.685196381628,
			"-0.011": 0.650834262667,
			"-0.01": 0.672918290537,
			"-0.009": 0.644922068423,
			"-0.008": 0.447870511674,
			"-0.007": 1.15088820911,
			"-0.006": 10.7169319284,
			"-0.005": 19.5724147259,
			"-0.004": 22.1474144921,
			"-0.003": 19.1308775102,
			"-0.002": 14.5765116332,
			"-0.001": 16.6261270819,
			"0.0": 15.2164930501,
			"0.001": 17.916577074,
			"0.002": 15.9036045827,
			"0.003": 17.6538184775,
			"0.004": 20.2918748999,
			"0.005": 21.9306146096,
			"0.006": 7.5582811329,
			"0.007": 4.01661765502,
			"0.008": 3.24473802028,
			"0.009": 2.04949203851,
			"0.01": 2.2932689662,
			"0.011": 1.71256789986,
			"0.012": 0.495663883835,
			"0.013": 0.0,
			"0.014": 0.0,
			"0.015": 0.0,
			"0.016": 0.0,
			"0.017": 0.0,
			"0.018": 0.0,
			"0.019": 0.0,
			"0.02": 0.0,
			"0.021": 0.0,
			"0.022": 0.0,
			"0.023": 0.0,
			"0.024": 0.0,
			"0.025": 0.0
		}
	}
}
