{
	 "smiles": "OC(=O)C1=C(SC2CCS(=O)(=O)C2)C=CC=C1", 
	 "Tm": 439.15, 
	 "num_atms": 29, 
	 "gaussian": { 
		 "optdone": 1, 
		 "sigma_profile": "yes", 
		 "theory": "DFT", 
		 "functional": "B3LYP", 
		 "basiset": "6-31G**", 
		 "properties": { 
			 "R2extent": 5466.5415, 
			 "electric_dipole_moment_norm": 1.61493044432, 
			 "electric_quadrupole_moment_norm": 41.1035994586, 
			 "total_energy": -1523.61803282, 
			 "HOMO_LUMO_gap": 0.20097, 
			 "cosmo_polarized_energy": -23.23, 
			 "cosmo_cavitation_energy": 34.3, 
			 "cosmo_dispersion_energy": -25.22, 
			 "cosmo_repulsion_energy": 1.84, 
			 "cosmo_total_nonelectrostatic_energy": 10.92, 
			 "SMD_solvation_energy": 5.43 
		},
		"coords": [
			{
				"x": -2.3888709854,
				"y": -0.008382319,
				"z": -0.7341961902,
				"element": "O" 
			},
			{
				"x": -2.0214143763,
				"y": -1.2779684556,
				"z": -0.4828191588,
				"element": "C" 
			},
			{
				"x": -2.8031812323,
				"y": -2.0448642881,
				"z": 0.0347196129,
				"element": "O" 
			},
			{
				"x": -0.62030782,
				"y": -1.7260631153,
				"z": -0.8605360435,
				"element": "C" 
			},
			{
				"x": 0.4799268411,
				"y": -0.911405781,
				"z": -1.2200112834,
				"element": "C" 
			},
			{
				"x": 0.3982721946,
				"y": 0.8811503739,
				"z": -1.3882105255,
				"element": "S" 
			},
			{
				"x": 0.5085471434,
				"y": 1.4827031401,
				"z": 0.3779572408,
				"element": "C" 
			},
			{
				"x": 0.7720098649,
				"y": 3.0076170323,
				"z": 0.3298924286,
				"element": "C" 
			},
			{
				"x": 2.2440877915,
				"y": 3.2323808184,
				"z": -0.0387865513,
				"element": "C" 
			},
			{
				"x": 3.1623204073,
				"y": 1.8388725713,
				"z": 0.738469823,
				"element": "S" 
			},
			{
				"x": 3.9384579717,
				"y": 1.1213072035,
				"z": -0.286551662,
				"element": "O" 
			},
			{
				"x": 3.8053809796,
				"y": 2.2993010377,
				"z": 1.9785271249,
				"element": "O" 
			},
			{
				"x": 1.660874587,
				"y": 0.8643869451,
				"z": 1.1681225207,
				"element": "C" 
			},
			{
				"x": 1.721268884,
				"y": -1.4956199594,
				"z": -1.5126989906,
				"element": "C" 
			},
			{
				"x": 1.8841716581,
				"y": -2.8799116125,
				"z": -1.4646035786,
				"element": "C" 
			},
			{
				"x": 0.8054118273,
				"y": -3.6908145699,
				"z": -1.1132734512,
				"element": "C" 
			},
			{
				"x": -0.4241993087,
				"y": -3.1147263435,
				"z": -0.8074051184,
				"element": "C" 
			},
			{
				"x": -1.6688219081,
				"y": 0.4772988704,
				"z": -1.1938595586,
				"element": "H" 
			},
			{
				"x": -0.4499479701,
				"y": 1.2645109123,
				"z": 0.854565248,
				"element": "H" 
			},
			{
				"x": 0.1037675367,
				"y": 3.5139676322,
				"z": -0.3726290201,
				"element": "H" 
			},
			{
				"x": 0.5667863071,
				"y": 3.4154897162,
				"z": 1.3256716073,
				"element": "H" 
			},
			{
				"x": 2.4274492398,
				"y": 3.1638854172,
				"z": -1.1120507853,
				"element": "H" 
			},
			{
				"x": 2.6638365454,
				"y": 4.157640816,
				"z": 0.3578448587,
				"element": "H" 
			},
			{
				"x": 1.8621707686,
				"y": -0.1847207612,
				"z": 0.9496670435,
				"element": "H" 
			},
			{
				"x": 1.5047132266,
				"y": 0.9953474742,
				"z": 2.242359035,
				"element": "H" 
			},
			{
				"x": 2.5588435922,
				"y": -0.8510911394,
				"z": -1.7589422646,
				"element": "H" 
			},
			{
				"x": 2.8514734809,
				"y": -3.3155960256,
				"z": -1.6956143127,
				"element": "H" 
			},
			{
				"x": 0.9208714213,
				"y": -4.7695779647,
				"z": -1.0710470962,
				"element": "H" 
			},
			{
				"x": -1.271298668,
				"y": -3.7247176256,
				"z": -0.5150609524,
				"element": "H" 
			}
		],
		 "valence_orbital": [ 
			{
				"type": "occ",
				"energy": -0.29356,
				"method": "rhf"
			},
			{
				"type": "occ",
				"energy": -0.28292,
				"method": "rhf"
			},
			{
				"type": "occ",
				"energy": -0.28028,
				"method": "rhf"
			},
			{
				"type": "occ",
				"energy": -0.27424,
				"method": "rhf"
			},
			{
				"type": "occ",
				"energy": -0.26998,
				"method": "rhf"
			},
			{
				"type": "unocc",
				"energy": -0.06901,
				"method": "rhf"
			},
			{
				"type": "unocc",
				"energy": -0.03917,
				"method": "rhf"
			},
			{
				"type": "unocc",
				"energy": 0.00672,
				"method": "rhf"
			},
			{
				"type": "unocc",
				"energy": 0.03094,
				"method": "rhf"
			},
			{
				"type": "unocc",
				"energy": 0.03826,
				"method": "rhf"
			}
		],
		"cosmo_sigma_profile": { 
			"-0.025": 0.0,
			"-0.024": 0.0,
			"-0.023": 0.0,
			"-0.022": 0.0,
			"-0.021": 0.0,
			"-0.02": 0.0,
			"-0.019": 0.0,
			"-0.018": 0.0,
			"-0.017": 0.0,
			"-0.016": 0.0,
			"-0.015": 0.0,
			"-0.014": 0.0,
			"-0.013": 0.0,
			"-0.012": 0.0,
			"-0.011": 0.00740293939303,
			"-0.01": 0.689609591782,
			"-0.009": 4.38170475641,
			"-0.008": 9.45224539731,
			"-0.007": 23.6658787607,
			"-0.006": 25.4924126852,
			"-0.005": 26.2423042179,
			"-0.004": 18.7950287979,
			"-0.003": 13.5648555629,
			"-0.002": 10.9427693495,
			"-0.001": 13.852744222,
			"0.0": 14.1313299878,
			"0.001": 15.597806085,
			"0.002": 16.1627864711,
			"0.003": 10.8340796779,
			"0.004": 5.86075237611,
			"0.005": 6.41869217294,
			"0.006": 4.70266144365,
			"0.007": 4.09210322672,
			"0.008": 4.83445028461,
			"0.009": 6.24529270031,
			"0.01": 8.67854189164,
			"0.011": 13.719198419,
			"0.012": 13.2334721479,
			"0.013": 2.89779398616,
			"0.014": 0.102691700013,
			"0.015": 0.0,
			"0.016": 0.0,
			"0.017": 0.0,
			"0.018": 0.0,
			"0.019": 0.0,
			"0.02": 0.0,
			"0.021": 0.0,
			"0.022": 0.0,
			"0.023": 0.0,
			"0.024": 0.0,
			"0.025": 0.0
		}
	}
}
