{
	 "smiles": "CC1=C(NC(=S)C2=CC(=C(O)C(=C2)C(C)(C)C)C(C)(C)C)C=CC=C1", 
	 "Tm": 531.15, 
	 "num_atms": 54, 
	 "gaussian": { 
		 "optdone": 1, 
		 "sigma_profile": "yes", 
		 "theory": "DFT", 
		 "functional": "B3LYP", 
		 "basiset": "6-31G**", 
		 "properties": { 
			 "R2extent": 10423.4324, 
			 "electric_dipole_moment_norm": 3.67343647556, 
			 "electric_quadrupole_moment_norm": 31.2271504646, 
			 "total_energy": -1384.01558505, 
			 "HOMO_LUMO_gap": 0.14185, 
			 "cosmo_polarized_energy": -15.05, 
			 "cosmo_cavitation_energy": 53.68, 
			 "cosmo_dispersion_energy": -34.58, 
			 "cosmo_repulsion_energy": 2.61, 
			 "cosmo_total_nonelectrostatic_energy": 21.71, 
			 "SMD_solvation_energy": 8.44 
		},
		"coords": [
			{
				"x": -2.3686030547,
				"y": -2.833802679,
				"z": -2.8275111981,
				"element": "C" 
			},
			{
				"x": -2.7233775247,
				"y": -1.9613007186,
				"z": -1.6476038334,
				"element": "C" 
			},
			{
				"x": -1.9599025189,
				"y": -1.9967696557,
				"z": -0.4617708995,
				"element": "C" 
			},
			{
				"x": -0.8744696256,
				"y": -2.9142157269,
				"z": -0.3958581371,
				"element": "N" 
			},
			{
				"x": 0.293325824,
				"y": -2.8659141143,
				"z": 0.3144710412,
				"element": "C" 
			},
			{
				"x": 1.0910886974,
				"y": -4.2991912919,
				"z": 0.6589615013,
				"element": "S" 
			},
			{
				"x": 0.8481611292,
				"y": -1.5411778159,
				"z": 0.6793338694,
				"element": "C" 
			},
			{
				"x": 0.7437289063,
				"y": -0.4440710004,
				"z": -0.1881381587,
				"element": "C" 
			},
			{
				"x": 1.3174337239,
				"y": 0.793381933,
				"z": 0.0998223998,
				"element": "C" 
			},
			{
				"x": 2.006820856,
				"y": 0.9107505414,
				"z": 1.3334822148,
				"element": "C" 
			},
			{
				"x": 2.5456713843,
				"y": 2.1412430723,
				"z": 1.6043920672,
				"element": "O" 
			},
			{
				"x": 2.1406166572,
				"y": -0.1714151101,
				"z": 2.2412988853,
				"element": "C" 
			},
			{
				"x": 1.558184361,
				"y": -1.3852221252,
				"z": 1.8737920285,
				"element": "C" 
			},
			{
				"x": 2.9027410864,
				"y": -0.0383501973,
				"z": 3.5843116843,
				"element": "C" 
			},
			{
				"x": 2.2270040829,
				"y": 1.0182800967,
				"z": 4.5004898927,
				"element": "C" 
			},
			{
				"x": 2.897220145,
				"y": -1.3621335858,
				"z": 4.3786079214,
				"element": "C" 
			},
			{
				"x": 4.3969163614,
				"y": 0.3076472886,
				"z": 3.3373367912,
				"element": "C" 
			},
			{
				"x": 1.1964513186,
				"y": 1.9776514655,
				"z": -0.887902481,
				"element": "C" 
			},
			{
				"x": 0.4318468181,
				"y": 3.1503314459,
				"z": -0.2241327127,
				"element": "C" 
			},
			{
				"x": 2.5997326054,
				"y": 2.4455199651,
				"z": -1.3472849968,
				"element": "C" 
			},
			{
				"x": 0.4105152345,
				"y": 1.5835420141,
				"z": -2.1564291894,
				"element": "C" 
			},
			{
				"x": -2.309005295,
				"y": -1.1957184255,
				"z": 0.6332463628,
				"element": "C" 
			},
			{
				"x": -3.3972694249,
				"y": -0.3309890216,
				"z": 0.5487071269,
				"element": "C" 
			},
			{
				"x": -4.158205576,
				"y": -0.2771886444,
				"z": -0.6199248205,
				"element": "C" 
			},
			{
				"x": -3.8204816136,
				"y": -1.0938036378,
				"z": -1.6988483805,
				"element": "C" 
			},
			{
				"x": -2.5530653185,
				"y": -3.8975691322,
				"z": -2.623768064,
				"element": "H" 
			},
			{
				"x": -2.9675443901,
				"y": -2.5664431517,
				"z": -3.7014477925,
				"element": "H" 
			},
			{
				"x": -1.3106551106,
				"y": -2.7400247155,
				"z": -3.0954467555,
				"element": "H" 
			},
			{
				"x": -1.0707994077,
				"y": -3.8471044912,
				"z": -0.7419068038,
				"element": "H" 
			},
			{
				"x": 0.2181660606,
				"y": -0.5774852092,
				"z": -1.1228456973,
				"element": "H" 
			},
			{
				"x": 3.0166001341,
				"y": 2.1129768862,
				"z": 2.4431218775,
				"element": "H" 
			},
			{
				"x": 1.6445712587,
				"y": -2.2523548391,
				"z": 2.5133497607,
				"element": "H" 
			},
			{
				"x": 2.16082029,
				"y": 2.0213278198,
				"z": 4.0672960326,
				"element": "H" 
			},
			{
				"x": 2.7775802069,
				"y": 1.1068282564,
				"z": 5.4431580895,
				"element": "H" 
			},
			{
				"x": 1.2025179655,
				"y": 0.7125849714,
				"z": 4.7339983586,
				"element": "H" 
			},
			{
				"x": 3.4449995168,
				"y": -1.2215614303,
				"z": 5.3158819684,
				"element": "H" 
			},
			{
				"x": 3.3839575129,
				"y": -2.1725666596,
				"z": 3.8285639694,
				"element": "H" 
			},
			{
				"x": 1.8825293716,
				"y": -1.6814267844,
				"z": 4.6343827397,
				"element": "H" 
			},
			{
				"x": 4.8743648655,
				"y": -0.4861724678,
				"z": 2.7552670347,
				"element": "H" 
			},
			{
				"x": 4.5667657538,
				"y": 1.239781122,
				"z": 2.788353235,
				"element": "H" 
			},
			{
				"x": 4.925741946,
				"y": 0.3951463596,
				"z": 4.2924347119,
				"element": "H" 
			},
			{
				"x": -0.5755666341,
				"y": 2.8350757662,
				"z": 0.0687821621,
				"element": "H" 
			},
			{
				"x": 0.9471748705,
				"y": 3.523249655,
				"z": 0.661233571,
				"element": "H" 
			},
			{
				"x": 0.3304439935,
				"y": 3.9778242665,
				"z": -0.9357413434,
				"element": "H" 
			},
			{
				"x": 2.5002744799,
				"y": 3.2692129489,
				"z": -2.0635321678,
				"element": "H" 
			},
			{
				"x": 3.1331861809,
				"y": 1.6298416024,
				"z": -1.8474129156,
				"element": "H" 
			},
			{
				"x": 3.2078566261,
				"y": 2.7919842355,
				"z": -0.5116105209,
				"element": "H" 
			},
			{
				"x": 0.9033559064,
				"y": 0.7800573887,
				"z": -2.7141253037,
				"element": "H" 
			},
			{
				"x": -0.6136084449,
				"y": 1.2697950296,
				"z": -1.9293343271,
				"element": "H" 
			},
			{
				"x": 0.3482085988,
				"y": 2.4512458562,
				"z": -2.8208122133,
				"element": "H" 
			},
			{
				"x": -1.7266316865,
				"y": -1.2560076775,
				"z": 1.5451749186,
				"element": "H" 
			},
			{
				"x": -3.6568314425,
				"y": 0.2880954174,
				"z": 1.402292894,
				"element": "H" 
			},
			{
				"x": -5.0106732976,
				"y": 0.3916080393,
				"z": -0.6902818427,
				"element": "H" 
			},
			{
				"x": -4.4132843641,
				"y": -1.0566031351,
				"z": -2.6091745551,
				"element": "H" 
			}
		],
		 "valence_orbital": [ 
			{
				"type": "occ",
				"energy": -0.25259,
				"method": "rhf"
			},
			{
				"type": "occ",
				"energy": -0.24376,
				"method": "rhf"
			},
			{
				"type": "occ",
				"energy": -0.22005,
				"method": "rhf"
			},
			{
				"type": "occ",
				"energy": -0.21461,
				"method": "rhf"
			},
			{
				"type": "occ",
				"energy": -0.19783,
				"method": "rhf"
			},
			{
				"type": "unocc",
				"energy": -0.05598,
				"method": "rhf"
			},
			{
				"type": "unocc",
				"energy": -0.01024,
				"method": "rhf"
			},
			{
				"type": "unocc",
				"energy": -0.00359,
				"method": "rhf"
			},
			{
				"type": "unocc",
				"energy": 0.00424,
				"method": "rhf"
			},
			{
				"type": "unocc",
				"energy": 0.03234,
				"method": "rhf"
			}
		],
		"cosmo_sigma_profile": { 
			"-0.025": 0.0,
			"-0.024": 0.0,
			"-0.023": 0.0,
			"-0.022": 0.0,
			"-0.021": 0.0,
			"-0.02": 0.0,
			"-0.019": 0.0,
			"-0.018": 0.0,
			"-0.017": 0.0,
			"-0.016": 0.0437685798344,
			"-0.015": 0.437515968093,
			"-0.014": 0.544638337698,
			"-0.013": 1.00090270521,
			"-0.012": 2.19783618213,
			"-0.011": 1.68168468508,
			"-0.01": 1.517118792,
			"-0.009": 2.07688223173,
			"-0.008": 1.52263299918,
			"-0.007": 2.41284718419,
			"-0.006": 7.07017286705,
			"-0.005": 14.5295493445,
			"-0.004": 23.6684461969,
			"-0.003": 44.3493154845,
			"-0.002": 49.7399224655,
			"-0.001": 51.520291682,
			"0.0": 50.4667410595,
			"0.001": 44.5614768241,
			"0.002": 31.7564025937,
			"0.003": 22.0944270966,
			"0.004": 22.7627445835,
			"0.005": 12.63556149,
			"0.006": 7.07169205375,
			"0.007": 4.91366055568,
			"0.008": 5.54618386646,
			"0.009": 6.68219579681,
			"0.01": 4.65466739031,
			"0.011": 3.70949338987,
			"0.012": 2.02725978685,
			"0.013": 0.188765349477,
			"0.014": 0.0,
			"0.015": 0.0,
			"0.016": 0.0,
			"0.017": 0.0,
			"0.018": 0.0,
			"0.019": 0.0,
			"0.02": 0.0,
			"0.021": 0.0,
			"0.022": 0.0,
			"0.023": 0.0,
			"0.024": 0.0,
			"0.025": 0.0
		}
	}
}
