{
	 "smiles": "OC1=CC2=C(C[C@H]3NCC[C@@]22CCCCC32)C=C1", 
	 "Tm": 544.15, 
	 "num_atms": 39, 
	 "gaussian": { 
		 "optdone": 1, 
		 "sigma_profile": "yes", 
		 "theory": "DFT", 
		 "functional": "B3LYP", 
		 "basiset": "6-31G**", 
		 "properties": { 
			 "R2extent": 4148.8179, 
			 "electric_dipole_moment_norm": 1.43700148225, 
			 "electric_quadrupole_moment_norm": 14.0231445999, 
			 "total_energy": -752.333565757, 
			 "HOMO_LUMO_gap": 0.2009, 
			 "cosmo_polarized_energy": -10.09, 
			 "cosmo_cavitation_energy": 35.38, 
			 "cosmo_dispersion_energy": -26.23, 
			 "cosmo_repulsion_energy": 1.98, 
			 "cosmo_total_nonelectrostatic_energy": 11.14, 
			 "SMD_solvation_energy": 2.39 
		},
		"coords": [
			{
				"x": -2.359175396,
				"y": 2.0277940681,
				"z": 2.8629905454,
				"element": "O" 
			},
			{
				"x": -1.2958774024,
				"y": 1.9602501143,
				"z": 2.0030860018,
				"element": "C" 
			},
			{
				"x": -1.1775055527,
				"y": 0.81446971,
				"z": 1.2165710862,
				"element": "C" 
			},
			{
				"x": -0.1236658367,
				"y": 0.6544038606,
				"z": 0.3057885787,
				"element": "C" 
			},
			{
				"x": 0.8438749483,
				"y": 1.6772803803,
				"z": 0.202587378,
				"element": "C" 
			},
			{
				"x": 2.0289589049,
				"y": 1.5482180861,
				"z": -0.7359805384,
				"element": "C" 
			},
			{
				"x": 2.262100616,
				"y": 0.0867800965,
				"z": -1.1200855581,
				"element": "C" 
			},
			{
				"x": 2.7217472106,
				"y": -0.6646224783,
				"z": 0.0751787859,
				"element": "N" 
			},
			{
				"x": 2.0179208459,
				"y": -1.9259187198,
				"z": 0.3230102228,
				"element": "C" 
			},
			{
				"x": 0.467357555,
				"y": -1.8187038851,
				"z": 0.365097622,
				"element": "C" 
			},
			{
				"x": -0.0572250321,
				"y": -0.6446869759,
				"z": -0.5257121413,
				"element": "C" 
			},
			{
				"x": -1.4760328847,
				"y": -0.9673884978,
				"z": -1.1046382535,
				"element": "C" 
			},
			{
				"x": -1.4072044982,
				"y": -1.6162211205,
				"z": -2.4934209888,
				"element": "C" 
			},
			{
				"x": -0.7624061146,
				"y": -0.6617603263,
				"z": -3.5265601919,
				"element": "C" 
			},
			{
				"x": 0.3495746019,
				"y": 0.2153738061,
				"z": -2.8934194054,
				"element": "C" 
			},
			{
				"x": 0.9607312654,
				"y": -0.5098921033,
				"z": -1.6888620844,
				"element": "C" 
			},
			{
				"x": 0.7110535433,
				"y": 2.8200638731,
				"z": 1.0012790514,
				"element": "C" 
			},
			{
				"x": -0.3456167933,
				"y": 2.9795162613,
				"z": 1.8925434867,
				"element": "C" 
			},
			{
				"x": -2.3221109426,
				"y": 2.8657405732,
				"z": 3.3417257422,
				"element": "H" 
			},
			{
				"x": -1.9339355761,
				"y": 0.0451584797,
				"z": 1.3323797957,
				"element": "H" 
			},
			{
				"x": 1.8753528709,
				"y": 2.1471260043,
				"z": -1.6430923542,
				"element": "H" 
			},
			{
				"x": 2.9315561446,
				"y": 1.9515088134,
				"z": -0.2583888902,
				"element": "H" 
			},
			{
				"x": 3.0417815107,
				"y": 0.038710853,
				"z": -1.8954031503,
				"element": "H" 
			},
			{
				"x": 2.6202821409,
				"y": -0.0731157494,
				"z": 0.8944101349,
				"element": "H" 
			},
			{
				"x": 2.3159158823,
				"y": -2.6400748269,
				"z": -0.4540587613,
				"element": "H" 
			},
			{
				"x": 2.3949699085,
				"y": -2.3389979394,
				"z": 1.264501503,
				"element": "H" 
			},
			{
				"x": 0.1123668948,
				"y": -1.6837107862,
				"z": 1.3927934436,
				"element": "H" 
			},
			{
				"x": 0.037624066,
				"y": -2.7639436171,
				"z": 0.0069397359,
				"element": "H" 
			},
			{
				"x": -2.0260211608,
				"y": -1.612765212,
				"z": -0.4093372189,
				"element": "H" 
			},
			{
				"x": -2.0560788203,
				"y": -0.0409833089,
				"z": -1.1854811818,
				"element": "H" 
			},
			{
				"x": -2.4126367961,
				"y": -1.9019793122,
				"z": -2.8226518942,
				"element": "H" 
			},
			{
				"x": -0.8343927561,
				"y": -2.5504544982,
				"z": -2.4353746021,
				"element": "H" 
			},
			{
				"x": -0.3506958701,
				"y": -1.2507153596,
				"z": -4.3547143828,
				"element": "H" 
			},
			{
				"x": -1.5323114575,
				"y": -0.0147548018,
				"z": -3.9630708177,
				"element": "H" 
			},
			{
				"x": -0.0723505913,
				"y": 1.1746578461,
				"z": -2.5711150543,
				"element": "H" 
			},
			{
				"x": 1.1204644713,
				"y": 0.4501346618,
				"z": -3.6378437688,
				"element": "H" 
			},
			{
				"x": 1.1993031985,
				"y": -1.5242205458,
				"z": -2.0334576439,
				"element": "H" 
			},
			{
				"x": 1.4606487265,
				"y": 3.6046898139,
				"z": 0.9249263938,
				"element": "H" 
			},
			{
				"x": -0.4247418246,
				"y": 3.8778327625,
				"z": 2.5014593743,
				"element": "H" 
			}
		],
		 "valence_orbital": [ 
			{
				"type": "occ",
				"energy": -0.28447,
				"method": "rhf"
			},
			{
				"type": "occ",
				"energy": -0.28076,
				"method": "rhf"
			},
			{
				"type": "occ",
				"energy": -0.23959,
				"method": "rhf"
			},
			{
				"type": "occ",
				"energy": -0.21314,
				"method": "rhf"
			},
			{
				"type": "occ",
				"energy": -0.20196,
				"method": "rhf"
			},
			{
				"type": "unocc",
				"energy": -0.00106,
				"method": "rhf"
			},
			{
				"type": "unocc",
				"energy": 0.01713,
				"method": "rhf"
			},
			{
				"type": "unocc",
				"energy": 0.07364,
				"method": "rhf"
			},
			{
				"type": "unocc",
				"energy": 0.07819,
				"method": "rhf"
			},
			{
				"type": "unocc",
				"energy": 0.10045,
				"method": "rhf"
			}
		],
		"cosmo_sigma_profile": { 
			"-0.025": 0.0,
			"-0.024": 0.0,
			"-0.023": 0.0,
			"-0.022": 0.0,
			"-0.021": 0.0,
			"-0.02": 0.0,
			"-0.019": 0.0,
			"-0.018": 0.127692152259,
			"-0.017": 0.900437334645,
			"-0.016": 1.0068976439,
			"-0.015": 1.13054591196,
			"-0.014": 0.922332320675,
			"-0.013": 1.16343474819,
			"-0.012": 0.494822936023,
			"-0.011": 0.75582449531,
			"-0.01": 1.29695358243,
			"-0.009": 1.20492524923,
			"-0.008": 1.73051462985,
			"-0.007": 1.5902145128,
			"-0.006": 3.03453073406,
			"-0.005": 5.19779300421,
			"-0.004": 9.35295294457,
			"-0.003": 21.2792979588,
			"-0.002": 41.4162714739,
			"-0.001": 48.7323536748,
			"0.0": 39.1816756655,
			"0.001": 26.8994712098,
			"0.002": 12.1412966105,
			"0.003": 7.1445184844,
			"0.004": 8.62727898549,
			"0.005": 10.0704221095,
			"0.006": 8.4354922272,
			"0.007": 4.28814543329,
			"0.008": 2.22405983244,
			"0.009": 2.40092295295,
			"0.01": 2.30184606876,
			"0.011": 2.14772603754,
			"0.012": 2.43358991938,
			"0.013": 0.739811381447,
			"0.014": 0.75216661397,
			"0.015": 0.737575418006,
			"0.016": 0.331308232413,
			"0.017": 0.59724735827,
			"0.018": 0.614589332889,
			"0.019": 0.272235738577,
			"0.02": 0.0,
			"0.021": 0.0,
			"0.022": 0.0,
			"0.023": 0.0,
			"0.024": 0.0,
			"0.025": 0.0
		}
	}
}
