{
	 "smiles": "ClC(=O)C1=C(Cl)C=CC=C1", 
	 "Tm": 269.15, 
	 "num_atms": 14, 
	 "gaussian": { 
		 "optdone": 1, 
		 "sigma_profile": "yes", 
		 "theory": "DFT", 
		 "functional": "B3LYP", 
		 "basiset": "6-31G**", 
		 "properties": { 
			 "R2extent": 4157.2861, 
			 "electric_dipole_moment_norm": 4.71456345805, 
			 "electric_quadrupole_moment_norm": 17.1919317431, 
			 "total_energy": -1264.76205074, 
			 "HOMO_LUMO_gap": 0.18546, 
			 "cosmo_polarized_energy": -7.04, 
			 "cosmo_cavitation_energy": 22.17, 
			 "cosmo_dispersion_energy": -16.76, 
			 "cosmo_repulsion_energy": 1.36, 
			 "cosmo_total_nonelectrostatic_energy": 6.76, 
			 "SMD_solvation_energy": 4.16 
		},
		"coords": [
			{
				"x": -4.6711578874,
				"y": 1.7423759315,
				"z": -1.9591106266,
				"element": "Cl" 
			},
			{
				"x": -3.7216116576,
				"y": 0.9292588703,
				"z": -0.6013627379,
				"element": "C" 
			},
			{
				"x": -4.2023732808,
				"y": 0.9160106154,
				"z": 0.4867986627,
				"element": "O" 
			},
			{
				"x": -2.4195329036,
				"y": 0.3536833023,
				"z": -1.0283959631,
				"element": "C" 
			},
			{
				"x": -1.7775523021,
				"y": -0.6511410226,
				"z": -0.2666119184,
				"element": "C" 
			},
			{
				"x": -2.485191602,
				"y": -1.3612324412,
				"z": 1.1629418104,
				"element": "Cl" 
			},
			{
				"x": -0.5362346796,
				"y": -1.1511688694,
				"z": -0.6643437408,
				"element": "C" 
			},
			{
				"x": 0.09190892,
				"y": -0.6529133496,
				"z": -1.8031915263,
				"element": "C" 
			},
			{
				"x": -0.5228637234,
				"y": 0.3429847352,
				"z": -2.56289394,
				"element": "C" 
			},
			{
				"x": -1.7666052888,
				"y": 0.8293236441,
				"z": -2.179771272,
				"element": "C" 
			},
			{
				"x": -0.071641486,
				"y": -1.9314789557,
				"z": -0.0723870377,
				"element": "H" 
			},
			{
				"x": 1.0602849768,
				"y": -1.0482895706,
				"z": -2.094508515,
				"element": "H" 
			},
			{
				"x": -0.0398901225,
				"y": 0.7365023678,
				"z": -3.4511098643,
				"element": "H" 
			},
			{
				"x": -2.251638963,
				"y": 1.5982847426,
				"z": -2.7674533309,
				"element": "H" 
			}
		],
		 "valence_orbital": [ 
			{
				"type": "occ",
				"energy": -0.32207,
				"method": "rhf"
			},
			{
				"type": "occ",
				"energy": -0.31915,
				"method": "rhf"
			},
			{
				"type": "occ",
				"energy": -0.29122,
				"method": "rhf"
			},
			{
				"type": "occ",
				"energy": -0.28655,
				"method": "rhf"
			},
			{
				"type": "occ",
				"energy": -0.26897,
				"method": "rhf"
			},
			{
				"type": "unocc",
				"energy": -0.08351,
				"method": "rhf"
			},
			{
				"type": "unocc",
				"energy": -0.03581,
				"method": "rhf"
			},
			{
				"type": "unocc",
				"energy": 0.00195,
				"method": "rhf"
			},
			{
				"type": "unocc",
				"energy": 0.01198,
				"method": "rhf"
			},
			{
				"type": "unocc",
				"energy": 0.02927,
				"method": "rhf"
			}
		],
		"cosmo_sigma_profile": { 
			"-0.025": 0.0,
			"-0.024": 0.0,
			"-0.023": 0.0,
			"-0.022": 0.0,
			"-0.021": 0.0,
			"-0.02": 0.0,
			"-0.019": 0.0,
			"-0.018": 0.0,
			"-0.017": 0.0,
			"-0.016": 0.0,
			"-0.015": 0.0,
			"-0.014": 0.0,
			"-0.013": 0.0,
			"-0.012": 0.0,
			"-0.011": 0.0,
			"-0.01": 0.0,
			"-0.009": 0.0573880478051,
			"-0.008": 4.33534319393,
			"-0.007": 9.35996059768,
			"-0.006": 8.71260986508,
			"-0.005": 9.33104877029,
			"-0.004": 8.36298957603,
			"-0.003": 9.82169295764,
			"-0.002": 11.0447255438,
			"-0.001": 14.4799405521,
			"0.0": 20.2152056963,
			"0.001": 21.3163545066,
			"0.002": 17.2121991732,
			"0.003": 13.179980907,
			"0.004": 13.4851695296,
			"0.005": 7.52340320088,
			"0.006": 4.11854626298,
			"0.007": 3.07751572611,
			"0.008": 5.31758410111,
			"0.009": 2.56143156511,
			"0.01": 0.00409927482787,
			"0.011": 0.0,
			"0.012": 0.0,
			"0.013": 0.0,
			"0.014": 0.0,
			"0.015": 0.0,
			"0.016": 0.0,
			"0.017": 0.0,
			"0.018": 0.0,
			"0.019": 0.0,
			"0.02": 0.0,
			"0.021": 0.0,
			"0.022": 0.0,
			"0.023": 0.0,
			"0.024": 0.0,
			"0.025": 0.0
		}
	}
}
