{
	 "smiles": "COC1=C(C=CC(NC(C)=O)=C1)C(C)=O", 
	 "Tm": 404.15, 
	 "num_atms": 28, 
	 "gaussian": { 
		 "optdone": 1, 
		 "sigma_profile": "yes", 
		 "theory": "DFT", 
		 "functional": "B3LYP", 
		 "basiset": "6-31G**", 
		 "properties": { 
			 "R2extent": 4244.1607, 
			 "electric_dipole_moment_norm": 4.26770513274, 
			 "electric_quadrupole_moment_norm": 29.0015332979, 
			 "total_energy": -707.443570404, 
			 "HOMO_LUMO_gap": 0.17458, 
			 "cosmo_polarized_energy": -16.8, 
			 "cosmo_cavitation_energy": 31.86, 
			 "cosmo_dispersion_energy": -22.85, 
			 "cosmo_repulsion_energy": 1.78, 
			 "cosmo_total_nonelectrostatic_energy": 10.78, 
			 "SMD_solvation_energy": 7.74 
		},
		"coords": [
			{
				"x": -2.5820494895,
				"y": -0.124374898,
				"z": 0.1917716802,
				"element": "C" 
			},
			{
				"x": -1.7727598297,
				"y": 0.9781459279,
				"z": -0.2030310756,
				"element": "O" 
			},
			{
				"x": -0.4587674896,
				"y": 0.7685627347,
				"z": -0.4884095242,
				"element": "C" 
			},
			{
				"x": 0.3153420582,
				"y": 1.8900892749,
				"z": -0.8777360958,
				"element": "C" 
			},
			{
				"x": 1.6704340459,
				"y": 1.6633036866,
				"z": -1.1700850102,
				"element": "C" 
			},
			{
				"x": 2.2503402538,
				"y": 0.4100417999,
				"z": -1.0898647776,
				"element": "C" 
			},
			{
				"x": 1.4658587146,
				"y": -0.6892669562,
				"z": -0.7019030838,
				"element": "C" 
			},
			{
				"x": 2.0961694989,
				"y": -1.9448874815,
				"z": -0.6338851921,
				"element": "N" 
			},
			{
				"x": 1.5645443567,
				"y": -3.1695074039,
				"z": -0.2807640659,
				"element": "C" 
			},
			{
				"x": 2.5642139117,
				"y": -4.3166165396,
				"z": -0.2942364596,
				"element": "C" 
			},
			{
				"x": 0.3959982453,
				"y": -3.3436478025,
				"z": 0.0341406231,
				"element": "O" 
			},
			{
				"x": 0.1110493282,
				"y": -0.5080184135,
				"z": -0.4015435862,
				"element": "C" 
			},
			{
				"x": -0.1603817288,
				"y": 3.3075387453,
				"z": -1.0130080898,
				"element": "C" 
			},
			{
				"x": -1.6000673828,
				"y": 3.6875364056,
				"z": -0.7283892197,
				"element": "C" 
			},
			{
				"x": 0.6326970931,
				"y": 4.1751105974,
				"z": -1.3611171533,
				"element": "O" 
			},
			{
				"x": -2.6334724916,
				"y": -0.887479891,
				"z": -0.5933133606,
				"element": "H" 
			},
			{
				"x": -3.5773375619,
				"y": 0.2880308777,
				"z": 0.3629881079,
				"element": "H" 
			},
			{
				"x": -2.2134851972,
				"y": -0.5835840755,
				"z": 1.1162349003,
				"element": "H" 
			},
			{
				"x": 2.2546124105,
				"y": 2.5275000604,
				"z": -1.4670116927,
				"element": "H" 
			},
			{
				"x": 3.3033354268,
				"y": 0.275978136,
				"z": -1.3245754341,
				"element": "H" 
			},
			{
				"x": 3.0767218099,
				"y": -1.9374377091,
				"z": -0.8740850281,
				"element": "H" 
			},
			{
				"x": 2.7293623323,
				"y": -4.6508760548,
				"z": 0.7345962765,
				"element": "H" 
			},
			{
				"x": 2.1236367541,
				"y": -5.1527680194,
				"z": -0.841942359,
				"element": "H" 
			},
			{
				"x": 3.5301938146,
				"y": -4.0651906088,
				"z": -0.7407198842,
				"element": "H" 
			},
			{
				"x": -0.4672126756,
				"y": -1.3686845171,
				"z": -0.1067990849,
				"element": "H" 
			},
			{
				"x": -1.877009333,
				"y": 3.4340443151,
				"z": 0.2989565707,
				"element": "H" 
			},
			{
				"x": -2.2870239211,
				"y": 3.135363135,
				"z": -1.3761488637,
				"element": "H" 
			},
			{
				"x": -1.7038429537,
				"y": 4.7607946747,
				"z": -0.8943191177,
				"element": "H" 
			}
		],
		 "valence_orbital": [ 
			{
				"type": "occ",
				"energy": -0.29487,
				"method": "rhf"
			},
			{
				"type": "occ",
				"energy": -0.26404,
				"method": "rhf"
			},
			{
				"type": "occ",
				"energy": -0.24087,
				"method": "rhf"
			},
			{
				"type": "occ",
				"energy": -0.23486,
				"method": "rhf"
			},
			{
				"type": "occ",
				"energy": -0.22091,
				"method": "rhf"
			},
			{
				"type": "unocc",
				"energy": -0.04633,
				"method": "rhf"
			},
			{
				"type": "unocc",
				"energy": 0.00501,
				"method": "rhf"
			},
			{
				"type": "unocc",
				"energy": 0.01169,
				"method": "rhf"
			},
			{
				"type": "unocc",
				"energy": 0.05683,
				"method": "rhf"
			},
			{
				"type": "unocc",
				"energy": 0.06253,
				"method": "rhf"
			}
		],
		"cosmo_sigma_profile": { 
			"-0.025": 0.0,
			"-0.024": 0.0,
			"-0.023": 0.0,
			"-0.022": 0.0,
			"-0.021": 0.0,
			"-0.02": 0.0,
			"-0.019": 0.0,
			"-0.018": 0.0,
			"-0.017": 0.0,
			"-0.016": 0.523346748968,
			"-0.015": 1.01817506085,
			"-0.014": 1.42889085078,
			"-0.013": 1.49812981766,
			"-0.012": 1.1153472749,
			"-0.011": 1.98374842894,
			"-0.01": 1.6411168695,
			"-0.009": 1.09557048476,
			"-0.008": 2.36376007151,
			"-0.007": 3.71524663714,
			"-0.006": 10.1266961607,
			"-0.005": 16.3382443056,
			"-0.004": 26.1886716812,
			"-0.003": 23.3124912894,
			"-0.002": 20.1491251263,
			"-0.001": 17.6345104515,
			"0.0": 18.1913238072,
			"0.001": 15.9754368529,
			"0.002": 15.227787173,
			"0.003": 19.6730282831,
			"0.004": 14.1480707416,
			"0.005": 4.73216530564,
			"0.006": 3.50834680099,
			"0.007": 2.99584345512,
			"0.008": 3.78077068863,
			"0.009": 2.75290491067,
			"0.01": 3.38928031846,
			"0.011": 4.19541031941,
			"0.012": 6.30419206786,
			"0.013": 5.68677580701,
			"0.014": 2.17539895017,
			"0.015": 0.0175267316715,
			"0.016": 0.0,
			"0.017": 0.0,
			"0.018": 0.0,
			"0.019": 0.0,
			"0.02": 0.0,
			"0.021": 0.0,
			"0.022": 0.0,
			"0.023": 0.0,
			"0.024": 0.0,
			"0.025": 0.0
		}
	}
}
