{
	 "smiles": "FC(F)(F)C1=CC=C(C=C1)N1C=CNC1=S", 
	 "Tm": 468.15, 
	 "num_atms": 23, 
	 "gaussian": { 
		 "optdone": 1, 
		 "sigma_profile": "yes", 
		 "theory": "DFT", 
		 "functional": "B3LYP", 
		 "basiset": "6-31G**", 
		 "properties": { 
			 "R2extent": 5090.2469, 
			 "electric_dipole_moment_norm": 6.16001447644, 
			 "electric_quadrupole_moment_norm": 17.7966395128, 
			 "total_energy": -1192.50249165, 
			 "HOMO_LUMO_gap": 0.15341, 
			 "cosmo_polarized_energy": -18.09, 
			 "cosmo_cavitation_energy": 30.76, 
			 "cosmo_dispersion_energy": -22.32, 
			 "cosmo_repulsion_energy": 1.62, 
			 "cosmo_total_nonelectrostatic_energy": 10.05, 
			 "SMD_solvation_energy": 6.1 
		},
		"coords": [
			{
				"x": -1.4672481029,
				"y": 4.1750760824,
				"z": -0.8071050273,
				"element": "F" 
			},
			{
				"x": -0.2940181559,
				"y": 3.7205574571,
				"z": -0.3057538399,
				"element": "C" 
			},
			{
				"x": -0.1538872735,
				"y": 4.2693224319,
				"z": 0.9200568479,
				"element": "F" 
			},
			{
				"x": 0.6860382439,
				"y": 4.2185018439,
				"z": -1.0920295092,
				"element": "F" 
			},
			{
				"x": -0.2614751726,
				"y": 2.2173286954,
				"z": -0.25399792,
				"element": "C" 
			},
			{
				"x": -0.7694030801,
				"y": 1.5457525513,
				"z": 0.8615142999,
				"element": "C" 
			},
			{
				"x": -0.7998685512,
				"y": 0.1547437253,
				"z": 0.8938490286,
				"element": "C" 
			},
			{
				"x": -0.3097294742,
				"y": -0.5696911839,
				"z": -0.1980536219,
				"element": "C" 
			},
			{
				"x": 0.2110061625,
				"y": 0.0994534063,
				"z": -1.31178646,
				"element": "C" 
			},
			{
				"x": 0.2274449235,
				"y": 1.4910818733,
				"z": -1.3417068897,
				"element": "C" 
			},
			{
				"x": -0.3590364225,
				"y": -1.9926440201,
				"z": -0.211684962,
				"element": "N" 
			},
			{
				"x": -0.7269990761,
				"y": -2.7369331862,
				"z": -1.3410331084,
				"element": "C" 
			},
			{
				"x": -0.6168973011,
				"y": -4.0459305566,
				"z": -1.0245735192,
				"element": "C" 
			},
			{
				"x": -0.1789248567,
				"y": -4.0997480757,
				"z": 0.2886021515,
				"element": "N" 
			},
			{
				"x": -0.0014717938,
				"y": -2.8496568002,
				"z": 0.8261611319,
				"element": "C" 
			},
			{
				"x": 0.5537024364,
				"y": -2.5203160389,
				"z": 2.371715654,
				"element": "S" 
			},
			{
				"x": -1.141704375,
				"y": 2.1114189248,
				"z": 1.7085349244,
				"element": "H" 
			},
			{
				"x": -1.1869707229,
				"y": -0.3699224607,
				"z": 1.7572745294,
				"element": "H" 
			},
			{
				"x": 0.6230470073,
				"y": -0.4670023237,
				"z": -2.140333376,
				"element": "H" 
			},
			{
				"x": 0.6390252753,
				"y": 2.0111626142,
				"z": -2.1994900018,
				"element": "H" 
			},
			{
				"x": -1.0713804186,
				"y": -2.2580006152,
				"z": -2.242276936,
				"element": "H" 
			},
			{
				"x": -0.8262599754,
				"y": -4.929301448,
				"z": -1.6055010565,
				"element": "H" 
			},
			{
				"x": 0.0194107035,
				"y": -4.9251528967,
				"z": 0.8323176602,
				"element": "H" 
			}
		],
		 "valence_orbital": [ 
			{
				"type": "occ",
				"energy": -0.29647,
				"method": "rhf"
			},
			{
				"type": "occ",
				"energy": -0.27559,
				"method": "rhf"
			},
			{
				"type": "occ",
				"energy": -0.26811,
				"method": "rhf"
			},
			{
				"type": "occ",
				"energy": -0.20874,
				"method": "rhf"
			},
			{
				"type": "occ",
				"energy": -0.19705,
				"method": "rhf"
			},
			{
				"type": "unocc",
				"energy": -0.04364,
				"method": "rhf"
			},
			{
				"type": "unocc",
				"energy": -0.02465,
				"method": "rhf"
			},
			{
				"type": "unocc",
				"energy": 0.00766,
				"method": "rhf"
			},
			{
				"type": "unocc",
				"energy": 0.01443,
				"method": "rhf"
			},
			{
				"type": "unocc",
				"energy": 0.06461,
				"method": "rhf"
			}
		],
		"cosmo_sigma_profile": { 
			"-0.025": 0.0,
			"-0.024": 0.0,
			"-0.023": 0.0,
			"-0.022": 0.0,
			"-0.021": 0.0,
			"-0.02": 0.0,
			"-0.019": 0.0,
			"-0.018": 0.0,
			"-0.017": 0.857542727459,
			"-0.016": 1.35619593725,
			"-0.015": 0.998767014158,
			"-0.014": 1.24134449735,
			"-0.013": 1.04785441609,
			"-0.012": 0.897224895435,
			"-0.011": 1.22963102398,
			"-0.01": 5.25810068981,
			"-0.009": 4.0465523185,
			"-0.008": 7.35879198637,
			"-0.007": 9.72764032473,
			"-0.006": 10.6539869921,
			"-0.005": 10.1534542523,
			"-0.004": 10.0341931565,
			"-0.003": 10.2390225581,
			"-0.002": 11.6279469148,
			"-0.001": 16.1626849433,
			"0.0": 18.4003639783,
			"0.001": 21.8503791054,
			"0.002": 31.6924804911,
			"0.003": 32.1697574412,
			"0.004": 6.13016400273,
			"0.005": 3.74431474252,
			"0.006": 2.78698294604,
			"0.007": 4.24524890121,
			"0.008": 4.12653477754,
			"0.009": 4.53624473787,
			"0.01": 5.27985062941,
			"0.011": 5.62833758912,
			"0.012": 6.27204242134,
			"0.013": 0.71216212888,
			"0.014": 0.0,
			"0.015": 0.0,
			"0.016": 0.0,
			"0.017": 0.0,
			"0.018": 0.0,
			"0.019": 0.0,
			"0.02": 0.0,
			"0.021": 0.0,
			"0.022": 0.0,
			"0.023": 0.0,
			"0.024": 0.0,
			"0.025": 0.0
		}
	}
}
