{
	 "smiles": "OC(=O)CC1=CC2=C(O1)C=CC=C2", 
	 "Tm": 363.15, 
	 "num_atms": 21, 
	 "gaussian": { 
		 "optdone": 1, 
		 "sigma_profile": "yes", 
		 "theory": "DFT", 
		 "functional": "B3LYP", 
		 "basiset": "6-31G**", 
		 "properties": { 
			 "R2extent": 2901.5613, 
			 "electric_dipole_moment_norm": 4.71244232432, 
			 "electric_quadrupole_moment_norm": 15.1545962991, 
			 "total_energy": -611.56010887, 
			 "HOMO_LUMO_gap": 0.19652, 
			 "cosmo_polarized_energy": -12.43, 
			 "cosmo_cavitation_energy": 25.66, 
			 "cosmo_dispersion_energy": -19.05, 
			 "cosmo_repulsion_energy": 1.51, 
			 "cosmo_total_nonelectrostatic_energy": 8.12, 
			 "SMD_solvation_energy": 5.67 
		},
		"coords": [
			{
				"x": 2.7251609949,
				"y": 0.8664991838,
				"z": -0.9438080672,
				"element": "O" 
			},
			{
				"x": 2.1931165352,
				"y": 0.270511095,
				"z": -2.031026641,
				"element": "C" 
			},
			{
				"x": 2.8719967517,
				"y": -0.3717023707,
				"z": -2.7912477064,
				"element": "O" 
			},
			{
				"x": 0.6897644256,
				"y": 0.5116166633,
				"z": -2.2735565329,
				"element": "C" 
			},
			{
				"x": -0.1726578646,
				"y": 0.492741574,
				"z": -1.0594449333,
				"element": "C" 
			},
			{
				"x": -1.189177595,
				"y": -0.302083967,
				"z": -0.6425048433,
				"element": "C" 
			},
			{
				"x": -1.6104913322,
				"y": 0.1973289622,
				"z": 0.6460723939,
				"element": "C" 
			},
			{
				"x": -0.7760997886,
				"y": 1.2952979967,
				"z": 0.9193496144,
				"element": "C" 
			},
			{
				"x": 0.1026197931,
				"y": 1.4854152601,
				"z": -0.1246421535,
				"element": "O" 
			},
			{
				"x": -0.8515032443,
				"y": 2.0611246785,
				"z": 2.0740137077,
				"element": "C" 
			},
			{
				"x": -1.8284657254,
				"y": 1.688043472,
				"z": 2.998049215,
				"element": "C" 
			},
			{
				"x": -2.6814510115,
				"y": 0.5954169845,
				"z": 2.7577367705,
				"element": "C" 
			},
			{
				"x": -2.585640279,
				"y": -0.1573792056,
				"z": 1.589932528,
				"element": "C" 
			},
			{
				"x": 2.034381132,
				"y": 1.3181604053,
				"z": -0.4288619051,
				"element": "H" 
			},
			{
				"x": 0.3549957719,
				"y": -0.2468467666,
				"z": -2.9814666476,
				"element": "H" 
			},
			{
				"x": 0.6048389484,
				"y": 1.4879101844,
				"z": -2.7725052587,
				"element": "H" 
			},
			{
				"x": -1.592614461,
				"y": -1.1459004139,
				"z": -1.1838573126,
				"element": "H" 
			},
			{
				"x": -0.1870999734,
				"y": 2.901450244,
				"z": 2.2433459227,
				"element": "H" 
			},
			{
				"x": -1.9311219113,
				"y": 2.2531872581,
				"z": 3.9191727458,
				"element": "H" 
			},
			{
				"x": -3.4294392574,
				"y": 0.3355169209,
				"z": 3.5006262284,
				"element": "H" 
			},
			{
				"x": -3.248611909,
				"y": -0.999208159,
				"z": 1.4152228753,
				"element": "H" 
			}
		],
		 "valence_orbital": [ 
			{
				"type": "occ",
				"energy": -0.31299,
				"method": "rhf"
			},
			{
				"type": "occ",
				"energy": -0.30885,
				"method": "rhf"
			},
			{
				"type": "occ",
				"energy": -0.2753,
				"method": "rhf"
			},
			{
				"type": "occ",
				"energy": -0.25239,
				"method": "rhf"
			},
			{
				"type": "occ",
				"energy": -0.23163,
				"method": "rhf"
			},
			{
				"type": "unocc",
				"energy": -0.03511,
				"method": "rhf"
			},
			{
				"type": "unocc",
				"energy": -0.00274,
				"method": "rhf"
			},
			{
				"type": "unocc",
				"energy": 0.01221,
				"method": "rhf"
			},
			{
				"type": "unocc",
				"energy": 0.04004,
				"method": "rhf"
			},
			{
				"type": "unocc",
				"energy": 0.07775,
				"method": "rhf"
			}
		],
		"cosmo_sigma_profile": { 
			"-0.025": 0.0,
			"-0.024": 0.0,
			"-0.023": 0.0,
			"-0.022": 0.0,
			"-0.021": 0.0,
			"-0.02": 0.0,
			"-0.019": 0.0,
			"-0.018": 0.0,
			"-0.017": 0.0,
			"-0.016": 0.0,
			"-0.015": 0.0,
			"-0.014": 0.0,
			"-0.013": 0.0,
			"-0.012": 0.294110529867,
			"-0.011": 0.735509157369,
			"-0.01": 1.32147047655,
			"-0.009": 3.60347383247,
			"-0.008": 6.10488464496,
			"-0.007": 10.2432218948,
			"-0.006": 13.574590322,
			"-0.005": 15.9901843929,
			"-0.004": 16.7264800367,
			"-0.003": 13.3911594309,
			"-0.002": 9.86992649446,
			"-0.001": 10.1933911767,
			"0.0": 10.3249921843,
			"0.001": 12.8662547778,
			"0.002": 12.5552882089,
			"0.003": 14.5710690994,
			"0.004": 13.0030250178,
			"0.005": 11.5407645422,
			"0.006": 3.24914812025,
			"0.007": 2.60954001851,
			"0.008": 2.34711589941,
			"0.009": 3.76369502532,
			"0.01": 4.92985581027,
			"0.011": 5.68305755605,
			"0.012": 5.06748549455,
			"0.013": 1.45113173675,
			"0.014": 0.0,
			"0.015": 0.0,
			"0.016": 0.0,
			"0.017": 0.0,
			"0.018": 0.0,
			"0.019": 0.0,
			"0.02": 0.0,
			"0.021": 0.0,
			"0.022": 0.0,
			"0.023": 0.0,
			"0.024": 0.0,
			"0.025": 0.0
		}
	}
}
