{
	 "smiles": "NC(=O)C1=C(F)C=CC(F)=C1", 
	 "Tm": 388.15, 
	 "num_atms": 16, 
	 "gaussian": { 
		 "optdone": 1, 
		 "sigma_profile": "yes", 
		 "theory": "DFT", 
		 "functional": "B3LYP", 
		 "basiset": "6-31G**", 
		 "properties": { 
			 "R2extent": 2699.0548, 
			 "electric_dipole_moment_norm": 3.5885515532, 
			 "electric_quadrupole_moment_norm": 10.0304187814, 
			 "total_energy": -599.420121176, 
			 "HOMO_LUMO_gap": 0.20265, 
			 "cosmo_polarized_energy": -10.5, 
			 "cosmo_cavitation_energy": 21.45, 
			 "cosmo_dispersion_energy": -15.94, 
			 "cosmo_repulsion_energy": 1.23, 
			 "cosmo_total_nonelectrostatic_energy": 6.74, 
			 "SMD_solvation_energy": 5.38 
		},
		"coords": [
			{
				"x": -0.386289483,
				"y": 2.2884006903,
				"z": -2.821218899,
				"element": "N" 
			},
			{
				"x": 0.1312138506,
				"y": 1.0467775997,
				"z": -2.6206995429,
				"element": "C" 
			},
			{
				"x": -0.1094037873,
				"y": 0.1079705619,
				"z": -3.3713050366,
				"element": "O" 
			},
			{
				"x": 1.0294644449,
				"y": 0.8535149985,
				"z": -1.4177350593,
				"element": "C" 
			},
			{
				"x": 1.3928054854,
				"y": 1.8226396232,
				"z": -0.4762337295,
				"element": "C" 
			},
			{
				"x": 0.9293911839,
				"y": 3.100220922,
				"z": -0.5852076799,
				"element": "F" 
			},
			{
				"x": 2.2272138124,
				"y": 1.549127519,
				"z": 0.6003753694,
				"element": "C" 
			},
			{
				"x": 2.7313750923,
				"y": 0.2605855843,
				"z": 0.7629175903,
				"element": "C" 
			},
			{
				"x": 2.3780394572,
				"y": -0.7138660231,
				"z": -0.1665335408,
				"element": "C" 
			},
			{
				"x": 2.8624739258,
				"y": -1.9626132051,
				"z": -0.0148731349,
				"element": "F" 
			},
			{
				"x": 1.5456477828,
				"y": -0.4375850939,
				"z": -1.238965401,
				"element": "C" 
			},
			{
				"x": -0.9842738266,
				"y": 2.4098812508,
				"z": -3.6237594409,
				"element": "H" 
			},
			{
				"x": -0.1912642643,
				"y": 3.0603911735,
				"z": -2.2063621854,
				"element": "H" 
			},
			{
				"x": 2.470478671,
				"y": 2.345512821,
				"z": 1.2948499554,
				"element": "H" 
			},
			{
				"x": 3.3852564927,
				"y": 0.0085953726,
				"z": 1.5902389409,
				"element": "H" 
			},
			{
				"x": 1.2760711622,
				"y": -1.2028537948,
				"z": -1.9574882057,
				"element": "H" 
			}
		],
		 "valence_orbital": [ 
			{
				"type": "occ",
				"energy": -0.36108,
				"method": "rhf"
			},
			{
				"type": "occ",
				"energy": -0.27853,
				"method": "rhf"
			},
			{
				"type": "occ",
				"energy": -0.26887,
				"method": "rhf"
			},
			{
				"type": "occ",
				"energy": -0.26048,
				"method": "rhf"
			},
			{
				"type": "occ",
				"energy": -0.25349,
				"method": "rhf"
			},
			{
				"type": "unocc",
				"energy": -0.05084,
				"method": "rhf"
			},
			{
				"type": "unocc",
				"energy": -0.01185,
				"method": "rhf"
			},
			{
				"type": "unocc",
				"energy": 0.05966,
				"method": "rhf"
			},
			{
				"type": "unocc",
				"energy": 0.07341,
				"method": "rhf"
			},
			{
				"type": "unocc",
				"energy": 0.09374,
				"method": "rhf"
			}
		],
		"cosmo_sigma_profile": { 
			"-0.025": 0.0,
			"-0.024": 0.0,
			"-0.023": 0.0,
			"-0.022": 0.0,
			"-0.021": 0.0,
			"-0.02": 0.0,
			"-0.019": 0.0,
			"-0.018": 0.0,
			"-0.017": 0.0,
			"-0.016": 0.0,
			"-0.015": 0.110119859283,
			"-0.014": 0.970609993717,
			"-0.013": 1.63262243368,
			"-0.012": 1.22147917591,
			"-0.011": 1.58002738968,
			"-0.01": 2.05009005375,
			"-0.009": 2.68587368809,
			"-0.008": 5.7598110648,
			"-0.007": 5.59611934174,
			"-0.006": 6.76823112576,
			"-0.005": 5.34278686397,
			"-0.004": 6.09746813481,
			"-0.003": 8.08986955852,
			"-0.002": 9.55304502309,
			"-0.001": 15.0215990223,
			"0.0": 21.2180669983,
			"0.001": 20.2651483502,
			"0.002": 13.3497094266,
			"0.003": 11.8249901307,
			"0.004": 13.0000157159,
			"0.005": 2.11621654378,
			"0.006": 1.64894839045,
			"0.007": 1.28435899249,
			"0.008": 1.16816392579,
			"0.009": 1.45236488145,
			"0.01": 1.35756385941,
			"0.011": 1.93942513583,
			"0.012": 1.87506963824,
			"0.013": 4.90193031329,
			"0.014": 2.69105045052,
			"0.015": 0.0844461329825,
			"0.016": 0.0,
			"0.017": 0.0,
			"0.018": 0.0,
			"0.019": 0.0,
			"0.02": 0.0,
			"0.021": 0.0,
			"0.022": 0.0,
			"0.023": 0.0,
			"0.024": 0.0,
			"0.025": 0.0
		}
	}
}
