{
	 "smiles": "CCCCCCCCC", 
	 "Tm": 219.65, 
	 "num_atms": 29, 
	 "gaussian": { 
		 "optdone": 1, 
		 "sigma_profile": "yes", 
		 "theory": "DFT", 
		 "functional": "B3LYP", 
		 "basiset": "6-31G**", 
		 "properties": { 
			 "R2extent": 2743.0821, 
			 "electric_dipole_moment_norm": 0.0722868591101, 
			 "electric_quadrupole_moment_norm": 0.694681646512, 
			 "total_energy": -355.038515111, 
			 "HOMO_LUMO_gap": 0.37177, 
			 "cosmo_polarized_energy": -0.69, 
			 "cosmo_cavitation_energy": 28.58, 
			 "cosmo_dispersion_energy": -20.24, 
			 "cosmo_repulsion_energy": 1.69, 
			 "cosmo_total_nonelectrostatic_energy": 10.04, 
			 "SMD_solvation_energy": 4.19 
		},
		"coords": [
			{
				"x": -1.4884567858,
				"y": 3.3115518156,
				"z": -1.0190013992,
				"element": "C" 
			},
			{
				"x": -1.3514622458,
				"y": 1.791917946,
				"z": -0.8770704025,
				"element": "C" 
			},
			{
				"x": -1.7809076956,
				"y": 1.279518761,
				"z": 0.5048520498,
				"element": "C" 
			},
			{
				"x": -1.749024541,
				"y": -0.2507879075,
				"z": 0.6645899961,
				"element": "C" 
			},
			{
				"x": -0.3666058501,
				"y": -0.9135452727,
				"z": 0.5173797341,
				"element": "C" 
			},
			{
				"x": 0.7112238005,
				"y": -0.445626913,
				"z": 1.512660413,
				"element": "C" 
			},
			{
				"x": 0.4343125811,
				"y": -0.6445181564,
				"z": 3.016191863,
				"element": "C" 
			},
			{
				"x": 0.3830787872,
				"y": -2.1032335811,
				"z": 3.5200769146,
				"element": "C" 
			},
			{
				"x": -0.9822596062,
				"y": -2.7968036267,
				"z": 3.4187521947,
				"element": "C" 
			},
			{
				"x": -1.1772088251,
				"y": 3.6523849792,
				"z": -2.0120298827,
				"element": "H" 
			},
			{
				"x": -0.871531271,
				"y": 3.8356012288,
				"z": -0.2798040215,
				"element": "H" 
			},
			{
				"x": -2.5257202342,
				"y": 3.6318171178,
				"z": -0.8671679406,
				"element": "H" 
			},
			{
				"x": -0.3113123806,
				"y": 1.504278963,
				"z": -1.07612013,
				"element": "H" 
			},
			{
				"x": -1.9561308836,
				"y": 1.295649274,
				"z": -1.648986577,
				"element": "H" 
			},
			{
				"x": -2.8044195092,
				"y": 1.6257414832,
				"z": 0.7045110848,
				"element": "H" 
			},
			{
				"x": -1.1541457719,
				"y": 1.7506690907,
				"z": 1.2743800399,
				"element": "H" 
			},
			{
				"x": -2.4244769215,
				"y": -0.6954548931,
				"z": -0.0794162582,
				"element": "H" 
			},
			{
				"x": -2.1738052577,
				"y": -0.5092514272,
				"z": 1.6425875302,
				"element": "H" 
			},
			{
				"x": 0.0118457363,
				"y": -0.7377721959,
				"z": -0.4979268725,
				"element": "H" 
			},
			{
				"x": -0.4910857941,
				"y": -2.0004652792,
				"z": 0.5942353331,
				"element": "H" 
			},
			{
				"x": 1.6504887931,
				"y": -0.9600837449,
				"z": 1.2663935705,
				"element": "H" 
			},
			{
				"x": 0.9092762693,
				"y": 0.6211130855,
				"z": 1.3434935566,
				"element": "H" 
			},
			{
				"x": -0.4912665156,
				"y": -0.1276789492,
				"z": 3.3043935023,
				"element": "H" 
			},
			{
				"x": 1.2377113221,
				"y": -0.1268046322,
				"z": 3.5558968036,
				"element": "H" 
			},
			{
				"x": 1.1396577895,
				"y": -2.6961018645,
				"z": 2.9874025751,
				"element": "H" 
			},
			{
				"x": 0.6873178082,
				"y": -2.1141938583,
				"z": 4.5745732654,
				"element": "H" 
			},
			{
				"x": -1.7464364481,
				"y": -2.236059633,
				"z": 3.9695859622,
				"element": "H" 
			},
			{
				"x": -1.3269459833,
				"y": -2.8942845922,
				"z": 2.3855600011,
				"element": "H" 
			},
			{
				"x": -0.9412103671,
				"y": -3.8041772176,
				"z": 3.847407094,
				"element": "H" 
			}
		],
		 "valence_orbital": [ 
			{
				"type": "occ",
				"energy": -0.32291,
				"method": "rhf"
			},
			{
				"type": "occ",
				"energy": -0.31394,
				"method": "rhf"
			},
			{
				"type": "occ",
				"energy": -0.30344,
				"method": "rhf"
			},
			{
				"type": "occ",
				"energy": -0.29866,
				"method": "rhf"
			},
			{
				"type": "occ",
				"energy": -0.29662,
				"method": "rhf"
			},
			{
				"type": "unocc",
				"energy": 0.07515,
				"method": "rhf"
			},
			{
				"type": "unocc",
				"energy": 0.10051,
				"method": "rhf"
			},
			{
				"type": "unocc",
				"energy": 0.11113,
				"method": "rhf"
			},
			{
				"type": "unocc",
				"energy": 0.11402,
				"method": "rhf"
			},
			{
				"type": "unocc",
				"energy": 0.12725,
				"method": "rhf"
			}
		],
		"cosmo_sigma_profile": { 
			"-0.025": 0.0,
			"-0.024": 0.0,
			"-0.023": 0.0,
			"-0.022": 0.0,
			"-0.021": 0.0,
			"-0.02": 0.0,
			"-0.019": 0.0,
			"-0.018": 0.0,
			"-0.017": 0.0,
			"-0.016": 0.0,
			"-0.015": 0.0,
			"-0.014": 0.0,
			"-0.013": 0.0,
			"-0.012": 0.0,
			"-0.011": 0.0,
			"-0.01": 0.0,
			"-0.009": 0.0,
			"-0.008": 0.0,
			"-0.007": 0.0,
			"-0.006": 0.0,
			"-0.005": 0.0,
			"-0.004": 0.0,
			"-0.003": 3.21673729531,
			"-0.002": 24.5533217794,
			"-0.001": 51.8779645094,
			"0.0": 57.2240196905,
			"0.001": 53.3896869056,
			"0.002": 27.3469636019,
			"0.003": 0.879643637037,
			"0.004": 0.0,
			"0.005": 0.0,
			"0.006": 0.0,
			"0.007": 0.0,
			"0.008": 0.0,
			"0.009": 0.0,
			"0.01": 0.0,
			"0.011": 0.0,
			"0.012": 0.0,
			"0.013": 0.0,
			"0.014": 0.0,
			"0.015": 0.0,
			"0.016": 0.0,
			"0.017": 0.0,
			"0.018": 0.0,
			"0.019": 0.0,
			"0.02": 0.0,
			"0.021": 0.0,
			"0.022": 0.0,
			"0.023": 0.0,
			"0.024": 0.0,
			"0.025": 0.0
		}
	}
}
