{
	 "smiles": "CC(C)C1=CC=CC(C(C)C)=C1NCCO", 
	 "Tm": 346.15, 
	 "num_atms": 39, 
	 "gaussian": { 
		 "optdone": 1, 
		 "sigma_profile": "yes", 
		 "theory": "DFT", 
		 "functional": "B3LYP", 
		 "basiset": "6-31G**", 
		 "properties": { 
			 "R2extent": 4596.374, 
			 "electric_dipole_moment_norm": 2.28142443662, 
			 "electric_quadrupole_moment_norm": 6.51435865684, 
			 "total_energy": -677.326649229, 
			 "HOMO_LUMO_gap": 0.21235, 
			 "cosmo_polarized_energy": -8.43, 
			 "cosmo_cavitation_energy": 37.46, 
			 "cosmo_dispersion_energy": -25.44, 
			 "cosmo_repulsion_energy": 2.0, 
			 "cosmo_total_nonelectrostatic_energy": 14.02, 
			 "SMD_solvation_energy": 6.27 
		},
		"coords": [
			{
				"x": 1.2977108142,
				"y": 2.6984610197,
				"z": 0.5994499291,
				"element": "C" 
			},
			{
				"x": 0.351171667,
				"y": 2.369949535,
				"z": 1.7692582643,
				"element": "C" 
			},
			{
				"x": -0.9152739674,
				"y": 3.2470374465,
				"z": 1.7072325739,
				"element": "C" 
			},
			{
				"x": 0.0065905237,
				"y": 0.8919497605,
				"z": 1.9981543501,
				"element": "C" 
			},
			{
				"x": 0.4328105949,
				"y": 0.3344305495,
				"z": 3.210673072,
				"element": "C" 
			},
			{
				"x": 0.0174682613,
				"y": -0.9274150925,
				"z": 3.6264691352,
				"element": "C" 
			},
			{
				"x": -0.866993313,
				"y": -1.6456653908,
				"z": 2.8316992298,
				"element": "C" 
			},
			{
				"x": -1.2941249731,
				"y": -1.1563881482,
				"z": 1.589356214,
				"element": "C" 
			},
			{
				"x": -2.3224734375,
				"y": -1.9665932911,
				"z": 0.7983621434,
				"element": "C" 
			},
			{
				"x": -3.7323786515,
				"y": -1.779065498,
				"z": 1.3982368442,
				"element": "C" 
			},
			{
				"x": -1.9733713558,
				"y": -3.4637266571,
				"z": 0.699381665,
				"element": "C" 
			},
			{
				"x": -0.8181288205,
				"y": 0.1064161127,
				"z": 1.147626657,
				"element": "C" 
			},
			{
				"x": -1.1856354219,
				"y": 0.6493821835,
				"z": -0.1275149982,
				"element": "N" 
			},
			{
				"x": -0.266136096,
				"y": 0.4198745793,
				"z": -1.252440559,
				"element": "C" 
			},
			{
				"x": -0.3596542015,
				"y": -0.9498485468,
				"z": -1.9190833637,
				"element": "C" 
			},
			{
				"x": -1.6805165086,
				"y": -1.0823833739,
				"z": -2.4445539024,
				"element": "O" 
			},
			{
				"x": 0.7853147337,
				"y": 2.6598482172,
				"z": -0.3636747085,
				"element": "H" 
			},
			{
				"x": 2.1561287074,
				"y": 2.0185328368,
				"z": 0.5678622243,
				"element": "H" 
			},
			{
				"x": 1.6866750565,
				"y": 3.7162569781,
				"z": 0.7189532275,
				"element": "H" 
			},
			{
				"x": 0.8923274017,
				"y": 2.6673804213,
				"z": 2.6768910962,
				"element": "H" 
			},
			{
				"x": -0.6406073863,
				"y": 4.3071237929,
				"z": 1.6554699514,
				"element": "H" 
			},
			{
				"x": -1.5364291507,
				"y": 3.1022953941,
				"z": 2.5969985403,
				"element": "H" 
			},
			{
				"x": -1.5106163088,
				"y": 2.9973565301,
				"z": 0.8261848531,
				"element": "H" 
			},
			{
				"x": 1.074727127,
				"y": 0.9247287581,
				"z": 3.8600642904,
				"element": "H" 
			},
			{
				"x": 0.3542001913,
				"y": -1.3306070398,
				"z": 4.5774637199,
				"element": "H" 
			},
			{
				"x": -1.2295057162,
				"y": -2.6091456751,
				"z": 3.1778687965,
				"element": "H" 
			},
			{
				"x": -2.3549674435,
				"y": -1.5910161805,
				"z": -0.2275386447,
				"element": "H" 
			},
			{
				"x": -3.7734471344,
				"y": -2.1526866566,
				"z": 2.4274300886,
				"element": "H" 
			},
			{
				"x": -4.0191113638,
				"y": -0.7225737765,
				"z": 1.4205766013,
				"element": "H" 
			},
			{
				"x": -4.4821644165,
				"y": -2.321956963,
				"z": 0.8112474917,
				"element": "H" 
			},
			{
				"x": -2.6852843618,
				"y": -3.9746462355,
				"z": 0.0412528366,
				"element": "H" 
			},
			{
				"x": -0.9664657955,
				"y": -3.6169469327,
				"z": 0.2967750556,
				"element": "H" 
			},
			{
				"x": -2.0190719162,
				"y": -3.9648971966,
				"z": 1.6718015725,
				"element": "H" 
			},
			{
				"x": -2.1158505804,
				"y": 0.3594861527,
				"z": -0.4084451205,
				"element": "H" 
			},
			{
				"x": -0.4640363399,
				"y": 1.1817029146,
				"z": -2.0173770305,
				"element": "H" 
			},
			{
				"x": 0.7589550577,
				"y": 0.5614529183,
				"z": -0.9052161697,
				"element": "H" 
			},
			{
				"x": 0.3919379035,
				"y": -1.0095741731,
				"z": -2.7223041882,
				"element": "H" 
			},
			{
				"x": -0.1375380159,
				"y": -1.7414553887,
				"z": -1.1891065412,
				"element": "H" 
			},
			{
				"x": -1.7994353635,
				"y": -1.9902738841,
				"z": -2.7487851974,
				"element": "H" 
			}
		],
		 "valence_orbital": [ 
			{
				"type": "occ",
				"energy": -0.30703,
				"method": "rhf"
			},
			{
				"type": "occ",
				"energy": -0.27679,
				"method": "rhf"
			},
			{
				"type": "occ",
				"energy": -0.25038,
				"method": "rhf"
			},
			{
				"type": "occ",
				"energy": -0.22645,
				"method": "rhf"
			},
			{
				"type": "occ",
				"energy": -0.20412,
				"method": "rhf"
			},
			{
				"type": "unocc",
				"energy": 0.00823,
				"method": "rhf"
			},
			{
				"type": "unocc",
				"energy": 0.01017,
				"method": "rhf"
			},
			{
				"type": "unocc",
				"energy": 0.05901,
				"method": "rhf"
			},
			{
				"type": "unocc",
				"energy": 0.09774,
				"method": "rhf"
			},
			{
				"type": "unocc",
				"energy": 0.10088,
				"method": "rhf"
			}
		],
		"cosmo_sigma_profile": { 
			"-0.025": 0.0,
			"-0.024": 0.0,
			"-0.023": 0.0,
			"-0.022": 0.0,
			"-0.021": 0.0,
			"-0.02": 0.0,
			"-0.019": 0.0,
			"-0.018": 0.0,
			"-0.017": 0.0,
			"-0.016": 0.314447118122,
			"-0.015": 0.726778568822,
			"-0.014": 1.27846869176,
			"-0.013": 0.777617521199,
			"-0.012": 0.715378821277,
			"-0.011": 0.816708359903,
			"-0.01": 0.917810295802,
			"-0.009": 0.536717195382,
			"-0.008": 0.840121404965,
			"-0.007": 1.49417575248,
			"-0.006": 2.68252450803,
			"-0.005": 5.46373378458,
			"-0.004": 13.5786862268,
			"-0.003": 31.5733651433,
			"-0.002": 42.9473456401,
			"-0.001": 36.0366020959,
			"0.0": 32.4819590871,
			"0.001": 35.100304546,
			"0.002": 26.8986085427,
			"0.003": 11.892231888,
			"0.004": 8.57300103125,
			"0.005": 9.09726770982,
			"0.006": 8.77702930153,
			"0.007": 7.67111631817,
			"0.008": 3.62080431189,
			"0.009": 0.954005497211,
			"0.01": 1.23256210779,
			"0.011": 0.947530235191,
			"0.012": 0.984298328133,
			"0.013": 1.00339037277,
			"0.014": 0.728048187816,
			"0.015": 0.0154879351292,
			"0.016": 0.0,
			"0.017": 0.0,
			"0.018": 0.0,
			"0.019": 0.0,
			"0.02": 0.0,
			"0.021": 0.0,
			"0.022": 0.0,
			"0.023": 0.0,
			"0.024": 0.0,
			"0.025": 0.0
		}
	}
}
