{
	 "smiles": "COC1=C(OCC2=CC=CC=C2)C=C(C(C=O)=C1)[N+]([O-])=O", 
	 "Tm": 404.15, 
	 "num_atms": 34, 
	 "gaussian": { 
		 "optdone": 1, 
		 "sigma_profile": "yes", 
		 "theory": "DFT", 
		 "functional": "B3LYP", 
		 "basiset": "6-31G**", 
		 "properties": { 
			 "R2extent": 6727.8812, 
			 "electric_dipole_moment_norm": 6.32479783313, 
			 "electric_quadrupole_moment_norm": 15.9377335901, 
			 "total_energy": -1010.15720076, 
			 "HOMO_LUMO_gap": 0.14978, 
			 "cosmo_polarized_energy": -14.5, 
			 "cosmo_cavitation_energy": 39.55, 
			 "cosmo_dispersion_energy": -26.92, 
			 "cosmo_repulsion_energy": 2.08, 
			 "cosmo_total_nonelectrostatic_energy": 14.71, 
			 "SMD_solvation_energy": 10.89 
		},
		"coords": [
			{
				"x": -2.6244230991,
				"y": -0.0000952168,
				"z": -2.8893125904,
				"element": "C" 
			},
			{
				"x": -2.1415387149,
				"y": -1.0886372294,
				"z": -2.0895224255,
				"element": "O" 
			},
			{
				"x": -1.6911295606,
				"y": -0.791310598,
				"z": -0.8378100248,
				"element": "C" 
			},
			{
				"x": -0.5336010363,
				"y": 0.0016323333,
				"z": -0.6231884303,
				"element": "C" 
			},
			{
				"x": 0.0674420371,
				"y": 0.4969522535,
				"z": -1.733885044,
				"element": "O" 
			},
			{
				"x": 1.2397881916,
				"y": 1.3180918084,
				"z": -1.603008594,
				"element": "C" 
			},
			{
				"x": 2.494224064,
				"y": 0.5385825159,
				"z": -1.2694512705,
				"element": "C" 
			},
			{
				"x": 3.4631590735,
				"y": 1.0940308288,
				"z": -0.4265378263,
				"element": "C" 
			},
			{
				"x": 4.6479133486,
				"y": 0.4050294845,
				"z": -0.1599079671,
				"element": "C" 
			},
			{
				"x": 4.8679502274,
				"y": -0.8503581014,
				"z": -0.7277059612,
				"element": "C" 
			},
			{
				"x": 3.9009816957,
				"y": -1.4124381032,
				"z": -1.5651050953,
				"element": "C" 
			},
			{
				"x": 2.7218109388,
				"y": -0.7205335118,
				"z": -1.8390270595,
				"element": "C" 
			},
			{
				"x": -0.0857769662,
				"y": 0.2087754519,
				"z": 0.6813015225,
				"element": "C" 
			},
			{
				"x": -0.7654180517,
				"y": -0.3682019249,
				"z": 1.7539780104,
				"element": "C" 
			},
			{
				"x": -1.9168889677,
				"y": -1.1538437922,
				"z": 1.5745441875,
				"element": "C" 
			},
			{
				"x": -2.7859226084,
				"y": -1.7298873755,
				"z": 2.6497274929,
				"element": "C" 
			},
			{
				"x": -3.7148754559,
				"y": -2.4724321421,
				"z": 2.3899186316,
				"element": "O" 
			},
			{
				"x": -2.3515206333,
				"y": -1.3390406651,
				"z": 0.2537324703,
				"element": "C" 
			},
			{
				"x": -0.1704085271,
				"y": -0.1373106103,
				"z": 3.0804522609,
				"element": "N" 
			},
			{
				"x": -0.4172206032,
				"y": -0.9473645378,
				"z": 3.9755401574,
				"element": "O" 
			},
			{
				"x": 0.5579593271,
				"y": 0.8459902585,
				"z": 3.2148077932,
				"element": "O" 
			},
			{
				"x": -3.4527517839,
				"y": 0.5110147683,
				"z": -2.3838758502,
				"element": "H" 
			},
			{
				"x": -2.990132439,
				"y": -0.4512983725,
				"z": -3.8128546843,
				"element": "H" 
			},
			{
				"x": -1.8312042183,
				"y": 0.7159057275,
				"z": -3.1166945948,
				"element": "H" 
			},
			{
				"x": 1.3278501123,
				"y": 1.7876702191,
				"z": -2.5875655413,
				"element": "H" 
			},
			{
				"x": 1.0634018778,
				"y": 2.1152457257,
				"z": -0.8704676563,
				"element": "H" 
			},
			{
				"x": 3.2917605459,
				"y": 2.0678233471,
				"z": 0.0268437358,
				"element": "H" 
			},
			{
				"x": 5.3909965764,
				"y": 0.8446526183,
				"z": 0.4987981759,
				"element": "H" 
			},
			{
				"x": 5.7855459198,
				"y": -1.3910294894,
				"z": -0.5153781982,
				"element": "H" 
			},
			{
				"x": 4.0659745203,
				"y": -2.391226457,
				"z": -2.0060754999,
				"element": "H" 
			},
			{
				"x": 1.9676224789,
				"y": -1.1581667571,
				"z": -2.4863200358,
				"element": "H" 
			},
			{
				"x": 0.807222672,
				"y": 0.7783849743,
				"z": 0.8920862848,
				"element": "H" 
			},
			{
				"x": -2.5640635398,
				"y": -1.4294666677,
				"z": 3.6833130833,
				"element": "H" 
			},
			{
				"x": -3.2435274018,
				"y": -1.932640763,
				"z": 0.0866505435,
				"element": "H" 
			}
		],
		 "valence_orbital": [ 
			{
				"type": "occ",
				"energy": -0.27066,
				"method": "rhf"
			},
			{
				"type": "occ",
				"energy": -0.26446,
				"method": "rhf"
			},
			{
				"type": "occ",
				"energy": -0.26037,
				"method": "rhf"
			},
			{
				"type": "occ",
				"energy": -0.2572,
				"method": "rhf"
			},
			{
				"type": "occ",
				"energy": -0.24765,
				"method": "rhf"
			},
			{
				"type": "unocc",
				"energy": -0.09787,
				"method": "rhf"
			},
			{
				"type": "unocc",
				"energy": -0.0571,
				"method": "rhf"
			},
			{
				"type": "unocc",
				"energy": -0.02255,
				"method": "rhf"
			},
			{
				"type": "unocc",
				"energy": -0.01729,
				"method": "rhf"
			},
			{
				"type": "unocc",
				"energy": -0.0083,
				"method": "rhf"
			}
		],
		"cosmo_sigma_profile": { 
			"-0.025": 0.0,
			"-0.024": 0.0,
			"-0.023": 0.0,
			"-0.022": 0.0,
			"-0.021": 0.0,
			"-0.02": 0.0,
			"-0.019": 0.0,
			"-0.018": 0.0,
			"-0.017": 0.0,
			"-0.016": 0.0,
			"-0.015": 0.0,
			"-0.014": 0.0,
			"-0.013": 0.0,
			"-0.012": 0.0,
			"-0.011": 0.0,
			"-0.01": 0.53033712498,
			"-0.009": 1.9052218047,
			"-0.008": 3.31577946155,
			"-0.007": 9.00760408487,
			"-0.006": 18.1682116422,
			"-0.005": 24.8395120606,
			"-0.004": 26.563243933,
			"-0.003": 29.6554305158,
			"-0.002": 26.4992197684,
			"-0.001": 27.2428543072,
			"0.0": 23.6814900538,
			"0.001": 18.8660923975,
			"0.002": 15.1153618217,
			"0.003": 12.5020385216,
			"0.004": 14.8844493255,
			"0.005": 15.0254358524,
			"0.006": 10.3779371459,
			"0.007": 10.9641935793,
			"0.008": 8.91607941689,
			"0.009": 7.19846016796,
			"0.01": 6.21574956491,
			"0.011": 3.94974848809,
			"0.012": 1.36130308473,
			"0.013": 0.184207649339,
			"0.014": 0.0,
			"0.015": 0.0,
			"0.016": 0.0,
			"0.017": 0.0,
			"0.018": 0.0,
			"0.019": 0.0,
			"0.02": 0.0,
			"0.021": 0.0,
			"0.022": 0.0,
			"0.023": 0.0,
			"0.024": 0.0,
			"0.025": 0.0
		}
	}
}
