{
	 "smiles": "CC(C)(C)OC(=O)NC1=CC=CC=C1", 
	 "Tm": 408.15, 
	 "num_atms": 29, 
	 "gaussian": { 
		 "optdone": 1, 
		 "sigma_profile": "yes", 
		 "theory": "DFT", 
		 "functional": "B3LYP", 
		 "basiset": "6-31G**", 
		 "properties": { 
			 "R2extent": 4523.3159, 
			 "electric_dipole_moment_norm": 1.47230516877, 
			 "electric_quadrupole_moment_norm": 10.5206646197, 
			 "total_energy": -633.449906798, 
			 "HOMO_LUMO_gap": 0.21334, 
			 "cosmo_polarized_energy": -9.19, 
			 "cosmo_cavitation_energy": 31.58, 
			 "cosmo_dispersion_energy": -22.33, 
			 "cosmo_repulsion_energy": 1.75, 
			 "cosmo_total_nonelectrostatic_energy": 11.0, 
			 "SMD_solvation_energy": 6.49 
		},
		"coords": [
			{
				"x": 1.4283065563,
				"y": -0.8151749691,
				"z": -0.9274984958,
				"element": "C" 
			},
			{
				"x": -0.0989887537,
				"y": -0.7388763914,
				"z": -1.0154709148,
				"element": "C" 
			},
			{
				"x": -0.5322633489,
				"y": 0.2670905736,
				"z": -2.0847153927,
				"element": "C" 
			},
			{
				"x": -0.7405602078,
				"y": -2.107328937,
				"z": -1.2643516673,
				"element": "C" 
			},
			{
				"x": -0.645390229,
				"y": -0.1444212891,
				"z": 0.2225802012,
				"element": "O" 
			},
			{
				"x": -0.4679617023,
				"y": -0.7520293662,
				"z": 1.4094286309,
				"element": "C" 
			},
			{
				"x": 0.1260662993,
				"y": -1.8006537305,
				"z": 1.6043363949,
				"element": "O" 
			},
			{
				"x": -1.0418765836,
				"y": -0.0625565888,
				"z": 2.4593645424,
				"element": "N" 
			},
			{
				"x": -1.7744447099,
				"y": 1.136309095,
				"z": 2.5742922722,
				"element": "C" 
			},
			{
				"x": -2.1869498737,
				"y": 1.4914890445,
				"z": 3.8712833542,
				"element": "C" 
			},
			{
				"x": -2.9157031149,
				"y": 2.6554705733,
				"z": 4.0935863753,
				"element": "C" 
			},
			{
				"x": -3.2504134405,
				"y": 3.4929390765,
				"z": 3.0277447775,
				"element": "C" 
			},
			{
				"x": -2.8418888315,
				"y": 3.1418166796,
				"z": 1.7414325886,
				"element": "C" 
			},
			{
				"x": -2.1103970246,
				"y": 1.9776050882,
				"z": 1.5024311234,
				"element": "C" 
			},
			{
				"x": 1.7415091706,
				"y": -1.5170774638,
				"z": -0.1546859583,
				"element": "H" 
			},
			{
				"x": 1.8326126823,
				"y": -1.1442737974,
				"z": -1.8902493122,
				"element": "H" 
			},
			{
				"x": 1.8460010058,
				"y": 0.1714561323,
				"z": -0.7035311228,
				"element": "H" 
			},
			{
				"x": -0.109684175,
				"y": 1.255494992,
				"z": -1.8814440822,
				"element": "H" 
			},
			{
				"x": -0.1838817017,
				"y": -0.0608682289,
				"z": -3.0684820898,
				"element": "H" 
			},
			{
				"x": -1.6223403471,
				"y": 0.3540093436,
				"z": -2.1166175099,
				"element": "H" 
			},
			{
				"x": -0.421427135,
				"y": -2.4870534962,
				"z": -2.2403700174,
				"element": "H" 
			},
			{
				"x": -1.8315522855,
				"y": -2.0195640508,
				"z": -1.2746312124,
				"element": "H" 
			},
			{
				"x": -0.4491412747,
				"y": -2.8223022823,
				"z": -0.4950031931,
				"element": "H" 
			},
			{
				"x": -0.8810078709,
				"y": -0.5582918424,
				"z": 3.3249848296,
				"element": "H" 
			},
			{
				"x": -1.9313177894,
				"y": 0.8458243401,
				"z": 4.7085383629,
				"element": "H" 
			},
			{
				"x": -3.221736502,
				"y": 2.9061027749,
				"z": 5.1052792163,
				"element": "H" 
			},
			{
				"x": -3.8189687722,
				"y": 4.4018407342,
				"z": 3.1979495671,
				"element": "H" 
			},
			{
				"x": -3.0932981591,
				"y": 3.7815239196,
				"z": 0.8998449901,
				"element": "H" 
			},
			{
				"x": -1.8032018814,
				"y": 1.7228000666,
				"z": 0.4994737422,
				"element": "H" 
			}
		],
		 "valence_orbital": [ 
			{
				"type": "occ",
				"energy": -0.30914,
				"method": "rhf"
			},
			{
				"type": "occ",
				"energy": -0.29303,
				"method": "rhf"
			},
			{
				"type": "occ",
				"energy": -0.26966,
				"method": "rhf"
			},
			{
				"type": "occ",
				"energy": -0.25022,
				"method": "rhf"
			},
			{
				"type": "occ",
				"energy": -0.215,
				"method": "rhf"
			},
			{
				"type": "unocc",
				"energy": -0.00166,
				"method": "rhf"
			},
			{
				"type": "unocc",
				"energy": -0.00042,
				"method": "rhf"
			},
			{
				"type": "unocc",
				"energy": 0.065,
				"method": "rhf"
			},
			{
				"type": "unocc",
				"energy": 0.07628,
				"method": "rhf"
			},
			{
				"type": "unocc",
				"energy": 0.08542,
				"method": "rhf"
			}
		],
		"cosmo_sigma_profile": { 
			"-0.025": 0.0,
			"-0.024": 0.0,
			"-0.023": 0.0,
			"-0.022": 0.0,
			"-0.021": 0.0,
			"-0.02": 0.0,
			"-0.019": 0.0,
			"-0.018": 0.0,
			"-0.017": 0.0,
			"-0.016": 0.0,
			"-0.015": 0.209977787363,
			"-0.014": 0.93280996585,
			"-0.013": 1.16220435525,
			"-0.012": 1.28570850533,
			"-0.011": 0.890565842304,
			"-0.01": 0.669946941655,
			"-0.009": 1.85895872152,
			"-0.008": 1.12183172385,
			"-0.007": 1.16485889125,
			"-0.006": 4.69303783338,
			"-0.005": 9.35170291539,
			"-0.004": 20.8711295387,
			"-0.003": 25.7074388587,
			"-0.002": 21.6876007011,
			"-0.001": 26.9545499818,
			"0.0": 32.5438695127,
			"0.001": 24.016340029,
			"0.002": 13.2414697087,
			"0.003": 13.603260337,
			"0.004": 12.1576982691,
			"0.005": 10.5591599051,
			"0.006": 9.90451348711,
			"0.007": 3.0829694021,
			"0.008": 1.27490034342,
			"0.009": 0.515153471091,
			"0.01": 1.55067336256,
			"0.011": 1.88025307688,
			"0.012": 1.91208184792,
			"0.013": 3.58011261729,
			"0.014": 0.543466253638,
			"0.015": 0.0,
			"0.016": 0.0,
			"0.017": 0.0,
			"0.018": 0.0,
			"0.019": 0.0,
			"0.02": 0.0,
			"0.021": 0.0,
			"0.022": 0.0,
			"0.023": 0.0,
			"0.024": 0.0,
			"0.025": 0.0
		}
	}
}
