{
	 "smiles": "O=CC1=CC(=CS1)C1=CC=CS1", 
	 "Tm": 381.15, 
	 "num_atms": 18, 
	 "gaussian": { 
		 "optdone": 1, 
		 "sigma_profile": "yes", 
		 "theory": "DFT", 
		 "functional": "B3LYP", 
		 "basiset": "6-31G**", 
		 "properties": { 
			 "R2extent": 3644.2314, 
			 "electric_dipole_moment_norm": 2.94723903001, 
			 "electric_quadrupole_moment_norm": 16.3148147786, 
			 "total_energy": -1218.13569254, 
			 "HOMO_LUMO_gap": 0.14846, 
			 "cosmo_polarized_energy": -9.07, 
			 "cosmo_cavitation_energy": 26.36, 
			 "cosmo_dispersion_energy": -20.23, 
			 "cosmo_repulsion_energy": 1.49, 
			 "cosmo_total_nonelectrostatic_energy": 7.62, 
			 "SMD_solvation_energy": 5.38 
		},
		"coords": [
			{
				"x": 1.9114998726,
				"y": -1.4511674828,
				"z": 4.4362840444,
				"element": "O" 
			},
			{
				"x": 2.5680943572,
				"y": -1.6487015605,
				"z": 3.429365341,
				"element": "C" 
			},
			{
				"x": 2.0341906839,
				"y": -1.4917596602,
				"z": 2.0740963212,
				"element": "C" 
			},
			{
				"x": 0.7641062309,
				"y": -1.097821613,
				"z": 1.7239809083,
				"element": "C" 
			},
			{
				"x": 0.5538303518,
				"y": -1.0311477367,
				"z": 0.3129496584,
				"element": "C" 
			},
			{
				"x": 1.7005980429,
				"y": -1.3832895342,
				"z": -0.3786913003,
				"element": "C" 
			},
			{
				"x": 3.0147134231,
				"y": -1.7864752376,
				"z": 0.6566304412,
				"element": "S" 
			},
			{
				"x": -0.7154222811,
				"y": -0.6434318763,
				"z": -0.3000215971,
				"element": "C" 
			},
			{
				"x": -1.9674609642,
				"y": -0.6389567946,
				"z": 0.2720221625,
				"element": "C" 
			},
			{
				"x": -2.9963850597,
				"y": -0.207949774,
				"z": -0.6146297168,
				"element": "C" 
			},
			{
				"x": -2.5252684866,
				"y": 0.1144840064,
				"z": -1.8572694801,
				"element": "C" 
			},
			{
				"x": -0.8072645083,
				"y": -0.0952853003,
				"z": -1.9611767449,
				"element": "S" 
			},
			{
				"x": 3.6312970211,
				"y": -1.966508044,
				"z": 3.4889037303,
				"element": "H" 
			},
			{
				"x": 0.0209212438,
				"y": -0.8500215639,
				"z": 2.4718206012,
				"element": "H" 
			},
			{
				"x": 1.8274795501,
				"y": -1.4409721614,
				"z": -1.4513832177,
				"element": "H" 
			},
			{
				"x": -2.1499382834,
				"y": -0.9544856339,
				"z": 1.2928801278,
				"element": "H" 
			},
			{
				"x": -4.0426612263,
				"y": -0.1453722747,
				"z": -0.3384017585,
				"element": "H" 
			},
			{
				"x": -3.0778299678,
				"y": 0.4676622416,
				"z": -2.7166595209,
				"element": "H" 
			}
		],
		 "valence_orbital": [ 
			{
				"type": "occ",
				"energy": -0.29161,
				"method": "rhf"
			},
			{
				"type": "occ",
				"energy": -0.2624,
				"method": "rhf"
			},
			{
				"type": "occ",
				"energy": -0.26088,
				"method": "rhf"
			},
			{
				"type": "occ",
				"energy": -0.25836,
				"method": "rhf"
			},
			{
				"type": "occ",
				"energy": -0.22128,
				"method": "rhf"
			},
			{
				"type": "unocc",
				"energy": -0.07282,
				"method": "rhf"
			},
			{
				"type": "unocc",
				"energy": -0.04084,
				"method": "rhf"
			},
			{
				"type": "unocc",
				"energy": 0.0082,
				"method": "rhf"
			},
			{
				"type": "unocc",
				"energy": 0.0181,
				"method": "rhf"
			},
			{
				"type": "unocc",
				"energy": 0.03174,
				"method": "rhf"
			}
		],
		"cosmo_sigma_profile": { 
			"-0.025": 0.0,
			"-0.024": 0.0,
			"-0.023": 0.0,
			"-0.022": 0.0,
			"-0.021": 0.0,
			"-0.02": 0.0,
			"-0.019": 0.0,
			"-0.018": 0.0,
			"-0.017": 0.0,
			"-0.016": 0.0,
			"-0.015": 0.0,
			"-0.014": 0.0,
			"-0.013": 0.0,
			"-0.012": 0.0,
			"-0.011": 0.0,
			"-0.01": 0.711893273158,
			"-0.009": 2.73223564049,
			"-0.008": 7.8185768672,
			"-0.007": 11.617682144,
			"-0.006": 11.5285916294,
			"-0.005": 11.3956317325,
			"-0.004": 11.2731771201,
			"-0.003": 10.9717208025,
			"-0.002": 11.9709564515,
			"-0.001": 11.9973284726,
			"0.0": 15.4079840568,
			"0.001": 23.4409200302,
			"0.002": 26.8403770687,
			"0.003": 16.8708205909,
			"0.004": 15.5039049384,
			"0.005": 8.93870731566,
			"0.006": 1.9114797581,
			"0.007": 1.46497138575,
			"0.008": 1.62496180599,
			"0.009": 2.23234906245,
			"0.01": 2.93308706872,
			"0.011": 3.96497424218,
			"0.012": 3.39559914306,
			"0.013": 0.664568197691,
			"0.014": 0.0,
			"0.015": 0.0,
			"0.016": 0.0,
			"0.017": 0.0,
			"0.018": 0.0,
			"0.019": 0.0,
			"0.02": 0.0,
			"0.021": 0.0,
			"0.022": 0.0,
			"0.023": 0.0,
			"0.024": 0.0,
			"0.025": 0.0
		}
	}
}
