{
	 "smiles": "FC1=C(Cl)C=CC(CBr)=C1", 
	 "Tm": 305.15, 
	 "num_atms": 15, 
	 "gaussian": { 
		 "optdone": 1, 
		 "sigma_profile": "yes", 
		 "theory": "DFT", 
		 "functional": "B3LYP", 
		 "basiset": "6-31G**", 
		 "properties": { 
			 "R2extent": 4287.1478, 
			 "electric_dipole_moment_norm": 2.32666812846, 
			 "electric_quadrupole_moment_norm": 10.5860219082, 
			 "total_energy": -3401.1909787, 
			 "HOMO_LUMO_gap": 0.1994, 
			 "cosmo_polarized_energy": -6.79, 
			 "cosmo_cavitation_energy": 24.01, 
			 "cosmo_dispersion_energy": -17.87, 
			 "cosmo_repulsion_energy": 1.44, 
			 "cosmo_total_nonelectrostatic_energy": 7.59, 
			 "SMD_solvation_energy": 3.08 
		},
		"coords": [
			{
				"x": -1.1988755211,
				"y": 1.1862306658,
				"z": -1.1876231408,
				"element": "F" 
			},
			{
				"x": -0.8824909221,
				"y": 0.7996544318,
				"z": 0.05651581,
				"element": "C" 
			},
			{
				"x": -1.813335169,
				"y": 0.9523158848,
				"z": 1.0871168233,
				"element": "C" 
			},
			{
				"x": -3.3767627786,
				"y": 1.6443542558,
				"z": 0.7470970299,
				"element": "Cl" 
			},
			{
				"x": -1.4741325199,
				"y": 0.543021514,
				"z": 2.3769470437,
				"element": "C" 
			},
			{
				"x": -0.220045866,
				"y": -0.0109208094,
				"z": 2.6242186196,
				"element": "C" 
			},
			{
				"x": 0.712740011,
				"y": -0.1661721812,
				"z": 1.5899000804,
				"element": "C" 
			},
			{
				"x": 2.0523960441,
				"y": -0.7726976791,
				"z": 1.8548166446,
				"element": "C" 
			},
			{
				"x": 3.4305588101,
				"y": 0.6094776809,
				"z": 2.3097814822,
				"element": "Br" 
			},
			{
				"x": 0.3679337158,
				"y": 0.247950772,
				"z": 0.2974603245,
				"element": "C" 
			},
			{
				"x": -2.1969053285,
				"y": 0.6602527459,
				"z": 3.1767116011,
				"element": "H" 
			},
			{
				"x": 0.0360164288,
				"y": -0.3220844123,
				"z": 3.6324991279,
				"element": "H" 
			},
			{
				"x": 2.0455020034,
				"y": -1.4409892363,
				"z": 2.7136427653,
				"element": "H" 
			},
			{
				"x": 2.4616789912,
				"y": -1.2855882793,
				"z": 0.9866013816,
				"element": "H" 
			},
			{
				"x": 1.0616221008,
				"y": 0.1534946466,
				"z": -0.5317855934,
				"element": "H" 
			}
		],
		 "valence_orbital": [ 
			{
				"type": "occ",
				"energy": -0.32401,
				"method": "rhf"
			},
			{
				"type": "occ",
				"energy": -0.28185,
				"method": "rhf"
			},
			{
				"type": "occ",
				"energy": -0.27938,
				"method": "rhf"
			},
			{
				"type": "occ",
				"energy": -0.26986,
				"method": "rhf"
			},
			{
				"type": "occ",
				"energy": -0.25262,
				"method": "rhf"
			},
			{
				"type": "unocc",
				"energy": -0.05322,
				"method": "rhf"
			},
			{
				"type": "unocc",
				"energy": -0.02316,
				"method": "rhf"
			},
			{
				"type": "unocc",
				"energy": 0.0153,
				"method": "rhf"
			},
			{
				"type": "unocc",
				"energy": 0.01643,
				"method": "rhf"
			},
			{
				"type": "unocc",
				"energy": 0.09199,
				"method": "rhf"
			}
		],
		"cosmo_sigma_profile": { 
			"-0.025": 0.0,
			"-0.024": 0.0,
			"-0.023": 0.0,
			"-0.022": 0.0,
			"-0.021": 0.0,
			"-0.02": 0.0,
			"-0.019": 0.0,
			"-0.018": 0.0,
			"-0.017": 0.0,
			"-0.016": 0.0,
			"-0.015": 0.0,
			"-0.014": 0.0,
			"-0.013": 0.0,
			"-0.012": 0.0,
			"-0.011": 0.0,
			"-0.01": 0.0,
			"-0.009": 0.97688873678,
			"-0.008": 10.082035067,
			"-0.007": 10.0552075934,
			"-0.006": 9.18056294431,
			"-0.005": 8.03214493375,
			"-0.004": 7.54770795072,
			"-0.003": 7.09065704483,
			"-0.002": 9.85075551439,
			"-0.001": 15.0759462068,
			"0.0": 16.4872395396,
			"0.001": 18.8385367709,
			"0.002": 18.5304859668,
			"0.003": 21.9026186375,
			"0.004": 21.1084804216,
			"0.005": 9.96419159836,
			"0.006": 11.6764481514,
			"0.007": 1.89035370497,
			"0.008": 0.0,
			"0.009": 0.0,
			"0.01": 0.0,
			"0.011": 0.0,
			"0.012": 0.0,
			"0.013": 0.0,
			"0.014": 0.0,
			"0.015": 0.0,
			"0.016": 0.0,
			"0.017": 0.0,
			"0.018": 0.0,
			"0.019": 0.0,
			"0.02": 0.0,
			"0.021": 0.0,
			"0.022": 0.0,
			"0.023": 0.0,
			"0.024": 0.0,
			"0.025": 0.0
		}
	}
}
