{
	 "smiles": "CC(Cl)C(=O)NCC1=C(C)C=CC=C1", 
	 "Tm": 382.15, 
	 "num_atms": 28, 
	 "gaussian": { 
		 "optdone": 1, 
		 "sigma_profile": "yes", 
		 "theory": "DFT", 
		 "functional": "B3LYP", 
		 "basiset": "6-31G**", 
		 "properties": { 
			 "R2extent": 4214.3525, 
			 "electric_dipole_moment_norm": 1.38126209316, 
			 "electric_quadrupole_moment_norm": 9.64051079197, 
			 "total_energy": -1017.81091729, 
			 "HOMO_LUMO_gap": 0.23143, 
			 "cosmo_polarized_energy": -10.03, 
			 "cosmo_cavitation_energy": 32.42, 
			 "cosmo_dispersion_energy": -22.76, 
			 "cosmo_repulsion_energy": 1.8, 
			 "cosmo_total_nonelectrostatic_energy": 11.46, 
			 "SMD_solvation_energy": 5.23 
		},
		"coords": [
			{
				"x": 3.64051613,
				"y": 1.4440175473,
				"z": 2.0642843397,
				"element": "C" 
			},
			{
				"x": 3.5158661179,
				"y": 0.043603757,
				"z": 1.4733540467,
				"element": "C" 
			},
			{
				"x": 2.9985990092,
				"y": -1.1427158658,
				"z": 2.7799379271,
				"element": "Cl" 
			},
			{
				"x": 2.6150529665,
				"y": 0.043918632,
				"z": 0.2246579443,
				"element": "C" 
			},
			{
				"x": 2.9442343864,
				"y": 0.7860906549,
				"z": -0.6973483395,
				"element": "O" 
			},
			{
				"x": 1.5257738447,
				"y": -0.7569607847,
				"z": 0.2114633453,
				"element": "N" 
			},
			{
				"x": 0.6280238174,
				"y": -0.8369445924,
				"z": -0.9395122017,
				"element": "C" 
			},
			{
				"x": -0.8310479153,
				"y": -0.6440841781,
				"z": -0.5748702752,
				"element": "C" 
			},
			{
				"x": -1.3264315392,
				"y": 0.5975584592,
				"z": -0.1185524476,
				"element": "C" 
			},
			{
				"x": -0.4305645258,
				"y": 1.7994858916,
				"z": 0.0754234302,
				"element": "C" 
			},
			{
				"x": -2.6912086811,
				"y": 0.700797086,
				"z": 0.1789163404,
				"element": "C" 
			},
			{
				"x": -3.557012393,
				"y": -0.3847014848,
				"z": 0.0413840531,
				"element": "C" 
			},
			{
				"x": -3.0641222746,
				"y": -1.6084911477,
				"z": -0.4071049864,
				"element": "C" 
			},
			{
				"x": -1.7080693714,
				"y": -1.7270340264,
				"z": -0.7113867948,
				"element": "C" 
			},
			{
				"x": 3.9534353643,
				"y": 2.1229042417,
				"z": 1.2673906787,
				"element": "H" 
			},
			{
				"x": 4.3802183864,
				"y": 1.4601430337,
				"z": 2.8673660793,
				"element": "H" 
			},
			{
				"x": 2.6816562007,
				"y": 1.7862487332,
				"z": 2.46327142,
				"element": "H" 
			},
			{
				"x": 4.4924462408,
				"y": -0.3211658315,
				"z": 1.1492336843,
				"element": "H" 
			},
			{
				"x": 1.3370332729,
				"y": -1.3320219035,
				"z": 1.0205964279,
				"element": "H" 
			},
			{
				"x": 0.7524083312,
				"y": -1.8108220249,
				"z": -1.4285348673,
				"element": "H" 
			},
			{
				"x": 0.9778475698,
				"y": -0.0764494737,
				"z": -1.6426311664,
				"element": "H" 
			},
			{
				"x": -1.0145592543,
				"y": 2.7239015568,
				"z": 0.0574915871,
				"element": "H" 
			},
			{
				"x": 0.3505067519,
				"y": 1.873622709,
				"z": -0.686285061,
				"element": "H" 
			},
			{
				"x": 0.0816288427,
				"y": 1.75504061,
				"z": 1.0444725242,
				"element": "H" 
			},
			{
				"x": -3.081161076,
				"y": 1.6560053684,
				"z": 0.5222596541,
				"element": "H" 
			},
			{
				"x": -4.6108047303,
				"y": -0.270752867,
				"z": 0.2794433463,
				"element": "H" 
			},
			{
				"x": -3.7258908228,
				"y": -2.4617697163,
				"z": -0.5231420567,
				"element": "H" 
			},
			{
				"x": -1.319074649,
				"y": -2.6778243841,
				"z": -1.0687786322,
				"element": "H" 
			}
		],
		 "valence_orbital": [ 
			{
				"type": "occ",
				"energy": -0.30724,
				"method": "rhf"
			},
			{
				"type": "occ",
				"energy": -0.2652,
				"method": "rhf"
			},
			{
				"type": "occ",
				"energy": -0.26088,
				"method": "rhf"
			},
			{
				"type": "occ",
				"energy": -0.24785,
				"method": "rhf"
			},
			{
				"type": "occ",
				"energy": -0.23939,
				"method": "rhf"
			},
			{
				"type": "unocc",
				"energy": -0.00796,
				"method": "rhf"
			},
			{
				"type": "unocc",
				"energy": -0.00347,
				"method": "rhf"
			},
			{
				"type": "unocc",
				"energy": 0.01173,
				"method": "rhf"
			},
			{
				"type": "unocc",
				"energy": 0.01931,
				"method": "rhf"
			},
			{
				"type": "unocc",
				"energy": 0.08911,
				"method": "rhf"
			}
		],
		"cosmo_sigma_profile": { 
			"-0.025": 0.0,
			"-0.024": 0.0,
			"-0.023": 0.0,
			"-0.022": 0.0,
			"-0.021": 0.0,
			"-0.02": 0.0,
			"-0.019": 0.0,
			"-0.018": 0.0,
			"-0.017": 0.0,
			"-0.016": 0.0,
			"-0.015": 0.0,
			"-0.014": 0.0,
			"-0.013": 0.0,
			"-0.012": 0.44810533614,
			"-0.011": 0.646252644318,
			"-0.01": 0.661788944193,
			"-0.009": 1.255866846,
			"-0.008": 2.85720348477,
			"-0.007": 3.22962456987,
			"-0.006": 7.4647992289,
			"-0.005": 18.8728189754,
			"-0.004": 25.8241418748,
			"-0.003": 27.3281093153,
			"-0.002": 21.9670745346,
			"-0.001": 23.6620864958,
			"0.0": 21.7431696802,
			"0.001": 17.591671537,
			"0.002": 14.132076531,
			"0.003": 12.5174851547,
			"0.004": 12.7476059426,
			"0.005": 15.5325765195,
			"0.006": 13.595010965,
			"0.007": 3.62460841526,
			"0.008": 0.855644310536,
			"0.009": 0.955711996168,
			"0.01": 1.34936933879,
			"0.011": 1.84184101541,
			"0.012": 1.77716488841,
			"0.013": 4.07954556932,
			"0.014": 1.53706991921,
			"0.015": 0.0,
			"0.016": 0.0,
			"0.017": 0.0,
			"0.018": 0.0,
			"0.019": 0.0,
			"0.02": 0.0,
			"0.021": 0.0,
			"0.022": 0.0,
			"0.023": 0.0,
			"0.024": 0.0,
			"0.025": 0.0
		}
	}
}
