{
	 "smiles": "CC1(C)C2(C)CCC1(OC2=O)C(O)=O", 
	 "Tm": 473.15, 
	 "num_atms": 28, 
	 "gaussian": { 
		 "optdone": 1, 
		 "sigma_profile": "yes", 
		 "theory": "DFT", 
		 "functional": "B3LYP", 
		 "basiset": "6-31G**", 
		 "properties": { 
			 "R2extent": 2488.7429, 
			 "electric_dipole_moment_norm": 5.53101681972, 
			 "electric_quadrupole_moment_norm": 10.5607502679, 
			 "total_energy": -690.422344538, 
			 "HOMO_LUMO_gap": 0.25139, 
			 "cosmo_polarized_energy": -16.8, 
			 "cosmo_cavitation_energy": 28.79, 
			 "cosmo_dispersion_energy": -20.28, 
			 "cosmo_repulsion_energy": 1.56, 
			 "cosmo_total_nonelectrostatic_energy": 10.08, 
			 "SMD_solvation_energy": 6.81 
		},
		"coords": [
			{
				"x": -0.8225384631,
				"y": -1.4252541296,
				"z": 1.2534417118,
				"element": "C" 
			},
			{
				"x": -0.7109468645,
				"y": -0.7058406246,
				"z": -0.1013920669,
				"element": "C" 
			},
			{
				"x": -1.2490177616,
				"y": -1.6328414241,
				"z": -1.1990819496,
				"element": "C" 
			},
			{
				"x": 0.7094681172,
				"y": -0.0995854369,
				"z": -0.3811688545,
				"element": "C" 
			},
			{
				"x": 1.9214603431,
				"y": -1.0110398817,
				"z": -0.4300922502,
				"element": "C" 
			},
			{
				"x": 0.4615811456,
				"y": 0.7695783931,
				"z": -1.6599100125,
				"element": "C" 
			},
			{
				"x": -0.9753480431,
				"y": 1.3303754659,
				"z": -1.4519266329,
				"element": "C" 
			},
			{
				"x": -1.3452017374,
				"y": 0.7316031037,
				"z": -0.0770247562,
				"element": "C" 
			},
			{
				"x": -0.5180208905,
				"y": 1.4247103425,
				"z": 0.8916259163,
				"element": "O" 
			},
			{
				"x": 0.7595412565,
				"y": 0.9436889152,
				"z": 0.734869267,
				"element": "C" 
			},
			{
				"x": 1.6943271912,
				"y": 1.3517948188,
				"z": 1.3721240372,
				"element": "O" 
			},
			{
				"x": -2.7858851489,
				"y": 0.8218650103,
				"z": 0.3761319045,
				"element": "C" 
			},
			{
				"x": -3.6316319066,
				"y": 0.5091459104,
				"z": -0.6391622987,
				"element": "O" 
			},
			{
				"x": -3.1634033811,
				"y": 1.087402658,
				"z": 1.491101112,
				"element": "O" 
			},
			{
				"x": -0.203615145,
				"y": -2.3278708479,
				"z": 1.2529178238,
				"element": "H" 
			},
			{
				"x": -0.5145072692,
				"y": -0.799151436,
				"z": 2.0932921704,
				"element": "H" 
			},
			{
				"x": -1.8555602994,
				"y": -1.7372259797,
				"z": 1.4376884325,
				"element": "H" 
			},
			{
				"x": -2.3006215376,
				"y": -1.8714858416,
				"z": -1.0151681085,
				"element": "H" 
			},
			{
				"x": -1.1791544827,
				"y": -1.2138379086,
				"z": -2.2042675264,
				"element": "H" 
			},
			{
				"x": -0.6899089514,
				"y": -2.5741136687,
				"z": -1.1912115689,
				"element": "H" 
			},
			{
				"x": 2.0226697274,
				"y": -1.5926552372,
				"z": 0.4905815523,
				"element": "H" 
			},
			{
				"x": 1.8584668362,
				"y": -1.7049797327,
				"z": -1.2742566026,
				"element": "H" 
			},
			{
				"x": 2.83343069,
				"y": -0.417108438,
				"z": -0.5397825789,
				"element": "H" 
			},
			{
				"x": 0.5336222449,
				"y": 0.1466283878,
				"z": -2.5558253194,
				"element": "H" 
			},
			{
				"x": 1.2143758835,
				"y": 1.5571813851,
				"z": -1.7518766226,
				"element": "H" 
			},
			{
				"x": -1.0041438958,
				"y": 2.4210071849,
				"z": -1.3963611788,
				"element": "H" 
			},
			{
				"x": -1.6723069859,
				"y": 1.0110555411,
				"z": -2.2280766342,
				"element": "H" 
			},
			{
				"x": -4.5273306717,
				"y": 0.5473534704,
				"z": -0.262488966,
				"element": "H" 
			}
		],
		 "valence_orbital": [ 
			{
				"type": "occ",
				"energy": -0.33304,
				"method": "rhf"
			},
			{
				"type": "occ",
				"energy": -0.32399,
				"method": "rhf"
			},
			{
				"type": "occ",
				"energy": -0.29136,
				"method": "rhf"
			},
			{
				"type": "occ",
				"energy": -0.28535,
				"method": "rhf"
			},
			{
				"type": "occ",
				"energy": -0.26197,
				"method": "rhf"
			},
			{
				"type": "unocc",
				"energy": -0.01058,
				"method": "rhf"
			},
			{
				"type": "unocc",
				"energy": 0.0115,
				"method": "rhf"
			},
			{
				"type": "unocc",
				"energy": 0.05836,
				"method": "rhf"
			},
			{
				"type": "unocc",
				"energy": 0.07098,
				"method": "rhf"
			},
			{
				"type": "unocc",
				"energy": 0.09402,
				"method": "rhf"
			}
		],
		"cosmo_sigma_profile": { 
			"-0.025": 0.0,
			"-0.024": 0.0,
			"-0.023": 0.0,
			"-0.022": 0.0,
			"-0.021": 0.0,
			"-0.02": 0.00345057028922,
			"-0.019": 0.528120279946,
			"-0.018": 1.02317087272,
			"-0.017": 0.686911735053,
			"-0.016": 1.06015995121,
			"-0.015": 0.469423523874,
			"-0.014": 0.531775968969,
			"-0.013": 0.843933046449,
			"-0.012": 0.963883382343,
			"-0.011": 0.652644157598,
			"-0.01": 0.301372962966,
			"-0.009": 0.790640129382,
			"-0.008": 0.781712420259,
			"-0.007": 1.25679898773,
			"-0.006": 4.77832626701,
			"-0.005": 14.1021282542,
			"-0.004": 29.239056581,
			"-0.003": 28.7106239661,
			"-0.002": 23.0829126129,
			"-0.001": 23.3392010544,
			"0.0": 19.2522921358,
			"0.001": 8.59899487422,
			"0.002": 4.95279904255,
			"0.003": 4.42321587309,
			"0.004": 5.39706694133,
			"0.005": 3.9778939241,
			"0.006": 3.74467596704,
			"0.007": 4.83298268701,
			"0.008": 4.37909513316,
			"0.009": 5.79145586268,
			"0.01": 6.5265097316,
			"0.011": 10.7486440688,
			"0.012": 6.83160554109,
			"0.013": 1.34358155257,
			"0.014": 0.0177192075295,
			"0.015": 0.0,
			"0.016": 0.0,
			"0.017": 0.0,
			"0.018": 0.0,
			"0.019": 0.0,
			"0.02": 0.0,
			"0.021": 0.0,
			"0.022": 0.0,
			"0.023": 0.0,
			"0.024": 0.0,
			"0.025": 0.0
		}
	}
}
