{
	 "smiles": "ClCC1=C(Br)C=C2OCOC2=C1", 
	 "Tm": 337.15, 
	 "num_atms": 18, 
	 "gaussian": { 
		 "optdone": 1, 
		 "sigma_profile": "yes", 
		 "theory": "DFT", 
		 "functional": "B3LYP", 
		 "basiset": "6-31G**", 
		 "properties": { 
			 "R2extent": 3508.3687, 
			 "electric_dipole_moment_norm": 3.54237970156, 
			 "electric_quadrupole_moment_norm": 10.9830664698, 
			 "total_energy": -3490.48520331, 
			 "HOMO_LUMO_gap": 0.18757, 
			 "cosmo_polarized_energy": -8.57, 
			 "cosmo_cavitation_energy": 26.1, 
			 "cosmo_dispersion_energy": -20.02, 
			 "cosmo_repulsion_energy": 1.6, 
			 "cosmo_total_nonelectrostatic_energy": 7.68, 
			 "SMD_solvation_energy": 3.72 
		},
		"coords": [
			{
				"x": -2.7486645733,
				"y": 1.6134442756,
				"z": 1.2435641919,
				"element": "Cl" 
			},
			{
				"x": -2.0417742301,
				"y": 1.2301020305,
				"z": -0.4100647589,
				"element": "C" 
			},
			{
				"x": -1.0088870689,
				"y": 0.1486362449,
				"z": -0.3541081681,
				"element": "C" 
			},
			{
				"x": 0.3588023385,
				"y": 0.4077812631,
				"z": -0.1934410015,
				"element": "C" 
			},
			{
				"x": 1.0051256059,
				"y": 2.2021122323,
				"z": -0.028099638,
				"element": "Br" 
			},
			{
				"x": 1.3256724092,
				"y": -0.6120352276,
				"z": -0.1419519101,
				"element": "C" 
			},
			{
				"x": 0.8627977445,
				"y": -1.9065339285,
				"z": -0.2501449714,
				"element": "C" 
			},
			{
				"x": 1.5860630059,
				"y": -3.0678282553,
				"z": -0.2485775909,
				"element": "O" 
			},
			{
				"x": 0.6215299519,
				"y": -4.1308168842,
				"z": -0.2842109496,
				"element": "C" 
			},
			{
				"x": -0.6681655716,
				"y": -3.5492755018,
				"z": -0.5120894439,
				"element": "O" 
			},
			{
				"x": -0.4924416574,
				"y": -2.1930481857,
				"z": -0.4071238727,
				"element": "C" 
			},
			{
				"x": -1.4389477987,
				"y": -1.1961218511,
				"z": -0.4638963848,
				"element": "C" 
			},
			{
				"x": -1.6354291941,
				"y": 2.1705593257,
				"z": -0.7755998821,
				"element": "H" 
			},
			{
				"x": -2.8930103726,
				"y": 0.9319779963,
				"z": -1.0213713262,
				"element": "H" 
			},
			{
				"x": 2.3776884231,
				"y": -0.3879989872,
				"z": -0.0236689424,
				"element": "H" 
			},
			{
				"x": 0.6232606468,
				"y": -4.6568001746,
				"z": 0.6797665541,
				"element": "H" 
			},
			{
				"x": 0.8646668466,
				"y": -4.8137412238,
				"z": -1.1039634469,
				"element": "H" 
			},
			{
				"x": -2.4914865056,
				"y": -1.4282131488,
				"z": -0.5833184585,
				"element": "H" 
			}
		],
		 "valence_orbital": [ 
			{
				"type": "occ",
				"energy": -0.2944,
				"method": "rhf"
			},
			{
				"type": "occ",
				"energy": -0.29072,
				"method": "rhf"
			},
			{
				"type": "occ",
				"energy": -0.2866,
				"method": "rhf"
			},
			{
				"type": "occ",
				"energy": -0.25882,
				"method": "rhf"
			},
			{
				"type": "occ",
				"energy": -0.22031,
				"method": "rhf"
			},
			{
				"type": "unocc",
				"energy": -0.03274,
				"method": "rhf"
			},
			{
				"type": "unocc",
				"energy": -0.01788,
				"method": "rhf"
			},
			{
				"type": "unocc",
				"energy": -0.00089,
				"method": "rhf"
			},
			{
				"type": "unocc",
				"energy": 0.04456,
				"method": "rhf"
			},
			{
				"type": "unocc",
				"energy": 0.08571,
				"method": "rhf"
			}
		],
		"cosmo_sigma_profile": { 
			"-0.025": 0.0,
			"-0.024": 0.0,
			"-0.023": 0.0,
			"-0.022": 0.0,
			"-0.021": 0.0,
			"-0.02": 0.0,
			"-0.019": 0.0,
			"-0.018": 0.0,
			"-0.017": 0.0,
			"-0.016": 0.0,
			"-0.015": 0.0,
			"-0.014": 0.0,
			"-0.013": 0.0,
			"-0.012": 0.0,
			"-0.011": 0.0,
			"-0.01": 0.0,
			"-0.009": 1.8505587525,
			"-0.008": 11.4898074511,
			"-0.007": 11.8531550647,
			"-0.006": 12.7924290237,
			"-0.005": 8.75383303327,
			"-0.004": 10.7651018717,
			"-0.003": 9.76922004662,
			"-0.002": 10.2716750963,
			"-0.001": 11.1631653803,
			"0.0": 13.4971897882,
			"0.001": 21.039255658,
			"0.002": 21.3500741391,
			"0.003": 16.2019193654,
			"0.004": 17.4214505131,
			"0.005": 10.1506912005,
			"0.006": 12.1041760182,
			"0.007": 8.73512140937,
			"0.008": 2.95911246326,
			"0.009": 2.50234746445,
			"0.01": 0.126652761313,
			"0.011": 0.0,
			"0.012": 0.0,
			"0.013": 0.0,
			"0.014": 0.0,
			"0.015": 0.0,
			"0.016": 0.0,
			"0.017": 0.0,
			"0.018": 0.0,
			"0.019": 0.0,
			"0.02": 0.0,
			"0.021": 0.0,
			"0.022": 0.0,
			"0.023": 0.0,
			"0.024": 0.0,
			"0.025": 0.0
		}
	}
}
