{
	 "smiles": "CC1=CN=C2C=CC=CC2=C1C", 
	 "Tm": 346.65, 
	 "num_atms": 23, 
	 "gaussian": { 
		 "optdone": 1, 
		 "sigma_profile": "yes", 
		 "theory": "DFT", 
		 "functional": "B3LYP", 
		 "basiset": "6-31G**", 
		 "properties": { 
			 "R2extent": 2174.7363, 
			 "electric_dipole_moment_norm": 2.59286948765, 
			 "electric_quadrupole_moment_norm": 9.98509539664, 
			 "total_energy": -480.571091895, 
			 "HOMO_LUMO_gap": 0.17572, 
			 "cosmo_polarized_energy": -7.27, 
			 "cosmo_cavitation_energy": 25.56, 
			 "cosmo_dispersion_energy": -19.09, 
			 "cosmo_repulsion_energy": 1.48, 
			 "cosmo_total_nonelectrostatic_energy": 7.95, 
			 "SMD_solvation_energy": 2.72 
		},
		"coords": [
			{
				"x": -0.6471613292,
				"y": 3.5994467802,
				"z": -1.5138477364,
				"element": "C" 
			},
			{
				"x": -0.8221995822,
				"y": 2.2176747455,
				"z": -0.9265748869,
				"element": "C" 
			},
			{
				"x": -2.0888990281,
				"y": 1.580113403,
				"z": -1.0540572432,
				"element": "C" 
			},
			{
				"x": -2.3967792049,
				"y": 0.386403107,
				"z": -0.5995024752,
				"element": "N" 
			},
			{
				"x": -1.4161827437,
				"y": -0.3032288685,
				"z": 0.0522787339,
				"element": "C" 
			},
			{
				"x": -1.730317675,
				"y": -1.5953901313,
				"z": 0.5508932789,
				"element": "C" 
			},
			{
				"x": -0.7839855011,
				"y": -2.3399598445,
				"z": 1.21693031,
				"element": "C" 
			},
			{
				"x": 0.5183170424,
				"y": -1.8200916106,
				"z": 1.4113177,
				"element": "C" 
			},
			{
				"x": 0.8511379237,
				"y": -0.5693349085,
				"z": 0.9383334448,
				"element": "C" 
			},
			{
				"x": -0.1014693995,
				"y": 0.2280476866,
				"z": 0.2455753003,
				"element": "C" 
			},
			{
				"x": 0.1890419509,
				"y": 1.5332711459,
				"z": -0.2669091554,
				"element": "C" 
			},
			{
				"x": 1.5661117555,
				"y": 2.1227993461,
				"z": -0.0798151787,
				"element": "C" 
			},
			{
				"x": 0.1356015306,
				"y": 3.6246166448,
				"z": -2.2805009031,
				"element": "H" 
			},
			{
				"x": -1.5751844587,
				"y": 3.9369832783,
				"z": -1.9834649837,
				"element": "H" 
			},
			{
				"x": -0.3780322092,
				"y": 4.3395238389,
				"z": -0.7516374243,
				"element": "H" 
			},
			{
				"x": -2.8853736612,
				"y": 2.116625856,
				"z": -1.572428585,
				"element": "H" 
			},
			{
				"x": -2.7381231389,
				"y": -1.9615647732,
				"z": 0.3835492397,
				"element": "H" 
			},
			{
				"x": -1.0313353385,
				"y": -3.3275150054,
				"z": 1.5955914896,
				"element": "H" 
			},
			{
				"x": 1.2602760049,
				"y": -2.4135170582,
				"z": 1.9379953365,
				"element": "H" 
			},
			{
				"x": 1.8544550516,
				"y": -0.188253908,
				"z": 1.0971936979,
				"element": "H" 
			},
			{
				"x": 1.6488067029,
				"y": 3.1181172347,
				"z": -0.5166467752,
				"element": "H" 
			},
			{
				"x": 1.8201636711,
				"y": 2.2038870282,
				"z": 0.9834236522,
				"element": "H" 
			},
			{
				"x": 2.3327316366,
				"y": 1.4911460131,
				"z": -0.5433968368,
				"element": "H" 
			}
		],
		 "valence_orbital": [ 
			{
				"type": "occ",
				"energy": -0.33228,
				"method": "rhf"
			},
			{
				"type": "occ",
				"energy": -0.28446,
				"method": "rhf"
			},
			{
				"type": "occ",
				"energy": -0.24631,
				"method": "rhf"
			},
			{
				"type": "occ",
				"energy": -0.24125,
				"method": "rhf"
			},
			{
				"type": "occ",
				"energy": -0.2229,
				"method": "rhf"
			},
			{
				"type": "unocc",
				"energy": -0.04718,
				"method": "rhf"
			},
			{
				"type": "unocc",
				"energy": -0.00809,
				"method": "rhf"
			},
			{
				"type": "unocc",
				"energy": 0.02807,
				"method": "rhf"
			},
			{
				"type": "unocc",
				"energy": 0.08892,
				"method": "rhf"
			},
			{
				"type": "unocc",
				"energy": 0.08935,
				"method": "rhf"
			}
		],
		"cosmo_sigma_profile": { 
			"-0.025": 0.0,
			"-0.024": 0.0,
			"-0.023": 0.0,
			"-0.022": 0.0,
			"-0.021": 0.0,
			"-0.02": 0.0,
			"-0.019": 0.0,
			"-0.018": 0.0,
			"-0.017": 0.0,
			"-0.016": 0.0,
			"-0.015": 0.0,
			"-0.014": 0.0,
			"-0.013": 0.0,
			"-0.012": 0.0,
			"-0.011": 0.0,
			"-0.01": 0.0,
			"-0.009": 0.0,
			"-0.008": 0.0,
			"-0.007": 0.0400767254261,
			"-0.006": 5.5048009599,
			"-0.005": 16.5802310388,
			"-0.004": 24.3829239335,
			"-0.003": 20.4548245946,
			"-0.002": 17.7954889343,
			"-0.001": 20.5086757858,
			"0.0": 18.9884982809,
			"0.001": 10.9297076954,
			"0.002": 15.8132689143,
			"0.003": 15.6604852622,
			"0.004": 13.7067412344,
			"0.005": 9.93905614187,
			"0.006": 2.0540537993,
			"0.007": 1.71683832322,
			"0.008": 1.15665454722,
			"0.009": 1.29000257764,
			"0.01": 1.32172479669,
			"0.011": 0.912956547285,
			"0.012": 1.29757312904,
			"0.013": 0.681381323537,
			"0.014": 0.649095631961,
			"0.015": 0.858985482104,
			"0.016": 1.01727714412,
			"0.017": 0.265672584598,
			"0.018": 0.0,
			"0.019": 0.0,
			"0.02": 0.0,
			"0.021": 0.0,
			"0.022": 0.0,
			"0.023": 0.0,
			"0.024": 0.0,
			"0.025": 0.0
		}
	}
}
