{
	 "smiles": "CC1=C(C)C=C2N=C(NC2=C1)C1=C2C=CC=NC2=CC=C1", 
	 "Tm": 403.15, 
	 "num_atms": 36, 
	 "gaussian": { 
		 "optdone": 1, 
		 "sigma_profile": "yes", 
		 "theory": "DFT", 
		 "functional": "B3LYP", 
		 "basiset": "6-31G**", 
		 "properties": { 
			 "R2extent": 9271.5951, 
			 "electric_dipole_moment_norm": 3.2227729706, 
			 "electric_quadrupole_moment_norm": 5.25669320676, 
			 "total_energy": -859.247282808, 
			 "HOMO_LUMO_gap": 0.14156, 
			 "cosmo_polarized_energy": -15.68, 
			 "cosmo_cavitation_energy": 39.32, 
			 "cosmo_dispersion_energy": -28.88, 
			 "cosmo_repulsion_energy": 2.15, 
			 "cosmo_total_nonelectrostatic_energy": 12.58, 
			 "SMD_solvation_energy": 2.95 
		},
		"coords": [
			{
				"x": -3.8372249105,
				"y": -3.3348031471,
				"z": 3.113499876,
				"element": "C" 
			},
			{
				"x": -2.3880154265,
				"y": -3.0380788979,
				"z": 2.8058885767,
				"element": "C" 
			},
			{
				"x": -1.3739934854,
				"y": -3.9808982048,
				"z": 3.155908056,
				"element": "C" 
			},
			{
				"x": -1.7512114029,
				"y": -5.2786678609,
				"z": 3.8333919396,
				"element": "C" 
			},
			{
				"x": -0.0359371468,
				"y": -3.7122261112,
				"z": 2.8770815269,
				"element": "C" 
			},
			{
				"x": 0.3103509805,
				"y": -2.5069577095,
				"z": 2.252414842,
				"element": "C" 
			},
			{
				"x": 1.5520740977,
				"y": -2.015616763,
				"z": 1.8868050387,
				"element": "N" 
			},
			{
				"x": 1.3162988193,
				"y": -0.8444313011,
				"z": 1.3314189725,
				"element": "C" 
			},
			{
				"x": -0.0385975349,
				"y": -0.540744407,
				"z": 1.3017760048,
				"element": "N" 
			},
			{
				"x": -0.7064681212,
				"y": -1.5908662589,
				"z": 1.9076247741,
				"element": "C" 
			},
			{
				"x": -2.0528130682,
				"y": -1.838375861,
				"z": 2.1765299999,
				"element": "C" 
			},
			{
				"x": 2.3616972557,
				"y": 0.0815253521,
				"z": 0.8659251576,
				"element": "C" 
			},
			{
				"x": 2.2080967804,
				"y": 0.9438908017,
				"z": -0.2725325822,
				"element": "C" 
			},
			{
				"x": 1.1060823489,
				"y": 0.9119090166,
				"z": -1.1698879724,
				"element": "C" 
			},
			{
				"x": 1.0585655585,
				"y": 1.7915033986,
				"z": -2.2265276157,
				"element": "C" 
			},
			{
				"x": 2.1211701104,
				"y": 2.7104925093,
				"z": -2.3995301962,
				"element": "C" 
			},
			{
				"x": 3.1859164366,
				"y": 2.751903413,
				"z": -1.6260334174,
				"element": "N" 
			},
			{
				"x": 3.2569126968,
				"y": 1.8755574897,
				"z": -0.5805714677,
				"element": "C" 
			},
			{
				"x": 4.4382888094,
				"y": 1.8902195266,
				"z": 0.2054601874,
				"element": "C" 
			},
			{
				"x": 4.5855369295,
				"y": 1.0094583448,
				"z": 1.2524974362,
				"element": "C" 
			},
			{
				"x": 3.5474469535,
				"y": 0.1138618778,
				"z": 1.5845551509,
				"element": "C" 
			},
			{
				"x": -4.4856763194,
				"y": -2.5187557818,
				"z": 2.7834257473,
				"element": "H" 
			},
			{
				"x": -4.0040393372,
				"y": -3.4782948093,
				"z": 4.1881394122,
				"element": "H" 
			},
			{
				"x": -4.1788160325,
				"y": -4.2522137717,
				"z": 2.6186246554,
				"element": "H" 
			},
			{
				"x": -2.4328664749,
				"y": -5.8783626811,
				"z": 3.2175788766,
				"element": "H" 
			},
			{
				"x": -2.2602752767,
				"y": -5.1078708214,
				"z": 4.7900529937,
				"element": "H" 
			},
			{
				"x": -0.8648409181,
				"y": -5.8860389359,
				"z": 4.0336004109,
				"element": "H" 
			},
			{
				"x": 0.7400158556,
				"y": -4.4245257746,
				"z": 3.1413032866,
				"element": "H" 
			},
			{
				"x": -0.4298087256,
				"y": 0.3561770903,
				"z": 1.0598785829,
				"element": "H" 
			},
			{
				"x": -2.8276056339,
				"y": -1.1247730781,
				"z": 1.9092712803,
				"element": "H" 
			},
			{
				"x": 0.3220909725,
				"y": 0.1736418051,
				"z": -1.0414730173,
				"element": "H" 
			},
			{
				"x": 0.231849382,
				"y": 1.7784858239,
				"z": -2.9298888373,
				"element": "H" 
			},
			{
				"x": 2.090209041,
				"y": 3.4245925003,
				"z": -3.2219526975,
				"element": "H" 
			},
			{
				"x": 5.2078256733,
				"y": 2.6068532149,
				"z": -0.0611133753,
				"element": "H" 
			},
			{
				"x": 5.4954568104,
				"y": 1.0106302705,
				"z": 1.8451706631,
				"element": "H" 
			},
			{
				"x": 3.6542043024,
				"y": -0.5615002589,
				"z": 2.4262877309,
				"element": "H" 
			}
		],
		 "valence_orbital": [ 
			{
				"type": "occ",
				"energy": -0.25797,
				"method": "rhf"
			},
			{
				"type": "occ",
				"energy": -0.2559,
				"method": "rhf"
			},
			{
				"type": "occ",
				"energy": -0.24587,
				"method": "rhf"
			},
			{
				"type": "occ",
				"energy": -0.22144,
				"method": "rhf"
			},
			{
				"type": "occ",
				"energy": -0.20592,
				"method": "rhf"
			},
			{
				"type": "unocc",
				"energy": -0.06436,
				"method": "rhf"
			},
			{
				"type": "unocc",
				"energy": -0.02202,
				"method": "rhf"
			},
			{
				"type": "unocc",
				"energy": -0.01886,
				"method": "rhf"
			},
			{
				"type": "unocc",
				"energy": 0.01705,
				"method": "rhf"
			},
			{
				"type": "unocc",
				"energy": 0.02392,
				"method": "rhf"
			}
		],
		"cosmo_sigma_profile": { 
			"-0.025": 0.0,
			"-0.024": 0.0,
			"-0.023": 0.0,
			"-0.022": 0.0,
			"-0.021": 0.0,
			"-0.02": 0.0,
			"-0.019": 0.0,
			"-0.018": 0.0,
			"-0.017": 0.0,
			"-0.016": 0.567475513778,
			"-0.015": 1.10436945038,
			"-0.014": 1.29984481496,
			"-0.013": 1.30768698334,
			"-0.012": 1.2483798796,
			"-0.011": 1.77747718472,
			"-0.01": 1.01400029794,
			"-0.009": 1.7282817925,
			"-0.008": 1.68902049555,
			"-0.007": 6.63146855835,
			"-0.006": 13.98057516,
			"-0.005": 17.4149732237,
			"-0.004": 23.0363479078,
			"-0.003": 24.5586153428,
			"-0.002": 21.8296332423,
			"-0.001": 22.5295697379,
			"0.0": 29.9386694227,
			"0.001": 33.1155943427,
			"0.002": 27.7064441504,
			"0.003": 21.9039812142,
			"0.004": 14.0627830183,
			"0.005": 14.3611049063,
			"0.006": 9.81432135963,
			"0.007": 3.78080283437,
			"0.008": 3.02426493405,
			"0.009": 2.64539589055,
			"0.01": 1.82475541707,
			"0.011": 1.98409483683,
			"0.012": 2.05555580712,
			"0.013": 2.11278751649,
			"0.014": 1.64525652171,
			"0.015": 1.06965529287,
			"0.016": 1.37734239612,
			"0.017": 0.6947417609,
			"0.018": 0.0,
			"0.019": 0.0,
			"0.02": 0.0,
			"0.021": 0.0,
			"0.022": 0.0,
			"0.023": 0.0,
			"0.024": 0.0,
			"0.025": 0.0
		}
	}
}
