{
	 "smiles": "OC(=O)C1=CC=CC=C1N=NC1SC(=S)NC1=O", 
	 "Tm": 517.15, 
	 "num_atms": 25, 
	 "gaussian": { 
		 "optdone": 1, 
		 "sigma_profile": "yes", 
		 "theory": "DFT", 
		 "functional": "B3LYP", 
		 "basiset": "6-31G**", 
		 "properties": { 
			 "R2extent": 7171.9558, 
			 "electric_dipole_moment_norm": 6.0133955832, 
			 "electric_quadrupole_moment_norm": 12.6312711019, 
			 "total_energy": -1571.54025463, 
			 "HOMO_LUMO_gap": 0.13915, 
			 "cosmo_polarized_energy": -21.45, 
			 "cosmo_cavitation_energy": 34.08, 
			 "cosmo_dispersion_energy": -25.48, 
			 "cosmo_repulsion_energy": 1.87, 
			 "cosmo_total_nonelectrostatic_energy": 10.47, 
			 "SMD_solvation_energy": 3.64 
		},
		"coords": [
			{
				"x": -2.2234832367,
				"y": 1.3824046229,
				"z": -1.4426252874,
				"element": "O" 
			},
			{
				"x": -1.3701259484,
				"y": 0.9195701361,
				"z": -2.3658175608,
				"element": "C" 
			},
			{
				"x": -1.1037877396,
				"y": 1.5651406717,
				"z": -3.3559229463,
				"element": "O" 
			},
			{
				"x": -0.7786096961,
				"y": -0.4623366888,
				"z": -2.156250311,
				"element": "C" 
			},
			{
				"x": -0.1531471536,
				"y": -1.0386856818,
				"z": -3.2652376129,
				"element": "C" 
			},
			{
				"x": 0.3713621687,
				"y": -2.3290107605,
				"z": -3.2082675865,
				"element": "C" 
			},
			{
				"x": 0.2775896532,
				"y": -3.0677186726,
				"z": -2.0275056397,
				"element": "C" 
			},
			{
				"x": -0.3040858018,
				"y": -2.5056749353,
				"z": -0.8924692413,
				"element": "C" 
			},
			{
				"x": -0.8037805517,
				"y": -1.193559036,
				"z": -0.9440884929,
				"element": "C" 
			},
			{
				"x": -1.504557777,
				"y": -0.6027059286,
				"z": 0.1499317997,
				"element": "N" 
			},
			{
				"x": -1.1464116966,
				"y": -0.570075063,
				"z": 1.3440141345,
				"element": "N" 
			},
			{
				"x": 0.2003661071,
				"y": -1.0662683149,
				"z": 1.7559128432,
				"element": "C" 
			},
			{
				"x": 0.9560029014,
				"y": 0.2233959536,
				"z": 2.8206905503,
				"element": "S" 
			},
			{
				"x": 0.8595708968,
				"y": -0.7744190691,
				"z": 4.2824201187,
				"element": "C" 
			},
			{
				"x": 1.336291575,
				"y": -0.3047448046,
				"z": 5.7757821297,
				"element": "S" 
			},
			{
				"x": 0.3467891196,
				"y": -2.0142444594,
				"z": 3.9555742511,
				"element": "N" 
			},
			{
				"x": 0.0133343497,
				"y": -2.3047648272,
				"z": 2.6475985031,
				"element": "C" 
			},
			{
				"x": -0.3908393205,
				"y": -3.3792493118,
				"z": 2.2567543481,
				"element": "O" 
			},
			{
				"x": -2.3222335021,
				"y": 0.7309612804,
				"z": -0.7097204156,
				"element": "H" 
			},
			{
				"x": -0.1059408977,
				"y": -0.4478621217,
				"z": -4.1732792394,
				"element": "H" 
			},
			{
				"x": 0.8339910711,
				"y": -2.76375294,
				"z": -4.0888159189,
				"element": "H" 
			},
			{
				"x": 0.652343064,
				"y": -4.0858418117,
				"z": -1.9852720635,
				"element": "H" 
			},
			{
				"x": -0.4148639033,
				"y": -3.0872669339,
				"z": 0.0172226576,
				"element": "H" 
			},
			{
				"x": 0.8608476178,
				"y": -1.3031491124,
				"z": 0.9183368273,
				"element": "H" 
			},
			{
				"x": 0.2462787008,
				"y": -2.7221421914,
				"z": 4.6745341531,
				"element": "H" 
			}
		],
		 "valence_orbital": [ 
			{
				"type": "occ",
				"energy": -0.28783,
				"method": "rhf"
			},
			{
				"type": "occ",
				"energy": -0.27587,
				"method": "rhf"
			},
			{
				"type": "occ",
				"energy": -0.27477,
				"method": "rhf"
			},
			{
				"type": "occ",
				"energy": -0.26287,
				"method": "rhf"
			},
			{
				"type": "occ",
				"energy": -0.25479,
				"method": "rhf"
			},
			{
				"type": "unocc",
				"energy": -0.11564,
				"method": "rhf"
			},
			{
				"type": "unocc",
				"energy": -0.0958,
				"method": "rhf"
			},
			{
				"type": "unocc",
				"energy": -0.05874,
				"method": "rhf"
			},
			{
				"type": "unocc",
				"energy": -0.03267,
				"method": "rhf"
			},
			{
				"type": "unocc",
				"energy": -0.02504,
				"method": "rhf"
			}
		],
		"cosmo_sigma_profile": { 
			"-0.025": 0.0,
			"-0.024": 0.0,
			"-0.023": 0.0,
			"-0.022": 0.0,
			"-0.021": 0.0,
			"-0.02": 0.0,
			"-0.019": 0.00323091206342,
			"-0.018": 0.855997160857,
			"-0.017": 1.07320820602,
			"-0.016": 1.07101171891,
			"-0.015": 0.933212354763,
			"-0.014": 0.947743311326,
			"-0.013": 0.681509435661,
			"-0.012": 1.70758933259,
			"-0.011": 3.98842592481,
			"-0.01": 4.37718675496,
			"-0.009": 4.0137716612,
			"-0.008": 7.93596848199,
			"-0.007": 11.056459398,
			"-0.006": 14.0154631044,
			"-0.005": 15.518913153,
			"-0.004": 13.6637427431,
			"-0.003": 13.536013132,
			"-0.002": 14.6025608309,
			"-0.001": 18.6053147975,
			"0.0": 20.1683545788,
			"0.001": 22.8204340885,
			"0.002": 20.2036745852,
			"0.003": 11.4962548172,
			"0.004": 11.2770899772,
			"0.005": 12.8880826562,
			"0.006": 9.5670614065,
			"0.007": 7.91260057587,
			"0.008": 8.99239754902,
			"0.009": 6.7064532616,
			"0.01": 7.22930157053,
			"0.011": 6.62073636665,
			"0.012": 4.30497912851,
			"0.013": 1.76188796956,
			"0.014": 0.053466650957,
			"0.015": 0.0,
			"0.016": 0.0,
			"0.017": 0.0,
			"0.018": 0.0,
			"0.019": 0.0,
			"0.02": 0.0,
			"0.021": 0.0,
			"0.022": 0.0,
			"0.023": 0.0,
			"0.024": 0.0,
			"0.025": 0.0
		}
	}
}
