{
	 "smiles": "CC1=C(C)C(NC(S)=C(C#N)C2=NC3=C(S2)C=CC=C3)=CC=C1", 
	 "Tm": 369.15, 
	 "num_atms": 38, 
	 "gaussian": { 
		 "optdone": 1, 
		 "sigma_profile": "yes", 
		 "theory": "DFT", 
		 "functional": "B3LYP", 
		 "basiset": "6-31G**", 
		 "properties": { 
			 "R2extent": 10881.3717, 
			 "electric_dipole_moment_norm": 6.98397505007, 
			 "electric_quadrupole_moment_norm": 25.9269505592, 
			 "total_energy": -1655.57196575, 
			 "HOMO_LUMO_gap": 0.14705, 
			 "cosmo_polarized_energy": -17.42, 
			 "cosmo_cavitation_energy": 45.6, 
			 "cosmo_dispersion_energy": -32.03, 
			 "cosmo_repulsion_energy": 2.35, 
			 "cosmo_total_nonelectrostatic_energy": 15.92, 
			 "SMD_solvation_energy": 6.47 
		},
		"coords": [
			{
				"x": 2.3971270778,
				"y": -2.8920749464,
				"z": -3.2819039539,
				"element": "C" 
			},
			{
				"x": 2.4406705059,
				"y": -2.1542862314,
				"z": -1.9638515918,
				"element": "C" 
			},
			{
				"x": 1.253237256,
				"y": -1.6792593214,
				"z": -1.3646105773,
				"element": "C" 
			},
			{
				"x": -0.0850214503,
				"y": -1.9128997653,
				"z": -2.025515303,
				"element": "C" 
			},
			{
				"x": 1.352768158,
				"y": -0.9817607176,
				"z": -0.1450296805,
				"element": "C" 
			},
			{
				"x": 0.1758968031,
				"y": -0.4251960158,
				"z": 0.4460566342,
				"element": "N" 
			},
			{
				"x": -0.316187404,
				"y": -0.6614193732,
				"z": 1.6944463312,
				"element": "C" 
			},
			{
				"x": 0.3858398446,
				"y": -2.0769541532,
				"z": 2.5088235634,
				"element": "S" 
			},
			{
				"x": -1.32359745,
				"y": 0.1192053211,
				"z": 2.2582106793,
				"element": "C" 
			},
			{
				"x": -1.9224533434,
				"y": -0.3132397149,
				"z": 3.4766049453,
				"element": "C" 
			},
			{
				"x": -2.3602899925,
				"y": -0.7059667302,
				"z": 4.4838142669,
				"element": "N" 
			},
			{
				"x": -1.8720705663,
				"y": 1.3540172408,
				"z": 1.7018606415,
				"element": "C" 
			},
			{
				"x": -3.0160558593,
				"y": 1.8394374937,
				"z": 2.0818638988,
				"element": "N" 
			},
			{
				"x": -3.2990542308,
				"y": 3.0478915522,
				"z": 1.4779118828,
				"element": "C" 
			},
			{
				"x": -2.3222848748,
				"y": 3.5244617919,
				"z": 0.570100593,
				"element": "C" 
			},
			{
				"x": -0.9827277305,
				"y": 2.3944711899,
				"z": 0.5218431871,
				"element": "S" 
			},
			{
				"x": -2.4884698889,
				"y": 4.7236065153,
				"z": -0.1242971196,
				"element": "C" 
			},
			{
				"x": -3.652535977,
				"y": 5.4553644635,
				"z": 0.1039734404,
				"element": "C" 
			},
			{
				"x": -4.6289532438,
				"y": 4.9976311143,
				"z": 1.0052399099,
				"element": "C" 
			},
			{
				"x": -4.4629788256,
				"y": 3.8018125134,
				"z": 1.6937884813,
				"element": "C" 
			},
			{
				"x": 2.5900307525,
				"y": -0.7668196174,
				"z": 0.4752687357,
				"element": "C" 
			},
			{
				"x": 3.7467769265,
				"y": -1.266796226,
				"z": -0.1099779396,
				"element": "C" 
			},
			{
				"x": 3.6675112136,
				"y": -1.9478307661,
				"z": -1.324318075,
				"element": "C" 
			},
			{
				"x": 3.4055289763,
				"y": -3.1343276558,
				"z": -3.6261784866,
				"element": "H" 
			},
			{
				"x": 1.8396915454,
				"y": -3.8333864214,
				"z": -3.2027660828,
				"element": "H" 
			},
			{
				"x": 1.9092042904,
				"y": -2.2995394069,
				"z": -4.0642422939,
				"element": "H" 
			},
			{
				"x": -0.1469520264,
				"y": -2.9203641143,
				"z": -2.4462214168,
				"element": "H" 
			},
			{
				"x": -0.9105386295,
				"y": -1.8007667378,
				"z": -1.3200812129,
				"element": "H" 
			},
			{
				"x": -0.2557106407,
				"y": -1.2134243534,
				"z": -2.8546699962,
				"element": "H" 
			},
			{
				"x": -0.386882638,
				"y": 0.1736161204,
				"z": -0.146554254,
				"element": "H" 
			},
			{
				"x": -0.3807670027,
				"y": -1.9620639542,
				"z": 3.6117058829,
				"element": "H" 
			},
			{
				"x": -1.735294069,
				"y": 5.0807246282,
				"z": -0.8192637754,
				"element": "H" 
			},
			{
				"x": -3.8042416547,
				"y": 6.3923926891,
				"z": -0.4232223802,
				"element": "H" 
			},
			{
				"x": -5.5259078132,
				"y": 5.5883122074,
				"z": 1.1651966956,
				"element": "H" 
			},
			{
				"x": -5.2072367436,
				"y": 3.4356141087,
				"z": 2.3928726524,
				"element": "H" 
			},
			{
				"x": 2.631476563,
				"y": -0.2016069481,
				"z": 1.3999610544,
				"element": "H" 
			},
			{
				"x": 4.7089127037,
				"y": -1.1076566751,
				"z": 0.3669624535,
				"element": "H" 
			},
			{
				"x": 4.5744394382,
				"y": -2.3240191042,
				"z": -1.7899017898,
				"element": "H" 
			}
		],
		 "valence_orbital": [ 
			{
				"type": "occ",
				"energy": -0.26483,
				"method": "rhf"
			},
			{
				"type": "occ",
				"energy": -0.25473,
				"method": "rhf"
			},
			{
				"type": "occ",
				"energy": -0.25056,
				"method": "rhf"
			},
			{
				"type": "occ",
				"energy": -0.2386,
				"method": "rhf"
			},
			{
				"type": "occ",
				"energy": -0.20802,
				"method": "rhf"
			},
			{
				"type": "unocc",
				"energy": -0.06097,
				"method": "rhf"
			},
			{
				"type": "unocc",
				"energy": -0.02311,
				"method": "rhf"
			},
			{
				"type": "unocc",
				"energy": -0.01758,
				"method": "rhf"
			},
			{
				"type": "unocc",
				"energy": -0.01007,
				"method": "rhf"
			},
			{
				"type": "unocc",
				"energy": -0.00841,
				"method": "rhf"
			}
		],
		"cosmo_sigma_profile": { 
			"-0.025": 0.0,
			"-0.024": 0.0,
			"-0.023": 0.0,
			"-0.022": 0.0,
			"-0.021": 0.0,
			"-0.02": 0.0,
			"-0.019": 0.0,
			"-0.018": 0.0,
			"-0.017": 0.0,
			"-0.016": 0.0,
			"-0.015": 0.0,
			"-0.014": 0.0,
			"-0.013": 0.0,
			"-0.012": 0.340018582098,
			"-0.011": 2.60988591529,
			"-0.01": 2.9004625808,
			"-0.009": 1.79149177906,
			"-0.008": 2.87222412119,
			"-0.007": 7.23837402374,
			"-0.006": 16.1313045456,
			"-0.005": 23.5086022536,
			"-0.004": 31.0281134642,
			"-0.003": 30.0035956827,
			"-0.002": 29.0528563048,
			"-0.001": 31.2723711192,
			"0.0": 36.4162355493,
			"0.001": 25.9561447855,
			"0.002": 25.7870217673,
			"0.003": 28.2173491432,
			"0.004": 26.0902599363,
			"0.005": 16.4182529681,
			"0.006": 3.70342914477,
			"0.007": 3.93148608552,
			"0.008": 3.97723095844,
			"0.009": 5.36988905095,
			"0.01": 4.48815341168,
			"0.011": 3.95564883535,
			"0.012": 3.57711054352,
			"0.013": 3.26038959128,
			"0.014": 0.743541552428,
			"0.015": 0.0,
			"0.016": 0.0,
			"0.017": 0.0,
			"0.018": 0.0,
			"0.019": 0.0,
			"0.02": 0.0,
			"0.021": 0.0,
			"0.022": 0.0,
			"0.023": 0.0,
			"0.024": 0.0,
			"0.025": 0.0
		}
	}
}
