{
	 "smiles": "NC(=N)NN=C(/C(=S)NC1=CC=C(Br)C=C1)C1=CC=CC=C1", 
	 "Tm": 483.15, 
	 "num_atms": 36, 
	 "gaussian": { 
		 "optdone": 1, 
		 "sigma_profile": "yes", 
		 "theory": "DFT", 
		 "functional": "B3LYP", 
		 "basiset": "6-31G**", 
		 "properties": { 
			 "R2extent": 10772.725, 
			 "electric_dipole_moment_norm": 5.3481484927, 
			 "electric_quadrupole_moment_norm": 22.6241555106, 
			 "total_energy": -3823.35184063, 
			 "HOMO_LUMO_gap": 0.13011, 
			 "cosmo_polarized_energy": -23.01, 
			 "cosmo_cavitation_energy": 45.3, 
			 "cosmo_dispersion_energy": -30.55, 
			 "cosmo_repulsion_energy": 2.38, 
			 "cosmo_total_nonelectrostatic_energy": 17.13, 
			 "SMD_solvation_energy": 4.11 
		},
		"coords": [
			{
				"x": 3.2691041545,
				"y": -2.9513969528,
				"z": 0.4004013687,
				"element": "N" 
			},
			{
				"x": 3.7206793126,
				"y": -2.0245406095,
				"z": -0.4978269779,
				"element": "C" 
			},
			{
				"x": 4.954510488,
				"y": -1.9510585647,
				"z": -0.8377925117,
				"element": "N" 
			},
			{
				"x": 2.7157120615,
				"y": -1.1675913124,
				"z": -1.007267924,
				"element": "N" 
			},
			{
				"x": 1.4283661913,
				"y": -1.3610183926,
				"z": -0.6510693916,
				"element": "N" 
			},
			{
				"x": 0.4741756943,
				"y": -0.6900760204,
				"z": -1.2123765348,
				"element": "C" 
			},
			{
				"x": 0.7009822143,
				"y": 0.2918496942,
				"z": -2.3300262293,
				"element": "C" 
			},
			{
				"x": 1.2103068303,
				"y": -0.2066565055,
				"z": -3.8419724701,
				"element": "S" 
			},
			{
				"x": 0.4333041528,
				"y": 1.5948951307,
				"z": -2.0773917166,
				"element": "N" 
			},
			{
				"x": 0.148470139,
				"y": 2.24456744,
				"z": -0.8452364974,
				"element": "C" 
			},
			{
				"x": -0.8147587329,
				"y": 3.260803692,
				"z": -0.8379371645,
				"element": "C" 
			},
			{
				"x": -1.0937738029,
				"y": 3.9572595634,
				"z": 0.3349602091,
				"element": "C" 
			},
			{
				"x": -0.4098906728,
				"y": 3.626044851,
				"z": 1.5044146304,
				"element": "C" 
			},
			{
				"x": -0.7937586466,
				"y": 4.5693874258,
				"z": 3.1169070305,
				"element": "Br" 
			},
			{
				"x": 0.5580202322,
				"y": 2.6225839577,
				"z": 1.5077199042,
				"element": "C" 
			},
			{
				"x": 0.8479287108,
				"y": 1.9390525633,
				"z": 0.3285514396,
				"element": "C" 
			},
			{
				"x": -0.9182632459,
				"y": -0.9232428232,
				"z": -0.7581809288,
				"element": "C" 
			},
			{
				"x": -1.1734197219,
				"y": -1.4792034479,
				"z": 0.5079841695,
				"element": "C" 
			},
			{
				"x": -2.4784890886,
				"y": -1.7178024974,
				"z": 0.9265059199,
				"element": "C" 
			},
			{
				"x": -3.5565434391,
				"y": -1.4038298446,
				"z": 0.0933738156,
				"element": "C" 
			},
			{
				"x": -3.314722048,
				"y": -0.8507680692,
				"z": -1.1640306381,
				"element": "C" 
			},
			{
				"x": -2.0076768044,
				"y": -0.6108993794,
				"z": -1.5878194119,
				"element": "C" 
			},
			{
				"x": 3.9787747411,
				"y": -3.390247811,
				"z": 0.9634026801,
				"element": "H" 
			},
			{
				"x": 2.3390928399,
				"y": -2.8430081753,
				"z": 0.7698662649,
				"element": "H" 
			},
			{
				"x": 5.1086607478,
				"y": -1.210504353,
				"z": -1.5212616234,
				"element": "H" 
			},
			{
				"x": 2.9086184297,
				"y": -0.7531011572,
				"z": -1.9175285044,
				"element": "H" 
			},
			{
				"x": 0.4868988996,
				"y": 2.1876542542,
				"z": -2.9002614836,
				"element": "H" 
			},
			{
				"x": -1.3568059978,
				"y": 3.4976202275,
				"z": -1.7488512097,
				"element": "H" 
			},
			{
				"x": -1.8413373091,
				"y": 4.741831518,
				"z": 0.3419886635,
				"element": "H" 
			},
			{
				"x": 1.0970004297,
				"y": 2.3882233721,
				"z": 2.418308648,
				"element": "H" 
			},
			{
				"x": 1.630094212,
				"y": 1.1888735892,
				"z": 0.3206700173,
				"element": "H" 
			},
			{
				"x": -0.3376219004,
				"y": -1.7132597375,
				"z": 1.1578043385,
				"element": "H" 
			},
			{
				"x": -2.6571641236,
				"y": -2.1433396791,
				"z": 1.9098737816,
				"element": "H" 
			},
			{
				"x": -4.5745012949,
				"y": -1.588373714,
				"z": 0.4236289698,
				"element": "H" 
			},
			{
				"x": -4.144062431,
				"y": -0.6104922511,
				"z": -1.822970095,
				"element": "H" 
			},
			{
				"x": -1.8341112216,
				"y": -0.2009359813,
				"z": -2.5779605383,
				"element": "H" 
			}
		],
		 "valence_orbital": [ 
			{
				"type": "occ",
				"energy": -0.25906,
				"method": "rhf"
			},
			{
				"type": "occ",
				"energy": -0.23997,
				"method": "rhf"
			},
			{
				"type": "occ",
				"energy": -0.23873,
				"method": "rhf"
			},
			{
				"type": "occ",
				"energy": -0.23192,
				"method": "rhf"
			},
			{
				"type": "occ",
				"energy": -0.21108,
				"method": "rhf"
			},
			{
				"type": "unocc",
				"energy": -0.08097,
				"method": "rhf"
			},
			{
				"type": "unocc",
				"energy": -0.04853,
				"method": "rhf"
			},
			{
				"type": "unocc",
				"energy": -0.03335,
				"method": "rhf"
			},
			{
				"type": "unocc",
				"energy": -0.02315,
				"method": "rhf"
			},
			{
				"type": "unocc",
				"energy": -0.00851,
				"method": "rhf"
			}
		],
		"cosmo_sigma_profile": { 
			"-0.025": 0.0,
			"-0.024": 0.0,
			"-0.023": 0.0,
			"-0.022": 0.0,
			"-0.021": 0.0,
			"-0.02": 0.0,
			"-0.019": 0.0,
			"-0.018": 0.0,
			"-0.017": 0.0,
			"-0.016": 0.624281895352,
			"-0.015": 1.07450773825,
			"-0.014": 1.34216418085,
			"-0.013": 3.02708654556,
			"-0.012": 2.67851571689,
			"-0.011": 4.13293210702,
			"-0.01": 5.24186432313,
			"-0.009": 3.98955635184,
			"-0.008": 8.04101436888,
			"-0.007": 11.7694515023,
			"-0.006": 17.2300241901,
			"-0.005": 20.9842064615,
			"-0.004": 22.5087274613,
			"-0.003": 20.2351062119,
			"-0.002": 19.6777124102,
			"-0.001": 18.8676968189,
			"0.0": 22.8916286217,
			"0.001": 28.746680148,
			"0.002": 34.418753559,
			"0.003": 28.9155543432,
			"0.004": 30.3857449588,
			"0.005": 20.156391615,
			"0.006": 8.16892567642,
			"0.007": 6.13949326757,
			"0.008": 5.41221809553,
			"0.009": 5.58114616646,
			"0.01": 4.15170090151,
			"0.011": 2.24457696018,
			"0.012": 1.49079180181,
			"0.013": 1.00159306156,
			"0.014": 1.45532299901,
			"0.015": 1.26286335882,
			"0.016": 1.30196224137,
			"0.017": 1.06417250497,
			"0.018": 1.22458666189,
			"0.019": 0.91555975751,
			"0.02": 0.166350725627,
			"0.021": 0.0,
			"0.022": 0.0,
			"0.023": 0.0,
			"0.024": 0.0,
			"0.025": 0.0
		}
	}
}
