{
	 "smiles": "CC1(CC1C(O)=O)C1=C(F)C=CC=C1F", 
	 "Tm": 387.15, 
	 "num_atms": 25, 
	 "gaussian": { 
		 "optdone": 1, 
		 "sigma_profile": "yes", 
		 "theory": "DFT", 
		 "functional": "B3LYP", 
		 "basiset": "6-31G**", 
		 "properties": { 
			 "R2extent": 3059.2086, 
			 "electric_dipole_moment_norm": 1.10433303854, 
			 "electric_quadrupole_moment_norm": 8.20424842993, 
			 "total_energy": -775.308723985, 
			 "HOMO_LUMO_gap": 0.23143, 
			 "cosmo_polarized_energy": -10.72, 
			 "cosmo_cavitation_energy": 29.42, 
			 "cosmo_dispersion_energy": -20.16, 
			 "cosmo_repulsion_energy": 1.55, 
			 "cosmo_total_nonelectrostatic_energy": 10.81, 
			 "SMD_solvation_energy": 6.77 
		},
		"coords": [
			{
				"x": -0.2994851699,
				"y": -2.4613015727,
				"z": 2.1295246899,
				"element": "C" 
			},
			{
				"x": -0.5026615743,
				"y": -1.6808302573,
				"z": 0.8353258507,
				"element": "C" 
			},
			{
				"x": -0.7720007746,
				"y": -2.4479771216,
				"z": -0.4213823851,
				"element": "C" 
			},
			{
				"x": 0.6057708941,
				"y": -1.8483355013,
				"z": -0.2178521077,
				"element": "C" 
			},
			{
				"x": 1.0053723079,
				"y": -0.7106031186,
				"z": -1.0828238625,
				"element": "C" 
			},
			{
				"x": 2.3516498738,
				"y": -0.6451791344,
				"z": -1.2292124327,
				"element": "O" 
			},
			{
				"x": 0.2529477612,
				"y": 0.0788643521,
				"z": -1.6178501542,
				"element": "O" 
			},
			{
				"x": -1.1575124786,
				"y": -0.3458225042,
				"z": 1.0390147567,
				"element": "C" 
			},
			{
				"x": -2.5388629139,
				"y": -0.1667845353,
				"z": 0.925429827,
				"element": "C" 
			},
			{
				"x": -3.2955063001,
				"y": -1.2276481603,
				"z": 0.5675949057,
				"element": "F" 
			},
			{
				"x": -3.176423795,
				"y": 1.0445097605,
				"z": 1.1686951703,
				"element": "C" 
			},
			{
				"x": -2.4051171012,
				"y": 2.1400784136,
				"z": 1.5555173244,
				"element": "C" 
			},
			{
				"x": -1.0222055361,
				"y": 2.0172021247,
				"z": 1.6959541705,
				"element": "C" 
			},
			{
				"x": -0.439207237,
				"y": 0.7834182189,
				"z": 1.4405955662,
				"element": "C" 
			},
			{
				"x": 0.9006404036,
				"y": 0.6593990071,
				"z": 1.5809584811,
				"element": "F" 
			},
			{
				"x": 0.3305326813,
				"y": -1.8991508039,
				"z": 2.8260815729,
				"element": "H" 
			},
			{
				"x": 0.1788155168,
				"y": -3.4270773032,
				"z": 1.9377444262,
				"element": "H" 
			},
			{
				"x": -1.2629995282,
				"y": -2.649962628,
				"z": 2.6145832198,
				"element": "H" 
			},
			{
				"x": -1.3813709282,
				"y": -1.9699597129,
				"z": -1.1803289856,
				"element": "H" 
			},
			{
				"x": -0.8674104638,
				"y": -3.5276880294,
				"z": -0.3580207202,
				"element": "H" 
			},
			{
				"x": 1.4207083001,
				"y": -2.5064061465,
				"z": 0.0631345113,
				"element": "H" 
			},
			{
				"x": 2.518332898,
				"y": 0.1230033818,
				"z": -1.8007869067,
				"element": "H" 
			},
			{
				"x": -4.2525291658,
				"y": 1.1092638866,
				"z": 1.0553874198,
				"element": "H" 
			},
			{
				"x": -2.8837799246,
				"y": 3.0945663256,
				"z": 1.7495141565,
				"element": "H" 
			},
			{
				"x": -0.3964977455,
				"y": 2.8505210586,
				"z": 1.9942015057,
				"element": "H" 
			}
		],
		 "valence_orbital": [ 
			{
				"type": "occ",
				"energy": -0.30302,
				"method": "rhf"
			},
			{
				"type": "occ",
				"energy": -0.29083,
				"method": "rhf"
			},
			{
				"type": "occ",
				"energy": -0.2732,
				"method": "rhf"
			},
			{
				"type": "occ",
				"energy": -0.24771,
				"method": "rhf"
			},
			{
				"type": "occ",
				"energy": -0.24468,
				"method": "rhf"
			},
			{
				"type": "unocc",
				"energy": -0.01325,
				"method": "rhf"
			},
			{
				"type": "unocc",
				"energy": 0.00211,
				"method": "rhf"
			},
			{
				"type": "unocc",
				"energy": 0.01051,
				"method": "rhf"
			},
			{
				"type": "unocc",
				"energy": 0.07489,
				"method": "rhf"
			},
			{
				"type": "unocc",
				"energy": 0.08604,
				"method": "rhf"
			}
		],
		"cosmo_sigma_profile": { 
			"-0.025": 0.0,
			"-0.024": 0.0,
			"-0.023": 0.0,
			"-0.022": 0.0,
			"-0.021": 0.0,
			"-0.02": 0.0,
			"-0.019": 0.0,
			"-0.018": 0.563988418659,
			"-0.017": 0.955395424949,
			"-0.016": 0.845667289138,
			"-0.015": 0.708272177945,
			"-0.014": 1.04543379185,
			"-0.013": 0.680588999879,
			"-0.012": 0.169299295971,
			"-0.011": 0.555603547728,
			"-0.01": 0.903199167345,
			"-0.009": 0.431895136262,
			"-0.008": 1.28554592909,
			"-0.007": 6.8215910952,
			"-0.006": 11.1769685877,
			"-0.005": 13.5530251422,
			"-0.004": 13.8807677919,
			"-0.003": 13.7617517558,
			"-0.002": 17.244337323,
			"-0.001": 20.8161142001,
			"0.0": 23.2613081996,
			"0.001": 18.5030669198,
			"0.002": 15.5240672191,
			"0.003": 16.586537163,
			"0.004": 25.7101486592,
			"0.005": 5.46883414458,
			"0.006": 3.38778687704,
			"0.007": 3.19520071453,
			"0.008": 2.85837720682,
			"0.009": 3.56367123035,
			"0.01": 2.47459611692,
			"0.011": 2.40228282411,
			"0.012": 4.38017566666,
			"0.013": 0.686330074559,
			"0.014": 0.0,
			"0.015": 0.0,
			"0.016": 0.0,
			"0.017": 0.0,
			"0.018": 0.0,
			"0.019": 0.0,
			"0.02": 0.0,
			"0.021": 0.0,
			"0.022": 0.0,
			"0.023": 0.0,
			"0.024": 0.0,
			"0.025": 0.0
		}
	}
}
