{
	 "smiles": "CC12CCC(=O)CC1(O)CCC2=O", 
	 "Tm": 387.15, 
	 "num_atms": 27, 
	 "gaussian": { 
		 "optdone": 1, 
		 "sigma_profile": "yes", 
		 "theory": "DFT", 
		 "functional": "B3LYP", 
		 "basiset": "6-31G**", 
		 "properties": { 
			 "R2extent": 2355.1977, 
			 "electric_dipole_moment_norm": 3.52478882914, 
			 "electric_quadrupole_moment_norm": 18.4449663806, 
			 "total_energy": -615.168689586, 
			 "HOMO_LUMO_gap": 0.22168, 
			 "cosmo_polarized_energy": -16.74, 
			 "cosmo_cavitation_energy": 27.2, 
			 "cosmo_dispersion_energy": -19.75, 
			 "cosmo_repulsion_energy": 1.54, 
			 "cosmo_total_nonelectrostatic_energy": 8.98, 
			 "SMD_solvation_energy": 5.46 
		},
		"coords": [
			{
				"x": -1.423138553,
				"y": -0.0928626267,
				"z": -1.9130612675,
				"element": "C" 
			},
			{
				"x": -0.4102855375,
				"y": -0.0134339176,
				"z": -0.742064297,
				"element": "C" 
			},
			{
				"x": 1.0233565999,
				"y": -0.2381029368,
				"z": -1.2440447439,
				"element": "C" 
			},
			{
				"x": 1.5176156575,
				"y": 0.9830824859,
				"z": -2.0566204113,
				"element": "C" 
			},
			{
				"x": 1.2083644849,
				"y": 2.3490138583,
				"z": -1.4401513823,
				"element": "C" 
			},
			{
				"x": 2.0056946508,
				"y": 3.2648691006,
				"z": -1.4698028891,
				"element": "O" 
			},
			{
				"x": -0.186582723,
				"y": 2.5267127681,
				"z": -0.8216612077,
				"element": "C" 
			},
			{
				"x": -0.4891292584,
				"y": 1.3129276042,
				"z": 0.0535281368,
				"element": "C" 
			},
			{
				"x": 0.5714018306,
				"y": 1.1934311092,
				"z": 1.0266357028,
				"element": "O" 
			},
			{
				"x": -1.8308694231,
				"y": 1.2252853732,
				"z": 0.8086428549,
				"element": "C" 
			},
			{
				"x": -1.8778019012,
				"y": -0.2526323804,
				"z": 1.2619306385,
				"element": "C" 
			},
			{
				"x": -0.9280220611,
				"y": -1.0071408168,
				"z": 0.3107299783,
				"element": "C" 
			},
			{
				"x": -0.6631809045,
				"y": -2.1866250576,
				"z": 0.3653102732,
				"element": "O" 
			},
			{
				"x": -1.1965115748,
				"y": 0.6279582849,
				"z": -2.7033230814,
				"element": "H" 
			},
			{
				"x": -2.4552947523,
				"y": 0.0807314711,
				"z": -1.5953828515,
				"element": "H" 
			},
			{
				"x": -1.3772354287,
				"y": -1.0946960842,
				"z": -2.3500386976,
				"element": "H" 
			},
			{
				"x": 1.6814779641,
				"y": -0.3936829188,
				"z": -0.3875219231,
				"element": "H" 
			},
			{
				"x": 1.0711030551,
				"y": -1.1425685869,
				"z": -1.8583692395,
				"element": "H" 
			},
			{
				"x": 2.5955838102,
				"y": 0.9382650661,
				"z": -2.2310477223,
				"element": "H" 
			},
			{
				"x": 1.0412614998,
				"y": 0.9855875719,
				"z": -3.0483268582,
				"element": "H" 
			},
			{
				"x": -0.9275130913,
				"y": 2.6309293526,
				"z": -1.624484619,
				"element": "H" 
			},
			{
				"x": -0.1919769886,
				"y": 3.4610281546,
				"z": -0.249309888,
				"element": "H" 
			},
			{
				"x": 0.5756289842,
				"y": 1.9979451017,
				"z": 1.5630192728,
				"element": "H" 
			},
			{
				"x": -1.8609903916,
				"y": 1.9310581877,
				"z": 1.6454860169,
				"element": "H" 
			},
			{
				"x": -2.6703118646,
				"y": 1.4720648701,
				"z": 0.1510311579,
				"element": "H" 
			},
			{
				"x": -1.4998956125,
				"y": -0.3833416326,
				"z": 2.2798976759,
				"element": "H" 
			},
			{
				"x": -2.876948471,
				"y": -0.6977034018,
				"z": 1.2301993714,
				"element": "H" 
			}
		],
		 "valence_orbital": [ 
			{
				"type": "occ",
				"energy": -0.33221,
				"method": "rhf"
			},
			{
				"type": "occ",
				"energy": -0.31772,
				"method": "rhf"
			},
			{
				"type": "occ",
				"energy": -0.2906,
				"method": "rhf"
			},
			{
				"type": "occ",
				"energy": -0.24166,
				"method": "rhf"
			},
			{
				"type": "occ",
				"energy": -0.23907,
				"method": "rhf"
			},
			{
				"type": "unocc",
				"energy": -0.01739,
				"method": "rhf"
			},
			{
				"type": "unocc",
				"energy": -0.01494,
				"method": "rhf"
			},
			{
				"type": "unocc",
				"energy": 0.05326,
				"method": "rhf"
			},
			{
				"type": "unocc",
				"energy": 0.08624,
				"method": "rhf"
			},
			{
				"type": "unocc",
				"energy": 0.09994,
				"method": "rhf"
			}
		],
		"cosmo_sigma_profile": { 
			"-0.025": 0.0,
			"-0.024": 0.0,
			"-0.023": 0.0,
			"-0.022": 0.0,
			"-0.021": 0.0,
			"-0.02": 0.0,
			"-0.019": 0.0,
			"-0.018": 0.0,
			"-0.017": 0.0,
			"-0.016": 0.468385689611,
			"-0.015": 0.925364606058,
			"-0.014": 0.952879048785,
			"-0.013": 1.19212324537,
			"-0.012": 1.13810491166,
			"-0.011": 1.08697710636,
			"-0.01": 0.706062339738,
			"-0.009": 1.34051638025,
			"-0.008": 2.99966044766,
			"-0.007": 4.48581890128,
			"-0.006": 9.46865468143,
			"-0.005": 18.6132399102,
			"-0.004": 19.5213269352,
			"-0.003": 23.198562908,
			"-0.002": 23.6851542831,
			"-0.001": 19.5745296951,
			"0.0": 11.8009348786,
			"0.001": 5.46816183913,
			"0.002": 4.7515851855,
			"0.003": 5.34118733284,
			"0.004": 4.88979203924,
			"0.005": 4.64544207388,
			"0.006": 4.83663904413,
			"0.007": 4.63345155289,
			"0.008": 3.63103926386,
			"0.009": 5.1701506209,
			"0.01": 4.79939944373,
			"0.011": 7.3188574376,
			"0.012": 9.28412026369,
			"0.013": 4.67688622624,
			"0.014": 0.322141743964,
			"0.015": 0.0,
			"0.016": 0.0,
			"0.017": 0.0,
			"0.018": 0.0,
			"0.019": 0.0,
			"0.02": 0.0,
			"0.021": 0.0,
			"0.022": 0.0,
			"0.023": 0.0,
			"0.024": 0.0,
			"0.025": 0.0
		}
	}
}
