{
	 "smiles": "CCCS(=O)(=O)C1=CC=C2NC(N)=NC2=C1", 
	 "Tm": 494.15, 
	 "num_atms": 29, 
	 "gaussian": { 
		 "optdone": 1, 
		 "sigma_profile": "yes", 
		 "theory": "DFT", 
		 "functional": "B3LYP", 
		 "basiset": "6-31G**", 
		 "properties": { 
			 "R2extent": 4974.8657, 
			 "electric_dipole_moment_norm": 9.12073492982, 
			 "electric_quadrupole_moment_norm": 19.7320992593, 
			 "total_energy": -1101.75365728, 
			 "HOMO_LUMO_gap": 0.19703, 
			 "cosmo_polarized_energy": -28.03, 
			 "cosmo_cavitation_energy": 33.99, 
			 "cosmo_dispersion_energy": -25.06, 
			 "cosmo_repulsion_energy": 1.94, 
			 "cosmo_total_nonelectrostatic_energy": 10.87, 
			 "SMD_solvation_energy": 2.62 
		},
		"coords": [
			{
				"x": -0.6772835695,
				"y": -4.6971972136,
				"z": 0.1094646559,
				"element": "C" 
			},
			{
				"x": -0.4000814242,
				"y": -3.389075623,
				"z": -0.6410925257,
				"element": "C" 
			},
			{
				"x": -1.6744620061,
				"y": -2.5710098921,
				"z": -0.8421123881,
				"element": "C" 
			},
			{
				"x": -1.4385136468,
				"y": -1.0334856578,
				"z": -1.7929983776,
				"element": "S" 
			},
			{
				"x": -2.7727270665,
				"y": -0.4271368693,
				"z": -1.9421521873,
				"element": "O" 
			},
			{
				"x": -0.6172590226,
				"y": -1.3600600154,
				"z": -2.9737382511,
				"element": "O" 
			},
			{
				"x": -0.4614627854,
				"y": 0.0242197713,
				"z": -0.7163419194,
				"element": "C" 
			},
			{
				"x": 0.9299702538,
				"y": 0.0727480109,
				"z": -0.9043318673,
				"element": "C" 
			},
			{
				"x": 1.7219256571,
				"y": 0.8787518592,
				"z": -0.085553586,
				"element": "C" 
			},
			{
				"x": 1.0688725519,
				"y": 1.6134894575,
				"z": 0.8996420808,
				"element": "C" 
			},
			{
				"x": 1.5245650373,
				"y": 2.4944920371,
				"z": 1.8709910753,
				"element": "N" 
			},
			{
				"x": 0.4064225576,
				"y": 2.939979205,
				"z": 2.5554991956,
				"element": "C" 
			},
			{
				"x": 0.5146361578,
				"y": 3.9002266511,
				"z": 3.5385706318,
				"element": "N" 
			},
			{
				"x": -0.7149096398,
				"y": 2.4076773745,
				"z": 2.1360530057,
				"element": "N" 
			},
			{
				"x": -0.3379996706,
				"y": 1.5758170494,
				"z": 1.0891127118,
				"element": "C" 
			},
			{
				"x": -1.121474654,
				"y": 0.768796619,
				"z": 0.2646295358,
				"element": "C" 
			},
			{
				"x": 0.244817663,
				"y": -5.2718765414,
				"z": 0.2406458169,
				"element": "H" 
			},
			{
				"x": -1.0967824799,
				"y": -4.5079274601,
				"z": 1.1037443289,
				"element": "H" 
			},
			{
				"x": -1.3873974957,
				"y": -5.3270683684,
				"z": -0.4373608729,
				"element": "H" 
			},
			{
				"x": 0.3335271524,
				"y": -2.7926397207,
				"z": -0.0862417205,
				"element": "H" 
			},
			{
				"x": 0.0388812879,
				"y": -3.6000099724,
				"z": -1.6214465074,
				"element": "H" 
			},
			{
				"x": -2.1402782875,
				"y": -2.2756301308,
				"z": 0.10316944,
				"element": "H" 
			},
			{
				"x": -2.4196582362,
				"y": -3.1171660196,
				"z": -1.4309071265,
				"element": "H" 
			},
			{
				"x": 1.3718365179,
				"y": -0.5046980762,
				"z": -1.7081577821,
				"element": "H" 
			},
			{
				"x": 2.7970827551,
				"y": 0.9313973144,
				"z": -0.2265746546,
				"element": "H" 
			},
			{
				"x": 2.4505465468,
				"y": 2.8882660823,
				"z": 1.9340178508,
				"element": "H" 
			},
			{
				"x": 1.2912371166,
				"y": 3.7916226053,
				"z": 4.1783932953,
				"element": "H" 
			},
			{
				"x": -0.3653090528,
				"y": 4.039922478,
				"z": 4.0183922819,
				"element": "H" 
			},
			{
				"x": -2.2009222174,
				"y": 0.7422750463,
				"z": 0.3619838598,
				"element": "H" 
			}
		],
		 "valence_orbital": [ 
			{
				"type": "occ",
				"energy": -0.2851,
				"method": "rhf"
			},
			{
				"type": "occ",
				"energy": -0.28013,
				"method": "rhf"
			},
			{
				"type": "occ",
				"energy": -0.26781,
				"method": "rhf"
			},
			{
				"type": "occ",
				"energy": -0.24369,
				"method": "rhf"
			},
			{
				"type": "occ",
				"energy": -0.22078,
				"method": "rhf"
			},
			{
				"type": "unocc",
				"energy": -0.02375,
				"method": "rhf"
			},
			{
				"type": "unocc",
				"energy": -0.00851,
				"method": "rhf"
			},
			{
				"type": "unocc",
				"energy": 0.04673,
				"method": "rhf"
			},
			{
				"type": "unocc",
				"energy": 0.05255,
				"method": "rhf"
			},
			{
				"type": "unocc",
				"energy": 0.07339,
				"method": "rhf"
			}
		],
		"cosmo_sigma_profile": { 
			"-0.025": 0.0,
			"-0.024": 0.0,
			"-0.023": 0.0,
			"-0.022": 0.0,
			"-0.021": 0.0,
			"-0.02": 0.0,
			"-0.019": 0.0,
			"-0.018": 0.0,
			"-0.017": 0.864246377446,
			"-0.016": 2.07258492133,
			"-0.015": 2.71909727757,
			"-0.014": 3.57345867018,
			"-0.013": 3.8879326927,
			"-0.012": 3.73445393468,
			"-0.011": 3.51201427387,
			"-0.01": 2.94727955914,
			"-0.009": 2.80702325799,
			"-0.008": 3.69093916321,
			"-0.007": 8.29157910681,
			"-0.006": 10.9165821352,
			"-0.005": 11.1854298895,
			"-0.004": 14.668765553,
			"-0.003": 19.1453705691,
			"-0.002": 19.3569213996,
			"-0.001": 20.6223408886,
			"0.0": 19.4527309459,
			"0.001": 15.892832614,
			"0.002": 14.5245129794,
			"0.003": 15.7211915078,
			"0.004": 11.1760251135,
			"0.005": 5.46371999938,
			"0.006": 5.28396119939,
			"0.007": 4.36611529606,
			"0.008": 4.14402314482,
			"0.009": 4.9058187651,
			"0.01": 5.98163735439,
			"0.011": 8.48121337621,
			"0.012": 10.7879127495,
			"0.013": 4.72780703014,
			"0.014": 1.39441932293,
			"0.015": 1.18110318831,
			"0.016": 0.562290563533,
			"0.017": 0.768435449759,
			"0.018": 0.095205832852,
			"0.019": 0.0,
			"0.02": 0.0,
			"0.021": 0.0,
			"0.022": 0.0,
			"0.023": 0.0,
			"0.024": 0.0,
			"0.025": 0.0
		}
	}
}
