{
	 "smiles": "CC1=C(C(N)=O)C(=NO1)C1=C(Cl)C=CC=C1Cl", 
	 "Tm": 440.15, 
	 "num_atms": 25, 
	 "gaussian": { 
		 "optdone": 1, 
		 "sigma_profile": "yes", 
		 "theory": "DFT", 
		 "functional": "B3LYP", 
		 "basiset": "6-31G**", 
		 "properties": { 
			 "R2extent": 4864.3818, 
			 "electric_dipole_moment_norm": 4.31162417077, 
			 "electric_quadrupole_moment_norm": 26.4459231461, 
			 "total_energy": -1604.2976814, 
			 "HOMO_LUMO_gap": 0.20955, 
			 "cosmo_polarized_energy": -15.76, 
			 "cosmo_cavitation_energy": 33.6, 
			 "cosmo_dispersion_energy": -23.26, 
			 "cosmo_repulsion_energy": 1.83, 
			 "cosmo_total_nonelectrostatic_energy": 12.17, 
			 "SMD_solvation_energy": 5.78 
		},
		"coords": [
			{
				"x": 1.1542738519,
				"y": 3.0931351868,
				"z": -0.3775576111,
				"element": "C" 
			},
			{
				"x": 0.6046638974,
				"y": 1.7204192187,
				"z": -0.5344313601,
				"element": "C" 
			},
			{
				"x": 0.8957174023,
				"y": 0.5076729615,
				"z": 0.0462407099,
				"element": "C" 
			},
			{
				"x": 1.9466607779,
				"y": 0.2884482837,
				"z": 1.0755202643,
				"element": "C" 
			},
			{
				"x": 2.0924236843,
				"y": -0.9869780204,
				"z": 1.5371625452,
				"element": "N" 
			},
			{
				"x": 2.6507633225,
				"y": 1.2053088694,
				"z": 1.493497271,
				"element": "O" 
			},
			{
				"x": -0.0345566164,
				"y": -0.3885711422,
				"z": -0.5851017436,
				"element": "C" 
			},
			{
				"x": -0.8013850145,
				"y": 0.2281826112,
				"z": -1.4533493445,
				"element": "N" 
			},
			{
				"x": -0.3944213,
				"y": 1.5647780053,
				"z": -1.419490705,
				"element": "O" 
			},
			{
				"x": -0.2340795647,
				"y": -1.8501985828,
				"z": -0.3949832489,
				"element": "C" 
			},
			{
				"x": 0.4578346086,
				"y": -2.7952539982,
				"z": -1.1759355816,
				"element": "C" 
			},
			{
				"x": 1.6171773187,
				"y": -2.2543536165,
				"z": -2.3714370926,
				"element": "Cl" 
			},
			{
				"x": 0.2550719929,
				"y": -4.1668473084,
				"z": -1.0261551599,
				"element": "C" 
			},
			{
				"x": -0.6592475277,
				"y": -4.6211323994,
				"z": -0.0781140472,
				"element": "C" 
			},
			{
				"x": -1.3625028697,
				"y": -3.7191989924,
				"z": 0.7175624088,
				"element": "C" 
			},
			{
				"x": -1.1460202063,
				"y": -2.351393544,
				"z": 0.5531147227,
				"element": "C" 
			},
			{
				"x": -2.0397674857,
				"y": -1.2423125614,
				"z": 1.5713130679,
				"element": "Cl" 
			},
			{
				"x": 1.9523104236,
				"y": 3.0703499743,
				"z": 0.3629060338,
				"element": "H" 
			},
			{
				"x": 0.3663110771,
				"y": 3.7824652564,
				"z": -0.05593548,
				"element": "H" 
			},
			{
				"x": 1.5426239291,
				"y": 3.457630117,
				"z": -1.3345112961,
				"element": "H" 
			},
			{
				"x": 1.5370580892,
				"y": -1.7620838112,
				"z": 1.2145890391,
				"element": "H" 
			},
			{
				"x": 2.8050535302,
				"y": -1.1421250327,
				"z": 2.2332142482,
				"element": "H" 
			},
			{
				"x": 0.80616637,
				"y": -4.8607267631,
				"z": -1.6500395494,
				"element": "H" 
			},
			{
				"x": -0.8244332862,
				"y": -5.6871971086,
				"z": 0.0423261032,
				"element": "H" 
			},
			{
				"x": -2.0760964044,
				"y": -4.0631176028,
				"z": 1.4570958058,
				"element": "H" 
			}
		],
		 "valence_orbital": [ 
			{
				"type": "occ",
				"energy": -0.27986,
				"method": "rhf"
			},
			{
				"type": "occ",
				"energy": -0.27096,
				"method": "rhf"
			},
			{
				"type": "occ",
				"energy": -0.26601,
				"method": "rhf"
			},
			{
				"type": "occ",
				"energy": -0.26033,
				"method": "rhf"
			},
			{
				"type": "occ",
				"energy": -0.25715,
				"method": "rhf"
			},
			{
				"type": "unocc",
				"energy": -0.0476,
				"method": "rhf"
			},
			{
				"type": "unocc",
				"energy": -0.04084,
				"method": "rhf"
			},
			{
				"type": "unocc",
				"energy": -0.02681,
				"method": "rhf"
			},
			{
				"type": "unocc",
				"energy": -0.00681,
				"method": "rhf"
			},
			{
				"type": "unocc",
				"energy": -0.00452,
				"method": "rhf"
			}
		],
		"cosmo_sigma_profile": { 
			"-0.025": 0.0,
			"-0.024": 0.0,
			"-0.023": 0.0,
			"-0.022": 0.0,
			"-0.021": 0.0,
			"-0.02": 0.0,
			"-0.019": 0.0,
			"-0.018": 0.0,
			"-0.017": 0.0,
			"-0.016": 0.0,
			"-0.015": 0.0790305749264,
			"-0.014": 0.99091800153,
			"-0.013": 1.40103368008,
			"-0.012": 1.13659206131,
			"-0.011": 1.9780467084,
			"-0.01": 2.20423277424,
			"-0.009": 2.22885330857,
			"-0.008": 7.45737197408,
			"-0.007": 10.9995833561,
			"-0.006": 12.6143829575,
			"-0.005": 11.7931930357,
			"-0.004": 12.2274333741,
			"-0.003": 15.9647059443,
			"-0.002": 19.3836056253,
			"-0.001": 22.7044321268,
			"0.0": 26.6941683676,
			"0.001": 25.339363991,
			"0.002": 21.7162337095,
			"0.003": 22.6836745169,
			"0.004": 15.9524662421,
			"0.005": 5.68944497429,
			"0.006": 5.43499440617,
			"0.007": 6.01371319241,
			"0.008": 3.36999404265,
			"0.009": 2.15563161445,
			"0.01": 3.2901971056,
			"0.011": 2.76426377154,
			"0.012": 3.63996083108,
			"0.013": 3.98069947298,
			"0.014": 2.29407641173,
			"0.015": 0.104659249127,
			"0.016": 0.0,
			"0.017": 0.0,
			"0.018": 0.0,
			"0.019": 0.0,
			"0.02": 0.0,
			"0.021": 0.0,
			"0.022": 0.0,
			"0.023": 0.0,
			"0.024": 0.0,
			"0.025": 0.0
		}
	}
}
