{
	 "smiles": "COC1=CC=CC=C1C1=CC=C(O1)C=C(C(C)=O)C(C)=O", 
	 "Tm": 419.15, 
	 "num_atms": 37, 
	 "gaussian": { 
		 "optdone": 1, 
		 "sigma_profile": "yes", 
		 "theory": "DFT", 
		 "functional": "B3LYP", 
		 "basiset": "6-31G**", 
		 "properties": { 
			 "R2extent": 7720.8661, 
			 "electric_dipole_moment_norm": 5.8690867782, 
			 "electric_quadrupole_moment_norm": 19.0964263586, 
			 "total_energy": -958.303525282, 
			 "HOMO_LUMO_gap": 0.13286, 
			 "cosmo_polarized_energy": -15.77, 
			 "cosmo_cavitation_energy": 41.38, 
			 "cosmo_dispersion_energy": -28.08, 
			 "cosmo_repulsion_energy": 2.12, 
			 "cosmo_total_nonelectrostatic_energy": 15.42, 
			 "SMD_solvation_energy": 9.32 
		},
		"coords": [
			{
				"x": 2.8218361461,
				"y": 0.3942320467,
				"z": -0.3888879436,
				"element": "C" 
			},
			{
				"x": 1.6052413986,
				"y": 0.4435312771,
				"z": 0.3440382613,
				"element": "O" 
			},
			{
				"x": 1.6653358391,
				"y": 0.4660705643,
				"z": 1.704377665,
				"element": "C" 
			},
			{
				"x": 2.8637612424,
				"y": 0.425925779,
				"z": 2.4258629293,
				"element": "C" 
			},
			{
				"x": 2.8509979296,
				"y": 0.5056400788,
				"z": 3.8198693672,
				"element": "C" 
			},
			{
				"x": 1.6474486105,
				"y": 0.6273557434,
				"z": 4.5104424889,
				"element": "C" 
			},
			{
				"x": 0.4530416811,
				"y": 0.6541567736,
				"z": 3.7936726098,
				"element": "C" 
			},
			{
				"x": 0.4309480652,
				"y": 0.5701446499,
				"z": 2.3929481104,
				"element": "C" 
			},
			{
				"x": -0.8628726698,
				"y": 0.6436527775,
				"z": 1.7136165672,
				"element": "C" 
			},
			{
				"x": -1.9707756585,
				"y": 1.4168227131,
				"z": 1.9830837789,
				"element": "C" 
			},
			{
				"x": -2.9715874692,
				"y": 1.029676376,
				"z": 1.0606464225,
				"element": "C" 
			},
			{
				"x": -2.4277892665,
				"y": 0.0383661741,
				"z": 0.2685701692,
				"element": "C" 
			},
			{
				"x": -1.1346338123,
				"y": -0.1948981587,
				"z": 0.670763418,
				"element": "O" 
			},
			{
				"x": -3.0428077278,
				"y": -0.7170122745,
				"z": -0.7750383058,
				"element": "C" 
			},
			{
				"x": -2.5943508437,
				"y": -1.7328377532,
				"z": -1.5590921075,
				"element": "C" 
			},
			{
				"x": -3.6245928987,
				"y": -2.3552816619,
				"z": -2.4685859576,
				"element": "C" 
			},
			{
				"x": -3.2306643502,
				"y": -3.5660530251,
				"z": -3.290709893,
				"element": "C" 
			},
			{
				"x": -4.7527797568,
				"y": -1.8878328699,
				"z": -2.5477451247,
				"element": "O" 
			},
			{
				"x": -1.2051674504,
				"y": -2.3161839723,
				"z": -1.5425844017,
				"element": "C" 
			},
			{
				"x": -0.0622762566,
				"y": -1.4392410538,
				"z": -2.012032888,
				"element": "C" 
			},
			{
				"x": -1.0339724241,
				"y": -3.4869312873,
				"z": -1.2427831664,
				"element": "O" 
			},
			{
				"x": 3.4544737512,
				"y": 1.2647999876,
				"z": -0.1762649016,
				"element": "H" 
			},
			{
				"x": 2.5364248439,
				"y": 0.4041008286,
				"z": -1.4412544602,
				"element": "H" 
			},
			{
				"x": 3.3837800786,
				"y": -0.5234786118,
				"z": -0.1767797994,
				"element": "H" 
			},
			{
				"x": 3.811185724,
				"y": 0.3425529107,
				"z": 1.9081552425,
				"element": "H" 
			},
			{
				"x": 3.7922973195,
				"y": 0.4713316592,
				"z": 4.3605569153,
				"element": "H" 
			},
			{
				"x": 1.6343761465,
				"y": 0.6856898771,
				"z": 5.5938836892,
				"element": "H" 
			},
			{
				"x": -0.4943708777,
				"y": 0.7186900853,
				"z": 4.3196883595,
				"element": "H" 
			},
			{
				"x": -2.0358351547,
				"y": 2.1817002312,
				"z": 2.7429073297,
				"element": "H" 
			},
			{
				"x": -3.9746672598,
				"y": 1.4224901151,
				"z": 0.9725269327,
				"element": "H" 
			},
			{
				"x": -4.0913148104,
				"y": -0.4647212279,
				"z": -0.9298228771,
				"element": "H" 
			},
			{
				"x": -2.3723688652,
				"y": -3.339994482,
				"z": -3.9344782467,
				"element": "H" 
			},
			{
				"x": -4.0805417292,
				"y": -3.8638816088,
				"z": -3.9052842853,
				"element": "H" 
			},
			{
				"x": -2.9217266978,
				"y": -4.3860009895,
				"z": -2.6368451157,
				"element": "H" 
			},
			{
				"x": -0.2848877829,
				"y": -1.0462047424,
				"z": -3.011345117,
				"element": "H" 
			},
			{
				"x": 0.0721307719,
				"y": -0.5880779056,
				"z": -1.3405549248,
				"element": "H" 
			},
			{
				"x": 0.8532042143,
				"y": -2.0336990234,
				"z": -2.0428207403,
				"element": "H" 
			}
		],
		 "valence_orbital": [ 
			{
				"type": "occ",
				"energy": -0.26789,
				"method": "rhf"
			},
			{
				"type": "occ",
				"energy": -0.25025,
				"method": "rhf"
			},
			{
				"type": "occ",
				"energy": -0.23945,
				"method": "rhf"
			},
			{
				"type": "occ",
				"energy": -0.23571,
				"method": "rhf"
			},
			{
				"type": "occ",
				"energy": -0.20736,
				"method": "rhf"
			},
			{
				"type": "unocc",
				"energy": -0.0745,
				"method": "rhf"
			},
			{
				"type": "unocc",
				"energy": -0.0248,
				"method": "rhf"
			},
			{
				"type": "unocc",
				"energy": -0.01379,
				"method": "rhf"
			},
			{
				"type": "unocc",
				"energy": -0.0025,
				"method": "rhf"
			},
			{
				"type": "unocc",
				"energy": 0.03061,
				"method": "rhf"
			}
		],
		"cosmo_sigma_profile": { 
			"-0.025": 0.0,
			"-0.024": 0.0,
			"-0.023": 0.0,
			"-0.022": 0.0,
			"-0.021": 0.0,
			"-0.02": 0.0,
			"-0.019": 0.0,
			"-0.018": 0.0,
			"-0.017": 0.0,
			"-0.016": 0.0,
			"-0.015": 0.0,
			"-0.014": 0.0,
			"-0.013": 0.0,
			"-0.012": 0.0,
			"-0.011": 0.0,
			"-0.01": 0.0,
			"-0.009": 0.36095071619,
			"-0.008": 4.0008131908,
			"-0.007": 8.59621477847,
			"-0.006": 21.0196923536,
			"-0.005": 26.2342536755,
			"-0.004": 29.0009473835,
			"-0.003": 26.9362953242,
			"-0.002": 26.2085451725,
			"-0.001": 27.0974787235,
			"0.0": 22.071656927,
			"0.001": 24.3024543273,
			"0.002": 25.8557321615,
			"0.003": 22.3258935888,
			"0.004": 16.6007980968,
			"0.005": 12.6565320399,
			"0.006": 6.15962026293,
			"0.007": 3.76080429901,
			"0.008": 3.54877752025,
			"0.009": 3.8042486572,
			"0.01": 3.65817481993,
			"0.011": 5.99332545628,
			"0.012": 7.3048345849,
			"0.013": 2.71701944759,
			"0.014": 0.261434657372,
			"0.015": 0.0,
			"0.016": 0.0,
			"0.017": 0.0,
			"0.018": 0.0,
			"0.019": 0.0,
			"0.02": 0.0,
			"0.021": 0.0,
			"0.022": 0.0,
			"0.023": 0.0,
			"0.024": 0.0,
			"0.025": 0.0
		}
	}
}
