{
	 "smiles": "CC(CC(C)=NNC(N)=O)C1=CC=C(C)C=C1", 
	 "Tm": 419.15, 
	 "num_atms": 36, 
	 "gaussian": { 
		 "optdone": 1, 
		 "sigma_profile": "yes", 
		 "theory": "DFT", 
		 "functional": "B3LYP", 
		 "basiset": "6-31G**", 
		 "properties": { 
			 "R2extent": 7213.445, 
			 "electric_dipole_moment_norm": 4.24212990254, 
			 "electric_quadrupole_moment_norm": 30.1860969302, 
			 "total_energy": -746.328775368, 
			 "HOMO_LUMO_gap": 0.21489, 
			 "cosmo_polarized_energy": -15.09, 
			 "cosmo_cavitation_energy": 38.57, 
			 "cosmo_dispersion_energy": -26.21, 
			 "cosmo_repulsion_energy": 2.08, 
			 "cosmo_total_nonelectrostatic_energy": 14.44, 
			 "SMD_solvation_energy": 7.04 
		},
		"coords": [
			{
				"x": 1.4108356997,
				"y": -1.8080768742,
				"z": -2.1948291486,
				"element": "C" 
			},
			{
				"x": 1.0194855137,
				"y": -1.1864745138,
				"z": -0.8472026728,
				"element": "C" 
			},
			{
				"x": 1.5688457827,
				"y": 0.2726810031,
				"z": -0.7183913981,
				"element": "C" 
			},
			{
				"x": 0.9649021166,
				"y": 1.2917168693,
				"z": -1.6566280222,
				"element": "C" 
			},
			{
				"x": -0.3414854709,
				"y": 1.9656913504,
				"z": -1.304048841,
				"element": "C" 
			},
			{
				"x": 1.6300523982,
				"y": 1.5554635919,
				"z": -2.7288435332,
				"element": "N" 
			},
			{
				"x": 1.131167312,
				"y": 2.4678001354,
				"z": -3.608619047,
				"element": "N" 
			},
			{
				"x": 1.7858754119,
				"y": 2.7561663799,
				"z": -4.808005988,
				"element": "C" 
			},
			{
				"x": 3.0272614313,
				"y": 2.1981994474,
				"z": -4.92052277,
				"element": "N" 
			},
			{
				"x": 1.2589779792,
				"y": 3.483507322,
				"z": -5.6390365219,
				"element": "O" 
			},
			{
				"x": -0.468118891,
				"y": -1.2798056758,
				"z": -0.5263333247,
				"element": "C" 
			},
			{
				"x": -0.890139669,
				"y": -1.2503224191,
				"z": 0.8122999718,
				"element": "C" 
			},
			{
				"x": -2.2403890273,
				"y": -1.3011371778,
				"z": 1.1501155629,
				"element": "C" 
			},
			{
				"x": -3.2305208583,
				"y": -1.3924169729,
				"z": 0.1611023558,
				"element": "C" 
			},
			{
				"x": -4.692936832,
				"y": -1.4813447335,
				"z": 0.5293499865,
				"element": "C" 
			},
			{
				"x": -2.8121308217,
				"y": -1.4276732829,
				"z": -1.1731224097,
				"element": "C" 
			},
			{
				"x": -1.4578052342,
				"y": -1.3745513024,
				"z": -1.5122387674,
				"element": "C" 
			},
			{
				"x": 1.0311790434,
				"y": -2.8307887133,
				"z": -2.2811640459,
				"element": "H" 
			},
			{
				"x": 2.5006667073,
				"y": -1.8402061932,
				"z": -2.2924088166,
				"element": "H" 
			},
			{
				"x": 1.0310906531,
				"y": -1.2279092099,
				"z": -3.0406900317,
				"element": "H" 
			},
			{
				"x": 1.5420761839,
				"y": -1.752878182,
				"z": -0.0640837115,
				"element": "H" 
			},
			{
				"x": 1.4174928822,
				"y": 0.6097254987,
				"z": 0.3144652956,
				"element": "H" 
			},
			{
				"x": 2.6480459297,
				"y": 0.2410736888,
				"z": -0.899742776,
				"element": "H" 
			},
			{
				"x": -0.7043555892,
				"y": 1.6423680222,
				"z": -0.3284882829,
				"element": "H" 
			},
			{
				"x": -0.2194621436,
				"y": 3.0571912128,
				"z": -1.2838149094,
				"element": "H" 
			},
			{
				"x": -1.1281065088,
				"y": 1.7346403269,
				"z": -2.0339235252,
				"element": "H" 
			},
			{
				"x": 0.1964848992,
				"y": 2.85218356,
				"z": -3.5330599696,
				"element": "H" 
			},
			{
				"x": 3.451615209,
				"y": 2.2397128037,
				"z": -5.831860386,
				"element": "H" 
			},
			{
				"x": 3.2968410394,
				"y": 1.4805202886,
				"z": -4.2648896055,
				"element": "H" 
			},
			{
				"x": -0.1457256333,
				"y": -1.1889024097,
				"z": 1.6038056823,
				"element": "H" 
			},
			{
				"x": -2.5312886963,
				"y": -1.2767185946,
				"z": 2.1979420127,
				"element": "H" 
			},
			{
				"x": -4.9693623053,
				"y": -2.503232716,
				"z": 0.8180466254,
				"element": "H" 
			},
			{
				"x": -5.3347549223,
				"y": -1.1946203385,
				"z": -0.308779739,
				"element": "H" 
			},
			{
				"x": -4.9334381414,
				"y": -0.8315537184,
				"z": 1.3770615372,
				"element": "H" 
			},
			{
				"x": -3.5555926037,
				"y": -1.5007623597,
				"z": -1.9635744597,
				"element": "H" 
			},
			{
				"x": -1.1785828441,
				"y": -1.4100661132,
				"z": -2.5606863267,
				"element": "H" 
			}
		],
		 "valence_orbital": [ 
			{
				"type": "occ",
				"energy": -0.25837,
				"method": "rhf"
			},
			{
				"type": "occ",
				"energy": -0.2513,
				"method": "rhf"
			},
			{
				"type": "occ",
				"energy": -0.25078,
				"method": "rhf"
			},
			{
				"type": "occ",
				"energy": -0.23696,
				"method": "rhf"
			},
			{
				"type": "occ",
				"energy": -0.22262,
				"method": "rhf"
			},
			{
				"type": "unocc",
				"energy": -0.00773,
				"method": "rhf"
			},
			{
				"type": "unocc",
				"energy": -0.00303,
				"method": "rhf"
			},
			{
				"type": "unocc",
				"energy": -0.00124,
				"method": "rhf"
			},
			{
				"type": "unocc",
				"energy": 0.07672,
				"method": "rhf"
			},
			{
				"type": "unocc",
				"energy": 0.08576,
				"method": "rhf"
			}
		],
		"cosmo_sigma_profile": { 
			"-0.025": 0.0,
			"-0.024": 0.0,
			"-0.023": 0.0,
			"-0.022": 0.0,
			"-0.021": 0.0,
			"-0.02": 0.0,
			"-0.019": 0.0,
			"-0.018": 0.0,
			"-0.017": 0.0,
			"-0.016": 0.0,
			"-0.015": 0.0,
			"-0.014": 0.667492335892,
			"-0.013": 1.40207042419,
			"-0.012": 1.7428454176,
			"-0.011": 3.53636958553,
			"-0.01": 2.69028526677,
			"-0.009": 2.36241061576,
			"-0.008": 2.92269339904,
			"-0.007": 3.62045018973,
			"-0.006": 3.58256514649,
			"-0.005": 10.0582940775,
			"-0.004": 23.8996399024,
			"-0.003": 34.5181044803,
			"-0.002": 34.0396427008,
			"-0.001": 33.0545457366,
			"0.0": 29.0602492202,
			"0.001": 23.4150758106,
			"0.002": 17.6579540607,
			"0.003": 13.3592517254,
			"0.004": 13.2748505533,
			"0.005": 12.1270124293,
			"0.006": 9.77668071244,
			"0.007": 4.74250238279,
			"0.008": 2.44490278209,
			"0.009": 1.67852281297,
			"0.01": 1.11809013402,
			"0.011": 1.79999946681,
			"0.012": 1.08555425422,
			"0.013": 2.07650397689,
			"0.014": 6.45905730338,
			"0.015": 3.75463596977,
			"0.016": 0.0246019924208,
			"0.017": 0.0,
			"0.018": 0.0,
			"0.019": 0.0,
			"0.02": 0.0,
			"0.021": 0.0,
			"0.022": 0.0,
			"0.023": 0.0,
			"0.024": 0.0,
			"0.025": 0.0
		}
	}
}
