{
	 "smiles": "FC1=CC(Cl)=C(C=O)C=C1", 
	 "Tm": 335.15, 
	 "num_atms": 14, 
	 "gaussian": { 
		 "optdone": 1, 
		 "sigma_profile": "yes", 
		 "theory": "DFT", 
		 "functional": "B3LYP", 
		 "basiset": "6-31G**", 
		 "properties": { 
			 "R2extent": 2308.0449, 
			 "electric_dipole_moment_norm": 2.03494864063, 
			 "electric_quadrupole_moment_norm": 7.61300031328, 
			 "total_energy": -904.392909177, 
			 "HOMO_LUMO_gap": 0.18896, 
			 "cosmo_polarized_energy": -6.06, 
			 "cosmo_cavitation_energy": 21.16, 
			 "cosmo_dispersion_energy": -15.57, 
			 "cosmo_repulsion_energy": 1.23, 
			 "cosmo_total_nonelectrostatic_energy": 6.82, 
			 "SMD_solvation_energy": 5.03 
		},
		"coords": [
			{
				"x": -2.6724833304,
				"y": 2.5829199859,
				"z": -0.6173374095,
				"element": "F" 
			},
			{
				"x": -1.9656653668,
				"y": 1.5508133236,
				"z": -0.1310116933,
				"element": "C" 
			},
			{
				"x": -1.6918313317,
				"y": 1.5221582403,
				"z": 1.2322999271,
				"element": "C" 
			},
			{
				"x": -0.9581076281,
				"y": 0.4494667977,
				"z": 1.7331908257,
				"element": "C" 
			},
			{
				"x": -0.6249726074,
				"y": 0.4359318072,
				"z": 3.4592490396,
				"element": "Cl" 
			},
			{
				"x": -0.5015507516,
				"y": -0.5815576503,
				"z": 0.8942489276,
				"element": "C" 
			},
			{
				"x": 0.2840119263,
				"y": -1.7492061227,
				"z": 1.3695594167,
				"element": "C" 
			},
			{
				"x": 0.6713222863,
				"y": -2.6335207517,
				"z": 0.6278919143,
				"element": "O" 
			},
			{
				"x": -0.8065919182,
				"y": -0.5028116693,
				"z": -0.4762370187,
				"element": "C" 
			},
			{
				"x": -1.5352189317,
				"y": 0.553000398,
				"z": -1.0034703051,
				"element": "C" 
			},
			{
				"x": -2.0449021431,
				"y": 2.3180461786,
				"z": 1.8763683679,
				"element": "H" 
			},
			{
				"x": 0.5041377073,
				"y": -1.7761872047,
				"z": 2.452120666,
				"element": "H" 
			},
			{
				"x": -0.4457123623,
				"y": -1.3079450781,
				"z": -1.108312313,
				"element": "H" 
			},
			{
				"x": -1.7739355485,
				"y": 0.6200917454,
				"z": -2.0587603453,
				"element": "H" 
			}
		],
		 "valence_orbital": [ 
			{
				"type": "occ",
				"energy": -0.34796,
				"method": "rhf"
			},
			{
				"type": "occ",
				"energy": -0.33699,
				"method": "rhf"
			},
			{
				"type": "occ",
				"energy": -0.27856,
				"method": "rhf"
			},
			{
				"type": "occ",
				"energy": -0.26808,
				"method": "rhf"
			},
			{
				"type": "occ",
				"energy": -0.26431,
				"method": "rhf"
			},
			{
				"type": "unocc",
				"energy": -0.07535,
				"method": "rhf"
			},
			{
				"type": "unocc",
				"energy": -0.03732,
				"method": "rhf"
			},
			{
				"type": "unocc",
				"energy": 0.00862,
				"method": "rhf"
			},
			{
				"type": "unocc",
				"energy": 0.02742,
				"method": "rhf"
			},
			{
				"type": "unocc",
				"energy": 0.09587,
				"method": "rhf"
			}
		],
		"cosmo_sigma_profile": { 
			"-0.025": 0.0,
			"-0.024": 0.0,
			"-0.023": 0.0,
			"-0.022": 0.0,
			"-0.021": 0.0,
			"-0.02": 0.0,
			"-0.019": 0.0,
			"-0.018": 0.0,
			"-0.017": 0.0,
			"-0.016": 0.0,
			"-0.015": 0.0,
			"-0.014": 0.0,
			"-0.013": 0.0,
			"-0.012": 0.0,
			"-0.011": 0.0,
			"-0.01": 0.04276903704,
			"-0.009": 1.75005261211,
			"-0.008": 3.56859552678,
			"-0.007": 4.61117281775,
			"-0.006": 7.55196969555,
			"-0.005": 8.11207537907,
			"-0.004": 10.4166322545,
			"-0.003": 9.20379713215,
			"-0.002": 14.3069116758,
			"-0.001": 19.9498346213,
			"0.0": 23.9707840858,
			"0.001": 16.6205940962,
			"0.002": 10.4228967919,
			"0.003": 17.9246163759,
			"0.004": 8.03338805681,
			"0.005": 1.41896451581,
			"0.006": 0.587817388975,
			"0.007": 1.82725123151,
			"0.008": 2.13693473151,
			"0.009": 2.0677327559,
			"0.01": 2.93422811968,
			"0.011": 3.99287394162,
			"0.012": 1.68447231268,
			"0.013": 0.223505337736,
			"0.014": 0.0,
			"0.015": 0.0,
			"0.016": 0.0,
			"0.017": 0.0,
			"0.018": 0.0,
			"0.019": 0.0,
			"0.02": 0.0,
			"0.021": 0.0,
			"0.022": 0.0,
			"0.023": 0.0,
			"0.024": 0.0,
			"0.025": 0.0
		}
	}
}
