{
	 "smiles": "[O-][N+](=O)C1=CC=C(OCCN2CCOCC2)C=C1", 
	 "Tm": 358.15, 
	 "num_atms": 34, 
	 "gaussian": { 
		 "optdone": 1, 
		 "sigma_profile": "yes", 
		 "theory": "DFT", 
		 "functional": "B3LYP", 
		 "basiset": "6-31G**", 
		 "properties": { 
			 "R2extent": 8425.94, 
			 "electric_dipole_moment_norm": 5.17033503943, 
			 "electric_quadrupole_moment_norm": 30.748741696, 
			 "total_energy": -877.174683503, 
			 "HOMO_LUMO_gap": 0.14716, 
			 "cosmo_polarized_energy": -14.91, 
			 "cosmo_cavitation_energy": 37.01, 
			 "cosmo_dispersion_energy": -26.92, 
			 "cosmo_repulsion_energy": 2.09, 
			 "cosmo_total_nonelectrostatic_energy": 12.17, 
			 "SMD_solvation_energy": 6.38 
		},
		"coords": [
			{
				"x": -5.5840436651,
				"y": -2.7409634056,
				"z": -2.2281073909,
				"element": "O" 
			},
			{
				"x": -4.5234715992,
				"y": -2.1980993173,
				"z": -2.5443741695,
				"element": "N" 
			},
			{
				"x": -3.9962930868,
				"y": -2.2912956322,
				"z": -3.6551107965,
				"element": "O" 
			},
			{
				"x": -3.8457634923,
				"y": -1.3894812525,
				"z": -1.5336825895,
				"element": "C" 
			},
			{
				"x": -4.4131967769,
				"y": -1.26295103,
				"z": -0.2620078537,
				"element": "C" 
			},
			{
				"x": -3.7656708437,
				"y": -0.4958162767,
				"z": 0.6911422759,
				"element": "C" 
			},
			{
				"x": -2.5510564306,
				"y": 0.1475847781,
				"z": 0.3847595966,
				"element": "C" 
			},
			{
				"x": -2.0175591523,
				"y": 0.8782158871,
				"z": 1.3940081942,
				"element": "O" 
			},
			{
				"x": -0.8042777838,
				"y": 1.6167310679,
				"z": 1.206456128,
				"element": "C" 
			},
			{
				"x": 0.4264918335,
				"y": 0.7372323142,
				"z": 1.4575411809,
				"element": "C" 
			},
			{
				"x": 1.6489823484,
				"y": 1.5244214584,
				"z": 1.4331447467,
				"element": "N" 
			},
			{
				"x": 2.022881344,
				"y": 1.9872714166,
				"z": 0.0863799903,
				"element": "C" 
			},
			{
				"x": 3.5331951892,
				"y": 2.2760124879,
				"z": 0.0135944263,
				"element": "C" 
			},
			{
				"x": 3.9941400128,
				"y": 2.8512218614,
				"z": 1.2199405349,
				"element": "O" 
			},
			{
				"x": 3.8791599091,
				"y": 1.9549189245,
				"z": 2.3247218273,
				"element": "C" 
			},
			{
				"x": 2.776627013,
				"y": 0.9024164284,
				"z": 2.1194076505,
				"element": "C" 
			},
			{
				"x": -1.9917518655,
				"y": 0.0070301888,
				"z": -0.8968189169,
				"element": "C" 
			},
			{
				"x": -2.6447118284,
				"y": -0.761984949,
				"z": -1.8551587431,
				"element": "C" 
			},
			{
				"x": -5.3483952564,
				"y": -1.7640609088,
				"z": -0.0458917515,
				"element": "H" 
			},
			{
				"x": -4.1774449029,
				"y": -0.370989143,
				"z": 1.6865783015,
				"element": "H" 
			},
			{
				"x": -0.7919402997,
				"y": 2.084137105,
				"z": 0.2161307179,
				"element": "H" 
			},
			{
				"x": -0.8326245864,
				"y": 2.4134959467,
				"z": 1.952904915,
				"element": "H" 
			},
			{
				"x": 0.3114702644,
				"y": 0.2958638744,
				"z": 2.4531403293,
				"element": "H" 
			},
			{
				"x": 0.4448660117,
				"y": -0.1013246883,
				"z": 0.7346832307,
				"element": "H" 
			},
			{
				"x": 1.7726222289,
				"y": 1.2371016451,
				"z": -0.6894197604,
				"element": "H" 
			},
			{
				"x": 1.4624483071,
				"y": 2.9000804154,
				"z": -0.1479090279,
				"element": "H" 
			},
			{
				"x": 4.09111483,
				"y": 1.356008745,
				"z": -0.2230308944,
				"element": "H" 
			},
			{
				"x": 3.7418444167,
				"y": 2.996337281,
				"z": -0.7820072829,
				"element": "H" 
			},
			{
				"x": 3.6459864599,
				"y": 2.5776127205,
				"z": 3.1942483558,
				"element": "H" 
			},
			{
				"x": 4.8409692268,
				"y": 1.4502732178,
				"z": 2.5087826601,
				"element": "H" 
			},
			{
				"x": 2.4455270679,
				"y": 0.5416946198,
				"z": 3.0987069723,
				"element": "H" 
			},
			{
				"x": 3.1716846152,
				"y": 0.0217322266,
				"z": 1.5780224353,
				"element": "H" 
			},
			{
				"x": -1.0523041142,
				"y": 0.4804188184,
				"z": -1.1527722572,
				"element": "H" 
			},
			{
				"x": -2.2334053948,
				"y": -0.8861468256,
				"z": -2.8492030352,
				"element": "H" 
			}
		],
		 "valence_orbital": [ 
			{
				"type": "occ",
				"energy": -0.28159,
				"method": "rhf"
			},
			{
				"type": "occ",
				"energy": -0.27806,
				"method": "rhf"
			},
			{
				"type": "occ",
				"energy": -0.25803,
				"method": "rhf"
			},
			{
				"type": "occ",
				"energy": -0.24824,
				"method": "rhf"
			},
			{
				"type": "occ",
				"energy": -0.22595,
				"method": "rhf"
			},
			{
				"type": "unocc",
				"energy": -0.07879,
				"method": "rhf"
			},
			{
				"type": "unocc",
				"energy": -0.02655,
				"method": "rhf"
			},
			{
				"type": "unocc",
				"energy": 0.01425,
				"method": "rhf"
			},
			{
				"type": "unocc",
				"energy": 0.05181,
				"method": "rhf"
			},
			{
				"type": "unocc",
				"energy": 0.07748,
				"method": "rhf"
			}
		],
		"cosmo_sigma_profile": { 
			"-0.025": 0.0,
			"-0.024": 0.0,
			"-0.023": 0.0,
			"-0.022": 0.0,
			"-0.021": 0.0,
			"-0.02": 0.0,
			"-0.019": 0.0,
			"-0.018": 0.0,
			"-0.017": 0.0,
			"-0.016": 0.0,
			"-0.015": 0.0,
			"-0.014": 0.0,
			"-0.013": 0.0,
			"-0.012": 0.0,
			"-0.011": 0.0,
			"-0.01": 0.0,
			"-0.009": 0.00396235446667,
			"-0.008": 1.71337935564,
			"-0.007": 7.44169539908,
			"-0.006": 11.8589545804,
			"-0.005": 20.2919756531,
			"-0.004": 30.5762744132,
			"-0.003": 41.1286205139,
			"-0.002": 30.5649341936,
			"-0.001": 24.530727006,
			"0.0": 17.4731129664,
			"0.001": 19.1056926377,
			"0.002": 16.9670956636,
			"0.003": 8.63953935793,
			"0.004": 5.69745297086,
			"0.005": 5.51326652229,
			"0.006": 5.82689924875,
			"0.007": 7.10911182433,
			"0.008": 13.902770458,
			"0.009": 7.81104889344,
			"0.01": 5.36166957492,
			"0.011": 4.28304222723,
			"0.012": 2.05255215374,
			"0.013": 2.55627868464,
			"0.014": 1.01306256486,
			"0.015": 0.0,
			"0.016": 0.0,
			"0.017": 0.0,
			"0.018": 0.0,
			"0.019": 0.0,
			"0.02": 0.0,
			"0.021": 0.0,
			"0.022": 0.0,
			"0.023": 0.0,
			"0.024": 0.0,
			"0.025": 0.0
		}
	}
}
