{
	 "smiles": "O=C1N(C(=O)C2=C1C=CC=C2)C1=NC2=C(N1)C=CC=C2", 
	 "Tm": 547.15, 
	 "num_atms": 29, 
	 "gaussian": { 
		 "optdone": 1, 
		 "sigma_profile": "yes", 
		 "theory": "DFT", 
		 "functional": "B3LYP", 
		 "basiset": "6-31G**", 
		 "properties": { 
			 "R2extent": 6689.7915, 
			 "electric_dipole_moment_norm": 5.33032727044, 
			 "electric_quadrupole_moment_norm": 25.4987046973, 
			 "total_energy": -891.761802179, 
			 "HOMO_LUMO_gap": 0.11665, 
			 "cosmo_polarized_energy": -17.72, 
			 "cosmo_cavitation_energy": 34.47, 
			 "cosmo_dispersion_energy": -25.7, 
			 "cosmo_repulsion_energy": 1.9, 
			 "cosmo_total_nonelectrostatic_energy": 10.67, 
			 "SMD_solvation_energy": 4.95 
		},
		"coords": [
			{
				"x": -0.7587422256,
				"y": 1.8873032065,
				"z": -1.0888861297,
				"element": "O" 
			},
			{
				"x": -1.3120909554,
				"y": 1.0084829272,
				"z": -0.4477146134,
				"element": "C" 
			},
			{
				"x": -0.7879604131,
				"y": -0.2779995312,
				"z": -0.1864131915,
				"element": "N" 
			},
			{
				"x": -1.7081662621,
				"y": -1.0609850926,
				"z": 0.6017107771,
				"element": "C" 
			},
			{
				"x": -1.5474847706,
				"y": -2.1911064566,
				"z": 0.9834073599,
				"element": "O" 
			},
			{
				"x": -2.8773740481,
				"y": -0.1657105062,
				"z": 0.8282073563,
				"element": "C" 
			},
			{
				"x": -2.641696371,
				"y": 1.0588967247,
				"z": 0.2065000982,
				"element": "C" 
			},
			{
				"x": -3.5685072281,
				"y": 2.0915132815,
				"z": 0.2534752466,
				"element": "C" 
			},
			{
				"x": -4.7575764408,
				"y": 1.8538196092,
				"z": 0.9544068516,
				"element": "C" 
			},
			{
				"x": -4.9950514173,
				"y": 0.6222526436,
				"z": 1.5799273749,
				"element": "C" 
			},
			{
				"x": -4.0515291412,
				"y": -0.4120270859,
				"z": 1.5251353942,
				"element": "C" 
			},
			{
				"x": 0.4649067787,
				"y": -0.7208540974,
				"z": -0.6411341299,
				"element": "C" 
			},
			{
				"x": 0.9787356911,
				"y": -1.9019227714,
				"z": -0.4181557415,
				"element": "N" 
			},
			{
				"x": 2.2089782772,
				"y": -1.8591253872,
				"z": -1.0604750959,
				"element": "C" 
			},
			{
				"x": 2.4078874864,
				"y": -0.5993380687,
				"z": -1.6776511308,
				"element": "C" 
			},
			{
				"x": 1.2600680892,
				"y": 0.1186113113,
				"z": -1.3888756815,
				"element": "N" 
			},
			{
				"x": 3.5644950845,
				"y": -0.2870389736,
				"z": -2.3930189259,
				"element": "C" 
			},
			{
				"x": 4.5350034075,
				"y": -1.2834580831,
				"z": -2.4776960882,
				"element": "C" 
			},
			{
				"x": 4.3543863959,
				"y": -2.5422144378,
				"z": -1.8702452366,
				"element": "C" 
			},
			{
				"x": 3.1976795788,
				"y": -2.8457737348,
				"z": -1.1583991862,
				"element": "C" 
			},
			{
				"x": -3.3725728695,
				"y": 3.0402626501,
				"z": -0.2350168039,
				"element": "H" 
			},
			{
				"x": -5.5089158969,
				"y": 2.6351987508,
				"z": 1.0153117198,
				"element": "H" 
			},
			{
				"x": -5.9269340482,
				"y": 0.4691190834,
				"z": 2.1156777227,
				"element": "H" 
			},
			{
				"x": -4.2228812137,
				"y": -1.3699829262,
				"z": 2.0048820846,
				"element": "H" 
			},
			{
				"x": 0.9966222594,
				"y": 1.0621069229,
				"z": -1.6417317355,
				"element": "H" 
			},
			{
				"x": 3.7056691147,
				"y": 0.6820097062,
				"z": -2.8617536941,
				"element": "H" 
			},
			{
				"x": 5.45173621,
				"y": -1.0843658015,
				"z": -3.024863797,
				"element": "H" 
			},
			{
				"x": 5.1373335514,
				"y": -3.2892078897,
				"z": -1.9618397432,
				"element": "H" 
			},
			{
				"x": 3.0520813769,
				"y": -3.8127659736,
				"z": -0.6882710612,
				"element": "H" 
			}
		],
		 "valence_orbital": [ 
			{
				"type": "occ",
				"energy": -0.28908,
				"method": "rhf"
			},
			{
				"type": "occ",
				"energy": -0.28723,
				"method": "rhf"
			},
			{
				"type": "occ",
				"energy": -0.26214,
				"method": "rhf"
			},
			{
				"type": "occ",
				"energy": -0.22223,
				"method": "rhf"
			},
			{
				"type": "occ",
				"energy": -0.2127,
				"method": "rhf"
			},
			{
				"type": "unocc",
				"energy": -0.09605,
				"method": "rhf"
			},
			{
				"type": "unocc",
				"energy": -0.05842,
				"method": "rhf"
			},
			{
				"type": "unocc",
				"energy": -0.00611,
				"method": "rhf"
			},
			{
				"type": "unocc",
				"energy": 0.01626,
				"method": "rhf"
			},
			{
				"type": "unocc",
				"energy": 0.02694,
				"method": "rhf"
			}
		],
		"cosmo_sigma_profile": { 
			"-0.025": 0.0,
			"-0.024": 0.0,
			"-0.023": 0.0,
			"-0.022": 0.0,
			"-0.021": 0.0,
			"-0.02": 0.0,
			"-0.019": 0.0,
			"-0.018": 0.0,
			"-0.017": 0.0,
			"-0.016": 0.0,
			"-0.015": 0.0,
			"-0.014": 0.112466913002,
			"-0.013": 0.845954158132,
			"-0.012": 0.557060385626,
			"-0.011": 0.983628655247,
			"-0.01": 0.864772291756,
			"-0.009": 0.578068309033,
			"-0.008": 6.51379884918,
			"-0.007": 13.8959590249,
			"-0.006": 18.7704678571,
			"-0.005": 19.6455876954,
			"-0.004": 20.8161323361,
			"-0.003": 18.8857549124,
			"-0.002": 18.9534398136,
			"-0.001": 19.5232759752,
			"0.0": 20.6554741874,
			"0.001": 22.8246220759,
			"0.002": 15.5674218706,
			"0.003": 11.5269226364,
			"0.004": 12.4780523051,
			"0.005": 13.2154624644,
			"0.006": 10.1756029306,
			"0.007": 4.45186213046,
			"0.008": 4.78625786806,
			"0.009": 4.58354026379,
			"0.01": 6.90951708842,
			"0.011": 2.55992984801,
			"0.012": 1.74166987705,
			"0.013": 1.35103908158,
			"0.014": 1.34820007309,
			"0.015": 1.06671266702,
			"0.016": 0.87496332575,
			"0.017": 1.16148595846,
			"0.018": 0.988878710686,
			"0.019": 0.259466502662,
			"0.02": 0.0,
			"0.021": 0.0,
			"0.022": 0.0,
			"0.023": 0.0,
			"0.024": 0.0,
			"0.025": 0.0
		}
	}
}
