{
	 "smiles": "CC1=C(C(O)=O)C(C)=CC(=O)N1", 
	 "Tm": 548.15, 
	 "num_atms": 21, 
	 "gaussian": { 
		 "optdone": 1, 
		 "sigma_profile": "yes", 
		 "theory": "DFT", 
		 "functional": "B3LYP", 
		 "basiset": "6-31G**", 
		 "properties": { 
			 "R2extent": 2106.0997, 
			 "electric_dipole_moment_norm": 1.38863674516, 
			 "electric_quadrupole_moment_norm": 27.6867149816, 
			 "total_energy": -590.723530003, 
			 "HOMO_LUMO_gap": 0.17792, 
			 "cosmo_polarized_energy": -20.7, 
			 "cosmo_cavitation_energy": 24.65, 
			 "cosmo_dispersion_energy": -18.32, 
			 "cosmo_repulsion_energy": 1.45, 
			 "cosmo_total_nonelectrostatic_energy": 7.78, 
			 "SMD_solvation_energy": 5.99 
		},
		"coords": [
			{
				"x": 2.7551709315,
				"y": -0.9741629896,
				"z": 0.2645265762,
				"element": "C" 
			},
			{
				"x": 1.4187796931,
				"y": -0.3121143966,
				"z": 0.4707367818,
				"element": "C" 
			},
			{
				"x": 0.4102572654,
				"y": -0.2019959906,
				"z": -0.4790046604,
				"element": "C" 
			},
			{
				"x": 0.6674682265,
				"y": -0.7919265927,
				"z": -1.8256266401,
				"element": "C" 
			},
			{
				"x": -0.397925062,
				"y": -1.3257393009,
				"z": -2.4861418715,
				"element": "O" 
			},
			{
				"x": 1.7588661135,
				"y": -0.8399456792,
				"z": -2.3499061608,
				"element": "O" 
			},
			{
				"x": -0.7926513378,
				"y": 0.5281472322,
				"z": -0.1270448073,
				"element": "C" 
			},
			{
				"x": -1.9072254387,
				"y": 0.769086226,
				"z": -1.1264606374,
				"element": "C" 
			},
			{
				"x": -0.9296373334,
				"y": 1.0612455975,
				"z": 1.1263046051,
				"element": "C" 
			},
			{
				"x": 0.075081089,
				"y": 0.9214282046,
				"z": 2.1534897423,
				"element": "C" 
			},
			{
				"x": 0.0357490767,
				"y": 1.3402436461,
				"z": 3.3043511644,
				"element": "O" 
			},
			{
				"x": 1.2169363829,
				"y": 0.2161374128,
				"z": 1.7050387356,
				"element": "N" 
			},
			{
				"x": 2.6653703025,
				"y": -1.8891240881,
				"z": -0.3209471938,
				"element": "H" 
			},
			{
				"x": 3.4202922699,
				"y": -0.3142927802,
				"z": -0.2993698455,
				"element": "H" 
			},
			{
				"x": 3.2177854413,
				"y": -1.2066959999,
				"z": 1.2282987876,
				"element": "H" 
			},
			{
				"x": -1.1700415829,
				"y": -1.3635166701,
				"z": -1.9066609451,
				"element": "H" 
			},
			{
				"x": -2.5806924602,
				"y": -0.0954681212,
				"z": -1.2116260345,
				"element": "H" 
			},
			{
				"x": -2.5262983714,
				"y": 1.6060115242,
				"z": -0.7973894808,
				"element": "H" 
			},
			{
				"x": -1.529561199,
				"y": 0.9912215936,
				"z": -2.1272826591,
				"element": "H" 
			},
			{
				"x": -1.8099831643,
				"y": 1.6320921679,
				"z": 1.3991972054,
				"element": "H" 
			},
			{
				"x": 1.9394591572,
				"y": 0.1235690039,
				"z": 2.4100173377,
				"element": "H" 
			}
		],
		 "valence_orbital": [ 
			{
				"type": "occ",
				"energy": -0.32033,
				"method": "rhf"
			},
			{
				"type": "occ",
				"energy": -0.30602,
				"method": "rhf"
			},
			{
				"type": "occ",
				"energy": -0.27896,
				"method": "rhf"
			},
			{
				"type": "occ",
				"energy": -0.25963,
				"method": "rhf"
			},
			{
				"type": "occ",
				"energy": -0.22832,
				"method": "rhf"
			},
			{
				"type": "unocc",
				"energy": -0.0504,
				"method": "rhf"
			},
			{
				"type": "unocc",
				"energy": -0.03521,
				"method": "rhf"
			},
			{
				"type": "unocc",
				"energy": 0.03566,
				"method": "rhf"
			},
			{
				"type": "unocc",
				"energy": 0.05982,
				"method": "rhf"
			},
			{
				"type": "unocc",
				"energy": 0.06762,
				"method": "rhf"
			}
		],
		"cosmo_sigma_profile": { 
			"-0.025": 0.0,
			"-0.024": 0.0,
			"-0.023": 0.0,
			"-0.022": 0.0,
			"-0.021": 0.0,
			"-0.02": 0.0,
			"-0.019": 0.0224210713629,
			"-0.018": 0.66355209995,
			"-0.017": 0.886997662349,
			"-0.016": 1.1171584209,
			"-0.015": 1.66348194036,
			"-0.014": 2.13864383836,
			"-0.013": 2.55940727097,
			"-0.012": 1.90299737033,
			"-0.011": 2.72177231784,
			"-0.01": 2.06326283425,
			"-0.009": 1.43582907467,
			"-0.008": 2.65851633921,
			"-0.007": 4.15685370669,
			"-0.006": 11.6201365344,
			"-0.005": 13.0076477199,
			"-0.004": 14.5115518924,
			"-0.003": 15.3428697206,
			"-0.002": 18.6171643897,
			"-0.001": 16.3918229757,
			"0.0": 9.09538804622,
			"0.001": 7.35173490396,
			"0.002": 8.18420548549,
			"0.003": 5.42679196395,
			"0.004": 3.07416679464,
			"0.005": 2.97114814294,
			"0.006": 4.01895569399,
			"0.007": 2.79584897104,
			"0.008": 4.02747813711,
			"0.009": 4.23855172102,
			"0.01": 5.39441803291,
			"0.011": 5.81118495473,
			"0.012": 5.88850178548,
			"0.013": 5.78187543395,
			"0.014": 6.13094535124,
			"0.015": 1.78182549598,
			"0.016": 0.0203690465212,
			"0.017": 0.0,
			"0.018": 0.0,
			"0.019": 0.0,
			"0.02": 0.0,
			"0.021": 0.0,
			"0.022": 0.0,
			"0.023": 0.0,
			"0.024": 0.0,
			"0.025": 0.0
		}
	}
}
