{
	 "smiles": "CN(CCC(N)=S)C(C)=O", 
	 "Tm": 383.15, 
	 "num_atms": 22, 
	 "gaussian": { 
		 "optdone": 1, 
		 "sigma_profile": "yes", 
		 "theory": "DFT", 
		 "functional": "B3LYP", 
		 "basiset": "6-31G**", 
		 "properties": { 
			 "R2extent": 2343.901, 
			 "electric_dipole_moment_norm": 2.74456596386, 
			 "electric_quadrupole_moment_norm": 20.9646423502, 
			 "total_energy": -818.80605845, 
			 "HOMO_LUMO_gap": 0.17412, 
			 "cosmo_polarized_energy": -21.48, 
			 "cosmo_cavitation_energy": 26.45, 
			 "cosmo_dispersion_energy": -18.79, 
			 "cosmo_repulsion_energy": 1.49, 
			 "cosmo_total_nonelectrostatic_energy": 9.15, 
			 "SMD_solvation_energy": 4.67 
		},
		"coords": [
			{
				"x": -1.7405780519,
				"y": 0.9046136986,
				"z": -0.0801834236,
				"element": "C" 
			},
			{
				"x": -0.5097611113,
				"y": 0.5670230728,
				"z": 0.6356879692,
				"element": "N" 
			},
			{
				"x": 0.5960415011,
				"y": 1.5150156547,
				"z": 0.5533873352,
				"element": "C" 
			},
			{
				"x": 1.6467619008,
				"y": 1.1948413924,
				"z": -0.5388362169,
				"element": "C" 
			},
			{
				"x": 1.1019367757,
				"y": 1.2984607652,
				"z": -1.9516425904,
				"element": "C" 
			},
			{
				"x": 0.771104815,
				"y": 0.1220442124,
				"z": -2.5174618768,
				"element": "N" 
			},
			{
				"x": 0.8990581262,
				"y": 2.7583874247,
				"z": -2.7259373485,
				"element": "S" 
			},
			{
				"x": -0.5015128545,
				"y": -0.5567848326,
				"z": 1.4378363887,
				"element": "C" 
			},
			{
				"x": 0.7438802229,
				"y": -0.8118746072,
				"z": 2.2802967435,
				"element": "C" 
			},
			{
				"x": -1.4565651436,
				"y": -1.3244413431,
				"z": 1.4934009218,
				"element": "O" 
			},
			{
				"x": -2.44296937,
				"y": 0.0843784761,
				"z": 0.0574582772,
				"element": "H" 
			},
			{
				"x": -2.1769131194,
				"y": 1.8274022161,
				"z": 0.321604242,
				"element": "H" 
			},
			{
				"x": -1.5464487429,
				"y": 1.0516795096,
				"z": -1.1456882528,
				"element": "H" 
			},
			{
				"x": 0.1828634886,
				"y": 2.5081976627,
				"z": 0.3536139827,
				"element": "H" 
			},
			{
				"x": 1.1132186463,
				"y": 1.5720022775,
				"z": 1.5144981523,
				"element": "H" 
			},
			{
				"x": 2.0619589306,
				"y": 0.1948078146,
				"z": -0.3611735961,
				"element": "H" 
			},
			{
				"x": 2.4619254064,
				"y": 1.916117475,
				"z": -0.4416337036,
				"element": "H" 
			},
			{
				"x": 0.3603987625,
				"y": 0.1180257176,
				"z": -3.4404206567,
				"element": "H" 
			},
			{
				"x": 0.8342386594,
				"y": -0.7492787446,
				"z": -2.0112780903,
				"element": "H" 
			},
			{
				"x": 0.8303751077,
				"y": -0.0718212055,
				"z": 3.083920616,
				"element": "H" 
			},
			{
				"x": 1.6724983513,
				"y": -0.7826769618,
				"z": 1.7029168323,
				"element": "H" 
			},
			{
				"x": 0.6315876993,
				"y": -1.7982196753,
				"z": 2.7291342951,
				"element": "H" 
			}
		],
		 "valence_orbital": [ 
			{
				"type": "occ",
				"energy": -0.35192,
				"method": "rhf"
			},
			{
				"type": "occ",
				"energy": -0.2492,
				"method": "rhf"
			},
			{
				"type": "occ",
				"energy": -0.24696,
				"method": "rhf"
			},
			{
				"type": "occ",
				"energy": -0.23532,
				"method": "rhf"
			},
			{
				"type": "occ",
				"energy": -0.21474,
				"method": "rhf"
			},
			{
				"type": "unocc",
				"energy": -0.04062,
				"method": "rhf"
			},
			{
				"type": "unocc",
				"energy": 0.02281,
				"method": "rhf"
			},
			{
				"type": "unocc",
				"energy": 0.05046,
				"method": "rhf"
			},
			{
				"type": "unocc",
				"energy": 0.07579,
				"method": "rhf"
			},
			{
				"type": "unocc",
				"energy": 0.08747,
				"method": "rhf"
			}
		],
		"cosmo_sigma_profile": { 
			"-0.025": 0.0,
			"-0.024": 0.0,
			"-0.023": 0.0,
			"-0.022": 0.0,
			"-0.021": 0.0,
			"-0.02": 0.0,
			"-0.019": 0.0,
			"-0.018": 0.0,
			"-0.017": 0.0,
			"-0.016": 0.261354837675,
			"-0.015": 1.99125514224,
			"-0.014": 2.65529513699,
			"-0.013": 2.45803765624,
			"-0.012": 2.83867057106,
			"-0.011": 2.01109201056,
			"-0.01": 2.53053397408,
			"-0.009": 1.80954880085,
			"-0.008": 2.98953915383,
			"-0.007": 6.43688622956,
			"-0.006": 11.456352836,
			"-0.005": 14.9609367234,
			"-0.004": 15.3771868258,
			"-0.003": 17.9191073762,
			"-0.002": 17.5933686818,
			"-0.001": 17.9599283406,
			"0.0": 11.0215036258,
			"0.001": 7.1792532767,
			"0.002": 5.31748274431,
			"0.003": 4.62209534515,
			"0.004": 4.85869316738,
			"0.005": 5.85994731437,
			"0.006": 4.3432627197,
			"0.007": 5.32930519785,
			"0.008": 7.07558342179,
			"0.009": 7.28166818267,
			"0.01": 5.10249743238,
			"0.011": 5.82039453873,
			"0.012": 4.55124251824,
			"0.013": 3.35524021472,
			"0.014": 5.16943736231,
			"0.015": 1.83019485418,
			"0.016": 0.061539879732,
			"0.017": 0.0,
			"0.018": 0.0,
			"0.019": 0.0,
			"0.02": 0.0,
			"0.021": 0.0,
			"0.022": 0.0,
			"0.023": 0.0,
			"0.024": 0.0,
			"0.025": 0.0
		}
	}
}
