{
	 "smiles": "ClCC1CCN(CC1)C1=NC=NC2=C1SC=C2", 
	 "Tm": 372.95, 
	 "num_atms": 31, 
	 "gaussian": { 
		 "optdone": 1, 
		 "sigma_profile": "yes", 
		 "theory": "DFT", 
		 "functional": "B3LYP", 
		 "basiset": "6-31G**", 
		 "properties": { 
			 "R2extent": 5855.2626, 
			 "electric_dipole_moment_norm": 4.31862988227, 
			 "electric_quadrupole_moment_norm": 14.9460848388, 
			 "total_energy": -1488.35444257, 
			 "HOMO_LUMO_gap": 0.17372, 
			 "cosmo_polarized_energy": -11.78, 
			 "cosmo_cavitation_energy": 34.74, 
			 "cosmo_dispersion_energy": -26.37, 
			 "cosmo_repulsion_energy": 1.96, 
			 "cosmo_total_nonelectrostatic_energy": 10.33, 
			 "SMD_solvation_energy": 2.04 
		},
		"coords": [
			{
				"x": 2.9201310643,
				"y": -1.7378107286,
				"z": 3.14531,
				"element": "Cl" 
			},
			{
				"x": 1.2331074829,
				"y": -2.4020192131,
				"z": 3.3837722242,
				"element": "C" 
			},
			{
				"x": 0.1719144533,
				"y": -1.9821832063,
				"z": 2.3626347805,
				"element": "C" 
			},
			{
				"x": -0.1777994161,
				"y": -0.4756383268,
				"z": 2.3621278058,
				"element": "C" 
			},
			{
				"x": 0.6946872548,
				"y": 0.3613910297,
				"z": 1.4148414737,
				"element": "C" 
			},
			{
				"x": 0.6891255892,
				"y": -0.2079263099,
				"z": 0.0677689768,
				"element": "N" 
			},
			{
				"x": 1.2465540152,
				"y": -1.565143036,
				"z": 0.0347991631,
				"element": "C" 
			},
			{
				"x": 0.4047068738,
				"y": -2.4954780017,
				"z": 0.921955885,
				"element": "C" 
			},
			{
				"x": 0.520715379,
				"y": 0.506425677,
				"z": -1.0916086005,
				"element": "C" 
			},
			{
				"x": 0.9899201187,
				"y": -0.0523442352,
				"z": -2.2226186605,
				"element": "N" 
			},
			{
				"x": 0.8382057195,
				"y": 0.5927794695,
				"z": -3.3860953077,
				"element": "C" 
			},
			{
				"x": 0.2679250395,
				"y": 1.7688215439,
				"z": -3.6035415164,
				"element": "N" 
			},
			{
				"x": -0.2400598011,
				"y": 2.3416370092,
				"z": -2.4875292445,
				"element": "C" 
			},
			{
				"x": -0.1462282033,
				"y": 1.7620081212,
				"z": -1.2026756554,
				"element": "C" 
			},
			{
				"x": -1.0035589885,
				"y": 2.7491577525,
				"z": -0.0242329762,
				"element": "S" 
			},
			{
				"x": -1.4316817146,
				"y": 3.9127198478,
				"z": -1.2531995795,
				"element": "C" 
			},
			{
				"x": -0.9687216528,
				"y": 3.5829495257,
				"z": -2.484622247,
				"element": "C" 
			},
			{
				"x": 1.3549035845,
				"y": -3.4868186468,
				"z": 3.3803968302,
				"element": "H" 
			},
			{
				"x": 0.944382644,
				"y": -2.0825422737,
				"z": 4.3869674604,
				"element": "H" 
			},
			{
				"x": -0.7142917697,
				"y": -2.5110411852,
				"z": 2.7466603961,
				"element": "H" 
			},
			{
				"x": -0.1059178304,
				"y": -0.0666782053,
				"z": 3.3771041476,
				"element": "H" 
			},
			{
				"x": -1.2212480106,
				"y": -0.3635068977,
				"z": 2.0447944043,
				"element": "H" 
			},
			{
				"x": 0.3403852483,
				"y": 1.3901373823,
				"z": 1.3995666878,
				"element": "H" 
			},
			{
				"x": 1.7298510165,
				"y": 0.3910617978,
				"z": 1.7783879304,
				"element": "H" 
			},
			{
				"x": 1.2402349449,
				"y": -1.9106553107,
				"z": -0.9969510064,
				"element": "H" 
			},
			{
				"x": 2.2899971235,
				"y": -1.5401830534,
				"z": 0.3725178254,
				"element": "H" 
			},
			{
				"x": -0.5741900375,
				"y": -2.6153120078,
				"z": 0.4425954899,
				"element": "H" 
			},
			{
				"x": 0.8700846144,
				"y": -3.4883007246,
				"z": 0.9446166685,
				"element": "H" 
			},
			{
				"x": 1.2443607431,
				"y": 0.0807648153,
				"z": -4.2574811078,
				"element": "H" 
			},
			{
				"x": -2.0097445233,
				"y": 4.7817955326,
				"z": -0.9687746576,
				"element": "H" 
			},
			{
				"x": -1.1273509614,
				"y": 4.1649318585,
				"z": -3.3837875901,
				"element": "H" 
			}
		],
		 "valence_orbital": [ 
			{
				"type": "occ",
				"energy": -0.28144,
				"method": "rhf"
			},
			{
				"type": "occ",
				"energy": -0.2621,
				"method": "rhf"
			},
			{
				"type": "occ",
				"energy": -0.24689,
				"method": "rhf"
			},
			{
				"type": "occ",
				"energy": -0.24351,
				"method": "rhf"
			},
			{
				"type": "occ",
				"energy": -0.20989,
				"method": "rhf"
			},
			{
				"type": "unocc",
				"energy": -0.03617,
				"method": "rhf"
			},
			{
				"type": "unocc",
				"energy": -0.00398,
				"method": "rhf"
			},
			{
				"type": "unocc",
				"energy": 0.01829,
				"method": "rhf"
			},
			{
				"type": "unocc",
				"energy": 0.02084,
				"method": "rhf"
			},
			{
				"type": "unocc",
				"energy": 0.04616,
				"method": "rhf"
			}
		],
		"cosmo_sigma_profile": { 
			"-0.025": 0.0,
			"-0.024": 0.0,
			"-0.023": 0.0,
			"-0.022": 0.0,
			"-0.021": 0.0,
			"-0.02": 0.0,
			"-0.019": 0.0,
			"-0.018": 0.0,
			"-0.017": 0.0,
			"-0.016": 0.0,
			"-0.015": 0.0,
			"-0.014": 0.0,
			"-0.013": 0.0,
			"-0.012": 0.0,
			"-0.011": 0.0,
			"-0.01": 0.375040571421,
			"-0.009": 2.35040496542,
			"-0.008": 2.17745102237,
			"-0.007": 5.59311218827,
			"-0.006": 11.6100697719,
			"-0.005": 16.670110227,
			"-0.004": 21.7962393994,
			"-0.003": 30.4724962597,
			"-0.002": 28.6520633945,
			"-0.001": 19.7335807536,
			"0.0": 21.8606157875,
			"0.001": 23.19881461,
			"0.002": 23.4770786357,
			"0.003": 18.6959906707,
			"0.004": 13.8798950047,
			"0.005": 8.14156841478,
			"0.006": 7.97915692618,
			"0.007": 7.77831919595,
			"0.008": 3.33497582704,
			"0.009": 2.64827987311,
			"0.01": 2.30356171726,
			"0.011": 0.639719676901,
			"0.012": 1.90373994233,
			"0.013": 1.44557404153,
			"0.014": 0.646014527712,
			"0.015": 1.11706100195,
			"0.016": 0.675092185831,
			"0.017": 0.37299699337,
			"0.018": 0.0,
			"0.019": 0.0,
			"0.02": 0.0,
			"0.021": 0.0,
			"0.022": 0.0,
			"0.023": 0.0,
			"0.024": 0.0,
			"0.025": 0.0
		}
	}
}
