{
	 "smiles": "CC(=O)OC1=C(C=CC=C1)C(=O)OC1=C(C=CC=C1)C(O)=O", 
	 "Tm": 432.15, 
	 "num_atms": 34, 
	 "gaussian": { 
		 "optdone": 1, 
		 "sigma_profile": "yes", 
		 "theory": "DFT", 
		 "functional": "B3LYP", 
		 "basiset": "6-31G**", 
		 "properties": { 
			 "R2extent": 7055.1687, 
			 "electric_dipole_moment_norm": 1.72362108365, 
			 "electric_quadrupole_moment_norm": 20.2215083293, 
			 "total_energy": -1068.30843928, 
			 "HOMO_LUMO_gap": 0.19727, 
			 "cosmo_polarized_energy": -17.55, 
			 "cosmo_cavitation_energy": 40.31, 
			 "cosmo_dispersion_energy": -27.45, 
			 "cosmo_repulsion_energy": 2.12, 
			 "cosmo_total_nonelectrostatic_energy": 14.98, 
			 "SMD_solvation_energy": 9.78 
		},
		"coords": [
			{
				"x": -0.2596552584,
				"y": -4.8172451932,
				"z": -1.3952516909,
				"element": "C" 
			},
			{
				"x": -0.1277308726,
				"y": -4.0090079618,
				"z": -0.13528782,
				"element": "C" 
			},
			{
				"x": -0.989265107,
				"y": -3.7813881083,
				"z": 0.6739187429,
				"element": "O" 
			},
			{
				"x": 1.1642706824,
				"y": -3.5355757866,
				"z": -0.0187437014,
				"element": "O" 
			},
			{
				"x": 1.4475192691,
				"y": -2.5968256242,
				"z": 0.9578834184,
				"element": "C" 
			},
			{
				"x": 0.9204117539,
				"y": -1.2904831252,
				"z": 0.9289903251,
				"element": "C" 
			},
			{
				"x": 1.3213089359,
				"y": -0.3911130065,
				"z": 1.9307666814,
				"element": "C" 
			},
			{
				"x": 2.2209859206,
				"y": -0.7705236283,
				"z": 2.9222518751,
				"element": "C" 
			},
			{
				"x": 2.7360125345,
				"y": -2.068188794,
				"z": 2.9304953275,
				"element": "C" 
			},
			{
				"x": 2.3449004731,
				"y": -2.9796393658,
				"z": 1.9516974424,
				"element": "C" 
			},
			{
				"x": 0.0033268552,
				"y": -0.8503443381,
				"z": -0.1556011134,
				"element": "C" 
			},
			{
				"x": -0.2031653011,
				"y": -1.4175256679,
				"z": -1.2034109405,
				"element": "O" 
			},
			{
				"x": -0.6194966739,
				"y": 0.3287800248,
				"z": 0.1796471377,
				"element": "O" 
			},
			{
				"x": -1.4535910653,
				"y": 0.9171549231,
				"z": -0.7636155395,
				"element": "C" 
			},
			{
				"x": -0.9611042095,
				"y": 1.7034584234,
				"z": -1.8205894032,
				"element": "C" 
			},
			{
				"x": -1.8917983588,
				"y": 2.3119462001,
				"z": -2.6791665338,
				"element": "C" 
			},
			{
				"x": -3.260190611,
				"y": 2.1543386831,
				"z": -2.4933491451,
				"element": "C" 
			},
			{
				"x": -3.7276115037,
				"y": 1.3730564484,
				"z": -1.43395918,
				"element": "C" 
			},
			{
				"x": -2.8238224713,
				"y": 0.7543926063,
				"z": -0.5729262511,
				"element": "C" 
			},
			{
				"x": 0.4745602962,
				"y": 1.9645489817,
				"z": -2.1278630667,
				"element": "C" 
			},
			{
				"x": 1.3518554169,
				"y": 1.4505120998,
				"z": -1.2340819169,
				"element": "O" 
			},
			{
				"x": 0.8512789819,
				"y": 2.5994843049,
				"z": -3.0937284332,
				"element": "O" 
			},
			{
				"x": -0.2848203825,
				"y": -4.1190120885,
				"z": -2.2378318018,
				"element": "H" 
			},
			{
				"x": -1.1860511289,
				"y": -5.3901982296,
				"z": -1.3665428213,
				"element": "H" 
			},
			{
				"x": 0.5999207786,
				"y": -5.4778263559,
				"z": -1.530269841,
				"element": "H" 
			},
			{
				"x": 0.9232034855,
				"y": 0.6156872948,
				"z": 1.9084720717,
				"element": "H" 
			},
			{
				"x": 2.5209762843,
				"y": -0.0564506505,
				"z": 3.682601767,
				"element": "H" 
			},
			{
				"x": 3.4386378114,
				"y": -2.3746016694,
				"z": 3.699761458,
				"element": "H" 
			},
			{
				"x": 2.7258103317,
				"y": -3.9951265946,
				"z": 1.9387697589,
				"element": "H" 
			},
			{
				"x": -1.5006144749,
				"y": 2.9119595774,
				"z": -3.4932185105,
				"element": "H" 
			},
			{
				"x": -3.9588053949,
				"y": 2.6374026414,
				"z": -3.1690421165,
				"element": "H" 
			},
			{
				"x": -4.7940744879,
				"y": 1.2410692442,
				"z": -1.2775998534,
				"element": "H" 
			},
			{
				"x": -3.160293782,
				"y": 0.1391192519,
				"z": 0.254499685,
				"element": "H" 
			},
			{
				"x": 2.2312112723,
				"y": 1.6863654832,
				"z": -1.5745760109,
				"element": "H" 
			}
		],
		 "valence_orbital": [ 
			{
				"type": "occ",
				"energy": -0.27627,
				"method": "rhf"
			},
			{
				"type": "occ",
				"energy": -0.26718,
				"method": "rhf"
			},
			{
				"type": "occ",
				"energy": -0.26671,
				"method": "rhf"
			},
			{
				"type": "occ",
				"energy": -0.25789,
				"method": "rhf"
			},
			{
				"type": "occ",
				"energy": -0.25343,
				"method": "rhf"
			},
			{
				"type": "unocc",
				"energy": -0.05616,
				"method": "rhf"
			},
			{
				"type": "unocc",
				"energy": -0.05063,
				"method": "rhf"
			},
			{
				"type": "unocc",
				"energy": -0.01467,
				"method": "rhf"
			},
			{
				"type": "unocc",
				"energy": -0.01226,
				"method": "rhf"
			},
			{
				"type": "unocc",
				"energy": 0.01489,
				"method": "rhf"
			}
		],
		"cosmo_sigma_profile": { 
			"-0.025": 0.0,
			"-0.024": 0.0,
			"-0.023": 0.0,
			"-0.022": 0.0,
			"-0.021": 0.0,
			"-0.02": 0.0,
			"-0.019": 0.0631651998915,
			"-0.018": 1.00124171366,
			"-0.017": 0.610808713393,
			"-0.016": 0.949733535133,
			"-0.015": 0.739869267917,
			"-0.014": 0.923339810682,
			"-0.013": 0.548531593189,
			"-0.012": 0.560321009709,
			"-0.011": 0.911028775817,
			"-0.01": 0.846436429507,
			"-0.009": 0.400713413983,
			"-0.008": 1.82184339753,
			"-0.007": 14.3006908078,
			"-0.006": 21.8599166762,
			"-0.005": 24.2793096146,
			"-0.004": 19.5557288565,
			"-0.003": 20.3997016532,
			"-0.002": 21.2633581221,
			"-0.001": 19.1751228896,
			"0.0": 20.5953081981,
			"0.001": 26.7988003689,
			"0.002": 31.0929410756,
			"0.003": 27.5867152659,
			"0.004": 11.9814842654,
			"0.005": 8.24518508601,
			"0.006": 8.57527614958,
			"0.007": 6.14106163431,
			"0.008": 5.97897945444,
			"0.009": 5.3030606072,
			"0.01": 7.41946135192,
			"0.011": 9.37193903133,
			"0.012": 3.95591753024,
			"0.013": 0.0351393626348,
			"0.014": 0.0,
			"0.015": 0.0,
			"0.016": 0.0,
			"0.017": 0.0,
			"0.018": 0.0,
			"0.019": 0.0,
			"0.02": 0.0,
			"0.021": 0.0,
			"0.022": 0.0,
			"0.023": 0.0,
			"0.024": 0.0,
			"0.025": 0.0
		}
	}
}
