{
	 "smiles": "CC1=CC(C(=O)CCl)=C(C)N1C1=NC=CC=C1", 
	 "Tm": 350.15, 
	 "num_atms": 30, 
	 "gaussian": { 
		 "optdone": 1, 
		 "sigma_profile": "yes", 
		 "theory": "DFT", 
		 "functional": "B3LYP", 
		 "basiset": "6-31G**", 
		 "properties": { 
			 "R2extent": 5985.5751, 
			 "electric_dipole_moment_norm": 8.99153744251, 
			 "electric_quadrupole_moment_norm": 9.23741478716, 
			 "total_energy": -1148.13283177, 
			 "HOMO_LUMO_gap": 0.16215, 
			 "cosmo_polarized_energy": -17.82, 
			 "cosmo_cavitation_energy": 35.43, 
			 "cosmo_dispersion_energy": -25.06, 
			 "cosmo_repulsion_energy": 1.94, 
			 "cosmo_total_nonelectrostatic_energy": 12.31, 
			 "SMD_solvation_energy": 5.23 
		},
		"coords": [
			{
				"x": -0.9823671292,
				"y": -2.2128309952,
				"z": -2.2338631829,
				"element": "C" 
			},
			{
				"x": -0.1999979566,
				"y": -1.2599913464,
				"z": -1.3862061997,
				"element": "C" 
			},
			{
				"x": 0.9775049336,
				"y": -0.6257372759,
				"z": -1.655099483,
				"element": "C" 
			},
			{
				"x": 1.3714922122,
				"y": 0.1232169089,
				"z": -0.4968899649,
				"element": "C" 
			},
			{
				"x": 2.62755257,
				"y": 0.8955868192,
				"z": -0.5032351306,
				"element": "C" 
			},
			{
				"x": 3.3210927436,
				"y": 0.9526715993,
				"z": -1.5050259732,
				"element": "O" 
			},
			{
				"x": 3.0465441685,
				"y": 1.6168197131,
				"z": 0.7874099857,
				"element": "C" 
			},
			{
				"x": 4.6765118094,
				"y": 2.3587166798,
				"z": 0.6852244223,
				"element": "Cl" 
			},
			{
				"x": 0.3986567845,
				"y": -0.0813210879,
				"z": 0.4822269641,
				"element": "C" 
			},
			{
				"x": 0.2370694466,
				"y": 0.4481965882,
				"z": 1.8747974549,
				"element": "C" 
			},
			{
				"x": -0.5578399334,
				"y": -0.9196214868,
				"z": -0.0698932741,
				"element": "N" 
			},
			{
				"x": -1.6983874824,
				"y": -1.422491353,
				"z": 0.6195919879,
				"element": "C" 
			},
			{
				"x": -1.4693852628,
				"y": -2.0463999065,
				"z": 1.7782329886,
				"element": "N" 
			},
			{
				"x": -2.5255522078,
				"y": -2.5331086678,
				"z": 2.4403726374,
				"element": "C" 
			},
			{
				"x": -3.8380401168,
				"y": -2.4406022513,
				"z": 1.9768779823,
				"element": "C" 
			},
			{
				"x": -4.0635879603,
				"y": -1.7783831048,
				"z": 0.770184966,
				"element": "C" 
			},
			{
				"x": -2.9779946711,
				"y": -1.2458981452,
				"z": 0.0791019239,
				"element": "C" 
			},
			{
				"x": -1.206295203,
				"y": -3.1472034687,
				"z": -1.7066205891,
				"element": "H" 
			},
			{
				"x": -0.3890245559,
				"y": -2.461928526,
				"z": -3.116622293,
				"element": "H" 
			},
			{
				"x": -1.9354247008,
				"y": -1.801136344,
				"z": -2.5863190653,
				"element": "H" 
			},
			{
				"x": 1.5457965499,
				"y": -0.6801412767,
				"z": -2.5715151504,
				"element": "H" 
			},
			{
				"x": 3.0529888856,
				"y": 0.9240553057,
				"z": 1.6310315692,
				"element": "H" 
			},
			{
				"x": 2.3415580941,
				"y": 2.422623604,
				"z": 1.0076666824,
				"element": "H" 
			},
			{
				"x": 0.7752310538,
				"y": 1.3863658876,
				"z": 2.0057979403,
				"element": "H" 
			},
			{
				"x": 0.5947832262,
				"y": -0.264655623,
				"z": 2.6257552284,
				"element": "H" 
			},
			{
				"x": -0.8151767676,
				"y": 0.6420142308,
				"z": 2.100988321,
				"element": "H" 
			},
			{
				"x": -2.3065348648,
				"y": -3.0281026602,
				"z": 3.3843477226,
				"element": "H" 
			},
			{
				"x": -4.6549402577,
				"y": -2.8666426419,
				"z": 2.5497279331,
				"element": "H" 
			},
			{
				"x": -5.0698248544,
				"y": -1.6634276729,
				"z": 0.3784841315,
				"element": "H" 
			},
			{
				"x": -3.1107085535,
				"y": -0.6929435024,
				"z": -0.8433305354,
				"element": "H" 
			}
		],
		 "valence_orbital": [ 
			{
				"type": "occ",
				"energy": -0.28528,
				"method": "rhf"
			},
			{
				"type": "occ",
				"energy": -0.2838,
				"method": "rhf"
			},
			{
				"type": "occ",
				"energy": -0.24346,
				"method": "rhf"
			},
			{
				"type": "occ",
				"energy": -0.24312,
				"method": "rhf"
			},
			{
				"type": "occ",
				"energy": -0.21312,
				"method": "rhf"
			},
			{
				"type": "unocc",
				"energy": -0.05097,
				"method": "rhf"
			},
			{
				"type": "unocc",
				"energy": -0.04252,
				"method": "rhf"
			},
			{
				"type": "unocc",
				"energy": -0.02092,
				"method": "rhf"
			},
			{
				"type": "unocc",
				"energy": 0.03698,
				"method": "rhf"
			},
			{
				"type": "unocc",
				"energy": 0.0372,
				"method": "rhf"
			}
		],
		"cosmo_sigma_profile": { 
			"-0.025": 0.0,
			"-0.024": 0.0,
			"-0.023": 0.0,
			"-0.022": 0.0,
			"-0.021": 0.0,
			"-0.02": 0.0,
			"-0.019": 0.0,
			"-0.018": 0.0,
			"-0.017": 0.0,
			"-0.016": 0.0,
			"-0.015": 0.0,
			"-0.014": 0.0,
			"-0.013": 0.0,
			"-0.012": 0.0,
			"-0.011": 0.0,
			"-0.01": 0.68806443175,
			"-0.009": 3.16830124289,
			"-0.008": 6.36863451514,
			"-0.007": 14.3327588454,
			"-0.006": 16.2693923315,
			"-0.005": 19.6411492859,
			"-0.004": 21.1351578197,
			"-0.003": 20.773067913,
			"-0.002": 19.0549741788,
			"-0.001": 25.0994511177,
			"0.0": 22.0402282689,
			"0.001": 16.8457491712,
			"0.002": 18.4771140951,
			"0.003": 12.275479993,
			"0.004": 10.5292816748,
			"0.005": 13.2019577089,
			"0.006": 14.2516253008,
			"0.007": 6.72018112568,
			"0.008": 4.17365832198,
			"0.009": 2.92569260349,
			"0.01": 2.4378471905,
			"0.011": 3.82854944571,
			"0.012": 5.01153649055,
			"0.013": 3.56807787818,
			"0.014": 1.82569467556,
			"0.015": 0.0875078088287,
			"0.016": 0.0,
			"0.017": 0.0,
			"0.018": 0.0,
			"0.019": 0.0,
			"0.02": 0.0,
			"0.021": 0.0,
			"0.022": 0.0,
			"0.023": 0.0,
			"0.024": 0.0,
			"0.025": 0.0
		}
	}
}
