{
	 "smiles": "OC(=O)C1=CC=C(OC2=NC=C(Cl)C=C2)C=C1", 
	 "Tm": 489.15, 
	 "num_atms": 25, 
	 "gaussian": { 
		 "optdone": 1, 
		 "sigma_profile": "yes", 
		 "theory": "DFT", 
		 "functional": "B3LYP", 
		 "basiset": "6-31G**", 
		 "properties": { 
			 "R2extent": 8841.2462, 
			 "electric_dipole_moment_norm": 3.26011553323, 
			 "electric_quadrupole_moment_norm": 26.5879982404, 
			 "total_energy": -1202.70801143, 
			 "HOMO_LUMO_gap": 0.18881, 
			 "cosmo_polarized_energy": -18.85, 
			 "cosmo_cavitation_energy": 32.83, 
			 "cosmo_dispersion_energy": -24.02, 
			 "cosmo_repulsion_energy": 1.85, 
			 "cosmo_total_nonelectrostatic_energy": 10.66, 
			 "SMD_solvation_energy": 5.19 
		},
		"coords": [
			{
				"x": -0.6992586748,
				"y": 3.4518948047,
				"z": 1.0586051318,
				"element": "O" 
			},
			{
				"x": -0.2340398937,
				"y": 2.9315743202,
				"z": -0.1099031025,
				"element": "C" 
			},
			{
				"x": 0.1676898538,
				"y": 3.6681499798,
				"z": -0.9799064291,
				"element": "O" 
			},
			{
				"x": -0.2507417714,
				"y": 1.4399879497,
				"z": -0.2400821773,
				"element": "C" 
			},
			{
				"x": -0.1841675846,
				"y": 0.8970661134,
				"z": -1.5318146209,
				"element": "C" 
			},
			{
				"x": -0.182067852,
				"y": -0.4785818955,
				"z": -1.7237637081,
				"element": "C" 
			},
			{
				"x": -0.2306491386,
				"y": -1.3304576861,
				"z": -0.6155683922,
				"element": "C" 
			},
			{
				"x": -0.300364304,
				"y": -2.6804765811,
				"z": -0.8737322076,
				"element": "O" 
			},
			{
				"x": 0.3993692241,
				"y": -3.5902078129,
				"z": -0.1172567123,
				"element": "C" 
			},
			{
				"x": -0.2076555581,
				"y": -4.7626037664,
				"z": 0.0056426623,
				"element": "N" 
			},
			{
				"x": 0.4295192788,
				"y": -5.7356147695,
				"z": 0.6636688717,
				"element": "C" 
			},
			{
				"x": 1.6930129311,
				"y": -5.5583086659,
				"z": 1.2261706077,
				"element": "C" 
			},
			{
				"x": 2.4656271007,
				"y": -6.8716529977,
				"z": 2.0869428857,
				"element": "Cl" 
			},
			{
				"x": 2.3296028984,
				"y": -4.3238394024,
				"z": 1.08830313,
				"element": "C" 
			},
			{
				"x": 1.6740985622,
				"y": -3.3120984365,
				"z": 0.3965617223,
				"element": "C" 
			},
			{
				"x": -0.2859574636,
				"y": -0.8101772519,
				"z": 0.6816664645,
				"element": "C" 
			},
			{
				"x": -0.2922221708,
				"y": 0.5711240522,
				"z": 0.8598637772,
				"element": "C" 
			},
			{
				"x": -1.1492422063,
				"y": 2.7687866608,
				"z": 1.5742808937,
				"element": "H" 
			},
			{
				"x": -0.1307281495,
				"y": 1.5768041001,
				"z": -2.3751863356,
				"element": "H" 
			},
			{
				"x": -0.1432290161,
				"y": -0.912642641,
				"z": -2.7169942559,
				"element": "H" 
			},
			{
				"x": -0.0833252275,
				"y": -6.6901066847,
				"z": 0.7502351751,
				"element": "H" 
			},
			{
				"x": 3.3189888215,
				"y": -4.1639855363,
				"z": 1.5030041312,
				"element": "H" 
			},
			{
				"x": 2.1376117783,
				"y": -2.3433581217,
				"z": 0.2519040105,
				"element": "H" 
			},
			{
				"x": -0.3258850268,
				"y": -1.476576888,
				"z": 1.5361813113,
				"element": "H" 
			},
			{
				"x": -0.299886411,
				"y": 0.9588011566,
				"z": 1.8756771666,
				"element": "H" 
			}
		],
		 "valence_orbital": [ 
			{
				"type": "occ",
				"energy": -0.2878,
				"method": "rhf"
			},
			{
				"type": "occ",
				"energy": -0.2838,
				"method": "rhf"
			},
			{
				"type": "occ",
				"energy": -0.27899,
				"method": "rhf"
			},
			{
				"type": "occ",
				"energy": -0.27167,
				"method": "rhf"
			},
			{
				"type": "occ",
				"energy": -0.24613,
				"method": "rhf"
			},
			{
				"type": "unocc",
				"energy": -0.05732,
				"method": "rhf"
			},
			{
				"type": "unocc",
				"energy": -0.0504,
				"method": "rhf"
			},
			{
				"type": "unocc",
				"energy": -0.03236,
				"method": "rhf"
			},
			{
				"type": "unocc",
				"energy": -0.02767,
				"method": "rhf"
			},
			{
				"type": "unocc",
				"energy": 0.01629,
				"method": "rhf"
			}
		],
		"cosmo_sigma_profile": { 
			"-0.025": 0.0,
			"-0.024": 0.0,
			"-0.023": 0.0,
			"-0.022": 0.0,
			"-0.021": 0.0,
			"-0.02": 0.0,
			"-0.019": 0.14966656056,
			"-0.018": 1.06263185952,
			"-0.017": 1.39551611158,
			"-0.016": 0.704689390399,
			"-0.015": 0.93391454998,
			"-0.014": 0.544017934917,
			"-0.013": 1.26438734159,
			"-0.012": 1.55539715186,
			"-0.011": 1.32235745483,
			"-0.01": 0.648209912101,
			"-0.009": 2.9432760369,
			"-0.008": 8.80141394376,
			"-0.007": 13.3562231213,
			"-0.006": 11.7454352604,
			"-0.005": 12.9639120729,
			"-0.004": 10.9795945972,
			"-0.003": 13.8125088969,
			"-0.002": 16.554293446,
			"-0.001": 21.9568284068,
			"0.0": 25.9696618473,
			"0.001": 21.6981563199,
			"0.002": 21.870333638,
			"0.003": 13.8405726957,
			"0.004": 13.8527640338,
			"0.005": 5.07295976784,
			"0.006": 5.47505076908,
			"0.007": 3.33757861879,
			"0.008": 4.37098446588,
			"0.009": 5.50786314011,
			"0.01": 5.85800188662,
			"0.011": 7.43594639963,
			"0.012": 5.78214053641,
			"0.013": 2.77630124478,
			"0.014": 1.12734846475,
			"0.015": 0.362590579053,
			"0.016": 0.0,
			"0.017": 0.0,
			"0.018": 0.0,
			"0.019": 0.0,
			"0.02": 0.0,
			"0.021": 0.0,
			"0.022": 0.0,
			"0.023": 0.0,
			"0.024": 0.0,
			"0.025": 0.0
		}
	}
}
