{
	 "smiles": "COC(=O)CCCCCNC(N)=S", 
	 "Tm": 358.15, 
	 "num_atms": 29, 
	 "gaussian": { 
		 "optdone": 1, 
		 "sigma_profile": "yes", 
		 "theory": "DFT", 
		 "functional": "B3LYP", 
		 "basiset": "6-31G**", 
		 "properties": { 
			 "R2extent": 4084.0216, 
			 "electric_dipole_moment_norm": 8.20005413458, 
			 "electric_quadrupole_moment_norm": 25.4175441127, 
			 "total_energy": -972.676834602, 
			 "HOMO_LUMO_gap": 0.16883, 
			 "cosmo_polarized_energy": -18.82, 
			 "cosmo_cavitation_energy": 32.42, 
			 "cosmo_dispersion_energy": -23.23, 
			 "cosmo_repulsion_energy": 1.83, 
			 "cosmo_total_nonelectrostatic_energy": 11.02, 
			 "SMD_solvation_energy": 4.84 
		},
		"coords": [
			{
				"x": -1.1670996798,
				"y": 4.616655977,
				"z": 0.422437093,
				"element": "C" 
			},
			{
				"x": 0.0238945387,
				"y": 3.9710451428,
				"z": 0.9098045475,
				"element": "O" 
			},
			{
				"x": 0.0555228503,
				"y": 2.6330762661,
				"z": 0.8108203416,
				"element": "C" 
			},
			{
				"x": -0.8641918039,
				"y": 1.986146207,
				"z": 0.3348115979,
				"element": "O" 
			},
			{
				"x": 1.3421312549,
				"y": 2.0692822158,
				"z": 1.3861333227,
				"element": "C" 
			},
			{
				"x": 1.5395317578,
				"y": 0.5780805276,
				"z": 1.0954552485,
				"element": "C" 
			},
			{
				"x": 1.8566305533,
				"y": 0.2868908583,
				"z": -0.3831014488,
				"element": "C" 
			},
			{
				"x": 1.6309544603,
				"y": -1.1683941521,
				"z": -0.8265360678,
				"element": "C" 
			},
			{
				"x": 0.1848542056,
				"y": -1.6731627376,
				"z": -0.6333171821,
				"element": "C" 
			},
			{
				"x": -0.8229408741,
				"y": -0.7094948139,
				"z": -1.0501520782,
				"element": "N" 
			},
			{
				"x": -1.3582638328,
				"y": -0.6315471616,
				"z": -2.2935511682,
				"element": "C" 
			},
			{
				"x": -2.0955894103,
				"y": 0.4951815179,
				"z": -2.5099028123,
				"element": "N" 
			},
			{
				"x": -1.1654551048,
				"y": -1.7904746905,
				"z": -3.5077290568,
				"element": "S" 
			},
			{
				"x": -1.016768962,
				"y": 5.6804327546,
				"z": 0.6025322901,
				"element": "H" 
			},
			{
				"x": -1.296237474,
				"y": 4.4242377925,
				"z": -0.6453882311,
				"element": "H" 
			},
			{
				"x": -2.0468976444,
				"y": 4.2559746876,
				"z": 0.9603986198,
				"element": "H" 
			},
			{
				"x": 2.1735622031,
				"y": 2.6729051216,
				"z": 1.0037929367,
				"element": "H" 
			},
			{
				"x": 1.3105648018,
				"y": 2.2610775844,
				"z": 2.4666923593,
				"element": "H" 
			},
			{
				"x": 0.6337040235,
				"y": 0.0489329066,
				"z": 1.4096864638,
				"element": "H" 
			},
			{
				"x": 2.3478869118,
				"y": 0.1979435492,
				"z": 1.730797003,
				"element": "H" 
			},
			{
				"x": 2.8969819565,
				"y": 0.5691381547,
				"z": -0.5881524203,
				"element": "H" 
			},
			{
				"x": 1.2396176373,
				"y": 0.932632881,
				"z": -1.0182494291,
				"element": "H" 
			},
			{
				"x": 1.8857340501,
				"y": -1.2492898678,
				"z": -1.8887864475,
				"element": "H" 
			},
			{
				"x": 2.3053060644,
				"y": -1.8455119018,
				"z": -0.2851794669,
				"element": "H" 
			},
			{
				"x": 0.0291076675,
				"y": -2.585845744,
				"z": -1.2119647574,
				"element": "H" 
			},
			{
				"x": -0.0047531254,
				"y": -1.9085635387,
				"z": 0.4201555761,
				"element": "H" 
			},
			{
				"x": -0.9278565393,
				"y": 0.1070233077,
				"z": -0.4539594078,
				"element": "H" 
			},
			{
				"x": -2.6330901272,
				"y": 0.5378101537,
				"z": -3.3594286788,
				"element": "H" 
			},
			{
				"x": -2.2917403588,
				"y": 1.149217002,
				"z": -1.765018747,
				"element": "H" 
			}
		],
		 "valence_orbital": [ 
			{
				"type": "occ",
				"energy": -0.32425,
				"method": "rhf"
			},
			{
				"type": "occ",
				"energy": -0.30257,
				"method": "rhf"
			},
			{
				"type": "occ",
				"energy": -0.24633,
				"method": "rhf"
			},
			{
				"type": "occ",
				"energy": -0.19272,
				"method": "rhf"
			},
			{
				"type": "occ",
				"energy": -0.18453,
				"method": "rhf"
			},
			{
				"type": "unocc",
				"energy": -0.0157,
				"method": "rhf"
			},
			{
				"type": "unocc",
				"energy": 0.02494,
				"method": "rhf"
			},
			{
				"type": "unocc",
				"energy": 0.06939,
				"method": "rhf"
			},
			{
				"type": "unocc",
				"energy": 0.09107,
				"method": "rhf"
			},
			{
				"type": "unocc",
				"energy": 0.09642,
				"method": "rhf"
			}
		],
		"cosmo_sigma_profile": { 
			"-0.025": 0.0,
			"-0.024": 0.0,
			"-0.023": 0.0,
			"-0.022": 0.0,
			"-0.021": 0.0,
			"-0.02": 0.0,
			"-0.019": 0.0,
			"-0.018": 0.0,
			"-0.017": 0.0,
			"-0.016": 0.0,
			"-0.015": 0.0,
			"-0.014": 0.383111500082,
			"-0.013": 1.03320290699,
			"-0.012": 1.96844585209,
			"-0.011": 2.00449940569,
			"-0.01": 1.70908961874,
			"-0.009": 2.29723468591,
			"-0.008": 1.63509600078,
			"-0.007": 3.26333935826,
			"-0.006": 11.7210981387,
			"-0.005": 15.9785233861,
			"-0.004": 20.8717875636,
			"-0.003": 30.3017510395,
			"-0.002": 31.2147541503,
			"-0.001": 24.6679465173,
			"0.0": 19.4436901032,
			"0.001": 10.8592059377,
			"0.002": 8.53530284866,
			"0.003": 6.14085690127,
			"0.004": 7.27417750024,
			"0.005": 8.1029352965,
			"0.006": 7.30750385326,
			"0.007": 6.25839128581,
			"0.008": 5.70447782198,
			"0.009": 5.04702940241,
			"0.01": 5.04682863052,
			"0.011": 5.96120274239,
			"0.012": 6.94493147995,
			"0.013": 4.08947765708,
			"0.014": 0.214234399012,
			"0.015": 0.0,
			"0.016": 0.0,
			"0.017": 0.0,
			"0.018": 0.0,
			"0.019": 0.0,
			"0.02": 0.0,
			"0.021": 0.0,
			"0.022": 0.0,
			"0.023": 0.0,
			"0.024": 0.0,
			"0.025": 0.0
		}
	}
}
