{
	 "smiles": "CC(S)C(=O)NCC(O)=O", 
	 "Tm": 369.15, 
	 "num_atms": 19, 
	 "gaussian": { 
		 "optdone": 1, 
		 "sigma_profile": "yes", 
		 "theory": "DFT", 
		 "functional": "B3LYP", 
		 "basiset": "6-31G**", 
		 "properties": { 
			 "R2extent": 2563.6722, 
			 "electric_dipole_moment_norm": 5.03583306018, 
			 "electric_quadrupole_moment_norm": 10.2031740811, 
			 "total_energy": -874.589037108, 
			 "HOMO_LUMO_gap": 0.23655, 
			 "cosmo_polarized_energy": -18.03, 
			 "cosmo_cavitation_energy": 24.8, 
			 "cosmo_dispersion_energy": -18.36, 
			 "cosmo_repulsion_energy": 1.49, 
			 "cosmo_total_nonelectrostatic_energy": 7.92, 
			 "SMD_solvation_energy": 5.18 
		},
		"coords": [
			{
				"x": 0.1266952251,
				"y": -1.0267795351,
				"z": 2.1781333744,
				"element": "C" 
			},
			{
				"x": 0.2981708776,
				"y": 0.0849718117,
				"z": 1.148697388,
				"element": "C" 
			},
			{
				"x": 0.1368937996,
				"y": 1.7854514947,
				"z": 1.9035535946,
				"element": "S" 
			},
			{
				"x": -0.7716178851,
				"y": -0.0146499666,
				"z": 0.0456291728,
				"element": "C" 
			},
			{
				"x": -1.8227777738,
				"y": -0.6114572733,
				"z": 0.2301922639,
				"element": "O" 
			},
			{
				"x": -0.4895148586,
				"y": 0.5879199204,
				"z": -1.1485895501,
				"element": "N" 
			},
			{
				"x": 0.6913064559,
				"y": 1.3308964067,
				"z": -1.5220955497,
				"element": "C" 
			},
			{
				"x": 0.4700291813,
				"y": 1.9554908009,
				"z": -2.886125645,
				"element": "C" 
			},
			{
				"x": 1.5427878516,
				"y": 2.6742553105,
				"z": -3.2688772041,
				"element": "O" 
			},
			{
				"x": -0.5299979548,
				"y": 1.8268388732,
				"z": -3.5560318845,
				"element": "O" 
			},
			{
				"x": 0.8623303334,
				"y": -0.9283962118,
				"z": 2.9812994663,
				"element": "H" 
			},
			{
				"x": 0.2633349025,
				"y": -2.0029129809,
				"z": 1.7004210568,
				"element": "H" 
			},
			{
				"x": -0.8777384201,
				"y": -0.9961575155,
				"z": 2.6016636706,
				"element": "H" 
			},
			{
				"x": 1.2929791928,
				"y": 0.0389184241,
				"z": 0.6940342162,
				"element": "H" 
			},
			{
				"x": 1.258746219,
				"y": 1.7111362495,
				"z": 2.6481758155,
				"element": "H" 
			},
			{
				"x": -1.2213378101,
				"y": 0.5391837816,
				"z": -1.8490774185,
				"element": "H" 
			},
			{
				"x": 0.9202716361,
				"y": 2.1315549092,
				"z": -0.8071932342,
				"element": "H" 
			},
			{
				"x": 1.5898947766,
				"y": 0.7002870648,
				"z": -1.5936961452,
				"element": "H" 
			},
			{
				"x": 1.336344251,
				"y": 3.0413484359,
				"z": -4.1450133877,
				"element": "H" 
			}
		],
		 "valence_orbital": [ 
			{
				"type": "occ",
				"energy": -0.32916,
				"method": "rhf"
			},
			{
				"type": "occ",
				"energy": -0.30501,
				"method": "rhf"
			},
			{
				"type": "occ",
				"energy": -0.25841,
				"method": "rhf"
			},
			{
				"type": "occ",
				"energy": -0.25487,
				"method": "rhf"
			},
			{
				"type": "occ",
				"energy": -0.24985,
				"method": "rhf"
			},
			{
				"type": "unocc",
				"energy": -0.0133,
				"method": "rhf"
			},
			{
				"type": "unocc",
				"energy": -0.00168,
				"method": "rhf"
			},
			{
				"type": "unocc",
				"energy": 0.01503,
				"method": "rhf"
			},
			{
				"type": "unocc",
				"energy": 0.05852,
				"method": "rhf"
			},
			{
				"type": "unocc",
				"energy": 0.08626,
				"method": "rhf"
			}
		],
		"cosmo_sigma_profile": { 
			"-0.025": 0.0,
			"-0.024": 0.0,
			"-0.023": 0.0,
			"-0.022": 0.0,
			"-0.021": 0.0,
			"-0.02": 0.00650899975868,
			"-0.019": 0.615871842435,
			"-0.018": 0.843172380384,
			"-0.017": 1.05169986028,
			"-0.016": 0.910495032696,
			"-0.015": 0.882150892596,
			"-0.014": 0.736470920166,
			"-0.013": 0.417502124001,
			"-0.012": 0.761656850242,
			"-0.011": 0.781477256104,
			"-0.01": 2.11048771222,
			"-0.009": 5.26060308701,
			"-0.008": 9.45505489944,
			"-0.007": 8.41727734378,
			"-0.006": 9.20120254124,
			"-0.005": 9.78875439248,
			"-0.004": 12.1414404373,
			"-0.003": 12.3795184406,
			"-0.002": 10.7455847563,
			"-0.001": 11.8885113966,
			"0.0": 14.3615404669,
			"0.001": 10.1571610867,
			"0.002": 7.91396979397,
			"0.003": 7.39026619026,
			"0.004": 7.8194674824,
			"0.005": 7.48018461997,
			"0.006": 6.13722867467,
			"0.007": 6.04354601295,
			"0.008": 6.13749945942,
			"0.009": 4.66100410575,
			"0.01": 5.66638350063,
			"0.011": 4.22548797681,
			"0.012": 2.66627646828,
			"0.013": 4.8402942047,
			"0.014": 3.10856124173,
			"0.015": 0.0771207151691,
			"0.016": 0.0,
			"0.017": 0.0,
			"0.018": 0.0,
			"0.019": 0.0,
			"0.02": 0.0,
			"0.021": 0.0,
			"0.022": 0.0,
			"0.023": 0.0,
			"0.024": 0.0,
			"0.025": 0.0
		}
	}
}
