{
	 "smiles": "CCCN1C(=O)NC(=O)C2=C1N=CC(=C2)C(O)=O", 
	 "Tm": 509.15, 
	 "num_atms": 29, 
	 "gaussian": { 
		 "optdone": 1, 
		 "sigma_profile": "yes", 
		 "theory": "DFT", 
		 "functional": "B3LYP", 
		 "basiset": "6-31G**", 
		 "properties": { 
			 "R2extent": 5671.446, 
			 "electric_dipole_moment_norm": 4.91453623957, 
			 "electric_quadrupole_moment_norm": 21.9058830144, 
			 "total_energy": -891.01874679, 
			 "HOMO_LUMO_gap": 0.17748, 
			 "cosmo_polarized_energy": -22.84, 
			 "cosmo_cavitation_energy": 33.5, 
			 "cosmo_dispersion_energy": -24.12, 
			 "cosmo_repulsion_energy": 1.85, 
			 "cosmo_total_nonelectrostatic_energy": 11.22, 
			 "SMD_solvation_energy": 7.33 
		},
		"coords": [
			{
				"x": 1.7824846673,
				"y": -2.4572975809,
				"z": 0.6867098985,
				"element": "C" 
			},
			{
				"x": 1.0927143781,
				"y": -1.5727905625,
				"z": 1.7298448352,
				"element": "C" 
			},
			{
				"x": 1.6148319559,
				"y": -0.1318036244,
				"z": 1.7930967814,
				"element": "C" 
			},
			{
				"x": 1.4425073973,
				"y": 0.6221353463,
				"z": 0.5301098111,
				"element": "N" 
			},
			{
				"x": 2.5627632358,
				"y": 0.7605505462,
				"z": -0.2977102737,
				"element": "C" 
			},
			{
				"x": 3.6520657182,
				"y": 0.2856368265,
				"z": -0.0323893632,
				"element": "O" 
			},
			{
				"x": 2.3570911584,
				"y": 1.4896531625,
				"z": -1.4662830429,
				"element": "N" 
			},
			{
				"x": 1.1896152966,
				"y": 2.098549708,
				"z": -1.9176951728,
				"element": "C" 
			},
			{
				"x": 1.1466256762,
				"y": 2.7042259581,
				"z": -2.9741534435,
				"element": "O" 
			},
			{
				"x": 0.0569512923,
				"y": 1.9219239404,
				"z": -0.9905359958,
				"element": "C" 
			},
			{
				"x": 0.2192205646,
				"y": 1.1901552591,
				"z": 0.2104523425,
				"element": "C" 
			},
			{
				"x": -0.7812573505,
				"y": 1.0228620511,
				"z": 1.0885589183,
				"element": "N" 
			},
			{
				"x": -1.9644416033,
				"y": 1.5565165611,
				"z": 0.7917000711,
				"element": "C" 
			},
			{
				"x": -2.2439313601,
				"y": 2.2778189312,
				"z": -0.378555281,
				"element": "C" 
			},
			{
				"x": -1.1858528443,
				"y": 2.4729846293,
				"z": -1.2710870283,
				"element": "C" 
			},
			{
				"x": -3.5717860565,
				"y": 2.8930643965,
				"z": -0.6896252092,
				"element": "C" 
			},
			{
				"x": -4.649397265,
				"y": 2.4104871998,
				"z": -0.0157616332,
				"element": "O" 
			},
			{
				"x": -3.7067374098,
				"y": 3.783952064,
				"z": -1.4932313624,
				"element": "O" 
			},
			{
				"x": 2.8655015775,
				"y": -2.4870572199,
				"z": 0.8390446151,
				"element": "H" 
			},
			{
				"x": 1.6038619385,
				"y": -2.0942977352,
				"z": -0.3308300117,
				"element": "H" 
			},
			{
				"x": 1.4013200838,
				"y": -3.4819256474,
				"z": 0.7390081192,
				"element": "H" 
			},
			{
				"x": 0.0110037122,
				"y": -1.5519375632,
				"z": 1.5585107931,
				"element": "H" 
			},
			{
				"x": 1.2377433854,
				"y": -1.9999266319,
				"z": 2.7304655991,
				"element": "H" 
			},
			{
				"x": 1.0892879021,
				"y": 0.4235548914,
				"z": 2.5710868344,
				"element": "H" 
			},
			{
				"x": 2.6850385532,
				"y": -0.1187260796,
				"z": 1.9994894192,
				"element": "H" 
			},
			{
				"x": 3.1756771153,
				"y": 1.5780524513,
				"z": -2.056967712,
				"element": "H" 
			},
			{
				"x": -2.7283916849,
				"y": 1.4193010736,
				"z": 1.557491855,
				"element": "H" 
			},
			{
				"x": -1.3269804067,
				"y": 3.0493084925,
				"z": -2.1793250274,
				"element": "H" 
			},
			{
				"x": -4.4283296279,
				"y": 1.5940291561,
				"z": 0.4527806638,
				"element": "H" 
			}
		],
		 "valence_orbital": [ 
			{
				"type": "occ",
				"energy": -0.30701,
				"method": "rhf"
			},
			{
				"type": "occ",
				"energy": -0.3015,
				"method": "rhf"
			},
			{
				"type": "occ",
				"energy": -0.28673,
				"method": "rhf"
			},
			{
				"type": "occ",
				"energy": -0.27796,
				"method": "rhf"
			},
			{
				"type": "occ",
				"energy": -0.26016,
				"method": "rhf"
			},
			{
				"type": "unocc",
				"energy": -0.08268,
				"method": "rhf"
			},
			{
				"type": "unocc",
				"energy": -0.07219,
				"method": "rhf"
			},
			{
				"type": "unocc",
				"energy": -0.00477,
				"method": "rhf"
			},
			{
				"type": "unocc",
				"energy": 0.00892,
				"method": "rhf"
			},
			{
				"type": "unocc",
				"energy": 0.04605,
				"method": "rhf"
			}
		],
		"cosmo_sigma_profile": { 
			"-0.025": 0.0,
			"-0.024": 0.0,
			"-0.023": 0.0,
			"-0.022": 0.0,
			"-0.021": 0.0,
			"-0.02": 0.368512200925,
			"-0.019": 1.01094098049,
			"-0.018": 0.856309531629,
			"-0.017": 1.5313946932,
			"-0.016": 1.95214475035,
			"-0.015": 1.89953371218,
			"-0.014": 1.93847058149,
			"-0.013": 1.29505770146,
			"-0.012": 2.0665708822,
			"-0.011": 3.02232647953,
			"-0.01": 1.68698710484,
			"-0.009": 2.24178348297,
			"-0.008": 3.53757411809,
			"-0.007": 5.17028840857,
			"-0.006": 6.76174689193,
			"-0.005": 10.7808745234,
			"-0.004": 19.3993423868,
			"-0.003": 29.718010622,
			"-0.002": 30.5879662324,
			"-0.001": 21.7820587275,
			"0.0": 16.4116794906,
			"0.001": 15.5033239991,
			"0.002": 9.48953316083,
			"0.003": 5.92686514629,
			"0.004": 5.85272155893,
			"0.005": 6.65957713159,
			"0.006": 6.71297132476,
			"0.007": 6.18124740507,
			"0.008": 5.51172724885,
			"0.009": 7.9101725093,
			"0.01": 8.80804185826,
			"0.011": 12.3894799169,
			"0.012": 10.6531390145,
			"0.013": 1.10175076019,
			"0.014": 0.0,
			"0.015": 0.0,
			"0.016": 0.0,
			"0.017": 0.0,
			"0.018": 0.0,
			"0.019": 0.0,
			"0.02": 0.0,
			"0.021": 0.0,
			"0.022": 0.0,
			"0.023": 0.0,
			"0.024": 0.0,
			"0.025": 0.0
		}
	}
}
