{
	 "smiles": "COC1=CC(OC)=C(C)C(OC)=C1", 
	 "Tm": 301.15, 
	 "num_atms": 27, 
	 "gaussian": { 
		 "optdone": 1, 
		 "sigma_profile": "yes", 
		 "theory": "DFT", 
		 "functional": "B3LYP", 
		 "basiset": "6-31G**", 
		 "properties": { 
			 "R2extent": 2975.4964, 
			 "electric_dipole_moment_norm": 2.11106069311, 
			 "electric_quadrupole_moment_norm": 13.6082948032, 
			 "total_energy": -615.141758373, 
			 "HOMO_LUMO_gap": 0.21929, 
			 "cosmo_polarized_energy": -8.97, 
			 "cosmo_cavitation_energy": 29.63, 
			 "cosmo_dispersion_energy": -21.63, 
			 "cosmo_repulsion_energy": 1.73, 
			 "cosmo_total_nonelectrostatic_energy": 9.73, 
			 "SMD_solvation_energy": 7.44 
		},
		"coords": [
			{
				"x": 0.32148968,
				"y": -1.8162534398,
				"z": -3.3037111617,
				"element": "C" 
			},
			{
				"x": -0.5952938771,
				"y": -1.4411734726,
				"z": -2.2915820065,
				"element": "O" 
			},
			{
				"x": -0.198635221,
				"y": -0.5141805077,
				"z": -1.3659599029,
				"element": "C" 
			},
			{
				"x": -1.1568471614,
				"y": -0.1947703911,
				"z": -0.3981310777,
				"element": "C" 
			},
			{
				"x": -0.8364089554,
				"y": 0.7420271059,
				"z": 0.5848725215,
				"element": "C" 
			},
			{
				"x": -1.704566721,
				"y": 1.1196450669,
				"z": 1.5724367915,
				"element": "O" 
			},
			{
				"x": -2.9937412222,
				"y": 0.5314468154,
				"z": 1.5991935298,
				"element": "C" 
			},
			{
				"x": 0.4197427509,
				"y": 1.3769183434,
				"z": 0.6352804564,
				"element": "C" 
			},
			{
				"x": 0.7204669569,
				"y": 2.3830562108,
				"z": 1.71697105,
				"element": "C" 
			},
			{
				"x": 1.3515727316,
				"y": 1.0293851302,
				"z": -0.351947105,
				"element": "C" 
			},
			{
				"x": 2.5638441805,
				"y": 1.6649812406,
				"z": -0.2744817086,
				"element": "O" 
			},
			{
				"x": 3.5574666898,
				"y": 1.3660217386,
				"z": -1.2368925536,
				"element": "C" 
			},
			{
				"x": 1.0599913358,
				"y": 0.0894368877,
				"z": -1.3561123262,
				"element": "C" 
			},
			{
				"x": 0.6088049198,
				"y": -0.9615451007,
				"z": -3.9305109401,
				"element": "H" 
			},
			{
				"x": 1.2285379927,
				"y": -2.2711241603,
				"z": -2.8838275923,
				"element": "H" 
			},
			{
				"x": -0.1943726296,
				"y": -2.5538189501,
				"z": -3.9211087744,
				"element": "H" 
			},
			{
				"x": -2.1183657984,
				"y": -0.6877824544,
				"z": -0.4453991507,
				"element": "H" 
			},
			{
				"x": -3.5597572793,
				"y": 0.752318052,
				"z": 0.6850598211,
				"element": "H" 
			},
			{
				"x": -3.5083415132,
				"y": 0.9717190305,
				"z": 2.4551189804,
				"element": "H" 
			},
			{
				"x": -2.9406384518,
				"y": -0.5569755029,
				"z": 1.7307786588,
				"element": "H" 
			},
			{
				"x": 0.6251173413,
				"y": 1.9326878082,
				"z": 2.7114140041,
				"element": "H" 
			},
			{
				"x": 1.7305131074,
				"y": 2.7776372171,
				"z": 1.6092109165,
				"element": "H" 
			},
			{
				"x": 0.0128400999,
				"y": 3.2191150297,
				"z": 1.6849240417,
				"element": "H" 
			},
			{
				"x": 4.4214398819,
				"y": 1.9810197895,
				"z": -0.9783994951,
				"element": "H" 
			},
			{
				"x": 3.8498543677,
				"y": 0.3079596781,
				"z": -1.207805525,
				"element": "H" 
			},
			{
				"x": 3.2304706945,
				"y": 1.6182145432,
				"z": -2.2543935916,
				"element": "H" 
			},
			{
				"x": 1.7971160994,
				"y": -0.1594657082,
				"z": -2.1045978606,
				"element": "H" 
			}
		],
		 "valence_orbital": [ 
			{
				"type": "occ",
				"energy": -0.32295,
				"method": "rhf"
			},
			{
				"type": "occ",
				"energy": -0.31687,
				"method": "rhf"
			},
			{
				"type": "occ",
				"energy": -0.26488,
				"method": "rhf"
			},
			{
				"type": "occ",
				"energy": -0.20929,
				"method": "rhf"
			},
			{
				"type": "occ",
				"energy": -0.19324,
				"method": "rhf"
			},
			{
				"type": "unocc",
				"energy": 0.02605,
				"method": "rhf"
			},
			{
				"type": "unocc",
				"energy": 0.03017,
				"method": "rhf"
			},
			{
				"type": "unocc",
				"energy": 0.09045,
				"method": "rhf"
			},
			{
				"type": "unocc",
				"energy": 0.10622,
				"method": "rhf"
			},
			{
				"type": "unocc",
				"energy": 0.10909,
				"method": "rhf"
			}
		],
		"cosmo_sigma_profile": { 
			"-0.025": 0.0,
			"-0.024": 0.0,
			"-0.023": 0.0,
			"-0.022": 0.0,
			"-0.021": 0.0,
			"-0.02": 0.0,
			"-0.019": 0.0,
			"-0.018": 0.0,
			"-0.017": 0.0,
			"-0.016": 0.0,
			"-0.015": 0.0,
			"-0.014": 0.0,
			"-0.013": 0.0,
			"-0.012": 0.0,
			"-0.011": 0.0,
			"-0.01": 0.0,
			"-0.009": 0.0,
			"-0.008": 0.0,
			"-0.007": 0.14905945081,
			"-0.006": 8.42590775938,
			"-0.005": 26.462366671,
			"-0.004": 26.3127363335,
			"-0.003": 29.8368338022,
			"-0.002": 19.1923114043,
			"-0.001": 13.0514438224,
			"0.0": 12.8808433614,
			"0.001": 15.0751766897,
			"0.002": 9.28178816789,
			"0.003": 10.4207672065,
			"0.004": 15.4668486242,
			"0.005": 18.1285287771,
			"0.006": 11.5220539251,
			"0.007": 6.06879113768,
			"0.008": 4.52858086076,
			"0.009": 4.06216817504,
			"0.01": 1.738141839,
			"0.011": 0.897394642078,
			"0.012": 0.0,
			"0.013": 0.0,
			"0.014": 0.0,
			"0.015": 0.0,
			"0.016": 0.0,
			"0.017": 0.0,
			"0.018": 0.0,
			"0.019": 0.0,
			"0.02": 0.0,
			"0.021": 0.0,
			"0.022": 0.0,
			"0.023": 0.0,
			"0.024": 0.0,
			"0.025": 0.0
		}
	}
}
