{
	 "smiles": "O=S(=O)(C1=CC=C(C=C1)N=C=S)C1=CC=C(C=C1)N=C=S", 
	 "Tm": 461.15, 
	 "num_atms": 29, 
	 "gaussian": { 
		 "optdone": 1, 
		 "sigma_profile": "yes", 
		 "theory": "DFT", 
		 "functional": "B3LYP", 
		 "basiset": "6-31G**", 
		 "properties": { 
			 "R2extent": 13766.7749, 
			 "electric_dipole_moment_norm": 1.56411552962, 
			 "electric_quadrupole_moment_norm": 22.2055667597, 
			 "total_energy": -1992.74173307, 
			 "HOMO_LUMO_gap": 0.15801, 
			 "cosmo_polarized_energy": -17.12, 
			 "cosmo_cavitation_energy": 42.98, 
			 "cosmo_dispersion_energy": -31.24, 
			 "cosmo_repulsion_energy": 2.29, 
			 "cosmo_total_nonelectrostatic_energy": 14.04, 
			 "SMD_solvation_energy": 7.76 
		},
		"coords": [
			{
				"x": 2.0558493935,
				"y": 0.9348298001,
				"z": 1.4469373637,
				"element": "O" 
			},
			{
				"x": 2.0703567363,
				"y": -0.1470461238,
				"z": 0.450447174,
				"element": "S" 
			},
			{
				"x": 3.3209632684,
				"y": -0.7245178214,
				"z": -0.0654338942,
				"element": "O" 
			},
			{
				"x": 1.0984780585,
				"y": -1.503779005,
				"z": 1.1261899104,
				"element": "C" 
			},
			{
				"x": 0.1396419281,
				"y": -1.2384906926,
				"z": 2.1072623167,
				"element": "C" 
			},
			{
				"x": -0.6070345583,
				"y": -2.2845598536,
				"z": 2.6366429993,
				"element": "C" 
			},
			{
				"x": -0.3863953139,
				"y": -3.5972093092,
				"z": 2.1811584849,
				"element": "C" 
			},
			{
				"x": 0.5913296223,
				"y": -3.8568080047,
				"z": 1.2035020624,
				"element": "C" 
			},
			{
				"x": 1.3344583741,
				"y": -2.8060894572,
				"z": 0.6783810755,
				"element": "C" 
			},
			{
				"x": -1.1209022207,
				"y": -4.6288395042,
				"z": 2.6987678314,
				"element": "N" 
			},
			{
				"x": -1.7613687357,
				"y": -5.5248179084,
				"z": 3.1457633211,
				"element": "C" 
			},
			{
				"x": -2.6178491488,
				"y": -6.7234623597,
				"z": 3.7425285444,
				"element": "S" 
			},
			{
				"x": 1.125289658,
				"y": 0.4275214103,
				"z": -0.9703791231,
				"element": "C" 
			},
			{
				"x": 0.1768050146,
				"y": 1.4391426655,
				"z": -0.7994675128,
				"element": "C" 
			},
			{
				"x": -0.5497839404,
				"y": 1.8899140253,
				"z": -1.8953061009,
				"element": "C" 
			},
			{
				"x": -0.3193312252,
				"y": 1.325227533,
				"z": -3.1630481412,
				"element": "C" 
			},
			{
				"x": 0.648091443,
				"y": 0.3173219544,
				"z": -3.3283510443,
				"element": "C" 
			},
			{
				"x": 1.3711284532,
				"y": -0.1287956458,
				"z": -2.2282719158,
				"element": "C" 
			},
			{
				"x": -1.03445872,
				"y": 1.764822353,
				"z": -4.243323391,
				"element": "N" 
			},
			{
				"x": -1.6556791957,
				"y": 2.1467918778,
				"z": -5.1818857011,
				"element": "C" 
			},
			{
				"x": -2.4879854368,
				"y": 2.6560367629,
				"z": -6.4366366811,
				"element": "S" 
			},
			{
				"x": 0.0008126186,
				"y": -0.2244986704,
				"z": 2.4658276521,
				"element": "H" 
			},
			{
				"x": -1.3530700494,
				"y": -2.1054543724,
				"z": 3.4028880631,
				"element": "H" 
			},
			{
				"x": 0.7593873076,
				"y": -4.8769401978,
				"z": 0.8766043579,
				"element": "H" 
			},
			{
				"x": 2.1100073907,
				"y": -2.9917557181,
				"z": -0.056495856,
				"element": "H" 
			},
			{
				"x": 0.0304991231,
				"y": 1.8817457212,
				"z": 0.1796543755,
				"element": "H" 
			},
			{
				"x": -1.2875185129,
				"y": 2.6775442591,
				"z": -1.7896488178,
				"element": "H" 
			},
			{
				"x": 0.8240535956,
				"y": -0.0946177939,
				"z": -4.3158311207,
				"element": "H" 
			},
			{
				"x": 2.1388250721,
				"y": -0.8861159242,
				"z": -2.3426762324,
				"element": "H" 
			}
		],
		 "valence_orbital": [ 
			{
				"type": "occ",
				"energy": -0.29303,
				"method": "rhf"
			},
			{
				"type": "occ",
				"energy": -0.26711,
				"method": "rhf"
			},
			{
				"type": "occ",
				"energy": -0.2671,
				"method": "rhf"
			},
			{
				"type": "occ",
				"energy": -0.25553,
				"method": "rhf"
			},
			{
				"type": "occ",
				"energy": -0.24636,
				"method": "rhf"
			},
			{
				"type": "unocc",
				"energy": -0.08835,
				"method": "rhf"
			},
			{
				"type": "unocc",
				"energy": -0.06684,
				"method": "rhf"
			},
			{
				"type": "unocc",
				"energy": -0.04836,
				"method": "rhf"
			},
			{
				"type": "unocc",
				"energy": -0.03838,
				"method": "rhf"
			},
			{
				"type": "unocc",
				"energy": -0.01127,
				"method": "rhf"
			}
		],
		"cosmo_sigma_profile": { 
			"-0.025": 0.0,
			"-0.024": 0.0,
			"-0.023": 0.0,
			"-0.022": 0.0,
			"-0.021": 0.0,
			"-0.02": 0.0,
			"-0.019": 0.0,
			"-0.018": 0.0,
			"-0.017": 0.0,
			"-0.016": 0.0,
			"-0.015": 0.0,
			"-0.014": 0.0,
			"-0.013": 0.0,
			"-0.012": 0.0,
			"-0.011": 0.0,
			"-0.01": 0.0,
			"-0.009": 2.77767098106,
			"-0.008": 13.3733048865,
			"-0.007": 17.4589593936,
			"-0.006": 16.9562814656,
			"-0.005": 15.233416173,
			"-0.004": 15.2136908768,
			"-0.003": 18.6290566057,
			"-0.002": 34.8045813875,
			"-0.001": 32.1732092077,
			"0.0": 39.7270069823,
			"0.001": 34.5293589182,
			"0.002": 17.8726744518,
			"0.003": 12.9512543496,
			"0.004": 17.1010580242,
			"0.005": 27.6244449187,
			"0.006": 13.3498517454,
			"0.007": 2.64855595622,
			"0.008": 3.58738329895,
			"0.009": 3.54737203832,
			"0.01": 6.07756788306,
			"0.011": 7.70441344323,
			"0.012": 2.63884582247,
			"0.013": 0.0,
			"0.014": 0.0,
			"0.015": 0.0,
			"0.016": 0.0,
			"0.017": 0.0,
			"0.018": 0.0,
			"0.019": 0.0,
			"0.02": 0.0,
			"0.021": 0.0,
			"0.022": 0.0,
			"0.023": 0.0,
			"0.024": 0.0,
			"0.025": 0.0
		}
	}
}
