{
	 "smiles": "OC(=O)CC1=C(F)C=C(C=C1)[N+]([O-])=O", 
	 "Tm": 436.15, 
	 "num_atms": 20, 
	 "gaussian": { 
		 "optdone": 1, 
		 "sigma_profile": "yes", 
		 "theory": "DFT", 
		 "functional": "B3LYP", 
		 "basiset": "6-31G**", 
		 "properties": { 
			 "R2extent": 3523.7971, 
			 "electric_dipole_moment_norm": 3.26516849336, 
			 "electric_quadrupole_moment_norm": 21.2703125433, 
			 "total_energy": -763.862519326, 
			 "HOMO_LUMO_gap": 0.17537, 
			 "cosmo_polarized_energy": -14.71, 
			 "cosmo_cavitation_energy": 26.59, 
			 "cosmo_dispersion_energy": -18.91, 
			 "cosmo_repulsion_energy": 1.48, 
			 "cosmo_total_nonelectrostatic_energy": 9.17, 
			 "SMD_solvation_energy": 8.46 
		},
		"coords": [
			{
				"x": -0.0263749447,
				"y": -0.5044158288,
				"z": -3.6277476237,
				"element": "O" 
			},
			{
				"x": -1.2863157874,
				"y": -0.6895215726,
				"z": -3.1744822344,
				"element": "C" 
			},
			{
				"x": -2.0984840904,
				"y": -1.3838191131,
				"z": -3.7384297151,
				"element": "O" 
			},
			{
				"x": -1.5750364242,
				"y": 0.1187084747,
				"z": -1.9140402732,
				"element": "C" 
			},
			{
				"x": -0.4016551122,
				"y": 0.3335950402,
				"z": -0.9917721023,
				"element": "C" 
			},
			{
				"x": 0.228072675,
				"y": -0.7670960697,
				"z": -0.3998162467,
				"element": "C" 
			},
			{
				"x": -0.2326280445,
				"y": -1.9967615438,
				"z": -0.7080875164,
				"element": "F" 
			},
			{
				"x": 1.2951633298,
				"y": -0.6514586959,
				"z": 0.4737773625,
				"element": "C" 
			},
			{
				"x": 1.743382094,
				"y": 0.636495805,
				"z": 0.7628028354,
				"element": "C" 
			},
			{
				"x": 1.1594233091,
				"y": 1.7703898748,
				"z": 0.2059103686,
				"element": "C" 
			},
			{
				"x": 0.0877183584,
				"y": 1.6039733079,
				"z": -0.6701121151,
				"element": "C" 
			},
			{
				"x": 2.8761493675,
				"y": 0.7941295776,
				"z": 1.6901683361,
				"element": "N" 
			},
			{
				"x": 3.2560119861,
				"y": 1.9382691422,
				"z": 1.9338051999,
				"element": "O" 
			},
			{
				"x": 3.3705095711,
				"y": -0.2282246867,
				"z": 2.1625724908,
				"element": "O" 
			},
			{
				"x": 0.0524780133,
				"y": -1.03869453,
				"z": -4.4363319526,
				"element": "H" 
			},
			{
				"x": -2.3914434214,
				"y": -0.3998840336,
				"z": -1.4040195881,
				"element": "H" 
			},
			{
				"x": -1.9666589368,
				"y": 1.0881552116,
				"z": -2.2422978938,
				"element": "H" 
			},
			{
				"x": 1.7634446477,
				"y": -1.5209634719,
				"z": 0.9155216819,
				"element": "H" 
			},
			{
				"x": 1.5439741153,
				"y": 2.749272036,
				"z": 0.4608827467,
				"element": "H" 
			},
			{
				"x": -0.3793307057,
				"y": 2.4778510762,
				"z": -1.1143037604,
				"element": "H" 
			}
		],
		 "valence_orbital": [ 
			{
				"type": "occ",
				"energy": -0.31452,
				"method": "rhf"
			},
			{
				"type": "occ",
				"energy": -0.30085,
				"method": "rhf"
			},
			{
				"type": "occ",
				"energy": -0.29817,
				"method": "rhf"
			},
			{
				"type": "occ",
				"energy": -0.28424,
				"method": "rhf"
			},
			{
				"type": "occ",
				"energy": -0.27317,
				"method": "rhf"
			},
			{
				"type": "unocc",
				"energy": -0.0978,
				"method": "rhf"
			},
			{
				"type": "unocc",
				"energy": -0.03362,
				"method": "rhf"
			},
			{
				"type": "unocc",
				"energy": -0.00999,
				"method": "rhf"
			},
			{
				"type": "unocc",
				"energy": -0.00375,
				"method": "rhf"
			},
			{
				"type": "unocc",
				"energy": 0.0643,
				"method": "rhf"
			}
		],
		"cosmo_sigma_profile": { 
			"-0.025": 0.0,
			"-0.024": 0.0,
			"-0.023": 0.0,
			"-0.022": 0.0,
			"-0.021": 0.0,
			"-0.02": 0.0,
			"-0.019": 0.293280228892,
			"-0.018": 1.1280828128,
			"-0.017": 0.721604409541,
			"-0.016": 0.644316318404,
			"-0.015": 0.801211845345,
			"-0.014": 1.03658126077,
			"-0.013": 0.335214737084,
			"-0.012": 0.664538788527,
			"-0.011": 0.760277122268,
			"-0.01": 0.775243269776,
			"-0.009": 4.29521333315,
			"-0.008": 8.27544684939,
			"-0.007": 10.8895459634,
			"-0.006": 10.0343861387,
			"-0.005": 9.79239067956,
			"-0.004": 10.0484728042,
			"-0.003": 12.138730193,
			"-0.002": 12.8106005954,
			"-0.001": 17.5899828338,
			"0.0": 14.7862641515,
			"0.001": 13.6090367906,
			"0.002": 11.3609636996,
			"0.003": 11.0102164668,
			"0.004": 7.19103077524,
			"0.005": 6.72537698756,
			"0.006": 6.11691432137,
			"0.007": 11.6764527821,
			"0.008": 9.02492492271,
			"0.009": 5.82181948712,
			"0.01": 4.31112100942,
			"0.011": 4.82567385149,
			"0.012": 3.18509249838,
			"0.013": 0.208395436222,
			"0.014": 0.0,
			"0.015": 0.0,
			"0.016": 0.0,
			"0.017": 0.0,
			"0.018": 0.0,
			"0.019": 0.0,
			"0.02": 0.0,
			"0.021": 0.0,
			"0.022": 0.0,
			"0.023": 0.0,
			"0.024": 0.0,
			"0.025": 0.0
		}
	}
}
