{
	 "smiles": "CCCC(CC)C1=CC=CC=C1", 
	 "Tm": 217.75, 
	 "num_atms": 30, 
	 "gaussian": { 
		 "optdone": 1, 
		 "sigma_profile": "yes", 
		 "theory": "DFT", 
		 "functional": "B3LYP", 
		 "basiset": "6-31G**", 
		 "properties": { 
			 "R2extent": 2883.6052, 
			 "electric_dipole_moment_norm": 0.34041840432, 
			 "electric_quadrupole_moment_norm": 3.39015932221, 
			 "total_energy": -468.14762534, 
			 "HOMO_LUMO_gap": 0.23844, 
			 "cosmo_polarized_energy": -3.21, 
			 "cosmo_cavitation_energy": 30.95, 
			 "cosmo_dispersion_energy": -21.41, 
			 "cosmo_repulsion_energy": 1.74, 
			 "cosmo_total_nonelectrostatic_energy": 11.28, 
			 "SMD_solvation_energy": 5.11 
		},
		"coords": [
			{
				"x": -0.9070132409,
				"y": 1.5704817332,
				"z": -2.9954481983,
				"element": "C" 
			},
			{
				"x": -0.4302474489,
				"y": 2.2157056331,
				"z": -1.6887081568,
				"element": "C" 
			},
			{
				"x": 0.600388836,
				"y": 1.3843887975,
				"z": -0.9039983329,
				"element": "C" 
			},
			{
				"x": 0.1322908353,
				"y": -0.0086860336,
				"z": -0.4084723957,
				"element": "C" 
			},
			{
				"x": -1.0459647682,
				"y": 0.0856117739,
				"z": 0.5875386364,
				"element": "C" 
			},
			{
				"x": -1.6155591014,
				"y": -1.2728899255,
				"z": 1.0094429349,
				"element": "C" 
			},
			{
				"x": 1.313734128,
				"y": -0.7857059162,
				"z": 0.161164796,
				"element": "C" 
			},
			{
				"x": 1.7952373163,
				"y": -1.931194544,
				"z": -0.4865470222,
				"element": "C" 
			},
			{
				"x": 2.8906459241,
				"y": -2.6395548034,
				"z": 0.012058618,
				"element": "C" 
			},
			{
				"x": 3.5284524952,
				"y": -2.2125987037,
				"z": 1.1768645431,
				"element": "C" 
			},
			{
				"x": 3.0609289875,
				"y": -1.0731837318,
				"z": 1.8356125173,
				"element": "C" 
			},
			{
				"x": 1.9670053031,
				"y": -0.3691813911,
				"z": 1.3320217856,
				"element": "C" 
			},
			{
				"x": -1.5695785766,
				"y": 2.2450610496,
				"z": -3.5476590584,
				"element": "H" 
			},
			{
				"x": -0.0601887449,
				"y": 1.3285355423,
				"z": -3.6483753104,
				"element": "H" 
			},
			{
				"x": -1.4616358899,
				"y": 0.6431254698,
				"z": -2.8175536543,
				"element": "H" 
			},
			{
				"x": 0.0295020554,
				"y": 3.1853386056,
				"z": -1.9193297206,
				"element": "H" 
			},
			{
				"x": -1.2965229512,
				"y": 2.4435450031,
				"z": -1.0554087509,
				"element": "H" 
			},
			{
				"x": 1.4866501637,
				"y": 1.2395818059,
				"z": -1.5357618051,
				"element": "H" 
			},
			{
				"x": 0.9409703797,
				"y": 1.9683768126,
				"z": -0.0385902871,
				"element": "H" 
			},
			{
				"x": -0.2249354804,
				"y": -0.5724271058,
				"z": -1.2809589384,
				"element": "H" 
			},
			{
				"x": -1.8466643414,
				"y": 0.6805201657,
				"z": 0.1326712969,
				"element": "H" 
			},
			{
				"x": -0.7247636114,
				"y": 0.6437354698,
				"z": 1.4772563088,
				"element": "H" 
			},
			{
				"x": -0.8609879689,
				"y": -1.8852347254,
				"z": 1.5121272348,
				"element": "H" 
			},
			{
				"x": -1.9743612385,
				"y": -1.8371781567,
				"z": 0.1406382981,
				"element": "H" 
			},
			{
				"x": -2.4601839273,
				"y": -1.1488199235,
				"z": 1.6951222093,
				"element": "H" 
			},
			{
				"x": 1.3041259426,
				"y": -2.2724744095,
				"z": -1.3949751515,
				"element": "H" 
			},
			{
				"x": 3.2430725641,
				"y": -3.525215078,
				"z": -0.5097130292,
				"element": "H" 
			},
			{
				"x": 4.3802104495,
				"y": -2.7611702284,
				"z": 1.5687848181,
				"element": "H" 
			},
			{
				"x": 3.5495394717,
				"y": -0.7313332952,
				"z": 2.7441033722,
				"element": "H" 
			},
			{
				"x": 1.6182524377,
				"y": 0.5155401097,
				"z": 1.8583924424,
				"element": "H" 
			}
		],
		 "valence_orbital": [ 
			{
				"type": "occ",
				"energy": -0.31455,
				"method": "rhf"
			},
			{
				"type": "occ",
				"energy": -0.30924,
				"method": "rhf"
			},
			{
				"type": "occ",
				"energy": -0.30251,
				"method": "rhf"
			},
			{
				"type": "occ",
				"energy": -0.24384,
				"method": "rhf"
			},
			{
				"type": "occ",
				"energy": -0.23518,
				"method": "rhf"
			},
			{
				"type": "unocc",
				"energy": 0.00326,
				"method": "rhf"
			},
			{
				"type": "unocc",
				"energy": 0.00635,
				"method": "rhf"
			},
			{
				"type": "unocc",
				"energy": 0.08282,
				"method": "rhf"
			},
			{
				"type": "unocc",
				"energy": 0.0997,
				"method": "rhf"
			},
			{
				"type": "unocc",
				"energy": 0.10512,
				"method": "rhf"
			}
		],
		"cosmo_sigma_profile": { 
			"-0.025": 0.0,
			"-0.024": 0.0,
			"-0.023": 0.0,
			"-0.022": 0.0,
			"-0.021": 0.0,
			"-0.02": 0.0,
			"-0.019": 0.0,
			"-0.018": 0.0,
			"-0.017": 0.0,
			"-0.016": 0.0,
			"-0.015": 0.0,
			"-0.014": 0.0,
			"-0.013": 0.0,
			"-0.012": 0.0,
			"-0.011": 0.0,
			"-0.01": 0.0,
			"-0.009": 0.0,
			"-0.008": 0.0,
			"-0.007": 0.0,
			"-0.006": 0.833714812269,
			"-0.005": 7.88397953167,
			"-0.004": 12.4371770605,
			"-0.003": 21.1449241493,
			"-0.002": 32.3896233831,
			"-0.001": 33.9050418584,
			"0.0": 37.6445477223,
			"0.001": 35.8022903111,
			"0.002": 21.8490477984,
			"0.003": 9.43447429879,
			"0.004": 8.71683674282,
			"0.005": 7.50040086054,
			"0.006": 7.51981755802,
			"0.007": 4.10963537978,
			"0.008": 0.0192692130848,
			"0.009": 0.0,
			"0.01": 0.0,
			"0.011": 0.0,
			"0.012": 0.0,
			"0.013": 0.0,
			"0.014": 0.0,
			"0.015": 0.0,
			"0.016": 0.0,
			"0.017": 0.0,
			"0.018": 0.0,
			"0.019": 0.0,
			"0.02": 0.0,
			"0.021": 0.0,
			"0.022": 0.0,
			"0.023": 0.0,
			"0.024": 0.0,
			"0.025": 0.0
		}
	}
}
