{
	 "smiles": "CC1=CC(OC2=CC=C(N)C=C2)=NN1", 
	 "Tm": 463.15, 
	 "num_atms": 25, 
	 "gaussian": { 
		 "optdone": 1, 
		 "sigma_profile": "yes", 
		 "theory": "DFT", 
		 "functional": "B3LYP", 
		 "basiset": "6-31G**", 
		 "properties": { 
			 "R2extent": 4190.9598, 
			 "electric_dipole_moment_norm": 2.39526566585, 
			 "electric_quadrupole_moment_norm": 27.3053877649, 
			 "total_energy": -627.143943155, 
			 "HOMO_LUMO_gap": 0.18941, 
			 "cosmo_polarized_energy": -15.46, 
			 "cosmo_cavitation_energy": 29.33, 
			 "cosmo_dispersion_energy": -22.1, 
			 "cosmo_repulsion_energy": 1.76, 
			 "cosmo_total_nonelectrostatic_energy": 8.99, 
			 "SMD_solvation_energy": 4.96 
		},
		"coords": [
			{
				"x": -0.4506840481,
				"y": -2.2310327717,
				"z": -4.609530927,
				"element": "C" 
			},
			{
				"x": -0.5076280906,
				"y": -1.5827187476,
				"z": -3.262759327,
				"element": "C" 
			},
			{
				"x": -0.6143902023,
				"y": -2.1167290468,
				"z": -1.9935448407,
				"element": "C" 
			},
			{
				"x": -0.6187843811,
				"y": -0.991208182,
				"z": -1.1300107861,
				"element": "C" 
			},
			{
				"x": -0.7100879374,
				"y": -1.1382343736,
				"z": 0.211250139,
				"element": "O" 
			},
			{
				"x": -0.7452761994,
				"y": -0.1167527713,
				"z": 1.1496641377,
				"element": "C" 
			},
			{
				"x": -0.6923519915,
				"y": 1.2546864861,
				"z": 0.8907844661,
				"element": "C" 
			},
			{
				"x": -0.7371615392,
				"y": 2.1535523426,
				"z": 1.9588571535,
				"element": "C" 
			},
			{
				"x": -0.8346744447,
				"y": 1.7174958694,
				"z": 3.2869162404,
				"element": "C" 
			},
			{
				"x": -0.9399152027,
				"y": 2.6334242227,
				"z": 4.345999297,
				"element": "N" 
			},
			{
				"x": -0.8873290549,
				"y": 0.3332417901,
				"z": 3.5246006502,
				"element": "C" 
			},
			{
				"x": -0.8425986709,
				"y": -0.5695389101,
				"z": 2.4696448048,
				"element": "C" 
			},
			{
				"x": -0.5229321152,
				"y": 0.1575374619,
				"z": -1.7891306302,
				"element": "N" 
			},
			{
				"x": -0.4562144171,
				"y": -0.2333312395,
				"z": -3.0932030656,
				"element": "N" 
			},
			{
				"x": 0.4826936797,
				"y": -1.9956837952,
				"z": -5.1342151298,
				"element": "H" 
			},
			{
				"x": -0.5096915203,
				"y": -3.316212686,
				"z": -4.5048391408,
				"element": "H" 
			},
			{
				"x": -1.2813237753,
				"y": -1.9109674599,
				"z": -5.2494179105,
				"element": "H" 
			},
			{
				"x": -0.6803773632,
				"y": -3.1567696635,
				"z": -1.7147996654,
				"element": "H" 
			},
			{
				"x": -0.6139684192,
				"y": 1.6129541762,
				"z": -0.1251523241,
				"element": "H" 
			},
			{
				"x": -0.6989659296,
				"y": 3.2200468288,
				"z": 1.7488149213,
				"element": "H" 
			},
			{
				"x": -0.5322395402,
				"y": 3.5385116823,
				"z": 4.1509044776,
				"element": "H" 
			},
			{
				"x": -0.6133576578,
				"y": 2.2773967737,
				"z": 5.234882659,
				"element": "H" 
			},
			{
				"x": -0.9685921152,
				"y": -0.036006531,
				"z": 4.5440837293,
				"element": "H" 
			},
			{
				"x": -0.880905394,
				"y": -1.6386177634,
				"z": 2.652460317,
				"element": "H" 
			},
			{
				"x": -0.3806436698,
				"y": 0.4758563078,
				"z": -3.8041592458,
				"element": "H" 
			}
		],
		 "valence_orbital": [ 
			{
				"type": "occ",
				"energy": -0.28181,
				"method": "rhf"
			},
			{
				"type": "occ",
				"energy": -0.23862,
				"method": "rhf"
			},
			{
				"type": "occ",
				"energy": -0.23599,
				"method": "rhf"
			},
			{
				"type": "occ",
				"energy": -0.22892,
				"method": "rhf"
			},
			{
				"type": "occ",
				"energy": -0.17747,
				"method": "rhf"
			},
			{
				"type": "unocc",
				"energy": 0.01194,
				"method": "rhf"
			},
			{
				"type": "unocc",
				"energy": 0.02182,
				"method": "rhf"
			},
			{
				"type": "unocc",
				"energy": 0.03961,
				"method": "rhf"
			},
			{
				"type": "unocc",
				"energy": 0.07691,
				"method": "rhf"
			},
			{
				"type": "unocc",
				"energy": 0.08805,
				"method": "rhf"
			}
		],
		"cosmo_sigma_profile": { 
			"-0.025": 0.0,
			"-0.024": 0.0,
			"-0.023": 0.0,
			"-0.022": 0.0,
			"-0.021": 0.0,
			"-0.02": 0.0,
			"-0.019": 0.0,
			"-0.018": 0.0,
			"-0.017": 0.0,
			"-0.016": 0.855813766184,
			"-0.015": 1.14546402375,
			"-0.014": 1.39542339748,
			"-0.013": 1.43083583069,
			"-0.012": 2.37146343201,
			"-0.011": 3.72950101248,
			"-0.01": 4.03337721586,
			"-0.009": 4.27738340875,
			"-0.008": 3.95288755953,
			"-0.007": 4.37033706111,
			"-0.006": 9.343449269,
			"-0.005": 16.2751922969,
			"-0.004": 14.2483033381,
			"-0.003": 15.5062358088,
			"-0.002": 12.3079134499,
			"-0.001": 14.2728253694,
			"0.0": 11.0536496879,
			"0.001": 8.99050006595,
			"0.002": 9.99805336918,
			"0.003": 14.4209164701,
			"0.004": 20.6756835833,
			"0.005": 18.8443460635,
			"0.006": 17.2173269108,
			"0.007": 7.37532457634,
			"0.008": 4.99111108293,
			"0.009": 3.46251526261,
			"0.01": 2.80085558226,
			"0.011": 1.25673130772,
			"0.012": 0.40983919818,
			"0.013": 1.15317772446,
			"0.014": 0.665262129984,
			"0.015": 0.485536525077,
			"0.016": 0.174366781746,
			"0.017": 0.0,
			"0.018": 0.0,
			"0.019": 0.0,
			"0.02": 0.0,
			"0.021": 0.0,
			"0.022": 0.0,
			"0.023": 0.0,
			"0.024": 0.0,
			"0.025": 0.0
		}
	}
}
