{
	 "smiles": "C=CC(=O)N1CCOCC1", 
	 "Tm": 265.15, 
	 "num_atms": 21, 
	 "gaussian": { 
		 "optdone": 1, 
		 "sigma_profile": "yes", 
		 "theory": "DFT", 
		 "functional": "B3LYP", 
		 "basiset": "6-31G**", 
		 "properties": { 
			 "R2extent": 1764.1606, 
			 "electric_dipole_moment_norm": 2.69363532238, 
			 "electric_quadrupole_moment_norm": 8.64843183126, 
			 "total_energy": -478.536846496, 
			 "HOMO_LUMO_gap": 0.20079, 
			 "cosmo_polarized_energy": -11.63, 
			 "cosmo_cavitation_energy": 23.4, 
			 "cosmo_dispersion_energy": -17.45, 
			 "cosmo_repulsion_energy": 1.41, 
			 "cosmo_total_nonelectrostatic_energy": 7.36, 
			 "SMD_solvation_energy": 4.63 
		},
		"coords": [
			{
				"x": -1.1846858928,
				"y": -1.2877288132,
				"z": 2.7962475584,
				"element": "C" 
			},
			{
				"x": -0.651413929,
				"y": -1.0222021022,
				"z": 1.6017031353,
				"element": "C" 
			},
			{
				"x": -0.3316494687,
				"y": 0.3906850577,
				"z": 1.2256614638,
				"element": "C" 
			},
			{
				"x": -0.5302230088,
				"y": 1.3226586431,
				"z": 2.0053562387,
				"element": "O" 
			},
			{
				"x": 0.194521152,
				"y": 0.5985976562,
				"z": -0.0302714352,
				"element": "N" 
			},
			{
				"x": 0.4574238486,
				"y": -0.4576587194,
				"z": -1.017242747,
				"element": "C" 
			},
			{
				"x": 1.003244508,
				"y": 0.1738997195,
				"z": -2.2995196649,
				"element": "C" 
			},
			{
				"x": 2.1444574693,
				"y": 0.9702849164,
				"z": -2.0472780406,
				"element": "O" 
			},
			{
				"x": 1.9528852053,
				"y": 1.9797823218,
				"z": -1.0452329663,
				"element": "C" 
			},
			{
				"x": 0.5583740443,
				"y": 1.9595107045,
				"z": -0.4218347243,
				"element": "C" 
			},
			{
				"x": -1.4254076919,
				"y": -2.3010244153,
				"z": 3.101604454,
				"element": "H" 
			},
			{
				"x": -1.3862945209,
				"y": -0.4773487731,
				"z": 3.4899345862,
				"element": "H" 
			},
			{
				"x": -0.4453118984,
				"y": -1.8262684871,
				"z": 0.9029010167,
				"element": "H" 
			},
			{
				"x": 1.2004738774,
				"y": -1.1680291274,
				"z": -0.6329558915,
				"element": "H" 
			},
			{
				"x": -0.457160612,
				"y": -1.0168274325,
				"z": -1.2554126468,
				"element": "H" 
			},
			{
				"x": 0.211223551,
				"y": 0.7470755688,
				"z": -2.8065441951,
				"element": "H" 
			},
			{
				"x": 1.3236242997,
				"y": -0.6162465606,
				"z": -2.9844253301,
				"element": "H" 
			},
			{
				"x": 2.1382040139,
				"y": 2.964746527,
				"z": -1.4951102787,
				"element": "H" 
			},
			{
				"x": 2.7079985341,
				"y": 1.8161790577,
				"z": -0.2660495159,
				"element": "H" 
			},
			{
				"x": -0.1844438652,
				"y": 2.3682801143,
				"z": -1.1201548984,
				"element": "H" 
			},
			{
				"x": 0.5308603839,
				"y": 2.5756341439,
				"z": 0.4777238817,
				"element": "H" 
			}
		],
		 "valence_orbital": [ 
			{
				"type": "occ",
				"energy": -0.31575,
				"method": "rhf"
			},
			{
				"type": "occ",
				"energy": -0.27289,
				"method": "rhf"
			},
			{
				"type": "occ",
				"energy": -0.25795,
				"method": "rhf"
			},
			{
				"type": "occ",
				"energy": -0.24744,
				"method": "rhf"
			},
			{
				"type": "occ",
				"energy": -0.23685,
				"method": "rhf"
			},
			{
				"type": "unocc",
				"energy": -0.03606,
				"method": "rhf"
			},
			{
				"type": "unocc",
				"energy": 0.07934,
				"method": "rhf"
			},
			{
				"type": "unocc",
				"energy": 0.09477,
				"method": "rhf"
			},
			{
				"type": "unocc",
				"energy": 0.10731,
				"method": "rhf"
			},
			{
				"type": "unocc",
				"energy": 0.10898,
				"method": "rhf"
			}
		],
		"cosmo_sigma_profile": { 
			"-0.025": 0.0,
			"-0.024": 0.0,
			"-0.023": 0.0,
			"-0.022": 0.0,
			"-0.021": 0.0,
			"-0.02": 0.0,
			"-0.019": 0.0,
			"-0.018": 0.0,
			"-0.017": 0.0,
			"-0.016": 0.0,
			"-0.015": 0.0,
			"-0.014": 0.0,
			"-0.013": 0.0,
			"-0.012": 0.0,
			"-0.011": 0.0,
			"-0.01": 0.0,
			"-0.009": 0.0,
			"-0.008": 0.0,
			"-0.007": 2.06991699808,
			"-0.006": 11.7999952094,
			"-0.005": 25.6910271634,
			"-0.004": 26.8158164424,
			"-0.003": 18.4042574031,
			"-0.002": 14.0488391823,
			"-0.001": 10.4129523438,
			"0.0": 10.3366851428,
			"0.001": 8.86242383504,
			"0.002": 6.69925779157,
			"0.003": 6.69796054566,
			"0.004": 7.07279980635,
			"0.005": 4.42986875245,
			"0.006": 3.27599051619,
			"0.007": 3.1362177079,
			"0.008": 2.70780878701,
			"0.009": 2.57186892935,
			"0.01": 2.88087123513,
			"0.011": 2.4188770261,
			"0.012": 3.38181377109,
			"0.013": 4.15120083278,
			"0.014": 5.40917052576,
			"0.015": 0.617260569291,
			"0.016": 0.0,
			"0.017": 0.0,
			"0.018": 0.0,
			"0.019": 0.0,
			"0.02": 0.0,
			"0.021": 0.0,
			"0.022": 0.0,
			"0.023": 0.0,
			"0.024": 0.0,
			"0.025": 0.0
		}
	}
}
