{
	 "smiles": "NCC1=CC=C(C=C1)C1=CC=NC=C1", 
	 "Tm": 338.15, 
	 "num_atms": 26, 
	 "gaussian": { 
		 "optdone": 1, 
		 "sigma_profile": "yes", 
		 "theory": "DFT", 
		 "functional": "B3LYP", 
		 "basiset": "6-31G**", 
		 "properties": { 
			 "R2extent": 4372.2591, 
			 "electric_dipole_moment_norm": 1.55800326701, 
			 "electric_quadrupole_moment_norm": 22.5546805151, 
			 "total_energy": -574.009930874, 
			 "HOMO_LUMO_gap": 0.18458, 
			 "cosmo_polarized_energy": -11.51, 
			 "cosmo_cavitation_energy": 29.86, 
			 "cosmo_dispersion_energy": -21.66, 
			 "cosmo_repulsion_energy": 1.7, 
			 "cosmo_total_nonelectrostatic_energy": 9.9, 
			 "SMD_solvation_energy": 2.01 
		},
		"coords": [
			{
				"x": -2.4243805036,
				"y": -0.711904528,
				"z": 3.169320364,
				"element": "N" 
			},
			{
				"x": -0.9717587672,
				"y": -0.5744245548,
				"z": 3.3673219092,
				"element": "C" 
			},
			{
				"x": -0.1423314244,
				"y": -0.5295611532,
				"z": 2.0958392727,
				"element": "C" 
			},
			{
				"x": 0.1110594012,
				"y": 0.6837639837,
				"z": 1.4413880815,
				"element": "C" 
			},
			{
				"x": 0.8183022731,
				"y": 0.7221627839,
				"z": 0.2422950774,
				"element": "C" 
			},
			{
				"x": 1.3054678084,
				"y": -0.4572401906,
				"z": -0.3456267064,
				"element": "C" 
			},
			{
				"x": 1.0583666045,
				"y": -1.6728768398,
				"z": 0.3136117405,
				"element": "C" 
			},
			{
				"x": 0.3476099792,
				"y": -1.7051640416,
				"z": 1.5109472058,
				"element": "C" 
			},
			{
				"x": 2.0631562099,
				"y": -0.4187972095,
				"z": -1.6199492963,
				"element": "C" 
			},
			{
				"x": 1.7453202766,
				"y": 0.4913779052,
				"z": -2.6401988202,
				"element": "C" 
			},
			{
				"x": 2.4887079553,
				"y": 0.4872732319,
				"z": -3.8189689916,
				"element": "C" 
			},
			{
				"x": 3.5105847327,
				"y": -0.3447804059,
				"z": -4.0582354937,
				"element": "N" 
			},
			{
				"x": 3.8126612941,
				"y": -1.2134622277,
				"z": -3.0845560192,
				"element": "C" 
			},
			{
				"x": 3.1349336531,
				"y": -1.2902582263,
				"z": -1.8692588308,
				"element": "C" 
			},
			{
				"x": -2.6113073905,
				"y": -1.556352028,
				"z": 2.631664272,
				"element": "H" 
			},
			{
				"x": -2.7588009601,
				"y": 0.0580281749,
				"z": 2.5927259334,
				"element": "H" 
			},
			{
				"x": -0.6423827556,
				"y": -1.4119610867,
				"z": 3.9926835413,
				"element": "H" 
			},
			{
				"x": -0.8023517458,
				"y": 0.338330148,
				"z": 3.9498128124,
				"element": "H" 
			},
			{
				"x": -0.2389922419,
				"y": 1.6136879742,
				"z": 1.8845584802,
				"element": "H" 
			},
			{
				"x": 1.0245920885,
				"y": 1.6793228966,
				"z": -0.2276310568,
				"element": "H" 
			},
			{
				"x": 1.4085593963,
				"y": -2.6018837191,
				"z": -0.1266642625,
				"element": "H" 
			},
			{
				"x": 0.1685198611,
				"y": -2.6605364438,
				"z": 1.9996713392,
				"element": "H" 
			},
			{
				"x": 0.9126166867,
				"y": 1.1787338442,
				"z": -2.5290791707,
				"element": "H" 
			},
			{
				"x": 2.2444266642,
				"y": 1.1871159485,
				"z": -4.6166773771,
				"element": "H" 
			},
			{
				"x": 4.6483424048,
				"y": -1.8829001589,
				"z": -3.2826965003,
				"element": "H" 
			},
			{
				"x": 3.4552784994,
				"y": -2.0033940773,
				"z": -1.116297504,
				"element": "H" 
			}
		],
		 "valence_orbital": [ 
			{
				"type": "occ",
				"energy": -0.26229,
				"method": "rhf"
			},
			{
				"type": "occ",
				"energy": -0.26096,
				"method": "rhf"
			},
			{
				"type": "occ",
				"energy": -0.25243,
				"method": "rhf"
			},
			{
				"type": "occ",
				"energy": -0.2522,
				"method": "rhf"
			},
			{
				"type": "occ",
				"energy": -0.23047,
				"method": "rhf"
			},
			{
				"type": "unocc",
				"energy": -0.04589,
				"method": "rhf"
			},
			{
				"type": "unocc",
				"energy": -0.0149,
				"method": "rhf"
			},
			{
				"type": "unocc",
				"energy": -0.00928,
				"method": "rhf"
			},
			{
				"type": "unocc",
				"energy": 0.01456,
				"method": "rhf"
			},
			{
				"type": "unocc",
				"energy": 0.08306,
				"method": "rhf"
			}
		],
		"cosmo_sigma_profile": { 
			"-0.025": 0.0,
			"-0.024": 0.0,
			"-0.023": 0.0,
			"-0.022": 0.0,
			"-0.021": 0.0,
			"-0.02": 0.0,
			"-0.019": 0.0,
			"-0.018": 0.0,
			"-0.017": 0.0,
			"-0.016": 0.0,
			"-0.015": 0.0,
			"-0.014": 0.0,
			"-0.013": 0.0,
			"-0.012": 0.0,
			"-0.011": 0.0,
			"-0.01": 0.415112860661,
			"-0.009": 2.56073488681,
			"-0.008": 2.12590440642,
			"-0.007": 4.83707260028,
			"-0.006": 17.82853968,
			"-0.005": 23.3363377932,
			"-0.004": 23.1656519468,
			"-0.003": 18.2953680756,
			"-0.002": 13.9157481261,
			"-0.001": 13.8245118818,
			"0.0": 14.5519915683,
			"0.001": 14.0805301092,
			"0.002": 22.0595654093,
			"0.003": 19.7209425404,
			"0.004": 11.7040535458,
			"0.005": 11.6517905912,
			"0.006": 2.77914567264,
			"0.007": 2.04530536528,
			"0.008": 2.75981213317,
			"0.009": 2.16325442059,
			"0.01": 1.55339168771,
			"0.011": 1.71308400369,
			"0.012": 1.04822052971,
			"0.013": 1.8291311998,
			"0.014": 1.97115338695,
			"0.015": 1.36052670265,
			"0.016": 1.82480106261,
			"0.017": 1.11497818813,
			"0.018": 0.361865538995,
			"0.019": 0.872135000316,
			"0.02": 0.187003749949,
			"0.021": 0.0,
			"0.022": 0.0,
			"0.023": 0.0,
			"0.024": 0.0,
			"0.025": 0.0
		}
	}
}
