{
	 "smiles": "CCOC(=O)C1=C(C)N(N=C1)C1=NC=C(C=C1)C(F)(F)F", 
	 "Tm": 362.15, 
	 "num_atms": 33, 
	 "gaussian": { 
		 "optdone": 1, 
		 "sigma_profile": "yes", 
		 "theory": "DFT", 
		 "functional": "B3LYP", 
		 "basiset": "6-31G**", 
		 "properties": { 
			 "R2extent": 10733.6022, 
			 "electric_dipole_moment_norm": 1.99730057327, 
			 "electric_quadrupole_moment_norm": 15.1637902198, 
			 "total_energy": -1116.85000688, 
			 "HOMO_LUMO_gap": 0.18838, 
			 "cosmo_polarized_energy": -9.69, 
			 "cosmo_cavitation_energy": 39.5, 
			 "cosmo_dispersion_energy": -27.79, 
			 "cosmo_repulsion_energy": 2.05, 
			 "cosmo_total_nonelectrostatic_energy": 13.76, 
			 "SMD_solvation_energy": 8.11 
		},
		"coords": [
			{
				"x": 1.8948381335,
				"y": 4.7942308414,
				"z": 1.7492716105,
				"element": "C" 
			},
			{
				"x": 0.4039934508,
				"y": 4.5189093514,
				"z": 1.700673549,
				"element": "C" 
			},
			{
				"x": 0.2201685802,
				"y": 3.2155948415,
				"z": 1.0999923167,
				"element": "O" 
			},
			{
				"x": -1.0649178959,
				"y": 2.805601223,
				"z": 0.9780785568,
				"element": "C" 
			},
			{
				"x": -2.0117453106,
				"y": 3.4775830869,
				"z": 1.3446945401,
				"element": "O" 
			},
			{
				"x": -1.2172176483,
				"y": 1.4773610641,
				"z": 0.3641991276,
				"element": "C" 
			},
			{
				"x": -0.2978196188,
				"y": 0.5497404669,
				"z": -0.1214822388,
				"element": "C" 
			},
			{
				"x": 1.1946114958,
				"y": 0.6161274252,
				"z": -0.1744664404,
				"element": "C" 
			},
			{
				"x": -1.0628243946,
				"y": -0.5081624556,
				"z": -0.5744248545,
				"element": "N" 
			},
			{
				"x": -2.4105422722,
				"y": -0.2956336516,
				"z": -0.4002573419,
				"element": "N" 
			},
			{
				"x": -2.4951962997,
				"y": 0.8892308984,
				"z": 0.1595838288,
				"element": "C" 
			},
			{
				"x": -0.6734971552,
				"y": -1.732192121,
				"z": -1.1688103597,
				"element": "C" 
			},
			{
				"x": 0.6310199369,
				"y": -1.9439530343,
				"z": -1.3304897184,
				"element": "N" 
			},
			{
				"x": 1.0161220293,
				"y": -3.0964052372,
				"z": -1.8884111502,
				"element": "C" 
			},
			{
				"x": 0.1228224395,
				"y": -4.0788742059,
				"z": -2.3063318968,
				"element": "C" 
			},
			{
				"x": -1.24669226,
				"y": -3.8406687803,
				"z": -2.1335503519,
				"element": "C" 
			},
			{
				"x": -1.6639701873,
				"y": -2.6528252331,
				"z": -1.5577749616,
				"element": "C" 
			},
			{
				"x": 0.6046499805,
				"y": -5.3771312984,
				"z": -2.8859812243,
				"element": "C" 
			},
			{
				"x": 1.8747332499,
				"y": -5.2879214625,
				"z": -3.3343948835,
				"element": "F" 
			},
			{
				"x": 0.5727824707,
				"y": -6.3736052073,
				"z": -1.9716880331,
				"element": "F" 
			},
			{
				"x": -0.170747779,
				"y": -5.7730660744,
				"z": -3.9202199533,
				"element": "F" 
			},
			{
				"x": 2.0751679711,
				"y": 5.7753604336,
				"z": 2.1994491697,
				"element": "H" 
			},
			{
				"x": 2.413893179,
				"y": 4.0413523597,
				"z": 2.3496625812,
				"element": "H" 
			},
			{
				"x": 2.3273238398,
				"y": 4.7938195519,
				"z": 0.7444434721,
				"element": "H" 
			},
			{
				"x": -0.132670939,
				"y": 5.2616360273,
				"z": 1.1023431216,
				"element": "H" 
			},
			{
				"x": -0.0466270787,
				"y": 4.5140964463,
				"z": 2.6979431918,
				"element": "H" 
			},
			{
				"x": 1.5175365995,
				"y": 1.5661175497,
				"z": 0.2459447738,
				"element": "H" 
			},
			{
				"x": 1.6461223832,
				"y": -0.2072561758,
				"z": 0.3845578087,
				"element": "H" 
			},
			{
				"x": 1.5572169033,
				"y": 0.5241479185,
				"z": -1.2012492527,
				"element": "H" 
			},
			{
				"x": -3.4547485637,
				"y": 1.3174197996,
				"z": 0.4135824954,
				"element": "H" 
			},
			{
				"x": 2.0862787791,
				"y": -3.2364661513,
				"z": -2.0121324669,
				"element": "H" 
			},
			{
				"x": -1.9749199893,
				"y": -4.5778466321,
				"z": -2.4559378076,
				"element": "H" 
			},
			{
				"x": -2.7077440299,
				"y": -2.4179215647,
				"z": -1.404817208,
				"element": "H" 
			}
		],
		 "valence_orbital": [ 
			{
				"type": "occ",
				"energy": -0.29996,
				"method": "rhf"
			},
			{
				"type": "occ",
				"energy": -0.28526,
				"method": "rhf"
			},
			{
				"type": "occ",
				"energy": -0.27391,
				"method": "rhf"
			},
			{
				"type": "occ",
				"energy": -0.25941,
				"method": "rhf"
			},
			{
				"type": "occ",
				"energy": -0.24995,
				"method": "rhf"
			},
			{
				"type": "unocc",
				"energy": -0.06157,
				"method": "rhf"
			},
			{
				"type": "unocc",
				"energy": -0.04504,
				"method": "rhf"
			},
			{
				"type": "unocc",
				"energy": -0.01385,
				"method": "rhf"
			},
			{
				"type": "unocc",
				"energy": 0.01704,
				"method": "rhf"
			},
			{
				"type": "unocc",
				"energy": 0.0949,
				"method": "rhf"
			}
		],
		"cosmo_sigma_profile": { 
			"-0.025": 0.0,
			"-0.024": 0.0,
			"-0.023": 0.0,
			"-0.022": 0.0,
			"-0.021": 0.0,
			"-0.02": 0.0,
			"-0.019": 0.0,
			"-0.018": 0.0,
			"-0.017": 0.0,
			"-0.016": 0.0,
			"-0.015": 0.0,
			"-0.014": 0.0,
			"-0.013": 0.0,
			"-0.012": 0.0,
			"-0.011": 0.0,
			"-0.01": 0.0,
			"-0.009": 1.09655959698,
			"-0.008": 4.36676129556,
			"-0.007": 5.60755509789,
			"-0.006": 7.11582792135,
			"-0.005": 13.2461303909,
			"-0.004": 21.3346472581,
			"-0.003": 25.1061704708,
			"-0.002": 32.8578687264,
			"-0.001": 39.9157339022,
			"0.0": 39.657307236,
			"0.001": 26.8670408085,
			"0.002": 32.574971451,
			"0.003": 28.7690335082,
			"0.004": 6.73309727409,
			"0.005": 5.64270743143,
			"0.006": 4.3470142128,
			"0.007": 3.82742648653,
			"0.008": 3.5705911198,
			"0.009": 2.34038521951,
			"0.01": 2.87034267302,
			"0.011": 2.69819220843,
			"0.012": 4.78633247975,
			"0.013": 0.788329369735,
			"0.014": 0.0,
			"0.015": 0.0,
			"0.016": 0.0,
			"0.017": 0.0,
			"0.018": 0.0,
			"0.019": 0.0,
			"0.02": 0.0,
			"0.021": 0.0,
			"0.022": 0.0,
			"0.023": 0.0,
			"0.024": 0.0,
			"0.025": 0.0
		}
	}
}
