{
	 "smiles": "OC(=O)C1=CC(F)=C(F)C=C1F", 
	 "Tm": 372.15, 
	 "num_atms": 15, 
	 "gaussian": { 
		 "optdone": 1, 
		 "sigma_profile": "yes", 
		 "theory": "DFT", 
		 "functional": "B3LYP", 
		 "basiset": "6-31G**", 
		 "properties": { 
			 "R2extent": 2173.4227, 
			 "electric_dipole_moment_norm": 3.46486983594, 
			 "electric_quadrupole_moment_norm": 20.2469112452, 
			 "total_energy": -718.492318897, 
			 "HOMO_LUMO_gap": 0.2016, 
			 "cosmo_polarized_energy": -14.24, 
			 "cosmo_cavitation_energy": 22.04, 
			 "cosmo_dispersion_energy": -15.77, 
			 "cosmo_repulsion_energy": 1.19, 
			 "cosmo_total_nonelectrostatic_energy": 7.46, 
			 "SMD_solvation_energy": 6.49 
		},
		"coords": [
			{
				"x": -0.1309087893,
				"y": 2.999092132,
				"z": 2.0509334336,
				"element": "O" 
			},
			{
				"x": 0.1801277272,
				"y": 1.6977822741,
				"z": 2.3075586523,
				"element": "C" 
			},
			{
				"x": 0.523541513,
				"y": 1.3570898216,
				"z": 3.4101304368,
				"element": "O" 
			},
			{
				"x": 0.0257684421,
				"y": 0.7604165606,
				"z": 1.1459726558,
				"element": "C" 
			},
			{
				"x": -1.0055747147,
				"y": 0.9303090149,
				"z": 0.2056866998,
				"element": "C" 
			},
			{
				"x": -1.1747403102,
				"y": 0.0267168235,
				"z": -0.8296649352,
				"element": "C" 
			},
			{
				"x": -2.1681897219,
				"y": 0.1808511926,
				"z": -1.717790197,
				"element": "F" 
			},
			{
				"x": -0.3111076474,
				"y": -1.0637516747,
				"z": -0.9548526838,
				"element": "C" 
			},
			{
				"x": -0.4879559077,
				"y": -1.92170872,
				"z": -1.9647428338,
				"element": "F" 
			},
			{
				"x": 0.7173808769,
				"y": -1.257404559,
				"z": -0.0441581476,
				"element": "C" 
			},
			{
				"x": 0.867311877,
				"y": -0.3500273627,
				"z": 1.0008036279,
				"element": "C" 
			},
			{
				"x": 1.8740113672,
				"y": -0.5469231441,
				"z": 1.8579259108,
				"element": "F" 
			},
			{
				"x": -0.2079833583,
				"y": 3.1444118304,
				"z": 1.0974718267,
				"element": "H" 
			},
			{
				"x": -1.7157541612,
				"y": 1.7459833409,
				"z": 0.2949717268,
				"element": "H" 
			},
			{
				"x": 1.3919728072,
				"y": -2.0990375302,
				"z": -0.1444461733,
				"element": "H" 
			}
		],
		 "valence_orbital": [ 
			{
				"type": "occ",
				"energy": -0.37363,
				"method": "rhf"
			},
			{
				"type": "occ",
				"energy": -0.32795,
				"method": "rhf"
			},
			{
				"type": "occ",
				"energy": -0.29517,
				"method": "rhf"
			},
			{
				"type": "occ",
				"energy": -0.28446,
				"method": "rhf"
			},
			{
				"type": "occ",
				"energy": -0.26562,
				"method": "rhf"
			},
			{
				"type": "unocc",
				"energy": -0.06402,
				"method": "rhf"
			},
			{
				"type": "unocc",
				"energy": -0.03526,
				"method": "rhf"
			},
			{
				"type": "unocc",
				"energy": 0.02726,
				"method": "rhf"
			},
			{
				"type": "unocc",
				"energy": 0.04061,
				"method": "rhf"
			},
			{
				"type": "unocc",
				"energy": 0.0692,
				"method": "rhf"
			}
		],
		"cosmo_sigma_profile": { 
			"-0.025": 0.0,
			"-0.024": 0.0,
			"-0.023": 0.0,
			"-0.022": 0.0,
			"-0.021": 0.0,
			"-0.02": 0.00721715243332,
			"-0.019": 0.545192706804,
			"-0.018": 1.11666501279,
			"-0.017": 1.20539049375,
			"-0.016": 1.14372200982,
			"-0.015": 0.956210373807,
			"-0.014": 0.744070793618,
			"-0.013": 0.861216350444,
			"-0.012": 1.83831904718,
			"-0.011": 1.83888032662,
			"-0.01": 2.67658131621,
			"-0.009": 3.53805905869,
			"-0.008": 3.09744085419,
			"-0.007": 4.21948238854,
			"-0.006": 4.20885044547,
			"-0.005": 4.43703568237,
			"-0.004": 4.68466526941,
			"-0.003": 12.6077151073,
			"-0.002": 19.3520188687,
			"-0.001": 16.4363124571,
			"0.0": 8.52388489649,
			"0.001": 7.52375432422,
			"0.002": 12.2675922485,
			"0.003": 27.196671445,
			"0.004": 6.22451483258,
			"0.005": 2.8370848123,
			"0.006": 2.3083511741,
			"0.007": 3.33535372275,
			"0.008": 3.45292110528,
			"0.009": 3.94019093405,
			"0.01": 5.91580793222,
			"0.011": 6.20345059651,
			"0.012": 2.75738421601,
			"0.013": 0.26774534567,
			"0.014": 0.0,
			"0.015": 0.0,
			"0.016": 0.0,
			"0.017": 0.0,
			"0.018": 0.0,
			"0.019": 0.0,
			"0.02": 0.0,
			"0.021": 0.0,
			"0.022": 0.0,
			"0.023": 0.0,
			"0.024": 0.0,
			"0.025": 0.0
		}
	}
}
