{
	 "smiles": "CC(C)C1(CC2=CC=CO2)C(=O)NC(=O)NC1=O", 
	 "Tm": 442.15, 
	 "num_atms": 32, 
	 "gaussian": { 
		 "optdone": 1, 
		 "sigma_profile": "yes", 
		 "theory": "DFT", 
		 "functional": "B3LYP", 
		 "basiset": "6-31G**", 
		 "properties": { 
			 "R2extent": 4411.5752, 
			 "electric_dipole_moment_norm": 1.39324138253, 
			 "electric_quadrupole_moment_norm": 8.24616003119, 
			 "total_energy": -876.141450126, 
			 "HOMO_LUMO_gap": 0.16424, 
			 "cosmo_polarized_energy": -16.16, 
			 "cosmo_cavitation_energy": 33.71, 
			 "cosmo_dispersion_energy": -23.86, 
			 "cosmo_repulsion_energy": 1.81, 
			 "cosmo_total_nonelectrostatic_energy": 11.66, 
			 "SMD_solvation_energy": 8.45 
		},
		"coords": [
			{
				"x": -0.7977981452,
				"y": 2.5706842633,
				"z": -0.574045891,
				"element": "C" 
			},
			{
				"x": 0.3911055567,
				"y": 1.8291673976,
				"z": 0.0590666066,
				"element": "C" 
			},
			{
				"x": 0.6306601317,
				"y": 2.3172327073,
				"z": 1.4981508144,
				"element": "C" 
			},
			{
				"x": 0.2612079211,
				"y": 0.2410379947,
				"z": -0.0845061893,
				"element": "C" 
			},
			{
				"x": -1.0776169415,
				"y": -0.3818107867,
				"z": 0.4160009134,
				"element": "C" 
			},
			{
				"x": -1.6194578596,
				"y": 0.009038215,
				"z": 1.7539423449,
				"element": "C" 
			},
			{
				"x": -1.3971253273,
				"y": -0.3932365423,
				"z": 3.0389975261,
				"element": "C" 
			},
			{
				"x": -2.3080276379,
				"y": 0.3397030701,
				"z": 3.8675815909,
				"element": "C" 
			},
			{
				"x": -3.0274777528,
				"y": 1.1353050765,
				"z": 3.0301361921,
				"element": "C" 
			},
			{
				"x": -2.6288152256,
				"y": 0.9440304053,
				"z": 1.7393266309,
				"element": "O" 
			},
			{
				"x": 0.3606454533,
				"y": -0.0298540918,
				"z": -1.5978805588,
				"element": "C" 
			},
			{
				"x": -0.5986372542,
				"y": -0.1197677769,
				"z": -2.3395272451,
				"element": "O" 
			},
			{
				"x": 1.6516609359,
				"y": -0.0778126853,
				"z": -2.118637763,
				"element": "N" 
			},
			{
				"x": 2.8390594313,
				"y": -0.2514007031,
				"z": -1.4152289733,
				"element": "C" 
			},
			{
				"x": 3.9205515048,
				"y": -0.3482104342,
				"z": -1.9569550203,
				"element": "O" 
			},
			{
				"x": 2.6670855332,
				"y": -0.3411698102,
				"z": -0.0377978506,
				"element": "N" 
			},
			{
				"x": 1.4508572661,
				"y": -0.3871429646,
				"z": 0.6464032923,
				"element": "C" 
			},
			{
				"x": 1.4037839343,
				"y": -0.8470230625,
				"z": 1.7702267015,
				"element": "O" 
			},
			{
				"x": -0.9834489098,
				"y": 2.2607105534,
				"z": -1.6048854983,
				"element": "H" 
			},
			{
				"x": -0.5845232777,
				"y": 3.6446380891,
				"z": -0.5777218054,
				"element": "H" 
			},
			{
				"x": -1.7135336856,
				"y": 2.4146247714,
				"z": 0.0006642785,
				"element": "H" 
			},
			{
				"x": 1.2887461978,
				"y": 2.0902680098,
				"z": -0.5165147934,
				"element": "H" 
			},
			{
				"x": 1.4884391692,
				"y": 1.8331962624,
				"z": 1.9715400866,
				"element": "H" 
			},
			{
				"x": 0.8313208537,
				"y": 3.3934381756,
				"z": 1.4691128859,
				"element": "H" 
			},
			{
				"x": -0.2386379301,
				"y": 2.1564275398,
				"z": 2.1375227277,
				"element": "H" 
			},
			{
				"x": -1.8330089302,
				"y": -0.1517845509,
				"z": -0.3375197087,
				"element": "H" 
			},
			{
				"x": -0.9496812028,
				"y": -1.4690150909,
				"z": 0.4007706608,
				"element": "H" 
			},
			{
				"x": -0.6500587282,
				"y": -1.1063809251,
				"z": 3.3505518025,
				"element": "H" 
			},
			{
				"x": -2.4116936939,
				"y": 0.2766916435,
				"z": 4.9414498917,
				"element": "H" 
			},
			{
				"x": -3.8245295967,
				"y": 1.8477358595,
				"z": 3.1760201047,
				"element": "H" 
			},
			{
				"x": 1.7310805484,
				"y": -0.1440710265,
				"z": -3.1266916046,
				"element": "H" 
			},
			{
				"x": 3.4833676616,
				"y": -0.6538495832,
				"z": 0.4754478502,
				"element": "H" 
			}
		],
		 "valence_orbital": [ 
			{
				"type": "occ",
				"energy": -0.30511,
				"method": "rhf"
			},
			{
				"type": "occ",
				"energy": -0.29593,
				"method": "rhf"
			},
			{
				"type": "occ",
				"energy": -0.27366,
				"method": "rhf"
			},
			{
				"type": "occ",
				"energy": -0.26956,
				"method": "rhf"
			},
			{
				"type": "occ",
				"energy": -0.21822,
				"method": "rhf"
			},
			{
				"type": "unocc",
				"energy": -0.05398,
				"method": "rhf"
			},
			{
				"type": "unocc",
				"energy": -0.00617,
				"method": "rhf"
			},
			{
				"type": "unocc",
				"energy": 0.01321,
				"method": "rhf"
			},
			{
				"type": "unocc",
				"energy": 0.04418,
				"method": "rhf"
			},
			{
				"type": "unocc",
				"energy": 0.06543,
				"method": "rhf"
			}
		],
		"cosmo_sigma_profile": { 
			"-0.025": 0.0,
			"-0.024": 0.0,
			"-0.023": 0.0,
			"-0.022": 0.0,
			"-0.021": 0.0,
			"-0.02": 0.0,
			"-0.019": 0.0,
			"-0.018": 0.0,
			"-0.017": 0.423245606663,
			"-0.016": 2.22323144309,
			"-0.015": 1.15900353698,
			"-0.014": 1.83545603531,
			"-0.013": 1.52452855472,
			"-0.012": 1.92258900923,
			"-0.011": 1.96162201912,
			"-0.01": 2.8182374831,
			"-0.009": 2.75034973882,
			"-0.008": 4.59339553322,
			"-0.007": 6.39397806048,
			"-0.006": 10.1076848679,
			"-0.005": 10.9016015791,
			"-0.004": 18.3642710374,
			"-0.003": 21.6493433584,
			"-0.002": 20.3532947474,
			"-0.001": 20.5834415532,
			"0.0": 24.3771078411,
			"0.001": 19.230765378,
			"0.002": 12.5062423721,
			"0.003": 12.4698389629,
			"0.004": 11.8430724992,
			"0.005": 9.90152534656,
			"0.006": 8.39102384228,
			"0.007": 5.24695860372,
			"0.008": 6.10065548943,
			"0.009": 4.80666112554,
			"0.01": 6.80093144287,
			"0.011": 11.1567144955,
			"0.012": 4.04233185242,
			"0.013": 0.0123597692802,
			"0.014": 0.0,
			"0.015": 0.0,
			"0.016": 0.0,
			"0.017": 0.0,
			"0.018": 0.0,
			"0.019": 0.0,
			"0.02": 0.0,
			"0.021": 0.0,
			"0.022": 0.0,
			"0.023": 0.0,
			"0.024": 0.0,
			"0.025": 0.0
		}
	}
}
