{
	 "smiles": "CC1=NC(=NO1)C1=CC=C(Br)S1", 
	 "Tm": 327.65, 
	 "num_atms": 17, 
	 "gaussian": { 
		 "optdone": 1, 
		 "sigma_profile": "yes", 
		 "theory": "DFT", 
		 "functional": "B3LYP", 
		 "basiset": "6-31G**", 
		 "properties": { 
			 "R2extent": 5450.5002, 
			 "electric_dipole_moment_norm": 3.04174442549, 
			 "electric_quadrupole_moment_norm": 11.1294054819, 
			 "total_energy": -3424.02399122, 
			 "HOMO_LUMO_gap": 0.17108, 
			 "cosmo_polarized_energy": -7.82, 
			 "cosmo_cavitation_energy": 26.45, 
			 "cosmo_dispersion_energy": -20.63, 
			 "cosmo_repulsion_energy": 1.6, 
			 "cosmo_total_nonelectrostatic_energy": 7.43, 
			 "SMD_solvation_energy": 1.61 
		},
		"coords": [
			{
				"x": -1.8931733951,
				"y": -3.6360564949,
				"z": -1.0804165469,
				"element": "C" 
			},
			{
				"x": -1.0841811473,
				"y": -2.4116304175,
				"z": -0.8372722847,
				"element": "C" 
			},
			{
				"x": -1.4753554191,
				"y": -1.2589844689,
				"z": -0.3805564364,
				"element": "N" 
			},
			{
				"x": -0.2983985215,
				"y": -0.5312423905,
				"z": -0.3735891094,
				"element": "C" 
			},
			{
				"x": 0.7560930119,
				"y": -1.1921797365,
				"z": -0.7997519381,
				"element": "N" 
			},
			{
				"x": 0.2328783289,
				"y": -2.4573181729,
				"z": -1.1127156846,
				"element": "O" 
			},
			{
				"x": -0.2439688117,
				"y": 0.8482816484,
				"z": 0.0695518018,
				"element": "C" 
			},
			{
				"x": -1.2968848889,
				"y": 1.6049243801,
				"z": 0.5267791512,
				"element": "C" 
			},
			{
				"x": -0.9231298229,
				"y": 2.9286810321,
				"z": 0.8883037125,
				"element": "C" 
			},
			{
				"x": 0.4145527796,
				"y": 3.1495215361,
				"z": 0.696260499,
				"element": "C" 
			},
			{
				"x": 1.3521929292,
				"y": 4.7469215898,
				"z": 1.0362637696,
				"element": "Br" 
			},
			{
				"x": 1.2498194068,
				"y": 1.7572678778,
				"z": 0.0729521225,
				"element": "S" 
			},
			{
				"x": -1.5146354594,
				"y": -4.4715452314,
				"z": -0.4837442129,
				"element": "H" 
			},
			{
				"x": -2.9306429487,
				"y": -3.4394939349,
				"z": -0.8106572842,
				"element": "H" 
			},
			{
				"x": -1.8407233565,
				"y": -3.9284610771,
				"z": -2.133554465,
				"element": "H" 
			},
			{
				"x": -2.3029985192,
				"y": 1.2096998457,
				"z": 0.5958141455,
				"element": "H" 
			},
			{
				"x": -1.6033441661,
				"y": 3.6793140147,
				"z": 1.26983276,
				"element": "H" 
			}
		],
		 "valence_orbital": [ 
			{
				"type": "occ",
				"energy": -0.30245,
				"method": "rhf"
			},
			{
				"type": "occ",
				"energy": -0.30153,
				"method": "rhf"
			},
			{
				"type": "occ",
				"energy": -0.29354,
				"method": "rhf"
			},
			{
				"type": "occ",
				"energy": -0.26809,
				"method": "rhf"
			},
			{
				"type": "occ",
				"energy": -0.2298,
				"method": "rhf"
			},
			{
				"type": "unocc",
				"energy": -0.05872,
				"method": "rhf"
			},
			{
				"type": "unocc",
				"energy": -0.01146,
				"method": "rhf"
			},
			{
				"type": "unocc",
				"energy": -0.00779,
				"method": "rhf"
			},
			{
				"type": "unocc",
				"energy": 0.01637,
				"method": "rhf"
			},
			{
				"type": "unocc",
				"energy": 0.0313,
				"method": "rhf"
			}
		],
		"cosmo_sigma_profile": { 
			"-0.025": 0.0,
			"-0.024": 0.0,
			"-0.023": 0.0,
			"-0.022": 0.0,
			"-0.021": 0.0,
			"-0.02": 0.0,
			"-0.019": 0.0,
			"-0.018": 0.0,
			"-0.017": 0.0,
			"-0.016": 0.0,
			"-0.015": 0.0,
			"-0.014": 0.0,
			"-0.013": 0.0,
			"-0.012": 0.0,
			"-0.011": 0.0,
			"-0.01": 0.0,
			"-0.009": 0.313787683331,
			"-0.008": 3.74456070334,
			"-0.007": 9.58303937889,
			"-0.006": 10.6559591086,
			"-0.005": 11.8914109393,
			"-0.004": 13.7993308435,
			"-0.003": 14.1623490627,
			"-0.002": 14.7949313599,
			"-0.001": 14.3167814413,
			"0.0": 20.0814149352,
			"0.001": 28.4295285582,
			"0.002": 26.8486839679,
			"0.003": 18.9886345946,
			"0.004": 5.82223774447,
			"0.005": 3.5088996514,
			"0.006": 6.22352333725,
			"0.007": 4.60132688394,
			"0.008": 2.21203069343,
			"0.009": 2.52149562136,
			"0.01": 2.26815314412,
			"0.011": 2.3213811247,
			"0.012": 1.5954821376,
			"0.013": 0.297503378879,
			"0.014": 0.0,
			"0.015": 0.0,
			"0.016": 0.0,
			"0.017": 0.0,
			"0.018": 0.0,
			"0.019": 0.0,
			"0.02": 0.0,
			"0.021": 0.0,
			"0.022": 0.0,
			"0.023": 0.0,
			"0.024": 0.0,
			"0.025": 0.0
		}
	}
}
