{
	 "smiles": "CC1=CC(I)=C(Br)N=C1", 
	 "Tm": 358.15, 
	 "num_atms": 14, 
	 "gaussian": { 
		 "optdone": 1, 
		 "sigma_profile": "no", 
		 "theory": "DFT", 
		 "functional": "B3LYP", 
		 "basiset": "6-31G**", 
		 "properties": { 
			 "R2extent": 4044.4577, 
			 "electric_dipole_moment_norm": 3.75306656216, 
			 "electric_quadrupole_moment_norm": 8.64345089186, 
			 "total_energy": -2869.18747502, 
			 "HOMO_LUMO_gap": 0.19622, 
			 "cosmo_polarized_energy": -88758.39, 
			 "cosmo_cavitation_energy": 23.5, 
			 "cosmo_dispersion_energy": -19.17, 
			 "cosmo_repulsion_energy": 1.53, 
			 "cosmo_total_nonelectrostatic_energy": 5.86, 
			 "SMD_solvation_energy": 0.88 
		},
		"coords": [
			{
				"x": 2.0298057374,
				"y": -0.5881304139,
				"z": -0.3446353986,
				"element": "C" 
			},
			{
				"x": 0.7778514119,
				"y": -0.0233884461,
				"z": -0.9660050634,
				"element": "C" 
			},
			{
				"x": -0.1926769226,
				"y": 0.6325531242,
				"z": -0.1982968169,
				"element": "C" 
			},
			{
				"x": -1.3420316632,
				"y": 1.1458018867,
				"z": -0.7984788127,
				"element": "C" 
			},
			{
				"x": -2.7624436277,
				"y": 2.1220759041,
				"z": 0.4192366444,
				"element": "I" 
			},
			{
				"x": -1.4810373996,
				"y": 0.9780374412,
				"z": -2.1878001753,
				"element": "C" 
			},
			{
				"x": -3.0095294401,
				"y": 1.634503758,
				"z": -3.1358529602,
				"element": "Br" 
			},
			{
				"x": -0.5754571462,
				"y": 0.3626269755,
				"z": -2.9233271684,
				"element": "N" 
			},
			{
				"x": 0.5219318608,
				"y": -0.1248570375,
				"z": -2.3350718795,
				"element": "C" 
			},
			{
				"x": 2.6180082252,
				"y": 0.1946179027,
				"z": 0.1467278118,
				"element": "H" 
			},
			{
				"x": 2.6647232675,
				"y": -1.0606313811,
				"z": -1.0986249791,
				"element": "H" 
			},
			{
				"x": 1.7922495417,
				"y": -1.3417382977,
				"z": 0.4141526751,
				"element": "H" 
			},
			{
				"x": -0.0517844457,
				"y": 0.7437160757,
				"z": 0.8722499034,
				"element": "H" 
			},
			{
				"x": 1.2317906006,
				"y": -0.6215874918,
				"z": -2.9938737806,
				"element": "H" 
			}
		],
		 "valence_orbital": [ 
			{
				"type": "occ",
				"energy": -0.29998,
				"method": "rhf"
			},
			{
				"type": "occ",
				"energy": -0.28141,
				"method": "rhf"
			},
			{
				"type": "occ",
				"energy": -0.27074,
				"method": "rhf"
			},
			{
				"type": "occ",
				"energy": -0.26048,
				"method": "rhf"
			},
			{
				"type": "occ",
				"energy": -0.2486,
				"method": "rhf"
			},
			{
				"type": "unocc",
				"energy": -0.05238,
				"method": "rhf"
			},
			{
				"type": "unocc",
				"energy": -0.04731,
				"method": "rhf"
			},
			{
				"type": "unocc",
				"energy": -0.03302,
				"method": "rhf"
			},
			{
				"type": "unocc",
				"energy": 0.01275,
				"method": "rhf"
			},
			{
				"type": "unocc",
				"energy": 0.04569,
				"method": "rhf"
			}
		],
		"cosmo_sigma_profile": { 
			"0.0": 0.0,
			"0.0": 0.0,
			"0.0": 0.0,
			"0.0": 0.0,
			"0.0": 0.0,
			"0.0": 0.0,
			"0.0": 0.0,
			"0.0": 0.0,
			"0.0": 0.0,
			"0.0": 0.0,
			"0.0": 0.0,
			"0.0": 0.0,
			"0.0": 0.0,
			"0.0": 0.0,
			"0.0": 0.0,
			"0.0": 0.0,
			"0.0": 0.0,
			"0.0": 0.0,
			"0.0": 0.0,
			"0.0": 0.0,
			"0.0": 0.0,
			"0.0": 0.0,
			"0.0": 0.0,
			"0.0": 0.0,
			"0.0": 0.0,
			"0.0": 0.0,
			"0.0": 0.0,
			"0.0": 0.0,
			"0.0": 0.0,
			"0.0": 0.0,
			"0.0": 0.0,
			"0.0": 0.0,
			"0.0": 0.0,
			"0.0": 0.0,
			"0.0": 0.0,
			"0.0": 0.0,
			"0.0": 0.0,
			"0.0": 0.0,
			"0.0": 0.0,
			"0.0": 0.0,
			"0.0": 0.0,
			"0.0": 0.0,
			"0.0": 0.0,
			"0.0": 0.0,
			"0.0": 0.0,
			"0.0": 0.0,
			"0.0": 0.0,
			"0.0": 0.0,
			"0.0": 0.0,
			"0.0": 0.0,
			"0.0": 0.0
		}
	}
}
