{
	 "smiles": "ClC1=C(Cl)C2=C(S1)C=CC=C2", 
	 "Tm": 327.15, 
	 "num_atms": 15, 
	 "gaussian": { 
		 "optdone": 1, 
		 "sigma_profile": "yes", 
		 "theory": "DFT", 
		 "functional": "B3LYP", 
		 "basiset": "6-31G**", 
		 "properties": { 
			 "R2extent": 3448.2319, 
			 "electric_dipole_moment_norm": 2.31450944695, 
			 "electric_quadrupole_moment_norm": 4.3977175023, 
			 "total_energy": -1625.82556815, 
			 "HOMO_LUMO_gap": 0.18444, 
			 "cosmo_polarized_energy": -3.64, 
			 "cosmo_cavitation_energy": 24.31, 
			 "cosmo_dispersion_energy": -18.97, 
			 "cosmo_repulsion_energy": 1.46, 
			 "cosmo_total_nonelectrostatic_energy": 6.8, 
			 "SMD_solvation_energy": 3.07 
		},
		"coords": [
			{
				"x": -2.2464331139,
				"y": 3.9588188631,
				"z": -0.3083382791,
				"element": "Cl" 
			},
			{
				"x": -1.1018956398,
				"y": 2.687191344,
				"z": -0.120604026,
				"element": "C" 
			},
			{
				"x": -0.8991131917,
				"y": 1.6306212683,
				"z": -0.9556115941,
				"element": "C" 
			},
			{
				"x": -1.7905377351,
				"y": 1.3600562079,
				"z": -2.4187278591,
				"element": "Cl" 
			},
			{
				"x": 0.1436646544,
				"y": 0.7400300776,
				"z": -0.5047947058,
				"element": "C" 
			},
			{
				"x": 0.7123948816,
				"y": 1.1839017724,
				"z": 0.7120622402,
				"element": "C" 
			},
			{
				"x": -0.0355897478,
				"y": 2.6734508272,
				"z": 1.2773196811,
				"element": "S" 
			},
			{
				"x": 1.7426851842,
				"y": 0.4758020718,
				"z": 1.3369208504,
				"element": "C" 
			},
			{
				"x": 2.2041465545,
				"y": -0.6886491722,
				"z": 0.7317567737,
				"element": "C" 
			},
			{
				"x": 1.648032268,
				"y": -1.1415293755,
				"z": -0.4777934744,
				"element": "C" 
			},
			{
				"x": 0.6246169527,
				"y": -0.4385832852,
				"z": -1.0989286746,
				"element": "C" 
			},
			{
				"x": 2.1718734109,
				"y": 0.82557803,
				"z": 2.2706784912,
				"element": "H" 
			},
			{
				"x": 3.0038993323,
				"y": -1.2533821047,
				"z": 1.2010325466,
				"element": "H" 
			},
			{
				"x": 2.0247366174,
				"y": -2.0532128886,
				"z": -0.9311824605,
				"element": "H" 
			},
			{
				"x": 0.1929195723,
				"y": -0.784793636,
				"z": -2.0322895097,
				"element": "H" 
			}
		],
		 "valence_orbital": [ 
			{
				"type": "occ",
				"energy": -0.32456,
				"method": "rhf"
			},
			{
				"type": "occ",
				"energy": -0.32254,
				"method": "rhf"
			},
			{
				"type": "occ",
				"energy": -0.28597,
				"method": "rhf"
			},
			{
				"type": "occ",
				"energy": -0.24676,
				"method": "rhf"
			},
			{
				"type": "occ",
				"energy": -0.22767,
				"method": "rhf"
			},
			{
				"type": "unocc",
				"energy": -0.04323,
				"method": "rhf"
			},
			{
				"type": "unocc",
				"energy": -0.01579,
				"method": "rhf"
			},
			{
				"type": "unocc",
				"energy": -0.00991,
				"method": "rhf"
			},
			{
				"type": "unocc",
				"energy": 0.00881,
				"method": "rhf"
			},
			{
				"type": "unocc",
				"energy": 0.0301,
				"method": "rhf"
			}
		],
		"cosmo_sigma_profile": { 
			"-0.025": 0.0,
			"-0.024": 0.0,
			"-0.023": 0.0,
			"-0.022": 0.0,
			"-0.021": 0.0,
			"-0.02": 0.0,
			"-0.019": 0.0,
			"-0.018": 0.0,
			"-0.017": 0.0,
			"-0.016": 0.0,
			"-0.015": 0.0,
			"-0.014": 0.0,
			"-0.013": 0.0,
			"-0.012": 0.0,
			"-0.011": 0.0,
			"-0.01": 0.0,
			"-0.009": 0.00164965362673,
			"-0.008": 1.96052666745,
			"-0.007": 3.69594479891,
			"-0.006": 8.17080650616,
			"-0.005": 9.10144773983,
			"-0.004": 10.5418579277,
			"-0.003": 10.1787945222,
			"-0.002": 12.9927245324,
			"-0.001": 15.6250061458,
			"0.0": 28.9330340151,
			"0.001": 27.3241566207,
			"0.002": 25.7574138492,
			"0.003": 28.2442074259,
			"0.004": 18.9671707614,
			"0.005": 1.77187507869,
			"0.006": 0.0,
			"0.007": 0.0,
			"0.008": 0.0,
			"0.009": 0.0,
			"0.01": 0.0,
			"0.011": 0.0,
			"0.012": 0.0,
			"0.013": 0.0,
			"0.014": 0.0,
			"0.015": 0.0,
			"0.016": 0.0,
			"0.017": 0.0,
			"0.018": 0.0,
			"0.019": 0.0,
			"0.02": 0.0,
			"0.021": 0.0,
			"0.022": 0.0,
			"0.023": 0.0,
			"0.024": 0.0,
			"0.025": 0.0
		}
	}
}
