{
	 "smiles": "CC1=C(SC=N1)C(=O)NC1CCNCC1", 
	 "Tm": 410.15, 
	 "num_atms": 30, 
	 "gaussian": { 
		 "optdone": 1, 
		 "sigma_profile": "yes", 
		 "theory": "DFT", 
		 "functional": "B3LYP", 
		 "basiset": "6-31G**", 
		 "properties": { 
			 "R2extent": 4374.2021, 
			 "electric_dipole_moment_norm": 3.44700486945, 
			 "electric_quadrupole_moment_norm": 8.83206308458, 
			 "total_energy": -1027.78057619, 
			 "HOMO_LUMO_gap": 0.17766, 
			 "cosmo_polarized_energy": -15.65, 
			 "cosmo_cavitation_energy": 33.12, 
			 "cosmo_dispersion_energy": -24.16, 
			 "cosmo_repulsion_energy": 1.84, 
			 "cosmo_total_nonelectrostatic_energy": 10.8, 
			 "SMD_solvation_energy": 1.61 
		},
		"coords": [
			{
				"x": -0.5618311309,
				"y": 0.4822630383,
				"z": -2.824833513,
				"element": "C" 
			},
			{
				"x": 0.8993778981,
				"y": 0.713917886,
				"z": -2.5483782188,
				"element": "C" 
			},
			{
				"x": 1.510927555,
				"y": 0.885123525,
				"z": -1.320185294,
				"element": "C" 
			},
			{
				"x": 3.2175331778,
				"y": 1.1651371408,
				"z": -1.5450005984,
				"element": "S" 
			},
			{
				"x": 2.9742731161,
				"y": 1.0078571482,
				"z": -3.2508936652,
				"element": "C" 
			},
			{
				"x": 1.746308037,
				"y": 0.7841186561,
				"z": -3.633934965,
				"element": "N" 
			},
			{
				"x": 1.0252407443,
				"y": 0.9091871963,
				"z": 0.085188465,
				"element": "C" 
			},
			{
				"x": 1.7591125552,
				"y": 1.3047668588,
				"z": 0.9917780029,
				"element": "O" 
			},
			{
				"x": -0.2546623534,
				"y": 0.4852812835,
				"z": 0.3111648589,
				"element": "N" 
			},
			{
				"x": -0.8073189814,
				"y": 0.4375472663,
				"z": 1.6704959865,
				"element": "C" 
			},
			{
				"x": -0.34412474,
				"y": -0.8148888433,
				"z": 2.4458063783,
				"element": "C" 
			},
			{
				"x": -1.0217724424,
				"y": -2.0847869798,
				"z": 1.9232838317,
				"element": "C" 
			},
			{
				"x": -2.4768042521,
				"y": -1.9262600833,
				"z": 1.989540552,
				"element": "N" 
			},
			{
				"x": -2.9511205305,
				"y": -0.8368848633,
				"z": 1.1402329648,
				"element": "C" 
			},
			{
				"x": -2.3442511985,
				"y": 0.4897393003,
				"z": 1.6182200624,
				"element": "C" 
			},
			{
				"x": -1.2003496564,
				"y": 1.1426190964,
				"z": -2.2303015115,
				"element": "H" 
			},
			{
				"x": -0.7531294311,
				"y": 0.6703437625,
				"z": -3.8826208883,
				"element": "H" 
			},
			{
				"x": -0.8572022009,
				"y": -0.5557090404,
				"z": -2.620707706,
				"element": "H" 
			},
			{
				"x": 3.8047128181,
				"y": 1.1010969238,
				"z": -3.9418387178,
				"element": "H" 
			},
			{
				"x": -0.7496223403,
				"y": 0.0087368119,
				"z": -0.4257011545,
				"element": "H" 
			},
			{
				"x": -0.4191638723,
				"y": 1.3250192592,
				"z": 2.1767078937,
				"element": "H" 
			},
			{
				"x": 0.744870754,
				"y": -0.895660163,
				"z": 2.3832184322,
				"element": "H" 
			},
			{
				"x": -0.6098961445,
				"y": -0.6843653455,
				"z": 3.5014121338,
				"element": "H" 
			},
			{
				"x": -0.7346022834,
				"y": -2.9435207486,
				"z": 2.5391516692,
				"element": "H" 
			},
			{
				"x": -0.663595043,
				"y": -2.2932926331,
				"z": 0.8948469547,
				"element": "H" 
			},
			{
				"x": -2.9358551677,
				"y": -2.7948197454,
				"z": 1.7311945542,
				"element": "H" 
			},
			{
				"x": -4.0436016126,
				"y": -0.7870387528,
				"z": 1.2029912572,
				"element": "H" 
			},
			{
				"x": -2.7087538284,
				"y": -0.9944921516,
				"z": 0.0667700192,
				"element": "H" 
			},
			{
				"x": -2.6728710576,
				"y": 1.3152885302,
				"z": 0.9767189634,
				"element": "H" 
			},
			{
				"x": -2.7122283882,
				"y": 0.6871756664,
				"z": 2.6306732523,
				"element": "H" 
			}
		],
		 "valence_orbital": [ 
			{
				"type": "occ",
				"energy": -0.28162,
				"method": "rhf"
			},
			{
				"type": "occ",
				"energy": -0.25737,
				"method": "rhf"
			},
			{
				"type": "occ",
				"energy": -0.24876,
				"method": "rhf"
			},
			{
				"type": "occ",
				"energy": -0.24622,
				"method": "rhf"
			},
			{
				"type": "occ",
				"energy": -0.22764,
				"method": "rhf"
			},
			{
				"type": "unocc",
				"energy": -0.04998,
				"method": "rhf"
			},
			{
				"type": "unocc",
				"energy": 0.0167,
				"method": "rhf"
			},
			{
				"type": "unocc",
				"energy": 0.02454,
				"method": "rhf"
			},
			{
				"type": "unocc",
				"energy": 0.0537,
				"method": "rhf"
			},
			{
				"type": "unocc",
				"energy": 0.08302,
				"method": "rhf"
			}
		],
		"cosmo_sigma_profile": { 
			"-0.025": 0.0,
			"-0.024": 0.0,
			"-0.023": 0.0,
			"-0.022": 0.0,
			"-0.021": 0.0,
			"-0.02": 0.0,
			"-0.019": 0.0,
			"-0.018": 0.0,
			"-0.017": 0.0,
			"-0.016": 0.0,
			"-0.015": 0.0,
			"-0.014": 0.0,
			"-0.013": 0.0,
			"-0.012": 0.0,
			"-0.011": 0.459559567205,
			"-0.01": 4.39367372658,
			"-0.009": 5.62730469978,
			"-0.008": 4.99577203211,
			"-0.007": 5.93160937698,
			"-0.006": 6.49691497086,
			"-0.005": 9.38624999173,
			"-0.004": 14.8761053435,
			"-0.003": 27.3074309996,
			"-0.002": 29.5305628828,
			"-0.001": 34.6755236455,
			"0.0": 29.7796315201,
			"0.001": 19.0468072048,
			"0.002": 13.969370918,
			"0.003": 9.24685847043,
			"0.004": 5.44343690462,
			"0.005": 4.22959985673,
			"0.006": 3.93865246285,
			"0.007": 3.76759560909,
			"0.008": 4.08429715876,
			"0.009": 3.01636349871,
			"0.01": 3.68728343227,
			"0.011": 3.03016952235,
			"0.012": 3.52601923616,
			"0.013": 5.39278440029,
			"0.014": 4.13856410836,
			"0.015": 0.710537054864,
			"0.016": 0.539006459771,
			"0.017": 0.59722070946,
			"0.018": 0.264512722769,
			"0.019": 0.0,
			"0.02": 0.0,
			"0.021": 0.0,
			"0.022": 0.0,
			"0.023": 0.0,
			"0.024": 0.0,
			"0.025": 0.0
		}
	}
}
