{
	 "smiles": "CSC1=NN=C(N)S1", 
	 "Tm": 451.15, 
	 "num_atms": 13, 
	 "gaussian": { 
		 "optdone": 1, 
		 "sigma_profile": "yes", 
		 "theory": "DFT", 
		 "functional": "B3LYP", 
		 "basiset": "6-31G**", 
		 "properties": { 
			 "R2extent": 1952.2283, 
			 "electric_dipole_moment_norm": 1.93397411565, 
			 "electric_quadrupole_moment_norm": 14.5669954194, 
			 "total_energy": -1077.92717599, 
			 "HOMO_LUMO_gap": 0.19669, 
			 "cosmo_polarized_energy": -13.09, 
			 "cosmo_cavitation_energy": 20.64, 
			 "cosmo_dispersion_energy": -16.6, 
			 "cosmo_repulsion_energy": 1.29, 
			 "cosmo_total_nonelectrostatic_energy": 5.33, 
			 "SMD_solvation_energy": 1.74 
		},
		"coords": [
			{
				"x": 0.6171909324,
				"y": 2.2851415416,
				"z": 3.5456762771,
				"element": "C" 
			},
			{
				"x": -0.6763546112,
				"y": 1.0687195067,
				"z": 3.1132126609,
				"element": "S" 
			},
			{
				"x": -0.4084460425,
				"y": 0.9782768976,
				"z": 1.3744176248,
				"element": "C" 
			},
			{
				"x": 0.4809878128,
				"y": 1.6511574855,
				"z": 0.7129629116,
				"element": "N" 
			},
			{
				"x": 0.4953160785,
				"y": 1.3676602541,
				"z": -0.6335789051,
				"element": "N" 
			},
			{
				"x": -0.4041987435,
				"y": 0.4908907392,
				"z": -0.975398455,
				"element": "C" 
			},
			{
				"x": -0.6472429296,
				"y": 0.1105786102,
				"z": -2.2761022971,
				"element": "N" 
			},
			{
				"x": -1.3901011821,
				"y": -0.1034435929,
				"z": 0.3679560156,
				"element": "S" 
			},
			{
				"x": 0.5424839489,
				"y": 2.4226158032,
				"z": 4.6260678917,
				"element": "H" 
			},
			{
				"x": 1.6019689334,
				"y": 1.9017221014,
				"z": 3.2783701632,
				"element": "H" 
			},
			{
				"x": 0.4373520865,
				"y": 3.228079509,
				"z": 3.0293191992,
				"element": "H" 
			},
			{
				"x": -0.8933147604,
				"y": -0.8587862418,
				"z": -2.4224605147,
				"element": "H" 
			},
			{
				"x": 0.0720584768,
				"y": 0.4400873863,
				"z": -2.9086425722,
				"element": "H" 
			}
		],
		 "valence_orbital": [ 
			{
				"type": "occ",
				"energy": -0.29981,
				"method": "rhf"
			},
			{
				"type": "occ",
				"energy": -0.29681,
				"method": "rhf"
			},
			{
				"type": "occ",
				"energy": -0.26801,
				"method": "rhf"
			},
			{
				"type": "occ",
				"energy": -0.26163,
				"method": "rhf"
			},
			{
				"type": "occ",
				"energy": -0.21518,
				"method": "rhf"
			},
			{
				"type": "unocc",
				"energy": -0.01849,
				"method": "rhf"
			},
			{
				"type": "unocc",
				"energy": -0.00931,
				"method": "rhf"
			},
			{
				"type": "unocc",
				"energy": 0.02258,
				"method": "rhf"
			},
			{
				"type": "unocc",
				"energy": 0.04437,
				"method": "rhf"
			},
			{
				"type": "unocc",
				"energy": 0.05253,
				"method": "rhf"
			}
		],
		"cosmo_sigma_profile": { 
			"-0.025": 0.0,
			"-0.024": 0.0,
			"-0.023": 0.0,
			"-0.022": 0.0,
			"-0.021": 0.0,
			"-0.02": 0.0,
			"-0.019": 0.0,
			"-0.018": 0.0,
			"-0.017": 0.0,
			"-0.016": 0.0714118823965,
			"-0.015": 1.19961223522,
			"-0.014": 2.52513117118,
			"-0.013": 2.52768817965,
			"-0.012": 2.77708739594,
			"-0.011": 2.99130200113,
			"-0.01": 2.26688577848,
			"-0.009": 1.65862062613,
			"-0.008": 3.31224792416,
			"-0.007": 3.59997185858,
			"-0.006": 5.49865750587,
			"-0.005": 7.64619275045,
			"-0.004": 8.48781726219,
			"-0.003": 10.2245295201,
			"-0.002": 12.1502119507,
			"-0.001": 10.9935253609,
			"0.0": 13.5065602377,
			"0.001": 12.4469422366,
			"0.002": 12.6563465146,
			"0.003": 10.1544479868,
			"0.004": 7.14884713715,
			"0.005": 5.00291677579,
			"0.006": 5.29400000116,
			"0.007": 4.67171990169,
			"0.008": 2.10015743347,
			"0.009": 2.93081254096,
			"0.01": 3.70159591363,
			"0.011": 2.60285970768,
			"0.012": 3.44965956767,
			"0.013": 2.80175297597,
			"0.014": 1.52604508607,
			"0.015": 0.852818393631,
			"0.016": 0.102320702261,
			"0.017": 0.0,
			"0.018": 0.0,
			"0.019": 0.0,
			"0.02": 0.0,
			"0.021": 0.0,
			"0.022": 0.0,
			"0.023": 0.0,
			"0.024": 0.0,
			"0.025": 0.0
		}
	}
}
