{
	 "smiles": "CN1CCOC2=C1N=CC(=C2)S(Cl)(=O)=O", 
	 "Tm": 404.15, 
	 "num_atms": 24, 
	 "gaussian": { 
		 "optdone": 1, 
		 "sigma_profile": "yes", 
		 "theory": "DFT", 
		 "functional": "B3LYP", 
		 "basiset": "6-31G**", 
		 "properties": { 
			 "R2extent": 5796.8406, 
			 "electric_dipole_moment_norm": 9.0284577786, 
			 "electric_quadrupole_moment_norm": 15.1333821805, 
			 "total_energy": -1503.75158871, 
			 "HOMO_LUMO_gap": 0.14447, 
			 "cosmo_polarized_energy": -13.84, 
			 "cosmo_cavitation_energy": 30.83, 
			 "cosmo_dispersion_energy": -23.5, 
			 "cosmo_repulsion_energy": 1.8, 
			 "cosmo_total_nonelectrostatic_energy": 9.13, 
			 "SMD_solvation_energy": 2.67 
		},
		"coords": [
			{
				"x": 1.171024527,
				"y": 1.0996073926,
				"z": 2.2457469751,
				"element": "C" 
			},
			{
				"x": 0.1400099688,
				"y": 0.9904414698,
				"z": 1.2238639311,
				"element": "N" 
			},
			{
				"x": -1.0856678563,
				"y": 1.7547756386,
				"z": 1.4036878968,
				"element": "C" 
			},
			{
				"x": -1.799148616,
				"y": 1.8988736702,
				"z": 0.0661162326,
				"element": "C" 
			},
			{
				"x": -2.0732411548,
				"y": 0.6154865314,
				"z": -0.5008666932,
				"element": "O" 
			},
			{
				"x": -0.9948629638,
				"y": -0.224054996,
				"z": -0.5373447813,
				"element": "C" 
			},
			{
				"x": 0.1244070279,
				"y": -0.0579353375,
				"z": 0.3400539304,
				"element": "C" 
			},
			{
				"x": 1.1696160584,
				"y": -0.898619179,
				"z": 0.3174212411,
				"element": "N" 
			},
			{
				"x": 1.171651711,
				"y": -1.9152933726,
				"z": -0.5455441032,
				"element": "C" 
			},
			{
				"x": 0.1090563948,
				"y": -2.14661598,
				"z": -1.4154318747,
				"element": "C" 
			},
			{
				"x": -0.9963407986,
				"y": -1.2795113565,
				"z": -1.4223637115,
				"element": "C" 
			},
			{
				"x": 0.154085963,
				"y": -3.520661878,
				"z": -2.5214259488,
				"element": "S" 
			},
			{
				"x": 0.9397631703,
				"y": -2.6315299709,
				"z": -4.312855279,
				"element": "Cl" 
			},
			{
				"x": 1.1660758871,
				"y": -4.4718627801,
				"z": -2.0773927896,
				"element": "O" 
			},
			{
				"x": -1.2067286916,
				"y": -3.9253202063,
				"z": -2.8553029976,
				"element": "O" 
			},
			{
				"x": 0.8609271234,
				"y": 0.6266028579,
				"z": 3.1883393207,
				"element": "H" 
			},
			{
				"x": 1.3758606007,
				"y": 2.1576189212,
				"z": 2.4367102598,
				"element": "H" 
			},
			{
				"x": 2.0758141242,
				"y": 0.6079771036,
				"z": 1.8938015165,
				"element": "H" 
			},
			{
				"x": -1.7542652428,
				"y": 1.2762987746,
				"z": 2.1358174775,
				"element": "H" 
			},
			{
				"x": -0.827981746,
				"y": 2.7475614741,
				"z": 1.7889796479,
				"element": "H" 
			},
			{
				"x": -2.7675121477,
				"y": 2.3876148451,
				"z": 0.1881456751,
				"element": "H" 
			},
			{
				"x": -1.1865528643,
				"y": 2.4872793986,
				"z": -0.6291495971,
				"element": "H" 
			},
			{
				"x": 2.0316578363,
				"y": -2.5780504954,
				"z": -0.5303410412,
				"element": "H" 
			},
			{
				"x": -1.8387483111,
				"y": -1.4313825253,
				"z": -2.0873652874,
				"element": "H" 
			}
		],
		 "valence_orbital": [ 
			{
				"type": "occ",
				"energy": -0.31255,
				"method": "rhf"
			},
			{
				"type": "occ",
				"energy": -0.30233,
				"method": "rhf"
			},
			{
				"type": "occ",
				"energy": -0.28254,
				"method": "rhf"
			},
			{
				"type": "occ",
				"energy": -0.27905,
				"method": "rhf"
			},
			{
				"type": "occ",
				"energy": -0.22488,
				"method": "rhf"
			},
			{
				"type": "unocc",
				"energy": -0.08041,
				"method": "rhf"
			},
			{
				"type": "unocc",
				"energy": -0.03931,
				"method": "rhf"
			},
			{
				"type": "unocc",
				"energy": -0.02545,
				"method": "rhf"
			},
			{
				"type": "unocc",
				"energy": 0.06019,
				"method": "rhf"
			},
			{
				"type": "unocc",
				"energy": 0.06897,
				"method": "rhf"
			}
		],
		"cosmo_sigma_profile": { 
			"-0.025": 0.0,
			"-0.024": 0.0,
			"-0.023": 0.0,
			"-0.022": 0.0,
			"-0.021": 0.0,
			"-0.02": 0.0,
			"-0.019": 0.0,
			"-0.018": 0.0,
			"-0.017": 0.0,
			"-0.016": 0.0,
			"-0.015": 0.0,
			"-0.014": 0.0,
			"-0.013": 0.0,
			"-0.012": 0.0,
			"-0.011": 0.0,
			"-0.01": 0.0,
			"-0.009": 0.448106925282,
			"-0.008": 1.87488466799,
			"-0.007": 11.4529063369,
			"-0.006": 17.1222106755,
			"-0.005": 20.4169863138,
			"-0.004": 20.7302147317,
			"-0.003": 17.4595094152,
			"-0.002": 18.7165307554,
			"-0.001": 15.8215537829,
			"0.0": 18.3105581488,
			"0.001": 15.2184184208,
			"0.002": 13.2686649429,
			"0.003": 12.471588208,
			"0.004": 19.6126142669,
			"0.005": 8.47927706998,
			"0.006": 5.91434637204,
			"0.007": 6.90543818214,
			"0.008": 13.0598613886,
			"0.009": 9.16220172424,
			"0.01": 1.84358679289,
			"0.011": 0.218962123079,
			"0.012": 0.0,
			"0.013": 0.0,
			"0.014": 0.0,
			"0.015": 0.0,
			"0.016": 0.0,
			"0.017": 0.0,
			"0.018": 0.0,
			"0.019": 0.0,
			"0.02": 0.0,
			"0.021": 0.0,
			"0.022": 0.0,
			"0.023": 0.0,
			"0.024": 0.0,
			"0.025": 0.0
		}
	}
}
