{
	 "smiles": "CC1=CC2=C(S1)N=CN=C2Cl", 
	 "Tm": 353.15, 
	 "num_atms": 16, 
	 "gaussian": { 
		 "optdone": 1, 
		 "sigma_profile": "yes", 
		 "theory": "DFT", 
		 "functional": "B3LYP", 
		 "basiset": "6-31G**", 
		 "properties": { 
			 "R2extent": 2812.442, 
			 "electric_dipole_moment_norm": 3.48809847768, 
			 "electric_quadrupole_moment_norm": 7.42516166558, 
			 "total_energy": -1237.6422836, 
			 "HOMO_LUMO_gap": 0.18709, 
			 "cosmo_polarized_energy": -6.86, 
			 "cosmo_cavitation_energy": 23.84, 
			 "cosmo_dispersion_energy": -18.53, 
			 "cosmo_repulsion_energy": 1.43, 
			 "cosmo_total_nonelectrostatic_energy": 6.74, 
			 "SMD_solvation_energy": 0.49 
		},
		"coords": [
			{
				"x": 2.3216381079,
				"y": -0.0539159073,
				"z": -1.5712785411,
				"element": "C" 
			},
			{
				"x": 0.9401581282,
				"y": 0.0893486634,
				"z": -1.0111413915,
				"element": "C" 
			},
			{
				"x": 0.1911833887,
				"y": 1.223768596,
				"z": -0.9202255815,
				"element": "C" 
			},
			{
				"x": -1.0939684823,
				"y": 0.9987755307,
				"z": -0.3270519419,
				"element": "C" 
			},
			{
				"x": -1.3023323577,
				"y": -0.3554905517,
				"z": 0.0344052574,
				"element": "C" 
			},
			{
				"x": 0.1011542878,
				"y": -1.3291698387,
				"z": -0.3678786166,
				"element": "S" 
			},
			{
				"x": -2.4064259423,
				"y": -0.8358248196,
				"z": 0.6017722227,
				"element": "N" 
			},
			{
				"x": -3.3519741577,
				"y": 0.0769395617,
				"z": 0.8210863595,
				"element": "C" 
			},
			{
				"x": -3.2914675381,
				"y": 1.3905567511,
				"z": 0.5308720431,
				"element": "N" 
			},
			{
				"x": -2.1842989212,
				"y": 1.8299532147,
				"z": -0.0295521624,
				"element": "C" 
			},
			{
				"x": -2.0954384669,
				"y": 3.542393646,
				"z": -0.4121440638,
				"element": "Cl" 
			},
			{
				"x": 2.3431678865,
				"y": -0.7509267255,
				"z": -2.4164700991,
				"element": "H" 
			},
			{
				"x": 3.0242767013,
				"y": -0.429311473,
				"z": -0.8189387879,
				"element": "H" 
			},
			{
				"x": 2.6838157339,
				"y": 0.9161674719,
				"z": -1.9209939224,
				"element": "H" 
			},
			{
				"x": 0.5341691355,
				"y": 2.1928808716,
				"z": -1.2615601119,
				"element": "H" 
			},
			{
				"x": -4.2724575036,
				"y": -0.2691449912,
				"z": 1.2831993374,
				"element": "H" 
			}
		],
		 "valence_orbital": [ 
			{
				"type": "occ",
				"energy": -0.3172,
				"method": "rhf"
			},
			{
				"type": "occ",
				"energy": -0.30852,
				"method": "rhf"
			},
			{
				"type": "occ",
				"energy": -0.27529,
				"method": "rhf"
			},
			{
				"type": "occ",
				"energy": -0.27209,
				"method": "rhf"
			},
			{
				"type": "occ",
				"energy": -0.24476,
				"method": "rhf"
			},
			{
				"type": "unocc",
				"energy": -0.05767,
				"method": "rhf"
			},
			{
				"type": "unocc",
				"energy": -0.04166,
				"method": "rhf"
			},
			{
				"type": "unocc",
				"energy": -0.00215,
				"method": "rhf"
			},
			{
				"type": "unocc",
				"energy": 0.02004,
				"method": "rhf"
			},
			{
				"type": "unocc",
				"energy": 0.0361,
				"method": "rhf"
			}
		],
		"cosmo_sigma_profile": { 
			"-0.025": 0.0,
			"-0.024": 0.0,
			"-0.023": 0.0,
			"-0.022": 0.0,
			"-0.021": 0.0,
			"-0.02": 0.0,
			"-0.019": 0.0,
			"-0.018": 0.0,
			"-0.017": 0.0,
			"-0.016": 0.0,
			"-0.015": 0.0,
			"-0.014": 0.0,
			"-0.013": 0.0,
			"-0.012": 0.0,
			"-0.011": 0.0,
			"-0.01": 0.0,
			"-0.009": 0.379749501983,
			"-0.008": 2.28402242431,
			"-0.007": 3.44922882865,
			"-0.006": 8.20024946106,
			"-0.005": 11.9073448575,
			"-0.004": 11.7266869459,
			"-0.003": 13.9382496256,
			"-0.002": 21.6426371232,
			"-0.001": 23.2633319061,
			"0.0": 19.031776827,
			"0.001": 20.8402327345,
			"0.002": 16.0645073968,
			"0.003": 14.7083429264,
			"0.004": 7.80153308197,
			"0.005": 4.79372652728,
			"0.006": 3.01280975478,
			"0.007": 1.84221805692,
			"0.008": 1.9268676736,
			"0.009": 2.81828898892,
			"0.01": 1.87099962383,
			"0.011": 1.31295989603,
			"0.012": 2.09137445113,
			"0.013": 1.35911808664,
			"0.014": 0.501543072921,
			"0.015": 0.0,
			"0.016": 0.0,
			"0.017": 0.0,
			"0.018": 0.0,
			"0.019": 0.0,
			"0.02": 0.0,
			"0.021": 0.0,
			"0.022": 0.0,
			"0.023": 0.0,
			"0.024": 0.0,
			"0.025": 0.0
		}
	}
}
