{
	 "smiles": "NNC(=O)CC1=CC2=C(C=CC=C2)C=C1", 
	 "Tm": 463.15, 
	 "num_atms": 27, 
	 "gaussian": { 
		 "optdone": 1, 
		 "sigma_profile": "yes", 
		 "theory": "DFT", 
		 "functional": "B3LYP", 
		 "basiset": "6-31G**", 
		 "properties": { 
			 "R2extent": 3901.0626, 
			 "electric_dipole_moment_norm": 3.34169295119, 
			 "electric_quadrupole_moment_norm": 13.3416352577, 
			 "total_energy": -649.229324857, 
			 "HOMO_LUMO_gap": 0.17519, 
			 "cosmo_polarized_energy": -15.08, 
			 "cosmo_cavitation_energy": 30.68, 
			 "cosmo_dispersion_energy": -22.03, 
			 "cosmo_repulsion_energy": 1.71, 
			 "cosmo_total_nonelectrostatic_energy": 10.36, 
			 "SMD_solvation_energy": 5.76 
		},
		"coords": [
			{
				"x": -0.9295947097,
				"y": -0.7893016175,
				"z": 3.5161815156,
				"element": "N" 
			},
			{
				"x": 0.2754016533,
				"y": -0.2484343227,
				"z": 3.9905153951,
				"element": "N" 
			},
			{
				"x": 0.9045401638,
				"y": 0.893138605,
				"z": 3.5609295409,
				"element": "C" 
			},
			{
				"x": 2.0355643254,
				"y": 1.1704177483,
				"z": 3.9386959536,
				"element": "O" 
			},
			{
				"x": 0.1339147117,
				"y": 1.7740572414,
				"z": 2.5742822214,
				"element": "C" 
			},
			{
				"x": 0.2735320295,
				"y": 1.2744120394,
				"z": 1.1462201101,
				"element": "C" 
			},
			{
				"x": -0.8305717981,
				"y": 0.9942500834,
				"z": 0.365754269,
				"element": "C" 
			},
			{
				"x": -0.699726077,
				"y": 0.5398304984,
				"z": -0.9755950377,
				"element": "C" 
			},
			{
				"x": 0.6128447359,
				"y": 0.3653368614,
				"z": -1.5212886306,
				"element": "C" 
			},
			{
				"x": 0.7463503455,
				"y": -0.0890812671,
				"z": -2.8601297219,
				"element": "C" 
			},
			{
				"x": -0.3653139497,
				"y": -0.3587393233,
				"z": -3.627290455,
				"element": "C" 
			},
			{
				"x": -1.663536323,
				"y": -0.184825149,
				"z": -3.0882703297,
				"element": "C" 
			},
			{
				"x": -1.826025207,
				"y": 0.2541416663,
				"z": -1.7929361758,
				"element": "C" 
			},
			{
				"x": 1.7351261965,
				"y": 0.6561654031,
				"z": -0.6976322613,
				"element": "C" 
			},
			{
				"x": 1.5745855699,
				"y": 1.0953423059,
				"z": 0.5945092457,
				"element": "C" 
			},
			{
				"x": -0.930009692,
				"y": -0.8150353418,
				"z": 2.4991813129,
				"element": "H" 
			},
			{
				"x": -1.7158903748,
				"y": -0.2278690744,
				"z": 3.8330220302,
				"element": "H" 
			},
			{
				"x": 0.8361168192,
				"y": -0.8678912679,
				"z": 4.5616653471,
				"element": "H" 
			},
			{
				"x": 0.5732097275,
				"y": 2.7710826986,
				"z": 2.6706389919,
				"element": "H" 
			},
			{
				"x": -0.9242514454,
				"y": 1.8413555934,
				"z": 2.8450473938,
				"element": "H" 
			},
			{
				"x": -1.8318313717,
				"y": 1.139171037,
				"z": 0.767644548,
				"element": "H" 
			},
			{
				"x": 1.7442828942,
				"y": -0.2206388951,
				"z": -3.2705751356,
				"element": "H" 
			},
			{
				"x": -0.2506378923,
				"y": -0.7057268986,
				"z": -4.6500520142,
				"element": "H" 
			},
			{
				"x": -2.5329903917,
				"y": -0.3994650231,
				"z": -3.7028896306,
				"element": "H" 
			},
			{
				"x": -2.8222072362,
				"y": 0.3888634901,
				"z": -1.3787593845,
				"element": "H" 
			},
			{
				"x": 2.733023204,
				"y": 0.5246053751,
				"z": -1.1083331033,
				"element": "H" 
			},
			{
				"x": 2.4384940919,
				"y": 1.3072375338,
				"z": 1.217664005,
				"element": "H" 
			}
		],
		 "valence_orbital": [ 
			{
				"type": "occ",
				"energy": -0.28784,
				"method": "rhf"
			},
			{
				"type": "occ",
				"energy": -0.25616,
				"method": "rhf"
			},
			{
				"type": "occ",
				"energy": -0.25181,
				"method": "rhf"
			},
			{
				"type": "occ",
				"energy": -0.23862,
				"method": "rhf"
			},
			{
				"type": "occ",
				"energy": -0.2196,
				"method": "rhf"
			},
			{
				"type": "unocc",
				"energy": -0.04441,
				"method": "rhf"
			},
			{
				"type": "unocc",
				"energy": -0.01646,
				"method": "rhf"
			},
			{
				"type": "unocc",
				"energy": 0.02086,
				"method": "rhf"
			},
			{
				"type": "unocc",
				"energy": 0.02924,
				"method": "rhf"
			},
			{
				"type": "unocc",
				"energy": 0.06745,
				"method": "rhf"
			}
		],
		"cosmo_sigma_profile": { 
			"-0.025": 0.0,
			"-0.024": 0.0,
			"-0.023": 0.0,
			"-0.022": 0.0,
			"-0.021": 0.0,
			"-0.02": 0.0,
			"-0.019": 0.0,
			"-0.018": 0.0,
			"-0.017": 0.0,
			"-0.016": 0.0,
			"-0.015": 0.0,
			"-0.014": 0.0494850112005,
			"-0.013": 0.918032249186,
			"-0.012": 1.73252048781,
			"-0.011": 2.52687048936,
			"-0.01": 2.75335519084,
			"-0.009": 3.4932467652,
			"-0.008": 4.29061508683,
			"-0.007": 5.85834251792,
			"-0.006": 15.50748974,
			"-0.005": 19.1637082546,
			"-0.004": 18.326144639,
			"-0.003": 18.6646070663,
			"-0.002": 14.2919179388,
			"-0.001": 15.2743242755,
			"0.0": 11.1030469192,
			"0.001": 13.3124919943,
			"0.002": 13.5875692134,
			"0.003": 16.9646658692,
			"0.004": 24.3082148508,
			"0.005": 14.6652632925,
			"0.006": 3.15161000383,
			"0.007": 2.10231029603,
			"0.008": 1.61216082858,
			"0.009": 2.10008817312,
			"0.01": 2.27334920183,
			"0.011": 1.91721696793,
			"0.012": 2.135058202,
			"0.013": 4.52975815021,
			"0.014": 5.3045495716,
			"0.015": 1.20820460109,
			"0.016": 0.449779939863,
			"0.017": 0.0,
			"0.018": 0.0,
			"0.019": 0.0,
			"0.02": 0.0,
			"0.021": 0.0,
			"0.022": 0.0,
			"0.023": 0.0,
			"0.024": 0.0,
			"0.025": 0.0
		}
	}
}
