{
	 "smiles": "CC(=C)C1CCC(C)=CC1", 
	 "Tm": 198.85, 
	 "num_atms": 26, 
	 "gaussian": { 
		 "optdone": 1, 
		 "sigma_profile": "yes", 
		 "theory": "DFT", 
		 "functional": "B3LYP", 
		 "basiset": "6-31G**", 
		 "properties": { 
			 "R2extent": 1994.1966, 
			 "electric_dipole_moment_norm": 0.558200259763, 
			 "electric_quadrupole_moment_norm": 2.00728892539, 
			 "total_energy": -390.692127391, 
			 "HOMO_LUMO_gap": 0.25258, 
			 "cosmo_polarized_energy": -2.4, 
			 "cosmo_cavitation_energy": 26.85, 
			 "cosmo_dispersion_energy": -19.19, 
			 "cosmo_repulsion_energy": 1.56, 
			 "cosmo_total_nonelectrostatic_energy": 9.21, 
			 "SMD_solvation_energy": 4.89 
		},
		"coords": [
			{
				"x": -1.3041133851,
				"y": -0.5327745444,
				"z": 2.623224238,
				"element": "C" 
			},
			{
				"x": -1.4877921623,
				"y": 0.7313447743,
				"z": 1.8153726445,
				"element": "C" 
			},
			{
				"x": -2.1215112326,
				"y": 1.7921668996,
				"z": 2.327926346,
				"element": "C" 
			},
			{
				"x": -0.9349509509,
				"y": 0.7655407072,
				"z": 0.3995276342,
				"element": "C" 
			},
			{
				"x": -1.4416814274,
				"y": -0.39063942,
				"z": -0.4863446794,
				"element": "C" 
			},
			{
				"x": -1.0075942441,
				"y": -0.1940935025,
				"z": -1.9454592986,
				"element": "C" 
			},
			{
				"x": 0.4484417556,
				"y": 0.2008842018,
				"z": -2.0836888988,
				"element": "C" 
			},
			{
				"x": 1.0393685957,
				"y": 0.0955207014,
				"z": -3.4656143497,
				"element": "C" 
			},
			{
				"x": 1.1591027275,
				"y": 0.6270858096,
				"z": -1.0308375509,
				"element": "C" 
			},
			{
				"x": 0.6101519413,
				"y": 0.7890033245,
				"z": 0.3650987161,
				"element": "C" 
			},
			{
				"x": -0.2484384206,
				"y": -0.820209432,
				"z": 2.6982748227,
				"element": "H" 
			},
			{
				"x": -1.8259979593,
				"y": -1.3809767877,
				"z": 2.1637312336,
				"element": "H" 
			},
			{
				"x": -1.6916104124,
				"y": -0.4114711138,
				"z": 3.6381990494,
				"element": "H" 
			},
			{
				"x": -2.5163262315,
				"y": 1.7889089716,
				"z": 3.3405735502,
				"element": "H" 
			},
			{
				"x": -2.2679411822,
				"y": 2.7024038818,
				"z": 1.7522090741,
				"element": "H" 
			},
			{
				"x": -1.2788153828,
				"y": 1.701657375,
				"z": -0.0612178152,
				"element": "H" 
			},
			{
				"x": -1.0343963439,
				"y": -1.3401456142,
				"z": -0.1157810811,
				"element": "H" 
			},
			{
				"x": -2.5335276348,
				"y": -0.4667571615,
				"z": -0.4239729681,
				"element": "H" 
			},
			{
				"x": -1.1912014167,
				"y": -1.1150798297,
				"z": -2.5163991111,
				"element": "H" 
			},
			{
				"x": -1.6349576761,
				"y": 0.5732746774,
				"z": -2.4257919111,
				"element": "H" 
			},
			{
				"x": 0.4736026371,
				"y": 0.7031212144,
				"z": -4.1849188411,
				"element": "H" 
			},
			{
				"x": 1.0020772994,
				"y": -0.9374967587,
				"z": -3.8366266,
				"element": "H" 
			},
			{
				"x": 2.0811355292,
				"y": 0.4280116928,
				"z": -3.4891569,
				"element": "H" 
			},
			{
				"x": 2.2080255381,
				"y": 0.8871272976,
				"z": -1.1727638429,
				"element": "H" 
			},
			{
				"x": 1.017631851,
				"y": -0.0027468253,
				"z": 1.0120862487,
				"element": "H" 
			},
			{
				"x": 0.9678181879,
				"y": 1.7319394606,
				"z": 0.7988502904,
				"element": "H" 
			}
		],
		 "valence_orbital": [ 
			{
				"type": "occ",
				"energy": -0.31745,
				"method": "rhf"
			},
			{
				"type": "occ",
				"energy": -0.31295,
				"method": "rhf"
			},
			{
				"type": "occ",
				"energy": -0.29789,
				"method": "rhf"
			},
			{
				"type": "occ",
				"energy": -0.23908,
				"method": "rhf"
			},
			{
				"type": "occ",
				"energy": -0.22546,
				"method": "rhf"
			},
			{
				"type": "unocc",
				"energy": 0.02712,
				"method": "rhf"
			},
			{
				"type": "unocc",
				"energy": 0.03617,
				"method": "rhf"
			},
			{
				"type": "unocc",
				"energy": 0.09213,
				"method": "rhf"
			},
			{
				"type": "unocc",
				"energy": 0.1053,
				"method": "rhf"
			},
			{
				"type": "unocc",
				"energy": 0.11801,
				"method": "rhf"
			}
		],
		"cosmo_sigma_profile": { 
			"-0.025": 0.0,
			"-0.024": 0.0,
			"-0.023": 0.0,
			"-0.022": 0.0,
			"-0.021": 0.0,
			"-0.02": 0.0,
			"-0.019": 0.0,
			"-0.018": 0.0,
			"-0.017": 0.0,
			"-0.016": 0.0,
			"-0.015": 0.0,
			"-0.014": 0.0,
			"-0.013": 0.0,
			"-0.012": 0.0,
			"-0.011": 0.0,
			"-0.01": 0.0,
			"-0.009": 0.0,
			"-0.008": 0.0,
			"-0.007": 0.0,
			"-0.006": 0.0,
			"-0.005": 0.0498537665268,
			"-0.004": 5.71285382325,
			"-0.003": 24.7886520704,
			"-0.002": 35.885175334,
			"-0.001": 36.2666499308,
			"0.0": 35.4965827852,
			"0.001": 26.0731921309,
			"0.002": 11.7194129971,
			"0.003": 8.2795397287,
			"0.004": 7.11006306038,
			"0.005": 5.98615364538,
			"0.006": 5.43926685488,
			"0.007": 4.23488619689,
			"0.008": 1.13453237658,
			"0.009": 0.0,
			"0.01": 0.0,
			"0.011": 0.0,
			"0.012": 0.0,
			"0.013": 0.0,
			"0.014": 0.0,
			"0.015": 0.0,
			"0.016": 0.0,
			"0.017": 0.0,
			"0.018": 0.0,
			"0.019": 0.0,
			"0.02": 0.0,
			"0.021": 0.0,
			"0.022": 0.0,
			"0.023": 0.0,
			"0.024": 0.0,
			"0.025": 0.0
		}
	}
}
