{
	 "smiles": "OC(C(N1CCCCC1)C1=CC=CC=C1)(C1=CC=CC=C1)C1=CC=CC=C1", 
	 "Tm": 431.15, 
	 "num_atms": 54, 
	 "gaussian": { 
		 "optdone": 1, 
		 "sigma_profile": "yes", 
		 "theory": "DFT", 
		 "functional": "B3LYP", 
		 "basiset": "6-31G**", 
		 "properties": { 
			 "R2extent": 8733.6243, 
			 "electric_dipole_moment_norm": 1.6677952902, 
			 "electric_quadrupole_moment_norm": 6.15616586846, 
			 "total_energy": -1098.87756523, 
			 "HOMO_LUMO_gap": 0.16335, 
			 "cosmo_polarized_energy": -9.46, 
			 "cosmo_cavitation_energy": 50.46, 
			 "cosmo_dispersion_energy": -33.69, 
			 "cosmo_repulsion_energy": 2.55, 
			 "cosmo_total_nonelectrostatic_energy": 19.32, 
			 "SMD_solvation_energy": 6.96 
		},
		"coords": [
			{
				"x": -0.7828987507,
				"y": 1.6835813391,
				"z": 1.0681817087,
				"element": "O" 
			},
			{
				"x": 0.0814248718,
				"y": 0.8124219729,
				"z": 0.3154507132,
				"element": "C" 
			},
			{
				"x": -0.0234054694,
				"y": -0.5667418264,
				"z": 1.1513215478,
				"element": "C" 
			},
			{
				"x": -1.3556631654,
				"y": -0.9353263861,
				"z": 1.5999413409,
				"element": "N" 
			},
			{
				"x": -2.4959817643,
				"y": -1.0225378453,
				"z": 0.6770282175,
				"element": "C" 
			},
			{
				"x": -3.6434438815,
				"y": -0.0844141155,
				"z": 1.0773706785,
				"element": "C" 
			},
			{
				"x": -4.1788912559,
				"y": -0.4371672305,
				"z": 2.4842796516,
				"element": "C" 
			},
			{
				"x": -3.072855651,
				"y": -1.074816435,
				"z": 3.3560556933,
				"element": "C" 
			},
			{
				"x": -1.6878880207,
				"y": -0.545998673,
				"z": 2.9748200338,
				"element": "C" 
			},
			{
				"x": 0.7572697984,
				"y": -1.7460473855,
				"z": 0.5553613908,
				"element": "C" 
			},
			{
				"x": 2.160062594,
				"y": -1.766312157,
				"z": 0.6264610439,
				"element": "C" 
			},
			{
				"x": 2.8945643641,
				"y": -2.8404760968,
				"z": 0.1213209111,
				"element": "C" 
			},
			{
				"x": 2.2407133945,
				"y": -3.9277100258,
				"z": -0.4598494993,
				"element": "C" 
			},
			{
				"x": 0.846403468,
				"y": -3.9330418387,
				"z": -0.514203368,
				"element": "C" 
			},
			{
				"x": 0.1144799031,
				"y": -2.8584726284,
				"z": -0.0061180937,
				"element": "C" 
			},
			{
				"x": -0.402819514,
				"y": 0.7347925715,
				"z": -1.1449828323,
				"element": "C" 
			},
			{
				"x": -1.4215360671,
				"y": 1.5918155446,
				"z": -1.5892353475,
				"element": "C" 
			},
			{
				"x": -1.8678937229,
				"y": 1.5657510416,
				"z": -2.9113416128,
				"element": "C" 
			},
			{
				"x": -1.3046741794,
				"y": 0.6782267053,
				"z": -3.8276349479,
				"element": "C" 
			},
			{
				"x": -0.2889266183,
				"y": -0.1792365876,
				"z": -3.4041731386,
				"element": "C" 
			},
			{
				"x": 0.1593296536,
				"y": -0.150855316,
				"z": -2.0822997133,
				"element": "C" 
			},
			{
				"x": 1.508404967,
				"y": 1.3983084756,
				"z": 0.4306349145,
				"element": "C" 
			},
			{
				"x": 1.9359161921,
				"y": 1.836825133,
				"z": 1.6990400519,
				"element": "C" 
			},
			{
				"x": 3.201639395,
				"y": 2.3885039156,
				"z": 1.8861320837,
				"element": "C" 
			},
			{
				"x": 4.0739225429,
				"y": 2.5275867359,
				"z": 0.8039724709,
				"element": "C" 
			},
			{
				"x": 3.6575353076,
				"y": 2.1171056756,
				"z": -0.4609827338,
				"element": "C" 
			},
			{
				"x": 2.3882979785,
				"y": 1.5623408806,
				"z": -0.6470977244,
				"element": "C" 
			},
			{
				"x": -0.5094803225,
				"y": 2.5913267745,
				"z": 0.8773277351,
				"element": "H" 
			},
			{
				"x": 0.5103897923,
				"y": -0.3085705421,
				"z": 2.0700883611,
				"element": "H" 
			},
			{
				"x": -2.8856047382,
				"y": -2.0553411996,
				"z": 0.6488163718,
				"element": "H" 
			},
			{
				"x": -2.1641428803,
				"y": -0.7925112241,
				"z": -0.3354828005,
				"element": "H" 
			},
			{
				"x": -3.2611202031,
				"y": 0.9403138783,
				"z": 1.0650714053,
				"element": "H" 
			},
			{
				"x": -4.4448667325,
				"y": -0.1418978458,
				"z": 0.3314027198,
				"element": "H" 
			},
			{
				"x": -5.026266184,
				"y": -1.1289357532,
				"z": 2.4091661227,
				"element": "H" 
			},
			{
				"x": -4.5628697417,
				"y": 0.4690398639,
				"z": 2.9674976162,
				"element": "H" 
			},
			{
				"x": -3.2578997541,
				"y": -0.8825008139,
				"z": 4.418652284,
				"element": "H" 
			},
			{
				"x": -3.0724582927,
				"y": -2.1641486064,
				"z": 3.2294497331,
				"element": "H" 
			},
			{
				"x": -1.663657507,
				"y": 0.547402779,
				"z": 3.1158241643,
				"element": "H" 
			},
			{
				"x": -0.9334134551,
				"y": -0.9737048862,
				"z": 3.6493529819,
				"element": "H" 
			},
			{
				"x": 2.6863386799,
				"y": -0.9380468807,
				"z": 1.0893472189,
				"element": "H" 
			},
			{
				"x": 3.9787650186,
				"y": -2.8301194862,
				"z": 0.1939312497,
				"element": "H" 
			},
			{
				"x": 2.8096950649,
				"y": -4.766131422,
				"z": -0.8517161717,
				"element": "H" 
			},
			{
				"x": 0.3218094346,
				"y": -4.780299483,
				"z": -0.9477623594,
				"element": "H" 
			},
			{
				"x": -0.9666679478,
				"y": -2.8942404395,
				"z": -0.0397305659,
				"element": "H" 
			},
			{
				"x": -1.8876801462,
				"y": 2.2695182098,
				"z": -0.8843743273,
				"element": "H" 
			},
			{
				"x": -2.661465956,
				"y": 2.2403378512,
				"z": -3.2210952164,
				"element": "H" 
			},
			{
				"x": -1.6520013973,
				"y": 0.6540042845,
				"z": -4.8565731245,
				"element": "H" 
			},
			{
				"x": 0.1622314144,
				"y": -0.8780617601,
				"z": -4.1031695803,
				"element": "H" 
			},
			{
				"x": 0.9506219573,
				"y": -0.8268366951,
				"z": -1.7854227028,
				"element": "H" 
			},
			{
				"x": 1.2603359311,
				"y": 1.752814919,
				"z": 2.5443873109,
				"element": "H" 
			},
			{
				"x": 3.5042461094,
				"y": 2.7143519449,
				"z": 2.877494467,
				"element": "H" 
			},
			{
				"x": 5.0612368334,
				"y": 2.957578794,
				"z": 0.9458155418,
				"element": "H" 
			},
			{
				"x": 4.3183682294,
				"y": 2.2312631007,
				"z": -1.3157959531,
				"element": "H" 
			},
			{
				"x": 2.0881704234,
				"y": 1.2646891941,
				"z": -1.6438559224,
				"element": "H" 
			}
		],
		 "valence_orbital": [ 
			{
				"type": "occ",
				"energy": -0.24561,
				"method": "rhf"
			},
			{
				"type": "occ",
				"energy": -0.24376,
				"method": "rhf"
			},
			{
				"type": "occ",
				"energy": -0.23682,
				"method": "rhf"
			},
			{
				"type": "occ",
				"energy": -0.22999,
				"method": "rhf"
			},
			{
				"type": "occ",
				"energy": -0.17921,
				"method": "rhf"
			},
			{
				"type": "unocc",
				"energy": -0.01586,
				"method": "rhf"
			},
			{
				"type": "unocc",
				"energy": -0.00755,
				"method": "rhf"
			},
			{
				"type": "unocc",
				"energy": -0.00043,
				"method": "rhf"
			},
			{
				"type": "unocc",
				"energy": 0.00294,
				"method": "rhf"
			},
			{
				"type": "unocc",
				"energy": 0.00838,
				"method": "rhf"
			}
		],
		"cosmo_sigma_profile": { 
			"-0.025": 0.0,
			"-0.024": 0.0,
			"-0.023": 0.0,
			"-0.022": 0.0,
			"-0.021": 0.0,
			"-0.02": 0.0,
			"-0.019": 0.0,
			"-0.018": 0.0,
			"-0.017": 0.0,
			"-0.016": 0.0,
			"-0.015": 0.304676013799,
			"-0.014": 0.588807396282,
			"-0.013": 1.05599539895,
			"-0.012": 0.5052785432,
			"-0.011": 0.255609287773,
			"-0.01": 0.908370233684,
			"-0.009": 1.08449479064,
			"-0.008": 1.26948082398,
			"-0.007": 1.4610008104,
			"-0.006": 6.36709702355,
			"-0.005": 20.8016406636,
			"-0.004": 27.3705172901,
			"-0.003": 38.3248878806,
			"-0.002": 39.0676806393,
			"-0.001": 43.5632112987,
			"0.0": 45.0055196175,
			"0.001": 38.7903946326,
			"0.002": 30.67643613,
			"0.003": 26.789868205,
			"0.004": 27.9855555681,
			"0.005": 22.801925547,
			"0.006": 13.3846536436,
			"0.007": 5.1741239379,
			"0.008": 2.60566638721,
			"0.009": 0.695099591868,
			"0.01": 0.599829619157,
			"0.011": 0.500527179554,
			"0.012": 0.142385512993,
			"0.013": 0.0,
			"0.014": 0.0,
			"0.015": 0.0,
			"0.016": 0.0,
			"0.017": 0.0,
			"0.018": 0.0,
			"0.019": 0.0,
			"0.02": 0.0,
			"0.021": 0.0,
			"0.022": 0.0,
			"0.023": 0.0,
			"0.024": 0.0,
			"0.025": 0.0
		}
	}
}
