{
	 "smiles": "OC(=O)C1=CC2=C(S1)C=CO2", 
	 "Tm": 462.15, 
	 "num_atms": 15, 
	 "gaussian": { 
		 "optdone": 1, 
		 "sigma_profile": "yes", 
		 "theory": "DFT", 
		 "functional": "B3LYP", 
		 "basiset": "6-31G**", 
		 "properties": { 
			 "R2extent": 2808.2962, 
			 "electric_dipole_moment_norm": 5.46343780874, 
			 "electric_quadrupole_moment_norm": 14.6515922739, 
			 "total_energy": -892.97618917, 
			 "HOMO_LUMO_gap": 0.16785, 
			 "cosmo_polarized_energy": -13.51, 
			 "cosmo_cavitation_energy": 21.79, 
			 "cosmo_dispersion_energy": -17.07, 
			 "cosmo_repulsion_energy": 1.3, 
			 "cosmo_total_nonelectrostatic_energy": 6.03, 
			 "SMD_solvation_energy": 5.56 
		},
		"coords": [
			{
				"x": -1.7235619409,
				"y": -3.9625840165,
				"z": 1.7930227304,
				"element": "O" 
			},
			{
				"x": -0.9224634274,
				"y": -2.9096259922,
				"z": 2.1081415169,
				"element": "C" 
			},
			{
				"x": -0.127039717,
				"y": -3.0078001294,
				"z": 3.0144584546,
				"element": "O" 
			},
			{
				"x": -1.059494871,
				"y": -1.6699013254,
				"z": 1.312838768,
				"element": "C" 
			},
			{
				"x": -0.3039923687,
				"y": -0.5393189356,
				"z": 1.5361892059,
				"element": "C" 
			},
			{
				"x": -0.6621047343,
				"y": 0.4712883453,
				"z": 0.6225487794,
				"element": "C" 
			},
			{
				"x": -1.6594591205,
				"y": 0.1518918687,
				"z": -0.2851923361,
				"element": "C" 
			},
			{
				"x": -2.2079736432,
				"y": -1.4702564865,
				"z": -0.029072144,
				"element": "S" 
			},
			{
				"x": -1.8613320626,
				"y": 1.3040208728,
				"z": -1.1043936585,
				"element": "C" 
			},
			{
				"x": -0.9717754113,
				"y": 2.2256562876,
				"z": -0.6273300268,
				"element": "C" 
			},
			{
				"x": -0.2302291837,
				"y": 1.7466538218,
				"z": 0.4217501763,
				"element": "O" 
			},
			{
				"x": -2.315079204,
				"y": -3.7656111297,
				"z": 1.052884118,
				"element": "H" 
			},
			{
				"x": 0.444896928,
				"y": -0.4852634456,
				"z": 2.3148557611,
				"element": "H" 
			},
			{
				"x": -2.5520602502,
				"y": 1.4445760404,
				"z": -1.9220149235,
				"element": "H" 
			},
			{
				"x": -0.7532309931,
				"y": 3.2404742243,
				"z": -0.9218864218,
				"element": "H" 
			}
		],
		 "valence_orbital": [ 
			{
				"type": "occ",
				"energy": -0.32165,
				"method": "rhf"
			},
			{
				"type": "occ",
				"energy": -0.30731,
				"method": "rhf"
			},
			{
				"type": "occ",
				"energy": -0.27753,
				"method": "rhf"
			},
			{
				"type": "occ",
				"energy": -0.26388,
				"method": "rhf"
			},
			{
				"type": "occ",
				"energy": -0.23436,
				"method": "rhf"
			},
			{
				"type": "unocc",
				"energy": -0.06651,
				"method": "rhf"
			},
			{
				"type": "unocc",
				"energy": -0.0131,
				"method": "rhf"
			},
			{
				"type": "unocc",
				"energy": 0.01469,
				"method": "rhf"
			},
			{
				"type": "unocc",
				"energy": 0.04263,
				"method": "rhf"
			},
			{
				"type": "unocc",
				"energy": 0.05408,
				"method": "rhf"
			}
		],
		"cosmo_sigma_profile": { 
			"-0.025": 0.0,
			"-0.024": 0.0,
			"-0.023": 0.0,
			"-0.022": 0.0,
			"-0.021": 0.0,
			"-0.02": 0.0,
			"-0.019": 0.0,
			"-0.018": 0.460766564509,
			"-0.017": 0.885915946687,
			"-0.016": 0.864106376395,
			"-0.015": 1.06128257996,
			"-0.014": 0.731493291866,
			"-0.013": 0.822497329952,
			"-0.012": 1.16609358066,
			"-0.011": 1.25030578275,
			"-0.01": 2.41682757743,
			"-0.009": 4.84356480691,
			"-0.008": 6.18535125318,
			"-0.007": 6.086044919,
			"-0.006": 7.65773774017,
			"-0.005": 6.62515739679,
			"-0.004": 6.45767915586,
			"-0.003": 7.21821884663,
			"-0.002": 8.34698908763,
			"-0.001": 10.4232633669,
			"0.0": 16.9323111638,
			"0.001": 22.8097440823,
			"0.002": 16.0910876573,
			"0.003": 10.6962996759,
			"0.004": 5.09453718911,
			"0.005": 3.00265206316,
			"0.006": 3.51993590303,
			"0.007": 4.13754280122,
			"0.008": 3.01322739632,
			"0.009": 3.74650499035,
			"0.01": 3.95889403649,
			"0.011": 5.33994238388,
			"0.012": 5.16002820219,
			"0.013": 1.55651917166,
			"0.014": 0.0199001170479,
			"0.015": 0.0,
			"0.016": 0.0,
			"0.017": 0.0,
			"0.018": 0.0,
			"0.019": 0.0,
			"0.02": 0.0,
			"0.021": 0.0,
			"0.022": 0.0,
			"0.023": 0.0,
			"0.024": 0.0,
			"0.025": 0.0
		}
	}
}
