{
	 "smiles": "OC(=O)CCOC1=C(Cl)C(Cl)=CC=C1", 
	 "Tm": 417.15, 
	 "num_atms": 22, 
	 "gaussian": { 
		 "optdone": 1, 
		 "sigma_profile": "yes", 
		 "theory": "DFT", 
		 "functional": "B3LYP", 
		 "basiset": "6-31G**", 
		 "properties": { 
			 "R2extent": 5613.1824, 
			 "electric_dipole_moment_norm": 0.842638938099, 
			 "electric_quadrupole_moment_norm": 29.3752418072, 
			 "total_energy": -1493.82850965, 
			 "HOMO_LUMO_gap": 0.2133, 
			 "cosmo_polarized_energy": -17.32, 
			 "cosmo_cavitation_energy": 30.61, 
			 "cosmo_dispersion_energy": -22.4, 
			 "cosmo_repulsion_energy": 1.79, 
			 "cosmo_total_nonelectrostatic_energy": 10.0, 
			 "SMD_solvation_energy": 6.04 
		},
		"coords": [
			{
				"x": -4.0012556901,
				"y": 2.5751994852,
				"z": -0.6712987447,
				"element": "O" 
			},
			{
				"x": -2.7035143514,
				"y": 2.2362380487,
				"z": -0.8782988859,
				"element": "C" 
			},
			{
				"x": -2.0224366688,
				"y": 2.8716783862,
				"z": -1.6445466406,
				"element": "O" 
			},
			{
				"x": -2.2043165844,
				"y": 1.033538342,
				"z": -0.0924639309,
				"element": "C" 
			},
			{
				"x": -0.7424623662,
				"y": 0.7392138198,
				"z": -0.3974913993,
				"element": "C" 
			},
			{
				"x": -0.3891716272,
				"y": -0.3965042881,
				"z": 0.3891130877,
				"element": "O" 
			},
			{
				"x": 0.877014126,
				"y": -0.8787181899,
				"z": 0.3084376346,
				"element": "C" 
			},
			{
				"x": 1.1651858924,
				"y": -2.0044577268,
				"z": 1.1119445523,
				"element": "C" 
			},
			{
				"x": -0.0969348225,
				"y": -2.6636505049,
				"z": 2.1147829748,
				"element": "Cl" 
			},
			{
				"x": 2.4478713615,
				"y": -2.5598072638,
				"z": 1.0841048492,
				"element": "C" 
			},
			{
				"x": 2.8411280284,
				"y": -3.9525577171,
				"z": 2.0644879272,
				"element": "Cl" 
			},
			{
				"x": 3.4464047171,
				"y": -2.0145695231,
				"z": 0.2716711912,
				"element": "C" 
			},
			{
				"x": 3.1519358528,
				"y": -0.9071942548,
				"z": -0.5145159147,
				"element": "C" 
			},
			{
				"x": 1.878755271,
				"y": -0.3360972104,
				"z": -0.5029747737,
				"element": "C" 
			},
			{
				"x": -4.4125536359,
				"y": 1.9742019681,
				"z": -0.0335798753,
				"element": "H" 
			},
			{
				"x": -2.8175705127,
				"y": 0.1557126859,
				"z": -0.3322406456,
				"element": "H" 
			},
			{
				"x": -2.3296084701,
				"y": 1.2171653853,
				"z": 0.9821199779,
				"element": "H" 
			},
			{
				"x": -0.6085399972,
				"y": 0.5308765184,
				"z": -1.4652736697,
				"element": "H" 
			},
			{
				"x": -0.1164758564,
				"y": 1.601490964,
				"z": -0.1403662422,
				"element": "H" 
			},
			{
				"x": 4.4325623267,
				"y": -2.463233814,
				"z": 0.2677969053,
				"element": "H" 
			},
			{
				"x": 3.9222600374,
				"y": -0.4784779337,
				"z": -1.1477740754,
				"element": "H" 
			},
			{
				"x": 1.6711229695,
				"y": 0.5265528229,
				"z": -1.123534302,
				"element": "H" 
			}
		],
		 "valence_orbital": [ 
			{
				"type": "occ",
				"energy": -0.32172,
				"method": "rhf"
			},
			{
				"type": "occ",
				"energy": -0.30532,
				"method": "rhf"
			},
			{
				"type": "occ",
				"energy": -0.28708,
				"method": "rhf"
			},
			{
				"type": "occ",
				"energy": -0.25118,
				"method": "rhf"
			},
			{
				"type": "occ",
				"energy": -0.23757,
				"method": "rhf"
			},
			{
				"type": "unocc",
				"energy": -0.02427,
				"method": "rhf"
			},
			{
				"type": "unocc",
				"energy": -0.01151,
				"method": "rhf"
			},
			{
				"type": "unocc",
				"energy": -0.00324,
				"method": "rhf"
			},
			{
				"type": "unocc",
				"energy": 0.00166,
				"method": "rhf"
			},
			{
				"type": "unocc",
				"energy": 0.0427,
				"method": "rhf"
			}
		],
		"cosmo_sigma_profile": { 
			"-0.025": 0.0,
			"-0.024": 0.0,
			"-0.023": 0.0,
			"-0.022": 0.0,
			"-0.021": 0.0,
			"-0.02": 0.0842813129583,
			"-0.019": 0.946862370427,
			"-0.018": 1.27441698773,
			"-0.017": 1.11753870549,
			"-0.016": 1.18657224669,
			"-0.015": 1.25222510468,
			"-0.014": 0.654265084946,
			"-0.013": 1.01228667962,
			"-0.012": 1.21733019717,
			"-0.011": 1.85847702261,
			"-0.01": 1.3037126308,
			"-0.009": 1.64856903702,
			"-0.008": 5.53808526697,
			"-0.007": 11.921852481,
			"-0.006": 17.6036667306,
			"-0.005": 12.9987684547,
			"-0.004": 9.03110636861,
			"-0.003": 10.4071002443,
			"-0.002": 9.0222004906,
			"-0.001": 11.2069902031,
			"0.0": 14.9036077472,
			"0.001": 24.4194567313,
			"0.002": 19.7674481302,
			"0.003": 20.9444199755,
			"0.004": 21.5149184666,
			"0.005": 10.9324787131,
			"0.006": 6.11653720884,
			"0.007": 4.41867008737,
			"0.008": 4.08003158746,
			"0.009": 4.54902391033,
			"0.01": 4.84405130565,
			"0.011": 5.2365203576,
			"0.012": 4.22944691053,
			"0.013": 1.11290324535,
			"0.014": 0.0,
			"0.015": 0.0,
			"0.016": 0.0,
			"0.017": 0.0,
			"0.018": 0.0,
			"0.019": 0.0,
			"0.02": 0.0,
			"0.021": 0.0,
			"0.022": 0.0,
			"0.023": 0.0,
			"0.024": 0.0,
			"0.025": 0.0
		}
	}
}
