{
	 "smiles": "CN1CC(=O)N(C1=O)C1=CC=C(C=C1)[N+]([O-])=O", 
	 "Tm": 435.15, 
	 "num_atms": 26, 
	 "gaussian": { 
		 "optdone": 1, 
		 "sigma_profile": "yes", 
		 "theory": "DFT", 
		 "functional": "B3LYP", 
		 "basiset": "6-31G**", 
		 "properties": { 
			 "R2extent": 6645.7189, 
			 "electric_dipole_moment_norm": 7.94332316729, 
			 "electric_quadrupole_moment_norm": 20.6974828972, 
			 "total_energy": -851.57300687, 
			 "HOMO_LUMO_gap": 0.16977, 
			 "cosmo_polarized_energy": -16.67, 
			 "cosmo_cavitation_energy": 31.29, 
			 "cosmo_dispersion_energy": -22.99, 
			 "cosmo_repulsion_energy": 1.76, 
			 "cosmo_total_nonelectrostatic_energy": 10.06, 
			 "SMD_solvation_energy": 8.89 
		},
		"coords": [
			{
				"x": 1.9886124426,
				"y": -2.5777582944,
				"z": 0.8022473188,
				"element": "C" 
			},
			{
				"x": 1.0342956059,
				"y": -1.7047434052,
				"z": 0.1503129379,
				"element": "N" 
			},
			{
				"x": 1.0666661177,
				"y": -1.3650008271,
				"z": -1.2521852244,
				"element": "C" 
			},
			{
				"x": -0.0985179613,
				"y": -0.3931493019,
				"z": -1.4055893719,
				"element": "C" 
			},
			{
				"x": -0.4440436293,
				"y": 0.1510022316,
				"z": -2.4316375591,
				"element": "O" 
			},
			{
				"x": -0.6732370625,
				"y": -0.2673590738,
				"z": -0.1384538746,
				"element": "N" 
			},
			{
				"x": 0.0334631082,
				"y": -1.0652780914,
				"z": 0.8256560518,
				"element": "C" 
			},
			{
				"x": -0.2231839252,
				"y": -1.1414877269,
				"z": 2.0107203573,
				"element": "O" 
			},
			{
				"x": -1.8042835674,
				"y": 0.5369312271,
				"z": 0.1749647537,
				"element": "C" 
			},
			{
				"x": -2.68275316,
				"y": 0.147622962,
				"z": 1.1989828191,
				"element": "C" 
			},
			{
				"x": -3.787507026,
				"y": 0.9357995835,
				"z": 1.498859421,
				"element": "C" 
			},
			{
				"x": -4.0119036521,
				"y": 2.0996262167,
				"z": 0.7670248346,
				"element": "C" 
			},
			{
				"x": -3.1541755731,
				"y": 2.4966215233,
				"z": -0.2559671502,
				"element": "C" 
			},
			{
				"x": -2.0434498132,
				"y": 1.7148269975,
				"z": -0.5512813304,
				"element": "C" 
			},
			{
				"x": -5.1830429434,
				"y": 2.9284664766,
				"z": 1.081218967,
				"element": "N" 
			},
			{
				"x": -5.9205634946,
				"y": 2.5531792752,
				"z": 1.9927176463,
				"element": "O" 
			},
			{
				"x": -5.3566082745,
				"y": 3.9485367054,
				"z": 0.4141046204,
				"element": "O" 
			},
			{
				"x": 3.0078407019,
				"y": -2.1843192457,
				"z": 0.709609246,
				"element": "H" 
			},
			{
				"x": 1.7215597676,
				"y": -2.6349818224,
				"z": 1.8578637308,
				"element": "H" 
			},
			{
				"x": 1.9583140295,
				"y": -3.5833342951,
				"z": 0.3672049612,
				"element": "H" 
			},
			{
				"x": 0.9151218429,
				"y": -2.2330100966,
				"z": -1.906969102,
				"element": "H" 
			},
			{
				"x": 2.0027768359,
				"y": -0.8746129489,
				"z": -1.5505817987,
				"element": "H" 
			},
			{
				"x": -2.4879270766,
				"y": -0.7521318318,
				"z": 1.7650750604,
				"element": "H" 
			},
			{
				"x": -4.4782860004,
				"y": 0.6584801583,
				"z": 2.2849360186,
				"element": "H" 
			},
			{
				"x": -3.3606985493,
				"y": 3.4083544805,
				"z": -0.8019136298,
				"element": "H" 
			},
			{
				"x": -1.3756687432,
				"y": 2.0038191235,
				"z": -1.350519704,
				"element": "H" 
			}
		],
		 "valence_orbital": [ 
			{
				"type": "occ",
				"energy": -0.28681,
				"method": "rhf"
			},
			{
				"type": "occ",
				"energy": -0.28417,
				"method": "rhf"
			},
			{
				"type": "occ",
				"energy": -0.27829,
				"method": "rhf"
			},
			{
				"type": "occ",
				"energy": -0.27631,
				"method": "rhf"
			},
			{
				"type": "occ",
				"energy": -0.25726,
				"method": "rhf"
			},
			{
				"type": "unocc",
				"energy": -0.08749,
				"method": "rhf"
			},
			{
				"type": "unocc",
				"energy": -0.03288,
				"method": "rhf"
			},
			{
				"type": "unocc",
				"energy": -0.02508,
				"method": "rhf"
			},
			{
				"type": "unocc",
				"energy": -0.00308,
				"method": "rhf"
			},
			{
				"type": "unocc",
				"energy": 0.05084,
				"method": "rhf"
			}
		],
		"cosmo_sigma_profile": { 
			"-0.025": 0.0,
			"-0.024": 0.0,
			"-0.023": 0.0,
			"-0.022": 0.0,
			"-0.021": 0.0,
			"-0.02": 0.0,
			"-0.019": 0.0,
			"-0.018": 0.0,
			"-0.017": 0.0,
			"-0.016": 0.0,
			"-0.015": 0.0,
			"-0.014": 0.0,
			"-0.013": 0.0,
			"-0.012": 0.0,
			"-0.011": 0.0,
			"-0.01": 0.0,
			"-0.009": 1.50011300359,
			"-0.008": 9.97976261497,
			"-0.007": 12.8564953574,
			"-0.006": 19.5134648468,
			"-0.005": 21.3498332105,
			"-0.004": 18.5715671744,
			"-0.003": 18.0935039835,
			"-0.002": 17.6511895272,
			"-0.001": 16.5564356944,
			"0.0": 15.712526219,
			"0.001": 15.9378027813,
			"0.002": 9.55274925309,
			"0.003": 5.71730439761,
			"0.004": 7.68594726434,
			"0.005": 5.85923707379,
			"0.006": 5.18631528639,
			"0.007": 11.2873259023,
			"0.008": 11.8117815157,
			"0.009": 7.27660269466,
			"0.01": 7.43427063748,
			"0.011": 6.56389852946,
			"0.012": 4.82264486578,
			"0.013": 0.130989544243,
			"0.014": 0.0,
			"0.015": 0.0,
			"0.016": 0.0,
			"0.017": 0.0,
			"0.018": 0.0,
			"0.019": 0.0,
			"0.02": 0.0,
			"0.021": 0.0,
			"0.022": 0.0,
			"0.023": 0.0,
			"0.024": 0.0,
			"0.025": 0.0
		}
	}
}
