{
	 "smiles": "CN(C1CCCCC1)C(=O)C(C(F)(F)F)C(F)(F)F", 
	 "Tm": 442.15, 
	 "num_atms": 34, 
	 "gaussian": { 
		 "optdone": 1, 
		 "sigma_profile": "yes", 
		 "theory": "DFT", 
		 "functional": "B3LYP", 
		 "basiset": "6-31G**", 
		 "properties": { 
			 "R2extent": 6747.4751, 
			 "electric_dipole_moment_norm": 3.14967519119, 
			 "electric_quadrupole_moment_norm": 2.99373173648, 
			 "total_energy": -1157.2491685, 
			 "HOMO_LUMO_gap": 0.25012, 
			 "cosmo_polarized_energy": -7.72, 
			 "cosmo_cavitation_energy": 36.5, 
			 "cosmo_dispersion_energy": -24.69, 
			 "cosmo_repulsion_energy": 1.79, 
			 "cosmo_total_nonelectrostatic_energy": 13.6, 
			 "SMD_solvation_energy": 7.87 
		},
		"coords": [
			{
				"x": 0.0327098147,
				"y": 1.6857768347,
				"z": -0.1905371169,
				"element": "C" 
			},
			{
				"x": -0.1281265976,
				"y": 0.304968101,
				"z": -0.6339698675,
				"element": "N" 
			},
			{
				"x": -0.380264479,
				"y": -0.7125609004,
				"z": 0.4125915589,
				"element": "C" 
			},
			{
				"x": 0.5813479097,
				"y": -0.5987218427,
				"z": 1.6051107594,
				"element": "C" 
			},
			{
				"x": 0.4479512553,
				"y": -1.8495965718,
				"z": 2.5088955591,
				"element": "C" 
			},
			{
				"x": -0.9936700008,
				"y": -2.4164753588,
				"z": 2.534113152,
				"element": "C" 
			},
			{
				"x": -2.0293179342,
				"y": -1.3112158764,
				"z": 2.2875053841,
				"element": "C" 
			},
			{
				"x": -1.8569499569,
				"y": -0.6885807012,
				"z": 0.8820865155,
				"element": "C" 
			},
			{
				"x": -0.0108566072,
				"y": -0.14448472,
				"z": -1.9156666171,
				"element": "C" 
			},
			{
				"x": -0.1606138931,
				"y": -1.3219161947,
				"z": -2.2294074785,
				"element": "O" 
			},
			{
				"x": 0.3204059985,
				"y": 0.8160544288,
				"z": -3.101394495,
				"element": "C" 
			},
			{
				"x": 1.5635746629,
				"y": 1.7108295448,
				"z": -2.9943932349,
				"element": "C" 
			},
			{
				"x": 2.4457030115,
				"y": 1.1879025002,
				"z": -2.1170432179,
				"element": "F" 
			},
			{
				"x": 2.178055273,
				"y": 1.7929428,
				"z": -4.1888401995,
				"element": "F" 
			},
			{
				"x": 1.302164289,
				"y": 2.976845048,
				"z": -2.602713182,
				"element": "F" 
			},
			{
				"x": -0.9027317129,
				"y": 1.5511719772,
				"z": -3.6538058002,
				"element": "C" 
			},
			{
				"x": -0.5877703429,
				"y": 2.206051629,
				"z": -4.7889966051,
				"element": "F" 
			},
			{
				"x": -1.4224947992,
				"y": 2.4586326854,
				"z": -2.7986532123,
				"element": "F" 
			},
			{
				"x": -1.8757457269,
				"y": 0.6697054445,
				"z": -3.9378724452,
				"element": "F" 
			},
			{
				"x": -0.7014568112,
				"y": 1.896776735,
				"z": 0.5915717297,
				"element": "H" 
			},
			{
				"x": 1.0332260085,
				"y": 1.8652090039,
				"z": 0.2174041871,
				"element": "H" 
			},
			{
				"x": -0.1483757815,
				"y": 2.3836892084,
				"z": -0.9991851181,
				"element": "H" 
			},
			{
				"x": -0.1910895166,
				"y": -1.6655678773,
				"z": -0.082699955,
				"element": "H" 
			},
			{
				"x": 1.6132888358,
				"y": -0.4959280986,
				"z": 1.2521541879,
				"element": "H" 
			},
			{
				"x": 0.3556041405,
				"y": 0.3032573113,
				"z": 2.1871063379,
				"element": "H" 
			},
			{
				"x": 0.7640963105,
				"y": -1.5854237863,
				"z": 3.5244049011,
				"element": "H" 
			},
			{
				"x": 1.1385501682,
				"y": -2.6274383734,
				"z": 2.1640587373,
				"element": "H" 
			},
			{
				"x": -1.1833658421,
				"y": -2.9173181281,
				"z": 3.4896326213,
				"element": "H" 
			},
			{
				"x": -1.1059764606,
				"y": -3.1856070803,
				"z": 1.759286036,
				"element": "H" 
			},
			{
				"x": -1.9127971411,
				"y": -0.5358747502,
				"z": 3.056026565,
				"element": "H" 
			},
			{
				"x": -3.0469758795,
				"y": -1.7004886662,
				"z": 2.39994317,
				"element": "H" 
			},
			{
				"x": -2.2323040474,
				"y": 0.3416341906,
				"z": 0.8895937142,
				"element": "H" 
			},
			{
				"x": -2.4584948932,
				"y": -1.2303398317,
				"z": 0.1440248037,
				"element": "H" 
			},
			{
				"x": 0.5740007457,
				"y": 0.0967913155,
				"z": -3.8823313747,
				"element": "H" 
			}
		],
		 "valence_orbital": [ 
			{
				"type": "occ",
				"energy": -0.32171,
				"method": "rhf"
			},
			{
				"type": "occ",
				"energy": -0.31398,
				"method": "rhf"
			},
			{
				"type": "occ",
				"energy": -0.30758,
				"method": "rhf"
			},
			{
				"type": "occ",
				"energy": -0.26341,
				"method": "rhf"
			},
			{
				"type": "occ",
				"energy": -0.24796,
				"method": "rhf"
			},
			{
				"type": "unocc",
				"energy": 0.00216,
				"method": "rhf"
			},
			{
				"type": "unocc",
				"energy": 0.06595,
				"method": "rhf"
			},
			{
				"type": "unocc",
				"energy": 0.07787,
				"method": "rhf"
			},
			{
				"type": "unocc",
				"energy": 0.09107,
				"method": "rhf"
			},
			{
				"type": "unocc",
				"energy": 0.09616,
				"method": "rhf"
			}
		],
		"cosmo_sigma_profile": { 
			"-0.025": 0.0,
			"-0.024": 0.0,
			"-0.023": 0.0,
			"-0.022": 0.0,
			"-0.021": 0.0,
			"-0.02": 0.0,
			"-0.019": 0.0,
			"-0.018": 0.0,
			"-0.017": 0.0,
			"-0.016": 0.0,
			"-0.015": 0.0,
			"-0.014": 0.0,
			"-0.013": 0.0,
			"-0.012": 0.0,
			"-0.011": 0.565188032577,
			"-0.01": 1.80222823831,
			"-0.009": 1.47381667266,
			"-0.008": 1.30399833746,
			"-0.007": 1.04346264065,
			"-0.006": 3.19322659838,
			"-0.005": 6.71978179085,
			"-0.004": 9.95865596219,
			"-0.003": 26.3631014869,
			"-0.002": 39.0731862981,
			"-0.001": 36.8165152599,
			"0.0": 37.7253289427,
			"0.001": 46.3963252048,
			"0.002": 48.2939327707,
			"0.003": 4.82271624738,
			"0.004": 2.39666143398,
			"0.005": 1.62695056744,
			"0.006": 2.01607773668,
			"0.007": 1.1672363225,
			"0.008": 1.52832702622,
			"0.009": 1.17264313837,
			"0.01": 1.1737665255,
			"0.011": 2.08888383689,
			"0.012": 2.71719361995,
			"0.013": 4.17532930124,
			"0.014": 0.169970998707,
			"0.015": 0.0,
			"0.016": 0.0,
			"0.017": 0.0,
			"0.018": 0.0,
			"0.019": 0.0,
			"0.02": 0.0,
			"0.021": 0.0,
			"0.022": 0.0,
			"0.023": 0.0,
			"0.024": 0.0,
			"0.025": 0.0
		}
	}
}
