{
	 "smiles": "ClC1=CC2=C(NC(=S)O2)C=C1", 
	 "Tm": 503.15, 
	 "num_atms": 15, 
	 "gaussian": { 
		 "optdone": 1, 
		 "sigma_profile": "yes", 
		 "theory": "DFT", 
		 "functional": "B3LYP", 
		 "basiset": "6-31G**", 
		 "properties": { 
			 "R2extent": 3347.9996, 
			 "electric_dipole_moment_norm": 4.52792648902, 
			 "electric_quadrupole_moment_norm": 17.7786752296, 
			 "total_energy": -1257.51338535, 
			 "HOMO_LUMO_gap": 0.17247, 
			 "cosmo_polarized_energy": -14.49, 
			 "cosmo_cavitation_energy": 23.58, 
			 "cosmo_dispersion_energy": -18.52, 
			 "cosmo_repulsion_energy": 1.43, 
			 "cosmo_total_nonelectrostatic_energy": 6.5, 
			 "SMD_solvation_energy": 2.99 
		},
		"coords": [
			{
				"x": -1.6281134803,
				"y": 3.177451673,
				"z": 1.407116978,
				"element": "Cl" 
			},
			{
				"x": -1.102863064,
				"y": 1.6973501303,
				"z": 0.62462182,
				"element": "C" 
			},
			{
				"x": -2.0611023505,
				"y": 0.7197497755,
				"z": 0.3276294776,
				"element": "C" 
			},
			{
				"x": -1.5776354166,
				"y": -0.4195598274,
				"z": -0.2879971724,
				"element": "C" 
			},
			{
				"x": -0.2285883635,
				"y": -0.6048354382,
				"z": -0.6020967706,
				"element": "C" 
			},
			{
				"x": -0.1755856189,
				"y": -1.8590427524,
				"z": -1.1991528835,
				"element": "N" 
			},
			{
				"x": -1.4220635114,
				"y": -2.4293504892,
				"z": -1.2566415416,
				"element": "C" 
			},
			{
				"x": -1.8648116865,
				"y": -3.8880896852,
				"z": -1.8661050529,
				"element": "S" 
			},
			{
				"x": -2.2920043684,
				"y": -1.5246243619,
				"z": -0.6858509332,
				"element": "O" 
			},
			{
				"x": 0.7146950115,
				"y": 0.3709450507,
				"z": -0.3034287589,
				"element": "C" 
			},
			{
				"x": 0.2537483747,
				"y": 1.5359766399,
				"z": 0.3204757485,
				"element": "C" 
			},
			{
				"x": -3.1097113885,
				"y": 0.8474044574,
				"z": 0.5640920802,
				"element": "H" 
			},
			{
				"x": 0.6367510981,
				"y": -2.3355273861,
				"z": -1.559397251,
				"element": "H" 
			},
			{
				"x": 1.7657916078,
				"y": 0.245971563,
				"z": -0.5390635798,
				"element": "H" 
			},
			{
				"x": 0.9511931566,
				"y": 2.3258806505,
				"z": 0.5733978396,
				"element": "H" 
			}
		],
		 "valence_orbital": [ 
			{
				"type": "occ",
				"energy": -0.32781,
				"method": "rhf"
			},
			{
				"type": "occ",
				"energy": -0.2885,
				"method": "rhf"
			},
			{
				"type": "occ",
				"energy": -0.27386,
				"method": "rhf"
			},
			{
				"type": "occ",
				"energy": -0.2319,
				"method": "rhf"
			},
			{
				"type": "occ",
				"energy": -0.22402,
				"method": "rhf"
			},
			{
				"type": "unocc",
				"energy": -0.05155,
				"method": "rhf"
			},
			{
				"type": "unocc",
				"energy": -0.02344,
				"method": "rhf"
			},
			{
				"type": "unocc",
				"energy": -0.00865,
				"method": "rhf"
			},
			{
				"type": "unocc",
				"energy": 0.01122,
				"method": "rhf"
			},
			{
				"type": "unocc",
				"energy": 0.06076,
				"method": "rhf"
			}
		],
		"cosmo_sigma_profile": { 
			"-0.025": 0.0,
			"-0.024": 0.0,
			"-0.023": 0.0,
			"-0.022": 0.0,
			"-0.021": 0.0,
			"-0.02": 0.0,
			"-0.019": 0.0140886935925,
			"-0.018": 1.09335108314,
			"-0.017": 1.61953791178,
			"-0.016": 1.22174604826,
			"-0.015": 1.19635643231,
			"-0.014": 0.967829465821,
			"-0.013": 1.12430240114,
			"-0.012": 0.976824864335,
			"-0.011": 1.09961103299,
			"-0.01": 1.74030236674,
			"-0.009": 4.03000242336,
			"-0.008": 5.41326056879,
			"-0.007": 6.3852757121,
			"-0.006": 6.80168586396,
			"-0.005": 6.61653151076,
			"-0.004": 7.45337401736,
			"-0.003": 9.68874808632,
			"-0.002": 11.2466672045,
			"-0.001": 13.3324680914,
			"0.0": 14.4499854648,
			"0.001": 18.3591690088,
			"0.002": 14.6343475548,
			"0.003": 11.2867138213,
			"0.004": 14.1011066722,
			"0.005": 7.55950772326,
			"0.006": 5.37882191528,
			"0.007": 7.15558889643,
			"0.008": 9.14701435263,
			"0.009": 6.27935453485,
			"0.01": 4.03077185142,
			"0.011": 1.39514875555,
			"0.012": 0.0,
			"0.013": 0.0,
			"0.014": 0.0,
			"0.015": 0.0,
			"0.016": 0.0,
			"0.017": 0.0,
			"0.018": 0.0,
			"0.019": 0.0,
			"0.02": 0.0,
			"0.021": 0.0,
			"0.022": 0.0,
			"0.023": 0.0,
			"0.024": 0.0,
			"0.025": 0.0
		}
	}
}
