{
	 "smiles": "CSC(SC)=C1CCCC(=C(SC)SC)C1=C(C#N)C#N", 
	 "Tm": 429.15, 
	 "num_atms": 39, 
	 "gaussian": { 
		 "optdone": 1, 
		 "sigma_profile": "yes", 
		 "theory": "DFT", 
		 "functional": "B3LYP", 
		 "basiset": "6-31G**", 
		 "properties": { 
			 "R2extent": 7794.1168, 
			 "electric_dipole_moment_norm": 7.81223625539, 
			 "electric_quadrupole_moment_norm": 22.026456999, 
			 "total_energy": -2284.59633997, 
			 "HOMO_LUMO_gap": 0.1277, 
			 "cosmo_polarized_energy": -19.02, 
			 "cosmo_cavitation_energy": 48.29, 
			 "cosmo_dispersion_energy": -30.51, 
			 "cosmo_repulsion_energy": 2.23, 
			 "cosmo_total_nonelectrostatic_energy": 20.0, 
			 "SMD_solvation_energy": 11.04 
		},
		"coords": [
			{
				"x": 2.2078815763,
				"y": -2.4176037035,
				"z": -3.6447834299,
				"element": "C" 
			},
			{
				"x": 2.3224218641,
				"y": -2.2221491711,
				"z": -1.8264680456,
				"element": "S" 
			},
			{
				"x": 0.9625453643,
				"y": -1.0938451212,
				"z": -1.4919896601,
				"element": "C" 
			},
			{
				"x": 0.9608370502,
				"y": 0.471883479,
				"z": -2.3655736707,
				"element": "S" 
			},
			{
				"x": 2.5691298265,
				"y": 1.1765292724,
				"z": -1.8455977396,
				"element": "C" 
			},
			{
				"x": -0.0029428688,
				"y": -1.4230262123,
				"z": -0.5972221861,
				"element": "C" 
			},
			{
				"x": -0.1123604574,
				"y": -2.7598505482,
				"z": 0.1198775673,
				"element": "C" 
			},
			{
				"x": -0.0543176547,
				"y": -2.5658486697,
				"z": 1.6454196819,
				"element": "C" 
			},
			{
				"x": -1.1092434167,
				"y": -1.5503496156,
				"z": 2.1189302906,
				"element": "C" 
			},
			{
				"x": -1.0118060048,
				"y": -0.2407949104,
				"z": 1.3502471032,
				"element": "C" 
			},
			{
				"x": -0.8425715446,
				"y": 0.9811155146,
				"z": 1.9220544944,
				"element": "C" 
			},
			{
				"x": -0.6627764484,
				"y": 1.1788569345,
				"z": 3.7087020526,
				"element": "S" 
			},
			{
				"x": 1.0220412422,
				"y": 0.5142489523,
				"z": 4.0028766945,
				"element": "C" 
			},
			{
				"x": -0.9651335198,
				"y": 2.4958560985,
				"z": 0.986068563,
				"element": "S" 
			},
			{
				"x": 0.4668652973,
				"y": 3.4567812385,
				"z": 1.5889977721,
				"element": "C" 
			},
			{
				"x": -1.0575077821,
				"y": -0.4775300985,
				"z": -0.1212364411,
				"element": "C" 
			},
			{
				"x": -2.0868209762,
				"y": -0.0686188841,
				"z": -0.9175506952,
				"element": "C" 
			},
			{
				"x": -3.2056155216,
				"y": 0.6760503161,
				"z": -0.4147507775,
				"element": "C" 
			},
			{
				"x": -4.1403311615,
				"y": 1.2523583331,
				"z": -0.0310831077,
				"element": "N" 
			},
			{
				"x": -2.1688300098,
				"y": -0.4365215258,
				"z": -2.3030587908,
				"element": "C" 
			},
			{
				"x": -2.2674649134,
				"y": -0.742669046,
				"z": -3.4209177648,
				"element": "N" 
			},
			{
				"x": 3.0784835517,
				"y": -3.0087034641,
				"z": -3.9374296637,
				"element": "H" 
			},
			{
				"x": 2.2378935532,
				"y": -1.4452217481,
				"z": -4.1375515265,
				"element": "H" 
			},
			{
				"x": 1.2942588292,
				"y": -2.9472296278,
				"z": -3.91913731,
				"element": "H" 
			},
			{
				"x": 2.7062706289,
				"y": 2.0814698852,
				"z": -2.4417136043,
				"element": "H" 
			},
			{
				"x": 3.3830382432,
				"y": 0.4784659746,
				"z": -2.0471019514,
				"element": "H" 
			},
			{
				"x": 2.5549825169,
				"y": 1.4394537163,
				"z": -0.7858755828,
				"element": "H" 
			},
			{
				"x": -1.0805478759,
				"y": -3.2108846092,
				"z": -0.1426451645,
				"element": "H" 
			},
			{
				"x": 0.6696647878,
				"y": -3.4388248708,
				"z": -0.2207400704,
				"element": "H" 
			},
			{
				"x": -0.2174095008,
				"y": -3.5267912414,
				"z": 2.1460579919,
				"element": "H" 
			},
			{
				"x": 0.9475312385,
				"y": -2.2193555373,
				"z": 1.9269039079,
				"element": "H" 
			},
			{
				"x": -1.0392406501,
				"y": -1.3675463926,
				"z": 3.1916783226,
				"element": "H" 
			},
			{
				"x": -2.1082801209,
				"y": -1.9723322495,
				"z": 1.934628411,
				"element": "H" 
			},
			{
				"x": 1.2347076444,
				"y": 0.6996037816,
				"z": 5.0586244979,
				"element": "H" 
			},
			{
				"x": 1.7616709563,
				"y": 1.0377254686,
				"z": 3.3942909264,
				"element": "H" 
			},
			{
				"x": 1.0774487146,
				"y": -0.5593794554,
				"z": 3.8136659669,
				"element": "H" 
			},
			{
				"x": 0.4390597415,
				"y": 3.543176616,
				"z": 2.6763983205,
				"element": "H" 
			},
			{
				"x": 1.4117717226,
				"y": 3.0164965307,
				"z": 1.2621940703,
				"element": "H" 
			},
			{
				"x": 0.3619960779,
				"y": 4.4490045907,
				"z": 1.1445105475,
				"element": "H" 
			}
		],
		 "valence_orbital": [ 
			{
				"type": "occ",
				"energy": -0.26931,
				"method": "rhf"
			},
			{
				"type": "occ",
				"energy": -0.25096,
				"method": "rhf"
			},
			{
				"type": "occ",
				"energy": -0.24476,
				"method": "rhf"
			},
			{
				"type": "occ",
				"energy": -0.23369,
				"method": "rhf"
			},
			{
				"type": "occ",
				"energy": -0.22019,
				"method": "rhf"
			},
			{
				"type": "unocc",
				"energy": -0.09249,
				"method": "rhf"
			},
			{
				"type": "unocc",
				"energy": -0.03551,
				"method": "rhf"
			},
			{
				"type": "unocc",
				"energy": -0.02353,
				"method": "rhf"
			},
			{
				"type": "unocc",
				"energy": -0.00496,
				"method": "rhf"
			},
			{
				"type": "unocc",
				"energy": 0.01357,
				"method": "rhf"
			}
		],
		"cosmo_sigma_profile": { 
			"-0.025": 0.0,
			"-0.024": 0.0,
			"-0.023": 0.0,
			"-0.022": 0.0,
			"-0.021": 0.0,
			"-0.02": 0.0,
			"-0.019": 0.0,
			"-0.018": 0.0,
			"-0.017": 0.0,
			"-0.016": 0.0,
			"-0.015": 0.0,
			"-0.014": 0.0,
			"-0.013": 0.0,
			"-0.012": 0.0,
			"-0.011": 0.0,
			"-0.01": 0.0,
			"-0.009": 0.072518933035,
			"-0.008": 0.446186502089,
			"-0.007": 8.02616523636,
			"-0.006": 19.2723210927,
			"-0.005": 30.1110107937,
			"-0.004": 37.5916048578,
			"-0.003": 44.1092774967,
			"-0.002": 48.3385764976,
			"-0.001": 35.7271451153,
			"0.0": 20.5166271622,
			"0.001": 16.9470129924,
			"0.002": 16.7674596124,
			"0.003": 17.6116344759,
			"0.004": 19.0212260963,
			"0.005": 17.1166053431,
			"0.006": 15.7911386242,
			"0.007": 14.1881111853,
			"0.008": 9.94816398222,
			"0.009": 6.30701018526,
			"0.01": 5.40674867546,
			"0.011": 4.68401300155,
			"0.012": 2.42786736441,
			"0.013": 0.0,
			"0.014": 0.0,
			"0.015": 0.0,
			"0.016": 0.0,
			"0.017": 0.0,
			"0.018": 0.0,
			"0.019": 0.0,
			"0.02": 0.0,
			"0.021": 0.0,
			"0.022": 0.0,
			"0.023": 0.0,
			"0.024": 0.0,
			"0.025": 0.0
		}
	}
}
