{
	 "smiles": "COC(=O)C1(CC2=C(C)C(C)=C(C)C(C)=C2C(=O)O1)C(=O)OC", 
	 "Tm": 439.15, 
	 "num_atms": 43, 
	 "gaussian": { 
		 "optdone": 1, 
		 "sigma_profile": "yes", 
		 "theory": "DFT", 
		 "functional": "B3LYP", 
		 "basiset": "6-31G**", 
		 "properties": { 
			 "R2extent": 8001.0811, 
			 "electric_dipole_moment_norm": 5.24829827944, 
			 "electric_quadrupole_moment_norm": 27.5441773468, 
			 "total_energy": -1111.23821355, 
			 "HOMO_LUMO_gap": 0.1937, 
			 "cosmo_polarized_energy": -18.39, 
			 "cosmo_cavitation_energy": 44.63, 
			 "cosmo_dispersion_energy": -30.06, 
			 "cosmo_repulsion_energy": 2.32, 
			 "cosmo_total_nonelectrostatic_energy": 16.88, 
			 "SMD_solvation_energy": 10.91 
		},
		"coords": [
			{
				"x": -1.3503222185,
				"y": 3.0171368736,
				"z": 0.2120061021,
				"element": "C" 
			},
			{
				"x": -0.1077489416,
				"y": 2.4108117309,
				"z": -0.1912893231,
				"element": "O" 
			},
			{
				"x": -0.1998936814,
				"y": 1.5262245827,
				"z": -1.2043344824,
				"element": "C" 
			},
			{
				"x": -1.2253088883,
				"y": 1.2134543261,
				"z": -1.7557357994,
				"element": "O" 
			},
			{
				"x": 1.2001319927,
				"y": 0.9637909878,
				"z": -1.5382579253,
				"element": "C" 
			},
			{
				"x": 1.7657048403,
				"y": 0.1309867903,
				"z": -0.389401066,
				"element": "C" 
			},
			{
				"x": 0.9390376332,
				"y": -1.123621205,
				"z": -0.2039543214,
				"element": "C" 
			},
			{
				"x": 0.8078852285,
				"y": -1.7395045263,
				"z": 1.0492252834,
				"element": "C" 
			},
			{
				"x": 1.5770288489,
				"y": -1.2247330973,
				"z": 2.2511281599,
				"element": "C" 
			},
			{
				"x": -0.0369253228,
				"y": -2.8618465907,
				"z": 1.1744176366,
				"element": "C" 
			},
			{
				"x": -0.2496112941,
				"y": -3.4958873028,
				"z": 2.5349383689,
				"element": "C" 
			},
			{
				"x": -0.699864834,
				"y": -3.3902953416,
				"z": 0.0471254558,
				"element": "C" 
			},
			{
				"x": -1.5461061182,
				"y": -4.6411053656,
				"z": 0.1913879091,
				"element": "C" 
			},
			{
				"x": -0.5683869869,
				"y": -2.7770541279,
				"z": -1.2148183468,
				"element": "C" 
			},
			{
				"x": -1.3685476884,
				"y": -3.3009199251,
				"z": -2.3888177272,
				"element": "C" 
			},
			{
				"x": 0.2829904091,
				"y": -1.6559579437,
				"z": -1.3324472334,
				"element": "C" 
			},
			{
				"x": 0.5882060276,
				"y": -1.0814433743,
				"z": -2.6756165222,
				"element": "C" 
			},
			{
				"x": 0.4735282668,
				"y": -1.664152756,
				"z": -3.7287141108,
				"element": "O" 
			},
			{
				"x": 1.1181856378,
				"y": 0.1886837645,
				"z": -2.7283834581,
				"element": "O" 
			},
			{
				"x": 2.1537624595,
				"y": 2.1278248626,
				"z": -1.8868628881,
				"element": "C" 
			},
			{
				"x": 3.2552265596,
				"y": 2.2762686028,
				"z": -1.4100978598,
				"element": "O" 
			},
			{
				"x": 1.5978968539,
				"y": 2.933275422,
				"z": -2.8008861391,
				"element": "O" 
			},
			{
				"x": 2.422064978,
				"y": 4.0244560343,
				"z": -3.2518920031,
				"element": "C" 
			},
			{
				"x": -1.794580035,
				"y": 3.5633548704,
				"z": -0.6232379039,
				"element": "H" 
			},
			{
				"x": -2.0533402033,
				"y": 2.2534159152,
				"z": 0.5524297056,
				"element": "H" 
			},
			{
				"x": -1.0954155318,
				"y": 3.6964132503,
				"z": 1.024772072,
				"element": "H" 
			},
			{
				"x": 1.7712019317,
				"y": 0.7486104657,
				"z": 0.5089671775,
				"element": "H" 
			},
			{
				"x": 2.8128772692,
				"y": -0.0917634734,
				"z": -0.6263657359,
				"element": "H" 
			},
			{
				"x": 1.9839378881,
				"y": -2.048996905,
				"z": 2.8429296773,
				"element": "H" 
			},
			{
				"x": 0.9466098887,
				"y": -0.6270627355,
				"z": 2.9228628034,
				"element": "H" 
			},
			{
				"x": 2.4232690417,
				"y": -0.6013557961,
				"z": 1.9603127119,
				"element": "H" 
			},
			{
				"x": 0.3971203849,
				"y": -4.3714842749,
				"z": 2.6826263573,
				"element": "H" 
			},
			{
				"x": -1.2805203316,
				"y": -3.8346443477,
				"z": 2.6612945885,
				"element": "H" 
			},
			{
				"x": -0.0385592464,
				"y": -2.7988252072,
				"z": 3.3467135789,
				"element": "H" 
			},
			{
				"x": -1.1805314148,
				"y": -5.2839336743,
				"z": 0.9941800721,
				"element": "H" 
			},
			{
				"x": -2.5956826394,
				"y": -4.4065462723,
				"z": 0.4157607457,
				"element": "H" 
			},
			{
				"x": -1.5386037355,
				"y": -5.2368131556,
				"z": -0.722882016,
				"element": "H" 
			},
			{
				"x": -2.3311465735,
				"y": -3.6944799656,
				"z": -2.0544437744,
				"element": "H" 
			},
			{
				"x": -0.8381426572,
				"y": -4.1075417438,
				"z": -2.9091312525,
				"element": "H" 
			},
			{
				"x": -1.5495190754,
				"y": -2.5257587521,
				"z": -3.1298940828,
				"element": "H" 
			},
			{
				"x": 2.6864754492,
				"y": 4.6738583793,
				"z": -2.4139380073,
				"element": "H" 
			},
			{
				"x": 3.3364561615,
				"y": 3.6428734641,
				"z": -3.7116889816,
				"element": "H" 
			},
			{
				"x": 1.8196596673,
				"y": 4.5616875375,
				"z": -3.9831874451,
				"element": "H" 
			}
		],
		 "valence_orbital": [ 
			{
				"type": "occ",
				"energy": -0.29844,
				"method": "rhf"
			},
			{
				"type": "occ",
				"energy": -0.2749,
				"method": "rhf"
			},
			{
				"type": "occ",
				"energy": -0.25812,
				"method": "rhf"
			},
			{
				"type": "occ",
				"energy": -0.23868,
				"method": "rhf"
			},
			{
				"type": "occ",
				"energy": -0.23133,
				"method": "rhf"
			},
			{
				"type": "unocc",
				"energy": -0.03763,
				"method": "rhf"
			},
			{
				"type": "unocc",
				"energy": -0.01563,
				"method": "rhf"
			},
			{
				"type": "unocc",
				"energy": -0.00211,
				"method": "rhf"
			},
			{
				"type": "unocc",
				"energy": 0.00403,
				"method": "rhf"
			},
			{
				"type": "unocc",
				"energy": 0.05343,
				"method": "rhf"
			}
		],
		"cosmo_sigma_profile": { 
			"-0.025": 0.0,
			"-0.024": 0.0,
			"-0.023": 0.0,
			"-0.022": 0.0,
			"-0.021": 0.0,
			"-0.02": 0.0,
			"-0.019": 0.0,
			"-0.018": 0.0,
			"-0.017": 0.0,
			"-0.016": 0.0,
			"-0.015": 0.0,
			"-0.014": 0.0,
			"-0.013": 0.0,
			"-0.012": 0.0,
			"-0.011": 0.0,
			"-0.01": 0.0,
			"-0.009": 0.0,
			"-0.008": 0.224168156906,
			"-0.007": 7.23181942171,
			"-0.006": 17.8457448599,
			"-0.005": 22.0403831106,
			"-0.004": 41.6805582847,
			"-0.003": 42.9857674882,
			"-0.002": 35.4726002705,
			"-0.001": 29.2968645899,
			"0.0": 30.3498080839,
			"0.001": 21.2177536625,
			"0.002": 14.3771030111,
			"0.003": 13.1521707189,
			"0.004": 13.981514364,
			"0.005": 8.22130186955,
			"0.006": 7.70183500474,
			"0.007": 7.12495328226,
			"0.008": 6.81139768725,
			"0.009": 8.33705438386,
			"0.01": 11.133211381,
			"0.011": 7.54885311942,
			"0.012": 3.92167182084,
			"0.013": 1.14352735622,
			"0.014": 0.0,
			"0.015": 0.0,
			"0.016": 0.0,
			"0.017": 0.0,
			"0.018": 0.0,
			"0.019": 0.0,
			"0.02": 0.0,
			"0.021": 0.0,
			"0.022": 0.0,
			"0.023": 0.0,
			"0.024": 0.0,
			"0.025": 0.0
		}
	}
}
