{
	 "smiles": "CCCCCC=C", 
	 "Tm": 153.15, 
	 "num_atms": 21, 
	 "gaussian": { 
		 "optdone": 1, 
		 "sigma_profile": "yes", 
		 "theory": "DFT", 
		 "functional": "B3LYP", 
		 "basiset": "6-31G**", 
		 "properties": { 
			 "R2extent": 1536.04, 
			 "electric_dipole_moment_norm": 0.344512307472, 
			 "electric_quadrupole_moment_norm": 1.30406585723, 
			 "total_energy": -275.173041393, 
			 "HOMO_LUMO_gap": 0.27496, 
			 "cosmo_polarized_energy": -1.56, 
			 "cosmo_cavitation_energy": 22.54, 
			 "cosmo_dispersion_energy": -16.14, 
			 "cosmo_repulsion_energy": 1.38, 
			 "cosmo_total_nonelectrostatic_energy": 7.78, 
			 "SMD_solvation_energy": 4.16 
		},
		"coords": [
			{
				"x": 1.1489046938,
				"y": 0.9776501999,
				"z": -3.0937098492,
				"element": "C" 
			},
			{
				"x": 0.6355064093,
				"y": -0.4524253686,
				"z": -2.8857082756,
				"element": "C" 
			},
			{
				"x": -0.129315588,
				"y": -0.6727844405,
				"z": -1.5701924353,
				"element": "C" 
			},
			{
				"x": 0.7202753602,
				"y": -0.494576629,
				"z": -0.3017904506,
				"element": "C" 
			},
			{
				"x": -0.0315000898,
				"y": -0.8121182721,
				"z": 1.0000680842,
				"element": "C" 
			},
			{
				"x": -0.3172359329,
				"y": -2.2655426854,
				"z": 1.2947960058,
				"element": "C" 
			},
			{
				"x": 0.1645832353,
				"y": -3.3334821131,
				"z": 0.657290898,
				"element": "C" 
			},
			{
				"x": 1.6341467283,
				"y": 1.0843395047,
				"z": -4.0695946252,
				"element": "H" 
			},
			{
				"x": 0.3262898116,
				"y": 1.7014138042,
				"z": -3.0516468565,
				"element": "H" 
			},
			{
				"x": 1.880998786,
				"y": 1.2651591883,
				"z": -2.3320423398,
				"element": "H" 
			},
			{
				"x": -0.0237986089,
				"y": -0.7180813477,
				"z": -3.7220351654,
				"element": "H" 
			},
			{
				"x": 1.4804348978,
				"y": -1.1535665813,
				"z": -2.9336013042,
				"element": "H" 
			},
			{
				"x": -0.5619835247,
				"y": -1.6797538929,
				"z": -1.575158579,
				"element": "H" 
			},
			{
				"x": -0.9803965898,
				"y": 0.0225571515,
				"z": -1.5273316968,
				"element": "H" 
			},
			{
				"x": 1.0760451195,
				"y": 0.5408584731,
				"z": -0.2439636972,
				"element": "H" 
			},
			{
				"x": 1.6228814303,
				"y": -1.1173150078,
				"z": -0.3683452114,
				"element": "H" 
			},
			{
				"x": 0.5328340113,
				"y": -0.4064097959,
				"z": 1.8535716483,
				"element": "H" 
			},
			{
				"x": -0.9843752782,
				"y": -0.2619361699,
				"z": 1.00987591,
				"element": "H" 
			},
			{
				"x": -0.9784519365,
				"y": -2.4311276231,
				"z": 2.146794557,
				"element": "H" 
			},
			{
				"x": -0.0916184523,
				"y": -4.3400664171,
				"z": 0.9743524993,
				"element": "H" 
			},
			{
				"x": 0.8296755177,
				"y": -3.2532919771,
				"z": -0.1977291165,
				"element": "H" 
			}
		],
		 "valence_orbital": [ 
			{
				"type": "occ",
				"energy": -0.33886,
				"method": "rhf"
			},
			{
				"type": "occ",
				"energy": -0.31806,
				"method": "rhf"
			},
			{
				"type": "occ",
				"energy": -0.31091,
				"method": "rhf"
			},
			{
				"type": "occ",
				"energy": -0.31069,
				"method": "rhf"
			},
			{
				"type": "occ",
				"energy": -0.24777,
				"method": "rhf"
			},
			{
				"type": "unocc",
				"energy": 0.02719,
				"method": "rhf"
			},
			{
				"type": "unocc",
				"energy": 0.08838,
				"method": "rhf"
			},
			{
				"type": "unocc",
				"energy": 0.10746,
				"method": "rhf"
			},
			{
				"type": "unocc",
				"energy": 0.12289,
				"method": "rhf"
			},
			{
				"type": "unocc",
				"energy": 0.13257,
				"method": "rhf"
			}
		],
		"cosmo_sigma_profile": { 
			"-0.025": 0.0,
			"-0.024": 0.0,
			"-0.023": 0.0,
			"-0.022": 0.0,
			"-0.021": 0.0,
			"-0.02": 0.0,
			"-0.019": 0.0,
			"-0.018": 0.0,
			"-0.017": 0.0,
			"-0.016": 0.0,
			"-0.015": 0.0,
			"-0.014": 0.0,
			"-0.013": 0.0,
			"-0.012": 0.0,
			"-0.011": 0.0,
			"-0.01": 0.0,
			"-0.009": 0.0,
			"-0.008": 0.0,
			"-0.007": 0.0,
			"-0.006": 0.0,
			"-0.005": 0.711349082394,
			"-0.004": 5.04879754126,
			"-0.003": 11.3536205426,
			"-0.002": 26.9803932454,
			"-0.001": 33.9020163588,
			"0.0": 34.379647987,
			"0.001": 29.1984275317,
			"0.002": 14.3164609796,
			"0.003": 5.59072419691,
			"0.004": 3.22694179364,
			"0.005": 3.69321816076,
			"0.006": 2.47331754929,
			"0.007": 2.59420424773,
			"0.008": 0.806510851906,
			"0.009": 0.0,
			"0.01": 0.0,
			"0.011": 0.0,
			"0.012": 0.0,
			"0.013": 0.0,
			"0.014": 0.0,
			"0.015": 0.0,
			"0.016": 0.0,
			"0.017": 0.0,
			"0.018": 0.0,
			"0.019": 0.0,
			"0.02": 0.0,
			"0.021": 0.0,
			"0.022": 0.0,
			"0.023": 0.0,
			"0.024": 0.0,
			"0.025": 0.0
		}
	}
}
