{
	 "smiles": "CC1=CC(C)=NC(S)=N1", 
	 "Tm": 488.15, 
	 "num_atms": 17, 
	 "gaussian": { 
		 "optdone": 1, 
		 "sigma_profile": "yes", 
		 "theory": "DFT", 
		 "functional": "B3LYP", 
		 "basiset": "6-31G**", 
		 "properties": { 
			 "R2extent": 2109.0307, 
			 "electric_dipole_moment_norm": 3.32096004944, 
			 "electric_quadrupole_moment_norm": 8.05809717799, 
			 "total_energy": -741.162978303, 
			 "HOMO_LUMO_gap": 0.20217, 
			 "cosmo_polarized_energy": -8.11, 
			 "cosmo_cavitation_energy": 22.63, 
			 "cosmo_dispersion_energy": -17.33, 
			 "cosmo_repulsion_energy": 1.4, 
			 "cosmo_total_nonelectrostatic_energy": 6.69, 
			 "SMD_solvation_energy": 0.98 
		},
		"coords": [
			{
				"x": -2.6224402767,
				"y": 1.7950311018,
				"z": -1.1266267367,
				"element": "C" 
			},
			{
				"x": -1.813759861,
				"y": 0.8062826504,
				"z": -0.3286053338,
				"element": "C" 
			},
			{
				"x": -0.5888292375,
				"y": 0.3125286079,
				"z": -0.7866976631,
				"element": "C" 
			},
			{
				"x": 0.0931339847,
				"y": -0.6018983765,
				"z": 0.0201718311,
				"element": "C" 
			},
			{
				"x": 1.4190492849,
				"y": -1.1885867235,
				"z": -0.3886920332,
				"element": "C" 
			},
			{
				"x": -0.4114960455,
				"y": -0.9965516917,
				"z": 1.2016604372,
				"element": "N" 
			},
			{
				"x": -1.5884228689,
				"y": -0.4636131628,
				"z": 1.5441588588,
				"element": "C" 
			},
			{
				"x": -2.3083212597,
				"y": -0.9476302164,
				"z": 3.0998581938,
				"element": "S" 
			},
			{
				"x": -2.3195321392,
				"y": 0.4133481469,
				"z": 0.8512782028,
				"element": "N" 
			},
			{
				"x": -2.0511472623,
				"y": 2.7127072571,
				"z": -1.3053208817,
				"element": "H" 
			},
			{
				"x": -3.5370739226,
				"y": 2.0452873321,
				"z": -0.5877939811,
				"element": "H" 
			},
			{
				"x": -2.8871387358,
				"y": 1.382355347,
				"z": -2.106461529,
				"element": "H" 
			},
			{
				"x": -0.1792584602,
				"y": 0.6297144578,
				"z": -1.7405512009,
				"element": "H" 
			},
			{
				"x": 1.7741433795,
				"y": -1.8751815509,
				"z": 0.3808634429,
				"element": "H" 
			},
			{
				"x": 2.166147478,
				"y": -0.4006954979,
				"z": -0.5351907711,
				"element": "H" 
			},
			{
				"x": 1.330449155,
				"y": -1.7310071625,
				"z": -1.3364897233,
				"element": "H" 
			},
			{
				"x": -1.3048032125,
				"y": -1.7807905187,
				"z": 3.4350388874,
				"element": "H" 
			}
		],
		 "valence_orbital": [ 
			{
				"type": "occ",
				"energy": -0.30239,
				"method": "rhf"
			},
			{
				"type": "occ",
				"energy": -0.29971,
				"method": "rhf"
			},
			{
				"type": "occ",
				"energy": -0.29914,
				"method": "rhf"
			},
			{
				"type": "occ",
				"energy": -0.25301,
				"method": "rhf"
			},
			{
				"type": "occ",
				"energy": -0.2344,
				"method": "rhf"
			},
			{
				"type": "unocc",
				"energy": -0.03223,
				"method": "rhf"
			},
			{
				"type": "unocc",
				"energy": -0.02482,
				"method": "rhf"
			},
			{
				"type": "unocc",
				"energy": 0.02802,
				"method": "rhf"
			},
			{
				"type": "unocc",
				"energy": 0.08792,
				"method": "rhf"
			},
			{
				"type": "unocc",
				"energy": 0.10593,
				"method": "rhf"
			}
		],
		"cosmo_sigma_profile": { 
			"-0.025": 0.0,
			"-0.024": 0.0,
			"-0.023": 0.0,
			"-0.022": 0.0,
			"-0.021": 0.0,
			"-0.02": 0.0,
			"-0.019": 0.0,
			"-0.018": 0.0,
			"-0.017": 0.0,
			"-0.016": 0.0,
			"-0.015": 0.0,
			"-0.014": 0.0,
			"-0.013": 0.0,
			"-0.012": 0.0,
			"-0.011": 0.372242510882,
			"-0.01": 1.52865196245,
			"-0.009": 1.23693838943,
			"-0.008": 1.41655397981,
			"-0.007": 2.5340919492,
			"-0.006": 5.05307773985,
			"-0.005": 14.1150395352,
			"-0.004": 17.041052623,
			"-0.003": 14.9858646388,
			"-0.002": 15.1421958348,
			"-0.001": 20.7864473191,
			"0.0": 19.2570347819,
			"0.001": 11.7923362397,
			"0.002": 8.44622998671,
			"0.003": 8.64950002822,
			"0.004": 7.89953564001,
			"0.005": 8.40289041568,
			"0.006": 5.79395831687,
			"0.007": 6.2871203268,
			"0.008": 3.24062879238,
			"0.009": 1.68503353019,
			"0.01": 2.47500695751,
			"0.011": 1.53756972151,
			"0.012": 1.64384447075,
			"0.013": 0.863623048161,
			"0.014": 0.251948551932,
			"0.015": 0.0,
			"0.016": 0.0,
			"0.017": 0.0,
			"0.018": 0.0,
			"0.019": 0.0,
			"0.02": 0.0,
			"0.021": 0.0,
			"0.022": 0.0,
			"0.023": 0.0,
			"0.024": 0.0,
			"0.025": 0.0
		}
	}
}
