{
	 "smiles": "CS(=O)(=O)C1=CC(=C(Cl)S1)[N+]([O-])=O", 
	 "Tm": 422.15, 
	 "num_atms": 17, 
	 "gaussian": { 
		 "optdone": 1, 
		 "sigma_profile": "yes", 
		 "theory": "DFT", 
		 "functional": "B3LYP", 
		 "basiset": "6-31G**", 
		 "properties": { 
			 "R2extent": 4001.3983, 
			 "electric_dipole_moment_norm": 4.28850250437, 
			 "electric_quadrupole_moment_norm": 21.7638347623, 
			 "total_energy": -1804.94863825, 
			 "HOMO_LUMO_gap": 0.17671, 
			 "cosmo_polarized_energy": -16.79, 
			 "cosmo_cavitation_energy": 27.65, 
			 "cosmo_dispersion_energy": -20.99, 
			 "cosmo_repulsion_energy": 1.58, 
			 "cosmo_total_nonelectrostatic_energy": 8.24, 
			 "SMD_solvation_energy": 6.25 
		},
		"coords": [
			{
				"x": 1.5573949264,
				"y": -3.0486963242,
				"z": 2.0519696976,
				"element": "C" 
			},
			{
				"x": 0.4741806334,
				"y": -3.294351621,
				"z": 0.6285080966,
				"element": "S" 
			},
			{
				"x": -0.7018300288,
				"y": -4.0495862702,
				"z": 1.0787604527,
				"element": "O" 
			},
			{
				"x": 1.3029896341,
				"y": -3.7328618701,
				"z": -0.4982068486,
				"element": "O" 
			},
			{
				"x": -0.1024509299,
				"y": -1.6461181875,
				"z": 0.2431819824,
				"element": "C" 
			},
			{
				"x": 0.4935560806,
				"y": -0.7623955908,
				"z": -0.6071916043,
				"element": "C" 
			},
			{
				"x": -0.2387536869,
				"y": 0.4550799563,
				"z": -0.7023287774,
				"element": "C" 
			},
			{
				"x": -1.3850324994,
				"y": 0.46882604,
				"z": 0.0723278158,
				"element": "C" 
			},
			{
				"x": -2.5666156543,
				"y": 1.6907624053,
				"z": 0.2689976405,
				"element": "Cl" 
			},
			{
				"x": -1.5848455527,
				"y": -1.0291849116,
				"z": 0.9264432675,
				"element": "S" 
			},
			{
				"x": 0.2297351991,
				"y": 1.5385223438,
				"z": -1.5537434265,
				"element": "N" 
			},
			{
				"x": -0.4448784826,
				"y": 2.5623030999,
				"z": -1.6183699471,
				"element": "O" 
			},
			{
				"x": 1.2883109031,
				"y": 1.3409988794,
				"z": -2.1512478262,
				"element": "O" 
			},
			{
				"x": 1.9200523402,
				"y": -4.0409630145,
				"z": 2.3292622483,
				"element": "H" 
			},
			{
				"x": 0.9827354943,
				"y": -2.6132114017,
				"z": 2.8705169273,
				"element": "H" 
			},
			{
				"x": 2.3895865321,
				"y": -2.4063716059,
				"z": 1.7617179139,
				"element": "H" 
			},
			{
				"x": 1.4023650914,
				"y": -0.9539519272,
				"z": -1.1615976124,
				"element": "H" 
			}
		],
		 "valence_orbital": [ 
			{
				"type": "occ",
				"energy": -0.32063,
				"method": "rhf"
			},
			{
				"type": "occ",
				"energy": -0.31663,
				"method": "rhf"
			},
			{
				"type": "occ",
				"energy": -0.31208,
				"method": "rhf"
			},
			{
				"type": "occ",
				"energy": -0.30631,
				"method": "rhf"
			},
			{
				"type": "occ",
				"energy": -0.28553,
				"method": "rhf"
			},
			{
				"type": "unocc",
				"energy": -0.10882,
				"method": "rhf"
			},
			{
				"type": "unocc",
				"energy": -0.07419,
				"method": "rhf"
			},
			{
				"type": "unocc",
				"energy": -0.0301,
				"method": "rhf"
			},
			{
				"type": "unocc",
				"energy": -0.01776,
				"method": "rhf"
			},
			{
				"type": "unocc",
				"energy": 0.02634,
				"method": "rhf"
			}
		],
		"cosmo_sigma_profile": { 
			"-0.025": 0.0,
			"-0.024": 0.0,
			"-0.023": 0.0,
			"-0.022": 0.0,
			"-0.021": 0.0,
			"-0.02": 0.0,
			"-0.019": 0.0,
			"-0.018": 0.0,
			"-0.017": 0.0,
			"-0.016": 0.0,
			"-0.015": 0.0,
			"-0.014": 0.0,
			"-0.013": 0.0,
			"-0.012": 0.000117433265903,
			"-0.011": 0.154897651687,
			"-0.01": 2.22718751119,
			"-0.009": 7.74790214184,
			"-0.008": 8.81851835217,
			"-0.007": 8.7476126759,
			"-0.006": 10.6069591055,
			"-0.005": 17.2339510189,
			"-0.004": 23.4766860257,
			"-0.003": 16.9123542171,
			"-0.002": 14.718673675,
			"-0.001": 13.068106977,
			"0.0": 13.6022646924,
			"0.001": 10.6064079439,
			"0.002": 6.6269155477,
			"0.003": 4.83448894907,
			"0.004": 5.91352370593,
			"0.005": 5.72651163428,
			"0.006": 8.42286849218,
			"0.007": 13.32860452,
			"0.008": 8.43568978744,
			"0.009": 7.09204977145,
			"0.01": 9.69304043674,
			"0.011": 8.12772799126,
			"0.012": 0.697052269357,
			"0.013": 0.0,
			"0.014": 0.0,
			"0.015": 0.0,
			"0.016": 0.0,
			"0.017": 0.0,
			"0.018": 0.0,
			"0.019": 0.0,
			"0.02": 0.0,
			"0.021": 0.0,
			"0.022": 0.0,
			"0.023": 0.0,
			"0.024": 0.0,
			"0.025": 0.0
		}
	}
}
