{
	 "smiles": "NC(N)=NS(=O)(=O)C1=CC=C(N)C=C1", 
	 "Tm": 465.15, 
	 "num_atms": 24, 
	 "gaussian": { 
		 "optdone": 1, 
		 "sigma_profile": "yes", 
		 "theory": "DFT", 
		 "functional": "B3LYP", 
		 "basiset": "6-31G**", 
		 "properties": { 
			 "R2extent": 3671.9944, 
			 "electric_dipole_moment_norm": 4.90346009365, 
			 "electric_quadrupole_moment_norm": 37.4659482167, 
			 "total_energy": -1040.36607479, 
			 "HOMO_LUMO_gap": 0.2012, 
			 "cosmo_polarized_energy": -27.92, 
			 "cosmo_cavitation_energy": 29.69, 
			 "cosmo_dispersion_energy": -22.51, 
			 "cosmo_repulsion_energy": 1.76, 
			 "cosmo_total_nonelectrostatic_energy": 8.94, 
			 "SMD_solvation_energy": 3.8 
		},
		"coords": [
			{
				"x": 0.5974578448,
				"y": -3.8983157426,
				"z": -0.2834324579,
				"element": "N" 
			},
			{
				"x": -0.1383285842,
				"y": -2.7911050953,
				"z": -0.6443145935,
				"element": "C" 
			},
			{
				"x": -0.6975333655,
				"y": -2.8474315492,
				"z": -1.8853924338,
				"element": "N" 
			},
			{
				"x": -0.1983541083,
				"y": -1.810550744,
				"z": 0.2233878441,
				"element": "N" 
			},
			{
				"x": -1.3016589531,
				"y": -0.5748118427,
				"z": 0.0593595207,
				"element": "S" 
			},
			{
				"x": -2.3761681435,
				"y": -0.7730743373,
				"z": 1.0405718864,
				"element": "O" 
			},
			{
				"x": -1.6795297265,
				"y": -0.3565493722,
				"z": -1.3638363299,
				"element": "O" 
			},
			{
				"x": -0.3329762242,
				"y": 0.8294565994,
				"z": 0.5680292817,
				"element": "C" 
			},
			{
				"x": -0.1541574724,
				"y": 1.0879965765,
				"z": 1.930126852,
				"element": "C" 
			},
			{
				"x": 0.5948173294,
				"y": 2.1858010313,
				"z": 2.3313642479,
				"element": "C" 
			},
			{
				"x": 1.172559058,
				"y": 3.0477121604,
				"z": 1.3780015276,
				"element": "C" 
			},
			{
				"x": 1.9610509311,
				"y": 4.1176754905,
				"z": 1.7801643137,
				"element": "N" 
			},
			{
				"x": 0.973577598,
				"y": 2.7770380161,
				"z": 0.0108360221,
				"element": "C" 
			},
			{
				"x": 0.2271499428,
				"y": 1.6758128017,
				"z": -0.3909482653,
				"element": "C" 
			},
			{
				"x": 1.11996187,
				"y": -4.3531416254,
				"z": -1.0195585395,
				"element": "H" 
			},
			{
				"x": 1.1042977783,
				"y": -3.7743757268,
				"z": 0.5818466334,
				"element": "H" 
			},
			{
				"x": -1.3039458295,
				"y": -2.0685686031,
				"z": -2.1293846042,
				"element": "H" 
			},
			{
				"x": -0.9084382605,
				"y": -3.7580356843,
				"z": -2.2635627589,
				"element": "H" 
			},
			{
				"x": -0.6153545825,
				"y": 0.4379804111,
				"z": 2.6657833571,
				"element": "H" 
			},
			{
				"x": 0.7348412181,
				"y": 2.388260688,
				"z": 3.3901207518,
				"element": "H" 
			},
			{
				"x": 2.0713425559,
				"y": 4.8650832971,
				"z": 1.1099752716,
				"element": "H" 
			},
			{
				"x": 1.8076884932,
				"y": 4.4541071712,
				"z": 2.719968166,
				"element": "H" 
			},
			{
				"x": 1.4068297402,
				"y": 3.4388580557,
				"z": -0.7347401942,
				"element": "H" 
			},
			{
				"x": 0.0591708901,
				"y": 1.4751780238,
				"z": -1.4433654988,
				"element": "H" 
			}
		],
		 "valence_orbital": [ 
			{
				"type": "occ",
				"energy": -0.27662,
				"method": "rhf"
			},
			{
				"type": "occ",
				"energy": -0.26202,
				"method": "rhf"
			},
			{
				"type": "occ",
				"energy": -0.25443,
				"method": "rhf"
			},
			{
				"type": "occ",
				"energy": -0.24516,
				"method": "rhf"
			},
			{
				"type": "occ",
				"energy": -0.21039,
				"method": "rhf"
			},
			{
				"type": "unocc",
				"energy": -0.00919,
				"method": "rhf"
			},
			{
				"type": "unocc",
				"energy": -0.00337,
				"method": "rhf"
			},
			{
				"type": "unocc",
				"energy": 0.02466,
				"method": "rhf"
			},
			{
				"type": "unocc",
				"energy": 0.0638,
				"method": "rhf"
			},
			{
				"type": "unocc",
				"energy": 0.07217,
				"method": "rhf"
			}
		],
		"cosmo_sigma_profile": { 
			"-0.025": 0.0,
			"-0.024": 0.0,
			"-0.023": 0.0,
			"-0.022": 0.0,
			"-0.021": 0.0,
			"-0.02": 0.0,
			"-0.019": 0.0,
			"-0.018": 0.0,
			"-0.017": 0.0,
			"-0.016": 0.0,
			"-0.015": 1.15802482209,
			"-0.014": 3.83285006499,
			"-0.013": 6.57150646118,
			"-0.012": 6.56960533015,
			"-0.011": 7.00272467703,
			"-0.01": 7.15999856571,
			"-0.009": 6.6384655189,
			"-0.008": 5.47466857166,
			"-0.007": 7.33623468828,
			"-0.006": 10.3724504205,
			"-0.005": 9.15859703426,
			"-0.004": 9.48508790437,
			"-0.003": 8.48682065783,
			"-0.002": 9.27590889653,
			"-0.001": 8.3946230848,
			"0.0": 8.66111145381,
			"0.001": 9.89313826979,
			"0.002": 12.4318477846,
			"0.003": 14.0633092343,
			"0.004": 18.3807225435,
			"0.005": 11.4853666717,
			"0.006": 5.97995386718,
			"0.007": 6.14335900684,
			"0.008": 5.17686081943,
			"0.009": 6.64747846715,
			"0.01": 5.89998184981,
			"0.011": 7.94420355211,
			"0.012": 10.6064095503,
			"0.013": 5.39446309576,
			"0.014": 0.0291549224097,
			"0.015": 0.0,
			"0.016": 0.0,
			"0.017": 0.0,
			"0.018": 0.0,
			"0.019": 0.0,
			"0.02": 0.0,
			"0.021": 0.0,
			"0.022": 0.0,
			"0.023": 0.0,
			"0.024": 0.0,
			"0.025": 0.0
		}
	}
}
