{
	 "smiles": "OC(=O)C1=C2C=CC=CC2=CC=C1P(C1=CC=CC=C1)C1=CC=CC=C1", 
	 "Tm": 464.15, 
	 "num_atms": 43, 
	 "gaussian": { 
		 "optdone": 1, 
		 "sigma_profile": "yes", 
		 "theory": "DFT", 
		 "functional": "B3LYP", 
		 "basiset": "6-31G**", 
		 "properties": { 
			 "R2extent": 10054.6658, 
			 "electric_dipole_moment_norm": 4.83856578854, 
			 "electric_quadrupole_moment_norm": 15.3306558813, 
			 "total_energy": -1378.50054095, 
			 "HOMO_LUMO_gap": 0.15271, 
			 "cosmo_polarized_energy": -18.09, 
			 "cosmo_cavitation_energy": 47.88, 
			 "cosmo_dispersion_energy": -32.96, 
			 "cosmo_repulsion_energy": 2.54, 
			 "cosmo_total_nonelectrostatic_energy": 17.47, 
			 "SMD_solvation_energy": 8.61 
		},
		"coords": [
			{
				"x": -1.7296030599,
				"y": 1.0380370728,
				"z": -2.5616594631,
				"element": "O" 
			},
			{
				"x": -0.6396986576,
				"y": 0.4219997645,
				"z": -2.0307626153,
				"element": "C" 
			},
			{
				"x": 0.388439461,
				"y": 0.365240696,
				"z": -2.6590607094,
				"element": "O" 
			},
			{
				"x": -0.8434579546,
				"y": -0.1991839811,
				"z": -0.6675048243,
				"element": "C" 
			},
			{
				"x": -1.6987387335,
				"y": -1.348692871,
				"z": -0.564535307,
				"element": "C" 
			},
			{
				"x": -2.4098716432,
				"y": -1.8900308422,
				"z": -1.6737268553,
				"element": "C" 
			},
			{
				"x": -3.2145886296,
				"y": -2.9981682336,
				"z": -1.5245669119,
				"element": "C" 
			},
			{
				"x": -3.3507409465,
				"y": -3.6253909717,
				"z": -0.2638779891,
				"element": "C" 
			},
			{
				"x": -2.6717590761,
				"y": -3.131484726,
				"z": 0.8266911878,
				"element": "C" 
			},
			{
				"x": -1.8332012655,
				"y": -1.991775611,
				"z": 0.7087282787,
				"element": "C" 
			},
			{
				"x": -1.1141775973,
				"y": -1.4754979785,
				"z": 1.8192266116,
				"element": "C" 
			},
			{
				"x": -0.3043283622,
				"y": -0.3750142138,
				"z": 1.6873935963,
				"element": "C" 
			},
			{
				"x": -0.1574488858,
				"y": 0.2910693218,
				"z": 0.4379544653,
				"element": "C" 
			},
			{
				"x": 0.942410007,
				"y": 1.7845756412,
				"z": 0.2307531516,
				"element": "P" 
			},
			{
				"x": 0.6104931553,
				"y": 2.7584500067,
				"z": 1.7669663231,
				"element": "C" 
			},
			{
				"x": -0.651178052,
				"y": 2.7801451922,
				"z": 2.384733554,
				"element": "C" 
			},
			{
				"x": -0.9219546189,
				"y": 3.6611254764,
				"z": 3.4337248811,
				"element": "C" 
			},
			{
				"x": 0.0594626205,
				"y": 4.5440580415,
				"z": 3.8842686525,
				"element": "C" 
			},
			{
				"x": 1.3132581101,
				"y": 4.5462204302,
				"z": 3.2692046776,
				"element": "C" 
			},
			{
				"x": 1.5829572386,
				"y": 3.6704111311,
				"z": 2.2182428793,
				"element": "C" 
			},
			{
				"x": 2.5963426701,
				"y": 1.0001099785,
				"z": 0.5359081934,
				"element": "C" 
			},
			{
				"x": 3.1939656826,
				"y": 0.8331100198,
				"z": 1.7947657167,
				"element": "C" 
			},
			{
				"x": 4.4385488747,
				"y": 0.2116785662,
				"z": 1.9112992477,
				"element": "C" 
			},
			{
				"x": 5.098136576,
				"y": -0.2596294988,
				"z": 0.7745456754,
				"element": "C" 
			},
			{
				"x": 4.5087508778,
				"y": -0.1049818065,
				"z": -0.4814813293,
				"element": "C" 
			},
			{
				"x": 3.2697902652,
				"y": 0.5255582817,
				"z": -0.6025830637,
				"element": "C" 
			},
			{
				"x": -2.4511177832,
				"y": 1.0294927974,
				"z": -1.9154829906,
				"element": "H" 
			},
			{
				"x": -2.3149084843,
				"y": -1.4265310146,
				"z": -2.6502688542,
				"element": "H" 
			},
			{
				"x": -3.7464961057,
				"y": -3.3962665975,
				"z": -2.3835641912,
				"element": "H" 
			},
			{
				"x": -3.9880193166,
				"y": -4.4987167286,
				"z": -0.1618375361,
				"element": "H" 
			},
			{
				"x": -2.7641763371,
				"y": -3.6102354832,
				"z": 1.7980029077,
				"element": "H" 
			},
			{
				"x": -1.2110955444,
				"y": -1.9721933957,
				"z": 2.7813789982,
				"element": "H" 
			},
			{
				"x": 0.2341893666,
				"y": 0.0018600523,
				"z": 2.5503565728,
				"element": "H" 
			},
			{
				"x": -1.431319125,
				"y": 2.1035319494,
				"z": 2.0502938368,
				"element": "H" 
			},
			{
				"x": -1.9039256979,
				"y": 3.6540755124,
				"z": 3.8989881099,
				"element": "H" 
			},
			{
				"x": -0.1511674649,
				"y": 5.2274837617,
				"z": 4.7017122859,
				"element": "H" 
			},
			{
				"x": 2.0843314095,
				"y": 5.2340110889,
				"z": 3.6052176005,
				"element": "H" 
			},
			{
				"x": 2.5612168515,
				"y": 3.6941465841,
				"z": 1.7465392081,
				"element": "H" 
			},
			{
				"x": 2.6953303407,
				"y": 1.1985872732,
				"z": 2.6869841396,
				"element": "H" 
			},
			{
				"x": 4.891042332,
				"y": 0.0932602618,
				"z": 2.8922215762,
				"element": "H" 
			},
			{
				"x": 6.0665192703,
				"y": -0.7432693175,
				"z": 0.8676287855,
				"element": "H" 
			},
			{
				"x": 5.0153525753,
				"y": -0.4700656041,
				"z": -1.370464756,
				"element": "H" 
			},
			{
				"x": 2.8101356569,
				"y": 0.6367899736,
				"z": -1.5806537168,
				"element": "H" 
			}
		],
		 "valence_orbital": [ 
			{
				"type": "occ",
				"energy": -0.25396,
				"method": "rhf"
			},
			{
				"type": "occ",
				"energy": -0.24699,
				"method": "rhf"
			},
			{
				"type": "occ",
				"energy": -0.24528,
				"method": "rhf"
			},
			{
				"type": "occ",
				"energy": -0.22946,
				"method": "rhf"
			},
			{
				"type": "occ",
				"energy": -0.21217,
				"method": "rhf"
			},
			{
				"type": "unocc",
				"energy": -0.05946,
				"method": "rhf"
			},
			{
				"type": "unocc",
				"energy": -0.03211,
				"method": "rhf"
			},
			{
				"type": "unocc",
				"energy": -0.01602,
				"method": "rhf"
			},
			{
				"type": "unocc",
				"energy": -0.01241,
				"method": "rhf"
			},
			{
				"type": "unocc",
				"energy": -0.00531,
				"method": "rhf"
			}
		],
		"cosmo_sigma_profile": { 
			"-0.025": 0.0,
			"-0.024": 0.0,
			"-0.023": 0.0,
			"-0.022": 0.0,
			"-0.021": 0.0,
			"-0.02": 0.0,
			"-0.019": 0.429707003905,
			"-0.018": 0.695589490547,
			"-0.017": 1.00803562057,
			"-0.016": 0.879817372662,
			"-0.015": 0.185746096385,
			"-0.014": 0.721488987245,
			"-0.013": 0.808213089523,
			"-0.012": 1.34899269836,
			"-0.011": 1.0323796139,
			"-0.01": 0.742521142343,
			"-0.009": 0.628902533006,
			"-0.008": 1.08920882319,
			"-0.007": 4.44676786249,
			"-0.006": 21.2019617989,
			"-0.005": 31.6829770562,
			"-0.004": 36.6280648003,
			"-0.003": 29.703822236,
			"-0.002": 23.1133274238,
			"-0.001": 23.153255594,
			"0.0": 22.1226794247,
			"0.001": 23.9102628969,
			"0.002": 31.0653540788,
			"0.003": 35.4232444024,
			"0.004": 32.3689238503,
			"0.005": 23.1115294963,
			"0.006": 9.82969862698,
			"0.007": 4.34366568644,
			"0.008": 3.6807880076,
			"0.009": 5.51748436482,
			"0.01": 6.7118389052,
			"0.011": 4.00450972259,
			"0.012": 2.11301807925,
			"0.013": 0.212024952284,
			"0.014": 0.0,
			"0.015": 0.0,
			"0.016": 0.0,
			"0.017": 0.0,
			"0.018": 0.0,
			"0.019": 0.0,
			"0.02": 0.0,
			"0.021": 0.0,
			"0.022": 0.0,
			"0.023": 0.0,
			"0.024": 0.0,
			"0.025": 0.0
		}
	}
}
