{
	 "smiles": "CNC1=CC=C(NC)C2=C1C(=O)C1=C(C=CC=C1)C2=O", 
	 "Tm": 493.15, 
	 "num_atms": 34, 
	 "gaussian": { 
		 "optdone": 1, 
		 "sigma_profile": "yes", 
		 "theory": "DFT", 
		 "functional": "B3LYP", 
		 "basiset": "6-31G**", 
		 "properties": { 
			 "R2extent": 6094.093, 
			 "electric_dipole_moment_norm": 3.02763381703, 
			 "electric_quadrupole_moment_norm": 12.3906836244, 
			 "total_energy": -878.124588594, 
			 "HOMO_LUMO_gap": 0.08785, 
			 "cosmo_polarized_energy": -12.17, 
			 "cosmo_cavitation_energy": 36.22, 
			 "cosmo_dispersion_energy": -27.32, 
			 "cosmo_repulsion_energy": 2.02, 
			 "cosmo_total_nonelectrostatic_energy": 10.92, 
			 "SMD_solvation_energy": 5.13 
		},
		"coords": [
			{
				"x": -1.65506772,
				"y": 2.2493187191,
				"z": 2.5199674328,
				"element": "C" 
			},
			{
				"x": -0.726443812,
				"y": 1.3060941464,
				"z": 1.9426812954,
				"element": "N" 
			},
			{
				"x": -0.7888852482,
				"y": 0.8332256146,
				"z": 0.6687858186,
				"element": "C" 
			},
			{
				"x": -1.8281438985,
				"y": 1.2682663843,
				"z": -0.2038454022,
				"element": "C" 
			},
			{
				"x": -1.9265545964,
				"y": 0.8166084895,
				"z": -1.4927792359,
				"element": "C" 
			},
			{
				"x": -0.9954419013,
				"y": -0.1148716117,
				"z": -2.0370019802,
				"element": "C" 
			},
			{
				"x": -1.1283989794,
				"y": -0.5388298705,
				"z": -3.3226478982,
				"element": "N" 
			},
			{
				"x": -2.1704370442,
				"y": -0.1154074128,
				"z": -4.2282841435,
				"element": "C" 
			},
			{
				"x": 0.0588881313,
				"y": -0.5737329383,
				"z": -1.1948689577,
				"element": "C" 
			},
			{
				"x": 0.16239348,
				"y": -0.0986941666,
				"z": 0.1608700317,
				"element": "C" 
			},
			{
				"x": 1.2429840073,
				"y": -0.5655085861,
				"z": 1.0324463072,
				"element": "C" 
			},
			{
				"x": 1.3748895657,
				"y": -0.1826113336,
				"z": 2.2148907581,
				"element": "O" 
			},
			{
				"x": 2.2243758859,
				"y": -1.535814302,
				"z": 0.4878875543,
				"element": "C" 
			},
			{
				"x": 2.123426061,
				"y": -1.9990114654,
				"z": -0.8339564849,
				"element": "C" 
			},
			{
				"x": 3.0645607228,
				"y": -2.916297642,
				"z": -1.323746631,
				"element": "C" 
			},
			{
				"x": 4.0937943916,
				"y": -3.3657232236,
				"z": -0.5042973622,
				"element": "C" 
			},
			{
				"x": 4.1945913109,
				"y": -2.9032515615,
				"z": 0.8154124081,
				"element": "C" 
			},
			{
				"x": 3.2655762897,
				"y": -1.9939547853,
				"z": 1.3082775951,
				"element": "C" 
			},
			{
				"x": 1.0325193324,
				"y": -1.5314067591,
				"z": -1.7241432041,
				"element": "C" 
			},
			{
				"x": 0.9849192656,
				"y": -1.9723006723,
				"z": -2.8926972403,
				"element": "O" 
			},
			{
				"x": -1.6600428032,
				"y": 3.2117761193,
				"z": 1.9892060564,
				"element": "H" 
			},
			{
				"x": -1.3534708759,
				"y": 2.4394738632,
				"z": 3.5517656223,
				"element": "H" 
			},
			{
				"x": -2.6853446126,
				"y": 1.8669150007,
				"z": 2.5367468949,
				"element": "H" 
			},
			{
				"x": 0.053015879,
				"y": 0.9340112078,
				"z": 2.4835478842,
				"element": "H" 
			},
			{
				"x": -2.5627919626,
				"y": 1.9770350109,
				"z": 0.1608642345,
				"element": "H" 
			},
			{
				"x": -2.7366001284,
				"y": 1.1794586982,
				"z": -2.1150679177,
				"element": "H" 
			},
			{
				"x": -0.4125822789,
				"y": -1.2027943187,
				"z": -3.6146970572,
				"element": "H" 
			},
			{
				"x": -3.1741315916,
				"y": -0.3765358652,
				"z": -3.8644119214,
				"element": "H" 
			},
			{
				"x": -2.149501103,
				"y": 0.9674887041,
				"z": -4.4152143734,
				"element": "H" 
			},
			{
				"x": -2.0204688258,
				"y": -0.6213761059,
				"z": -5.1839151879,
				"element": "H" 
			},
			{
				"x": 2.9623267552,
				"y": -3.2569537607,
				"z": -2.3480924789,
				"element": "H" 
			},
			{
				"x": 4.8207664992,
				"y": -4.0762517545,
				"z": -0.8874038218,
				"element": "H" 
			},
			{
				"x": 4.9996097122,
				"y": -3.2557192676,
				"z": 1.4540203685,
				"element": "H" 
			},
			{
				"x": 3.3191700921,
				"y": -1.6195245546,
				"z": 2.3245010365,
				"element": "H" 
			}
		],
		 "valence_orbital": [ 
			{
				"type": "occ",
				"energy": -0.25139,
				"method": "rhf"
			},
			{
				"type": "occ",
				"energy": -0.25076,
				"method": "rhf"
			},
			{
				"type": "occ",
				"energy": -0.24576,
				"method": "rhf"
			},
			{
				"type": "occ",
				"energy": -0.24119,
				"method": "rhf"
			},
			{
				"type": "occ",
				"energy": -0.17568,
				"method": "rhf"
			},
			{
				"type": "unocc",
				"energy": -0.08783,
				"method": "rhf"
			},
			{
				"type": "unocc",
				"energy": -0.03312,
				"method": "rhf"
			},
			{
				"type": "unocc",
				"energy": -0.00985,
				"method": "rhf"
			},
			{
				"type": "unocc",
				"energy": 0.02011,
				"method": "rhf"
			},
			{
				"type": "unocc",
				"energy": 0.07003,
				"method": "rhf"
			}
		],
		"cosmo_sigma_profile": { 
			"-0.025": 0.0,
			"-0.024": 0.0,
			"-0.023": 0.0,
			"-0.022": 0.0,
			"-0.021": 0.0,
			"-0.02": 0.0,
			"-0.019": 0.0,
			"-0.018": 0.0,
			"-0.017": 0.0,
			"-0.016": 0.0,
			"-0.015": 0.0,
			"-0.014": 0.0,
			"-0.013": 0.0,
			"-0.012": 0.0,
			"-0.011": 0.0,
			"-0.01": 0.0,
			"-0.009": 0.224843701286,
			"-0.008": 1.24872177069,
			"-0.007": 6.68801357564,
			"-0.006": 16.4029490589,
			"-0.005": 25.0301920407,
			"-0.004": 25.0459933578,
			"-0.003": 21.5089532244,
			"-0.002": 23.3502863783,
			"-0.001": 19.057023204,
			"0.0": 17.3653629071,
			"0.001": 20.8521596695,
			"0.002": 31.8733832264,
			"0.003": 35.0803211371,
			"0.004": 17.1195313609,
			"0.005": 4.23928899445,
			"0.006": 3.44152368204,
			"0.007": 3.4106171421,
			"0.008": 2.97817399082,
			"0.009": 3.15244113605,
			"0.01": 2.8882660818,
			"0.011": 4.09283668699,
			"0.012": 3.991469762,
			"0.013": 1.00811968211,
			"0.014": 0.0,
			"0.015": 0.0,
			"0.016": 0.0,
			"0.017": 0.0,
			"0.018": 0.0,
			"0.019": 0.0,
			"0.02": 0.0,
			"0.021": 0.0,
			"0.022": 0.0,
			"0.023": 0.0,
			"0.024": 0.0,
			"0.025": 0.0
		}
	}
}
