{
	 "smiles": "CC1=CC(Br)=C(NC(=O)CCl)C(Br)=C1", 
	 "Tm": 451.15, 
	 "num_atms": 22, 
	 "gaussian": { 
		 "optdone": 1, 
		 "sigma_profile": "yes", 
		 "theory": "DFT", 
		 "functional": "B3LYP", 
		 "basiset": "6-31G**", 
		 "properties": { 
			 "R2extent": 6234.5879, 
			 "electric_dipole_moment_norm": 2.53559392845, 
			 "electric_quadrupole_moment_norm": 10.7669347258, 
			 "total_energy": -6080.7713612, 
			 "HOMO_LUMO_gap": 0.2141, 
			 "cosmo_polarized_energy": -11.51, 
			 "cosmo_cavitation_energy": 32.65, 
			 "cosmo_dispersion_energy": -23.63, 
			 "cosmo_repulsion_energy": 1.89, 
			 "cosmo_total_nonelectrostatic_energy": 10.91, 
			 "SMD_solvation_energy": 3.93 
		},
		"coords": [
			{
				"x": 0.4072769301,
				"y": 3.6490103754,
				"z": -1.6450283351,
				"element": "C" 
			},
			{
				"x": 0.1402047642,
				"y": 2.4621063911,
				"z": -0.7508070479,
				"element": "C" 
			},
			{
				"x": 1.1917466244,
				"y": 1.67189404,
				"z": -0.2765339767,
				"element": "C" 
			},
			{
				"x": 0.9465423448,
				"y": 0.5624687842,
				"z": 0.5284971224,
				"element": "C" 
			},
			{
				"x": 2.4464856028,
				"y": -0.3891423571,
				"z": 1.2111967894,
				"element": "Br" 
			},
			{
				"x": -0.3614027215,
				"y": 0.1781855719,
				"z": 0.8697057933,
				"element": "C" 
			},
			{
				"x": -0.6297810321,
				"y": -0.9479608079,
				"z": 1.6792520019,
				"element": "N" 
			},
			{
				"x": -0.4040865765,
				"y": -2.233739342,
				"z": 1.2630969812,
				"element": "C" 
			},
			{
				"x": 0.1201520209,
				"y": -2.5460010228,
				"z": 0.2095213654,
				"element": "O" 
			},
			{
				"x": -0.7977777024,
				"y": -3.3585182904,
				"z": 2.2234098275,
				"element": "C" 
			},
			{
				"x": -1.7636607861,
				"y": -2.8919018422,
				"z": 3.6880952342,
				"element": "Cl" 
			},
			{
				"x": -1.4024988329,
				"y": 0.9936581353,
				"z": 0.396282647,
				"element": "C" 
			},
			{
				"x": -3.2090929715,
				"y": 0.5695034488,
				"z": 0.8514516729,
				"element": "Br" 
			},
			{
				"x": -1.165775989,
				"y": 2.1173277013,
				"z": -0.3881748168,
				"element": "C" 
			},
			{
				"x": -0.3619103401,
				"y": 4.4175345337,
				"z": -1.528560446,
				"element": "H" 
			},
			{
				"x": 1.3785250691,
				"y": 4.1016988993,
				"z": -1.4264988582,
				"element": "H" 
			},
			{
				"x": 0.4151920642,
				"y": 3.3487893728,
				"z": -2.6998217637,
				"element": "H" 
			},
			{
				"x": 2.2169159509,
				"y": 1.9282295435,
				"z": -0.5194433936,
				"element": "H" 
			},
			{
				"x": -1.2404713697,
				"y": -0.8197504859,
				"z": 2.4768327529,
				"element": "H" 
			},
			{
				"x": 0.1154792251,
				"y": -3.8354435638,
				"z": 2.582092258,
				"element": "H" 
			},
			{
				"x": -1.3840421383,
				"y": -4.0880122471,
				"z": 1.6658914388,
				"element": "H" 
			},
			{
				"x": -2.0042201363,
				"y": 2.7170631617,
				"z": -0.724157247,
				"element": "H" 
			}
		],
		 "valence_orbital": [ 
			{
				"type": "occ",
				"energy": -0.29088,
				"method": "rhf"
			},
			{
				"type": "occ",
				"energy": -0.28659,
				"method": "rhf"
			},
			{
				"type": "occ",
				"energy": -0.26619,
				"method": "rhf"
			},
			{
				"type": "occ",
				"energy": -0.24968,
				"method": "rhf"
			},
			{
				"type": "occ",
				"energy": -0.2474,
				"method": "rhf"
			},
			{
				"type": "unocc",
				"energy": -0.0333,
				"method": "rhf"
			},
			{
				"type": "unocc",
				"energy": -0.03002,
				"method": "rhf"
			},
			{
				"type": "unocc",
				"energy": -0.01975,
				"method": "rhf"
			},
			{
				"type": "unocc",
				"energy": 0.00893,
				"method": "rhf"
			},
			{
				"type": "unocc",
				"energy": 0.01643,
				"method": "rhf"
			}
		],
		"cosmo_sigma_profile": { 
			"-0.025": 0.0,
			"-0.024": 0.0,
			"-0.023": 0.0,
			"-0.022": 0.0,
			"-0.021": 0.0,
			"-0.02": 0.0,
			"-0.019": 0.0,
			"-0.018": 0.0,
			"-0.017": 0.0,
			"-0.016": 0.0,
			"-0.015": 0.0,
			"-0.014": 0.0,
			"-0.013": 0.203185222661,
			"-0.012": 0.641548524977,
			"-0.011": 0.758660562352,
			"-0.01": 1.39189296442,
			"-0.009": 4.53783443396,
			"-0.008": 4.54687483552,
			"-0.007": 8.71940907584,
			"-0.006": 9.51146261672,
			"-0.005": 14.8935787455,
			"-0.004": 17.5929968807,
			"-0.003": 16.3169070706,
			"-0.002": 18.5174289482,
			"-0.001": 24.1642982496,
			"0.0": 22.0553094933,
			"0.001": 26.8179453557,
			"0.002": 26.936695452,
			"0.003": 20.2829354004,
			"0.004": 19.503916317,
			"0.005": 10.4368615545,
			"0.006": 3.12551242461,
			"0.007": 2.07236648964,
			"0.008": 1.67817778057,
			"0.009": 2.5897023006,
			"0.01": 1.76980882218,
			"0.011": 2.90327730263,
			"0.012": 4.75429896906,
			"0.013": 2.53197286658,
			"0.014": 0.00952570714619,
			"0.015": 0.0,
			"0.016": 0.0,
			"0.017": 0.0,
			"0.018": 0.0,
			"0.019": 0.0,
			"0.02": 0.0,
			"0.021": 0.0,
			"0.022": 0.0,
			"0.023": 0.0,
			"0.024": 0.0,
			"0.025": 0.0
		}
	}
}
