{
	 "smiles": "CC1CC2=C(C=C(Br)C=C2)C1=O", 
	 "Tm": 343.15, 
	 "num_atms": 21, 
	 "gaussian": { 
		 "optdone": 1, 
		 "sigma_profile": "yes", 
		 "theory": "DFT", 
		 "functional": "B3LYP", 
		 "basiset": "6-31G**", 
		 "properties": { 
			 "R2extent": 4953.2678, 
			 "electric_dipole_moment_norm": 3.87540021288, 
			 "electric_quadrupole_moment_norm": 4.63958451804, 
			 "total_energy": -3033.1297531, 
			 "HOMO_LUMO_gap": 0.18283, 
			 "cosmo_polarized_energy": -8.52, 
			 "cosmo_cavitation_energy": 26.88, 
			 "cosmo_dispersion_energy": -20.09, 
			 "cosmo_repulsion_energy": 1.6, 
			 "cosmo_total_nonelectrostatic_energy": 8.39, 
			 "SMD_solvation_energy": 3.66 
		},
		"coords": [
			{
				"x": 0.0891882861,
				"y": 2.0158978345,
				"z": -2.7448545566,
				"element": "C" 
			},
			{
				"x": -0.3487986919,
				"y": 0.9796859691,
				"z": -1.7074750758,
				"element": "C" 
			},
			{
				"x": -0.0986015188,
				"y": 1.3530588288,
				"z": -0.2224528449,
				"element": "C" 
			},
			{
				"x": 0.4804664052,
				"y": 0.0993900652,
				"z": 0.4026830507,
				"element": "C" 
			},
			{
				"x": 0.7520162924,
				"y": -0.8736392013,
				"z": -0.5635682505,
				"element": "C" 
			},
			{
				"x": 1.3243531579,
				"y": -2.1073191215,
				"z": -0.2440021885,
				"element": "C" 
			},
			{
				"x": 1.6114401057,
				"y": -2.3491968964,
				"z": 1.093579323,
				"element": "C" 
			},
			{
				"x": 2.3871189315,
				"y": -4.0190389154,
				"z": 1.6095718851,
				"element": "Br" 
			},
			{
				"x": 1.3420314312,
				"y": -1.3930178077,
				"z": 2.0840868335,
				"element": "C" 
			},
			{
				"x": 0.7769213348,
				"y": -0.1636440531,
				"z": 1.7412638536,
				"element": "C" 
			},
			{
				"x": 0.3510690731,
				"y": -0.3808304823,
				"z": -1.9049558412,
				"element": "C" 
			},
			{
				"x": 0.5276790717,
				"y": -0.9394048022,
				"z": -2.9711371535,
				"element": "O" 
			},
			{
				"x": -0.0299592189,
				"y": 1.6078680967,
				"z": -3.7520384019,
				"element": "H" 
			},
			{
				"x": -0.5037496095,
				"y": 2.9322561018,
				"z": -2.6655830615,
				"element": "H" 
			},
			{
				"x": 1.1437382229,
				"y": 2.2815617207,
				"z": -2.6122443509,
				"element": "H" 
			},
			{
				"x": -1.4198069967,
				"y": 0.7748298759,
				"z": -1.8484437248,
				"element": "H" 
			},
			{
				"x": 0.6188772268,
				"y": 2.1805899231,
				"z": -0.1456357788,
				"element": "H" 
			},
			{
				"x": -1.0096125831,
				"y": 1.6832886675,
				"z": 0.2885806332,
				"element": "H" 
			},
			{
				"x": 1.5272296714,
				"y": -2.8390250888,
				"z": -1.0181227776,
				"element": "H" 
			},
			{
				"x": 1.577735141,
				"y": -1.6175018555,
				"z": 3.1184841929,
				"element": "H" 
			},
			{
				"x": 0.5766642672,
				"y": 0.570991141,
				"z": 2.5165642343,
				"element": "H" 
			}
		],
		 "valence_orbital": [ 
			{
				"type": "occ",
				"energy": -0.31126,
				"method": "rhf"
			},
			{
				"type": "occ",
				"energy": -0.29186,
				"method": "rhf"
			},
			{
				"type": "occ",
				"energy": -0.27335,
				"method": "rhf"
			},
			{
				"type": "occ",
				"energy": -0.24774,
				"method": "rhf"
			},
			{
				"type": "occ",
				"energy": -0.24641,
				"method": "rhf"
			},
			{
				"type": "unocc",
				"energy": -0.06358,
				"method": "rhf"
			},
			{
				"type": "unocc",
				"energy": -0.02442,
				"method": "rhf"
			},
			{
				"type": "unocc",
				"energy": 0.00237,
				"method": "rhf"
			},
			{
				"type": "unocc",
				"energy": 0.03408,
				"method": "rhf"
			},
			{
				"type": "unocc",
				"energy": 0.09297,
				"method": "rhf"
			}
		],
		"cosmo_sigma_profile": { 
			"-0.025": 0.0,
			"-0.024": 0.0,
			"-0.023": 0.0,
			"-0.022": 0.0,
			"-0.021": 0.0,
			"-0.02": 0.0,
			"-0.019": 0.0,
			"-0.018": 0.0,
			"-0.017": 0.0,
			"-0.016": 0.0,
			"-0.015": 0.0,
			"-0.014": 0.0,
			"-0.013": 0.0,
			"-0.012": 0.0,
			"-0.011": 0.0,
			"-0.01": 0.0,
			"-0.009": 0.0,
			"-0.008": 1.03097298741,
			"-0.007": 4.6667528184,
			"-0.006": 7.52478075685,
			"-0.005": 15.2824723701,
			"-0.004": 19.5855092672,
			"-0.003": 20.1569770626,
			"-0.002": 19.9660910278,
			"-0.001": 20.0145425949,
			"0.0": 17.0246900315,
			"0.001": 21.9101798739,
			"0.002": 21.7956441941,
			"0.003": 11.2964520963,
			"0.004": 12.4165413504,
			"0.005": 6.99814853915,
			"0.006": 1.51931851606,
			"0.007": 1.40288785312,
			"0.008": 1.4371105666,
			"0.009": 1.74423570929,
			"0.01": 2.24735201342,
			"0.011": 3.08848565977,
			"0.012": 4.48801862207,
			"0.013": 1.57196684001,
			"0.014": 0.0,
			"0.015": 0.0,
			"0.016": 0.0,
			"0.017": 0.0,
			"0.018": 0.0,
			"0.019": 0.0,
			"0.02": 0.0,
			"0.021": 0.0,
			"0.022": 0.0,
			"0.023": 0.0,
			"0.024": 0.0,
			"0.025": 0.0
		}
	}
}
