{
	 "smiles": "CC(=O)NCCN", 
	 "Tm": 320.15, 
	 "num_atms": 17, 
	 "gaussian": { 
		 "optdone": 1, 
		 "sigma_profile": "yes", 
		 "theory": "DFT", 
		 "functional": "B3LYP", 
		 "basiset": "6-31G**", 
		 "properties": { 
			 "R2extent": 1086.6858, 
			 "electric_dipole_moment_norm": 4.05069049669, 
			 "electric_quadrupole_moment_norm": 11.8363848755, 
			 "total_energy": -343.191035807, 
			 "HOMO_LUMO_gap": 0.27352, 
			 "cosmo_polarized_energy": -13.18, 
			 "cosmo_cavitation_energy": 19.66, 
			 "cosmo_dispersion_energy": -14.51, 
			 "cosmo_repulsion_energy": 1.27, 
			 "cosmo_total_nonelectrostatic_energy": 6.41, 
			 "SMD_solvation_energy": 3.25 
		},
		"coords": [
			{
				"x": 0.0923935609,
				"y": 0.2359810671,
				"z": -2.4328113372,
				"element": "C" 
			},
			{
				"x": -0.0873827651,
				"y": 1.4884130418,
				"z": -1.5892698461,
				"element": "C" 
			},
			{
				"x": 0.5012294813,
				"y": 2.5344543957,
				"z": -1.8336594339,
				"element": "O" 
			},
			{
				"x": -0.9533940169,
				"y": 1.4095638459,
				"z": -0.5220459171,
				"element": "N" 
			},
			{
				"x": -1.7273899858,
				"y": 0.2706707731,
				"z": -0.0500546011,
				"element": "C" 
			},
			{
				"x": -1.1316607947,
				"y": -0.3906287786,
				"z": 1.1995405264,
				"element": "C" 
			},
			{
				"x": 0.2050260557,
				"y": -0.9117421905,
				"z": 0.9107666705,
				"element": "N" 
			},
			{
				"x": 0.3775955018,
				"y": -0.622198359,
				"z": -1.8172601051,
				"element": "H" 
			},
			{
				"x": 0.8672839469,
				"y": 0.4431610721,
				"z": -3.1704038359,
				"element": "H" 
			},
			{
				"x": -0.8350227741,
				"y": -0.0198535222,
				"z": -2.9577085976,
				"element": "H" 
			},
			{
				"x": -1.0322867381,
				"y": 2.2831176111,
				"z": -0.0165201446,
				"element": "H" 
			},
			{
				"x": -2.7516248827,
				"y": 0.5999184861,
				"z": 0.1664461113,
				"element": "H" 
			},
			{
				"x": -1.7862947587,
				"y": -0.4701403335,
				"z": -0.8496241568,
				"element": "H" 
			},
			{
				"x": -1.7789242956,
				"y": -1.229883916,
				"z": 1.4816582443,
				"element": "H" 
			},
			{
				"x": -1.1654255105,
				"y": 0.3313881237,
				"z": 2.0359106429,
				"element": "H" 
			},
			{
				"x": 0.847622354,
				"y": -0.1340656632,
				"z": 0.779750373,
				"element": "H" 
			},
			{
				"x": 0.5550556216,
				"y": -1.4440556535,
				"z": 1.7025854069,
				"element": "H" 
			}
		],
		 "valence_orbital": [ 
			{
				"type": "occ",
				"energy": -0.37131,
				"method": "rhf"
			},
			{
				"type": "occ",
				"energy": -0.34794,
				"method": "rhf"
			},
			{
				"type": "occ",
				"energy": -0.25231,
				"method": "rhf"
			},
			{
				"type": "occ",
				"energy": -0.23849,
				"method": "rhf"
			},
			{
				"type": "occ",
				"energy": -0.23667,
				"method": "rhf"
			},
			{
				"type": "unocc",
				"energy": 0.03685,
				"method": "rhf"
			},
			{
				"type": "unocc",
				"energy": 0.07175,
				"method": "rhf"
			},
			{
				"type": "unocc",
				"energy": 0.10208,
				"method": "rhf"
			},
			{
				"type": "unocc",
				"energy": 0.10991,
				"method": "rhf"
			},
			{
				"type": "unocc",
				"energy": 0.1242,
				"method": "rhf"
			}
		],
		"cosmo_sigma_profile": { 
			"-0.025": 0.0,
			"-0.024": 0.0,
			"-0.023": 0.0,
			"-0.022": 0.0,
			"-0.021": 0.0,
			"-0.02": 0.0,
			"-0.019": 0.0,
			"-0.018": 0.0,
			"-0.017": 0.0,
			"-0.016": 0.0,
			"-0.015": 0.0,
			"-0.014": 0.0,
			"-0.013": 0.356311805549,
			"-0.012": 1.51975391429,
			"-0.011": 0.662783747839,
			"-0.01": 2.07196719921,
			"-0.009": 3.07232053297,
			"-0.008": 3.41250988521,
			"-0.007": 3.55430456713,
			"-0.006": 5.9933805288,
			"-0.005": 11.7926408465,
			"-0.004": 14.4941495422,
			"-0.003": 16.4701409199,
			"-0.002": 18.4298963196,
			"-0.001": 14.4382538937,
			"0.0": 11.022937435,
			"0.001": 3.83300368396,
			"0.002": 3.0087122024,
			"0.003": 4.31460325301,
			"0.004": 2.97713928243,
			"0.005": 1.80606331137,
			"0.006": 2.04606906353,
			"0.007": 1.76327815785,
			"0.008": 2.55085913921,
			"0.009": 2.42120308721,
			"0.01": 1.80420072597,
			"0.011": 1.94412447057,
			"0.012": 2.04054565352,
			"0.013": 2.55085311546,
			"0.014": 6.28557419988,
			"0.015": 4.06193393404,
			"0.016": 1.33610707219,
			"0.017": 0.364029696502,
			"0.018": 0.0,
			"0.019": 0.0,
			"0.02": 0.0,
			"0.021": 0.0,
			"0.022": 0.0,
			"0.023": 0.0,
			"0.024": 0.0,
			"0.025": 0.0
		}
	}
}
