{
	 "smiles": "COC1=CC=C(C=C1)C(C)=CC(C)=O", 
	 "Tm": 325.95, 
	 "num_atms": 28, 
	 "gaussian": { 
		 "optdone": 1, 
		 "sigma_profile": "yes", 
		 "theory": "DFT", 
		 "functional": "B3LYP", 
		 "basiset": "6-31G**", 
		 "properties": { 
			 "R2extent": 4376.6716, 
			 "electric_dipole_moment_norm": 4.53260954197, 
			 "electric_quadrupole_moment_norm": 11.5281853858, 
			 "total_energy": -616.144121723, 
			 "HOMO_LUMO_gap": 0.15817, 
			 "cosmo_polarized_energy": -10.62, 
			 "cosmo_cavitation_energy": 31.47, 
			 "cosmo_dispersion_energy": -22.79, 
			 "cosmo_repulsion_energy": 1.79, 
			 "cosmo_total_nonelectrostatic_energy": 10.48, 
			 "SMD_solvation_energy": 6.98 
		},
		"coords": [
			{
				"x": 1.7220305183,
				"y": 4.1018153921,
				"z": 2.0788274779,
				"element": "C" 
			},
			{
				"x": 0.455832187,
				"y": 3.7936947149,
				"z": 1.5148536868,
				"element": "O" 
			},
			{
				"x": 0.1955606287,
				"y": 2.5013752091,
				"z": 1.1750940296,
				"element": "C" 
			},
			{
				"x": 1.0847543712,
				"y": 1.4331914447,
				"z": 1.3519920008,
				"element": "C" 
			},
			{
				"x": 0.7070629633,
				"y": 0.1492138777,
				"z": 0.9631160301,
				"element": "C" 
			},
			{
				"x": -0.5485227163,
				"y": -0.1187282568,
				"z": 0.3927096456,
				"element": "C" 
			},
			{
				"x": -1.4330207272,
				"y": 0.9711979485,
				"z": 0.2487108283,
				"element": "C" 
			},
			{
				"x": -1.0697558237,
				"y": 2.2566099941,
				"z": 0.6203866871,
				"element": "C" 
			},
			{
				"x": -0.9444887033,
				"y": -1.4846405351,
				"z": -0.028818068,
				"element": "C" 
			},
			{
				"x": -2.417593274,
				"y": -1.8131138641,
				"z": 0.011240389,
				"element": "C" 
			},
			{
				"x": 0.0011711969,
				"y": -2.3695784361,
				"z": -0.4431898749,
				"element": "C" 
			},
			{
				"x": -0.1829571075,
				"y": -3.7796480629,
				"z": -0.851398883,
				"element": "C" 
			},
			{
				"x": 1.1036235008,
				"y": -4.5144531896,
				"z": -1.2097988565,
				"element": "C" 
			},
			{
				"x": -1.260700686,
				"y": -4.3632866337,
				"z": -0.9146103845,
				"element": "O" 
			},
			{
				"x": 1.716290183,
				"y": 5.1773437192,
				"z": 2.2611159156,
				"element": "H" 
			},
			{
				"x": 1.8803984986,
				"y": 3.5758670187,
				"z": 3.0288992609,
				"element": "H" 
			},
			{
				"x": 2.5413254434,
				"y": 3.8563090676,
				"z": 1.3912633362,
				"element": "H" 
			},
			{
				"x": 2.0589123234,
				"y": 1.5857707852,
				"z": 1.8011762172,
				"element": "H" 
			},
			{
				"x": 1.3978550507,
				"y": -0.6686936322,
				"z": 1.1410362536,
				"element": "H" 
			},
			{
				"x": -2.4165158529,
				"y": 0.8136344378,
				"z": -0.180922301,
				"element": "H" 
			},
			{
				"x": -1.7494373724,
				"y": 3.0926467304,
				"z": 0.4922197305,
				"element": "H" 
			},
			{
				"x": -2.5794342627,
				"y": -2.8849236191,
				"z": -0.0761527536,
				"element": "H" 
			},
			{
				"x": -2.9348613972,
				"y": -1.3328709097,
				"z": -0.8299955414,
				"element": "H" 
			},
			{
				"x": -2.8739661079,
				"y": -1.4287745841,
				"z": 0.9290395622,
				"element": "H" 
			},
			{
				"x": 1.0300983433,
				"y": -2.0225410709,
				"z": -0.4966665057,
				"element": "H" 
			},
			{
				"x": 0.8690261907,
				"y": -5.5386080799,
				"z": -1.501904933,
				"element": "H" 
			},
			{
				"x": 1.6205694547,
				"y": -4.006418138,
				"z": -2.03258054,
				"element": "H" 
			},
			{
				"x": 1.793043177,
				"y": -4.5246913275,
				"z": -0.3571424097,
				"element": "H" 
			}
		],
		 "valence_orbital": [ 
			{
				"type": "occ",
				"energy": -0.32836,
				"method": "rhf"
			},
			{
				"type": "occ",
				"energy": -0.26813,
				"method": "rhf"
			},
			{
				"type": "occ",
				"energy": -0.25926,
				"method": "rhf"
			},
			{
				"type": "occ",
				"energy": -0.23163,
				"method": "rhf"
			},
			{
				"type": "occ",
				"energy": -0.21498,
				"method": "rhf"
			},
			{
				"type": "unocc",
				"energy": -0.05681,
				"method": "rhf"
			},
			{
				"type": "unocc",
				"energy": -0.00912,
				"method": "rhf"
			},
			{
				"type": "unocc",
				"energy": 0.01869,
				"method": "rhf"
			},
			{
				"type": "unocc",
				"energy": 0.07583,
				"method": "rhf"
			},
			{
				"type": "unocc",
				"energy": 0.08703,
				"method": "rhf"
			}
		],
		"cosmo_sigma_profile": { 
			"-0.025": 0.0,
			"-0.024": 0.0,
			"-0.023": 0.0,
			"-0.022": 0.0,
			"-0.021": 0.0,
			"-0.02": 0.0,
			"-0.019": 0.0,
			"-0.018": 0.0,
			"-0.017": 0.0,
			"-0.016": 0.0,
			"-0.015": 0.0,
			"-0.014": 0.0,
			"-0.013": 0.0,
			"-0.012": 0.0,
			"-0.011": 0.0,
			"-0.01": 0.0,
			"-0.009": 0.0,
			"-0.008": 0.0,
			"-0.007": 1.18835494763,
			"-0.006": 14.6881043764,
			"-0.005": 25.0067481703,
			"-0.004": 27.9396516008,
			"-0.003": 23.52379308,
			"-0.002": 18.6259711741,
			"-0.001": 18.7187525192,
			"0.0": 20.2738634317,
			"0.001": 15.3166666805,
			"0.002": 13.4839815689,
			"0.003": 18.150081779,
			"0.004": 16.4340764705,
			"0.005": 10.8361301576,
			"0.006": 3.20962191161,
			"0.007": 4.10143166071,
			"0.008": 3.4458151489,
			"0.009": 2.29202537095,
			"0.01": 3.29375535793,
			"0.011": 2.59513500933,
			"0.012": 2.69984757966,
			"0.013": 2.55895010855,
			"0.014": 1.21888212958,
			"0.015": 0.0395285232342,
			"0.016": 0.0,
			"0.017": 0.0,
			"0.018": 0.0,
			"0.019": 0.0,
			"0.02": 0.0,
			"0.021": 0.0,
			"0.022": 0.0,
			"0.023": 0.0,
			"0.024": 0.0,
			"0.025": 0.0
		}
	}
}
