{
	 "smiles": "OC(=O)C1=NC(=CC=C1)N1CCCCC1", 
	 "Tm": 372.65, 
	 "num_atms": 29, 
	 "gaussian": { 
		 "optdone": 1, 
		 "sigma_profile": "yes", 
		 "theory": "DFT", 
		 "functional": "B3LYP", 
		 "basiset": "6-31G**", 
		 "properties": { 
			 "R2extent": 4464.3951, 
			 "electric_dipole_moment_norm": 7.67097497454, 
			 "electric_quadrupole_moment_norm": 23.8707710977, 
			 "total_energy": -687.584059505, 
			 "HOMO_LUMO_gap": 0.16182, 
			 "cosmo_polarized_energy": -12.54, 
			 "cosmo_cavitation_energy": 30.96, 
			 "cosmo_dispersion_energy": -22.96, 
			 "cosmo_repulsion_energy": 1.79, 
			 "cosmo_total_nonelectrostatic_energy": 9.79, 
			 "SMD_solvation_energy": 4.7 
		},
		"coords": [
			{
				"x": 1.6479942676,
				"y": 2.4545849454,
				"z": 3.0030579906,
				"element": "O" 
			},
			{
				"x": 2.6999081604,
				"y": 1.6186090652,
				"z": 2.9891841712,
				"element": "C" 
			},
			{
				"x": 3.713127474,
				"y": 1.8200839988,
				"z": 3.6204669775,
				"element": "O" 
			},
			{
				"x": 2.494103646,
				"y": 0.40902903,
				"z": 2.1085139553,
				"element": "C" 
			},
			{
				"x": 1.2977813686,
				"y": 0.3447475011,
				"z": 1.5007749349,
				"element": "N" 
			},
			{
				"x": 1.0264243198,
				"y": -0.6989782424,
				"z": 0.6924391075,
				"element": "C" 
			},
			{
				"x": 1.9945717644,
				"y": -1.7222860272,
				"z": 0.4926107493,
				"element": "C" 
			},
			{
				"x": 3.2228413339,
				"y": -1.6228753777,
				"z": 1.1249732377,
				"element": "C" 
			},
			{
				"x": 3.5008740934,
				"y": -0.5333473112,
				"z": 1.9583411912,
				"element": "C" 
			},
			{
				"x": -0.2038989554,
				"y": -0.7333978528,
				"z": 0.0864900998,
				"element": "N" 
			},
			{
				"x": -0.5054405799,
				"y": -1.7184918171,
				"z": -0.9556070836,
				"element": "C" 
			},
			{
				"x": -1.6663197628,
				"y": -1.2366393714,
				"z": -1.8309004664,
				"element": "C" 
			},
			{
				"x": -2.9549075786,
				"y": -1.0017160275,
				"z": -1.0174584396,
				"element": "C" 
			},
			{
				"x": -2.6328453977,
				"y": -0.4960259085,
				"z": 0.4084770498,
				"element": "C" 
			},
			{
				"x": -1.2682038928,
				"y": 0.1962218055,
				"z": 0.4848450062,
				"element": "C" 
			},
			{
				"x": 0.9870114607,
				"y": 2.0459599716,
				"z": 2.4038645404,
				"element": "H" 
			},
			{
				"x": 1.7715022448,
				"y": -2.583968005,
				"z": -0.123051618,
				"element": "H" 
			},
			{
				"x": 3.9636176964,
				"y": -2.4038631728,
				"z": 0.9779780389,
				"element": "H" 
			},
			{
				"x": 4.4422256881,
				"y": -0.4064221211,
				"z": 2.4774026461,
				"element": "H" 
			},
			{
				"x": -0.7447106551,
				"y": -2.7012702809,
				"z": -0.516619116,
				"element": "H" 
			},
			{
				"x": 0.381963361,
				"y": -1.8561246361,
				"z": -1.5827525742,
				"element": "H" 
			},
			{
				"x": -1.8368655362,
				"y": -1.9677960069,
				"z": -2.6278846646,
				"element": "H" 
			},
			{
				"x": -1.3583664167,
				"y": -0.3065148419,
				"z": -2.3226192715,
				"element": "H" 
			},
			{
				"x": -3.5862089223,
				"y": -0.2801122763,
				"z": -1.5471954159,
				"element": "H" 
			},
			{
				"x": -3.5344211673,
				"y": -1.9293705249,
				"z": -0.9533688977,
				"element": "H" 
			},
			{
				"x": -2.624650527,
				"y": -1.3367022768,
				"z": 1.1120273937,
				"element": "H" 
			},
			{
				"x": -3.4047958284,
				"y": 0.1964574411,
				"z": 0.7600311061,
				"element": "H" 
			},
			{
				"x": -1.2560231072,
				"y": 1.099293899,
				"z": -0.1442448038,
				"element": "H" 
			},
			{
				"x": -1.0647885517,
				"y": 0.521314421,
				"z": 1.5056241551,
				"element": "H" 
			}
		],
		 "valence_orbital": [ 
			{
				"type": "occ",
				"energy": -0.29541,
				"method": "rhf"
			},
			{
				"type": "occ",
				"energy": -0.29178,
				"method": "rhf"
			},
			{
				"type": "occ",
				"energy": -0.28738,
				"method": "rhf"
			},
			{
				"type": "occ",
				"energy": -0.25345,
				"method": "rhf"
			},
			{
				"type": "occ",
				"energy": -0.21215,
				"method": "rhf"
			},
			{
				"type": "unocc",
				"energy": -0.05033,
				"method": "rhf"
			},
			{
				"type": "unocc",
				"energy": -0.00963,
				"method": "rhf"
			},
			{
				"type": "unocc",
				"energy": 0.06022,
				"method": "rhf"
			},
			{
				"type": "unocc",
				"energy": 0.06783,
				"method": "rhf"
			},
			{
				"type": "unocc",
				"energy": 0.09382,
				"method": "rhf"
			}
		],
		"cosmo_sigma_profile": { 
			"-0.025": 0.0,
			"-0.024": 0.0,
			"-0.023": 0.0,
			"-0.022": 0.0,
			"-0.021": 0.0,
			"-0.02": 0.0,
			"-0.019": 0.0,
			"-0.018": 0.0,
			"-0.017": 0.0,
			"-0.016": 0.0,
			"-0.015": 0.0,
			"-0.014": 0.0,
			"-0.013": 0.0,
			"-0.012": 0.0,
			"-0.011": 0.18595638603,
			"-0.01": 0.77565793859,
			"-0.009": 0.377920110494,
			"-0.008": 0.983962075752,
			"-0.007": 4.45433878408,
			"-0.006": 7.52143035953,
			"-0.005": 8.85388606924,
			"-0.004": 16.6225825144,
			"-0.003": 32.6948279704,
			"-0.002": 40.9389771385,
			"-0.001": 25.1641087971,
			"0.0": 20.9855412022,
			"0.001": 18.689786545,
			"0.002": 15.5418612857,
			"0.003": 12.7564536907,
			"0.004": 4.51553017367,
			"0.005": 3.57926312426,
			"0.006": 2.91035071265,
			"0.007": 2.12832748547,
			"0.008": 3.31167307846,
			"0.009": 3.04546575949,
			"0.01": 4.89264016422,
			"0.011": 5.37291649925,
			"0.012": 5.15515472148,
			"0.013": 2.19978438089,
			"0.014": 0.256961759376,
			"0.015": 0.0,
			"0.016": 0.0,
			"0.017": 0.0,
			"0.018": 0.0,
			"0.019": 0.0,
			"0.02": 0.0,
			"0.021": 0.0,
			"0.022": 0.0,
			"0.023": 0.0,
			"0.024": 0.0,
			"0.025": 0.0
		}
	}
}
