{
	 "smiles": "FC(F)(F)C1N(CCC2=C1NC1=CC=CC=C21)C(=O)CCl", 
	 "Tm": 507.15, 
	 "num_atms": 33, 
	 "gaussian": { 
		 "optdone": 1, 
		 "sigma_profile": "yes", 
		 "theory": "DFT", 
		 "functional": "B3LYP", 
		 "basiset": "6-31G**", 
		 "properties": { 
			 "R2extent": 8024.5905, 
			 "electric_dipole_moment_norm": 4.73095397568, 
			 "electric_quadrupole_moment_norm": 25.9901359083, 
			 "total_energy": -1485.18711481, 
			 "HOMO_LUMO_gap": 0.18973, 
			 "cosmo_polarized_energy": -18.16, 
			 "cosmo_cavitation_energy": 38.18, 
			 "cosmo_dispersion_energy": -27.21, 
			 "cosmo_repulsion_energy": 2.01, 
			 "cosmo_total_nonelectrostatic_energy": 12.98, 
			 "SMD_solvation_energy": 6.6 
		},
		"coords": [
			{
				"x": -3.0342017222,
				"y": 0.4350499043,
				"z": 0.3030261436,
				"element": "F" 
			},
			{
				"x": -2.1727486877,
				"y": 1.1731031418,
				"z": 1.0195572521,
				"element": "C" 
			},
			{
				"x": -2.7969222481,
				"y": 2.3189659966,
				"z": 1.3618030818,
				"element": "F" 
			},
			{
				"x": -1.9080430939,
				"y": 0.5005519517,
				"z": 2.1707362976,
				"element": "F" 
			},
			{
				"x": -0.853115836,
				"y": 1.452177063,
				"z": 0.2724811166,
				"element": "C" 
			},
			{
				"x": -1.0661362824,
				"y": 2.2641365702,
				"z": -0.9201980371,
				"element": "N" 
			},
			{
				"x": -1.374151594,
				"y": 1.544010617,
				"z": -2.1730060589,
				"element": "C" 
			},
			{
				"x": -0.2200938928,
				"y": 0.6133525718,
				"z": -2.5730395005,
				"element": "C" 
			},
			{
				"x": 0.1872563946,
				"y": -0.196461875,
				"z": -1.3782618798,
				"element": "C" 
			},
			{
				"x": -0.1400837574,
				"y": 0.1841205352,
				"z": -0.1036030144,
				"element": "C" 
			},
			{
				"x": 0.3520430817,
				"y": -0.7311135648,
				"z": 0.8135008886,
				"element": "N" 
			},
			{
				"x": 0.9859769908,
				"y": -1.7468837122,
				"z": 0.1208699904,
				"element": "C" 
			},
			{
				"x": 1.6121941477,
				"y": -2.9054181321,
				"z": 0.5915852655,
				"element": "C" 
			},
			{
				"x": 2.1843834321,
				"y": -3.7524714236,
				"z": -0.3507984813,
				"element": "C" 
			},
			{
				"x": 2.1356862353,
				"y": -3.4561055506,
				"z": -1.728720953,
				"element": "C" 
			},
			{
				"x": 1.5094085237,
				"y": -2.3067546763,
				"z": -2.1932490181,
				"element": "C" 
			},
			{
				"x": 0.9174810618,
				"y": -1.4321969677,
				"z": -1.2655705891,
				"element": "C" 
			},
			{
				"x": -0.899957998,
				"y": 3.6392348497,
				"z": -0.9755121963,
				"element": "C" 
			},
			{
				"x": -1.0534125994,
				"y": 4.2675688993,
				"z": -2.0062352989,
				"element": "O" 
			},
			{
				"x": -0.4992020953,
				"y": 4.3220817009,
				"z": 0.3453773058,
				"element": "C" 
			},
			{
				"x": -0.4307109053,
				"y": 6.1025903936,
				"z": 0.1889430604,
				"element": "Cl" 
			},
			{
				"x": -0.2433454092,
				"y": 2.0056710332,
				"z": 0.9938178225,
				"element": "H" 
			},
			{
				"x": -1.5634619189,
				"y": 2.3055450747,
				"z": -2.9270968824,
				"element": "H" 
			},
			{
				"x": -2.2873080207,
				"y": 0.9606105105,
				"z": -2.0211310633,
				"element": "H" 
			},
			{
				"x": -0.5528006496,
				"y": -0.035151223,
				"z": -3.3926077622,
				"element": "H" 
			},
			{
				"x": 0.6204560148,
				"y": 1.2043231477,
				"z": -2.9612629344,
				"element": "H" 
			},
			{
				"x": 0.107386151,
				"y": -0.7517179903,
				"z": 1.7904525454,
				"element": "H" 
			},
			{
				"x": 1.653020368,
				"y": -3.1349106422,
				"z": 1.6525394359,
				"element": "H" 
			},
			{
				"x": 2.6798329471,
				"y": -4.6598726744,
				"z": -0.0184494646,
				"element": "H" 
			},
			{
				"x": 2.5961522624,
				"y": -4.140555698,
				"z": -2.4348639423,
				"element": "H" 
			},
			{
				"x": 1.4759898128,
				"y": -2.0877098017,
				"z": -3.2567885458,
				"element": "H" 
			},
			{
				"x": -1.2135912203,
				"y": 4.0904636896,
				"z": 1.1351136819,
				"element": "H" 
			},
			{
				"x": 0.4947205075,
				"y": 3.9912662814,
				"z": 0.658491734,
				"element": "H" 
			}
		],
		 "valence_orbital": [ 
			{
				"type": "occ",
				"energy": -0.2826,
				"method": "rhf"
			},
			{
				"type": "occ",
				"energy": -0.26997,
				"method": "rhf"
			},
			{
				"type": "occ",
				"energy": -0.26344,
				"method": "rhf"
			},
			{
				"type": "occ",
				"energy": -0.23132,
				"method": "rhf"
			},
			{
				"type": "occ",
				"energy": -0.21412,
				"method": "rhf"
			},
			{
				"type": "unocc",
				"energy": -0.02439,
				"method": "rhf"
			},
			{
				"type": "unocc",
				"energy": 0.00479,
				"method": "rhf"
			},
			{
				"type": "unocc",
				"energy": 0.01519,
				"method": "rhf"
			},
			{
				"type": "unocc",
				"energy": 0.01955,
				"method": "rhf"
			},
			{
				"type": "unocc",
				"energy": 0.04965,
				"method": "rhf"
			}
		],
		"cosmo_sigma_profile": { 
			"-0.025": 0.0,
			"-0.024": 0.0,
			"-0.023": 0.0,
			"-0.022": 0.0,
			"-0.021": 0.0,
			"-0.02": 0.0,
			"-0.019": 0.0,
			"-0.018": 0.0,
			"-0.017": 0.0,
			"-0.016": 0.0,
			"-0.015": 0.413049112258,
			"-0.014": 1.06353646871,
			"-0.013": 1.01623508175,
			"-0.012": 4.16281101065,
			"-0.011": 5.28492784013,
			"-0.01": 4.80162862726,
			"-0.009": 3.73460352226,
			"-0.008": 4.86715450914,
			"-0.007": 4.62064221695,
			"-0.006": 6.79399349942,
			"-0.005": 14.2326438941,
			"-0.004": 21.6886637261,
			"-0.003": 24.3952735625,
			"-0.002": 24.3511291662,
			"-0.001": 21.9522264296,
			"0.0": 17.7620067849,
			"0.001": 20.0105405137,
			"0.002": 32.0446154057,
			"0.003": 17.4836967625,
			"0.004": 16.7165349064,
			"0.005": 19.0266164078,
			"0.006": 16.0751261499,
			"0.007": 7.78385362593,
			"0.008": 1.39543309534,
			"0.009": 2.24591157601,
			"0.01": 1.85990139566,
			"0.011": 2.7197449176,
			"0.012": 3.96286078582,
			"0.013": 3.08948634627,
			"0.014": 1.27724958505,
			"0.015": 0.0294228942581,
			"0.016": 0.0,
			"0.017": 0.0,
			"0.018": 0.0,
			"0.019": 0.0,
			"0.02": 0.0,
			"0.021": 0.0,
			"0.022": 0.0,
			"0.023": 0.0,
			"0.024": 0.0,
			"0.025": 0.0
		}
	}
}
