{
	 "smiles": "O=C1CC2CCCC(C1)N2CC1=CC=CC=C1", 
	 "Tm": 340.15, 
	 "num_atms": 36, 
	 "gaussian": { 
		 "optdone": 1, 
		 "sigma_profile": "yes", 
		 "theory": "DFT", 
		 "functional": "B3LYP", 
		 "basiset": "6-31G**", 
		 "properties": { 
			 "R2extent": 5019.4597, 
			 "electric_dipole_moment_norm": 2.89860649451, 
			 "electric_quadrupole_moment_norm": 16.031113074, 
			 "total_energy": -713.018072767, 
			 "HOMO_LUMO_gap": 0.20066, 
			 "cosmo_polarized_energy": -10.03, 
			 "cosmo_cavitation_energy": 35.41, 
			 "cosmo_dispersion_energy": -25.03, 
			 "cosmo_repulsion_energy": 1.92, 
			 "cosmo_total_nonelectrostatic_energy": 12.3, 
			 "SMD_solvation_energy": 5.12 
		},
		"coords": [
			{
				"x": 1.3204366498,
				"y": -3.8504274613,
				"z": -3.0713986366,
				"element": "O" 
			},
			{
				"x": 0.7758336596,
				"y": -2.9704354027,
				"z": -2.4281366006,
				"element": "C" 
			},
			{
				"x": -0.7262266353,
				"y": -2.9180026331,
				"z": -2.2034650922,
				"element": "C" 
			},
			{
				"x": -1.0366175675,
				"y": -2.7825692483,
				"z": -0.6786154407,
				"element": "C" 
			},
			{
				"x": -0.6453897143,
				"y": -4.080813984,
				"z": 0.0966178041,
				"element": "C" 
			},
			{
				"x": 0.4036874233,
				"y": -3.7961790071,
				"z": 1.1798882508,
				"element": "C" 
			},
			{
				"x": 1.5878019959,
				"y": -3.0182854669,
				"z": 0.589503547,
				"element": "C" 
			},
			{
				"x": 1.1107796996,
				"y": -1.7723164392,
				"z": -0.2213973512,
				"element": "C" 
			},
			{
				"x": 1.540478811,
				"y": -1.8654796458,
				"z": -1.7207561131,
				"element": "C" 
			},
			{
				"x": -0.3459957281,
				"y": -1.6326140563,
				"z": -0.0829522294,
				"element": "N" 
			},
			{
				"x": -0.8878282557,
				"y": -0.3250857286,
				"z": -0.4458753604,
				"element": "C" 
			},
			{
				"x": -0.4535272155,
				"y": 0.7790479646,
				"z": 0.5028830207,
				"element": "C" 
			},
			{
				"x": 0.0037336255,
				"y": 2.0060223351,
				"z": 0.0101771022,
				"element": "C" 
			},
			{
				"x": 0.3585844554,
				"y": 3.0395187589,
				"z": 0.880922669,
				"element": "C" 
			},
			{
				"x": 0.2648760016,
				"y": 2.8530822253,
				"z": 2.2599877597,
				"element": "C" 
			},
			{
				"x": -0.1852182431,
				"y": 1.6286799421,
				"z": 2.7624631207,
				"element": "C" 
			},
			{
				"x": -0.5420467063,
				"y": 0.6010342442,
				"z": 1.8908126759,
				"element": "C" 
			},
			{
				"x": -1.128591478,
				"y": -2.0410892947,
				"z": -2.7289431682,
				"element": "H" 
			},
			{
				"x": -1.1879749862,
				"y": -3.8119959269,
				"z": -2.631804656,
				"element": "H" 
			},
			{
				"x": -2.1117861466,
				"y": -2.6045978236,
				"z": -0.5680036009,
				"element": "H" 
			},
			{
				"x": -0.246405658,
				"y": -4.8231946782,
				"z": -0.6049844774,
				"element": "H" 
			},
			{
				"x": -1.538630264,
				"y": -4.529038985,
				"z": 0.544361723,
				"element": "H" 
			},
			{
				"x": -0.0518342789,
				"y": -3.2124291138,
				"z": 1.9855183205,
				"element": "H" 
			},
			{
				"x": 0.7536941488,
				"y": -4.7371095311,
				"z": 1.6192893275,
				"element": "H" 
			},
			{
				"x": 2.266122597,
				"y": -2.7026774121,
				"z": 1.3891009431,
				"element": "H" 
			},
			{
				"x": 2.1665650237,
				"y": -3.683176256,
				"z": -0.0628724235,
				"element": "H" 
			},
			{
				"x": 1.561700837,
				"y": -0.8709212102,
				"z": 0.2020286004,
				"element": "H" 
			},
			{
				"x": 2.6143593669,
				"y": -2.0464408795,
				"z": -1.819120281,
				"element": "H" 
			},
			{
				"x": 1.3123610849,
				"y": -0.9125751589,
				"z": -2.2176998032,
				"element": "H" 
			},
			{
				"x": -0.6473423294,
				"y": -0.0139165589,
				"z": -1.4790132083,
				"element": "H" 
			},
			{
				"x": -1.9817354253,
				"y": -0.4168790743,
				"z": -0.4084421199,
				"element": "H" 
			},
			{
				"x": 0.0819985863,
				"y": 2.1551859965,
				"z": -1.0644319245,
				"element": "H" 
			},
			{
				"x": 0.7126813373,
				"y": 3.9854711904,
				"z": 0.4807707259,
				"element": "H" 
			},
			{
				"x": 0.5427714526,
				"y": 3.6534872244,
				"z": 2.9398136335,
				"element": "H" 
			},
			{
				"x": -0.2591652484,
				"y": 1.476332143,
				"z": 3.8357951672,
				"element": "H" 
			},
			{
				"x": -0.8835508758,
				"y": -0.3551110477,
				"z": 2.2758780959,
				"element": "H" 
			}
		],
		 "valence_orbital": [ 
			{
				"type": "occ",
				"energy": -0.31058,
				"method": "rhf"
			},
			{
				"type": "occ",
				"energy": -0.25145,
				"method": "rhf"
			},
			{
				"type": "occ",
				"energy": -0.24642,
				"method": "rhf"
			},
			{
				"type": "occ",
				"energy": -0.23299,
				"method": "rhf"
			},
			{
				"type": "occ",
				"energy": -0.21513,
				"method": "rhf"
			},
			{
				"type": "unocc",
				"energy": -0.01447,
				"method": "rhf"
			},
			{
				"type": "unocc",
				"energy": -0.00375,
				"method": "rhf"
			},
			{
				"type": "unocc",
				"energy": -0.00181,
				"method": "rhf"
			},
			{
				"type": "unocc",
				"energy": 0.07636,
				"method": "rhf"
			},
			{
				"type": "unocc",
				"energy": 0.0925,
				"method": "rhf"
			}
		],
		"cosmo_sigma_profile": { 
			"-0.025": 0.0,
			"-0.024": 0.0,
			"-0.023": 0.0,
			"-0.022": 0.0,
			"-0.021": 0.0,
			"-0.02": 0.0,
			"-0.019": 0.0,
			"-0.018": 0.0,
			"-0.017": 0.0,
			"-0.016": 0.0,
			"-0.015": 0.0,
			"-0.014": 0.0,
			"-0.013": 0.0,
			"-0.012": 0.0,
			"-0.011": 0.0,
			"-0.01": 0.0,
			"-0.009": 0.0,
			"-0.008": 0.000120499753363,
			"-0.007": 0.802239223117,
			"-0.006": 5.09044901482,
			"-0.005": 18.8194105644,
			"-0.004": 24.9540911471,
			"-0.003": 35.9159730523,
			"-0.002": 37.8021689286,
			"-0.001": 33.1447873786,
			"0.0": 27.3837432773,
			"0.001": 19.2049863773,
			"0.002": 10.6129445134,
			"0.003": 11.1145453515,
			"0.004": 10.7463826376,
			"0.005": 10.1591272749,
			"0.006": 10.3580822704,
			"0.007": 4.03856023089,
			"0.008": 1.72482011298,
			"0.009": 1.42079851919,
			"0.01": 1.79976716536,
			"0.011": 2.29873510588,
			"0.012": 4.05523522421,
			"0.013": 3.77548749711,
			"0.014": 1.46603464312,
			"0.015": 0.0,
			"0.016": 0.0,
			"0.017": 0.0,
			"0.018": 0.0,
			"0.019": 0.0,
			"0.02": 0.0,
			"0.021": 0.0,
			"0.022": 0.0,
			"0.023": 0.0,
			"0.024": 0.0,
			"0.025": 0.0
		}
	}
}
