{
	 "smiles": "CCCCN1C2=C(N(CC(C)C)C(CCC(O)=O)=N2)C(=O)NC1=O", 
	 "Tm": 421.15, 
	 "num_atms": 48, 
	 "gaussian": { 
		 "optdone": 1, 
		 "sigma_profile": "yes", 
		 "theory": "DFT", 
		 "functional": "B3LYP", 
		 "basiset": "6-31G**", 
		 "properties": { 
			 "R2extent": 10344.439, 
			 "electric_dipole_moment_norm": 1.63243542598, 
			 "electric_quadrupole_moment_norm": 30.7398512758, 
			 "total_energy": -1144.16408593, 
			 "HOMO_LUMO_gap": 0.1846, 
			 "cosmo_polarized_energy": -25.33, 
			 "cosmo_cavitation_energy": 49.19, 
			 "cosmo_dispersion_energy": -33.07, 
			 "cosmo_repulsion_energy": 2.58, 
			 "cosmo_total_nonelectrostatic_energy": 18.7, 
			 "SMD_solvation_energy": 9.01 
		},
		"coords": [
			{
				"x": 1.4917212622,
				"y": -4.862215635,
				"z": -0.555954199,
				"element": "C" 
			},
			{
				"x": 0.1411776649,
				"y": -4.3874519907,
				"z": -0.0102711524,
				"element": "C" 
			},
			{
				"x": -0.6570372011,
				"y": -3.5774230318,
				"z": -1.0394466374,
				"element": "C" 
			},
			{
				"x": -2.044440404,
				"y": -3.1263449531,
				"z": -0.564918766,
				"element": "C" 
			},
			{
				"x": -2.0076230877,
				"y": -2.2090273873,
				"z": 0.5854220658,
				"element": "N" 
			},
			{
				"x": -1.7203431706,
				"y": -0.8694474151,
				"z": 0.4185995516,
				"element": "C" 
			},
			{
				"x": -1.6711047213,
				"y": 0.0276764295,
				"z": 1.4709527108,
				"element": "C" 
			},
			{
				"x": -1.386327446,
				"y": 1.2613478839,
				"z": 0.8894062336,
				"element": "N" 
			},
			{
				"x": -1.2454322592,
				"y": 2.5270119273,
				"z": 1.6295483828,
				"element": "C" 
			},
			{
				"x": 0.1832942294,
				"y": 2.8790522316,
				"z": 2.107044735,
				"element": "C" 
			},
			{
				"x": 1.15173906,
				"y": 3.192935165,
				"z": 0.9589039112,
				"element": "C" 
			},
			{
				"x": 0.772344172,
				"y": 1.8258396177,
				"z": 3.0558113104,
				"element": "C" 
			},
			{
				"x": -1.2958378552,
				"y": 1.0309484222,
				"z": -0.4543156241,
				"element": "C" 
			},
			{
				"x": -1.0397617978,
				"y": 2.092180859,
				"z": -1.4825695167,
				"element": "C" 
			},
			{
				"x": -1.5694839413,
				"y": 1.6911373027,
				"z": -2.8610615585,
				"element": "C" 
			},
			{
				"x": -1.238688862,
				"y": 2.7358829543,
				"z": -3.9165565595,
				"element": "C" 
			},
			{
				"x": -1.6712281453,
				"y": 2.4488277624,
				"z": -5.1726646711,
				"element": "O" 
			},
			{
				"x": -0.6401172647,
				"y": 3.7607029323,
				"z": -3.7016522336,
				"element": "O" 
			},
			{
				"x": -1.488487703,
				"y": -0.254577424,
				"z": -0.7683860874,
				"element": "N" 
			},
			{
				"x": -2.0119610878,
				"y": -0.3462087113,
				"z": 2.8155759655,
				"element": "C" 
			},
			{
				"x": -2.092658639,
				"y": 0.3596145309,
				"z": 3.8174186705,
				"element": "O" 
			},
			{
				"x": -2.2804844535,
				"y": -1.7272150058,
				"z": 2.8750817688,
				"element": "N" 
			},
			{
				"x": -2.3053199828,
				"y": -2.6890536473,
				"z": 1.8595322022,
				"element": "C" 
			},
			{
				"x": -2.5776667378,
				"y": -3.856605232,
				"z": 2.0938756524,
				"element": "O" 
			},
			{
				"x": 1.3621745966,
				"y": -5.5086072414,
				"z": -1.4317549993,
				"element": "H" 
			},
			{
				"x": 2.0470321004,
				"y": -5.4310207613,
				"z": 0.1966262647,
				"element": "H" 
			},
			{
				"x": 2.1175741112,
				"y": -4.0156351178,
				"z": -0.8614774293,
				"element": "H" 
			},
			{
				"x": 0.3059557292,
				"y": -3.7782361396,
				"z": 0.8869481864,
				"element": "H" 
			},
			{
				"x": -0.4539475483,
				"y": -5.2483840421,
				"z": 0.3176103426,
				"element": "H" 
			},
			{
				"x": -0.8093516609,
				"y": -4.1835443121,
				"z": -1.943303054,
				"element": "H" 
			},
			{
				"x": -0.0836699214,
				"y": -2.6963955639,
				"z": -1.3536429013,
				"element": "H" 
			},
			{
				"x": -2.5645728289,
				"y": -2.605961113,
				"z": -1.3735260961,
				"element": "H" 
			},
			{
				"x": -2.6435395949,
				"y": -3.981200239,
				"z": -0.2476493526,
				"element": "H" 
			},
			{
				"x": -1.9005911843,
				"y": 2.4387679119,
				"z": 2.498083168,
				"element": "H" 
			},
			{
				"x": -1.6282374909,
				"y": 3.3265015674,
				"z": 0.9884664348,
				"element": "H" 
			},
			{
				"x": 0.0390710815,
				"y": 3.8053614545,
				"z": 2.6823327644,
				"element": "H" 
			},
			{
				"x": 1.3667889581,
				"y": 2.297899559,
				"z": 0.3645965855,
				"element": "H" 
			},
			{
				"x": 2.1067342987,
				"y": 3.5511486105,
				"z": 1.3562566602,
				"element": "H" 
			},
			{
				"x": 0.7611332664,
				"y": 3.9656271412,
				"z": 0.2881570281,
				"element": "H" 
			},
			{
				"x": 1.7175968512,
				"y": 2.184004175,
				"z": 3.4763526185,
				"element": "H" 
			},
			{
				"x": 0.0885146254,
				"y": 1.5940633443,
				"z": 3.8755542436,
				"element": "H" 
			},
			{
				"x": 0.9849150789,
				"y": 0.8920775379,
				"z": 2.5228231595,
				"element": "H" 
			},
			{
				"x": 0.0323655014,
				"y": 2.2992489035,
				"z": -1.5651632252,
				"element": "H" 
			},
			{
				"x": -1.4936238782,
				"y": 3.0403101131,
				"z": -1.1781695218,
				"element": "H" 
			},
			{
				"x": -1.1490889046,
				"y": 0.7231439533,
				"z": -3.1571066424,
				"element": "H" 
			},
			{
				"x": -2.6571340645,
				"y": 1.5459536185,
				"z": -2.8311575033,
				"element": "H" 
			},
			{
				"x": -2.1235320169,
				"y": 1.5930924299,
				"z": -5.1858662348,
				"element": "H" 
			},
			{
				"x": -2.5263387339,
				"y": -2.0875033753,
				"z": 3.7889333489,
				"element": "H" 
			}
		],
		 "valence_orbital": [ 
			{
				"type": "occ",
				"energy": -0.28222,
				"method": "rhf"
			},
			{
				"type": "occ",
				"energy": -0.28152,
				"method": "rhf"
			},
			{
				"type": "occ",
				"energy": -0.27781,
				"method": "rhf"
			},
			{
				"type": "occ",
				"energy": -0.26216,
				"method": "rhf"
			},
			{
				"type": "occ",
				"energy": -0.22053,
				"method": "rhf"
			},
			{
				"type": "unocc",
				"energy": -0.03593,
				"method": "rhf"
			},
			{
				"type": "unocc",
				"energy": 0.00205,
				"method": "rhf"
			},
			{
				"type": "unocc",
				"energy": 0.0207,
				"method": "rhf"
			},
			{
				"type": "unocc",
				"energy": 0.02918,
				"method": "rhf"
			},
			{
				"type": "unocc",
				"energy": 0.04772,
				"method": "rhf"
			}
		],
		"cosmo_sigma_profile": { 
			"-0.025": 0.0,
			"-0.024": 0.0,
			"-0.023": 0.0,
			"-0.022": 0.0,
			"-0.021": 0.0,
			"-0.02": 0.0121476318785,
			"-0.019": 0.629930089275,
			"-0.018": 1.45350598552,
			"-0.017": 0.684931874582,
			"-0.016": 1.47413167625,
			"-0.015": 1.81136502069,
			"-0.014": 1.55781531983,
			"-0.013": 2.0340309665,
			"-0.012": 2.29068242163,
			"-0.011": 1.70853912481,
			"-0.01": 1.58800877856,
			"-0.009": 2.51418119935,
			"-0.008": 5.26606057388,
			"-0.007": 7.41592844822,
			"-0.006": 8.46016069605,
			"-0.005": 14.7177285187,
			"-0.004": 22.7064895891,
			"-0.003": 40.1948908031,
			"-0.002": 46.8466890784,
			"-0.001": 45.3776231792,
			"0.0": 38.8216760169,
			"0.001": 32.2187041974,
			"0.002": 14.362819412,
			"0.003": 8.44045796119,
			"0.004": 8.29566433712,
			"0.005": 7.67013048264,
			"0.006": 7.92146858434,
			"0.007": 6.91364422682,
			"0.008": 6.13520988155,
			"0.009": 7.55846820858,
			"0.01": 8.31134368496,
			"0.011": 8.29779692191,
			"0.012": 10.6315984136,
			"0.013": 9.03884485627,
			"0.014": 0.996413747245,
			"0.015": 0.0,
			"0.016": 0.0,
			"0.017": 0.0,
			"0.018": 0.0,
			"0.019": 0.0,
			"0.02": 0.0,
			"0.021": 0.0,
			"0.022": 0.0,
			"0.023": 0.0,
			"0.024": 0.0,
			"0.025": 0.0
		}
	}
}
