{
	 "smiles": "OC1=CC=C(NC(=O)C2=CC(=CC=C2)[N+]([O-])=O)C=C1", 
	 "Tm": 496.15, 
	 "num_atms": 29, 
	 "gaussian": { 
		 "optdone": 1, 
		 "sigma_profile": "yes", 
		 "theory": "DFT", 
		 "functional": "B3LYP", 
		 "basiset": "6-31G**", 
		 "properties": { 
			 "R2extent": 8271.9005, 
			 "electric_dipole_moment_norm": 7.85510933533, 
			 "electric_quadrupole_moment_norm": 14.3498029743, 
			 "total_energy": -911.720731451, 
			 "HOMO_LUMO_gap": 0.11657, 
			 "cosmo_polarized_energy": -22.94, 
			 "cosmo_cavitation_energy": 35.23, 
			 "cosmo_dispersion_energy": -25.78, 
			 "cosmo_repulsion_energy": 1.95, 
			 "cosmo_total_nonelectrostatic_energy": 11.4, 
			 "SMD_solvation_energy": 8.97 
		},
		"coords": [
			{
				"x": -3.7132106115,
				"y": -4.3414424155,
				"z": 2.3867182995,
				"element": "O" 
			},
			{
				"x": -2.7171847839,
				"y": -3.4646708542,
				"z": 2.0591079209,
				"element": "C" 
			},
			{
				"x": -1.3805605444,
				"y": -3.6621438595,
				"z": 2.4181401635,
				"element": "C" 
			},
			{
				"x": -0.4168596866,
				"y": -2.7264267295,
				"z": 2.0508695706,
				"element": "C" 
			},
			{
				"x": -0.7661562458,
				"y": -1.5828594346,
				"z": 1.3210506716,
				"element": "C" 
			},
			{
				"x": 0.2706141205,
				"y": -0.6747825425,
				"z": 0.9969499464,
				"element": "N" 
			},
			{
				"x": 0.2044192992,
				"y": 0.4628056068,
				"z": 0.2314746347,
				"element": "C" 
			},
			{
				"x": -0.8105648477,
				"y": 0.8635179093,
				"z": -0.3281521265,
				"element": "O" 
			},
			{
				"x": 1.5047901682,
				"y": 1.2167311317,
				"z": 0.0979094441,
				"element": "C" 
			},
			{
				"x": 1.6451010185,
				"y": 2.0303298175,
				"z": -1.0319307392,
				"element": "C" 
			},
			{
				"x": 2.8188042794,
				"y": 2.7541746749,
				"z": -1.1980006903,
				"element": "C" 
			},
			{
				"x": 3.8583778663,
				"y": 2.7184660076,
				"z": -0.2691293613,
				"element": "C" 
			},
			{
				"x": 3.7025498299,
				"y": 1.926697852,
				"z": 0.8655255406,
				"element": "C" 
			},
			{
				"x": 2.5354525255,
				"y": 1.1813036544,
				"z": 1.0487119347,
				"element": "C" 
			},
			{
				"x": 2.971812642,
				"y": 3.5980989517,
				"z": -2.3994966099,
				"element": "N" 
			},
			{
				"x": 2.0480842444,
				"y": 3.6091904327,
				"z": -3.2091747259,
				"element": "O" 
			},
			{
				"x": 4.017602875,
				"y": 4.2363977259,
				"z": -2.5133107516,
				"element": "O" 
			},
			{
				"x": -2.1099397216,
				"y": -1.3871580799,
				"z": 0.9612619703,
				"element": "C" 
			},
			{
				"x": -3.0697868414,
				"y": -2.3237824095,
				"z": 1.3309710744,
				"element": "C" 
			},
			{
				"x": -3.3369959936,
				"y": -5.0814563698,
				"z": 2.8802194561,
				"element": "H" 
			},
			{
				"x": -1.0880014581,
				"y": -4.5437208893,
				"z": 2.9841322005,
				"element": "H" 
			},
			{
				"x": 0.6193502528,
				"y": -2.8922100671,
				"z": 2.3379313391,
				"element": "H" 
			},
			{
				"x": 1.1919380846,
				"y": -0.9650053051,
				"z": 1.2889595464,
				"element": "H" 
			},
			{
				"x": 0.8451659455,
				"y": 2.0929655514,
				"z": -1.7584813235,
				"element": "H" 
			},
			{
				"x": 4.7504158403,
				"y": 3.3066323673,
				"z": -0.4434120017,
				"element": "H" 
			},
			{
				"x": 4.4875559833,
				"y": 1.896795192,
				"z": 1.6142619574,
				"element": "H" 
			},
			{
				"x": 2.4222780273,
				"y": 0.6014230637,
				"z": 1.9604113833,
				"element": "H" 
			},
			{
				"x": -2.3853778625,
				"y": -0.5109426256,
				"z": 0.3922091053,
				"element": "H" 
			},
			{
				"x": -4.1095744057,
				"y": -2.1812283567,
				"z": 1.0560721704,
				"element": "H" 
			}
		],
		 "valence_orbital": [ 
			{
				"type": "occ",
				"energy": -0.29325,
				"method": "rhf"
			},
			{
				"type": "occ",
				"energy": -0.28684,
				"method": "rhf"
			},
			{
				"type": "occ",
				"energy": -0.26628,
				"method": "rhf"
			},
			{
				"type": "occ",
				"energy": -0.26116,
				"method": "rhf"
			},
			{
				"type": "occ",
				"energy": -0.21138,
				"method": "rhf"
			},
			{
				"type": "unocc",
				"energy": -0.09481,
				"method": "rhf"
			},
			{
				"type": "unocc",
				"energy": -0.0587,
				"method": "rhf"
			},
			{
				"type": "unocc",
				"energy": -0.01681,
				"method": "rhf"
			},
			{
				"type": "unocc",
				"energy": -0.01193,
				"method": "rhf"
			},
			{
				"type": "unocc",
				"energy": 0.00807,
				"method": "rhf"
			}
		],
		"cosmo_sigma_profile": { 
			"-0.025": 0.0,
			"-0.024": 0.0,
			"-0.023": 0.0,
			"-0.022": 0.0,
			"-0.021": 0.0,
			"-0.02": 0.0,
			"-0.019": 0.0,
			"-0.018": 0.267550227438,
			"-0.017": 1.17898487445,
			"-0.016": 1.94776713649,
			"-0.015": 1.93325969197,
			"-0.014": 2.36117039269,
			"-0.013": 2.37900104195,
			"-0.012": 2.49212003703,
			"-0.011": 3.12793097348,
			"-0.01": 2.29725689889,
			"-0.009": 3.45014436307,
			"-0.008": 6.60140267461,
			"-0.007": 11.2093596752,
			"-0.006": 12.000374908,
			"-0.005": 11.040355082,
			"-0.004": 14.7802787208,
			"-0.003": 15.8850224749,
			"-0.002": 16.6985503908,
			"-0.001": 17.8530025106,
			"0.0": 22.2328078342,
			"0.001": 18.6247206427,
			"0.002": 15.1445137506,
			"0.003": 14.1386509411,
			"0.004": 17.3514976168,
			"0.005": 17.2932536763,
			"0.006": 7.67301280058,
			"0.007": 12.6386084632,
			"0.008": 9.45739152387,
			"0.009": 6.31829274284,
			"0.01": 5.89148437806,
			"0.011": 3.62380365819,
			"0.012": 3.78310842077,
			"0.013": 1.56799411208,
			"0.014": 0.0127427093578,
			"0.015": 0.0,
			"0.016": 0.0,
			"0.017": 0.0,
			"0.018": 0.0,
			"0.019": 0.0,
			"0.02": 0.0,
			"0.021": 0.0,
			"0.022": 0.0,
			"0.023": 0.0,
			"0.024": 0.0,
			"0.025": 0.0
		}
	}
}
