{
	 "smiles": "NNC(=O)C1=CC=C2OCOC2=C1", 
	 "Tm": 447.15, 
	 "num_atms": 21, 
	 "gaussian": { 
		 "optdone": 1, 
		 "sigma_profile": "yes", 
		 "theory": "DFT", 
		 "functional": "B3LYP", 
		 "basiset": "6-31G**", 
		 "properties": { 
			 "R2extent": 3653.1849, 
			 "electric_dipole_moment_norm": 3.15589451345, 
			 "electric_quadrupole_moment_norm": 9.96267812438, 
			 "total_energy": -644.802300767, 
			 "HOMO_LUMO_gap": 0.18258, 
			 "cosmo_polarized_energy": -13.93, 
			 "cosmo_cavitation_energy": 25.5, 
			 "cosmo_dispersion_energy": -19.48, 
			 "cosmo_repulsion_energy": 1.54, 
			 "cosmo_total_nonelectrostatic_energy": 7.56, 
			 "SMD_solvation_energy": 6.1 
		},
		"coords": [
			{
				"x": -2.186746744,
				"y": 1.5519203029,
				"z": 1.0465626555,
				"element": "N" 
			},
			{
				"x": -0.9867079172,
				"y": 0.9196058767,
				"z": 0.6433625399,
				"element": "N" 
			},
			{
				"x": -0.7333008681,
				"y": 0.7513192897,
				"z": -0.7028305737,
				"element": "C" 
			},
			{
				"x": -1.4567840277,
				"y": 1.2639382426,
				"z": -1.5533467325,
				"element": "O" 
			},
			{
				"x": 0.4556319938,
				"y": -0.0888094643,
				"z": -1.0459261601,
				"element": "C" 
			},
			{
				"x": 0.5101028222,
				"y": -0.6231841082,
				"z": -2.3380279894,
				"element": "C" 
			},
			{
				"x": 1.5782934388,
				"y": -1.4293253451,
				"z": -2.7587887056,
				"element": "C" 
			},
			{
				"x": 2.5809625546,
				"y": -1.6650640242,
				"z": -1.8366426819,
				"element": "C" 
			},
			{
				"x": 3.7250242548,
				"y": -2.4001358909,
				"z": -1.9955850087,
				"element": "O" 
			},
			{
				"x": 4.4374197597,
				"y": -2.3081551833,
				"z": -0.7536595907,
				"element": "C" 
			},
			{
				"x": 3.6666114943,
				"y": -1.4990882441,
				"z": 0.1424391442,
				"element": "O" 
			},
			{
				"x": 2.541423327,
				"y": -1.1255412699,
				"z": -0.551148484,
				"element": "C" 
			},
			{
				"x": 1.5004501027,
				"y": -0.3312972132,
				"z": -0.1217696199,
				"element": "C" 
			},
			{
				"x": -1.9948404347,
				"y": 2.5520356257,
				"z": 1.0978168997,
				"element": "H" 
			},
			{
				"x": -2.8379025597,
				"y": 1.4458783701,
				"z": 0.2657218759,
				"element": "H" 
			},
			{
				"x": -0.6870086496,
				"y": 0.1930753272,
				"z": 1.2786410233,
				"element": "H" 
			},
			{
				"x": -0.3037050075,
				"y": -0.3919657913,
				"z": -3.0158262997,
				"element": "H" 
			},
			{
				"x": 1.6218911902,
				"y": -1.8469403943,
				"z": -3.7581060478,
				"element": "H" 
			},
			{
				"x": 5.4126910661,
				"y": -1.8374482926,
				"z": -0.9274690231,
				"element": "H" 
			},
			{
				"x": 4.560176436,
				"y": -3.3118068761,
				"z": -0.3290234719,
				"element": "H" 
			},
			{
				"x": 1.5127177682,
				"y": 0.1125890626,
				"z": 0.8669062506,
				"element": "H" 
			}
		],
		 "valence_orbital": [ 
			{
				"type": "occ",
				"energy": -0.28855,
				"method": "rhf"
			},
			{
				"type": "occ",
				"energy": -0.26071,
				"method": "rhf"
			},
			{
				"type": "occ",
				"energy": -0.25784,
				"method": "rhf"
			},
			{
				"type": "occ",
				"energy": -0.24753,
				"method": "rhf"
			},
			{
				"type": "occ",
				"energy": -0.21675,
				"method": "rhf"
			},
			{
				"type": "unocc",
				"energy": -0.03417,
				"method": "rhf"
			},
			{
				"type": "unocc",
				"energy": -0.00689,
				"method": "rhf"
			},
			{
				"type": "unocc",
				"energy": 0.06082,
				"method": "rhf"
			},
			{
				"type": "unocc",
				"energy": 0.08893,
				"method": "rhf"
			},
			{
				"type": "unocc",
				"energy": 0.09282,
				"method": "rhf"
			}
		],
		"cosmo_sigma_profile": { 
			"-0.025": 0.0,
			"-0.024": 0.0,
			"-0.023": 0.0,
			"-0.022": 0.0,
			"-0.021": 0.0,
			"-0.02": 0.0,
			"-0.019": 0.0,
			"-0.018": 0.0,
			"-0.017": 0.0,
			"-0.016": 0.0,
			"-0.015": 0.00841276617177,
			"-0.014": 0.704438520346,
			"-0.013": 1.28960392696,
			"-0.012": 0.960903147212,
			"-0.011": 2.73601371044,
			"-0.01": 2.50038265792,
			"-0.009": 4.90787786038,
			"-0.008": 7.88270550786,
			"-0.007": 13.8113705225,
			"-0.006": 11.2695592757,
			"-0.005": 10.0937100238,
			"-0.004": 10.0031864722,
			"-0.003": 9.48117974665,
			"-0.002": 9.1053062087,
			"-0.001": 10.5272229543,
			"0.0": 11.5409921656,
			"0.001": 14.6350576214,
			"0.002": 17.3579314923,
			"0.003": 13.4579625942,
			"0.004": 9.46759889133,
			"0.005": 5.57104163538,
			"0.006": 4.76314275284,
			"0.007": 5.28852009573,
			"0.008": 4.47289390667,
			"0.009": 5.15321791433,
			"0.01": 2.3267354556,
			"0.011": 2.07950790239,
			"0.012": 3.2595397283,
			"0.013": 5.09319577101,
			"0.014": 2.01777851491,
			"0.015": 0.756145432255,
			"0.016": 0.572378422526,
			"0.017": 0.317961626178,
			"0.018": 0.0,
			"0.019": 0.0,
			"0.02": 0.0,
			"0.021": 0.0,
			"0.022": 0.0,
			"0.023": 0.0,
			"0.024": 0.0,
			"0.025": 0.0
		}
	}
}
