{
	 "smiles": "FC1=C(F)C(=O)C(F)=C(F)C1=O", 
	 "Tm": 455.15, 
	 "num_atms": 12, 
	 "gaussian": { 
		 "optdone": 1, 
		 "sigma_profile": "yes", 
		 "theory": "DFT", 
		 "functional": "B3LYP", 
		 "basiset": "6-31G**", 
		 "properties": { 
			 "R2extent": 2552.1355, 
			 "electric_dipole_moment_norm": 0.0, 
			 "electric_quadrupole_moment_norm": 12.8443558982, 
			 "total_energy": -778.339364175, 
			 "HOMO_LUMO_gap": 0.13993, 
			 "cosmo_polarized_energy": -8.53, 
			 "cosmo_cavitation_energy": 20.54, 
			 "cosmo_dispersion_energy": -14.32, 
			 "cosmo_repulsion_energy": 1.05, 
			 "cosmo_total_nonelectrostatic_energy": 7.28, 
			 "SMD_solvation_energy": 7.07 
		},
		"coords": [
			{
				"x": 3.5309156659,
				"y": -1.2230033916,
				"z": 0.2239676647,
				"element": "F" 
			},
			{
				"x": 2.3427554363,
				"y": -0.7930049603,
				"z": 0.6264255308,
				"element": "C" 
			},
			{
				"x": 2.0525233614,
				"y": 0.5144774728,
				"z": 0.7459695952,
				"element": "C" 
			},
			{
				"x": 2.9340584349,
				"y": 1.4659304021,
				"z": 0.4699038961,
				"element": "F" 
			},
			{
				"x": 0.7133360938,
				"y": 0.9832638904,
				"z": 1.199119954,
				"element": "C" 
			},
			{
				"x": 0.4509662815,
				"y": 2.1655923258,
				"z": 1.3073635081,
				"element": "O" 
			},
			{
				"x": -0.2868554363,
				"y": -0.0748950397,
				"z": 1.5128744692,
				"element": "C" 
			},
			{
				"x": -1.4750156659,
				"y": 0.3551033916,
				"z": 1.9153323353,
				"element": "F" 
			},
			{
				"x": 0.0033766386,
				"y": -1.3823774728,
				"z": 1.3933304047,
				"element": "C" 
			},
			{
				"x": -0.8781584349,
				"y": -2.3338304021,
				"z": 1.6693961039,
				"element": "F" 
			},
			{
				"x": 1.3425639062,
				"y": -1.8511638904,
				"z": 0.9401800459,
				"element": "C" 
			},
			{
				"x": 1.6049337186,
				"y": -3.0334923258,
				"z": 0.8319364919,
				"element": "O" 
			}
		],
		 "valence_orbital": [ 
			{
				"type": "occ",
				"energy": -0.42676,
				"method": "rhf"
			},
			{
				"type": "occ",
				"energy": -0.31632,
				"method": "rhf"
			},
			{
				"type": "occ",
				"energy": -0.31436,
				"method": "rhf"
			},
			{
				"type": "occ",
				"energy": -0.31242,
				"method": "rhf"
			},
			{
				"type": "occ",
				"energy": -0.29411,
				"method": "rhf"
			},
			{
				"type": "unocc",
				"energy": -0.15418,
				"method": "rhf"
			},
			{
				"type": "unocc",
				"energy": -0.02926,
				"method": "rhf"
			},
			{
				"type": "unocc",
				"energy": -0.01881,
				"method": "rhf"
			},
			{
				"type": "unocc",
				"energy": 0.01343,
				"method": "rhf"
			},
			{
				"type": "unocc",
				"energy": 0.07584,
				"method": "rhf"
			}
		],
		"cosmo_sigma_profile": { 
			"-0.025": 0.0,
			"-0.024": 0.0,
			"-0.023": 0.0,
			"-0.022": 0.0,
			"-0.021": 0.0,
			"-0.02": 0.0,
			"-0.019": 0.0,
			"-0.018": 0.0,
			"-0.017": 0.0,
			"-0.016": 0.0,
			"-0.015": 0.0,
			"-0.014": 0.0800925135775,
			"-0.013": 0.936792744386,
			"-0.012": 1.2092858398,
			"-0.011": 1.93296286947,
			"-0.01": 2.63816171443,
			"-0.009": 3.6043966183,
			"-0.008": 5.34740090687,
			"-0.007": 5.48244806786,
			"-0.006": 8.65432457713,
			"-0.005": 7.94246540684,
			"-0.004": 5.22999191429,
			"-0.003": 7.57439433832,
			"-0.002": 5.42816548014,
			"-0.001": 7.42708741971,
			"0.0": 10.2817777876,
			"0.001": 28.4800559601,
			"0.002": 22.6910868436,
			"0.003": 5.76260136926,
			"0.004": 5.52517809309,
			"0.005": 5.3035419311,
			"0.006": 4.80384518683,
			"0.007": 5.40887332354,
			"0.008": 8.28855659594,
			"0.009": 7.30580162896,
			"0.01": 0.57882109283,
			"0.011": 0.0,
			"0.012": 0.0,
			"0.013": 0.0,
			"0.014": 0.0,
			"0.015": 0.0,
			"0.016": 0.0,
			"0.017": 0.0,
			"0.018": 0.0,
			"0.019": 0.0,
			"0.02": 0.0,
			"0.021": 0.0,
			"0.022": 0.0,
			"0.023": 0.0,
			"0.024": 0.0,
			"0.025": 0.0
		}
	}
}
