{
	 "smiles": "FC1=CC=CC=C1I", 
	 "Tm": 231.35, 
	 "num_atms": 12, 
	 "gaussian": { 
		 "optdone": 1, 
		 "sigma_profile": "no", 
		 "theory": "DFT", 
		 "functional": "B3LYP", 
		 "basiset": "6-31G**", 
		 "properties": { 
			 "R2extent": 1708.8274, 
			 "electric_dipole_moment_norm": 2.37024928225, 
			 "electric_quadrupole_moment_norm": 5.25291662317, 
			 "total_energy": -342.265202489, 
			 "HOMO_LUMO_gap": 0.20135, 
			 "cosmo_polarized_energy": -97279.48, 
			 "cosmo_cavitation_energy": 19.62, 
			 "cosmo_dispersion_energy": -16.02, 
			 "cosmo_repulsion_energy": 1.27, 
			 "cosmo_total_nonelectrostatic_energy": 4.87, 
			 "SMD_solvation_energy": 3.05 
		},
		"coords": [
			{
				"x": -0.3296223668,
				"y": 3.1662423146,
				"z": -1.8551112132,
				"element": "F" 
			},
			{
				"x": 0.191138695,
				"y": 2.0034909199,
				"z": -1.4296723656,
				"element": "C" 
			},
			{
				"x": 0.4415415899,
				"y": 1.8425293294,
				"z": -0.0701794986,
				"element": "C" 
			},
			{
				"x": 0.9818614651,
				"y": 0.6414335407,
				"z": 0.386593222,
				"element": "C" 
			},
			{
				"x": 1.2669598731,
				"y": -0.3861961239,
				"z": -0.5147741632,
				"element": "C" 
			},
			{
				"x": 1.0125040446,
				"y": -0.2158450252,
				"z": -1.8766682073,
				"element": "C" 
			},
			{
				"x": 0.4710165335,
				"y": 0.9855751103,
				"z": -2.341367342,
				"element": "C" 
			},
			{
				"x": 0.0760687744,
				"y": 1.2720804675,
				"z": -4.3928661328,
				"element": "I" 
			},
			{
				"x": 0.2082822846,
				"y": 2.6609445002,
				"z": 0.602560568,
				"element": "H" 
			},
			{
				"x": 1.1789827413,
				"y": 0.5110848121,
				"z": 1.4460456425,
				"element": "H" 
			},
			{
				"x": 1.6877060308,
				"y": -1.3229596457,
				"z": -0.1633555226,
				"element": "H" 
			},
			{
				"x": 1.2327603346,
				"y": -1.0118801998,
				"z": -2.5792049873,
				"element": "H" 
			}
		],
		 "valence_orbital": [ 
			{
				"type": "occ",
				"energy": -0.34945,
				"method": "rhf"
			},
			{
				"type": "occ",
				"energy": -0.30318,
				"method": "rhf"
			},
			{
				"type": "occ",
				"energy": -0.27012,
				"method": "rhf"
			},
			{
				"type": "occ",
				"energy": -0.26185,
				"method": "rhf"
			},
			{
				"type": "occ",
				"energy": -0.24299,
				"method": "rhf"
			},
			{
				"type": "unocc",
				"energy": -0.04164,
				"method": "rhf"
			},
			{
				"type": "unocc",
				"energy": -0.02575,
				"method": "rhf"
			},
			{
				"type": "unocc",
				"energy": -0.01184,
				"method": "rhf"
			},
			{
				"type": "unocc",
				"energy": 0.04523,
				"method": "rhf"
			},
			{
				"type": "unocc",
				"energy": 0.05114,
				"method": "rhf"
			}
		],
		"cosmo_sigma_profile": { 
			"0.0": 0.0,
			"0.0": 0.0,
			"0.0": 0.0,
			"0.0": 0.0,
			"0.0": 0.0,
			"0.0": 0.0,
			"0.0": 0.0,
			"0.0": 0.0,
			"0.0": 0.0,
			"0.0": 0.0,
			"0.0": 0.0,
			"0.0": 0.0,
			"0.0": 0.0,
			"0.0": 0.0,
			"0.0": 0.0,
			"0.0": 0.0,
			"0.0": 0.0,
			"0.0": 0.0,
			"0.0": 0.0,
			"0.0": 0.0,
			"0.0": 0.0,
			"0.0": 0.0,
			"0.0": 0.0,
			"0.0": 0.0,
			"0.0": 0.0,
			"0.0": 0.0,
			"0.0": 0.0,
			"0.0": 0.0,
			"0.0": 0.0,
			"0.0": 0.0,
			"0.0": 0.0,
			"0.0": 0.0,
			"0.0": 0.0,
			"0.0": 0.0,
			"0.0": 0.0,
			"0.0": 0.0,
			"0.0": 0.0,
			"0.0": 0.0,
			"0.0": 0.0,
			"0.0": 0.0,
			"0.0": 0.0,
			"0.0": 0.0,
			"0.0": 0.0,
			"0.0": 0.0,
			"0.0": 0.0,
			"0.0": 0.0,
			"0.0": 0.0,
			"0.0": 0.0,
			"0.0": 0.0,
			"0.0": 0.0,
			"0.0": 0.0
		}
	}
}
