{
	 "smiles": "CC(C)(C)C1=CC=C(C=C1)C(=O)N=C=S", 
	 "Tm": 307.15, 
	 "num_atms": 28, 
	 "gaussian": { 
		 "optdone": 1, 
		 "sigma_profile": "yes", 
		 "theory": "DFT", 
		 "functional": "B3LYP", 
		 "basiset": "6-31G**", 
		 "properties": { 
			 "R2extent": 6824.05, 
			 "electric_dipole_moment_norm": 4.50022251005, 
			 "electric_quadrupole_moment_norm": 13.5841636467, 
			 "total_energy": -993.288949777, 
			 "HOMO_LUMO_gap": 0.17854, 
			 "cosmo_polarized_energy": -6.18, 
			 "cosmo_cavitation_energy": 34.08, 
			 "cosmo_dispersion_energy": -24.39, 
			 "cosmo_repulsion_energy": 1.86, 
			 "cosmo_total_nonelectrostatic_energy": 11.56, 
			 "SMD_solvation_energy": 7.08 
		},
		"coords": [
			{
				"x": -0.1551563926,
				"y": -2.9595956464,
				"z": 0.8426585348,
				"element": "C" 
			},
			{
				"x": -1.2375883049,
				"y": -1.985534982,
				"z": 0.3174792606,
				"element": "C" 
			},
			{
				"x": -2.5370288157,
				"y": -2.1703048192,
				"z": 1.1382023221,
				"element": "C" 
			},
			{
				"x": -1.538898349,
				"y": -2.3456918372,
				"z": -1.1496429088,
				"element": "C" 
			},
			{
				"x": -0.7385980532,
				"y": -0.5392956853,
				"z": 0.4763289456,
				"element": "C" 
			},
			{
				"x": -0.5841399873,
				"y": 0.3349672931,
				"z": -0.6101136994,
				"element": "C" 
			},
			{
				"x": -0.1292095873,
				"y": 1.6408384882,
				"z": -0.4335062508,
				"element": "C" 
			},
			{
				"x": 0.1863540464,
				"y": 2.1117973368,
				"z": 0.8455342964,
				"element": "C" 
			},
			{
				"x": 0.0377258035,
				"y": 1.2504365458,
				"z": 1.9443437466,
				"element": "C" 
			},
			{
				"x": -0.4157482503,
				"y": -0.0469366748,
				"z": 1.7569275773,
				"element": "C" 
			},
			{
				"x": 0.6724623208,
				"y": 3.4856432465,
				"z": 1.0908055343,
				"element": "C" 
			},
			{
				"x": 0.9588866046,
				"y": 3.9399217751,
				"z": 2.1787195754,
				"element": "O" 
			},
			{
				"x": 0.7881122672,
				"y": 4.2793417588,
				"z": -0.0900388995,
				"element": "N" 
			},
			{
				"x": 1.1222872458,
				"y": 5.4024410852,
				"z": -0.3928608761,
				"element": "C" 
			},
			{
				"x": 1.5311895129,
				"y": 6.8318785013,
				"z": -0.9101930557,
				"element": "S" 
			},
			{
				"x": 0.7759385144,
				"y": -2.8543035038,
				"z": 0.276390913,
				"element": "H" 
			},
			{
				"x": 0.0738370841,
				"y": -2.7866325779,
				"z": 1.898180063,
				"element": "H" 
			},
			{
				"x": -0.4986439918,
				"y": -3.9949968495,
				"z": 0.7419702424,
				"element": "H" 
			},
			{
				"x": -2.9024157565,
				"y": -3.1983926881,
				"z": 1.0396521291,
				"element": "H" 
			},
			{
				"x": -3.3236017821,
				"y": -1.4953077681,
				"z": 0.7855485513,
				"element": "H" 
			},
			{
				"x": -2.3802407682,
				"y": -1.9740244742,
				"z": 2.2027964718,
				"element": "H" 
			},
			{
				"x": -1.8893509372,
				"y": -3.3809252021,
				"z": -1.2083837119,
				"element": "H" 
			},
			{
				"x": -2.3219776643,
				"y": -1.7091050027,
				"z": -1.5743786238,
				"element": "H" 
			},
			{
				"x": -0.6486300037,
				"y": -2.2637981028,
				"z": -1.7817630896,
				"element": "H" 
			},
			{
				"x": -0.8192415311,
				"y": 0.0031761949,
				"z": -1.6142470731,
				"element": "H" 
			},
			{
				"x": -0.0179616156,
				"y": 2.2982157975,
				"z": -1.2895517714,
				"element": "H" 
			},
			{
				"x": 0.2836111443,
				"y": 1.6199202564,
				"z": 2.934275051,
				"element": "H" 
			},
			{
				"x": -0.5211727532,
				"y": -0.6913324654,
				"z": 2.6240667454,
				"element": "H" 
			}
		],
		 "valence_orbital": [ 
			{
				"type": "occ",
				"energy": -0.30284,
				"method": "rhf"
			},
			{
				"type": "occ",
				"energy": -0.27314,
				"method": "rhf"
			},
			{
				"type": "occ",
				"energy": -0.26661,
				"method": "rhf"
			},
			{
				"type": "occ",
				"energy": -0.26559,
				"method": "rhf"
			},
			{
				"type": "occ",
				"energy": -0.25844,
				"method": "rhf"
			},
			{
				"type": "unocc",
				"energy": -0.0799,
				"method": "rhf"
			},
			{
				"type": "unocc",
				"energy": -0.04089,
				"method": "rhf"
			},
			{
				"type": "unocc",
				"energy": -0.01884,
				"method": "rhf"
			},
			{
				"type": "unocc",
				"energy": -0.00686,
				"method": "rhf"
			},
			{
				"type": "unocc",
				"energy": 0.068,
				"method": "rhf"
			}
		],
		"cosmo_sigma_profile": { 
			"-0.025": 0.0,
			"-0.024": 0.0,
			"-0.023": 0.0,
			"-0.022": 0.0,
			"-0.021": 0.0,
			"-0.02": 0.0,
			"-0.019": 0.0,
			"-0.018": 0.0,
			"-0.017": 0.0,
			"-0.016": 0.0,
			"-0.015": 0.0,
			"-0.014": 0.0,
			"-0.013": 0.0,
			"-0.012": 0.0,
			"-0.011": 0.0,
			"-0.01": 0.0,
			"-0.009": 0.0,
			"-0.008": 0.0,
			"-0.007": 0.436666238253,
			"-0.006": 6.44137813719,
			"-0.005": 8.91356467493,
			"-0.004": 13.1064123175,
			"-0.003": 30.2189543294,
			"-0.002": 33.2424951652,
			"-0.001": 33.9589184628,
			"0.0": 36.9531515985,
			"0.001": 38.4031684739,
			"0.002": 22.8142691285,
			"0.003": 25.9265215005,
			"0.004": 8.22254255266,
			"0.005": 1.31881072201,
			"0.006": 1.25210970827,
			"0.007": 1.61380240985,
			"0.008": 2.15086611892,
			"0.009": 2.1225444623,
			"0.01": 4.14642493717,
			"0.011": 2.76814377098,
			"0.012": 0.0619193811073,
			"0.013": 0.0,
			"0.014": 0.0,
			"0.015": 0.0,
			"0.016": 0.0,
			"0.017": 0.0,
			"0.018": 0.0,
			"0.019": 0.0,
			"0.02": 0.0,
			"0.021": 0.0,
			"0.022": 0.0,
			"0.023": 0.0,
			"0.024": 0.0,
			"0.025": 0.0
		}
	}
}
