{
	 "smiles": "OC(=O)C1=CC=C(SC2=CC=C(Cl)C=C2)C(=C1)[N+]([O-])=O", 
	 "Tm": 492.15, 
	 "num_atms": 28, 
	 "gaussian": { 
		 "optdone": 1, 
		 "sigma_profile": "yes", 
		 "theory": "DFT", 
		 "functional": "B3LYP", 
		 "basiset": "6-31G**", 
		 "properties": { 
			 "R2extent": 8306.9198, 
			 "electric_dipole_moment_norm": 4.78913475797, 
			 "electric_quadrupole_moment_norm": 11.7133355454, 
			 "total_energy": -1714.13423441, 
			 "HOMO_LUMO_gap": 0.14022, 
			 "cosmo_polarized_energy": -15.51, 
			 "cosmo_cavitation_energy": 37.85, 
			 "cosmo_dispersion_energy": -26.74, 
			 "cosmo_repulsion_energy": 2.01, 
			 "cosmo_total_nonelectrostatic_energy": 13.12, 
			 "SMD_solvation_energy": 9.03 
		},
		"coords": [
			{
				"x": -2.6578165625,
				"y": -3.6665805871,
				"z": 2.5777119382,
				"element": "O" 
			},
			{
				"x": -2.351075068,
				"y": -2.3474399568,
				"z": 2.6071961656,
				"element": "C" 
			},
			{
				"x": -2.5140747882,
				"y": -1.6584659003,
				"z": 3.5929078758,
				"element": "O" 
			},
			{
				"x": -1.8037658914,
				"y": -1.8562288829,
				"z": 1.3136049792,
				"element": "C" 
			},
			{
				"x": -1.6342321192,
				"y": -2.6852040999,
				"z": 0.196958017,
				"element": "C" 
			},
			{
				"x": -1.0896405851,
				"y": -2.1718277297,
				"z": -0.9743842456,
				"element": "C" 
			},
			{
				"x": -0.7366745073,
				"y": -0.8161523188,
				"z": -1.0956678359,
				"element": "C" 
			},
			{
				"x": -0.0816824758,
				"y": -0.3358042221,
				"z": -2.6843821418,
				"element": "S" 
			},
			{
				"x": 1.3283118485,
				"y": 0.7022680212,
				"z": -2.2990288187,
				"element": "C" 
			},
			{
				"x": 1.4159138499,
				"y": 1.9679922969,
				"z": -2.8893939947,
				"element": "C" 
			},
			{
				"x": 2.5492132011,
				"y": 2.7567749239,
				"z": -2.6942851397,
				"element": "C" 
			},
			{
				"x": 3.5807841609,
				"y": 2.2802028426,
				"z": -1.8864483843,
				"element": "C" 
			},
			{
				"x": 5.0033963918,
				"y": 3.273549606,
				"z": -1.6268167995,
				"element": "Cl" 
			},
			{
				"x": 3.5027505258,
				"y": 1.0253023085,
				"z": -1.2802976977,
				"element": "C" 
			},
			{
				"x": 2.3788302003,
				"y": 0.2317645421,
				"z": -1.500593685,
				"element": "C" 
			},
			{
				"x": -0.9546522902,
				"y": 0.0050489023,
				"z": 0.0296988981,
				"element": "C" 
			},
			{
				"x": -1.4478350897,
				"y": -0.5097023493,
				"z": 1.2241805162,
				"element": "C" 
			},
			{
				"x": -0.7317117429,
				"y": 1.464106743,
				"z": 0.0140712169,
				"element": "N" 
			},
			{
				"x": -0.3282613331,
				"y": 1.9775366336,
				"z": 1.0552973986,
				"element": "O" 
			},
			{
				"x": -1.0059513989,
				"y": 2.074360898,
				"z": -1.0153122436,
				"element": "O" 
			},
			{
				"x": -3.0036491109,
				"y": -3.881901944,
				"z": 3.459625164,
				"element": "H" 
			},
			{
				"x": -1.9030615662,
				"y": -3.7334193975,
				"z": 0.2581091011,
				"element": "H" 
			},
			{
				"x": -0.9088639121,
				"y": -2.8288784691,
				"z": -1.8188103449,
				"element": "H" 
			},
			{
				"x": 0.5936271535,
				"y": 2.3419329783,
				"z": -3.4891391741,
				"element": "H" 
			},
			{
				"x": 2.6224967409,
				"y": 3.7381600728,
				"z": -3.1491059622,
				"element": "H" 
			},
			{
				"x": 4.31629326,
				"y": 0.6697544507,
				"z": -0.65794514,
				"element": "H" 
			},
			{
				"x": 2.3233809187,
				"y": -0.7552653302,
				"z": -1.0528337092,
				"element": "H" 
			},
			{
				"x": -1.5757498094,
				"y": 0.1411159678,
				"z": 2.0805840462,
				"element": "H" 
			}
		],
		 "valence_orbital": [ 
			{
				"type": "occ",
				"energy": -0.29425,
				"method": "rhf"
			},
			{
				"type": "occ",
				"energy": -0.28467,
				"method": "rhf"
			},
			{
				"type": "occ",
				"energy": -0.27521,
				"method": "rhf"
			},
			{
				"type": "occ",
				"energy": -0.26757,
				"method": "rhf"
			},
			{
				"type": "occ",
				"energy": -0.23616,
				"method": "rhf"
			},
			{
				"type": "unocc",
				"energy": -0.09594,
				"method": "rhf"
			},
			{
				"type": "unocc",
				"energy": -0.07171,
				"method": "rhf"
			},
			{
				"type": "unocc",
				"energy": -0.03743,
				"method": "rhf"
			},
			{
				"type": "unocc",
				"energy": -0.02697,
				"method": "rhf"
			},
			{
				"type": "unocc",
				"energy": -0.02411,
				"method": "rhf"
			}
		],
		"cosmo_sigma_profile": { 
			"-0.025": 0.0,
			"-0.024": 0.0,
			"-0.023": 0.0,
			"-0.022": 0.0,
			"-0.021": 0.0,
			"-0.02": 0.0,
			"-0.019": 0.30175658413,
			"-0.018": 1.24073734523,
			"-0.017": 0.603375906306,
			"-0.016": 0.741118868354,
			"-0.015": 0.900064368859,
			"-0.014": 1.10360477584,
			"-0.013": 0.610940562385,
			"-0.012": 0.112004210242,
			"-0.011": 0.824575669721,
			"-0.01": 0.639852701177,
			"-0.009": 0.958220176409,
			"-0.008": 7.55351245247,
			"-0.007": 14.3169009951,
			"-0.006": 13.2323639369,
			"-0.005": 13.1609181714,
			"-0.004": 14.2297260818,
			"-0.003": 19.9231757203,
			"-0.002": 23.2413516891,
			"-0.001": 28.2152034939,
			"0.0": 25.4940015366,
			"0.001": 25.5496201299,
			"0.002": 23.7821624585,
			"0.003": 20.2638298154,
			"0.004": 17.1792375089,
			"0.005": 11.9381125218,
			"0.006": 8.70435919422,
			"0.007": 10.7154328677,
			"0.008": 8.50278048061,
			"0.009": 5.61041035755,
			"0.01": 3.1816826238,
			"0.011": 4.66703011964,
			"0.012": 1.20665288169,
			"0.013": 0.0,
			"0.014": 0.0,
			"0.015": 0.0,
			"0.016": 0.0,
			"0.017": 0.0,
			"0.018": 0.0,
			"0.019": 0.0,
			"0.02": 0.0,
			"0.021": 0.0,
			"0.022": 0.0,
			"0.023": 0.0,
			"0.024": 0.0,
			"0.025": 0.0
		}
	}
}
