{
	 "smiles": "ClC(=O)C1=CC=CC2=C1SC=C2", 
	 "Tm": 358.15, 
	 "num_atms": 17, 
	 "gaussian": { 
		 "optdone": 1, 
		 "sigma_profile": "yes", 
		 "theory": "DFT", 
		 "functional": "B3LYP", 
		 "basiset": "6-31G**", 
		 "properties": { 
			 "R2extent": 2800.9739, 
			 "electric_dipole_moment_norm": 4.60164974764, 
			 "electric_quadrupole_moment_norm": 8.01011020149, 
			 "total_energy": -1279.57739822, 
			 "HOMO_LUMO_gap": 0.15722, 
			 "cosmo_polarized_energy": -7.12, 
			 "cosmo_cavitation_energy": 24.5, 
			 "cosmo_dispersion_energy": -19.09, 
			 "cosmo_repulsion_energy": 1.44, 
			 "cosmo_total_nonelectrostatic_energy": 6.85, 
			 "SMD_solvation_energy": 4.66 
		},
		"coords": [
			{
				"x": -0.3353791228,
				"y": 3.380206803,
				"z": -0.5899356222,
				"element": "Cl" 
			},
			{
				"x": 0.6821075299,
				"y": 1.9069341359,
				"z": -0.9361532921,
				"element": "C" 
			},
			{
				"x": 1.741468173,
				"y": 2.0722685819,
				"z": -1.466316041,
				"element": "O" 
			},
			{
				"x": 0.1143376494,
				"y": 0.5980080705,
				"z": -0.5302333867,
				"element": "C" 
			},
			{
				"x": 0.9491590377,
				"y": -0.4936154615,
				"z": -0.8263385867,
				"element": "C" 
			},
			{
				"x": 0.5872636156,
				"y": -1.8061122181,
				"z": -0.5199841708,
				"element": "C" 
			},
			{
				"x": -0.6294499574,
				"y": -2.064299096,
				"z": 0.0959145552,
				"element": "C" 
			},
			{
				"x": -1.4949207851,
				"y": -1.0048230456,
				"z": 0.4100903406,
				"element": "C" 
			},
			{
				"x": -1.1284959512,
				"y": 0.3376877038,
				"z": 0.0985367415,
				"element": "C" 
			},
			{
				"x": -2.4017022914,
				"y": 1.4381493062,
				"z": 0.6063632008,
				"element": "S" 
			},
			{
				"x": -3.3691479553,
				"y": 0.112579929,
				"z": 1.2077464352,
				"element": "C" 
			},
			{
				"x": -2.7834038362,
				"y": -1.0975375002,
				"z": 1.0442969688,
				"element": "C" 
			},
			{
				"x": 1.89740629,
				"y": -0.2841000721,
				"z": -1.307160292,
				"element": "H" 
			},
			{
				"x": 1.2614035416,
				"y": -2.6201783285,
				"z": -0.7658151596,
				"element": "H" 
			},
			{
				"x": -0.9219369565,
				"y": -3.0819290652,
				"z": 0.3392302918,
				"element": "H" 
			},
			{
				"x": -4.3311941486,
				"y": 0.3304701485,
				"z": 1.6526234961,
				"element": "H" 
			},
			{
				"x": -3.2273148329,
				"y": -2.0369098916,
				"z": 1.3532345211,
				"element": "H" 
			}
		],
		 "valence_orbital": [ 
			{
				"type": "occ",
				"energy": -0.31389,
				"method": "rhf"
			},
			{
				"type": "occ",
				"energy": -0.30152,
				"method": "rhf"
			},
			{
				"type": "occ",
				"energy": -0.29248,
				"method": "rhf"
			},
			{
				"type": "occ",
				"energy": -0.25578,
				"method": "rhf"
			},
			{
				"type": "occ",
				"energy": -0.23731,
				"method": "rhf"
			},
			{
				"type": "unocc",
				"energy": -0.08009,
				"method": "rhf"
			},
			{
				"type": "unocc",
				"energy": -0.03285,
				"method": "rhf"
			},
			{
				"type": "unocc",
				"energy": 0.00725,
				"method": "rhf"
			},
			{
				"type": "unocc",
				"energy": 0.01789,
				"method": "rhf"
			},
			{
				"type": "unocc",
				"energy": 0.02356,
				"method": "rhf"
			}
		],
		"cosmo_sigma_profile": { 
			"-0.025": 0.0,
			"-0.024": 0.0,
			"-0.023": 0.0,
			"-0.022": 0.0,
			"-0.021": 0.0,
			"-0.02": 0.0,
			"-0.019": 0.0,
			"-0.018": 0.0,
			"-0.017": 0.0,
			"-0.016": 0.0,
			"-0.015": 0.0,
			"-0.014": 0.0,
			"-0.013": 0.0,
			"-0.012": 0.0,
			"-0.011": 0.0,
			"-0.01": 0.0502388505573,
			"-0.009": 1.77733819757,
			"-0.008": 4.01490998502,
			"-0.007": 10.3481203151,
			"-0.006": 9.62887461038,
			"-0.005": 10.0462970674,
			"-0.004": 10.9449609541,
			"-0.003": 9.78619250872,
			"-0.002": 10.7734408216,
			"-0.001": 13.7740679386,
			"0.0": 14.6323982366,
			"0.001": 22.4466605752,
			"0.002": 27.3529088018,
			"0.003": 20.5589346292,
			"0.004": 17.1111612182,
			"0.005": 6.58873257603,
			"0.006": 2.17890470746,
			"0.007": 2.26854951132,
			"0.008": 3.78891382048,
			"0.009": 3.43089361362,
			"0.01": 0.672469897984,
			"0.011": 0.0,
			"0.012": 0.0,
			"0.013": 0.0,
			"0.014": 0.0,
			"0.015": 0.0,
			"0.016": 0.0,
			"0.017": 0.0,
			"0.018": 0.0,
			"0.019": 0.0,
			"0.02": 0.0,
			"0.021": 0.0,
			"0.022": 0.0,
			"0.023": 0.0,
			"0.024": 0.0,
			"0.025": 0.0
		}
	}
}
