{
	 "smiles": "OC(=O)CCN1C(=O)COC2=C1C=CC(Br)=C2", 
	 "Tm": 427.15, 
	 "num_atms": 27, 
	 "gaussian": { 
		 "optdone": 1, 
		 "sigma_profile": "yes", 
		 "theory": "DFT", 
		 "functional": "B3LYP", 
		 "basiset": "6-31G**", 
		 "properties": { 
			 "R2extent": 9293.1171, 
			 "electric_dipole_moment_norm": 5.09418262531, 
			 "electric_quadrupole_moment_norm": 29.7241257451, 
			 "total_energy": -3352.26436817, 
			 "HOMO_LUMO_gap": 0.18942, 
			 "cosmo_polarized_energy": -18.96, 
			 "cosmo_cavitation_energy": 32.98, 
			 "cosmo_dispersion_energy": -24.7, 
			 "cosmo_repulsion_energy": 1.89, 
			 "cosmo_total_nonelectrostatic_energy": 10.16, 
			 "SMD_solvation_energy": 5.93 
		},
		"coords": [
			{
				"x": 2.2347544913,
				"y": -2.9713209901,
				"z": 0.8302173359,
				"element": "O" 
			},
			{
				"x": 1.0772765975,
				"y": -2.9916690086,
				"z": 0.1493854124,
				"element": "C" 
			},
			{
				"x": 0.6649542893,
				"y": -4.0007546508,
				"z": -0.3725017223,
				"element": "O" 
			},
			{
				"x": 0.3073457477,
				"y": -1.6657067911,
				"z": 0.0878572232,
				"element": "C" 
			},
			{
				"x": 1.1632986216,
				"y": -0.4527315353,
				"z": -0.3617762461,
				"element": "C" 
			},
			{
				"x": 1.1848744312,
				"y": 0.6599084543,
				"z": 0.6008575289,
				"element": "N" 
			},
			{
				"x": 2.0073194939,
				"y": 0.5400702304,
				"z": 1.6818442031,
				"element": "C" 
			},
			{
				"x": 2.6707264873,
				"y": -0.47300624,
				"z": 1.9170913511,
				"element": "O" 
			},
			{
				"x": 2.0414758291,
				"y": 1.729041667,
				"z": 2.6270130751,
				"element": "C" 
			},
			{
				"x": 1.8111981151,
				"y": 2.9730097237,
				"z": 1.970445293,
				"element": "O" 
			},
			{
				"x": 0.7143389749,
				"y": 2.971797945,
				"z": 1.1523411391,
				"element": "C" 
			},
			{
				"x": 0.3590403765,
				"y": 1.8056637006,
				"z": 0.4503636294,
				"element": "C" 
			},
			{
				"x": -0.7650241074,
				"y": 1.8332216052,
				"z": -0.3788932437,
				"element": "C" 
			},
			{
				"x": -1.4999818528,
				"y": 3.0087655875,
				"z": -0.5411037594,
				"element": "C" 
			},
			{
				"x": -1.1098790276,
				"y": 4.158379273,
				"z": 0.1413469469,
				"element": "C" 
			},
			{
				"x": -2.1061548362,
				"y": 5.7693605935,
				"z": -0.0779919,
				"element": "Br" 
			},
			{
				"x": -0.0113547311,
				"y": 4.1487508423,
				"z": 0.9991247911,
				"element": "C" 
			},
			{
				"x": 2.4108547983,
				"y": -2.0917726602,
				"z": 1.2371168346,
				"element": "H" 
			},
			{
				"x": -0.1022799694,
				"y": -1.469976811,
				"z": 1.085755466,
				"element": "H" 
			},
			{
				"x": -0.5385179512,
				"y": -1.8266148984,
				"z": -0.5825391893,
				"element": "H" 
			},
			{
				"x": 2.2024815036,
				"y": -0.7544669983,
				"z": -0.5100404318,
				"element": "H" 
			},
			{
				"x": 0.8092185104,
				"y": -0.0538606022,
				"z": -1.3120378501,
				"element": "H" 
			},
			{
				"x": 1.300663431,
				"y": 1.570112191,
				"z": 3.4260924591,
				"element": "H" 
			},
			{
				"x": 3.0333156813,
				"y": 1.7786582767,
				"z": 3.0759837976,
				"element": "H" 
			},
			{
				"x": -1.0804000603,
				"y": 0.9395416369,
				"z": -0.9052707222,
				"element": "H" 
			},
			{
				"x": -2.3665454967,
				"y": 3.0235750861,
				"z": -1.1907353718,
				"element": "H" 
			},
			{
				"x": 0.2944006526,
				"y": 5.0324243726,
				"z": 1.5455539504,
				"element": "H" 
			}
		],
		 "valence_orbital": [ 
			{
				"type": "occ",
				"energy": -0.3001,
				"method": "rhf"
			},
			{
				"type": "occ",
				"energy": -0.29773,
				"method": "rhf"
			},
			{
				"type": "occ",
				"energy": -0.26918,
				"method": "rhf"
			},
			{
				"type": "occ",
				"energy": -0.25913,
				"method": "rhf"
			},
			{
				"type": "occ",
				"energy": -0.23966,
				"method": "rhf"
			},
			{
				"type": "unocc",
				"energy": -0.05024,
				"method": "rhf"
			},
			{
				"type": "unocc",
				"energy": -0.03433,
				"method": "rhf"
			},
			{
				"type": "unocc",
				"energy": -0.00939,
				"method": "rhf"
			},
			{
				"type": "unocc",
				"energy": -0.00634,
				"method": "rhf"
			},
			{
				"type": "unocc",
				"energy": 0.01587,
				"method": "rhf"
			}
		],
		"cosmo_sigma_profile": { 
			"-0.025": 0.0,
			"-0.024": 0.0,
			"-0.023": 0.0,
			"-0.022": 0.0,
			"-0.021": 0.0,
			"-0.02": 0.0,
			"-0.019": 0.0,
			"-0.018": 0.0,
			"-0.017": 0.0,
			"-0.016": 0.0,
			"-0.015": 0.0,
			"-0.014": 0.0,
			"-0.013": 0.0,
			"-0.012": 0.0,
			"-0.011": 0.0,
			"-0.01": 0.314732173311,
			"-0.009": 4.47938009554,
			"-0.008": 13.2106719044,
			"-0.007": 19.3464876348,
			"-0.006": 19.0904763327,
			"-0.005": 17.846404652,
			"-0.004": 16.5104804013,
			"-0.003": 13.5696067687,
			"-0.002": 13.9596510156,
			"-0.001": 11.762815396,
			"0.0": 14.2788569306,
			"0.001": 17.4806869093,
			"0.002": 22.1394399392,
			"0.003": 16.8027892784,
			"0.004": 15.6516064263,
			"0.005": 8.70892687398,
			"0.006": 4.42764644075,
			"0.007": 3.43788194861,
			"0.008": 4.79964975482,
			"0.009": 5.48275594996,
			"0.01": 4.83141278804,
			"0.011": 6.46174382252,
			"0.012": 6.94485500596,
			"0.013": 4.31880391481,
			"0.014": 0.990528552162,
			"0.015": 0.0,
			"0.016": 0.0,
			"0.017": 0.0,
			"0.018": 0.0,
			"0.019": 0.0,
			"0.02": 0.0,
			"0.021": 0.0,
			"0.022": 0.0,
			"0.023": 0.0,
			"0.024": 0.0,
			"0.025": 0.0
		}
	}
}
