{
	 "smiles": "CCN1C2=C(C=CC=C2)C2=C1C=CC(CNCCCO)=C2", 
	 "Tm": 350.15, 
	 "num_atms": 43, 
	 "gaussian": { 
		 "optdone": 1, 
		 "sigma_profile": "yes", 
		 "theory": "DFT", 
		 "functional": "B3LYP", 
		 "basiset": "6-31G**", 
		 "properties": { 
			 "R2extent": 7882.5291, 
			 "electric_dipole_moment_norm": 2.00860473961, 
			 "electric_quadrupole_moment_norm": 16.6459228624, 
			 "total_energy": -883.91574051, 
			 "HOMO_LUMO_gap": 0.16778, 
			 "cosmo_polarized_energy": -13.39, 
			 "cosmo_cavitation_energy": 44.54, 
			 "cosmo_dispersion_energy": -30.23, 
			 "cosmo_repulsion_energy": 2.34, 
			 "cosmo_total_nonelectrostatic_energy": 16.65, 
			 "SMD_solvation_energy": 5.5 
		},
		"coords": [
			{
				"x": 2.379083185,
				"y": 2.1633112154,
				"z": 4.1230442774,
				"element": "C" 
			},
			{
				"x": 2.7553583839,
				"y": 2.2705660436,
				"z": 2.6406991685,
				"element": "C" 
			},
			{
				"x": 1.6922344331,
				"y": 1.8563807906,
				"z": 1.740508007,
				"element": "N" 
			},
			{
				"x": 0.6777529849,
				"y": 2.6737903705,
				"z": 1.2519256223,
				"element": "C" 
			},
			{
				"x": -0.2095140835,
				"y": 1.8934429122,
				"z": 0.4619530971,
				"element": "C" 
			},
			{
				"x": -1.3075824018,
				"y": 2.5067383006,
				"z": -0.1511612843,
				"element": "C" 
			},
			{
				"x": -1.5114576876,
				"y": 3.8727500818,
				"z": 0.0288895617,
				"element": "C" 
			},
			{
				"x": -0.6275972092,
				"y": 4.6297237971,
				"z": 0.8169457177,
				"element": "C" 
			},
			{
				"x": 0.4740077602,
				"y": 4.044868231,
				"z": 1.439411578,
				"element": "C" 
			},
			{
				"x": 0.2935592555,
				"y": 0.5349862938,
				"z": 0.4932249944,
				"element": "C" 
			},
			{
				"x": 1.4623903429,
				"y": 0.5554948621,
				"z": 1.3021441299,
				"element": "C" 
			},
			{
				"x": 2.1934893968,
				"y": -0.6100054654,
				"z": 1.5428630596,
				"element": "C" 
			},
			{
				"x": 1.7433837588,
				"y": -1.79284745,
				"z": 0.9562889884,
				"element": "C" 
			},
			{
				"x": 0.5912663342,
				"y": -1.8405022296,
				"z": 0.1487207194,
				"element": "C" 
			},
			{
				"x": 0.1065464425,
				"y": -3.1630370334,
				"z": -0.424997731,
				"element": "C" 
			},
			{
				"x": -0.2495757502,
				"y": -3.1091807469,
				"z": -1.8459914125,
				"element": "N" 
			},
			{
				"x": 0.8569555361,
				"y": -3.3312952257,
				"z": -2.7858012126,
				"element": "C" 
			},
			{
				"x": 1.6605640988,
				"y": -2.062207501,
				"z": -3.1043987298,
				"element": "C" 
			},
			{
				"x": 0.8478710285,
				"y": -1.0140070454,
				"z": -3.8523472623,
				"element": "C" 
			},
			{
				"x": 0.4963472246,
				"y": -1.5550733932,
				"z": -5.1270985885,
				"element": "O" 
			},
			{
				"x": -0.1323035511,
				"y": -0.6665538083,
				"z": -0.0783213431,
				"element": "C" 
			},
			{
				"x": 2.127831968,
				"y": 1.1318934731,
				"z": 4.3869940458,
				"element": "H" 
			},
			{
				"x": 1.5133524289,
				"y": 2.7918127579,
				"z": 4.351371512,
				"element": "H" 
			},
			{
				"x": 3.2145005418,
				"y": 2.4860795473,
				"z": 4.7532112449,
				"element": "H" 
			},
			{
				"x": 3.6365249846,
				"y": 1.6576191689,
				"z": 2.4242999074,
				"element": "H" 
			},
			{
				"x": 3.0277031029,
				"y": 3.3006525758,
				"z": 2.3884126568,
				"element": "H" 
			},
			{
				"x": -1.993488302,
				"y": 1.922660604,
				"z": -0.7586507521,
				"element": "H" 
			},
			{
				"x": -2.3610832708,
				"y": 4.3591799993,
				"z": -0.4407046876,
				"element": "H" 
			},
			{
				"x": -0.8061058621,
				"y": 5.6932247072,
				"z": 0.9480677031,
				"element": "H" 
			},
			{
				"x": 1.1439944369,
				"y": 4.6414126444,
				"z": 2.0506827331,
				"element": "H" 
			},
			{
				"x": 3.0853656061,
				"y": -0.6075527677,
				"z": 2.1617397606,
				"element": "H" 
			},
			{
				"x": 2.3018644782,
				"y": -2.7099423654,
				"z": 1.1282502598,
				"element": "H" 
			},
			{
				"x": 0.8665937197,
				"y": -3.9387989385,
				"z": -0.217135441,
				"element": "H" 
			},
			{
				"x": -0.7973723186,
				"y": -3.466785164,
				"z": 0.1200804978,
				"element": "H" 
			},
			{
				"x": -0.970184307,
				"y": -3.7997060116,
				"z": -2.0247416732,
				"element": "H" 
			},
			{
				"x": 0.4269951725,
				"y": -3.6957665117,
				"z": -3.7239630708,
				"element": "H" 
			},
			{
				"x": 1.5494290153,
				"y": -4.1108236053,
				"z": -2.4178739276,
				"element": "H" 
			},
			{
				"x": 2.0541664617,
				"y": -1.6167753575,
				"z": -2.1850538741,
				"element": "H" 
			},
			{
				"x": 2.5222032666,
				"y": -2.3432812805,
				"z": -3.7232995737,
				"element": "H" 
			},
			{
				"x": -0.048053722,
				"y": -0.7670026711,
				"z": -3.2664107364,
				"element": "H" 
			},
			{
				"x": 1.4436759216,
				"y": -0.0945667839,
				"z": -3.96731301,
				"element": "H" 
			},
			{
				"x": -0.1472485941,
				"y": -0.9631460838,
				"z": -5.5340983666,
				"element": "H" 
			},
			{
				"x": -1.0160442107,
				"y": -0.7030309366,
				"z": -0.7088665653,
				"element": "H" 
			}
		],
		 "valence_orbital": [ 
			{
				"type": "occ",
				"energy": -0.25234,
				"method": "rhf"
			},
			{
				"type": "occ",
				"energy": -0.24296,
				"method": "rhf"
			},
			{
				"type": "occ",
				"energy": -0.21727,
				"method": "rhf"
			},
			{
				"type": "occ",
				"energy": -0.20715,
				"method": "rhf"
			},
			{
				"type": "occ",
				"energy": -0.19133,
				"method": "rhf"
			},
			{
				"type": "unocc",
				"energy": -0.02355,
				"method": "rhf"
			},
			{
				"type": "unocc",
				"energy": 0.0091,
				"method": "rhf"
			},
			{
				"type": "unocc",
				"energy": 0.0315,
				"method": "rhf"
			},
			{
				"type": "unocc",
				"energy": 0.04693,
				"method": "rhf"
			},
			{
				"type": "unocc",
				"energy": 0.08123,
				"method": "rhf"
			}
		],
		"cosmo_sigma_profile": { 
			"-0.025": 0.0,
			"-0.024": 0.0,
			"-0.023": 0.0,
			"-0.022": 0.0,
			"-0.021": 0.0,
			"-0.02": 0.0,
			"-0.019": 0.0,
			"-0.018": 0.0,
			"-0.017": 0.0,
			"-0.016": 0.0465941323923,
			"-0.015": 0.835338667241,
			"-0.014": 1.06806225721,
			"-0.013": 1.31702047633,
			"-0.012": 0.49498251341,
			"-0.011": 0.854777033371,
			"-0.01": 2.00677285862,
			"-0.009": 1.62648683807,
			"-0.008": 2.48075249601,
			"-0.007": 2.93220042283,
			"-0.006": 9.68757318373,
			"-0.005": 19.0883763131,
			"-0.004": 25.3736553431,
			"-0.003": 34.8111417579,
			"-0.002": 36.8467514631,
			"-0.001": 37.0553838725,
			"0.0": 34.5424468471,
			"0.001": 26.5761734002,
			"0.002": 16.1372667673,
			"0.003": 18.2017668225,
			"0.004": 18.0165058025,
			"0.005": 21.4305525556,
			"0.006": 15.7773953752,
			"0.007": 7.36133528801,
			"0.008": 2.95780722198,
			"0.009": 3.35194727056,
			"0.01": 1.67408165904,
			"0.011": 2.06200220963,
			"0.012": 1.52690395185,
			"0.013": 1.7042619551,
			"0.014": 1.15244390256,
			"0.015": 0.843190347495,
			"0.016": 0.0177195574942,
			"0.017": 0.0,
			"0.018": 0.0,
			"0.019": 0.0,
			"0.02": 0.0,
			"0.021": 0.0,
			"0.022": 0.0,
			"0.023": 0.0,
			"0.024": 0.0,
			"0.025": 0.0
		}
	}
}
