{
	 "smiles": "BrCC1CCN(CC1)C(=O)OCC1=CC=CC=C1", 
	 "Tm": 341.15, 
	 "num_atms": 36, 
	 "gaussian": { 
		 "optdone": 1, 
		 "sigma_profile": "yes", 
		 "theory": "DFT", 
		 "functional": "B3LYP", 
		 "basiset": "6-31G**", 
		 "properties": { 
			 "R2extent": 10474.8643, 
			 "electric_dipole_moment_norm": 0.634534396231, 
			 "electric_quadrupole_moment_norm": 16.4084632431, 
			 "total_energy": -3320.97780586, 
			 "HOMO_LUMO_gap": 0.23024, 
			 "cosmo_polarized_energy": -11.65, 
			 "cosmo_cavitation_energy": 39.64, 
			 "cosmo_dispersion_energy": -28.58, 
			 "cosmo_repulsion_energy": 2.24, 
			 "cosmo_total_nonelectrostatic_energy": 13.3, 
			 "SMD_solvation_energy": 5.4 
		},
		"coords": [
			{
				"x": 0.9336888469,
				"y": 0.603706985,
				"z": 5.9652546009,
				"element": "Br" 
			},
			{
				"x": 0.0353769749,
				"y": 1.7673882881,
				"z": 4.6298392093,
				"element": "C" 
			},
			{
				"x": -0.706251056,
				"y": 0.970294871,
				"z": 3.5543972151,
				"element": "C" 
			},
			{
				"x": 0.2143279176,
				"y": 0.1089671681,
				"z": 2.6665737009,
				"element": "C" 
			},
			{
				"x": 1.0540402596,
				"y": 0.9421530697,
				"z": 1.6886456913,
				"element": "C" 
			},
			{
				"x": 0.2006987371,
				"y": 1.8391317285,
				"z": 0.9077694391,
				"element": "N" 
			},
			{
				"x": -0.6654995415,
				"y": 2.7278166388,
				"z": 1.6784252308,
				"element": "C" 
			},
			{
				"x": -1.5328255747,
				"y": 1.9259361198,
				"z": 2.6581681005,
				"element": "C" 
			},
			{
				"x": 0.2666101469,
				"y": 1.9921285078,
				"z": -0.4491746602,
				"element": "C" 
			},
			{
				"x": -0.4086388489,
				"y": 2.7872004497,
				"z": -1.0898013001,
				"element": "O" 
			},
			{
				"x": 1.1767281826,
				"y": 1.1476156576,
				"z": -1.006909188,
				"element": "O" 
			},
			{
				"x": 1.2760518519,
				"y": 1.186033021,
				"z": -2.4538777435,
				"element": "C" 
			},
			{
				"x": 0.3761402543,
				"y": 0.1668484584,
				"z": -3.1097404262,
				"element": "C" 
			},
			{
				"x": -0.9766953002,
				"y": 0.4555943024,
				"z": -3.3419911773,
				"element": "C" 
			},
			{
				"x": -1.8064079858,
				"y": -0.4925556936,
				"z": -3.9402897727,
				"element": "C" 
			},
			{
				"x": -1.2955236796,
				"y": -1.7377298485,
				"z": -4.3154612731,
				"element": "C" 
			},
			{
				"x": 0.0498122948,
				"y": -2.0326370657,
				"z": -4.0887693487,
				"element": "C" 
			},
			{
				"x": 0.8788526167,
				"y": -1.0838774532,
				"z": -3.4880590834,
				"element": "C" 
			},
			{
				"x": -0.6506934694,
				"y": 2.3791676143,
				"z": 5.2156352802,
				"element": "H" 
			},
			{
				"x": 0.8298383824,
				"y": 2.4002551649,
				"z": 4.2359141111,
				"element": "H" 
			},
			{
				"x": -1.4040056977,
				"y": 0.3047071753,
				"z": 4.0756595147,
				"element": "H" 
			},
			{
				"x": -0.4101494033,
				"y": -0.5801039281,
				"z": 2.0860345775,
				"element": "H" 
			},
			{
				"x": 0.8776301077,
				"y": -0.4990393575,
				"z": 3.2898273917,
				"element": "H" 
			},
			{
				"x": 1.8019541395,
				"y": 1.5375460268,
				"z": 2.2353119518,
				"element": "H" 
			},
			{
				"x": 1.5966926997,
				"y": 0.292346924,
				"z": 1.0053182097,
				"element": "H" 
			},
			{
				"x": -0.0471093554,
				"y": 3.4596210392,
				"z": 2.2213718613,
				"element": "H" 
			},
			{
				"x": -1.2819303564,
				"y": 3.2826841031,
				"z": 0.9715184755,
				"element": "H" 
			},
			{
				"x": -2.1235654296,
				"y": 2.6181791279,
				"z": 3.2705232113,
				"element": "H" 
			},
			{
				"x": -2.2436276637,
				"y": 1.3234980735,
				"z": 2.0803896729,
				"element": "H" 
			},
			{
				"x": 1.0400930186,
				"y": 2.1977609379,
				"z": -2.7879954074,
				"element": "H" 
			},
			{
				"x": 2.3261914578,
				"y": 0.9655251627,
				"z": -2.6587359978,
				"element": "H" 
			},
			{
				"x": -1.3674011277,
				"y": 1.422588437,
				"z": -3.0404958562,
				"element": "H" 
			},
			{
				"x": -2.8522861947,
				"y": -0.2583686952,
				"z": -4.1183529852,
				"element": "H" 
			},
			{
				"x": -1.942562608,
				"y": -2.4733264171,
				"z": -4.7851101062,
				"element": "H" 
			},
			{
				"x": 0.4536170102,
				"y": -2.9979969985,
				"z": -4.380729255,
				"element": "H" 
			},
			{
				"x": 1.9273283931,
				"y": -1.3144595948,
				"z": -3.3139838645,
				"element": "H" 
			}
		],
		 "valence_orbital": [ 
			{
				"type": "occ",
				"energy": -0.27351,
				"method": "rhf"
			},
			{
				"type": "occ",
				"energy": -0.26879,
				"method": "rhf"
			},
			{
				"type": "occ",
				"energy": -0.24942,
				"method": "rhf"
			},
			{
				"type": "occ",
				"energy": -0.24753,
				"method": "rhf"
			},
			{
				"type": "occ",
				"energy": -0.23888,
				"method": "rhf"
			},
			{
				"type": "unocc",
				"energy": -0.00864,
				"method": "rhf"
			},
			{
				"type": "unocc",
				"energy": -0.00307,
				"method": "rhf"
			},
			{
				"type": "unocc",
				"energy": -0.00034,
				"method": "rhf"
			},
			{
				"type": "unocc",
				"energy": 0.0501,
				"method": "rhf"
			},
			{
				"type": "unocc",
				"energy": 0.08102,
				"method": "rhf"
			}
		],
		"cosmo_sigma_profile": { 
			"-0.025": 0.0,
			"-0.024": 0.0,
			"-0.023": 0.0,
			"-0.022": 0.0,
			"-0.021": 0.0,
			"-0.02": 0.0,
			"-0.019": 0.0,
			"-0.018": 0.0,
			"-0.017": 0.0,
			"-0.016": 0.0,
			"-0.015": 0.0,
			"-0.014": 0.0,
			"-0.013": 0.0,
			"-0.012": 0.0,
			"-0.011": 0.0,
			"-0.01": 0.0,
			"-0.009": 0.0135876423689,
			"-0.008": 0.372701098532,
			"-0.007": 4.1859467584,
			"-0.006": 14.7497612198,
			"-0.005": 21.0850235195,
			"-0.004": 30.1681414198,
			"-0.003": 38.9840911534,
			"-0.002": 32.1975644978,
			"-0.001": 26.0199863264,
			"0.0": 22.3896398396,
			"0.001": 17.8932351976,
			"0.002": 17.1763943579,
			"0.003": 15.9686829683,
			"0.004": 17.3687322949,
			"0.005": 21.5798142024,
			"0.006": 17.988119006,
			"0.007": 6.18592004675,
			"0.008": 1.28105197729,
			"0.009": 0.983598114336,
			"0.01": 1.4543939358,
			"0.011": 1.43636475418,
			"0.012": 1.82008690356,
			"0.013": 2.92142321411,
			"0.014": 1.17168115816,
			"0.015": 0.0,
			"0.016": 0.0,
			"0.017": 0.0,
			"0.018": 0.0,
			"0.019": 0.0,
			"0.02": 0.0,
			"0.021": 0.0,
			"0.022": 0.0,
			"0.023": 0.0,
			"0.024": 0.0,
			"0.025": 0.0
		}
	}
}
