{
	 "smiles": "CC(C(O)=O)C1=CC(C)=CC=C1", 
	 "Tm": 335.15, 
	 "num_atms": 24, 
	 "gaussian": { 
		 "optdone": 1, 
		 "sigma_profile": "yes", 
		 "theory": "DFT", 
		 "functional": "B3LYP", 
		 "basiset": "6-31G**", 
		 "properties": { 
			 "R2extent": 2471.1748, 
			 "electric_dipole_moment_norm": 4.94432709476, 
			 "electric_quadrupole_moment_norm": 12.0197882852, 
			 "total_energy": -538.767664156, 
			 "HOMO_LUMO_gap": 0.22868, 
			 "cosmo_polarized_energy": -12.13, 
			 "cosmo_cavitation_energy": 27.33, 
			 "cosmo_dispersion_energy": -19.35, 
			 "cosmo_repulsion_energy": 1.56, 
			 "cosmo_total_nonelectrostatic_energy": 9.55, 
			 "SMD_solvation_energy": 5.9 
		},
		"coords": [
			{
				"x": -0.9036009695,
				"y": -2.3676804635,
				"z": -2.0606161831,
				"element": "C" 
			},
			{
				"x": -0.2168545742,
				"y": -1.9847792208,
				"z": -0.7420018879,
				"element": "C" 
			},
			{
				"x": -1.0569507405,
				"y": -2.4539255532,
				"z": 0.4629429921,
				"element": "C" 
			},
			{
				"x": -0.7063195319,
				"y": -1.9260743111,
				"z": 1.6615283728,
				"element": "O" 
			},
			{
				"x": -1.9396243713,
				"y": -3.2728608838,
				"z": 0.3908518585,
				"element": "O" 
			},
			{
				"x": 0.1491759827,
				"y": -0.5087097172,
				"z": -0.6533358731,
				"element": "C" 
			},
			{
				"x": 1.4870058604,
				"y": -0.1109820495,
				"z": -0.5312580968,
				"element": "C" 
			},
			{
				"x": 1.8559103816,
				"y": 1.2398919266,
				"z": -0.4502287491,
				"element": "C" 
			},
			{
				"x": 3.3102079582,
				"y": 1.6386090232,
				"z": -0.358680839,
				"element": "C" 
			},
			{
				"x": 0.8428722051,
				"y": 2.2046934171,
				"z": -0.483121715,
				"element": "C" 
			},
			{
				"x": -0.4968048102,
				"y": 1.8276113007,
				"z": -0.5984655929,
				"element": "C" 
			},
			{
				"x": -0.8457996022,
				"y": 0.4817003978,
				"z": -0.6831510674,
				"element": "C" 
			},
			{
				"x": -0.2516113198,
				"y": -2.137986842,
				"z": -2.9077193593,
				"element": "H" 
			},
			{
				"x": -1.1405180569,
				"y": -3.4332286068,
				"z": -2.0655946405,
				"element": "H" 
			},
			{
				"x": -1.8410257383,
				"y": -1.8199029681,
				"z": -2.1902377955,
				"element": "H" 
			},
			{
				"x": 0.7180914203,
				"y": -2.5590693379,
				"z": -0.6641774895,
				"element": "H" 
			},
			{
				"x": -0.0445164943,
				"y": -1.2296061723,
				"z": 1.5242854876,
				"element": "H" 
			},
			{
				"x": 2.2648008659,
				"y": -0.8724020595,
				"z": -0.5084623025,
				"element": "H" 
			},
			{
				"x": 3.432717875,
				"y": 2.5842528476,
				"z": 0.1774768906,
				"element": "H" 
			},
			{
				"x": 3.9041453044,
				"y": 0.8770927508,
				"z": 0.1556165684,
				"element": "H" 
			},
			{
				"x": 3.7461797068,
				"y": 1.771313889,
				"z": -1.3567002429,
				"element": "H" 
			},
			{
				"x": 1.1032265635,
				"y": 3.2578882354,
				"z": -0.4145858158,
				"element": "H" 
			},
			{
				"x": -1.2721978492,
				"y": 2.5881770053,
				"z": -0.6161402883,
				"element": "H" 
			},
			{
				"x": -1.8916100654,
				"y": 0.1976773921,
				"z": -0.7641242316,
				"element": "H" 
			}
		],
		 "valence_orbital": [ 
			{
				"type": "occ",
				"energy": -0.34218,
				"method": "rhf"
			},
			{
				"type": "occ",
				"energy": -0.30896,
				"method": "rhf"
			},
			{
				"type": "occ",
				"energy": -0.2753,
				"method": "rhf"
			},
			{
				"type": "occ",
				"energy": -0.25811,
				"method": "rhf"
			},
			{
				"type": "occ",
				"energy": -0.24775,
				"method": "rhf"
			},
			{
				"type": "unocc",
				"energy": -0.01907,
				"method": "rhf"
			},
			{
				"type": "unocc",
				"energy": -0.01669,
				"method": "rhf"
			},
			{
				"type": "unocc",
				"energy": 0.01455,
				"method": "rhf"
			},
			{
				"type": "unocc",
				"energy": 0.08286,
				"method": "rhf"
			},
			{
				"type": "unocc",
				"energy": 0.09196,
				"method": "rhf"
			}
		],
		"cosmo_sigma_profile": { 
			"-0.025": 0.0,
			"-0.024": 0.0,
			"-0.023": 0.0,
			"-0.022": 0.0,
			"-0.021": 0.0,
			"-0.02": 0.0,
			"-0.019": 0.0,
			"-0.018": 0.0,
			"-0.017": 0.0,
			"-0.016": 0.0,
			"-0.015": 0.156403011729,
			"-0.014": 0.668471951898,
			"-0.013": 0.462048900167,
			"-0.012": 0.560358628853,
			"-0.011": 1.53893508358,
			"-0.01": 1.50809401914,
			"-0.009": 0.900067208059,
			"-0.008": 1.41034973917,
			"-0.007": 5.12456640067,
			"-0.006": 10.0042302548,
			"-0.005": 12.5047103482,
			"-0.004": 20.9081100388,
			"-0.003": 19.6259491949,
			"-0.002": 19.1142879085,
			"-0.001": 19.6039787076,
			"0.0": 20.9065386176,
			"0.001": 14.8337907056,
			"0.002": 9.564580043,
			"0.003": 8.17632812998,
			"0.004": 8.41803079359,
			"0.005": 8.17736283308,
			"0.006": 5.27507097305,
			"0.007": 2.96151632307,
			"0.008": 2.20115490862,
			"0.009": 3.09123057205,
			"0.01": 4.83603149323,
			"0.011": 5.33439789822,
			"0.012": 5.52075051089,
			"0.013": 1.96847150459,
			"0.014": 0.102937002303,
			"0.015": 0.0,
			"0.016": 0.0,
			"0.017": 0.0,
			"0.018": 0.0,
			"0.019": 0.0,
			"0.02": 0.0,
			"0.021": 0.0,
			"0.022": 0.0,
			"0.023": 0.0,
			"0.024": 0.0,
			"0.025": 0.0
		}
	}
}
