{
	 "smiles": "ClC1=CC=C(C=C1)C(=O)C1=CSC=C1", 
	 "Tm": 366.15, 
	 "num_atms": 21, 
	 "gaussian": { 
		 "optdone": 1, 
		 "sigma_profile": "yes", 
		 "theory": "DFT", 
		 "functional": "B3LYP", 
		 "basiset": "6-31G**", 
		 "properties": { 
			 "R2extent": 6574.2764, 
			 "electric_dipole_moment_norm": 2.28612825756, 
			 "electric_quadrupole_moment_norm": 9.70871364909, 
			 "total_energy": -1356.97885216, 
			 "HOMO_LUMO_gap": 0.18146, 
			 "cosmo_polarized_energy": -9.03, 
			 "cosmo_cavitation_energy": 29.34, 
			 "cosmo_dispersion_energy": -22.11, 
			 "cosmo_repulsion_energy": 1.68, 
			 "cosmo_total_nonelectrostatic_energy": 8.91, 
			 "SMD_solvation_energy": 5.23 
		},
		"coords": [
			{
				"x": 4.3916827656,
				"y": -0.7074669206,
				"z": 0.8498565766,
				"element": "Cl" 
			},
			{
				"x": 2.6424625826,
				"y": -0.6860466832,
				"z": 0.9867090554,
				"element": "C" 
			},
			{
				"x": 1.9310823817,
				"y": -1.8776182848,
				"z": 0.8521104146,
				"element": "C" 
			},
			{
				"x": 0.5419474965,
				"y": -1.8560847764,
				"z": 0.974373563,
				"element": "C" 
			},
			{
				"x": -0.1378723633,
				"y": -0.6540513627,
				"z": 1.2207013767,
				"element": "C" 
			},
			{
				"x": 0.6015285901,
				"y": 0.535105204,
				"z": 1.3214738437,
				"element": "C" 
			},
			{
				"x": 1.9880267802,
				"y": 0.5262810533,
				"z": 1.2195145831,
				"element": "C" 
			},
			{
				"x": -1.6319628532,
				"y": -0.5523819315,
				"z": 1.3052300398,
				"element": "C" 
			},
			{
				"x": -2.1924517152,
				"y": 0.4891495037,
				"z": 0.9783312449,
				"element": "O" 
			},
			{
				"x": -2.4435025618,
				"y": -1.6972664076,
				"z": 1.7999087712,
				"element": "C" 
			},
			{
				"x": -2.0143113442,
				"y": -2.7205267075,
				"z": 2.617305434,
				"element": "C" 
			},
			{
				"x": -3.3056788666,
				"y": -3.776984952,
				"z": 3.0585507822,
				"element": "S" 
			},
			{
				"x": -4.4474942999,
				"y": -2.8457398169,
				"z": 2.1324289031,
				"element": "C" 
			},
			{
				"x": -3.8538623628,
				"y": -1.7745437149,
				"z": 1.5368194981,
				"element": "C" 
			},
			{
				"x": 2.4560074494,
				"y": -2.8041552199,
				"z": 0.6480707975,
				"element": "H" 
			},
			{
				"x": -0.0137637617,
				"y": -2.7781567668,
				"z": 0.843594724,
				"element": "H" 
			},
			{
				"x": 0.0660042217,
				"y": 1.4649893117,
				"z": 1.480590737,
				"element": "H" 
			},
			{
				"x": 2.5599133929,
				"y": 1.4428140773,
				"z": 1.3126747083,
				"element": "H" 
			},
			{
				"x": -1.0237061314,
				"y": -2.8857208586,
				"z": 3.0152394065,
				"element": "H" 
			},
			{
				"x": -5.4839421974,
				"y": -3.150617728,
				"z": 2.0914018268,
				"element": "H" 
			},
			{
				"x": -4.3692072029,
				"y": -1.0456770186,
				"z": 0.9243137134,
				"element": "H" 
			}
		],
		 "valence_orbital": [ 
			{
				"type": "occ",
				"energy": -0.27476,
				"method": "rhf"
			},
			{
				"type": "occ",
				"energy": -0.26738,
				"method": "rhf"
			},
			{
				"type": "occ",
				"energy": -0.26037,
				"method": "rhf"
			},
			{
				"type": "occ",
				"energy": -0.25282,
				"method": "rhf"
			},
			{
				"type": "occ",
				"energy": -0.2511,
				"method": "rhf"
			},
			{
				"type": "unocc",
				"energy": -0.06964,
				"method": "rhf"
			},
			{
				"type": "unocc",
				"energy": -0.03001,
				"method": "rhf"
			},
			{
				"type": "unocc",
				"energy": -0.02271,
				"method": "rhf"
			},
			{
				"type": "unocc",
				"energy": 0.01108,
				"method": "rhf"
			},
			{
				"type": "unocc",
				"energy": 0.01834,
				"method": "rhf"
			}
		],
		"cosmo_sigma_profile": { 
			"-0.025": 0.0,
			"-0.024": 0.0,
			"-0.023": 0.0,
			"-0.022": 0.0,
			"-0.021": 0.0,
			"-0.02": 0.0,
			"-0.019": 0.0,
			"-0.018": 0.0,
			"-0.017": 0.0,
			"-0.016": 0.0,
			"-0.015": 0.0,
			"-0.014": 0.0,
			"-0.013": 0.0,
			"-0.012": 0.0,
			"-0.011": 0.0,
			"-0.01": 0.144541331815,
			"-0.009": 2.65849529524,
			"-0.008": 5.66221600376,
			"-0.007": 9.85819087504,
			"-0.006": 13.3076236317,
			"-0.005": 12.496069692,
			"-0.004": 11.998988839,
			"-0.003": 13.9658524928,
			"-0.002": 14.9474227818,
			"-0.001": 16.2472283201,
			"0.0": 19.7976252788,
			"0.001": 24.5148837593,
			"0.002": 33.2267109761,
			"0.003": 23.8497974048,
			"0.004": 17.1576828318,
			"0.005": 4.76739840099,
			"0.006": 2.28542677537,
			"0.007": 1.78279482487,
			"0.008": 1.65922408492,
			"0.009": 1.73790033344,
			"0.01": 1.87475373051,
			"0.011": 3.21125998025,
			"0.012": 3.87737889488,
			"0.013": 0.406459029752,
			"0.014": 0.0,
			"0.015": 0.0,
			"0.016": 0.0,
			"0.017": 0.0,
			"0.018": 0.0,
			"0.019": 0.0,
			"0.02": 0.0,
			"0.021": 0.0,
			"0.022": 0.0,
			"0.023": 0.0,
			"0.024": 0.0,
			"0.025": 0.0
		}
	}
}
