{
	 "smiles": "CCC1(C(=O)NC(=O)N(C)C1=O)C1=CC=CC=C1", 
	 "Tm": 449.15, 
	 "num_atms": 32, 
	 "gaussian": { 
		 "optdone": 1, 
		 "sigma_profile": "yes", 
		 "theory": "DFT", 
		 "functional": "B3LYP", 
		 "basiset": "6-31G**", 
		 "properties": { 
			 "R2extent": 4340.4866, 
			 "electric_dipole_moment_norm": 1.44499985467, 
			 "electric_quadrupole_moment_norm": 11.8045301787, 
			 "total_energy": -839.049041705, 
			 "HOMO_LUMO_gap": 0.2031, 
			 "cosmo_polarized_energy": -13.1, 
			 "cosmo_cavitation_energy": 34.32, 
			 "cosmo_dispersion_energy": -23.97, 
			 "cosmo_repulsion_energy": 1.84, 
			 "cosmo_total_nonelectrostatic_energy": 12.18, 
			 "SMD_solvation_energy": 7.78 
		},
		"coords": [
			{
				"x": -0.2861258086,
				"y": -1.5403834805,
				"z": -2.7654613035,
				"element": "C" 
			},
			{
				"x": 0.5286524723,
				"y": -0.7971714827,
				"z": -1.7038768757,
				"element": "C" 
			},
			{
				"x": -0.2070851503,
				"y": -0.4496832416,
				"z": -0.3718180831,
				"element": "C" 
			},
			{
				"x": 0.615799496,
				"y": 0.6165914252,
				"z": 0.3703425639,
				"element": "C" 
			},
			{
				"x": 1.2729869814,
				"y": 1.47829802,
				"z": -0.1836845026,
				"element": "O" 
			},
			{
				"x": 0.5060594183,
				"y": 0.6011152364,
				"z": 1.7503898345,
				"element": "N" 
			},
			{
				"x": 0.0026334523,
				"y": -0.4102181136,
				"z": 2.5605720693,
				"element": "C" 
			},
			{
				"x": -0.0127727561,
				"y": -0.3013081751,
				"z": 3.7714631768,
				"element": "O" 
			},
			{
				"x": -0.426323676,
				"y": -1.5524122893,
				"z": 1.8803480158,
				"element": "N" 
			},
			{
				"x": -0.7995491521,
				"y": -2.7273798623,
				"z": 2.6793157813,
				"element": "C" 
			},
			{
				"x": -0.387124113,
				"y": -1.7081387698,
				"z": 0.4923985638,
				"element": "C" 
			},
			{
				"x": -0.5710685648,
				"y": -2.8126782311,
				"z": 0.0112462607,
				"element": "O" 
			},
			{
				"x": -1.6043963378,
				"y": 0.1781396118,
				"z": -0.642175884,
				"element": "C" 
			},
			{
				"x": -2.7867688518,
				"y": -0.5584347284,
				"z": -0.4855759386,
				"element": "C" 
			},
			{
				"x": -4.0260360664,
				"y": 0.0170437393,
				"z": -0.7724335198,
				"element": "C" 
			},
			{
				"x": -4.1055441468,
				"y": 1.3332750238,
				"z": -1.2252389786,
				"element": "C" 
			},
			{
				"x": -2.9324433528,
				"y": 2.0694704753,
				"z": -1.3959284422,
				"element": "C" 
			},
			{
				"x": -1.6925705745,
				"y": 1.4994298991,
				"z": -1.1074775392,
				"element": "C" 
			},
			{
				"x": -1.1569011132,
				"y": -0.959284434,
				"z": -3.0818402931,
				"element": "H" 
			},
			{
				"x": 0.3405820716,
				"y": -1.7048666324,
				"z": -3.6481751301,
				"element": "H" 
			},
			{
				"x": -0.629362717,
				"y": -2.5094719303,
				"z": -2.401654179,
				"element": "H" 
			},
			{
				"x": 1.4217528603,
				"y": -1.379696654,
				"z": -1.4481755326,
				"element": "H" 
			},
			{
				"x": 0.8854831955,
				"y": 0.1536786508,
				"z": -2.1072212669,
				"element": "H" 
			},
			{
				"x": 0.9428452701,
				"y": 1.3669885164,
				"z": 2.2497507948,
				"element": "H" 
			},
			{
				"x": -0.8920381516,
				"y": -2.4081294423,
				"z": 3.7143961043,
				"element": "H" 
			},
			{
				"x": -1.7450447733,
				"y": -3.1282678304,
				"z": 2.3117582765,
				"element": "H" 
			},
			{
				"x": -0.0362026844,
				"y": -3.5038576918,
				"z": 2.5895132398,
				"element": "H" 
			},
			{
				"x": -2.7498326837,
				"y": -1.5927842509,
				"z": -0.1624618814,
				"element": "H" 
			},
			{
				"x": -4.9293721894,
				"y": -0.572174707,
				"z": -0.6436186195,
				"element": "H" 
			},
			{
				"x": -5.0704932136,
				"y": 1.7796513627,
				"z": -1.4466157882,
				"element": "H" 
			},
			{
				"x": -2.9776815805,
				"y": 3.0941433073,
				"z": -1.7534803629,
				"element": "H" 
			},
			{
				"x": -0.7896575602,
				"y": 2.0848166794,
				"z": -1.2433805605,
				"element": "H" 
			}
		],
		 "valence_orbital": [ 
			{
				"type": "occ",
				"energy": -0.29387,
				"method": "rhf"
			},
			{
				"type": "occ",
				"energy": -0.28911,
				"method": "rhf"
			},
			{
				"type": "occ",
				"energy": -0.26739,
				"method": "rhf"
			},
			{
				"type": "occ",
				"energy": -0.25987,
				"method": "rhf"
			},
			{
				"type": "occ",
				"energy": -0.255,
				"method": "rhf"
			},
			{
				"type": "unocc",
				"energy": -0.0519,
				"method": "rhf"
			},
			{
				"type": "unocc",
				"energy": -0.01708,
				"method": "rhf"
			},
			{
				"type": "unocc",
				"energy": -0.01418,
				"method": "rhf"
			},
			{
				"type": "unocc",
				"energy": 0.00226,
				"method": "rhf"
			},
			{
				"type": "unocc",
				"energy": 0.05056,
				"method": "rhf"
			}
		],
		"cosmo_sigma_profile": { 
			"-0.025": 0.0,
			"-0.024": 0.0,
			"-0.023": 0.0,
			"-0.022": 0.0,
			"-0.021": 0.0,
			"-0.02": 0.0,
			"-0.019": 0.0,
			"-0.018": 0.0,
			"-0.017": 0.0955285977174,
			"-0.016": 1.11717067592,
			"-0.015": 0.737212734374,
			"-0.014": 0.844828123054,
			"-0.013": 0.75363977608,
			"-0.012": 0.807769577043,
			"-0.011": 1.39134387324,
			"-0.01": 1.36507837237,
			"-0.009": 1.77785219133,
			"-0.008": 2.09990663113,
			"-0.007": 2.27834317982,
			"-0.006": 12.3796439811,
			"-0.005": 20.3975388104,
			"-0.004": 23.2902434222,
			"-0.003": 25.4304943856,
			"-0.002": 24.1871018993,
			"-0.001": 21.1874278527,
			"0.0": 21.0521634385,
			"0.001": 19.3169978154,
			"0.002": 16.3957707629,
			"0.003": 13.2186597466,
			"0.004": 12.6672303006,
			"0.005": 11.059544636,
			"0.006": 4.12173496294,
			"0.007": 4.21600557392,
			"0.008": 4.11674105713,
			"0.009": 5.2795399319,
			"0.01": 6.41729707077,
			"0.011": 11.4196342049,
			"0.012": 2.721678914,
			"0.013": 0.00068834119332,
			"0.014": 0.0,
			"0.015": 0.0,
			"0.016": 0.0,
			"0.017": 0.0,
			"0.018": 0.0,
			"0.019": 0.0,
			"0.02": 0.0,
			"0.021": 0.0,
			"0.022": 0.0,
			"0.023": 0.0,
			"0.024": 0.0,
			"0.025": 0.0
		}
	}
}
