{
	 "smiles": "O=C1NC(CC2=CC=CC=C2)CO1", 
	 "Tm": 361.65, 
	 "num_atms": 24, 
	 "gaussian": { 
		 "optdone": 1, 
		 "sigma_profile": "yes", 
		 "theory": "DFT", 
		 "functional": "B3LYP", 
		 "basiset": "6-31G**", 
		 "properties": { 
			 "R2extent": 2779.8296, 
			 "electric_dipole_moment_norm": 5.10993113163, 
			 "electric_quadrupole_moment_norm": 19.9295536139, 
			 "total_energy": -592.909647972, 
			 "HOMO_LUMO_gap": 0.23943, 
			 "cosmo_polarized_energy": -16.02, 
			 "cosmo_cavitation_energy": 27.25, 
			 "cosmo_dispersion_energy": -19.74, 
			 "cosmo_repulsion_energy": 1.58, 
			 "cosmo_total_nonelectrostatic_energy": 9.1, 
			 "SMD_solvation_energy": 5.66 
		},
		"coords": [
			{
				"x": 0.4075159323,
				"y": 1.9262314572,
				"z": 3.3103911215,
				"element": "O" 
			},
			{
				"x": -0.0681065473,
				"y": 0.933320584,
				"z": 2.8190970874,
				"element": "C" 
			},
			{
				"x": 0.5818727986,
				"y": -0.0512706868,
				"z": 2.0930242234,
				"element": "N" 
			},
			{
				"x": -0.2447971516,
				"y": -1.242309822,
				"z": 1.9564502587,
				"element": "C" 
			},
			{
				"x": -0.0448129566,
				"y": -2.0176073921,
				"z": 0.6347236503,
				"element": "C" 
			},
			{
				"x": -0.3773057972,
				"y": -1.2716666965,
				"z": -0.640415897,
				"element": "C" 
			},
			{
				"x": 0.4922019413,
				"y": -0.3030274022,
				"z": -1.1630906762,
				"element": "C" 
			},
			{
				"x": 0.17591738,
				"y": 0.3829589943,
				"z": -2.3355071995,
				"element": "C" 
			},
			{
				"x": -1.0160798674,
				"y": 0.1105565623,
				"z": -3.0103572217,
				"element": "C" 
			},
			{
				"x": -1.8880685081,
				"y": -0.8541067264,
				"z": -2.5051919287,
				"element": "C" 
			},
			{
				"x": -1.5681521563,
				"y": -1.5380439874,
				"z": -1.3306554851,
				"element": "C" 
			},
			{
				"x": -1.6349391043,
				"y": -0.596905892,
				"z": 2.1438597141,
				"element": "C" 
			},
			{
				"x": -1.3949382531,
				"y": 0.6044641906,
				"z": 2.8962530398,
				"element": "O" 
			},
			{
				"x": 1.5802528646,
				"y": -0.1160297137,
				"z": 2.230864947,
				"element": "H" 
			},
			{
				"x": -0.0484869459,
				"y": -1.9473934352,
				"z": 2.7799469808,
				"element": "H" 
			},
			{
				"x": -0.6540222076,
				"y": -2.9274862725,
				"z": 0.6973102283,
				"element": "H" 
			},
			{
				"x": 0.9985291574,
				"y": -2.3571400033,
				"z": 0.6085315859,
				"element": "H" 
			},
			{
				"x": 1.4213180283,
				"y": -0.0828092056,
				"z": -0.6464604256,
				"element": "H" 
			},
			{
				"x": 0.8624497707,
				"y": 1.1299310138,
				"z": -2.7236533028,
				"element": "H" 
			},
			{
				"x": -1.2604641623,
				"y": 0.6435918714,
				"z": -3.9245509841,
				"element": "H" 
			},
			{
				"x": -2.8150588576,
				"y": -1.0786531857,
				"z": -3.0251261041,
				"element": "H" 
			},
			{
				"x": -2.2492559724,
				"y": -2.2953174354,
				"z": -0.9485581624,
				"element": "H" 
			},
			{
				"x": -2.0820584342,
				"y": -0.3269866406,
				"z": 1.1819374898,
				"element": "H" 
			},
			{
				"x": -2.3270109514,
				"y": -1.2278001762,
				"z": 2.7055770601,
				"element": "H" 
			}
		],
		 "valence_orbital": [ 
			{
				"type": "occ",
				"energy": -0.2884,
				"method": "rhf"
			},
			{
				"type": "occ",
				"energy": -0.27274,
				"method": "rhf"
			},
			{
				"type": "occ",
				"energy": -0.26268,
				"method": "rhf"
			},
			{
				"type": "occ",
				"energy": -0.25408,
				"method": "rhf"
			},
			{
				"type": "occ",
				"energy": -0.24973,
				"method": "rhf"
			},
			{
				"type": "unocc",
				"energy": -0.0103,
				"method": "rhf"
			},
			{
				"type": "unocc",
				"energy": -0.00799,
				"method": "rhf"
			},
			{
				"type": "unocc",
				"energy": 0.05026,
				"method": "rhf"
			},
			{
				"type": "unocc",
				"energy": 0.067,
				"method": "rhf"
			},
			{
				"type": "unocc",
				"energy": 0.08768,
				"method": "rhf"
			}
		],
		"cosmo_sigma_profile": { 
			"-0.025": 0.0,
			"-0.024": 0.0,
			"-0.023": 0.0,
			"-0.022": 0.0,
			"-0.021": 0.0,
			"-0.02": 0.0,
			"-0.019": 0.0,
			"-0.018": 0.0,
			"-0.017": 0.0,
			"-0.016": 0.0,
			"-0.015": 0.494664849159,
			"-0.014": 1.02926386999,
			"-0.013": 1.42803875344,
			"-0.012": 0.76256405262,
			"-0.011": 1.13618475981,
			"-0.01": 1.34539106872,
			"-0.009": 1.04393507849,
			"-0.008": 1.58900933845,
			"-0.007": 3.64883004664,
			"-0.006": 12.5844956137,
			"-0.005": 27.8327875519,
			"-0.004": 21.8622045611,
			"-0.003": 18.8912322722,
			"-0.002": 13.4558872835,
			"-0.001": 11.3006475937,
			"0.0": 9.17921004552,
			"0.001": 8.85689645514,
			"0.002": 10.0185149041,
			"0.003": 9.03171380051,
			"0.004": 11.0323365563,
			"0.005": 11.2099334967,
			"0.006": 9.65732086853,
			"0.007": 3.21542895239,
			"0.008": 2.15906164125,
			"0.009": 2.7097175642,
			"0.01": 4.22134163738,
			"0.011": 3.77521893639,
			"0.012": 4.22954016427,
			"0.013": 6.59650491471,
			"0.014": 1.57366801129,
			"0.015": 0.0,
			"0.016": 0.0,
			"0.017": 0.0,
			"0.018": 0.0,
			"0.019": 0.0,
			"0.02": 0.0,
			"0.021": 0.0,
			"0.022": 0.0,
			"0.023": 0.0,
			"0.024": 0.0,
			"0.025": 0.0
		}
	}
}
