{
	 "smiles": "ClC1=C(Cl)C=C(COC2=CC=C(CC#N)C=C2)C=C1", 
	 "Tm": 349.65, 
	 "num_atms": 30, 
	 "gaussian": { 
		 "optdone": 1, 
		 "sigma_profile": "yes", 
		 "theory": "DFT", 
		 "functional": "B3LYP", 
		 "basiset": "6-31G**", 
		 "properties": { 
			 "R2extent": 10467.7452, 
			 "electric_dipole_moment_norm": 2.53199251776, 
			 "electric_quadrupole_moment_norm": 42.3356223964, 
			 "total_energy": -1628.55769623, 
			 "HOMO_LUMO_gap": 0.1989, 
			 "cosmo_polarized_energy": -14.75, 
			 "cosmo_cavitation_energy": 39.52, 
			 "cosmo_dispersion_energy": -27.53, 
			 "cosmo_repulsion_energy": 2.15, 
			 "cosmo_total_nonelectrostatic_energy": 14.14, 
			 "SMD_solvation_energy": 7.48 
		},
		"coords": [
			{
				"x": -6.1635614412,
				"y": -0.9716249908,
				"z": -1.8785117997,
				"element": "Cl" 
			},
			{
				"x": -4.5027528196,
				"y": -0.4630700726,
				"z": -2.053111684,
				"element": "C" 
			},
			{
				"x": -4.1232175695,
				"y": 0.8750701295,
				"z": -1.8865060847,
				"element": "C" 
			},
			{
				"x": -5.2901592164,
				"y": 2.1132954085,
				"z": -1.4912420562,
				"element": "Cl" 
			},
			{
				"x": -2.7822336002,
				"y": 1.2391258243,
				"z": -2.0275824459,
				"element": "C" 
			},
			{
				"x": -1.8116310851,
				"y": 0.2859091518,
				"z": -2.3418905051,
				"element": "C" 
			},
			{
				"x": -0.3716408994,
				"y": 0.7154591448,
				"z": -2.5555762655,
				"element": "C" 
			},
			{
				"x": 0.5813498375,
				"y": -0.3038010533,
				"z": -2.2769182273,
				"element": "O" 
			},
			{
				"x": 0.9311046925,
				"y": -0.5575449275,
				"z": -0.975830016,
				"element": "C" 
			},
			{
				"x": 0.3212097511,
				"y": 0.0136520657,
				"z": 0.1447088739,
				"element": "C" 
			},
			{
				"x": 0.7840447306,
				"y": -0.3182516145,
				"z": 1.4215420021,
				"element": "C" 
			},
			{
				"x": 1.8355495279,
				"y": -1.2160038778,
				"z": 1.6039781025,
				"element": "C" 
			},
			{
				"x": 2.2839022822,
				"y": -1.5966763977,
				"z": 3.0087575992,
				"element": "C" 
			},
			{
				"x": 3.7415703331,
				"y": -1.6057449407,
				"z": 3.1807938494,
				"element": "C" 
			},
			{
				"x": 4.8951783281,
				"y": -1.625970879,
				"z": 3.3063737271,
				"element": "N" 
			},
			{
				"x": 2.4339753444,
				"y": -1.78400966,
				"z": 0.4696799215,
				"element": "C" 
			},
			{
				"x": 1.9908584764,
				"y": -1.4602282499,
				"z": -0.8055349346,
				"element": "C" 
			},
			{
				"x": -2.1981398777,
				"y": -1.0479115292,
				"z": -2.5096759098,
				"element": "C" 
			},
			{
				"x": -3.5311634945,
				"y": -1.4185827424,
				"z": -2.3625861875,
				"element": "C" 
			},
			{
				"x": -2.5090758493,
				"y": 2.2806525688,
				"z": -1.8872332855,
				"element": "H" 
			},
			{
				"x": -0.2103280755,
				"y": 0.9515598049,
				"z": -3.6130591454,
				"element": "H" 
			},
			{
				"x": -0.1488610166,
				"y": 1.6230004213,
				"z": -1.979538981,
				"element": "H" 
			},
			{
				"x": -0.5124152982,
				"y": 0.697523762,
				"z": 0.0439212386,
				"element": "H" 
			},
			{
				"x": 0.3035823778,
				"y": 0.1338118784,
				"z": 2.2855844145,
				"element": "H" 
			},
			{
				"x": 1.9134968606,
				"y": -2.595554828,
				"z": 3.2776654819,
				"element": "H" 
			},
			{
				"x": 1.8575763243,
				"y": -0.9032245224,
				"z": 3.741811944,
				"element": "H" 
			},
			{
				"x": 3.2651607969,
				"y": -2.4741643306,
				"z": 0.5853852488,
				"element": "H" 
			},
			{
				"x": 2.4567864169,
				"y": -1.8869497765,
				"z": -1.6875466268,
				"element": "H" 
			},
			{
				"x": -1.4499333089,
				"y": -1.7964278573,
				"z": -2.7471212718,
				"element": "H" 
			},
			{
				"x": -3.8338325282,
				"y": -2.4524179097,
				"z": -2.4874369767,
				"element": "H" 
			}
		],
		 "valence_orbital": [ 
			{
				"type": "occ",
				"energy": -0.31527,
				"method": "rhf"
			},
			{
				"type": "occ",
				"energy": -0.27125,
				"method": "rhf"
			},
			{
				"type": "occ",
				"energy": -0.26688,
				"method": "rhf"
			},
			{
				"type": "occ",
				"energy": -0.25527,
				"method": "rhf"
			},
			{
				"type": "occ",
				"energy": -0.23485,
				"method": "rhf"
			},
			{
				"type": "unocc",
				"energy": -0.03595,
				"method": "rhf"
			},
			{
				"type": "unocc",
				"energy": -0.03379,
				"method": "rhf"
			},
			{
				"type": "unocc",
				"energy": -0.0173,
				"method": "rhf"
			},
			{
				"type": "unocc",
				"energy": -0.0089,
				"method": "rhf"
			},
			{
				"type": "unocc",
				"energy": -0.00318,
				"method": "rhf"
			}
		],
		"cosmo_sigma_profile": { 
			"-0.025": 0.0,
			"-0.024": 0.0,
			"-0.023": 0.0,
			"-0.022": 0.0,
			"-0.021": 0.0,
			"-0.02": 0.0,
			"-0.019": 0.0,
			"-0.018": 0.0,
			"-0.017": 0.0,
			"-0.016": 0.0,
			"-0.015": 0.0,
			"-0.014": 0.0,
			"-0.013": 0.0,
			"-0.012": 0.0,
			"-0.011": 0.0,
			"-0.01": 0.0,
			"-0.009": 2.92619244783,
			"-0.008": 11.4191601563,
			"-0.007": 15.0022107522,
			"-0.006": 21.1292255485,
			"-0.005": 21.6489657638,
			"-0.004": 16.4616450191,
			"-0.003": 16.3437453818,
			"-0.002": 16.6790616702,
			"-0.001": 16.4816225324,
			"0.0": 24.168233736,
			"0.001": 30.611165178,
			"0.002": 29.3091258743,
			"0.003": 27.1749028527,
			"0.004": 29.92272123,
			"0.005": 15.1136168694,
			"0.006": 4.63808691778,
			"0.007": 2.79593329029,
			"0.008": 4.47063731401,
			"0.009": 4.52425210263,
			"0.01": 3.71663444021,
			"0.011": 2.79825084415,
			"0.012": 2.61661677392,
			"0.013": 2.01301976643,
			"0.014": 0.255115499997,
			"0.015": 0.0,
			"0.016": 0.0,
			"0.017": 0.0,
			"0.018": 0.0,
			"0.019": 0.0,
			"0.02": 0.0,
			"0.021": 0.0,
			"0.022": 0.0,
			"0.023": 0.0,
			"0.024": 0.0,
			"0.025": 0.0
		}
	}
}
