{
	 "smiles": "COC1=CC(OC)=C(C=CC(O)=O)C=C1", 
	 "Tm": 466.15, 
	 "num_atms": 27, 
	 "gaussian": { 
		 "optdone": 1, 
		 "sigma_profile": "yes", 
		 "theory": "DFT", 
		 "functional": "B3LYP", 
		 "basiset": "6-31G**", 
		 "properties": { 
			 "R2extent": 5102.6683, 
			 "electric_dipole_moment_norm": 9.14055224918, 
			 "electric_quadrupole_moment_norm": 25.5774625297, 
			 "total_energy": -727.267128589, 
			 "HOMO_LUMO_gap": 0.15459, 
			 "cosmo_polarized_energy": -19.28, 
			 "cosmo_cavitation_energy": 31.69, 
			 "cosmo_dispersion_energy": -22.85, 
			 "cosmo_repulsion_energy": 1.8, 
			 "cosmo_total_nonelectrostatic_energy": 10.64, 
			 "SMD_solvation_energy": 8.32 
		},
		"coords": [
			{
				"x": -3.2989358014,
				"y": 1.9659324811,
				"z": 2.203507137,
				"element": "C" 
			},
			{
				"x": -2.6307354623,
				"y": 0.861258747,
				"z": 2.7948592924,
				"element": "O" 
			},
			{
				"x": -1.6213258397,
				"y": 0.261690048,
				"z": 2.110468322,
				"element": "C" 
			},
			{
				"x": -1.1892538936,
				"y": 0.6624575705,
				"z": 0.8405120494,
				"element": "C" 
			},
			{
				"x": -0.1382028157,
				"y": -0.0242245318,
				"z": 0.2202454635,
				"element": "C" 
			},
			{
				"x": 0.3315190869,
				"y": 0.3112568108,
				"z": -1.0153778631,
				"element": "O" 
			},
			{
				"x": -0.2462715025,
				"y": 1.4098798785,
				"z": -1.7043732408,
				"element": "C" 
			},
			{
				"x": 0.501518021,
				"y": -1.1197145675,
				"z": 0.8524400911,
				"element": "C" 
			},
			{
				"x": 1.5917661494,
				"y": -1.8105626089,
				"z": 0.1739870836,
				"element": "C" 
			},
			{
				"x": 2.3343216531,
				"y": -2.8343109815,
				"z": 0.6448426314,
				"element": "C" 
			},
			{
				"x": 3.4621144042,
				"y": -3.4646831658,
				"z": -0.0789914634,
				"element": "C" 
			},
			{
				"x": 3.5276347337,
				"y": -3.2837431955,
				"z": -1.4316061435,
				"element": "O" 
			},
			{
				"x": 4.3151371623,
				"y": -4.1174691812,
				"z": 0.480485699,
				"element": "O" 
			},
			{
				"x": 0.0307847502,
				"y": -1.487390668,
				"z": 2.1279497241,
				"element": "C" 
			},
			{
				"x": -1.0057406838,
				"y": -0.8218148351,
				"z": 2.7567623432,
				"element": "C" 
			},
			{
				"x": -4.0566567766,
				"y": 2.2783579018,
				"z": 2.9231324417,
				"element": "H" 
			},
			{
				"x": -3.7892546627,
				"y": 1.6847085097,
				"z": 1.2628973878,
				"element": "H" 
			},
			{
				"x": -2.6117285508,
				"y": 2.801091968,
				"z": 2.0179847748,
				"element": "H" 
			},
			{
				"x": -1.6619444573,
				"y": 1.4953192267,
				"z": 0.3409239738,
				"element": "H" 
			},
			{
				"x": 0.293533132,
				"y": 1.4875041719,
				"z": -2.649028189,
				"element": "H" 
			},
			{
				"x": -0.1270420203,
				"y": 2.3449359368,
				"z": -1.1432905381,
				"element": "H" 
			},
			{
				"x": -1.3109116624,
				"y": 1.2426785723,
				"z": -1.9100975416,
				"element": "H" 
			},
			{
				"x": 1.8185822249,
				"y": -1.4093636564,
				"z": -0.8113185747,
				"element": "H" 
			},
			{
				"x": 2.2058809574,
				"y": -3.226005237,
				"z": 1.6485463166,
				"element": "H" 
			},
			{
				"x": 2.6995043795,
				"y": -2.8981627155,
				"z": -1.7488233171,
				"element": "H" 
			},
			{
				"x": 0.49637166,
				"y": -2.3245876097,
				"z": 2.637452212,
				"element": "H" 
			},
			{
				"x": -1.3586641856,
				"y": -1.114938869,
				"z": 3.7389099279,
				"element": "H" 
			}
		],
		 "valence_orbital": [ 
			{
				"type": "occ",
				"energy": -0.30093,
				"method": "rhf"
			},
			{
				"type": "occ",
				"energy": -0.28629,
				"method": "rhf"
			},
			{
				"type": "occ",
				"energy": -0.25561,
				"method": "rhf"
			},
			{
				"type": "occ",
				"energy": -0.25107,
				"method": "rhf"
			},
			{
				"type": "occ",
				"energy": -0.21324,
				"method": "rhf"
			},
			{
				"type": "unocc",
				"energy": -0.05865,
				"method": "rhf"
			},
			{
				"type": "unocc",
				"energy": -0.0049,
				"method": "rhf"
			},
			{
				"type": "unocc",
				"energy": 0.02628,
				"method": "rhf"
			},
			{
				"type": "unocc",
				"energy": 0.07125,
				"method": "rhf"
			},
			{
				"type": "unocc",
				"energy": 0.07311,
				"method": "rhf"
			}
		],
		"cosmo_sigma_profile": { 
			"-0.025": 0.0,
			"-0.024": 0.0,
			"-0.023": 0.0,
			"-0.022": 0.0,
			"-0.021": 0.0,
			"-0.02": 0.0,
			"-0.019": 0.0342563404897,
			"-0.018": 0.578965265417,
			"-0.017": 0.783084477543,
			"-0.016": 0.692191823163,
			"-0.015": 1.24244151889,
			"-0.014": 0.911672780194,
			"-0.013": 0.68231836637,
			"-0.012": 0.391116010969,
			"-0.011": 1.28072912165,
			"-0.01": 0.981357010203,
			"-0.009": 0.781271916698,
			"-0.008": 3.03443135675,
			"-0.007": 7.59933006461,
			"-0.006": 19.3784946602,
			"-0.005": 21.7280765134,
			"-0.004": 23.0926320922,
			"-0.003": 20.2778465439,
			"-0.002": 11.2013410755,
			"-0.001": 10.7342148673,
			"0.0": 12.1631758753,
			"0.001": 14.1931486211,
			"0.002": 16.9058950934,
			"0.003": 22.4057611292,
			"0.004": 15.3878623249,
			"0.005": 7.0468550619,
			"0.006": 4.46782679413,
			"0.007": 4.54390810796,
			"0.008": 3.65158849425,
			"0.009": 4.25421550638,
			"0.01": 4.57942140424,
			"0.011": 5.00264652712,
			"0.012": 5.88910212822,
			"0.013": 4.90393363489,
			"0.014": 1.61536316253,
			"0.015": 0.0,
			"0.016": 0.0,
			"0.017": 0.0,
			"0.018": 0.0,
			"0.019": 0.0,
			"0.02": 0.0,
			"0.021": 0.0,
			"0.022": 0.0,
			"0.023": 0.0,
			"0.024": 0.0,
			"0.025": 0.0
		}
	}
}
