{
	 "smiles": "CCCCCCCCOC(C)=O", 
	 "Tm": 234.65, 
	 "num_atms": 32, 
	 "gaussian": { 
		 "optdone": 1, 
		 "sigma_profile": "yes", 
		 "theory": "DFT", 
		 "functional": "B3LYP", 
		 "basiset": "6-31G**", 
		 "properties": { 
			 "R2extent": 3289.5772, 
			 "electric_dipole_moment_norm": 1.9136066576, 
			 "electric_quadrupole_moment_norm": 12.9617048574, 
			 "total_energy": -543.60177466, 
			 "HOMO_LUMO_gap": 0.28224, 
			 "cosmo_polarized_energy": -6.48, 
			 "cosmo_cavitation_energy": 33.55, 
			 "cosmo_dispersion_energy": -22.4, 
			 "cosmo_repulsion_energy": 1.86, 
			 "cosmo_total_nonelectrostatic_energy": 13.01, 
			 "SMD_solvation_energy": 6.3 
		},
		"coords": [
			{
				"x": -1.3210238131,
				"y": -2.6434636693,
				"z": -1.8194352857,
				"element": "C" 
			},
			{
				"x": -1.8758235739,
				"y": -1.217027853,
				"z": -1.7272133692,
				"element": "C" 
			},
			{
				"x": -1.2875085536,
				"y": -0.2389840791,
				"z": -2.7594034617,
				"element": "C" 
			},
			{
				"x": 0.230511066,
				"y": 0.0049742972,
				"z": -2.6608531407,
				"element": "C" 
			},
			{
				"x": 0.7310214866,
				"y": 0.5877943148,
				"z": -1.3275180858,
				"element": "C" 
			},
			{
				"x": 0.1886118058,
				"y": 1.9914680703,
				"z": -1.0162764375,
				"element": "C" 
			},
			{
				"x": 0.7909982935,
				"y": 2.6717685642,
				"z": 0.2261472246,
				"element": "C" 
			},
			{
				"x": 0.3425088961,
				"y": 2.1275476192,
				"z": 1.5759230652,
				"element": "C" 
			},
			{
				"x": 0.9347343111,
				"y": 0.8240684455,
				"z": 1.788244271,
				"element": "O" 
			},
			{
				"x": 0.6663377755,
				"y": 0.2427226082,
				"z": 2.9807551784,
				"element": "C" 
			},
			{
				"x": 1.3316437646,
				"y": -1.1100904165,
				"z": 3.0832006086,
				"element": "C" 
			},
			{
				"x": -0.0229723389,
				"y": 0.7548274146,
				"z": 3.8356319766,
				"element": "O" 
			},
			{
				"x": -1.8213799676,
				"y": -3.3080395389,
				"z": -1.1072416009,
				"element": "H" 
			},
			{
				"x": -1.4691109179,
				"y": -3.0605223949,
				"z": -2.8225608919,
				"element": "H" 
			},
			{
				"x": -0.248135753,
				"y": -2.679933103,
				"z": -1.6032790852,
				"element": "H" 
			},
			{
				"x": -1.7163657969,
				"y": -0.829111188,
				"z": -0.7127150428,
				"element": "H" 
			},
			{
				"x": -2.9642398544,
				"y": -1.2486567636,
				"z": -1.8650482605,
				"element": "H" 
			},
			{
				"x": -1.8171778907,
				"y": 0.7188624921,
				"z": -2.6780878944,
				"element": "H" 
			},
			{
				"x": -1.5100976134,
				"y": -0.6164359798,
				"z": -3.7670392059,
				"element": "H" 
			},
			{
				"x": 0.5238292679,
				"y": 0.6811277661,
				"z": -3.476012166,
				"element": "H" 
			},
			{
				"x": 0.7613118751,
				"y": -0.9363110029,
				"z": -2.8518881796,
				"element": "H" 
			},
			{
				"x": 1.8278959638,
				"y": 0.6375761935,
				"z": -1.3609175993,
				"element": "H" 
			},
			{
				"x": 0.4936926184,
				"y": -0.0918482664,
				"z": -0.5028324654,
				"element": "H" 
			},
			{
				"x": 0.3800574425,
				"y": 2.6379470921,
				"z": -1.883961153,
				"element": "H" 
			},
			{
				"x": -0.9034676957,
				"y": 1.9588701673,
				"z": -0.9028248481,
				"element": "H" 
			},
			{
				"x": 1.8874293088,
				"y": 2.6455740793,
				"z": 0.1794970548,
				"element": "H" 
			},
			{
				"x": 0.5084134222,
				"y": 3.7326406343,
				"z": 0.2156922596,
				"element": "H" 
			},
			{
				"x": -0.7479899881,
				"y": 2.0338421712,
				"z": 1.6329963555,
				"element": "H" 
			},
			{
				"x": 0.656321076,
				"y": 2.7853438967,
				"z": 2.3926314397,
				"element": "H" 
			},
			{
				"x": 2.4007280601,
				"y": -1.0259117216,
				"z": 2.8694656453,
				"element": "H" 
			},
			{
				"x": 0.9034927986,
				"y": -1.7922610337,
				"z": 2.3419913575,
				"element": "H" 
			},
			{
				"x": 1.1781545246,
				"y": -1.5139588159,
				"z": 4.0834317367,
				"element": "H" 
			}
		],
		 "valence_orbital": [ 
			{
				"type": "occ",
				"energy": -0.31085,
				"method": "rhf"
			},
			{
				"type": "occ",
				"energy": -0.30784,
				"method": "rhf"
			},
			{
				"type": "occ",
				"energy": -0.3047,
				"method": "rhf"
			},
			{
				"type": "occ",
				"energy": -0.29226,
				"method": "rhf"
			},
			{
				"type": "occ",
				"energy": -0.26657,
				"method": "rhf"
			},
			{
				"type": "unocc",
				"energy": 0.01567,
				"method": "rhf"
			},
			{
				"type": "unocc",
				"energy": 0.0734,
				"method": "rhf"
			},
			{
				"type": "unocc",
				"energy": 0.09685,
				"method": "rhf"
			},
			{
				"type": "unocc",
				"energy": 0.10144,
				"method": "rhf"
			},
			{
				"type": "unocc",
				"energy": 0.111,
				"method": "rhf"
			}
		],
		"cosmo_sigma_profile": { 
			"-0.025": 0.0,
			"-0.024": 0.0,
			"-0.023": 0.0,
			"-0.022": 0.0,
			"-0.021": 0.0,
			"-0.02": 0.0,
			"-0.019": 0.0,
			"-0.018": 0.0,
			"-0.017": 0.0,
			"-0.016": 0.0,
			"-0.015": 0.0,
			"-0.014": 0.0,
			"-0.013": 0.0,
			"-0.012": 0.0,
			"-0.011": 0.0,
			"-0.01": 0.0,
			"-0.009": 0.0,
			"-0.008": 0.0,
			"-0.007": 0.313871590351,
			"-0.006": 3.89061751589,
			"-0.005": 8.23494291045,
			"-0.004": 14.3114168016,
			"-0.003": 20.0192841681,
			"-0.002": 37.8828450484,
			"-0.001": 47.0825056049,
			"0.0": 43.3427499538,
			"0.001": 37.3006165146,
			"0.002": 16.0116382119,
			"0.003": 4.32163815269,
			"0.004": 2.70235437309,
			"0.005": 2.94146517113,
			"0.006": 2.60698569099,
			"0.007": 2.43168466768,
			"0.008": 2.32901278214,
			"0.009": 1.50384062639,
			"0.01": 1.59326625834,
			"0.011": 2.64204773511,
			"0.012": 4.75007290912,
			"0.013": 2.47469138225,
			"0.014": 0.125504269089,
			"0.015": 0.0,
			"0.016": 0.0,
			"0.017": 0.0,
			"0.018": 0.0,
			"0.019": 0.0,
			"0.02": 0.0,
			"0.021": 0.0,
			"0.022": 0.0,
			"0.023": 0.0,
			"0.024": 0.0,
			"0.025": 0.0
		}
	}
}
