{
	 "smiles": "NNC(=S)NC1=CC=C(C=C1)C(F)(F)F", 
	 "Tm": 440.15, 
	 "num_atms": 23, 
	 "gaussian": { 
		 "optdone": 1, 
		 "sigma_profile": "yes", 
		 "theory": "DFT", 
		 "functional": "B3LYP", 
		 "basiset": "6-31G**", 
		 "properties": { 
			 "R2extent": 5501.4643, 
			 "electric_dipole_moment_norm": 7.59180804354, 
			 "electric_quadrupole_moment_norm": 18.6435661522, 
			 "total_energy": -1171.62646674, 
			 "HOMO_LUMO_gap": 0.17745, 
			 "cosmo_polarized_energy": -19.07, 
			 "cosmo_cavitation_energy": 30.49, 
			 "cosmo_dispersion_energy": -22.56, 
			 "cosmo_repulsion_energy": 1.69, 
			 "cosmo_total_nonelectrostatic_energy": 9.62, 
			 "SMD_solvation_energy": 6.18 
		},
		"coords": [
			{
				"x": -1.2741407884,
				"y": 1.2951050216,
				"z": 3.4433890876,
				"element": "N" 
			},
			{
				"x": -0.162986898,
				"y": 1.9808034508,
				"z": 2.9391115457,
				"element": "N" 
			},
			{
				"x": 0.4359326483,
				"y": 1.6306779485,
				"z": 1.7497187999,
				"element": "C" 
			},
			{
				"x": 1.7639070049,
				"y": 2.5248216626,
				"z": 1.2441074044,
				"element": "S" 
			},
			{
				"x": -0.1726958164,
				"y": 0.5714507757,
				"z": 1.1524800789,
				"element": "N" 
			},
			{
				"x": 0.0700620116,
				"y": -0.1278372254,
				"z": -0.0412383605,
				"element": "C" 
			},
			{
				"x": -0.8038013845,
				"y": -1.1971785444,
				"z": -0.3148687953,
				"element": "C" 
			},
			{
				"x": -0.6574498473,
				"y": -1.9581388428,
				"z": -1.4657235261,
				"element": "C" 
			},
			{
				"x": 0.3688629048,
				"y": -1.6677641808,
				"z": -2.3698526898,
				"element": "C" 
			},
			{
				"x": 1.2378172254,
				"y": -0.6089808543,
				"z": -2.1006946004,
				"element": "C" 
			},
			{
				"x": 1.1005602449,
				"y": 0.1616360008,
				"z": -0.9485885082,
				"element": "C" 
			},
			{
				"x": 0.4936304826,
				"y": -2.4511849957,
				"z": -3.6442616544,
				"element": "C" 
			},
			{
				"x": 1.7686638022,
				"y": -2.4905625643,
				"z": -4.0914781729,
				"element": "F" 
			},
			{
				"x": 0.0754484414,
				"y": -3.7295875882,
				"z": -3.4916973711,
				"element": "F" 
			},
			{
				"x": -0.2526629911,
				"y": -1.9170160087,
				"z": -4.6416988897,
				"element": "F" 
			},
			{
				"x": -1.0612908944,
				"y": 0.8830746872,
				"z": 4.3490372771,
				"element": "H" 
			},
			{
				"x": -2.0710258001,
				"y": 1.9210318331,
				"z": 3.5354116362,
				"element": "H" 
			},
			{
				"x": 0.2531663161,
				"y": 2.7654848034,
				"z": 3.4250084305,
				"element": "H" 
			},
			{
				"x": -0.9615606961,
				"y": 0.2360798531,
				"z": 1.7028290957,
				"element": "H" 
			},
			{
				"x": -1.6010994812,
				"y": -1.4318919665,
				"z": 0.3862070875,
				"element": "H" 
			},
			{
				"x": -1.3336414502,
				"y": -2.7839250704,
				"z": -1.6589086074,
				"element": "H" 
			},
			{
				"x": 2.0411643919,
				"y": -0.3844209905,
				"z": -2.7943577419,
				"element": "H" 
			},
			{
				"x": 1.7798405736,
				"y": 0.9771227953,
				"z": -0.7443315257,
				"element": "H" 
			}
		],
		 "valence_orbital": [ 
			{
				"type": "occ",
				"energy": -0.31572,
				"method": "rhf"
			},
			{
				"type": "occ",
				"energy": -0.26433,
				"method": "rhf"
			},
			{
				"type": "occ",
				"energy": -0.23969,
				"method": "rhf"
			},
			{
				"type": "occ",
				"energy": -0.21876,
				"method": "rhf"
			},
			{
				"type": "occ",
				"energy": -0.21379,
				"method": "rhf"
			},
			{
				"type": "unocc",
				"energy": -0.03634,
				"method": "rhf"
			},
			{
				"type": "unocc",
				"energy": -0.01317,
				"method": "rhf"
			},
			{
				"type": "unocc",
				"energy": 0.01898,
				"method": "rhf"
			},
			{
				"type": "unocc",
				"energy": 0.04,
				"method": "rhf"
			},
			{
				"type": "unocc",
				"energy": 0.07357,
				"method": "rhf"
			}
		],
		"cosmo_sigma_profile": { 
			"-0.025": 0.0,
			"-0.024": 0.0,
			"-0.023": 0.0,
			"-0.022": 0.0,
			"-0.021": 0.0,
			"-0.02": 0.0,
			"-0.019": 0.0,
			"-0.018": 0.0,
			"-0.017": 0.0,
			"-0.016": 0.0,
			"-0.015": 0.237462040271,
			"-0.014": 1.24525292762,
			"-0.013": 4.26743531992,
			"-0.012": 5.70961475758,
			"-0.011": 6.46792913476,
			"-0.01": 5.58285612492,
			"-0.009": 4.19719183378,
			"-0.008": 3.86663796469,
			"-0.007": 6.45624840721,
			"-0.006": 7.04181410952,
			"-0.005": 7.68147284918,
			"-0.004": 8.42293469339,
			"-0.003": 9.72768636463,
			"-0.002": 9.39248451506,
			"-0.001": 9.58899074492,
			"0.0": 13.9608075486,
			"0.001": 19.6349080888,
			"0.002": 27.0260135965,
			"0.003": 47.711231357,
			"0.004": 13.5803845756,
			"0.005": 5.09114592669,
			"0.006": 4.44744026348,
			"0.007": 4.45692863015,
			"0.008": 3.74968270235,
			"0.009": 4.46184189937,
			"0.01": 6.15323477887,
			"0.011": 5.34961608779,
			"0.012": 0.816986597341,
			"0.013": 0.0,
			"0.014": 0.0,
			"0.015": 0.0,
			"0.016": 0.0,
			"0.017": 0.0,
			"0.018": 0.0,
			"0.019": 0.0,
			"0.02": 0.0,
			"0.021": 0.0,
			"0.022": 0.0,
			"0.023": 0.0,
			"0.024": 0.0,
			"0.025": 0.0
		}
	}
}
