{
	 "smiles": "NCC1=CC=C(C=C1)S(N)(=O)=O", 
	 "Tm": 424.15, 
	 "num_atms": 22, 
	 "gaussian": { 
		 "optdone": 1, 
		 "sigma_profile": "yes", 
		 "theory": "DFT", 
		 "functional": "B3LYP", 
		 "basiset": "6-31G**", 
		 "properties": { 
			 "R2extent": 3080.7782, 
			 "electric_dipole_moment_norm": 5.40935467131, 
			 "electric_quadrupole_moment_norm": 19.9008918207, 
			 "total_energy": -930.835405493, 
			 "HOMO_LUMO_gap": 0.2024, 
			 "cosmo_polarized_energy": -22.29, 
			 "cosmo_cavitation_energy": 27.45, 
			 "cosmo_dispersion_energy": -20.38, 
			 "cosmo_repulsion_energy": 1.6, 
			 "cosmo_total_nonelectrostatic_energy": 8.66, 
			 "SMD_solvation_energy": 2.9 
		},
		"coords": [
			{
				"x": -3.4081415252,
				"y": 2.2087676146,
				"z": -1.7668463766,
				"element": "N" 
			},
			{
				"x": -2.9205245616,
				"y": 2.2319797573,
				"z": -0.379457415,
				"element": "C" 
			},
			{
				"x": -1.887662125,
				"y": 1.1706268339,
				"z": -0.038292299,
				"element": "C" 
			},
			{
				"x": -0.5188188626,
				"y": 1.4187629564,
				"z": -0.2181248573,
				"element": "C" 
			},
			{
				"x": 0.4323072797,
				"y": 0.4333078892,
				"z": 0.0399175498,
				"element": "C" 
			},
			{
				"x": 0.0076312851,
				"y": -0.8216021477,
				"z": 0.4828499266,
				"element": "C" 
			},
			{
				"x": -1.3477162575,
				"y": -1.0905463464,
				"z": 0.6879686816,
				"element": "C" 
			},
			{
				"x": -2.284342699,
				"y": -0.0926922737,
				"z": 0.4247181266,
				"element": "C" 
			},
			{
				"x": 1.2237264082,
				"y": -2.1087870624,
				"z": 0.79671151,
				"element": "S" 
			},
			{
				"x": 1.4212324761,
				"y": -2.9542771504,
				"z": -0.6449636086,
				"element": "N" 
			},
			{
				"x": 0.622779279,
				"y": -3.0610235967,
				"z": 1.7288080452,
				"element": "O" 
			},
			{
				"x": 2.5054081795,
				"y": -1.449996902,
				"z": 1.0415921027,
				"element": "O" 
			},
			{
				"x": -3.8129476812,
				"y": 1.297313299,
				"z": -1.9712334588,
				"element": "H" 
			},
			{
				"x": -2.6232024737,
				"y": 2.3147924563,
				"z": -2.4063910681,
				"element": "H" 
			},
			{
				"x": -3.7886343954,
				"y": 2.1252629754,
				"z": 0.2803191161,
				"element": "H" 
			},
			{
				"x": -2.5015173032,
				"y": 3.2264660162,
				"z": -0.1904397641,
				"element": "H" 
			},
			{
				"x": -0.1921788866,
				"y": 2.4020191587,
				"z": -0.5486582998,
				"element": "H" 
			},
			{
				"x": 1.4927139205,
				"y": 0.6357452129,
				"z": -0.0687068485,
				"element": "H" 
			},
			{
				"x": -1.6524169155,
				"y": -2.0567390256,
				"z": 1.0764074651,
				"element": "H" 
			},
			{
				"x": -3.3393714443,
				"y": -0.2922985112,
				"z": 0.5973709383,
				"element": "H" 
			},
			{
				"x": 1.8229718846,
				"y": -2.3860817626,
				"z": -1.3838693327,
				"element": "H" 
			},
			{
				"x": 0.581604418,
				"y": -3.447299391,
				"z": -0.9315801337,
				"element": "H" 
			}
		],
		 "valence_orbital": [ 
			{
				"type": "occ",
				"energy": -0.30446,
				"method": "rhf"
			},
			{
				"type": "occ",
				"energy": -0.30331,
				"method": "rhf"
			},
			{
				"type": "occ",
				"energy": -0.27658,
				"method": "rhf"
			},
			{
				"type": "occ",
				"energy": -0.27374,
				"method": "rhf"
			},
			{
				"type": "occ",
				"energy": -0.24621,
				"method": "rhf"
			},
			{
				"type": "unocc",
				"energy": -0.04381,
				"method": "rhf"
			},
			{
				"type": "unocc",
				"energy": -0.02835,
				"method": "rhf"
			},
			{
				"type": "unocc",
				"energy": 0.04929,
				"method": "rhf"
			},
			{
				"type": "unocc",
				"energy": 0.06765,
				"method": "rhf"
			},
			{
				"type": "unocc",
				"energy": 0.0818,
				"method": "rhf"
			}
		],
		"cosmo_sigma_profile": { 
			"-0.025": 0.0,
			"-0.024": 0.0,
			"-0.023": 0.0,
			"-0.022": 0.0,
			"-0.021": 0.0,
			"-0.02": 0.0,
			"-0.019": 0.0,
			"-0.018": 0.0,
			"-0.017": 0.0,
			"-0.016": 0.0758727772694,
			"-0.015": 2.16503951668,
			"-0.014": 2.59918243753,
			"-0.013": 2.61292967792,
			"-0.012": 2.5145989227,
			"-0.011": 2.6952571886,
			"-0.01": 3.07931814221,
			"-0.009": 5.12778640992,
			"-0.008": 5.13490299527,
			"-0.007": 7.66363207871,
			"-0.006": 16.7534752237,
			"-0.005": 15.4894076058,
			"-0.004": 13.3677196033,
			"-0.003": 10.0311129361,
			"-0.002": 11.6197555286,
			"-0.001": 11.6515109928,
			"0.0": 8.46150123462,
			"0.001": 9.01656844707,
			"0.002": 11.8596456261,
			"0.003": 13.8920194773,
			"0.004": 6.65938371858,
			"0.005": 4.27786332643,
			"0.006": 4.79624875006,
			"0.007": 4.71562644093,
			"0.008": 4.10799167347,
			"0.009": 5.97946915493,
			"0.01": 7.62396882958,
			"0.011": 11.3839193995,
			"0.012": 6.64428974934,
			"0.013": 0.885199948226,
			"0.014": 0.552540407533,
			"0.015": 0.663519241855,
			"0.016": 0.813043733598,
			"0.017": 0.526179031868,
			"0.018": 0.735788611354,
			"0.019": 0.498884241389,
			"0.02": 0.181602287091,
			"0.021": 0.0,
			"0.022": 0.0,
			"0.023": 0.0,
			"0.024": 0.0,
			"0.025": 0.0
		}
	}
}
