{
	 "smiles": "CNC1CCN(CC1)C1=CC=C(Cl)C=C1", 
	 "Tm": 323.15, 
	 "num_atms": 32, 
	 "gaussian": { 
		 "optdone": 1, 
		 "sigma_profile": "yes", 
		 "theory": "DFT", 
		 "functional": "B3LYP", 
		 "basiset": "6-31G**", 
		 "properties": { 
			 "R2extent": 6799.6166, 
			 "electric_dipole_moment_norm": 4.40830819476, 
			 "electric_quadrupole_moment_norm": 16.8395512262, 
			 "total_energy": -1037.20604928, 
			 "HOMO_LUMO_gap": 0.18569, 
			 "cosmo_polarized_energy": -8.87, 
			 "cosmo_cavitation_energy": 34.41, 
			 "cosmo_dispersion_energy": -25.35, 
			 "cosmo_repulsion_energy": 1.97, 
			 "cosmo_total_nonelectrostatic_energy": 11.04, 
			 "SMD_solvation_energy": 2.6 
		},
		"coords": [
			{
				"x": 2.8872190921,
				"y": -4.6985177979,
				"z": 1.8878251423,
				"element": "C" 
			},
			{
				"x": 1.979503023,
				"y": -4.1844467118,
				"z": 0.8689985407,
				"element": "N" 
			},
			{
				"x": 1.7475451362,
				"y": -2.7419526815,
				"z": 0.8984674861,
				"element": "C" 
			},
			{
				"x": 0.9566571681,
				"y": -2.2043433971,
				"z": 2.1096403848,
				"element": "C" 
			},
			{
				"x": 0.9479314597,
				"y": -0.6635335654,
				"z": 2.1205813905,
				"element": "C" 
			},
			{
				"x": 0.8959433589,
				"y": -0.1295658578,
				"z": 0.7596019758,
				"element": "N" 
			},
			{
				"x": 0.2224251377,
				"y": -1.0110527072,
				"z": -0.193752912,
				"element": "C" 
			},
			{
				"x": 1.0288535526,
				"y": -2.3077754732,
				"z": -0.399354859,
				"element": "C" 
			},
			{
				"x": 0.9984334519,
				"y": 1.2464511399,
				"z": 0.5612385865,
				"element": "C" 
			},
			{
				"x": 1.0667632451,
				"y": 1.806052575,
				"z": -0.7357755457,
				"element": "C" 
			},
			{
				"x": 1.2053082523,
				"y": 3.1751093154,
				"z": -0.9302761961,
				"element": "C" 
			},
			{
				"x": 1.2918600193,
				"y": 4.0307025923,
				"z": 0.1679041519,
				"element": "C" 
			},
			{
				"x": 1.4715959524,
				"y": 5.7656987069,
				"z": -0.0810842046,
				"element": "Cl" 
			},
			{
				"x": 1.2402935551,
				"y": 3.5122243709,
				"z": 1.4570017813,
				"element": "C" 
			},
			{
				"x": 1.0908589879,
				"y": 2.1395454818,
				"z": 1.6515116567,
				"element": "C" 
			},
			{
				"x": 2.5875590469,
				"y": -4.5079302227,
				"z": 2.9333917115,
				"element": "H" 
			},
			{
				"x": 3.8792329698,
				"y": -4.2551238795,
				"z": 1.7444599904,
				"element": "H" 
			},
			{
				"x": 2.9907967265,
				"y": -5.7809303674,
				"z": 1.7640860305,
				"element": "H" 
			},
			{
				"x": 1.0885896952,
				"y": -4.6738620118,
				"z": 0.9170584929,
				"element": "H" 
			},
			{
				"x": 2.7390016099,
				"y": -2.2694644761,
				"z": 0.9184202111,
				"element": "H" 
			},
			{
				"x": -0.0689442112,
				"y": -2.5953370381,
				"z": 2.0682652081,
				"element": "H" 
			},
			{
				"x": 1.3858118896,
				"y": -2.5568000842,
				"z": 3.0528601668,
				"element": "H" 
			},
			{
				"x": 1.8677814263,
				"y": -0.2984250662,
				"z": 2.5941202212,
				"element": "H" 
			},
			{
				"x": 0.1055801033,
				"y": -0.3005336769,
				"z": 2.7354072275,
				"element": "H" 
			},
			{
				"x": 0.077775521,
				"y": -0.4947499412,
				"z": -1.1411430288,
				"element": "H" 
			},
			{
				"x": -0.7888554007,
				"y": -1.2495008587,
				"z": 0.1757283257,
				"element": "H" 
			},
			{
				"x": 1.7662766964,
				"y": -2.1870514382,
				"z": -1.1988351326,
				"element": "H" 
			},
			{
				"x": 0.3453710414,
				"y": -3.104779907,
				"z": -0.7194969478,
				"element": "H" 
			},
			{
				"x": 1.0402513664,
				"y": 1.166892368,
				"z": -1.6107563561,
				"element": "H" 
			},
			{
				"x": 1.2588730829,
				"y": 3.5762226948,
				"z": -1.9367639923,
				"element": "H" 
			},
			{
				"x": 1.3052832522,
				"y": 4.1753351388,
				"z": 2.313128362,
				"element": "H" 
			},
			{
				"x": 1.0342237918,
				"y": 1.7723427759,
				"z": 2.6683421307,
				"element": "H" 
			}
		],
		 "valence_orbital": [ 
			{
				"type": "occ",
				"energy": -0.29931,
				"method": "rhf"
			},
			{
				"type": "occ",
				"energy": -0.26771,
				"method": "rhf"
			},
			{
				"type": "occ",
				"energy": -0.25225,
				"method": "rhf"
			},
			{
				"type": "occ",
				"energy": -0.22073,
				"method": "rhf"
			},
			{
				"type": "occ",
				"energy": -0.18914,
				"method": "rhf"
			},
			{
				"type": "unocc",
				"energy": -0.00345,
				"method": "rhf"
			},
			{
				"type": "unocc",
				"energy": 0.01127,
				"method": "rhf"
			},
			{
				"type": "unocc",
				"energy": 0.04153,
				"method": "rhf"
			},
			{
				"type": "unocc",
				"energy": 0.07111,
				"method": "rhf"
			},
			{
				"type": "unocc",
				"energy": 0.0938,
				"method": "rhf"
			}
		],
		"cosmo_sigma_profile": { 
			"-0.025": 0.0,
			"-0.024": 0.0,
			"-0.023": 0.0,
			"-0.022": 0.0,
			"-0.021": 0.0,
			"-0.02": 0.0,
			"-0.019": 0.0,
			"-0.018": 0.0,
			"-0.017": 0.0,
			"-0.016": 0.0,
			"-0.015": 0.0,
			"-0.014": 0.0,
			"-0.013": 0.0,
			"-0.012": 0.0,
			"-0.011": 0.0,
			"-0.01": 0.179870262721,
			"-0.009": 0.975535939767,
			"-0.008": 1.66157610474,
			"-0.007": 3.9411534181,
			"-0.006": 7.70864276728,
			"-0.005": 11.6239334478,
			"-0.004": 17.1957750405,
			"-0.003": 34.861739679,
			"-0.002": 36.8842996105,
			"-0.001": 28.7927937402,
			"0.0": 25.3543176914,
			"0.001": 16.012245751,
			"0.002": 12.1323156312,
			"0.003": 15.0385896284,
			"0.004": 17.0025863809,
			"0.005": 22.8563010594,
			"0.006": 11.6888169583,
			"0.007": 1.13449744624,
			"0.008": 0.906494885432,
			"0.009": 0.630124369068,
			"0.01": 0.988839655169,
			"0.011": 0.696515400055,
			"0.012": 0.438195368954,
			"0.013": 0.805291620023,
			"0.014": 0.592710579974,
			"0.015": 0.26212138994,
			"0.016": 0.189624694486,
			"0.017": 0.890250359804,
			"0.018": 0.367971367919,
			"0.019": 0.0,
			"0.02": 0.0,
			"0.021": 0.0,
			"0.022": 0.0,
			"0.023": 0.0,
			"0.024": 0.0,
			"0.025": 0.0
		}
	}
}
