{
	 "smiles": "OC(=O)C=CC1=CC=C(N2CCCC2)C(=C1)[N+]([O-])=O", 
	 "Tm": 517.15, 
	 "num_atms": 33, 
	 "gaussian": { 
		 "optdone": 1, 
		 "sigma_profile": "yes", 
		 "theory": "DFT", 
		 "functional": "B3LYP", 
		 "basiset": "6-31G**", 
		 "properties": { 
			 "R2extent": 7116.0396, 
			 "electric_dipole_moment_norm": 5.95744824401, 
			 "electric_quadrupole_moment_norm": 14.4463106802, 
			 "total_energy": -914.108716572, 
			 "HOMO_LUMO_gap": 0.13789, 
			 "cosmo_polarized_energy": -17.4, 
			 "cosmo_cavitation_energy": 36.45, 
			 "cosmo_dispersion_energy": -26.38, 
			 "cosmo_repulsion_energy": 2.01, 
			 "cosmo_total_nonelectrostatic_energy": 12.08, 
			 "SMD_solvation_energy": 8.27 
		},
		"coords": [
			{
				"x": -4.7938593159,
				"y": 1.2086249822,
				"z": 4.7393300978,
				"element": "O" 
			},
			{
				"x": -3.746872326,
				"y": 1.1224655404,
				"z": 3.8726944451,
				"element": "C" 
			},
			{
				"x": -3.8991430552,
				"y": 1.364931071,
				"z": 2.6856910477,
				"element": "O" 
			},
			{
				"x": -2.5284910084,
				"y": 0.7248463968,
				"z": 4.5868239032,
				"element": "C" 
			},
			{
				"x": -1.2712130133,
				"y": 0.5099571978,
				"z": 4.1217901596,
				"element": "C" 
			},
			{
				"x": -0.6106703346,
				"y": 0.5547276251,
				"z": 2.824674821,
				"element": "C" 
			},
			{
				"x": 0.774846641,
				"y": 0.274523657,
				"z": 2.7946417881,
				"element": "C" 
			},
			{
				"x": 1.5039357887,
				"y": 0.2494973958,
				"z": 1.6243082268,
				"element": "C" 
			},
			{
				"x": 0.9138297647,
				"y": 0.505831706,
				"z": 0.352645582,
				"element": "C" 
			},
			{
				"x": 1.6401661547,
				"y": 0.2871365774,
				"z": -0.7853176732,
				"element": "N" 
			},
			{
				"x": 1.1290657354,
				"y": 0.3137822024,
				"z": -2.1700503936,
				"element": "C" 
			},
			{
				"x": 2.3488511276,
				"y": -0.0352417241,
				"z": -3.028829188,
				"element": "C" 
			},
			{
				"x": 3.1806787516,
				"y": -0.9471889328,
				"z": -2.1215313707,
				"element": "C" 
			},
			{
				"x": 2.9732036305,
				"y": -0.3456329826,
				"z": -0.7260561473,
				"element": "C" 
			},
			{
				"x": -0.4579319857,
				"y": 0.9095521443,
				"z": 0.4180126776,
				"element": "C" 
			},
			{
				"x": -1.2003946801,
				"y": 0.8817660833,
				"z": 1.5934837664,
				"element": "C" 
			},
			{
				"x": -1.1722587856,
				"y": 1.5035308576,
				"z": -0.7159845313,
				"element": "N" 
			},
			{
				"x": -2.3132912547,
				"y": 1.115094956,
				"z": -0.9573812684,
				"element": "O" 
			},
			{
				"x": -0.6013568788,
				"y": 2.4200293407,
				"z": -1.3199687241,
				"element": "O" 
			},
			{
				"x": -5.5559641817,
				"y": 1.4759127522,
				"z": 4.1997906233,
				"element": "H" 
			},
			{
				"x": -2.6819209691,
				"y": 0.5912557047,
				"z": 5.6528060074,
				"element": "H" 
			},
			{
				"x": -0.573706038,
				"y": 0.229251737,
				"z": 4.9115629409,
				"element": "H" 
			},
			{
				"x": 1.2914561751,
				"y": 0.0627000011,
				"z": 3.7275409919,
				"element": "H" 
			},
			{
				"x": 2.5606327627,
				"y": 0.0275089885,
				"z": 1.6825576861,
				"element": "H" 
			},
			{
				"x": 0.3238013551,
				"y": -0.4273591505,
				"z": -2.2844629795,
				"element": "H" 
			},
			{
				"x": 0.7215948019,
				"y": 1.2917804655,
				"z": -2.4205946394,
				"element": "H" 
			},
			{
				"x": 2.0630233192,
				"y": -0.5057888282,
				"z": -3.9728740638,
				"element": "H" 
			},
			{
				"x": 2.9069904736,
				"y": 0.8773484486,
				"z": -3.2657223351,
				"element": "H" 
			},
			{
				"x": 2.7849308503,
				"y": -1.9685568629,
				"z": -2.1461979459,
				"element": "H" 
			},
			{
				"x": 4.2373942209,
				"y": -0.9913684546,
				"z": -2.3975954801,
				"element": "H" 
			},
			{
				"x": 3.7431570259,
				"y": 0.4003923089,
				"z": -0.4841453163,
				"element": "H" 
			},
			{
				"x": 3.0013046448,
				"y": -1.1175316928,
				"z": 0.0488013716,
				"element": "H" 
			},
			{
				"x": -2.2470893967,
				"y": 1.1567204883,
				"z": 1.5522559202,
				"element": "H" 
			}
		],
		 "valence_orbital": [ 
			{
				"type": "occ",
				"energy": -0.29198,
				"method": "rhf"
			},
			{
				"type": "occ",
				"energy": -0.27144,
				"method": "rhf"
			},
			{
				"type": "occ",
				"energy": -0.26712,
				"method": "rhf"
			},
			{
				"type": "occ",
				"energy": -0.25945,
				"method": "rhf"
			},
			{
				"type": "occ",
				"energy": -0.20602,
				"method": "rhf"
			},
			{
				"type": "unocc",
				"energy": -0.06813,
				"method": "rhf"
			},
			{
				"type": "unocc",
				"energy": -0.06354,
				"method": "rhf"
			},
			{
				"type": "unocc",
				"energy": -0.00868,
				"method": "rhf"
			},
			{
				"type": "unocc",
				"energy": 0.01798,
				"method": "rhf"
			},
			{
				"type": "unocc",
				"energy": 0.07116,
				"method": "rhf"
			}
		],
		"cosmo_sigma_profile": { 
			"-0.025": 0.0,
			"-0.024": 0.0,
			"-0.023": 0.0,
			"-0.022": 0.0,
			"-0.021": 0.0,
			"-0.02": 0.0,
			"-0.019": 0.0,
			"-0.018": 0.223845440251,
			"-0.017": 0.822362614722,
			"-0.016": 0.913099109136,
			"-0.015": 0.773978045558,
			"-0.014": 0.888919483759,
			"-0.013": 0.751642653094,
			"-0.012": 0.559345818677,
			"-0.011": 0.803713052389,
			"-0.01": 0.656292627703,
			"-0.009": 0.737718447198,
			"-0.008": 2.38318160819,
			"-0.007": 7.87612380805,
			"-0.006": 11.0526589328,
			"-0.005": 19.2012432224,
			"-0.004": 27.6936650359,
			"-0.003": 29.9233814137,
			"-0.002": 22.3670495638,
			"-0.001": 20.6896574247,
			"0.0": 17.1885399969,
			"0.001": 17.7405772348,
			"0.002": 22.3925640602,
			"0.003": 18.2615212264,
			"0.004": 11.7987318963,
			"0.005": 6.20606964498,
			"0.006": 5.90394353869,
			"0.007": 8.79103060323,
			"0.008": 12.7134070166,
			"0.009": 9.56926408455,
			"0.01": 6.16296674086,
			"0.011": 2.53043873099,
			"0.012": 1.64365108651,
			"0.013": 0.24699487704,
			"0.014": 0.0,
			"0.015": 0.0,
			"0.016": 0.0,
			"0.017": 0.0,
			"0.018": 0.0,
			"0.019": 0.0,
			"0.02": 0.0,
			"0.021": 0.0,
			"0.022": 0.0,
			"0.023": 0.0,
			"0.024": 0.0,
			"0.025": 0.0
		}
	}
}
