{
	 "smiles": "CC=CC=CC(O)=O", 
	 "Tm": 407.15, 
	 "num_atms": 16, 
	 "gaussian": { 
		 "optdone": 1, 
		 "sigma_profile": "yes", 
		 "theory": "DFT", 
		 "functional": "B3LYP", 
		 "basiset": "6-31G**", 
		 "properties": { 
			 "R2extent": 1668.3166, 
			 "electric_dipole_moment_norm": 2.50177147438, 
			 "electric_quadrupole_moment_norm": 11.4510514788, 
			 "total_energy": -383.887508772, 
			 "HOMO_LUMO_gap": 0.17892, 
			 "cosmo_polarized_energy": -9.0, 
			 "cosmo_cavitation_energy": 20.5, 
			 "cosmo_dispersion_energy": -14.85, 
			 "cosmo_repulsion_energy": 1.27, 
			 "cosmo_total_nonelectrostatic_energy": 6.92, 
			 "SMD_solvation_energy": 5.31 
		},
		"coords": [
			{
				"x": 2.6001598152,
				"y": 0.5536601984,
				"z": 1.4433105754,
				"element": "C" 
			},
			{
				"x": 2.1104607657,
				"y": 1.01303167,
				"z": 0.1023429811,
				"element": "C" 
			},
			{
				"x": 0.8372449213,
				"y": 1.1269680518,
				"z": -0.3255674107,
				"element": "C" 
			},
			{
				"x": -0.3963231914,
				"y": 0.8054873114,
				"z": 0.3854774693,
				"element": "C" 
			},
			{
				"x": -0.5809537514,
				"y": -0.1492047852,
				"z": 1.3207285431,
				"element": "C" 
			},
			{
				"x": -1.8680050752,
				"y": -0.4056508474,
				"z": 1.989001443,
				"element": "C" 
			},
			{
				"x": -2.8713493945,
				"y": 0.4272256254,
				"z": 1.5986372805,
				"element": "O" 
			},
			{
				"x": -2.0430851072,
				"y": -1.277968493,
				"z": 2.8193013108,
				"element": "O" 
			},
			{
				"x": 2.9159349508,
				"y": -0.4982301762,
				"z": 1.4118996433,
				"element": "H" 
			},
			{
				"x": 3.4774486058,
				"y": 1.1335484863,
				"z": 1.7492456466,
				"element": "H" 
			},
			{
				"x": 1.8340573844,
				"y": 0.6443472096,
				"z": 2.2174397519,
				"element": "H" 
			},
			{
				"x": 2.8864051396,
				"y": 1.3187633922,
				"z": -0.5985612962,
				"element": "H" 
			},
			{
				"x": 0.6870442174,
				"y": 1.5561008726,
				"z": -1.3152863329,
				"element": "H" 
			},
			{
				"x": -1.2694114827,
				"y": 1.3871331925,
				"z": 0.0945988451,
				"element": "H" 
			},
			{
				"x": 0.2080976583,
				"y": -0.8259482444,
				"z": 1.6259691343,
				"element": "H" 
			},
			{
				"x": -3.6503254561,
				"y": 0.147136536,
				"z": 2.1057624154,
				"element": "H" 
			}
		],
		 "valence_orbital": [ 
			{
				"type": "occ",
				"energy": -0.35283,
				"method": "rhf"
			},
			{
				"type": "occ",
				"energy": -0.31741,
				"method": "rhf"
			},
			{
				"type": "occ",
				"energy": -0.30803,
				"method": "rhf"
			},
			{
				"type": "occ",
				"energy": -0.26864,
				"method": "rhf"
			},
			{
				"type": "occ",
				"energy": -0.24121,
				"method": "rhf"
			},
			{
				"type": "unocc",
				"energy": -0.06229,
				"method": "rhf"
			},
			{
				"type": "unocc",
				"energy": 0.0351,
				"method": "rhf"
			},
			{
				"type": "unocc",
				"energy": 0.08001,
				"method": "rhf"
			},
			{
				"type": "unocc",
				"energy": 0.09654,
				"method": "rhf"
			},
			{
				"type": "unocc",
				"energy": 0.09887,
				"method": "rhf"
			}
		],
		"cosmo_sigma_profile": { 
			"-0.025": 0.0,
			"-0.024": 0.0,
			"-0.023": 0.0,
			"-0.022": 0.0,
			"-0.021": 0.0,
			"-0.02": 0.0,
			"-0.019": 0.0,
			"-0.018": 0.408293672959,
			"-0.017": 0.769848020292,
			"-0.016": 0.790564779072,
			"-0.015": 0.88027662119,
			"-0.014": 1.17299794653,
			"-0.013": 0.593728516707,
			"-0.012": 0.279401165129,
			"-0.011": 0.68718031195,
			"-0.01": 0.968181680578,
			"-0.009": 0.519506648324,
			"-0.008": 0.29949481811,
			"-0.007": 0.617424599475,
			"-0.006": 5.72241060793,
			"-0.005": 11.4415490764,
			"-0.004": 14.2233743317,
			"-0.003": 14.2373017194,
			"-0.002": 13.0622555545,
			"-0.001": 16.6672098983,
			"0.0": 13.9666410312,
			"0.001": 11.1874088329,
			"0.002": 10.3101161396,
			"0.003": 8.67749186167,
			"0.004": 7.38169690586,
			"0.005": 4.52418066351,
			"0.006": 2.94862554511,
			"0.007": 3.04952554659,
			"0.008": 3.10861862527,
			"0.009": 1.40035696882,
			"0.01": 1.39398164408,
			"0.011": 2.65282821866,
			"0.012": 5.43846351982,
			"0.013": 2.82481695364,
			"0.014": 0.23612333979,
			"0.015": 0.0,
			"0.016": 0.0,
			"0.017": 0.0,
			"0.018": 0.0,
			"0.019": 0.0,
			"0.02": 0.0,
			"0.021": 0.0,
			"0.022": 0.0,
			"0.023": 0.0,
			"0.024": 0.0,
			"0.025": 0.0
		}
	}
}
