{
	 "smiles": "CCCCl", 
	 "Tm": 151.15, 
	 "num_atms": 11, 
	 "gaussian": { 
		 "optdone": 1, 
		 "sigma_profile": "yes", 
		 "theory": "DFT", 
		 "functional": "B3LYP", 
		 "basiset": "6-31G**", 
		 "properties": { 
			 "R2extent": 795.5785, 
			 "electric_dipole_moment_norm": 2.36359611186, 
			 "electric_quadrupole_moment_norm": 4.86556054325, 
			 "total_energy": -578.744066127, 
			 "HOMO_LUMO_gap": 0.31739, 
			 "cosmo_polarized_energy": -3.6, 
			 "cosmo_cavitation_energy": 15.28, 
			 "cosmo_dispersion_energy": -11.67, 
			 "cosmo_repulsion_energy": 1.08, 
			 "cosmo_total_nonelectrostatic_energy": 4.69, 
			 "SMD_solvation_energy": 2.45 
		},
		"coords": [
			{
				"x": -0.7075228608,
				"y": 0.07168609,
				"z": 1.8846481198,
				"element": "C" 
			},
			{
				"x": -0.1672851611,
				"y": -1.1328857,
				"z": 1.103608082,
				"element": "C" 
			},
			{
				"x": 0.6746059486,
				"y": -0.6882057413,
				"z": -0.0852039248,
				"element": "C" 
			},
			{
				"x": 1.3250595489,
				"y": -2.1039885146,
				"z": -1.0250109226,
				"element": "Cl" 
			},
			{
				"x": -1.3411514312,
				"y": 0.706215286,
				"z": 1.2552103359,
				"element": "H" 
			},
			{
				"x": 0.1054445854,
				"y": 0.6937858005,
				"z": 2.2750068702,
				"element": "H" 
			},
			{
				"x": -1.3103372523,
				"y": -0.2591307102,
				"z": 2.7356978105,
				"element": "H" 
			},
			{
				"x": 0.4419629535,
				"y": -1.765923098,
				"z": 1.7579322259,
				"element": "H" 
			},
			{
				"x": -0.9955000094,
				"y": -1.7535557094,
				"z": 0.7446052438,
				"element": "H" 
			},
			{
				"x": 1.5443116957,
				"y": -0.1075029191,
				"z": 0.2292812635,
				"element": "H" 
			},
			{
				"x": 0.0929119828,
				"y": -0.0950947839,
				"z": -0.7939751043,
				"element": "H" 
			}
		],
		 "valence_orbital": [ 
			{
				"type": "occ",
				"energy": -0.36691,
				"method": "rhf"
			},
			{
				"type": "occ",
				"energy": -0.36044,
				"method": "rhf"
			},
			{
				"type": "occ",
				"energy": -0.34944,
				"method": "rhf"
			},
			{
				"type": "occ",
				"energy": -0.29059,
				"method": "rhf"
			},
			{
				"type": "occ",
				"energy": -0.29051,
				"method": "rhf"
			},
			{
				"type": "unocc",
				"energy": 0.02688,
				"method": "rhf"
			},
			{
				"type": "unocc",
				"energy": 0.09393,
				"method": "rhf"
			},
			{
				"type": "unocc",
				"energy": 0.12522,
				"method": "rhf"
			},
			{
				"type": "unocc",
				"energy": 0.12837,
				"method": "rhf"
			},
			{
				"type": "unocc",
				"energy": 0.14656,
				"method": "rhf"
			}
		],
		"cosmo_sigma_profile": { 
			"-0.025": 0.0,
			"-0.024": 0.0,
			"-0.023": 0.0,
			"-0.022": 0.0,
			"-0.021": 0.0,
			"-0.02": 0.0,
			"-0.019": 0.0,
			"-0.018": 0.0,
			"-0.017": 0.0,
			"-0.016": 0.0,
			"-0.015": 0.0,
			"-0.014": 0.0,
			"-0.013": 0.0,
			"-0.012": 0.0,
			"-0.011": 0.0,
			"-0.01": 0.0,
			"-0.009": 0.0,
			"-0.008": 0.0,
			"-0.007": 0.664955889319,
			"-0.006": 4.47522754997,
			"-0.005": 5.04190846443,
			"-0.004": 9.52725343203,
			"-0.003": 16.901941579,
			"-0.002": 14.627812363,
			"-0.001": 13.0838536308,
			"0.0": 13.1173824111,
			"0.001": 9.316030835,
			"0.002": 3.85523777282,
			"0.003": 4.05736110522,
			"0.004": 4.16911283071,
			"0.005": 4.85055412505,
			"0.006": 7.30343699232,
			"0.007": 9.68122240145,
			"0.008": 0.645634596833,
			"0.009": 0.0,
			"0.01": 0.0,
			"0.011": 0.0,
			"0.012": 0.0,
			"0.013": 0.0,
			"0.014": 0.0,
			"0.015": 0.0,
			"0.016": 0.0,
			"0.017": 0.0,
			"0.018": 0.0,
			"0.019": 0.0,
			"0.02": 0.0,
			"0.021": 0.0,
			"0.022": 0.0,
			"0.023": 0.0,
			"0.024": 0.0,
			"0.025": 0.0
		}
	}
}
