{
	 "smiles": "CCN(CC1=CC=CC=C1)C1=CC=C(C=O)C=C1", 
	 "Tm": 313.15, 
	 "num_atms": 35, 
	 "gaussian": { 
		 "optdone": 1, 
		 "sigma_profile": "yes", 
		 "theory": "DFT", 
		 "functional": "B3LYP", 
		 "basiset": "6-31G**", 
		 "properties": { 
			 "R2extent": 6308.0842, 
			 "electric_dipole_moment_norm": 6.05950811948, 
			 "electric_quadrupole_moment_norm": 23.991665765, 
			 "total_energy": -749.919399267, 
			 "HOMO_LUMO_gap": 0.16207, 
			 "cosmo_polarized_energy": -12.72, 
			 "cosmo_cavitation_energy": 37.45, 
			 "cosmo_dispersion_energy": -26.16, 
			 "cosmo_repulsion_energy": 2.01, 
			 "cosmo_total_nonelectrostatic_energy": 13.3, 
			 "SMD_solvation_energy": 6.99 
		},
		"coords": [
			{
				"x": -1.6402707135,
				"y": -0.3170417386,
				"z": 1.8029035982,
				"element": "C" 
			},
			{
				"x": -0.8903980312,
				"y": -1.2325937529,
				"z": 0.8271475398,
				"element": "C" 
			},
			{
				"x": -0.3094398113,
				"y": -0.5458519292,
				"z": -0.330391703,
				"element": "N" 
			},
			{
				"x": -0.9742091608,
				"y": -0.7147286088,
				"z": -1.6162040642,
				"element": "C" 
			},
			{
				"x": -2.0466512785,
				"y": 0.3087151798,
				"z": -1.9801894931,
				"element": "C" 
			},
			{
				"x": -2.9737175928,
				"y": -0.0129409526,
				"z": -2.9812150747,
				"element": "C" 
			},
			{
				"x": -3.9503851366,
				"y": 0.9022593529,
				"z": -3.3714490844,
				"element": "C" 
			},
			{
				"x": -4.0171537644,
				"y": 2.1571668307,
				"z": -2.7610684334,
				"element": "C" 
			},
			{
				"x": -3.1008042933,
				"y": 2.4849125556,
				"z": -1.7619525749,
				"element": "C" 
			},
			{
				"x": -2.1208845453,
				"y": 1.5671467681,
				"z": -1.3741172537,
				"element": "C" 
			},
			{
				"x": 0.8613755514,
				"y": 0.1847497515,
				"z": -0.2191573291,
				"element": "C" 
			},
			{
				"x": 1.3565667421,
				"y": 0.9555677798,
				"z": -1.3030024956,
				"element": "C" 
			},
			{
				"x": 2.550047158,
				"y": 1.6525365501,
				"z": -1.1918307137,
				"element": "C" 
			},
			{
				"x": 3.3007794951,
				"y": 1.6347532963,
				"z": -0.0079406429,
				"element": "C" 
			},
			{
				"x": 4.5602183711,
				"y": 2.3802534783,
				"z": 0.0966794022,
				"element": "C" 
			},
			{
				"x": 5.2699674514,
				"y": 2.426172189,
				"z": 1.0886218302,
				"element": "O" 
			},
			{
				"x": 2.8047223459,
				"y": 0.8943806689,
				"z": 1.0781304929,
				"element": "C" 
			},
			{
				"x": 1.6168508513,
				"y": 0.1919105753,
				"z": 0.9856477095,
				"element": "C" 
			},
			{
				"x": -0.9836360335,
				"y": 0.4585701688,
				"z": 2.2072293131,
				"element": "H" 
			},
			{
				"x": -2.4809633514,
				"y": 0.1743659717,
				"z": 1.3060914706,
				"element": "H" 
			},
			{
				"x": -2.029901816,
				"y": -0.9023414533,
				"z": 2.6427584451,
				"element": "H" 
			},
			{
				"x": -0.1046185891,
				"y": -1.786922679,
				"z": 1.3544604333,
				"element": "H" 
			},
			{
				"x": -1.580042359,
				"y": -1.9869128676,
				"z": 0.4384046397,
				"element": "H" 
			},
			{
				"x": -1.42905259,
				"y": -1.7117325463,
				"z": -1.6262792583,
				"element": "H" 
			},
			{
				"x": -0.2111264551,
				"y": -0.7375214269,
				"z": -2.403541087,
				"element": "H" 
			},
			{
				"x": -2.9323121939,
				"y": -0.9907523777,
				"z": -3.4570562574,
				"element": "H" 
			},
			{
				"x": -4.6629855711,
				"y": 0.6340921422,
				"z": -4.1464227443,
				"element": "H" 
			},
			{
				"x": -4.7793445346,
				"y": 2.8706197136,
				"z": -3.0604773226,
				"element": "H" 
			},
			{
				"x": -3.1451850915,
				"y": 3.4576503456,
				"z": -1.2802244642,
				"element": "H" 
			},
			{
				"x": -1.4119080674,
				"y": 1.8302644706,
				"z": -0.5961908555,
				"element": "H" 
			},
			{
				"x": 0.7902909453,
				"y": 1.0331662378,
				"z": -2.2226339837,
				"element": "H" 
			},
			{
				"x": 2.904439544,
				"y": 2.2349456939,
				"z": -2.0399624112,
				"element": "H" 
			},
			{
				"x": 4.8462902274,
				"y": 2.9296675611,
				"z": -0.830079884,
				"element": "H" 
			},
			{
				"x": 3.3792309455,
				"y": 0.8855471172,
				"z": 1.9995338458,
				"element": "H" 
			},
			{
				"x": 1.2728113518,
				"y": -0.3611740659,
				"z": 1.8501784108,
				"element": "H" 
			}
		],
		 "valence_orbital": [ 
			{
				"type": "occ",
				"energy": -0.25861,
				"method": "rhf"
			},
			{
				"type": "occ",
				"energy": -0.25577,
				"method": "rhf"
			},
			{
				"type": "occ",
				"energy": -0.24965,
				"method": "rhf"
			},
			{
				"type": "occ",
				"energy": -0.23597,
				"method": "rhf"
			},
			{
				"type": "occ",
				"energy": -0.20285,
				"method": "rhf"
			},
			{
				"type": "unocc",
				"energy": -0.04078,
				"method": "rhf"
			},
			{
				"type": "unocc",
				"energy": -0.01329,
				"method": "rhf"
			},
			{
				"type": "unocc",
				"energy": -0.00704,
				"method": "rhf"
			},
			{
				"type": "unocc",
				"energy": -0.00227,
				"method": "rhf"
			},
			{
				"type": "unocc",
				"energy": 0.05828,
				"method": "rhf"
			}
		],
		"cosmo_sigma_profile": { 
			"-0.025": 0.0,
			"-0.024": 0.0,
			"-0.023": 0.0,
			"-0.022": 0.0,
			"-0.021": 0.0,
			"-0.02": 0.0,
			"-0.019": 0.0,
			"-0.018": 0.0,
			"-0.017": 0.0,
			"-0.016": 0.0,
			"-0.015": 0.0,
			"-0.014": 0.0,
			"-0.013": 0.0,
			"-0.012": 0.0,
			"-0.011": 0.0,
			"-0.01": 0.0,
			"-0.009": 0.0,
			"-0.008": 0.0036672793673,
			"-0.007": 3.23255372924,
			"-0.006": 16.3409342543,
			"-0.005": 26.6457257231,
			"-0.004": 27.9587383998,
			"-0.003": 29.6349992731,
			"-0.002": 26.3822824158,
			"-0.001": 25.0818977619,
			"0.0": 23.7383322118,
			"0.001": 20.4332994667,
			"0.002": 18.1853165179,
			"0.003": 16.4252708717,
			"0.004": 17.1697523694,
			"0.005": 17.4801809093,
			"0.006": 9.35300389273,
			"0.007": 2.49385461237,
			"0.008": 1.48913388485,
			"0.009": 2.03652258255,
			"0.01": 1.73191907086,
			"0.011": 2.23295087926,
			"0.012": 4.48751737165,
			"0.013": 3.86707307751,
			"0.014": 1.19050758285,
			"0.015": 0.0,
			"0.016": 0.0,
			"0.017": 0.0,
			"0.018": 0.0,
			"0.019": 0.0,
			"0.02": 0.0,
			"0.021": 0.0,
			"0.022": 0.0,
			"0.023": 0.0,
			"0.024": 0.0,
			"0.0": 0.0
		}
	}
}
