{
	 "smiles": "NC(=O)C(=C/C1=CC=C(F)C=C1)C1=NC2=C(S1)C=CC=C2", 
	 "Tm": 451.15, 
	 "num_atms": 32, 
	 "gaussian": { 
		 "optdone": 1, 
		 "sigma_profile": "yes", 
		 "theory": "DFT", 
		 "functional": "B3LYP", 
		 "basiset": "6-31G**", 
		 "properties": { 
			 "R2extent": 9167.4819, 
			 "electric_dipole_moment_norm": 2.80597847105, 
			 "electric_quadrupole_moment_norm": 11.1088434677, 
			 "total_energy": -1299.09306019, 
			 "HOMO_LUMO_gap": 0.14106, 
			 "cosmo_polarized_energy": -16.28, 
			 "cosmo_cavitation_energy": 39.12, 
			 "cosmo_dispersion_energy": -28.48, 
			 "cosmo_repulsion_energy": 2.1, 
			 "cosmo_total_nonelectrostatic_energy": 12.74, 
			 "SMD_solvation_energy": 5.82 
		},
		"coords": [
			{
				"x": -3.1971443074,
				"y": -0.1257052466,
				"z": 0.2336177921,
				"element": "N" 
			},
			{
				"x": -2.0733335626,
				"y": 0.6088775398,
				"z": 0.4629819042,
				"element": "C" 
			},
			{
				"x": -2.1089123933,
				"y": 1.7349054618,
				"z": 0.9485350315,
				"element": "O" 
			},
			{
				"x": -0.7811120751,
				"y": -0.0211694979,
				"z": 0.0040978151,
				"element": "C" 
			},
			{
				"x": -0.3549808018,
				"y": -1.2632138715,
				"z": 0.3435171426,
				"element": "C" 
			},
			{
				"x": -0.9419064374,
				"y": -2.2385209319,
				"z": 1.2688712149,
				"element": "C" 
			},
			{
				"x": -1.677154128,
				"y": -1.8763424197,
				"z": 2.4163413648,
				"element": "C" 
			},
			{
				"x": -2.1844164247,
				"y": -2.8430697237,
				"z": 3.278916439,
				"element": "C" 
			},
			{
				"x": -1.9535864107,
				"y": -4.1863231835,
				"z": 2.9958179163,
				"element": "C" 
			},
			{
				"x": -2.4459923463,
				"y": -5.1235069064,
				"z": 3.8284506436,
				"element": "F" 
			},
			{
				"x": -1.2145824795,
				"y": -4.587059844,
				"z": 1.8878682221,
				"element": "C" 
			},
			{
				"x": -0.7030386391,
				"y": -3.6086094584,
				"z": 1.0403352631,
				"element": "C" 
			},
			{
				"x": 0.0680855163,
				"y": 0.8019667662,
				"z": -0.8736729296,
				"element": "C" 
			},
			{
				"x": 1.0536420855,
				"y": 0.3114460312,
				"z": -1.5702015382,
				"element": "N" 
			},
			{
				"x": 1.686947943,
				"y": 1.2863191285,
				"z": -2.3120206364,
				"element": "C" 
			},
			{
				"x": 1.149908649,
				"y": 2.5907761118,
				"z": -2.1754646305,
				"element": "C" 
			},
			{
				"x": -0.1881239852,
				"y": 2.5583244939,
				"z": -1.0495788025,
				"element": "S" 
			},
			{
				"x": 1.6929223555,
				"y": 3.6748993186,
				"z": -2.8719771561,
				"element": "C" 
			},
			{
				"x": 2.7785293851,
				"y": 3.4402827171,
				"z": -3.7108574502,
				"element": "C" 
			},
			{
				"x": 3.3185693203,
				"y": 2.1484563184,
				"z": -3.8554640351,
				"element": "C" 
			},
			{
				"x": 2.7826461069,
				"y": 1.0702673967,
				"z": -3.1645310323,
				"element": "C" 
			},
			{
				"x": -3.1528874181,
				"y": -1.0731352556,
				"z": -0.1047787653,
				"element": "H" 
			},
			{
				"x": -4.076092583,
				"y": 0.2375570759,
				"z": 0.5714548118,
				"element": "H" 
			},
			{
				"x": 0.5730042534,
				"y": -1.5744664075,
				"z": -0.1328125034,
				"element": "H" 
			},
			{
				"x": -1.8234479806,
				"y": -0.8285521755,
				"z": 2.6545633596,
				"element": "H" 
			},
			{
				"x": -2.7390839107,
				"y": -2.572137979,
				"z": 4.1707162483,
				"element": "H" 
			},
			{
				"x": -1.0424827305,
				"y": -5.642887234,
				"z": 1.709809921,
				"element": "H" 
			},
			{
				"x": -0.114258622,
				"y": -3.9066304863,
				"z": 0.177308379,
				"element": "H" 
			},
			{
				"x": 1.2809181024,
				"y": 4.673296725,
				"z": -2.763867978,
				"element": "H" 
			},
			{
				"x": 3.2146460322,
				"y": 4.2680543445,
				"z": -4.2622028956,
				"element": "H" 
			},
			{
				"x": 4.1662252689,
				"y": 1.9957950847,
				"z": -4.5168421399,
				"element": "H" 
			},
			{
				"x": 3.1877922175,
				"y": 0.0687061075,
				"z": -3.265430976,
				"element": "H" 
			}
		],
		 "valence_orbital": [ 
			{
				"type": "occ",
				"energy": -0.27165,
				"method": "rhf"
			},
			{
				"type": "occ",
				"energy": -0.26642,
				"method": "rhf"
			},
			{
				"type": "occ",
				"energy": -0.25103,
				"method": "rhf"
			},
			{
				"type": "occ",
				"energy": -0.22941,
				"method": "rhf"
			},
			{
				"type": "occ",
				"energy": -0.21648,
				"method": "rhf"
			},
			{
				"type": "unocc",
				"energy": -0.07542,
				"method": "rhf"
			},
			{
				"type": "unocc",
				"energy": -0.02407,
				"method": "rhf"
			},
			{
				"type": "unocc",
				"energy": -0.01335,
				"method": "rhf"
			},
			{
				"type": "unocc",
				"energy": -0.00104,
				"method": "rhf"
			},
			{
				"type": "unocc",
				"energy": 0.00848,
				"method": "rhf"
			}
		],
		"cosmo_sigma_profile": { 
			"-0.025": 0.0,
			"-0.024": 0.0,
			"-0.023": 0.0,
			"-0.022": 0.0,
			"-0.021": 0.0,
			"-0.02": 0.0,
			"-0.019": 0.0,
			"-0.018": 0.0,
			"-0.017": 0.0,
			"-0.016": 0.0,
			"-0.015": 0.263760834174,
			"-0.014": 2.12072763654,
			"-0.013": 1.89409255586,
			"-0.012": 2.36766080779,
			"-0.011": 1.68849496561,
			"-0.01": 2.14408204087,
			"-0.009": 2.11977196905,
			"-0.008": 3.92189377682,
			"-0.007": 11.7959923157,
			"-0.006": 16.9498039034,
			"-0.005": 19.8136528889,
			"-0.004": 17.9297415944,
			"-0.003": 16.0897719348,
			"-0.002": 15.9694363697,
			"-0.001": 17.5010331393,
			"0.0": 25.5768426121,
			"0.001": 28.493125008,
			"0.002": 30.1199536378,
			"0.003": 30.8624601873,
			"0.004": 28.9504059858,
			"0.005": 13.1842492083,
			"0.006": 3.62674349869,
			"0.007": 3.10420838524,
			"0.008": 2.66365832422,
			"0.009": 3.00759391086,
			"0.01": 3.27345472123,
			"0.011": 2.65560434509,
			"0.012": 3.33344737063,
			"0.013": 4.35174323955,
			"0.014": 1.04098334633,
			"0.015": 0.0,
			"0.016": 0.0,
			"0.017": 0.0,
			"0.018": 0.0,
			"0.019": 0.0,
			"0.02": 0.0,
			"0.021": 0.0,
			"0.022": 0.0,
			"0.023": 0.0,
			"0.024": 0.0,
			"0.025": 0.0
		}
	}
}
