{
	 "smiles": "CC1=NN=C(S)N1C1CC1", 
	 "Tm": 406.15, 
	 "num_atms": 19, 
	 "gaussian": { 
		 "optdone": 1, 
		 "sigma_profile": "yes", 
		 "theory": "DFT", 
		 "functional": "B3LYP", 
		 "basiset": "6-31G**", 
		 "properties": { 
			 "R2extent": 2675.7576, 
			 "electric_dipole_moment_norm": 5.16125473214, 
			 "electric_quadrupole_moment_norm": 15.1300141702, 
			 "total_energy": -796.448304634, 
			 "HOMO_LUMO_gap": 0.23669, 
			 "cosmo_polarized_energy": -15.19, 
			 "cosmo_cavitation_energy": 23.82, 
			 "cosmo_dispersion_energy": -17.83, 
			 "cosmo_repulsion_energy": 1.41, 
			 "cosmo_total_nonelectrostatic_energy": 7.39, 
			 "SMD_solvation_energy": 1.38 
		},
		"coords": [
			{
				"x": 0.6647325721,
				"y": -1.4296755285,
				"z": -1.3102294051,
				"element": "C" 
			},
			{
				"x": 1.2951457293,
				"y": -0.0906888145,
				"z": -1.4927113586,
				"element": "C" 
			},
			{
				"x": 2.2209150436,
				"y": 0.190566277,
				"z": -2.3756922575,
				"element": "N" 
			},
			{
				"x": 2.5781922943,
				"y": 1.5205395979,
				"z": -2.2175164121,
				"element": "N" 
			},
			{
				"x": 1.8514549758,
				"y": 1.9944434951,
				"z": -1.2369926074,
				"element": "C" 
			},
			{
				"x": 1.9378738073,
				"y": 3.6387119627,
				"z": -0.5902010521,
				"element": "S" 
			},
			{
				"x": 0.998288463,
				"y": 1.0350576692,
				"z": -0.7383791871,
				"element": "N" 
			},
			{
				"x": 0.1227012493,
				"y": 1.1380023389,
				"z": 0.398765912,
				"element": "C" 
			},
			{
				"x": -1.3387887411,
				"y": 0.7944729003,
				"z": 0.2441282851,
				"element": "C" 
			},
			{
				"x": -0.9233916838,
				"y": 2.2277794922,
				"z": 0.4334059564,
				"element": "C" 
			},
			{
				"x": 1.1560067469,
				"y": -2.12496842,
				"z": -1.9925696514,
				"element": "H" 
			},
			{
				"x": -0.4067176883,
				"y": -1.4193606212,
				"z": -1.5363201693,
				"element": "H" 
			},
			{
				"x": 0.7834060143,
				"y": -1.8000842288,
				"z": -0.2861629167,
				"element": "H" 
			},
			{
				"x": 2.930295326,
				"y": 3.9779789246,
				"z": -1.4349134578,
				"element": "H" 
			},
			{
				"x": 0.5983007709,
				"y": 0.8787094005,
				"z": 1.3421908411,
				"element": "H" 
			},
			{
				"x": -1.6837091342,
				"y": 0.5065082485,
				"z": -0.7430773592,
				"element": "H" 
			},
			{
				"x": -1.8171901941,
				"y": 0.2685204296,
				"z": 1.0639090539,
				"element": "H" 
			},
			{
				"x": -0.9904472452,
				"y": 2.8853280166,
				"z": -0.4264411924,
				"element": "H" 
			},
			{
				"x": -1.104168306,
				"y": 2.7105588597,
				"z": 1.3880069783,
				"element": "H" 
			}
		],
		 "valence_orbital": [ 
			{
				"type": "occ",
				"energy": -0.3042,
				"method": "rhf"
			},
			{
				"type": "occ",
				"energy": -0.29908,
				"method": "rhf"
			},
			{
				"type": "occ",
				"energy": -0.28188,
				"method": "rhf"
			},
			{
				"type": "occ",
				"energy": -0.24777,
				"method": "rhf"
			},
			{
				"type": "occ",
				"energy": -0.22388,
				"method": "rhf"
			},
			{
				"type": "unocc",
				"energy": 0.01281,
				"method": "rhf"
			},
			{
				"type": "unocc",
				"energy": 0.01841,
				"method": "rhf"
			},
			{
				"type": "unocc",
				"energy": 0.0506,
				"method": "rhf"
			},
			{
				"type": "unocc",
				"energy": 0.0675,
				"method": "rhf"
			},
			{
				"type": "unocc",
				"energy": 0.07738,
				"method": "rhf"
			}
		],
		"cosmo_sigma_profile": { 
			"-0.025": 0.0,
			"-0.024": 0.0,
			"-0.023": 0.0,
			"-0.022": 0.0,
			"-0.021": 0.0,
			"-0.02": 0.0,
			"-0.019": 0.0,
			"-0.018": 0.0,
			"-0.017": 0.0,
			"-0.016": 0.0,
			"-0.015": 0.0,
			"-0.014": 0.0,
			"-0.013": 0.0,
			"-0.012": 0.61355078688,
			"-0.011": 1.7817403771,
			"-0.01": 1.15734747572,
			"-0.009": 1.2849705382,
			"-0.008": 1.03806456698,
			"-0.007": 5.31874365738,
			"-0.006": 15.6840850454,
			"-0.005": 19.5204111909,
			"-0.004": 15.7755520936,
			"-0.003": 14.0879510222,
			"-0.002": 18.700829644,
			"-0.001": 15.8907726201,
			"0.0": 11.7103229501,
			"0.001": 10.166266675,
			"0.002": 9.4641315473,
			"0.003": 7.55800121258,
			"0.004": 6.14218560055,
			"0.005": 4.51747724447,
			"0.006": 4.63012875161,
			"0.007": 2.85740304315,
			"0.008": 1.30144355334,
			"0.009": 1.83710117814,
			"0.01": 2.1525541632,
			"0.011": 2.2602018777,
			"0.012": 2.43045561622,
			"0.013": 2.84300146216,
			"0.014": 3.4762103169,
			"0.015": 3.02145713918,
			"0.016": 2.40310148055,
			"0.017": 1.32673294157,
			"0.018": 0.187140719881,
			"0.019": 0.0,
			"0.02": 0.0,
			"0.021": 0.0,
			"0.022": 0.0,
			"0.023": 0.0,
			"0.024": 0.0,
			"0.025": 0.0
		}
	}
}
