{
	 "smiles": "OC(=O)CCNC(=O)OCC1C2=C(C=CC=C2)C2=C1C=CC=C2", 
	 "Tm": 419.15, 
	 "num_atms": 40, 
	 "gaussian": { 
		 "optdone": 1, 
		 "sigma_profile": "yes", 
		 "theory": "DFT", 
		 "functional": "B3LYP", 
		 "basiset": "6-31G**", 
		 "properties": { 
			 "R2extent": 8994.1558, 
			 "electric_dipole_moment_norm": 6.13889200263, 
			 "electric_quadrupole_moment_norm": 35.6371742867, 
			 "total_energy": -1051.85858523, 
			 "HOMO_LUMO_gap": 0.18395, 
			 "cosmo_polarized_energy": -22.93, 
			 "cosmo_cavitation_energy": 44.5, 
			 "cosmo_dispersion_energy": -30.19, 
			 "cosmo_repulsion_energy": 2.34, 
			 "cosmo_total_nonelectrostatic_energy": 16.65, 
			 "SMD_solvation_energy": 9.08 
		},
		"coords": [
			{
				"x": 1.1086461366,
				"y": -3.4920684363,
				"z": 2.293511292,
				"element": "O" 
			},
			{
				"x": 1.6915378952,
				"y": -4.5682765217,
				"z": 1.715022487,
				"element": "C" 
			},
			{
				"x": 1.9837285225,
				"y": -5.5413426625,
				"z": 2.3667128087,
				"element": "O" 
			},
			{
				"x": 1.9176178212,
				"y": -4.4683955686,
				"z": 0.2076429343,
				"element": "C" 
			},
			{
				"x": 2.4975795015,
				"y": -3.1340414265,
				"z": -0.2900595941,
				"element": "C" 
			},
			{
				"x": 1.5840132885,
				"y": -1.9970930719,
				"z": -0.0741370731,
				"element": "N" 
			},
			{
				"x": 0.5573118517,
				"y": -1.7953778434,
				"z": -0.9844730569,
				"element": "C" 
			},
			{
				"x": 0.1562225332,
				"y": -2.6317544117,
				"z": -1.769823935,
				"element": "O" 
			},
			{
				"x": 0.0567513987,
				"y": -0.5505514946,
				"z": -0.8419815429,
				"element": "O" 
			},
			{
				"x": -1.0623356619,
				"y": -0.2285203585,
				"z": -1.691050832,
				"element": "C" 
			},
			{
				"x": -1.3662730426,
				"y": 1.2614939217,
				"z": -1.5349916526,
				"element": "C" 
			},
			{
				"x": -1.6862831287,
				"y": 1.6985293953,
				"z": -0.1119919871,
				"element": "C" 
			},
			{
				"x": -0.8274601878,
				"y": 2.7448797183,
				"z": 0.2801191314,
				"element": "C" 
			},
			{
				"x": -0.9433900339,
				"y": 3.3157426542,
				"z": 1.5491872091,
				"element": "C" 
			},
			{
				"x": -1.9206305084,
				"y": 2.8292113834,
				"z": 2.4207468977,
				"element": "C" 
			},
			{
				"x": -2.7721318828,
				"y": 1.7902694172,
				"z": 2.0301841918,
				"element": "C" 
			},
			{
				"x": -2.6597471988,
				"y": 1.2197530474,
				"z": 0.7566403479,
				"element": "C" 
			},
			{
				"x": 0.0870561548,
				"y": 3.0440504075,
				"z": -0.8310223553,
				"element": "C" 
			},
			{
				"x": -0.2109953271,
				"y": 2.181508924,
				"z": -1.9051286018,
				"element": "C" 
			},
			{
				"x": 0.5068140598,
				"y": 2.2565542446,
				"z": -3.0928033244,
				"element": "C" 
			},
			{
				"x": 1.5348001479,
				"y": 3.2005311945,
				"z": -3.2057414165,
				"element": "C" 
			},
			{
				"x": 1.8319398831,
				"y": 4.0573653913,
				"z": -2.1406021958,
				"element": "C" 
			},
			{
				"x": 1.1102998451,
				"y": 3.9872990154,
				"z": -0.946405728,
				"element": "C" 
			},
			{
				"x": 0.9680559428,
				"y": -2.8021784719,
				"z": 1.6151705397,
				"element": "H" 
			},
			{
				"x": 0.9642979304,
				"y": -4.6407109995,
				"z": -0.3052392754,
				"element": "H" 
			},
			{
				"x": 2.5894288856,
				"y": -5.2840356238,
				"z": -0.0679317434,
				"element": "H" 
			},
			{
				"x": 2.7279388163,
				"y": -3.2266587701,
				"z": -1.3564135963,
				"element": "H" 
			},
			{
				"x": 3.4263203431,
				"y": -2.9013222537,
				"z": 0.2381978735,
				"element": "H" 
			},
			{
				"x": 1.9954527999,
				"y": -1.1390418643,
				"z": 0.2726188037,
				"element": "H" 
			},
			{
				"x": -1.9212929927,
				"y": -0.8406835456,
				"z": -1.3968463785,
				"element": "H" 
			},
			{
				"x": -0.8131873054,
				"y": -0.4787932046,
				"z": -2.7262048359,
				"element": "H" 
			},
			{
				"x": -2.2280473584,
				"y": 1.4595464494,
				"z": -2.1906758406,
				"element": "H" 
			},
			{
				"x": -0.2871182156,
				"y": 4.1245288182,
				"z": 1.8584796196,
				"element": "H" 
			},
			{
				"x": -2.0214439703,
				"y": 3.2623454352,
				"z": 3.4117264656,
				"element": "H" 
			},
			{
				"x": -3.5268891637,
				"y": 1.4239441732,
				"z": 2.7197876221,
				"element": "H" 
			},
			{
				"x": -3.3278402774,
				"y": 0.4146967163,
				"z": 0.4604981254,
				"element": "H" 
			},
			{
				"x": 0.279506009,
				"y": 1.597158524,
				"z": -3.9269781465,
				"element": "H" 
			},
			{
				"x": 2.1037813856,
				"y": 3.2698064093,
				"z": -4.1282786752,
				"element": "H" 
			},
			{
				"x": 2.6306334515,
				"y": 4.7862746265,
				"z": -2.2443336866,
				"element": "H" 
			},
			{
				"x": 1.3447316516,
				"y": 4.6581566623,
				"z": -0.1245308755,
				"element": "H" 
			}
		],
		 "valence_orbital": [ 
			{
				"type": "occ",
				"energy": -0.288,
				"method": "rhf"
			},
			{
				"type": "occ",
				"energy": -0.25787,
				"method": "rhf"
			},
			{
				"type": "occ",
				"energy": -0.25518,
				"method": "rhf"
			},
			{
				"type": "occ",
				"energy": -0.25281,
				"method": "rhf"
			},
			{
				"type": "occ",
				"energy": -0.22289,
				"method": "rhf"
			},
			{
				"type": "unocc",
				"energy": -0.03894,
				"method": "rhf"
			},
			{
				"type": "unocc",
				"energy": -0.02088,
				"method": "rhf"
			},
			{
				"type": "unocc",
				"energy": -0.00025,
				"method": "rhf"
			},
			{
				"type": "unocc",
				"energy": 0.02079,
				"method": "rhf"
			},
			{
				"type": "unocc",
				"energy": 0.02214,
				"method": "rhf"
			}
		],
		"cosmo_sigma_profile": { 
			"-0.025": 0.0,
			"-0.024": 0.0,
			"-0.023": 0.0,
			"-0.022": 0.0,
			"-0.021": 0.0,
			"-0.02": 0.0,
			"-0.019": 0.0,
			"-0.018": 0.0,
			"-0.017": 0.0,
			"-0.016": 0.0,
			"-0.015": 0.915487041802,
			"-0.014": 1.51838513997,
			"-0.013": 1.49607111862,
			"-0.012": 1.0805898228,
			"-0.011": 1.57194641321,
			"-0.01": 2.84373064023,
			"-0.009": 3.74972621866,
			"-0.008": 3.58245570387,
			"-0.007": 7.8028236525,
			"-0.006": 30.862770723,
			"-0.005": 35.7144005678,
			"-0.004": 30.4791754734,
			"-0.003": 28.4979753646,
			"-0.002": 19.3016753819,
			"-0.001": 16.3403534256,
			"0.0": 13.9904648485,
			"0.001": 14.9687488694,
			"0.002": 16.7144340617,
			"0.003": 17.771408055,
			"0.004": 19.6519390021,
			"0.005": 21.9257495123,
			"0.006": 20.180194206,
			"0.007": 5.75812597423,
			"0.008": 4.65926704926,
			"0.009": 2.90353062309,
			"0.01": 5.27161394749,
			"0.011": 7.83493952431,
			"0.012": 10.4022416955,
			"0.013": 5.26663961981,
			"0.014": 0.658061755268,
			"0.015": 0.0,
			"0.016": 0.0,
			"0.017": 0.0,
			"0.018": 0.0,
			"0.019": 0.0,
			"0.02": 0.0,
			"0.021": 0.0,
			"0.022": 0.0,
			"0.023": 0.0,
			"0.024": 0.0,
			"0.025": 0.0
		}
	}
}
