{
	 "smiles": "CCOC(=O)[C@@H](CCC1=CC=CC=C1)N[C@@H](C)C(=O)N1CCC[C@H]1C(O)=O", 
	 "Tm": 416.9, 
	 "num_atms": 55, 
	 "gaussian": { 
		 "optdone": 1, 
		 "sigma_profile": "yes", 
		 "theory": "DFT", 
		 "functional": "B3LYP", 
		 "basiset": "6-31G**", 
		 "properties": { 
			 "R2extent": 10455.1229, 
			 "electric_dipole_moment_norm": 6.81187835255, 
			 "electric_quadrupole_moment_norm": 19.2230732384, 
			 "total_energy": -1264.67572009, 
			 "HOMO_LUMO_gap": 0.20333, 
			 "cosmo_polarized_energy": -21.89, 
			 "cosmo_cavitation_energy": 53.15, 
			 "cosmo_dispersion_energy": -34.45, 
			 "cosmo_repulsion_energy": 2.63, 
			 "cosmo_total_nonelectrostatic_energy": 21.33, 
			 "SMD_solvation_energy": 9.89 
		},
		"coords": [
			{
				"x": 3.9764046373,
				"y": -1.8899290133,
				"z": -2.4080011901,
				"element": "C" 
			},
			{
				"x": 2.5576265373,
				"y": -2.1732102547,
				"z": -2.8741257281,
				"element": "C" 
			},
			{
				"x": 1.6707976351,
				"y": -1.0643424046,
				"z": -2.5585026382,
				"element": "O" 
			},
			{
				"x": 1.0995983354,
				"y": -1.048184689,
				"z": -1.3484943216,
				"element": "C" 
			},
			{
				"x": 1.3302915148,
				"y": -1.901751492,
				"z": -0.5023020395,
				"element": "O" 
			},
			{
				"x": 0.1556987209,
				"y": 0.1547335956,
				"z": -1.2193713437,
				"element": "C" 
			},
			{
				"x": -1.1371503936,
				"y": -0.0924445756,
				"z": -2.0431424895,
				"element": "C" 
			},
			{
				"x": -2.2068484659,
				"y": -1.0217440404,
				"z": -1.4113851737,
				"element": "C" 
			},
			{
				"x": -3.2800827734,
				"y": -0.2959510302,
				"z": -0.6141918086,
				"element": "C" 
			},
			{
				"x": -4.1023114832,
				"y": 0.6564552443,
				"z": -1.2391429349,
				"element": "C" 
			},
			{
				"x": -5.0986348777,
				"y": 1.3234735842,
				"z": -0.5276503532,
				"element": "C" 
			},
			{
				"x": -5.2936355827,
				"y": 1.0484502717,
				"z": 0.8284523836,
				"element": "C" 
			},
			{
				"x": -4.4897686527,
				"y": 0.0989936085,
				"z": 1.4583006239,
				"element": "C" 
			},
			{
				"x": -3.493154009,
				"y": -0.5714530591,
				"z": 0.7430872515,
				"element": "C" 
			},
			{
				"x": -0.1053275584,
				"y": 0.4772951566,
				"z": 0.1767599193,
				"element": "N" 
			},
			{
				"x": 0.8802772752,
				"y": 1.3659880062,
				"z": 0.8204737688,
				"element": "C" 
			},
			{
				"x": 0.9920979847,
				"y": 2.7688720082,
				"z": 0.2067870967,
				"element": "C" 
			},
			{
				"x": 0.5740335627,
				"y": 1.510612225,
				"z": 2.3341074649,
				"element": "C" 
			},
			{
				"x": 0.3450786863,
				"y": 2.6164070393,
				"z": 2.820275492,
				"element": "O" 
			},
			{
				"x": 0.6254672888,
				"y": 0.401118194,
				"z": 3.1237240117,
				"element": "N" 
			},
			{
				"x": 0.4853375482,
				"y": 0.5530666864,
				"z": 4.5838438147,
				"element": "C" 
			},
			{
				"x": 0.8086183897,
				"y": -0.8435944582,
				"z": 5.149948835,
				"element": "C" 
			},
			{
				"x": 1.5336484529,
				"y": -1.5681815994,
				"z": 4.0001775579,
				"element": "C" 
			},
			{
				"x": 0.8659778947,
				"y": -0.9844212006,
				"z": 2.7325440767,
				"element": "C" 
			},
			{
				"x": -0.458106396,
				"y": -1.7247579664,
				"z": 2.4574630266,
				"element": "C" 
			},
			{
				"x": -0.4728683963,
				"y": -2.549823118,
				"z": 1.4016403934,
				"element": "O" 
			},
			{
				"x": -1.4167324168,
				"y": -1.6293287635,
				"z": 3.1945610358,
				"element": "O" 
			},
			{
				"x": 4.0208339626,
				"y": -1.8250903716,
				"z": -1.3181759378,
				"element": "H" 
			},
			{
				"x": 4.6372594461,
				"y": -2.7014736393,
				"z": -2.7293662088,
				"element": "H" 
			},
			{
				"x": 4.3487253742,
				"y": -0.9548768475,
				"z": -2.8360925717,
				"element": "H" 
			},
			{
				"x": 2.4998001688,
				"y": -2.2571238291,
				"z": -3.9612875644,
				"element": "H" 
			},
			{
				"x": 2.159563626,
				"y": -3.0810178625,
				"z": -2.4159945984,
				"element": "H" 
			},
			{
				"x": 0.6841286496,
				"y": 0.9617283365,
				"z": -1.7481161608,
				"element": "H" 
			},
			{
				"x": -1.5833527036,
				"y": 0.8873042913,
				"z": -2.2443137411,
				"element": "H" 
			},
			{
				"x": -0.8210884741,
				"y": -0.4876138744,
				"z": -3.0134716141,
				"element": "H" 
			},
			{
				"x": -2.695707275,
				"y": -1.5628135583,
				"z": -2.2314313848,
				"element": "H" 
			},
			{
				"x": -1.7344128169,
				"y": -1.780014897,
				"z": -0.7803653827,
				"element": "H" 
			},
			{
				"x": -3.9691262945,
				"y": 0.8717308711,
				"z": -2.2975384156,
				"element": "H" 
			},
			{
				"x": -5.7249291414,
				"y": 2.0545548007,
				"z": -1.0317961251,
				"element": "H" 
			},
			{
				"x": -6.0670298945,
				"y": 1.569473882,
				"z": 1.3856962024,
				"element": "H" 
			},
			{
				"x": -4.6281604634,
				"y": -0.1260785343,
				"z": 2.5117629126,
				"element": "H" 
			},
			{
				"x": -2.8841553608,
				"y": -1.3111964684,
				"z": 1.2521636912,
				"element": "H" 
			},
			{
				"x": -1.0419953844,
				"y": 0.8571884931,
				"z": 0.2810344782,
				"element": "H" 
			},
			{
				"x": 1.855303062,
				"y": 0.8631754228,
				"z": 0.7338850708,
				"element": "H" 
			},
			{
				"x": 1.7659562796,
				"y": 3.3475557789,
				"z": 0.7160651866,
				"element": "H" 
			},
			{
				"x": 1.2476932144,
				"y": 2.7215094629,
				"z": -0.8558175977,
				"element": "H" 
			},
			{
				"x": 0.0514924669,
				"y": 3.3119398605,
				"z": 0.3260589203,
				"element": "H" 
			},
			{
				"x": 1.1813831741,
				"y": 1.3273936755,
				"z": 4.9233658368,
				"element": "H" 
			},
			{
				"x": -0.5243768486,
				"y": 0.8850087814,
				"z": 4.8396142121,
				"element": "H" 
			},
			{
				"x": -0.1161119192,
				"y": -1.3697784956,
				"z": 5.3924151868,
				"element": "H" 
			},
			{
				"x": 1.4212343937,
				"y": -0.7870448415,
				"z": 6.0537831688,
				"element": "H" 
			},
			{
				"x": 2.5977433875,
				"y": -1.308138,
				"z": 3.982754066,
				"element": "H" 
			},
			{
				"x": 1.4531157568,
				"y": -2.657394266,
				"z": 4.0555398687,
				"element": "H" 
			},
			{
				"x": 1.5205231879,
				"y": -1.0397740885,
				"z": 1.8620549849,
				"element": "H" 
			},
			{
				"x": 0.2536569686,
				"y": -2.3266820378,
				"z": 0.7748367855,
				"element": "H" 
			}
		],
		 "valence_orbital": [ 
			{
				"type": "occ",
				"energy": -0.24692,
				"method": "rhf"
			},
			{
				"type": "occ",
				"energy": -0.23985,
				"method": "rhf"
			},
			{
				"type": "occ",
				"energy": -0.23627,
				"method": "rhf"
			},
			{
				"type": "occ",
				"energy": -0.23347,
				"method": "rhf"
			},
			{
				"type": "occ",
				"energy": -0.22771,
				"method": "rhf"
			},
			{
				"type": "unocc",
				"energy": -0.02438,
				"method": "rhf"
			},
			{
				"type": "unocc",
				"energy": 0.00394,
				"method": "rhf"
			},
			{
				"type": "unocc",
				"energy": 0.00967,
				"method": "rhf"
			},
			{
				"type": "unocc",
				"energy": 0.01901,
				"method": "rhf"
			},
			{
				"type": "unocc",
				"energy": 0.02423,
				"method": "rhf"
			}
		],
		"cosmo_sigma_profile": { 
			"-0.025": 0.0,
			"-0.024": 0.0,
			"-0.023": 0.0,
			"-0.022": 0.0,
			"-0.021": 0.0,
			"-0.02": 0.0,
			"-0.019": 0.0,
			"-0.018": 0.0,
			"-0.017": 0.0,
			"-0.016": 0.0,
			"-0.015": 0.0,
			"-0.014": 0.0,
			"-0.013": 0.0,
			"-0.012": 0.0,
			"-0.011": 0.0,
			"-0.01": 0.0,
			"-0.009": 0.0394409754676,
			"-0.008": 0.967631015636,
			"-0.007": 4.28094759352,
			"-0.006": 13.1784994913,
			"-0.005": 29.9075894071,
			"-0.004": 52.7348118505,
			"-0.003": 52.4552986419,
			"-0.002": 44.5567962461,
			"-0.001": 42.0450351709,
			"0.0": 33.3304973574,
			"0.001": 22.1034707258,
			"0.002": 16.2841661695,
			"0.003": 16.6606502424,
			"0.004": 16.5625171401,
			"0.005": 14.3994833534,
			"0.006": 14.2710721884,
			"0.007": 7.88951543587,
			"0.008": 6.19388332578,
			"0.009": 4.63813850013,
			"0.01": 5.17846958041,
			"0.011": 5.17303419417,
			"0.012": 4.50765758072,
			"0.013": 3.67607004296,
			"0.014": 5.12635578653,
			"0.015": 0.609984791027,
			"0.016": 0.0,
			"0.017": 0.0,
			"0.018": 0.0,
			"0.019": 0.0,
			"0.02": 0.0,
			"0.021": 0.0,
			"0.022": 0.0,
			"0.023": 0.0,
			"0.024": 0.0,
			"0.025": 0.0
		}
	}
}
