{
	 "smiles": "NC1=NC(F)=NC2=C1N=CN2C1OC(CO)C(O)C1O", 
	 "Tm": 533.15, 
	 "num_atms": 32, 
	 "gaussian": { 
		 "optdone": 1, 
		 "sigma_profile": "yes", 
		 "theory": "DFT", 
		 "functional": "B3LYP", 
		 "basiset": "6-31G**", 
		 "properties": { 
			 "R2extent": 5055.329, 
			 "electric_dipole_moment_norm": 4.09036625988, 
			 "electric_quadrupole_moment_norm": 15.5284724767, 
			 "total_energy": -1062.78760271, 
			 "HOMO_LUMO_gap": 0.20107, 
			 "cosmo_polarized_energy": -20.82, 
			 "cosmo_cavitation_energy": 34.55, 
			 "cosmo_dispersion_energy": -25.17, 
			 "cosmo_repulsion_energy": 1.88, 
			 "cosmo_total_nonelectrostatic_energy": 11.26, 
			 "SMD_solvation_energy": 2.69 
		},
		"coords": [
			{
				"x": 1.9015849771,
				"y": 3.8920526697,
				"z": 0.6057979062,
				"element": "N" 
			},
			{
				"x": 1.5177290512,
				"y": 2.6237112371,
				"z": 0.3688139366,
				"element": "C" 
			},
			{
				"x": 2.441186216,
				"y": 1.7364873654,
				"z": -0.0550351179,
				"element": "N" 
			},
			{
				"x": 2.0357377795,
				"y": 0.4992838012,
				"z": -0.2830296607,
				"element": "C" 
			},
			{
				"x": 2.9819602157,
				"y": -0.3368094271,
				"z": -0.7106555144,
				"element": "F" 
			},
			{
				"x": 0.8343115067,
				"y": -0.0502290342,
				"z": -0.156921097,
				"element": "N" 
			},
			{
				"x": -0.0756902604,
				"y": 0.8483851784,
				"z": 0.2696976721,
				"element": "C" 
			},
			{
				"x": 0.1859260597,
				"y": 2.1912976928,
				"z": 0.5498068242,
				"element": "C" 
			},
			{
				"x": -0.9556581648,
				"y": 2.8472447459,
				"z": 0.9710289965,
				"element": "N" 
			},
			{
				"x": -1.8731456245,
				"y": 1.9153983549,
				"z": 0.9479042596,
				"element": "C" 
			},
			{
				"x": -1.4140760805,
				"y": 0.6737981267,
				"z": 0.5296419155,
				"element": "N" 
			},
			{
				"x": -2.2141529786,
				"y": -0.5429262195,
				"z": 0.4612613495,
				"element": "C" 
			},
			{
				"x": -1.6815129549,
				"y": -1.5172609017,
				"z": 1.3303643256,
				"element": "O" 
			},
			{
				"x": -1.5095438307,
				"y": -2.7866168853,
				"z": 0.6622661108,
				"element": "C" 
			},
			{
				"x": -0.2430183522,
				"y": -3.460801892,
				"z": 1.2025415241,
				"element": "C" 
			},
			{
				"x": 0.1013737502,
				"y": -4.5889641532,
				"z": 0.4209115246,
				"element": "O" 
			},
			{
				"x": -1.4596273393,
				"y": -2.4865130096,
				"z": -0.8431154912,
				"element": "C" 
			},
			{
				"x": -0.1587319029,
				"y": -2.306817225,
				"z": -1.3805959763,
				"element": "O" 
			},
			{
				"x": -2.3074824515,
				"y": -1.1931082564,
				"z": -0.9666795058,
				"element": "C" 
			},
			{
				"x": -1.8981819374,
				"y": -0.3643114966,
				"z": -2.0167779185,
				"element": "O" 
			},
			{
				"x": 2.8630370004,
				"y": 4.1527937234,
				"z": 0.4575046562,
				"element": "H" 
			},
			{
				"x": 1.2270232485,
				"y": 4.5711727724,
				"z": 0.9183358923,
				"element": "H" 
			},
			{
				"x": -2.9107988204,
				"y": 2.0524594431,
				"z": 1.2227625777,
				"element": "H" 
			},
			{
				"x": -3.2106760164,
				"y": -0.2383694202,
				"z": 0.8059405321,
				"element": "H" 
			},
			{
				"x": -2.3857396943,
				"y": -3.4184660074,
				"z": 0.8678271123,
				"element": "H" 
			},
			{
				"x": -0.4144217081,
				"y": -3.8102757971,
				"z": 2.2247275566,
				"element": "H" 
			},
			{
				"x": 0.5593345272,
				"y": -2.7111749119,
				"z": 1.2390427275,
				"element": "H" 
			},
			{
				"x": 0.4008907744,
				"y": -4.2334742317,
				"z": -0.4302211619,
				"element": "H" 
			},
			{
				"x": -1.9041312818,
				"y": -3.3028231121,
				"z": -1.4163061636,
				"element": "H" 
			},
			{
				"x": 0.3155212798,
				"y": -1.5965080881,
				"z": -0.8748872831,
				"element": "H" 
			},
			{
				"x": -3.359479299,
				"y": -1.4656282165,
				"z": -1.1197649292,
				"element": "H" 
			},
			{
				"x": -1.040547689,
				"y": -0.7216068255,
				"z": -2.3081875803,
				"element": "H" 
			}
		],
		 "valence_orbital": [ 
			{
				"type": "occ",
				"energy": -0.28291,
				"method": "rhf"
			},
			{
				"type": "occ",
				"energy": -0.27928,
				"method": "rhf"
			},
			{
				"type": "occ",
				"energy": -0.26803,
				"method": "rhf"
			},
			{
				"type": "occ",
				"energy": -0.25996,
				"method": "rhf"
			},
			{
				"type": "occ",
				"energy": -0.23657,
				"method": "rhf"
			},
			{
				"type": "unocc",
				"energy": -0.0355,
				"method": "rhf"
			},
			{
				"type": "unocc",
				"energy": -0.00895,
				"method": "rhf"
			},
			{
				"type": "unocc",
				"energy": 0.02521,
				"method": "rhf"
			},
			{
				"type": "unocc",
				"energy": 0.05552,
				"method": "rhf"
			},
			{
				"type": "unocc",
				"energy": 0.0706,
				"method": "rhf"
			}
		],
		"cosmo_sigma_profile": { 
			"-0.025": 0.0,
			"-0.024": 0.0,
			"-0.023": 0.0,
			"-0.022": 0.0,
			"-0.021": 0.0,
			"-0.02": 0.0,
			"-0.019": 0.0,
			"-0.018": 0.0,
			"-0.017": 0.0,
			"-0.016": 0.0271403866002,
			"-0.015": 1.23158127261,
			"-0.014": 2.40818677955,
			"-0.013": 1.79912424492,
			"-0.012": 1.98667982076,
			"-0.011": 4.34085252469,
			"-0.01": 5.9034208475,
			"-0.009": 6.36877054195,
			"-0.008": 10.1120574687,
			"-0.007": 8.95446387766,
			"-0.006": 12.5245204077,
			"-0.005": 13.0890762002,
			"-0.004": 13.8357047656,
			"-0.003": 16.9449275709,
			"-0.002": 17.5057132748,
			"-0.001": 18.9330090584,
			"0.0": 15.2436280912,
			"0.001": 17.0834487564,
			"0.002": 15.3063592441,
			"0.003": 16.0904103916,
			"0.004": 12.3406969647,
			"0.005": 8.88315824196,
			"0.006": 6.8626049524,
			"0.007": 5.82082618846,
			"0.008": 6.33581750628,
			"0.009": 7.5505293603,
			"0.01": 4.5568443252,
			"0.011": 7.06992869752,
			"0.012": 5.12925387919,
			"0.013": 5.41488507965,
			"0.014": 3.57190210827,
			"0.015": 0.624644209282,
			"0.016": 0.0,
			"0.017": 0.0,
			"0.018": 0.0,
			"0.019": 0.0,
			"0.02": 0.0,
			"0.021": 0.0,
			"0.022": 0.0,
			"0.023": 0.0,
			"0.024": 0.0,
			"0.025": 0.0
		}
	}
}
