{
	 "smiles": "[O-][N+](=O)C1=CC=C(C=C1)N1CSC2=NN=C(N2C1)C1=CC=C(C=C1)[N+]([O-])=O", 
	 "Tm": 593.15, 
	 "num_atms": 39, 
	 "gaussian": { 
		 "optdone": 1, 
		 "sigma_profile": "yes", 
		 "theory": "DFT", 
		 "functional": "B3LYP", 
		 "basiset": "6-31G**", 
		 "properties": { 
			 "R2extent": 13806.6451, 
			 "electric_dipole_moment_norm": 7.41278194877, 
			 "electric_quadrupole_moment_norm": 35.7380378426, 
			 "total_energy": -1644.28755232, 
			 "HOMO_LUMO_gap": 0.13495, 
			 "cosmo_polarized_energy": -33.39, 
			 "cosmo_cavitation_energy": 46.42, 
			 "cosmo_dispersion_energy": -33.08, 
			 "cosmo_repulsion_energy": 2.39, 
			 "cosmo_total_nonelectrostatic_energy": 15.73, 
			 "SMD_solvation_energy": 8.26 
		},
		"coords": [
			{
				"x": 2.9032477944,
				"y": -0.3553091132,
				"z": 5.6092937181,
				"element": "O" 
			},
			{
				"x": 2.9598471289,
				"y": 0.8211420871,
				"z": 5.2519327195,
				"element": "N" 
			},
			{
				"x": 3.4413949891,
				"y": 1.7370178936,
				"z": 5.9191369057,
				"element": "O" 
			},
			{
				"x": 2.4115047494,
				"y": 1.1581519071,
				"z": 3.934384983,
				"element": "C" 
			},
			{
				"x": 2.4397435897,
				"y": 2.4840984673,
				"z": 3.5024042625,
				"element": "C" 
			},
			{
				"x": 1.9121459798,
				"y": 2.8005587098,
				"z": 2.2596310906,
				"element": "C" 
			},
			{
				"x": 1.3647361829,
				"y": 1.8003559576,
				"z": 1.4328161737,
				"element": "C" 
			},
			{
				"x": 1.3580784419,
				"y": 0.4704979509,
				"z": 1.8892132096,
				"element": "C" 
			},
			{
				"x": 1.8730365353,
				"y": 0.1498814832,
				"z": 3.1412669976,
				"element": "C" 
			},
			{
				"x": 0.7930464626,
				"y": 2.174627629,
				"z": 0.1897420979,
				"element": "N" 
			},
			{
				"x": 1.5484168367,
				"y": 3.0094469013,
				"z": -0.7125002896,
				"element": "C" 
			},
			{
				"x": 2.875766916,
				"y": 2.0686230019,
				"z": -1.6470188009,
				"element": "S" 
			},
			{
				"x": 1.9610756266,
				"y": 0.5837037098,
				"z": -1.8908418181,
				"element": "C" 
			},
			{
				"x": 2.4233656281,
				"y": -0.4603264756,
				"z": -2.543670628,
				"element": "N" 
			},
			{
				"x": 1.4661739664,
				"y": -1.4384919984,
				"z": -2.4685537798,
				"element": "N" 
			},
			{
				"x": 0.4430833886,
				"y": -0.9730559953,
				"z": -1.7793819295,
				"element": "C" 
			},
			{
				"x": 0.7111138836,
				"y": 0.3286627066,
				"z": -1.3750292243,
				"element": "N" 
			},
			{
				"x": -0.0581227378,
				"y": 1.248158655,
				"z": -0.5125672263,
				"element": "C" 
			},
			{
				"x": -0.7688694352,
				"y": -1.7475799722,
				"z": -1.4992243535,
				"element": "C" 
			},
			{
				"x": -0.652658357,
				"y": -3.1506705175,
				"z": -1.4372281478,
				"element": "C" 
			},
			{
				"x": -1.7657935074,
				"y": -3.9436184865,
				"z": -1.1950249941,
				"element": "C" 
			},
			{
				"x": -3.0042729932,
				"y": -3.3282976709,
				"z": -1.0092273263,
				"element": "C" 
			},
			{
				"x": -3.1565207218,
				"y": -1.9464493524,
				"z": -1.0796773152,
				"element": "C" 
			},
			{
				"x": -2.0363807539,
				"y": -1.1601179041,
				"z": -1.3313432945,
				"element": "C" 
			},
			{
				"x": -4.1859326809,
				"y": -4.1613821436,
				"z": -0.7393848486,
				"element": "N" 
			},
			{
				"x": -4.024080683,
				"y": -5.3797374489,
				"z": -0.6920975003,
				"element": "O" 
			},
			{
				"x": -5.2622842439,
				"y": -3.5867280145,
				"z": -0.5767283477,
				"element": "O" 
			},
			{
				"x": 2.85533144,
				"y": 3.2456457664,
				"z": 4.1502247551,
				"element": "H" 
			},
			{
				"x": 1.894814803,
				"y": 3.8376458621,
				"z": 1.9430765938,
				"element": "H" 
			},
			{
				"x": 0.9812083714,
				"y": -0.3294305698,
				"z": 1.2634110263,
				"element": "H" 
			},
			{
				"x": 1.8796740851,
				"y": -0.8713404364,
				"z": 3.5012078998,
				"element": "H" 
			},
			{
				"x": 0.8684372018,
				"y": 3.4672381899,
				"z": -1.4340289361,
				"element": "H" 
			},
			{
				"x": 2.0839800469,
				"y": 3.7954525813,
				"z": -0.184715301,
				"element": "H" 
			},
			{
				"x": -0.7487734328,
				"y": 1.8252264581,
				"z": -1.1376554901,
				"element": "H" 
			},
			{
				"x": -0.6417694594,
				"y": 0.6621144953,
				"z": 0.1965859673,
				"element": "H" 
			},
			{
				"x": 0.3230200614,
				"y": -3.598631411,
				"z": -1.5862108898,
				"element": "H" 
			},
			{
				"x": -1.6937222195,
				"y": -5.0225812614,
				"z": -1.1397690583,
				"element": "H" 
			},
			{
				"x": -4.1400734626,
				"y": -1.5122211389,
				"z": -0.9521161249,
				"element": "H" 
			},
			{
				"x": -2.167689421,
				"y": -0.0889805027,
				"z": -1.4361327759,
				"element": "H" 
			}
		],
		 "valence_orbital": [ 
			{
				"type": "occ",
				"energy": -0.29597,
				"method": "rhf"
			},
			{
				"type": "occ",
				"energy": -0.29282,
				"method": "rhf"
			},
			{
				"type": "occ",
				"energy": -0.27405,
				"method": "rhf"
			},
			{
				"type": "occ",
				"energy": -0.26124,
				"method": "rhf"
			},
			{
				"type": "occ",
				"energy": -0.2395,
				"method": "rhf"
			},
			{
				"type": "unocc",
				"energy": -0.10455,
				"method": "rhf"
			},
			{
				"type": "unocc",
				"energy": -0.09792,
				"method": "rhf"
			},
			{
				"type": "unocc",
				"energy": -0.04732,
				"method": "rhf"
			},
			{
				"type": "unocc",
				"energy": -0.04388,
				"method": "rhf"
			},
			{
				"type": "unocc",
				"energy": -0.03747,
				"method": "rhf"
			}
		],
		"cosmo_sigma_profile": { 
			"-0.025": 0.0,
			"-0.024": 0.0,
			"-0.023": 0.0,
			"-0.022": 0.0,
			"-0.021": 0.0,
			"-0.02": 0.0,
			"-0.019": 0.0,
			"-0.018": 0.0,
			"-0.017": 0.0,
			"-0.016": 0.0,
			"-0.015": 0.0,
			"-0.014": 0.0,
			"-0.013": 0.0,
			"-0.012": 0.82884795836,
			"-0.011": 5.39955511491,
			"-0.01": 10.4095638242,
			"-0.009": 11.4392288213,
			"-0.008": 15.0607105039,
			"-0.007": 18.2349894745,
			"-0.006": 19.2180344129,
			"-0.005": 17.0950798125,
			"-0.004": 17.4405007686,
			"-0.003": 17.2512923639,
			"-0.002": 22.4907225861,
			"-0.001": 24.8819646715,
			"0.0": 29.281885671,
			"0.001": 32.437104191,
			"0.002": 18.9908331455,
			"0.003": 12.3899178946,
			"0.004": 12.427109208,
			"0.005": 11.2182361029,
			"0.006": 11.1255615349,
			"0.007": 17.5365772943,
			"0.008": 17.6110080091,
			"0.009": 11.2846488062,
			"0.01": 7.68702830299,
			"0.011": 2.94640737118,
			"0.012": 3.12435462222,
			"0.013": 3.26437768192,
			"0.014": 2.56426064017,
			"0.015": 1.72632733505,
			"0.016": 0.881824004985,
			"0.017": 0.0349843962862,
			"0.018": 0.0,
			"0.019": 0.0,
			"0.02": 0.0,
			"0.021": 0.0,
			"0.022": 0.0,
			"0.023": 0.0,
			"0.024": 0.0,
			"0.025": 0.0
		}
	}
}
