{
	 "smiles": "C1=CC=CC=C1", 
	 "Tm": 278.65, 
	 "num_atms": 12, 
	 "gaussian": { 
		 "optdone": 1, 
		 "sigma_profile": "yes", 
		 "theory": "DFT", 
		 "functional": "B3LYP", 
		 "basiset": "6-31G**", 
		 "properties": { 
			 "R2extent": 931.6161, 
			 "electric_dipole_moment_norm": 0.0, 
			 "electric_quadrupole_moment_norm": 4.46894368839, 
			 "total_energy": -232.253109668, 
			 "HOMO_LUMO_gap": 0.24932, 
			 "cosmo_polarized_energy": -2.94, 
			 "cosmo_cavitation_energy": 15.28, 
			 "cosmo_dispersion_energy": -11.66, 
			 "cosmo_repulsion_energy": 1.0, 
			 "cosmo_total_nonelectrostatic_energy": 4.62, 
			 "SMD_solvation_energy": 2.75 
		},
		"coords": [
			{
				"x": -1.2981838872,
				"y": -0.1266220918,
				"z": 0.4749809221,
				"element": "C" 
			},
			{
				"x": -0.4049618856,
				"y": -0.9966224948,
				"z": -0.1548183237,
				"element": "C" 
			},
			{
				"x": -0.5856020937,
				"y": -1.3303878851,
				"z": -1.4992132071,
				"element": "C" 
			},
			{
				"x": -1.6594821908,
				"y": -0.7941433982,
				"z": -2.2138027412,
				"element": "C" 
			},
			{
				"x": -2.5527033283,
				"y": 0.075869844,
				"z": -1.5840041913,
				"element": "C" 
			},
			{
				"x": -2.3720538132,
				"y": 0.4096176794,
				"z": -0.2396176239,
				"element": "C" 
			},
			{
				"x": -1.1576362738,
				"y": 0.1329674473,
				"z": 1.5206736089,
				"element": "H" 
			},
			{
				"x": 0.4303430034,
				"y": -1.413721925,
				"z": 0.400976202,
				"element": "H" 
			},
			{
				"x": 0.1091738527,
				"y": -2.007077143,
				"z": -1.9890959849,
				"element": "H" 
			},
			{
				"x": -1.7999818707,
				"y": -1.0537537236,
				"z": -3.2594982215,
				"element": "H" 
			},
			{
				"x": -3.3879817495,
				"y": 0.492958609,
				"z": -2.1398471946,
				"element": "H" 
			},
			{
				"x": -3.0668297632,
				"y": 1.0863150816,
				"z": 0.2502667551,
				"element": "H" 
			}
		],
		 "valence_orbital": [ 
			{
				"type": "occ",
				"energy": -0.35967,
				"method": "rhf"
			},
			{
				"type": "occ",
				"energy": -0.33953,
				"method": "rhf"
			},
			{
				"type": "occ",
				"energy": -0.33953,
				"method": "rhf"
			},
			{
				"type": "occ",
				"energy": -0.24677,
				"method": "rhf"
			},
			{
				"type": "occ",
				"energy": -0.24677,
				"method": "rhf"
			},
			{
				"type": "unocc",
				"energy": 0.00255,
				"method": "rhf"
			},
			{
				"type": "unocc",
				"energy": 0.00255,
				"method": "rhf"
			},
			{
				"type": "unocc",
				"energy": 0.09128,
				"method": "rhf"
			},
			{
				"type": "unocc",
				"energy": 0.14514,
				"method": "rhf"
			},
			{
				"type": "unocc",
				"energy": 0.14514,
				"method": "rhf"
			}
		],
		"cosmo_sigma_profile": { 
			"-0.025": 0.0,
			"-0.024": 0.0,
			"-0.023": 0.0,
			"-0.022": 0.0,
			"-0.021": 0.0,
			"-0.02": 0.0,
			"-0.019": 0.0,
			"-0.018": 0.0,
			"-0.017": 0.0,
			"-0.016": 0.0,
			"-0.015": 0.0,
			"-0.014": 0.0,
			"-0.013": 0.0,
			"-0.012": 0.0,
			"-0.011": 0.0,
			"-0.01": 0.0,
			"-0.009": 0.0,
			"-0.008": 0.0,
			"-0.007": 0.0,
			"-0.006": 3.17396709928,
			"-0.005": 12.6758524837,
			"-0.004": 13.2462996734,
			"-0.003": 14.6814172205,
			"-0.002": 9.31112288667,
			"-0.001": 8.99014585932,
			"0.0": 6.01582888938,
			"0.001": 8.03569670152,
			"0.002": 7.51702521869,
			"0.003": 7.84659244966,
			"0.004": 9.41507752601,
			"0.005": 8.82572876683,
			"0.006": 9.32238219205,
			"0.007": 3.28962825802,
			"0.008": 0.0,
			"0.009": 0.0,
			"0.01": 0.0,
			"0.011": 0.0,
			"0.012": 0.0,
			"0.013": 0.0,
			"0.014": 0.0,
			"0.015": 0.0,
			"0.016": 0.0,
			"0.017": 0.0,
			"0.018": 0.0,
			"0.019": 0.0,
			"0.02": 0.0,
			"0.021": 0.0,
			"0.022": 0.0,
			"0.023": 0.0,
			"0.024": 0.0,
			"0.025": 0.0
		}
	}
}
