{
	 "smiles": "COC(=O)C1=CC=C(C=C)C=C1", 
	 "Tm": 309.15, 
	 "num_atms": 22, 
	 "gaussian": { 
		 "optdone": 1, 
		 "sigma_profile": "yes", 
		 "theory": "DFT", 
		 "functional": "B3LYP", 
		 "basiset": "6-31G**", 
		 "properties": { 
			 "R2extent": 3022.1851, 
			 "electric_dipole_moment_norm": 1.93536118076, 
			 "electric_quadrupole_moment_norm": 11.7099253251, 
			 "total_energy": -537.533141095, 
			 "HOMO_LUMO_gap": 0.17335, 
			 "cosmo_polarized_energy": -7.95, 
			 "cosmo_cavitation_energy": 26.65, 
			 "cosmo_dispersion_energy": -19.32, 
			 "cosmo_repulsion_energy": 1.52, 
			 "cosmo_total_nonelectrostatic_energy": 8.85, 
			 "SMD_solvation_energy": 6.83 
		},
		"coords": [
			{
				"x": -3.17619009,
				"y": -1.1603579374,
				"z": -0.5994632812,
				"element": "C" 
			},
			{
				"x": -1.8791166914,
				"y": -0.7309256896,
				"z": -0.160763464,
				"element": "O" 
			},
			{
				"x": -1.2326204306,
				"y": 0.1045017887,
				"z": -1.0083039941,
				"element": "C" 
			},
			{
				"x": -1.7076786188,
				"y": 0.470359426,
				"z": -2.0666482764,
				"element": "O" 
			},
			{
				"x": 0.103746758,
				"y": 0.5123201395,
				"z": -0.4967553929,
				"element": "C" 
			},
			{
				"x": 0.8735176078,
				"y": 1.377799227,
				"z": -1.2834262743,
				"element": "C" 
			},
			{
				"x": 2.1283643963,
				"y": 1.7869595548,
				"z": -0.8478293525,
				"element": "C" 
			},
			{
				"x": 2.6536007581,
				"y": 1.3476709567,
				"z": 0.3813510802,
				"element": "C" 
			},
			{
				"x": 3.9876779809,
				"y": 1.8140427329,
				"z": 0.7901416008,
				"element": "C" 
			},
			{
				"x": 4.6479111871,
				"y": 1.5059075216,
				"z": 1.9136090942,
				"element": "C" 
			},
			{
				"x": 1.8682023607,
				"y": 0.4774513235,
				"z": 1.1621493756,
				"element": "C" 
			},
			{
				"x": 0.6138532178,
				"y": 0.0651029427,
				"z": 0.7326159464,
				"element": "C" 
			},
			{
				"x": -3.5508501554,
				"y": -1.8161859989,
				"z": 0.186514091,
				"element": "H" 
			},
			{
				"x": -3.1038422617,
				"y": -1.6995649,
				"z": -1.5474542165,
				"element": "H" 
			},
			{
				"x": -3.841212839,
				"y": -0.3034388041,
				"z": -0.7340014097,
				"element": "H" 
			},
			{
				"x": 0.4691794208,
				"y": 1.7167653763,
				"z": -2.2312006904,
				"element": "H" 
			},
			{
				"x": 2.7185772182,
				"y": 2.4589851439,
				"z": -1.4654032401,
				"element": "H" 
			},
			{
				"x": 4.4695721803,
				"y": 2.4845371307,
				"z": 0.079442206,
				"element": "H" 
			},
			{
				"x": 5.6343276543,
				"y": 1.9136596002,
				"z": 2.1083123367,
				"element": "H" 
			},
			{
				"x": 4.2419555648,
				"y": 0.8459897763,
				"z": 2.6745027092,
				"element": "H" 
			},
			{
				"x": 2.2430212499,
				"y": 0.1196036267,
				"z": 2.1158079945,
				"element": "H" 
			},
			{
				"x": 0.0202035319,
				"y": -0.6048829375,
				"z": 1.3439031575,
				"element": "H" 
			}
		],
		 "valence_orbital": [ 
			{
				"type": "occ",
				"energy": -0.3044,
				"method": "rhf"
			},
			{
				"type": "occ",
				"energy": -0.29931,
				"method": "rhf"
			},
			{
				"type": "occ",
				"energy": -0.27144,
				"method": "rhf"
			},
			{
				"type": "occ",
				"energy": -0.25922,
				"method": "rhf"
			},
			{
				"type": "occ",
				"energy": -0.23255,
				"method": "rhf"
			},
			{
				"type": "unocc",
				"energy": -0.0592,
				"method": "rhf"
			},
			{
				"type": "unocc",
				"energy": -0.00789,
				"method": "rhf"
			},
			{
				"type": "unocc",
				"energy": 0.01596,
				"method": "rhf"
			},
			{
				"type": "unocc",
				"energy": 0.08614,
				"method": "rhf"
			},
			{
				"type": "unocc",
				"energy": 0.09542,
				"method": "rhf"
			}
		],
		"cosmo_sigma_profile": { 
			"-0.025": 0.0,
			"-0.024": 0.0,
			"-0.023": 0.0,
			"-0.022": 0.0,
			"-0.021": 0.0,
			"-0.02": 0.0,
			"-0.019": 0.0,
			"-0.018": 0.0,
			"-0.017": 0.0,
			"-0.016": 0.0,
			"-0.015": 0.0,
			"-0.014": 0.0,
			"-0.013": 0.0,
			"-0.012": 0.0,
			"-0.011": 0.0,
			"-0.01": 0.0,
			"-0.009": 0.0,
			"-0.008": 0.673659280373,
			"-0.007": 3.44163545798,
			"-0.006": 14.5419415633,
			"-0.005": 17.8350213502,
			"-0.004": 18.9301609236,
			"-0.003": 19.5871973324,
			"-0.002": 15.3594761563,
			"-0.001": 13.4017612717,
			"0.0": 13.3136554768,
			"0.001": 16.1827450125,
			"0.002": 16.7330051007,
			"0.003": 22.1693108364,
			"0.004": 15.9884263278,
			"0.005": 6.31842410862,
			"0.006": 4.26219579195,
			"0.007": 1.83335011734,
			"0.008": 1.78489134206,
			"0.009": 1.2863643556,
			"0.01": 1.45875713474,
			"0.011": 3.01479134048,
			"0.012": 4.44499566741,
			"0.013": 0.529406304777,
			"0.014": 0.0,
			"0.015": 0.0,
			"0.016": 0.0,
			"0.017": 0.0,
			"0.018": 0.0,
			"0.019": 0.0,
			"0.02": 0.0,
			"0.021": 0.0,
			"0.022": 0.0,
			"0.023": 0.0,
			"0.024": 0.0,
			"0.025": 0.0
		}
	}
}
