{
	 "smiles": "NC1CCC2=C(C1)C=NN2", 
	 "Tm": 442.15, 
	 "num_atms": 21, 
	 "gaussian": { 
		 "optdone": 1, 
		 "sigma_profile": "yes", 
		 "theory": "DFT", 
		 "functional": "B3LYP", 
		 "basiset": "6-31G**", 
		 "properties": { 
			 "R2extent": 1621.4924, 
			 "electric_dipole_moment_norm": 3.08359357082, 
			 "electric_quadrupole_moment_norm": 10.5794722553, 
			 "total_energy": -437.613479875, 
			 "HOMO_LUMO_gap": 0.24847, 
			 "cosmo_polarized_energy": -12.88, 
			 "cosmo_cavitation_energy": 22.82, 
			 "cosmo_dispersion_energy": -17.44, 
			 "cosmo_repulsion_energy": 1.43, 
			 "cosmo_total_nonelectrostatic_energy": 6.81, 
			 "SMD_solvation_energy": 1.46 
		},
		"coords": [
			{
				"x": 0.6334630457,
				"y": 0.540242742,
				"z": 2.9285758028,
				"element": "N" 
			},
			{
				"x": 0.1908269747,
				"y": 0.4216682958,
				"z": 1.5354424295,
				"element": "C" 
			},
			{
				"x": 1.3563805197,
				"y": -0.1078106009,
				"z": 0.6793636294,
				"element": "C" 
			},
			{
				"x": 1.001039887,
				"y": -0.1667626613,
				"z": -0.820858587,
				"element": "C" 
			},
			{
				"x": -0.3675835506,
				"y": -0.7558282068,
				"z": -0.9682881341,
				"element": "C" 
			},
			{
				"x": -1.2988439996,
				"y": -0.9167223414,
				"z": 0.0421992195,
				"element": "C" 
			},
			{
				"x": -1.0163958136,
				"y": -0.5355551503,
				"z": 1.4670301279,
				"element": "C" 
			},
			{
				"x": -2.4258495296,
				"y": -1.4828260819,
				"z": -0.6023089423,
				"element": "C" 
			},
			{
				"x": -2.2205256409,
				"y": -1.6624841285,
				"z": -1.9068245334,
				"element": "N" 
			},
			{
				"x": -0.9586242415,
				"y": -1.2114196199,
				"z": -2.1060411082,
				"element": "N" 
			},
			{
				"x": -0.1359508427,
				"y": 0.8710624647,
				"z": 3.5072903223,
				"element": "H" 
			},
			{
				"x": 1.3653762444,
				"y": 1.2437589684,
				"z": 3.001656404,
				"element": "H" 
			},
			{
				"x": -0.1285751798,
				"y": 1.3881737553,
				"z": 1.100310804,
				"element": "H" 
			},
			{
				"x": 1.6218949327,
				"y": -1.1071342303,
				"z": 1.04393923,
				"element": "H" 
			},
			{
				"x": 2.239054126,
				"y": 0.5274192199,
				"z": 0.8225180932,
				"element": "H" 
			},
			{
				"x": 1.0287518931,
				"y": 0.8443406755,
				"z": -1.252587031,
				"element": "H" 
			},
			{
				"x": 1.7521103388,
				"y": -0.7543029006,
				"z": -1.3640715318,
				"element": "H" 
			},
			{
				"x": -1.8920608744,
				"y": -0.0615530468,
				"z": 1.9304042899,
				"element": "H" 
			},
			{
				"x": -0.7814169177,
				"y": -1.4183103233,
				"z": 2.0777829676,
				"element": "H" 
			},
			{
				"x": -3.3769753737,
				"y": -1.767421929,
				"z": -0.1701843917,
				"element": "H" 
			},
			{
				"x": -0.571995998,
				"y": -1.2439349008,
				"z": -3.0363490606,
				"element": "H" 
			}
		],
		 "valence_orbital": [ 
			{
				"type": "occ",
				"energy": -0.31875,
				"method": "rhf"
			},
			{
				"type": "occ",
				"energy": -0.27374,
				"method": "rhf"
			},
			{
				"type": "occ",
				"energy": -0.2419,
				"method": "rhf"
			},
			{
				"type": "occ",
				"energy": -0.23746,
				"method": "rhf"
			},
			{
				"type": "occ",
				"energy": -0.22092,
				"method": "rhf"
			},
			{
				"type": "unocc",
				"energy": 0.02755,
				"method": "rhf"
			},
			{
				"type": "unocc",
				"energy": 0.07623,
				"method": "rhf"
			},
			{
				"type": "unocc",
				"energy": 0.07863,
				"method": "rhf"
			},
			{
				"type": "unocc",
				"energy": 0.08904,
				"method": "rhf"
			},
			{
				"type": "unocc",
				"energy": 0.10718,
				"method": "rhf"
			}
		],
		"cosmo_sigma_profile": { 
			"-0.025": 0.0,
			"-0.024": 0.0,
			"-0.023": 0.0,
			"-0.022": 0.0,
			"-0.021": 0.0,
			"-0.02": 0.0,
			"-0.019": 0.0,
			"-0.018": 0.0,
			"-0.017": 0.0,
			"-0.016": 0.496320724211,
			"-0.015": 1.33729612716,
			"-0.014": 1.61399106692,
			"-0.013": 0.829102651063,
			"-0.012": 0.692853595978,
			"-0.011": 0.809006545257,
			"-0.01": 1.76427580223,
			"-0.009": 3.93369734143,
			"-0.008": 3.47688331399,
			"-0.007": 4.08670147555,
			"-0.006": 6.18531671628,
			"-0.005": 7.55037312717,
			"-0.004": 12.798251653,
			"-0.003": 14.6834335298,
			"-0.002": 20.3471907215,
			"-0.001": 21.5734042822,
			"0.0": 12.8612345467,
			"0.001": 8.07687248682,
			"0.002": 5.53824588401,
			"0.003": 6.01957888317,
			"0.004": 5.43393368194,
			"0.005": 5.24892807857,
			"0.006": 7.00063719942,
			"0.007": 3.71672910686,
			"0.008": 3.06814377243,
			"0.009": 2.30432588629,
			"0.01": 2.91362822523,
			"0.011": 2.2483329577,
			"0.012": 1.75190441552,
			"0.013": 1.53834720734,
			"0.014": 1.70465359367,
			"0.015": 2.05130584501,
			"0.016": 1.60019060512,
			"0.017": 1.17470414413,
			"0.018": 0.577593917567,
			"0.019": 0.506643549923,
			"0.02": 0.253595654801,
			"0.021": 0.0,
			"0.022": 0.0,
			"0.023": 0.0,
			"0.024": 0.0,
			"0.025": 0.0
		}
	}
}
