{
	 "smiles": "CN(C(N)=O)C1=CC=CC=C1", 
	 "Tm": 349.15, 
	 "num_atms": 21, 
	 "gaussian": { 
		 "optdone": 1, 
		 "sigma_profile": "yes", 
		 "theory": "DFT", 
		 "functional": "B3LYP", 
		 "basiset": "6-31G**", 
		 "properties": { 
			 "R2extent": 2079.5384, 
			 "electric_dipole_moment_norm": 3.52023244829, 
			 "electric_quadrupole_moment_norm": 11.3279976108, 
			 "total_energy": -495.626295821, 
			 "HOMO_LUMO_gap": 0.20741, 
			 "cosmo_polarized_energy": -11.73, 
			 "cosmo_cavitation_energy": 24.27, 
			 "cosmo_dispersion_energy": -17.86, 
			 "cosmo_repulsion_energy": 1.44, 
			 "cosmo_total_nonelectrostatic_energy": 7.86, 
			 "SMD_solvation_energy": 5.19 
		},
		"coords": [
			{
				"x": 0.1837537072,
				"y": 2.4505708672,
				"z": -0.0058270012,
				"element": "C" 
			},
			{
				"x": 0.6039283354,
				"y": 1.303095243,
				"z": 0.8002079101,
				"element": "N" 
			},
			{
				"x": 0.7379735618,
				"y": 1.5254480748,
				"z": 2.1724130219,
				"element": "C" 
			},
			{
				"x": 0.9876365221,
				"y": 0.4138326279,
				"z": 2.9578774379,
				"element": "N" 
			},
			{
				"x": 0.6630110772,
				"y": 2.6489053286,
				"z": 2.6567206681,
				"element": "O" 
			},
			{
				"x": 0.7063639782,
				"y": 0.0309346205,
				"z": 0.1717752839,
				"element": "C" 
			},
			{
				"x": 1.8282602787,
				"y": -0.79021869,
				"z": 0.3774849355,
				"element": "C" 
			},
			{
				"x": 1.9239716799,
				"y": -2.0239328859,
				"z": -0.2654202607,
				"element": "C" 
			},
			{
				"x": 0.9237967538,
				"y": -2.4473520589,
				"z": -1.1430378517,
				"element": "C" 
			},
			{
				"x": -0.1806294094,
				"y": -1.6244206114,
				"z": -1.3688577225,
				"element": "C" 
			},
			{
				"x": -0.2943999284,
				"y": -0.3980249677,
				"z": -0.7145184715,
				"element": "C" 
			},
			{
				"x": -0.9072979518,
				"y": 2.5108116135,
				"z": -0.1103164048,
				"element": "H" 
			},
			{
				"x": 0.5275755978,
				"y": 3.3555151808,
				"z": 0.4926880063,
				"element": "H" 
			},
			{
				"x": 0.6311310205,
				"y": 2.3764518716,
				"z": -0.9996009378,
				"element": "H" 
			},
			{
				"x": 0.8628055896,
				"y": 0.6058789356,
				"z": 3.9406171476,
				"element": "H" 
			},
			{
				"x": 0.6891595666,
				"y": -0.4969162238,
				"z": 2.6413487955,
				"element": "H" 
			},
			{
				"x": 2.6204241257,
				"y": -0.4511941926,
				"z": 1.0358799178,
				"element": "H" 
			},
			{
				"x": 2.7974416243,
				"y": -2.6466383448,
				"z": -0.0937727243,
				"element": "H" 
			},
			{
				"x": 1.0078709666,
				"y": -3.4038222923,
				"z": -1.6499476155,
				"element": "H" 
			},
			{
				"x": -0.9649659961,
				"y": -1.9397333053,
				"z": -2.0511411025,
				"element": "H" 
			},
			{
				"x": -1.1639110998,
				"y": 0.2282092093,
				"z": -0.8857730321,
				"element": "H" 
			}
		],
		 "valence_orbital": [ 
			{
				"type": "occ",
				"energy": -0.28301,
				"method": "rhf"
			},
			{
				"type": "occ",
				"energy": -0.26786,
				"method": "rhf"
			},
			{
				"type": "occ",
				"energy": -0.25931,
				"method": "rhf"
			},
			{
				"type": "occ",
				"energy": -0.2514,
				"method": "rhf"
			},
			{
				"type": "occ",
				"energy": -0.21929,
				"method": "rhf"
			},
			{
				"type": "unocc",
				"energy": -0.01188,
				"method": "rhf"
			},
			{
				"type": "unocc",
				"energy": -0.01086,
				"method": "rhf"
			},
			{
				"type": "unocc",
				"energy": 0.06307,
				"method": "rhf"
			},
			{
				"type": "unocc",
				"energy": 0.08527,
				"method": "rhf"
			},
			{
				"type": "unocc",
				"energy": 0.1002,
				"method": "rhf"
			}
		],
		"cosmo_sigma_profile": { 
			"-0.025": 0.0,
			"-0.024": 0.0,
			"-0.023": 0.0,
			"-0.022": 0.0,
			"-0.021": 0.0,
			"-0.02": 0.0,
			"-0.019": 0.0,
			"-0.018": 0.0,
			"-0.017": 0.0,
			"-0.016": 0.0,
			"-0.015": 0.0,
			"-0.014": 0.118846430484,
			"-0.013": 1.08452161066,
			"-0.012": 1.97422028178,
			"-0.011": 1.83440017322,
			"-0.01": 1.55487735309,
			"-0.009": 2.46335917167,
			"-0.008": 1.96432903356,
			"-0.007": 2.29984998155,
			"-0.006": 8.5134837359,
			"-0.005": 14.5829574678,
			"-0.004": 17.389182987,
			"-0.003": 16.1448710217,
			"-0.002": 17.7140053692,
			"-0.001": 14.8261191805,
			"0.0": 12.5850572313,
			"0.001": 9.92295253132,
			"0.002": 10.7941882733,
			"0.003": 11.5897234843,
			"0.004": 9.91701992395,
			"0.005": 10.3815300209,
			"0.006": 4.21191302916,
			"0.007": 2.08964627517,
			"0.008": 2.04824476048,
			"0.009": 2.06026005423,
			"0.01": 1.32910443542,
			"0.011": 1.34816867691,
			"0.012": 1.98060164946,
			"0.013": 1.96765978559,
			"0.014": 5.85814317367,
			"0.015": 1.90481836271,
			"0.016": 0.0,
			"0.017": 0.0,
			"0.018": 0.0,
			"0.019": 0.0,
			"0.02": 0.0,
			"0.021": 0.0,
			"0.022": 0.0,
			"0.023": 0.0,
			"0.024": 0.0,
			"0.025": 0.0
		}
	}
}
