{
	 "smiles": "CCCCCCCCC(Cl)=O", 
	 "Tm": 212.35, 
	 "num_atms": 28, 
	 "gaussian": { 
		 "optdone": 1, 
		 "sigma_profile": "yes", 
		 "theory": "DFT", 
		 "functional": "B3LYP", 
		 "basiset": "6-31G**", 
		 "properties": { 
			 "R2extent": 4013.3986, 
			 "electric_dipole_moment_norm": 3.3659363764, 
			 "electric_quadrupole_moment_norm": 12.2474552034, 
			 "total_energy": -888.644999698, 
			 "HOMO_LUMO_gap": 0.25899, 
			 "cosmo_polarized_energy": -5.61, 
			 "cosmo_cavitation_energy": 31.25, 
			 "cosmo_dispersion_energy": -21.48, 
			 "cosmo_repulsion_energy": 1.79, 
			 "cosmo_total_nonelectrostatic_energy": 11.56, 
			 "SMD_solvation_energy": 5.11 
		},
		"coords": [
			{
				"x": -0.6277792308,
				"y": 2.5273778296,
				"z": -1.0300084488,
				"element": "C" 
			},
			{
				"x": -0.7404116784,
				"y": 1.2141899688,
				"z": -1.8128776485,
				"element": "C" 
			},
			{
				"x": -0.2290500208,
				"y": -0.0431217535,
				"z": -1.0863090402,
				"element": "C" 
			},
			{
				"x": 1.2836608917,
				"y": -0.0452593324,
				"z": -0.761622258,
				"element": "C" 
			},
			{
				"x": 1.6985088372,
				"y": 0.5123902761,
				"z": 0.6214913328,
				"element": "C" 
			},
			{
				"x": 1.8532089725,
				"y": -0.5481074417,
				"z": 1.7295552361,
				"element": "C" 
			},
			{
				"x": 0.5830431707,
				"y": -1.3028957713,
				"z": 2.1569939053,
				"element": "C" 
			},
			{
				"x": -0.4396921565,
				"y": -0.4092465724,
				"z": 2.8676113481,
				"element": "C" 
			},
			{
				"x": -1.6597679471,
				"y": -1.1683717979,
				"z": 3.324513415,
				"element": "C" 
			},
			{
				"x": -2.8555701357,
				"y": -0.0751607009,
				"z": 4.1989379476,
				"element": "Cl" 
			},
			{
				"x": -1.906552146,
				"y": -2.3215448075,
				"z": 3.1831569871,
				"element": "O" 
			},
			{
				"x": -1.0597465212,
				"y": 3.3578562744,
				"z": -1.5982611339,
				"element": "H" 
			},
			{
				"x": -1.1633313788,
				"y": 2.4704655444,
				"z": -0.0747082718,
				"element": "H" 
			},
			{
				"x": 0.4133936639,
				"y": 2.7876930923,
				"z": -0.8135912195,
				"element": "H" 
			},
			{
				"x": -1.7918659985,
				"y": 1.0523864044,
				"z": -2.083311619,
				"element": "H" 
			},
			{
				"x": -0.1972523619,
				"y": 1.3145407047,
				"z": -2.7627729254,
				"element": "H" 
			},
			{
				"x": -0.8145633075,
				"y": -0.1911366706,
				"z": -0.1694005762,
				"element": "H" 
			},
			{
				"x": -0.4551576042,
				"y": -0.9073624074,
				"z": -1.7232304017,
				"element": "H" 
			},
			{
				"x": 1.8001846631,
				"y": 0.5222367371,
				"z": -1.5466570216,
				"element": "H" 
			},
			{
				"x": 1.6691196346,
				"y": -1.0698341041,
				"z": -0.8461862359,
				"element": "H" 
			},
			{
				"x": 0.9977013565,
				"y": 1.2931583712,
				"z": 0.9399089551,
				"element": "H" 
			},
			{
				"x": 2.6688595667,
				"y": 1.0148681385,
				"z": 0.5249596249,
				"element": "H" 
			},
			{
				"x": 2.2932290011,
				"y": -0.0704628181,
				"z": 2.616072833,
				"element": "H" 
			},
			{
				"x": 2.5892734364,
				"y": -1.2899803058,
				"z": 1.3933268696,
				"element": "H" 
			},
			{
				"x": 0.1098863602,
				"y": -1.7829364521,
				"z": 1.2939189631,
				"element": "H" 
			},
			{
				"x": 0.8625343047,
				"y": -2.1168380898,
				"z": 2.835063278,
				"element": "H" 
			},
			{
				"x": -0.792703966,
				"y": 0.4103629501,
				"z": 2.2309367612,
				"element": "H" 
			},
			{
				"x": -0.0070594061,
				"y": 0.0757327338,
				"z": 3.7517893436,
				"element": "H" 
			}
		],
		 "valence_orbital": [ 
			{
				"type": "occ",
				"energy": -0.31833,
				"method": "rhf"
			},
			{
				"type": "occ",
				"energy": -0.31431,
				"method": "rhf"
			},
			{
				"type": "occ",
				"energy": -0.31208,
				"method": "rhf"
			},
			{
				"type": "occ",
				"energy": -0.30945,
				"method": "rhf"
			},
			{
				"type": "occ",
				"energy": -0.2951,
				"method": "rhf"
			},
			{
				"type": "unocc",
				"energy": -0.03611,
				"method": "rhf"
			},
			{
				"type": "unocc",
				"energy": 0.01814,
				"method": "rhf"
			},
			{
				"type": "unocc",
				"energy": 0.06122,
				"method": "rhf"
			},
			{
				"type": "unocc",
				"energy": 0.08842,
				"method": "rhf"
			},
			{
				"type": "unocc",
				"energy": 0.09372,
				"method": "rhf"
			}
		],
		"cosmo_sigma_profile": { 
			"-0.025": 0.0,
			"-0.024": 0.0,
			"-0.023": 0.0,
			"-0.022": 0.0,
			"-0.021": 0.0,
			"-0.02": 0.0,
			"-0.019": 0.0,
			"-0.018": 0.0,
			"-0.017": 0.0,
			"-0.016": 0.0,
			"-0.015": 0.0,
			"-0.014": 0.0,
			"-0.013": 0.0,
			"-0.012": 0.0,
			"-0.011": 0.0,
			"-0.01": 0.0,
			"-0.009": 0.0,
			"-0.008": 0.166148774108,
			"-0.007": 3.35605996224,
			"-0.006": 5.43804852017,
			"-0.005": 8.8133491683,
			"-0.004": 9.52345145251,
			"-0.003": 14.6776285735,
			"-0.002": 31.1582969275,
			"-0.001": 42.0216971436,
			"0.0": 40.0468857013,
			"0.001": 31.8196575365,
			"0.002": 14.3540918764,
			"0.003": 6.88634969145,
			"0.004": 9.55984392911,
			"0.005": 11.8421240228,
			"0.006": 4.21508254464,
			"0.007": 2.98615935951,
			"0.008": 4.84664296853,
			"0.009": 2.57058300991,
			"0.01": 0.0502204069315,
			"0.011": 0.0,
			"0.012": 0.0,
			"0.013": 0.0,
			"0.014": 0.0,
			"0.015": 0.0,
			"0.016": 0.0,
			"0.017": 0.0,
			"0.018": 0.0,
			"0.019": 0.0,
			"0.02": 0.0,
			"0.021": 0.0,
			"0.022": 0.0,
			"0.023": 0.0,
			"0.024": 0.0,
			"0.025": 0.0
		}
	}
}
