{
	 "smiles": "NC1=NON=C1N", 
	 "Tm": 453.15, 
	 "num_atms": 11, 
	 "gaussian": { 
		 "optdone": 1, 
		 "sigma_profile": "yes", 
		 "theory": "DFT", 
		 "functional": "B3LYP", 
		 "basiset": "6-31G**", 
		 "properties": { 
			 "R2extent": 878.6681, 
			 "electric_dipole_moment_norm": 4.77807504546, 
			 "electric_quadrupole_moment_norm": 7.15099063627, 
			 "total_energy": -372.765030476, 
			 "HOMO_LUMO_gap": 0.21682, 
			 "cosmo_polarized_energy": -16.76, 
			 "cosmo_cavitation_energy": 15.82, 
			 "cosmo_dispersion_energy": -12.04, 
			 "cosmo_repulsion_energy": 1.05, 
			 "cosmo_total_nonelectrostatic_energy": 4.82, 
			 "SMD_solvation_energy": 2.4 
		},
		"coords": [
			{
				"x": -0.3712926497,
				"y": 2.5613690807,
				"z": -1.7317659232,
				"element": "N" 
			},
			{
				"x": -0.2300221938,
				"y": 1.2721074334,
				"z": -1.2397729839,
				"element": "C" 
			},
			{
				"x": -1.1133833172,
				"y": 0.3169343448,
				"z": -1.3558769376,
				"element": "N" 
			},
			{
				"x": -0.5887606204,
				"y": -0.7562139334,
				"z": -0.6564448451,
				"element": "O" 
			},
			{
				"x": 0.6411746169,
				"y": -0.443553218,
				"z": -0.1036525489,
				"element": "N" 
			},
			{
				"x": 0.8741882548,
				"y": 0.793400545,
				"z": -0.4526497296,
				"element": "C" 
			},
			{
				"x": 2.0331233139,
				"y": 1.502507234,
				"z": -0.1728814292,
				"element": "N" 
			},
			{
				"x": -1.1858890604,
				"y": 2.6638998779,
				"z": -2.3258336443,
				"element": "H" 
			},
			{
				"x": 0.4642801605,
				"y": 2.8993701094,
				"z": -2.1971641426,
				"element": "H" 
			},
			{
				"x": 2.6480026749,
				"y": 1.0076305299,
				"z": 0.4627448964,
				"element": "H" 
			},
			{
				"x": 1.8491788206,
				"y": 2.4440479963,
				"z": 0.1567972879,
				"element": "H" 
			}
		],
		 "valence_orbital": [ 
			{
				"type": "occ",
				"energy": -0.35574,
				"method": "rhf"
			},
			{
				"type": "occ",
				"energy": -0.32955,
				"method": "rhf"
			},
			{
				"type": "occ",
				"energy": -0.30077,
				"method": "rhf"
			},
			{
				"type": "occ",
				"energy": -0.26448,
				"method": "rhf"
			},
			{
				"type": "occ",
				"energy": -0.23626,
				"method": "rhf"
			},
			{
				"type": "unocc",
				"energy": -0.01944,
				"method": "rhf"
			},
			{
				"type": "unocc",
				"energy": 0.04026,
				"method": "rhf"
			},
			{
				"type": "unocc",
				"energy": 0.07897,
				"method": "rhf"
			},
			{
				"type": "unocc",
				"energy": 0.08737,
				"method": "rhf"
			},
			{
				"type": "unocc",
				"energy": 0.11943,
				"method": "rhf"
			}
		],
		"cosmo_sigma_profile": { 
			"-0.025": 0.0,
			"-0.024": 0.0,
			"-0.023": 0.0,
			"-0.022": 0.0,
			"-0.021": 0.0,
			"-0.02": 0.0,
			"-0.019": 0.0,
			"-0.018": 0.0,
			"-0.017": 0.0,
			"-0.016": 0.0,
			"-0.015": 0.00644157721632,
			"-0.014": 2.59555592299,
			"-0.013": 6.11796269586,
			"-0.012": 4.46323435875,
			"-0.011": 5.75764889165,
			"-0.01": 4.4166778191,
			"-0.009": 4.30077216374,
			"-0.008": 4.74730760679,
			"-0.007": 3.91740700011,
			"-0.006": 3.45003974959,
			"-0.005": 3.19748719546,
			"-0.004": 3.4476920007,
			"-0.003": 2.40979238774,
			"-0.002": 3.72390260001,
			"-0.001": 4.62907408847,
			"0.0": 4.39354726575,
			"0.001": 4.3195736226,
			"0.002": 4.06582552423,
			"0.003": 3.14504116933,
			"0.004": 4.83978795551,
			"0.005": 4.57819803989,
			"0.006": 3.55834760709,
			"0.007": 8.98469884119,
			"0.008": 11.406616392,
			"0.009": 4.64147112354,
			"0.01": 4.1229154881,
			"0.011": 3.74802255901,
			"0.012": 3.63659656812,
			"0.013": 2.48140452806,
			"0.014": 0.370969287345,
			"0.015": 0.0,
			"0.016": 0.0,
			"0.017": 0.0,
			"0.018": 0.0,
			"0.019": 0.0,
			"0.02": 0.0,
			"0.021": 0.0,
			"0.022": 0.0,
			"0.023": 0.0,
			"0.024": 0.0,
			"0.025": 0.0
		}
	}
}
