{
	 "smiles": "CCN(CC)C1=C(C=C(N)C=C1)S(=O)(=O)NC1=CC=C(OC)C=C1", 
	 "Tm": 381.15, 
	 "num_atms": 47, 
	 "gaussian": { 
		 "optdone": 1, 
		 "sigma_profile": "yes", 
		 "theory": "DFT", 
		 "functional": "B3LYP", 
		 "basiset": "6-31G**", 
		 "properties": { 
			 "R2extent": 9524.1981, 
			 "electric_dipole_moment_norm": 5.00315573713, 
			 "electric_quadrupole_moment_norm": 33.2003766714, 
			 "total_energy": -1449.701328, 
			 "HOMO_LUMO_gap": 0.17872, 
			 "cosmo_polarized_energy": -22.29, 
			 "cosmo_cavitation_energy": 49.1, 
			 "cosmo_dispersion_energy": -33.34, 
			 "cosmo_repulsion_energy": 2.5, 
			 "cosmo_total_nonelectrostatic_energy": 18.26, 
			 "SMD_solvation_energy": 8.11 
		},
		"coords": [
			{
				"x": 0.8497113545,
				"y": -1.6382433441,
				"z": -3.018247888,
				"element": "C" 
			},
			{
				"x": 0.711449235,
				"y": -0.1251527588,
				"z": -2.8126102446,
				"element": "C" 
			},
			{
				"x": -0.5817839264,
				"y": 0.2822849203,
				"z": -2.2146341805,
				"element": "N" 
			},
			{
				"x": -1.5949312479,
				"y": 0.690902353,
				"z": -3.226414182,
				"element": "C" 
			},
			{
				"x": -2.100638324,
				"y": -0.4420890045,
				"z": -4.1150278137,
				"element": "C" 
			},
			{
				"x": -0.4702164048,
				"y": 1.2857087219,
				"z": -1.1861289342,
				"element": "C" 
			},
			{
				"x": -1.2627714698,
				"y": 1.2234498693,
				"z": -0.021426926,
				"element": "C" 
			},
			{
				"x": -1.1829633529,
				"y": 2.1859757994,
				"z": 0.9810796988,
				"element": "C" 
			},
			{
				"x": -0.2966944005,
				"y": 3.2684031028,
				"z": 0.8629922154,
				"element": "C" 
			},
			{
				"x": -0.1685530003,
				"y": 4.1985145442,
				"z": 1.8913287455,
				"element": "N" 
			},
			{
				"x": 0.4973003539,
				"y": 3.3465092977,
				"z": -0.2924487693,
				"element": "C" 
			},
			{
				"x": 0.4020523883,
				"y": 2.3791205187,
				"z": -1.2884300898,
				"element": "C" 
			},
			{
				"x": -2.4472606695,
				"y": -0.1154947343,
				"z": 0.2481864029,
				"element": "S" 
			},
			{
				"x": -2.931221897,
				"y": -0.0082451099,
				"z": 1.6263321351,
				"element": "O" 
			},
			{
				"x": -3.3916812823,
				"y": -0.1439031989,
				"z": -0.8714519682,
				"element": "O" 
			},
			{
				"x": -1.5448791444,
				"y": -1.5461600357,
				"z": 0.132413091,
				"element": "N" 
			},
			{
				"x": -0.6742787245,
				"y": -1.931870329,
				"z": 1.19930554,
				"element": "C" 
			},
			{
				"x": 0.7203412526,
				"y": -1.8580303292,
				"z": 1.0661730259,
				"element": "C" 
			},
			{
				"x": 1.552446359,
				"y": -2.2959249956,
				"z": 2.0887311561,
				"element": "C" 
			},
			{
				"x": 1.0041900096,
				"y": -2.7884046393,
				"z": 3.281465995,
				"element": "C" 
			},
			{
				"x": 1.9043738288,
				"y": -3.1840512891,
				"z": 4.2291986524,
				"element": "O" 
			},
			{
				"x": 1.4056140475,
				"y": -3.6848212758,
				"z": 5.4588283767,
				"element": "C" 
			},
			{
				"x": -0.3874239107,
				"y": -2.8469984976,
				"z": 3.4287290262,
				"element": "C" 
			},
			{
				"x": -1.2161888211,
				"y": -2.4318901643,
				"z": 2.3857950863,
				"element": "C" 
			},
			{
				"x": 0.8059350757,
				"y": -2.1724749389,
				"z": -2.0637366213,
				"element": "H" 
			},
			{
				"x": 1.8191276647,
				"y": -1.8625450494,
				"z": -3.4774904304,
				"element": "H" 
			},
			{
				"x": 0.0700408308,
				"y": -2.0445124292,
				"z": -3.6646702273,
				"element": "H" 
			},
			{
				"x": 0.8735143328,
				"y": 0.3932809035,
				"z": -3.7717226969,
				"element": "H" 
			},
			{
				"x": 1.514673853,
				"y": 0.200934213,
				"z": -2.1456919837,
				"element": "H" 
			},
			{
				"x": -2.4426524707,
				"y": 1.0972210329,
				"z": -2.6750054371,
				"element": "H" 
			},
			{
				"x": -1.1809312926,
				"y": 1.5021952909,
				"z": -3.8518090089,
				"element": "H" 
			},
			{
				"x": -2.9160908827,
				"y": -0.0666721788,
				"z": -4.742071579,
				"element": "H" 
			},
			{
				"x": -1.3296380649,
				"y": -0.8324481633,
				"z": -4.7856738876,
				"element": "H" 
			},
			{
				"x": -2.4935352027,
				"y": -1.2605156759,
				"z": -3.505627194,
				"element": "H" 
			},
			{
				"x": -1.8059057649,
				"y": 2.0722558441,
				"z": 1.8621803347,
				"element": "H" 
			},
			{
				"x": -0.9600612162,
				"y": 4.2686608031,
				"z": 2.5153408333,
				"element": "H" 
			},
			{
				"x": 0.1870122178,
				"y": 5.1042625512,
				"z": 1.6193865468,
				"element": "H" 
			},
			{
				"x": 1.1931611851,
				"y": 4.1733476364,
				"z": -0.4114342555,
				"element": "H" 
			},
			{
				"x": 1.0204075025,
				"y": 2.4802307153,
				"z": -2.1752225909,
				"element": "H" 
			},
			{
				"x": -1.1203096284,
				"y": -1.5425113397,
				"z": -0.7959355976,
				"element": "H" 
			},
			{
				"x": 1.1555979239,
				"y": -1.4517532199,
				"z": 0.1581757823,
				"element": "H" 
			},
			{
				"x": 2.6322435028,
				"y": -2.2525980773,
				"z": 1.9921185712,
				"element": "H" 
			},
			{
				"x": 0.8014017237,
				"y": -4.589817236,
				"z": 5.3136255211,
				"element": "H" 
			},
			{
				"x": 0.8037929356,
				"y": -2.9348541123,
				"z": 5.9883962001,
				"element": "H" 
			},
			{
				"x": 2.2811050076,
				"y": -3.9320566142,
				"z": 6.0614018994,
				"element": "H" 
			},
			{
				"x": -0.8370034779,
				"y": -3.2248410658,
				"z": 4.3391482489,
				"element": "H" 
			},
			{
				"x": -2.2932780081,
				"y": -2.4880783108,
				"z": 2.4890794214,
				"element": "H" 
			}
		],
		 "valence_orbital": [ 
			{
				"type": "occ",
				"energy": -0.25991,
				"method": "rhf"
			},
			{
				"type": "occ",
				"energy": -0.24958,
				"method": "rhf"
			},
			{
				"type": "occ",
				"energy": -0.23944,
				"method": "rhf"
			},
			{
				"type": "occ",
				"energy": -0.20779,
				"method": "rhf"
			},
			{
				"type": "occ",
				"energy": -0.20514,
				"method": "rhf"
			},
			{
				"type": "unocc",
				"energy": -0.02642,
				"method": "rhf"
			},
			{
				"type": "unocc",
				"energy": -0.00137,
				"method": "rhf"
			},
			{
				"type": "unocc",
				"energy": -0.00096,
				"method": "rhf"
			},
			{
				"type": "unocc",
				"energy": 0.00789,
				"method": "rhf"
			},
			{
				"type": "unocc",
				"energy": 0.06835,
				"method": "rhf"
			}
		],
		"cosmo_sigma_profile": { 
			"-0.025": 0.0,
			"-0.024": 0.0,
			"-0.023": 0.0,
			"-0.022": 0.0,
			"-0.021": 0.0,
			"-0.02": 0.0,
			"-0.019": 0.0,
			"-0.018": 0.0,
			"-0.017": 0.0,
			"-0.016": 0.0,
			"-0.015": 0.0,
			"-0.014": 0.0,
			"-0.013": 1.26871492445,
			"-0.012": 3.22424175201,
			"-0.011": 3.21984102074,
			"-0.01": 3.42131380531,
			"-0.009": 3.86847273632,
			"-0.008": 4.81126101606,
			"-0.007": 5.79614051588,
			"-0.006": 14.4508222617,
			"-0.005": 24.9369262155,
			"-0.004": 29.366991628,
			"-0.003": 37.3457462467,
			"-0.002": 32.655060915,
			"-0.001": 32.8314511228,
			"0.0": 29.8667878718,
			"0.001": 26.0231210793,
			"0.002": 19.1596622154,
			"0.003": 23.5054223305,
			"0.004": 25.870987143,
			"0.005": 14.8438481927,
			"0.006": 7.34192596498,
			"0.007": 7.27770947635,
			"0.008": 7.36156301929,
			"0.009": 7.33404090184,
			"0.01": 8.65257087256,
			"0.011": 7.20924467442,
			"0.012": 4.68689055136,
			"0.013": 0.946086857432,
			"0.014": 0.315511702578,
			"0.015": 0.0,
			"0.016": 0.0,
			"0.017": 0.0,
			"0.018": 0.0,
			"0.019": 0.0,
			"0.02": 0.0,
			"0.021": 0.0,
			"0.022": 0.0,
			"0.023": 0.0,
			"0.024": 0.0,
			"0.025": 0.0
		}
	}
}
