{
	 "smiles": "NS(=O)(=O)CCSC1=CC=CC=C1", 
	 "Tm": 380.15, 
	 "num_atms": 24, 
	 "gaussian": { 
		 "optdone": 1, 
		 "sigma_profile": "yes", 
		 "theory": "DFT", 
		 "functional": "B3LYP", 
		 "basiset": "6-31G**", 
		 "properties": { 
			 "R2extent": 4735.0207, 
			 "electric_dipole_moment_norm": 4.97018895918, 
			 "electric_quadrupole_moment_norm": 16.2973103198, 
			 "total_energy": -1312.98611332, 
			 "HOMO_LUMO_gap": 0.2055, 
			 "cosmo_polarized_energy": -19.26, 
			 "cosmo_cavitation_energy": 30.71, 
			 "cosmo_dispersion_energy": -23.08, 
			 "cosmo_repulsion_energy": 1.77, 
			 "cosmo_total_nonelectrostatic_energy": 9.4, 
			 "SMD_solvation_energy": 4.36 
		},
		"coords": [
			{
				"x": -1.1969958372,
				"y": -3.8081458859,
				"z": -0.0980169349,
				"element": "N" 
			},
			{
				"x": 0.2353040021,
				"y": -3.4683019689,
				"z": -0.9450176496,
				"element": "S" 
			},
			{
				"x": 1.3471421801,
				"y": -3.5449442328,
				"z": 0.0062736943,
				"element": "O" 
			},
			{
				"x": 0.2174983519,
				"y": -4.259566371,
				"z": -2.1788739494,
				"element": "O" 
			},
			{
				"x": -0.0037022189,
				"y": -1.7366022943,
				"z": -1.4293095159,
				"element": "C" 
			},
			{
				"x": -0.3352272073,
				"y": -0.7606491319,
				"z": -0.3051805625,
				"element": "C" 
			},
			{
				"x": 1.0653106171,
				"y": -0.4793806005,
				"z": 0.8741603072,
				"element": "S" 
			},
			{
				"x": 0.5746314712,
				"y": 1.1268336561,
				"z": 1.5174495243,
				"element": "C" 
			},
			{
				"x": 0.8045348829,
				"y": 2.2953147134,
				"z": 0.7766908622,
				"element": "C" 
			},
			{
				"x": 0.4490413171,
				"y": 3.5388951926,
				"z": 1.2994738137,
				"element": "C" 
			},
			{
				"x": -0.1222382698,
				"y": 3.6277423129,
				"z": 2.5713236893,
				"element": "C" 
			},
			{
				"x": -0.3391602957,
				"y": 2.468944798,
				"z": 3.3183484445,
				"element": "C" 
			},
			{
				"x": 0.0048627687,
				"y": 1.2212835725,
				"z": 2.7936344456,
				"element": "C" 
			},
			{
				"x": -0.9667976137,
				"y": -4.0544937842,
				"z": 0.8613693144,
				"element": "H" 
			},
			{
				"x": -1.6834264574,
				"y": -4.569184144,
				"z": -0.5651111795,
				"element": "H" 
			},
			{
				"x": 0.9233404561,
				"y": -1.4700413993,
				"z": -1.9455835833,
				"element": "H" 
			},
			{
				"x": -0.8176177847,
				"y": -1.7611295716,
				"z": -2.1593800705,
				"element": "H" 
			},
			{
				"x": -1.2201919859,
				"y": -1.1014337508,
				"z": 0.238372934,
				"element": "H" 
			},
			{
				"x": -0.5687809081,
				"y": 0.2032371548,
				"z": -0.7651088035,
				"element": "H" 
			},
			{
				"x": 1.2704817802,
				"y": 2.2255757471,
				"z": -0.2018313251,
				"element": "H" 
			},
			{
				"x": 0.6296736954,
				"y": 4.4392842558,
				"z": 0.7191078701,
				"element": "H" 
			},
			{
				"x": -0.3915784829,
				"y": 4.5974107081,
				"z": 2.9799361795,
				"element": "H" 
			},
			{
				"x": -0.7791387251,
				"y": 2.5336305987,
				"z": 4.3094562676,
				"element": "H" 
			},
			{
				"x": -0.1635657363,
				"y": 0.3168204253,
				"z": 3.3696162275,
				"element": "H" 
			}
		],
		 "valence_orbital": [ 
			{
				"type": "occ",
				"energy": -0.30263,
				"method": "rhf"
			},
			{
				"type": "occ",
				"energy": -0.29249,
				"method": "rhf"
			},
			{
				"type": "occ",
				"energy": -0.26014,
				"method": "rhf"
			},
			{
				"type": "occ",
				"energy": -0.25756,
				"method": "rhf"
			},
			{
				"type": "occ",
				"energy": -0.22877,
				"method": "rhf"
			},
			{
				"type": "unocc",
				"energy": -0.02327,
				"method": "rhf"
			},
			{
				"type": "unocc",
				"energy": -0.01102,
				"method": "rhf"
			},
			{
				"type": "unocc",
				"energy": 0.03794,
				"method": "rhf"
			},
			{
				"type": "unocc",
				"energy": 0.05123,
				"method": "rhf"
			},
			{
				"type": "unocc",
				"energy": 0.06593,
				"method": "rhf"
			}
		],
		"cosmo_sigma_profile": { 
			"-0.025": 0.0,
			"-0.024": 0.0,
			"-0.023": 0.0,
			"-0.022": 0.0,
			"-0.021": 0.0,
			"-0.02": 0.0,
			"-0.019": 0.0,
			"-0.018": 0.0,
			"-0.017": 0.0,
			"-0.016": 0.0,
			"-0.015": 1.01982490709,
			"-0.014": 2.25863528027,
			"-0.013": 2.96482308549,
			"-0.012": 2.52367781038,
			"-0.011": 1.6552415105,
			"-0.01": 2.11326873332,
			"-0.009": 3.59949598286,
			"-0.008": 5.55400989761,
			"-0.007": 7.95015790578,
			"-0.006": 15.8647196033,
			"-0.005": 20.0850465934,
			"-0.004": 18.7779761918,
			"-0.003": 14.4964635168,
			"-0.002": 11.2848621774,
			"-0.001": 12.0282436858,
			"0.0": 11.8443797753,
			"0.001": 12.7511969766,
			"0.002": 11.5707574351,
			"0.003": 13.0310697741,
			"0.004": 14.1164954499,
			"0.005": 12.9865722964,
			"0.006": 4.9435845813,
			"0.007": 5.20594037804,
			"0.008": 5.05671686849,
			"0.009": 5.35697173403,
			"0.01": 8.72783223119,
			"0.011": 12.2899623902,
			"0.012": 5.23932301667,
			"0.013": 0.0,
			"0.014": 0.0,
			"0.015": 0.0,
			"0.016": 0.0,
			"0.017": 0.0,
			"0.018": 0.0,
			"0.019": 0.0,
			"0.02": 0.0,
			"0.021": 0.0,
			"0.022": 0.0,
			"0.023": 0.0,
			"0.024": 0.0,
			"0.025": 0.0
		}
	}
}
