{
	 "smiles": "CCOC(=O)C(C)=NNC1=C(CC)C=C(Br)C=C1", 
	 "Tm": 342.15, 
	 "num_atms": 35, 
	 "gaussian": { 
		 "optdone": 1, 
		 "sigma_profile": "yes", 
		 "theory": "DFT", 
		 "functional": "B3LYP", 
		 "basiset": "6-31G**", 
		 "properties": { 
			 "R2extent": 11999.7953, 
			 "electric_dipole_moment_norm": 4.36555638378, 
			 "electric_quadrupole_moment_norm": 8.65009699888, 
			 "total_energy": -3336.98843918, 
			 "HOMO_LUMO_gap": 0.14048, 
			 "cosmo_polarized_energy": -7.6, 
			 "cosmo_cavitation_energy": 40.93, 
			 "cosmo_dispersion_energy": -28.82, 
			 "cosmo_repulsion_energy": 2.29, 
			 "cosmo_total_nonelectrostatic_energy": 14.4, 
			 "SMD_solvation_energy": 6.23 
		},
		"coords": [
			{
				"x": 1.5561598942,
				"y": 1.1250629458,
				"z": 4.437878773,
				"element": "C" 
			},
			{
				"x": 2.2828646117,
				"y": 1.396168987,
				"z": 3.1292363066,
				"element": "C" 
			},
			{
				"x": 1.3904960288,
				"y": 1.9644474146,
				"z": 2.1387437533,
				"element": "O" 
			},
			{
				"x": 0.6614317038,
				"y": 1.1002295145,
				"z": 1.4056239905,
				"element": "C" 
			},
			{
				"x": 0.7341204492,
				"y": -0.1223937943,
				"z": 1.5458004977,
				"element": "O" 
			},
			{
				"x": -0.2099447818,
				"y": 1.7865404368,
				"z": 0.4320787402,
				"element": "C" 
			},
			{
				"x": -0.2059840242,
				"y": 3.2903664847,
				"z": 0.3498414381,
				"element": "C" 
			},
			{
				"x": -1.0043437158,
				"y": 1.1417213041,
				"z": -0.3806008075,
				"element": "N" 
			},
			{
				"x": -1.0731556851,
				"y": -0.1823717973,
				"z": -0.3781471,
				"element": "N" 
			},
			{
				"x": -1.933110049,
				"y": -0.858488171,
				"z": -1.2527317066,
				"element": "C" 
			},
			{
				"x": -2.0022179699,
				"y": -2.2688798516,
				"z": -1.1862574707,
				"element": "C" 
			},
			{
				"x": -1.1573104027,
				"y": -3.0770469867,
				"z": -0.2203131006,
				"element": "C" 
			},
			{
				"x": 0.2994806114,
				"y": -3.2724699697,
				"z": -0.683737335,
				"element": "C" 
			},
			{
				"x": -2.8686904382,
				"y": -2.9280112348,
				"z": -2.064137066,
				"element": "C" 
			},
			{
				"x": -3.6406593114,
				"y": -2.2186233148,
				"z": -2.9797640253,
				"element": "C" 
			},
			{
				"x": -4.8124091262,
				"y": -3.1641834294,
				"z": -4.1601327376,
				"element": "Br" 
			},
			{
				"x": -3.5706557643,
				"y": -0.8287117049,
				"z": -3.0416309207,
				"element": "C" 
			},
			{
				"x": -2.7176716583,
				"y": -0.1525278111,
				"z": -2.1763936102,
				"element": "C" 
			},
			{
				"x": 2.2692911238,
				"y": 0.7723679735,
				"z": 5.190329823,
				"element": "H" 
			},
			{
				"x": 0.7925415653,
				"y": 0.3554060047,
				"z": 4.3025156981,
				"element": "H" 
			},
			{
				"x": 1.080736632,
				"y": 2.0350024757,
				"z": 4.8153765307,
				"element": "H" 
			},
			{
				"x": 3.0617870688,
				"y": 2.1520545034,
				"z": 3.252145275,
				"element": "H" 
			},
			{
				"x": 2.7231077671,
				"y": 0.4822545964,
				"z": 2.7239638384,
				"element": "H" 
			},
			{
				"x": -0.4942707373,
				"y": 3.7457819807,
				"z": 1.3035631498,
				"element": "H" 
			},
			{
				"x": 0.7889589012,
				"y": 3.6766674134,
				"z": 0.1028561529,
				"element": "H" 
			},
			{
				"x": -0.9106522593,
				"y": 3.6065606191,
				"z": -0.4213061208,
				"element": "H" 
			},
			{
				"x": -0.486094877,
				"y": -0.6853345376,
				"z": 0.2875808134,
				"element": "H" 
			},
			{
				"x": -1.6248310401,
				"y": -4.0590771246,
				"z": -0.0921133541,
				"element": "H" 
			},
			{
				"x": -1.1649563819,
				"y": -2.6138068212,
				"z": 0.7752068511,
				"element": "H" 
			},
			{
				"x": 0.852979473,
				"y": -3.8846629125,
				"z": 0.0352692037,
				"element": "H" 
			},
			{
				"x": 0.825436801,
				"y": -2.3180702263,
				"z": -0.7818699945,
				"element": "H" 
			},
			{
				"x": 0.3315445437,
				"y": -3.7729570388,
				"z": -1.6563428287,
				"element": "H" 
			},
			{
				"x": -2.9395694006,
				"y": -4.0100436627,
				"z": -2.0253794723,
				"element": "H" 
			},
			{
				"x": -4.1749704064,
				"y": -0.2793387952,
				"z": -3.7544124998,
				"element": "H" 
			},
			{
				"x": -2.6476391456,
				"y": 0.9277665302,
				"z": -2.2032406851,
				"element": "H" 
			}
		],
		 "valence_orbital": [ 
			{
				"type": "occ",
				"energy": -0.27938,
				"method": "rhf"
			},
			{
				"type": "occ",
				"energy": -0.2671,
				"method": "rhf"
			},
			{
				"type": "occ",
				"energy": -0.26227,
				"method": "rhf"
			},
			{
				"type": "occ",
				"energy": -0.252,
				"method": "rhf"
			},
			{
				"type": "occ",
				"energy": -0.20035,
				"method": "rhf"
			},
			{
				"type": "unocc",
				"energy": -0.05987,
				"method": "rhf"
			},
			{
				"type": "unocc",
				"energy": -0.00712,
				"method": "rhf"
			},
			{
				"type": "unocc",
				"energy": 0.01202,
				"method": "rhf"
			},
			{
				"type": "unocc",
				"energy": 0.0156,
				"method": "rhf"
			},
			{
				"type": "unocc",
				"energy": 0.07581,
				"method": "rhf"
			}
		],
		"cosmo_sigma_profile": { 
			"-0.025": 0.0,
			"-0.024": 0.0,
			"-0.023": 0.0,
			"-0.022": 0.0,
			"-0.021": 0.0,
			"-0.02": 0.0,
			"-0.019": 0.0,
			"-0.018": 0.0,
			"-0.017": 0.0,
			"-0.016": 0.0,
			"-0.015": 0.0,
			"-0.014": 0.0,
			"-0.013": 0.0,
			"-0.012": 0.0,
			"-0.011": 0.0,
			"-0.01": 0.0,
			"-0.009": 0.0,
			"-0.008": 0.0,
			"-0.007": 1.41017286681,
			"-0.006": 7.09569369517,
			"-0.005": 13.1423118184,
			"-0.004": 25.3075471268,
			"-0.003": 35.3914627164,
			"-0.002": 38.8462015927,
			"-0.001": 37.9038058235,
			"0.0": 35.2176716534,
			"0.001": 27.8193662838,
			"0.002": 23.3073263207,
			"0.003": 25.4700665829,
			"0.004": 25.1085813246,
			"0.005": 16.4885903119,
			"0.006": 5.55199435162,
			"0.007": 4.27031897013,
			"0.008": 1.71230588599,
			"0.009": 1.08145621228,
			"0.01": 1.20209359926,
			"0.011": 0.943092318304,
			"0.012": 0.0666662062848,
			"0.013": 0.0,
			"0.014": 0.0,
			"0.015": 0.0,
			"0.016": 0.0,
			"0.017": 0.0,
			"0.018": 0.0,
			"0.019": 0.0,
			"0.02": 0.0,
			"0.021": 0.0,
			"0.022": 0.0,
			"0.023": 0.0,
			"0.024": 0.0,
			"0.025": 0.0
		}
	}
}
