{
	 "smiles": "N1C=NC=N1", 
	 "Tm": 393.15, 
	 "num_atms": 8, 
	 "gaussian": { 
		 "optdone": 1, 
		 "sigma_profile": "yes", 
		 "theory": "DFT", 
		 "functional": "B3LYP", 
		 "basiset": "6-31G**", 
		 "properties": { 
			 "R2extent": 653.7018, 
			 "electric_dipole_moment_norm": 2.86486177677, 
			 "electric_quadrupole_moment_norm": 10.6575689254, 
			 "total_energy": -242.250118367, 
			 "HOMO_LUMO_gap": 0.27538, 
			 "cosmo_polarized_energy": -11.81, 
			 "cosmo_cavitation_energy": 12.08, 
			 "cosmo_dispersion_energy": -9.37, 
			 "cosmo_repulsion_energy": 0.83, 
			 "cosmo_total_nonelectrostatic_energy": 3.53, 
			 "SMD_solvation_energy": 0.37 
		},
		"coords": [
			{
				"x": 0.7245521817,
				"y": 0.7942995915,
				"z": 1.1776390096,
				"element": "N" 
			},
			{
				"x": 0.5561548473,
				"y": 2.0680247724,
				"z": 1.5992485604,
				"element": "C" 
			},
			{
				"x": -0.5805103934,
				"y": 2.5503469358,
				"z": 1.1293337352,
				"element": "N" 
			},
			{
				"x": -1.0738790849,
				"y": 1.5004476227,
				"z": 0.4104391282,
				"element": "C" 
			},
			{
				"x": -0.3225556383,
				"y": 0.4089518055,
				"z": 0.4055638201,
				"element": "N" 
			},
			{
				"x": 1.4807082077,
				"y": 0.1513436443,
				"z": 1.358752616,
				"element": "H" 
			},
			{
				"x": 1.2665680478,
				"y": 2.5865403525,
				"z": 2.2281454196,
				"element": "H" 
			},
			{
				"x": -2.012838168,
				"y": 1.5414452752,
				"z": -0.123922289,
				"element": "H" 
			}
		],
		 "valence_orbital": [ 
			{
				"type": "occ",
				"energy": -0.42403,
				"method": "rhf"
			},
			{
				"type": "occ",
				"energy": -0.33015,
				"method": "rhf"
			},
			{
				"type": "occ",
				"energy": -0.30023,
				"method": "rhf"
			},
			{
				"type": "occ",
				"energy": -0.27889,
				"method": "rhf"
			},
			{
				"type": "occ",
				"energy": -0.27114,
				"method": "rhf"
			},
			{
				"type": "unocc",
				"energy": 0.00424,
				"method": "rhf"
			},
			{
				"type": "unocc",
				"energy": 0.05281,
				"method": "rhf"
			},
			{
				"type": "unocc",
				"energy": 0.07106,
				"method": "rhf"
			},
			{
				"type": "unocc",
				"energy": 0.12486,
				"method": "rhf"
			},
			{
				"type": "unocc",
				"energy": 0.15429,
				"method": "rhf"
			}
		],
		"cosmo_sigma_profile": { 
			"-0.025": 0.0,
			"-0.024": 0.0,
			"-0.023": 0.0,
			"-0.022": 0.0,
			"-0.021": 0.0,
			"-0.02": 0.0,
			"-0.019": 0.0,
			"-0.018": 0.531740358649,
			"-0.017": 2.09660621851,
			"-0.016": 1.20466180035,
			"-0.015": 1.45133433521,
			"-0.014": 1.35025224427,
			"-0.013": 0.782937319115,
			"-0.012": 1.05498344455,
			"-0.011": 1.65796903405,
			"-0.01": 3.48399513843,
			"-0.009": 3.21051846443,
			"-0.008": 3.85735672567,
			"-0.007": 3.45466590621,
			"-0.006": 3.19279778129,
			"-0.005": 2.74788684751,
			"-0.004": 2.9711695942,
			"-0.003": 2.50846298453,
			"-0.002": 4.54265577981,
			"-0.001": 3.70542381376,
			"0.0": 5.45833824716,
			"0.001": 4.82351679097,
			"0.002": 6.46585967282,
			"0.003": 4.74717711312,
			"0.004": 3.5678840992,
			"0.005": 2.55705543693,
			"0.006": 3.00165073039,
			"0.007": 3.17383337236,
			"0.008": 2.60815465723,
			"0.009": 2.66325258657,
			"0.01": 2.13349793247,
			"0.011": 2.37242531132,
			"0.012": 2.18107225307,
			"0.013": 2.32647764684,
			"0.014": 2.4942596884,
			"0.015": 1.52328201022,
			"0.016": 1.09979643285,
			"0.017": 0.339627384533,
			"0.018": 0.0,
			"0.019": 0.0,
			"0.02": 0.0,
			"0.021": 0.0,
			"0.022": 0.0,
			"0.023": 0.0,
			"0.024": 0.0,
			"0.025": 0.0
		}
	}
}
