{
	 "smiles": "OC(=O)C1CSC(N1)C1=CC=CS1", 
	 "Tm": 422.15, 
	 "num_atms": 22, 
	 "gaussian": { 
		 "optdone": 1, 
		 "sigma_profile": "yes", 
		 "theory": "DFT", 
		 "functional": "B3LYP", 
		 "basiset": "6-31G**", 
		 "properties": { 
			 "R2extent": 3798.2324, 
			 "electric_dipole_moment_norm": 3.81365028549, 
			 "electric_quadrupole_moment_norm": 16.7759831813, 
			 "total_energy": -1311.82681158, 
			 "HOMO_LUMO_gap": 0.19863, 
			 "cosmo_polarized_energy": -14.89, 
			 "cosmo_cavitation_energy": 28.39, 
			 "cosmo_dispersion_energy": -21.52, 
			 "cosmo_repulsion_energy": 1.61, 
			 "cosmo_total_nonelectrostatic_energy": 8.48, 
			 "SMD_solvation_energy": 4.04 
		},
		"coords": [
			{
				"x": 2.6296382235,
				"y": 2.8731932414,
				"z": -1.4802246452,
				"element": "O" 
			},
			{
				"x": 3.2134251211,
				"y": 1.8135997777,
				"z": -0.8780689172,
				"element": "C" 
			},
			{
				"x": 4.2492015123,
				"y": 1.3533091426,
				"z": -1.2969534894,
				"element": "O" 
			},
			{
				"x": 2.4693627021,
				"y": 1.1598040329,
				"z": 0.3095438692,
				"element": "C" 
			},
			{
				"x": 1.7690561357,
				"y": 2.1345265797,
				"z": 1.2631755705,
				"element": "C" 
			},
			{
				"x": 0.1710350879,
				"y": 2.5418292279,
				"z": 0.4350552056,
				"element": "S" 
			},
			{
				"x": 0.2210265391,
				"y": 0.9549384323,
				"z": -0.6098652991,
				"element": "C" 
			},
			{
				"x": 1.3995752001,
				"y": 0.2515911791,
				"z": -0.1106482532,
				"element": "N" 
			},
			{
				"x": -1.0066947038,
				"y": 0.1106846791,
				"z": -0.4842040557,
				"element": "C" 
			},
			{
				"x": -1.2700056551,
				"y": -0.8804981987,
				"z": 0.4267790973,
				"element": "C" 
			},
			{
				"x": -2.5591701321,
				"y": -1.4666140333,
				"z": 0.2579680128,
				"element": "C" 
			},
			{
				"x": -3.2635135747,
				"y": -0.9128846897,
				"z": -0.7760551575,
				"element": "C" 
			},
			{
				"x": -2.357006815,
				"y": 0.3333828808,
				"z": -1.5692386001,
				"element": "S" 
			},
			{
				"x": 1.7961105638,
				"y": 3.1192209992,
				"z": -1.0241101302,
				"element": "H" 
			},
			{
				"x": 3.2300152762,
				"y": 0.578645249,
				"z": 0.8387794119,
				"element": "H" 
			},
			{
				"x": 2.334713251,
				"y": 3.0544972785,
				"z": 1.4267460142,
				"element": "H" 
			},
			{
				"x": 1.5760642094,
				"y": 1.6511880442,
				"z": 2.2220150867,
				"element": "H" 
			},
			{
				"x": 0.321758889,
				"y": 1.3174235534,
				"z": -1.6426939364,
				"element": "H" 
			},
			{
				"x": 1.7183292183,
				"y": -0.4477295355,
				"z": -0.7765914682,
				"element": "H" 
			},
			{
				"x": -0.5534662925,
				"y": -1.1745018369,
				"z": 1.1835825487,
				"element": "H" 
			},
			{
				"x": -2.9442128916,
				"y": -2.267965471,
				"z": 0.8783045535,
				"element": "H" 
			},
			{
				"x": -4.2561418647,
				"y": -1.1622405326,
				"z": -1.1242954183,
				"element": "H" 
			}
		],
		 "valence_orbital": [ 
			{
				"type": "occ",
				"energy": -0.29006,
				"method": "rhf"
			},
			{
				"type": "occ",
				"energy": -0.26181,
				"method": "rhf"
			},
			{
				"type": "occ",
				"energy": -0.25745,
				"method": "rhf"
			},
			{
				"type": "occ",
				"energy": -0.24901,
				"method": "rhf"
			},
			{
				"type": "occ",
				"energy": -0.23597,
				"method": "rhf"
			},
			{
				"type": "unocc",
				"energy": -0.03734,
				"method": "rhf"
			},
			{
				"type": "unocc",
				"energy": -0.00417,
				"method": "rhf"
			},
			{
				"type": "unocc",
				"energy": 0.00812,
				"method": "rhf"
			},
			{
				"type": "unocc",
				"energy": 0.02093,
				"method": "rhf"
			},
			{
				"type": "unocc",
				"energy": 0.03102,
				"method": "rhf"
			}
		],
		"cosmo_sigma_profile": { 
			"-0.025": 0.0,
			"-0.024": 0.0,
			"-0.023": 0.0,
			"-0.022": 0.0,
			"-0.021": 0.0,
			"-0.02": 0.0,
			"-0.019": 0.0,
			"-0.018": 0.0,
			"-0.017": 0.0,
			"-0.016": 0.0,
			"-0.015": 0.0,
			"-0.014": 0.0833639093353,
			"-0.013": 1.05490526251,
			"-0.012": 1.24060611254,
			"-0.011": 1.58894210911,
			"-0.01": 1.28699929558,
			"-0.009": 3.24426386403,
			"-0.008": 10.0581658774,
			"-0.007": 14.4704502999,
			"-0.006": 17.1977911113,
			"-0.005": 14.6953260114,
			"-0.004": 13.4631720985,
			"-0.003": 13.019088848,
			"-0.002": 8.44554037941,
			"-0.001": 9.83978645051,
			"0.0": 10.0224340943,
			"0.001": 12.2861035775,
			"0.002": 14.7785179611,
			"0.003": 14.7236290296,
			"0.004": 18.2519343748,
			"0.005": 13.2277454334,
			"0.006": 6.76798216914,
			"0.007": 4.48782311615,
			"0.008": 3.99054553258,
			"0.009": 3.45791684914,
			"0.01": 5.00910152629,
			"0.011": 5.47226491749,
			"0.012": 5.47048023288,
			"0.013": 2.07438134208,
			"0.014": 0.0693623121642,
			"0.015": 0.0,
			"0.016": 0.0,
			"0.017": 0.0,
			"0.018": 0.0,
			"0.019": 0.0,
			"0.02": 0.0,
			"0.021": 0.0,
			"0.022": 0.0,
			"0.023": 0.0,
			"0.024": 0.0,
			"0.025": 0.0
		}
	}
}
