{
	 "smiles": "CC1=C(C)C(=CC(=C1)S(C)(=O)=O)C(O)=O", 
	 "Tm": 473.15, 
	 "num_atms": 27, 
	 "gaussian": { 
		 "optdone": 1, 
		 "sigma_profile": "yes", 
		 "theory": "DFT", 
		 "functional": "B3LYP", 
		 "basiset": "6-31G**", 
		 "properties": { 
			 "R2extent": 4077.5298, 
			 "electric_dipole_moment_norm": 4.56555209914, 
			 "electric_quadrupole_moment_norm": 20.6072526558, 
			 "total_energy": -1087.34380179, 
			 "HOMO_LUMO_gap": 0.20124, 
			 "cosmo_polarized_energy": -18.59, 
			 "cosmo_cavitation_energy": 31.94, 
			 "cosmo_dispersion_energy": -23.37, 
			 "cosmo_repulsion_energy": 1.78, 
			 "cosmo_total_nonelectrostatic_energy": 10.35, 
			 "SMD_solvation_energy": 6.38 
		},
		"coords": [
			{
				"x": -3.0731843367,
				"y": -0.4443083889,
				"z": 2.3092369818,
				"element": "C" 
			},
			{
				"x": -1.851286056,
				"y": -0.2710320862,
				"z": 1.4324042974,
				"element": "C" 
			},
			{
				"x": -1.1735007455,
				"y": -1.3773604269,
				"z": 0.8641591321,
				"element": "C" 
			},
			{
				"x": -1.6823803661,
				"y": -2.7780009951,
				"z": 1.1118154384,
				"element": "C" 
			},
			{
				"x": -0.0195194496,
				"y": -1.134260131,
				"z": 0.074998964,
				"element": "C" 
			},
			{
				"x": 0.4334324315,
				"y": 0.1738785702,
				"z": -0.151906574,
				"element": "C" 
			},
			{
				"x": -0.2594104363,
				"y": 1.2399034689,
				"z": 0.4019457305,
				"element": "C" 
			},
			{
				"x": -1.3845599516,
				"y": 1.0249429317,
				"z": 1.1944912748,
				"element": "C" 
			},
			{
				"x": 0.3153030579,
				"y": 2.9211127864,
				"z": 0.1144420085,
				"element": "S" 
			},
			{
				"x": -0.5003117575,
				"y": 3.3913602269,
				"z": -1.4307559937,
				"element": "C" 
			},
			{
				"x": -0.236303555,
				"y": 3.7716269669,
				"z": 1.1811069746,
				"element": "O" 
			},
			{
				"x": 1.7611318926,
				"y": 2.8681592792,
				"z": -0.14946849,
				"element": "O" 
			},
			{
				"x": 0.7632930089,
				"y": -2.2568685555,
				"z": -0.5211148868,
				"element": "C" 
			},
			{
				"x": 1.7498345119,
				"y": -1.8217087238,
				"z": -1.3464917649,
				"element": "O" 
			},
			{
				"x": 0.5867008184,
				"y": -3.4441264073,
				"z": -0.3256149387,
				"element": "O" 
			},
			{
				"x": -3.4213887092,
				"y": 0.5248259251,
				"z": 2.6741405835,
				"element": "H" 
			},
			{
				"x": -2.8631345933,
				"y": -1.0706917963,
				"z": 3.1826109738,
				"element": "H" 
			},
			{
				"x": -3.9033387844,
				"y": -0.911466649,
				"z": 1.7677158477,
				"element": "H" 
			},
			{
				"x": -1.7936363505,
				"y": -3.3304689834,
				"z": 0.1765342751,
				"element": "H" 
			},
			{
				"x": -2.6398002818,
				"y": -2.7697012408,
				"z": 1.6311956488,
				"element": "H" 
			},
			{
				"x": -0.9678792821,
				"y": -3.3535716926,
				"z": 1.7077766448,
				"element": "H" 
			},
			{
				"x": 1.3290890924,
				"y": 0.348026287,
				"z": -0.7345498058,
				"element": "H" 
			},
			{
				"x": -1.8844020585,
				"y": 1.877125581,
				"z": 1.6444500459,
				"element": "H" 
			},
			{
				"x": -0.1806750618,
				"y": 4.4132897522,
				"z": -1.6451320227,
				"element": "H" 
			},
			{
				"x": -0.1786248608,
				"y": 2.717875041,
				"z": -2.2262434898,
				"element": "H" 
			},
			{
				"x": -1.5817190282,
				"y": 3.3526026165,
				"z": -1.2928498334,
				"element": "H" 
			},
			{
				"x": 2.2041708514,
				"y": -2.6228633561,
				"z": -1.654197022,
				"element": "H" 
			}
		],
		 "valence_orbital": [ 
			{
				"type": "occ",
				"energy": -0.29578,
				"method": "rhf"
			},
			{
				"type": "occ",
				"energy": -0.29088,
				"method": "rhf"
			},
			{
				"type": "occ",
				"energy": -0.28189,
				"method": "rhf"
			},
			{
				"type": "occ",
				"energy": -0.275,
				"method": "rhf"
			},
			{
				"type": "occ",
				"energy": -0.26508,
				"method": "rhf"
			},
			{
				"type": "unocc",
				"energy": -0.06384,
				"method": "rhf"
			},
			{
				"type": "unocc",
				"energy": -0.03858,
				"method": "rhf"
			},
			{
				"type": "unocc",
				"energy": 0.03322,
				"method": "rhf"
			},
			{
				"type": "unocc",
				"energy": 0.06566,
				"method": "rhf"
			},
			{
				"type": "unocc",
				"energy": 0.07614,
				"method": "rhf"
			}
		],
		"cosmo_sigma_profile": { 
			"-0.025": 0.0,
			"-0.024": 0.0,
			"-0.023": 0.0,
			"-0.022": 0.0,
			"-0.021": 0.0,
			"-0.02": 0.0,
			"-0.019": 0.0642620526026,
			"-0.018": 0.755803684307,
			"-0.017": 0.644986308609,
			"-0.016": 1.26490304194,
			"-0.015": 0.609738120538,
			"-0.014": 0.851465353713,
			"-0.013": 0.649653020052,
			"-0.012": 0.661836817333,
			"-0.011": 0.659983757503,
			"-0.01": 0.585406553394,
			"-0.009": 2.28484478978,
			"-0.008": 8.38299134304,
			"-0.007": 8.23258639537,
			"-0.006": 9.65356609598,
			"-0.005": 13.2605651506,
			"-0.004": 21.5484386981,
			"-0.003": 21.7954358064,
			"-0.002": 20.8102653772,
			"-0.001": 24.4645599101,
			"0.0": 22.5793809861,
			"0.001": 18.456889275,
			"0.002": 9.19870311812,
			"0.003": 6.09421877338,
			"0.004": 5.11785522599,
			"0.005": 6.4632250109,
			"0.006": 3.94230552104,
			"0.007": 4.48595950676,
			"0.008": 4.64420393829,
			"0.009": 5.47758916275,
			"0.01": 6.39901221414,
			"0.011": 11.7672782101,
			"0.012": 10.6489127727,
			"0.013": 0.818042548221,
			"0.014": 0.0,
			"0.015": 0.0,
			"0.016": 0.0,
			"0.017": 0.0,
			"0.018": 0.0,
			"0.019": 0.0,
			"0.02": 0.0,
			"0.021": 0.0,
			"0.022": 0.0,
			"0.023": 0.0,
			"0.024": 0.0,
			"0.025": 0.0
		}
	}
}
