{
	 "smiles": "ON(CC(O)=O)C=O", 
	 "Tm": 393.15, 
	 "num_atms": 13, 
	 "gaussian": { 
		 "optdone": 1, 
		 "sigma_profile": "yes", 
		 "theory": "DFT", 
		 "functional": "B3LYP", 
		 "basiset": "6-31G**", 
		 "properties": { 
			 "R2extent": 1066.6882, 
			 "electric_dipole_moment_norm": 3.82423500455, 
			 "electric_quadrupole_moment_norm": 14.3521341086, 
			 "total_energy": -472.927344406, 
			 "HOMO_LUMO_gap": 0.25624, 
			 "cosmo_polarized_energy": -18.03, 
			 "cosmo_cavitation_energy": 18.39, 
			 "cosmo_dispersion_energy": -13.21, 
			 "cosmo_repulsion_energy": 1.14, 
			 "cosmo_total_nonelectrostatic_energy": 6.32, 
			 "SMD_solvation_energy": 6.22 
		},
		"coords": [
			{
				"x": -1.7620636448,
				"y": -1.8170723237,
				"z": 0.3718111858,
				"element": "O" 
			},
			{
				"x": -1.6015435873,
				"y": -0.6452800401,
				"z": -0.3982768197,
				"element": "N" 
			},
			{
				"x": -0.6995022155,
				"y": 0.3148565356,
				"z": 0.1920071467,
				"element": "C" 
			},
			{
				"x": 0.722377365,
				"y": -0.2246726494,
				"z": 0.3296124151,
				"element": "C" 
			},
			{
				"x": 1.4442552225,
				"y": 0.5640480241,
				"z": 1.1577831407,
				"element": "O" 
			},
			{
				"x": 1.1641018859,
				"y": -1.1961711358,
				"z": -0.2320217382,
				"element": "O" 
			},
			{
				"x": -1.5866974102,
				"y": -0.8610177028,
				"z": -1.7655953028,
				"element": "C" 
			},
			{
				"x": -1.2006830917,
				"y": -0.0360461502,
				"z": -2.5686119011,
				"element": "O" 
			},
			{
				"x": -2.6345231028,
				"y": -1.7103825804,
				"z": 0.7813773829,
				"element": "H" 
			},
			{
				"x": -1.0715335482,
				"y": 0.6412130826,
				"z": 1.1663573924,
				"element": "H" 
			},
			{
				"x": -0.6732885898,
				"y": 1.1818013327,
				"z": -0.4752070172,
				"element": "H" 
			},
			{
				"x": 2.3449635609,
				"y": 0.1984383072,
				"z": 1.1719196743,
				"element": "H" 
			},
			{
				"x": -2.0229628441,
				"y": -1.8426146998,
				"z": -2.018455559,
				"element": "H" 
			}
		],
		 "valence_orbital": [ 
			{
				"type": "occ",
				"energy": -0.33513,
				"method": "rhf"
			},
			{
				"type": "occ",
				"energy": -0.32902,
				"method": "rhf"
			},
			{
				"type": "occ",
				"energy": -0.29336,
				"method": "rhf"
			},
			{
				"type": "occ",
				"energy": -0.27124,
				"method": "rhf"
			},
			{
				"type": "occ",
				"energy": -0.25789,
				"method": "rhf"
			},
			{
				"type": "unocc",
				"energy": -0.00165,
				"method": "rhf"
			},
			{
				"type": "unocc",
				"energy": 0.00797,
				"method": "rhf"
			},
			{
				"type": "unocc",
				"energy": 0.05115,
				"method": "rhf"
			},
			{
				"type": "unocc",
				"energy": 0.07069,
				"method": "rhf"
			},
			{
				"type": "unocc",
				"energy": 0.09863,
				"method": "rhf"
			}
		],
		"cosmo_sigma_profile": { 
			"-0.025": 0.0,
			"-0.024": 0.0,
			"-0.023": 0.0,
			"-0.022": 0.0,
			"-0.021": 0.0,
			"-0.02": 0.0,
			"-0.019": 0.501262058169,
			"-0.018": 1.98158740989,
			"-0.017": 2.30899706067,
			"-0.016": 1.69694294292,
			"-0.015": 1.33372550422,
			"-0.014": 1.46593515431,
			"-0.013": 1.28747725754,
			"-0.012": 1.55433098518,
			"-0.011": 2.32730562969,
			"-0.01": 1.96984074838,
			"-0.009": 2.55402121248,
			"-0.008": 7.17817470985,
			"-0.007": 6.92351875207,
			"-0.006": 7.2762965658,
			"-0.005": 6.08848990005,
			"-0.004": 5.84846542852,
			"-0.003": 6.73275249022,
			"-0.002": 6.06182848489,
			"-0.001": 5.59435783487,
			"0.0": 4.60638787033,
			"0.001": 4.68957916118,
			"0.002": 5.50030755102,
			"0.003": 4.73118693152,
			"0.004": 4.53147990689,
			"0.005": 5.19345443696,
			"0.006": 5.05593029431,
			"0.007": 5.67428778674,
			"0.008": 5.63014931116,
			"0.009": 5.67175048837,
			"0.01": 7.15871574157,
			"0.011": 9.11954305639,
			"0.012": 4.97305351543,
			"0.013": 1.75876622852,
			"0.014": 0.159183606891,
			"0.015": 0.0,
			"0.016": 0.0,
			"0.017": 0.0,
			"0.018": 0.0,
			"0.019": 0.0,
			"0.02": 0.0,
			"0.021": 0.0,
			"0.022": 0.0,
			"0.023": 0.0,
			"0.024": 0.0,
			"0.025": 0.0
		}
	}
}
