{
	 "smiles": "COC(=O)COC1=C(OC)C=CC(=C1)C(O)=O", 
	 "Tm": 418.15, 
	 "num_atms": 29, 
	 "gaussian": { 
		 "optdone": 1, 
		 "sigma_profile": "yes", 
		 "theory": "DFT", 
		 "functional": "B3LYP", 
		 "basiset": "6-31G**", 
		 "properties": { 
			 "R2extent": 5312.3311, 
			 "electric_dipole_moment_norm": 4.61481651315, 
			 "electric_quadrupole_moment_norm": 22.4257691007, 
			 "total_energy": -877.734710181, 
			 "HOMO_LUMO_gap": 0.18217, 
			 "cosmo_polarized_energy": -17.99, 
			 "cosmo_cavitation_energy": 34.44, 
			 "cosmo_dispersion_energy": -23.95, 
			 "cosmo_repulsion_energy": 1.9, 
			 "cosmo_total_nonelectrostatic_energy": 12.4, 
			 "SMD_solvation_energy": 9.78 
		},
		"coords": [
			{
				"x": -4.4433419872,
				"y": 1.7824273547,
				"z": 2.4830233179,
				"element": "C" 
			},
			{
				"x": -3.3952854607,
				"y": 2.0940365613,
				"z": 1.5456755738,
				"element": "O" 
			},
			{
				"x": -2.2831988138,
				"y": 1.3379696218,
				"z": 1.6517477304,
				"element": "C" 
			},
			{
				"x": -2.127293706,
				"y": 0.443421704,
				"z": 2.4458764193,
				"element": "O" 
			},
			{
				"x": -1.2516932012,
				"y": 1.8159184205,
				"z": 0.6293881162,
				"element": "C" 
			},
			{
				"x": -0.0972515937,
				"y": 1.0107772657,
				"z": 0.6019693512,
				"element": "O" 
			},
			{
				"x": -0.149513272,
				"y": -0.2107554293,
				"z": -0.0202527973,
				"element": "C" 
			},
			{
				"x": 1.0562517891,
				"y": -0.952194607,
				"z": -0.0220767973,
				"element": "C" 
			},
			{
				"x": 2.1881535587,
				"y": -0.5077650468,
				"z": 0.6021390055,
				"element": "O" 
			},
			{
				"x": 2.7942348646,
				"y": 0.6821441362,
				"z": 0.0871794416,
				"element": "C" 
			},
			{
				"x": 1.0847189844,
				"y": -2.2150281189,
				"z": -0.6151975469,
				"element": "C" 
			},
			{
				"x": -0.0503458189,
				"y": -2.7500912374,
				"z": -1.216583614,
				"element": "C" 
			},
			{
				"x": -1.2352172179,
				"y": -2.0096885165,
				"z": -1.2317535234,
				"element": "C" 
			},
			{
				"x": -1.2829157246,
				"y": -0.7414401934,
				"z": -0.6299334247,
				"element": "C" 
			},
			{
				"x": -2.4254623525,
				"y": -2.60375015,
				"z": -1.886379258,
				"element": "C" 
			},
			{
				"x": -3.5205511246,
				"y": -1.797202338,
				"z": -1.843100197,
				"element": "O" 
			},
			{
				"x": -2.4584298166,
				"y": -3.6954114422,
				"z": -2.4207066817,
				"element": "O" 
			},
			{
				"x": -4.776932314,
				"y": 0.7503333486,
				"z": 2.352686845,
				"element": "H" 
			},
			{
				"x": -5.2518287468,
				"y": 2.4785469162,
				"z": 2.2619520673,
				"element": "H" 
			},
			{
				"x": -4.0909219447,
				"y": 1.914527766,
				"z": 3.508786075,
				"element": "H" 
			},
			{
				"x": -0.9173271609,
				"y": 2.8140072343,
				"z": 0.9286344694,
				"element": "H" 
			},
			{
				"x": -1.7234166897,
				"y": 1.9107641006,
				"z": -0.3565469907,
				"element": "H" 
			},
			{
				"x": 3.7137431748,
				"y": 0.8196358569,
				"z": 0.659095831,
				"element": "H" 
			},
			{
				"x": 3.0447704905,
				"y": 0.5620815142,
				"z": -0.9745587794,
				"element": "H" 
			},
			{
				"x": 2.1478897347,
				"y": 1.5538533296,
				"z": 0.215241957,
				"element": "H" 
			},
			{
				"x": 2.0209061261,
				"y": -2.7626661382,
				"z": -0.5867381982,
				"element": "H" 
			},
			{
				"x": -0.0352843193,
				"y": -3.7293676218,
				"z": -1.6810356981,
				"element": "H" 
			},
			{
				"x": -2.221161304,
				"y": -0.2031043848,
				"z": -0.6336149898,
				"element": "H" 
			},
			{
				"x": -4.2229961536,
				"y": -2.2921799063,
				"z": -2.295217704,
				"element": "H" 
			}
		],
		 "valence_orbital": [ 
			{
				"type": "occ",
				"energy": -0.28658,
				"method": "rhf"
			},
			{
				"type": "occ",
				"energy": -0.2841,
				"method": "rhf"
			},
			{
				"type": "occ",
				"energy": -0.2719,
				"method": "rhf"
			},
			{
				"type": "occ",
				"energy": -0.24897,
				"method": "rhf"
			},
			{
				"type": "occ",
				"energy": -0.22443,
				"method": "rhf"
			},
			{
				"type": "unocc",
				"energy": -0.04226,
				"method": "rhf"
			},
			{
				"type": "unocc",
				"energy": -0.0011,
				"method": "rhf"
			},
			{
				"type": "unocc",
				"energy": 0.00163,
				"method": "rhf"
			},
			{
				"type": "unocc",
				"energy": 0.06461,
				"method": "rhf"
			},
			{
				"type": "unocc",
				"energy": 0.07444,
				"method": "rhf"
			}
		],
		"cosmo_sigma_profile": { 
			"-0.025": 0.0,
			"-0.024": 0.0,
			"-0.023": 0.0,
			"-0.022": 0.0,
			"-0.021": 0.0,
			"-0.02": 0.0,
			"-0.019": 0.0180422671063,
			"-0.018": 0.663564654078,
			"-0.017": 1.00128253601,
			"-0.016": 1.00960645273,
			"-0.015": 0.283029140079,
			"-0.014": 0.496214491,
			"-0.013": 0.649261250181,
			"-0.012": 1.31777179357,
			"-0.011": 0.661348666249,
			"-0.01": 1.50841121286,
			"-0.009": 4.14333728886,
			"-0.008": 5.049019745,
			"-0.007": 7.44244207514,
			"-0.006": 15.8729447799,
			"-0.005": 19.6152799304,
			"-0.004": 22.2848982463,
			"-0.003": 23.1714756214,
			"-0.002": 18.8227674008,
			"-0.001": 14.7777840118,
			"0.0": 17.2390279461,
			"0.001": 15.2208406063,
			"0.002": 17.7184043,
			"0.003": 16.4593738408,
			"0.004": 9.27749238871,
			"0.005": 7.77333208661,
			"0.006": 8.54941838217,
			"0.007": 7.38407213358,
			"0.008": 6.40349429377,
			"0.009": 6.31457778643,
			"0.01": 6.68113900387,
			"0.011": 9.59979930326,
			"0.012": 6.23364614017,
			"0.013": 0.167099310743,
			"0.014": 0.0,
			"0.015": 0.0,
			"0.016": 0.0,
			"0.017": 0.0,
			"0.018": 0.0,
			"0.019": 0.0,
			"0.02": 0.0,
			"0.021": 0.0,
			"0.022": 0.0,
			"0.023": 0.0,
			"0.024": 0.0,
			"0.025": 0.0
		}
	}
}
