{
	 "smiles": "OC(=O)C1=CC(Br)=NN1C1=CC=C(F)C=C1", 
	 "Tm": 451.15, 
	 "num_atms": 22, 
	 "gaussian": { 
		 "optdone": 1, 
		 "sigma_profile": "yes", 
		 "theory": "DFT", 
		 "functional": "B3LYP", 
		 "basiset": "6-31G**", 
		 "properties": { 
			 "R2extent": 6360.4476, 
			 "electric_dipole_moment_norm": 2.27204937886, 
			 "electric_quadrupole_moment_norm": 18.2215898253, 
			 "total_energy": -3315.84071303, 
			 "HOMO_LUMO_gap": 0.17709, 
			 "cosmo_polarized_energy": -16.24, 
			 "cosmo_cavitation_energy": 30.71, 
			 "cosmo_dispersion_energy": -22.38, 
			 "cosmo_repulsion_energy": 1.73, 
			 "cosmo_total_nonelectrostatic_energy": 10.06, 
			 "SMD_solvation_energy": 4.85 
		},
		"coords": [
			{
				"x": -2.3851807763,
				"y": -0.4879709105,
				"z": -3.3864890092,
				"element": "O" 
			},
			{
				"x": -1.3515606908,
				"y": -0.3020102914,
				"z": -2.5258401254,
				"element": "C" 
			},
			{
				"x": -0.3957383896,
				"y": 0.3619428107,
				"z": -2.8430309181,
				"element": "O" 
			},
			{
				"x": -1.4998181033,
				"y": -1.010089064,
				"z": -1.2269221962,
				"element": "C" 
			},
			{
				"x": -2.2024668293,
				"y": -2.179591895,
				"z": -0.958719986,
				"element": "C" 
			},
			{
				"x": -1.870314396,
				"y": -2.4833040395,
				"z": 0.3711071373,
				"element": "C" 
			},
			{
				"x": -2.4670423956,
				"y": -3.962129618,
				"z": 1.3710932609,
				"element": "Br" 
			},
			{
				"x": -1.0480612343,
				"y": -1.590669078,
				"z": 0.9063971224,
				"element": "N" 
			},
			{
				"x": -0.8165712231,
				"y": -0.6922171303,
				"z": -0.0782220779,
				"element": "N" 
			},
			{
				"x": 0.0295190006,
				"y": 0.4244018717,
				"z": 0.216784184,
				"element": "C" 
			},
			{
				"x": 1.2154133382,
				"y": 0.1906390702,
				"z": 0.9171732886,
				"element": "C" 
			},
			{
				"x": 2.0416936162,
				"y": 1.2598923369,
				"z": 1.2530233223,
				"element": "C" 
			},
			{
				"x": 1.6646772284,
				"y": 2.5436895879,
				"z": 0.8736555064,
				"element": "C" 
			},
			{
				"x": 2.4635709283,
				"y": 3.5797985513,
				"z": 1.1916844264,
				"element": "F" 
			},
			{
				"x": 0.4840826254,
				"y": 2.7917247558,
				"z": 0.1813232234,
				"element": "C" 
			},
			{
				"x": -0.3453106243,
				"y": 1.7209120527,
				"z": -0.1408546509,
				"element": "C" 
			},
			{
				"x": -3.1254139989,
				"y": -0.9203038364,
				"z": -2.9369194335,
				"element": "H" 
			},
			{
				"x": -2.8097051663,
				"y": -2.7656690556,
				"z": -1.6319302144,
				"element": "H" 
			},
			{
				"x": 1.4769727521,
				"y": -0.8224711071,
				"z": 1.1986151956,
				"element": "H" 
			},
			{
				"x": 2.9685297039,
				"y": 1.1094876999,
				"z": 1.7949314012,
				"element": "H" 
			},
			{
				"x": 0.2222217389,
				"y": 3.8086664689,
				"z": -0.0875420718,
				"element": "H" 
			},
			{
				"x": -1.2769971042,
				"y": 1.8990708199,
				"z": -0.6642173853,
				"element": "H" 
			}
		],
		 "valence_orbital": [ 
			{
				"type": "occ",
				"energy": -0.29609,
				"method": "rhf"
			},
			{
				"type": "occ",
				"energy": -0.29094,
				"method": "rhf"
			},
			{
				"type": "occ",
				"energy": -0.2742,
				"method": "rhf"
			},
			{
				"type": "occ",
				"energy": -0.27264,
				"method": "rhf"
			},
			{
				"type": "occ",
				"energy": -0.24309,
				"method": "rhf"
			},
			{
				"type": "unocc",
				"energy": -0.066,
				"method": "rhf"
			},
			{
				"type": "unocc",
				"energy": -0.02443,
				"method": "rhf"
			},
			{
				"type": "unocc",
				"energy": -0.01291,
				"method": "rhf"
			},
			{
				"type": "unocc",
				"energy": 0.00065,
				"method": "rhf"
			},
			{
				"type": "unocc",
				"energy": 0.01638,
				"method": "rhf"
			}
		],
		"cosmo_sigma_profile": { 
			"-0.025": 0.0,
			"-0.024": 0.0,
			"-0.023": 0.0,
			"-0.022": 0.0,
			"-0.021": 0.0,
			"-0.02": 0.138123963953,
			"-0.019": 0.750612330765,
			"-0.018": 0.680874207365,
			"-0.017": 1.24572464013,
			"-0.016": 1.02597866063,
			"-0.015": 0.976953497697,
			"-0.014": 1.5058500399,
			"-0.013": 1.33592731566,
			"-0.012": 1.09115065855,
			"-0.011": 1.95778109306,
			"-0.01": 1.77789643609,
			"-0.009": 3.24544113136,
			"-0.008": 7.55925013043,
			"-0.007": 8.93875686627,
			"-0.006": 10.4764018422,
			"-0.005": 9.70553627082,
			"-0.004": 9.96459075521,
			"-0.003": 11.3393540525,
			"-0.002": 13.4859626024,
			"-0.001": 15.2809025011,
			"0.0": 21.8553243584,
			"0.001": 20.6438686287,
			"0.002": 22.4227495485,
			"0.003": 22.4573382766,
			"0.004": 22.718968757,
			"0.005": 5.75298416838,
			"0.006": 3.96924123287,
			"0.007": 4.46284257203,
			"0.008": 5.21302354119,
			"0.009": 5.8666677152,
			"0.01": 5.58381395168,
			"0.011": 5.61396458195,
			"0.012": 2.25754330697,
			"0.013": 0.098645504524,
			"0.014": 0.0,
			"0.015": 0.0,
			"0.016": 0.0,
			"0.017": 0.0,
			"0.018": 0.0,
			"0.019": 0.0,
			"0.02": 0.0,
			"0.021": 0.0,
			"0.022": 0.0,
			"0.023": 0.0,
			"0.024": 0.0,
			"0.025": 0.0
		}
	}
}
