{
	 "smiles": "CCN1C(=O)NC2=C1C=CC=C2", 
	 "Tm": 395.15, 
	 "num_atms": 22, 
	 "gaussian": { 
		 "optdone": 1, 
		 "sigma_profile": "yes", 
		 "theory": "DFT", 
		 "functional": "B3LYP", 
		 "basiset": "6-31G**", 
		 "properties": { 
			 "R2extent": 2299.2122, 
			 "electric_dipole_moment_norm": 2.36621432884, 
			 "electric_quadrupole_moment_norm": 16.7339064988, 
			 "total_energy": -533.75360172, 
			 "HOMO_LUMO_gap": 0.19882, 
			 "cosmo_polarized_energy": -11.71, 
			 "cosmo_cavitation_energy": 25.46, 
			 "cosmo_dispersion_energy": -18.66, 
			 "cosmo_repulsion_energy": 1.48, 
			 "cosmo_total_nonelectrostatic_energy": 8.28, 
			 "SMD_solvation_energy": 4.87 
		},
		"coords": [
			{
				"x": -0.3764272394,
				"y": -2.2749851604,
				"z": -2.3346385066,
				"element": "C" 
			},
			{
				"x": -1.0065022781,
				"y": -1.7474638842,
				"z": -1.0425906415,
				"element": "C" 
			},
			{
				"x": -0.9423416016,
				"y": -0.2986909096,
				"z": -0.9236771792,
				"element": "N" 
			},
			{
				"x": -2.0296917796,
				"y": 0.5238607,
				"z": -1.2344997094,
				"element": "C" 
			},
			{
				"x": -3.1391718442,
				"y": 0.1739134676,
				"z": -1.6029416791,
				"element": "O" 
			},
			{
				"x": -1.5697123538,
				"y": 1.8231537991,
				"z": -1.0267168404,
				"element": "N" 
			},
			{
				"x": -0.2452171484,
				"y": 1.8253152793,
				"z": -0.6052385457,
				"element": "C" 
			},
			{
				"x": 0.1544780948,
				"y": 0.4719037631,
				"z": -0.5454507543,
				"element": "C" 
			},
			{
				"x": 1.4407919772,
				"y": 0.1236744365,
				"z": -0.1491753914,
				"element": "C" 
			},
			{
				"x": 2.3226748571,
				"y": 1.1600425211,
				"z": 0.1869299313,
				"element": "C" 
			},
			{
				"x": 1.9249760472,
				"y": 2.4986662483,
				"z": 0.12564523,
				"element": "C" 
			},
			{
				"x": 0.6283055481,
				"y": 2.8516675515,
				"z": -0.2732340935,
				"element": "C" 
			},
			{
				"x": -0.4405890787,
				"y": -3.3674417161,
				"z": -2.36642427,
				"element": "H" 
			},
			{
				"x": 0.6782153042,
				"y": -1.992953449,
				"z": -2.4098852073,
				"element": "H" 
			},
			{
				"x": -0.9017537456,
				"y": -1.8750647644,
				"z": -3.2064409383,
				"element": "H" 
			},
			{
				"x": -2.0676592633,
				"y": -2.0056108263,
				"z": -1.0034437761,
				"element": "H" 
			},
			{
				"x": -0.5205963701,
				"y": -2.1856855292,
				"z": -0.1632835687,
				"element": "H" 
			},
			{
				"x": -2.1651281266,
				"y": 2.6221638947,
				"z": -1.171415525,
				"element": "H" 
			},
			{
				"x": 1.754611222,
				"y": -0.9138968573,
				"z": -0.101138258,
				"element": "H" 
			},
			{
				"x": 3.3330331443,
				"y": 0.9144383194,
				"z": 0.4989931211,
				"element": "H" 
			},
			{
				"x": 2.6291838677,
				"y": 3.2811595056,
				"z": 0.3904974105,
				"element": "H" 
			},
			{
				"x": 0.3185207667,
				"y": 3.8911336104,
				"z": -0.3192708084,
				"element": "H" 
			}
		],
		 "valence_orbital": [ 
			{
				"type": "occ",
				"energy": -0.31525,
				"method": "rhf"
			},
			{
				"type": "occ",
				"energy": -0.29843,
				"method": "rhf"
			},
			{
				"type": "occ",
				"energy": -0.26563,
				"method": "rhf"
			},
			{
				"type": "occ",
				"energy": -0.23508,
				"method": "rhf"
			},
			{
				"type": "occ",
				"energy": -0.20366,
				"method": "rhf"
			},
			{
				"type": "unocc",
				"energy": -0.00484,
				"method": "rhf"
			},
			{
				"type": "unocc",
				"energy": 0.01418,
				"method": "rhf"
			},
			{
				"type": "unocc",
				"energy": 0.06853,
				"method": "rhf"
			},
			{
				"type": "unocc",
				"energy": 0.08531,
				"method": "rhf"
			},
			{
				"type": "unocc",
				"energy": 0.09093,
				"method": "rhf"
			}
		],
		"cosmo_sigma_profile": { 
			"-0.025": 0.0,
			"-0.024": 0.0,
			"-0.023": 0.0,
			"-0.022": 0.0,
			"-0.021": 0.0,
			"-0.02": 0.0,
			"-0.019": 0.0,
			"-0.018": 0.0,
			"-0.017": 0.00981146170717,
			"-0.016": 0.892075099912,
			"-0.015": 1.53565695242,
			"-0.014": 0.899549126201,
			"-0.013": 1.1482902778,
			"-0.012": 0.858022254968,
			"-0.011": 0.856049494823,
			"-0.01": 1.34800914814,
			"-0.009": 1.11796634984,
			"-0.008": 0.898081895504,
			"-0.007": 1.89072023863,
			"-0.006": 8.36555256206,
			"-0.005": 12.7849164998,
			"-0.004": 16.2772064756,
			"-0.003": 19.8370489555,
			"-0.002": 16.0884440671,
			"-0.001": 19.0317929807,
			"0.0": 19.5283310771,
			"0.001": 14.4568759017,
			"0.002": 10.82913275,
			"0.003": 8.12633298069,
			"0.004": 8.4894407674,
			"0.005": 9.40927372771,
			"0.006": 8.21318446463,
			"0.007": 2.31919823966,
			"0.008": 1.37857694724,
			"0.009": 0.840848771369,
			"0.01": 1.35249205894,
			"0.011": 1.70249437521,
			"0.012": 1.42448606505,
			"0.013": 4.07304651192,
			"0.014": 5.7446892152,
			"0.015": 0.55737300245,
			"0.016": 0.0,
			"0.017": 0.0,
			"0.018": 0.0,
			"0.019": 0.0,
			"0.02": 0.0,
			"0.021": 0.0,
			"0.022": 0.0,
			"0.023": 0.0,
			"0.024": 0.0,
			"0.025": 0.0
		}
	}
}
