{
	 "smiles": "ClC1=CC=C(CC(=O)CC#N)C=C1", 
	 "Tm": 359.15, 
	 "num_atms": 21, 
	 "gaussian": { 
		 "optdone": 1, 
		 "sigma_profile": "yes", 
		 "theory": "DFT", 
		 "functional": "B3LYP", 
		 "basiset": "6-31G**", 
		 "properties": { 
			 "R2extent": 4000.2479, 
			 "electric_dipole_moment_norm": 5.25351905393, 
			 "electric_quadrupole_moment_norm": 24.4993845612, 
			 "total_energy": -976.029696035, 
			 "HOMO_LUMO_gap": 0.20263, 
			 "cosmo_polarized_energy": -17.44, 
			 "cosmo_cavitation_energy": 28.98, 
			 "cosmo_dispersion_energy": -19.85, 
			 "cosmo_repulsion_energy": 1.6, 
			 "cosmo_total_nonelectrostatic_energy": 10.74, 
			 "SMD_solvation_energy": 6.57 
		},
		"coords": [
			{
				"x": 2.1245886433,
				"y": -1.7246552162,
				"z": 3.819126921,
				"element": "Cl" 
			},
			{
				"x": 1.4292867761,
				"y": -0.5036912892,
				"z": 2.7665355621,
				"element": "C" 
			},
			{
				"x": 2.0858219192,
				"y": -0.1613176956,
				"z": 1.5833672346,
				"element": "C" 
			},
			{
				"x": 1.5299135669,
				"y": 0.8099945316,
				"z": 0.7536520045,
				"element": "C" 
			},
			{
				"x": 0.3266945599,
				"y": 1.4457936696,
				"z": 1.0928412692,
				"element": "C" 
			},
			{
				"x": -0.2656238524,
				"y": 2.4982891189,
				"z": 0.1687722687,
				"element": "C" 
			},
			{
				"x": -0.6250430429,
				"y": 1.8881536048,
				"z": -1.1863404277,
				"element": "C" 
			},
			{
				"x": 0.0962546792,
				"y": 1.9827505567,
				"z": -2.1523615859,
				"element": "O" 
			},
			{
				"x": -1.9551396412,
				"y": 1.1114859119,
				"z": -1.2206132405,
				"element": "C" 
			},
			{
				"x": -2.1918107909,
				"y": 0.3979457692,
				"z": -2.4720212448,
				"element": "C" 
			},
			{
				"x": -2.3983757379,
				"y": -0.1767115199,
				"z": -3.4577023314,
				"element": "N" 
			},
			{
				"x": -0.3135354697,
				"y": 1.080784606,
				"z": 2.2827310708,
				"element": "C" 
			},
			{
				"x": 0.2310282827,
				"y": 0.1104488287,
				"z": 3.1254668671,
				"element": "C" 
			},
			{
				"x": 3.0171395993,
				"y": -0.6489627906,
				"z": 1.3177494615,
				"element": "H" 
			},
			{
				"x": 2.0343796934,
				"y": 1.0755381014,
				"z": -0.1711762318,
				"element": "H" 
			},
			{
				"x": -1.1542879858,
				"y": 2.9411015764,
				"z": 0.6316619291,
				"element": "H" 
			},
			{
				"x": 0.4572590029,
				"y": 3.2959440757,
				"z": -0.0251131928,
				"element": "H" 
			},
			{
				"x": -1.9746278617,
				"y": 0.4064214249,
				"z": -0.3801517699,
				"element": "H" 
			},
			{
				"x": -2.7750016527,
				"y": 1.8205354926,
				"z": -1.0438196837,
				"element": "H" 
			},
			{
				"x": -1.2440696289,
				"y": 1.5653486349,
				"z": 2.5672269366,
				"element": "H" 
			},
			{
				"x": -0.2664510588,
				"y": -0.1637973921,
				"z": 4.0490681833,
				"element": "H" 
			}
		],
		 "valence_orbital": [ 
			{
				"type": "occ",
				"energy": -0.3307,
				"method": "rhf"
			},
			{
				"type": "occ",
				"energy": -0.32275,
				"method": "rhf"
			},
			{
				"type": "occ",
				"energy": -0.28294,
				"method": "rhf"
			},
			{
				"type": "occ",
				"energy": -0.27961,
				"method": "rhf"
			},
			{
				"type": "occ",
				"energy": -0.25442,
				"method": "rhf"
			},
			{
				"type": "unocc",
				"energy": -0.05179,
				"method": "rhf"
			},
			{
				"type": "unocc",
				"energy": -0.03333,
				"method": "rhf"
			},
			{
				"type": "unocc",
				"energy": -0.02021,
				"method": "rhf"
			},
			{
				"type": "unocc",
				"energy": 0.01851,
				"method": "rhf"
			},
			{
				"type": "unocc",
				"energy": 0.02436,
				"method": "rhf"
			}
		],
		"cosmo_sigma_profile": { 
			"-0.025": 0.0,
			"-0.024": 0.0,
			"-0.023": 0.0,
			"-0.022": 0.0,
			"-0.021": 0.0,
			"-0.02": 0.0,
			"-0.019": 0.0,
			"-0.018": 0.0,
			"-0.017": 0.0,
			"-0.016": 0.0,
			"-0.015": 0.0,
			"-0.014": 0.0,
			"-0.013": 0.0,
			"-0.012": 0.101715004103,
			"-0.011": 2.66630396695,
			"-0.01": 4.82780478915,
			"-0.009": 5.11254219822,
			"-0.008": 7.65268933958,
			"-0.007": 14.7157119762,
			"-0.006": 13.8467913961,
			"-0.005": 14.3061862457,
			"-0.004": 12.7848689875,
			"-0.003": 11.4274889063,
			"-0.002": 10.3191128306,
			"-0.001": 11.1461138615,
			"0.0": 13.9826612876,
			"0.001": 12.9378028745,
			"0.002": 16.3044878603,
			"0.003": 19.9547972936,
			"0.004": 15.2179683338,
			"0.005": 10.0936404074,
			"0.006": 3.61143099217,
			"0.007": 5.29565972205,
			"0.008": 6.27395319401,
			"0.009": 5.8047178284,
			"0.01": 7.32064304452,
			"0.011": 5.36711725329,
			"0.012": 2.61215987663,
			"0.013": 1.28529795392,
			"0.014": 0.0403518629541,
			"0.015": 0.0,
			"0.016": 0.0,
			"0.017": 0.0,
			"0.018": 0.0,
			"0.019": 0.0,
			"0.02": 0.0,
			"0.021": 0.0,
			"0.022": 0.0,
			"0.023": 0.0,
			"0.024": 0.0,
			"0.025": 0.0
		}
	}
}
