{
	 "smiles": "CC1=C(C=C(C=C1)[N+]([O-])=O)S(=O)(=O)NC1=C(C=CC=C1)C(O)=O", 
	 "Tm": 564.15, 
	 "num_atms": 35, 
	 "gaussian": { 
		 "optdone": 1, 
		 "sigma_profile": "yes", 
		 "theory": "DFT", 
		 "functional": "B3LYP", 
		 "basiset": "6-31G**", 
		 "properties": { 
			 "R2extent": 8521.4424, 
			 "electric_dipole_moment_norm": 6.80550090809, 
			 "electric_quadrupole_moment_norm": 24.9252372029, 
			 "total_energy": -1499.61435218, 
			 "HOMO_LUMO_gap": 0.1456, 
			 "cosmo_polarized_energy": -19.28, 
			 "cosmo_cavitation_energy": 40.95, 
			 "cosmo_dispersion_energy": -28.78, 
			 "cosmo_repulsion_energy": 2.12, 
			 "cosmo_total_nonelectrostatic_energy": 14.29, 
			 "SMD_solvation_energy": 9.48 
		},
		"coords": [
			{
				"x": -0.0053445266,
				"y": 3.141253292,
				"z": -0.0474625608,
				"element": "C" 
			},
			{
				"x": 0.4838794929,
				"y": 2.3817798657,
				"z": -1.2543897537,
				"element": "C" 
			},
			{
				"x": -0.336201495,
				"y": 1.5398781224,
				"z": -2.0407969573,
				"element": "C" 
			},
			{
				"x": 0.1568423337,
				"y": 0.8610234829,
				"z": -3.1532560186,
				"element": "C" 
			},
			{
				"x": 1.4980676405,
				"y": 1.0136522845,
				"z": -3.48659076,
				"element": "C" 
			},
			{
				"x": 2.3468251926,
				"y": 1.8276362102,
				"z": -2.7439894374,
				"element": "C" 
			},
			{
				"x": 1.8282006649,
				"y": 2.4996552593,
				"z": -1.6417455183,
				"element": "C" 
			},
			{
				"x": 2.0293187331,
				"y": 0.2933160313,
				"z": -4.65443832,
				"element": "N" 
			},
			{
				"x": 1.2553573432,
				"y": -0.430681196,
				"z": -5.2774919864,
				"element": "O" 
			},
			{
				"x": 3.2167676161,
				"y": 0.4601004922,
				"z": -4.9298883311,
				"element": "O" 
			},
			{
				"x": -2.0933929814,
				"y": 1.293089624,
				"z": -1.6816928087,
				"element": "S" 
			},
			{
				"x": -2.7006140937,
				"y": 2.5787391541,
				"z": -1.3461853224,
				"element": "O" 
			},
			{
				"x": -2.6288409388,
				"y": 0.4533251509,
				"z": -2.7524355677,
				"element": "O" 
			},
			{
				"x": -2.1372750039,
				"y": 0.4294887071,
				"z": -0.2371483415,
				"element": "N" 
			},
			{
				"x": -1.6459934262,
				"y": -0.8615463377,
				"z": 0.0023132325,
				"element": "C" 
			},
			{
				"x": -1.2391927855,
				"y": -1.2210520531,
				"z": 1.3188603494,
				"element": "C" 
			},
			{
				"x": -0.7785202545,
				"y": -2.528322298,
				"z": 1.5652336579,
				"element": "C" 
			},
			{
				"x": -0.6965198653,
				"y": -3.4659755505,
				"z": 0.5475639283,
				"element": "C" 
			},
			{
				"x": -1.0975421791,
				"y": -3.1038639712,
				"z": -0.7427635786,
				"element": "C" 
			},
			{
				"x": -1.5747776899,
				"y": -1.8275678245,
				"z": -1.0161202623,
				"element": "C" 
			},
			{
				"x": -1.2919037772,
				"y": -0.247455902,
				"z": 2.4250998591,
				"element": "C" 
			},
			{
				"x": -0.8693425957,
				"y": -0.7391512845,
				"z": 3.6081436829,
				"element": "O" 
			},
			{
				"x": -1.6703796486,
				"y": 0.9201012537,
				"z": 2.3405423347,
				"element": "O" 
			},
			{
				"x": -0.8644123346,
				"y": 3.7674784607,
				"z": -0.2985040768,
				"element": "H" 
			},
			{
				"x": -0.3276661208,
				"y": 2.464138133,
				"z": 0.7511841278,
				"element": "H" 
			},
			{
				"x": 0.7924469851,
				"y": 3.7716591123,
				"z": 0.3509538487,
				"element": "H" 
			},
			{
				"x": -0.4894896367,
				"y": 0.2364131828,
				"z": -3.7555485558,
				"element": "H" 
			},
			{
				"x": 3.3852344794,
				"y": 1.9246075827,
				"z": -3.0354406029,
				"element": "H" 
			},
			{
				"x": 2.4813603421,
				"y": 3.141867341,
				"z": -1.0589052819,
				"element": "H" 
			},
			{
				"x": -2.1880084459,
				"y": 1.0269576413,
				"z": 0.5927596371,
				"element": "H" 
			},
			{
				"x": -0.481674996,
				"y": -2.7876408449,
				"z": 2.574338574,
				"element": "H" 
			},
			{
				"x": -0.3348459634,
				"y": -4.4677934625,
				"z": 0.7534359556,
				"element": "H" 
			},
			{
				"x": -1.0528737497,
				"y": -3.8303237,
				"z": -1.5489940056,
				"element": "H" 
			},
			{
				"x": -1.9206096717,
				"y": -1.5747981559,
				"z": -2.0096807741,
				"element": "H" 
			},
			{
				"x": -0.9594786434,
				"y": -0.0124878035,
				"z": 4.2466396338,
				"element": "H" 
			}
		],
		 "valence_orbital": [ 
			{
				"type": "occ",
				"energy": -0.29891,
				"method": "rhf"
			},
			{
				"type": "occ",
				"energy": -0.29317,
				"method": "rhf"
			},
			{
				"type": "occ",
				"energy": -0.2874,
				"method": "rhf"
			},
			{
				"type": "occ",
				"energy": -0.27957,
				"method": "rhf"
			},
			{
				"type": "occ",
				"energy": -0.24423,
				"method": "rhf"
			},
			{
				"type": "unocc",
				"energy": -0.09863,
				"method": "rhf"
			},
			{
				"type": "unocc",
				"energy": -0.07073,
				"method": "rhf"
			},
			{
				"type": "unocc",
				"energy": -0.05635,
				"method": "rhf"
			},
			{
				"type": "unocc",
				"energy": -0.02307,
				"method": "rhf"
			},
			{
				"type": "unocc",
				"energy": -0.01363,
				"method": "rhf"
			}
		],
		"cosmo_sigma_profile": { 
			"-0.025": 0.0,
			"-0.024": 0.0,
			"-0.023": 0.0,
			"-0.022": 0.0,
			"-0.021": 0.0,
			"-0.02": 0.0,
			"-0.019": 0.302580271029,
			"-0.018": 0.795386181659,
			"-0.017": 1.0058609072,
			"-0.016": 1.16690594074,
			"-0.015": 0.589838646372,
			"-0.014": 0.370820671908,
			"-0.013": 0.463885698825,
			"-0.012": 1.18252148358,
			"-0.011": 0.960216846346,
			"-0.01": 0.4821551302,
			"-0.009": 0.852301649829,
			"-0.008": 5.57481697747,
			"-0.007": 11.5449269438,
			"-0.006": 15.4434551393,
			"-0.005": 18.9769418064,
			"-0.004": 20.3946602207,
			"-0.003": 26.4588408126,
			"-0.002": 29.9039234994,
			"-0.001": 33.6459655836,
			"0.0": 24.3433273771,
			"0.001": 18.310004355,
			"0.002": 19.5689989331,
			"0.003": 18.8943760633,
			"0.004": 10.550129304,
			"0.005": 8.58131688823,
			"0.006": 9.36589642981,
			"0.007": 14.9492602845,
			"0.008": 11.0490759852,
			"0.009": 9.64716286519,
			"0.01": 9.65601255004,
			"0.011": 4.2452790805,
			"0.012": 0.053524225075,
			"0.013": 0.0,
			"0.014": 0.0,
			"0.015": 0.0,
			"0.016": 0.0,
			"0.017": 0.0,
			"0.018": 0.0,
			"0.019": 0.0,
			"0.02": 0.0,
			"0.021": 0.0,
			"0.022": 0.0,
			"0.023": 0.0,
			"0.024": 0.0,
			"0.0": 0.0
		}
	}
}
