{
	 "smiles": "CC1=CC(C)=C(C(=O)CCl)C(C)=C1C(=O)CCl", 
	 "Tm": 410.15, 
	 "num_atms": 31, 
	 "gaussian": { 
		 "optdone": 1, 
		 "sigma_profile": "yes", 
		 "theory": "DFT", 
		 "functional": "B3LYP", 
		 "basiset": "6-31G**", 
		 "properties": { 
			 "R2extent": 6264.6836, 
			 "electric_dipole_moment_norm": 2.02151630466, 
			 "electric_quadrupole_moment_norm": 14.8467256889, 
			 "total_energy": -1574.64864678, 
			 "HOMO_LUMO_gap": 0.18503, 
			 "cosmo_polarized_energy": -12.99, 
			 "cosmo_cavitation_energy": 37.09, 
			 "cosmo_dispersion_energy": -25.25, 
			 "cosmo_repulsion_energy": 1.97, 
			 "cosmo_total_nonelectrostatic_energy": 13.81, 
			 "SMD_solvation_energy": 6.65 
		},
		"coords": [
			{
				"x": 2.7044748516,
				"y": 1.2326725505,
				"z": 1.7670915981,
				"element": "C" 
			},
			{
				"x": 1.3816699849,
				"y": 0.5313068042,
				"z": 1.546149014,
				"element": "C" 
			},
			{
				"x": 0.2062151642,
				"y": 1.2342729783,
				"z": 1.8184052263,
				"element": "C" 
			},
			{
				"x": -1.0616978363,
				"y": 0.6879242658,
				"z": 1.6264302656,
				"element": "C" 
			},
			{
				"x": -2.2897954196,
				"y": 1.4957041588,
				"z": 1.9736057321,
				"element": "C" 
			},
			{
				"x": -1.148240992,
				"y": -0.6142618382,
				"z": 1.0916945178,
				"element": "C" 
			},
			{
				"x": -2.5206124427,
				"y": -1.1933595378,
				"z": 0.8508835373,
				"element": "C" 
			},
			{
				"x": -3.3151036281,
				"y": -1.3773167209,
				"z": 1.7530558109,
				"element": "O" 
			},
			{
				"x": -2.9508485247,
				"y": -1.4970746758,
				"z": -0.5899488272,
				"element": "C" 
			},
			{
				"x": -3.0744822349,
				"y": 0.0426154435,
				"z": -1.5443018255,
				"element": "Cl" 
			},
			{
				"x": 0.0081693449,
				"y": -1.3650810671,
				"z": 0.8156544504,
				"element": "C" 
			},
			{
				"x": -0.1122496654,
				"y": -2.8013118409,
				"z": 0.338306387,
				"element": "C" 
			},
			{
				"x": 1.2777905251,
				"y": -0.7863170603,
				"z": 1.054993395,
				"element": "C" 
			},
			{
				"x": 2.4956977031,
				"y": -1.5888067119,
				"z": 0.6977016033,
				"element": "C" 
			},
			{
				"x": 2.6011371407,
				"y": -2.1460319828,
				"z": -0.3813785382,
				"element": "O" 
			},
			{
				"x": 3.6613604645,
				"y": -1.7753447578,
				"z": 1.6801393498,
				"element": "C" 
			},
			{
				"x": 3.1527071957,
				"y": -1.98777706,
				"z": 3.40299514,
				"element": "Cl" 
			},
			{
				"x": 3.2149096958,
				"y": 0.8552211087,
				"z": 2.6599503153,
				"element": "H" 
			},
			{
				"x": 3.3807409516,
				"y": 1.1193889632,
				"z": 0.9135356128,
				"element": "H" 
			},
			{
				"x": 2.5441689739,
				"y": 2.3034338339,
				"z": 1.9136335543,
				"element": "H" 
			},
			{
				"x": 0.2833055067,
				"y": 2.2512671848,
				"z": 2.1941456137,
				"element": "H" 
			},
			{
				"x": -2.009585356,
				"y": 2.4959140951,
				"z": 2.3123221069,
				"element": "H" 
			},
			{
				"x": -2.9561676436,
				"y": 1.6036173738,
				"z": 1.1112231208,
				"element": "H" 
			},
			{
				"x": -2.8657237316,
				"y": 1.0086989279,
				"z": 2.7654606885,
				"element": "H" 
			},
			{
				"x": -2.2386142321,
				"y": -2.1290586562,
				"z": -1.1191685696,
				"element": "H" 
			},
			{
				"x": -3.9394025366,
				"y": -1.9541439656,
				"z": -0.5720174101,
				"element": "H" 
			},
			{
				"x": -1.0795891124,
				"y": -3.2314687326,
				"z": 0.6076822985,
				"element": "H" 
			},
			{
				"x": 0.6516919243,
				"y": -3.437075912,
				"z": 0.7903033413,
				"element": "H" 
			},
			{
				"x": 0.0240206096,
				"y": -2.8802783785,
				"z": -0.7448691739,
				"element": "H" 
			},
			{
				"x": 4.1985303812,
				"y": -2.6728573961,
				"z": 1.376485652,
				"element": "H" 
			},
			{
				"x": 4.3422229383,
				"y": -0.9232713938,
				"z": 1.6472360129,
				"element": "H" 
			}
		],
		 "valence_orbital": [ 
			{
				"type": "occ",
				"energy": -0.3085,
				"method": "rhf"
			},
			{
				"type": "occ",
				"energy": -0.27238,
				"method": "rhf"
			},
			{
				"type": "occ",
				"energy": -0.26381,
				"method": "rhf"
			},
			{
				"type": "occ",
				"energy": -0.25398,
				"method": "rhf"
			},
			{
				"type": "occ",
				"energy": -0.2514,
				"method": "rhf"
			},
			{
				"type": "unocc",
				"energy": -0.06637,
				"method": "rhf"
			},
			{
				"type": "unocc",
				"energy": -0.06312,
				"method": "rhf"
			},
			{
				"type": "unocc",
				"energy": -0.01164,
				"method": "rhf"
			},
			{
				"type": "unocc",
				"energy": -0.00391,
				"method": "rhf"
			},
			{
				"type": "unocc",
				"energy": 0.02505,
				"method": "rhf"
			}
		],
		"cosmo_sigma_profile": { 
			"-0.025": 0.0,
			"-0.024": 0.0,
			"-0.023": 0.0,
			"-0.022": 0.0,
			"-0.021": 0.0,
			"-0.02": 0.0,
			"-0.019": 0.0,
			"-0.018": 0.0,
			"-0.017": 0.0,
			"-0.016": 0.0,
			"-0.015": 0.0,
			"-0.014": 0.0,
			"-0.013": 0.0,
			"-0.012": 0.0,
			"-0.011": 0.000713427721242,
			"-0.01": 0.353884500532,
			"-0.009": 3.33762170546,
			"-0.008": 10.4718155965,
			"-0.007": 9.87520213717,
			"-0.006": 17.0216463652,
			"-0.005": 17.9964222983,
			"-0.004": 17.0400868219,
			"-0.003": 18.7399515422,
			"-0.002": 21.042689622,
			"-0.001": 29.372916471,
			"0.0": 24.0660449491,
			"0.001": 16.636674446,
			"0.002": 18.6403632728,
			"0.003": 22.8002366112,
			"0.004": 19.0414346473,
			"0.005": 18.3349389975,
			"0.006": 9.04662086625,
			"0.007": 3.31403393066,
			"0.008": 3.93173354416,
			"0.009": 4.30530773425,
			"0.01": 6.93749532064,
			"0.011": 5.42944884684,
			"0.012": 0.261404119406,
			"0.013": 0.0,
			"0.014": 0.0,
			"0.015": 0.0,
			"0.016": 0.0,
			"0.017": 0.0,
			"0.018": 0.0,
			"0.019": 0.0,
			"0.02": 0.0,
			"0.021": 0.0,
			"0.022": 0.0,
			"0.023": 0.0,
			"0.024": 0.0,
			"0.025": 0.0
		}
	}
}
