{
	 "smiles": "CCCCCCCOC(=O)CCC", 
	 "Tm": 215.65, 
	 "num_atms": 35, 
	 "gaussian": { 
		 "optdone": 1, 
		 "sigma_profile": "yes", 
		 "theory": "DFT", 
		 "functional": "B3LYP", 
		 "basiset": "6-31G**", 
		 "properties": { 
			 "R2extent": 4549.2923, 
			 "electric_dipole_moment_norm": 1.83122678552, 
			 "electric_quadrupole_moment_norm": 8.56151167026, 
			 "total_energy": -582.92200724, 
			 "HOMO_LUMO_gap": 0.28259, 
			 "cosmo_polarized_energy": -6.25, 
			 "cosmo_cavitation_energy": 36.48, 
			 "cosmo_dispersion_energy": -24.97, 
			 "cosmo_repulsion_energy": 2.11, 
			 "cosmo_total_nonelectrostatic_energy": 13.62, 
			 "SMD_solvation_energy": 6.42 
		},
		"coords": [
			{
				"x": -3.4633203388,
				"y": -0.3574005284,
				"z": -2.117337758,
				"element": "C" 
			},
			{
				"x": -3.1768965576,
				"y": -1.8599776565,
				"z": -2.0083763238,
				"element": "C" 
			},
			{
				"x": -2.0390896017,
				"y": -2.2244476089,
				"z": -1.040335505,
				"element": "C" 
			},
			{
				"x": -0.6480966701,
				"y": -1.7368285882,
				"z": -1.4706452396,
				"element": "C" 
			},
			{
				"x": 0.4608766055,
				"y": -2.1788661946,
				"z": -0.505267937,
				"element": "C" 
			},
			{
				"x": 1.8822949758,
				"y": -1.7726041822,
				"z": -0.9287341459,
				"element": "C" 
			},
			{
				"x": 2.1521964129,
				"y": -0.274134078,
				"z": -0.9274955285,
				"element": "C" 
			},
			{
				"x": 1.9956936928,
				"y": 0.2044332865,
				"z": 0.4291499694,
				"element": "O" 
			},
			{
				"x": 2.1474115188,
				"y": 1.5352210882,
				"z": 0.6109185661,
				"element": "C" 
			},
			{
				"x": 2.3878942574,
				"y": 2.3098697908,
				"z": -0.2915465242,
				"element": "O" 
			},
			{
				"x": 2.0096863926,
				"y": 1.90341477,
				"z": 2.0774218952,
				"element": "C" 
			},
			{
				"x": 1.8119751296,
				"y": 3.4050204863,
				"z": 2.310644306,
				"element": "C" 
			},
			{
				"x": 0.4500192513,
				"y": 3.9216945589,
				"z": 1.8355013648,
				"element": "C" 
			},
			{
				"x": -3.7013659603,
				"y": 0.0704624764,
				"z": -1.1363397569,
				"element": "H" 
			},
			{
				"x": -2.6082430704,
				"y": 0.1952347266,
				"z": -2.5198599649,
				"element": "H" 
			},
			{
				"x": -4.315601743,
				"y": -0.1660525194,
				"z": -2.7776735279,
				"element": "H" 
			},
			{
				"x": -4.0908033649,
				"y": -2.372625657,
				"z": -1.6819020719,
				"element": "H" 
			},
			{
				"x": -2.9451212418,
				"y": -2.2613568362,
				"z": -3.0046709936,
				"element": "H" 
			},
			{
				"x": -2.2704488342,
				"y": -1.8225174623,
				"z": -0.0432629006,
				"element": "H" 
			},
			{
				"x": -2.0087025747,
				"y": -3.3167345228,
				"z": -0.9260289546,
				"element": "H" 
			},
			{
				"x": -0.4275697531,
				"y": -2.1194833368,
				"z": -2.4782404293,
				"element": "H" 
			},
			{
				"x": -0.652569486,
				"y": -0.6430899425,
				"z": -1.5537386341,
				"element": "H" 
			},
			{
				"x": 0.2593024908,
				"y": -1.7755924911,
				"z": 0.4947713949,
				"element": "H" 
			},
			{
				"x": 0.4304537502,
				"y": -3.2719538725,
				"z": -0.4066580665,
				"element": "H" 
			},
			{
				"x": 2.0888618695,
				"y": -2.1420783888,
				"z": -1.9423453152,
				"element": "H" 
			},
			{
				"x": 2.6117458119,
				"y": -2.2551564001,
				"z": -0.266994048,
				"element": "H" 
			},
			{
				"x": 1.4660510721,
				"y": 0.2775607698,
				"z": -1.5768627389,
				"element": "H" 
			},
			{
				"x": 3.1696798164,
				"y": -0.0509727779,
				"z": -1.2649985385,
				"element": "H" 
			},
			{
				"x": 2.9231422026,
				"y": 1.5518115023,
				"z": 2.5758591145,
				"element": "H" 
			},
			{
				"x": 1.190954007,
				"y": 1.3153762399,
				"z": 2.5079882131,
				"element": "H" 
			},
			{
				"x": 1.9307845168,
				"y": 3.6062087782,
				"z": 3.3819711839,
				"element": "H" 
			},
			{
				"x": 2.6103542367,
				"y": 3.9475085367,
				"z": 1.7934056452,
				"element": "H" 
			},
			{
				"x": 0.3303957719,
				"y": 3.7702461195,
				"z": 0.7589005601,
				"element": "H" 
			},
			{
				"x": 0.3451623084,
				"y": 4.992816904,
				"z": 2.0355742976,
				"element": "H" 
			},
			{
				"x": -0.3714068943,
				"y": 3.4061930102,
				"z": 2.3472083919,
				"element": "H" 
			}
		],
		 "valence_orbital": [ 
			{
				"type": "occ",
				"energy": -0.31977,
				"method": "rhf"
			},
			{
				"type": "occ",
				"energy": -0.31441,
				"method": "rhf"
			},
			{
				"type": "occ",
				"energy": -0.30795,
				"method": "rhf"
			},
			{
				"type": "occ",
				"energy": -0.29363,
				"method": "rhf"
			},
			{
				"type": "occ",
				"energy": -0.26573,
				"method": "rhf"
			},
			{
				"type": "unocc",
				"energy": 0.01686,
				"method": "rhf"
			},
			{
				"type": "unocc",
				"energy": 0.08269,
				"method": "rhf"
			},
			{
				"type": "unocc",
				"energy": 0.09637,
				"method": "rhf"
			},
			{
				"type": "unocc",
				"energy": 0.10212,
				"method": "rhf"
			},
			{
				"type": "unocc",
				"energy": 0.10952,
				"method": "rhf"
			}
		],
		"cosmo_sigma_profile": { 
			"-0.025": 0.0,
			"-0.024": 0.0,
			"-0.023": 0.0,
			"-0.022": 0.0,
			"-0.021": 0.0,
			"-0.02": 0.0,
			"-0.019": 0.0,
			"-0.018": 0.0,
			"-0.017": 0.0,
			"-0.016": 0.0,
			"-0.015": 0.0,
			"-0.014": 0.0,
			"-0.013": 0.0,
			"-0.012": 0.0,
			"-0.011": 0.0,
			"-0.01": 0.0,
			"-0.009": 0.0,
			"-0.008": 0.0,
			"-0.007": 0.0399133071844,
			"-0.006": 1.93023149813,
			"-0.005": 5.67711854438,
			"-0.004": 11.9377653718,
			"-0.003": 26.0571832192,
			"-0.002": 45.0304838517,
			"-0.001": 50.349790343,
			"0.0": 49.537902806,
			"0.001": 40.3550070467,
			"0.002": 18.4500904447,
			"0.003": 4.59236102891,
			"0.004": 3.52934375395,
			"0.005": 3.8226852829,
			"0.006": 3.00526400622,
			"0.007": 2.70021487337,
			"0.008": 2.75150814473,
			"0.009": 1.78754039921,
			"0.01": 1.33573319667,
			"0.011": 2.29049891384,
			"0.012": 4.07479116612,
			"0.013": 1.78788225521,
			"0.014": 0.00530485899147,
			"0.015": 0.0,
			"0.016": 0.0,
			"0.017": 0.0,
			"0.018": 0.0,
			"0.019": 0.0,
			"0.02": 0.0,
			"0.021": 0.0,
			"0.022": 0.0,
			"0.023": 0.0,
			"0.024": 0.0,
			"0.025": 0.0
		}
	}
}
