{
	 "smiles": "COC1=C(Cl)C=C(C(Br)=C1)S(Cl)(=O)=O", 
	 "Tm": 363.15, 
	 "num_atms": 19, 
	 "gaussian": { 
		 "optdone": 1, 
		 "sigma_profile": "yes", 
		 "theory": "DFT", 
		 "functional": "B3LYP", 
		 "basiset": "6-31G**", 
		 "properties": { 
			 "R2extent": 6606.2797, 
			 "electric_dipole_moment_norm": 5.45357881945, 
			 "electric_quadrupole_moment_norm": 6.60767690796, 
			 "total_energy": -4385.30364998, 
			 "HOMO_LUMO_gap": 0.17238, 
			 "cosmo_polarized_energy": -9.65, 
			 "cosmo_cavitation_energy": 30.9, 
			 "cosmo_dispersion_energy": -23.26, 
			 "cosmo_repulsion_energy": 1.79, 
			 "cosmo_total_nonelectrostatic_energy": 9.43, 
			 "SMD_solvation_energy": 3.66 
		},
		"coords": [
			{
				"x": -1.5309770307,
				"y": -1.8837459989,
				"z": -3.2622911371,
				"element": "C" 
			},
			{
				"x": -1.4784614373,
				"y": -2.6767035921,
				"z": -2.0644843134,
				"element": "O" 
			},
			{
				"x": -0.8125641365,
				"y": -2.1259461344,
				"z": -1.015193656,
				"element": "C" 
			},
			{
				"x": -1.4238420041,
				"y": -1.211822886,
				"z": -0.1387538284,
				"element": "C" 
			},
			{
				"x": -3.0763116511,
				"y": -0.7175198515,
				"z": -0.3974908112,
				"element": "Cl" 
			},
			{
				"x": -0.7238480977,
				"y": -0.7172020696,
				"z": 0.9554024054,
				"element": "C" 
			},
			{
				"x": 0.5907372352,
				"y": -1.1309570041,
				"z": 1.1919952213,
				"element": "C" 
			},
			{
				"x": 1.2158797178,
				"y": -2.0442661564,
				"z": 0.3296883016,
				"element": "C" 
			},
			{
				"x": 2.9997281106,
				"y": -2.6486952948,
				"z": 0.5470128748,
				"element": "Br" 
			},
			{
				"x": 0.5033491674,
				"y": -2.5276180829,
				"z": -0.7651633326,
				"element": "C" 
			},
			{
				"x": 1.3468809615,
				"y": -0.447354927,
				"z": 2.6751800691,
				"element": "S" 
			},
			{
				"x": 2.7872732003,
				"y": 0.8733728141,
				"z": 1.8461228858,
				"element": "Cl" 
			},
			{
				"x": 0.3583303339,
				"y": 0.3988736819,
				"z": 3.3317245838,
				"element": "O" 
			},
			{
				"x": 2.075298419,
				"y": -1.4749861903,
				"z": 3.4021347537,
				"element": "O" 
			},
			{
				"x": -2.0412820951,
				"y": -0.9314704599,
				"z": -3.0878898381,
				"element": "H" 
			},
			{
				"x": -2.0956991855,
				"y": -2.4730036193,
				"z": -3.9852258565,
				"element": "H" 
			},
			{
				"x": -0.521383456,
				"y": -1.6977353808,
				"z": -3.6468891611,
				"element": "H" 
			},
			{
				"x": -1.1934102311,
				"y": -0.0163551655,
				"z": 1.6345180395,
				"element": "H" 
			},
			{
				"x": 0.9606021796,
				"y": -3.2397636825,
				"z": -1.4415972005,
				"element": "H" 
			}
		],
		 "valence_orbital": [ 
			{
				"type": "occ",
				"energy": -0.31811,
				"method": "rhf"
			},
			{
				"type": "occ",
				"energy": -0.3127,
				"method": "rhf"
			},
			{
				"type": "occ",
				"energy": -0.30381,
				"method": "rhf"
			},
			{
				"type": "occ",
				"energy": -0.29273,
				"method": "rhf"
			},
			{
				"type": "occ",
				"energy": -0.26851,
				"method": "rhf"
			},
			{
				"type": "unocc",
				"energy": -0.09613,
				"method": "rhf"
			},
			{
				"type": "unocc",
				"energy": -0.05977,
				"method": "rhf"
			},
			{
				"type": "unocc",
				"energy": -0.05486,
				"method": "rhf"
			},
			{
				"type": "unocc",
				"energy": -0.02238,
				"method": "rhf"
			},
			{
				"type": "unocc",
				"energy": 0.00695,
				"method": "rhf"
			}
		],
		"cosmo_sigma_profile": { 
			"-0.025": 0.0,
			"-0.024": 0.0,
			"-0.023": 0.0,
			"-0.022": 0.0,
			"-0.021": 0.0,
			"-0.02": 0.0,
			"-0.019": 0.0,
			"-0.018": 0.0,
			"-0.017": 0.0,
			"-0.016": 0.0,
			"-0.015": 0.0,
			"-0.014": 0.0,
			"-0.013": 0.0,
			"-0.012": 0.0,
			"-0.011": 0.0,
			"-0.01": 0.107305859952,
			"-0.009": 1.75583699245,
			"-0.008": 2.7467268498,
			"-0.007": 4.35803090879,
			"-0.006": 10.8871903527,
			"-0.005": 16.4762656437,
			"-0.004": 20.0484274246,
			"-0.003": 20.8628152964,
			"-0.002": 26.4997382874,
			"-0.001": 22.4222034917,
			"0.0": 15.8221410356,
			"0.001": 17.622491201,
			"0.002": 24.2377490742,
			"0.003": 28.3550025726,
			"0.004": 8.68859915762,
			"0.005": 5.6273439795,
			"0.006": 5.96239358424,
			"0.007": 8.95397672102,
			"0.008": 11.0883180377,
			"0.009": 3.02848523382,
			"0.01": 0.656497730257,
			"0.011": 0.0,
			"0.012": 0.0,
			"0.013": 0.0,
			"0.014": 0.0,
			"0.015": 0.0,
			"0.016": 0.0,
			"0.017": 0.0,
			"0.018": 0.0,
			"0.019": 0.0,
			"0.02": 0.0,
			"0.021": 0.0,
			"0.022": 0.0,
			"0.023": 0.0,
			"0.024": 0.0,
			"0.025": 0.0
		}
	}
}
