{
	 "smiles": "C=CSC=C", 
	 "Tm": 293.15, 
	 "num_atms": 11, 
	 "gaussian": { 
		 "optdone": 1, 
		 "sigma_profile": "yes", 
		 "theory": "DFT", 
		 "functional": "B3LYP", 
		 "basiset": "6-31G**", 
		 "properties": { 
			 "R2extent": 703.9847, 
			 "electric_dipole_moment_norm": 1.22469252876, 
			 "electric_quadrupole_moment_norm": 4.52004736811, 
			 "total_energy": -554.173095577, 
			 "HOMO_LUMO_gap": 0.20547, 
			 "cosmo_polarized_energy": -4.07, 
			 "cosmo_cavitation_energy": 16.87, 
			 "cosmo_dispersion_energy": -12.51, 
			 "cosmo_repulsion_energy": 1.04, 
			 "cosmo_total_nonelectrostatic_energy": 5.4, 
			 "SMD_solvation_energy": 4.69 
		},
		"coords": [
			{
				"x": 0.8186542727,
				"y": 1.4905269733,
				"z": -1.9374769959,
				"element": "C" 
			},
			{
				"x": -0.1688841581,
				"y": 1.0450116076,
				"z": -1.1581959903,
				"element": "C" 
			},
			{
				"x": 0.1076258255,
				"y": 0.155137659,
				"z": 0.3519302413,
				"element": "S" 
			},
			{
				"x": -1.4054445522,
				"y": -0.761473237,
				"z": 0.4907015434,
				"element": "C" 
			},
			{
				"x": -1.8922422286,
				"y": -1.2005201305,
				"z": 1.6531398998,
				"element": "C" 
			},
			{
				"x": 1.8635492088,
				"y": 1.283172089,
				"z": -1.7267887746,
				"element": "H" 
			},
			{
				"x": 0.5982885169,
				"y": 2.0959426076,
				"z": -2.8108193597,
				"element": "H" 
			},
			{
				"x": -1.2106123288,
				"y": 1.2632983348,
				"z": -1.3811613738,
				"element": "H" 
			},
			{
				"x": -1.887885381,
				"y": -1.0015234217,
				"z": -0.453851057,
				"element": "H" 
			},
			{
				"x": -1.4206379253,
				"y": -0.9715340968,
				"z": 2.6041118774,
				"element": "H" 
			},
			{
				"x": -2.7814112499,
				"y": -1.8223383851,
				"z": 1.6762099894,
				"element": "H" 
			}
		],
		 "valence_orbital": [ 
			{
				"type": "occ",
				"energy": -0.36444,
				"method": "rhf"
			},
			{
				"type": "occ",
				"energy": -0.3285,
				"method": "rhf"
			},
			{
				"type": "occ",
				"energy": -0.32748,
				"method": "rhf"
			},
			{
				"type": "occ",
				"energy": -0.28227,
				"method": "rhf"
			},
			{
				"type": "occ",
				"energy": -0.21089,
				"method": "rhf"
			},
			{
				"type": "unocc",
				"energy": -0.00542,
				"method": "rhf"
			},
			{
				"type": "unocc",
				"energy": 0.00789,
				"method": "rhf"
			},
			{
				"type": "unocc",
				"energy": 0.04921,
				"method": "rhf"
			},
			{
				"type": "unocc",
				"energy": 0.08144,
				"method": "rhf"
			},
			{
				"type": "unocc",
				"energy": 0.11487,
				"method": "rhf"
			}
		],
		"cosmo_sigma_profile": { 
			"-0.025": 0.0,
			"-0.024": 0.0,
			"-0.023": 0.0,
			"-0.022": 0.0,
			"-0.021": 0.0,
			"-0.02": 0.0,
			"-0.019": 0.0,
			"-0.018": 0.0,
			"-0.017": 0.0,
			"-0.016": 0.0,
			"-0.015": 0.0,
			"-0.014": 0.0,
			"-0.013": 0.0,
			"-0.012": 0.0,
			"-0.011": 0.0,
			"-0.01": 0.0,
			"-0.009": 0.0,
			"-0.008": 0.634940668986,
			"-0.007": 4.72556156624,
			"-0.006": 9.22568647926,
			"-0.005": 10.3297853408,
			"-0.004": 10.2459270877,
			"-0.003": 10.6820900643,
			"-0.002": 10.1183984368,
			"-0.001": 8.82707259346,
			"0.0": 8.96496372997,
			"0.001": 8.25081789262,
			"0.002": 9.44450805856,
			"0.003": 8.77683190336,
			"0.004": 11.3358108921,
			"0.005": 11.7992024874,
			"0.006": 8.39476801436,
			"0.007": 3.31784938982,
			"0.008": 1.63991936927,
			"0.009": 0.0,
			"0.01": 0.0,
			"0.011": 0.0,
			"0.012": 0.0,
			"0.013": 0.0,
			"0.014": 0.0,
			"0.015": 0.0,
			"0.016": 0.0,
			"0.017": 0.0,
			"0.018": 0.0,
			"0.019": 0.0,
			"0.02": 0.0,
			"0.021": 0.0,
			"0.022": 0.0,
			"0.023": 0.0,
			"0.024": 0.0,
			"0.025": 0.0
		}
	}
}
