{
	 "smiles": "CC1C(C(=O)C2=CC=CC=C12)C1=CC=CC=C1", 
	 "Tm": 357.95, 
	 "num_atms": 31, 
	 "gaussian": { 
		 "optdone": 1, 
		 "sigma_profile": "yes", 
		 "theory": "DFT", 
		 "functional": "B3LYP", 
		 "basiset": "6-31G**", 
		 "properties": { 
			 "R2extent": 4730.5228, 
			 "electric_dipole_moment_norm": 3.35088737053, 
			 "electric_quadrupole_moment_norm": 13.4246809683, 
			 "total_energy": -693.378594562, 
			 "HOMO_LUMO_gap": 0.17715, 
			 "cosmo_polarized_energy": -11.15, 
			 "cosmo_cavitation_energy": 34.32, 
			 "cosmo_dispersion_energy": -23.91, 
			 "cosmo_repulsion_energy": 1.84, 
			 "cosmo_total_nonelectrostatic_energy": 12.26, 
			 "SMD_solvation_energy": 6.0 
		},
		"coords": [
			{
				"x": -2.5672097484,
				"y": 0.8518012784,
				"z": 1.6314070406,
				"element": "C" 
			},
			{
				"x": -1.0901496418,
				"y": 1.1069457679,
				"z": 1.3120768479,
				"element": "C" 
			},
			{
				"x": -0.549241934,
				"y": 0.2561542293,
				"z": 0.1183453324,
				"element": "C" 
			},
			{
				"x": 0.3877852438,
				"y": 1.210874805,
				"z": -0.6639663412,
				"element": "C" 
			},
			{
				"x": 1.1806207373,
				"y": 0.8891940778,
				"z": -1.5276891601,
				"element": "O" 
			},
			{
				"x": 0.1045001669,
				"y": 2.5828022289,
				"z": -0.1823508859,
				"element": "C" 
			},
			{
				"x": 0.5902773911,
				"y": 3.7883135274,
				"z": -0.6954439193,
				"element": "C" 
			},
			{
				"x": 0.1824583655,
				"y": 4.9744009106,
				"z": -0.090934315,
				"element": "C" 
			},
			{
				"x": -0.6899403477,
				"y": 4.9406261825,
				"z": 1.0083620911,
				"element": "C" 
			},
			{
				"x": -1.16391405,
				"y": 3.7302047103,
				"z": 1.521490164,
				"element": "C" 
			},
			{
				"x": -0.758210161,
				"y": 2.5382943501,
				"z": 0.9183885593,
				"element": "C" 
			},
			{
				"x": 0.0531921324,
				"y": -1.0797864429,
				"z": 0.4865993891,
				"element": "C" 
			},
			{
				"x": -0.6082554918,
				"y": -2.2739402624,
				"z": 0.1758475984,
				"element": "C" 
			},
			{
				"x": -0.0707439551,
				"y": -3.5094234864,
				"z": 0.5429941219,
				"element": "C" 
			},
			{
				"x": 1.1434839269,
				"y": -3.5678746425,
				"z": 1.2266823814,
				"element": "C" 
			},
			{
				"x": 1.8166202058,
				"y": -2.3837848183,
				"z": 1.5378609415,
				"element": "C" 
			},
			{
				"x": 1.2758848686,
				"y": -1.1526372275,
				"z": 1.1712139852,
				"element": "C" 
			},
			{
				"x": -2.8992853177,
				"y": 1.4412664094,
				"z": 2.4921425598,
				"element": "H" 
			},
			{
				"x": -3.2041301085,
				"y": 1.1127240727,
				"z": 0.7790742784,
				"element": "H" 
			},
			{
				"x": -2.7300465353,
				"y": -0.2040638154,
				"z": 1.8699989611,
				"element": "H" 
			},
			{
				"x": -0.5003913337,
				"y": 0.852250052,
				"z": 2.2038951404,
				"element": "H" 
			},
			{
				"x": -1.3907573927,
				"y": 0.0786953176,
				"z": -0.5676575456,
				"element": "H" 
			},
			{
				"x": 1.2625723329,
				"y": 3.7799122157,
				"z": -1.5482521466,
				"element": "H" 
			},
			{
				"x": 0.5352229516,
				"y": 5.9299912422,
				"z": -0.4675663035,
				"element": "H" 
			},
			{
				"x": -1.0004198201,
				"y": 5.8739899996,
				"z": 1.4701775305,
				"element": "H" 
			},
			{
				"x": -1.8327308555,
				"y": 3.7268476624,
				"z": 2.3776946846,
				"element": "H" 
			},
			{
				"x": -1.5521087446,
				"y": -2.2362735213,
				"z": -0.362665855,
				"element": "H" 
			},
			{
				"x": -0.6003077236,
				"y": -4.4240781463,
				"z": 0.2914390112,
				"element": "H" 
			},
			{
				"x": 1.5657193093,
				"y": -4.5273207992,
				"z": 1.5113015793,
				"element": "H" 
			},
			{
				"x": 2.7670961268,
				"y": -2.4197462883,
				"z": 2.0628261076,
				"element": "H" 
			},
			{
				"x": 1.8150094026,
				"y": -0.2389595894,
				"z": 1.4087081667,
				"element": "H" 
			}
		],
		 "valence_orbital": [ 
			{
				"type": "occ",
				"energy": -0.26112,
				"method": "rhf"
			},
			{
				"type": "occ",
				"energy": -0.25434,
				"method": "rhf"
			},
			{
				"type": "occ",
				"energy": -0.25037,
				"method": "rhf"
			},
			{
				"type": "occ",
				"energy": -0.24623,
				"method": "rhf"
			},
			{
				"type": "occ",
				"energy": -0.23111,
				"method": "rhf"
			},
			{
				"type": "unocc",
				"energy": -0.05396,
				"method": "rhf"
			},
			{
				"type": "unocc",
				"energy": -0.01267,
				"method": "rhf"
			},
			{
				"type": "unocc",
				"energy": -0.0015,
				"method": "rhf"
			},
			{
				"type": "unocc",
				"energy": 0.00224,
				"method": "rhf"
			},
			{
				"type": "unocc",
				"energy": 0.04249,
				"method": "rhf"
			}
		],
		"cosmo_sigma_profile": { 
			"-0.025": 0.0,
			"-0.024": 0.0,
			"-0.023": 0.0,
			"-0.022": 0.0,
			"-0.021": 0.0,
			"-0.02": 0.0,
			"-0.019": 0.0,
			"-0.018": 0.0,
			"-0.017": 0.0,
			"-0.016": 0.0,
			"-0.015": 0.0,
			"-0.014": 0.0,
			"-0.013": 0.0,
			"-0.012": 0.0,
			"-0.011": 0.0,
			"-0.01": 0.0,
			"-0.009": 0.0,
			"-0.008": 0.00905796318786,
			"-0.007": 1.72972151115,
			"-0.006": 16.6771006515,
			"-0.005": 26.5052884024,
			"-0.004": 25.219381138,
			"-0.003": 27.3505208333,
			"-0.002": 20.3093098944,
			"-0.001": 23.4368154898,
			"0.0": 20.9040686883,
			"0.001": 19.7032870002,
			"0.002": 16.4074035189,
			"0.003": 17.1871732966,
			"0.004": 17.9035159008,
			"0.005": 10.1044909509,
			"0.006": 9.69507449805,
			"0.007": 2.86248040683,
			"0.008": 1.67661441862,
			"0.009": 2.8223803349,
			"0.01": 2.20246539908,
			"0.011": 2.95336553296,
			"0.012": 5.27693311345,
			"0.013": 2.19160490101,
			"0.014": 0.158832479624,
			"0.015": 0.0,
			"0.016": 0.0,
			"0.017": 0.0,
			"0.018": 0.0,
			"0.019": 0.0,
			"0.02": 0.0,
			"0.021": 0.0,
			"0.022": 0.0,
			"0.023": 0.0,
			"0.024": 0.0,
			"0.025": 0.0
		}
	}
}
