{
	 "smiles": "O=CC1=CC=C(C=C1)C1=NC=CC=C1", 
	 "Tm": 325.15, 
	 "num_atms": 23, 
	 "gaussian": { 
		 "optdone": 1, 
		 "sigma_profile": "yes", 
		 "theory": "DFT", 
		 "functional": "B3LYP", 
		 "basiset": "6-31G**", 
		 "properties": { 
			 "R2extent": 3956.7267, 
			 "electric_dipole_moment_norm": 4.38279066463, 
			 "electric_quadrupole_moment_norm": 15.7766495318, 
			 "total_energy": -592.671657738, 
			 "HOMO_LUMO_gap": 0.16607, 
			 "cosmo_polarized_energy": -10.53, 
			 "cosmo_cavitation_energy": 27.86, 
			 "cosmo_dispersion_energy": -20.48, 
			 "cosmo_repulsion_energy": 1.57, 
			 "cosmo_total_nonelectrostatic_energy": 8.95, 
			 "SMD_solvation_energy": 4.78 
		},
		"coords": [
			{
				"x": -3.4317144391,
				"y": 4.7974630125,
				"z": 0.400119122,
				"element": "O" 
			},
			{
				"x": -3.4050038957,
				"y": 3.8843635704,
				"z": -0.4042530531,
				"element": "C" 
			},
			{
				"x": -2.4274471062,
				"y": 2.7750159258,
				"z": -0.3861200259,
				"element": "C" 
			},
			{
				"x": -1.4339164744,
				"y": 2.7193364724,
				"z": 0.6027739186,
				"element": "C" 
			},
			{
				"x": -0.5203291416,
				"y": 1.6745864392,
				"z": 0.6154300309,
				"element": "C" 
			},
			{
				"x": -0.574475332,
				"y": 0.6561531956,
				"z": -0.3566194402,
				"element": "C" 
			},
			{
				"x": -1.5650318762,
				"y": 0.7260283037,
				"z": -1.3515053421,
				"element": "C" 
			},
			{
				"x": -2.4813939043,
				"y": 1.7712969956,
				"z": -1.3626464489,
				"element": "C" 
			},
			{
				"x": 0.3876718889,
				"y": -0.4792631084,
				"z": -0.3614111854,
				"element": "C" 
			},
			{
				"x": 0.4867509554,
				"y": -1.1734446462,
				"z": -1.5121332927,
				"element": "N" 
			},
			{
				"x": 1.3378198478,
				"y": -2.1990465371,
				"z": -1.5688878333,
				"element": "C" 
			},
			{
				"x": 2.1397457567,
				"y": -2.6017040753,
				"z": -0.4991915163,
				"element": "C" 
			},
			{
				"x": 2.0294103491,
				"y": -1.8964746045,
				"z": 0.6977256754,
				"element": "C" 
			},
			{
				"x": 1.1422581046,
				"y": -0.8261266145,
				"z": 0.7722125536,
				"element": "C" 
			},
			{
				"x": -4.1469608976,
				"y": 3.8325233371,
				"z": -1.2325199143,
				"element": "H" 
			},
			{
				"x": -1.3956601222,
				"y": 3.5109409463,
				"z": 1.3443958331,
				"element": "H" 
			},
			{
				"x": 0.2561884586,
				"y": 1.6641478885,
				"z": 1.3732908156,
				"element": "H" 
			},
			{
				"x": -1.5932654011,
				"y": -0.051479108,
				"z": -2.1057334759,
				"element": "H" 
			},
			{
				"x": -3.2485263893,
				"y": 1.8134523367,
				"z": -2.1327768286,
				"element": "H" 
			},
			{
				"x": 1.3837017253,
				"y": -2.7279870271,
				"z": -2.5196022291,
				"element": "H" 
			},
			{
				"x": 2.8180351064,
				"y": -3.4422955941,
				"z": -0.6032559204,
				"element": "H" 
			},
			{
				"x": 2.6191654163,
				"y": -2.1787165666,
				"z": 1.5651133804,
				"element": "H" 
			},
			{
				"x": 1.0245773707,
				"y": -0.2838705423,
				"z": 1.7033951766,
				"element": "H" 
			}
		],
		 "valence_orbital": [ 
			{
				"type": "occ",
				"energy": -0.28893,
				"method": "rhf"
			},
			{
				"type": "occ",
				"energy": -0.26556,
				"method": "rhf"
			},
			{
				"type": "occ",
				"energy": -0.26207,
				"method": "rhf"
			},
			{
				"type": "occ",
				"energy": -0.25238,
				"method": "rhf"
			},
			{
				"type": "occ",
				"energy": -0.24056,
				"method": "rhf"
			},
			{
				"type": "unocc",
				"energy": -0.07449,
				"method": "rhf"
			},
			{
				"type": "unocc",
				"energy": -0.03195,
				"method": "rhf"
			},
			{
				"type": "unocc",
				"energy": -0.01797,
				"method": "rhf"
			},
			{
				"type": "unocc",
				"energy": -0.00731,
				"method": "rhf"
			},
			{
				"type": "unocc",
				"energy": 0.05255,
				"method": "rhf"
			}
		],
		"cosmo_sigma_profile": { 
			"-0.025": 0.0,
			"-0.024": 0.0,
			"-0.023": 0.0,
			"-0.022": 0.0,
			"-0.021": 0.0,
			"-0.02": 0.0,
			"-0.019": 0.0,
			"-0.018": 0.0,
			"-0.017": 0.0,
			"-0.016": 0.0,
			"-0.015": 0.0,
			"-0.014": 0.0,
			"-0.013": 0.0,
			"-0.012": 0.0,
			"-0.011": 0.0,
			"-0.01": 0.0,
			"-0.009": 0.438937800988,
			"-0.008": 3.09914664311,
			"-0.007": 11.6744640347,
			"-0.006": 17.466466774,
			"-0.005": 18.1140997897,
			"-0.004": 13.9556522793,
			"-0.003": 13.2111652042,
			"-0.002": 11.8928906263,
			"-0.001": 12.7839897127,
			"0.0": 14.4197873121,
			"0.001": 21.5943508967,
			"0.002": 26.2011922301,
			"0.003": 23.2185521436,
			"0.004": 6.25906963207,
			"0.005": 3.74438623194,
			"0.006": 3.09893338601,
			"0.007": 3.46804202994,
			"0.008": 3.47455912432,
			"0.009": 3.10566918075,
			"0.01": 3.34800284548,
			"0.011": 5.03855995337,
			"0.012": 3.8216622581,
			"0.013": 1.29476346134,
			"0.014": 0.0273477382086,
			"0.015": 0.0,
			"0.016": 0.0,
			"0.017": 0.0,
			"0.018": 0.0,
			"0.019": 0.0,
			"0.02": 0.0,
			"0.021": 0.0,
			"0.022": 0.0,
			"0.023": 0.0,
			"0.024": 0.0,
			"0.025": 0.0
		}
	}
}
