{
	 "smiles": "NCCCOCCOCCOCCCN", 
	 "Tm": 241.15, 
	 "num_atms": 39, 
	 "gaussian": { 
		 "optdone": 1, 
		 "sigma_profile": "yes", 
		 "theory": "DFT", 
		 "functional": "B3LYP", 
		 "basiset": "6-31G**", 
		 "properties": { 
			 "R2extent": 4374.4942, 
			 "electric_dipole_moment_norm": 1.18063164874, 
			 "electric_quadrupole_moment_norm": 25.0545895233, 
			 "total_energy": -730.65266394, 
			 "HOMO_LUMO_gap": 0.27648, 
			 "cosmo_polarized_energy": -16.97, 
			 "cosmo_cavitation_energy": 39.45, 
			 "cosmo_dispersion_energy": -25.83, 
			 "cosmo_repulsion_energy": 2.06, 
			 "cosmo_total_nonelectrostatic_energy": 15.69, 
			 "SMD_solvation_energy": 3.84 
		},
		"coords": [
			{
				"x": 2.7050260122,
				"y": -0.8532104673,
				"z": -0.2947889836,
				"element": "N" 
			},
			{
				"x": 2.3249085355,
				"y": -0.6256455838,
				"z": -1.6937267638,
				"element": "C" 
			},
			{
				"x": 2.6110181962,
				"y": 0.8108399268,
				"z": -2.1452228198,
				"element": "C" 
			},
			{
				"x": 1.7451748279,
				"y": 1.8744688876,
				"z": -1.4705052371,
				"element": "C" 
			},
			{
				"x": 0.3747635886,
				"y": 1.5487745854,
				"z": -1.6745480092,
				"element": "O" 
			},
			{
				"x": -0.5377615438,
				"y": 2.6298120739,
				"z": -1.5742878191,
				"element": "C" 
			},
			{
				"x": -0.8423386686,
				"y": 3.122112463,
				"z": -0.1576388171,
				"element": "C" 
			},
			{
				"x": -1.5926330695,
				"y": 2.2056274058,
				"z": 0.6182540069,
				"element": "O" 
			},
			{
				"x": -0.8131722183,
				"y": 1.2386683708,
				"z": 1.3042393588,
				"element": "C" 
			},
			{
				"x": -1.7435034455,
				"y": 0.3311106374,
				"z": 2.1005384101,
				"element": "C" 
			},
			{
				"x": -2.4726711269,
				"y": -0.5885804428,
				"z": 1.30144633,
				"element": "O" 
			},
			{
				"x": -2.0087297848,
				"y": -1.9292850451,
				"z": 1.332233582,
				"element": "C" 
			},
			{
				"x": -0.7198549035,
				"y": -2.1588552347,
				"z": 0.5382430934,
				"element": "C" 
			},
			{
				"x": -0.265066891,
				"y": -3.6192983764,
				"z": 0.5260405099,
				"element": "C" 
			},
			{
				"x": 1.0081887758,
				"y": -3.747264262,
				"z": -0.1995008265,
				"element": "N" 
			},
			{
				"x": 2.4646225783,
				"y": -1.8150046455,
				"z": -0.048017401,
				"element": "H" 
			},
			{
				"x": 2.1311490466,
				"y": -0.2688707635,
				"z": 0.3101918991,
				"element": "H" 
			},
			{
				"x": 2.9278558679,
				"y": -1.3025248494,
				"z": -2.3119978592,
				"element": "H" 
			},
			{
				"x": 1.2682230746,
				"y": -0.8494509355,
				"z": -1.9152923007,
				"element": "H" 
			},
			{
				"x": 3.6632956747,
				"y": 1.0481652773,
				"z": -1.9467898712,
				"element": "H" 
			},
			{
				"x": 2.4514990755,
				"y": 0.8771651193,
				"z": -3.2282340322,
				"element": "H" 
			},
			{
				"x": 1.9755742639,
				"y": 1.9391393022,
				"z": -0.3949499079,
				"element": "H" 
			},
			{
				"x": 1.9680854215,
				"y": 2.8625897874,
				"z": -1.904435359,
				"element": "H" 
			},
			{
				"x": -1.4714918398,
				"y": 2.2717481352,
				"z": -2.0199526964,
				"element": "H" 
			},
			{
				"x": -0.1783847591,
				"y": 3.4873708948,
				"z": -2.1704204523,
				"element": "H" 
			},
			{
				"x": 0.0838452608,
				"y": 3.4122546764,
				"z": 0.365083333,
				"element": "H" 
			},
			{
				"x": -1.4596636001,
				"y": 4.0249096594,
				"z": -0.2494085078,
				"element": "H" 
			},
			{
				"x": -0.2113482202,
				"y": 0.6537059909,
				"z": 0.5996794714,
				"element": "H" 
			},
			{
				"x": -0.1261684343,
				"y": 1.7420846469,
				"z": 2.0094574781,
				"element": "H" 
			},
			{
				"x": -2.4735772968,
				"y": 0.9657294957,
				"z": 2.6179613475,
				"element": "H" 
			},
			{
				"x": -1.155184676,
				"y": -0.1979530584,
				"z": 2.8658417761,
				"element": "H" 
			},
			{
				"x": -2.8224196591,
				"y": -2.5291270038,
				"z": 0.9081264484,
				"element": "H" 
			},
			{
				"x": -1.8693330033,
				"y": -2.2603239815,
				"z": 2.3761170198,
				"element": "H" 
			},
			{
				"x": 0.0946822754,
				"y": -1.559590525,
				"z": 0.9570757617,
				"element": "H" 
			},
			{
				"x": -0.8763379258,
				"y": -1.803187039,
				"z": -0.4883802651,
				"element": "H" 
			},
			{
				"x": -1.0702195072,
				"y": -4.2558295085,
				"z": 0.1180695887,
				"element": "H" 
			},
			{
				"x": -0.0944059566,
				"y": -3.957224346,
				"z": 1.5561113973,
				"element": "H" 
			},
			{
				"x": 1.3533282642,
				"y": -4.7021051735,
				"z": -0.1375579141,
				"element": "H" 
			},
			{
				"x": 0.8551257905,
				"y": -3.5639460945,
				"z": -1.1890549692,
				"element": "H" 
			}
		],
		 "valence_orbital": [ 
			{
				"type": "occ",
				"energy": -0.27423,
				"method": "rhf"
			},
			{
				"type": "occ",
				"energy": -0.25208,
				"method": "rhf"
			},
			{
				"type": "occ",
				"energy": -0.24314,
				"method": "rhf"
			},
			{
				"type": "occ",
				"energy": -0.23216,
				"method": "rhf"
			},
			{
				"type": "occ",
				"energy": -0.21455,
				"method": "rhf"
			},
			{
				"type": "unocc",
				"energy": 0.06193,
				"method": "rhf"
			},
			{
				"type": "unocc",
				"energy": 0.07453,
				"method": "rhf"
			},
			{
				"type": "unocc",
				"energy": 0.09109,
				"method": "rhf"
			},
			{
				"type": "unocc",
				"energy": 0.09396,
				"method": "rhf"
			},
			{
				"type": "unocc",
				"energy": 0.10705,
				"method": "rhf"
			}
		],
		"cosmo_sigma_profile": { 
			"-0.025": 0.0,
			"-0.024": 0.0,
			"-0.023": 0.0,
			"-0.022": 0.0,
			"-0.021": 0.0,
			"-0.02": 0.0,
			"-0.019": 0.0,
			"-0.018": 0.0,
			"-0.017": 0.0,
			"-0.016": 0.0,
			"-0.015": 0.0,
			"-0.014": 0.0,
			"-0.013": 0.0,
			"-0.012": 0.0,
			"-0.011": 0.0211224403568,
			"-0.01": 0.95954081276,
			"-0.009": 2.26399785469,
			"-0.008": 2.03283302743,
			"-0.007": 3.25791147673,
			"-0.006": 6.77228310186,
			"-0.005": 13.8774070384,
			"-0.004": 40.5392819034,
			"-0.003": 47.175302945,
			"-0.002": 39.9699923093,
			"-0.001": 31.8624793767,
			"0.0": 21.1372009204,
			"0.001": 15.328041815,
			"0.002": 11.3301590382,
			"0.003": 8.2300049588,
			"0.004": 5.98653575367,
			"0.005": 5.92587782079,
			"0.006": 5.87624897948,
			"0.007": 6.18903473412,
			"0.008": 5.52512974905,
			"0.009": 5.20449103828,
			"0.01": 3.88150466514,
			"0.011": 4.31131894997,
			"0.012": 4.34174606965,
			"0.013": 4.89482969078,
			"0.014": 2.4199479139,
			"0.015": 0.481866038536,
			"0.016": 0.974312118178,
			"0.017": 0.237670070932,
			"0.018": 0.795783365005,
			"0.019": 0.773441038999,
			"0.02": 0.418633237065,
			"0.021": 0.235295068384,
			"0.022": 0.0,
			"0.023": 0.0,
			"0.024": 0.0,
			"0.025": 0.0
		}
	}
}
