{
	 "smiles": "COC1CC(O)OC(C)C1O", 
	 "Tm": 374.15, 
	 "num_atms": 25, 
	 "gaussian": { 
		 "optdone": 1, 
		 "sigma_profile": "yes", 
		 "theory": "DFT", 
		 "functional": "B3LYP", 
		 "basiset": "6-31G**", 
		 "properties": { 
			 "R2extent": 2033.7052, 
			 "electric_dipole_moment_norm": 1.95355858883, 
			 "electric_quadrupole_moment_norm": 8.62965453712, 
			 "total_energy": -576.03984117, 
			 "HOMO_LUMO_gap": 0.32678, 
			 "cosmo_polarized_energy": -12.79, 
			 "cosmo_cavitation_energy": 25.94, 
			 "cosmo_dispersion_energy": -19.1, 
			 "cosmo_repulsion_energy": 1.54, 
			 "cosmo_total_nonelectrostatic_energy": 8.38, 
			 "SMD_solvation_energy": 4.54 
		},
		"coords": [
			{
				"x": -0.5086365784,
				"y": -1.1771451228,
				"z": 2.7853969413,
				"element": "C" 
			},
			{
				"x": 0.1115714917,
				"y": 0.0976012809,
				"z": 2.6791992398,
				"element": "O" 
			},
			{
				"x": 0.3378652707,
				"y": 0.6188262164,
				"z": 1.3628400315,
				"element": "C" 
			},
			{
				"x": -0.9041764157,
				"y": 0.7460913378,
				"z": 0.4620238261,
				"element": "C" 
			},
			{
				"x": -0.4983337884,
				"y": 0.7150211833,
				"z": -1.029231948,
				"element": "C" 
			},
			{
				"x": -1.416541523,
				"y": 1.3635128994,
				"z": -1.8516315878,
				"element": "O" 
			},
			{
				"x": 0.7684898157,
				"y": 1.3386518664,
				"z": -1.1935994259,
				"element": "O" 
			},
			{
				"x": 1.8760950592,
				"y": 0.6205548208,
				"z": -0.6156257661,
				"element": "C" 
			},
			{
				"x": 2.5597178825,
				"y": -0.2603675174,
				"z": -1.65659163,
				"element": "C" 
			},
			{
				"x": 1.448241522,
				"y": -0.1587100493,
				"z": 0.6459427322,
				"element": "C" 
			},
			{
				"x": 2.5783293832,
				"y": -0.312276588,
				"z": 1.4848997095,
				"element": "O" 
			},
			{
				"x": -1.5532766954,
				"y": -1.1638064284,
				"z": 2.4502151839,
				"element": "H" 
			},
			{
				"x": -0.4927454251,
				"y": -1.4318982895,
				"z": 3.8476262828,
				"element": "H" 
			},
			{
				"x": 0.0272747334,
				"y": -1.9590760715,
				"z": 2.230694479,
				"element": "H" 
			},
			{
				"x": 0.7349138758,
				"y": 1.6194980286,
				"z": 1.5646533794,
				"element": "H" 
			},
			{
				"x": -1.6220505671,
				"y": -0.0598483992,
				"z": 0.641672486,
				"element": "H" 
			},
			{
				"x": -1.4232492472,
				"y": 1.6872913182,
				"z": 0.6739356586,
				"element": "H" 
			},
			{
				"x": -0.465434162,
				"y": -0.3205657437,
				"z": -1.3976969447,
				"element": "H" 
			},
			{
				"x": -1.3679777433,
				"y": 2.3073297867,
				"z": -1.640177973,
				"element": "H" 
			},
			{
				"x": 2.5732693148,
				"y": 1.3928617411,
				"z": -0.2722095214,
				"element": "H" 
			},
			{
				"x": 3.4224237489,
				"y": -0.764835178,
				"z": -1.2100110042,
				"element": "H" 
			},
			{
				"x": 2.9013717393,
				"y": 0.3429129622,
				"z": -2.5018216563,
				"element": "H" 
			},
			{
				"x": 1.8744055699,
				"y": -1.0257869007,
				"z": -2.0374472639,
				"element": "H" 
			},
			{
				"x": 1.0672062568,
				"y": -1.1515271863,
				"z": 0.3470667195,
				"element": "H" 
			},
			{
				"x": 2.2288464818,
				"y": -0.3480099673,
				"z": 2.3890780519,
				"element": "H" 
			}
		],
		 "valence_orbital": [ 
			{
				"type": "occ",
				"energy": -0.31599,
				"method": "rhf"
			},
			{
				"type": "occ",
				"energy": -0.29016,
				"method": "rhf"
			},
			{
				"type": "occ",
				"energy": -0.27549,
				"method": "rhf"
			},
			{
				"type": "occ",
				"energy": -0.26066,
				"method": "rhf"
			},
			{
				"type": "occ",
				"energy": -0.25212,
				"method": "rhf"
			},
			{
				"type": "unocc",
				"energy": 0.07466,
				"method": "rhf"
			},
			{
				"type": "unocc",
				"energy": 0.07895,
				"method": "rhf"
			},
			{
				"type": "unocc",
				"energy": 0.0821,
				"method": "rhf"
			},
			{
				"type": "unocc",
				"energy": 0.10137,
				"method": "rhf"
			},
			{
				"type": "unocc",
				"energy": 0.10907,
				"method": "rhf"
			}
		],
		"cosmo_sigma_profile": { 
			"-0.025": 0.0,
			"-0.024": 0.0,
			"-0.023": 0.0,
			"-0.022": 0.0,
			"-0.021": 0.0,
			"-0.02": 0.0,
			"-0.019": 0.0,
			"-0.018": 0.0,
			"-0.017": 0.0,
			"-0.016": 0.395359607115,
			"-0.015": 0.832067410144,
			"-0.014": 0.834014062084,
			"-0.013": 0.773387876504,
			"-0.012": 0.953119080293,
			"-0.011": 1.01738020245,
			"-0.01": 1.51856810404,
			"-0.009": 1.51300931774,
			"-0.008": 2.18882458296,
			"-0.007": 1.90564121412,
			"-0.006": 7.76239937657,
			"-0.005": 17.5816084143,
			"-0.004": 22.6800698109,
			"-0.003": 21.5173898149,
			"-0.002": 20.0781381046,
			"-0.001": 16.5874480969,
			"0.0": 12.7344889173,
			"0.001": 9.4578302843,
			"0.002": 6.02312451676,
			"0.003": 5.6788537258,
			"0.004": 4.81770069977,
			"0.005": 4.08487177214,
			"0.006": 5.06204301761,
			"0.007": 4.03239194902,
			"0.008": 3.14131311662,
			"0.009": 3.86778805594,
			"0.01": 4.65613048169,
			"0.011": 6.05534316216,
			"0.012": 5.8033178611,
			"0.013": 5.41225344082,
			"0.014": 1.13125698438,
			"0.015": 0.0,
			"0.016": 0.0,
			"0.017": 0.0,
			"0.018": 0.0,
			"0.019": 0.0,
			"0.02": 0.0,
			"0.021": 0.0,
			"0.022": 0.0,
			"0.023": 0.0,
			"0.024": 0.0,
			"0.025": 0.0
		}
	}
}
