{
	 "smiles": "O=C(N1CCN(CC1)C1=NC=CC=C1)C1=CNN=C1", 
	 "Tm": 468.15, 
	 "num_atms": 34, 
	 "gaussian": { 
		 "optdone": 1, 
		 "sigma_profile": "yes", 
		 "theory": "DFT", 
		 "functional": "B3LYP", 
		 "basiset": "6-31G**", 
		 "properties": { 
			 "R2extent": 7885.0721, 
			 "electric_dipole_moment_norm": 4.24831848618, 
			 "electric_quadrupole_moment_norm": 20.9977313422, 
			 "total_energy": -853.38395584, 
			 "HOMO_LUMO_gap": 0.18611, 
			 "cosmo_polarized_energy": -21.18, 
			 "cosmo_cavitation_energy": 36.5, 
			 "cosmo_dispersion_energy": -27.05, 
			 "cosmo_repulsion_energy": 2.05, 
			 "cosmo_total_nonelectrostatic_energy": 11.5, 
			 "SMD_solvation_energy": 3.5 
		},
		"coords": [
			{
				"x": 3.5207235114,
				"y": 1.3210164923,
				"z": -0.9181067296,
				"element": "O" 
			},
			{
				"x": 2.3800392782,
				"y": 1.0018727025,
				"z": -1.2610299777,
				"element": "C" 
			},
			{
				"x": 1.8167910498,
				"y": -0.17959298,
				"z": -0.8286131505,
				"element": "N" 
			},
			{
				"x": 2.6165045486,
				"y": -1.0136814498,
				"z": 0.070663382,
				"element": "C" 
			},
			{
				"x": 1.7308595783,
				"y": -1.7573610122,
				"z": 1.0676257778,
				"element": "C" 
			},
			{
				"x": 0.7007174577,
				"y": -2.524381553,
				"z": 0.3731885212,
				"element": "N" 
			},
			{
				"x": 0.5240963578,
				"y": -2.2621304083,
				"z": -1.0500788559,
				"element": "C" 
			},
			{
				"x": 0.5659965862,
				"y": -0.7589568549,
				"z": -1.3291595488,
				"element": "C" 
			},
			{
				"x": -0.1520475266,
				"y": -3.3627965761,
				"z": 1.0624602028,
				"element": "C" 
			},
			{
				"x": -1.082769745,
				"y": -4.0167243159,
				"z": 0.3406797156,
				"element": "N" 
			},
			{
				"x": -1.9183979888,
				"y": -4.8424535441,
				"z": 0.9770885593,
				"element": "C" 
			},
			{
				"x": -1.8921779541,
				"y": -5.08132054,
				"z": 2.3480904654,
				"element": "C" 
			},
			{
				"x": -0.9285291203,
				"y": -4.3979974785,
				"z": 3.0959068035,
				"element": "C" 
			},
			{
				"x": -0.0491324008,
				"y": -3.5291103839,
				"z": 2.4663712502,
				"element": "C" 
			},
			{
				"x": 1.6139266258,
				"y": 1.9106081913,
				"z": -2.1508764719,
				"element": "C" 
			},
			{
				"x": 0.2686875941,
				"y": 2.0596375806,
				"z": -2.4732464168,
				"element": "C" 
			},
			{
				"x": 0.1916881763,
				"y": 3.1344096512,
				"z": -3.2928641034,
				"element": "N" 
			},
			{
				"x": 1.3921421764,
				"y": 3.7102744769,
				"z": -3.5433926729,
				"element": "N" 
			},
			{
				"x": 2.2490281779,
				"y": 2.9766462343,
				"z": -2.847931113,
				"element": "C" 
			},
			{
				"x": 3.3112754926,
				"y": -0.359111774,
				"z": 0.5967968552,
				"element": "H" 
			},
			{
				"x": 3.2237767087,
				"y": -1.7293103635,
				"z": -0.5008775896,
				"element": "H" 
			},
			{
				"x": 2.3691903869,
				"y": -2.4250177291,
				"z": 1.6622146415,
				"element": "H" 
			},
			{
				"x": 1.2769118965,
				"y": -1.0358581901,
				"z": 1.7648075347,
				"element": "H" 
			},
			{
				"x": -0.4407074547,
				"y": -2.6719154681,
				"z": -1.3474304781,
				"element": "H" 
			},
			{
				"x": 1.2940182586,
				"y": -2.7738361612,
				"z": -1.645267489,
				"element": "H" 
			},
			{
				"x": -0.3030512924,
				"y": -0.2915889796,
				"z": -0.8436038818,
				"element": "H" 
			},
			{
				"x": 0.4817687497,
				"y": -0.5923118358,
				"z": -2.4082574957,
				"element": "H" 
			},
			{
				"x": -2.6516339318,
				"y": -5.3436711372,
				"z": 0.3461037154,
				"element": "H" 
			},
			{
				"x": -2.5936389789,
				"y": -5.768139556,
				"z": 2.808455733,
				"element": "H" 
			},
			{
				"x": -0.8636188523,
				"y": -4.5383208465,
				"z": 4.1715990074,
				"element": "H" 
			},
			{
				"x": 0.6906996673,
				"y": -2.9903045963,
				"z": 3.0447099172,
				"element": "H" 
			},
			{
				"x": -0.618264803,
				"y": 1.523786828,
				"z": -2.1751815642,
				"element": "H" 
			},
			{
				"x": -0.6367899318,
				"y": 3.5284910968,
				"z": -3.7116527916,
				"element": "H" 
			},
			{
				"x": 3.3044177017,
				"y": 3.2068504804,
				"z": -2.8433917519,
				"element": "H" 
			}
		],
		 "valence_orbital": [ 
			{
				"type": "occ",
				"energy": -0.25781,
				"method": "rhf"
			},
			{
				"type": "occ",
				"energy": -0.25508,
				"method": "rhf"
			},
			{
				"type": "occ",
				"energy": -0.24681,
				"method": "rhf"
			},
			{
				"type": "occ",
				"energy": -0.23674,
				"method": "rhf"
			},
			{
				"type": "occ",
				"energy": -0.20226,
				"method": "rhf"
			},
			{
				"type": "unocc",
				"energy": -0.01615,
				"method": "rhf"
			},
			{
				"type": "unocc",
				"energy": -0.01222,
				"method": "rhf"
			},
			{
				"type": "unocc",
				"energy": 0.0105,
				"method": "rhf"
			},
			{
				"type": "unocc",
				"energy": 0.0194,
				"method": "rhf"
			},
			{
				"type": "unocc",
				"energy": 0.06717,
				"method": "rhf"
			}
		],
		"cosmo_sigma_profile": { 
			"-0.025": 0.0,
			"-0.024": 0.0,
			"-0.023": 0.0,
			"-0.022": 0.0,
			"-0.021": 0.0,
			"-0.02": 0.0,
			"-0.019": 0.0,
			"-0.018": 0.00479252349887,
			"-0.017": 1.51600077217,
			"-0.016": 1.63639338312,
			"-0.015": 1.33563819884,
			"-0.014": 1.42437128787,
			"-0.013": 0.986254540198,
			"-0.012": 0.524412450648,
			"-0.011": 1.02211339366,
			"-0.01": 2.78152367603,
			"-0.009": 2.89889624428,
			"-0.008": 2.78547200908,
			"-0.007": 4.37989706623,
			"-0.006": 12.8524634798,
			"-0.005": 27.539676831,
			"-0.004": 33.3342478944,
			"-0.003": 23.388547369,
			"-0.002": 17.5327996764,
			"-0.001": 14.3593791121,
			"0.0": 13.1462437948,
			"0.001": 15.1092321942,
			"0.002": 16.5289407833,
			"0.003": 18.5467378249,
			"0.004": 17.4358940398,
			"0.005": 14.9616507164,
			"0.006": 5.65512035239,
			"0.007": 4.77723982565,
			"0.008": 4.61622442207,
			"0.009": 5.17966580658,
			"0.01": 3.89772552635,
			"0.011": 3.3979601924,
			"0.012": 3.75846921841,
			"0.013": 4.56922462183,
			"0.014": 6.05108559957,
			"0.015": 1.71277537521,
			"0.016": 0.35086875581,
			"0.017": 0.0,
			"0.018": 0.0,
			"0.019": 0.0,
			"0.02": 0.0,
			"0.021": 0.0,
			"0.022": 0.0,
			"0.023": 0.0,
			"0.024": 0.0,
			"0.025": 0.0
		}
	}
}
