{
	 "smiles": "OC(=O)C(Br)C(Br)C1=CC(=CC=C1)C(Br)C(Br)C(O)=O", 
	 "Tm": 498.15, 
	 "num_atms": 30, 
	 "gaussian": { 
		 "optdone": 1, 
		 "sigma_profile": "yes", 
		 "theory": "DFT", 
		 "functional": "B3LYP", 
		 "basiset": "6-31G**", 
		 "properties": { 
			 "R2extent": 13789.8155, 
			 "electric_dipole_moment_norm": 4.90187977107, 
			 "electric_quadrupole_moment_norm": 8.62623802825, 
			 "total_energy": -11049.8397318, 
			 "HOMO_LUMO_gap": 0.18342, 
			 "cosmo_polarized_energy": -18.58, 
			 "cosmo_cavitation_energy": 42.3, 
			 "cosmo_dispersion_energy": -29.38, 
			 "cosmo_repulsion_energy": 2.25, 
			 "cosmo_total_nonelectrostatic_energy": 15.16, 
			 "SMD_solvation_energy": 3.87 
		},
		"coords": [
			{
				"x": -0.3811449009,
				"y": 2.2085720053,
				"z": 2.6013972034,
				"element": "O" 
			},
			{
				"x": 0.4210722695,
				"y": 1.1704669076,
				"z": 2.8437607197,
				"element": "C" 
			},
			{
				"x": 0.052281055,
				"y": 0.0310180947,
				"z": 3.0342711476,
				"element": "O" 
			},
			{
				"x": 1.8910290396,
				"y": 1.5908574573,
				"z": 2.7315889427,
				"element": "C" 
			},
			{
				"x": 2.7995621286,
				"y": 1.1772795716,
				"z": 4.4297954874,
				"element": "Br" 
			},
			{
				"x": 2.5154461793,
				"y": 0.8398030696,
				"z": 1.5375439014,
				"element": "C" 
			},
			{
				"x": 4.3829244574,
				"y": 1.435603093,
				"z": 1.2414751727,
				"element": "Br" 
			},
			{
				"x": 1.6586344406,
				"y": 1.0139599267,
				"z": 0.2979062985,
				"element": "C" 
			},
			{
				"x": 0.6996200812,
				"y": 0.0329835132,
				"z": 0.0359899425,
				"element": "C" 
			},
			{
				"x": -0.2553920102,
				"y": 0.2078010096,
				"z": -0.9724197119,
				"element": "C" 
			},
			{
				"x": -0.2069118072,
				"y": 1.3563029385,
				"z": -1.7689889296,
				"element": "C" 
			},
			{
				"x": 0.7759268251,
				"y": 2.3220910296,
				"z": -1.5396459701,
				"element": "C" 
			},
			{
				"x": 1.6936092375,
				"y": 2.163605502,
				"z": -0.504157306,
				"element": "C" 
			},
			{
				"x": -1.3793438804,
				"y": -0.7859914421,
				"z": -1.1427451781,
				"element": "C" 
			},
			{
				"x": -0.6573727753,
				"y": -2.6179210517,
				"z": -1.4444843912,
				"element": "Br" 
			},
			{
				"x": -2.3226700872,
				"y": -0.7721986772,
				"z": 0.079316837,
				"element": "C" 
			},
			{
				"x": -3.822304581,
				"y": -2.0635031748,
				"z": -0.1292036694,
				"element": "Br" 
			},
			{
				"x": -2.9454066,
				"y": 0.6199789861,
				"z": 0.2885812408,
				"element": "C" 
			},
			{
				"x": -3.8677161564,
				"y": 1.0099790884,
				"z": -0.60260151,
				"element": "O" 
			},
			{
				"x": -2.5952105457,
				"y": 1.3611787619,
				"z": 1.1770460849,
				"element": "O" 
			},
			{
				"x": -1.2817675987,
				"y": 1.8646398172,
				"z": 2.4152521597,
				"element": "H" 
			},
			{
				"x": 1.9659399176,
				"y": 2.6684345739,
				"z": 2.6016178022,
				"element": "H" 
			},
			{
				"x": 2.6000640246,
				"y": -0.2152094024,
				"z": 1.7941312197,
				"element": "H" 
			},
			{
				"x": 0.6766248131,
				"y": -0.8649036281,
				"z": 0.6439727877,
				"element": "H" 
			},
			{
				"x": -0.9350036948,
				"y": 1.5009550892,
				"z": -2.5624958989,
				"element": "H" 
			},
			{
				"x": 0.8164312242,
				"y": 3.2080781396,
				"z": -2.1654928784,
				"element": "H" 
			},
			{
				"x": 2.4500405489,
				"y": 2.9202532222,
				"z": -0.3242478389,
				"element": "H" 
			},
			{
				"x": -1.9462704558,
				"y": -0.5733525463,
				"z": -2.0492985134,
				"element": "H" 
			},
			{
				"x": -1.8041348513,
				"y": -1.05247569,
				"z": 0.9944440151,
				"element": "H" 
			},
			{
				"x": -4.1920562974,
				"y": 0.2392138153,
				"z": -1.1007091672,
				"element": "H" 
			}
		],
		 "valence_orbital": [ 
			{
				"type": "occ",
				"energy": -0.28862,
				"method": "rhf"
			},
			{
				"type": "occ",
				"energy": -0.27988,
				"method": "rhf"
			},
			{
				"type": "occ",
				"energy": -0.2787,
				"method": "rhf"
			},
			{
				"type": "occ",
				"energy": -0.27073,
				"method": "rhf"
			},
			{
				"type": "occ",
				"energy": -0.26554,
				"method": "rhf"
			},
			{
				"type": "unocc",
				"energy": -0.08212,
				"method": "rhf"
			},
			{
				"type": "unocc",
				"energy": -0.058,
				"method": "rhf"
			},
			{
				"type": "unocc",
				"energy": -0.04039,
				"method": "rhf"
			},
			{
				"type": "unocc",
				"energy": -0.02455,
				"method": "rhf"
			},
			{
				"type": "unocc",
				"energy": -0.01675,
				"method": "rhf"
			}
		],
		"cosmo_sigma_profile": { 
			"-0.025": 0.0,
			"-0.024": 0.0,
			"-0.023": 0.0,
			"-0.022": 0.0,
			"-0.021": 0.0,
			"-0.02": 0.0,
			"-0.019": 0.0,
			"-0.018": 0.0547079466938,
			"-0.017": 0.835406492843,
			"-0.016": 1.20516648948,
			"-0.015": 1.53736030979,
			"-0.014": 0.560352902528,
			"-0.013": 0.917729978305,
			"-0.012": 1.4311534061,
			"-0.011": 1.85534743571,
			"-0.01": 3.12151439106,
			"-0.009": 6.25219098292,
			"-0.008": 7.8982494445,
			"-0.007": 13.4244739178,
			"-0.006": 12.7972907604,
			"-0.005": 15.267470531,
			"-0.004": 16.3906389211,
			"-0.003": 19.7153829036,
			"-0.002": 19.8817584331,
			"-0.001": 22.4515202553,
			"0.0": 22.7595800931,
			"0.001": 25.6794542285,
			"0.002": 31.5147548291,
			"0.003": 33.6393926757,
			"0.004": 30.1437693813,
			"0.005": 25.7744195625,
			"0.006": 11.1391464374,
			"0.007": 5.99928835804,
			"0.008": 6.0405067774,
			"0.009": 4.5906264875,
			"0.01": 2.91933620452,
			"0.011": 2.84448656448,
			"0.012": 0.249556224199,
			"0.013": 0.0,
			"0.014": 0.0,
			"0.015": 0.0,
			"0.016": 0.0,
			"0.017": 0.0,
			"0.018": 0.0,
			"0.019": 0.0,
			"0.02": 0.0,
			"0.021": 0.0,
			"0.022": 0.0,
			"0.023": 0.0,
			"0.024": 0.0,
			"0.025": 0.0
		}
	}
}
