{
	 "smiles": "CC(C)(C)OC(=O)NC1C2CCC(C2)C1C(O)=O", 
	 "Tm": 414.15, 
	 "num_atms": 39, 
	 "gaussian": { 
		 "optdone": 1, 
		 "sigma_profile": "yes", 
		 "theory": "DFT", 
		 "functional": "B3LYP", 
		 "basiset": "6-31G**", 
		 "properties": { 
			 "R2extent": 5499.9717, 
			 "electric_dipole_moment_norm": 3.86090165376, 
			 "electric_quadrupole_moment_norm": 14.8738125082, 
			 "total_energy": -863.741735282, 
			 "HOMO_LUMO_gap": 0.22806, 
			 "cosmo_polarized_energy": -13.6, 
			 "cosmo_cavitation_energy": 38.67, 
			 "cosmo_dispersion_energy": -26.72, 
			 "cosmo_repulsion_energy": 2.08, 
			 "cosmo_total_nonelectrostatic_energy": 14.04, 
			 "SMD_solvation_energy": 7.62 
		},
		"coords": [
			{
				"x": 3.5515501282,
				"y": 1.1015248739,
				"z": -0.4607881273,
				"element": "C" 
			},
			{
				"x": 2.8882630175,
				"y": -0.0457108634,
				"z": 0.3096464425,
				"element": "C" 
			},
			{
				"x": 3.0910556033,
				"y": 0.1270629242,
				"z": 1.8176270336,
				"element": "C" 
			},
			{
				"x": 3.3900139011,
				"y": -1.4189350273,
				"z": -0.1508689376,
				"element": "C" 
			},
			{
				"x": 1.4277226636,
				"y": 0.0294544844,
				"z": 0.1716334379,
				"element": "O" 
			},
			{
				"x": 0.8396836446,
				"y": -0.0679665951,
				"z": -1.0513906343,
				"element": "C" 
			},
			{
				"x": 1.4194115148,
				"y": -0.2513466176,
				"z": -2.1105741436,
				"element": "O" 
			},
			{
				"x": -0.5154215546,
				"y": 0.0737348472,
				"z": -0.9521976526,
				"element": "N" 
			},
			{
				"x": -1.2634902944,
				"y": 0.2578607648,
				"z": 0.2749081836,
				"element": "C" 
			},
			{
				"x": -1.6224185877,
				"y": -1.0317133414,
				"z": 1.0677507152,
				"element": "C" 
			},
			{
				"x": -2.4022930004,
				"y": -2.0059054717,
				"z": 0.1579024757,
				"element": "C" 
			},
			{
				"x": -3.8063210213,
				"y": -1.3311252049,
				"z": 0.0311993294,
				"element": "C" 
			},
			{
				"x": -3.6402112652,
				"y": -0.0239575173,
				"z": 0.8396705683,
				"element": "C" 
			},
			{
				"x": -2.7304539078,
				"y": -0.4959666391,
				"z": 1.9954722823,
				"element": "C" 
			},
			{
				"x": -2.6706330434,
				"y": 0.9599347823,
				"z": 0.0980197916,
				"element": "C" 
			},
			{
				"x": -3.1269132925,
				"y": 1.2644704266,
				"z": -1.3071383067,
				"element": "C" 
			},
			{
				"x": -3.9130348465,
				"y": 2.3633885275,
				"z": -1.3466460259,
				"element": "O" 
			},
			{
				"x": -2.8914372576,
				"y": 0.61398919,
				"z": -2.3102996853,
				"element": "O" 
			},
			{
				"x": 3.1427551202,
				"y": 2.0635215081,
				"z": -0.1349485525,
				"element": "H" 
			},
			{
				"x": 4.628226405,
				"y": 1.1052387639,
				"z": -0.2612963765,
				"element": "H" 
			},
			{
				"x": 3.390003501,
				"y": 0.993371297,
				"z": -1.533325093,
				"element": "H" 
			},
			{
				"x": 2.5809983968,
				"y": -0.6678492129,
				"z": 2.3699242304,
				"element": "H" 
			},
			{
				"x": 2.6943967696,
				"y": 1.0898642892,
				"z": 2.1534709978,
				"element": "H" 
			},
			{
				"x": 4.1570151697,
				"y": 0.0882332938,
				"z": 2.0612026215,
				"element": "H" 
			},
			{
				"x": 3.2229058118,
				"y": -1.5541767604,
				"z": -1.2194201214,
				"element": "H" 
			},
			{
				"x": 2.8707206905,
				"y": -2.2144124475,
				"z": 0.3934011202,
				"element": "H" 
			},
			{
				"x": 4.4613620537,
				"y": -1.5087001727,
				"z": 0.057145902,
				"element": "H" 
			},
			{
				"x": -1.025071643,
				"y": -0.0260395644,
				"z": -1.8208070726,
				"element": "H" 
			},
			{
				"x": -0.6574160557,
				"y": 0.8927361327,
				"z": 0.9249692949,
				"element": "H" 
			},
			{
				"x": -0.7459251471,
				"y": -1.4689494423,
				"z": 1.55075384,
				"element": "H" 
			},
			{
				"x": -1.9115084831,
				"y": -2.1388741215,
				"z": -0.8097014334,
				"element": "H" 
			},
			{
				"x": -2.4747055168,
				"y": -2.9936521376,
				"z": 0.6236826135,
				"element": "H" 
			},
			{
				"x": -4.5852910758,
				"y": -1.9462677235,
				"z": 0.4935680528,
				"element": "H" 
			},
			{
				"x": -4.0984762626,
				"y": -1.1616756315,
				"z": -1.0071472016,
				"element": "H" 
			},
			{
				"x": -4.581551045,
				"y": 0.4544559938,
				"z": 1.1207043582,
				"element": "H" 
			},
			{
				"x": -3.1989078305,
				"y": -1.2738421505,
				"z": 2.6071743882,
				"element": "H" 
			},
			{
				"x": -2.4003687942,
				"y": 0.3163509119,
				"z": 2.6526868646,
				"element": "H" 
			},
			{
				"x": -2.6715287871,
				"y": 1.9095443043,
				"z": 0.6394008288,
				"element": "H" 
			},
			{
				"x": -4.1956056791,
				"y": 2.4626293271,
				"z": -2.2721660087,
				"element": "H" 
			}
		],
		 "valence_orbital": [ 
			{
				"type": "occ",
				"energy": -0.30773,
				"method": "rhf"
			},
			{
				"type": "occ",
				"energy": -0.28427,
				"method": "rhf"
			},
			{
				"type": "occ",
				"energy": -0.2798,
				"method": "rhf"
			},
			{
				"type": "occ",
				"energy": -0.25038,
				"method": "rhf"
			},
			{
				"type": "occ",
				"energy": -0.2359,
				"method": "rhf"
			},
			{
				"type": "unocc",
				"energy": -0.00784,
				"method": "rhf"
			},
			{
				"type": "unocc",
				"energy": 0.06059,
				"method": "rhf"
			},
			{
				"type": "unocc",
				"energy": 0.06921,
				"method": "rhf"
			},
			{
				"type": "unocc",
				"energy": 0.07599,
				"method": "rhf"
			},
			{
				"type": "unocc",
				"energy": 0.09163,
				"method": "rhf"
			}
		],
		"cosmo_sigma_profile": { 
			"-0.025": 0.0,
			"-0.024": 0.0,
			"-0.023": 0.0,
			"-0.022": 0.0,
			"-0.021": 0.0,
			"-0.02": 0.0,
			"-0.019": 0.0,
			"-0.018": 0.904344888407,
			"-0.017": 1.035288607,
			"-0.016": 0.687573159265,
			"-0.015": 0.658404850806,
			"-0.014": 0.649022433365,
			"-0.013": 0.944892735297,
			"-0.012": 0.892737944349,
			"-0.011": 0.700055449907,
			"-0.01": 0.79292489615,
			"-0.009": 0.53220655953,
			"-0.008": 0.44287443728,
			"-0.007": 0.689404334591,
			"-0.006": 3.41475366911,
			"-0.005": 7.24583301924,
			"-0.004": 19.050168878,
			"-0.003": 34.0935024167,
			"-0.002": 38.3728243501,
			"-0.001": 37.333187723,
			"0.0": 44.3101088673,
			"0.001": 39.3732861427,
			"0.002": 12.4030929758,
			"0.003": 10.1390116625,
			"0.004": 5.02708707892,
			"0.005": 6.83085238731,
			"0.006": 5.50340344727,
			"0.007": 4.25276871452,
			"0.008": 3.9893982681,
			"0.009": 4.22021694457,
			"0.01": 3.14270033275,
			"0.011": 3.57969071008,
			"0.012": 2.02443511585,
			"0.013": 2.91178816041,
			"0.014": 3.36161750257,
			"0.015": 0.360096924248,
			"0.016": 0.0,
			"0.017": 0.0,
			"0.018": 0.0,
			"0.019": 0.0,
			"0.02": 0.0,
			"0.021": 0.0,
			"0.022": 0.0,
			"0.023": 0.0,
			"0.024": 0.0,
			"0.025": 0.0
		}
	}
}
