{
	 "smiles": "CC1=C(N)C=CC(OC2=NC=CN=C2)=C1", 
	 "Tm": 399.15, 
	 "num_atms": 26, 
	 "gaussian": { 
		 "optdone": 1, 
		 "sigma_profile": "yes", 
		 "theory": "DFT", 
		 "functional": "B3LYP", 
		 "basiset": "6-31G**", 
		 "properties": { 
			 "R2extent": 4610.3782, 
			 "electric_dipole_moment_norm": 3.50298369537, 
			 "electric_quadrupole_moment_norm": 4.99404506988, 
			 "total_energy": -665.265715507, 
			 "HOMO_LUMO_gap": 0.1583, 
			 "cosmo_polarized_energy": -13.13, 
			 "cosmo_cavitation_energy": 30.66, 
			 "cosmo_dispersion_energy": -22.25, 
			 "cosmo_repulsion_energy": 1.75, 
			 "cosmo_total_nonelectrostatic_energy": 10.16, 
			 "SMD_solvation_energy": 3.06 
		},
		"coords": [
			{
				"x": -3.2589244561,
				"y": -1.1236702575,
				"z": -0.6907866458,
				"element": "C" 
			},
			{
				"x": -1.7815697939,
				"y": -1.3151311998,
				"z": -0.4544569352,
				"element": "C" 
			},
			{
				"x": -1.3197146633,
				"y": -1.8332991116,
				"z": 0.7783660855,
				"element": "C" 
			},
			{
				"x": -2.2353793036,
				"y": -2.2131529199,
				"z": 1.7677752004,
				"element": "N" 
			},
			{
				"x": 0.0564733271,
				"y": -2.0261466742,
				"z": 0.9725489303,
				"element": "C" 
			},
			{
				"x": 0.974382965,
				"y": -1.7108552287,
				"z": -0.0264044219,
				"element": "C" 
			},
			{
				"x": 0.5129184061,
				"y": -1.192934078,
				"z": -1.2297999692,
				"element": "C" 
			},
			{
				"x": 1.4213349935,
				"y": -0.9534955579,
				"z": -2.2712633953,
				"element": "O" 
			},
			{
				"x": 1.9218214197,
				"y": 0.2953285512,
				"z": -2.4469594652,
				"element": "C" 
			},
			{
				"x": 1.5782055612,
				"y": 1.2889893896,
				"z": -1.6423075775,
				"element": "N" 
			},
			{
				"x": 2.1373238109,
				"y": 2.4807488482,
				"z": -1.9092752137,
				"element": "C" 
			},
			{
				"x": 3.0226239409,
				"y": 2.6655974947,
				"z": -2.9638621364,
				"element": "C" 
			},
			{
				"x": 3.3662266841,
				"y": 1.649992906,
				"z": -3.7772961375,
				"element": "N" 
			},
			{
				"x": 2.8195612679,
				"y": 0.4687436834,
				"z": -3.5224244049,
				"element": "C" 
			},
			{
				"x": -0.8484457055,
				"y": -0.9995824924,
				"z": -1.4434416968,
				"element": "C" 
			},
			{
				"x": -3.4540184295,
				"y": -0.7803711609,
				"z": -1.709564403,
				"element": "H" 
			},
			{
				"x": -3.6911678931,
				"y": -0.3764402656,
				"z": -0.0096756966,
				"element": "H" 
			},
			{
				"x": -3.8127306723,
				"y": -2.0577713239,
				"z": -0.5353018623,
				"element": "H" 
			},
			{
				"x": -1.8342792265,
				"y": -2.31173848,
				"z": 2.6907280763,
				"element": "H" 
			},
			{
				"x": -3.0884638663,
				"y": -1.671449915,
				"z": 1.7952976191,
				"element": "H" 
			},
			{
				"x": 0.4091663823,
				"y": -2.4321404715,
				"z": 1.917533629,
				"element": "H" 
			},
			{
				"x": 2.03774644,
				"y": -1.8645745797,
				"z": 0.1242545809,
				"element": "H" 
			},
			{
				"x": 1.8628883918,
				"y": 3.3054028864,
				"z": -1.2545459052,
				"element": "H" 
			},
			{
				"x": 3.4660002653,
				"y": 3.6370278076,
				"z": -3.1657493258,
				"element": "H" 
			},
			{
				"x": 3.0759323572,
				"y": -0.3732706287,
				"z": -4.1606587231,
				"element": "H" 
			},
			{
				"x": -1.1840122028,
				"y": -0.6042072217,
				"z": -2.3975302062,
				"element": "H" 
			}
		],
		 "valence_orbital": [ 
			{
				"type": "occ",
				"energy": -0.29837,
				"method": "rhf"
			},
			{
				"type": "occ",
				"energy": -0.24929,
				"method": "rhf"
			},
			{
				"type": "occ",
				"energy": -0.24519,
				"method": "rhf"
			},
			{
				"type": "occ",
				"energy": -0.24003,
				"method": "rhf"
			},
			{
				"type": "occ",
				"energy": -0.19979,
				"method": "rhf"
			},
			{
				"type": "unocc",
				"energy": -0.04149,
				"method": "rhf"
			},
			{
				"type": "unocc",
				"energy": -0.00825,
				"method": "rhf"
			},
			{
				"type": "unocc",
				"energy": 0.00433,
				"method": "rhf"
			},
			{
				"type": "unocc",
				"energy": 0.01807,
				"method": "rhf"
			},
			{
				"type": "unocc",
				"energy": 0.07372,
				"method": "rhf"
			}
		],
		"cosmo_sigma_profile": { 
			"-0.025": 0.0,
			"-0.024": 0.0,
			"-0.023": 0.0,
			"-0.022": 0.0,
			"-0.021": 0.0,
			"-0.02": 0.0,
			"-0.019": 0.0,
			"-0.018": 0.0,
			"-0.017": 0.0,
			"-0.016": 0.0,
			"-0.015": 0.0,
			"-0.014": 0.0,
			"-0.013": 0.11508804303,
			"-0.012": 1.30711235469,
			"-0.011": 2.86995997252,
			"-0.01": 3.04578393507,
			"-0.009": 3.32071313105,
			"-0.008": 4.18444328862,
			"-0.007": 10.0345074317,
			"-0.006": 12.0653691303,
			"-0.005": 14.5805277421,
			"-0.004": 15.1955288545,
			"-0.003": 16.6761969028,
			"-0.002": 18.0252709649,
			"-0.001": 20.4502519289,
			"0.0": 21.782755922,
			"0.001": 15.7464457808,
			"0.002": 10.4392726635,
			"0.003": 12.6922875444,
			"0.004": 11.6308032415,
			"0.005": 11.3293067167,
			"0.006": 10.5568849938,
			"0.007": 7.445917633,
			"0.008": 4.56099925476,
			"0.009": 2.79364018839,
			"0.01": 2.62359178463,
			"0.011": 3.10297142903,
			"0.012": 3.10451144927,
			"0.013": 2.35451699949,
			"0.014": 1.77330652091,
			"0.015": 0.882187779441,
			"0.016": 0.125026942155,
			"0.017": 0.0,
			"0.018": 0.0,
			"0.019": 0.0,
			"0.02": 0.0,
			"0.021": 0.0,
			"0.022": 0.0,
			"0.023": 0.0,
			"0.024": 0.0,
			"0.025": 0.0
		}
	}
}
