{
	 "smiles": "CCOC(=O)C1=CNC(=O)N=C1C(F)(F)F", 
	 "Tm": 438.15, 
	 "num_atms": 23, 
	 "gaussian": { 
		 "optdone": 1, 
		 "sigma_profile": "yes", 
		 "theory": "DFT", 
		 "functional": "B3LYP", 
		 "basiset": "6-31G**", 
		 "properties": { 
			 "R2extent": 4858.7731, 
			 "electric_dipole_moment_norm": 4.91129351902, 
			 "electric_quadrupole_moment_norm": 28.365979761, 
			 "total_energy": -943.776227513, 
			 "HOMO_LUMO_gap": 0.17812, 
			 "cosmo_polarized_energy": -19.23, 
			 "cosmo_cavitation_energy": 29.6, 
			 "cosmo_dispersion_energy": -20.78, 
			 "cosmo_repulsion_energy": 1.58, 
			 "cosmo_total_nonelectrostatic_energy": 10.39, 
			 "SMD_solvation_energy": 7.28 
		},
		"coords": [
			{
				"x": 0.3521650986,
				"y": 1.8005015383,
				"z": -2.0384270962,
				"element": "C" 
			},
			{
				"x": -0.7252369242,
				"y": 0.7286738429,
				"z": -2.0791823778,
				"element": "C" 
			},
			{
				"x": -0.4775946356,
				"y": -0.3004621765,
				"z": -1.0858466542,
				"element": "O" 
			},
			{
				"x": -0.9496349845,
				"y": -0.0842195201,
				"z": 0.1447361784,
				"element": "C" 
			},
			{
				"x": -1.5375694941,
				"y": 0.9277646295,
				"z": 0.48867394,
				"element": "O" 
			},
			{
				"x": -0.6627445288,
				"y": -1.1931769954,
				"z": 1.1015523073,
				"element": "C" 
			},
			{
				"x": -0.9221481121,
				"y": -0.8849128353,
				"z": 2.4186447749,
				"element": "C" 
			},
			{
				"x": -0.6831222715,
				"y": -1.7714430723,
				"z": 3.3956123221,
				"element": "N" 
			},
			{
				"x": -0.1304073199,
				"y": -3.0641077932,
				"z": 3.1680411191,
				"element": "C" 
			},
			{
				"x": 0.1156207247,
				"y": -3.785294426,
				"z": 4.111677058,
				"element": "O" 
			},
			{
				"x": 0.0673000494,
				"y": -3.3910482211,
				"z": 1.8337029691,
				"element": "N" 
			},
			{
				"x": -0.172162757,
				"y": -2.5337810926,
				"z": 0.8825575552,
				"element": "C" 
			},
			{
				"x": 0.0782746439,
				"y": -3.100197863,
				"z": -0.5271525493,
				"element": "C" 
			},
			{
				"x": 1.1245109697,
				"y": -2.485791032,
				"z": -1.1103435069,
				"element": "F" 
			},
			{
				"x": 0.3460179681,
				"y": -4.4070027504,
				"z": -0.4864984381,
				"element": "F" 
			},
			{
				"x": -1.0116836013,
				"y": -2.932069644,
				"z": -1.3033119151,
				"element": "F" 
			},
			{
				"x": 1.3449044577,
				"y": 1.3594101738,
				"z": -2.1651358231,
				"element": "H" 
			},
			{
				"x": 0.188276964,
				"y": 2.5175030665,
				"z": -2.8495618959,
				"element": "H" 
			},
			{
				"x": 0.321050716,
				"y": 2.3429736878,
				"z": -1.0904374324,
				"element": "H" 
			},
			{
				"x": -0.7201247847,
				"y": 0.1855681048,
				"z": -3.0263127135,
				"element": "H" 
			},
			{
				"x": -1.7165756444,
				"y": 1.1519448487,
				"z": -1.9038949354,
				"element": "H" 
			},
			{
				"x": -1.326355795,
				"y": 0.0851611811,
				"z": 2.6867511533,
				"element": "H" 
			},
			{
				"x": -0.8620607393,
				"y": -1.5420936513,
				"z": 4.3663559608,
				"element": "H" 
			}
		],
		 "valence_orbital": [ 
			{
				"type": "occ",
				"energy": -0.31474,
				"method": "rhf"
			},
			{
				"type": "occ",
				"energy": -0.30807,
				"method": "rhf"
			},
			{
				"type": "occ",
				"energy": -0.289,
				"method": "rhf"
			},
			{
				"type": "occ",
				"energy": -0.28285,
				"method": "rhf"
			},
			{
				"type": "occ",
				"energy": -0.26365,
				"method": "rhf"
			},
			{
				"type": "unocc",
				"energy": -0.08553,
				"method": "rhf"
			},
			{
				"type": "unocc",
				"energy": -0.05829,
				"method": "rhf"
			},
			{
				"type": "unocc",
				"energy": 0.03415,
				"method": "rhf"
			},
			{
				"type": "unocc",
				"energy": 0.04935,
				"method": "rhf"
			},
			{
				"type": "unocc",
				"energy": 0.09939,
				"method": "rhf"
			}
		],
		"cosmo_sigma_profile": { 
			"-0.025": 0.0,
			"-0.024": 0.0,
			"-0.023": 0.0,
			"-0.022": 0.0,
			"-0.021": 0.0,
			"-0.02": 0.0,
			"-0.019": 0.0731929670413,
			"-0.018": 1.98768381294,
			"-0.017": 1.46530661428,
			"-0.016": 1.47824703517,
			"-0.015": 1.1857544773,
			"-0.014": 0.94220727364,
			"-0.013": 1.5537087419,
			"-0.012": 1.81360732773,
			"-0.011": 1.4472243788,
			"-0.01": 2.1459177761,
			"-0.009": 1.63409686726,
			"-0.008": 1.76599864188,
			"-0.007": 4.36710020359,
			"-0.006": 7.72820171148,
			"-0.005": 13.863765381,
			"-0.004": 21.7284755933,
			"-0.003": 21.1939898114,
			"-0.002": 14.2880886858,
			"-0.001": 14.9680269012,
			"0.0": 15.2906773071,
			"0.001": 11.8859471344,
			"0.002": 24.2585614832,
			"0.003": 17.1345813387,
			"0.004": 7.19684540587,
			"0.005": 6.33915976972,
			"0.006": 3.76821421464,
			"0.007": 3.04065875068,
			"0.008": 3.04302114192,
			"0.009": 3.64046440382,
			"0.01": 5.05817266327,
			"0.011": 7.33022296587,
			"0.012": 8.31865257656,
			"0.013": 4.03672493398,
			"0.014": 0.756426396588,
			"0.015": 0.0,
			"0.016": 0.0,
			"0.017": 0.0,
			"0.018": 0.0,
			"0.019": 0.0,
			"0.02": 0.0,
			"0.021": 0.0,
			"0.022": 0.0,
			"0.023": 0.0,
			"0.024": 0.0,
			"0.025": 0.0
		}
	}
}
