{
	 "smiles": "CC(NC(=O)C(C(F)(F)F)C(F)(F)F)C1=CC=CC=C1", 
	 "Tm": 410.15, 
	 "num_atms": 31, 
	 "gaussian": { 
		 "optdone": 1, 
		 "sigma_profile": "yes", 
		 "theory": "DFT", 
		 "functional": "B3LYP", 
		 "basiset": "6-31G**", 
		 "properties": { 
			 "R2extent": 5330.8573, 
			 "electric_dipole_moment_norm": 5.36681962059, 
			 "electric_quadrupole_moment_norm": 13.6101241798, 
			 "total_energy": -1192.94433271, 
			 "HOMO_LUMO_gap": 0.2318, 
			 "cosmo_polarized_energy": -13.29, 
			 "cosmo_cavitation_energy": 35.69, 
			 "cosmo_dispersion_energy": -23.42, 
			 "cosmo_repulsion_energy": 1.7, 
			 "cosmo_total_nonelectrostatic_energy": 13.96, 
			 "SMD_solvation_energy": 8.39 
		},
		"coords": [
			{
				"x": -1.2656869053,
				"y": -2.4185813171,
				"z": 0.0520266131,
				"element": "C" 
			},
			{
				"x": -1.4618557694,
				"y": -0.9500795835,
				"z": 0.4563149097,
				"element": "C" 
			},
			{
				"x": -0.8862115627,
				"y": -0.6632839906,
				"z": 1.7898553507,
				"element": "N" 
			},
			{
				"x": 0.4006075524,
				"y": -0.5765351015,
				"z": 2.2492175704,
				"element": "C" 
			},
			{
				"x": 0.6497542074,
				"y": -0.5557234347,
				"z": 3.4443704588,
				"element": "O" 
			},
			{
				"x": 1.5433343665,
				"y": -0.4505708754,
				"z": 1.2225233378,
				"element": "C" 
			},
			{
				"x": 2.4925807226,
				"y": -1.6468867245,
				"z": 1.3263962797,
				"element": "C" 
			},
			{
				"x": 1.7885589751,
				"y": -2.7958809702,
				"z": 1.1622815852,
				"element": "F" 
			},
			{
				"x": 3.420472188,
				"y": -1.6045645824,
				"z": 0.3493471885,
				"element": "F" 
			},
			{
				"x": 3.1294218388,
				"y": -1.7272512488,
				"z": 2.4969707582,
				"element": "F" 
			},
			{
				"x": 2.2715317786,
				"y": 0.8864049296,
				"z": 1.4137592106,
				"element": "C" 
			},
			{
				"x": 3.1163229377,
				"y": 1.1123323121,
				"z": 0.3869642712,
				"element": "F" 
			},
			{
				"x": 2.9797390957,
				"y": 0.947007737,
				"z": 2.5466525458,
				"element": "F" 
			},
			{
				"x": 1.3735348451,
				"y": 1.8955257476,
				"z": 1.4301591378,
				"element": "F" 
			},
			{
				"x": -1.066141619,
				"y": 0.0828486802,
				"z": -0.6025908182,
				"element": "C" 
			},
			{
				"x": -0.6267563729,
				"y": -0.2843268594,
				"z": -1.8806753921,
				"element": "C" 
			},
			{
				"x": -0.3233193183,
				"y": 0.6889639369,
				"z": -2.8379934379,
				"element": "C" 
			},
			{
				"x": -0.4587245932,
				"y": 2.0414083338,
				"z": -2.531816919,
				"element": "C" 
			},
			{
				"x": -0.8983194365,
				"y": 2.4184591025,
				"z": -1.2597452299,
				"element": "C" 
			},
			{
				"x": -1.1982630604,
				"y": 1.4486524411,
				"z": -0.3066497886,
				"element": "C" 
			},
			{
				"x": -0.2179270165,
				"y": -2.6568955983,
				"z": -0.1426495013,
				"element": "H" 
			},
			{
				"x": -1.8516538769,
				"y": -2.6564769781,
				"z": -0.8404603164,
				"element": "H" 
			},
			{
				"x": -1.6076790613,
				"y": -3.0679288987,
				"z": 0.8624353661,
				"element": "H" 
			},
			{
				"x": -2.5376658135,
				"y": -0.809974872,
				"z": 0.6202619105,
				"element": "H" 
			},
			{
				"x": -1.5235423099,
				"y": -0.7703767758,
				"z": 2.5699413013,
				"element": "H" 
			},
			{
				"x": 1.1705530067,
				"y": -0.439861578,
				"z": 0.197676828,
				"element": "H" 
			},
			{
				"x": -0.5163189554,
				"y": -1.3310778401,
				"z": -2.142667985,
				"element": "H" 
			},
			{
				"x": 0.0199065355,
				"y": 0.3833046693,
				"z": -3.8220708368,
				"element": "H" 
			},
			{
				"x": -0.2219375589,
				"y": 2.7972511693,
				"z": -3.2747098084,
				"element": "H" 
			},
			{
				"x": -1.0040205476,
				"y": 3.4698977001,
				"z": -1.0091017216,
				"element": "H" 
			},
			{
				"x": -1.5244942724,
				"y": 1.7484204696,
				"z": 0.6847771319,
				"element": "H" 
			}
		],
		 "valence_orbital": [ 
			{
				"type": "occ",
				"energy": -0.35061,
				"method": "rhf"
			},
			{
				"type": "occ",
				"energy": -0.27437,
				"method": "rhf"
			},
			{
				"type": "occ",
				"energy": -0.26973,
				"method": "rhf"
			},
			{
				"type": "occ",
				"energy": -0.26443,
				"method": "rhf"
			},
			{
				"type": "occ",
				"energy": -0.25394,
				"method": "rhf"
			},
			{
				"type": "unocc",
				"energy": -0.02214,
				"method": "rhf"
			},
			{
				"type": "unocc",
				"energy": -0.01619,
				"method": "rhf"
			},
			{
				"type": "unocc",
				"energy": -0.00152,
				"method": "rhf"
			},
			{
				"type": "unocc",
				"energy": 0.06121,
				"method": "rhf"
			},
			{
				"type": "unocc",
				"energy": 0.0865,
				"method": "rhf"
			}
		],
		"cosmo_sigma_profile": { 
			"-0.025": 0.0,
			"-0.024": 0.0,
			"-0.023": 0.0,
			"-0.022": 0.0,
			"-0.021": 0.0,
			"-0.02": 0.0,
			"-0.019": 0.0,
			"-0.018": 0.0,
			"-0.017": 0.0,
			"-0.016": 0.0,
			"-0.015": 0.162049611667,
			"-0.014": 1.12838180181,
			"-0.013": 1.40732791002,
			"-0.012": 1.12904935107,
			"-0.011": 1.34676047723,
			"-0.01": 1.64223646641,
			"-0.009": 2.23317273643,
			"-0.008": 2.30717587738,
			"-0.007": 3.99690713835,
			"-0.006": 9.12189770841,
			"-0.005": 18.0769101109,
			"-0.004": 22.3788890022,
			"-0.003": 17.7442778105,
			"-0.002": 15.5504665851,
			"-0.001": 18.5855960685,
			"0.0": 21.0192000437,
			"0.001": 28.3061977951,
			"0.002": 55.4648280284,
			"0.003": 22.6919617483,
			"0.004": 11.2863580667,
			"0.005": 8.1026041878,
			"0.006": 3.05028412702,
			"0.007": 1.53244757985,
			"0.008": 1.82257184013,
			"0.009": 2.063537797,
			"0.01": 2.14242588533,
			"0.011": 2.36005820094,
			"0.012": 4.7343180889,
			"0.013": 2.17441696644,
			"0.014": 0.0632854464801,
			"0.015": 0.0,
			"0.016": 0.0,
			"0.017": 0.0,
			"0.018": 0.0,
			"0.019": 0.0,
			"0.02": 0.0,
			"0.021": 0.0,
			"0.022": 0.0,
			"0.023": 0.0,
			"0.024": 0.0,
			"0.025": 0.0
		}
	}
}
