{
	 "smiles": "NC1=C(Cl)C=CC(=C1)S(=O)(=O)NC1=C(Cl)C=CC=C1", 
	 "Tm": 364.15, 
	 "num_atms": 29, 
	 "gaussian": { 
		 "optdone": 1, 
		 "sigma_profile": "yes", 
		 "theory": "DFT", 
		 "functional": "B3LYP", 
		 "basiset": "6-31G**", 
		 "properties": { 
			 "R2extent": 7756.681, 
			 "electric_dipole_moment_norm": 6.862532942, 
			 "electric_quadrupole_moment_norm": 21.1239661655, 
			 "total_energy": -2041.75382018, 
			 "HOMO_LUMO_gap": 0.18159, 
			 "cosmo_polarized_energy": -22.45, 
			 "cosmo_cavitation_energy": 38.24, 
			 "cosmo_dispersion_energy": -27.26, 
			 "cosmo_repulsion_energy": 2.07, 
			 "cosmo_total_nonelectrostatic_energy": 13.06, 
			 "SMD_solvation_energy": 5.09 
		},
		"coords": [
			{
				"x": -3.0329711548,
				"y": -2.4277321955,
				"z": 3.5165642137,
				"element": "N" 
			},
			{
				"x": -2.3058508532,
				"y": -2.3126191426,
				"z": 2.3514896195,
				"element": "C" 
			},
			{
				"x": -1.2972170623,
				"y": -3.238480517,
				"z": 2.0048319605,
				"element": "C" 
			},
			{
				"x": -0.9007282481,
				"y": -4.5242903437,
				"z": 3.1393241573,
				"element": "Cl" 
			},
			{
				"x": -0.6148411188,
				"y": -3.171536397,
				"z": 0.7936475963,
				"element": "C" 
			},
			{
				"x": -0.9022573536,
				"y": -2.1600605491,
				"z": -0.1210435778,
				"element": "C" 
			},
			{
				"x": -1.8842443859,
				"y": -1.2270732246,
				"z": 0.2192349539,
				"element": "C" 
			},
			{
				"x": -2.5790369976,
				"y": -1.2905856527,
				"z": 1.4233733308,
				"element": "C" 
			},
			{
				"x": -2.2517499153,
				"y": 0.121171293,
				"z": -0.9146723935,
				"element": "S" 
			},
			{
				"x": -1.9166655913,
				"y": -0.3366811263,
				"z": -2.2585898566,
				"element": "O" 
			},
			{
				"x": -3.5627346755,
				"y": 0.657077491,
				"z": -0.5482014107,
				"element": "O" 
			},
			{
				"x": -1.1668019307,
				"y": 1.3803188288,
				"z": -0.5380205353,
				"element": "N" 
			},
			{
				"x": 0.231822293,
				"y": 1.2562208799,
				"z": -0.7881517876,
				"element": "C" 
			},
			{
				"x": 0.7809035543,
				"y": 1.6706721493,
				"z": -2.0157439098,
				"element": "C" 
			},
			{
				"x": -0.2217327342,
				"y": 2.3656415602,
				"z": -3.2623503982,
				"element": "Cl" 
			},
			{
				"x": 2.1548985921,
				"y": 1.5686918513,
				"z": -2.2440014357,
				"element": "C" 
			},
			{
				"x": 2.9962829591,
				"y": 1.0762933949,
				"z": -1.2476463883,
				"element": "C" 
			},
			{
				"x": 2.4696598733,
				"y": 0.6834539263,
				"z": -0.0165992571,
				"element": "C" 
			},
			{
				"x": 1.0966424024,
				"y": 0.7670804286,
				"z": 0.2016201606,
				"element": "C" 
			},
			{
				"x": -2.6411676677,
				"y": -2.9967290892,
				"z": 4.2517872054,
				"element": "H" 
			},
			{
				"x": -3.5315520115,
				"y": -1.6091767549,
				"z": 3.8293240499,
				"element": "H" 
			},
			{
				"x": 0.1397134726,
				"y": -3.9179476806,
				"z": 0.5710010601,
				"element": "H" 
			},
			{
				"x": -0.3977559538,
				"y": -2.1076130445,
				"z": -1.0777006614,
				"element": "H" 
			},
			{
				"x": -3.3637846391,
				"y": -0.5693430846,
				"z": 1.6290135244,
				"element": "H" 
			},
			{
				"x": -1.4117839413,
				"y": 1.7882769247,
				"z": 0.3589316261,
				"element": "H" 
			},
			{
				"x": 2.5555547833,
				"y": 1.8919988532,
				"z": -3.1982253568,
				"element": "H" 
			},
			{
				"x": 4.063721536,
				"y": 1.0091147543,
				"z": -1.4344869948,
				"element": "H" 
			},
			{
				"x": 3.1205644511,
				"y": 0.3064963075,
				"z": 0.7659527039,
				"element": "H" 
			},
			{
				"x": 0.6723123175,
				"y": 0.4495601592,
				"z": 1.149537801,
				"element": "H" 
			}
		],
		 "valence_orbital": [ 
			{
				"type": "occ",
				"energy": -0.29838,
				"method": "rhf"
			},
			{
				"type": "occ",
				"energy": -0.27002,
				"method": "rhf"
			},
			{
				"type": "occ",
				"energy": -0.26213,
				"method": "rhf"
			},
			{
				"type": "occ",
				"energy": -0.24802,
				"method": "rhf"
			},
			{
				"type": "occ",
				"energy": -0.22825,
				"method": "rhf"
			},
			{
				"type": "unocc",
				"energy": -0.04666,
				"method": "rhf"
			},
			{
				"type": "unocc",
				"energy": -0.02825,
				"method": "rhf"
			},
			{
				"type": "unocc",
				"energy": -0.02397,
				"method": "rhf"
			},
			{
				"type": "unocc",
				"energy": -0.0135,
				"method": "rhf"
			},
			{
				"type": "unocc",
				"energy": 0.01522,
				"method": "rhf"
			}
		],
		"cosmo_sigma_profile": { 
			"-0.025": 0.0,
			"-0.024": 0.0,
			"-0.023": 0.0,
			"-0.022": 0.0,
			"-0.021": 0.0,
			"-0.02": 0.0,
			"-0.019": 0.0,
			"-0.018": 0.0,
			"-0.017": 0.0,
			"-0.016": 0.481682359332,
			"-0.015": 1.11291531664,
			"-0.014": 2.31273435081,
			"-0.013": 2.89124073849,
			"-0.012": 3.55003931492,
			"-0.011": 4.19658440757,
			"-0.01": 3.12708325913,
			"-0.009": 4.40936559418,
			"-0.008": 5.73086190626,
			"-0.007": 12.4534911753,
			"-0.006": 15.0579129435,
			"-0.005": 14.8257995125,
			"-0.004": 13.3320090036,
			"-0.003": 12.45639124,
			"-0.002": 14.5055206022,
			"-0.001": 16.9862861609,
			"0.0": 20.5697776276,
			"0.001": 29.1405486776,
			"0.002": 33.2355206667,
			"0.003": 27.6680103264,
			"0.004": 19.4551352234,
			"0.005": 9.54688727091,
			"0.006": 6.49466016082,
			"0.007": 6.12801624745,
			"0.008": 6.28285774529,
			"0.009": 5.41358297329,
			"0.01": 9.79644681449,
			"0.011": 8.2854812945,
			"0.012": 1.1664546694,
			"0.013": 0.0,
			"0.014": 0.0,
			"0.015": 0.0,
			"0.016": 0.0,
			"0.017": 0.0,
			"0.018": 0.0,
			"0.019": 0.0,
			"0.02": 0.0,
			"0.021": 0.0,
			"0.022": 0.0,
			"0.023": 0.0,
			"0.024": 0.0,
			"0.025": 0.0
		}
	}
}
