{
	 "smiles": "COC1=C(OC(C)=O)C2=C(C=C(Br)C=C2)C(OC(C)=O)=C1OC", 
	 "Tm": 375.15, 
	 "num_atms": 38, 
	 "gaussian": { 
		 "optdone": 1, 
		 "sigma_profile": "yes", 
		 "theory": "DFT", 
		 "functional": "B3LYP", 
		 "basiset": "6-31G**", 
		 "properties": { 
			 "R2extent": 11266.0721, 
			 "electric_dipole_moment_norm": 3.61975886628, 
			 "electric_quadrupole_moment_norm": 21.7652341664, 
			 "total_energy": -3641.48140335, 
			 "HOMO_LUMO_gap": 0.16479, 
			 "cosmo_polarized_energy": -15.26, 
			 "cosmo_cavitation_energy": 45.13, 
			 "cosmo_dispersion_energy": -30.4, 
			 "cosmo_repulsion_energy": 2.37, 
			 "cosmo_total_nonelectrostatic_energy": 17.09, 
			 "SMD_solvation_energy": 10.08 
		},
		"coords": [
			{
				"x": 2.0271595435,
				"y": -2.5967502286,
				"z": 0.8796590616,
				"element": "C" 
			},
			{
				"x": 0.752129719,
				"y": -2.8099126124,
				"z": 0.2534870527,
				"element": "O" 
			},
			{
				"x": 0.076440223,
				"y": -1.6594634067,
				"z": -0.0605799129,
				"element": "C" 
			},
			{
				"x": -1.0423824083,
				"y": -1.3091342893,
				"z": 0.6674509896,
				"element": "C" 
			},
			{
				"x": -1.4270996825,
				"y": -2.0879676119,
				"z": 1.7521293036,
				"element": "O" 
			},
			{
				"x": -1.9614646451,
				"y": -3.3372139448,
				"z": 1.4934707805,
				"element": "C" 
			},
			{
				"x": -2.1657004638,
				"y": -4.0763779067,
				"z": 2.7907047338,
				"element": "C" 
			},
			{
				"x": -2.2154360295,
				"y": -3.737975334,
				"z": 0.3893943774,
				"element": "O" 
			},
			{
				"x": -1.7646007401,
				"y": -0.1191364862,
				"z": 0.3950331943,
				"element": "C" 
			},
			{
				"x": -1.302299415,
				"y": 0.7360549627,
				"z": -0.6558172749,
				"element": "C" 
			},
			{
				"x": -1.9962905824,
				"y": 1.9459209834,
				"z": -0.9210038639,
				"element": "C" 
			},
			{
				"x": -3.1002166551,
				"y": 2.2751376103,
				"z": -0.1724159479,
				"element": "C" 
			},
			{
				"x": -4.0345703751,
				"y": 3.9042073379,
				"z": -0.5303674448,
				"element": "Br" 
			},
			{
				"x": -3.5701773178,
				"y": 1.4414951101,
				"z": 0.8678042824,
				"element": "C" 
			},
			{
				"x": -2.9072977128,
				"y": 0.2676403,
				"z": 1.1422914933,
				"element": "C" 
			},
			{
				"x": -0.1669170026,
				"y": 0.3400280456,
				"z": -1.4116367288,
				"element": "C" 
			},
			{
				"x": 0.3050299421,
				"y": 1.218674301,
				"z": -2.3806887273,
				"element": "O" 
			},
			{
				"x": 0.2540322106,
				"y": 0.8489604822,
				"z": -3.704372029,
				"element": "C" 
			},
			{
				"x": 0.9206767354,
				"y": 1.9026603482,
				"z": -4.5505258388,
				"element": "C" 
			},
			{
				"x": -0.2566197423,
				"y": -0.1677545031,
				"z": -4.1006536848,
				"element": "O" 
			},
			{
				"x": 0.5103101318,
				"y": -0.8350348972,
				"z": -1.1432070152,
				"element": "C" 
			},
			{
				"x": 1.625145755,
				"y": -1.1552427655,
				"z": -1.8646905435,
				"element": "O" 
			},
			{
				"x": 1.5277537579,
				"y": -2.3605648856,
				"z": -2.6570149305,
				"element": "C" 
			},
			{
				"x": 2.6959927651,
				"y": -2.0263578254,
				"z": 0.2282601898,
				"element": "H" 
			},
			{
				"x": 2.444792754,
				"y": -3.5889110024,
				"z": 1.060243812,
				"element": "H" 
			},
			{
				"x": 1.9046045106,
				"y": -2.0721396545,
				"z": 1.8345553434,
				"element": "H" 
			},
			{
				"x": -2.7090813338,
				"y": -5.0006232189,
				"z": 2.5977892795,
				"element": "H" 
			},
			{
				"x": -1.1921875883,
				"y": -4.3075521204,
				"z": 3.2342014892,
				"element": "H" 
			},
			{
				"x": -2.7122641885,
				"y": -3.4557495445,
				"z": 3.5057723404,
				"element": "H" 
			},
			{
				"x": -1.6445618341,
				"y": 2.5986847296,
				"z": -1.7090546572,
				"element": "H" 
			},
			{
				"x": -4.4434472691,
				"y": 1.7334632443,
				"z": 1.4392862208,
				"element": "H" 
			},
			{
				"x": -3.2499510904,
				"y": -0.3768294527,
				"z": 1.9437088838,
				"element": "H" 
			},
			{
				"x": 0.500286999,
				"y": 2.8888393954,
				"z": -4.3355751276,
				"element": "H" 
			},
			{
				"x": 0.7888838415,
				"y": 1.6574283438,
				"z": -5.6036592037,
				"element": "H" 
			},
			{
				"x": 1.9872554367,
				"y": 1.9420175704,
				"z": -4.3087586403,
				"element": "H" 
			},
			{
				"x": 2.4871404317,
				"y": -2.4501563361,
				"z": -3.1696155478,
				"element": "H" 
			},
			{
				"x": 1.359325491,
				"y": -3.2328288256,
				"z": -2.0214821239,
				"element": "H" 
			},
			{
				"x": 0.7231058285,
				"y": -2.2578359124,
				"z": -3.3885235855,
				"element": "H" 
			}
		],
		 "valence_orbital": [ 
			{
				"type": "occ",
				"energy": -0.28077,
				"method": "rhf"
			},
			{
				"type": "occ",
				"energy": -0.27562,
				"method": "rhf"
			},
			{
				"type": "occ",
				"energy": -0.27225,
				"method": "rhf"
			},
			{
				"type": "occ",
				"energy": -0.23629,
				"method": "rhf"
			},
			{
				"type": "occ",
				"energy": -0.21533,
				"method": "rhf"
			},
			{
				"type": "unocc",
				"energy": -0.05054,
				"method": "rhf"
			},
			{
				"type": "unocc",
				"energy": -0.02167,
				"method": "rhf"
			},
			{
				"type": "unocc",
				"energy": 0.00049,
				"method": "rhf"
			},
			{
				"type": "unocc",
				"energy": 0.00402,
				"method": "rhf"
			},
			{
				"type": "unocc",
				"energy": 0.00817,
				"method": "rhf"
			}
		],
		"cosmo_sigma_profile": { 
			"-0.025": 0.0,
			"-0.024": 0.0,
			"-0.023": 0.0,
			"-0.022": 0.0,
			"-0.021": 0.0,
			"-0.02": 0.0,
			"-0.019": 0.0,
			"-0.018": 0.0,
			"-0.017": 0.0,
			"-0.016": 0.0,
			"-0.015": 0.0,
			"-0.014": 0.0,
			"-0.013": 0.0,
			"-0.012": 0.0,
			"-0.011": 0.0,
			"-0.01": 0.0,
			"-0.009": 0.0,
			"-0.008": 0.46116667443,
			"-0.007": 8.35608607331,
			"-0.006": 21.3541387981,
			"-0.005": 26.3488883632,
			"-0.004": 32.4848240402,
			"-0.003": 39.2350641906,
			"-0.002": 32.7221205749,
			"-0.001": 25.4271754969,
			"0.0": 23.2566373883,
			"0.001": 29.0041832226,
			"0.002": 31.9010786273,
			"0.003": 19.5466226102,
			"0.004": 19.0724427819,
			"0.005": 12.7176310242,
			"0.006": 6.25787816043,
			"0.007": 5.85910323899,
			"0.008": 4.17576555647,
			"0.009": 6.61063276364,
			"0.01": 8.19506373955,
			"0.011": 8.06317827101,
			"0.012": 2.30344026709,
			"0.013": 0.0260595745628,
			"0.014": 0.0,
			"0.015": 0.0,
			"0.016": 0.0,
			"0.017": 0.0,
			"0.018": 0.0,
			"0.019": 0.0,
			"0.02": 0.0,
			"0.021": 0.0,
			"0.022": 0.0,
			"0.023": 0.0,
			"0.024": 0.0,
			"0.025": 0.0
		}
	}
}
