{
	 "smiles": "C1=CC2=NN=C3C=CC=CC3=C2C=C1", 
	 "Tm": 431.15, 
	 "num_atms": 22, 
	 "gaussian": { 
		 "optdone": 1, 
		 "sigma_profile": "yes", 
		 "theory": "DFT", 
		 "functional": "B3LYP", 
		 "basiset": "6-31G**", 
		 "properties": { 
			 "R2extent": 2568.7551, 
			 "electric_dipole_moment_norm": 3.94722037262, 
			 "electric_quadrupole_moment_norm": 12.0302268112, 
			 "total_energy": -571.580480138, 
			 "HOMO_LUMO_gap": 0.15128, 
			 "cosmo_polarized_energy": -10.64, 
			 "cosmo_cavitation_energy": 25.85, 
			 "cosmo_dispersion_energy": -19.67, 
			 "cosmo_repulsion_energy": 1.48, 
			 "cosmo_total_nonelectrostatic_energy": 7.67, 
			 "SMD_solvation_energy": 2.08 
		},
		"coords": [
			{
				"x": -2.0082162607,
				"y": -2.4584087403,
				"z": -1.279826161,
				"element": "C" 
			},
			{
				"x": -1.4829711287,
				"y": -2.3217774614,
				"z": -0.0115537485,
				"element": "C" 
			},
			{
				"x": -0.7627861254,
				"y": -1.1564905468,
				"z": 0.335666682,
				"element": "C" 
			},
			{
				"x": -0.2695020242,
				"y": -1.1033623655,
				"z": 1.6333840627,
				"element": "N" 
			},
			{
				"x": 0.3961621796,
				"y": -0.082937318,
				"z": 2.0345515229,
				"element": "N" 
			},
			{
				"x": 0.6336105812,
				"y": 0.984290043,
				"z": 1.177315759,
				"element": "C" 
			},
			{
				"x": 1.3760914675,
				"y": 2.0614202401,
				"z": 1.7117573285,
				"element": "C" 
			},
			{
				"x": 1.6580314329,
				"y": 3.1626732809,
				"z": 0.9302166618,
				"element": "C" 
			},
			{
				"x": 1.2026711952,
				"y": 3.2108861637,
				"z": -0.4054776327,
				"element": "C" 
			},
			{
				"x": 0.4750533421,
				"y": 2.1659288623,
				"z": -0.9443785516,
				"element": "C" 
			},
			{
				"x": 0.1734569838,
				"y": 1.0267038706,
				"z": -0.1637696096,
				"element": "C" 
			},
			{
				"x": -0.5747175188,
				"y": -0.1204851458,
				"z": -0.6147903459,
				"element": "C" 
			},
			{
				"x": -1.1224523282,
				"y": -0.2839484044,
				"z": -1.9076159696,
				"element": "C" 
			},
			{
				"x": -1.8243359612,
				"y": -1.4306483469,
				"z": -2.2304317119,
				"element": "C" 
			},
			{
				"x": -2.5623141623,
				"y": -3.3515836242,
				"z": -1.5518285992,
				"element": "H" 
			},
			{
				"x": -1.5992297513,
				"y": -3.0851186921,
				"z": 0.7508869689,
				"element": "H" 
			},
			{
				"x": 1.7052831752,
				"y": 1.980792796,
				"z": 2.7426093338,
				"element": "H" 
			},
			{
				"x": 2.2280445814,
				"y": 3.9929427568,
				"z": 1.3358129092,
				"element": "H" 
			},
			{
				"x": 1.4271926938,
				"y": 4.0802064843,
				"z": -1.0167628847,
				"element": "H" 
			},
			{
				"x": 0.1351208328,
				"y": 2.2242976374,
				"z": -1.9731798496,
				"element": "H" 
			},
			{
				"x": -0.993284414,
				"y": 0.4930916852,
				"z": -2.6538769052,
				"element": "H" 
			},
			{
				"x": -2.2398087905,
				"y": -1.5429731749,
				"z": -3.2277092595,
				"element": "H" 
			}
		],
		 "valence_orbital": [ 
			{
				"type": "occ",
				"energy": -0.29935,
				"method": "rhf"
			},
			{
				"type": "occ",
				"energy": -0.28206,
				"method": "rhf"
			},
			{
				"type": "occ",
				"energy": -0.24357,
				"method": "rhf"
			},
			{
				"type": "occ",
				"energy": -0.24015,
				"method": "rhf"
			},
			{
				"type": "occ",
				"energy": -0.22342,
				"method": "rhf"
			},
			{
				"type": "unocc",
				"energy": -0.07214,
				"method": "rhf"
			},
			{
				"type": "unocc",
				"energy": -0.04642,
				"method": "rhf"
			},
			{
				"type": "unocc",
				"energy": -0.01134,
				"method": "rhf"
			},
			{
				"type": "unocc",
				"energy": 0.02162,
				"method": "rhf"
			},
			{
				"type": "unocc",
				"energy": 0.05159,
				"method": "rhf"
			}
		],
		"cosmo_sigma_profile": { 
			"-0.025": 0.0,
			"-0.024": 0.0,
			"-0.023": 0.0,
			"-0.022": 0.0,
			"-0.021": 0.0,
			"-0.02": 0.0,
			"-0.019": 0.0,
			"-0.018": 0.0,
			"-0.017": 0.0,
			"-0.016": 0.0,
			"-0.015": 0.0,
			"-0.014": 0.0,
			"-0.013": 0.0,
			"-0.012": 0.0,
			"-0.011": 0.0,
			"-0.01": 0.00655892206056,
			"-0.009": 0.970111804833,
			"-0.008": 2.25184877437,
			"-0.007": 8.31944398362,
			"-0.006": 15.6318558221,
			"-0.005": 17.7620530878,
			"-0.004": 13.5777204488,
			"-0.003": 12.2250925753,
			"-0.002": 11.0425736478,
			"-0.001": 12.5916516891,
			"0.0": 15.8022062056,
			"0.001": 22.1393777467,
			"0.002": 25.6995790676,
			"0.003": 23.0119428363,
			"0.004": 6.41369122471,
			"0.005": 2.06006946546,
			"0.006": 2.37485406548,
			"0.007": 1.3055886067,
			"0.008": 1.67748772802,
			"0.009": 1.78744986983,
			"0.01": 1.85993428506,
			"0.011": 1.50081734318,
			"0.012": 2.15233868963,
			"0.013": 2.7028534866,
			"0.014": 2.36825839123,
			"0.015": 1.64427751544,
			"0.016": 0.426722444672,
			"0.017": 0.0,
			"0.018": 0.0,
			"0.019": 0.0,
			"0.02": 0.0,
			"0.021": 0.0,
			"0.022": 0.0,
			"0.023": 0.0,
			"0.024": 0.0,
			"0.025": 0.0
		}
	}
}
