{
	 "smiles": "NC1=CC2=C(NC(=O)C2)C=C1", 
	 "Tm": 464.15, 
	 "num_atms": 19, 
	 "gaussian": { 
		 "optdone": 1, 
		 "sigma_profile": "yes", 
		 "theory": "DFT", 
		 "functional": "B3LYP", 
		 "basiset": "6-31G**", 
		 "properties": { 
			 "R2extent": 2422.0394, 
			 "electric_dipole_moment_norm": 4.27921645748, 
			 "electric_quadrupole_moment_norm": 17.598092246, 
			 "total_energy": -494.420692429, 
			 "HOMO_LUMO_gap": 0.17816, 
			 "cosmo_polarized_energy": -15.47, 
			 "cosmo_cavitation_energy": 22.9, 
			 "cosmo_dispersion_energy": -17.39, 
			 "cosmo_repulsion_energy": 1.41, 
			 "cosmo_total_nonelectrostatic_energy": 6.91, 
			 "SMD_solvation_energy": 4.24 
		},
		"coords": [
			{
				"x": 0.7619301931,
				"y": -1.8771077102,
				"z": 3.4047077342,
				"element": "N" 
			},
			{
				"x": 0.7273627805,
				"y": -1.3634734095,
				"z": 2.0990728777,
				"element": "C" 
			},
			{
				"x": 1.1911418528,
				"y": -2.1419895771,
				"z": 1.0176938578,
				"element": "C" 
			},
			{
				"x": 1.2103483141,
				"y": -1.6018390648,
				"z": -0.2575600745,
				"element": "C" 
			},
			{
				"x": 0.7722014333,
				"y": -0.285132926,
				"z": -0.476389138,
				"element": "C" 
			},
			{
				"x": 0.8895397332,
				"y": 0.018303879,
				"z": -1.8450616376,
				"element": "N" 
			},
			{
				"x": 1.3934480786,
				"y": -1.0373538023,
				"z": -2.5841078882,
				"element": "C" 
			},
			{
				"x": 1.5928003825,
				"y": -1.0381330204,
				"z": -3.783852149,
				"element": "O" 
			},
			{
				"x": 1.6403419541,
				"y": -2.1824885436,
				"z": -1.5818146035,
				"element": "C" 
			},
			{
				"x": 0.3120690279,
				"y": 0.5014651466,
				"z": 0.5703974029,
				"element": "C" 
			},
			{
				"x": 0.2936974897,
				"y": -0.0505402627,
				"z": 1.8563678168,
				"element": "C" 
			},
			{
				"x": 0.696917154,
				"y": -2.8850679449,
				"z": 3.4583086589,
				"element": "H" 
			},
			{
				"x": 0.1099463974,
				"y": -1.4394484194,
				"z": 4.0421902607,
				"element": "H" 
			},
			{
				"x": 1.5352191117,
				"y": -3.158657031,
				"z": 1.193709013,
				"element": "H" 
			},
			{
				"x": 0.646592223,
				"y": 0.8979854639,
				"z": -2.2752530695,
				"element": "H" 
			},
			{
				"x": 1.0616007625,
				"y": -3.0608676676,
				"z": -1.8889288011,
				"element": "H" 
			},
			{
				"x": 2.6976149322,
				"y": -2.4685954004,
				"z": -1.6157973251,
				"element": "H" 
			},
			{
				"x": -0.0302231491,
				"y": 1.5191494226,
				"z": 0.4077437041,
				"element": "H" 
			},
			{
				"x": -0.0598486714,
				"y": 0.5533908678,
				"z": 2.6881733602,
				"element": "H" 
			}
		],
		 "valence_orbital": [ 
			{
				"type": "occ",
				"energy": -0.33143,
				"method": "rhf"
			},
			{
				"type": "occ",
				"energy": -0.26918,
				"method": "rhf"
			},
			{
				"type": "occ",
				"energy": -0.24951,
				"method": "rhf"
			},
			{
				"type": "occ",
				"energy": -0.24837,
				"method": "rhf"
			},
			{
				"type": "occ",
				"energy": -0.1873,
				"method": "rhf"
			},
			{
				"type": "unocc",
				"energy": -0.00914,
				"method": "rhf"
			},
			{
				"type": "unocc",
				"energy": 0.00877,
				"method": "rhf"
			},
			{
				"type": "unocc",
				"energy": 0.04656,
				"method": "rhf"
			},
			{
				"type": "unocc",
				"energy": 0.07947,
				"method": "rhf"
			},
			{
				"type": "unocc",
				"energy": 0.09358,
				"method": "rhf"
			}
		],
		"cosmo_sigma_profile": { 
			"-0.025": 0.0,
			"-0.024": 0.0,
			"-0.023": 0.0,
			"-0.022": 0.0,
			"-0.021": 0.0,
			"-0.02": 0.0,
			"-0.019": 0.0,
			"-0.018": 0.0,
			"-0.017": 0.0,
			"-0.016": 0.0248738183506,
			"-0.015": 1.15981554049,
			"-0.014": 1.02183395608,
			"-0.013": 1.29368561318,
			"-0.012": 2.82153226672,
			"-0.011": 4.15283521024,
			"-0.01": 2.75524542132,
			"-0.009": 4.87110597044,
			"-0.008": 4.84832327933,
			"-0.007": 7.00552622459,
			"-0.006": 10.671546642,
			"-0.005": 10.6926492099,
			"-0.004": 12.7376293461,
			"-0.003": 11.5918177491,
			"-0.002": 8.71238478016,
			"-0.001": 8.52824709101,
			"0.0": 7.45070888267,
			"0.001": 8.08900351627,
			"0.002": 8.48901926782,
			"0.003": 9.3612145477,
			"0.004": 7.33369070627,
			"0.005": 8.63001267857,
			"0.006": 10.1337098269,
			"0.007": 4.76431048999,
			"0.008": 2.15949889153,
			"0.009": 2.25439212473,
			"0.01": 2.36607952126,
			"0.011": 2.36693682374,
			"0.012": 3.12662248406,
			"0.013": 6.11398220016,
			"0.014": 5.10249945283,
			"0.015": 0.970010282402,
			"0.016": 0.219607706141,
			"0.017": 0.0,
			"0.018": 0.0,
			"0.019": 0.0,
			"0.02": 0.0,
			"0.021": 0.0,
			"0.022": 0.0,
			"0.023": 0.0,
			"0.024": 0.0,
			"0.025": 0.0
		}
	}
}
