{
	 "smiles": "CC1=NC2=C(C(CC(C)(C)C)=NO2)C(=C1)C(O)=O", 
	 "Tm": 498.15, 
	 "num_atms": 34, 
	 "gaussian": { 
		 "optdone": 1, 
		 "sigma_profile": "yes", 
		 "theory": "DFT", 
		 "functional": "B3LYP", 
		 "basiset": "6-31G**", 
		 "properties": { 
			 "R2extent": 4924.827, 
			 "electric_dipole_moment_norm": 4.23559011473, 
			 "electric_quadrupole_moment_norm": 25.4294407377, 
			 "total_energy": -840.186158964, 
			 "HOMO_LUMO_gap": 0.17972, 
			 "cosmo_polarized_energy": -17.4, 
			 "cosmo_cavitation_energy": 36.2, 
			 "cosmo_dispersion_energy": -25.48, 
			 "cosmo_repulsion_energy": 1.94, 
			 "cosmo_total_nonelectrostatic_energy": 12.67, 
			 "SMD_solvation_energy": 5.72 
		},
		"coords": [
			{
				"x": 1.8113635513,
				"y": 0.6010503942,
				"z": 4.261282181,
				"element": "C" 
			},
			{
				"x": 1.4409467407,
				"y": 0.3527193993,
				"z": 2.822706201,
				"element": "C" 
			},
			{
				"x": 2.3752206999,
				"y": 0.636863772,
				"z": 1.905927511,
				"element": "N" 
			},
			{
				"x": 2.0031078123,
				"y": 0.4417081688,
				"z": 0.6511606746,
				"element": "C" 
			},
			{
				"x": 0.7623570333,
				"y": -0.0082436936,
				"z": 0.1612382628,
				"element": "C" 
			},
			{
				"x": 0.9527132772,
				"y": -0.0297254447,
				"z": -1.2740045627,
				"element": "C" 
			},
			{
				"x": 0.0065242756,
				"y": -0.4093490036,
				"z": -2.3820860785,
				"element": "C" 
			},
			{
				"x": -0.5589772142,
				"y": 0.776698314,
				"z": -3.2326809838,
				"element": "C" 
			},
			{
				"x": -1.1133687539,
				"y": 1.8924689869,
				"z": -2.3268938654,
				"element": "C" 
			},
			{
				"x": 0.5369553505,
				"y": 1.3477651231,
				"z": -4.1508427045,
				"element": "C" 
			},
			{
				"x": -1.701371213,
				"y": 0.2057386747,
				"z": -4.0952790685,
				"element": "C" 
			},
			{
				"x": 2.1720643241,
				"y": 0.3535216727,
				"z": -1.569905971,
				"element": "N" 
			},
			{
				"x": 2.8491864,
				"y": 0.6607336471,
				"z": -0.3727024781,
				"element": "O" 
			},
			{
				"x": -0.1977023524,
				"y": -0.3427403378,
				"z": 1.1354697168,
				"element": "C" 
			},
			{
				"x": 0.167788333,
				"y": -0.1488791013,
				"z": 2.4713431827,
				"element": "C" 
			},
			{
				"x": -1.5720666309,
				"y": -0.8577789347,
				"z": 0.8067314536,
				"element": "C" 
			},
			{
				"x": -2.061856384,
				"y": -1.7920035579,
				"z": 1.6581674954,
				"element": "O" 
			},
			{
				"x": -2.2382858699,
				"y": -0.4774338985,
				"z": -0.1260399538,
				"element": "O" 
			},
			{
				"x": 2.7883536474,
				"y": 0.1610621152,
				"z": 4.4794716015,
				"element": "H" 
			},
			{
				"x": 1.8952247996,
				"y": 1.6774322817,
				"z": 4.4477650123,
				"element": "H" 
			},
			{
				"x": 1.070790303,
				"y": 0.1899025289,
				"z": 4.9513746474,
				"element": "H" 
			},
			{
				"x": 0.5324957421,
				"y": -1.0946019164,
				"z": -3.0563918843,
				"element": "H" 
			},
			{
				"x": -0.8310617644,
				"y": -0.9538555201,
				"z": -1.9450767641,
				"element": "H" 
			},
			{
				"x": -1.8556626819,
				"y": 1.5019102173,
				"z": -1.6256931063,
				"element": "H" 
			},
			{
				"x": -0.3151412269,
				"y": 2.371148818,
				"z": -1.7490598167,
				"element": "H" 
			},
			{
				"x": -1.5874349039,
				"y": 2.6708650804,
				"z": -2.935062894,
				"element": "H" 
			},
			{
				"x": 0.1408293901,
				"y": 2.1809476667,
				"z": -4.7423795077,
				"element": "H" 
			},
			{
				"x": 1.3936741547,
				"y": 1.7126117785,
				"z": -3.5779083766,
				"element": "H" 
			},
			{
				"x": 0.9041590445,
				"y": 0.5863581715,
				"z": -4.8489065248,
				"element": "H" 
			},
			{
				"x": -1.3502202084,
				"y": -0.6202575845,
				"z": -4.7249207492,
				"element": "H" 
			},
			{
				"x": -2.5206364602,
				"y": -0.1672980379,
				"z": -3.4712266071,
				"element": "H" 
			},
			{
				"x": -2.1070122741,
				"y": 0.9783326147,
				"z": -4.7575839701,
				"element": "H" 
			},
			{
				"x": -0.5479721262,
				"y": -0.3444133246,
				"z": 3.2639099069,
				"element": "H" 
			},
			{
				"x": -1.3690848151,
				"y": -2.0800590703,
				"z": 2.27029802,
				"element": "H" 
			}
		],
		 "valence_orbital": [ 
			{
				"type": "occ",
				"energy": -0.31147,
				"method": "rhf"
			},
			{
				"type": "occ",
				"energy": -0.30023,
				"method": "rhf"
			},
			{
				"type": "occ",
				"energy": -0.28367,
				"method": "rhf"
			},
			{
				"type": "occ",
				"energy": -0.2767,
				"method": "rhf"
			},
			{
				"type": "occ",
				"energy": -0.26901,
				"method": "rhf"
			},
			{
				"type": "unocc",
				"energy": -0.08929,
				"method": "rhf"
			},
			{
				"type": "unocc",
				"energy": -0.03355,
				"method": "rhf"
			},
			{
				"type": "unocc",
				"energy": 0.00669,
				"method": "rhf"
			},
			{
				"type": "unocc",
				"energy": 0.02182,
				"method": "rhf"
			},
			{
				"type": "unocc",
				"energy": 0.05536,
				"method": "rhf"
			}
		],
		"cosmo_sigma_profile": { 
			"-0.025": 0.0,
			"-0.024": 0.0,
			"-0.023": 0.0,
			"-0.022": 0.0,
			"-0.021": 0.0,
			"-0.02": 0.0,
			"-0.019": 0.574836598154,
			"-0.018": 0.806456520165,
			"-0.017": 1.12782210567,
			"-0.016": 1.21828714757,
			"-0.015": 1.06415385409,
			"-0.014": 0.706828200139,
			"-0.013": 1.14178307986,
			"-0.012": 1.6104723345,
			"-0.011": 0.996589425776,
			"-0.01": 1.13587898601,
			"-0.009": 2.59297482381,
			"-0.008": 3.52104353857,
			"-0.007": 4.49533318631,
			"-0.006": 5.72448507485,
			"-0.005": 9.01210701316,
			"-0.004": 11.2037053536,
			"-0.003": 27.0904498437,
			"-0.002": 40.4185604127,
			"-0.001": 32.5472666881,
			"0.0": 23.8295962118,
			"0.001": 27.2829228097,
			"0.002": 19.6946300091,
			"0.003": 8.30877694467,
			"0.004": 6.77892145785,
			"0.005": 6.10142501105,
			"0.006": 7.7385077382,
			"0.007": 9.45501361346,
			"0.008": 9.50455600512,
			"0.009": 6.19087094005,
			"0.01": 4.74734711801,
			"0.011": 4.03711733194,
			"0.012": 3.18014173444,
			"0.013": 1.14173658024,
			"0.014": 0.454872128758,
			"0.015": 0.0,
			"0.016": 0.0,
			"0.017": 0.0,
			"0.018": 0.0,
			"0.019": 0.0,
			"0.02": 0.0,
			"0.021": 0.0,
			"0.022": 0.0,
			"0.023": 0.0,
			"0.024": 0.0,
			"0.025": 0.0
		}
	}
}
