{
	 "smiles": "COC1=CC=C(C=C1)C1=C(C#N)C(=O)N2NC(N)=C(C#N)C2=C1", 
	 "Tm": 570.15, 
	 "num_atms": 34, 
	 "gaussian": { 
		 "optdone": 1, 
		 "sigma_profile": "yes", 
		 "theory": "DFT", 
		 "functional": "B3LYP", 
		 "basiset": "6-31G**", 
		 "properties": { 
			 "R2extent": 9274.3927, 
			 "electric_dipole_moment_norm": 5.43779215767, 
			 "electric_quadrupole_moment_norm": 63.6127850966, 
			 "total_energy": -1040.4758643, 
			 "HOMO_LUMO_gap": 0.15099, 
			 "cosmo_polarized_energy": -35.92, 
			 "cosmo_cavitation_energy": 41.49, 
			 "cosmo_dispersion_energy": -28.7, 
			 "cosmo_repulsion_energy": 2.17, 
			 "cosmo_total_nonelectrostatic_energy": 14.95, 
			 "SMD_solvation_energy": 10.56 
		},
		"coords": [
			{
				"x": 6.0178572793,
				"y": 0.3519351452,
				"z": 2.8647849144,
				"element": "C" 
			},
			{
				"x": 4.9370635817,
				"y": -0.5658195082,
				"z": 2.9575914314,
				"element": "O" 
			},
			{
				"x": 3.8848363882,
				"y": -0.4137629155,
				"z": 2.1091441578,
				"element": "C" 
			},
			{
				"x": 2.8608135334,
				"y": -1.3667413909,
				"z": 2.2297783321,
				"element": "C" 
			},
			{
				"x": 1.7450773943,
				"y": -1.296218871,
				"z": 1.4107909585,
				"element": "C" 
			},
			{
				"x": 1.6145215266,
				"y": -0.2852630316,
				"z": 0.4374844352,
				"element": "C" 
			},
			{
				"x": 2.645982937,
				"y": 0.6577902391,
				"z": 0.3304306156,
				"element": "C" 
			},
			{
				"x": 3.7689098708,
				"y": 0.6050083646,
				"z": 1.1552914711,
				"element": "C" 
			},
			{
				"x": 0.396281651,
				"y": -0.2184570483,
				"z": -0.4070669729,
				"element": "C" 
			},
			{
				"x": 0.4692061135,
				"y": 0.0429508137,
				"z": -1.7998322244,
				"element": "C" 
			},
			{
				"x": 1.7059049117,
				"y": 0.1795035223,
				"z": -2.4965860974,
				"element": "C" 
			},
			{
				"x": 2.7043702048,
				"y": 0.293701557,
				"z": -3.0852727235,
				"element": "N" 
			},
			{
				"x": -0.7094933331,
				"y": 0.1285427864,
				"z": -2.6299671226,
				"element": "C" 
			},
			{
				"x": -0.8365300071,
				"y": 0.3250626824,
				"z": -3.8387082959,
				"element": "O" 
			},
			{
				"x": -1.8805956054,
				"y": -0.0776671966,
				"z": -1.8709752957,
				"element": "N" 
			},
			{
				"x": -3.1153823059,
				"y": -0.011363051,
				"z": -2.4736538574,
				"element": "N" 
			},
			{
				"x": -4.0538342169,
				"y": -0.3464863661,
				"z": -1.5504353692,
				"element": "C" 
			},
			{
				"x": -5.3684853808,
				"y": -0.4729427974,
				"z": -1.8647672598,
				"element": "N" 
			},
			{
				"x": -3.417408461,
				"y": -0.544562281,
				"z": -0.3165366656,
				"element": "C" 
			},
			{
				"x": -4.0856725391,
				"y": -0.8326060875,
				"z": 0.8917120977,
				"element": "C" 
			},
			{
				"x": -4.6788680411,
				"y": -1.0687945426,
				"z": 1.8674360914,
				"element": "N" 
			},
			{
				"x": -2.0065341155,
				"y": -0.3798665541,
				"z": -0.5429883304,
				"element": "C" 
			},
			{
				"x": -0.8489484519,
				"y": -0.4369172287,
				"z": 0.218821134,
				"element": "C" 
			},
			{
				"x": 5.6961656976,
				"y": 1.3780432362,
				"z": 3.0831871591,
				"element": "H" 
			},
			{
				"x": 6.4858430851,
				"y": 0.3244798941,
				"z": 1.8729762068,
				"element": "H" 
			},
			{
				"x": 6.7443828819,
				"y": 0.0364460714,
				"z": 3.614810118,
				"element": "H" 
			},
			{
				"x": 2.9697621615,
				"y": -2.1551501557,
				"z": 2.9669971727,
				"element": "H" 
			},
			{
				"x": 0.9717465941,
				"y": -2.0526174502,
				"z": 1.5043967411,
				"element": "H" 
			},
			{
				"x": 2.5730917822,
				"y": 1.4587371366,
				"z": -0.3963415234,
				"element": "H" 
			},
			{
				"x": 4.5393833794,
				"y": 1.3582133052,
				"z": 1.0445470065,
				"element": "H" 
			},
			{
				"x": -3.104878432,
				"y": -0.0793997636,
				"z": -3.48596927,
				"element": "H" 
			},
			{
				"x": -6.0041148067,
				"y": -0.5624614063,
				"z": -1.0843913762,
				"element": "H" 
			},
			{
				"x": -5.7284511905,
				"y": 0.0378659901,
				"z": -2.657383294,
				"element": "H" 
			},
			{
				"x": -0.913704087,
				"y": -0.6141830981,
				"z": 1.283395635,
				"element": "H" 
			}
		],
		 "valence_orbital": [ 
			{
				"type": "occ",
				"energy": -0.27783,
				"method": "rhf"
			},
			{
				"type": "occ",
				"energy": -0.27203,
				"method": "rhf"
			},
			{
				"type": "occ",
				"energy": -0.25759,
				"method": "rhf"
			},
			{
				"type": "occ",
				"energy": -0.22128,
				"method": "rhf"
			},
			{
				"type": "occ",
				"energy": -0.21294,
				"method": "rhf"
			},
			{
				"type": "unocc",
				"energy": -0.06195,
				"method": "rhf"
			},
			{
				"type": "unocc",
				"energy": -0.03834,
				"method": "rhf"
			},
			{
				"type": "unocc",
				"energy": -0.00925,
				"method": "rhf"
			},
			{
				"type": "unocc",
				"energy": -0.00875,
				"method": "rhf"
			},
			{
				"type": "unocc",
				"energy": -0.00192,
				"method": "rhf"
			}
		],
		"cosmo_sigma_profile": { 
			"-0.025": 0.0,
			"-0.024": 0.0,
			"-0.023": 0.0,
			"-0.022": 0.0,
			"-0.021": 0.0,
			"-0.02": 0.135419558905,
			"-0.019": 1.35049059953,
			"-0.018": 1.47487045268,
			"-0.017": 2.18093810863,
			"-0.016": 2.83377573158,
			"-0.015": 3.22489732039,
			"-0.014": 3.9846678775,
			"-0.013": 2.76544149096,
			"-0.012": 2.81663023472,
			"-0.011": 2.08799120281,
			"-0.01": 3.01533131951,
			"-0.009": 2.0052834303,
			"-0.008": 3.07313938215,
			"-0.007": 7.6432952292,
			"-0.006": 18.651482806,
			"-0.005": 24.0022067217,
			"-0.004": 23.4057896527,
			"-0.003": 22.6051125591,
			"-0.002": 19.6135717167,
			"-0.001": 19.5124166469,
			"0.0": 19.6415444958,
			"0.001": 17.608627984,
			"0.002": 16.3401680968,
			"0.003": 15.6041307187,
			"0.004": 17.5052403669,
			"0.005": 11.3783738358,
			"0.006": 7.43154942519,
			"0.007": 7.81695042452,
			"0.008": 9.26666189324,
			"0.009": 10.3745049781,
			"0.01": 9.33024165952,
			"0.011": 8.05872324989,
			"0.012": 8.9954563133,
			"0.013": 7.342208001,
			"0.014": 1.98842801626,
			"0.015": 0.0,
			"0.016": 0.0,
			"0.017": 0.0,
			"0.018": 0.0,
			"0.019": 0.0,
			"0.02": 0.0,
			"0.021": 0.0,
			"0.022": 0.0,
			"0.023": 0.0,
			"0.024": 0.0,
			"0.025": 0.0
		}
	}
}
