{
	 "smiles": "COC1=C(NC(=O)CCl)C=C(C=C1)S(=O)(=O)N(C)C", 
	 "Tm": 426.15, 
	 "num_atms": 34, 
	 "gaussian": { 
		 "optdone": 1, 
		 "sigma_profile": "yes", 
		 "theory": "DFT", 
		 "functional": "B3LYP", 
		 "basiset": "6-31G**", 
		 "properties": { 
			 "R2extent": 6759.1802, 
			 "electric_dipole_moment_norm": 6.56093210299, 
			 "electric_quadrupole_moment_norm": 36.7485943168, 
			 "total_energy": -1696.91071213, 
			 "HOMO_LUMO_gap": 0.19178, 
			 "cosmo_polarized_energy": -22.16, 
			 "cosmo_cavitation_energy": 40.51, 
			 "cosmo_dispersion_energy": -27.74, 
			 "cosmo_repulsion_energy": 2.11, 
			 "cosmo_total_nonelectrostatic_energy": 14.88, 
			 "SMD_solvation_energy": 6.99 
		},
		"coords": [
			{
				"x": -1.1761633531,
				"y": 4.2897430337,
				"z": 1.2950169344,
				"element": "C" 
			},
			{
				"x": -0.9382568806,
				"y": 2.9435020393,
				"z": 1.6943031458,
				"element": "O" 
			},
			{
				"x": -0.8389983002,
				"y": 1.9844907941,
				"z": 0.7344072308,
				"element": "C" 
			},
			{
				"x": -0.6627785401,
				"y": 0.6629365667,
				"z": 1.2316076893,
				"element": "C" 
			},
			{
				"x": -0.6177293133,
				"y": 0.5155840619,
				"z": 2.6302754475,
				"element": "N" 
			},
			{
				"x": 0.128753343,
				"y": -0.2966482299,
				"z": 3.4616822733,
				"element": "C" 
			},
			{
				"x": 0.057586874,
				"y": -0.168300958,
				"z": 4.672838104,
				"element": "O" 
			},
			{
				"x": 1.072638557,
				"y": -1.3224755312,
				"z": 2.8436127582,
				"element": "C" 
			},
			{
				"x": 0.2732875898,
				"y": -2.944369344,
				"z": 2.7044499868,
				"element": "Cl" 
			},
			{
				"x": -0.6087670694,
				"y": -0.3952352672,
				"z": 0.3294120657,
				"element": "C" 
			},
			{
				"x": -0.6455085518,
				"y": -0.1338198965,
				"z": -1.0458990299,
				"element": "C" 
			},
			{
				"x": -0.7984465687,
				"y": 1.1561602263,
				"z": -1.537666694,
				"element": "C" 
			},
			{
				"x": -0.9085297141,
				"y": 2.2204718163,
				"z": -0.6375690785,
				"element": "C" 
			},
			{
				"x": -0.5922986148,
				"y": -1.5108614938,
				"z": -2.1907025508,
				"element": "S" 
			},
			{
				"x": -0.7224615452,
				"y": -0.9565661834,
				"z": -3.5469262718,
				"element": "O" 
			},
			{
				"x": -1.5079303895,
				"y": -2.5556884832,
				"z": -1.7234238674,
				"element": "O" 
			},
			{
				"x": 0.9835351089,
				"y": -2.1047401159,
				"z": -1.9158996574,
				"element": "N" 
			},
			{
				"x": 2.0330752666,
				"y": -1.2910168057,
				"z": -2.5401664102,
				"element": "C" 
			},
			{
				"x": 1.1343339322,
				"y": -3.5489331318,
				"z": -2.1519167301,
				"element": "C" 
			},
			{
				"x": -0.3519560853,
				"y": 4.6733041409,
				"z": 0.6823620587,
				"element": "H" 
			},
			{
				"x": -2.1172953035,
				"y": 4.3798169245,
				"z": 0.7402302751,
				"element": "H" 
			},
			{
				"x": -1.2401708536,
				"y": 4.8671218741,
				"z": 2.2175480108,
				"element": "H" 
			},
			{
				"x": -1.069403006,
				"y": 1.2592411659,
				"z": 3.15090423,
				"element": "H" 
			},
			{
				"x": 1.4271995356,
				"y": -1.0515182533,
				"z": 1.8494818178,
				"element": "H" 
			},
			{
				"x": 1.9064890115,
				"y": -1.4445112998,
				"z": 3.532282353,
				"element": "H" 
			},
			{
				"x": -0.5648488384,
				"y": -1.4188409179,
				"z": 0.6814094119,
				"element": "H" 
			},
			{
				"x": -0.8470691407,
				"y": 1.3218474628,
				"z": -2.6076976062,
				"element": "H" 
			},
			{
				"x": -1.0401871544,
				"y": 3.2266842809,
				"z": -1.0159374236,
				"element": "H" 
			},
			{
				"x": 1.9011133644,
				"y": -0.2405088811,
				"z": -2.2703045656,
				"element": "H" 
			},
			{
				"x": 2.996930869,
				"y": -1.6243147484,
				"z": -2.1451023337,
				"element": "H" 
			},
			{
				"x": 2.0425201203,
				"y": -1.375971478,
				"z": -3.6348100066,
				"element": "H" 
			},
			{
				"x": 2.0799347641,
				"y": -3.8605222694,
				"z": -1.6989871427,
				"element": "H" 
			},
			{
				"x": 1.1530861425,
				"y": -3.8053488149,
				"z": -3.2208574841,
				"element": "H" 
			},
			{
				"x": 0.3168147439,
				"y": -4.082012284,
				"z": -1.6686569408,
				"element": "H" 
			}
		],
		 "valence_orbital": [ 
			{
				"type": "occ",
				"energy": -0.29813,
				"method": "rhf"
			},
			{
				"type": "occ",
				"energy": -0.27114,
				"method": "rhf"
			},
			{
				"type": "occ",
				"energy": -0.26829,
				"method": "rhf"
			},
			{
				"type": "occ",
				"energy": -0.25041,
				"method": "rhf"
			},
			{
				"type": "occ",
				"energy": -0.23595,
				"method": "rhf"
			},
			{
				"type": "unocc",
				"energy": -0.04417,
				"method": "rhf"
			},
			{
				"type": "unocc",
				"energy": -0.03693,
				"method": "rhf"
			},
			{
				"type": "unocc",
				"energy": -0.01458,
				"method": "rhf"
			},
			{
				"type": "unocc",
				"energy": 0.05215,
				"method": "rhf"
			},
			{
				"type": "unocc",
				"energy": 0.05758,
				"method": "rhf"
			}
		],
		"cosmo_sigma_profile": { 
			"-0.025": 0.0,
			"-0.024": 0.0,
			"-0.023": 0.0,
			"-0.022": 0.0,
			"-0.021": 0.0,
			"-0.02": 0.0,
			"-0.019": 0.0,
			"-0.018": 0.0,
			"-0.017": 0.0,
			"-0.016": 0.0,
			"-0.015": 0.0,
			"-0.014": 0.0,
			"-0.013": 0.0538227861184,
			"-0.012": 0.490366821862,
			"-0.011": 0.612891714681,
			"-0.01": 0.628956955318,
			"-0.009": 2.01356290816,
			"-0.008": 7.29787946673,
			"-0.007": 12.381227366,
			"-0.006": 22.5936486108,
			"-0.005": 22.567531966,
			"-0.004": 29.5538490699,
			"-0.003": 25.7110716113,
			"-0.002": 29.9046207383,
			"-0.001": 19.3647531728,
			"0.0": 21.1055955904,
			"0.001": 21.2793745372,
			"0.002": 19.1368657465,
			"0.003": 13.691448892,
			"0.004": 12.2214071277,
			"0.005": 13.1897539295,
			"0.006": 5.58658918963,
			"0.007": 3.4040634022,
			"0.008": 4.43050618008,
			"0.009": 5.76774733596,
			"0.01": 8.05637105211,
			"0.011": 10.4096168443,
			"0.012": 9.62172548204,
			"0.013": 2.59100055862,
			"0.014": 0.0514842267049,
			"0.015": 0.0,
			"0.016": 0.0,
			"0.017": 0.0,
			"0.018": 0.0,
			"0.019": 0.0,
			"0.02": 0.0,
			"0.021": 0.0,
			"0.022": 0.0,
			"0.023": 0.0,
			"0.024": 0.0,
			"0.025": 0.0
		}
	}
}
