{
	 "smiles": "O=C1NC(=O)C2(CCOC3=C2C=CC=C3)N1", 
	 "Tm": 394.15, 
	 "num_atms": 26, 
	 "gaussian": { 
		 "optdone": 1, 
		 "sigma_profile": "yes", 
		 "theory": "DFT", 
		 "functional": "B3LYP", 
		 "basiset": "6-31G**", 
		 "properties": { 
			 "R2extent": 3178.7414, 
			 "electric_dipole_moment_norm": 1.68645707328, 
			 "electric_quadrupole_moment_norm": 14.0222964478, 
			 "total_energy": -760.408131535, 
			 "HOMO_LUMO_gap": 0.20444, 
			 "cosmo_polarized_energy": -17.11, 
			 "cosmo_cavitation_energy": 29.12, 
			 "cosmo_dispersion_energy": -21.46, 
			 "cosmo_repulsion_energy": 1.66, 
			 "cosmo_total_nonelectrostatic_energy": 9.32, 
			 "SMD_solvation_energy": 6.09 
		},
		"coords": [
			{
				"x": -3.3761262857,
				"y": 1.6713554821,
				"z": 1.8353185197,
				"element": "O" 
			},
			{
				"x": -2.4742826274,
				"y": 1.3924826059,
				"z": 1.0745072642,
				"element": "C" 
			},
			{
				"x": -2.5159735354,
				"y": 1.4902300963,
				"z": -0.3334666216,
				"element": "N" 
			},
			{
				"x": -1.3607577019,
				"y": 1.0643338642,
				"z": -0.9482527891,
				"element": "C" 
			},
			{
				"x": -1.1191949027,
				"y": 1.0798148775,
				"z": -2.1371964733,
				"element": "O" 
			},
			{
				"x": -0.4177461976,
				"y": 0.5817050589,
				"z": 0.1925091029,
				"element": "C" 
			},
			{
				"x": 0.9138716168,
				"y": 1.3616538302,
				"z": 0.1471973748,
				"element": "C" 
			},
			{
				"x": 1.803315606,
				"y": 0.8242906147,
				"z": -0.9655047531,
				"element": "C" 
			},
			{
				"x": 2.1290299239,
				"y": -0.5545892064,
				"z": -0.7518504954,
				"element": "O" 
			},
			{
				"x": 1.1045549208,
				"y": -1.3767127627,
				"z": -0.3860772299,
				"element": "C" 
			},
			{
				"x": -0.1402969554,
				"y": -0.9153669771,
				"z": 0.0809711142,
				"element": "C" 
			},
			{
				"x": -1.1089710288,
				"y": -1.8614689262,
				"z": 0.4469591929,
				"element": "C" 
			},
			{
				"x": -0.8579886432,
				"y": -3.2271703053,
				"z": 0.3658454557,
				"element": "C" 
			},
			{
				"x": 0.3891707658,
				"y": -3.6695622336,
				"z": -0.088815434,
				"element": "C" 
			},
			{
				"x": 1.3634326854,
				"y": -2.7525683982,
				"z": -0.4620894834,
				"element": "C" 
			},
			{
				"x": -1.2140687085,
				"y": 0.9329597717,
				"z": 1.3668193389,
				"element": "N" 
			},
			{
				"x": -3.3167184515,
				"y": 1.8611134672,
				"z": -0.8249254641,
				"element": "H" 
			},
			{
				"x": 0.7231420215,
				"y": 2.4296533436,
				"z": 0.0025319084,
				"element": "H" 
			},
			{
				"x": 1.4187406861,
				"y": 1.2427405468,
				"z": 1.1128162781,
				"element": "H" 
			},
			{
				"x": 1.305774248,
				"y": 0.9320059846,
				"z": -1.9357578302,
				"element": "H" 
			},
			{
				"x": 2.7615113908,
				"y": 1.3480465403,
				"z": -0.9926680753,
				"element": "H" 
			},
			{
				"x": -2.0713171945,
				"y": -1.5147481431,
				"z": 0.8129999117,
				"element": "H" 
			},
			{
				"x": -1.6236483417,
				"y": -3.9394238141,
				"z": 0.6560386224,
				"element": "H" 
			},
			{
				"x": 0.6007237537,
				"y": -4.7327797271,
				"z": -0.1554144745,
				"element": "H" 
			},
			{
				"x": 2.3372772155,
				"y": -3.0697092517,
				"z": -0.8201560953,
				"element": "H" 
			},
			{
				"x": -1.01385426,
				"y": 0.5810136615,
				"z": 2.2909611353,
				"element": "H" 
			}
		],
		 "valence_orbital": [ 
			{
				"type": "occ",
				"energy": -0.29521,
				"method": "rhf"
			},
			{
				"type": "occ",
				"energy": -0.27746,
				"method": "rhf"
			},
			{
				"type": "occ",
				"energy": -0.2705,
				"method": "rhf"
			},
			{
				"type": "occ",
				"energy": -0.2514,
				"method": "rhf"
			},
			{
				"type": "occ",
				"energy": -0.22585,
				"method": "rhf"
			},
			{
				"type": "unocc",
				"energy": -0.02141,
				"method": "rhf"
			},
			{
				"type": "unocc",
				"energy": -0.01309,
				"method": "rhf"
			},
			{
				"type": "unocc",
				"energy": 0.00327,
				"method": "rhf"
			},
			{
				"type": "unocc",
				"energy": 0.05791,
				"method": "rhf"
			},
			{
				"type": "unocc",
				"energy": 0.07596,
				"method": "rhf"
			}
		],
		"cosmo_sigma_profile": { 
			"-0.025": 0.0,
			"-0.024": 0.0,
			"-0.023": 0.0,
			"-0.022": 0.0,
			"-0.021": 0.0,
			"-0.02": 0.0,
			"-0.019": 0.0,
			"-0.018": 0.0,
			"-0.017": 0.678614246034,
			"-0.016": 1.31330249198,
			"-0.015": 2.01990236106,
			"-0.014": 2.01354282142,
			"-0.013": 2.02331699383,
			"-0.012": 1.42180246027,
			"-0.011": 2.25608455238,
			"-0.01": 1.47715019626,
			"-0.009": 2.00654210103,
			"-0.008": 2.48781431946,
			"-0.007": 5.61144313865,
			"-0.006": 15.756219492,
			"-0.005": 18.5655037193,
			"-0.004": 18.6423779627,
			"-0.003": 16.9967087353,
			"-0.002": 15.4078141955,
			"-0.001": 10.548554597,
			"0.0": 9.91140013328,
			"0.001": 9.68687481802,
			"0.002": 11.0031874184,
			"0.003": 13.7769225024,
			"0.004": 13.2921403791,
			"0.005": 12.3452127913,
			"0.006": 5.91714917167,
			"0.007": 3.99872294454,
			"0.008": 3.62870123973,
			"0.009": 4.29612507984,
			"0.01": 4.92469171623,
			"0.011": 5.81656639695,
			"0.012": 8.41534585668,
			"0.013": 5.06558157816,
			"0.014": 0.279974896451,
			"0.015": 0.0,
			"0.016": 0.0,
			"0.017": 0.0,
			"0.018": 0.0,
			"0.019": 0.0,
			"0.02": 0.0,
			"0.021": 0.0,
			"0.022": 0.0,
			"0.023": 0.0,
			"0.024": 0.0,
			"0.025": 0.0
		}
	}
}
