{
	 "smiles": "ClCC1=C2OC(OCC2=CC(Cl)=C1)C1=CC=CC=C1", 
	 "Tm": 385.15, 
	 "num_atms": 31, 
	 "gaussian": { 
		 "optdone": 1, 
		 "sigma_profile": "yes", 
		 "theory": "DFT", 
		 "functional": "B3LYP", 
		 "basiset": "6-31G**", 
		 "properties": { 
			 "R2extent": 7542.1535, 
			 "electric_dipole_moment_norm": 4.17233697704, 
			 "electric_quadrupole_moment_norm": 16.501514882, 
			 "total_energy": -1649.65294835, 
			 "HOMO_LUMO_gap": 0.18927, 
			 "cosmo_polarized_energy": -10.92, 
			 "cosmo_cavitation_energy": 37.91, 
			 "cosmo_dispersion_energy": -26.95, 
			 "cosmo_repulsion_energy": 2.1, 
			 "cosmo_total_nonelectrostatic_energy": 13.06, 
			 "SMD_solvation_energy": 5.46 
		},
		"coords": [
			{
				"x": 4.3502714672,
				"y": -1.9886031268,
				"z": 2.0714606687,
				"element": "Cl" 
			},
			{
				"x": 2.6461831746,
				"y": -2.1780927349,
				"z": 1.4114977328,
				"element": "C" 
			},
			{
				"x": 2.3742937311,
				"y": -1.2574646066,
				"z": 0.2637886942,
				"element": "C" 
			},
			{
				"x": 1.9134463783,
				"y": 0.0530443664,
				"z": 0.4903052971,
				"element": "C" 
			},
			{
				"x": 1.7214783576,
				"y": 0.4335048338,
				"z": 1.7894083878,
				"element": "O" 
			},
			{
				"x": 1.0717037903,
				"y": 1.6953001536,
				"z": 1.9986102962,
				"element": "C" 
			},
			{
				"x": 1.5198510411,
				"y": 2.6675592252,
				"z": 1.0918111708,
				"element": "O" 
			},
			{
				"x": 1.2319904343,
				"y": 2.3359497272,
				"z": -0.2692292932,
				"element": "C" 
			},
			{
				"x": 1.6820748403,
				"y": 0.9292085622,
				"z": -0.5777013175,
				"element": "C" 
			},
			{
				"x": 1.8897351582,
				"y": 0.4863625056,
				"z": -1.8848872745,
				"element": "C" 
			},
			{
				"x": 2.3254981987,
				"y": -0.8155996894,
				"z": -2.1141631771,
				"element": "C" 
			},
			{
				"x": 2.5760851968,
				"y": -1.3696677349,
				"z": -3.7640109765,
				"element": "Cl" 
			},
			{
				"x": 2.5756410496,
				"y": -1.6816290704,
				"z": -1.0522092829,
				"element": "C" 
			},
			{
				"x": -0.4470272237,
				"y": 1.5504722738,
				"z": 2.024532731,
				"element": "C" 
			},
			{
				"x": -1.2311225965,
				"y": 2.7112362377,
				"z": 1.9688387837,
				"element": "C" 
			},
			{
				"x": -2.620748996,
				"y": 2.6283752945,
				"z": 2.0456758398,
				"element": "C" 
			},
			{
				"x": -3.241867463,
				"y": 1.384553918,
				"z": 2.182831675,
				"element": "C" 
			},
			{
				"x": -2.4653987805,
				"y": 0.2271879201,
				"z": 2.2457716475,
				"element": "C" 
			},
			{
				"x": -1.0732480975,
				"y": 0.3091844571,
				"z": 2.1704189692,
				"element": "C" 
			},
			{
				"x": 1.9909538776,
				"y": -1.9786918285,
				"z": 2.2573618163,
				"element": "H" 
			},
			{
				"x": 2.5651995679,
				"y": -3.2229432294,
				"z": 1.113637884,
				"element": "H" 
			},
			{
				"x": 1.4391637257,
				"y": 2.0244018649,
				"z": 2.9747271075,
				"element": "H" 
			},
			{
				"x": 1.782715444,
				"y": 3.0640414718,
				"z": -0.8709662879,
				"element": "H" 
			},
			{
				"x": 0.1595283118,
				"y": 2.4633889396,
				"z": -0.4759678575,
				"element": "H" 
			},
			{
				"x": 1.7183114923,
				"y": 1.1567578389,
				"z": -2.7215074014,
				"element": "H" 
			},
			{
				"x": 2.931111727,
				"y": -2.6882191608,
				"z": -1.2456770884,
				"element": "H" 
			},
			{
				"x": -0.7446406066,
				"y": 3.6761582739,
				"z": 1.8606095315,
				"element": "H" 
			},
			{
				"x": -3.2186479249,
				"y": 3.534013657,
				"z": 1.9984264642,
				"element": "H" 
			},
			{
				"x": -4.3243839242,
				"y": 1.319255135,
				"z": 2.2425091084,
				"element": "H" 
			},
			{
				"x": -2.9417953832,
				"y": -0.7429108261,
				"z": 2.3544138385,
				"element": "H" 
			},
			{
				"x": -0.4713559685,
				"y": -0.5909346487,
				"z": 2.2261823128,
				"element": "H" 
			}
		],
		 "valence_orbital": [ 
			{
				"type": "occ",
				"energy": -0.28806,
				"method": "rhf"
			},
			{
				"type": "occ",
				"energy": -0.26452,
				"method": "rhf"
			},
			{
				"type": "occ",
				"energy": -0.26179,
				"method": "rhf"
			},
			{
				"type": "occ",
				"energy": -0.26004,
				"method": "rhf"
			},
			{
				"type": "occ",
				"energy": -0.2298,
				"method": "rhf"
			},
			{
				"type": "unocc",
				"energy": -0.04053,
				"method": "rhf"
			},
			{
				"type": "unocc",
				"energy": -0.01947,
				"method": "rhf"
			},
			{
				"type": "unocc",
				"energy": -0.01347,
				"method": "rhf"
			},
			{
				"type": "unocc",
				"energy": -0.01039,
				"method": "rhf"
			},
			{
				"type": "unocc",
				"energy": 0.026,
				"method": "rhf"
			}
		],
		"cosmo_sigma_profile": { 
			"-0.025": 0.0,
			"-0.024": 0.0,
			"-0.023": 0.0,
			"-0.022": 0.0,
			"-0.021": 0.0,
			"-0.02": 0.0,
			"-0.019": 0.0,
			"-0.018": 0.0,
			"-0.017": 0.0,
			"-0.016": 0.0,
			"-0.015": 0.0,
			"-0.014": 0.0,
			"-0.013": 0.0,
			"-0.012": 0.0,
			"-0.011": 0.0,
			"-0.01": 0.0,
			"-0.009": 0.783862809761,
			"-0.008": 8.47192529348,
			"-0.007": 11.4825164422,
			"-0.006": 15.9622448493,
			"-0.005": 21.8930485639,
			"-0.004": 23.7438898703,
			"-0.003": 17.6879888437,
			"-0.002": 18.5717301521,
			"-0.001": 16.6301969044,
			"0.0": 19.3027553327,
			"0.001": 24.540682665,
			"0.002": 28.5196282749,
			"0.003": 25.650422128,
			"0.004": 23.3583380461,
			"0.005": 23.3852176361,
			"0.006": 13.8326218452,
			"0.007": 8.93760438236,
			"0.008": 1.48948661318,
			"0.009": 0.827964791165,
			"0.01": 1.3115703138,
			"0.011": 1.10017304901,
			"0.012": 0.0335093174522,
			"0.013": 0.0,
			"0.014": 0.0,
			"0.015": 0.0,
			"0.016": 0.0,
			"0.017": 0.0,
			"0.018": 0.0,
			"0.019": 0.0,
			"0.02": 0.0,
			"0.021": 0.0,
			"0.022": 0.0,
			"0.023": 0.0,
			"0.024": 0.0,
			"0.025": 0.0
		}
	}
}
