{
	 "smiles": "NC1=C(Cl)C=CC(F)=C1", 
	 "Tm": 299.15, 
	 "num_atms": 14, 
	 "gaussian": { 
		 "optdone": 1, 
		 "sigma_profile": "yes", 
		 "theory": "DFT", 
		 "functional": "B3LYP", 
		 "basiset": "6-31G**", 
		 "properties": { 
			 "R2extent": 2064.9759, 
			 "electric_dipole_moment_norm": 1.71877775759, 
			 "electric_quadrupole_moment_norm": 10.4405781487, 
			 "total_energy": -846.433719124, 
			 "HOMO_LUMO_gap": 0.20475, 
			 "cosmo_polarized_energy": -7.14, 
			 "cosmo_cavitation_energy": 20.17, 
			 "cosmo_dispersion_energy": -15.27, 
			 "cosmo_repulsion_energy": 1.23, 
			 "cosmo_total_nonelectrostatic_energy": 6.13, 
			 "SMD_solvation_energy": 3.69 
		},
		"coords": [
			{
				"x": -1.464932975,
				"y": 1.2935176633,
				"z": -1.7647306649,
				"element": "N" 
			},
			{
				"x": -0.121351487,
				"y": 1.0325971791,
				"z": -1.5707023812,
				"element": "C" 
			},
			{
				"x": 0.3283193917,
				"y": 0.1298358291,
				"z": -0.5841475728,
				"element": "C" 
			},
			{
				"x": -0.8628618833,
				"y": -0.7521333682,
				"z": 0.3749352162,
				"element": "Cl" 
			},
			{
				"x": 1.6824616793,
				"y": -0.0887581971,
				"z": -0.352030043,
				"element": "C" 
			},
			{
				"x": 2.6469649718,
				"y": 0.585392104,
				"z": -1.0999644929,
				"element": "C" 
			},
			{
				"x": 2.2028968254,
				"y": 1.4724108701,
				"z": -2.0744498917,
				"element": "C" 
			},
			{
				"x": 3.1136548964,
				"y": 2.1373962573,
				"z": -2.8161368236,
				"element": "F" 
			},
			{
				"x": 0.8595513964,
				"y": 1.7059290673,
				"z": -2.322244704,
				"element": "C" 
			},
			{
				"x": -2.107905152,
				"y": 0.5982151137,
				"z": -1.4136882879,
				"element": "H" 
			},
			{
				"x": -1.7191810557,
				"y": 1.671001949,
				"z": -2.6653388901,
				"element": "H" 
			},
			{
				"x": 1.9790484989,
				"y": -0.7938907335,
				"z": 0.4165894952,
				"element": "H" 
			},
			{
				"x": 3.7071407407,
				"y": 0.4324734206,
				"z": -0.9388149691,
				"element": "H" 
			},
			{
				"x": 0.5746941525,
				"y": 2.4162128451,
				"z": -3.0914759902,
				"element": "H" 
			}
		],
		 "valence_orbital": [ 
			{
				"type": "occ",
				"energy": -0.33799,
				"method": "rhf"
			},
			{
				"type": "occ",
				"energy": -0.31967,
				"method": "rhf"
			},
			{
				"type": "occ",
				"energy": -0.31519,
				"method": "rhf"
			},
			{
				"type": "occ",
				"energy": -0.24596,
				"method": "rhf"
			},
			{
				"type": "occ",
				"energy": -0.2146,
				"method": "rhf"
			},
			{
				"type": "unocc",
				"energy": -0.00985,
				"method": "rhf"
			},
			{
				"type": "unocc",
				"energy": 0.00699,
				"method": "rhf"
			},
			{
				"type": "unocc",
				"energy": 0.02711,
				"method": "rhf"
			},
			{
				"type": "unocc",
				"energy": 0.07859,
				"method": "rhf"
			},
			{
				"type": "unocc",
				"energy": 0.1065,
				"method": "rhf"
			}
		],
		"cosmo_sigma_profile": { 
			"-0.025": 0.0,
			"-0.024": 0.0,
			"-0.023": 0.0,
			"-0.022": 0.0,
			"-0.021": 0.0,
			"-0.02": 0.0,
			"-0.019": 0.0,
			"-0.018": 0.0,
			"-0.017": 0.0,
			"-0.016": 0.0,
			"-0.015": 0.0,
			"-0.014": 0.272629546629,
			"-0.013": 1.45641440332,
			"-0.012": 1.95107842136,
			"-0.011": 2.42690386562,
			"-0.01": 2.85378588541,
			"-0.009": 2.59746890968,
			"-0.008": 3.44382415314,
			"-0.007": 6.4615635172,
			"-0.006": 5.63791077569,
			"-0.005": 5.89344850917,
			"-0.004": 6.52293955858,
			"-0.003": 5.63954234827,
			"-0.002": 5.96473463353,
			"-0.001": 7.14564138597,
			"0.0": 9.84045556953,
			"0.001": 14.9450094205,
			"0.002": 16.3794222908,
			"0.003": 22.5575559886,
			"0.004": 24.2598995752,
			"0.005": 12.149463005,
			"0.006": 1.11054886379,
			"0.007": 0.844212657942,
			"0.008": 0.514318674055,
			"0.009": 0.80580386149,
			"0.01": 0.918678139515,
			"0.011": 0.407235719184,
			"0.012": 0.511444582276,
			"0.013": 0.207315281438,
			"0.014": 0.0,
			"0.015": 0.0,
			"0.016": 0.0,
			"0.017": 0.0,
			"0.018": 0.0,
			"0.019": 0.0,
			"0.02": 0.0,
			"0.021": 0.0,
			"0.022": 0.0,
			"0.023": 0.0,
			"0.024": 0.0,
			"0.025": 0.0
		}
	}
}
