{
	 "smiles": "NC1=C(F)C(F)=C(C(F)=C1F)C1=C(F)C(F)=C(F)C(F)=C1F", 
	 "Tm": 419.15, 
	 "num_atms": 24, 
	 "gaussian": { 
		 "optdone": 1, 
		 "sigma_profile": "yes", 
		 "theory": "DFT", 
		 "functional": "B3LYP", 
		 "basiset": "6-31G**", 
		 "properties": { 
			 "R2extent": 7490.0643, 
			 "electric_dipole_moment_norm": 3.64925152874, 
			 "electric_quadrupole_moment_norm": 12.9314536267, 
			 "total_energy": -1411.69261168, 
			 "HOMO_LUMO_gap": 0.18281, 
			 "cosmo_polarized_energy": -7.46, 
			 "cosmo_cavitation_energy": 34.13, 
			 "cosmo_dispersion_energy": -23.35, 
			 "cosmo_repulsion_energy": 1.6, 
			 "cosmo_total_nonelectrostatic_energy": 12.38, 
			 "SMD_solvation_energy": 9.68 
		},
		"coords": [
			{
				"x": 2.1763045864,
				"y": -1.8509300902,
				"z": 3.562658967,
				"element": "N" 
			},
			{
				"x": 1.3067560262,
				"y": -1.5645363927,
				"z": 2.5339945861,
				"element": "C" 
			},
			{
				"x": -0.0800203699,
				"y": -1.5306320011,
				"z": 2.7320505039,
				"element": "C" 
			},
			{
				"x": -0.5575367142,
				"y": -1.850392424,
				"z": 3.9539791843,
				"element": "F" 
			},
			{
				"x": -0.9509767438,
				"y": -1.1821172827,
				"z": 1.7112061489,
				"element": "C" 
			},
			{
				"x": -2.2645003571,
				"y": -1.151420273,
				"z": 1.97851642,
				"element": "F" 
			},
			{
				"x": -0.4925496563,
				"y": -0.8547419263,
				"z": 0.4280791577,
				"element": "C" 
			},
			{
				"x": 0.8940522839,
				"y": -0.8999028532,
				"z": 0.2301662499,
				"element": "C" 
			},
			{
				"x": 1.4043401278,
				"y": -0.6252529262,
				"z": -0.9789811523,
				"element": "F" 
			},
			{
				"x": 1.768080571,
				"y": -1.2384505565,
				"z": 1.2515822993,
				"element": "C" 
			},
			{
				"x": 3.0976285923,
				"y": -1.287752352,
				"z": 1.0207402488,
				"element": "F" 
			},
			{
				"x": -1.4215954412,
				"y": -0.4855357857,
				"z": -0.6599259376,
				"element": "C" 
			},
			{
				"x": -1.2673071525,
				"y": 0.7056867279,
				"z": -1.3798647121,
				"element": "C" 
			},
			{
				"x": -0.2721686117,
				"y": 1.547936393,
				"z": -1.0752726827,
				"element": "F" 
			},
			{
				"x": -2.1325781724,
				"y": 1.060147888,
				"z": -2.4107572081,
				"element": "C" 
			},
			{
				"x": -1.9586606599,
				"y": 2.2061490825,
				"z": -3.0777690821,
				"element": "F" 
			},
			{
				"x": -3.1952721759,
				"y": 0.2206386137,
				"z": -2.736947143,
				"element": "C" 
			},
			{
				"x": -4.0345451554,
				"y": 0.5547497845,
				"z": -3.7195858951,
				"element": "F" 
			},
			{
				"x": -3.3798470494,
				"y": -0.9685607308,
				"z": -2.0354006578,
				"element": "C" 
			},
			{
				"x": -4.3942240085,
				"y": -1.7802114513,
				"z": -2.3531108583,
				"element": "F" 
			},
			{
				"x": -2.4948771817,
				"y": -1.3109839702,
				"z": -1.0172722506,
				"element": "C" 
			},
			{
				"x": -2.6855332452,
				"y": -2.4743093968,
				"z": -0.3821183615,
				"element": "F" 
			},
			{
				"x": 3.1018412072,
				"y": -2.1442266903,
				"z": 3.2876857008,
				"element": "H" 
			},
			{
				"x": 1.7816893004,
				"y": -2.3484513867,
				"z": 4.3468464745,
				"element": "H" 
			}
		],
		 "valence_orbital": [ 
			{
				"type": "occ",
				"energy": -0.33027,
				"method": "rhf"
			},
			{
				"type": "occ",
				"energy": -0.27379,
				"method": "rhf"
			},
			{
				"type": "occ",
				"energy": -0.25743,
				"method": "rhf"
			},
			{
				"type": "occ",
				"energy": -0.25261,
				"method": "rhf"
			},
			{
				"type": "occ",
				"energy": -0.22895,
				"method": "rhf"
			},
			{
				"type": "unocc",
				"energy": -0.04614,
				"method": "rhf"
			},
			{
				"type": "unocc",
				"energy": -0.01716,
				"method": "rhf"
			},
			{
				"type": "unocc",
				"energy": -0.00931,
				"method": "rhf"
			},
			{
				"type": "unocc",
				"energy": -0.00248,
				"method": "rhf"
			},
			{
				"type": "unocc",
				"energy": 0.00943,
				"method": "rhf"
			}
		],
		"cosmo_sigma_profile": { 
			"-0.025": 0.0,
			"-0.024": 0.0,
			"-0.023": 0.0,
			"-0.022": 0.0,
			"-0.021": 0.0,
			"-0.02": 0.0,
			"-0.019": 0.0,
			"-0.018": 0.0,
			"-0.017": 0.0,
			"-0.016": 0.0,
			"-0.015": 0.0,
			"-0.014": 1.15594393859,
			"-0.013": 1.96482012901,
			"-0.012": 1.72020064667,
			"-0.011": 2.79466835675,
			"-0.01": 2.5899027795,
			"-0.009": 1.82098728876,
			"-0.008": 1.49887701374,
			"-0.007": 2.40836028429,
			"-0.006": 2.20716710772,
			"-0.005": 3.84886599095,
			"-0.004": 12.5738642674,
			"-0.003": 19.3319774266,
			"-0.002": 24.7285364916,
			"-0.001": 27.9342342385,
			"0.0": 20.7157361621,
			"0.001": 22.2138378709,
			"0.002": 53.8111246686,
			"0.003": 60.2288033392,
			"0.004": 10.158916565,
			"0.005": 0.484254554957,
			"0.006": 0.357261498974,
			"0.007": 1.00846853273,
			"0.008": 0.576735681893,
			"0.009": 0.607566808431,
			"0.01": 0.514495701354,
			"0.011": 0.352070073615,
			"0.012": 0.0,
			"0.013": 0.0,
			"0.014": 0.0,
			"0.015": 0.0,
			"0.016": 0.0,
			"0.017": 0.0,
			"0.018": 0.0,
			"0.019": 0.0,
			"0.02": 0.0,
			"0.021": 0.0,
			"0.022": 0.0,
			"0.023": 0.0,
			"0.024": 0.0,
			"0.025": 0.0
		}
	}
}
