{
	 "smiles": "CCCC(=O)CC", 
	 "Tm": 217.95, 
	 "num_atms": 19, 
	 "gaussian": { 
		 "optdone": 1, 
		 "sigma_profile": "yes", 
		 "theory": "DFT", 
		 "functional": "B3LYP", 
		 "basiset": "6-31G**", 
		 "properties": { 
			 "R2extent": 1180.7349, 
			 "electric_dipole_moment_norm": 2.66124979098, 
			 "electric_quadrupole_moment_norm": 4.54454880489, 
			 "total_energy": -311.106958161, 
			 "HOMO_LUMO_gap": 0.22872, 
			 "cosmo_polarized_energy": -6.39, 
			 "cosmo_cavitation_energy": 21.27, 
			 "cosmo_dispersion_energy": -15.33, 
			 "cosmo_repulsion_energy": 1.33, 
			 "cosmo_total_nonelectrostatic_energy": 7.27, 
			 "SMD_solvation_energy": 4.24 
		},
		"coords": [
			{
				"x": -3.2894534206,
				"y": -1.3611969258,
				"z": 0.2443245745,
				"element": "C" 
			},
			{
				"x": -1.9254901637,
				"y": -1.884472503,
				"z": 0.7071359708,
				"element": "C" 
			},
			{
				"x": -0.8691813102,
				"y": -0.7840053008,
				"z": 0.8565056194,
				"element": "C" 
			},
			{
				"x": -0.3851492395,
				"y": -0.199812311,
				"z": -0.4692092001,
				"element": "C" 
			},
			{
				"x": -0.6121631256,
				"y": -0.7523455096,
				"z": -1.5307909407,
				"element": "O" 
			},
			{
				"x": 0.4002715489,
				"y": 1.1074823957,
				"z": -0.4176686437,
				"element": "C" 
			},
			{
				"x": 1.6138949921,
				"y": 1.0901098169,
				"z": 0.5264378316,
				"element": "C" 
			},
			{
				"x": -3.2131365563,
				"y": -0.8898699511,
				"z": -0.7395102414,
				"element": "H" 
			},
			{
				"x": -3.6920131018,
				"y": -0.6224610124,
				"z": 0.9478581724,
				"element": "H" 
			},
			{
				"x": -4.0169368965,
				"y": -2.175739613,
				"z": 0.1681046589,
				"element": "H" 
			},
			{
				"x": -2.0349705824,
				"y": -2.3979698175,
				"z": 1.6699126563,
				"element": "H" 
			},
			{
				"x": -1.5561538434,
				"y": -2.6241845225,
				"z": -0.0106569833,
				"element": "H" 
			},
			{
				"x": 0.0200120813,
				"y": -1.1788621028,
				"z": 1.3697102494,
				"element": "H" 
			},
			{
				"x": -1.2314888849,
				"y": 0.0325800967,
				"z": 1.4970139107,
				"element": "H" 
			},
			{
				"x": 0.706512545,
				"y": 1.3352385584,
				"z": -1.4424612654,
				"element": "H" 
			},
			{
				"x": -0.2941717156,
				"y": 1.8978759674,
				"z": -0.0982850506,
				"element": "H" 
			},
			{
				"x": 2.1472342121,
				"y": 2.0440046816,
				"z": 0.4764765542,
				"element": "H" 
			},
			{
				"x": 2.3198419779,
				"y": 0.3003253358,
				"z": 0.2493548293,
				"element": "H" 
			},
			{
				"x": 1.3201414834,
				"y": 0.9309027172,
				"z": 1.5683472976,
				"element": "H" 
			}
		],
		 "valence_orbital": [ 
			{
				"type": "occ",
				"energy": -0.34583,
				"method": "rhf"
			},
			{
				"type": "occ",
				"energy": -0.33568,
				"method": "rhf"
			},
			{
				"type": "occ",
				"energy": -0.3329,
				"method": "rhf"
			},
			{
				"type": "occ",
				"energy": -0.32948,
				"method": "rhf"
			},
			{
				"type": "occ",
				"energy": -0.23916,
				"method": "rhf"
			},
			{
				"type": "unocc",
				"energy": -0.01044,
				"method": "rhf"
			},
			{
				"type": "unocc",
				"energy": 0.08125,
				"method": "rhf"
			},
			{
				"type": "unocc",
				"energy": 0.11003,
				"method": "rhf"
			},
			{
				"type": "unocc",
				"energy": 0.13034,
				"method": "rhf"
			},
			{
				"type": "unocc",
				"energy": 0.14151,
				"method": "rhf"
			}
		],
		"cosmo_sigma_profile": { 
			"-0.025": 0.0,
			"-0.024": 0.0,
			"-0.023": 0.0,
			"-0.022": 0.0,
			"-0.021": 0.0,
			"-0.02": 0.0,
			"-0.019": 0.0,
			"-0.018": 0.0,
			"-0.017": 0.0,
			"-0.016": 0.0,
			"-0.015": 0.0,
			"-0.014": 0.0,
			"-0.013": 0.0,
			"-0.012": 0.0,
			"-0.011": 0.0,
			"-0.01": 0.0,
			"-0.009": 0.0,
			"-0.008": 0.0,
			"-0.007": 0.0,
			"-0.006": 0.700440916995,
			"-0.005": 7.71730140771,
			"-0.004": 15.0729885292,
			"-0.003": 19.8165297491,
			"-0.002": 24.2489352489,
			"-0.001": 26.9610185489,
			"0.0": 22.4307723263,
			"0.001": 16.4995382822,
			"0.002": 7.02413201153,
			"0.003": 2.5254209137,
			"0.004": 1.64626506491,
			"0.005": 1.72440484619,
			"0.006": 2.01928833723,
			"0.007": 1.82329900127,
			"0.008": 1.47799202324,
			"0.009": 1.51268335627,
			"0.01": 2.25758853789,
			"0.011": 2.36082593934,
			"0.012": 3.59644103872,
			"0.013": 2.84158887107,
			"0.014": 0.417175871285,
			"0.015": 0.0,
			"0.016": 0.0,
			"0.017": 0.0,
			"0.018": 0.0,
			"0.019": 0.0,
			"0.02": 0.0,
			"0.021": 0.0,
			"0.022": 0.0,
			"0.023": 0.0,
			"0.024": 0.0,
			"0.025": 0.0
		}
	}
}
