{
	 "smiles": "CNC(C)C1=C(C)N=C(S1)C1=CC=C(C)C=C1", 
	 "Tm": 351.15, 
	 "num_atms": 35, 
	 "gaussian": { 
		 "optdone": 1, 
		 "sigma_profile": "yes", 
		 "theory": "DFT", 
		 "functional": "B3LYP", 
		 "basiset": "6-31G**", 
		 "properties": { 
			 "R2extent": 6453.9013, 
			 "electric_dipole_moment_norm": 1.72266421568, 
			 "electric_quadrupole_moment_norm": 14.8760926694, 
			 "total_energy": -1052.03841913, 
			 "HOMO_LUMO_gap": 0.16044, 
			 "cosmo_polarized_energy": -8.86, 
			 "cosmo_cavitation_energy": 38.47, 
			 "cosmo_dispersion_energy": -27.71, 
			 "cosmo_repulsion_energy": 2.12, 
			 "cosmo_total_nonelectrostatic_energy": 12.88, 
			 "SMD_solvation_energy": 4.26 
		},
		"coords": [
			{
				"x": -2.5442938825,
				"y": -3.4382117119,
				"z": 1.4299426209,
				"element": "C" 
			},
			{
				"x": -2.3014468733,
				"y": -2.510411787,
				"z": 2.5326030189,
				"element": "N" 
			},
			{
				"x": -2.320837322,
				"y": -1.072968915,
				"z": 2.1958121684,
				"element": "C" 
			},
			{
				"x": -3.672624479,
				"y": -0.5555042024,
				"z": 1.6661117682,
				"element": "C" 
			},
			{
				"x": -1.1497518452,
				"y": -0.7321701494,
				"z": 1.2930706256,
				"element": "C" 
			},
			{
				"x": 0.1921867761,
				"y": -0.8327582324,
				"z": 1.5833027852,
				"element": "C" 
			},
			{
				"x": 0.7705967708,
				"y": -1.3068747484,
				"z": 2.8867397219,
				"element": "C" 
			},
			{
				"x": 1.0490851021,
				"y": -0.441623557,
				"z": 0.5814154723,
				"element": "N" 
			},
			{
				"x": 0.4161278469,
				"y": -0.0386014775,
				"z": -0.4895746233,
				"element": "C" 
			},
			{
				"x": -1.3372989947,
				"y": -0.1155787879,
				"z": -0.3327614767,
				"element": "S" 
			},
			{
				"x": 1.0833941885,
				"y": 0.4310519232,
				"z": -1.7101225034,
				"element": "C" 
			},
			{
				"x": 0.3733192939,
				"y": 0.8657581388,
				"z": -2.8394477335,
				"element": "C" 
			},
			{
				"x": 1.0463042667,
				"y": 1.3066470867,
				"z": -3.9763165263,
				"element": "C" 
			},
			{
				"x": 2.4457526943,
				"y": 1.3282602971,
				"z": -4.0295068989,
				"element": "C" 
			},
			{
				"x": 3.1751232346,
				"y": 1.7796966081,
				"z": -5.2718641142,
				"element": "C" 
			},
			{
				"x": 3.1511692381,
				"y": 0.895558287,
				"z": -2.8958449734,
				"element": "C" 
			},
			{
				"x": 2.4891756814,
				"y": 0.4537416471,
				"z": -1.7567136003,
				"element": "C" 
			},
			{
				"x": -1.7583433547,
				"y": -3.3207601443,
				"z": 0.6783154046,
				"element": "H" 
			},
			{
				"x": -2.4852353811,
				"y": -4.4614281969,
				"z": 1.8130886814,
				"element": "H" 
			},
			{
				"x": -3.5165197254,
				"y": -3.3237322351,
				"z": 0.9220549771,
				"element": "H" 
			},
			{
				"x": -2.9809992857,
				"y": -2.6730030543,
				"z": 3.2719232973,
				"element": "H" 
			},
			{
				"x": -2.1361888184,
				"y": -0.5597568369,
				"z": 3.150027043,
				"element": "H" 
			},
			{
				"x": -4.4689232854,
				"y": -0.8029956186,
				"z": 2.37628222,
				"element": "H" 
			},
			{
				"x": -3.9349273812,
				"y": -1.0002161423,
				"z": 0.7011240919,
				"element": "H" 
			},
			{
				"x": -3.6584532158,
				"y": 0.5319650514,
				"z": 1.5432617306,
				"element": "H" 
			},
			{
				"x": 1.6947893642,
				"y": -1.8602650019,
				"z": 2.6992666819,
				"element": "H" 
			},
			{
				"x": 1.025956302,
				"y": -0.459565174,
				"z": 3.5357317004,
				"element": "H" 
			},
			{
				"x": 0.0655160917,
				"y": -1.955880977,
				"z": 3.4091230648,
				"element": "H" 
			},
			{
				"x": -0.7134354195,
				"y": 0.8657752702,
				"z": -2.8345662725,
				"element": "H" 
			},
			{
				"x": 0.473437801,
				"y": 1.6414718574,
				"z": -4.8374649835,
				"element": "H" 
			},
			{
				"x": 2.5322641954,
				"y": 2.386265979,
				"z": -5.9162584011,
				"element": "H" 
			},
			{
				"x": 3.5175598829,
				"y": 0.9218837412,
				"z": -5.8645573184,
				"element": "H" 
			},
			{
				"x": 4.0614799354,
				"y": 2.372112744,
				"z": -5.0226709757,
				"element": "H" 
			},
			{
				"x": 4.2385716359,
				"y": 0.9074499998,
				"z": -2.907822876,
				"element": "H" 
			},
			{
				"x": 3.0411689619,
				"y": 0.1224683193,
				"z": -0.8841037975,
				"element": "H" 
			}
		],
		 "valence_orbital": [ 
			{
				"type": "occ",
				"energy": -0.25933,
				"method": "rhf"
			},
			{
				"type": "occ",
				"energy": -0.25749,
				"method": "rhf"
			},
			{
				"type": "occ",
				"energy": -0.24778,
				"method": "rhf"
			},
			{
				"type": "occ",
				"energy": -0.22262,
				"method": "rhf"
			},
			{
				"type": "occ",
				"energy": -0.20297,
				"method": "rhf"
			},
			{
				"type": "unocc",
				"energy": -0.04253,
				"method": "rhf"
			},
			{
				"type": "unocc",
				"energy": 0.00122,
				"method": "rhf"
			},
			{
				"type": "unocc",
				"energy": 0.02617,
				"method": "rhf"
			},
			{
				"type": "unocc",
				"energy": 0.03053,
				"method": "rhf"
			},
			{
				"type": "unocc",
				"energy": 0.06621,
				"method": "rhf"
			}
		],
		"cosmo_sigma_profile": { 
			"-0.025": 0.0,
			"-0.024": 0.0,
			"-0.023": 0.0,
			"-0.022": 0.0,
			"-0.021": 0.0,
			"-0.02": 0.0,
			"-0.019": 0.0,
			"-0.018": 0.0,
			"-0.017": 0.0,
			"-0.016": 0.0,
			"-0.015": 0.0,
			"-0.014": 0.0,
			"-0.013": 0.0,
			"-0.012": 0.0,
			"-0.011": 0.0428465203265,
			"-0.01": 1.01570418264,
			"-0.009": 1.33203559945,
			"-0.008": 1.5668768297,
			"-0.007": 1.45227648988,
			"-0.006": 4.68910423602,
			"-0.005": 11.5490242639,
			"-0.004": 25.9578120327,
			"-0.003": 30.2701551863,
			"-0.002": 33.0390545364,
			"-0.001": 36.0867233004,
			"0.0": 39.8737050064,
			"0.001": 27.5677065988,
			"0.002": 19.325768439,
			"0.003": 21.9212312962,
			"0.004": 16.9647911805,
			"0.005": 13.4393715035,
			"0.006": 4.66651357515,
			"0.007": 3.4012639083,
			"0.008": 2.38991479322,
			"0.009": 2.17059489044,
			"0.01": 2.36932733018,
			"0.011": 1.78215965994,
			"0.012": 1.85532099416,
			"0.013": 0.393452764443,
			"0.014": 0.0,
			"0.015": 0.0,
			"0.016": 0.0,
			"0.017": 0.0,
			"0.018": 0.0,
			"0.019": 0.0,
			"0.02": 0.0,
			"0.021": 0.0,
			"0.022": 0.0,
			"0.023": 0.0,
			"0.024": 0.0,
			"0.025": 0.0
		}
	}
}
