{
	 "smiles": "OC(=O)C1=CC=CC(OC2=NC=CC=C2)=C1", 
	 "Tm": 383.15, 
	 "num_atms": 25, 
	 "gaussian": { 
		 "optdone": 1, 
		 "sigma_profile": "yes", 
		 "theory": "DFT", 
		 "functional": "B3LYP", 
		 "basiset": "6-31G**", 
		 "properties": { 
			 "R2extent": 5021.1294, 
			 "electric_dipole_moment_norm": 1.52281931298, 
			 "electric_quadrupole_moment_norm": 15.6773905472, 
			 "total_energy": -743.133958054, 
			 "HOMO_LUMO_gap": 0.18455, 
			 "cosmo_polarized_energy": -12.68, 
			 "cosmo_cavitation_energy": 30.76, 
			 "cosmo_dispersion_energy": -22.29, 
			 "cosmo_repulsion_energy": 1.74, 
			 "cosmo_total_nonelectrostatic_energy": 10.21, 
			 "SMD_solvation_energy": 6.01 
		},
		"coords": [
			{
				"x": -3.8385853821,
				"y": 1.8837130654,
				"z": -1.2474059093,
				"element": "O" 
			},
			{
				"x": -3.375952907,
				"y": 0.9203510965,
				"z": -0.4105154759,
				"element": "C" 
			},
			{
				"x": -4.1155256383,
				"y": 0.3041725059,
				"z": 0.3313142196,
				"element": "O" 
			},
			{
				"x": -1.9057425705,
				"y": 0.7174856969,
				"z": -0.5116250499,
				"element": "C" 
			},
			{
				"x": -1.1120943205,
				"y": 1.4487170426,
				"z": -1.4076785682,
				"element": "C" 
			},
			{
				"x": 0.2581601158,
				"y": 1.2053232746,
				"z": -1.4643213186,
				"element": "C" 
			},
			{
				"x": 0.8396076113,
				"y": 0.2481593332,
				"z": -0.6308596341,
				"element": "C" 
			},
			{
				"x": 0.0404533962,
				"y": -0.4712025752,
				"z": 0.2579942781,
				"element": "C" 
			},
			{
				"x": 0.6644212614,
				"y": -1.4777195266,
				"z": 0.9801729168,
				"element": "O" 
			},
			{
				"x": 0.5101922824,
				"y": -1.5819791939,
				"z": 2.3370602553,
				"element": "C" 
			},
			{
				"x": -0.0467370782,
				"y": -0.5905766088,
				"z": 3.0143643323,
				"element": "N" 
			},
			{
				"x": -0.1462349793,
				"y": -0.733695689,
				"z": 4.3457640658,
				"element": "C" 
			},
			{
				"x": 0.3066820546,
				"y": -1.852673823,
				"z": 5.0358383907,
				"element": "C" 
			},
			{
				"x": 0.8945848462,
				"y": -2.8861765501,
				"z": 4.2959257806,
				"element": "C" 
			},
			{
				"x": 1.0021156111,
				"y": -2.7608463925,
				"z": 2.9182495806,
				"element": "C" 
			},
			{
				"x": -1.3322309915,
				"y": -0.248775178,
				"z": 0.3221825448,
				"element": "C" 
			},
			{
				"x": -4.7967543903,
				"y": 1.9240513584,
				"z": -1.0943958458,
				"element": "H" 
			},
			{
				"x": -1.5702946342,
				"y": 2.1928547012,
				"z": -2.0480737048,
				"element": "H" 
			},
			{
				"x": 0.8811267671,
				"y": 1.7633217223,
				"z": -2.1566223482,
				"element": "H" 
			},
			{
				"x": 1.9051101053,
				"y": 0.0453191227,
				"z": -0.6601068565,
				"element": "H" 
			},
			{
				"x": -0.6108765745,
				"y": 0.0954792429,
				"z": 4.8755008986,
				"element": "H" 
			},
			{
				"x": 0.2024352195,
				"y": -1.9161141467,
				"z": 6.1134871193,
				"element": "H" 
			},
			{
				"x": 1.2613948611,
				"y": -3.7809472211,
				"z": 4.7904619078,
				"element": "H" 
			},
			{
				"x": 1.4440713056,
				"y": -3.5286934057,
				"z": 2.2938482464,
				"element": "H" 
			},
			{
				"x": -1.9640259711,
				"y": -0.802147852,
				"z": 1.0050401742,
				"element": "H" 
			}
		],
		 "valence_orbital": [ 
			{
				"type": "occ",
				"energy": -0.27503,
				"method": "rhf"
			},
			{
				"type": "occ",
				"energy": -0.27309,
				"method": "rhf"
			},
			{
				"type": "occ",
				"energy": -0.26026,
				"method": "rhf"
			},
			{
				"type": "occ",
				"energy": -0.25639,
				"method": "rhf"
			},
			{
				"type": "occ",
				"energy": -0.23027,
				"method": "rhf"
			},
			{
				"type": "unocc",
				"energy": -0.04572,
				"method": "rhf"
			},
			{
				"type": "unocc",
				"energy": -0.02729,
				"method": "rhf"
			},
			{
				"type": "unocc",
				"energy": -0.01026,
				"method": "rhf"
			},
			{
				"type": "unocc",
				"energy": 0.00357,
				"method": "rhf"
			},
			{
				"type": "unocc",
				"energy": 0.0615,
				"method": "rhf"
			}
		],
		"cosmo_sigma_profile": { 
			"-0.025": 0.0,
			"-0.024": 0.0,
			"-0.023": 0.0,
			"-0.022": 0.0,
			"-0.021": 0.0,
			"-0.02": 0.0,
			"-0.019": 0.0670556741363,
			"-0.018": 0.745268153301,
			"-0.017": 0.761495424312,
			"-0.016": 0.826411846587,
			"-0.015": 1.18136844243,
			"-0.014": 0.887399999052,
			"-0.013": 0.522789567672,
			"-0.012": 0.184312030839,
			"-0.011": 0.914899654008,
			"-0.01": 0.455272184494,
			"-0.009": 0.410655687068,
			"-0.008": 1.38270247122,
			"-0.007": 10.3353205944,
			"-0.006": 16.1527338529,
			"-0.005": 17.5353276557,
			"-0.004": 12.7825813431,
			"-0.003": 12.8763913633,
			"-0.002": 15.446726282,
			"-0.001": 13.2367104404,
			"0.0": 17.2283521499,
			"0.001": 24.0134167506,
			"0.002": 29.3049433566,
			"0.003": 24.1441526675,
			"0.004": 8.19123800109,
			"0.005": 7.17828608518,
			"0.006": 5.32357400186,
			"0.007": 5.2615438477,
			"0.008": 4.15841908733,
			"0.009": 2.57108232082,
			"0.01": 3.37512661905,
			"0.011": 4.50292130082,
			"0.012": 4.53995904029,
			"0.013": 0.831627038698,
			"0.014": 0.157957325565,
			"0.015": 0.0,
			"0.016": 0.0,
			"0.017": 0.0,
			"0.018": 0.0,
			"0.019": 0.0,
			"0.02": 0.0,
			"0.021": 0.0,
			"0.022": 0.0,
			"0.023": 0.0,
			"0.024": 0.0,
			"0.025": 0.0
		}
	}
}
