{
	 "smiles": "[O-][N+](=O)C1=C(C=O)C=C2OCCOC2=C1", 
	 "Tm": 443.15, 
	 "num_atms": 22, 
	 "gaussian": { 
		 "optdone": 1, 
		 "sigma_profile": "yes", 
		 "theory": "DFT", 
		 "functional": "B3LYP", 
		 "basiset": "6-31G**", 
		 "properties": { 
			 "R2extent": 4449.8873, 
			 "electric_dipole_moment_norm": 8.92918311717, 
			 "electric_quadrupole_moment_norm": 23.630262674, 
			 "total_energy": -777.901904689, 
			 "HOMO_LUMO_gap": 0.15941, 
			 "cosmo_polarized_energy": -17.54, 
			 "cosmo_cavitation_energy": 27.32, 
			 "cosmo_dispersion_energy": -20.19, 
			 "cosmo_repulsion_energy": 1.56, 
			 "cosmo_total_nonelectrostatic_energy": 8.69, 
			 "SMD_solvation_energy": 8.39 
		},
		"coords": [
			{
				"x": 3.0007864407,
				"y": -2.1114043757,
				"z": 2.8428921729,
				"element": "O" 
			},
			{
				"x": 3.3768958241,
				"y": -1.6575139528,
				"z": 1.7692091726,
				"element": "N" 
			},
			{
				"x": 4.4226809711,
				"y": -1.9500943503,
				"z": 1.1910240525,
				"element": "O" 
			},
			{
				"x": 2.4616403194,
				"y": -0.7405141473,
				"z": 1.064902337,
				"element": "C" 
			},
			{
				"x": 1.7852611484,
				"y": 0.2986768395,
				"z": 1.7308756661,
				"element": "C" 
			},
			{
				"x": 2.0955679537,
				"y": 0.7878768515,
				"z": 3.1016310961,
				"element": "C" 
			},
			{
				"x": 3.1117659319,
				"y": 0.5594094904,
				"z": 3.7197263759,
				"element": "O" 
			},
			{
				"x": 0.8305063044,
				"y": 1.018150895,
				"z": 1.0051242379,
				"element": "C" 
			},
			{
				"x": 0.568167336,
				"y": 0.7422747514,
				"z": -0.3352284757,
				"element": "C" 
			},
			{
				"x": -0.3876867145,
				"y": 1.4736312875,
				"z": -0.9805115916,
				"element": "O" 
			},
			{
				"x": -0.8171158076,
				"y": 0.9034734007,
				"z": -2.2219153735,
				"element": "C" 
			},
			{
				"x": 0.3847241918,
				"y": 0.4456340696,
				"z": -3.0304362546,
				"element": "C" 
			},
			{
				"x": 1.1138246318,
				"y": -0.554364355,
				"z": -2.3080123267,
				"element": "O" 
			},
			{
				"x": 1.3011647526,
				"y": -0.2652976901,
				"z": -0.9899490105,
				"element": "C" 
			},
			{
				"x": 2.2447666066,
				"y": -1.0089685939,
				"z": -0.2778698747,
				"element": "C" 
			},
			{
				"x": 1.3080723173,
				"y": 1.4574875569,
				"z": 3.5132403073,
				"element": "H" 
			},
			{
				"x": 0.2836208173,
				"y": 1.8281047361,
				"z": 1.4795038674,
				"element": "H" 
			},
			{
				"x": -1.4867727513,
				"y": 0.0561430318,
				"z": -2.0258899781,
				"element": "H" 
			},
			{
				"x": -1.3726264452,
				"y": 1.6855983465,
				"z": -2.7438448939,
				"element": "H" 
			},
			{
				"x": 1.0443883191,
				"y": 1.2960368003,
				"z": -3.2445964294,
				"element": "H" 
			},
			{
				"x": 0.0797579989,
				"y": -0.0175270211,
				"z": -3.9712079051,
				"element": "H" 
			},
			{
				"x": 2.7966098534,
				"y": -1.7948135708,
				"z": -0.779267172,
				"element": "H" 
			}
		],
		 "valence_orbital": [ 
			{
				"type": "occ",
				"energy": -0.30097,
				"method": "rhf"
			},
			{
				"type": "occ",
				"energy": -0.29373,
				"method": "rhf"
			},
			{
				"type": "occ",
				"energy": -0.27016,
				"method": "rhf"
			},
			{
				"type": "occ",
				"energy": -0.26217,
				"method": "rhf"
			},
			{
				"type": "occ",
				"energy": -0.24481,
				"method": "rhf"
			},
			{
				"type": "unocc",
				"energy": -0.0854,
				"method": "rhf"
			},
			{
				"type": "unocc",
				"energy": -0.05629,
				"method": "rhf"
			},
			{
				"type": "unocc",
				"energy": -0.02203,
				"method": "rhf"
			},
			{
				"type": "unocc",
				"energy": 0.02672,
				"method": "rhf"
			},
			{
				"type": "unocc",
				"energy": 0.05736,
				"method": "rhf"
			}
		],
		"cosmo_sigma_profile": { 
			"-0.025": 0.0,
			"-0.024": 0.0,
			"-0.023": 0.0,
			"-0.022": 0.0,
			"-0.021": 0.0,
			"-0.02": 0.0,
			"-0.019": 0.0,
			"-0.018": 0.0,
			"-0.017": 0.0,
			"-0.016": 0.0,
			"-0.015": 0.0,
			"-0.014": 0.0,
			"-0.013": 0.0,
			"-0.012": 0.0,
			"-0.011": 0.0,
			"-0.01": 0.31850645776,
			"-0.009": 3.60376478449,
			"-0.008": 10.6091673886,
			"-0.007": 20.1188932695,
			"-0.006": 16.8179878395,
			"-0.005": 12.6024789192,
			"-0.004": 11.1339253821,
			"-0.003": 9.9382035815,
			"-0.002": 11.1062446572,
			"-0.001": 16.9397429575,
			"0.0": 16.6518019682,
			"0.001": 8.58316645229,
			"0.002": 7.75908981131,
			"0.003": 6.28156504126,
			"0.004": 7.08331979482,
			"0.005": 5.62405943716,
			"0.006": 7.86256587996,
			"0.007": 12.8322334268,
			"0.008": 13.7381647376,
			"0.009": 8.77287380951,
			"0.01": 5.8194301363,
			"0.011": 3.1395292321,
			"0.012": 1.36785740986,
			"0.013": 0.0975915035808,
			"0.014": 0.0,
			"0.015": 0.0,
			"0.016": 0.0,
			"0.017": 0.0,
			"0.018": 0.0,
			"0.019": 0.0,
			"0.02": 0.0,
			"0.021": 0.0,
			"0.022": 0.0,
			"0.023": 0.0,
			"0.024": 0.0,
			"0.025": 0.0
		}
	}
}
