{
	 "smiles": "OC(=O)C1=CC(NC(=O)OCC=C)=CC(O)=C1", 
	 "Tm": 469.15, 
	 "num_atms": 28, 
	 "gaussian": { 
		 "optdone": 1, 
		 "sigma_profile": "yes", 
		 "theory": "DFT", 
		 "functional": "B3LYP", 
		 "basiset": "6-31G**", 
		 "properties": { 
			 "R2extent": 6520.2429, 
			 "electric_dipole_moment_norm": 1.66606032604, 
			 "electric_quadrupole_moment_norm": 27.667941435, 
			 "total_energy": -856.678380531, 
			 "HOMO_LUMO_gap": 0.17438, 
			 "cosmo_polarized_energy": -21.43, 
			 "cosmo_cavitation_energy": 33.98, 
			 "cosmo_dispersion_energy": -23.65, 
			 "cosmo_repulsion_energy": 1.83, 
			 "cosmo_total_nonelectrostatic_energy": 12.16, 
			 "SMD_solvation_energy": 9.23 
		},
		"coords": [
			{
				"x": 1.5200192508,
				"y": -3.3071440641,
				"z": 0.2914020248,
				"element": "O" 
			},
			{
				"x": 2.520058218,
				"y": -3.352358924,
				"z": -0.6255422673,
				"element": "C" 
			},
			{
				"x": 3.0466107102,
				"y": -4.3971178529,
				"z": -0.9511593578,
				"element": "O" 
			},
			{
				"x": 2.8748593977,
				"y": -2.0109837754,
				"z": -1.1700778127,
				"element": "C" 
			},
			{
				"x": 2.2495125398,
				"y": -0.850518369,
				"z": -0.6957443357,
				"element": "C" 
			},
			{
				"x": 2.6017014338,
				"y": 0.3841153017,
				"z": -1.250728428,
				"element": "C" 
			},
			{
				"x": 2.0502126462,
				"y": 1.61220137,
				"z": -0.8339981093,
				"element": "N" 
			},
			{
				"x": 0.8576474103,
				"y": 1.943276346,
				"z": -0.2235701963,
				"element": "C" 
			},
			{
				"x": 0.5571259163,
				"y": 3.0978033108,
				"z": 0.0171027259,
				"element": "O" 
			},
			{
				"x": 0.0860118474,
				"y": 0.8732242398,
				"z": 0.0589076519,
				"element": "O" 
			},
			{
				"x": -1.1697789999,
				"y": 1.1888379914,
				"z": 0.6893057725,
				"element": "C" 
			},
			{
				"x": -2.0095148376,
				"y": -0.0444759293,
				"z": 0.8137934838,
				"element": "C" 
			},
			{
				"x": -1.7054032762,
				"y": -1.2664218653,
				"z": 0.3807171677,
				"element": "C" 
			},
			{
				"x": 3.587798909,
				"y": 0.4390496761,
				"z": -2.2496800728,
				"element": "C" 
			},
			{
				"x": 4.2149953621,
				"y": -0.7265333941,
				"z": -2.6956458932,
				"element": "C" 
			},
			{
				"x": 5.1775240824,
				"y": -0.7142142444,
				"z": -3.6613660525,
				"element": "O" 
			},
			{
				"x": 3.8562072335,
				"y": -1.9651714682,
				"z": -2.1610163056,
				"element": "C" 
			},
			{
				"x": 1.3792628739,
				"y": -4.2260649958,
				"z": 0.5724792759,
				"element": "H" 
			},
			{
				"x": 1.5154035672,
				"y": -0.9107288746,
				"z": 0.0914935857,
				"element": "H" 
			},
			{
				"x": 2.5568394417,
				"y": 2.4457033198,
				"z": -1.09619215,
				"element": "H" 
			},
			{
				"x": -0.9734015969,
				"y": 1.6314001423,
				"z": 1.6742584981,
				"element": "H" 
			},
			{
				"x": -1.6826400657,
				"y": 1.9587767341,
				"z": 0.1007942209,
				"element": "H" 
			},
			{
				"x": -2.9601616349,
				"y": 0.1336060573,
				"z": 1.315897552,
				"element": "H" 
			},
			{
				"x": -0.7711337741,
				"y": -1.4874535449,
				"z": -0.1226918731,
				"element": "H" 
			},
			{
				"x": -2.3961874093,
				"y": -2.0915321259,
				"z": 0.5239769614,
				"element": "H" 
			},
			{
				"x": 3.8570953967,
				"y": 1.3990423919,
				"z": -2.6868118562,
				"element": "H" 
			},
			{
				"x": 5.3339379513,
				"y": 0.1934425974,
				"z": -3.9522727253,
				"element": "H" 
			},
			{
				"x": 4.3295974064,
				"y": -2.8752600506,
				"z": -2.508031485,
				"element": "H" 
			}
		],
		 "valence_orbital": [ 
			{
				"type": "occ",
				"energy": -0.28605,
				"method": "rhf"
			},
			{
				"type": "occ",
				"energy": -0.27853,
				"method": "rhf"
			},
			{
				"type": "occ",
				"energy": -0.26289,
				"method": "rhf"
			},
			{
				"type": "occ",
				"energy": -0.24926,
				"method": "rhf"
			},
			{
				"type": "occ",
				"energy": -0.22538,
				"method": "rhf"
			},
			{
				"type": "unocc",
				"energy": -0.051,
				"method": "rhf"
			},
			{
				"type": "unocc",
				"energy": -0.00804,
				"method": "rhf"
			},
			{
				"type": "unocc",
				"energy": 0.01434,
				"method": "rhf"
			},
			{
				"type": "unocc",
				"energy": 0.04622,
				"method": "rhf"
			},
			{
				"type": "unocc",
				"energy": 0.05815,
				"method": "rhf"
			}
		],
		"cosmo_sigma_profile": { 
			"-0.025": 0.0,
			"-0.024": 0.0,
			"-0.023": 0.0,
			"-0.022": 0.0,
			"-0.021": 0.0,
			"-0.02": 0.0,
			"-0.019": 0.205364857831,
			"-0.018": 1.86181041981,
			"-0.017": 1.99862257984,
			"-0.016": 1.89342409195,
			"-0.015": 3.0921154272,
			"-0.014": 3.04969021448,
			"-0.013": 2.99461901034,
			"-0.012": 2.4516808393,
			"-0.011": 2.57916580469,
			"-0.01": 3.51836626751,
			"-0.009": 3.71950176192,
			"-0.008": 2.71995734,
			"-0.007": 4.49894536212,
			"-0.006": 12.2847457131,
			"-0.005": 12.722650397,
			"-0.004": 10.2862735234,
			"-0.003": 11.6323417369,
			"-0.002": 16.0968185385,
			"-0.001": 16.2601788639,
			"0.0": 17.5916439885,
			"0.001": 21.1220386645,
			"0.002": 25.9393032577,
			"0.003": 24.4792733813,
			"0.004": 13.4482501484,
			"0.005": 9.74410307454,
			"0.006": 8.00434269431,
			"0.007": 4.26172874805,
			"0.008": 3.80821374035,
			"0.009": 4.47129184554,
			"0.01": 5.04504104013,
			"0.011": 7.78310998122,
			"0.012": 8.22614908971,
			"0.013": 3.14228990694,
			"0.014": 0.00370170711789,
			"0.015": 0.0,
			"0.016": 0.0,
			"0.017": 0.0,
			"0.018": 0.0,
			"0.019": 0.0,
			"0.02": 0.0,
			"0.021": 0.0,
			"0.022": 0.0,
			"0.023": 0.0,
			"0.024": 0.0,
			"0.025": 0.0
		}
	}
}
