{
	 "smiles": "NCC1=CC=C(C=C1)N1CCOCC1", 
	 "Tm": 323.15, 
	 "num_atms": 30, 
	 "gaussian": { 
		 "optdone": 1, 
		 "sigma_profile": "yes", 
		 "theory": "DFT", 
		 "functional": "B3LYP", 
		 "basiset": "6-31G**", 
		 "properties": { 
			 "R2extent": 4369.9057, 
			 "electric_dipole_moment_norm": 1.12693753598, 
			 "electric_quadrupole_moment_norm": 7.05011065729, 
			 "total_energy": -613.508969713, 
			 "HOMO_LUMO_gap": 0.1915, 
			 "cosmo_polarized_energy": -10.67, 
			 "cosmo_cavitation_energy": 31.05, 
			 "cosmo_dispersion_energy": -23.35, 
			 "cosmo_repulsion_energy": 1.86, 
			 "cosmo_total_nonelectrostatic_energy": 9.56, 
			 "SMD_solvation_energy": 3.2 
		},
		"coords": [
			{
				"x": 1.1362918178,
				"y": 3.7497313039,
				"z": -3.8082334066,
				"element": "N" 
			},
			{
				"x": 1.0725697585,
				"y": 2.3415535589,
				"z": -4.2206688148,
				"element": "C" 
			},
			{
				"x": 0.841496629,
				"y": 1.4249592278,
				"z": -3.0368043205,
				"element": "C" 
			},
			{
				"x": -0.0543625285,
				"y": 1.7680920984,
				"z": -2.0157883312,
				"element": "C" 
			},
			{
				"x": -0.291925194,
				"y": 0.920521803,
				"z": -0.9389881165,
				"element": "C" 
			},
			{
				"x": 0.3567097604,
				"y": -0.3314452935,
				"z": -0.8406185671,
				"element": "C" 
			},
			{
				"x": 1.2599765697,
				"y": -0.6761770909,
				"z": -1.8683891306,
				"element": "C" 
			},
			{
				"x": 1.4944104526,
				"y": 0.193536926,
				"z": -2.9315803959,
				"element": "C" 
			},
			{
				"x": 0.1197946222,
				"y": -1.184119979,
				"z": 0.2310630947,
				"element": "N" 
			},
			{
				"x": 0.975656952,
				"y": -2.3315546821,
				"z": 0.5003711771,
				"element": "C" 
			},
			{
				"x": 0.9030413966,
				"y": -2.6949780854,
				"z": 1.9822445424,
				"element": "C" 
			},
			{
				"x": -0.4137880922,
				"y": -3.0068372769,
				"z": 2.4249535779,
				"element": "O" 
			},
			{
				"x": -1.4479410828,
				"y": -2.3525426958,
				"z": 1.6970773368,
				"element": "C" 
			},
			{
				"x": -1.023313375,
				"y": -1.0043714794,
				"z": 1.1173685692,
				"element": "C" 
			},
			{
				"x": 1.2538094057,
				"y": 4.3458165199,
				"z": -4.6237919104,
				"element": "H" 
			},
			{
				"x": 1.9512493809,
				"y": 3.8950192227,
				"z": -3.2165699848,
				"element": "H" 
			},
			{
				"x": 0.2336340381,
				"y": 2.2553745874,
				"z": -4.9263471091,
				"element": "H" 
			},
			{
				"x": 1.9653345501,
				"y": 1.9891230541,
				"z": -4.7671664998,
				"element": "H" 
			},
			{
				"x": -0.552229284,
				"y": 2.7319963232,
				"z": -2.0612456861,
				"element": "H" 
			},
			{
				"x": -0.9666806824,
				"y": 1.2469944403,
				"z": -0.1553556423,
				"element": "H" 
			},
			{
				"x": 1.770328758,
				"y": -1.6325160702,
				"z": -1.8515598425,
				"element": "H" 
			},
			{
				"x": 2.1998519961,
				"y": -0.1055595834,
				"z": -3.7043888123,
				"element": "H" 
			},
			{
				"x": 0.707934503,
				"y": -3.2074318642,
				"z": -0.1142082124,
				"element": "H" 
			},
			{
				"x": 2.0155428312,
				"y": -2.0777451247,
				"z": 0.2638389099,
				"element": "H" 
			},
			{
				"x": 1.5225023668,
				"y": -3.5766746692,
				"z": 2.1783584804,
				"element": "H" 
			},
			{
				"x": 1.3106924571,
				"y": -1.8598736611,
				"z": 2.5730203461,
				"element": "H" 
			},
			{
				"x": -1.7970588955,
				"y": -2.9982926586,
				"z": 0.8762579882,
				"element": "H" 
			},
			{
				"x": -2.2844622949,
				"y": -2.2112404196,
				"z": 2.3897574323,
				"element": "H" 
			},
			{
				"x": -1.8684198756,
				"y": -0.5983514886,
				"z": 0.5499546275,
				"element": "H" 
			},
			{
				"x": -0.8102469408,
				"y": -0.2955069431,
				"z": 1.9345387006,
				"element": "H" 
			}
		],
		 "valence_orbital": [ 
			{
				"type": "occ",
				"energy": -0.27298,
				"method": "rhf"
			},
			{
				"type": "occ",
				"energy": -0.2498,
				"method": "rhf"
			},
			{
				"type": "occ",
				"energy": -0.23761,
				"method": "rhf"
			},
			{
				"type": "occ",
				"energy": -0.22917,
				"method": "rhf"
			},
			{
				"type": "occ",
				"energy": -0.18126,
				"method": "rhf"
			},
			{
				"type": "unocc",
				"energy": 0.01024,
				"method": "rhf"
			},
			{
				"type": "unocc",
				"energy": 0.02316,
				"method": "rhf"
			},
			{
				"type": "unocc",
				"energy": 0.08146,
				"method": "rhf"
			},
			{
				"type": "unocc",
				"energy": 0.09493,
				"method": "rhf"
			},
			{
				"type": "unocc",
				"energy": 0.10995,
				"method": "rhf"
			}
		],
		"cosmo_sigma_profile": { 
			"-0.025": 0.0,
			"-0.024": 0.0,
			"-0.023": 0.0,
			"-0.022": 0.0,
			"-0.021": 0.0,
			"-0.02": 0.0,
			"-0.019": 0.0,
			"-0.018": 0.0,
			"-0.017": 0.0,
			"-0.016": 0.0,
			"-0.015": 0.0,
			"-0.014": 0.0,
			"-0.013": 0.0,
			"-0.012": 0.0,
			"-0.011": 0.0,
			"-0.01": 0.575777443432,
			"-0.009": 2.59772469759,
			"-0.008": 2.41226058706,
			"-0.007": 2.49383408676,
			"-0.006": 4.40340487352,
			"-0.005": 18.9824531004,
			"-0.004": 29.1378219907,
			"-0.003": 36.8993701947,
			"-0.002": 25.5545875357,
			"-0.001": 19.1015263174,
			"0.0": 13.4456549206,
			"0.001": 9.74392648399,
			"0.002": 9.49416786347,
			"0.003": 8.74953292236,
			"0.004": 9.86259987201,
			"0.005": 11.1500296816,
			"0.006": 8.81099279552,
			"0.007": 9.44577588867,
			"0.008": 5.70259045855,
			"0.009": 1.71367440585,
			"0.01": 2.71161824274,
			"0.011": 1.92230700892,
			"0.012": 2.37007422378,
			"0.013": 2.40456557572,
			"0.014": 1.11098982012,
			"0.015": 0.725038391055,
			"0.016": 0.238790199676,
			"0.017": 0.630405617508,
			"0.018": 0.218556524705,
			"0.019": 0.0,
			"0.02": 0.0,
			"0.021": 0.0,
			"0.022": 0.0,
			"0.023": 0.0,
			"0.024": 0.0,
			"0.025": 0.0
		}
	}
}
