{
	 "smiles": "OC1=CC=C(NC(=O)C2CC2)C=C1", 
	 "Tm": 486.15, 
	 "num_atms": 24, 
	 "gaussian": { 
		 "optdone": 1, 
		 "sigma_profile": "yes", 
		 "theory": "DFT", 
		 "functional": "B3LYP", 
		 "basiset": "6-31G**", 
		 "properties": { 
			 "R2extent": 4343.5229, 
			 "electric_dipole_moment_norm": 1.97328859015, 
			 "electric_quadrupole_moment_norm": 14.9539790885, 
			 "total_energy": -592.879833489, 
			 "HOMO_LUMO_gap": 0.19776, 
			 "cosmo_polarized_energy": -16.18, 
			 "cosmo_cavitation_energy": 27.99, 
			 "cosmo_dispersion_energy": -20.8, 
			 "cosmo_repulsion_energy": 1.64, 
			 "cosmo_total_nonelectrostatic_energy": 8.82, 
			 "SMD_solvation_energy": 5.14 
		},
		"coords": [
			{
				"x": -4.1087582059,
				"y": 1.1015169201,
				"z": -4.6713775668,
				"element": "O" 
			},
			{
				"x": -3.2087924308,
				"y": 0.8381921644,
				"z": -3.6741017571,
				"element": "C" 
			},
			{
				"x": -1.8648244565,
				"y": 0.6979552467,
				"z": -4.034537838,
				"element": "C" 
			},
			{
				"x": -0.9120774865,
				"y": 0.43016962,
				"z": -3.0591361301,
				"element": "C" 
			},
			{
				"x": -1.2729419864,
				"y": 0.29635399,
				"z": -1.7087426443,
				"element": "C" 
			},
			{
				"x": -0.2424860931,
				"y": 0.0240769185,
				"z": -0.7795711265,
				"element": "N" 
			},
			{
				"x": -0.3305539045,
				"y": -0.1511763947,
				"z": 0.581508546,
				"element": "C" 
			},
			{
				"x": -1.38052953,
				"y": -0.0912387775,
				"z": 1.2161142877,
				"element": "O" 
			},
			{
				"x": 0.9824375853,
				"y": -0.4276668859,
				"z": 1.2506478833,
				"element": "C" 
			},
			{
				"x": 0.9567609603,
				"y": -1.3511940985,
				"z": 2.4563005103,
				"element": "C" 
			},
			{
				"x": 1.1626458909,
				"y": 0.1147385415,
				"z": 2.6579565025,
				"element": "C" 
			},
			{
				"x": -2.6207211431,
				"y": 0.437396292,
				"z": -1.3499350108,
				"element": "C" 
			},
			{
				"x": -3.5740201569,
				"y": 0.7061581522,
				"z": -2.3321403017,
				"element": "C" 
			},
			{
				"x": -4.9914093622,
				"y": 1.1733586336,
				"z": -4.2860408706,
				"element": "H" 
			},
			{
				"x": -1.5834628095,
				"y": 0.8008679335,
				"z": -5.0771446821,
				"element": "H" 
			},
			{
				"x": 0.1304027967,
				"y": 0.3231652646,
				"z": -3.3518171219,
				"element": "H" 
			},
			{
				"x": 0.6816306514,
				"y": -0.0512449959,
				"z": -1.1788814645,
				"element": "H" 
			},
			{
				"x": 1.8654342742,
				"y": -0.4645794102,
				"z": 0.6171987143,
				"element": "H" 
			},
			{
				"x": -0.0150786264,
				"y": -1.7577994949,
				"z": 2.7154018353,
				"element": "H" 
			},
			{
				"x": 1.7984286873,
				"y": -2.024302749,
				"z": 2.5851858334,
				"element": "H" 
			},
			{
				"x": 2.1495969963,
				"y": 0.4759671713,
				"z": 2.9291289228,
				"element": "H" 
			},
			{
				"x": 0.3280342203,
				"y": 0.6852518701,
				"z": 3.0514834651,
				"element": "H" 
			},
			{
				"x": -2.9062535988,
				"y": 0.3358158628,
				"z": -0.3126850248,
				"element": "H" 
			},
			{
				"x": -4.617262272,
				"y": 0.8135182252,
				"z": -2.0413149615,
				"element": "H" 
			}
		],
		 "valence_orbital": [ 
			{
				"type": "occ",
				"energy": -0.29375,
				"method": "rhf"
			},
			{
				"type": "occ",
				"energy": -0.28247,
				"method": "rhf"
			},
			{
				"type": "occ",
				"energy": -0.25152,
				"method": "rhf"
			},
			{
				"type": "occ",
				"energy": -0.25131,
				"method": "rhf"
			},
			{
				"type": "occ",
				"energy": -0.19973,
				"method": "rhf"
			},
			{
				"type": "unocc",
				"energy": -0.00197,
				"method": "rhf"
			},
			{
				"type": "unocc",
				"energy": -0.00164,
				"method": "rhf"
			},
			{
				"type": "unocc",
				"energy": 0.05316,
				"method": "rhf"
			},
			{
				"type": "unocc",
				"energy": 0.06276,
				"method": "rhf"
			},
			{
				"type": "unocc",
				"energy": 0.07499,
				"method": "rhf"
			}
		],
		"cosmo_sigma_profile": { 
			"-0.025": 0.0,
			"-0.024": 0.0,
			"-0.023": 0.0,
			"-0.022": 0.0,
			"-0.021": 0.0,
			"-0.02": 0.0,
			"-0.019": 0.0,
			"-0.018": 0.226370695126,
			"-0.017": 0.93097799408,
			"-0.016": 1.1766173562,
			"-0.015": 2.04369851671,
			"-0.014": 2.45987153024,
			"-0.013": 2.3565075035,
			"-0.012": 1.71417128444,
			"-0.011": 3.09987370427,
			"-0.01": 3.16083207947,
			"-0.009": 2.5367020219,
			"-0.008": 2.59461666753,
			"-0.007": 3.60105805291,
			"-0.006": 7.57110814827,
			"-0.005": 12.0063231641,
			"-0.004": 14.3655362967,
			"-0.003": 13.3385001445,
			"-0.002": 11.4322806349,
			"-0.001": 13.1204185462,
			"0.0": 15.2808084148,
			"0.001": 13.3355080322,
			"0.002": 15.6393055525,
			"0.003": 16.5238239527,
			"0.004": 16.6273187238,
			"0.005": 16.2527412626,
			"0.006": 7.6150156814,
			"0.007": 3.61457848252,
			"0.008": 3.14863532957,
			"0.009": 2.30134751268,
			"0.01": 3.35678786332,
			"0.011": 3.64640194299,
			"0.012": 3.32095921689,
			"0.013": 2.49289126167,
			"0.014": 1.40855651364,
			"0.015": 0.013130492704,
			"0.016": 0.0,
			"0.017": 0.0,
			"0.018": 0.0,
			"0.019": 0.0,
			"0.02": 0.0,
			"0.021": 0.0,
			"0.022": 0.0,
			"0.023": 0.0,
			"0.024": 0.0,
			"0.025": 0.0
		}
	}
}
