{
	 "smiles": "CC1=C(CN)C=CC=C1", 
	 "Tm": 243.15, 
	 "num_atms": 20, 
	 "gaussian": { 
		 "optdone": 1, 
		 "sigma_profile": "yes", 
		 "theory": "DFT", 
		 "functional": "B3LYP", 
		 "basiset": "6-31G**", 
		 "properties": { 
			 "R2extent": 1472.6336, 
			 "electric_dipole_moment_norm": 1.79553665794, 
			 "electric_quadrupole_moment_norm": 5.902210829, 
			 "total_energy": -366.234175375, 
			 "HOMO_LUMO_gap": 0.23365, 
			 "cosmo_polarized_energy": -6.89, 
			 "cosmo_cavitation_energy": 22.33, 
			 "cosmo_dispersion_energy": -16.7, 
			 "cosmo_repulsion_energy": 1.38, 
			 "cosmo_total_nonelectrostatic_energy": 7.01, 
			 "SMD_solvation_energy": 2.95 
		},
		"coords": [
			{
				"x": 0.1754329294,
				"y": -0.8745321542,
				"z": 1.8738709623,
				"element": "C" 
			},
			{
				"x": -0.7524217227,
				"y": -0.2581413828,
				"z": 0.8515080093,
				"element": "C" 
			},
			{
				"x": -0.6100530726,
				"y": -0.5273572822,
				"z": -0.527781249,
				"element": "C" 
			},
			{
				"x": 0.4943314534,
				"y": -1.4512837217,
				"z": -1.0150303448,
				"element": "C" 
			},
			{
				"x": 0.676156338,
				"y": -1.3992483441,
				"z": -2.4679041487,
				"element": "N" 
			},
			{
				"x": -1.5038691062,
				"y": 0.0506870886,
				"z": -1.4349722689,
				"element": "C" 
			},
			{
				"x": -2.5250659463,
				"y": 0.8979401035,
				"z": -1.0007489009,
				"element": "C" 
			},
			{
				"x": -2.6648450047,
				"y": 1.172495783,
				"z": 0.3577893652,
				"element": "C" 
			},
			{
				"x": -1.7827595856,
				"y": 0.5912735089,
				"z": 1.2701409436,
				"element": "C" 
			},
			{
				"x": 0.1708264753,
				"y": -1.9702221001,
				"z": 1.8231954496,
				"element": "H" 
			},
			{
				"x": 1.2157350928,
				"y": -0.5569982947,
				"z": 1.7287283164,
				"element": "H" 
			},
			{
				"x": -0.1175243772,
				"y": -0.5897705187,
				"z": 2.8879531005,
				"element": "H" 
			},
			{
				"x": 1.4166731746,
				"y": -1.2297375859,
				"z": -0.4503752272,
				"element": "H" 
			},
			{
				"x": 0.2337319079,
				"y": -2.4874645227,
				"z": -0.7542193949,
				"element": "H" 
			},
			{
				"x": 1.0706178312,
				"y": -0.4992866183,
				"z": -2.7325531549,
				"element": "H" 
			},
			{
				"x": 1.3483247984,
				"y": -2.1056129984,
				"z": -2.7537234245,
				"element": "H" 
			},
			{
				"x": -1.3919434414,
				"y": -0.1835621088,
				"z": -2.4882222889,
				"element": "H" 
			},
			{
				"x": -3.2080561957,
				"y": 1.336717292,
				"z": -1.7230411876,
				"element": "H" 
			},
			{
				"x": -3.4546793445,
				"y": 1.8303958258,
				"z": 0.709608474,
				"element": "H" 
			},
			{
				"x": -1.893412204,
				"y": 0.7994080309,
				"z": 2.3318769692,
				"element": "H" 
			}
		],
		 "valence_orbital": [ 
			{
				"type": "occ",
				"energy": -0.32727,
				"method": "rhf"
			},
			{
				"type": "occ",
				"energy": -0.32356,
				"method": "rhf"
			},
			{
				"type": "occ",
				"energy": -0.24114,
				"method": "rhf"
			},
			{
				"type": "occ",
				"energy": -0.23354,
				"method": "rhf"
			},
			{
				"type": "occ",
				"energy": -0.22493,
				"method": "rhf"
			},
			{
				"type": "unocc",
				"energy": 0.00872,
				"method": "rhf"
			},
			{
				"type": "unocc",
				"energy": 0.01376,
				"method": "rhf"
			},
			{
				"type": "unocc",
				"energy": 0.08343,
				"method": "rhf"
			},
			{
				"type": "unocc",
				"energy": 0.10438,
				"method": "rhf"
			},
			{
				"type": "unocc",
				"energy": 0.11002,
				"method": "rhf"
			}
		],
		"cosmo_sigma_profile": { 
			"-0.025": 0.0,
			"-0.024": 0.0,
			"-0.023": 0.0,
			"-0.022": 0.0,
			"-0.021": 0.0,
			"-0.02": 0.0,
			"-0.019": 0.0,
			"-0.018": 0.0,
			"-0.017": 0.0,
			"-0.016": 0.0,
			"-0.015": 0.0,
			"-0.014": 0.0,
			"-0.013": 0.0,
			"-0.012": 0.0,
			"-0.011": 0.0535878771544,
			"-0.01": 1.33899150888,
			"-0.009": 2.7059314145,
			"-0.008": 2.31921273006,
			"-0.007": 2.31481616279,
			"-0.006": 3.43545888312,
			"-0.005": 8.16878251541,
			"-0.004": 16.3908520233,
			"-0.003": 20.2352840955,
			"-0.002": 21.1692019062,
			"-0.001": 15.4248727259,
			"0.0": 15.0651729951,
			"0.001": 10.6069653902,
			"0.002": 8.03199856378,
			"0.003": 8.21152614815,
			"0.004": 7.63680592241,
			"0.005": 9.04262535304,
			"0.006": 8.0609319575,
			"0.007": 7.28403254494,
			"0.008": 1.70869180468,
			"0.009": 0.954875218655,
			"0.01": 0.62121391759,
			"0.011": 0.761829572283,
			"0.012": 0.786812156971,
			"0.013": 0.40712698444,
			"0.014": 0.601740266386,
			"0.015": 0.686840433576,
			"0.016": 0.470367163813,
			"0.017": 0.570280748759,
			"0.018": 0.25969590396,
			"0.019": 0.0,
			"0.02": 0.0,
			"0.021": 0.0,
			"0.022": 0.0,
			"0.023": 0.0,
			"0.024": 0.0,
			"0.025": 0.0
		}
	}
}
