{
	 "smiles": "NC(=O)COC1=CC(CO)=CC=C1", 
	 "Tm": 390.15, 
	 "num_atms": 24, 
	 "gaussian": { 
		 "optdone": 1, 
		 "sigma_profile": "yes", 
		 "theory": "DFT", 
		 "functional": "B3LYP", 
		 "basiset": "6-31G**", 
		 "properties": { 
			 "R2extent": 3616.2871, 
			 "electric_dipole_moment_norm": 1.92247452259, 
			 "electric_quadrupole_moment_norm": 19.7081294797, 
			 "total_energy": -630.005240008, 
			 "HOMO_LUMO_gap": 0.21512, 
			 "cosmo_polarized_energy": -16.45, 
			 "cosmo_cavitation_energy": 28.11, 
			 "cosmo_dispersion_energy": -20.44, 
			 "cosmo_repulsion_energy": 1.66, 
			 "cosmo_total_nonelectrostatic_energy": 9.34, 
			 "SMD_solvation_energy": 5.82 
		},
		"coords": [
			{
				"x": -0.1872036292,
				"y": -0.6925999545,
				"z": -4.1932472256,
				"element": "N" 
			},
			{
				"x": -0.9354913066,
				"y": 0.4220540571,
				"z": -3.9828402909,
				"element": "C" 
			},
			{
				"x": -0.8401073721,
				"y": 1.4555410316,
				"z": -4.6277736303,
				"element": "O" 
			},
			{
				"x": -2.0020954473,
				"y": 0.2756802994,
				"z": -2.8888050789,
				"element": "C" 
			},
			{
				"x": -1.7343570477,
				"y": -0.7457789655,
				"z": -1.9347501115,
				"element": "O" 
			},
			{
				"x": -0.8668074427,
				"y": -0.466261505,
				"z": -0.9016003684,
				"element": "C" 
			},
			{
				"x": -0.811348755,
				"y": -1.4333488891,
				"z": 0.1091547792,
				"element": "C" 
			},
			{
				"x": 0.0379829995,
				"y": -1.2676529237,
				"z": 1.202925357,
				"element": "C" 
			},
			{
				"x": 0.1186378853,
				"y": -2.3376947769,
				"z": 2.2765895761,
				"element": "C" 
			},
			{
				"x": 0.4473726463,
				"y": -1.8343711264,
				"z": 3.5625633447,
				"element": "O" 
			},
			{
				"x": 0.8297444576,
				"y": -0.1135412026,
				"z": 1.2901530989,
				"element": "C" 
			},
			{
				"x": 0.7654894248,
				"y": 0.8471897423,
				"z": 0.2845443153,
				"element": "C" 
			},
			{
				"x": -0.0750610007,
				"y": 0.6841182159,
				"z": -0.8210872856,
				"element": "C" 
			},
			{
				"x": -0.2608227684,
				"y": -1.4831501679,
				"z": -3.5723744076,
				"element": "H" 
			},
			{
				"x": 0.5556818986,
				"y": -0.6536903755,
				"z": -4.8738459394,
				"element": "H" 
			},
			{
				"x": -2.146954129,
				"y": 1.252508918,
				"z": -2.4181777304,
				"element": "H" 
			},
			{
				"x": -2.9416162166,
				"y": -0.0121335587,
				"z": -3.3711005252,
				"element": "H" 
			},
			{
				"x": -1.4524642303,
				"y": -2.3065384616,
				"z": 0.0236836695,
				"element": "H" 
			},
			{
				"x": -0.8200315029,
				"y": -2.9138942174,
				"z": 2.293726586,
				"element": "H" 
			},
			{
				"x": 0.9193394301,
				"y": -3.0473408199,
				"z": 2.0350642931,
				"element": "H" 
			},
			{
				"x": -0.2227973151,
				"y": -1.1785214783,
				"z": 3.7974057552,
				"element": "H" 
			},
			{
				"x": 1.4830669261,
				"y": 0.0170307371,
				"z": 2.1462324967,
				"element": "H" 
			},
			{
				"x": 1.3810144352,
				"y": 1.7400206424,
				"z": 0.3494441205,
				"element": "H" 
			},
			{
				"x": -0.09457194,
				"y": 1.4401747791,
				"z": -1.5973847986,
				"element": "H" 
			}
		],
		 "valence_orbital": [ 
			{
				"type": "occ",
				"energy": -0.2805,
				"method": "rhf"
			},
			{
				"type": "occ",
				"energy": -0.27331,
				"method": "rhf"
			},
			{
				"type": "occ",
				"energy": -0.25671,
				"method": "rhf"
			},
			{
				"type": "occ",
				"energy": -0.25029,
				"method": "rhf"
			},
			{
				"type": "occ",
				"energy": -0.22708,
				"method": "rhf"
			},
			{
				"type": "unocc",
				"energy": -0.01196,
				"method": "rhf"
			},
			{
				"type": "unocc",
				"energy": 0.00266,
				"method": "rhf"
			},
			{
				"type": "unocc",
				"energy": 0.02141,
				"method": "rhf"
			},
			{
				"type": "unocc",
				"energy": 0.08021,
				"method": "rhf"
			},
			{
				"type": "unocc",
				"energy": 0.08376,
				"method": "rhf"
			}
		],
		"cosmo_sigma_profile": { 
			"-0.025": 0.0,
			"-0.024": 0.0,
			"-0.023": 0.0,
			"-0.022": 0.0,
			"-0.021": 0.0,
			"-0.02": 0.0,
			"-0.019": 0.0,
			"-0.018": 0.0,
			"-0.017": 0.0,
			"-0.016": 0.182221078199,
			"-0.015": 0.885617051497,
			"-0.014": 2.28533013943,
			"-0.013": 2.96287920015,
			"-0.012": 2.30162346943,
			"-0.011": 2.70353825559,
			"-0.01": 3.03323975171,
			"-0.009": 2.95026350008,
			"-0.008": 3.97078173584,
			"-0.007": 5.49651575684,
			"-0.006": 11.1213960986,
			"-0.005": 16.9325904211,
			"-0.004": 18.3683857453,
			"-0.003": 14.4532703734,
			"-0.002": 14.448108519,
			"-0.001": 11.704013216,
			"0.0": 9.428754292,
			"0.001": 12.4137247771,
			"0.002": 11.7970247989,
			"0.003": 12.0986174375,
			"0.004": 12.2499320465,
			"0.005": 11.9554847203,
			"0.006": 6.68056765438,
			"0.007": 3.36945002036,
			"0.008": 2.64942177131,
			"0.009": 3.34614500506,
			"0.01": 2.5905384757,
			"0.011": 2.19404060595,
			"0.012": 3.82696839368,
			"0.013": 6.11809916828,
			"0.014": 6.74545895079,
			"0.015": 0.727977975146,
			"0.016": 0.0,
			"0.017": 0.0,
			"0.018": 0.0,
			"0.019": 0.0,
			"0.02": 0.0,
			"0.021": 0.0,
			"0.022": 0.0,
			"0.023": 0.0,
			"0.024": 0.0,
			"0.025": 0.0
		}
	}
}
