{
	 "smiles": "CC(Br)C(Br)CBr", 
	 "Tm": 254.15, 
	 "num_atms": 14, 
	 "gaussian": { 
		 "optdone": 1, 
		 "sigma_profile": "yes", 
		 "theory": "DFT", 
		 "functional": "B3LYP", 
		 "basiset": "6-31G**", 
		 "properties": { 
			 "R2extent": 3703.349, 
			 "electric_dipole_moment_norm": 1.73715575007, 
			 "electric_quadrupole_moment_norm": 6.8153581696, 
			 "total_energy": -7870.86669785, 
			 "HOMO_LUMO_gap": 0.21476, 
			 "cosmo_polarized_energy": -6.6, 
			 "cosmo_cavitation_energy": 23.11, 
			 "cosmo_dispersion_energy": -17.87, 
			 "cosmo_repulsion_energy": 1.48, 
			 "cosmo_total_nonelectrostatic_energy": 6.73, 
			 "SMD_solvation_energy": 0.68 
		},
		"coords": [
			{
				"x": -1.9471101364,
				"y": -0.0450392113,
				"z": -1.1728213179,
				"element": "C" 
			},
			{
				"x": -0.6791315451,
				"y": -0.8872280878,
				"z": -1.2078759092,
				"element": "C" 
			},
			{
				"x": -1.1993389668,
				"y": -2.7942782575,
				"z": -0.8654772651,
				"element": "Br" 
			},
			{
				"x": 0.3973122502,
				"y": -0.4672534986,
				"z": -0.2047626725,
				"element": "C" 
			},
			{
				"x": 1.0302250829,
				"y": 1.3581458061,
				"z": -0.7967714772,
				"element": "Br" 
			},
			{
				"x": 1.6439690215,
				"y": -1.3539187777,
				"z": -0.1159963927,
				"element": "C" 
			},
			{
				"x": 1.62062645,
				"y": -2.518144466,
				"z": 1.4825125782,
				"element": "Br" 
			},
			{
				"x": -2.6756574571,
				"y": -0.428836695,
				"z": -1.8893290628,
				"element": "H" 
			},
			{
				"x": -2.4004428067,
				"y": -0.0665110269,
				"z": -0.1777099552,
				"element": "H" 
			},
			{
				"x": -1.7143856464,
				"y": 0.9917445638,
				"z": -1.430185683,
				"element": "H" 
			},
			{
				"x": -0.2500368483,
				"y": -0.9239499389,
				"z": -2.2099067171,
				"element": "H" 
			},
			{
				"x": -0.0279136975,
				"y": -0.2819487848,
				"z": 0.7804867506,
				"element": "H" 
			},
			{
				"x": 2.5461530038,
				"y": -0.7619092757,
				"z": -0.0006803769,
				"element": "H" 
			},
			{
				"x": 1.7360312959,
				"y": -2.0148723498,
				"z": -0.9769824992,
				"element": "H" 
			}
		],
		 "valence_orbital": [ 
			{
				"type": "occ",
				"energy": -0.29495,
				"method": "rhf"
			},
			{
				"type": "occ",
				"energy": -0.29257,
				"method": "rhf"
			},
			{
				"type": "occ",
				"energy": -0.28264,
				"method": "rhf"
			},
			{
				"type": "occ",
				"energy": -0.28007,
				"method": "rhf"
			},
			{
				"type": "occ",
				"energy": -0.2672,
				"method": "rhf"
			},
			{
				"type": "unocc",
				"energy": -0.05244,
				"method": "rhf"
			},
			{
				"type": "unocc",
				"energy": -0.01489,
				"method": "rhf"
			},
			{
				"type": "unocc",
				"energy": 0.00805,
				"method": "rhf"
			},
			{
				"type": "unocc",
				"energy": 0.09459,
				"method": "rhf"
			},
			{
				"type": "unocc",
				"energy": 0.10604,
				"method": "rhf"
			}
		],
		"cosmo_sigma_profile": { 
			"-0.025": 0.0,
			"-0.024": 0.0,
			"-0.023": 0.0,
			"-0.022": 0.0,
			"-0.021": 0.0,
			"-0.02": 0.0,
			"-0.019": 0.0,
			"-0.018": 0.0,
			"-0.017": 0.0,
			"-0.016": 0.0,
			"-0.015": 0.0,
			"-0.014": 0.0,
			"-0.013": 0.0,
			"-0.012": 0.0,
			"-0.011": 0.0,
			"-0.01": 0.163045010571,
			"-0.009": 1.75717947998,
			"-0.008": 6.69698396727,
			"-0.007": 6.99695565738,
			"-0.006": 6.68895647069,
			"-0.005": 10.2903523412,
			"-0.004": 11.3550014332,
			"-0.003": 14.185415849,
			"-0.002": 14.8412728458,
			"-0.001": 16.1617646454,
			"0.0": 12.6926595188,
			"0.001": 10.5087456035,
			"0.002": 11.9898232887,
			"0.003": 14.3169944261,
			"0.004": 15.5091800603,
			"0.005": 21.3148222041,
			"0.006": 12.7076671505,
			"0.007": 2.89497653526,
			"0.008": 0.17928977724,
			"0.009": 0.0,
			"0.01": 0.0,
			"0.011": 0.0,
			"0.012": 0.0,
			"0.013": 0.0,
			"0.014": 0.0,
			"0.015": 0.0,
			"0.016": 0.0,
			"0.017": 0.0,
			"0.018": 0.0,
			"0.019": 0.0,
			"0.02": 0.0,
			"0.021": 0.0,
			"0.022": 0.0,
			"0.023": 0.0,
			"0.024": 0.0,
			"0.025": 0.0
		}
	}
}
