{
	 "smiles": "CCC1OC(=O)C(C)C(OC2OC(C)CC(C2O)N(C)C)C(C)CC(C)C(=O)C=C/C1(C)O", 
	 "Tm": 469.15, 
	 "num_atms": 76, 
	 "gaussian": { 
		 "optdone": 1, 
		 "sigma_profile": "yes", 
		 "theory": "DFT", 
		 "functional": "B3LYP", 
		 "basiset": "6-31G**", 
		 "properties": { 
			 "R2extent": 13256.211, 
			 "electric_dipole_moment_norm": 4.64566182368, 
			 "electric_quadrupole_moment_norm": 22.5287846627, 
			 "total_energy": -1559.82802543, 
			 "HOMO_LUMO_gap": 0.16149, 
			 "cosmo_polarized_energy": -26.09, 
			 "cosmo_cavitation_energy": 66.03, 
			 "cosmo_dispersion_energy": -39.4, 
			 "cosmo_repulsion_energy": 2.86, 
			 "cosmo_total_nonelectrostatic_energy": 29.49, 
			 "SMD_solvation_energy": 11.4 
		},
		"coords": [
			{
				"x": -1.4191075158,
				"y": -2.488677041,
				"z": -3.1895824027,
				"element": "C" 
			},
			{
				"x": -1.8924211009,
				"y": -1.0999836055,
				"z": -2.74796251,
				"element": "C" 
			},
			{
				"x": -2.3753851303,
				"y": -1.0061381439,
				"z": -1.297947963,
				"element": "C" 
			},
			{
				"x": -1.2863600024,
				"y": -0.9717067392,
				"z": -0.348913896,
				"element": "O" 
			},
			{
				"x": -0.9337141353,
				"y": -2.1214282704,
				"z": 0.2720815837,
				"element": "C" 
			},
			{
				"x": -1.2522939271,
				"y": -3.2200159478,
				"z": -0.1333382415,
				"element": "O" 
			},
			{
				"x": -0.2223253047,
				"y": -1.8640699289,
				"z": 1.5962573483,
				"element": "C" 
			},
			{
				"x": -0.1124909532,
				"y": -3.1845601122,
				"z": 2.3732134716,
				"element": "C" 
			},
			{
				"x": 1.1737051498,
				"y": -1.1362834863,
				"z": 1.5406202087,
				"element": "C" 
			},
			{
				"x": 1.5717733652,
				"y": -0.6771999091,
				"z": 0.243263226,
				"element": "O" 
			},
			{
				"x": 2.2429904272,
				"y": -1.6182299014,
				"z": -0.5623386446,
				"element": "C" 
			},
			{
				"x": 3.3813208291,
				"y": -2.1706169656,
				"z": 0.0757946272,
				"element": "O" 
			},
			{
				"x": 4.6609952489,
				"y": -1.5794734648,
				"z": -0.2175182281,
				"element": "C" 
			},
			{
				"x": 5.562085562,
				"y": -1.8863350262,
				"z": 0.9719309231,
				"element": "C" 
			},
			{
				"x": 4.5469453643,
				"y": -0.0798284719,
				"z": -0.4945609748,
				"element": "C" 
			},
			{
				"x": 3.5897890695,
				"y": 0.2868177078,
				"z": -1.6669817194,
				"element": "C" 
			},
			{
				"x": 2.6512843432,
				"y": -0.9448607352,
				"z": -1.8742378395,
				"element": "C" 
			},
			{
				"x": 1.4851088906,
				"y": -0.7636659141,
				"z": -2.6598588419,
				"element": "O" 
			},
			{
				"x": 2.9779385048,
				"y": 1.6004593938,
				"z": -1.3932589652,
				"element": "N" 
			},
			{
				"x": 4.0146851535,
				"y": 2.6292187923,
				"z": -1.2949504526,
				"element": "C" 
			},
			{
				"x": 1.9713024841,
				"y": 2.0334811037,
				"z": -2.3617865555,
				"element": "C" 
			},
			{
				"x": 1.3177048403,
				"y": 0.0731920588,
				"z": 2.4979798321,
				"element": "C" 
			},
			{
				"x": 0.8935704318,
				"y": -0.263859754,
				"z": 3.9385294767,
				"element": "C" 
			},
			{
				"x": 0.7855461405,
				"y": 1.4402823328,
				"z": 1.9797804498,
				"element": "C" 
			},
			{
				"x": -0.5968020265,
				"y": 1.6125138899,
				"z": 1.3067571666,
				"element": "C" 
			},
			{
				"x": -0.7695409732,
				"y": 3.1143646294,
				"z": 0.9621182042,
				"element": "C" 
			},
			{
				"x": -1.7920171489,
				"y": 1.2276085721,
				"z": 2.1666665159,
				"element": "C" 
			},
			{
				"x": -1.7474984491,
				"y": 1.3823623641,
				"z": 3.3839327868,
				"element": "O" 
			},
			{
				"x": -3.1045652844,
				"y": 0.7207785716,
				"z": 1.6316546567,
				"element": "C" 
			},
			{
				"x": -3.6502883992,
				"y": 0.351576406,
				"z": 0.4537642085,
				"element": "C" 
			},
			{
				"x": -3.2433131651,
				"y": 0.266411959,
				"z": -1.0214188877,
				"element": "C" 
			},
			{
				"x": -2.6276764363,
				"y": 1.5588830472,
				"z": -1.5681144549,
				"element": "C" 
			},
			{
				"x": -4.4503433602,
				"y": 0.1194627377,
				"z": -1.7892008952,
				"element": "O" 
			},
			{
				"x": -2.1886921987,
				"y": -3.2487219316,
				"z": -3.0210309099,
				"element": "H" 
			},
			{
				"x": -0.5223071154,
				"y": -2.7973252506,
				"z": -2.6513796485,
				"element": "H" 
			},
			{
				"x": -1.1850595476,
				"y": -2.4779994763,
				"z": -4.2598771006,
				"element": "H" 
			},
			{
				"x": -2.7332730568,
				"y": -0.7847135067,
				"z": -3.3756534162,
				"element": "H" 
			},
			{
				"x": -1.0821761859,
				"y": -0.3787053978,
				"z": -2.8890900817,
				"element": "H" 
			},
			{
				"x": -2.9877721023,
				"y": -1.8855607862,
				"z": -1.0595963207,
				"element": "H" 
			},
			{
				"x": -0.9160806435,
				"y": -1.2065228085,
				"z": 2.1308886614,
				"element": "H" 
			},
			{
				"x": -1.0932098935,
				"y": -3.6475409578,
				"z": 2.5055742048,
				"element": "H" 
			},
			{
				"x": 0.3236726689,
				"y": -3.0115521499,
				"z": 3.3599182594,
				"element": "H" 
			},
			{
				"x": 0.5197776297,
				"y": -3.8970944012,
				"z": 1.835711892,
				"element": "H" 
			},
			{
				"x": 1.9092211198,
				"y": -1.8796249717,
				"z": 1.8672501445,
				"element": "H" 
			},
			{
				"x": 1.5872998216,
				"y": -2.4725614403,
				"z": -0.7790636173,
				"element": "H" 
			},
			{
				"x": 5.0760644201,
				"y": -2.0855495306,
				"z": -1.1048926664,
				"element": "H" 
			},
			{
				"x": 5.2088134441,
				"y": -1.3639604316,
				"z": 1.8666450763,
				"element": "H" 
			},
			{
				"x": 6.591440606,
				"y": -1.5747052637,
				"z": 0.7678491343,
				"element": "H" 
			},
			{
				"x": 5.5597641698,
				"y": -2.9601406727,
				"z": 1.1778662786,
				"element": "H" 
			},
			{
				"x": 5.5516538907,
				"y": 0.3151438004,
				"z": -0.6735781495,
				"element": "H" 
			},
			{
				"x": 4.1507979245,
				"y": 0.3967991696,
				"z": 0.4075050995,
				"element": "H" 
			},
			{
				"x": 4.1849878636,
				"y": 0.3595829638,
				"z": -2.6041454023,
				"element": "H" 
			},
			{
				"x": 3.2908745408,
				"y": -1.6916943643,
				"z": -2.3693082721,
				"element": "H" 
			},
			{
				"x": 1.7588028121,
				"y": -0.5159251579,
				"z": -3.5525490818,
				"element": "H" 
			},
			{
				"x": 4.6109581317,
				"y": 2.7318565887,
				"z": -2.2240493028,
				"element": "H" 
			},
			{
				"x": 3.5425831115,
				"y": 3.5944632871,
				"z": -1.0921894922,
				"element": "H" 
			},
			{
				"x": 4.7031915487,
				"y": 2.4233818528,
				"z": -0.473542147,
				"element": "H" 
			},
			{
				"x": 1.6733428274,
				"y": 3.0576970141,
				"z": -2.1178818305,
				"element": "H" 
			},
			{
				"x": 1.0944447654,
				"y": 1.3938010195,
				"z": -2.3109496177,
				"element": "H" 
			},
			{
				"x": 2.3468633919,
				"y": 2.0443132911,
				"z": -3.4064320605,
				"element": "H" 
			},
			{
				"x": 2.4049773865,
				"y": 0.2302886133,
				"z": 2.542483348,
				"element": "H" 
			},
			{
				"x": -0.1774873346,
				"y": -0.4449818028,
				"z": 4.0445866274,
				"element": "H" 
			},
			{
				"x": 1.1348251098,
				"y": 0.5742345126,
				"z": 4.5990109108,
				"element": "H" 
			},
			{
				"x": 1.4339876611,
				"y": -1.1426335812,
				"z": 4.3093242051,
				"element": "H" 
			},
			{
				"x": 0.8442873802,
				"y": 2.1378954844,
				"z": 2.823450987,
				"element": "H" 
			},
			{
				"x": 1.5004033851,
				"y": 1.7867993565,
				"z": 1.2265278401,
				"element": "H" 
			},
			{
				"x": -0.6086818327,
				"y": 1.0268991735,
				"z": 0.3897304033,
				"element": "H" 
			},
			{
				"x": 0.0166852536,
				"y": 3.4360788576,
				"z": 0.2716905855,
				"element": "H" 
			},
			{
				"x": -1.7363738521,
				"y": 3.3275124508,
				"z": 0.4989312649,
				"element": "H" 
			},
			{
				"x": -0.6946533895,
				"y": 3.716797582,
				"z": 1.8731780215,
				"element": "H" 
			},
			{
				"x": -3.7791554418,
				"y": 0.6330291753,
				"z": 2.4826643868,
				"element": "H" 
			},
			{
				"x": -4.6890058968,
				"y": 0.0326669412,
				"z": 0.5577032761,
				"element": "H" 
			},
			{
				"x": -3.238291589,
				"y": 2.4130455386,
				"z": -1.2662821565,
				"element": "H" 
			},
			{
				"x": -2.6183770871,
				"y": 1.51963433,
				"z": -2.6588473415,
				"element": "H" 
			},
			{
				"x": -1.6096252736,
				"y": 1.7049649592,
				"z": -1.2133426594,
				"element": "H" 
			},
			{
				"x": -4.8847009166,
				"y": -0.7018522276,
				"z": -1.5185825453,
				"element": "H" 
			}
		],
		 "valence_orbital": [ 
			{
				"type": "occ",
				"energy": -0.26654,
				"method": "rhf"
			},
			{
				"type": "occ",
				"energy": -0.26432,
				"method": "rhf"
			},
			{
				"type": "occ",
				"energy": -0.25708,
				"method": "rhf"
			},
			{
				"type": "occ",
				"energy": -0.2372,
				"method": "rhf"
			},
			{
				"type": "occ",
				"energy": -0.21514,
				"method": "rhf"
			},
			{
				"type": "unocc",
				"energy": -0.05365,
				"method": "rhf"
			},
			{
				"type": "unocc",
				"energy": 0.0104,
				"method": "rhf"
			},
			{
				"type": "unocc",
				"energy": 0.04561,
				"method": "rhf"
			},
			{
				"type": "unocc",
				"energy": 0.06195,
				"method": "rhf"
			},
			{
				"type": "unocc",
				"energy": 0.06639,
				"method": "rhf"
			}
		],
		"cosmo_sigma_profile": { 
			"-0.025": 0.0,
			"-0.024": 0.0,
			"-0.023": 0.0,
			"-0.022": 0.0,
			"-0.021": 0.0,
			"-0.02": 0.0,
			"-0.019": 0.0,
			"-0.018": 0.0,
			"-0.017": 0.0,
			"-0.016": 1.02330332377,
			"-0.015": 2.03284279579,
			"-0.014": 2.16489339953,
			"-0.013": 1.91711037567,
			"-0.012": 2.74667736821,
			"-0.011": 1.9622745612,
			"-0.01": 2.60602240523,
			"-0.009": 1.93846538744,
			"-0.008": 1.97146107382,
			"-0.007": 3.78769441581,
			"-0.006": 7.30760933895,
			"-0.005": 10.8317154329,
			"-0.004": 31.6243623821,
			"-0.003": 56.4313782043,
			"-0.002": 71.6949821821,
			"-0.001": 73.1090762346,
			"0.0": 66.1896766195,
			"0.001": 45.845529548,
			"0.002": 21.539789525,
			"0.003": 14.1617618994,
			"0.004": 11.3443212566,
			"0.005": 10.1510288183,
			"0.006": 9.62325187567,
			"0.007": 7.56793046632,
			"0.008": 7.64547558995,
			"0.009": 8.23895017693,
			"0.01": 7.67784080709,
			"0.011": 7.15743629719,
			"0.012": 10.0411260855,
			"0.013": 6.35239569461,
			"0.014": 0.807169173499,
			"0.015": 0.35318591779,
			"0.016": 0.0316843682653,
			"0.017": 0.0,
			"0.018": 0.0,
			"0.019": 0.0,
			"0.02": 0.0,
			"0.021": 0.0,
			"0.022": 0.0,
			"0.023": 0.0,
			"0.024": 0.0,
			"0.025": 0.0
		}
	}
}
