{
	 "smiles": "CC1=CCC(CC1)C(C)(C)O", 
	 "Tm": 313.65, 
	 "num_atms": 29, 
	 "gaussian": { 
		 "optdone": 1, 
		 "sigma_profile": "yes", 
		 "theory": "DFT", 
		 "functional": "B3LYP", 
		 "basiset": "6-31G**", 
		 "properties": { 
			 "R2extent": 2246.2119, 
			 "electric_dipole_moment_norm": 1.44416547875, 
			 "electric_quadrupole_moment_norm": 5.63293131859, 
			 "total_energy": -467.137710597, 
			 "HOMO_LUMO_gap": 0.25578, 
			 "cosmo_polarized_energy": -4.96, 
			 "cosmo_cavitation_energy": 27.69, 
			 "cosmo_dispersion_energy": -20.2, 
			 "cosmo_repulsion_energy": 1.6, 
			 "cosmo_total_nonelectrostatic_energy": 9.09, 
			 "SMD_solvation_energy": 4.35 
		},
		"coords": [
			{
				"x": 0.6178625422,
				"y": -4.2088374416,
				"z": 0.9544028366,
				"element": "C" 
			},
			{
				"x": 0.7816203935,
				"y": -2.7211018481,
				"z": 0.7841871061,
				"element": "C" 
			},
			{
				"x": 1.2375964598,
				"y": -1.9323217771,
				"z": 1.7700686618,
				"element": "C" 
			},
			{
				"x": 1.4255139377,
				"y": -0.4356054971,
				"z": 1.6537718032,
				"element": "C" 
			},
			{
				"x": 0.6552665671,
				"y": 0.1994856847,
				"z": 0.4690104276,
				"element": "C" 
			},
			{
				"x": 0.8753934227,
				"y": -0.7048266622,
				"z": -0.7642255991,
				"element": "C" 
			},
			{
				"x": 0.3879021103,
				"y": -2.1484735755,
				"z": -0.5604268566,
				"element": "C" 
			},
			{
				"x": -0.8393117219,
				"y": 0.5414435435,
				"z": 0.7871712268,
				"element": "C" 
			},
			{
				"x": -0.9379554652,
				"y": 1.5653758542,
				"z": 1.9366185569,
				"element": "C" 
			},
			{
				"x": -1.5502885964,
				"y": 1.1202547088,
				"z": -0.4438268811,
				"element": "C" 
			},
			{
				"x": -1.6033550791,
				"y": -0.6226333794,
				"z": 1.1396663824,
				"element": "O" 
			},
			{
				"x": -0.417048577,
				"y": -4.5169443787,
				"z": 0.7557708353,
				"element": "H" 
			},
			{
				"x": 1.2468482507,
				"y": -4.757843269,
				"z": 0.2413050191,
				"element": "H" 
			},
			{
				"x": 0.882660435,
				"y": -4.5363018109,
				"z": 1.9639622367,
				"element": "H" 
			},
			{
				"x": 1.5264263036,
				"y": -2.3857131418,
				"z": 2.7184290603,
				"element": "H" 
			},
			{
				"x": 2.4979494419,
				"y": -0.2230313186,
				"z": 1.5273102027,
				"element": "H" 
			},
			{
				"x": 1.1590172557,
				"y": 0.0426272854,
				"z": 2.602919869,
				"element": "H" 
			},
			{
				"x": 1.127925434,
				"y": 1.1671979361,
				"z": 0.2535493203,
				"element": "H" 
			},
			{
				"x": 1.9550673649,
				"y": -0.7257825866,
				"z": -0.9625212716,
				"element": "H" 
			},
			{
				"x": 0.4125363425,
				"y": -0.275656463,
				"z": -1.6576693759,
				"element": "H" 
			},
			{
				"x": -0.7044319753,
				"y": -2.1971232169,
				"z": -0.651804403,
				"element": "H" 
			},
			{
				"x": 0.7913468365,
				"y": -2.7893706358,
				"z": -1.3569683388,
				"element": "H" 
			},
			{
				"x": -1.9885237019,
				"y": 1.8185714612,
				"z": 2.1045398736,
				"element": "H" 
			},
			{
				"x": -0.5452262561,
				"y": 1.1648565684,
				"z": 2.875662113,
				"element": "H" 
			},
			{
				"x": -0.3924881067,
				"y": 2.487693613,
				"z": 1.7072410846,
				"element": "H" 
			},
			{
				"x": -1.6079880159,
				"y": 0.3863422507,
				"z": -1.2504720126,
				"element": "H" 
			},
			{
				"x": -1.0361415907,
				"y": 2.0127502203,
				"z": -0.8150786695,
				"element": "H" 
			},
			{
				"x": -2.5739765459,
				"y": 1.3985502169,
				"z": -0.1771564798,
				"element": "H" 
			},
			{
				"x": -1.064297466,
				"y": -1.1689823407,
				"z": 1.729263272,
				"element": "H" 
			}
		],
		 "valence_orbital": [ 
			{
				"type": "occ",
				"energy": -0.31331,
				"method": "rhf"
			},
			{
				"type": "occ",
				"energy": -0.30035,
				"method": "rhf"
			},
			{
				"type": "occ",
				"energy": -0.294,
				"method": "rhf"
			},
			{
				"type": "occ",
				"energy": -0.24929,
				"method": "rhf"
			},
			{
				"type": "occ",
				"energy": -0.23148,
				"method": "rhf"
			},
			{
				"type": "unocc",
				"energy": 0.0243,
				"method": "rhf"
			},
			{
				"type": "unocc",
				"energy": 0.07247,
				"method": "rhf"
			},
			{
				"type": "unocc",
				"energy": 0.10954,
				"method": "rhf"
			},
			{
				"type": "unocc",
				"energy": 0.11049,
				"method": "rhf"
			},
			{
				"type": "unocc",
				"energy": 0.12284,
				"method": "rhf"
			}
		],
		"cosmo_sigma_profile": { 
			"-0.025": 0.0,
			"-0.024": 0.0,
			"-0.023": 0.0,
			"-0.022": 0.0,
			"-0.021": 0.0,
			"-0.02": 0.0,
			"-0.019": 0.0,
			"-0.018": 0.0,
			"-0.017": 0.0,
			"-0.016": 0.0,
			"-0.015": 0.0,
			"-0.014": 0.0,
			"-0.013": 0.0,
			"-0.012": 0.0,
			"-0.011": 0.0,
			"-0.01": 0.0,
			"-0.009": 0.0967397052237,
			"-0.008": 0.618947071563,
			"-0.007": 1.00892584954,
			"-0.006": 1.02541962116,
			"-0.005": 1.97141738926,
			"-0.004": 5.62195840471,
			"-0.003": 25.3743749071,
			"-0.002": 35.6640357352,
			"-0.001": 37.9273025207,
			"0.0": 36.9123397449,
			"0.001": 29.6564099747,
			"0.002": 12.5656692341,
			"0.003": 4.54223955463,
			"0.004": 3.08255038176,
			"0.005": 2.94694506161,
			"0.006": 2.04704174569,
			"0.007": 2.56472676079,
			"0.008": 1.07842399188,
			"0.009": 1.31092188806,
			"0.01": 0.90568842531,
			"0.011": 0.706490779945,
			"0.012": 1.21974971324,
			"0.013": 1.28653134035,
			"0.014": 1.17520973408,
			"0.015": 1.50377593693,
			"0.016": 0.163610194536,
			"0.017": 0.0,
			"0.018": 0.0,
			"0.019": 0.0,
			"0.02": 0.0,
			"0.021": 0.0,
			"0.022": 0.0,
			"0.023": 0.0,
			"0.024": 0.0,
			"0.025": 0.0
		}
	}
}
