{
	 "smiles": "NC(=O)C1C2=CC=CC=C2CCC2=C1C=CC=C2", 
	 "Tm": 467.15, 
	 "num_atms": 33, 
	 "gaussian": { 
		 "optdone": 1, 
		 "sigma_profile": "yes", 
		 "theory": "DFT", 
		 "functional": "B3LYP", 
		 "basiset": "6-31G**", 
		 "properties": { 
			 "R2extent": 4291.485, 
			 "electric_dipole_moment_norm": 3.36615755276, 
			 "electric_quadrupole_moment_norm": 14.2737319675, 
			 "total_energy": -748.744342647, 
			 "HOMO_LUMO_gap": 0.21674, 
			 "cosmo_polarized_energy": -15.4, 
			 "cosmo_cavitation_energy": 34.56, 
			 "cosmo_dispersion_energy": -24.53, 
			 "cosmo_repulsion_energy": 1.88, 
			 "cosmo_total_nonelectrostatic_energy": 11.92, 
			 "SMD_solvation_energy": 5.76 
		},
		"coords": [
			{
				"x": -2.2208475479,
				"y": 0.892087704,
				"z": -2.9222601566,
				"element": "N" 
			},
			{
				"x": -1.2884825249,
				"y": 0.0096138339,
				"z": -2.4488963237,
				"element": "C" 
			},
			{
				"x": -1.1556016588,
				"y": -1.1132653519,
				"z": -2.9070086678,
				"element": "O" 
			},
			{
				"x": -0.3522215386,
				"y": 0.5981500361,
				"z": -1.3522437443,
				"element": "C" 
			},
			{
				"x": 0.5744659848,
				"y": -0.4678855729,
				"z": -0.771364431,
				"element": "C" 
			},
			{
				"x": 1.848332865,
				"y": -0.5608815746,
				"z": -1.3567758642,
				"element": "C" 
			},
			{
				"x": 2.7968625459,
				"y": -1.4844410523,
				"z": -0.9326674244,
				"element": "C" 
			},
			{
				"x": 2.4787226354,
				"y": -2.3507632697,
				"z": 0.1128373197,
				"element": "C" 
			},
			{
				"x": 1.2209235668,
				"y": -2.2722100213,
				"z": 0.6995253728,
				"element": "C" 
			},
			{
				"x": 0.2488302458,
				"y": -1.3473310867,
				"z": 0.2809220862,
				"element": "C" 
			},
			{
				"x": -1.0671480581,
				"y": -1.3964367233,
				"z": 1.0500878695,
				"element": "C" 
			},
			{
				"x": -2.2703182851,
				"y": -0.6033434952,
				"z": 0.5155438899,
				"element": "C" 
			},
			{
				"x": -2.0390327028,
				"y": 0.8884278033,
				"z": 0.5336140946,
				"element": "C" 
			},
			{
				"x": -1.0917787863,
				"y": 1.4599960071,
				"z": -0.3394100498,
				"element": "C" 
			},
			{
				"x": -0.857558752,
				"y": 2.8398555606,
				"z": -0.2872855576,
				"element": "C" 
			},
			{
				"x": -1.5442685161,
				"y": 3.6561374831,
				"z": 0.6142844993,
				"element": "C" 
			},
			{
				"x": -2.480830047,
				"y": 3.0907043749,
				"z": 1.4776096834,
				"element": "C" 
			},
			{
				"x": -2.7199162531,
				"y": 1.7155050221,
				"z": 1.4327364064,
				"element": "C" 
			},
			{
				"x": -2.4382364748,
				"y": 1.7394384187,
				"z": -2.4215396546,
				"element": "H" 
			},
			{
				"x": -2.8806159828,
				"y": 0.5454310115,
				"z": -3.6022117494,
				"element": "H" 
			},
			{
				"x": 0.2931046696,
				"y": 1.2817296471,
				"z": -1.9181341687,
				"element": "H" 
			},
			{
				"x": 2.0947748517,
				"y": 0.1126049966,
				"z": -2.1739717466,
				"element": "H" 
			},
			{
				"x": 3.7707520795,
				"y": -1.5255715254,
				"z": -1.4116120455,
				"element": "H" 
			},
			{
				"x": 3.2003467313,
				"y": -3.0819793911,
				"z": 0.4658988966,
				"element": "H" 
			},
			{
				"x": 0.9705583186,
				"y": -2.9509987615,
				"z": 1.5121740012,
				"element": "H" 
			},
			{
				"x": -0.8732477445,
				"y": -1.066412199,
				"z": 2.0805060816,
				"element": "H" 
			},
			{
				"x": -1.3643266531,
				"y": -2.4495889368,
				"z": 1.1275233375,
				"element": "H" 
			},
			{
				"x": -3.1387444152,
				"y": -0.841617452,
				"z": 1.1392379214,
				"element": "H" 
			},
			{
				"x": -2.513044058,
				"y": -0.950639289,
				"z": -0.4949437972,
				"element": "H" 
			},
			{
				"x": -0.1222260115,
				"y": 3.2791529099,
				"z": -0.9575422537,
				"element": "H" 
			},
			{
				"x": -1.344889294,
				"y": 4.7234844534,
				"z": 0.6407225445,
				"element": "H" 
			},
			{
				"x": -3.023051062,
				"y": 3.7134466134,
				"z": 2.183368056,
				"element": "H" 
			},
			{
				"x": -3.449788128,
				"y": 1.273399827,
				"z": 2.1067755745,
				"element": "H" 
			}
		],
		 "valence_orbital": [ 
			{
				"type": "occ",
				"energy": -0.26086,
				"method": "rhf"
			},
			{
				"type": "occ",
				"energy": -0.24838,
				"method": "rhf"
			},
			{
				"type": "occ",
				"energy": -0.2363,
				"method": "rhf"
			},
			{
				"type": "occ",
				"energy": -0.23392,
				"method": "rhf"
			},
			{
				"type": "occ",
				"energy": -0.22924,
				"method": "rhf"
			},
			{
				"type": "unocc",
				"energy": -0.0125,
				"method": "rhf"
			},
			{
				"type": "unocc",
				"energy": -0.00815,
				"method": "rhf"
			},
			{
				"type": "unocc",
				"energy": 0.00648,
				"method": "rhf"
			},
			{
				"type": "unocc",
				"energy": 0.01022,
				"method": "rhf"
			},
			{
				"type": "unocc",
				"energy": 0.0314,
				"method": "rhf"
			}
		],
		"cosmo_sigma_profile": { 
			"-0.025": 0.0,
			"-0.024": 0.0,
			"-0.023": 0.0,
			"-0.022": 0.0,
			"-0.021": 0.0,
			"-0.02": 0.0,
			"-0.019": 0.0,
			"-0.018": 0.0,
			"-0.017": 0.0,
			"-0.016": 0.0,
			"-0.015": 0.0,
			"-0.014": 0.44826730008,
			"-0.013": 1.26900088803,
			"-0.012": 1.69312329971,
			"-0.011": 2.02238462719,
			"-0.01": 1.7248552554,
			"-0.009": 1.76862941863,
			"-0.008": 1.89741239627,
			"-0.007": 4.85294333708,
			"-0.006": 10.848669162,
			"-0.005": 21.0719763401,
			"-0.004": 24.5212252153,
			"-0.003": 28.3830167333,
			"-0.002": 24.3252383647,
			"-0.001": 20.582766026,
			"0.0": 16.9836438648,
			"0.001": 14.429449952,
			"0.002": 13.8246805255,
			"0.003": 15.250625488,
			"0.004": 16.3962486331,
			"0.005": 15.1246419389,
			"0.006": 11.8085317517,
			"0.007": 4.70532006367,
			"0.008": 2.23951472767,
			"0.009": 1.84975499997,
			"0.01": 1.67588203551,
			"0.011": 1.85933045008,
			"0.012": 2.05730387862,
			"0.013": 4.02635585748,
			"0.014": 5.22157734098,
			"0.015": 0.994211683228,
			"0.016": 0.0,
			"0.017": 0.0,
			"0.018": 0.0,
			"0.019": 0.0,
			"0.02": 0.0,
			"0.021": 0.0,
			"0.022": 0.0,
			"0.023": 0.0,
			"0.024": 0.0,
			"0.025": 0.0
		}
	}
}
