{
	 "smiles": "CC(=O)C1=CC(O)=CC=C1O", 
	 "Tm": 479.15, 
	 "num_atms": 19, 
	 "gaussian": { 
		 "optdone": 1, 
		 "sigma_profile": "yes", 
		 "theory": "DFT", 
		 "functional": "B3LYP", 
		 "basiset": "6-31G**", 
		 "properties": { 
			 "R2extent": 2331.7054, 
			 "electric_dipole_moment_norm": 3.67837719926, 
			 "electric_quadrupole_moment_norm": 15.1444038912, 
			 "total_energy": -535.35011109, 
			 "HOMO_LUMO_gap": 0.1445, 
			 "cosmo_polarized_energy": -12.62, 
			 "cosmo_cavitation_energy": 22.91, 
			 "cosmo_dispersion_energy": -17.3, 
			 "cosmo_repulsion_energy": 1.38, 
			 "cosmo_total_nonelectrostatic_energy": 6.99, 
			 "SMD_solvation_energy": 5.16 
		},
		"coords": [
			{
				"x": 3.8658870138,
				"y": 1.4573969121,
				"z": 1.3519837412,
				"element": "C" 
			},
			{
				"x": 2.6935707127,
				"y": 1.762887721,
				"z": 0.4408883142,
				"element": "C" 
			},
			{
				"x": 2.7164976368,
				"y": 2.8083905613,
				"z": -0.2292672755,
				"element": "O" 
			},
			{
				"x": 1.5572032292,
				"y": 0.8346658921,
				"z": 0.3584373548,
				"element": "C" 
			},
			{
				"x": 1.5120384687,
				"y": -0.3617784858,
				"z": 1.1139089581,
				"element": "C" 
			},
			{
				"x": 0.4324632823,
				"y": -1.2243782557,
				"z": 1.0227570145,
				"element": "C" 
			},
			{
				"x": 0.3323141137,
				"y": -2.3951389939,
				"z": 1.7280754322,
				"element": "O" 
			},
			{
				"x": -0.6372850911,
				"y": -0.9053947819,
				"z": 0.1643803824,
				"element": "C" 
			},
			{
				"x": -0.6168626023,
				"y": 0.2570062727,
				"z": -0.5838026908,
				"element": "C" 
			},
			{
				"x": 0.4722054057,
				"y": 1.1453972446,
				"z": -0.5037631142,
				"element": "C" 
			},
			{
				"x": 0.4374452614,
				"y": 2.2571878822,
				"z": -1.2524636604,
				"element": "O" 
			},
			{
				"x": 4.3419039194,
				"y": 0.5103536002,
				"z": 1.0761471236,
				"element": "H" 
			},
			{
				"x": 4.5924725135,
				"y": 2.2654102178,
				"z": 1.2643869714,
				"element": "H" 
			},
			{
				"x": 3.5418895768,
				"y": 1.372695432,
				"z": 2.3947778154,
				"element": "H" 
			},
			{
				"x": 2.3379641595,
				"y": -0.6070076769,
				"z": 1.7759570569,
				"element": "H" 
			},
			{
				"x": 1.1189522081,
				"y": -2.5042731166,
				"z": 2.2772631482,
				"element": "H" 
			},
			{
				"x": -1.4755785937,
				"y": -1.5921589403,
				"z": 0.1046752822,
				"element": "H" 
			},
			{
				"x": -1.4358814583,
				"y": 0.5116590277,
				"z": -1.2478112004,
				"element": "H" 
			},
			{
				"x": 1.2807002438,
				"y": 2.7441794873,
				"z": -1.0592306537,
				"element": "H" 
			}
		],
		 "valence_orbital": [ 
			{
				"type": "occ",
				"energy": -0.35409,
				"method": "rhf"
			},
			{
				"type": "occ",
				"energy": -0.3099,
				"method": "rhf"
			},
			{
				"type": "occ",
				"energy": -0.26716,
				"method": "rhf"
			},
			{
				"type": "occ",
				"energy": -0.26396,
				"method": "rhf"
			},
			{
				"type": "occ",
				"energy": -0.20891,
				"method": "rhf"
			},
			{
				"type": "unocc",
				"energy": -0.06441,
				"method": "rhf"
			},
			{
				"type": "unocc",
				"energy": 0.00968,
				"method": "rhf"
			},
			{
				"type": "unocc",
				"energy": 0.03881,
				"method": "rhf"
			},
			{
				"type": "unocc",
				"energy": 0.0616,
				"method": "rhf"
			},
			{
				"type": "unocc",
				"energy": 0.08784,
				"method": "rhf"
			}
		],
		"cosmo_sigma_profile": { 
			"-0.025": 0.0,
			"-0.024": 0.0,
			"-0.023": 0.0,
			"-0.022": 0.0,
			"-0.021": 0.0,
			"-0.02": 0.0,
			"-0.019": 0.0,
			"-0.018": 0.389367094142,
			"-0.017": 1.3143479245,
			"-0.016": 0.981238855532,
			"-0.015": 1.19139967994,
			"-0.014": 0.676921069138,
			"-0.013": 1.62255418347,
			"-0.012": 0.656064883178,
			"-0.011": 0.770725405921,
			"-0.01": 1.39248756181,
			"-0.009": 1.3934638183,
			"-0.008": 1.28177299361,
			"-0.007": 5.39736467458,
			"-0.006": 12.0139436219,
			"-0.005": 11.4019688538,
			"-0.004": 11.1849613798,
			"-0.003": 10.3668745362,
			"-0.002": 13.0323600582,
			"-0.001": 14.3459476009,
			"0.0": 8.07912480918,
			"0.001": 9.29579299726,
			"0.002": 12.7587454402,
			"0.003": 18.854330576,
			"0.004": 9.12569531786,
			"0.005": 4.50355422258,
			"0.006": 3.85879222701,
			"0.007": 3.89858837059,
			"0.008": 4.74083068065,
			"0.009": 4.49410945145,
			"0.01": 4.28018960013,
			"0.011": 5.82873814353,
			"0.012": 2.96455896932,
			"0.013": 0.323502756365,
			"0.014": 0.0,
			"0.015": 0.0,
			"0.016": 0.0,
			"0.017": 0.0,
			"0.018": 0.0,
			"0.019": 0.0,
			"0.02": 0.0,
			"0.021": 0.0,
			"0.022": 0.0,
			"0.023": 0.0,
			"0.024": 0.0,
			"0.025": 0.0
		}
	}
}
