{
	 "smiles": "ClC(=O)OC(Cl)(Cl)Cl", 
	 "Tm": 216.15, 
	 "num_atms": 8, 
	 "gaussian": { 
		 "optdone": 1, 
		 "sigma_profile": "yes", 
		 "theory": "DFT", 
		 "functional": "B3LYP", 
		 "basiset": "6-31G**", 
		 "properties": { 
			 "R2extent": 2076.8788, 
			 "electric_dipole_moment_norm": 0.909890509897, 
			 "electric_quadrupole_moment_norm": 3.30557909601, 
			 "total_energy": -2067.39490366, 
			 "HOMO_LUMO_gap": 0.26025, 
			 "cosmo_polarized_energy": -3.01, 
			 "cosmo_cavitation_energy": 20.46, 
			 "cosmo_dispersion_energy": -15.45, 
			 "cosmo_repulsion_energy": 1.32, 
			 "cosmo_total_nonelectrostatic_energy": 6.32, 
			 "SMD_solvation_energy": 3.59 
		},
		"coords": [
			{
				"x": -0.5443479087,
				"y": -0.4653931564,
				"z": 3.7293660559,
				"element": "Cl" 
			},
			{
				"x": 0.3664817142,
				"y": 0.1021826721,
				"z": 2.3344520558,
				"element": "C" 
			},
			{
				"x": 1.2837135173,
				"y": 0.8528096781,
				"z": 2.3791780792,
				"element": "O" 
			},
			{
				"x": -0.1878847425,
				"y": -0.4845293763,
				"z": 1.2301725668,
				"element": "O" 
			},
			{
				"x": 0.3318774636,
				"y": -0.2195245679,
				"z": -0.049785503,
				"element": "C" 
			},
			{
				"x": 0.1866766472,
				"y": 1.5174313756,
				"z": -0.4667193917,
				"element": "Cl" 
			},
			{
				"x": 2.0359332574,
				"y": -0.757263959,
				"z": -0.1872495169,
				"element": "Cl" 
			},
			{
				"x": -0.6962499483,
				"y": -1.189612666,
				"z": -1.1424143461,
				"element": "Cl" 
			}
		],
		 "valence_orbital": [ 
			{
				"type": "occ",
				"energy": -0.35556,
				"method": "rhf"
			},
			{
				"type": "occ",
				"energy": -0.34091,
				"method": "rhf"
			},
			{
				"type": "occ",
				"energy": -0.33914,
				"method": "rhf"
			},
			{
				"type": "occ",
				"energy": -0.32885,
				"method": "rhf"
			},
			{
				"type": "occ",
				"energy": -0.32612,
				"method": "rhf"
			},
			{
				"type": "unocc",
				"energy": -0.06587,
				"method": "rhf"
			},
			{
				"type": "unocc",
				"energy": -0.0546,
				"method": "rhf"
			},
			{
				"type": "unocc",
				"energy": -0.02901,
				"method": "rhf"
			},
			{
				"type": "unocc",
				"energy": -0.0009,
				"method": "rhf"
			},
			{
				"type": "unocc",
				"energy": 0.00687,
				"method": "rhf"
			}
		],
		"cosmo_sigma_profile": { 
			"-0.025": 0.0,
			"-0.024": 0.0,
			"-0.023": 0.0,
			"-0.022": 0.0,
			"-0.021": 0.0,
			"-0.02": 0.0,
			"-0.019": 0.0,
			"-0.018": 0.0,
			"-0.017": 0.0,
			"-0.016": 0.0,
			"-0.015": 0.0,
			"-0.014": 0.0,
			"-0.013": 0.0,
			"-0.012": 0.0,
			"-0.011": 0.0,
			"-0.01": 0.0,
			"-0.009": 0.0,
			"-0.008": 0.75502678311,
			"-0.007": 1.83512056554,
			"-0.006": 4.16921047689,
			"-0.005": 8.24235157563,
			"-0.004": 11.1719275024,
			"-0.003": 11.2104738899,
			"-0.002": 12.9443193669,
			"-0.001": 14.9396320307,
			"0.0": 21.0956445167,
			"0.001": 35.8945924871,
			"0.002": 30.5677349478,
			"0.003": 6.30680897808,
			"0.004": 2.9383121796,
			"0.005": 3.24255369366,
			"0.006": 2.90812415286,
			"0.007": 4.60389528982,
			"0.008": 1.08819524033,
			"0.009": 0.0,
			"0.01": 0.0,
			"0.011": 0.0,
			"0.012": 0.0,
			"0.013": 0.0,
			"0.014": 0.0,
			"0.015": 0.0,
			"0.016": 0.0,
			"0.017": 0.0,
			"0.018": 0.0,
			"0.019": 0.0,
			"0.02": 0.0,
			"0.021": 0.0,
			"0.022": 0.0,
			"0.023": 0.0,
			"0.024": 0.0,
			"0.025": 0.0
		}
	}
}
