{
	 "smiles": "NC(=O)N1CCC(=CC1)C1=CNC2=C1C=CC=C2", 
	 "Tm": 473.15, 
	 "num_atms": 33, 
	 "gaussian": { 
		 "optdone": 1, 
		 "sigma_profile": "yes", 
		 "theory": "DFT", 
		 "functional": "B3LYP", 
		 "basiset": "6-31G**", 
		 "properties": { 
			 "R2extent": 6922.5389, 
			 "electric_dipole_moment_norm": 4.17497316159, 
			 "electric_quadrupole_moment_norm": 23.9080959514, 
			 "total_energy": -782.025456094, 
			 "HOMO_LUMO_gap": 0.17678, 
			 "cosmo_polarized_energy": -20.06, 
			 "cosmo_cavitation_energy": 35.21, 
			 "cosmo_dispersion_energy": -26.26, 
			 "cosmo_repulsion_energy": 2.01, 
			 "cosmo_total_nonelectrostatic_energy": 10.97, 
			 "SMD_solvation_energy": 5.24 
		},
		"coords": [
			{
				"x": 0.5235886388,
				"y": -5.6534527167,
				"z": 0.9947258794,
				"element": "N" 
			},
			{
				"x": -0.1071405279,
				"y": -4.6258472616,
				"z": 1.6880373772,
				"element": "C" 
			},
			{
				"x": -0.4931117812,
				"y": -4.7849042579,
				"z": 2.8424356656,
				"element": "O" 
			},
			{
				"x": -0.2923109267,
				"y": -3.4461972732,
				"z": 0.9862801864,
				"element": "N" 
			},
			{
				"x": -1.154315716,
				"y": -2.4352929113,
				"z": 1.5961044724,
				"element": "C" 
			},
			{
				"x": -0.6578714724,
				"y": -1.0320176312,
				"z": 1.2551963606,
				"element": "C" 
			},
			{
				"x": -0.4522601307,
				"y": -0.8659825887,
				"z": -0.2398678418,
				"element": "C" 
			},
			{
				"x": -0.2264237255,
				"y": -1.9601533377,
				"z": -0.9893015072,
				"element": "C" 
			},
			{
				"x": -0.1271205633,
				"y": -3.3658233516,
				"z": -0.461675303,
				"element": "C" 
			},
			{
				"x": -0.4846093263,
				"y": 0.4937215946,
				"z": -0.7889336784,
				"element": "C" 
			},
			{
				"x": -0.2486838548,
				"y": 1.6377935718,
				"z": -0.0528619199,
				"element": "C" 
			},
			{
				"x": -0.3142879508,
				"y": 2.7499577803,
				"z": -0.8621393764,
				"element": "N" 
			},
			{
				"x": -0.6140379304,
				"y": 2.3590386892,
				"z": -2.151626271,
				"element": "C" 
			},
			{
				"x": -0.7352717672,
				"y": 0.9413773255,
				"z": -2.1489385557,
				"element": "C" 
			},
			{
				"x": -1.0954315573,
				"y": 0.3066592388,
				"z": -3.3522468336,
				"element": "C" 
			},
			{
				"x": -1.2863798981,
				"y": 1.0709390557,
				"z": -4.4972526492,
				"element": "C" 
			},
			{
				"x": -1.1337496467,
				"y": 2.4712187986,
				"z": -4.4753830277,
				"element": "C" 
			},
			{
				"x": -0.8028202676,
				"y": 3.1342786649,
				"z": -3.2999659688,
				"element": "C" 
			},
			{
				"x": 1.1853230453,
				"y": -5.428111352,
				"z": 0.266779706,
				"element": "H" 
			},
			{
				"x": 0.8184821671,
				"y": -6.3926201781,
				"z": 1.6165394511,
				"element": "H" 
			},
			{
				"x": -2.1896370766,
				"y": -2.5527505352,
				"z": 1.2397369228,
				"element": "H" 
			},
			{
				"x": -1.1526819323,
				"y": -2.6185072668,
				"z": 2.6698835353,
				"element": "H" 
			},
			{
				"x": -1.3892306399,
				"y": -0.2990277788,
				"z": 1.6148413762,
				"element": "H" 
			},
			{
				"x": 0.2812633502,
				"y": -0.8326132094,
				"z": 1.7901157952,
				"element": "H" 
			},
			{
				"x": -0.0409770989,
				"y": -1.868640262,
				"z": -2.0545226812,
				"element": "H" 
			},
			{
				"x": -0.8521093245,
				"y": -4.0156093665,
				"z": -0.9838778667,
				"element": "H" 
			},
			{
				"x": 0.8676620418,
				"y": -3.7448456198,
				"z": -0.740058306,
				"element": "H" 
			},
			{
				"x": -0.013563719,
				"y": 1.7411297913,
				"z": 0.9965030479,
				"element": "H" 
			},
			{
				"x": -0.1716569944,
				"y": 3.6988915352,
				"z": -0.5578930873,
				"element": "H" 
			},
			{
				"x": -1.2470472332,
				"y": -0.7663642546,
				"z": -3.389018212,
				"element": "H" 
			},
			{
				"x": -1.5645491707,
				"y": 0.5814272881,
				"z": -5.4259905864,
				"element": "H" 
			},
			{
				"x": -1.2864569876,
				"y": 3.0415853692,
				"z": -5.3868266921,
				"element": "H" 
			},
			{
				"x": -0.7006820234,
				"y": 4.21564245,
				"z": -3.2721994117,
				"element": "H" 
			}
		],
		 "valence_orbital": [ 
			{
				"type": "occ",
				"energy": -0.24692,
				"method": "rhf"
			},
			{
				"type": "occ",
				"energy": -0.24451,
				"method": "rhf"
			},
			{
				"type": "occ",
				"energy": -0.22733,
				"method": "rhf"
			},
			{
				"type": "occ",
				"energy": -0.22359,
				"method": "rhf"
			},
			{
				"type": "occ",
				"energy": -0.19428,
				"method": "rhf"
			},
			{
				"type": "unocc",
				"energy": -0.0175,
				"method": "rhf"
			},
			{
				"type": "unocc",
				"energy": 0.00801,
				"method": "rhf"
			},
			{
				"type": "unocc",
				"energy": 0.02631,
				"method": "rhf"
			},
			{
				"type": "unocc",
				"energy": 0.05897,
				"method": "rhf"
			},
			{
				"type": "unocc",
				"energy": 0.07432,
				"method": "rhf"
			}
		],
		"cosmo_sigma_profile": { 
			"-0.025": 0.0,
			"-0.024": 0.0,
			"-0.023": 0.0,
			"-0.022": 0.0,
			"-0.021": 0.0,
			"-0.02": 0.0,
			"-0.019": 0.0,
			"-0.018": 0.0,
			"-0.017": 0.0,
			"-0.016": 0.621195059095,
			"-0.015": 1.58967236086,
			"-0.014": 1.87937265102,
			"-0.013": 3.02163207321,
			"-0.012": 3.34804480599,
			"-0.011": 4.002857935,
			"-0.01": 4.09539574193,
			"-0.009": 3.34891205354,
			"-0.008": 4.88822674193,
			"-0.007": 5.95713570179,
			"-0.006": 8.41154787542,
			"-0.005": 12.7067389204,
			"-0.004": 20.518545031,
			"-0.003": 26.9757113362,
			"-0.002": 23.0802758694,
			"-0.001": 17.0332467662,
			"0.0": 14.7212499834,
			"0.001": 12.3167656546,
			"0.002": 12.2226639356,
			"0.003": 13.8043416658,
			"0.004": 16.1674091461,
			"0.005": 19.7988753397,
			"0.006": 17.6505638916,
			"0.007": 9.90348164335,
			"0.008": 2.20782618522,
			"0.009": 2.14141590703,
			"0.01": 2.17320095958,
			"0.011": 1.89982805142,
			"0.012": 1.35746074855,
			"0.013": 1.99581446395,
			"0.014": 4.56256018832,
			"0.015": 4.4209629421,
			"0.016": 0.217848018703,
			"0.017": 0.0,
			"0.018": 0.0,
			"0.019": 0.0,
			"0.02": 0.0,
			"0.021": 0.0,
			"0.022": 0.0,
			"0.023": 0.0,
			"0.024": 0.0,
			"0.025": 0.0
		}
	}
}
