{
	 "smiles": "CC1=CC=C(CNC(=O)CCl)C=C1", 
	 "Tm": 391.15, 
	 "num_atms": 25, 
	 "gaussian": { 
		 "optdone": 1, 
		 "sigma_profile": "yes", 
		 "theory": "DFT", 
		 "functional": "B3LYP", 
		 "basiset": "6-31G**", 
		 "properties": { 
			 "R2extent": 4151.0556, 
			 "electric_dipole_moment_norm": 4.32469932943, 
			 "electric_quadrupole_moment_norm": 17.5347930167, 
			 "total_energy": -978.483134732, 
			 "HOMO_LUMO_gap": 0.222, 
			 "cosmo_polarized_energy": -12.16, 
			 "cosmo_cavitation_energy": 30.37, 
			 "cosmo_dispersion_energy": -21.4, 
			 "cosmo_repulsion_energy": 1.73, 
			 "cosmo_total_nonelectrostatic_energy": 10.7, 
			 "SMD_solvation_energy": 5.4 
		},
		"coords": [
			{
				"x": 3.9083209856,
				"y": -1.7446042849,
				"z": 0.8484341549,
				"element": "C" 
			},
			{
				"x": 2.5654402063,
				"y": -1.0826591239,
				"z": 0.6474414663,
				"element": "C" 
			},
			{
				"x": 1.6997791377,
				"y": -0.8590544764,
				"z": 1.7257468116,
				"element": "C" 
			},
			{
				"x": 0.4506123087,
				"y": -0.2684522504,
				"z": 1.5359027255,
				"element": "C" 
			},
			{
				"x": 0.0242521202,
				"y": 0.1140382325,
				"z": 0.258626961,
				"element": "C" 
			},
			{
				"x": -1.3660295855,
				"y": 0.7096655299,
				"z": 0.0741199761,
				"element": "C" 
			},
			{
				"x": -1.5045896022,
				"y": 1.6521996894,
				"z": -1.0307578179,
				"element": "N" 
			},
			{
				"x": -1.0707103164,
				"y": 2.9473180777,
				"z": -1.0924322147,
				"element": "C" 
			},
			{
				"x": -1.1674569546,
				"y": 3.6198077291,
				"z": -2.1089736537,
				"element": "O" 
			},
			{
				"x": -0.4371174646,
				"y": 3.5332588343,
				"z": 0.1701582396,
				"element": "C" 
			},
			{
				"x": -1.6844927781,
				"y": 3.9238916613,
				"z": 1.4359943196,
				"element": "Cl" 
			},
			{
				"x": 0.8876983122,
				"y": -0.1008695003,
				"z": -0.8214666483,
				"element": "C" 
			},
			{
				"x": 2.1376777427,
				"y": -0.6875890022,
				"z": -0.6272165936,
				"element": "C" 
			},
			{
				"x": 3.8360898137,
				"y": -2.8325006742,
				"z": 0.7244381558,
				"element": "H" 
			},
			{
				"x": 4.6451624417,
				"y": -1.3845231872,
				"z": 0.124090816,
				"element": "H" 
			},
			{
				"x": 4.300862651,
				"y": -1.5579236863,
				"z": 1.8524433986,
				"element": "H" 
			},
			{
				"x": 2.0107697818,
				"y": -1.1405035724,
				"z": 2.7289084914,
				"element": "H" 
			},
			{
				"x": -0.1975679099,
				"y": -0.0982348632,
				"z": 2.3928240653,
				"element": "H" 
			},
			{
				"x": -2.0871863646,
				"y": -0.0938804222,
				"z": -0.1155356418,
				"element": "H" 
			},
			{
				"x": -1.6878982558,
				"y": 1.1870363205,
				"z": 1.004789061,
				"element": "H" 
			},
			{
				"x": -1.9098041473,
				"y": 1.3281581801,
				"z": -1.8983136136,
				"element": "H" 
			},
			{
				"x": 0.2832033621,
				"y": 2.8574209029,
				"z": 0.6332483514,
				"element": "H" 
			},
			{
				"x": 0.0366807217,
				"y": 4.4720039068,
				"z": -0.1066994285,
				"element": "H" 
			},
			{
				"x": 0.5873597877,
				"y": 0.2059883581,
				"z": -1.8193495334,
				"element": "H" 
			},
			{
				"x": 2.7940440058,
				"y": -0.8380923788,
				"z": -1.4810218488,
				"element": "H" 
			}
		],
		 "valence_orbital": [ 
			{
				"type": "occ",
				"energy": -0.30355,
				"method": "rhf"
			},
			{
				"type": "occ",
				"energy": -0.26324,
				"method": "rhf"
			},
			{
				"type": "occ",
				"energy": -0.25763,
				"method": "rhf"
			},
			{
				"type": "occ",
				"energy": -0.25472,
				"method": "rhf"
			},
			{
				"type": "occ",
				"energy": -0.24279,
				"method": "rhf"
			},
			{
				"type": "unocc",
				"energy": -0.02079,
				"method": "rhf"
			},
			{
				"type": "unocc",
				"energy": -0.01066,
				"method": "rhf"
			},
			{
				"type": "unocc",
				"energy": -0.00957,
				"method": "rhf"
			},
			{
				"type": "unocc",
				"energy": 0.05556,
				"method": "rhf"
			},
			{
				"type": "unocc",
				"energy": 0.07576,
				"method": "rhf"
			}
		],
		"cosmo_sigma_profile": { 
			"-0.025": 0.0,
			"-0.024": 0.0,
			"-0.023": 0.0,
			"-0.022": 0.0,
			"-0.021": 0.0,
			"-0.02": 0.0,
			"-0.019": 0.0,
			"-0.018": 0.0,
			"-0.017": 0.0,
			"-0.016": 0.0,
			"-0.015": 0.0574533486374,
			"-0.014": 1.27026728999,
			"-0.013": 1.05789539957,
			"-0.012": 1.37840122293,
			"-0.011": 1.05575332102,
			"-0.01": 0.803176599332,
			"-0.009": 1.66776459203,
			"-0.008": 2.62875266779,
			"-0.007": 4.93759420728,
			"-0.006": 9.55486844673,
			"-0.005": 16.8814535068,
			"-0.004": 22.7458732305,
			"-0.003": 21.4090611759,
			"-0.002": 18.1825187305,
			"-0.001": 17.5680462724,
			"0.0": 20.8724495377,
			"0.001": 15.7549257755,
			"0.002": 13.9712989768,
			"0.003": 13.0511568552,
			"0.004": 12.9148134427,
			"0.005": 15.9973787989,
			"0.006": 10.9748675472,
			"0.007": 1.83015533596,
			"0.008": 0.481196139011,
			"0.009": 1.57824885537,
			"0.01": 1.3541467309,
			"0.011": 1.84149218816,
			"0.012": 2.72557387644,
			"0.013": 5.91242308961,
			"0.014": 1.98882500305,
			"0.015": 0.0128071300669,
			"0.016": 0.0,
			"0.017": 0.0,
			"0.018": 0.0,
			"0.019": 0.0,
			"0.02": 0.0,
			"0.021": 0.0,
			"0.022": 0.0,
			"0.023": 0.0,
			"0.024": 0.0,
			"0.025": 0.0
		}
	}
}
