{
	 "smiles": "COC(=O)CN1C(=O)C2=CC=CC=C2[C@@]1(O)C1=CC(=CC=C1)[N+]([O-])=O", 
	 "Tm": 431.0, 
	 "num_atms": 39, 
	 "gaussian": { 
		 "optdone": 1, 
		 "sigma_profile": "yes", 
		 "theory": "DFT", 
		 "functional": "B3LYP", 
		 "basiset": "6-31G**", 
		 "properties": { 
			 "R2extent": 8932.7467, 
			 "electric_dipole_moment_norm": 4.74684895167, 
			 "electric_quadrupole_moment_norm": 32.7241139105, 
			 "total_energy": -1217.01708529, 
			 "HOMO_LUMO_gap": 0.1635, 
			 "cosmo_polarized_energy": -20.29, 
			 "cosmo_cavitation_energy": 44.59, 
			 "cosmo_dispersion_energy": -29.67, 
			 "cosmo_repulsion_energy": 2.27, 
			 "cosmo_total_nonelectrostatic_energy": 17.18, 
			 "SMD_solvation_energy": 12.02 
		},
		"coords": [
			{
				"x": 2.2362072343,
				"y": -2.0509182296,
				"z": 4.0967796883,
				"element": "C" 
			},
			{
				"x": 1.5266107383,
				"y": -1.3067114229,
				"z": 3.0838769589,
				"element": "O" 
			},
			{
				"x": 2.0843064176,
				"y": -0.1151241171,
				"z": 2.7574731826,
				"element": "C" 
			},
			{
				"x": 3.1147260868,
				"y": 0.2964160509,
				"z": 3.234754608,
				"element": "O" 
			},
			{
				"x": 1.2616030999,
				"y": 0.690153955,
				"z": 1.749469952,
				"element": "C" 
			},
			{
				"x": 0.1030283795,
				"y": 0.0422268054,
				"z": 1.1912250811,
				"element": "N" 
			},
			{
				"x": -1.1339554027,
				"y": 0.0865590431,
				"z": 1.8265461749,
				"element": "C" 
			},
			{
				"x": -1.4004114907,
				"y": 0.7690872986,
				"z": 2.8013623096,
				"element": "O" 
			},
			{
				"x": -2.0074437758,
				"y": -0.8483885878,
				"z": 1.0679073023,
				"element": "C" 
			},
			{
				"x": -3.3445208964,
				"y": -1.1706666578,
				"z": 1.2795380666,
				"element": "C" 
			},
			{
				"x": -3.9245228997,
				"y": -2.1210570192,
				"z": 0.4361599665,
				"element": "C" 
			},
			{
				"x": -3.1736452517,
				"y": -2.7252039476,
				"z": -0.5824229461,
				"element": "C" 
			},
			{
				"x": -1.8301275508,
				"y": -2.3912139674,
				"z": -0.7880590051,
				"element": "C" 
			},
			{
				"x": -1.2610752874,
				"y": -1.4418142237,
				"z": 0.0523928504,
				"element": "C" 
			},
			{
				"x": 0.1749937103,
				"y": -0.9120110944,
				"z": 0.074376785,
				"element": "C" 
			},
			{
				"x": 1.1320828801,
				"y": -1.9224538095,
				"z": 0.3102368907,
				"element": "O" 
			},
			{
				"x": 0.5633007223,
				"y": -0.2237253225,
				"z": -1.2386310232,
				"element": "C" 
			},
			{
				"x": 1.563709296,
				"y": -0.7552366136,
				"z": -2.052827139,
				"element": "C" 
			},
			{
				"x": 1.8695064838,
				"y": -0.1089126904,
				"z": -3.249598185,
				"element": "C" 
			},
			{
				"x": 1.2190113014,
				"y": 1.049452388,
				"z": -3.6641841052,
				"element": "C" 
			},
			{
				"x": 0.2220845949,
				"y": 1.5730398241,
				"z": -2.8419523007,
				"element": "C" 
			},
			{
				"x": -0.1040977986,
				"y": 0.9415477605,
				"z": -1.6421735724,
				"element": "C" 
			},
			{
				"x": 2.9256736389,
				"y": -0.6753448747,
				"z": -4.1086000445,
				"element": "N" 
			},
			{
				"x": 3.4833205516,
				"y": -1.7028000582,
				"z": -3.7267248204,
				"element": "O" 
			},
			{
				"x": 3.1832974376,
				"y": -0.0853840608,
				"z": -5.1574595641,
				"element": "O" 
			},
			{
				"x": 1.6456915815,
				"y": -2.9505275305,
				"z": 4.2672015948,
				"element": "H" 
			},
			{
				"x": 2.3124545931,
				"y": -1.4606908183,
				"z": 5.0119384901,
				"element": "H" 
			},
			{
				"x": 3.2404590533,
				"y": -2.3045618315,
				"z": 3.7501313242,
				"element": "H" 
			},
			{
				"x": 1.9428311659,
				"y": 1.0131004195,
				"z": 0.9573389481,
				"element": "H" 
			},
			{
				"x": 0.9215429095,
				"y": 1.5830104179,
				"z": 2.2836122105,
				"element": "H" 
			},
			{
				"x": -3.9039412069,
				"y": -0.6941579512,
				"z": 2.0783971196,
				"element": "H" 
			},
			{
				"x": -4.9657595132,
				"y": -2.3989949038,
				"z": 0.5692493215,
				"element": "H" 
			},
			{
				"x": -3.6435190511,
				"y": -3.4658220795,
				"z": -1.2230585906,
				"element": "H" 
			},
			{
				"x": -1.2526936477,
				"y": -2.8625247376,
				"z": -1.5775522227,
				"element": "H" 
			},
			{
				"x": 1.0233958364,
				"y": -2.2076423897,
				"z": 1.2309431025,
				"element": "H" 
			},
			{
				"x": 2.1009042234,
				"y": -1.6486415295,
				"z": -1.7675336631,
				"element": "H" 
			},
			{
				"x": 1.4968651209,
				"y": 1.5135471561,
				"z": -4.6019159757,
				"element": "H" 
			},
			{
				"x": -0.3014952307,
				"y": 2.4764382202,
				"z": -3.1378860572,
				"element": "H" 
			},
			{
				"x": -0.8809980539,
				"y": 1.3587511297,
				"z": -1.0088327134,
				"element": "H" 
			}
		],
		 "valence_orbital": [ 
			{
				"type": "occ",
				"energy": -0.28322,
				"method": "rhf"
			},
			{
				"type": "occ",
				"energy": -0.27575,
				"method": "rhf"
			},
			{
				"type": "occ",
				"energy": -0.27044,
				"method": "rhf"
			},
			{
				"type": "occ",
				"energy": -0.26732,
				"method": "rhf"
			},
			{
				"type": "occ",
				"energy": -0.25412,
				"method": "rhf"
			},
			{
				"type": "unocc",
				"energy": -0.09062,
				"method": "rhf"
			},
			{
				"type": "unocc",
				"energy": -0.05447,
				"method": "rhf"
			},
			{
				"type": "unocc",
				"energy": -0.03714,
				"method": "rhf"
			},
			{
				"type": "unocc",
				"energy": -0.02373,
				"method": "rhf"
			},
			{
				"type": "unocc",
				"energy": -0.00548,
				"method": "rhf"
			}
		],
		"cosmo_sigma_profile": { 
			"-0.025": 0.0,
			"-0.024": 0.0,
			"-0.023": 0.0,
			"-0.022": 0.0,
			"-0.021": 0.0,
			"-0.02": 0.0,
			"-0.019": 0.0,
			"-0.018": 0.0,
			"-0.017": 0.0,
			"-0.016": 0.0,
			"-0.015": 0.0,
			"-0.014": 0.0,
			"-0.013": 0.0,
			"-0.012": 0.161675391698,
			"-0.011": 0.854647891398,
			"-0.01": 0.644135746433,
			"-0.009": 1.6114552932,
			"-0.008": 4.59507560049,
			"-0.007": 16.9621225532,
			"-0.006": 28.3900304585,
			"-0.005": 29.9018961262,
			"-0.004": 29.5428383817,
			"-0.003": 23.7149650669,
			"-0.002": 23.5036276784,
			"-0.001": 23.8738420589,
			"0.0": 25.5863180998,
			"0.001": 25.4877895093,
			"0.002": 20.9132493812,
			"0.003": 18.1571638023,
			"0.004": 13.9217747236,
			"0.005": 6.52823375003,
			"0.006": 7.65311660411,
			"0.007": 11.8354013021,
			"0.008": 11.0289031716,
			"0.009": 8.24924852396,
			"0.01": 7.14562937519,
			"0.011": 6.53463538453,
			"0.012": 6.69772751136,
			"0.013": 3.16532053816,
			"0.014": 0.166871747922,
			"0.015": 0.0,
			"0.016": 0.0,
			"0.017": 0.0,
			"0.018": 0.0,
			"0.019": 0.0,
			"0.02": 0.0,
			"0.021": 0.0,
			"0.022": 0.0,
			"0.023": 0.0,
			"0.024": 0.0,
			"0.025": 0.0
		}
	}
}
