{
	 "smiles": "OC1CCCCC1Cl", 
	 "Tm": 302.15, 
	 "num_atms": 19, 
	 "gaussian": { 
		 "optdone": 1, 
		 "sigma_profile": "yes", 
		 "theory": "DFT", 
		 "functional": "B3LYP", 
		 "basiset": "6-31G**", 
		 "properties": { 
			 "R2extent": 1672.4253, 
			 "electric_dipole_moment_norm": 1.85043503263, 
			 "electric_quadrupole_moment_norm": 5.70231708782, 
			 "total_energy": -770.691338964, 
			 "HOMO_LUMO_gap": 0.28566, 
			 "cosmo_polarized_energy": -6.33, 
			 "cosmo_cavitation_energy": 21.57, 
			 "cosmo_dispersion_energy": -16.45, 
			 "cosmo_repulsion_energy": 1.37, 
			 "cosmo_total_nonelectrostatic_energy": 6.49, 
			 "SMD_solvation_energy": 2.57 
		},
		"coords": [
			{
				"x": -0.9854425048,
				"y": -1.610517886,
				"z": 1.1320677924,
				"element": "O" 
			},
			{
				"x": -0.6688441602,
				"y": -0.2514489738,
				"z": 1.3960752217,
				"element": "C" 
			},
			{
				"x": -1.2200674668,
				"y": 0.6048728973,
				"z": 0.2316859611,
				"element": "C" 
			},
			{
				"x": -0.1412027,
				"y": 0.9685485414,
				"z": -0.7955728053,
				"element": "C" 
			},
			{
				"x": 0.9900752504,
				"y": 1.8033149009,
				"z": -0.1494003284,
				"element": "C" 
			},
			{
				"x": 1.2625724601,
				"y": 1.3952291539,
				"z": 1.3254386854,
				"element": "C" 
			},
			{
				"x": 0.8500763879,
				"y": -0.0562041437,
				"z": 1.5339617118,
				"element": "C" 
			},
			{
				"x": 1.3966291914,
				"y": -0.6887405667,
				"z": 3.1724638926,
				"element": "Cl" 
			},
			{
				"x": -0.6477105672,
				"y": -2.134468601,
				"z": 1.8724722187,
				"element": "H" 
			},
			{
				"x": -1.1388679505,
				"y": 0.0767045374,
				"z": 2.3354015444,
				"element": "H" 
			},
			{
				"x": -2.0364826885,
				"y": 0.0407560746,
				"z": -0.2285768071,
				"element": "H" 
			},
			{
				"x": -1.6558344126,
				"y": 1.5241148425,
				"z": 0.6411013895,
				"element": "H" 
			},
			{
				"x": -0.583281649,
				"y": 1.5201772522,
				"z": -1.6319340454,
				"element": "H" 
			},
			{
				"x": 0.268862849,
				"y": 0.0454369623,
				"z": -1.2224518251,
				"element": "H" 
			},
			{
				"x": 0.7310770651,
				"y": 2.8675630963,
				"z": -0.1759542253,
				"element": "H" 
			},
			{
				"x": 1.9064427145,
				"y": 1.6934037431,
				"z": -0.7396550475,
				"element": "H" 
			},
			{
				"x": 2.3171211081,
				"y": 1.5317393504,
				"z": 1.5784793027,
				"element": "H" 
			},
			{
				"x": 0.6890592952,
				"y": 2.0252262983,
				"z": 2.0155701373,
				"element": "H" 
			},
			{
				"x": 1.3541177777,
				"y": -0.7120074793,
				"z": 0.8205272266,
				"element": "H" 
			}
		],
		 "valence_orbital": [ 
			{
				"type": "occ",
				"energy": -0.3239,
				"method": "rhf"
			},
			{
				"type": "occ",
				"energy": -0.31869,
				"method": "rhf"
			},
			{
				"type": "occ",
				"energy": -0.29854,
				"method": "rhf"
			},
			{
				"type": "occ",
				"energy": -0.29184,
				"method": "rhf"
			},
			{
				"type": "occ",
				"energy": -0.26855,
				"method": "rhf"
			},
			{
				"type": "unocc",
				"energy": 0.01711,
				"method": "rhf"
			},
			{
				"type": "unocc",
				"energy": 0.08633,
				"method": "rhf"
			},
			{
				"type": "unocc",
				"energy": 0.08851,
				"method": "rhf"
			},
			{
				"type": "unocc",
				"energy": 0.0987,
				"method": "rhf"
			},
			{
				"type": "unocc",
				"energy": 0.13138,
				"method": "rhf"
			}
		],
		"cosmo_sigma_profile": { 
			"-0.025": 0.0,
			"-0.024": 0.0,
			"-0.023": 0.0,
			"-0.022": 0.0,
			"-0.021": 0.0,
			"-0.02": 0.0,
			"-0.019": 0.0,
			"-0.018": 0.0,
			"-0.017": 0.0,
			"-0.016": 0.0,
			"-0.015": 0.0,
			"-0.014": 0.177864093212,
			"-0.013": 0.668424967537,
			"-0.012": 0.577074726488,
			"-0.011": 0.596837566154,
			"-0.01": 1.34261769827,
			"-0.009": 0.168757220978,
			"-0.008": 0.72150020955,
			"-0.007": 1.32362987491,
			"-0.006": 2.52170263986,
			"-0.005": 4.62501840239,
			"-0.004": 13.188147921,
			"-0.003": 24.2167420533,
			"-0.002": 23.1925410798,
			"-0.001": 19.7761414088,
			"0.0": 19.5845873633,
			"0.001": 9.77593028226,
			"0.002": 5.19421584943,
			"0.003": 5.53441423937,
			"0.004": 5.61451071445,
			"0.005": 7.5325871797,
			"0.006": 7.39347349414,
			"0.007": 6.01225923929,
			"0.008": 1.07369306735,
			"0.009": 1.045955364,
			"0.01": 0.900521010782,
			"0.011": 1.1917678554,
			"0.012": 1.74112305205,
			"0.013": 1.56112663606,
			"0.014": 1.34493094442,
			"0.015": 0.00218372980564,
			"0.016": 0.0,
			"0.017": 0.0,
			"0.018": 0.0,
			"0.019": 0.0,
			"0.02": 0.0,
			"0.021": 0.0,
			"0.022": 0.0,
			"0.023": 0.0,
			"0.024": 0.0,
			"0.025": 0.0
		}
	}
}
