{
	 "smiles": "NC(=O)C1=NN(C=C1)C1=CC(N)=CC=C1", 
	 "Tm": 451.15, 
	 "num_atms": 25, 
	 "gaussian": { 
		 "optdone": 1, 
		 "sigma_profile": "yes", 
		 "theory": "DFT", 
		 "functional": "B3LYP", 
		 "basiset": "6-31G**", 
		 "properties": { 
			 "R2extent": 4376.0066, 
			 "electric_dipole_moment_norm": 5.47783508788, 
			 "electric_quadrupole_moment_norm": 33.1703029242, 
			 "total_energy": -681.314768572, 
			 "HOMO_LUMO_gap": 0.17865, 
			 "cosmo_polarized_energy": -25.17, 
			 "cosmo_cavitation_energy": 30.14, 
			 "cosmo_dispersion_energy": -22.16, 
			 "cosmo_repulsion_energy": 1.74, 
			 "cosmo_total_nonelectrostatic_energy": 9.71, 
			 "SMD_solvation_energy": 5.53 
		},
		"coords": [
			{
				"x": 2.426237629,
				"y": 4.0490911747,
				"z": -2.2322653484,
				"element": "N" 
			},
			{
				"x": 2.7288380922,
				"y": 2.8302507516,
				"z": -1.6592058861,
				"element": "C" 
			},
			{
				"x": 3.8710639828,
				"y": 2.4072399562,
				"z": -1.5870812685,
				"element": "O" 
			},
			{
				"x": 1.54554194,
				"y": 2.1105384009,
				"z": -1.0996427395,
				"element": "C" 
			},
			{
				"x": 1.632765912,
				"y": 0.8053481571,
				"z": -0.8368417064,
				"element": "N" 
			},
			{
				"x": 0.4262327414,
				"y": 0.4627887141,
				"z": -0.3434641597,
				"element": "N" 
			},
			{
				"x": -0.4305353854,
				"y": 1.5297437399,
				"z": -0.2883162304,
				"element": "C" 
			},
			{
				"x": 0.2602929288,
				"y": 2.6178821617,
				"z": -0.7694204028,
				"element": "C" 
			},
			{
				"x": 0.1627385789,
				"y": -0.8882546523,
				"z": 0.0239156231,
				"element": "C" 
			},
			{
				"x": -0.8321514307,
				"y": -1.163942412,
				"z": 0.9639832968,
				"element": "C" 
			},
			{
				"x": -1.1174299668,
				"y": -2.4925951707,
				"z": 1.3164767364,
				"element": "C" 
			},
			{
				"x": -2.1493490682,
				"y": -2.7789093655,
				"z": 2.2108410988,
				"element": "N" 
			},
			{
				"x": -0.3749324708,
				"y": -3.5269480598,
				"z": 0.7209837329,
				"element": "C" 
			},
			{
				"x": 0.6256934723,
				"y": -3.2277053355,
				"z": -0.1996519053,
				"element": "C" 
			},
			{
				"x": 0.9082926919,
				"y": -1.9125729271,
				"z": -0.5650219091,
				"element": "C" 
			},
			{
				"x": 1.4983758526,
				"y": 4.2177904989,
				"z": -2.5903043688,
				"element": "H" 
			},
			{
				"x": 3.1891034236,
				"y": 4.4889310925,
				"z": -2.7272245989,
				"element": "H" 
			},
			{
				"x": -1.4470207789,
				"y": 1.4267792555,
				"z": 0.0575917164,
				"element": "H" 
			},
			{
				"x": -0.1005666666,
				"y": 3.6329371758,
				"z": -0.8436231892,
				"element": "H" 
			},
			{
				"x": -1.3733489173,
				"y": -0.3558210643,
				"z": 1.4459677501,
				"element": "H" 
			},
			{
				"x": -2.0721266557,
				"y": -3.6695808925,
				"z": 2.6821347064,
				"element": "H" 
			},
			{
				"x": -2.3861666116,
				"y": -2.0342937934,
				"z": 2.8519194935,
				"element": "H" 
			},
			{
				"x": -0.5850800055,
				"y": -4.5595308549,
				"z": 0.986708948,
				"element": "H" 
			},
			{
				"x": 1.1961139675,
				"y": -4.0368728725,
				"z": -0.6462376888,
				"element": "H" 
			},
			{
				"x": 1.6838167445,
				"y": -1.6674936783,
				"z": -1.2786217004,
				"element": "H" 
			}
		],
		 "valence_orbital": [ 
			{
				"type": "occ",
				"energy": -0.26522,
				"method": "rhf"
			},
			{
				"type": "occ",
				"energy": -0.25634,
				"method": "rhf"
			},
			{
				"type": "occ",
				"energy": -0.24064,
				"method": "rhf"
			},
			{
				"type": "occ",
				"energy": -0.23451,
				"method": "rhf"
			},
			{
				"type": "occ",
				"energy": -0.2092,
				"method": "rhf"
			},
			{
				"type": "unocc",
				"energy": -0.03055,
				"method": "rhf"
			},
			{
				"type": "unocc",
				"energy": -0.00149,
				"method": "rhf"
			},
			{
				"type": "unocc",
				"energy": 0.01172,
				"method": "rhf"
			},
			{
				"type": "unocc",
				"energy": 0.0394,
				"method": "rhf"
			},
			{
				"type": "unocc",
				"energy": 0.07257,
				"method": "rhf"
			}
		],
		"cosmo_sigma_profile": { 
			"-0.025": 0.0,
			"-0.024": 0.0,
			"-0.023": 0.0,
			"-0.022": 0.0,
			"-0.021": 0.0,
			"-0.02": 0.0,
			"-0.019": 0.0,
			"-0.018": 0.0,
			"-0.017": 0.0,
			"-0.016": 0.0,
			"-0.015": 0.0,
			"-0.014": 1.39618896277,
			"-0.013": 3.17949872384,
			"-0.012": 5.07453069263,
			"-0.011": 5.95994867366,
			"-0.01": 7.01165806894,
			"-0.009": 9.61742812922,
			"-0.008": 8.01896416242,
			"-0.007": 7.35561390336,
			"-0.006": 9.6123420993,
			"-0.005": 12.1835744769,
			"-0.004": 11.2730519666,
			"-0.003": 9.86065032204,
			"-0.002": 10.0797663935,
			"-0.001": 9.51392010582,
			"0.0": 12.4695662154,
			"0.001": 15.1797615684,
			"0.002": 14.196925841,
			"0.003": 16.2346866459,
			"0.004": 12.8877969336,
			"0.005": 15.6788385077,
			"0.006": 7.83061903963,
			"0.007": 4.19314503659,
			"0.008": 3.23139323614,
			"0.009": 3.06603198877,
			"0.01": 3.57128317794,
			"0.011": 3.08558131586,
			"0.012": 3.1045858279,
			"0.013": 6.47547018506,
			"0.014": 5.39829583121,
			"0.015": 2.44861704209,
			"0.016": 1.3670346771,
			"0.017": 0.0281777107675,
			"0.018": 0.0,
			"0.019": 0.0,
			"0.02": 0.0,
			"0.021": 0.0,
			"0.022": 0.0,
			"0.023": 0.0,
			"0.024": 0.0,
			"0.025": 0.0
		}
	}
}
