{
	 "smiles": "O=NC1=CC=CC=C1", 
	 "Tm": 339.95, 
	 "num_atms": 13, 
	 "gaussian": { 
		 "optdone": 1, 
		 "sigma_profile": "yes", 
		 "theory": "DFT", 
		 "functional": "B3LYP", 
		 "basiset": "6-31G**", 
		 "properties": { 
			 "R2extent": 1073.0198, 
			 "electric_dipole_moment_norm": 3.73363378761, 
			 "electric_quadrupole_moment_norm": 3.32643264474, 
			 "total_energy": -361.539770078, 
			 "HOMO_LUMO_gap": 0.1198, 
			 "cosmo_polarized_energy": -6.4, 
			 "cosmo_cavitation_energy": 17.69, 
			 "cosmo_dispersion_energy": -13.14, 
			 "cosmo_repulsion_energy": 1.09, 
			 "cosmo_total_nonelectrostatic_energy": 5.65, 
			 "SMD_solvation_energy": 3.36 
		},
		"coords": [
			{
				"x": -1.34440927,
				"y": -0.3042500081,
				"z": 1.2345896115,
				"element": "O" 
			},
			{
				"x": -0.9776492689,
				"y": 0.3730479031,
				"z": 0.2856322966,
				"element": "N" 
			},
			{
				"x": 0.341589602,
				"y": 0.0642696293,
				"z": -0.2051246489,
				"element": "C" 
			},
			{
				"x": 1.1617663023,
				"y": -0.9296760865,
				"z": 0.3478361742,
				"element": "C" 
			},
			{
				"x": 2.4191114491,
				"y": -1.1490334289,
				"z": -0.1997936902,
				"element": "C" 
			},
			{
				"x": 2.8532992216,
				"y": -0.3815791849,
				"z": -1.2910184254,
				"element": "C" 
			},
			{
				"x": 2.0323309829,
				"y": 0.6075657077,
				"z": -1.8382094592,
				"element": "C" 
			},
			{
				"x": 0.7693713803,
				"y": 0.8324045578,
				"z": -1.2926917105,
				"element": "C" 
			},
			{
				"x": 0.7873175285,
				"y": -1.500251442,
				"z": 1.1910534356,
				"element": "H" 
			},
			{
				"x": 3.0687619509,
				"y": -1.9142520931,
				"z": 0.214860175,
				"element": "H" 
			},
			{
				"x": 3.8381127508,
				"y": -0.5590396026,
				"z": -1.7138297035,
				"element": "H" 
			},
			{
				"x": 2.3766902821,
				"y": 1.1965872268,
				"z": -2.6826037344,
				"element": "H" 
			},
			{
				"x": 0.0989070883,
				"y": 1.5905068214,
				"z": -1.6860003208,
				"element": "H" 
			}
		],
		 "valence_orbital": [ 
			{
				"type": "occ",
				"energy": -0.37828,
				"method": "rhf"
			},
			{
				"type": "occ",
				"energy": -0.35979,
				"method": "rhf"
			},
			{
				"type": "occ",
				"energy": -0.27453,
				"method": "rhf"
			},
			{
				"type": "occ",
				"energy": -0.27231,
				"method": "rhf"
			},
			{
				"type": "occ",
				"energy": -0.21838,
				"method": "rhf"
			},
			{
				"type": "unocc",
				"energy": -0.09858,
				"method": "rhf"
			},
			{
				"type": "unocc",
				"energy": -0.02141,
				"method": "rhf"
			},
			{
				"type": "unocc",
				"energy": 0.01102,
				"method": "rhf"
			},
			{
				"type": "unocc",
				"energy": 0.0825,
				"method": "rhf"
			},
			{
				"type": "unocc",
				"energy": 0.13093,
				"method": "rhf"
			}
		],
		"cosmo_sigma_profile": { 
			"-0.025": 0.0,
			"-0.024": 0.0,
			"-0.023": 0.0,
			"-0.022": 0.0,
			"-0.021": 0.0,
			"-0.02": 0.0,
			"-0.019": 0.0,
			"-0.018": 0.0,
			"-0.017": 0.0,
			"-0.016": 0.0,
			"-0.015": 0.0,
			"-0.014": 0.0,
			"-0.013": 0.0,
			"-0.012": 0.0,
			"-0.011": 0.0,
			"-0.01": 0.0,
			"-0.009": 0.0,
			"-0.008": 0.600848518563,
			"-0.007": 7.81654561777,
			"-0.006": 10.7324793865,
			"-0.005": 11.5386535615,
			"-0.004": 8.142701119,
			"-0.003": 7.14537680682,
			"-0.002": 8.02605755126,
			"-0.001": 11.4412517093,
			"0.0": 13.0863633147,
			"0.001": 12.5988012462,
			"0.002": 16.8865905735,
			"0.003": 9.26165581222,
			"0.004": 2.63177492919,
			"0.005": 2.86849304513,
			"0.006": 2.88211639759,
			"0.007": 4.28132828573,
			"0.008": 4.58192977219,
			"0.009": 3.12416661498,
			"0.01": 2.66834777639,
			"0.011": 1.75487284594,
			"0.012": 0.531724813635,
			"0.013": 0.0,
			"0.014": 0.0,
			"0.015": 0.0,
			"0.016": 0.0,
			"0.017": 0.0,
			"0.018": 0.0,
			"0.019": 0.0,
			"0.02": 0.0,
			"0.021": 0.0,
			"0.022": 0.0,
			"0.023": 0.0,
			"0.024": 0.0,
			"0.025": 0.0
		}
	}
}
