{
	 "smiles": "O=C1CC2(CC3=C(C2)C=CC=C3)C(=O)O1", 
	 "Tm": 438.15, 
	 "num_atms": 25, 
	 "gaussian": { 
		 "optdone": 1, 
		 "sigma_profile": "yes", 
		 "theory": "DFT", 
		 "functional": "B3LYP", 
		 "basiset": "6-31G**", 
		 "properties": { 
			 "R2extent": 3843.4551, 
			 "electric_dipole_moment_norm": 4.55166074856, 
			 "electric_quadrupole_moment_norm": 22.2234597307, 
			 "total_energy": -688.997005172, 
			 "HOMO_LUMO_gap": 0.21341, 
			 "cosmo_polarized_energy": -14.91, 
			 "cosmo_cavitation_energy": 28.64, 
			 "cosmo_dispersion_energy": -20.72, 
			 "cosmo_repulsion_energy": 1.61, 
			 "cosmo_total_nonelectrostatic_energy": 9.53, 
			 "SMD_solvation_energy": 6.21 
		},
		"coords": [
			{
				"x": -0.9503415578,
				"y": -2.2974941224,
				"z": -5.0482624939,
				"element": "O" 
			},
			{
				"x": -1.0147141297,
				"y": -1.7565312734,
				"z": -3.9830338657,
				"element": "C" 
			},
			{
				"x": -1.0764175431,
				"y": -2.3601187309,
				"z": -2.5921154421,
				"element": "C" 
			},
			{
				"x": -0.7503449379,
				"y": -1.194982325,
				"z": -1.6480936855,
				"element": "C" 
			},
			{
				"x": 0.7632897411,
				"y": -1.11397892,
				"z": -1.2321752936,
				"element": "C" 
			},
			{
				"x": 0.7300720075,
				"y": -0.4824837023,
				"z": 0.1400959741,
				"element": "C" 
			},
			{
				"x": -0.5665878517,
				"y": -0.4963781583,
				"z": 0.6647652777,
				"element": "C" 
			},
			{
				"x": -1.5360729134,
				"y": -1.1282988943,
				"z": -0.3078400657,
				"element": "C" 
			},
			{
				"x": -0.8199183289,
				"y": 0.0121539105,
				"z": 1.9370058646,
				"element": "C" 
			},
			{
				"x": 0.2405681917,
				"y": 0.5388633213,
				"z": 2.6798698247,
				"element": "C" 
			},
			{
				"x": 1.5363537102,
				"y": 0.5535175015,
				"z": 2.1545514063,
				"element": "C" 
			},
			{
				"x": 1.7893010551,
				"y": 0.0408631105,
				"z": 0.8790115428,
				"element": "C" 
			},
			{
				"x": -1.0581585554,
				"y": 0.0181046866,
				"z": -2.5299395243,
				"element": "C" 
			},
			{
				"x": -1.2413197692,
				"y": 1.1573747123,
				"z": -2.2124616176,
				"element": "O" 
			},
			{
				"x": -1.0758586295,
				"y": -0.3723429978,
				"z": -3.8676119723,
				"element": "O" 
			},
			{
				"x": -2.0983632521,
				"y": -2.7295219427,
				"z": -2.4404627128,
				"element": "H" 
			},
			{
				"x": -0.4038665746,
				"y": -3.2172819679,
				"z": -2.5182382321,
				"element": "H" 
			},
			{
				"x": 1.1826492666,
				"y": -2.1284382741,
				"z": -1.1889963392,
				"element": "H" 
			},
			{
				"x": 1.3695402987,
				"y": -0.5543606105,
				"z": -1.9532538983,
				"element": "H" 
			},
			{
				"x": -2.4661462624,
				"y": -0.5604320656,
				"z": -0.4128193472,
				"element": "H" 
			},
			{
				"x": -1.8091431824,
				"y": -2.1426370263,
				"z": 0.0136121913,
				"element": "H" 
			},
			{
				"x": -1.8270108477,
				"y": 0.0095333928,
				"z": 2.3456003668,
				"element": "H" 
			},
			{
				"x": 0.0552556293,
				"y": 0.9465513991,
				"z": 3.6694015783,
				"element": "H" 
			},
			{
				"x": 2.3507680344,
				"y": 0.9723046907,
				"z": 2.7385046856,
				"element": "H" 
			},
			{
				"x": 2.796566401,
				"y": 0.0584142862,
				"z": 0.471085778,
				"element": "H" 
			}
		],
		 "valence_orbital": [ 
			{
				"type": "occ",
				"energy": -0.3319,
				"method": "rhf"
			},
			{
				"type": "occ",
				"energy": -0.30417,
				"method": "rhf"
			},
			{
				"type": "occ",
				"energy": -0.28211,
				"method": "rhf"
			},
			{
				"type": "occ",
				"energy": -0.25482,
				"method": "rhf"
			},
			{
				"type": "occ",
				"energy": -0.24439,
				"method": "rhf"
			},
			{
				"type": "unocc",
				"energy": -0.03098,
				"method": "rhf"
			},
			{
				"type": "unocc",
				"energy": -0.01471,
				"method": "rhf"
			},
			{
				"type": "unocc",
				"energy": -0.01184,
				"method": "rhf"
			},
			{
				"type": "unocc",
				"energy": 0.00464,
				"method": "rhf"
			},
			{
				"type": "unocc",
				"energy": 0.07142,
				"method": "rhf"
			}
		],
		"cosmo_sigma_profile": { 
			"-0.025": 0.0,
			"-0.024": 0.0,
			"-0.023": 0.0,
			"-0.022": 0.0,
			"-0.021": 0.0,
			"-0.02": 0.0,
			"-0.019": 0.0,
			"-0.018": 0.0,
			"-0.017": 0.0,
			"-0.016": 0.0,
			"-0.015": 0.0,
			"-0.014": 0.0,
			"-0.013": 0.0,
			"-0.012": 0.127572574335,
			"-0.011": 0.832614212159,
			"-0.01": 1.58816679172,
			"-0.009": 3.1828556754,
			"-0.008": 7.57954827261,
			"-0.007": 9.33058897652,
			"-0.006": 15.2838152554,
			"-0.005": 22.008705879,
			"-0.004": 20.167938473,
			"-0.003": 18.7304962282,
			"-0.002": 13.5795291978,
			"-0.001": 10.0432364566,
			"0.0": 8.30807117258,
			"0.001": 8.13150523611,
			"0.002": 8.43722650794,
			"0.003": 9.47545946444,
			"0.004": 9.9924516922,
			"0.005": 11.2371390697,
			"0.006": 13.9769554459,
			"0.007": 8.06206964455,
			"0.008": 5.64073876146,
			"0.009": 7.38299866414,
			"0.01": 11.0062722309,
			"0.011": 3.96263704494,
			"0.012": 0.032561917345,
			"0.013": 0.0,
			"0.014": 0.0,
			"0.015": 0.0,
			"0.016": 0.0,
			"0.017": 0.0,
			"0.018": 0.0,
			"0.019": 0.0,
			"0.02": 0.0,
			"0.021": 0.0,
			"0.022": 0.0,
			"0.023": 0.0,
			"0.024": 0.0,
			"0.025": 0.0
		}
	}
}
