{
	 "smiles": "CC1C[C@H](C)C(=O)[C@@H](C1)[C@H](O)CC1CC(=O)NC(=O)C1", 
	 "Tm": 392.15, 
	 "num_atms": 43, 
	 "gaussian": { 
		 "optdone": 1, 
		 "sigma_profile": "yes", 
		 "theory": "DFT", 
		 "functional": "B3LYP", 
		 "basiset": "6-31G**", 
		 "properties": { 
			 "R2extent": 8560.3605, 
			 "electric_dipole_moment_norm": 6.08784811654, 
			 "electric_quadrupole_moment_norm": 20.1483960957, 
			 "total_energy": -941.143430699, 
			 "HOMO_LUMO_gap": 0.21805, 
			 "cosmo_polarized_energy": -21.2, 
			 "cosmo_cavitation_energy": 41.46, 
			 "cosmo_dispersion_energy": -29.0, 
			 "cosmo_repulsion_energy": 2.22, 
			 "cosmo_total_nonelectrostatic_energy": 14.67, 
			 "SMD_solvation_energy": 8.1 
		},
		"coords": [
			{
				"x": -2.3636394226,
				"y": 3.2048215652,
				"z": 1.5181471565,
				"element": "C" 
			},
			{
				"x": -1.6516700288,
				"y": 1.8919470605,
				"z": 1.8755383089,
				"element": "C" 
			},
			{
				"x": -0.2331858374,
				"y": 2.1512687205,
				"z": 2.4333909575,
				"element": "C" 
			},
			{
				"x": 0.6914932989,
				"y": 0.9239043546,
				"z": 2.3127920246,
				"element": "C" 
			},
			{
				"x": 2.0266061351,
				"y": 1.08485386,
				"z": 3.0430269384,
				"element": "C" 
			},
			{
				"x": 0.88968226,
				"y": 0.5755067565,
				"z": 0.8361067199,
				"element": "C" 
			},
			{
				"x": 1.9452572391,
				"y": 0.1305971635,
				"z": 0.4159067077,
				"element": "O" 
			},
			{
				"x": -0.3076541133,
				"y": 0.8056470563,
				"z": -0.0982045978,
				"element": "C" 
			},
			{
				"x": -1.6270363984,
				"y": 0.8714062759,
				"z": 0.7017909374,
				"element": "C" 
			},
			{
				"x": -0.0855642389,
				"y": 2.0402182487,
				"z": -1.0182622428,
				"element": "C" 
			},
			{
				"x": -1.283519502,
				"y": 2.1628253649,
				"z": -1.7938696158,
				"element": "O" 
			},
			{
				"x": 1.185674583,
				"y": 2.0485958853,
				"z": -1.8960161769,
				"element": "C" 
			},
			{
				"x": 1.3212129491,
				"y": 1.1395178033,
				"z": -3.1404679055,
				"element": "C" 
			},
			{
				"x": 1.2493898188,
				"y": -0.3746789768,
				"z": -2.8821466205,
				"element": "C" 
			},
			{
				"x": 1.5681598581,
				"y": -1.1817340334,
				"z": -4.1266553756,
				"element": "C" 
			},
			{
				"x": 2.0746190705,
				"y": -2.2871732867,
				"z": -4.1178756084,
				"element": "O" 
			},
			{
				"x": 1.2047895008,
				"y": -0.5800188972,
				"z": -5.3358385801,
				"element": "N" 
			},
			{
				"x": 0.6232487697,
				"y": 0.6716630967,
				"z": -5.5430650282,
				"element": "C" 
			},
			{
				"x": 0.3510014016,
				"y": 1.0485697127,
				"z": -6.6677649299,
				"element": "O" 
			},
			{
				"x": 0.3575477765,
				"y": 1.4850824335,
				"z": -4.2894208287,
				"element": "C" 
			},
			{
				"x": -3.405664418,
				"y": 3.0218442511,
				"z": 1.2359297149,
				"element": "H" 
			},
			{
				"x": -2.3631600226,
				"y": 3.8969920005,
				"z": 2.3678819579,
				"element": "H" 
			},
			{
				"x": -1.880723294,
				"y": 3.7098146742,
				"z": 0.6748741971,
				"element": "H" 
			},
			{
				"x": -2.2328703134,
				"y": 1.4236285768,
				"z": 2.6811995404,
				"element": "H" 
			},
			{
				"x": -0.296534648,
				"y": 2.4596163018,
				"z": 3.4832527751,
				"element": "H" 
			},
			{
				"x": 0.2336178579,
				"y": 2.9953641274,
				"z": 1.9059653087,
				"element": "H" 
			},
			{
				"x": 0.1577473001,
				"y": 0.0614603238,
				"z": 2.7469383293,
				"element": "H" 
			},
			{
				"x": 2.5696422648,
				"y": 1.9614323965,
				"z": 2.6733499956,
				"element": "H" 
			},
			{
				"x": 1.8634172672,
				"y": 1.2151172878,
				"z": 4.1171676732,
				"element": "H" 
			},
			{
				"x": 2.6647779972,
				"y": 0.2131868679,
				"z": 2.8855677864,
				"element": "H" 
			},
			{
				"x": -0.3526883323,
				"y": -0.0742690251,
				"z": -0.7459118931,
				"element": "H" 
			},
			{
				"x": -1.8008390115,
				"y": -0.1326604873,
				"z": 1.1066136031,
				"element": "H" 
			},
			{
				"x": -2.4489043758,
				"y": 1.0685018419,
				"z": 0.0096234334,
				"element": "H" 
			},
			{
				"x": 0.0048311576,
				"y": 2.9193768925,
				"z": -0.361291215,
				"element": "H" 
			},
			{
				"x": -1.2472991875,
				"y": 3.0036879333,
				"z": -2.2683626353,
				"element": "H" 
			},
			{
				"x": 1.3052745397,
				"y": 3.0819864477,
				"z": -2.2545697666,
				"element": "H" 
			},
			{
				"x": 2.0431700691,
				"y": 1.8601245058,
				"z": -1.2436294281,
				"element": "H" 
			},
			{
				"x": 2.3371906014,
				"y": 1.3441064555,
				"z": -3.5095648634,
				"element": "H" 
			},
			{
				"x": 0.2313811981,
				"y": -0.660780287,
				"z": -2.5868454191,
				"element": "H" 
			},
			{
				"x": 1.9185834676,
				"y": -0.6954918427,
				"z": -2.0818579822,
				"element": "H" 
			},
			{
				"x": 1.3890507474,
				"y": -1.1246050336,
				"z": -6.1724247771,
				"element": "H" 
			},
			{
				"x": -0.6765162446,
				"y": 1.2988031124,
				"z": -3.9767290197,
				"element": "H" 
			},
			{
				"x": 0.4206022593,
				"y": 2.5373425148,
				"z": -4.5829895562,
				"element": "H" 
			}
		],
		 "valence_orbital": [ 
			{
				"type": "occ",
				"energy": -0.28559,
				"method": "rhf"
			},
			{
				"type": "occ",
				"energy": -0.27885,
				"method": "rhf"
			},
			{
				"type": "occ",
				"energy": -0.27074,
				"method": "rhf"
			},
			{
				"type": "occ",
				"energy": -0.2512,
				"method": "rhf"
			},
			{
				"type": "occ",
				"energy": -0.24963,
				"method": "rhf"
			},
			{
				"type": "unocc",
				"energy": -0.03158,
				"method": "rhf"
			},
			{
				"type": "unocc",
				"energy": -0.01892,
				"method": "rhf"
			},
			{
				"type": "unocc",
				"energy": 0.03374,
				"method": "rhf"
			},
			{
				"type": "unocc",
				"energy": 0.04618,
				"method": "rhf"
			},
			{
				"type": "unocc",
				"energy": 0.07215,
				"method": "rhf"
			}
		],
		"cosmo_sigma_profile": { 
			"-0.025": 0.0,
			"-0.024": 0.0,
			"-0.023": 0.0,
			"-0.022": 0.0,
			"-0.021": 0.0,
			"-0.02": 0.0,
			"-0.019": 0.0,
			"-0.018": 0.0,
			"-0.017": 0.0,
			"-0.016": 0.133071098391,
			"-0.015": 1.09324218503,
			"-0.014": 2.30407013567,
			"-0.013": 1.62364839041,
			"-0.012": 1.51700331574,
			"-0.011": 1.75557496794,
			"-0.01": 1.88533277757,
			"-0.009": 1.82548870228,
			"-0.008": 2.88729178081,
			"-0.007": 7.2853583309,
			"-0.006": 10.4922207055,
			"-0.005": 20.1253353813,
			"-0.004": 23.4337469047,
			"-0.003": 33.6021831273,
			"-0.002": 37.0711598375,
			"-0.001": 35.0062264254,
			"0.0": 28.0314778249,
			"0.001": 22.9728556062,
			"0.002": 12.0333699676,
			"0.003": 6.49458541441,
			"0.004": 7.49045394045,
			"0.005": 5.37237089106,
			"0.006": 5.75660729528,
			"0.007": 4.78042585607,
			"0.008": 5.28488436021,
			"0.009": 6.77362108466,
			"0.01": 6.09464448434,
			"0.011": 7.27495664134,
			"0.012": 13.4745096338,
			"0.013": 6.47916241333,
			"0.014": 0.585289817931,
			"0.015": 0.0,
			"0.016": 0.0,
			"0.017": 0.0,
			"0.018": 0.0,
			"0.019": 0.0,
			"0.02": 0.0,
			"0.021": 0.0,
			"0.022": 0.0,
			"0.023": 0.0,
			"0.024": 0.0,
			"0.025": 0.0
		}
	}
}
