{
	 "smiles": "CC(C)(C)OC(=O)NC(CC1=C(F)C=CC=C1)C(O)=O", 
	 "Tm": 367.15, 
	 "num_atms": 38, 
	 "gaussian": { 
		 "optdone": 1, 
		 "sigma_profile": "yes", 
		 "theory": "DFT", 
		 "functional": "B3LYP", 
		 "basiset": "6-31G**", 
		 "properties": { 
			 "R2extent": 6276.2602, 
			 "electric_dipole_moment_norm": 2.35713735705, 
			 "electric_quadrupole_moment_norm": 15.091093901, 
			 "total_energy": -999.882504461, 
			 "HOMO_LUMO_gap": 0.22467, 
			 "cosmo_polarized_energy": -14.88, 
			 "cosmo_cavitation_energy": 40.79, 
			 "cosmo_dispersion_energy": -27.37, 
			 "cosmo_repulsion_energy": 2.1, 
			 "cosmo_total_nonelectrostatic_energy": 15.52, 
			 "SMD_solvation_energy": 8.6 
		},
		"coords": [
			{
				"x": -2.0897625563,
				"y": -2.7876740759,
				"z": -2.9598739455,
				"element": "C" 
			},
			{
				"x": -2.3975343385,
				"y": -1.5488704603,
				"z": -2.1144499713,
				"element": "C" 
			},
			{
				"x": -3.4001620534,
				"y": -0.6366719699,
				"z": -2.8291614205,
				"element": "C" 
			},
			{
				"x": -2.8704827482,
				"y": -1.9503540555,
				"z": -0.712715397,
				"element": "C" 
			},
			{
				"x": -1.0867103293,
				"y": -0.8880313943,
				"z": -2.0300303428,
				"element": "O" 
			},
			{
				"x": -0.9250426582,
				"y": 0.2367355981,
				"z": -1.2975922413,
				"element": "C" 
			},
			{
				"x": -1.801620762,
				"y": 0.8763550404,
				"z": -0.7329443273,
				"element": "O" 
			},
			{
				"x": 0.39387689,
				"y": 0.5837775109,
				"z": -1.2769627395,
				"element": "N" 
			},
			{
				"x": 0.849702458,
				"y": 1.7349762454,
				"z": -0.5369519493,
				"element": "C" 
			},
			{
				"x": 0.8313560753,
				"y": 1.5263785793,
				"z": 1.0093018661,
				"element": "C" 
			},
			{
				"x": 1.7149002208,
				"y": 0.4023412953,
				"z": 1.4959717588,
				"element": "C" 
			},
			{
				"x": 1.2362319533,
				"y": -0.9073677018,
				"z": 1.5944189989,
				"element": "C" 
			},
			{
				"x": -0.0563852767,
				"y": -1.1574067683,
				"z": 1.2724513436,
				"element": "F" 
			},
			{
				"x": 2.018795453,
				"y": -1.9712377162,
				"z": 2.0260207252,
				"element": "C" 
			},
			{
				"x": 3.3463920146,
				"y": -1.7299391337,
				"z": 2.3803825735,
				"element": "C" 
			},
			{
				"x": 3.8630293448,
				"y": -0.4353652424,
				"z": 2.3026573702,
				"element": "C" 
			},
			{
				"x": 3.0509829587,
				"y": 0.6125358937,
				"z": 1.8670602334,
				"element": "C" 
			},
			{
				"x": 2.2383006927,
				"y": 2.0890763596,
				"z": -1.0452442051,
				"element": "C" 
			},
			{
				"x": 2.6997524806,
				"y": 3.2308188304,
				"z": -0.4893299777,
				"element": "O" 
			},
			{
				"x": 2.8770611665,
				"y": 1.4398484626,
				"z": -1.8441176759,
				"element": "O" 
			},
			{
				"x": -1.6949944702,
				"y": -2.4984435845,
				"z": -3.9382402192,
				"element": "H" 
			},
			{
				"x": -1.3486748605,
				"y": -3.4201166277,
				"z": -2.4624828442,
				"element": "H" 
			},
			{
				"x": -3.0005589481,
				"y": -3.3742857315,
				"z": -3.1128028534,
				"element": "H" 
			},
			{
				"x": -4.3430680985,
				"y": -1.1724580749,
				"z": -2.980933066,
				"element": "H" 
			},
			{
				"x": -3.594386219,
				"y": 0.2613170801,
				"z": -2.2422151405,
				"element": "H" 
			},
			{
				"x": -3.0143027276,
				"y": -0.3433550038,
				"z": -3.810732525,
				"element": "H" 
			},
			{
				"x": -3.7609615232,
				"y": -2.5825307824,
				"z": -0.7918479221,
				"element": "H" 
			},
			{
				"x": -3.1124188627,
				"y": -1.0715061677,
				"z": -0.1147088107,
				"element": "H" 
			},
			{
				"x": -2.0884421235,
				"y": -2.5172578834,
				"z": -0.1986817733,
				"element": "H" 
			},
			{
				"x": 1.0746589079,
				"y": 0.0439128809,
				"z": -1.7918519191,
				"element": "H" 
			},
			{
				"x": 0.1889431604,
				"y": 2.5861917491,
				"z": -0.7442232836,
				"element": "H" 
			},
			{
				"x": 1.1302754138,
				"y": 2.4671206714,
				"z": 1.4804724338,
				"element": "H" 
			},
			{
				"x": -0.2113252848,
				"y": 1.3346045524,
				"z": 1.2705583585,
				"element": "H" 
			},
			{
				"x": 1.5800389993,
				"y": -2.9617147743,
				"z": 2.0812744972,
				"element": "H" 
			},
			{
				"x": 3.9702039934,
				"y": -2.5512820889,
				"z": 2.7197527901,
				"element": "H" 
			},
			{
				"x": 4.8931724089,
				"y": -0.2407801192,
				"z": 2.5846687314,
				"element": "H" 
			},
			{
				"x": 3.4516329827,
				"y": 1.6214276106,
				"z": 1.8143631936,
				"element": "H" 
			},
			{
				"x": 3.5857262658,
				"y": 3.3769309961,
				"z": -0.8618603242,
				"element": "H" 
			}
		],
		 "valence_orbital": [ 
			{
				"type": "occ",
				"energy": -0.28132,
				"method": "rhf"
			},
			{
				"type": "occ",
				"energy": -0.26135,
				"method": "rhf"
			},
			{
				"type": "occ",
				"energy": -0.25879,
				"method": "rhf"
			},
			{
				"type": "occ",
				"energy": -0.24888,
				"method": "rhf"
			},
			{
				"type": "occ",
				"energy": -0.24134,
				"method": "rhf"
			},
			{
				"type": "unocc",
				"energy": -0.01667,
				"method": "rhf"
			},
			{
				"type": "unocc",
				"energy": -0.0045,
				"method": "rhf"
			},
			{
				"type": "unocc",
				"energy": 0.00182,
				"method": "rhf"
			},
			{
				"type": "unocc",
				"energy": 0.05885,
				"method": "rhf"
			},
			{
				"type": "unocc",
				"energy": 0.06276,
				"method": "rhf"
			}
		],
		"cosmo_sigma_profile": { 
			"-0.025": 0.0,
			"-0.024": 0.0,
			"-0.023": 0.0,
			"-0.022": 0.0,
			"-0.021": 0.0,
			"-0.02": 0.0,
			"-0.019": 0.499671378858,
			"-0.018": 1.22538834101,
			"-0.017": 0.601148605934,
			"-0.016": 0.95370935056,
			"-0.015": 0.939021389773,
			"-0.014": 0.0967727228628,
			"-0.013": 0.530306499427,
			"-0.012": 1.09613566372,
			"-0.011": 1.09532539675,
			"-0.01": 1.14307350739,
			"-0.009": 1.22129044076,
			"-0.008": 2.40230945776,
			"-0.007": 4.5032319866,
			"-0.006": 10.0673410184,
			"-0.005": 13.4370643419,
			"-0.004": 25.5387381609,
			"-0.003": 28.0674624944,
			"-0.002": 27.827863109,
			"-0.001": 26.7087696331,
			"0.0": 35.0495938965,
			"0.001": 32.48064387,
			"0.002": 19.2193078466,
			"0.003": 17.6666192571,
			"0.004": 19.5112534169,
			"0.005": 13.8710275404,
			"0.006": 7.2429340649,
			"0.007": 5.75790736048,
			"0.008": 4.38298209732,
			"0.009": 3.74696564667,
			"0.01": 4.66635857001,
			"0.011": 4.15996724094,
			"0.012": 2.00479990913,
			"0.013": 2.32078800556,
			"0.014": 0.4295477623,
			"0.015": 0.0,
			"0.016": 0.0,
			"0.017": 0.0,
			"0.018": 0.0,
			"0.019": 0.0,
			"0.02": 0.0,
			"0.021": 0.0,
			"0.022": 0.0,
			"0.023": 0.0,
			"0.024": 0.0,
			"0.025": 0.0
		}
	}
}
