{
	 "smiles": "ClCC(=O)NC(=O)NCCC1=CCCCC1", 
	 "Tm": 474.15, 
	 "num_atms": 33, 
	 "gaussian": { 
		 "optdone": 1, 
		 "sigma_profile": "yes", 
		 "theory": "DFT", 
		 "functional": "B3LYP", 
		 "basiset": "6-31G**", 
		 "properties": { 
			 "R2extent": 7239.6003, 
			 "electric_dipole_moment_norm": 0.374860013872, 
			 "electric_quadrupole_moment_norm": 20.9850858316, 
			 "total_energy": -1149.60009506, 
			 "HOMO_LUMO_gap": 0.21167, 
			 "cosmo_polarized_energy": -16.79, 
			 "cosmo_cavitation_energy": 37.08, 
			 "cosmo_dispersion_energy": -26.46, 
			 "cosmo_repulsion_energy": 2.14, 
			 "cosmo_total_nonelectrostatic_energy": 12.76, 
			 "SMD_solvation_energy": 5.92 
		},
		"coords": [
			{
				"x": 1.7904711422,
				"y": 3.8306191947,
				"z": -4.713385108,
				"element": "Cl" 
			},
			{
				"x": 0.5324893017,
				"y": 2.5863586427,
				"z": -4.9462719407,
				"element": "C" 
			},
			{
				"x": 0.184934131,
				"y": 1.8381244868,
				"z": -3.6510588938,
				"element": "C" 
			},
			{
				"x": 0.6483038056,
				"y": 2.1258691452,
				"z": -2.5600794586,
				"element": "O" 
			},
			{
				"x": -0.7141923016,
				"y": 0.8208579304,
				"z": -3.8691139181,
				"element": "N" 
			},
			{
				"x": -1.3191400629,
				"y": -0.0812483593,
				"z": -2.9330751866,
				"element": "C" 
			},
			{
				"x": -2.1213470536,
				"y": -0.8964088453,
				"z": -3.3666463071,
				"element": "O" 
			},
			{
				"x": -0.9275031981,
				"y": 0.0686085926,
				"z": -1.6505742892,
				"element": "N" 
			},
			{
				"x": -1.4527640047,
				"y": -0.7851420073,
				"z": -0.5909715598,
				"element": "C" 
			},
			{
				"x": -0.3475679568,
				"y": -1.3100144461,
				"z": 0.3284549737,
				"element": "C" 
			},
			{
				"x": 0.3784761561,
				"y": -0.2966399219,
				"z": 1.1931963167,
				"element": "C" 
			},
			{
				"x": 0.0035411703,
				"y": 0.9844972084,
				"z": 1.3258823742,
				"element": "C" 
			},
			{
				"x": 0.6877154083,
				"y": 1.987744328,
				"z": 2.2236210358,
				"element": "C" 
			},
			{
				"x": 1.6357893257,
				"y": 1.3239836935,
				"z": 3.2320232524,
				"element": "C" 
			},
			{
				"x": 2.4733915142,
				"y": 0.239606709,
				"z": 2.5455474986,
				"element": "C" 
			},
			{
				"x": 1.5710300547,
				"y": -0.8510873888,
				"z": 1.951177385,
				"element": "C" 
			},
			{
				"x": 0.890487544,
				"y": 1.8810338826,
				"z": -5.700576335,
				"element": "H" 
			},
			{
				"x": -0.3627266436,
				"y": 3.08089145,
				"z": -5.3328500766,
				"element": "H" 
			},
			{
				"x": -1.0536544566,
				"y": 0.6437212179,
				"z": -4.8058356678,
				"element": "H" 
			},
			{
				"x": -0.2454952077,
				"y": 0.7927673151,
				"z": -1.4444822469,
				"element": "H" 
			},
			{
				"x": -1.9610412273,
				"y": -1.6178662522,
				"z": -1.0803073311,
				"element": "H" 
			},
			{
				"x": -2.2090841896,
				"y": -0.2431930973,
				"z": -0.0077275997,
				"element": "H" 
			},
			{
				"x": 0.3885360699,
				"y": -1.8463801949,
				"z": -0.2867445129,
				"element": "H" 
			},
			{
				"x": -0.7890134842,
				"y": -2.0752295343,
				"z": 0.9853912972,
				"element": "H" 
			},
			{
				"x": -0.8507220634,
				"y": 1.360680878,
				"z": 0.7658092095,
				"element": "H" 
			},
			{
				"x": 1.2426915958,
				"y": 2.7071865355,
				"z": 1.6022521789,
				"element": "H" 
			},
			{
				"x": -0.0706366492,
				"y": 2.582357332,
				"z": 2.7499871141,
				"element": "H" 
			},
			{
				"x": 2.2806463354,
				"y": 2.0771273772,
				"z": 3.6988784268,
				"element": "H" 
			},
			{
				"x": 1.0470879752,
				"y": 0.8671884784,
				"z": 4.0389921136,
				"element": "H" 
			},
			{
				"x": 3.0653346244,
				"y": 0.6971378604,
				"z": 1.7418294661,
				"element": "H" 
			},
			{
				"x": 3.1867857925,
				"y": -0.2060678941,
				"z": 3.2481982187,
				"element": "H" 
			},
			{
				"x": 1.2061791036,
				"y": -1.5139017603,
				"z": 2.7519034951,
				"element": "H" 
			},
			{
				"x": 2.1555974484,
				"y": -1.4990825566,
				"z": 1.2838560754,
				"element": "H" 
			}
		],
		 "valence_orbital": [ 
			{
				"type": "occ",
				"energy": -0.29359,
				"method": "rhf"
			},
			{
				"type": "occ",
				"energy": -0.29084,
				"method": "rhf"
			},
			{
				"type": "occ",
				"energy": -0.27097,
				"method": "rhf"
			},
			{
				"type": "occ",
				"energy": -0.25501,
				"method": "rhf"
			},
			{
				"type": "occ",
				"energy": -0.23315,
				"method": "rhf"
			},
			{
				"type": "unocc",
				"energy": -0.02148,
				"method": "rhf"
			},
			{
				"type": "unocc",
				"energy": 0.0122,
				"method": "rhf"
			},
			{
				"type": "unocc",
				"energy": 0.0261,
				"method": "rhf"
			},
			{
				"type": "unocc",
				"energy": 0.06356,
				"method": "rhf"
			},
			{
				"type": "unocc",
				"energy": 0.06949,
				"method": "rhf"
			}
		],
		"cosmo_sigma_profile": { 
			"-0.025": 0.0,
			"-0.024": 0.0,
			"-0.023": 0.0,
			"-0.022": 0.0,
			"-0.021": 0.0,
			"-0.02": 0.0,
			"-0.019": 0.0,
			"-0.018": 0.0,
			"-0.017": 0.13840169513,
			"-0.016": 1.16686551223,
			"-0.015": 1.71164373811,
			"-0.014": 0.942907619709,
			"-0.013": 1.47713170794,
			"-0.012": 1.86756449704,
			"-0.011": 2.35094302295,
			"-0.01": 4.90726298361,
			"-0.009": 4.73405484123,
			"-0.008": 3.62490146665,
			"-0.007": 3.49785393923,
			"-0.006": 3.27468439498,
			"-0.005": 3.45813620931,
			"-0.004": 13.2391759173,
			"-0.003": 25.1217046949,
			"-0.002": 37.2690645413,
			"-0.001": 39.4128541837,
			"0.0": 37.5972563322,
			"0.001": 25.4776149571,
			"0.002": 12.0542772349,
			"0.003": 9.60983778713,
			"0.004": 8.71662004247,
			"0.005": 12.1314268433,
			"0.006": 7.32883553912,
			"0.007": 4.08322175916,
			"0.008": 3.51403379862,
			"0.009": 3.45488565351,
			"0.01": 3.88523719063,
			"0.011": 3.28837892786,
			"0.012": 4.03662779165,
			"0.013": 6.98131098832,
			"0.014": 2.14358444073,
			"0.015": 0.0,
			"0.016": 0.0,
			"0.017": 0.0,
			"0.018": 0.0,
			"0.019": 0.0,
			"0.02": 0.0,
			"0.021": 0.0,
			"0.022": 0.0,
			"0.023": 0.0,
			"0.024": 0.0,
			"0.025": 0.0
		}
	}
}
