{
	 "smiles": "OC(=O)CN1N=CC2=C1C=CC=C2", 
	 "Tm": 462.15, 
	 "num_atms": 21, 
	 "gaussian": { 
		 "optdone": 1, 
		 "sigma_profile": "yes", 
		 "theory": "DFT", 
		 "functional": "B3LYP", 
		 "basiset": "6-31G**", 
		 "properties": { 
			 "R2extent": 2929.7707, 
			 "electric_dipole_moment_norm": 5.6326321822, 
			 "electric_quadrupole_moment_norm": 23.1032998667, 
			 "total_energy": -607.725675009, 
			 "HOMO_LUMO_gap": 0.18419, 
			 "cosmo_polarized_energy": -12.91, 
			 "cosmo_cavitation_energy": 25.28, 
			 "cosmo_dispersion_energy": -18.99, 
			 "cosmo_repulsion_energy": 1.49, 
			 "cosmo_total_nonelectrostatic_energy": 7.78, 
			 "SMD_solvation_energy": 4.9 
		},
		"coords": [
			{
				"x": -3.6870664777,
				"y": -1.1053155253,
				"z": 1.5692484937,
				"element": "O" 
			},
			{
				"x": -3.5732926993,
				"y": 0.220119261,
				"z": 1.4818134729,
				"element": "C" 
			},
			{
				"x": -4.3619851636,
				"y": 0.9867995165,
				"z": 1.9814031411,
				"element": "O" 
			},
			{
				"x": -2.4149694195,
				"y": 0.776651828,
				"z": 0.6254010503,
				"element": "C" 
			},
			{
				"x": -1.2241692322,
				"y": -0.0551885884,
				"z": 0.5431910903,
				"element": "N" 
			},
			{
				"x": -1.3483530293,
				"y": -1.3963424935,
				"z": 0.3283852533,
				"element": "N" 
			},
			{
				"x": -0.1272852028,
				"y": -1.8855812279,
				"z": 0.1956074164,
				"element": "C" 
			},
			{
				"x": 0.8478347079,
				"y": -0.8531451059,
				"z": 0.2991041579,
				"element": "C" 
			},
			{
				"x": 0.0918884211,
				"y": 0.3283482246,
				"z": 0.5186727804,
				"element": "C" 
			},
			{
				"x": 0.703074824,
				"y": 1.585917886,
				"z": 0.6671721642,
				"element": "C" 
			},
			{
				"x": 2.0860129642,
				"y": 1.6219932401,
				"z": 0.600085943,
				"element": "C" 
			},
			{
				"x": 2.8568627289,
				"y": 0.452284269,
				"z": 0.3878793518,
				"element": "C" 
			},
			{
				"x": 2.2535776088,
				"y": -0.7834084063,
				"z": 0.2363319543,
				"element": "C" 
			},
			{
				"x": -2.9381295813,
				"y": -1.5377543222,
				"z": 1.0851877859,
				"element": "H" 
			},
			{
				"x": -2.1376572135,
				"y": 1.7373228983,
				"z": 1.0579931541,
				"element": "H" 
			},
			{
				"x": -2.8166006697,
				"y": 0.9642021327,
				"z": -0.3796837286,
				"element": "H" 
			},
			{
				"x": 0.0152498603,
				"y": -2.9459822723,
				"z": 0.0381548504,
				"element": "H" 
			},
			{
				"x": 0.1250644286,
				"y": 2.4900928327,
				"z": 0.826403946,
				"element": "H" 
			},
			{
				"x": 2.5953720431,
				"y": 2.5745134197,
				"z": 0.7119042363,
				"element": "H" 
			},
			{
				"x": 3.9382736096,
				"y": 0.534774748,
				"z": 0.3434520949,
				"element": "H" 
			},
			{
				"x": 2.8455974923,
				"y": -1.6787023149,
				"z": 0.0722913915,
				"element": "H" 
			}
		],
		 "valence_orbital": [ 
			{
				"type": "occ",
				"energy": -0.31,
				"method": "rhf"
			},
			{
				"type": "occ",
				"energy": -0.30448,
				"method": "rhf"
			},
			{
				"type": "occ",
				"energy": -0.26997,
				"method": "rhf"
			},
			{
				"type": "occ",
				"energy": -0.26142,
				"method": "rhf"
			},
			{
				"type": "occ",
				"energy": -0.23508,
				"method": "rhf"
			},
			{
				"type": "unocc",
				"energy": -0.05089,
				"method": "rhf"
			},
			{
				"type": "unocc",
				"energy": -0.00145,
				"method": "rhf"
			},
			{
				"type": "unocc",
				"energy": 0.01394,
				"method": "rhf"
			},
			{
				"type": "unocc",
				"energy": 0.03193,
				"method": "rhf"
			},
			{
				"type": "unocc",
				"energy": 0.07818,
				"method": "rhf"
			}
		],
		"cosmo_sigma_profile": { 
			"-0.025": 0.0,
			"-0.024": 0.0,
			"-0.023": 0.0,
			"-0.022": 0.0,
			"-0.021": 0.0,
			"-0.02": 0.0,
			"-0.019": 0.0,
			"-0.018": 0.0,
			"-0.017": 0.0,
			"-0.016": 0.0,
			"-0.015": 0.0,
			"-0.014": 0.0,
			"-0.013": 0.0,
			"-0.012": 0.0,
			"-0.011": 0.0,
			"-0.01": 0.595809189451,
			"-0.009": 5.52476012808,
			"-0.008": 8.00193135087,
			"-0.007": 8.64458578618,
			"-0.006": 15.216580641,
			"-0.005": 14.8688569139,
			"-0.004": 15.0721541396,
			"-0.003": 12.1102343526,
			"-0.002": 10.2005058952,
			"-0.001": 10.5703999777,
			"0.0": 10.258871049,
			"0.001": 12.552375091,
			"0.002": 14.6373289588,
			"0.003": 13.2028877318,
			"0.004": 12.8761659363,
			"0.005": 9.10004020271,
			"0.006": 2.61403886162,
			"0.007": 2.55833756639,
			"0.008": 3.315034782,
			"0.009": 3.51327079895,
			"0.01": 4.60146807952,
			"0.011": 5.28611242952,
			"0.012": 5.67054030311,
			"0.013": 2.11003874695,
			"0.014": 0.101012863596,
			"0.015": 0.0,
			"0.016": 0.0,
			"0.017": 0.0,
			"0.018": 0.0,
			"0.019": 0.0,
			"0.02": 0.0,
			"0.021": 0.0,
			"0.022": 0.0,
			"0.023": 0.0,
			"0.024": 0.0,
			"0.025": 0.0
		}
	}
}
