{
	 "smiles": "NC1=NNC(=C1Br)C1=CC=CC=C1", 
	 "Tm": 392.15, 
	 "num_atms": 21, 
	 "gaussian": { 
		 "optdone": 1, 
		 "sigma_profile": "yes", 
		 "theory": "DFT", 
		 "functional": "B3LYP", 
		 "basiset": "6-31G**", 
		 "properties": { 
			 "R2extent": 3659.1356, 
			 "electric_dipole_moment_norm": 2.11506923055, 
			 "electric_quadrupole_moment_norm": 12.4344855306, 
			 "total_energy": -3083.4207758, 
			 "HOMO_LUMO_gap": 0.17516, 
			 "cosmo_polarized_energy": -12.62, 
			 "cosmo_cavitation_energy": 27.48, 
			 "cosmo_dispersion_energy": -20.75, 
			 "cosmo_repulsion_energy": 1.64, 
			 "cosmo_total_nonelectrostatic_energy": 8.37, 
			 "SMD_solvation_energy": 2.41 
		},
		"coords": [
			{
				"x": -1.0195927184,
				"y": 2.8993511921,
				"z": 3.1367736379,
				"element": "N" 
			},
			{
				"x": -0.2722873796,
				"y": 2.2000711676,
				"z": 2.2031672225,
				"element": "C" 
			},
			{
				"x": 1.0347593725,
				"y": 2.403202059,
				"z": 2.0493910868,
				"element": "N" 
			},
			{
				"x": 1.3731726538,
				"y": 1.6301761774,
				"z": 0.9820504456,
				"element": "N" 
			},
			{
				"x": 0.3428343015,
				"y": 0.8965214304,
				"z": 0.4753950011,
				"element": "C" 
			},
			{
				"x": -0.7510285271,
				"y": 1.2577243706,
				"z": 1.2565809452,
				"element": "C" 
			},
			{
				"x": -2.5505429549,
				"y": 0.7155587709,
				"z": 1.0970433113,
				"element": "Br" 
			},
			{
				"x": 0.5235872083,
				"y": -0.0099040998,
				"z": -0.6634441612,
				"element": "C" 
			},
			{
				"x": 1.4574722409,
				"y": 0.3001060028,
				"z": -1.6688583655,
				"element": "C" 
			},
			{
				"x": 1.6647520923,
				"y": -0.5686331788,
				"z": -2.7383661996,
				"element": "C" 
			},
			{
				"x": 0.9357752533,
				"y": -1.7559419722,
				"z": -2.8295166251,
				"element": "C" 
			},
			{
				"x": -0.0008124098,
				"y": -2.0678075778,
				"z": -1.8416681516,
				"element": "C" 
			},
			{
				"x": -0.2054730386,
				"y": -1.2068783639,
				"z": -0.7652096727,
				"element": "C" 
			},
			{
				"x": -0.4548610732,
				"y": 3.2946030396,
				"z": 3.8771298386,
				"element": "H" 
			},
			{
				"x": -1.8199870192,
				"y": 2.3891118305,
				"z": 3.486238937,
				"element": "H" 
			},
			{
				"x": 2.3489491179,
				"y": 1.5168297904,
				"z": 0.7585135505,
				"element": "H" 
			},
			{
				"x": 2.0004662841,
				"y": 1.2401723365,
				"z": -1.6261952536,
				"element": "H" 
			},
			{
				"x": 2.3869105181,
				"y": -0.3110245964,
				"z": -3.5077025666,
				"element": "H" 
			},
			{
				"x": 1.0930419073,
				"y": -2.4303343303,
				"z": -3.666083384,
				"element": "H" 
			},
			{
				"x": -0.5710038529,
				"y": -2.990128454,
				"z": -1.9045412165,
				"element": "H" 
			},
			{
				"x": -0.9242319764,
				"y": -1.4623755948,
				"z": 0.00500162,
				"element": "H" 
			}
		],
		 "valence_orbital": [ 
			{
				"type": "occ",
				"energy": -0.28111,
				"method": "rhf"
			},
			{
				"type": "occ",
				"energy": -0.27177,
				"method": "rhf"
			},
			{
				"type": "occ",
				"energy": -0.25878,
				"method": "rhf"
			},
			{
				"type": "occ",
				"energy": -0.22035,
				"method": "rhf"
			},
			{
				"type": "occ",
				"energy": -0.20671,
				"method": "rhf"
			},
			{
				"type": "unocc",
				"energy": -0.03155,
				"method": "rhf"
			},
			{
				"type": "unocc",
				"energy": -0.01015,
				"method": "rhf"
			},
			{
				"type": "unocc",
				"energy": 0.01882,
				"method": "rhf"
			},
			{
				"type": "unocc",
				"energy": 0.04223,
				"method": "rhf"
			},
			{
				"type": "unocc",
				"energy": 0.08042,
				"method": "rhf"
			}
		],
		"cosmo_sigma_profile": { 
			"-0.025": 0.0,
			"-0.024": 0.0,
			"-0.023": 0.0,
			"-0.022": 0.0,
			"-0.021": 0.0,
			"-0.02": 0.0,
			"-0.019": 0.0,
			"-0.018": 0.0,
			"-0.017": 0.0741669340907,
			"-0.016": 0.857797512647,
			"-0.015": 1.12063026627,
			"-0.014": 0.63436996113,
			"-0.013": 1.37603503717,
			"-0.012": 2.97596775593,
			"-0.011": 3.02735196358,
			"-0.01": 4.21456053504,
			"-0.009": 3.3975086206,
			"-0.008": 2.98579958801,
			"-0.007": 4.16930650489,
			"-0.006": 9.57527825316,
			"-0.005": 12.4007099508,
			"-0.004": 14.9026098257,
			"-0.003": 11.0784181546,
			"-0.002": 12.2971376905,
			"-0.001": 10.5759605685,
			"0.0": 12.4885104411,
			"0.001": 14.6564887733,
			"0.002": 18.211042777,
			"0.003": 22.6397674606,
			"0.004": 23.8883119407,
			"0.005": 14.6277156233,
			"0.006": 2.67640232979,
			"0.007": 3.01582902044,
			"0.008": 2.59843346261,
			"0.009": 1.90649733591,
			"0.01": 1.97389264208,
			"0.011": 1.95740572269,
			"0.012": 1.83113076313,
			"0.013": 1.74927758099,
			"0.014": 1.27762488123,
			"0.015": 1.50656930564,
			"0.016": 0.461236722784,
			"0.017": 0.0,
			"0.018": 0.0,
			"0.019": 0.0,
			"0.02": 0.0,
			"0.021": 0.0,
			"0.022": 0.0,
			"0.023": 0.0,
			"0.024": 0.0,
			"0.025": 0.0
		}
	}
}
