{
	 "smiles": "FC(F)(F)C1=CN=C(C=C1)C1=CC=C(C=C1)C#N", 
	 "Tm": 397.15, 
	 "num_atms": 25, 
	 "gaussian": { 
		 "optdone": 1, 
		 "sigma_profile": "yes", 
		 "theory": "DFT", 
		 "functional": "B3LYP", 
		 "basiset": "6-31G**", 
		 "properties": { 
			 "R2extent": 7285.0438, 
			 "electric_dipole_moment_norm": 3.61397425143, 
			 "electric_quadrupole_moment_norm": 38.7302060658, 
			 "total_energy": -908.618992111, 
			 "HOMO_LUMO_gap": 0.1706, 
			 "cosmo_polarized_energy": -11.78, 
			 "cosmo_cavitation_energy": 32.88, 
			 "cosmo_dispersion_energy": -22.99, 
			 "cosmo_repulsion_energy": 1.68, 
			 "cosmo_total_nonelectrostatic_energy": 11.56, 
			 "SMD_solvation_energy": 7.08 
		},
		"coords": [
			{
				"x": -0.0446605511,
				"y": -4.6491998535,
				"z": -1.4687658786,
				"element": "F" 
			},
			{
				"x": 0.192015917,
				"y": -3.6408291779,
				"z": -2.3366497078,
				"element": "C" 
			},
			{
				"x": -0.6399815664,
				"y": -3.8220540679,
				"z": -3.3870445686,
				"element": "F" 
			},
			{
				"x": 1.4519837389,
				"y": -3.7810333974,
				"z": -2.7988181757,
				"element": "F" 
			},
			{
				"x": -0.0178772164,
				"y": -2.299823145,
				"z": -1.6914479104,
				"element": "C" 
			},
			{
				"x": 0.7289309038,
				"y": -1.1866482699,
				"z": -2.0873814906,
				"element": "C" 
			},
			{
				"x": 0.5547004132,
				"y": 0.0310431045,
				"z": -1.5775443362,
				"element": "N" 
			},
			{
				"x": -0.3867673885,
				"y": 0.2124723487,
				"z": -0.6311388573,
				"element": "C" 
			},
			{
				"x": -1.1924101428,
				"y": -0.8502042134,
				"z": -0.1857617726,
				"element": "C" 
			},
			{
				"x": -1.0023818387,
				"y": -2.1184503227,
				"z": -0.7196552876,
				"element": "C" 
			},
			{
				"x": -0.5296709202,
				"y": 1.5948580454,
				"z": -0.1017562135,
				"element": "C" 
			},
			{
				"x": -1.2036040191,
				"y": 1.8665929898,
				"z": 1.1011413315,
				"element": "C" 
			},
			{
				"x": -1.3297241384,
				"y": 3.1680073127,
				"z": 1.5723093975,
				"element": "C" 
			},
			{
				"x": -0.7780242724,
				"y": 4.2341858459,
				"z": 0.8431110567,
				"element": "C" 
			},
			{
				"x": -0.0933722266,
				"y": 3.9731953648,
				"z": -0.3565063631,
				"element": "C" 
			},
			{
				"x": 0.0295909293,
				"y": 2.6688125507,
				"z": -0.8161190187,
				"element": "C" 
			},
			{
				"x": -0.9088435209,
				"y": 5.5783735616,
				"z": 1.3235935018,
				"element": "C" 
			},
			{
				"x": -1.0162501863,
				"y": 6.6691166017,
				"z": 1.7138245911,
				"element": "N" 
			},
			{
				"x": 1.5054419602,
				"y": -1.2899336866,
				"z": -2.8412707169,
				"element": "H" 
			},
			{
				"x": -1.9682019334,
				"y": -0.689454788,
				"z": 0.5533452626,
				"element": "H" 
			},
			{
				"x": -1.6069816744,
				"y": -2.9563118706,
				"z": -0.3883084128,
				"element": "H" 
			},
			{
				"x": -1.6171017816,
				"y": 1.0584424245,
				"z": 1.6947000791,
				"element": "H" 
			},
			{
				"x": -1.8465658741,
				"y": 3.3661843146,
				"z": 2.5051304708,
				"element": "H" 
			},
			{
				"x": 0.3357469519,
				"y": 4.7959601117,
				"z": -0.9184217291,
				"element": "H" 
			},
			{
				"x": 0.5616084369,
				"y": 2.4564982165,
				"z": -1.7357652516,
				"element": "H" 
			}
		],
		 "valence_orbital": [ 
			{
				"type": "occ",
				"energy": -0.31777,
				"method": "rhf"
			},
			{
				"type": "occ",
				"energy": -0.30439,
				"method": "rhf"
			},
			{
				"type": "occ",
				"energy": -0.28388,
				"method": "rhf"
			},
			{
				"type": "occ",
				"energy": -0.2803,
				"method": "rhf"
			},
			{
				"type": "occ",
				"energy": -0.25633,
				"method": "rhf"
			},
			{
				"type": "unocc",
				"energy": -0.08573,
				"method": "rhf"
			},
			{
				"type": "unocc",
				"energy": -0.05093,
				"method": "rhf"
			},
			{
				"type": "unocc",
				"energy": -0.02782,
				"method": "rhf"
			},
			{
				"type": "unocc",
				"energy": -0.02269,
				"method": "rhf"
			},
			{
				"type": "unocc",
				"energy": 0.03272,
				"method": "rhf"
			}
		],
		"cosmo_sigma_profile": { 
			"-0.025": 0.0,
			"-0.024": 0.0,
			"-0.023": 0.0,
			"-0.022": 0.0,
			"-0.021": 0.0,
			"-0.02": 0.0,
			"-0.019": 0.0,
			"-0.018": 0.0,
			"-0.017": 0.0,
			"-0.016": 0.0,
			"-0.015": 0.0,
			"-0.014": 0.0,
			"-0.013": 0.0,
			"-0.012": 0.0,
			"-0.011": 0.0109918491847,
			"-0.01": 0.920697024625,
			"-0.009": 2.91955372084,
			"-0.008": 8.68414598827,
			"-0.007": 12.6260878288,
			"-0.006": 12.5636296245,
			"-0.005": 12.4886028948,
			"-0.004": 9.93817643631,
			"-0.003": 12.8325616446,
			"-0.002": 16.73516593,
			"-0.001": 25.4592226031,
			"0.0": 28.2371224233,
			"0.001": 24.8042048274,
			"0.002": 37.5979752499,
			"0.003": 25.240221127,
			"0.004": 3.57472688319,
			"0.005": 4.1322980972,
			"0.006": 4.0025219606,
			"0.007": 4.32237766702,
			"0.008": 4.47879382814,
			"0.009": 4.41015669355,
			"0.01": 3.56983944671,
			"0.011": 3.55331543134,
			"0.012": 2.69598509607,
			"0.013": 1.31053559531,
			"0.014": 0.00807851833754,
			"0.015": 0.0,
			"0.016": 0.0,
			"0.017": 0.0,
			"0.018": 0.0,
			"0.019": 0.0,
			"0.02": 0.0,
			"0.021": 0.0,
			"0.022": 0.0,
			"0.023": 0.0,
			"0.024": 0.0,
			"0.025": 0.0
		}
	}
}
