{
	 "smiles": "O=C1CCC(=O)N1C1=CC(=CC=C1)C#N", 
	 "Tm": 408.15, 
	 "num_atms": 23, 
	 "gaussian": { 
		 "optdone": 1, 
		 "sigma_profile": "yes", 
		 "theory": "DFT", 
		 "functional": "B3LYP", 
		 "basiset": "6-31G**", 
		 "properties": { 
			 "R2extent": 3616.3941, 
			 "electric_dipole_moment_norm": 5.74072651674, 
			 "electric_quadrupole_moment_norm": 27.511240492, 
			 "total_energy": -683.955341427, 
			 "HOMO_LUMO_gap": 0.20565, 
			 "cosmo_polarized_energy": -17.06, 
			 "cosmo_cavitation_energy": 28.75, 
			 "cosmo_dispersion_energy": -20.46, 
			 "cosmo_repulsion_energy": 1.6, 
			 "cosmo_total_nonelectrostatic_energy": 9.9, 
			 "SMD_solvation_energy": 7.55 
		},
		"coords": [
			{
				"x": -2.238511913,
				"y": 2.1096050894,
				"z": -0.4733616461,
				"element": "O" 
			},
			{
				"x": -2.097800605,
				"y": 1.7971214096,
				"z": 0.6869581768,
				"element": "C" 
			},
			{
				"x": -2.7803799367,
				"y": 2.4308984304,
				"z": 1.891809418,
				"element": "C" 
			},
			{
				"x": -2.2947122761,
				"y": 1.6334325685,
				"z": 3.1060294977,
				"element": "C" 
			},
			{
				"x": -1.3033074931,
				"y": 0.615729904,
				"z": 2.5572915646,
				"element": "C" 
			},
			{
				"x": -0.6622251392,
				"y": -0.1878599309,
				"z": 3.1962183295,
				"element": "O" 
			},
			{
				"x": -1.254416422,
				"y": 0.7645951854,
				"z": 1.1542133402,
				"element": "N" 
			},
			{
				"x": -0.4408486247,
				"y": -0.0417055026,
				"z": 0.300070602,
				"element": "C" 
			},
			{
				"x": -0.9411196519,
				"y": -0.4674581731,
				"z": -0.9325195761,
				"element": "C" 
			},
			{
				"x": -0.1346687092,
				"y": -1.256078397,
				"z": -1.7662818909,
				"element": "C" 
			},
			{
				"x": 1.1599938478,
				"y": -1.6250131094,
				"z": -1.3667612441,
				"element": "C" 
			},
			{
				"x": 1.6398688253,
				"y": -1.1949616198,
				"z": -0.133455649,
				"element": "C" 
			},
			{
				"x": 0.8520329755,
				"y": -0.4022353543,
				"z": 0.7006807843,
				"element": "C" 
			},
			{
				"x": -0.6442560375,
				"y": -1.6949810152,
				"z": -3.0340572824,
				"element": "C" 
			},
			{
				"x": -1.052008474,
				"y": -2.0580873406,
				"z": -4.0610081059,
				"element": "N" 
			},
			{
				"x": -2.5032533627,
				"y": 3.4885824625,
				"z": 1.9256335415,
				"element": "H" 
			},
			{
				"x": -3.8624028926,
				"y": 2.390226905,
				"z": 1.7400798328,
				"element": "H" 
			},
			{
				"x": -1.7884201786,
				"y": 2.2413146552,
				"z": 3.8607697894,
				"element": "H" 
			},
			{
				"x": -3.0941006364,
				"y": 1.0903604349,
				"z": 3.6186164059,
				"element": "H" 
			},
			{
				"x": -1.933008497,
				"y": -0.1811124835,
				"z": -1.253559536,
				"element": "H" 
			},
			{
				"x": 1.7707928117,
				"y": -2.2382469438,
				"z": -2.0201405261,
				"element": "H" 
			},
			{
				"x": 2.6389013191,
				"y": -1.4748480017,
				"z": 0.1848149643,
				"element": "H" 
			},
			{
				"x": 1.2281510702,
				"y": -0.078579173,
				"z": 1.6619592095,
				"element": "H" 
			}
		],
		 "valence_orbital": [ 
			{
				"type": "occ",
				"energy": -0.31794,
				"method": "rhf"
			},
			{
				"type": "occ",
				"energy": -0.30132,
				"method": "rhf"
			},
			{
				"type": "occ",
				"energy": -0.27549,
				"method": "rhf"
			},
			{
				"type": "occ",
				"energy": -0.27089,
				"method": "rhf"
			},
			{
				"type": "occ",
				"energy": -0.26088,
				"method": "rhf"
			},
			{
				"type": "unocc",
				"energy": -0.05523,
				"method": "rhf"
			},
			{
				"type": "unocc",
				"energy": -0.03776,
				"method": "rhf"
			},
			{
				"type": "unocc",
				"energy": -0.03519,
				"method": "rhf"
			},
			{
				"type": "unocc",
				"energy": 0.01449,
				"method": "rhf"
			},
			{
				"type": "unocc",
				"energy": 0.03691,
				"method": "rhf"
			}
		],
		"cosmo_sigma_profile": { 
			"-0.025": 0.0,
			"-0.024": 0.0,
			"-0.023": 0.0,
			"-0.022": 0.0,
			"-0.021": 0.0,
			"-0.02": 0.0,
			"-0.019": 0.0,
			"-0.018": 0.0,
			"-0.017": 0.0,
			"-0.016": 0.0,
			"-0.015": 0.0,
			"-0.014": 0.0,
			"-0.013": 0.0,
			"-0.012": 0.0,
			"-0.011": 0.0,
			"-0.01": 0.0,
			"-0.009": 0.731476798705,
			"-0.008": 7.88215354181,
			"-0.007": 25.9147313942,
			"-0.006": 21.3016246618,
			"-0.005": 14.8581839697,
			"-0.004": 13.9524780879,
			"-0.003": 15.1294141778,
			"-0.002": 12.9781068525,
			"-0.001": 11.1877055509,
			"0.0": 11.8181437884,
			"0.001": 16.2948818758,
			"0.002": 11.8337722772,
			"0.003": 5.36603360263,
			"0.004": 5.34578853444,
			"0.005": 5.56074171398,
			"0.006": 5.38252881842,
			"0.007": 5.87923047193,
			"0.008": 7.49098715723,
			"0.009": 6.25364886165,
			"0.01": 8.91546530429,
			"0.011": 10.2165049657,
			"0.012": 6.21159221162,
			"0.013": 1.46595296743,
			"0.014": 0.0,
			"0.015": 0.0,
			"0.016": 0.0,
			"0.017": 0.0,
			"0.018": 0.0,
			"0.019": 0.0,
			"0.02": 0.0,
			"0.021": 0.0,
			"0.022": 0.0,
			"0.023": 0.0,
			"0.024": 0.0,
			"0.025": 0.0
		}
	}
}
