{
	 "smiles": "ClC1=CC=CC(OCC#N)=C1", 
	 "Tm": 302.15, 
	 "num_atms": 17, 
	 "gaussian": { 
		 "optdone": 1, 
		 "sigma_profile": "yes", 
		 "theory": "DFT", 
		 "functional": "B3LYP", 
		 "basiset": "6-31G**", 
		 "properties": { 
			 "R2extent": 2777.8841, 
			 "electric_dipole_moment_norm": 3.02624156504, 
			 "electric_quadrupole_moment_norm": 16.9572199591, 
			 "total_energy": -898.594213077, 
			 "HOMO_LUMO_gap": 0.2212, 
			 "cosmo_polarized_energy": -10.92, 
			 "cosmo_cavitation_energy": 24.32, 
			 "cosmo_dispersion_energy": -17.52, 
			 "cosmo_repulsion_energy": 1.42, 
			 "cosmo_total_nonelectrostatic_energy": 8.22, 
			 "SMD_solvation_energy": 5.63 
		},
		"coords": [
			{
				"x": 3.4421207338,
				"y": -0.7911758517,
				"z": 2.5556958199,
				"element": "Cl" 
			},
			{
				"x": 1.885122581,
				"y": -0.7352720024,
				"z": 1.7438134912,
				"element": "C" 
			},
			{
				"x": 1.2882461449,
				"y": -1.9272505442,
				"z": 1.3258143905,
				"element": "C" 
			},
			{
				"x": 0.0551235687,
				"y": -1.8577718851,
				"z": 0.6836308686,
				"element": "C" 
			},
			{
				"x": -0.5830357673,
				"y": -0.6341136412,
				"z": 0.4591008959,
				"element": "C" 
			},
			{
				"x": 0.0361334248,
				"y": 0.5403584524,
				"z": 0.8940724271,
				"element": "C" 
			},
			{
				"x": -0.4841229286,
				"y": 1.8064583807,
				"z": 0.7449487373,
				"element": "O" 
			},
			{
				"x": -1.801164912,
				"y": 1.9512379239,
				"z": 0.2540614697,
				"element": "C" 
			},
			{
				"x": -1.910662381,
				"y": 1.7472172088,
				"z": -1.204534247,
				"element": "C" 
			},
			{
				"x": -2.0079031185,
				"y": 1.5918697329,
				"z": -2.3500043789,
				"element": "N" 
			},
			{
				"x": 1.2785849943,
				"y": 0.4974157525,
				"z": 1.5384590143,
				"element": "C" 
			},
			{
				"x": 1.7817377963,
				"y": -2.876567878,
				"z": 1.4967068991,
				"element": "H" 
			},
			{
				"x": -0.4214070158,
				"y": -2.7717083254,
				"z": 0.3425901776,
				"element": "H" 
			},
			{
				"x": -1.5300296956,
				"y": -0.6170558985,
				"z": -0.0663188073,
				"element": "H" 
			},
			{
				"x": -2.0928952793,
				"y": 2.9798923074,
				"z": 0.4829368994,
				"element": "H" 
			},
			{
				"x": -2.5013545525,
				"y": 1.2755490398,
				"z": 0.7628206334,
				"element": "H" 
			},
			{
				"x": 1.7423064069,
				"y": 1.4197172282,
				"z": 1.8666057091,
				"element": "H" 
			}
		],
		 "valence_orbital": [ 
			{
				"type": "occ",
				"energy": -0.3409,
				"method": "rhf"
			},
			{
				"type": "occ",
				"energy": -0.32718,
				"method": "rhf"
			},
			{
				"type": "occ",
				"energy": -0.31771,
				"method": "rhf"
			},
			{
				"type": "occ",
				"energy": -0.25976,
				"method": "rhf"
			},
			{
				"type": "occ",
				"energy": -0.24573,
				"method": "rhf"
			},
			{
				"type": "unocc",
				"energy": -0.02453,
				"method": "rhf"
			},
			{
				"type": "unocc",
				"energy": -0.01189,
				"method": "rhf"
			},
			{
				"type": "unocc",
				"energy": -0.00495,
				"method": "rhf"
			},
			{
				"type": "unocc",
				"energy": 0.01994,
				"method": "rhf"
			},
			{
				"type": "unocc",
				"energy": 0.0254,
				"method": "rhf"
			}
		],
		"cosmo_sigma_profile": { 
			"-0.025": 0.0,
			"-0.024": 0.0,
			"-0.023": 0.0,
			"-0.022": 0.0,
			"-0.021": 0.0,
			"-0.02": 0.0,
			"-0.019": 0.0,
			"-0.018": 0.0,
			"-0.017": 0.0,
			"-0.016": 0.0,
			"-0.015": 0.0,
			"-0.014": 0.0,
			"-0.013": 0.0,
			"-0.012": 0.0799210963283,
			"-0.011": 3.30153865954,
			"-0.01": 5.65666046924,
			"-0.009": 5.61423876361,
			"-0.008": 6.06862509753,
			"-0.007": 8.72996480147,
			"-0.006": 8.68674961523,
			"-0.005": 8.66613228314,
			"-0.004": 7.89615274775,
			"-0.003": 6.99750999403,
			"-0.002": 8.49772756798,
			"-0.001": 9.12919885096,
			"0.0": 13.1059526554,
			"0.001": 16.1930721925,
			"0.002": 20.9112059896,
			"0.003": 20.7233710104,
			"0.004": 16.9261754582,
			"0.005": 9.06514141159,
			"0.006": 4.06282099426,
			"0.007": 4.00686193815,
			"0.008": 4.24611686515,
			"0.009": 2.91765036098,
			"0.01": 2.69970569373,
			"0.011": 2.48226846751,
			"0.012": 1.87436657529,
			"0.013": 0.173990389422,
			"0.014": 0.0,
			"0.015": 0.0,
			"0.016": 0.0,
			"0.017": 0.0,
			"0.018": 0.0,
			"0.019": 0.0,
			"0.02": 0.0,
			"0.021": 0.0,
			"0.022": 0.0,
			"0.023": 0.0,
			"0.024": 0.0,
			"0.025": 0.0
		}
	}
}
