{
	 "smiles": "OC(=O)C(CC1=CC=C(C=C1)C#N)NC(=O)OCC1C2=C(C=CC=C2)C2=C1C=CC=C2", 
	 "Tm": 462.15, 
	 "num_atms": 51, 
	 "gaussian": { 
		 "optdone": 1, 
		 "sigma_profile": "yes", 
		 "theory": "DFT", 
		 "functional": "B3LYP", 
		 "basiset": "6-31G**", 
		 "properties": { 
			 "R2extent": 19537.6428, 
			 "electric_dipole_moment_norm": 6.15030505016, 
			 "electric_quadrupole_moment_norm": 32.6005863225, 
			 "total_energy": -1375.15177702, 
			 "HOMO_LUMO_gap": 0.16218, 
			 "cosmo_polarized_energy": -26.94, 
			 "cosmo_cavitation_energy": 56.95, 
			 "cosmo_dispersion_energy": -37.25, 
			 "cosmo_repulsion_energy": 2.75, 
			 "cosmo_total_nonelectrostatic_energy": 22.45, 
			 "SMD_solvation_energy": 12.11 
		},
		"coords": [
			{
				"x": 0.5857068643,
				"y": -3.0629889131,
				"z": 0.6710712544,
				"element": "O" 
			},
			{
				"x": 1.2695495536,
				"y": -2.7663253958,
				"z": 1.7885478219,
				"element": "C" 
			},
			{
				"x": 2.0873168261,
				"y": -3.5175761826,
				"z": 2.2653613127,
				"element": "O" 
			},
			{
				"x": 0.9836745686,
				"y": -1.3683462939,
				"z": 2.3820029838,
				"element": "C" 
			},
			{
				"x": 1.0220952872,
				"y": -1.394101341,
				"z": 3.9297072255,
				"element": "C" 
			},
			{
				"x": -0.1588304404,
				"y": -2.0946695761,
				"z": 4.568275159,
				"element": "C" 
			},
			{
				"x": -1.2682725548,
				"y": -1.3593867257,
				"z": 5.0147420372,
				"element": "C" 
			},
			{
				"x": -2.3722653293,
				"y": -1.992935952,
				"z": 5.5807277737,
				"element": "C" 
			},
			{
				"x": -2.3804325328,
				"y": -3.3901597155,
				"z": 5.7130147823,
				"element": "C" 
			},
			{
				"x": -1.2731631753,
				"y": -4.1370501884,
				"z": 5.2742294434,
				"element": "C" 
			},
			{
				"x": -0.1782940575,
				"y": -3.4927499514,
				"z": 4.7083526149,
				"element": "C" 
			},
			{
				"x": -3.5105673849,
				"y": -4.0510766774,
				"z": 6.2988041148,
				"element": "C" 
			},
			{
				"x": -4.4278531473,
				"y": -4.5861988339,
				"z": 6.7734472466,
				"element": "N" 
			},
			{
				"x": -0.2527800415,
				"y": -0.7961419329,
				"z": 1.845534846,
				"element": "N" 
			},
			{
				"x": -0.33240563,
				"y": 0.396016728,
				"z": 1.1365192087,
				"element": "C" 
			},
			{
				"x": -1.3561245095,
				"y": 1.0355146867,
				"z": 1.01903442,
				"element": "O" 
			},
			{
				"x": 0.8539271096,
				"y": 0.6997841336,
				"z": 0.5639655076,
				"element": "O" 
			},
			{
				"x": 0.8747071602,
				"y": 1.8806027363,
				"z": -0.2742472502,
				"element": "C" 
			},
			{
				"x": 2.0486569113,
				"y": 1.7496672859,
				"z": -1.2483334575,
				"element": "C" 
			},
			{
				"x": 2.2135912605,
				"y": 3.0182714531,
				"z": -2.0741774245,
				"element": "C" 
			},
			{
				"x": 2.0979721296,
				"y": 2.7235420706,
				"z": -3.4478541652,
				"element": "C" 
			},
			{
				"x": 2.2109485737,
				"y": 3.7394669741,
				"z": -4.3990803138,
				"element": "C" 
			},
			{
				"x": 2.4374956631,
				"y": 5.0478948616,
				"z": -3.9654128738,
				"element": "C" 
			},
			{
				"x": 2.5532283884,
				"y": 5.3390598106,
				"z": -2.6021829487,
				"element": "C" 
			},
			{
				"x": 2.4419790871,
				"y": 4.3216857732,
				"z": -1.6467871071,
				"element": "C" 
			},
			{
				"x": 1.8751356021,
				"y": 1.2796886238,
				"z": -3.6009765897,
				"element": "C" 
			},
			{
				"x": 1.8519230709,
				"y": 0.6862509372,
				"z": -2.3209843987,
				"element": "C" 
			},
			{
				"x": 1.6723461365,
				"y": -0.6872652655,
				"z": -2.1861495855,
				"element": "C" 
			},
			{
				"x": 1.5068885387,
				"y": -1.4659284778,
				"z": -3.3379417684,
				"element": "C" 
			},
			{
				"x": 1.5248708792,
				"y": -0.8763499599,
				"z": -4.6061655721,
				"element": "C" 
			},
			{
				"x": 1.7109769129,
				"y": 0.5004649402,
				"z": -4.7478147156,
				"element": "C" 
			},
			{
				"x": -0.0560203267,
				"y": -2.3405424958,
				"z": 0.5288463829,
				"element": "H" 
			},
			{
				"x": 1.8087390751,
				"y": -0.7402215253,
				"z": 2.0348876324,
				"element": "H" 
			},
			{
				"x": 1.9536408044,
				"y": -1.8922048212,
				"z": 4.2098848825,
				"element": "H" 
			},
			{
				"x": 1.0743476438,
				"y": -0.3595375284,
				"z": 4.2831548617,
				"element": "H" 
			},
			{
				"x": -1.2623860277,
				"y": -0.2752003138,
				"z": 4.9348827203,
				"element": "H" 
			},
			{
				"x": -3.2227359268,
				"y": -1.4144425194,
				"z": 5.9254271809,
				"element": "H" 
			},
			{
				"x": -1.2782639131,
				"y": -5.2164543092,
				"z": 5.3826959188,
				"element": "H" 
			},
			{
				"x": 0.6729962143,
				"y": -4.073689476,
				"z": 4.3683983871,
				"element": "H" 
			},
			{
				"x": -1.0929937815,
				"y": -0.9604474654,
				"z": 2.3891726777,
				"element": "H" 
			},
			{
				"x": 0.9950263834,
				"y": 2.7559367119,
				"z": 0.3719800987,
				"element": "H" 
			},
			{
				"x": -0.0785852663,
				"y": 1.9654615457,
				"z": -0.7987986364,
				"element": "H" 
			},
			{
				"x": 2.9551411069,
				"y": 1.5478388765,
				"z": -0.6601602238,
				"element": "H" 
			},
			{
				"x": 2.1255304282,
				"y": 3.5209480752,
				"z": -5.4598131131,
				"element": "H" 
			},
			{
				"x": 2.5271454056,
				"y": 5.8479071306,
				"z": -4.6946510995,
				"element": "H" 
			},
			{
				"x": 2.7330099898,
				"y": 6.3612052455,
				"z": -2.2823812125,
				"element": "H" 
			},
			{
				"x": 2.5402680608,
				"y": 4.5559404139,
				"z": -0.5896707443,
				"element": "H" 
			},
			{
				"x": 1.6615116216,
				"y": -1.1585683209,
				"z": -1.2089411301,
				"element": "H" 
			},
			{
				"x": 1.3677590098,
				"y": -2.5388529749,
				"z": -3.2433835252,
				"element": "H" 
			},
			{
				"x": 1.3971776681,
				"y": -1.4958923113,
				"z": -5.4891800256,
				"element": "H" 
			},
			{
				"x": 1.7297901102,
				"y": 0.9527564303,
				"z": -5.7354806142,
				"element": "H" 
			}
		],
		 "valence_orbital": [ 
			{
				"type": "occ",
				"energy": -0.27453,
				"method": "rhf"
			},
			{
				"type": "occ",
				"energy": -0.2674,
				"method": "rhf"
			},
			{
				"type": "occ",
				"energy": -0.25898,
				"method": "rhf"
			},
			{
				"type": "occ",
				"energy": -0.25302,
				"method": "rhf"
			},
			{
				"type": "occ",
				"energy": -0.22339,
				"method": "rhf"
			},
			{
				"type": "unocc",
				"energy": -0.06121,
				"method": "rhf"
			},
			{
				"type": "unocc",
				"energy": -0.03906,
				"method": "rhf"
			},
			{
				"type": "unocc",
				"energy": -0.03728,
				"method": "rhf"
			},
			{
				"type": "unocc",
				"energy": -0.02117,
				"method": "rhf"
			},
			{
				"type": "unocc",
				"energy": -0.00735,
				"method": "rhf"
			}
		],
		"cosmo_sigma_profile": { 
			"-0.025": 0.0,
			"-0.024": 0.0,
			"-0.023": 0.0,
			"-0.022": 0.0,
			"-0.021": 0.0,
			"-0.02": 0.0,
			"-0.019": 0.0,
			"-0.018": 0.0,
			"-0.017": 0.0,
			"-0.016": 0.0,
			"-0.015": 0.0815466844316,
			"-0.014": 0.526770954698,
			"-0.013": 0.261073191341,
			"-0.012": 0.846259740308,
			"-0.011": 2.02810189039,
			"-0.01": 3.31827328731,
			"-0.009": 3.37088192451,
			"-0.008": 9.62295134505,
			"-0.007": 16.9809757389,
			"-0.006": 31.8025852243,
			"-0.005": 35.1261292809,
			"-0.004": 35.3130866631,
			"-0.003": 33.8671149545,
			"-0.002": 30.5126162553,
			"-0.001": 32.8188586916,
			"0.0": 27.7855791169,
			"0.001": 25.4257988549,
			"0.002": 28.3603293155,
			"0.003": 24.1969727799,
			"0.004": 19.8527325599,
			"0.005": 23.3154031829,
			"0.006": 15.5894853044,
			"0.007": 6.56527856483,
			"0.008": 6.72887239261,
			"0.009": 8.80581843554,
			"0.01": 8.68283606087,
			"0.011": 9.34792506641,
			"0.012": 10.8992974941,
			"0.013": 4.26194119325,
			"0.014": 0.0692906184783,
			"0.015": 0.0,
			"0.016": 0.0,
			"0.017": 0.0,
			"0.018": 0.0,
			"0.019": 0.0,
			"0.02": 0.0,
			"0.021": 0.0,
			"0.022": 0.0,
			"0.023": 0.0,
			"0.024": 0.0,
			"0.025": 0.0
		}
	}
}
