{
	 "smiles": "CSC1=NN(C)C2=C1C(=O)NC=N2", 
	 "Tm": 525.15, 
	 "num_atms": 21, 
	 "gaussian": { 
		 "optdone": 1, 
		 "sigma_profile": "yes", 
		 "theory": "DFT", 
		 "functional": "B3LYP", 
		 "basiset": "6-31G**", 
		 "properties": { 
			 "R2extent": 3494.3818, 
			 "electric_dipole_moment_norm": 3.90494913283, 
			 "electric_quadrupole_moment_norm": 23.2700460917, 
			 "total_energy": -963.98844246, 
			 "HOMO_LUMO_gap": 0.17297, 
			 "cosmo_polarized_energy": -17.37, 
			 "cosmo_cavitation_energy": 27.08, 
			 "cosmo_dispersion_energy": -20.57, 
			 "cosmo_repulsion_energy": 1.59, 
			 "cosmo_total_nonelectrostatic_energy": 8.09, 
			 "SMD_solvation_energy": 3.76 
		},
		"coords": [
			{
				"x": 0.0185724794,
				"y": -2.277044617,
				"z": 1.7693321189,
				"element": "C" 
			},
			{
				"x": 1.1386889807,
				"y": -0.8342379892,
				"z": 1.7624644031,
				"element": "S" 
			},
			{
				"x": 0.0816188012,
				"y": 0.3653499042,
				"z": 1.0293137453,
				"element": "C" 
			},
			{
				"x": -1.166200745,
				"y": 0.1036984255,
				"z": 0.6484295143,
				"element": "N" 
			},
			{
				"x": -1.6563919511,
				"y": 1.275228132,
				"z": 0.130803527,
				"element": "N" 
			},
			{
				"x": -3.0095024703,
				"y": 1.3379674682,
				"z": -0.3823182051,
				"element": "C" 
			},
			{
				"x": -0.7374794478,
				"y": 2.2647197928,
				"z": 0.1811349259,
				"element": "C" 
			},
			{
				"x": 0.4188735101,
				"y": 1.7214585262,
				"z": 0.7608951835,
				"element": "C" 
			},
			{
				"x": 1.5782217632,
				"y": 2.5498437728,
				"z": 0.9453985179,
				"element": "C" 
			},
			{
				"x": 2.6687621051,
				"y": 2.2794477032,
				"z": 1.4224604396,
				"element": "O" 
			},
			{
				"x": 1.3090135576,
				"y": 3.8724585261,
				"z": 0.4650068071,
				"element": "N" 
			},
			{
				"x": 0.1320174216,
				"y": 4.2921353851,
				"z": -0.086546352,
				"element": "C" 
			},
			{
				"x": -0.921239142,
				"y": 3.5474670161,
				"z": -0.2565855428,
				"element": "N" 
			},
			{
				"x": 0.5893389892,
				"y": -3.0944277664,
				"z": 2.2141579027,
				"element": "H" 
			},
			{
				"x": -0.2793665444,
				"y": -2.539767413,
				"z": 0.7534132841,
				"element": "H" 
			},
			{
				"x": -0.8701075482,
				"y": -2.0734833767,
				"z": 2.3682397904,
				"element": "H" 
			},
			{
				"x": -3.1852237656,
				"y": 2.3529714524,
				"z": -0.7396782246,
				"element": "H" 
			},
			{
				"x": -3.7230358072,
				"y": 1.094300998,
				"z": 0.40944609,
				"element": "H" 
			},
			{
				"x": -3.1325071469,
				"y": 0.6281991179,
				"z": -1.2048117054,
				"element": "H" 
			},
			{
				"x": 2.0801895144,
				"y": 4.5221630549,
				"z": 0.5593939243,
				"element": "H" 
			},
			{
				"x": 0.1021574459,
				"y": 5.3336518869,
				"z": -0.3982501444,
				"element": "H" 
			}
		],
		 "valence_orbital": [ 
			{
				"type": "occ",
				"energy": -0.29522,
				"method": "rhf"
			},
			{
				"type": "occ",
				"energy": -0.28447,
				"method": "rhf"
			},
			{
				"type": "occ",
				"energy": -0.2646,
				"method": "rhf"
			},
			{
				"type": "occ",
				"energy": -0.23983,
				"method": "rhf"
			},
			{
				"type": "occ",
				"energy": -0.20966,
				"method": "rhf"
			},
			{
				"type": "unocc",
				"energy": -0.03669,
				"method": "rhf"
			},
			{
				"type": "unocc",
				"energy": -0.00873,
				"method": "rhf"
			},
			{
				"type": "unocc",
				"energy": 0.03947,
				"method": "rhf"
			},
			{
				"type": "unocc",
				"energy": 0.04142,
				"method": "rhf"
			},
			{
				"type": "unocc",
				"energy": 0.06954,
				"method": "rhf"
			}
		],
		"cosmo_sigma_profile": { 
			"-0.025": 0.0,
			"-0.024": 0.0,
			"-0.023": 0.0,
			"-0.022": 0.0,
			"-0.021": 0.0,
			"-0.02": 0.0,
			"-0.019": 0.0,
			"-0.018": 0.0,
			"-0.017": 0.781096506182,
			"-0.016": 1.9041368505,
			"-0.015": 1.26450341816,
			"-0.014": 1.22144697282,
			"-0.013": 1.24865705996,
			"-0.012": 1.17358656555,
			"-0.011": 2.31712054104,
			"-0.01": 2.76446415966,
			"-0.009": 2.42777290803,
			"-0.008": 2.14680345728,
			"-0.007": 4.65435415423,
			"-0.006": 10.1567329928,
			"-0.005": 12.9892472715,
			"-0.004": 15.1038032122,
			"-0.003": 20.2523433546,
			"-0.002": 20.3884278922,
			"-0.001": 15.0447192788,
			"0.0": 11.674756682,
			"0.001": 10.6857551653,
			"0.002": 10.4713735645,
			"0.003": 8.87848718188,
			"0.004": 7.71187324313,
			"0.005": 8.58483999221,
			"0.006": 6.86876814942,
			"0.007": 9.58890071431,
			"0.008": 6.31007352727,
			"0.009": 3.7327776212,
			"0.01": 2.98416649823,
			"0.011": 4.21887882885,
			"0.012": 5.57589859317,
			"0.013": 5.20391253706,
			"0.014": 0.171058507038,
			"0.015": 0.0,
			"0.016": 0.0,
			"0.017": 0.0,
			"0.018": 0.0,
			"0.019": 0.0,
			"0.02": 0.0,
			"0.021": 0.0,
			"0.022": 0.0,
			"0.023": 0.0,
			"0.024": 0.0,
			"0.025": 0.0
		}
	}
}
