{
	 "smiles": "CCCSC1=CC=C2NC(NC(=O)OC)=NC2=C1", 
	 "Tm": 481.15, 
	 "num_atms": 33, 
	 "gaussian": { 
		 "optdone": 1, 
		 "sigma_profile": "yes", 
		 "theory": "DFT", 
		 "functional": "B3LYP", 
		 "basiset": "6-31G**", 
		 "properties": { 
			 "R2extent": 8113.5491, 
			 "electric_dipole_moment_norm": 3.0927911116, 
			 "electric_quadrupole_moment_norm": 20.7974385382, 
			 "total_energy": -1179.23879761, 
			 "HOMO_LUMO_gap": 0.19056, 
			 "cosmo_polarized_energy": -22.13, 
			 "cosmo_cavitation_energy": 39.18, 
			 "cosmo_dispersion_energy": -28.2, 
			 "cosmo_repulsion_energy": 2.19, 
			 "cosmo_total_nonelectrostatic_energy": 13.17, 
			 "SMD_solvation_energy": 5.96 
		},
		"coords": [
			{
				"x": -0.927497601,
				"y": -2.6108480973,
				"z": 5.5577515467,
				"element": "C" 
			},
			{
				"x": 0.0838645078,
				"y": -2.3007279436,
				"z": 4.4513309151,
				"element": "C" 
			},
			{
				"x": -0.1658217905,
				"y": -3.0564717572,
				"z": 3.1425285337,
				"element": "C" 
			},
			{
				"x": -1.7154435685,
				"y": -2.5997846703,
				"z": 2.2416751165,
				"element": "S" 
			},
			{
				"x": -1.2968691496,
				"y": -0.9643100524,
				"z": 1.6258917077,
				"element": "C" 
			},
			{
				"x": -1.8463640588,
				"y": 0.1741938854,
				"z": 2.2571388259,
				"element": "C" 
			},
			{
				"x": -1.5836972671,
				"y": 1.4648713633,
				"z": 1.7989553111,
				"element": "C" 
			},
			{
				"x": -0.7513451868,
				"y": 1.581060292,
				"z": 0.6882488151,
				"element": "C" 
			},
			{
				"x": -0.2741174149,
				"y": 2.6688674775,
				"z": -0.0282899445,
				"element": "N" 
			},
			{
				"x": 0.5113177173,
				"y": 2.153339717,
				"z": -1.0461661613,
				"element": "C" 
			},
			{
				"x": 1.1327081626,
				"y": 3.0438609683,
				"z": -1.9192381136,
				"element": "N" 
			},
			{
				"x": 1.4976766554,
				"y": 2.8385171184,
				"z": -3.2453469488,
				"element": "C" 
			},
			{
				"x": 2.2538077462,
				"y": 3.5922917283,
				"z": -3.8251548423,
				"element": "O" 
			},
			{
				"x": 0.8882393197,
				"y": 1.7738704426,
				"z": -3.7799366313,
				"element": "O" 
			},
			{
				"x": 1.2317431599,
				"y": 1.5097330143,
				"z": -5.1495052921,
				"element": "C" 
			},
			{
				"x": 0.6059731728,
				"y": 0.8515850708,
				"z": -1.0326282886,
				"element": "N" 
			},
			{
				"x": -0.1905340111,
				"y": 0.4554171553,
				"z": 0.0361456945,
				"element": "C" 
			},
			{
				"x": -0.4719182652,
				"y": -0.8306440909,
				"z": 0.5041529063,
				"element": "C" 
			},
			{
				"x": -1.9451694251,
				"y": -2.3632912307,
				"z": 5.2413779596,
				"element": "H" 
			},
			{
				"x": -0.9103716479,
				"y": -3.6749574812,
				"z": 5.8209846052,
				"element": "H" 
			},
			{
				"x": -0.7051833513,
				"y": -2.0399613644,
				"z": 6.4650652372,
				"element": "H" 
			},
			{
				"x": 1.0951516729,
				"y": -2.5598371606,
				"z": 4.7948364315,
				"element": "H" 
			},
			{
				"x": 0.0987638478,
				"y": -1.2238032006,
				"z": 4.2444115711,
				"element": "H" 
			},
			{
				"x": 0.6702974707,
				"y": -2.9258800269,
				"z": 2.4494278226,
				"element": "H" 
			},
			{
				"x": -0.2730136383,
				"y": -4.1312908161,
				"z": 3.3282930007,
				"element": "H" 
			},
			{
				"x": -2.4922282739,
				"y": 0.0317135068,
				"z": 3.1167950843,
				"element": "H" 
			},
			{
				"x": -2.0134573659,
				"y": 2.3315352424,
				"z": 2.2920613532,
				"element": "H" 
			},
			{
				"x": -0.5893665018,
				"y": 3.6239627772,
				"z": 0.0436465315,
				"element": "H" 
			},
			{
				"x": 1.5859380146,
				"y": 3.8557830345,
				"z": -1.5227849591,
				"element": "H" 
			},
			{
				"x": 2.3062551867,
				"y": 1.3404528461,
				"z": -5.2503065825,
				"element": "H" 
			},
			{
				"x": 0.941070663,
				"y": 2.3470572803,
				"z": -5.7887007704,
				"element": "H" 
			},
			{
				"x": 0.6762942393,
				"y": 0.6113196114,
				"z": -5.4164178041,
				"element": "H" 
			},
			{
				"x": -0.064503019,
				"y": -1.6999246401,
				"z": -0.0005426308,
				"element": "H" 
			}
		],
		 "valence_orbital": [ 
			{
				"type": "occ",
				"energy": -0.28505,
				"method": "rhf"
			},
			{
				"type": "occ",
				"energy": -0.27913,
				"method": "rhf"
			},
			{
				"type": "occ",
				"energy": -0.23608,
				"method": "rhf"
			},
			{
				"type": "occ",
				"energy": -0.22318,
				"method": "rhf"
			},
			{
				"type": "occ",
				"energy": -0.21486,
				"method": "rhf"
			},
			{
				"type": "unocc",
				"energy": -0.0243,
				"method": "rhf"
			},
			{
				"type": "unocc",
				"energy": 0.00089,
				"method": "rhf"
			},
			{
				"type": "unocc",
				"energy": 0.02884,
				"method": "rhf"
			},
			{
				"type": "unocc",
				"energy": 0.05521,
				"method": "rhf"
			},
			{
				"type": "unocc",
				"energy": 0.05915,
				"method": "rhf"
			}
		],
		"cosmo_sigma_profile": { 
			"-0.025": 0.0,
			"-0.024": 0.0,
			"-0.023": 0.0,
			"-0.022": 0.0,
			"-0.021": 0.0,
			"-0.02": 0.0,
			"-0.019": 0.0,
			"-0.018": 0.0253702428084,
			"-0.017": 1.54771050833,
			"-0.016": 4.19411408201,
			"-0.015": 2.7462356398,
			"-0.014": 1.76919534591,
			"-0.013": 2.11950219345,
			"-0.012": 2.24803156644,
			"-0.011": 1.36879038655,
			"-0.01": 1.5599658119,
			"-0.009": 1.75729352279,
			"-0.008": 2.12722456126,
			"-0.007": 4.85925006471,
			"-0.006": 10.1174526145,
			"-0.005": 15.3777088023,
			"-0.004": 20.092540178,
			"-0.003": 24.9817352277,
			"-0.002": 24.918603716,
			"-0.001": 26.8426368385,
			"0.0": 28.0119804204,
			"0.001": 25.1266462405,
			"0.002": 20.3346744462,
			"0.003": 15.3230554379,
			"0.004": 17.7411780458,
			"0.005": 10.8047882499,
			"0.006": 7.56541958397,
			"0.007": 6.58422976693,
			"0.008": 5.09068487022,
			"0.009": 4.80243781624,
			"0.01": 3.33375175424,
			"0.011": 4.53767273529,
			"0.012": 7.24815437434,
			"0.013": 2.67652747127,
			"0.014": 1.40416002096,
			"0.015": 1.07485349259,
			"0.016": 1.17915883241,
			"0.017": 0.581679413871,
			"0.018": 0.0,
			"0.019": 0.0,
			"0.02": 0.0,
			"0.021": 0.0,
			"0.022": 0.0,
			"0.023": 0.0,
			"0.024": 0.0,
			"0.025": 0.0
		}
	}
}
