{
	 "smiles": "OC(=O)C1=CC(=CC=C1)S(=O)(=O)NCC=C", 
	 "Tm": 454.15, 
	 "num_atms": 27, 
	 "gaussian": { 
		 "optdone": 1, 
		 "sigma_profile": "yes", 
		 "theory": "DFT", 
		 "functional": "B3LYP", 
		 "basiset": "6-31G**", 
		 "properties": { 
			 "R2extent": 6208.8239, 
			 "electric_dipole_moment_norm": 3.47286521046, 
			 "electric_quadrupole_moment_norm": 25.9051740886, 
			 "total_energy": -1141.43743394, 
			 "HOMO_LUMO_gap": 0.20271, 
			 "cosmo_polarized_energy": -21.83, 
			 "cosmo_cavitation_energy": 33.67, 
			 "cosmo_dispersion_energy": -23.75, 
			 "cosmo_repulsion_energy": 1.83, 
			 "cosmo_total_nonelectrostatic_energy": 11.75, 
			 "SMD_solvation_energy": 6.48 
		},
		"coords": [
			{
				"x": -3.3088100064,
				"y": -4.4585033624,
				"z": -0.2296826485,
				"element": "O" 
			},
			{
				"x": -2.9086037492,
				"y": -4.0178155056,
				"z": 0.9896824443,
				"element": "C" 
			},
			{
				"x": -3.3243333041,
				"y": -4.5434730699,
				"z": 1.9945400038,
				"element": "O" 
			},
			{
				"x": -1.9454149333,
				"y": -2.8646563302,
				"z": 1.014263606,
				"element": "C" 
			},
			{
				"x": -1.8046378267,
				"y": -1.9732590909,
				"z": -0.0526840606,
				"element": "C" 
			},
			{
				"x": -0.8963754216,
				"y": -0.9189789111,
				"z": 0.0537136291,
				"element": "C" 
			},
			{
				"x": -0.1164616409,
				"y": -0.7419528317,
				"z": 1.1951654749,
				"element": "C" 
			},
			{
				"x": -0.2740451482,
				"y": -1.6273650868,
				"z": 2.2661476514,
				"element": "C" 
			},
			{
				"x": -1.188931036,
				"y": -2.6720820907,
				"z": 2.1813561241,
				"element": "C" 
			},
			{
				"x": -0.7152721386,
				"y": 0.207959249,
				"z": -1.3327829062,
				"element": "S" 
			},
			{
				"x": 0.4831349073,
				"y": 1.0152977489,
				"z": -1.0783711606,
				"element": "O" 
			},
			{
				"x": -0.8796470331,
				"y": -0.552404206,
				"z": -2.5754696563,
				"element": "O" 
			},
			{
				"x": -2.115585086,
				"y": 1.1443671896,
				"z": -1.2165989095,
				"element": "N" 
			},
			{
				"x": -2.07150819,
				"y": 2.335216645,
				"z": -0.3571102897,
				"element": "C" 
			},
			{
				"x": -3.4126474068,
				"y": 3.0151191502,
				"z": -0.2785522336,
				"element": "C" 
			},
			{
				"x": -4.5705637887,
				"y": 2.5287269221,
				"z": -0.723541438,
				"element": "C" 
			},
			{
				"x": -2.7702631606,
				"y": -4.0664705036,
				"z": -0.9313247312,
				"element": "H" 
			},
			{
				"x": -2.3986435532,
				"y": -2.0613062108,
				"z": -0.9573097711,
				"element": "H" 
			},
			{
				"x": 0.6024677984,
				"y": 0.0691896961,
				"z": 1.230544194,
				"element": "H" 
			},
			{
				"x": 0.3219016482,
				"y": -1.4984822114,
				"z": 3.1641058441,
				"element": "H" 
			},
			{
				"x": -1.334126795,
				"y": -3.3620350234,
				"z": 3.0055306064,
				"element": "H" 
			},
			{
				"x": -2.4251412274,
				"y": 1.3424211875,
				"z": -2.1669367848,
				"element": "H" 
			},
			{
				"x": -1.3073519138,
				"y": 3.0510814052,
				"z": -0.6910375902,
				"element": "H" 
			},
			{
				"x": -1.7685187878,
				"y": 2.0122720105,
				"z": 0.6479767229,
				"element": "H" 
			},
			{
				"x": -3.3842456342,
				"y": 3.99678073,
				"z": 0.1923197549,
				"element": "H" 
			},
			{
				"x": -5.4899988507,
				"y": 3.0969474775,
				"z": -0.6262758168,
				"element": "H" 
			},
			{
				"x": -4.6440777217,
				"y": 1.548505023,
				"z": -1.184268059,
				"element": "H" 
			}
		],
		 "valence_orbital": [ 
			{
				"type": "occ",
				"energy": -0.30345,
				"method": "rhf"
			},
			{
				"type": "occ",
				"energy": -0.29318,
				"method": "rhf"
			},
			{
				"type": "occ",
				"energy": -0.28377,
				"method": "rhf"
			},
			{
				"type": "occ",
				"energy": -0.27906,
				"method": "rhf"
			},
			{
				"type": "occ",
				"energy": -0.27146,
				"method": "rhf"
			},
			{
				"type": "unocc",
				"energy": -0.06875,
				"method": "rhf"
			},
			{
				"type": "unocc",
				"energy": -0.05579,
				"method": "rhf"
			},
			{
				"type": "unocc",
				"energy": 0.00186,
				"method": "rhf"
			},
			{
				"type": "unocc",
				"energy": 0.02644,
				"method": "rhf"
			},
			{
				"type": "unocc",
				"energy": 0.04107,
				"method": "rhf"
			}
		],
		"cosmo_sigma_profile": { 
			"-0.025": 0.0,
			"-0.024": 0.0,
			"-0.023": 0.0,
			"-0.022": 0.0,
			"-0.021": 0.0,
			"-0.02": 0.148428438336,
			"-0.019": 0.803479545166,
			"-0.018": 1.27922117235,
			"-0.017": 0.854832401084,
			"-0.016": 0.605977503417,
			"-0.015": 0.906179462179,
			"-0.014": 1.96446282661,
			"-0.013": 2.18025313896,
			"-0.012": 2.12655447023,
			"-0.011": 2.18276339852,
			"-0.01": 2.20511790988,
			"-0.009": 2.17953304483,
			"-0.008": 4.29265514136,
			"-0.007": 10.7095474559,
			"-0.006": 14.2699752048,
			"-0.005": 20.5928383584,
			"-0.004": 18.2554539367,
			"-0.003": 14.9093422024,
			"-0.002": 15.7822647159,
			"-0.001": 17.9012611903,
			"0.0": 20.0926726698,
			"0.001": 18.5127837768,
			"0.002": 10.4532807229,
			"0.003": 8.72504052856,
			"0.004": 8.26399541118,
			"0.005": 10.083929635,
			"0.006": 7.31771815378,
			"0.007": 5.78626713605,
			"0.008": 6.36963673589,
			"0.009": 7.25521978112,
			"0.01": 13.7433982725,
			"0.011": 12.7123318292,
			"0.012": 4.77484210162,
			"0.013": 0.5077737384,
			"0.014": 0.0,
			"0.015": 0.0,
			"0.016": 0.0,
			"0.017": 0.0,
			"0.018": 0.0,
			"0.019": 0.0,
			"0.02": 0.0,
			"0.021": 0.0,
			"0.022": 0.0,
			"0.023": 0.0,
			"0.024": 0.0,
			"0.025": 0.0
		}
	}
}
