{
	 "smiles": "CN(CC1=CC=CC=C1)C(=O)NCCC(O)=O", 
	 "Tm": 394.15, 
	 "num_atms": 33, 
	 "gaussian": { 
		 "optdone": 1, 
		 "sigma_profile": "yes", 
		 "theory": "DFT", 
		 "functional": "B3LYP", 
		 "basiset": "6-31G**", 
		 "properties": { 
			 "R2extent": 6987.0304, 
			 "electric_dipole_moment_norm": 8.99244707518, 
			 "electric_quadrupole_moment_norm": 40.2353185731, 
			 "total_energy": -802.1365448, 
			 "HOMO_LUMO_gap": 0.2251, 
			 "cosmo_polarized_energy": -21.25, 
			 "cosmo_cavitation_energy": 35.84, 
			 "cosmo_dispersion_energy": -25.53, 
			 "cosmo_repulsion_energy": 2.0, 
			 "cosmo_total_nonelectrostatic_energy": 12.3, 
			 "SMD_solvation_energy": 6.73 
		},
		"coords": [
			{
				"x": -0.9941192403,
				"y": -0.701534168,
				"z": 1.4124623978,
				"element": "C" 
			},
			{
				"x": -0.9355881869,
				"y": -0.2193176125,
				"z": 0.0401111867,
				"element": "N" 
			},
			{
				"x": 0.2100680543,
				"y": -0.6303955473,
				"z": -0.7836647767,
				"element": "C" 
			},
			{
				"x": 1.5113379102,
				"y": 0.040916371,
				"z": -0.3861177206,
				"element": "C" 
			},
			{
				"x": 2.5694803481,
				"y": -0.7007034061,
				"z": 0.1497251549,
				"element": "C" 
			},
			{
				"x": 3.765532497,
				"y": -0.0759077692,
				"z": 0.5147689057,
				"element": "C" 
			},
			{
				"x": 3.9107057389,
				"y": 1.3005689935,
				"z": 0.3470046256,
				"element": "C" 
			},
			{
				"x": 2.8584492184,
				"y": 2.0494407923,
				"z": -0.1898212195,
				"element": "C" 
			},
			{
				"x": 1.667281258,
				"y": 1.4253028854,
				"z": -0.5545984017,
				"element": "C" 
			},
			{
				"x": -1.8544660727,
				"y": 0.6474598339,
				"z": -0.487034537,
				"element": "C" 
			},
			{
				"x": -1.6719544878,
				"y": 1.2081844675,
				"z": -1.5852673425,
				"element": "O" 
			},
			{
				"x": -2.977955749,
				"y": 0.8978514361,
				"z": 0.2636122177,
				"element": "N" 
			},
			{
				"x": -4.0122500843,
				"y": 1.788468441,
				"z": -0.2572049304,
				"element": "C" 
			},
			{
				"x": -4.8357997705,
				"y": 1.2282016773,
				"z": -1.4523707793,
				"element": "C" 
			},
			{
				"x": -4.7564113333,
				"y": 2.074886982,
				"z": -2.7283249212,
				"element": "C" 
			},
			{
				"x": -3.5217210383,
				"y": 2.3680914911,
				"z": -3.1585160094,
				"element": "O" 
			},
			{
				"x": -5.7448565597,
				"y": 2.4522781116,
				"z": -3.3169561196,
				"element": "O" 
			},
			{
				"x": 0.0215927474,
				"y": -0.9172040824,
				"z": 1.7520733751,
				"element": "H" 
			},
			{
				"x": -1.4028202859,
				"y": 0.0661440531,
				"z": 2.0748482214,
				"element": "H" 
			},
			{
				"x": -1.5914826959,
				"y": -1.6195334804,
				"z": 1.5128935083,
				"element": "H" 
			},
			{
				"x": -0.0453025169,
				"y": -0.3853076469,
				"z": -1.8155194032,
				"element": "H" 
			},
			{
				"x": 0.3126128868,
				"y": -1.7196036514,
				"z": -0.7075265638,
				"element": "H" 
			},
			{
				"x": 2.4621622721,
				"y": -1.7761722989,
				"z": 0.2745212281,
				"element": "H" 
			},
			{
				"x": 4.5793220217,
				"y": -0.6648077045,
				"z": 0.9283738912,
				"element": "H" 
			},
			{
				"x": 4.8389712171,
				"y": 1.7893381205,
				"z": 0.6286645366,
				"element": "H" 
			},
			{
				"x": 2.9705521987,
				"y": 3.1209767161,
				"z": -0.329244295,
				"element": "H" 
			},
			{
				"x": 0.8501021547,
				"y": 2.0012644434,
				"z": -0.979944493,
				"element": "H" 
			},
			{
				"x": -3.2643147801,
				"y": 0.2094412511,
				"z": 0.942771571,
				"element": "H" 
			},
			{
				"x": -4.678099446,
				"y": 2.0161317868,
				"z": 0.5785815104,
				"element": "H" 
			},
			{
				"x": -3.5258975332,
				"y": 2.7257082011,
				"z": -0.5382041754,
				"element": "H" 
			},
			{
				"x": -4.4760833793,
				"y": 0.2208916801,
				"z": -1.6936368992,
				"element": "H" 
			},
			{
				"x": -5.8938199762,
				"y": 1.1448200706,
				"z": -1.198180096,
				"element": "H" 
			},
			{
				"x": -2.8283273871,
				"y": 1.9449195623,
				"z": -2.5911796474,
				"element": "H" 
			}
		],
		 "valence_orbital": [ 
			{
				"type": "occ",
				"energy": -0.2755,
				"method": "rhf"
			},
			{
				"type": "occ",
				"energy": -0.26194,
				"method": "rhf"
			},
			{
				"type": "occ",
				"energy": -0.25732,
				"method": "rhf"
			},
			{
				"type": "occ",
				"energy": -0.24843,
				"method": "rhf"
			},
			{
				"type": "occ",
				"energy": -0.23879,
				"method": "rhf"
			},
			{
				"type": "unocc",
				"energy": -0.01369,
				"method": "rhf"
			},
			{
				"type": "unocc",
				"energy": -0.00818,
				"method": "rhf"
			},
			{
				"type": "unocc",
				"energy": 0.02658,
				"method": "rhf"
			},
			{
				"type": "unocc",
				"energy": 0.03749,
				"method": "rhf"
			},
			{
				"type": "unocc",
				"energy": 0.05614,
				"method": "rhf"
			}
		],
		"cosmo_sigma_profile": { 
			"-0.025": 0.0,
			"-0.024": 0.0,
			"-0.023": 0.0,
			"-0.022": 0.0,
			"-0.021": 0.0,
			"-0.02": 0.0,
			"-0.019": 0.0,
			"-0.018": 0.0,
			"-0.017": 0.0,
			"-0.016": 0.0,
			"-0.015": 0.0842118196183,
			"-0.014": 0.814679707571,
			"-0.013": 1.33473869446,
			"-0.012": 1.40106960606,
			"-0.011": 0.894367450809,
			"-0.01": 1.8673664805,
			"-0.009": 1.69281836777,
			"-0.008": 1.26829556893,
			"-0.007": 4.00772599047,
			"-0.006": 15.8534468624,
			"-0.005": 29.1536505828,
			"-0.004": 29.6496007967,
			"-0.003": 29.236415231,
			"-0.002": 22.0230236935,
			"-0.001": 15.5799209393,
			"0.0": 15.6673060817,
			"0.001": 16.2600290773,
			"0.002": 13.4175867842,
			"0.003": 11.7031443251,
			"0.004": 12.982750904,
			"0.005": 11.8726487961,
			"0.006": 10.804970606,
			"0.007": 4.76079901832,
			"0.008": 3.40566950916,
			"0.009": 4.27095175526,
			"0.01": 3.8283327728,
			"0.011": 3.89715952724,
			"0.012": 7.14434083308,
			"0.013": 5.98150640131,
			"0.014": 2.33941981282,
			"0.015": 0.144115841733,
			"0.016": 0.0,
			"0.017": 0.0,
			"0.018": 0.0,
			"0.019": 0.0,
			"0.02": 0.0,
			"0.021": 0.0,
			"0.022": 0.0,
			"0.023": 0.0,
			"0.024": 0.0,
			"0.025": 0.0
		}
	}
}
