{
	 "smiles": "OCC1=CC=CC2=CC=CC(CO)=C12", 
	 "Tm": 429.15, 
	 "num_atms": 26, 
	 "gaussian": { 
		 "optdone": 1, 
		 "sigma_profile": "yes", 
		 "theory": "DFT", 
		 "functional": "B3LYP", 
		 "basiset": "6-31G**", 
		 "properties": { 
			 "R2extent": 3589.3776, 
			 "electric_dipole_moment_norm": 2.639744177, 
			 "electric_quadrupole_moment_norm": 17.7556961452, 
			 "total_energy": -614.937753794, 
			 "HOMO_LUMO_gap": 0.17172, 
			 "cosmo_polarized_energy": -12.35, 
			 "cosmo_cavitation_energy": 27.99, 
			 "cosmo_dispersion_energy": -21.0, 
			 "cosmo_repulsion_energy": 1.62, 
			 "cosmo_total_nonelectrostatic_energy": 8.61, 
			 "SMD_solvation_energy": 4.52 
		},
		"coords": [
			{
				"x": -3.8354010975,
				"y": -0.3268456527,
				"z": -3.0047550521,
				"element": "O" 
			},
			{
				"x": -3.0388775726,
				"y": -0.502684015,
				"z": -1.8423675137,
				"element": "C" 
			},
			{
				"x": -2.0593610252,
				"y": 0.6400672826,
				"z": -1.5759320154,
				"element": "C" 
			},
			{
				"x": -2.098074099,
				"y": 1.7110972093,
				"z": -2.4499836411,
				"element": "C" 
			},
			{
				"x": -1.1933549651,
				"y": 2.7898842938,
				"z": -2.3722261457,
				"element": "C" 
			},
			{
				"x": -0.2219057397,
				"y": 2.7843929608,
				"z": -1.4059756285,
				"element": "C" 
			},
			{
				"x": -0.1506454302,
				"y": 1.7270957064,
				"z": -0.4599428979,
				"element": "C" 
			},
			{
				"x": 0.8694796552,
				"y": 1.7689709474,
				"z": 0.5283383383,
				"element": "C" 
			},
			{
				"x": 0.969299396,
				"y": 0.7903726946,
				"z": 1.4828168025,
				"element": "C" 
			},
			{
				"x": 0.0197877547,
				"y": -0.2513055787,
				"z": 1.4916877076,
				"element": "C" 
			},
			{
				"x": -0.9933896751,
				"y": -0.3543337191,
				"z": 0.5514240803,
				"element": "C" 
			},
			{
				"x": -1.9843362269,
				"y": -1.4812656732,
				"z": 0.7921082771,
				"element": "C" 
			},
			{
				"x": -3.2895372565,
				"y": -1.0220077922,
				"z": 1.1470563689,
				"element": "O" 
			},
			{
				"x": -1.0967770728,
				"y": 0.6359105872,
				"z": -0.4985379132,
				"element": "C" 
			},
			{
				"x": -3.2556872496,
				"y": -0.4060633765,
				"z": -3.7738498808,
				"element": "H" 
			},
			{
				"x": -2.47948256,
				"y": -1.4461609465,
				"z": -1.9178411301,
				"element": "H" 
			},
			{
				"x": -3.734946787,
				"y": -0.605385403,
				"z": -1.0065751717,
				"element": "H" 
			},
			{
				"x": -2.8616767868,
				"y": 1.7110627831,
				"z": -3.219241086,
				"element": "H" 
			},
			{
				"x": -1.2643994634,
				"y": 3.6062903833,
				"z": -3.0852053627,
				"element": "H" 
			},
			{
				"x": 0.5047813596,
				"y": 3.5895675284,
				"z": -1.3379555224,
				"element": "H" 
			},
			{
				"x": 1.5688014884,
				"y": 2.6008306416,
				"z": 0.5104312561,
				"element": "H" 
			},
			{
				"x": 1.7504845195,
				"y": 0.8215021973,
				"z": 2.2363974112,
				"element": "H" 
			},
			{
				"x": 0.0764889818,
				"y": -1.0021845228,
				"z": 2.2759148698,
				"element": "H" 
			},
			{
				"x": -1.5784520619,
				"y": -2.1283438823,
				"z": 1.5825862926,
				"element": "H" 
			},
			{
				"x": -2.1282758592,
				"y": -2.1167724715,
				"z": -0.0826183274,
				"element": "H" 
			},
			{
				"x": -3.1808422266,
				"y": -0.3519921824,
				"z": 1.8354458845,
				"element": "H" 
			}
		],
		 "valence_orbital": [ 
			{
				"type": "occ",
				"energy": -0.27958,
				"method": "rhf"
			},
			{
				"type": "occ",
				"energy": -0.272,
				"method": "rhf"
			},
			{
				"type": "occ",
				"energy": -0.26995,
				"method": "rhf"
			},
			{
				"type": "occ",
				"energy": -0.24439,
				"method": "rhf"
			},
			{
				"type": "occ",
				"energy": -0.21285,
				"method": "rhf"
			},
			{
				"type": "unocc",
				"energy": -0.04113,
				"method": "rhf"
			},
			{
				"type": "unocc",
				"energy": -0.01256,
				"method": "rhf"
			},
			{
				"type": "unocc",
				"energy": 0.02591,
				"method": "rhf"
			},
			{
				"type": "unocc",
				"energy": 0.07721,
				"method": "rhf"
			},
			{
				"type": "unocc",
				"energy": 0.08974,
				"method": "rhf"
			}
		],
		"cosmo_sigma_profile": { 
			"-0.025": 0.0,
			"-0.024": 0.0,
			"-0.023": 0.0,
			"-0.022": 0.0,
			"-0.021": 0.0,
			"-0.02": 0.0,
			"-0.019": 0.0,
			"-0.018": 0.0,
			"-0.017": 0.0,
			"-0.016": 0.223892456151,
			"-0.015": 1.50469867278,
			"-0.014": 1.77815172093,
			"-0.013": 1.85297146778,
			"-0.012": 1.66631571358,
			"-0.011": 1.49845968785,
			"-0.01": 1.6707866666,
			"-0.009": 1.83573455716,
			"-0.008": 1.67598240469,
			"-0.007": 2.72785679054,
			"-0.006": 13.2623073236,
			"-0.005": 17.3465562537,
			"-0.004": 18.2638553445,
			"-0.003": 16.3102218292,
			"-0.002": 13.1066630276,
			"-0.001": 12.4100528136,
			"0.0": 11.1295934383,
			"0.001": 10.3300195267,
			"0.002": 12.5658524571,
			"0.003": 15.2413851457,
			"0.004": 22.6408803425,
			"0.005": 18.078101389,
			"0.006": 4.96047095953,
			"0.007": 3.22397713275,
			"0.008": 2.21680442718,
			"0.009": 1.73676498431,
			"0.01": 2.3557803592,
			"0.011": 2.28763374675,
			"0.012": 2.12349340974,
			"0.013": 3.06988258333,
			"0.014": 2.73359290695,
			"0.015": 0.143476932577,
			"0.016": 0.0,
			"0.017": 0.0,
			"0.018": 0.0,
			"0.019": 0.0,
			"0.02": 0.0,
			"0.021": 0.0,
			"0.022": 0.0,
			"0.023": 0.0,
			"0.024": 0.0,
			"0.025": 0.0
		}
	}
}
