{
	 "smiles": "COC1=CC=C(C=C1)N1C(C)=CC(C=O)=C1C", 
	 "Tm": 407.15, 
	 "num_atms": 32, 
	 "gaussian": { 
		 "optdone": 1, 
		 "sigma_profile": "yes", 
		 "theory": "DFT", 
		 "functional": "B3LYP", 
		 "basiset": "6-31G**", 
		 "properties": { 
			 "R2extent": 5565.1039, 
			 "electric_dipole_moment_norm": 6.48527982511, 
			 "electric_quadrupole_moment_norm": 21.089054393, 
			 "total_energy": -747.717045904, 
			 "HOMO_LUMO_gap": 0.17983, 
			 "cosmo_polarized_energy": -12.29, 
			 "cosmo_cavitation_energy": 36.0, 
			 "cosmo_dispersion_energy": -24.69, 
			 "cosmo_repulsion_energy": 1.93, 
			 "cosmo_total_nonelectrostatic_energy": 13.23, 
			 "SMD_solvation_energy": 8.16 
		},
		"coords": [
			{
				"x": 0.6257222022,
				"y": 5.8160315641,
				"z": -0.2019272594,
				"element": "C" 
			},
			{
				"x": -0.4006853976,
				"y": 5.0368927269,
				"z": 0.3955381528,
				"element": "O" 
			},
			{
				"x": -0.3880743149,
				"y": 3.689810987,
				"z": 0.2012553928,
				"element": "C" 
			},
			{
				"x": 0.5752250634,
				"y": 3.0016647344,
				"z": -0.5477772745,
				"element": "C" 
			},
			{
				"x": 0.4866795609,
				"y": 1.6136555813,
				"z": -0.6778727578,
				"element": "C" 
			},
			{
				"x": -0.5512088311,
				"y": 0.9066050526,
				"z": -0.0719877742,
				"element": "C" 
			},
			{
				"x": -1.5130611325,
				"y": 1.5993319505,
				"z": 0.6758314692,
				"element": "C" 
			},
			{
				"x": -1.4331254976,
				"y": 2.9782961695,
				"z": 0.8129086858,
				"element": "C" 
			},
			{
				"x": -0.6334476549,
				"y": -0.5172047831,
				"z": -0.2104514221,
				"element": "N" 
			},
			{
				"x": -0.0843006775,
				"y": -1.442061482,
				"z": 0.6902635939,
				"element": "C" 
			},
			{
				"x": 0.6651696306,
				"y": -1.0109045456,
				"z": 1.9092085919,
				"element": "C" 
			},
			{
				"x": -0.3761862324,
				"y": -2.6915523342,
				"z": 0.2121676969,
				"element": "C" 
			},
			{
				"x": -1.1197411716,
				"y": -2.543288588,
				"z": -1.0056289445,
				"element": "C" 
			},
			{
				"x": -1.6195205388,
				"y": -3.6383777667,
				"z": -1.8211446498,
				"element": "C" 
			},
			{
				"x": -2.2555068154,
				"y": -3.544375554,
				"z": -2.8641487804,
				"element": "O" 
			},
			{
				"x": -1.2638434725,
				"y": -1.1753131072,
				"z": -1.2421387356,
				"element": "C" 
			},
			{
				"x": -1.9515345853,
				"y": -0.4601802092,
				"z": -2.3585940526,
				"element": "C" 
			},
			{
				"x": 0.6139655207,
				"y": 5.7290820586,
				"z": -1.2957427688,
				"element": "H" 
			},
			{
				"x": 1.6178036957,
				"y": 5.5320944742,
				"z": 0.1714514297,
				"element": "H" 
			},
			{
				"x": 0.4193364605,
				"y": 6.8497944251,
				"z": 0.0781881204,
				"element": "H" 
			},
			{
				"x": 1.390280844,
				"y": 3.5281888757,
				"z": -1.0291663881,
				"element": "H" 
			},
			{
				"x": 1.2310057874,
				"y": 1.0746805626,
				"z": -1.2559663438,
				"element": "H" 
			},
			{
				"x": -2.3219957957,
				"y": 1.0476733741,
				"z": 1.1447009535,
				"element": "H" 
			},
			{
				"x": -2.1690299879,
				"y": 3.531062721,
				"z": 1.3870696101,
				"element": "H" 
			},
			{
				"x": 1.5450957658,
				"y": -0.4046041182,
				"z": 1.6628690479,
				"element": "H" 
			},
			{
				"x": 0.0462324197,
				"y": -0.4148185729,
				"z": 2.590421447,
				"element": "H" 
			},
			{
				"x": 1.0078600303,
				"y": -1.8938082136,
				"z": 2.4539100716,
				"element": "H" 
			},
			{
				"x": -0.0915142465,
				"y": -3.6266153809,
				"z": 0.6764945663,
				"element": "H" 
			},
			{
				"x": -1.3726185426,
				"y": -4.6453146219,
				"z": -1.4127110036,
				"element": "H" 
			},
			{
				"x": -2.3786520454,
				"y": -1.2031720901,
				"z": -3.0318672569,
				"element": "H" 
			},
			{
				"x": -1.2574792512,
				"y": 0.1741797782,
				"z": -2.9227702668,
				"element": "H" 
			},
			{
				"x": -2.7525507898,
				"y": 0.1910463317,
				"z": -1.9888831508,
				"element": "H" 
			}
		],
		 "valence_orbital": [ 
			{
				"type": "occ",
				"energy": -0.27008,
				"method": "rhf"
			},
			{
				"type": "occ",
				"energy": -0.24188,
				"method": "rhf"
			},
			{
				"type": "occ",
				"energy": -0.23621,
				"method": "rhf"
			},
			{
				"type": "occ",
				"energy": -0.22747,
				"method": "rhf"
			},
			{
				"type": "occ",
				"energy": -0.20228,
				"method": "rhf"
			},
			{
				"type": "unocc",
				"energy": -0.02245,
				"method": "rhf"
			},
			{
				"type": "unocc",
				"energy": -0.02002,
				"method": "rhf"
			},
			{
				"type": "unocc",
				"energy": -0.00935,
				"method": "rhf"
			},
			{
				"type": "unocc",
				"energy": 0.0432,
				"method": "rhf"
			},
			{
				"type": "unocc",
				"energy": 0.07712,
				"method": "rhf"
			}
		],
		"cosmo_sigma_profile": { 
			"-0.025": 0.0,
			"-0.024": 0.0,
			"-0.023": 0.0,
			"-0.022": 0.0,
			"-0.021": 0.0,
			"-0.02": 0.0,
			"-0.019": 0.0,
			"-0.018": 0.0,
			"-0.017": 0.0,
			"-0.016": 0.0,
			"-0.015": 0.0,
			"-0.014": 0.0,
			"-0.013": 0.0,
			"-0.012": 0.0,
			"-0.011": 0.0,
			"-0.01": 0.0,
			"-0.009": 0.0,
			"-0.008": 0.0,
			"-0.007": 4.02698845555,
			"-0.006": 14.0565940984,
			"-0.005": 22.6662463333,
			"-0.004": 29.0781650837,
			"-0.003": 30.8436867763,
			"-0.002": 25.9266837368,
			"-0.001": 24.930311787,
			"0.0": 25.5009686656,
			"0.001": 15.6435289296,
			"0.002": 16.9945556205,
			"0.003": 18.3513159015,
			"0.004": 17.1302661697,
			"0.005": 9.03874972541,
			"0.006": 6.99036429146,
			"0.007": 4.85570581951,
			"0.008": 2.90617989649,
			"0.009": 3.70329846217,
			"0.01": 2.7420443906,
			"0.011": 2.40558586241,
			"0.012": 3.43053979913,
			"0.013": 2.86530349364,
			"0.014": 1.69394984802,
			"0.015": 0.222150849235,
			"0.016": 0.0,
			"0.017": 0.0,
			"0.018": 0.0,
			"0.019": 0.0,
			"0.02": 0.0,
			"0.021": 0.0,
			"0.022": 0.0,
			"0.023": 0.0,
			"0.024": 0.0,
			"0.025": 0.0
		}
	}
}
