{
	 "smiles": "CN1C=CN=C1C(O)C1CCNCC1", 
	 "Tm": 481.15, 
	 "num_atms": 31, 
	 "gaussian": { 
		 "optdone": 1, 
		 "sigma_profile": "yes", 
		 "theory": "DFT", 
		 "functional": "B3LYP", 
		 "basiset": "6-31G**", 
		 "properties": { 
			 "R2extent": 3198.7071, 
			 "electric_dipole_moment_norm": 2.04489129784, 
			 "electric_quadrupole_moment_norm": 10.3270504235, 
			 "total_energy": -630.767939717, 
			 "HOMO_LUMO_gap": 0.23149, 
			 "cosmo_polarized_energy": -12.42, 
			 "cosmo_cavitation_energy": 31.07, 
			 "cosmo_dispersion_energy": -22.38, 
			 "cosmo_repulsion_energy": 1.76, 
			 "cosmo_total_nonelectrostatic_energy": 10.45, 
			 "SMD_solvation_energy": 2.77 
		},
		"coords": [
			{
				"x": 1.6497721471,
				"y": -1.670607576,
				"z": 0.5152684011,
				"element": "C" 
			},
			{
				"x": 1.5507629146,
				"y": -0.3650501508,
				"z": 1.1533157309,
				"element": "N" 
			},
			{
				"x": 2.1743724498,
				"y": 0.0288272046,
				"z": 2.31873278,
				"element": "C" 
			},
			{
				"x": 1.8116457659,
				"y": 1.3386208505,
				"z": 2.5120945358,
				"element": "C" 
			},
			{
				"x": 0.9856452954,
				"y": 1.7609213357,
				"z": 1.4987550523,
				"element": "N" 
			},
			{
				"x": 0.8362641459,
				"y": 0.7171035731,
				"z": 0.697839444,
				"element": "C" 
			},
			{
				"x": 0.0816033822,
				"y": 0.6846587918,
				"z": -0.6056994865,
				"element": "C" 
			},
			{
				"x": 1.02801786,
				"y": 0.5995827073,
				"z": -1.6927019831,
				"element": "O" 
			},
			{
				"x": -0.8874577772,
				"y": 1.8749407836,
				"z": -0.7846420384,
				"element": "C" 
			},
			{
				"x": -1.5722186763,
				"y": 1.8284961876,
				"z": -2.1784334173,
				"element": "C" 
			},
			{
				"x": -2.964139137,
				"y": 1.1612955469,
				"z": -2.1153026031,
				"element": "C" 
			},
			{
				"x": -2.9609934214,
				"y": 0.1370499402,
				"z": -1.0689413808,
				"element": "N" 
			},
			{
				"x": -2.9168131501,
				"y": 0.7219160291,
				"z": 0.2799303596,
				"element": "C" 
			},
			{
				"x": -1.9744245792,
				"y": 1.9457337945,
				"z": 0.3064510619,
				"element": "C" 
			},
			{
				"x": 0.7658296427,
				"y": -2.2835403512,
				"z": 0.7219935903,
				"element": "H" 
			},
			{
				"x": 1.7523902893,
				"y": -1.5358654081,
				"z": -0.5627964993,
				"element": "H" 
			},
			{
				"x": 2.5315303584,
				"y": -2.1881685327,
				"z": 0.8974576245,
				"element": "H" 
			},
			{
				"x": 2.8032349862,
				"y": -0.6447910712,
				"z": 2.8814237379,
				"element": "H" 
			},
			{
				"x": 2.1004312953,
				"y": 1.9974338701,
				"z": 3.319508602,
				"element": "H" 
			},
			{
				"x": -0.4959735565,
				"y": -0.2408137838,
				"z": -0.6893300367,
				"element": "H" 
			},
			{
				"x": 1.5944137286,
				"y": 1.3824080621,
				"z": -1.6302607388,
				"element": "H" 
			},
			{
				"x": -0.2791130975,
				"y": 2.7845991705,
				"z": -0.7061115905,
				"element": "H" 
			},
			{
				"x": -1.6823851953,
				"y": 2.8465124819,
				"z": -2.5703451564,
				"element": "H" 
			},
			{
				"x": -0.9225675721,
				"y": 1.2884138977,
				"z": -2.8721628284,
				"element": "H" 
			},
			{
				"x": -3.7455104978,
				"y": 1.9284070474,
				"z": -1.9528476571,
				"element": "H" 
			},
			{
				"x": -3.1948240872,
				"y": 0.6812129407,
				"z": -3.0720938767,
				"element": "H" 
			},
			{
				"x": -3.7695352835,
				"y": -0.4700948005,
				"z": -1.1599671705,
				"element": "H" 
			},
			{
				"x": -2.5600853629,
				"y": -0.0496594577,
				"z": 0.9745001061,
				"element": "H" 
			},
			{
				"x": -3.9124803276,
				"y": 1.0360792283,
				"z": 0.6414555185,
				"element": "H" 
			},
			{
				"x": -2.5576177461,
				"y": 2.85642982,
				"z": 0.1236751197,
				"element": "H" 
			},
			{
				"x": -1.5214747936,
				"y": 2.0584478683,
				"z": 1.293034799,
				"element": "H" 
			}
		],
		 "valence_orbital": [ 
			{
				"type": "occ",
				"energy": -0.27332,
				"method": "rhf"
			},
			{
				"type": "occ",
				"energy": -0.26193,
				"method": "rhf"
			},
			{
				"type": "occ",
				"energy": -0.25433,
				"method": "rhf"
			},
			{
				"type": "occ",
				"energy": -0.21589,
				"method": "rhf"
			},
			{
				"type": "occ",
				"energy": -0.20859,
				"method": "rhf"
			},
			{
				"type": "unocc",
				"energy": 0.0229,
				"method": "rhf"
			},
			{
				"type": "unocc",
				"energy": 0.07145,
				"method": "rhf"
			},
			{
				"type": "unocc",
				"energy": 0.07953,
				"method": "rhf"
			},
			{
				"type": "unocc",
				"energy": 0.09557,
				"method": "rhf"
			},
			{
				"type": "unocc",
				"energy": 0.1028,
				"method": "rhf"
			}
		],
		"cosmo_sigma_profile": { 
			"-0.025": 0.0,
			"-0.024": 0.0,
			"-0.023": 0.0,
			"-0.022": 0.0,
			"-0.021": 0.0,
			"-0.02": 0.0,
			"-0.019": 0.0,
			"-0.018": 0.0,
			"-0.017": 0.0,
			"-0.016": 0.0,
			"-0.015": 0.458311790898,
			"-0.014": 0.974911400074,
			"-0.013": 0.484944103442,
			"-0.012": 0.714697719805,
			"-0.011": 1.21993882899,
			"-0.01": 1.09562918168,
			"-0.009": 2.56130653554,
			"-0.008": 3.82491546498,
			"-0.007": 6.11205230399,
			"-0.006": 8.95227139423,
			"-0.005": 10.2742773458,
			"-0.004": 13.3884896211,
			"-0.003": 19.4869658407,
			"-0.002": 25.7050766131,
			"-0.001": 33.9823635304,
			"0.0": 27.4117389092,
			"0.001": 16.0938098244,
			"0.002": 10.3799108813,
			"0.003": 7.9859208845,
			"0.004": 7.68454569891,
			"0.005": 6.86377553997,
			"0.006": 8.52762667215,
			"0.007": 5.14115142031,
			"0.008": 4.02601078321,
			"0.009": 3.27994285315,
			"0.01": 3.68612455315,
			"0.011": 2.48666621791,
			"0.012": 2.01976873728,
			"0.013": 2.86821392154,
			"0.014": 1.80764145781,
			"0.015": 0.699948521779,
			"0.016": 0.910982947195,
			"0.017": 0.537548606555,
			"0.018": 0.0,
			"0.019": 0.0,
			"0.02": 0.0,
			"0.021": 0.0,
			"0.022": 0.0,
			"0.023": 0.0,
			"0.024": 0.0,
			"0.025": 0.0
		}
	}
}
