{
	 "smiles": "NNC(=O)CCC1=CN=CC=C1", 
	 "Tm": 366.15, 
	 "num_atms": 23, 
	 "gaussian": { 
		 "optdone": 1, 
		 "sigma_profile": "yes", 
		 "theory": "DFT", 
		 "functional": "B3LYP", 
		 "basiset": "6-31G**", 
		 "properties": { 
			 "R2extent": 2557.5734, 
			 "electric_dipole_moment_norm": 3.43720105609, 
			 "electric_quadrupole_moment_norm": 12.5394655723, 
			 "total_energy": -550.936784196, 
			 "HOMO_LUMO_gap": 0.22667, 
			 "cosmo_polarized_energy": -17.57, 
			 "cosmo_cavitation_energy": 27.23, 
			 "cosmo_dispersion_energy": -18.94, 
			 "cosmo_repulsion_energy": 1.53, 
			 "cosmo_total_nonelectrostatic_energy": 9.82, 
			 "SMD_solvation_energy": 4.11 
		},
		"coords": [
			{
				"x": -2.6366488504,
				"y": 1.4965220002,
				"z": -2.7075732663,
				"element": "N" 
			},
			{
				"x": -2.1203286515,
				"y": 1.5421447516,
				"z": -1.3924388724,
				"element": "N" 
			},
			{
				"x": -2.4365131531,
				"y": 0.554843488,
				"z": -0.4849178985,
				"element": "C" 
			},
			{
				"x": -3.0168198535,
				"y": -0.4651094874,
				"z": -0.8301722925,
				"element": "O" 
			},
			{
				"x": -1.9970245226,
				"y": 0.8312721369,
				"z": 0.9497379814,
				"element": "C" 
			},
			{
				"x": -0.4618144467,
				"y": 0.917942096,
				"z": 1.1454944861,
				"element": "C" 
			},
			{
				"x": 0.2683216416,
				"y": -0.3680108452,
				"z": 0.8295522111,
				"element": "C" 
			},
			{
				"x": 0.5071654792,
				"y": -1.3219132256,
				"z": 1.8284641971,
				"element": "C" 
			},
			{
				"x": 1.1272582814,
				"y": -2.4896012463,
				"z": 1.6316325112,
				"element": "N" 
			},
			{
				"x": 1.5460412642,
				"y": -2.7586170846,
				"z": 0.3888360663,
				"element": "C" 
			},
			{
				"x": 1.3707035757,
				"y": -1.8851219962,
				"z": -0.6848988209,
				"element": "C" 
			},
			{
				"x": 0.7230880555,
				"y": -0.672547296,
				"z": -0.4579919469,
				"element": "C" 
			},
			{
				"x": -2.0330501372,
				"y": 0.8777763254,
				"z": -3.2479079882,
				"element": "H" 
			},
			{
				"x": -3.5320659482,
				"y": 1.00808345,
				"z": -2.6512415355,
				"element": "H" 
			},
			{
				"x": -1.9309356417,
				"y": 2.478324747,
				"z": -1.061842779,
				"element": "H" 
			},
			{
				"x": -2.4507633856,
				"y": 1.7711520479,
				"z": 1.2911080608,
				"element": "H" 
			},
			{
				"x": -2.4096162964,
				"y": 0.022986078,
				"z": 1.5573240687,
				"element": "H" 
			},
			{
				"x": -0.2732546044,
				"y": 1.194048013,
				"z": 2.1890528731,
				"element": "H" 
			},
			{
				"x": -0.0584676555,
				"y": 1.7313286727,
				"z": 0.5314755199,
				"element": "H" 
			},
			{
				"x": 0.18112335,
				"y": -1.1226645064,
				"z": 2.8500030863,
				"element": "H" 
			},
			{
				"x": 2.0483698774,
				"y": -3.7139243464,
				"z": 0.246902648,
				"element": "H" 
			},
			{
				"x": 1.7360081882,
				"y": -2.1492053249,
				"z": -1.6725641408,
				"element": "H" 
			},
			{
				"x": 0.5717234336,
				"y": 0.0344915524,
				"z": -1.2696341689,
				"element": "H" 
			}
		],
		 "valence_orbital": [ 
			{
				"type": "occ",
				"energy": -0.28226,
				"method": "rhf"
			},
			{
				"type": "occ",
				"energy": -0.2601,
				"method": "rhf"
			},
			{
				"type": "occ",
				"energy": -0.25877,
				"method": "rhf"
			},
			{
				"type": "occ",
				"energy": -0.25168,
				"method": "rhf"
			},
			{
				"type": "occ",
				"energy": -0.2503,
				"method": "rhf"
			},
			{
				"type": "unocc",
				"energy": -0.02363,
				"method": "rhf"
			},
			{
				"type": "unocc",
				"energy": -0.01101,
				"method": "rhf"
			},
			{
				"type": "unocc",
				"energy": 0.01413,
				"method": "rhf"
			},
			{
				"type": "unocc",
				"energy": 0.07012,
				"method": "rhf"
			},
			{
				"type": "unocc",
				"energy": 0.07817,
				"method": "rhf"
			}
		],
		"cosmo_sigma_profile": { 
			"-0.025": 0.0,
			"-0.024": 0.0,
			"-0.023": 0.0,
			"-0.022": 0.0,
			"-0.021": 0.0,
			"-0.02": 0.0,
			"-0.019": 0.0,
			"-0.018": 0.0,
			"-0.017": 0.0,
			"-0.016": 0.0,
			"-0.015": 0.0968770471474,
			"-0.014": 0.753017662016,
			"-0.013": 1.11840008588,
			"-0.012": 1.46773881688,
			"-0.011": 2.76781145003,
			"-0.01": 3.4330323876,
			"-0.009": 4.38267616483,
			"-0.008": 3.1023501521,
			"-0.007": 5.78653804492,
			"-0.006": 11.3673539937,
			"-0.005": 18.8068354343,
			"-0.004": 19.7124028393,
			"-0.003": 17.8199927561,
			"-0.002": 15.5585123633,
			"-0.001": 12.5681719664,
			"0.0": 9.48934876103,
			"0.001": 9.3215869801,
			"0.002": 12.2395226772,
			"0.003": 14.3068592912,
			"0.004": 6.93506190119,
			"0.005": 5.07127415535,
			"0.006": 3.77044144133,
			"0.007": 3.02843742242,
			"0.008": 3.61091545696,
			"0.009": 3.51101670908,
			"0.01": 3.49878086866,
			"0.011": 2.76546517851,
			"0.012": 3.39266768581,
			"0.013": 5.63673901848,
			"0.014": 4.61842993926,
			"0.015": 2.47454126774,
			"0.016": 1.36749895138,
			"0.017": 0.855369243844,
			"0.018": 0.0432569758374,
			"0.019": 0.0,
			"0.02": 0.0,
			"0.021": 0.0,
			"0.022": 0.0,
			"0.023": 0.0,
			"0.024": 0.0,
			"0.025": 0.0
		}
	}
}
