{
	 "smiles": "CNC1=CC=C(OCCOC)C=C1", 
	 "Tm": 333.15, 
	 "num_atms": 28, 
	 "gaussian": { 
		 "optdone": 1, 
		 "sigma_profile": "yes", 
		 "theory": "DFT", 
		 "functional": "B3LYP", 
		 "basiset": "6-31G**", 
		 "properties": { 
			 "R2extent": 4336.6391, 
			 "electric_dipole_moment_norm": 2.46368391236, 
			 "electric_quadrupole_moment_norm": 11.3663183147, 
			 "total_energy": -595.271276732, 
			 "HOMO_LUMO_gap": 0.18437, 
			 "cosmo_polarized_energy": -10.19, 
			 "cosmo_cavitation_energy": 30.83, 
			 "cosmo_dispersion_energy": -22.46, 
			 "cosmo_repulsion_energy": 1.79, 
			 "cosmo_total_nonelectrostatic_energy": 10.17, 
			 "SMD_solvation_energy": 5.16 
		},
		"coords": [
			{
				"x": 0.1343287583,
				"y": 5.3893150815,
				"z": -0.1519155338,
				"element": "C" 
			},
			{
				"x": 0.1504444097,
				"y": 4.4035789892,
				"z": -1.215200233,
				"element": "N" 
			},
			{
				"x": -0.0646963932,
				"y": 3.0494780217,
				"z": -0.9375543084,
				"element": "C" 
			},
			{
				"x": -0.6235517381,
				"y": 2.6018932612,
				"z": 0.2669909486,
				"element": "C" 
			},
			{
				"x": -0.8725239015,
				"y": 1.2413391042,
				"z": 0.4891963824,
				"element": "C" 
			},
			{
				"x": -0.5547114404,
				"y": 0.2980042986,
				"z": -0.4879125678,
				"element": "C" 
			},
			{
				"x": -0.7482495409,
				"y": -1.0580468115,
				"z": -0.370970617,
				"element": "O" 
			},
			{
				"x": -1.3046614756,
				"y": -1.5563814912,
				"z": 0.8389203387,
				"element": "C" 
			},
			{
				"x": -1.4290243585,
				"y": -3.0722463717,
				"z": 0.7459658737,
				"element": "C" 
			},
			{
				"x": -2.5128285064,
				"y": -3.5264278926,
				"z": -0.0382441212,
				"element": "O" 
			},
			{
				"x": -2.2822922654,
				"y": -3.5232740991,
				"z": -1.4382000317,
				"element": "C" 
			},
			{
				"x": 0.0131486639,
				"y": 0.7346385381,
				"z": -1.6942714437,
				"element": "C" 
			},
			{
				"x": 0.2501335024,
				"y": 2.0818661649,
				"z": -1.9147844126,
				"element": "C" 
			},
			{
				"x": 0.4150633831,
				"y": 6.3602345975,
				"z": -0.5671240102,
				"element": "H" 
			},
			{
				"x": 0.8175550275,
				"y": 5.1554926101,
				"z": 0.6815467425,
				"element": "H" 
			},
			{
				"x": -0.8753497416,
				"y": 5.4905643596,
				"z": 0.2618478928,
				"element": "H" 
			},
			{
				"x": 0.874004834,
				"y": 4.5576684674,
				"z": -1.9032968015,
				"element": "H" 
			},
			{
				"x": -0.876443006,
				"y": 3.3091215472,
				"z": 1.0490824153,
				"element": "H" 
			},
			{
				"x": -1.3098529075,
				"y": 0.9409502687,
				"z": 1.4341586518,
				"element": "H" 
			},
			{
				"x": -2.2974501721,
				"y": -1.120389016,
				"z": 1.0193285185,
				"element": "H" 
			},
			{
				"x": -0.6545907098,
				"y": -1.2969012716,
				"z": 1.6894401008,
				"element": "H" 
			},
			{
				"x": -0.4743628655,
				"y": -3.4908588738,
				"z": 0.3887311005,
				"element": "H" 
			},
			{
				"x": -1.6092658967,
				"y": -3.4545487377,
				"z": 1.7575950721,
				"element": "H" 
			},
			{
				"x": -3.1437636131,
				"y": -4.0149390467,
				"z": -1.8978311202,
				"element": "H" 
			},
			{
				"x": -2.1823265713,
				"y": -2.5099289835,
				"z": -1.8428487341,
				"element": "H" 
			},
			{
				"x": -1.373339453,
				"y": -4.0892819435,
				"z": -1.6953382562,
				"element": "H" 
			},
			{
				"x": 0.2622425294,
				"y": -0.004249061,
				"z": -2.4494273923,
				"element": "H" 
			},
			{
				"x": 0.6818634482,
				"y": 2.40142829,
				"z": -2.8606844541,
				"element": "H" 
			}
		],
		 "valence_orbital": [ 
			{
				"type": "occ",
				"energy": -0.30463,
				"method": "rhf"
			},
			{
				"type": "occ",
				"energy": -0.26325,
				"method": "rhf"
			},
			{
				"type": "occ",
				"energy": -0.24677,
				"method": "rhf"
			},
			{
				"type": "occ",
				"energy": -0.24245,
				"method": "rhf"
			},
			{
				"type": "occ",
				"energy": -0.17902,
				"method": "rhf"
			},
			{
				"type": "unocc",
				"energy": 0.00535,
				"method": "rhf"
			},
			{
				"type": "unocc",
				"energy": 0.03359,
				"method": "rhf"
			},
			{
				"type": "unocc",
				"energy": 0.08559,
				"method": "rhf"
			},
			{
				"type": "unocc",
				"energy": 0.10204,
				"method": "rhf"
			},
			{
				"type": "unocc",
				"energy": 0.10279,
				"method": "rhf"
			}
		],
		"cosmo_sigma_profile": { 
			"-0.025": 0.0,
			"-0.024": 0.0,
			"-0.023": 0.0,
			"-0.022": 0.0,
			"-0.021": 0.0,
			"-0.02": 0.0,
			"-0.019": 0.0,
			"-0.018": 0.0,
			"-0.017": 0.0,
			"-0.016": 0.0,
			"-0.015": 0.0,
			"-0.014": 0.0,
			"-0.013": 0.0153511306553,
			"-0.012": 1.05212350926,
			"-0.011": 1.21146111122,
			"-0.01": 1.44035954821,
			"-0.009": 1.38187028231,
			"-0.008": 1.45435071023,
			"-0.007": 1.80265505225,
			"-0.006": 4.86377113968,
			"-0.005": 20.8850378951,
			"-0.004": 27.3407497457,
			"-0.003": 26.6444083632,
			"-0.002": 25.1067962202,
			"-0.001": 23.0347312311,
			"0.0": 14.9427208845,
			"0.001": 9.14755164008,
			"0.002": 9.44751983714,
			"0.003": 10.2663517026,
			"0.004": 12.0092127091,
			"0.005": 11.7925613348,
			"0.006": 12.5901111074,
			"0.007": 11.2681299377,
			"0.008": 2.6855552799,
			"0.009": 2.60928228748,
			"0.01": 2.20350153547,
			"0.011": 2.43235976547,
			"0.012": 1.92771846166,
			"0.013": 1.850984489,
			"0.014": 0.715508646558,
			"0.015": 0.0,
			"0.016": 0.0,
			"0.017": 0.0,
			"0.018": 0.0,
			"0.019": 0.0,
			"0.02": 0.0,
			"0.021": 0.0,
			"0.022": 0.0,
			"0.023": 0.0,
			"0.024": 0.0,
			"0.025": 0.0
		}
	}
}
