{
	 "smiles": "FC1=CC2=C(SCCC2=O)C=C1", 
	 "Tm": 367.65, 
	 "num_atms": 19, 
	 "gaussian": { 
		 "optdone": 1, 
		 "sigma_profile": "yes", 
		 "theory": "DFT", 
		 "functional": "B3LYP", 
		 "basiset": "6-31G**", 
		 "properties": { 
			 "R2extent": 3307.7156, 
			 "electric_dipole_moment_norm": 2.67019469515, 
			 "electric_quadrupole_moment_norm": 11.1450565597, 
			 "total_energy": -920.425652705, 
			 "HOMO_LUMO_gap": 0.15463, 
			 "cosmo_polarized_energy": -8.46, 
			 "cosmo_cavitation_energy": 24.46, 
			 "cosmo_dispersion_energy": -18.75, 
			 "cosmo_repulsion_energy": 1.4, 
			 "cosmo_total_nonelectrostatic_energy": 7.11, 
			 "SMD_solvation_energy": 4.48 
		},
		"coords": [
			{
				"x": 1.057954927,
				"y": 0.7242112847,
				"z": -3.270581842,
				"element": "F" 
			},
			{
				"x": 0.7043017249,
				"y": 0.9587511547,
				"z": -1.9905672811,
				"element": "C" 
			},
			{
				"x": -0.5610913948,
				"y": 1.4327927356,
				"z": -1.707932172,
				"element": "C" 
			},
			{
				"x": -0.9373400862,
				"y": 1.6721298145,
				"z": -0.3742094495,
				"element": "C" 
			},
			{
				"x": -0.002995999,
				"y": 1.4475998094,
				"z": 0.6617512289,
				"element": "C" 
			},
			{
				"x": -0.3504619491,
				"y": 1.71691676,
				"z": 2.3848097481,
				"element": "S" 
			},
			{
				"x": -1.7705366898,
				"y": 2.8617504996,
				"z": 2.2284169594,
				"element": "C" 
			},
			{
				"x": -2.833924983,
				"y": 2.3117076618,
				"z": 1.2832940249,
				"element": "C" 
			},
			{
				"x": -2.3456237516,
				"y": 2.1246269536,
				"z": -0.1471114958,
				"element": "C" 
			},
			{
				"x": -3.1066677168,
				"y": 2.306802078,
				"z": -1.0851641141,
				"element": "O" 
			},
			{
				"x": 1.2767429283,
				"y": 0.9658483436,
				"z": 0.3388717319,
				"element": "C" 
			},
			{
				"x": 1.6336873901,
				"y": 0.7129292161,
				"z": -0.9800649095,
				"element": "C" 
			},
			{
				"x": -1.283299756,
				"y": 1.6131568379,
				"z": -2.4957943844,
				"element": "H" 
			},
			{
				"x": -2.1640747665,
				"y": 2.9812814162,
				"z": 3.2409354307,
				"element": "H" 
			},
			{
				"x": -1.4035077371,
				"y": 3.8363084468,
				"z": 1.8903377221,
				"element": "H" 
			},
			{
				"x": -3.1783856758,
				"y": 1.3337787151,
				"z": 1.647529657,
				"element": "H" 
			},
			{
				"x": -3.7058903627,
				"y": 2.9715756845,
				"z": 1.2420529053,
				"element": "H" 
			},
			{
				"x": 2.0013643704,
				"y": 0.8021198315,
				"z": 1.130643338,
				"element": "H" 
			},
			{
				"x": 2.6210495277,
				"y": 0.3440127564,
				"z": -1.2365170982,
				"element": "H" 
			}
		],
		 "valence_orbital": [ 
			{
				"type": "occ",
				"energy": -0.33326,
				"method": "rhf"
			},
			{
				"type": "occ",
				"energy": -0.29077,
				"method": "rhf"
			},
			{
				"type": "occ",
				"energy": -0.27273,
				"method": "rhf"
			},
			{
				"type": "occ",
				"energy": -0.25667,
				"method": "rhf"
			},
			{
				"type": "occ",
				"energy": -0.22315,
				"method": "rhf"
			},
			{
				"type": "unocc",
				"energy": -0.06852,
				"method": "rhf"
			},
			{
				"type": "unocc",
				"energy": -0.01565,
				"method": "rhf"
			},
			{
				"type": "unocc",
				"energy": 0.01472,
				"method": "rhf"
			},
			{
				"type": "unocc",
				"energy": 0.03518,
				"method": "rhf"
			},
			{
				"type": "unocc",
				"energy": 0.06586,
				"method": "rhf"
			}
		],
		"cosmo_sigma_profile": { 
			"-0.025": 0.0,
			"-0.024": 0.0,
			"-0.023": 0.0,
			"-0.022": 0.0,
			"-0.021": 0.0,
			"-0.02": 0.0,
			"-0.019": 0.0,
			"-0.018": 0.0,
			"-0.017": 0.0,
			"-0.016": 0.0,
			"-0.015": 0.0,
			"-0.014": 0.0,
			"-0.013": 0.0,
			"-0.012": 0.0,
			"-0.011": 0.0,
			"-0.01": 0.0,
			"-0.009": 0.143954638113,
			"-0.008": 3.00490917243,
			"-0.007": 9.73337945721,
			"-0.006": 13.9851395849,
			"-0.005": 16.1089557514,
			"-0.004": 14.121651895,
			"-0.003": 12.7937283772,
			"-0.002": 9.75955554527,
			"-0.001": 10.4062345246,
			"0.0": 15.5677543693,
			"0.001": 18.4562281567,
			"0.002": 18.2149588622,
			"0.003": 12.1032839091,
			"0.004": 14.573040145,
			"0.005": 7.02613830658,
			"0.006": 4.09827197972,
			"0.007": 3.21864572748,
			"0.008": 2.9533706704,
			"0.009": 1.64124513809,
			"0.01": 2.47888835145,
			"0.011": 3.55517554701,
			"0.012": 2.95347849661,
			"0.013": 0.884067159223,
			"0.014": 0.0,
			"0.015": 0.0,
			"0.016": 0.0,
			"0.017": 0.0,
			"0.018": 0.0,
			"0.019": 0.0,
			"0.02": 0.0,
			"0.021": 0.0,
			"0.022": 0.0,
			"0.023": 0.0,
			"0.024": 0.0,
			"0.025": 0.0
		}
	}
}
