{
	 "smiles": "CC1(C)OC(C)(CCC1C(O)=O)C(OC(=O)C1=CC=C(Br)C=C1)C1CCCCC1", 
	 "Tm": 384.15, 
	 "num_atms": 60, 
	 "gaussian": { 
		 "optdone": 1, 
		 "sigma_profile": "yes", 
		 "theory": "DFT", 
		 "functional": "B3LYP", 
		 "basiset": "6-31G**", 
		 "properties": { 
			 "R2extent": 21951.058, 
			 "electric_dipole_moment_norm": 2.38837686515, 
			 "electric_quadrupole_moment_norm": 7.87519483061, 
			 "total_energy": -3842.68965911, 
			 "HOMO_LUMO_gap": 0.19269, 
			 "cosmo_polarized_energy": -13.85, 
			 "cosmo_cavitation_energy": 57.9, 
			 "cosmo_dispersion_energy": -39.05, 
			 "cosmo_repulsion_energy": 2.91, 
			 "cosmo_total_nonelectrostatic_energy": 21.76, 
			 "SMD_solvation_energy": 8.88 
		},
		"coords": [
			{
				"x": 2.2112039743,
				"y": 3.3238695947,
				"z": 1.0191805898,
				"element": "C" 
			},
			{
				"x": 1.7997108345,
				"y": 2.4503676915,
				"z": -0.1722896,
				"element": "C" 
			},
			{
				"x": 3.0258634066,
				"y": 2.2518323953,
				"z": -1.0862231923,
				"element": "C" 
			},
			{
				"x": 1.3793047019,
				"y": 1.2219283862,
				"z": 0.4444674936,
				"element": "O" 
			},
			{
				"x": 0.8323554419,
				"y": 0.1345672733,
				"z": -0.3363860301,
				"element": "C" 
			},
			{
				"x": 1.9691381957,
				"y": -0.8383379413,
				"z": -0.7113679332,
				"element": "C" 
			},
			{
				"x": 0.1347043731,
				"y": 0.6625772954,
				"z": -1.6081644439,
				"element": "C" 
			},
			{
				"x": -0.4486499608,
				"y": 2.0678660073,
				"z": -1.4408791887,
				"element": "C" 
			},
			{
				"x": 0.5738617213,
				"y": 3.1102730729,
				"z": -0.9278728059,
				"element": "C" 
			},
			{
				"x": 1.0456508585,
				"y": 4.0135018179,
				"z": -2.0537316477,
				"element": "C" 
			},
			{
				"x": 1.537056229,
				"y": 5.1932359885,
				"z": -1.5893410701,
				"element": "O" 
			},
			{
				"x": 1.0178508372,
				"y": 3.7570736752,
				"z": -3.2383249242,
				"element": "O" 
			},
			{
				"x": -0.0872428064,
				"y": -0.5950599176,
				"z": 0.7149968855,
				"element": "C" 
			},
			{
				"x": -0.282825632,
				"y": -1.9893461418,
				"z": 0.2973327658,
				"element": "O" 
			},
			{
				"x": -1.232569012,
				"y": -2.3819587375,
				"z": -0.5705714601,
				"element": "C" 
			},
			{
				"x": -2.0171829897,
				"y": -1.6471081973,
				"z": -1.1441333899,
				"element": "O" 
			},
			{
				"x": -1.2232955396,
				"y": -3.8650816251,
				"z": -0.7587082625,
				"element": "C" 
			},
			{
				"x": -0.3319691988,
				"y": -4.7088267136,
				"z": -0.0817473538,
				"element": "C" 
			},
			{
				"x": -0.3664191999,
				"y": -6.0853551805,
				"z": -0.2939306094,
				"element": "C" 
			},
			{
				"x": -1.2990580621,
				"y": -6.6120397232,
				"z": -1.1879249324,
				"element": "C" 
			},
			{
				"x": -1.3500144902,
				"y": -8.4973708174,
				"z": -1.4816716393,
				"element": "Br" 
			},
			{
				"x": -2.1954914744,
				"y": -5.7892682008,
				"z": -1.8716095998,
				"element": "C" 
			},
			{
				"x": -2.1521473711,
				"y": -4.4157217278,
				"z": -1.6520225988,
				"element": "C" 
			},
			{
				"x": -1.3939843899,
				"y": 0.0537747323,
				"z": 1.2332112372,
				"element": "C" 
			},
			{
				"x": -1.1092726069,
				"y": 1.3420928408,
				"z": 2.06316804,
				"element": "C" 
			},
			{
				"x": -2.2165867656,
				"y": 1.655827853,
				"z": 3.098561123,
				"element": "C" 
			},
			{
				"x": -3.5899391745,
				"y": 1.1878611297,
				"z": 2.6071738876,
				"element": "C" 
			},
			{
				"x": -3.600635234,
				"y": -0.3493149779,
				"z": 2.4395748176,
				"element": "C" 
			},
			{
				"x": -2.1974405189,
				"y": -0.9166524808,
				"z": 2.1291577805,
				"element": "C" 
			},
			{
				"x": 2.4833134126,
				"y": 4.3268085949,
				"z": 0.681357297,
				"element": "H" 
			},
			{
				"x": 1.3857060298,
				"y": 3.4041413633,
				"z": 1.7313316255,
				"element": "H" 
			},
			{
				"x": 3.0661658324,
				"y": 2.8772714762,
				"z": 1.5352629283,
				"element": "H" 
			},
			{
				"x": 3.4681488358,
				"y": 3.2222761708,
				"z": -1.3306304128,
				"element": "H" 
			},
			{
				"x": 2.7850883787,
				"y": 1.7557770787,
				"z": -2.0281992534,
				"element": "H" 
			},
			{
				"x": 3.779158513,
				"y": 1.6632359588,
				"z": -0.5563857216,
				"element": "H" 
			},
			{
				"x": 2.7163610922,
				"y": -0.3320734819,
				"z": -1.3222462,
				"element": "H" 
			},
			{
				"x": 1.5907264994,
				"y": -1.68996808,
				"z": -1.2812122926,
				"element": "H" 
			},
			{
				"x": 2.4629397448,
				"y": -1.2192455594,
				"z": 0.1878477098,
				"element": "H" 
			},
			{
				"x": -0.6563685124,
				"y": -0.0274272428,
				"z": -1.9041076871,
				"element": "H" 
			},
			{
				"x": 0.8610416603,
				"y": 0.6796266577,
				"z": -2.4281801222,
				"element": "H" 
			},
			{
				"x": -1.2918289948,
				"y": 2.0362141318,
				"z": -0.7479549029,
				"element": "H" 
			},
			{
				"x": -0.844379614,
				"y": 2.398022486,
				"z": -2.4044616723,
				"element": "H" 
			},
			{
				"x": 0.0817664545,
				"y": 3.7646384571,
				"z": -0.2013846561,
				"element": "H" 
			},
			{
				"x": 1.8317152977,
				"y": 5.6872631438,
				"z": -2.373369853,
				"element": "H" 
			},
			{
				"x": 0.5656891926,
				"y": -0.7305367304,
				"z": 1.5840773978,
				"element": "H" 
			},
			{
				"x": 0.3859734325,
				"y": -4.2847047648,
				"z": 0.6102175065,
				"element": "H" 
			},
			{
				"x": 0.3202299349,
				"y": -6.742578148,
				"z": 0.2269904029,
				"element": "H" 
			},
			{
				"x": -2.9123518353,
				"y": -6.2185330371,
				"z": -2.5619568218,
				"element": "H" 
			},
			{
				"x": -2.8355895403,
				"y": -3.7497613862,
				"z": -2.1675951084,
				"element": "H" 
			},
			{
				"x": -2.0257397783,
				"y": 0.3011367086,
				"z": 0.3758868822,
				"element": "H" 
			},
			{
				"x": -0.998628788,
				"y": 2.1935143443,
				"z": 1.3874002856,
				"element": "H" 
			},
			{
				"x": -0.1470611518,
				"y": 1.2442512508,
				"z": 2.575829368,
				"element": "H" 
			},
			{
				"x": -1.9926950641,
				"y": 1.159159091,
				"z": 4.0516479837,
				"element": "H" 
			},
			{
				"x": -2.2224161739,
				"y": 2.7307184914,
				"z": 3.3125325473,
				"element": "H" 
			},
			{
				"x": -4.3816571119,
				"y": 1.5039793518,
				"z": 3.2954923236,
				"element": "H" 
			},
			{
				"x": -3.8091777731,
				"y": 1.6721727454,
				"z": 1.6465684318,
				"element": "H" 
			},
			{
				"x": -3.9797682944,
				"y": -0.8239688782,
				"z": 3.3525365535,
				"element": "H" 
			},
			{
				"x": -4.2916599633,
				"y": -0.6288700937,
				"z": 1.6359081674,
				"element": "H" 
			},
			{
				"x": -1.6379264048,
				"y": -1.0755641544,
				"z": 3.0613434045,
				"element": "H" 
			},
			{
				"x": -2.3060514581,
				"y": -1.9020833166,
				"z": 1.6731299505,
				"element": "H" 
			}
		],
		 "valence_orbital": [ 
			{
				"type": "occ",
				"energy": -0.273,
				"method": "rhf"
			},
			{
				"type": "occ",
				"energy": -0.27171,
				"method": "rhf"
			},
			{
				"type": "occ",
				"energy": -0.27065,
				"method": "rhf"
			},
			{
				"type": "occ",
				"energy": -0.25182,
				"method": "rhf"
			},
			{
				"type": "occ",
				"energy": -0.24865,
				"method": "rhf"
			},
			{
				"type": "unocc",
				"energy": -0.05596,
				"method": "rhf"
			},
			{
				"type": "unocc",
				"energy": -0.02089,
				"method": "rhf"
			},
			{
				"type": "unocc",
				"energy": 0.00159,
				"method": "rhf"
			},
			{
				"type": "unocc",
				"energy": 0.00319,
				"method": "rhf"
			},
			{
				"type": "unocc",
				"energy": 0.04407,
				"method": "rhf"
			}
		],
		"cosmo_sigma_profile": { 
			"-0.025": 0.0,
			"-0.024": 0.0,
			"-0.023": 0.0,
			"-0.022": 0.0,
			"-0.021": 0.0,
			"-0.02": 0.0,
			"-0.019": 0.0,
			"-0.018": 0.375288325345,
			"-0.017": 1.10170429442,
			"-0.016": 0.898721731111,
			"-0.015": 0.643706898013,
			"-0.014": 0.842396713239,
			"-0.013": 0.38525416729,
			"-0.012": 0.791128906753,
			"-0.011": 0.929960646749,
			"-0.01": 0.710713686926,
			"-0.009": 0.616436841971,
			"-0.008": 1.51878241532,
			"-0.007": 5.68727765097,
			"-0.006": 8.27963748629,
			"-0.005": 13.2227723854,
			"-0.004": 22.0392573983,
			"-0.003": 37.6507637238,
			"-0.002": 52.3906752439,
			"-0.001": 58.2293490472,
			"0.0": 67.682014149,
			"0.001": 56.7589522345,
			"0.002": 41.785243123,
			"0.003": 21.3094814442,
			"0.004": 19.388518364,
			"0.005": 7.8870950086,
			"0.006": 4.61410139712,
			"0.007": 4.94562662069,
			"0.008": 4.99927194806,
			"0.009": 3.90346942623,
			"0.01": 4.01003501627,
			"0.011": 5.45221798342,
			"0.012": 5.58138983317,
			"0.013": 0.215022084769,
			"0.014": 0.0,
			"0.015": 0.0,
			"0.016": 0.0,
			"0.017": 0.0,
			"0.018": 0.0,
			"0.019": 0.0,
			"0.02": 0.0,
			"0.021": 0.0,
			"0.022": 0.0,
			"0.023": 0.0,
			"0.024": 0.0,
			"0.025": 0.0
		}
	}
}
