{
	 "smiles": "[O-][N+](=O)C1=C(NN=C1)C1CC1", 
	 "Tm": 369.15, 
	 "num_atms": 18, 
	 "gaussian": { 
		 "optdone": 1, 
		 "sigma_profile": "yes", 
		 "theory": "DFT", 
		 "functional": "B3LYP", 
		 "basiset": "6-31G**", 
		 "properties": { 
			 "R2extent": 1785.0832, 
			 "electric_dipole_moment_norm": 5.42091160968, 
			 "electric_quadrupole_moment_norm": 7.8236743024, 
			 "total_energy": -547.404776584, 
			 "HOMO_LUMO_gap": 0.18484, 
			 "cosmo_polarized_energy": -14.71, 
			 "cosmo_cavitation_energy": 22.76, 
			 "cosmo_dispersion_energy": -16.72, 
			 "cosmo_repulsion_energy": 1.34, 
			 "cosmo_total_nonelectrostatic_energy": 7.39, 
			 "SMD_solvation_energy": 4.92 
		},
		"coords": [
			{
				"x": 1.1502771294,
				"y": -0.0753853172,
				"z": 2.8883809518,
				"element": "O" 
			},
			{
				"x": 0.4275691243,
				"y": 0.4179629287,
				"z": 2.0190467456,
				"element": "N" 
			},
			{
				"x": -0.5266020343,
				"y": 1.1724921947,
				"z": 2.2478280853,
				"element": "O" 
			},
			{
				"x": 0.7268607951,
				"y": 0.0850666057,
				"z": 0.6637363173,
				"element": "C" 
			},
			{
				"x": 0.0671052818,
				"y": 0.509406615,
				"z": -0.4942876627,
				"element": "C" 
			},
			{
				"x": 0.7565996614,
				"y": -0.0988800231,
				"z": -1.4896573684,
				"element": "N" 
			},
			{
				"x": 1.7983969484,
				"y": -0.8745283902,
				"z": -1.0723312919,
				"element": "N" 
			},
			{
				"x": 1.7808044969,
				"y": -0.7627390169,
				"z": 0.2435412612,
				"element": "C" 
			},
			{
				"x": -1.0916885042,
				"y": 1.3920306265,
				"z": -0.7016492471,
				"element": "C" 
			},
			{
				"x": -1.1638166423,
				"y": 2.3097474353,
				"z": -1.9131023999,
				"element": "C" 
			},
			{
				"x": -2.0800650128,
				"y": 1.1273552345,
				"z": -1.8278208437,
				"element": "C" 
			},
			{
				"x": 0.5773212389,
				"y": -0.0344711031,
				"z": -2.4802357657,
				"element": "H" 
			},
			{
				"x": 2.5014440383,
				"y": -1.2745929116,
				"z": 0.8634442912,
				"element": "H" 
			},
			{
				"x": -1.4921876895,
				"y": 1.7697396622,
				"z": 0.2293950778,
				"element": "H" 
			},
			{
				"x": -0.3399145036,
				"y": 2.2809288847,
				"z": -2.6209920199,
				"element": "H" 
			},
			{
				"x": -1.5730617683,
				"y": 3.3020825341,
				"z": -1.7538671988,
				"element": "H" 
			},
			{
				"x": -1.8939964522,
				"y": 0.2756820615,
				"z": -2.4765157265,
				"element": "H" 
			},
			{
				"x": -3.1299461075,
				"y": 1.292801979,
				"z": -1.6089132056,
				"element": "H" 
			}
		],
		 "valence_orbital": [ 
			{
				"type": "occ",
				"energy": -0.30157,
				"method": "rhf"
			},
			{
				"type": "occ",
				"energy": -0.29845,
				"method": "rhf"
			},
			{
				"type": "occ",
				"energy": -0.28812,
				"method": "rhf"
			},
			{
				"type": "occ",
				"energy": -0.28271,
				"method": "rhf"
			},
			{
				"type": "occ",
				"energy": -0.25998,
				"method": "rhf"
			},
			{
				"type": "unocc",
				"energy": -0.07514,
				"method": "rhf"
			},
			{
				"type": "unocc",
				"energy": -0.00754,
				"method": "rhf"
			},
			{
				"type": "unocc",
				"energy": 0.03959,
				"method": "rhf"
			},
			{
				"type": "unocc",
				"energy": 0.07035,
				"method": "rhf"
			},
			{
				"type": "unocc",
				"energy": 0.0811,
				"method": "rhf"
			}
		],
		"cosmo_sigma_profile": { 
			"-0.025": 0.0,
			"-0.024": 0.0,
			"-0.023": 0.0,
			"-0.022": 0.0,
			"-0.021": 0.0,
			"-0.02": 0.0,
			"-0.019": 0.0,
			"-0.018": 0.207079888183,
			"-0.017": 1.36498845527,
			"-0.016": 0.613969085477,
			"-0.015": 1.44805845281,
			"-0.014": 1.7033971537,
			"-0.013": 1.08239281882,
			"-0.012": 1.59621713257,
			"-0.011": 1.45763328575,
			"-0.01": 1.28463499406,
			"-0.009": 1.85501753485,
			"-0.008": 2.82622801187,
			"-0.007": 3.77648097843,
			"-0.006": 7.72765276221,
			"-0.005": 11.4318031943,
			"-0.004": 11.3623494359,
			"-0.003": 10.460490859,
			"-0.002": 12.0937985444,
			"-0.001": 16.3787679808,
			"0.0": 16.403377462,
			"0.001": 12.4747654735,
			"0.002": 9.61646678708,
			"0.003": 7.00044265921,
			"0.004": 4.7188766826,
			"0.005": 4.05339923088,
			"0.006": 5.15669766867,
			"0.007": 5.87160000639,
			"0.008": 9.20845001891,
			"0.009": 6.79726598953,
			"0.01": 5.418219447,
			"0.011": 2.88913707825,
			"0.012": 1.33501604582,
			"0.013": 0.875678172251,
			"0.014": 1.05742200072,
			"0.015": 0.147598125827,
			"0.016": 0.0,
			"0.017": 0.0,
			"0.018": 0.0,
			"0.019": 0.0,
			"0.02": 0.0,
			"0.021": 0.0,
			"0.022": 0.0,
			"0.023": 0.0,
			"0.024": 0.0,
			"0.025": 0.0
		}
	}
}
