{
	 "smiles": "ClCC1=CC(=CC=C1)S(=O)(=O)N1CCOCC1", 
	 "Tm": 366.15, 
	 "num_atms": 31, 
	 "gaussian": { 
		 "optdone": 1, 
		 "sigma_profile": "yes", 
		 "theory": "DFT", 
		 "functional": "B3LYP", 
		 "basiset": "6-31G**", 
		 "properties": { 
			 "R2extent": 5431.705, 
			 "electric_dipole_moment_norm": 3.27611566951, 
			 "electric_quadrupole_moment_norm": 22.0390649518, 
			 "total_energy": -1566.31941811, 
			 "HOMO_LUMO_gap": 0.19834, 
			 "cosmo_polarized_energy": -17.64, 
			 "cosmo_cavitation_energy": 36.36, 
			 "cosmo_dispersion_energy": -25.71, 
			 "cosmo_repulsion_energy": 1.97, 
			 "cosmo_total_nonelectrostatic_energy": 12.61, 
			 "SMD_solvation_energy": 3.75 
		},
		"coords": [
			{
				"x": 3.5927919441,
				"y": -1.1809159705,
				"z": 0.1940766608,
				"element": "Cl" 
			},
			{
				"x": 2.8099584788,
				"y": -0.7813793032,
				"z": -1.4167077032,
				"element": "C" 
			},
			{
				"x": 1.7526334275,
				"y": 0.2744597823,
				"z": -1.2806141325,
				"element": "C" 
			},
			{
				"x": 0.4281690415,
				"y": -0.08663664,
				"z": -1.0095683002,
				"element": "C" 
			},
			{
				"x": -0.5485678745,
				"y": 0.9027043178,
				"z": -0.8862208134,
				"element": "C" 
			},
			{
				"x": -0.2332510231,
				"y": 2.2547749324,
				"z": -1.0490686099,
				"element": "C" 
			},
			{
				"x": 1.0883221018,
				"y": 2.6123549903,
				"z": -1.3190015617,
				"element": "C" 
			},
			{
				"x": 2.0734171489,
				"y": 1.6309995002,
				"z": -1.4266248244,
				"element": "C" 
			},
			{
				"x": -2.2381917353,
				"y": 0.4255032244,
				"z": -0.4803868578,
				"element": "S" 
			},
			{
				"x": -2.3939975684,
				"y": -0.9758429632,
				"z": -0.8758922851,
				"element": "O" 
			},
			{
				"x": -3.1108030233,
				"y": 1.4916113501,
				"z": -0.9757969745,
				"element": "O" 
			},
			{
				"x": -2.3637043785,
				"y": 0.4626682839,
				"z": 1.1875300175,
				"element": "N" 
			},
			{
				"x": -2.379799923,
				"y": 1.7802916403,
				"z": 1.84873387,
				"element": "C" 
			},
			{
				"x": -2.5395431854,
				"y": 1.5570063271,
				"z": 3.349511987,
				"element": "C" 
			},
			{
				"x": -1.4614847072,
				"y": 0.8214203605,
				"z": 3.9191291169,
				"element": "O" 
			},
			{
				"x": -0.8569537958,
				"y": -0.1310708406,
				"z": 3.0453490261,
				"element": "C" 
			},
			{
				"x": -1.8241219797,
				"y": -0.6562616024,
				"z": 1.9880575038,
				"element": "C" 
			},
			{
				"x": 2.4014666072,
				"y": -1.7227212605,
				"z": -1.784077963,
				"element": "H" 
			},
			{
				"x": 3.6252711799,
				"y": -0.4621883303,
				"z": -2.0658258203,
				"element": "H" 
			},
			{
				"x": 0.1467807434,
				"y": -1.1310612567,
				"z": -0.9216242233,
				"element": "H" 
			},
			{
				"x": -1.0177891858,
				"y": 3.001250834,
				"z": -0.9959020304,
				"element": "H" 
			},
			{
				"x": 1.3472702884,
				"y": 3.6577557609,
				"z": -1.455670657,
				"element": "H" 
			},
			{
				"x": 3.1006253496,
				"y": 1.9171870219,
				"z": -1.6357011301,
				"element": "H" 
			},
			{
				"x": -3.217619646,
				"y": 2.3633834106,
				"z": 1.4599586807,
				"element": "H" 
			},
			{
				"x": -1.4512366816,
				"y": 2.3415449514,
				"z": 1.6626519386,
				"element": "H" 
			},
			{
				"x": -3.4963615082,
				"y": 1.047246772,
				"z": 3.5390244483,
				"element": "H" 
			},
			{
				"x": -2.5681591566,
				"y": 2.5240334096,
				"z": 3.8613685748,
				"element": "H" 
			},
			{
				"x": 0.0207824712,
				"y": 0.3129354502,
				"z": 2.551691488,
				"element": "H" 
			},
			{
				"x": -0.5042238005,
				"y": -0.9582825785,
				"z": 3.670375382,
				"element": "H" 
			},
			{
				"x": -1.3235557424,
				"y": -1.3731904034,
				"z": 1.334240809,
				"element": "H" 
			},
			{
				"x": -2.6563238671,
				"y": -1.1867811705,
				"z": 2.4657843835,
				"element": "H" 
			}
		],
		 "valence_orbital": [ 
			{
				"type": "occ",
				"energy": -0.30205,
				"method": "rhf"
			},
			{
				"type": "occ",
				"energy": -0.28634,
				"method": "rhf"
			},
			{
				"type": "occ",
				"energy": -0.27654,
				"method": "rhf"
			},
			{
				"type": "occ",
				"energy": -0.26259,
				"method": "rhf"
			},
			{
				"type": "occ",
				"energy": -0.2514,
				"method": "rhf"
			},
			{
				"type": "unocc",
				"energy": -0.05306,
				"method": "rhf"
			},
			{
				"type": "unocc",
				"energy": -0.04275,
				"method": "rhf"
			},
			{
				"type": "unocc",
				"energy": 0.02355,
				"method": "rhf"
			},
			{
				"type": "unocc",
				"energy": 0.04938,
				"method": "rhf"
			},
			{
				"type": "unocc",
				"energy": 0.07401,
				"method": "rhf"
			}
		],
		"cosmo_sigma_profile": { 
			"-0.025": 0.0,
			"-0.024": 0.0,
			"-0.023": 0.0,
			"-0.022": 0.0,
			"-0.021": 0.0,
			"-0.02": 0.0,
			"-0.019": 0.0,
			"-0.018": 0.0,
			"-0.017": 0.0,
			"-0.016": 0.0,
			"-0.015": 0.0,
			"-0.014": 0.0,
			"-0.013": 0.0,
			"-0.012": 0.0,
			"-0.011": 0.0,
			"-0.01": 0.0,
			"-0.009": 1.10203393948,
			"-0.008": 7.7463495769,
			"-0.007": 12.7747380667,
			"-0.006": 21.6922319745,
			"-0.005": 31.1523459471,
			"-0.004": 29.0600884199,
			"-0.003": 22.4299116974,
			"-0.002": 15.2215691716,
			"-0.001": 12.5052696144,
			"0.0": 11.3573714122,
			"0.001": 16.3705149769,
			"0.002": 17.2303697759,
			"0.003": 12.879074271,
			"0.004": 11.8709007834,
			"0.005": 10.647356982,
			"0.006": 14.1482156249,
			"0.007": 9.34178802625,
			"0.008": 4.69526840186,
			"0.009": 4.63212779196,
			"0.01": 7.53347002138,
			"0.011": 9.02547519242,
			"0.012": 4.76832699561,
			"0.013": 1.46699046799,
			"0.014": 0.216496121397,
			"0.015": 0.0,
			"0.016": 0.0,
			"0.017": 0.0,
			"0.018": 0.0,
			"0.019": 0.0,
			"0.02": 0.0,
			"0.021": 0.0,
			"0.022": 0.0,
			"0.023": 0.0,
			"0.024": 0.0,
			"0.025": 0.0
		}
	}
}
