{
	 "smiles": "O=CC(C=O)C1=CC=NC=N1", 
	 "Tm": 503.15, 
	 "num_atms": 17, 
	 "gaussian": { 
		 "optdone": 1, 
		 "sigma_profile": "yes", 
		 "theory": "DFT", 
		 "functional": "B3LYP", 
		 "basiset": "6-31G**", 
		 "properties": { 
			 "R2extent": 1982.1308, 
			 "electric_dipole_moment_norm": 3.35009133905, 
			 "electric_quadrupole_moment_norm": 9.50376746559, 
			 "total_energy": -530.264839846, 
			 "HOMO_LUMO_gap": 0.19206, 
			 "cosmo_polarized_energy": -13.51, 
			 "cosmo_cavitation_energy": 22.87, 
			 "cosmo_dispersion_energy": -16.06, 
			 "cosmo_repulsion_energy": 1.31, 
			 "cosmo_total_nonelectrostatic_energy": 8.12, 
			 "SMD_solvation_energy": 3.74 
		},
		"coords": [
			{
				"x": -1.9586756665,
				"y": 1.0118951002,
				"z": 1.662181429,
				"element": "O" 
			},
			{
				"x": -1.3754183667,
				"y": 0.1742412919,
				"z": 1.0147349939,
				"element": "C" 
			},
			{
				"x": -0.1932487693,
				"y": 0.5110542253,
				"z": 0.1014872815,
				"element": "C" 
			},
			{
				"x": 0.4104972842,
				"y": 1.8623251207,
				"z": 0.5216764883,
				"element": "C" 
			},
			{
				"x": 0.5886199439,
				"y": 2.7740825366,
				"z": -0.2476725962,
				"element": "O" 
			},
			{
				"x": 0.8656945642,
				"y": -0.5657004677,
				"z": 0.1598266429,
				"element": "C" 
			},
			{
				"x": 1.6166074295,
				"y": -0.9548999651,
				"z": -0.9527472703,
				"element": "C" 
			},
			{
				"x": 2.583467872,
				"y": -1.9347645678,
				"z": -0.7435873638,
				"element": "C" 
			},
			{
				"x": 2.8003215432,
				"y": -2.4913396814,
				"z": 0.4559992414,
				"element": "N" 
			},
			{
				"x": 2.0280496375,
				"y": -2.0446545987,
				"z": 1.4499594697,
				"element": "C" 
			},
			{
				"x": 1.0732305135,
				"y": -1.1109545034,
				"z": 1.37004309,
				"element": "N" 
			},
			{
				"x": -1.6775370491,
				"y": -0.8924175168,
				"z": 1.026353852,
				"element": "H" 
			},
			{
				"x": -0.5659927729,
				"y": 0.6296586429,
				"z": -0.9235305345,
				"element": "H" 
			},
			{
				"x": 0.6934088299,
				"y": 1.9208890676,
				"z": 1.5910791641,
				"element": "H" 
			},
			{
				"x": 1.4563267654,
				"y": -0.5140432125,
				"z": -1.9309003273,
				"element": "H" 
			},
			{
				"x": 3.2064900111,
				"y": -2.2887204123,
				"z": -1.562862748,
				"element": "H" 
			},
			{
				"x": 2.1906582301,
				"y": -2.4859510596,
				"z": 2.4311591873,
				"element": "H" 
			}
		],
		 "valence_orbital": [ 
			{
				"type": "occ",
				"energy": -0.32211,
				"method": "rhf"
			},
			{
				"type": "occ",
				"energy": -0.30875,
				"method": "rhf"
			},
			{
				"type": "occ",
				"energy": -0.28774,
				"method": "rhf"
			},
			{
				"type": "occ",
				"energy": -0.26966,
				"method": "rhf"
			},
			{
				"type": "occ",
				"energy": -0.26217,
				"method": "rhf"
			},
			{
				"type": "unocc",
				"energy": -0.07011,
				"method": "rhf"
			},
			{
				"type": "unocc",
				"energy": -0.05258,
				"method": "rhf"
			},
			{
				"type": "unocc",
				"energy": -0.0413,
				"method": "rhf"
			},
			{
				"type": "unocc",
				"energy": -0.02733,
				"method": "rhf"
			},
			{
				"type": "unocc",
				"energy": 0.08882,
				"method": "rhf"
			}
		],
		"cosmo_sigma_profile": { 
			"-0.025": 0.0,
			"-0.024": 0.0,
			"-0.023": 0.0,
			"-0.022": 0.0,
			"-0.021": 0.0,
			"-0.02": 0.0,
			"-0.019": 0.0,
			"-0.018": 0.0,
			"-0.017": 0.0,
			"-0.016": 0.0,
			"-0.015": 0.0,
			"-0.014": 0.0,
			"-0.013": 0.0,
			"-0.012": 0.0,
			"-0.011": 0.0,
			"-0.01": 0.907402486965,
			"-0.009": 6.76593482008,
			"-0.008": 12.4052320052,
			"-0.007": 13.2289311737,
			"-0.006": 10.6463723874,
			"-0.005": 9.50368034776,
			"-0.004": 10.1316993827,
			"-0.003": 10.9419214799,
			"-0.002": 12.2092857849,
			"-0.001": 13.2386778081,
			"0.0": 9.88586756902,
			"0.001": 7.11187137945,
			"0.002": 6.92716044565,
			"0.003": 6.06822380901,
			"0.004": 4.74893388118,
			"0.005": 4.63324530303,
			"0.006": 6.84292511014,
			"0.007": 4.98501687063,
			"0.008": 6.06853865931,
			"0.009": 7.5240235412,
			"0.01": 9.42146477471,
			"0.011": 5.54389171858,
			"0.012": 1.75942993762,
			"0.013": 0.947487640002,
			"0.014": 0.648605572348,
			"0.015": 0.649862121327,
			"0.016": 0.0639230939722,
			"0.017": 0.0,
			"0.018": 0.0,
			"0.019": 0.0,
			"0.02": 0.0,
			"0.021": 0.0,
			"0.022": 0.0,
			"0.023": 0.0,
			"0.024": 0.0,
			"0.025": 0.0
		}
	}
}
