{
	 "smiles": "OC1=CC=C(C=C1)N1CCOC1=O", 
	 "Tm": 451.15, 
	 "num_atms": 22, 
	 "gaussian": { 
		 "optdone": 1, 
		 "sigma_profile": "yes", 
		 "theory": "DFT", 
		 "functional": "B3LYP", 
		 "basiset": "6-31G**", 
		 "properties": { 
			 "R2extent": 3488.8428, 
			 "electric_dipole_moment_norm": 3.3996047785, 
			 "electric_quadrupole_moment_norm": 19.8371554269, 
			 "total_energy": -628.810884483, 
			 "HOMO_LUMO_gap": 0.19772, 
			 "cosmo_polarized_energy": -16.98, 
			 "cosmo_cavitation_energy": 25.62, 
			 "cosmo_dispersion_energy": -19.57, 
			 "cosmo_repulsion_energy": 1.53, 
			 "cosmo_total_nonelectrostatic_energy": 7.58, 
			 "SMD_solvation_energy": 5.49 
		},
		"coords": [
			{
				"x": 3.3675296649,
				"y": -1.9574053946,
				"z": 4.0995469118,
				"element": "O" 
			},
			{
				"x": 2.7070263293,
				"y": -1.3297588968,
				"z": 3.0790509931,
				"element": "C" 
			},
			{
				"x": 3.3197716488,
				"y": -0.9884705522,
				"z": 1.8694641374,
				"element": "C" 
			},
			{
				"x": 2.6059938354,
				"y": -0.3468718374,
				"z": 0.8608141985,
				"element": "C" 
			},
			{
				"x": 1.2486539836,
				"y": -0.0382767378,
				"z": 1.0449295201,
				"element": "C" 
			},
			{
				"x": 0.638697132,
				"y": -0.3839271062,
				"z": 2.2615825607,
				"element": "C" 
			},
			{
				"x": 1.3588518764,
				"y": -1.0215047302,
				"z": 3.2685892718,
				"element": "C" 
			},
			{
				"x": 0.4923418134,
				"y": 0.6327993665,
				"z": 0.0496883689,
				"element": "N" 
			},
			{
				"x": -0.8941447362,
				"y": 1.0283618367,
				"z": 0.2564403742,
				"element": "C" 
			},
			{
				"x": -1.1696747454,
				"y": 1.8212184126,
				"z": -1.0287768599,
				"element": "C" 
			},
			{
				"x": -0.1827719709,
				"y": 1.361418776,
				"z": -1.9602878082,
				"element": "O" 
			},
			{
				"x": 0.8427550956,
				"y": 0.7512186191,
				"z": -1.2874720679,
				"element": "C" 
			},
			{
				"x": 1.8600625678,
				"y": 0.4022670853,
				"z": -1.8385611431,
				"element": "O" 
			},
			{
				"x": 4.2830626018,
				"y": -2.1118739423,
				"z": 3.8336896045,
				"element": "H" 
			},
			{
				"x": 4.3700505894,
				"y": -1.2226615767,
				"z": 1.7073733986,
				"element": "H" 
			},
			{
				"x": 3.0887349073,
				"y": -0.097015866,
				"z": -0.0732715274,
				"element": "H" 
			},
			{
				"x": -0.4079877012,
				"y": -0.1633388354,
				"z": 2.4375804615,
				"element": "H" 
			},
			{
				"x": 0.883058589,
				"y": -1.2871373368,
				"z": 4.2066068096,
				"element": "H" 
			},
			{
				"x": -1.0077788342,
				"y": 1.6447284662,
				"z": 1.1532584101,
				"element": "H" 
			},
			{
				"x": -1.5481067616,
				"y": 0.1505629633,
				"z": 0.3546330226,
				"element": "H" 
			},
			{
				"x": -2.1604226883,
				"y": 1.6355742455,
				"z": -1.4477635745,
				"element": "H" 
			},
			{
				"x": -1.0386031971,
				"y": 2.898693041,
				"z": -0.8773150623,
				"element": "H" 
			}
		],
		 "valence_orbital": [ 
			{
				"type": "occ",
				"energy": -0.29667,
				"method": "rhf"
			},
			{
				"type": "occ",
				"energy": -0.28358,
				"method": "rhf"
			},
			{
				"type": "occ",
				"energy": -0.27578,
				"method": "rhf"
			},
			{
				"type": "occ",
				"energy": -0.25478,
				"method": "rhf"
			},
			{
				"type": "occ",
				"energy": -0.20342,
				"method": "rhf"
			},
			{
				"type": "unocc",
				"energy": -0.0057,
				"method": "rhf"
			},
			{
				"type": "unocc",
				"energy": 0.00617,
				"method": "rhf"
			},
			{
				"type": "unocc",
				"energy": 0.0569,
				"method": "rhf"
			},
			{
				"type": "unocc",
				"energy": 0.0697,
				"method": "rhf"
			},
			{
				"type": "unocc",
				"energy": 0.07715,
				"method": "rhf"
			}
		],
		"cosmo_sigma_profile": { 
			"-0.025": 0.0,
			"-0.024": 0.0,
			"-0.023": 0.0,
			"-0.022": 0.0,
			"-0.021": 0.0,
			"-0.02": 0.0,
			"-0.019": 0.0,
			"-0.018": 0.29446059087,
			"-0.017": 0.90500375881,
			"-0.016": 1.406329784,
			"-0.015": 0.856919817724,
			"-0.014": 0.806716951056,
			"-0.013": 1.3548183427,
			"-0.012": 0.44902200334,
			"-0.011": 0.747225658238,
			"-0.01": 1.37988057368,
			"-0.009": 1.59371989065,
			"-0.008": 1.81480548524,
			"-0.007": 13.6051091256,
			"-0.006": 21.9764515255,
			"-0.005": 16.4082534854,
			"-0.004": 12.4529557727,
			"-0.003": 8.78418459693,
			"-0.002": 8.59475781509,
			"-0.001": 7.71472771717,
			"0.0": 7.69596519245,
			"0.001": 7.46696985719,
			"0.002": 9.72671015471,
			"0.003": 10.9998129777,
			"0.004": 14.1454389377,
			"0.005": 14.7350852144,
			"0.006": 6.37514094645,
			"0.007": 4.43135376447,
			"0.008": 3.21428916323,
			"0.009": 4.13456134057,
			"0.01": 6.76212364274,
			"0.011": 5.08802128127,
			"0.012": 5.36420750812,
			"0.013": 2.52810351699,
			"0.014": 0.33186234339,
			"0.015": 0.0,
			"0.016": 0.0,
			"0.017": 0.0,
			"0.018": 0.0,
			"0.019": 0.0,
			"0.02": 0.0,
			"0.021": 0.0,
			"0.022": 0.0,
			"0.023": 0.0,
			"0.024": 0.0,
			"0.025": 0.0
		}
	}
}
