{
	 "smiles": "CC(=NO)C1=NC=CC=C1", 
	 "Tm": 391.15, 
	 "num_atms": 18, 
	 "gaussian": { 
		 "optdone": 1, 
		 "sigma_profile": "yes", 
		 "theory": "DFT", 
		 "functional": "B3LYP", 
		 "basiset": "6-31G**", 
		 "properties": { 
			 "R2extent": 2136.3167, 
			 "electric_dipole_moment_norm": 1.98419856869, 
			 "electric_quadrupole_moment_norm": 7.43889921292, 
			 "total_energy": -456.231682383, 
			 "HOMO_LUMO_gap": 0.18867, 
			 "cosmo_polarized_energy": -8.36, 
			 "cosmo_cavitation_energy": 21.98, 
			 "cosmo_dispersion_energy": -16.55, 
			 "cosmo_repulsion_energy": 1.35, 
			 "cosmo_total_nonelectrostatic_energy": 6.79, 
			 "SMD_solvation_energy": 3.28 
		},
		"coords": [
			{
				"x": -1.3212799148,
				"y": -0.0777092911,
				"z": -2.4850431735,
				"element": "C" 
			},
			{
				"x": -0.2144104758,
				"y": 0.5194397544,
				"z": -1.6474984885,
				"element": "C" 
			},
			{
				"x": 0.9637534226,
				"y": 0.1483989057,
				"z": -2.0205204153,
				"element": "N" 
			},
			{
				"x": 2.0269459742,
				"y": 0.6812960525,
				"z": -1.2756825605,
				"element": "O" 
			},
			{
				"x": -0.6165381572,
				"y": 1.4314413828,
				"z": -0.5374865393,
				"element": "C" 
			},
			{
				"x": -1.9508673961,
				"y": 1.6275638336,
				"z": -0.4580923463,
				"element": "N" 
			},
			{
				"x": -2.4301623296,
				"y": 2.4234855554,
				"z": 0.4968772903,
				"element": "C" 
			},
			{
				"x": -1.6272594964,
				"y": 3.0748485511,
				"z": 1.4353259813,
				"element": "C" 
			},
			{
				"x": -0.2513921665,
				"y": 2.8751517662,
				"z": 1.3604464996,
				"element": "C" 
			},
			{
				"x": 0.269076241,
				"y": 2.0475068235,
				"z": 0.3673111594,
				"element": "C" 
			},
			{
				"x": -2.0102109115,
				"y": -0.6560975924,
				"z": -1.8630090045,
				"element": "H" 
			},
			{
				"x": -1.9155712622,
				"y": 0.7081618284,
				"z": -2.9594269917,
				"element": "H" 
			},
			{
				"x": -0.8857988994,
				"y": -0.7225441067,
				"z": -3.2498700801,
				"element": "H" 
			},
			{
				"x": 2.7899317907,
				"y": 0.2853205811,
				"z": -1.7159524328,
				"element": "H" 
			},
			{
				"x": -3.511928679,
				"y": 2.5485125223,
				"z": 0.5159667798,
				"element": "H" 
			},
			{
				"x": -2.0702052626,
				"y": 3.7125313358,
				"z": 2.1938955811,
				"element": "H" 
			},
			{
				"x": 0.4177990561,
				"y": 3.3575217083,
				"z": 2.0673432132,
				"element": "H" 
			},
			{
				"x": 1.3313184666,
				"y": 1.8780703889,
				"z": 0.2895155279,
				"element": "H" 
			}
		],
		 "valence_orbital": [ 
			{
				"type": "occ",
				"energy": -0.29161,
				"method": "rhf"
			},
			{
				"type": "occ",
				"energy": -0.27806,
				"method": "rhf"
			},
			{
				"type": "occ",
				"energy": -0.27114,
				"method": "rhf"
			},
			{
				"type": "occ",
				"energy": -0.25263,
				"method": "rhf"
			},
			{
				"type": "occ",
				"energy": -0.23665,
				"method": "rhf"
			},
			{
				"type": "unocc",
				"energy": -0.04798,
				"method": "rhf"
			},
			{
				"type": "unocc",
				"energy": -0.01868,
				"method": "rhf"
			},
			{
				"type": "unocc",
				"energy": 0.05188,
				"method": "rhf"
			},
			{
				"type": "unocc",
				"energy": 0.07396,
				"method": "rhf"
			},
			{
				"type": "unocc",
				"energy": 0.10171,
				"method": "rhf"
			}
		],
		"cosmo_sigma_profile": { 
			"-0.025": 0.0,
			"-0.024": 0.0,
			"-0.023": 0.0,
			"-0.022": 0.0,
			"-0.021": 0.0,
			"-0.02": 0.0,
			"-0.019": 0.0,
			"-0.018": 0.108823723551,
			"-0.017": 1.29789696171,
			"-0.016": 0.563765909713,
			"-0.015": 0.879173132686,
			"-0.014": 0.901195383937,
			"-0.013": 1.01500048285,
			"-0.012": 0.0764814539352,
			"-0.011": 0.423191546169,
			"-0.01": 1.14253078966,
			"-0.009": 0.844787044014,
			"-0.008": 0.681802210332,
			"-0.007": 5.09780919966,
			"-0.006": 7.87436405286,
			"-0.005": 9.50291867859,
			"-0.004": 9.85180913993,
			"-0.003": 10.8725001203,
			"-0.002": 10.1947969763,
			"-0.001": 12.7740762877,
			"0.0": 16.2277983802,
			"0.001": 16.4397308407,
			"0.002": 20.6206777153,
			"0.003": 13.2324482328,
			"0.004": 6.48903505448,
			"0.005": 5.93305822809,
			"0.006": 5.02099297393,
			"0.007": 5.03475726645,
			"0.008": 3.95205778346,
			"0.009": 2.56369856263,
			"0.01": 1.54380759562,
			"0.011": 1.60644735164,
			"0.012": 1.34092950505,
			"0.013": 1.11817106184,
			"0.014": 0.109836820938,
			"0.015": 0.0,
			"0.016": 0.0,
			"0.017": 0.0,
			"0.018": 0.0,
			"0.019": 0.0,
			"0.02": 0.0,
			"0.021": 0.0,
			"0.022": 0.0,
			"0.023": 0.0,
			"0.024": 0.0,
			"0.025": 0.0
		}
	}
}
