{
	 "smiles": "NC1=CC=C(C=C1)S(=O)(=O)C1=CC=C(NC(=O)CCC(O)=O)C=C1", 
	 "Tm": 430.15, 
	 "num_atms": 40, 
	 "gaussian": { 
		 "optdone": 1, 
		 "sigma_profile": "yes", 
		 "theory": "DFT", 
		 "functional": "B3LYP", 
		 "basiset": "6-31G**", 
		 "properties": { 
			 "R2extent": 12649.3648, 
			 "electric_dipole_moment_norm": 7.73916727626, 
			 "electric_quadrupole_moment_norm": 55.463347672, 
			 "total_energy": -1503.13170054, 
			 "HOMO_LUMO_gap": 0.17473, 
			 "cosmo_polarized_energy": -34.08, 
			 "cosmo_cavitation_energy": 46.82, 
			 "cosmo_dispersion_energy": -32.97, 
			 "cosmo_repulsion_energy": 2.48, 
			 "cosmo_total_nonelectrostatic_energy": 16.32, 
			 "SMD_solvation_energy": 8.65 
		},
		"coords": [
			{
				"x": -0.4259813975,
				"y": -0.0140380134,
				"z": 6.1218089744,
				"element": "N" 
			},
			{
				"x": 0.3117729351,
				"y": -0.3104832373,
				"z": 4.9883110235,
				"element": "C" 
			},
			{
				"x": 0.1152376839,
				"y": -1.525893762,
				"z": 4.3020077062,
				"element": "C" 
			},
			{
				"x": 0.888387902,
				"y": -1.8446135415,
				"z": 3.1938682906,
				"element": "C" 
			},
			{
				"x": 1.8705249947,
				"y": -0.9538504916,
				"z": 2.7501155908,
				"element": "C" 
			},
			{
				"x": 2.0868374948,
				"y": 0.2507876217,
				"z": 3.4261800538,
				"element": "C" 
			},
			{
				"x": 1.3141101694,
				"y": 0.5702888681,
				"z": 4.5343939419,
				"element": "C" 
			},
			{
				"x": 2.8621314281,
				"y": -1.3610721305,
				"z": 1.3187788718,
				"element": "S" 
			},
			{
				"x": 4.1139567839,
				"y": -0.5908616317,
				"z": 1.4170688521,
				"element": "O" 
			},
			{
				"x": 2.8625014634,
				"y": -2.8288956941,
				"z": 1.1842960706,
				"element": "O" 
			},
			{
				"x": 1.9526874807,
				"y": -0.7112418625,
				"z": -0.0901107534,
				"element": "C" 
			},
			{
				"x": 2.1390307615,
				"y": 0.6128727742,
				"z": -0.4904218173,
				"element": "C" 
			},
			{
				"x": 1.4384764441,
				"y": 1.1260199647,
				"z": -1.5788346095,
				"element": "C" 
			},
			{
				"x": 0.5433932128,
				"y": 0.2972810026,
				"z": -2.2776303022,
				"element": "C" 
			},
			{
				"x": -0.1990478786,
				"y": 0.7295004736,
				"z": -3.3907726437,
				"element": "N" 
			},
			{
				"x": -0.2640372538,
				"y": 1.9879671173,
				"z": -3.9519253899,
				"element": "C" 
			},
			{
				"x": 0.3559434553,
				"y": 2.9597537205,
				"z": -3.5449696,
				"element": "O" 
			},
			{
				"x": -1.2166636493,
				"y": 2.0897475506,
				"z": -5.1455449276,
				"element": "C" 
			},
			{
				"x": -2.6703107192,
				"y": 2.3867863374,
				"z": -4.7319493421,
				"element": "C" 
			},
			{
				"x": -3.4399015208,
				"y": 1.2648221022,
				"z": -4.0636354767,
				"element": "C" 
			},
			{
				"x": -2.9828821746,
				"y": 0.0225630391,
				"z": -4.4071162285,
				"element": "O" 
			},
			{
				"x": -4.3919462788,
				"y": 1.4122808002,
				"z": -3.3359856412,
				"element": "O" 
			},
			{
				"x": 0.37537165,
				"y": -1.0396075412,
				"z": -1.8745344656,
				"element": "C" 
			},
			{
				"x": 1.0746431438,
				"y": -1.5445992284,
				"z": -0.7858507391,
				"element": "C" 
			},
			{
				"x": -1.3019886845,
				"y": -0.502133981,
				"z": 6.2356681767,
				"element": "H" 
			},
			{
				"x": -0.4667232923,
				"y": 0.9559805338,
				"z": 6.3975681902,
				"element": "H" 
			},
			{
				"x": -0.6405018888,
				"y": -2.2230659715,
				"z": 4.6543816258,
				"element": "H" 
			},
			{
				"x": 0.7503497941,
				"y": -2.7903558904,
				"z": 2.6807894738,
				"element": "H" 
			},
			{
				"x": 2.8724457034,
				"y": 0.9198895395,
				"z": 3.0918913112,
				"element": "H" 
			},
			{
				"x": 1.4892943024,
				"y": 1.5015317945,
				"z": 5.066703277,
				"element": "H" 
			},
			{
				"x": 2.8507575616,
				"y": 1.2378831747,
				"z": 0.0382431585,
				"element": "H" 
			},
			{
				"x": 1.574340512,
				"y": 2.1491401178,
				"z": -1.8982382529,
				"element": "H" 
			},
			{
				"x": -0.8180920901,
				"y": 0.0400297636,
				"z": -3.7981237101,
				"element": "H" 
			},
			{
				"x": -0.8506326536,
				"y": 2.9250348821,
				"z": -5.7460139751,
				"element": "H" 
			},
			{
				"x": -1.1807129584,
				"y": 1.1861972008,
				"z": -5.7614660533,
				"element": "H" 
			},
			{
				"x": -3.2486247541,
				"y": 2.6521739493,
				"z": -5.6265864824,
				"element": "H" 
			},
			{
				"x": -2.7213604934,
				"y": 3.2511206622,
				"z": -4.0647405584,
				"element": "H" 
			},
			{
				"x": -3.5791928815,
				"y": -0.6072126465,
				"z": -3.966589984,
				"element": "H" 
			},
			{
				"x": -0.3023160867,
				"y": -1.6869259707,
				"z": -2.426172887,
				"element": "H" 
			},
			{
				"x": 0.9644217789,
				"y": -2.5810013958,
				"z": -0.486360749,
				"element": "H" 
			}
		],
		 "valence_orbital": [ 
			{
				"type": "occ",
				"energy": -0.26616,
				"method": "rhf"
			},
			{
				"type": "occ",
				"energy": -0.26348,
				"method": "rhf"
			},
			{
				"type": "occ",
				"energy": -0.26177,
				"method": "rhf"
			},
			{
				"type": "occ",
				"energy": -0.23942,
				"method": "rhf"
			},
			{
				"type": "occ",
				"energy": -0.2162,
				"method": "rhf"
			},
			{
				"type": "unocc",
				"energy": -0.04147,
				"method": "rhf"
			},
			{
				"type": "unocc",
				"energy": -0.01849,
				"method": "rhf"
			},
			{
				"type": "unocc",
				"energy": -0.01566,
				"method": "rhf"
			},
			{
				"type": "unocc",
				"energy": -0.00914,
				"method": "rhf"
			},
			{
				"type": "unocc",
				"energy": -0.00813,
				"method": "rhf"
			}
		],
		"cosmo_sigma_profile": { 
			"-0.025": 0.0,
			"-0.024": 0.0,
			"-0.023": 0.0,
			"-0.022": 0.0,
			"-0.021": 0.0,
			"-0.02": 0.0,
			"-0.019": 0.0528185202748,
			"-0.018": 1.01883629355,
			"-0.017": 0.956504697324,
			"-0.016": 0.780302593931,
			"-0.015": 0.631654728741,
			"-0.014": 0.692234726908,
			"-0.013": 3.3121050121,
			"-0.012": 5.14000348055,
			"-0.011": 5.11090946894,
			"-0.01": 5.42764661456,
			"-0.009": 5.62989796278,
			"-0.008": 9.12223936124,
			"-0.007": 14.2587536186,
			"-0.006": 22.9336673709,
			"-0.005": 26.1316733502,
			"-0.004": 25.1660538156,
			"-0.003": 20.7163656896,
			"-0.002": 16.2658544179,
			"-0.001": 16.8897814025,
			"0.0": 17.8048923387,
			"0.001": 19.3650259174,
			"0.002": 25.4649091839,
			"0.003": 29.413578131,
			"0.004": 21.1129413011,
			"0.005": 8.63050122464,
			"0.006": 6.99579233962,
			"0.007": 8.26945102039,
			"0.008": 5.81978192063,
			"0.009": 6.85981837659,
			"0.01": 9.51327876119,
			"0.011": 14.4974759467,
			"0.012": 14.0090416664,
			"0.013": 4.49028725416,
			"0.014": 0.608959055187,
			"0.015": 0.0,
			"0.016": 0.0,
			"0.017": 0.0,
			"0.018": 0.0,
			"0.019": 0.0,
			"0.02": 0.0,
			"0.021": 0.0,
			"0.022": 0.0,
			"0.023": 0.0,
			"0.024": 0.0,
			"0.025": 0.0
		}
	}
}
