{
	 "smiles": "CN1C(=O)C2=C(C1=O)C(C)=CC=C2C", 
	 "Tm": 443.15, 
	 "num_atms": 25, 
	 "gaussian": { 
		 "optdone": 1, 
		 "sigma_profile": "yes", 
		 "theory": "DFT", 
		 "functional": "B3LYP", 
		 "basiset": "6-31G**", 
		 "properties": { 
			 "R2extent": 3728.4537, 
			 "electric_dipole_moment_norm": 2.23660754045, 
			 "electric_quadrupole_moment_norm": 6.49950494269, 
			 "total_energy": -631.050896359, 
			 "HOMO_LUMO_gap": 0.17677, 
			 "cosmo_polarized_energy": -9.32, 
			 "cosmo_cavitation_energy": 28.69, 
			 "cosmo_dispersion_energy": -20.67, 
			 "cosmo_repulsion_energy": 1.6, 
			 "cosmo_total_nonelectrostatic_energy": 9.62, 
			 "SMD_solvation_energy": 6.15 
		},
		"coords": [
			{
				"x": 2.9780768546,
				"y": -2.6888947651,
				"z": -2.8954421143,
				"element": "C" 
			},
			{
				"x": 2.3357663379,
				"y": -1.8611935743,
				"z": -1.8919190423,
				"element": "N" 
			},
			{
				"x": 1.2110516099,
				"y": -2.256246225,
				"z": -1.153461677,
				"element": "C" 
			},
			{
				"x": 0.6415924251,
				"y": -3.3261721885,
				"z": -1.2728768402,
				"element": "O" 
			},
			{
				"x": 0.895973528,
				"y": -1.1132547409,
				"z": -0.2467258612,
				"element": "C" 
			},
			{
				"x": 1.8327023664,
				"y": -0.1008118914,
				"z": -0.4822844755,
				"element": "C" 
			},
			{
				"x": 2.7682584653,
				"y": -0.5731732346,
				"z": -1.5450507092,
				"element": "C" 
			},
			{
				"x": 3.7187820304,
				"y": -0.0003097692,
				"z": -2.0466608928,
				"element": "O" 
			},
			{
				"x": 1.8153218936,
				"y": 1.1132349232,
				"z": 0.2055129768,
				"element": "C" 
			},
			{
				"x": 2.8210849617,
				"y": 2.2070343127,
				"z": -0.0444705725,
				"element": "C" 
			},
			{
				"x": 0.7872196503,
				"y": 1.2460446296,
				"z": 1.1555494112,
				"element": "C" 
			},
			{
				"x": -0.1480548118,
				"y": 0.2351936029,
				"z": 1.3907400406,
				"element": "C" 
			},
			{
				"x": -0.1268945921,
				"y": -0.9859565362,
				"z": 0.6939282193,
				"element": "C" 
			},
			{
				"x": -1.1385080432,
				"y": -2.0726216098,
				"z": 0.9512469216,
				"element": "C" 
			},
			{
				"x": 3.7633075896,
				"y": -3.3119843536,
				"z": -2.4541914568,
				"element": "H" 
			},
			{
				"x": 3.4256525837,
				"y": -2.0387948257,
				"z": -3.6487693209,
				"element": "H" 
			},
			{
				"x": 2.2251118636,
				"y": -3.3372972179,
				"z": -3.346069093,
				"element": "H" 
			},
			{
				"x": 2.8038626068,
				"y": 2.5283402692,
				"z": -1.090274753,
				"element": "H" 
			},
			{
				"x": 3.8401728575,
				"y": 1.8582453146,
				"z": 0.1492269197,
				"element": "H" 
			},
			{
				"x": 2.6212545692,
				"y": 3.0731642851,
				"z": 0.5918763426,
				"element": "H" 
			},
			{
				"x": 0.7184722238,
				"y": 2.1686181416,
				"z": 1.7264177579,
				"element": "H" 
			},
			{
				"x": -0.9202496524,
				"y": 0.397476374,
				"z": 2.1385001412,
				"element": "H" 
			},
			{
				"x": -1.68689743,
				"y": -2.32618062,
				"z": 0.0389924347,
				"element": "H" 
			},
			{
				"x": -1.8551577588,
				"y": -1.7645641441,
				"z": 1.7171233383,
				"element": "H" 
			},
			{
				"x": -0.651302129,
				"y": -2.9960961566,
				"z": 1.2791823049,
				"element": "H" 
			}
		],
		 "valence_orbital": [ 
			{
				"type": "occ",
				"energy": -0.28398,
				"method": "rhf"
			},
			{
				"type": "occ",
				"energy": -0.27869,
				"method": "rhf"
			},
			{
				"type": "occ",
				"energy": -0.26045,
				"method": "rhf"
			},
			{
				"type": "occ",
				"energy": -0.2597,
				"method": "rhf"
			},
			{
				"type": "occ",
				"energy": -0.25286,
				"method": "rhf"
			},
			{
				"type": "unocc",
				"energy": -0.07609,
				"method": "rhf"
			},
			{
				"type": "unocc",
				"energy": -0.02867,
				"method": "rhf"
			},
			{
				"type": "unocc",
				"energy": 0.03643,
				"method": "rhf"
			},
			{
				"type": "unocc",
				"energy": 0.07715,
				"method": "rhf"
			},
			{
				"type": "unocc",
				"energy": 0.09521,
				"method": "rhf"
			}
		],
		"cosmo_sigma_profile": { 
			"-0.025": 0.0,
			"-0.024": 0.0,
			"-0.023": 0.0,
			"-0.022": 0.0,
			"-0.021": 0.0,
			"-0.02": 0.0,
			"-0.019": 0.0,
			"-0.018": 0.0,
			"-0.017": 0.0,
			"-0.016": 0.0,
			"-0.015": 0.0,
			"-0.014": 0.0,
			"-0.013": 0.0,
			"-0.012": 0.0,
			"-0.011": 0.0,
			"-0.01": 0.0,
			"-0.009": 0.0,
			"-0.008": 0.0,
			"-0.007": 1.35253071539,
			"-0.006": 9.57890996202,
			"-0.005": 15.8202169419,
			"-0.004": 23.2736228793,
			"-0.003": 26.4594856582,
			"-0.002": 26.8927104881,
			"-0.001": 25.6913737705,
			"0.0": 22.7321542012,
			"0.001": 12.756342038,
			"0.002": 12.7304144633,
			"0.003": 11.3145203,
			"0.004": 4.91116639661,
			"0.005": 4.03891002376,
			"0.006": 3.02257339465,
			"0.007": 3.65323716921,
			"0.008": 3.20178657431,
			"0.009": 3.62015857128,
			"0.01": 4.3916744728,
			"0.011": 7.52233154691,
			"0.012": 5.03068399635,
			"0.013": 0.000234824376627,
			"0.014": 0.0,
			"0.015": 0.0,
			"0.016": 0.0,
			"0.017": 0.0,
			"0.018": 0.0,
			"0.019": 0.0,
			"0.02": 0.0,
			"0.021": 0.0,
			"0.022": 0.0,
			"0.023": 0.0,
			"0.024": 0.0,
			"0.025": 0.0
		}
	}
}
