{
	 "smiles": "CC1(C)CC2=C(C=C(N2C2=CC=C(F)C=C2)C2=CC=CC=C2)C(=O)C1", 
	 "Tm": 482.15, 
	 "num_atms": 45, 
	 "gaussian": { 
		 "optdone": 1, 
		 "sigma_profile": "yes", 
		 "theory": "DFT", 
		 "functional": "B3LYP", 
		 "basiset": "6-31G**", 
		 "properties": { 
			 "R2extent": 9459.0291, 
			 "electric_dipole_moment_norm": 4.45186534612, 
			 "electric_quadrupole_moment_norm": 21.9799469203, 
			 "total_energy": -1080.22502563, 
			 "HOMO_LUMO_gap": 0.17182, 
			 "cosmo_polarized_energy": -14.55, 
			 "cosmo_cavitation_energy": 47.42, 
			 "cosmo_dispersion_energy": -31.38, 
			 "cosmo_repulsion_energy": 2.36, 
			 "cosmo_total_nonelectrostatic_energy": 18.4, 
			 "SMD_solvation_energy": 8.43 
		},
		"coords": [
			{
				"x": 3.5255395377,
				"y": 0.7060558174,
				"z": 2.6131325629,
				"element": "C" 
			},
			{
				"x": 2.233466248,
				"y": 0.1407648281,
				"z": 3.2374713114,
				"element": "C" 
			},
			{
				"x": 2.6061298312,
				"y": -0.7534062855,
				"z": 4.432491633,
				"element": "C" 
			},
			{
				"x": 1.4611038114,
				"y": -0.7144238999,
				"z": 2.1909896404,
				"element": "C" 
			},
			{
				"x": 0.7864800596,
				"y": 0.1599703384,
				"z": 1.1810882116,
				"element": "C" 
			},
			{
				"x": 0.4711007629,
				"y": 1.4980827486,
				"z": 1.3637837054,
				"element": "C" 
			},
			{
				"x": -0.1098156702,
				"y": 1.9775144547,
				"z": 0.1546785825,
				"element": "C" 
			},
			{
				"x": -0.1507750771,
				"y": 0.9308324168,
				"z": -0.7389931575,
				"element": "C" 
			},
			{
				"x": 0.4029457794,
				"y": -0.1977673174,
				"z": -0.0930777688,
				"element": "N" 
			},
			{
				"x": 0.6994144818,
				"y": -1.4586975636,
				"z": -0.6977125129,
				"element": "C" 
			},
			{
				"x": 0.1494408897,
				"y": -2.6326168335,
				"z": -0.1710665821,
				"element": "C" 
			},
			{
				"x": 0.4533142885,
				"y": -3.868787231,
				"z": -0.7405817114,
				"element": "C" 
			},
			{
				"x": 1.296869635,
				"y": -3.9067275354,
				"z": -1.8451760619,
				"element": "C" 
			},
			{
				"x": 1.5879209126,
				"y": -5.097341444,
				"z": -2.4042418572,
				"element": "F" 
			},
			{
				"x": 1.8490272343,
				"y": -2.7521143715,
				"z": -2.3908202812,
				"element": "C" 
			},
			{
				"x": 1.5518512001,
				"y": -1.5230480262,
				"z": -1.8063043064,
				"element": "C" 
			},
			{
				"x": -0.7092676923,
				"y": 0.9188439036,
				"z": -2.0998941729,
				"element": "C" 
			},
			{
				"x": -0.5073285419,
				"y": 2.0381604933,
				"z": -2.9283483077,
				"element": "C" 
			},
			{
				"x": -1.069432662,
				"y": 2.0965907219,
				"z": -4.2021404318,
				"element": "C" 
			},
			{
				"x": -1.8349175973,
				"y": 1.0322873929,
				"z": -4.6827701638,
				"element": "C" 
			},
			{
				"x": -2.0406548253,
				"y": -0.0861382844,
				"z": -3.8724988099,
				"element": "C" 
			},
			{
				"x": -1.4897552552,
				"y": -0.1425726026,
				"z": -2.5933406835,
				"element": "C" 
			},
			{
				"x": 0.755519795,
				"y": 2.1928996255,
				"z": 2.6175328621,
				"element": "C" 
			},
			{
				"x": 0.5340467185,
				"y": 3.3833161772,
				"z": 2.7996111274,
				"element": "O" 
			},
			{
				"x": 1.3271217453,
				"y": 1.3006440562,
				"z": 3.7249965286,
				"element": "C" 
			},
			{
				"x": 3.3180698849,
				"y": 1.328808412,
				"z": 1.7383272638,
				"element": "H" 
			},
			{
				"x": 4.0662256416,
				"y": 1.3209773452,
				"z": 3.3404403154,
				"element": "H" 
			},
			{
				"x": 4.1926793856,
				"y": -0.1049920954,
				"z": 2.2998919361,
				"element": "H" 
			},
			{
				"x": 3.1656150928,
				"y": -0.1864920469,
				"z": 5.1842326944,
				"element": "H" 
			},
			{
				"x": 1.7140733824,
				"y": -1.1643191138,
				"z": 4.9186190137,
				"element": "H" 
			},
			{
				"x": 3.2337051379,
				"y": -1.5940824906,
				"z": 4.1143897003,
				"element": "H" 
			},
			{
				"x": 2.1451279233,
				"y": -1.4227510208,
				"z": 1.7081928693,
				"element": "H" 
			},
			{
				"x": 0.7132764846,
				"y": -1.3262463539,
				"z": 2.7183061794,
				"element": "H" 
			},
			{
				"x": -0.4997761745,
				"y": 2.9706826372,
				"z": -0.0129385039,
				"element": "H" 
			},
			{
				"x": -0.5235671415,
				"y": -2.5743742916,
				"z": 0.6779669662,
				"element": "H" 
			},
			{
				"x": 0.0396034073,
				"y": -4.7912128008,
				"z": -0.3484600071,
				"element": "H" 
			},
			{
				"x": 2.5038699613,
				"y": -2.8259714167,
				"z": -3.2519249579,
				"element": "H" 
			},
			{
				"x": 1.9756385934,
				"y": -0.6093538427,
				"z": -2.2081026771,
				"element": "H" 
			},
			{
				"x": 0.1048745101,
				"y": 2.8583526772,
				"z": -2.5657955579,
				"element": "H" 
			},
			{
				"x": -0.9000873392,
				"y": 2.9711593125,
				"z": -4.8239462103,
				"element": "H" 
			},
			{
				"x": -2.2676041834,
				"y": 1.0741448499,
				"z": -5.6780463372,
				"element": "H" 
			},
			{
				"x": -2.6427910156,
				"y": -0.9156164431,
				"z": -4.2326136349,
				"element": "H" 
			},
			{
				"x": -1.6805111618,
				"y": -1.0076314636,
				"z": -1.9673031243,
				"element": "H" 
			},
			{
				"x": 0.4671724836,
				"y": 0.8804737128,
				"z": 4.2686037836,
				"element": "H" 
			},
			{
				"x": 1.8600595176,
				"y": 1.9446228534,
				"z": 4.4316509322,
				"element": "H" 
			}
		],
		 "valence_orbital": [ 
			{
				"type": "occ",
				"energy": -0.26216,
				"method": "rhf"
			},
			{
				"type": "occ",
				"energy": -0.25241,
				"method": "rhf"
			},
			{
				"type": "occ",
				"energy": -0.23933,
				"method": "rhf"
			},
			{
				"type": "occ",
				"energy": -0.22589,
				"method": "rhf"
			},
			{
				"type": "occ",
				"energy": -0.20432,
				"method": "rhf"
			},
			{
				"type": "unocc",
				"energy": -0.0325,
				"method": "rhf"
			},
			{
				"type": "unocc",
				"energy": -0.02922,
				"method": "rhf"
			},
			{
				"type": "unocc",
				"energy": -0.02097,
				"method": "rhf"
			},
			{
				"type": "unocc",
				"energy": -0.01157,
				"method": "rhf"
			},
			{
				"type": "unocc",
				"energy": -0.00174,
				"method": "rhf"
			}
		],
		"cosmo_sigma_profile": { 
			"-0.025": 0.0,
			"-0.024": 0.0,
			"-0.023": 0.0,
			"-0.022": 0.0,
			"-0.021": 0.0,
			"-0.02": 0.0,
			"-0.019": 0.0,
			"-0.018": 0.0,
			"-0.017": 0.0,
			"-0.016": 0.0,
			"-0.015": 0.0,
			"-0.014": 0.0,
			"-0.013": 0.0,
			"-0.012": 0.0,
			"-0.011": 0.0,
			"-0.01": 0.0,
			"-0.009": 0.0,
			"-0.008": 2.11959211728,
			"-0.007": 7.01483734927,
			"-0.006": 14.1116881307,
			"-0.005": 23.1534660499,
			"-0.004": 31.622642918,
			"-0.003": 41.045654453,
			"-0.002": 33.8669957169,
			"-0.001": 34.0265894775,
			"0.0": 36.2470818733,
			"0.001": 35.3392859915,
			"0.002": 25.4895778015,
			"0.003": 20.7991954563,
			"0.004": 26.1231947986,
			"0.005": 17.6569108838,
			"0.006": 7.03375651891,
			"0.007": 1.72177596363,
			"0.008": 1.8387021224,
			"0.009": 1.2988650367,
			"0.01": 2.17463165991,
			"0.011": 1.74197455873,
			"0.012": 2.50412325248,
			"0.013": 5.17786868747,
			"0.014": 3.3481028272,
			"0.015": 0.643422949015,
			"0.016": 0.0,
			"0.017": 0.0,
			"0.018": 0.0,
			"0.019": 0.0,
			"0.02": 0.0,
			"0.021": 0.0,
			"0.022": 0.0,
			"0.023": 0.0,
			"0.024": 0.0,
			"0.025": 0.0
		}
	}
}
