{
	 "smiles": "CC1(C)CCC(C)(C)C2=C1C=CC(=C2)S(Cl)(=O)=O", 
	 "Tm": 352.15, 
	 "num_atms": 37, 
	 "gaussian": { 
		 "optdone": 1, 
		 "sigma_profile": "yes", 
		 "theory": "DFT", 
		 "functional": "B3LYP", 
		 "basiset": "6-31G**", 
		 "properties": { 
			 "R2extent": 7234.5741, 
			 "electric_dipole_moment_norm": 6.71807793569, 
			 "electric_quadrupole_moment_norm": 19.9748731671, 
			 "total_energy": -1553.73157862, 
			 "HOMO_LUMO_gap": 0.18329, 
			 "cosmo_polarized_energy": -9.15, 
			 "cosmo_cavitation_energy": 39.57, 
			 "cosmo_dispersion_energy": -27.76, 
			 "cosmo_repulsion_energy": 2.09, 
			 "cosmo_total_nonelectrostatic_energy": 13.9, 
			 "SMD_solvation_energy": 5.19 
		},
		"coords": [
			{
				"x": 2.7428984427,
				"y": 0.147328395,
				"z": -1.0854636272,
				"element": "C" 
			},
			{
				"x": 1.2772557177,
				"y": 0.6356495013,
				"z": -1.0243991808,
				"element": "C" 
			},
			{
				"x": 0.697407975,
				"y": 0.6412579651,
				"z": -2.4609992946,
				"element": "C" 
			},
			{
				"x": 1.2847925964,
				"y": 2.0690459712,
				"z": -0.44828778,
				"element": "C" 
			},
			{
				"x": -0.1006460069,
				"y": 2.5420581618,
				"z": -0.0211528579,
				"element": "C" 
			},
			{
				"x": -0.6983964214,
				"y": 1.6875593789,
				"z": 1.1181534876,
				"element": "C" 
			},
			{
				"x": -0.0186820041,
				"y": 2.0393004573,
				"z": 2.4645180926,
				"element": "C" 
			},
			{
				"x": -2.2027453763,
				"y": 2.0265359154,
				"z": 1.2216330432,
				"element": "C" 
			},
			{
				"x": -0.4858857859,
				"y": 0.1911050666,
				"z": 0.8273263118,
				"element": "C" 
			},
			{
				"x": 0.4201125228,
				"y": -0.2924411235,
				"z": -0.1470718848,
				"element": "C" 
			},
			{
				"x": 0.5237200203,
				"y": -1.6822740344,
				"z": -0.3495334259,
				"element": "C" 
			},
			{
				"x": -0.2029798926,
				"y": -2.6025758658,
				"z": 0.3920396288,
				"element": "C" 
			},
			{
				"x": -1.0639412817,
				"y": -2.1031711451,
				"z": 1.367744089,
				"element": "C" 
			},
			{
				"x": -1.2102793405,
				"y": -0.7393911644,
				"z": 1.5884325818,
				"element": "C" 
			},
			{
				"x": -2.0214708862,
				"y": -3.2428616722,
				"z": 2.3476876283,
				"element": "S" 
			},
			{
				"x": -0.6898431067,
				"y": -3.6247520438,
				"z": 3.9827918023,
				"element": "Cl" 
			},
			{
				"x": -2.1517645904,
				"y": -4.5087133511,
				"z": 1.6360576035,
				"element": "O" 
			},
			{
				"x": -3.1703266498,
				"y": -2.5533968182,
				"z": 2.9232988125,
				"element": "O" 
			},
			{
				"x": 3.1652536443,
				"y": 0.0331074564,
				"z": -0.0820659903,
				"element": "H" 
			},
			{
				"x": 2.8492951696,
				"y": -0.8070793804,
				"z": -1.6086498925,
				"element": "H" 
			},
			{
				"x": 3.3502594733,
				"y": 0.8813337606,
				"z": -1.6262124876,
				"element": "H" 
			},
			{
				"x": -0.3300720664,
				"y": 1.0154390998,
				"z": -2.4864814148,
				"element": "H" 
			},
			{
				"x": 0.6892974868,
				"y": -0.3669508066,
				"z": -2.8866301072,
				"element": "H" 
			},
			{
				"x": 1.3079630762,
				"y": 1.2768492811,
				"z": -3.1121275312,
				"element": "H" 
			},
			{
				"x": 1.9671694126,
				"y": 2.1060478964,
				"z": 0.4099840925,
				"element": "H" 
			},
			{
				"x": 1.7047973901,
				"y": 2.7481183516,
				"z": -1.1998162503,
				"element": "H" 
			},
			{
				"x": -0.0620763104,
				"y": 3.5880259236,
				"z": 0.3055081469,
				"element": "H" 
			},
			{
				"x": -0.7805857959,
				"y": 2.5170403892,
				"z": -0.8819136654,
				"element": "H" 
			},
			{
				"x": -0.1776683328,
				"y": 3.096618804,
				"z": 2.7044447166,
				"element": "H" 
			},
			{
				"x": 1.0591224183,
				"y": 1.8539263727,
				"z": 2.4406994688,
				"element": "H" 
			},
			{
				"x": -0.4347701836,
				"y": 1.4430818316,
				"z": 3.2826065999,
				"element": "H" 
			},
			{
				"x": -2.6821354433,
				"y": 1.5627035095,
				"z": 2.0882709034,
				"element": "H" 
			},
			{
				"x": -2.7440819569,
				"y": 1.7088758504,
				"z": 0.3247763342,
				"element": "H" 
			},
			{
				"x": -2.3274051078,
				"y": 3.1098933756,
				"z": 1.3259300367,
				"element": "H" 
			},
			{
				"x": 1.1953737881,
				"y": -2.0580167111,
				"z": -1.1136875792,
				"element": "H" 
			},
			{
				"x": -0.1145746784,
				"y": -3.6689965551,
				"z": 0.2198606903,
				"element": "H" 
			},
			{
				"x": -1.9032879163,
				"y": -0.4059820434,
				"z": 2.3514288991,
				"element": "H" 
			}
		],
		 "valence_orbital": [ 
			{
				"type": "occ",
				"energy": -0.31755,
				"method": "rhf"
			},
			{
				"type": "occ",
				"energy": -0.31281,
				"method": "rhf"
			},
			{
				"type": "occ",
				"energy": -0.30603,
				"method": "rhf"
			},
			{
				"type": "occ",
				"energy": -0.27301,
				"method": "rhf"
			},
			{
				"type": "occ",
				"energy": -0.2666,
				"method": "rhf"
			},
			{
				"type": "unocc",
				"energy": -0.08331,
				"method": "rhf"
			},
			{
				"type": "unocc",
				"energy": -0.03502,
				"method": "rhf"
			},
			{
				"type": "unocc",
				"energy": -0.02896,
				"method": "rhf"
			},
			{
				"type": "unocc",
				"energy": 0.05393,
				"method": "rhf"
			},
			{
				"type": "unocc",
				"energy": 0.06842,
				"method": "rhf"
			}
		],
		"cosmo_sigma_profile": { 
			"-0.025": 0.0,
			"-0.024": 0.0,
			"-0.023": 0.0,
			"-0.022": 0.0,
			"-0.021": 0.0,
			"-0.02": 0.0,
			"-0.019": 0.0,
			"-0.018": 0.0,
			"-0.017": 0.0,
			"-0.016": 0.0,
			"-0.015": 0.0,
			"-0.014": 0.0,
			"-0.013": 0.0,
			"-0.012": 0.0,
			"-0.011": 0.0,
			"-0.01": 0.0,
			"-0.009": 0.0,
			"-0.008": 0.95796413154,
			"-0.007": 4.45338543898,
			"-0.006": 7.49258505485,
			"-0.005": 8.56539929288,
			"-0.004": 12.2476415348,
			"-0.003": 37.9127237504,
			"-0.002": 37.3458915169,
			"-0.001": 38.2504781242,
			"0.0": 44.0079549627,
			"0.001": 41.4587531185,
			"0.002": 21.818068261,
			"0.003": 14.9551780165,
			"0.004": 14.1597613273,
			"0.005": 3.29284749832,
			"0.006": 4.05811186117,
			"0.007": 5.00327750667,
			"0.008": 9.5960282857,
			"0.009": 6.51498930245,
			"0.01": 0.272028888126,
			"0.011": 0.0,
			"0.012": 0.0,
			"0.013": 0.0,
			"0.014": 0.0,
			"0.015": 0.0,
			"0.016": 0.0,
			"0.017": 0.0,
			"0.018": 0.0,
			"0.019": 0.0,
			"0.02": 0.0,
			"0.021": 0.0,
			"0.022": 0.0,
			"0.023": 0.0,
			"0.024": 0.0,
			"0.025": 0.0
		}
	}
}
