{
	 "smiles": "CC1=C(CO)C(C)=NN1", 
	 "Tm": 452.15, 
	 "num_atms": 19, 
	 "gaussian": { 
		 "optdone": 1, 
		 "sigma_profile": "yes", 
		 "theory": "DFT", 
		 "functional": "B3LYP", 
		 "basiset": "6-31G**", 
		 "properties": { 
			 "R2extent": 1657.8005, 
			 "electric_dipole_moment_norm": 2.57835383724, 
			 "electric_quadrupole_moment_norm": 11.6176541036, 
			 "total_energy": -419.371468437, 
			 "HOMO_LUMO_gap": 0.25033, 
			 "cosmo_polarized_energy": -13.22, 
			 "cosmo_cavitation_energy": 22.15, 
			 "cosmo_dispersion_energy": -16.38, 
			 "cosmo_repulsion_energy": 1.39, 
			 "cosmo_total_nonelectrostatic_energy": 7.16, 
			 "SMD_solvation_energy": 3.2 
		},
		"coords": [
			{
				"x": 1.4527604758,
				"y": 0.4349975662,
				"z": 0.541792652,
				"element": "C" 
			},
			{
				"x": -0.0257861332,
				"y": 0.4932227278,
				"z": 0.7603278837,
				"element": "C" 
			},
			{
				"x": -1.073300723,
				"y": 0.7518982763,
				"z": -0.1139441453,
				"element": "C" 
			},
			{
				"x": -0.9659718088,
				"y": 1.0605451984,
				"z": -1.5731867401,
				"element": "C" 
			},
			{
				"x": -0.0855099042,
				"y": 2.1754972784,
				"z": -1.7624738443,
				"element": "O" 
			},
			{
				"x": -2.2500302772,
				"y": 0.6622379916,
				"z": 0.6816821073,
				"element": "C" 
			},
			{
				"x": -3.6772142085,
				"y": 0.8528377769,
				"z": 0.2632596735,
				"element": "C" 
			},
			{
				"x": -1.9595424784,
				"y": 0.3668193602,
				"z": 1.9487389896,
				"element": "N" 
			},
			{
				"x": -0.6084915941,
				"y": 0.2698931129,
				"z": 1.9675697708,
				"element": "N" 
			},
			{
				"x": 2.0023991174,
				"y": 0.8238301652,
				"z": 1.4060258522,
				"element": "H" 
			},
			{
				"x": 1.7110348834,
				"y": 1.0424330814,
				"z": -0.3273391965,
				"element": "H" 
			},
			{
				"x": 1.8000609614,
				"y": -0.5905114316,
				"z": 0.3626576501,
				"element": "H" 
			},
			{
				"x": -1.9683072932,
				"y": 1.2782118691,
				"z": -1.9720135609,
				"element": "H" 
			},
			{
				"x": -0.5881266681,
				"y": 0.1845657349,
				"z": -2.12659052,
				"element": "H" 
			},
			{
				"x": 0.043756059,
				"y": 2.2851975785,
				"z": -2.7136969171,
				"element": "H" 
			},
			{
				"x": -4.3261686811,
				"y": 0.7786655233,
				"z": 1.1386529083,
				"element": "H" 
			},
			{
				"x": -3.99611843,
				"y": 0.0950476323,
				"z": -0.4620688587,
				"element": "H" 
			},
			{
				"x": -3.8340269188,
				"y": 1.83403295,
				"z": -0.1992368904,
				"element": "H" 
			},
			{
				"x": -0.1457163785,
				"y": 0.0785776082,
				"z": 2.8425431857,
				"element": "H" 
			}
		],
		 "valence_orbital": [ 
			{
				"type": "occ",
				"energy": -0.33353,
				"method": "rhf"
			},
			{
				"type": "occ",
				"energy": -0.27427,
				"method": "rhf"
			},
			{
				"type": "occ",
				"energy": -0.26645,
				"method": "rhf"
			},
			{
				"type": "occ",
				"energy": -0.23247,
				"method": "rhf"
			},
			{
				"type": "occ",
				"energy": -0.2217,
				"method": "rhf"
			},
			{
				"type": "unocc",
				"energy": 0.02863,
				"method": "rhf"
			},
			{
				"type": "unocc",
				"energy": 0.05575,
				"method": "rhf"
			},
			{
				"type": "unocc",
				"energy": 0.08997,
				"method": "rhf"
			},
			{
				"type": "unocc",
				"energy": 0.09627,
				"method": "rhf"
			},
			{
				"type": "unocc",
				"energy": 0.11505,
				"method": "rhf"
			}
		],
		"cosmo_sigma_profile": { 
			"-0.025": 0.0,
			"-0.024": 0.0,
			"-0.023": 0.0,
			"-0.022": 0.0,
			"-0.021": 0.0,
			"-0.02": 0.0,
			"-0.019": 0.0,
			"-0.018": 0.0,
			"-0.017": 0.0,
			"-0.016": 0.444387448062,
			"-0.015": 2.59491782331,
			"-0.014": 2.1382406464,
			"-0.013": 1.75339361177,
			"-0.012": 2.11164161649,
			"-0.011": 2.51359295749,
			"-0.01": 1.92140148987,
			"-0.009": 1.34202415805,
			"-0.008": 2.15438157993,
			"-0.007": 1.75842433144,
			"-0.006": 2.86984296669,
			"-0.005": 5.23909619465,
			"-0.004": 13.0972125676,
			"-0.003": 18.1723494796,
			"-0.002": 18.7859384833,
			"-0.001": 16.9612051186,
			"0.0": 16.4801450988,
			"0.001": 7.51921753698,
			"0.002": 5.31519438493,
			"0.003": 5.79616683147,
			"0.004": 5.63277621445,
			"0.005": 6.55399495601,
			"0.006": 5.49315553473,
			"0.007": 4.37498190253,
			"0.008": 3.78302226246,
			"0.009": 2.87461244236,
			"0.01": 1.72155589335,
			"0.011": 2.40223757317,
			"0.012": 3.49406319091,
			"0.013": 2.07959436386,
			"0.014": 2.58821372207,
			"0.015": 1.74816151722,
			"0.016": 0.838832512699,
			"0.017": 0.90600871656,
			"0.018": 0.0897722491706,
			"0.019": 0.0,
			"0.02": 0.0,
			"0.021": 0.0,
			"0.022": 0.0,
			"0.023": 0.0,
			"0.024": 0.0,
			"0.025": 0.0
		}
	}
}
