{
	 "smiles": "NC1=CC(=NC=C1)C1=CC=CC=C1", 
	 "Tm": 400.15, 
	 "num_atms": 23, 
	 "gaussian": { 
		 "optdone": 1, 
		 "sigma_profile": "yes", 
		 "theory": "DFT", 
		 "functional": "B3LYP", 
		 "basiset": "6-31G**", 
		 "properties": { 
			 "R2extent": 3591.9734, 
			 "electric_dipole_moment_norm": 3.60327059628, 
			 "electric_quadrupole_moment_norm": 23.3182832621, 
			 "total_energy": -534.71081034, 
			 "HOMO_LUMO_gap": 0.18927, 
			 "cosmo_polarized_energy": -13.08, 
			 "cosmo_cavitation_energy": 26.84, 
			 "cosmo_dispersion_energy": -20.12, 
			 "cosmo_repulsion_energy": 1.58, 
			 "cosmo_total_nonelectrostatic_energy": 8.3, 
			 "SMD_solvation_energy": 3.46 
		},
		"coords": [
			{
				"x": 4.7943351469,
				"y": -1.1276891282,
				"z": 2.4950831949,
				"element": "N" 
			},
			{
				"x": 4.002486642,
				"y": -0.5612889287,
				"z": 1.5123940234,
				"element": "C" 
			},
			{
				"x": 2.6097249111,
				"y": -0.7372250824,
				"z": 1.5111865466,
				"element": "C" 
			},
			{
				"x": 1.8379126507,
				"y": -0.1933884022,
				"z": 0.4782459903,
				"element": "C" 
			},
			{
				"x": 2.3878583277,
				"y": 0.4860998955,
				"z": -0.5494466033,
				"element": "N" 
			},
			{
				"x": 3.7145549711,
				"y": 0.6414885264,
				"z": -0.5439839056,
				"element": "C" 
			},
			{
				"x": 4.5642343881,
				"y": 0.1592936809,
				"z": 0.444640541,
				"element": "C" 
			},
			{
				"x": 0.3560822987,
				"y": -0.3475095189,
				"z": 0.4479714464,
				"element": "C" 
			},
			{
				"x": -0.3887823555,
				"y": -0.6504503952,
				"z": 1.599311664,
				"element": "C" 
			},
			{
				"x": -1.774070437,
				"y": -0.7970341261,
				"z": 1.5366458624,
				"element": "C" 
			},
			{
				"x": -2.4426800416,
				"y": -0.6409064706,
				"z": 0.3213747564,
				"element": "C" 
			},
			{
				"x": -1.7140758459,
				"y": -0.3280723262,
				"z": -0.828724939,
				"element": "C" 
			},
			{
				"x": -0.3306673836,
				"y": -0.1788027447,
				"z": -0.7660335779,
				"element": "C" 
			},
			{
				"x": 5.718263597,
				"y": -0.7386247131,
				"z": 2.6127033,
				"element": "H" 
			},
			{
				"x": 4.3403944461,
				"y": -1.3599547001,
				"z": 3.366265388,
				"element": "H" 
			},
			{
				"x": 2.1460279743,
				"y": -1.31968782,
				"z": 2.3008224912,
				"element": "H" 
			},
			{
				"x": 4.1322104703,
				"y": 1.1943792261,
				"z": -1.3846743698,
				"element": "H" 
			},
			{
				"x": 5.6360365767,
				"y": 0.3253608094,
				"z": 0.3842330709,
				"element": "H" 
			},
			{
				"x": 0.108061665,
				"y": -0.747835025,
				"z": 2.5596558312,
				"element": "H" 
			},
			{
				"x": -2.3322475862,
				"y": -1.0251217892,
				"z": 2.4404670444,
				"element": "H" 
			},
			{
				"x": -3.5218533532,
				"y": -0.7558365353,
				"z": 0.2724911598,
				"element": "H" 
			},
			{
				"x": -2.2263472003,
				"y": -0.2003615039,
				"z": -1.7784066883,
				"element": "H" 
			},
			{
				"x": 0.2451401379,
				"y": 0.0719670716,
				"z": -1.6495222268,
				"element": "H" 
			}
		],
		 "valence_orbital": [ 
			{
				"type": "occ",
				"energy": -0.27369,
				"method": "rhf"
			},
			{
				"type": "occ",
				"energy": -0.24551,
				"method": "rhf"
			},
			{
				"type": "occ",
				"energy": -0.24148,
				"method": "rhf"
			},
			{
				"type": "occ",
				"energy": -0.22601,
				"method": "rhf"
			},
			{
				"type": "occ",
				"energy": -0.21935,
				"method": "rhf"
			},
			{
				"type": "unocc",
				"energy": -0.03008,
				"method": "rhf"
			},
			{
				"type": "unocc",
				"energy": -0.00239,
				"method": "rhf"
			},
			{
				"type": "unocc",
				"energy": 0.01163,
				"method": "rhf"
			},
			{
				"type": "unocc",
				"energy": 0.04207,
				"method": "rhf"
			},
			{
				"type": "unocc",
				"energy": 0.07261,
				"method": "rhf"
			}
		],
		"cosmo_sigma_profile": { 
			"-0.025": 0.0,
			"-0.024": 0.0,
			"-0.023": 0.0,
			"-0.022": 0.0,
			"-0.021": 0.0,
			"-0.02": 0.0,
			"-0.019": 0.0,
			"-0.018": 0.0,
			"-0.017": 0.0,
			"-0.016": 0.0,
			"-0.015": 0.0,
			"-0.014": 0.159216089057,
			"-0.013": 2.27351180621,
			"-0.012": 2.97088120893,
			"-0.011": 3.29504798404,
			"-0.01": 2.80890702674,
			"-0.009": 3.35257538805,
			"-0.008": 2.88882073232,
			"-0.007": 5.35094353754,
			"-0.006": 9.19159869236,
			"-0.005": 13.6637671479,
			"-0.004": 15.2692049412,
			"-0.003": 14.2933420666,
			"-0.002": 11.0063510936,
			"-0.001": 10.4481854313,
			"0.0": 9.61373038758,
			"0.001": 11.5206691372,
			"0.002": 13.7543004707,
			"0.003": 18.2827375532,
			"0.004": 23.2531374835,
			"0.005": 15.1747709757,
			"0.006": 10.3049017518,
			"0.007": 3.2701442243,
			"0.008": 2.39020078509,
			"0.009": 2.5623462502,
			"0.01": 2.17872287955,
			"0.011": 1.80747877051,
			"0.012": 1.18851773633,
			"0.013": 1.21885371163,
			"0.014": 0.895921884147,
			"0.015": 0.428818501694,
			"0.016": 0.0,
			"0.017": 0.0,
			"0.018": 0.0,
			"0.019": 0.0,
			"0.02": 0.0,
			"0.021": 0.0,
			"0.022": 0.0,
			"0.023": 0.0,
			"0.024": 0.0,
			"0.025": 0.0
		}
	}
}
