{
	 "smiles": "COC1=CC=C(CCN2C(=O)NC(=O)C2=O)C=C1", 
	 "Tm": 453.15, 
	 "num_atms": 30, 
	 "gaussian": { 
		 "optdone": 1, 
		 "sigma_profile": "yes", 
		 "theory": "DFT", 
		 "functional": "B3LYP", 
		 "basiset": "6-31G**", 
		 "properties": { 
			 "R2extent": 5179.5185, 
			 "electric_dipole_moment_norm": 2.10158280589, 
			 "electric_quadrupole_moment_norm": 20.0547233052, 
			 "total_energy": -874.938290253, 
			 "HOMO_LUMO_gap": 0.13373, 
			 "cosmo_polarized_energy": -18.35, 
			 "cosmo_cavitation_energy": 35.4, 
			 "cosmo_dispersion_energy": -24.0, 
			 "cosmo_repulsion_energy": 1.88, 
			 "cosmo_total_nonelectrostatic_energy": 13.28, 
			 "SMD_solvation_energy": 8.95 
		},
		"coords": [
			{
				"x": -3.8638528881,
				"y": -3.4832591557,
				"z": 0.8454378829,
				"element": "C" 
			},
			{
				"x": -3.0348929006,
				"y": -3.5622178781,
				"z": -0.3029288505,
				"element": "O" 
			},
			{
				"x": -1.8876677555,
				"y": -2.8231526218,
				"z": -0.3223129644,
				"element": "C" 
			},
			{
				"x": -1.1031943898,
				"y": -2.9466774801,
				"z": -1.4800288441,
				"element": "C" 
			},
			{
				"x": 0.0843648412,
				"y": -2.2379705032,
				"z": -1.5960117702,
				"element": "C" 
			},
			{
				"x": 0.5308635606,
				"y": -1.386847868,
				"z": -0.5705570292,
				"element": "C" 
			},
			{
				"x": 1.8150411157,
				"y": -0.5987082018,
				"z": -0.7064660688,
				"element": "C" 
			},
			{
				"x": 1.7149546799,
				"y": 0.6099524854,
				"z": -1.659345906,
				"element": "C" 
			},
			{
				"x": 0.6530270148,
				"y": 1.5461610539,
				"z": -1.2884214462,
				"element": "N" 
			},
			{
				"x": -0.4862998678,
				"y": 1.7612129085,
				"z": -2.0805712102,
				"element": "C" 
			},
			{
				"x": -0.7259725934,
				"y": 1.26837075,
				"z": -3.1567496234,
				"element": "O" 
			},
			{
				"x": -1.2847094248,
				"y": 2.675898095,
				"z": -1.3826130567,
				"element": "N" 
			},
			{
				"x": -0.7271230772,
				"y": 3.064602541,
				"z": -0.1752921371,
				"element": "C" 
			},
			{
				"x": -1.1714107896,
				"y": 3.8318172325,
				"z": 0.6419385232,
				"element": "O" 
			},
			{
				"x": 0.6092548654,
				"y": 2.2793859626,
				"z": -0.1145079413,
				"element": "C" 
			},
			{
				"x": 1.4329512615,
				"y": 2.3040417395,
				"z": 0.7709475655,
				"element": "O" 
			},
			{
				"x": -0.2617786482,
				"y": -1.2762547767,
				"z": 0.5744859921,
				"element": "C" 
			},
			{
				"x": -1.4620045584,
				"y": -1.9820791316,
				"z": 0.7108744862,
				"element": "C" 
			},
			{
				"x": -4.7111850762,
				"y": -4.1428662803,
				"z": 0.652029118,
				"element": "H" 
			},
			{
				"x": -3.3402654084,
				"y": -3.8243015481,
				"z": 1.7479811282,
				"element": "H" 
			},
			{
				"x": -4.2324600349,
				"y": -2.4624582992,
				"z": 1.0105744443,
				"element": "H" 
			},
			{
				"x": -1.4466782729,
				"y": -3.6065380532,
				"z": -2.2699719595,
				"element": "H" 
			},
			{
				"x": 0.6789711927,
				"y": -2.3504680942,
				"z": -2.4997060488,
				"element": "H" 
			},
			{
				"x": 2.1403420855,
				"y": -0.2409135211,
				"z": 0.2743474472,
				"element": "H" 
			},
			{
				"x": 2.6189887262,
				"y": -1.2368137867,
				"z": -1.0943240168,
				"element": "H" 
			},
			{
				"x": 2.6634886904,
				"y": 1.1562898949,
				"z": -1.6682900157,
				"element": "H" 
			},
			{
				"x": 1.4870598824,
				"y": 0.2926887121,
				"z": -2.6788709319,
				"element": "H" 
			},
			{
				"x": -2.1707764242,
				"y": 2.998633998,
				"z": -1.745881442,
				"element": "H" 
			},
			{
				"x": 0.0628039058,
				"y": -0.6314617112,
				"z": 1.3878562126,
				"element": "H" 
			},
			{
				"x": -2.0434397122,
				"y": -1.8710664624,
				"z": 1.6184784626,
				"element": "H" 
			}
		],
		 "valence_orbital": [ 
			{
				"type": "occ",
				"energy": -0.30027,
				"method": "rhf"
			},
			{
				"type": "occ",
				"energy": -0.29248,
				"method": "rhf"
			},
			{
				"type": "occ",
				"energy": -0.27375,
				"method": "rhf"
			},
			{
				"type": "occ",
				"energy": -0.25406,
				"method": "rhf"
			},
			{
				"type": "occ",
				"energy": -0.21946,
				"method": "rhf"
			},
			{
				"type": "unocc",
				"energy": -0.08573,
				"method": "rhf"
			},
			{
				"type": "unocc",
				"energy": -0.00607,
				"method": "rhf"
			},
			{
				"type": "unocc",
				"energy": 0.00588,
				"method": "rhf"
			},
			{
				"type": "unocc",
				"energy": 0.03492,
				"method": "rhf"
			},
			{
				"type": "unocc",
				"energy": 0.06706,
				"method": "rhf"
			}
		],
		"cosmo_sigma_profile": { 
			"-0.025": 0.0,
			"-0.024": 0.0,
			"-0.023": 0.0,
			"-0.022": 0.0,
			"-0.021": 0.0,
			"-0.02": 0.0,
			"-0.019": 0.0,
			"-0.018": 0.857418566182,
			"-0.017": 1.15726402825,
			"-0.016": 1.3776638571,
			"-0.015": 1.11391155514,
			"-0.014": 0.966077940077,
			"-0.013": 0.749862529676,
			"-0.012": 1.03766344352,
			"-0.011": 0.563777237302,
			"-0.01": 1.63144793729,
			"-0.009": 2.00524852486,
			"-0.008": 2.463888421,
			"-0.007": 3.15063293312,
			"-0.006": 15.3423012617,
			"-0.005": 31.1712649905,
			"-0.004": 31.7867754357,
			"-0.003": 27.1264566337,
			"-0.002": 15.4772347993,
			"-0.001": 13.1808379328,
			"0.0": 11.4740559003,
			"0.001": 10.3128372932,
			"0.002": 11.3583991276,
			"0.003": 13.0477499491,
			"0.004": 14.9314198699,
			"0.005": 12.9905691557,
			"0.006": 9.59900619942,
			"0.007": 5.54266127062,
			"0.008": 6.95765028231,
			"0.009": 10.6623997398,
			"0.01": 16.0174502307,
			"0.011": 7.54826823839,
			"0.012": 0.20659878176,
			"0.013": 0.0,
			"0.014": 0.0,
			"0.015": 0.0,
			"0.016": 0.0,
			"0.017": 0.0,
			"0.018": 0.0,
			"0.019": 0.0,
			"0.02": 0.0,
			"0.021": 0.0,
			"0.022": 0.0,
			"0.023": 0.0,
			"0.024": 0.0,
			"0.025": 0.0
		}
	}
}
