{
	 "smiles": "CCO[Si](Cl)(Cl)OCC", 
	 "Tm": 143.15, 
	 "num_atms": 19, 
	 "gaussian": { 
		 "optdone": 1, 
		 "sigma_profile": "yes", 
		 "theory": "DFT", 
		 "functional": "B3LYP", 
		 "basiset": "6-31G**", 
		 "properties": { 
			 "R2extent": 2823.7472, 
			 "electric_dipole_moment_norm": 3.40931299384, 
			 "electric_quadrupole_moment_norm": 8.89897430944, 
			 "total_energy": -1518.97093162, 
			 "HOMO_LUMO_gap": 0.31773, 
			 "cosmo_polarized_energy": -5.79, 
			 "cosmo_cavitation_energy": 27.67, 
			 "cosmo_dispersion_energy": -17.95, 
			 "cosmo_repulsion_energy": 1.65, 
			 "cosmo_total_nonelectrostatic_energy": 11.37, 
			 "SMD_solvation_energy": 4.17 
		},
		"coords": [
			{
				"x": 1.6294099197,
				"y": 0.6328592656,
				"z": -2.6314672625,
				"element": "C" 
			},
			{
				"x": 0.9174291945,
				"y": 0.7019617672,
				"z": -1.2925491848,
				"element": "C" 
			},
			{
				"x": -0.4195866218,
				"y": 0.1900596554,
				"z": -1.4568359429,
				"element": "O" 
			},
			{
				"x": -1.5518119858,
				"y": 0.0943791044,
				"z": -0.2821703092,
				"element": "Si" 
			},
			{
				"x": -1.8147650219,
				"y": 1.9214957429,
				"z": 0.6295308703,
				"element": "Cl" 
			},
			{
				"x": -3.2840534295,
				"y": -0.4678897517,
				"z": -1.2423450653,
				"element": "Cl" 
			},
			{
				"x": -1.1970778957,
				"y": -0.9442583153,
				"z": 0.9287755032,
				"element": "O" 
			},
			{
				"x": -1.0801927605,
				"y": -2.374627066,
				"z": 0.7979987516,
				"element": "C" 
			},
			{
				"x": -0.7646523075,
				"y": -2.9606716605,
				"z": 2.1623095628,
				"element": "C" 
			},
			{
				"x": 2.6494916634,
				"y": 1.0184336868,
				"z": -2.5341560303,
				"element": "H" 
			},
			{
				"x": 1.6806744314,
				"y": -0.3991412304,
				"z": -2.9899667699,
				"element": "H" 
			},
			{
				"x": 1.1009883076,
				"y": 1.2314329835,
				"z": -3.3785840736,
				"element": "H" 
			},
			{
				"x": 0.8646872101,
				"y": 1.7356290353,
				"z": -0.93101711,
				"element": "H" 
			},
			{
				"x": 1.4453172318,
				"y": 0.105433478,
				"z": -0.5379760685,
				"element": "H" 
			},
			{
				"x": -2.0219531997,
				"y": -2.7781790492,
				"z": 0.4078646851,
				"element": "H" 
			},
			{
				"x": -0.2863564225,
				"y": -2.6104200791,
				"z": 0.0782009151,
				"element": "H" 
			},
			{
				"x": -1.5602653824,
				"y": -2.72528934,
				"z": 2.8745591941,
				"element": "H" 
			},
			{
				"x": -0.6721357872,
				"y": -4.0492506013,
				"z": 2.0905857891,
				"element": "H" 
			},
			{
				"x": 0.1751528558,
				"y": -2.5567576254,
				"z": 2.5493425457,
				"element": "H" 
			}
		],
		 "valence_orbital": [ 
			{
				"type": "occ",
				"energy": -0.32842,
				"method": "rhf"
			},
			{
				"type": "occ",
				"energy": -0.32552,
				"method": "rhf"
			},
			{
				"type": "occ",
				"energy": -0.31775,
				"method": "rhf"
			},
			{
				"type": "occ",
				"energy": -0.31199,
				"method": "rhf"
			},
			{
				"type": "occ",
				"energy": -0.30008,
				"method": "rhf"
			},
			{
				"type": "unocc",
				"energy": 0.01765,
				"method": "rhf"
			},
			{
				"type": "unocc",
				"energy": 0.06255,
				"method": "rhf"
			},
			{
				"type": "unocc",
				"energy": 0.06761,
				"method": "rhf"
			},
			{
				"type": "unocc",
				"energy": 0.08093,
				"method": "rhf"
			},
			{
				"type": "unocc",
				"energy": 0.09732,
				"method": "rhf"
			}
		],
		"cosmo_sigma_profile": { 
			"-0.025": 0.0,
			"-0.024": 0.0,
			"-0.023": 0.0,
			"-0.022": 0.0,
			"-0.021": 0.0,
			"-0.02": 0.0,
			"-0.019": 0.0,
			"-0.018": 0.0,
			"-0.017": 0.0,
			"-0.016": 0.0,
			"-0.015": 0.0,
			"-0.014": 0.0,
			"-0.013": 0.0,
			"-0.012": 0.0,
			"-0.011": 0.0,
			"-0.01": 0.0,
			"-0.009": 0.0,
			"-0.008": 0.0,
			"-0.007": 0.0,
			"-0.006": 0.645327334066,
			"-0.005": 10.760114808,
			"-0.004": 27.229975397,
			"-0.003": 25.6267664768,
			"-0.002": 21.9491103787,
			"-0.001": 18.2848363677,
			"0.0": 24.5738841337,
			"0.001": 17.921107398,
			"0.002": 14.6118639257,
			"0.003": 19.6997503474,
			"0.004": 19.2031917116,
			"0.005": 5.32581821776,
			"0.006": 3.23291539979,
			"0.007": 2.51475250075,
			"0.008": 2.34384167518,
			"0.009": 2.11014485955,
			"0.01": 1.88790026386,
			"0.011": 0.115370429525,
			"0.012": 0.0,
			"0.013": 0.0,
			"0.014": 0.0,
			"0.015": 0.0,
			"0.016": 0.0,
			"0.017": 0.0,
			"0.018": 0.0,
			"0.019": 0.0,
			"0.02": 0.0,
			"0.021": 0.0,
			"0.022": 0.0,
			"0.023": 0.0,
			"0.024": 0.0,
			"0.025": 0.0
		}
	}
}
