{
	 "smiles": "NC1=NC(=CS1)C1=CC(Br)=CS1", 
	 "Tm": 423.15, 
	 "num_atms": 17, 
	 "gaussian": { 
		 "optdone": 1, 
		 "sigma_profile": "yes", 
		 "theory": "DFT", 
		 "functional": "B3LYP", 
		 "basiset": "6-31G**", 
		 "properties": { 
			 "R2extent": 6043.7782, 
			 "electric_dipole_moment_norm": 3.14467861315, 
			 "electric_quadrupole_moment_norm": 13.4833607828, 
			 "total_energy": -3747.02123999, 
			 "HOMO_LUMO_gap": 0.15946, 
			 "cosmo_polarized_energy": -11.16, 
			 "cosmo_cavitation_energy": 27.54, 
			 "cosmo_dispersion_energy": -22.02, 
			 "cosmo_repulsion_energy": 1.67, 
			 "cosmo_total_nonelectrostatic_energy": 7.2, 
			 "SMD_solvation_energy": 2.01 
		},
		"coords": [
			{
				"x": -2.4287150501,
				"y": -0.7242236459,
				"z": 2.0789670183,
				"element": "N" 
			},
			{
				"x": -1.6390950603,
				"y": -0.941940657,
				"z": 0.9752889496,
				"element": "C" 
			},
			{
				"x": -0.8815891552,
				"y": -0.0369162003,
				"z": 0.4325068008,
				"element": "N" 
			},
			{
				"x": -0.1439329127,
				"y": -0.5693217031,
				"z": -0.616594444,
				"element": "C" 
			},
			{
				"x": -0.3561033901,
				"y": -1.8966632967,
				"z": -0.8754029264,
				"element": "C" 
			},
			{
				"x": -1.5188198267,
				"y": -2.5532413746,
				"z": 0.2460068258,
				"element": "S" 
			},
			{
				"x": 0.7586814711,
				"y": 0.3254503193,
				"z": -1.3317994555,
				"element": "C" 
			},
			{
				"x": 0.9673304215,
				"y": 1.6578053404,
				"z": -1.0692129153,
				"element": "C" 
			},
			{
				"x": 1.9157521105,
				"y": 2.2401764578,
				"z": -1.957014604,
				"element": "C" 
			},
			{
				"x": 2.4222194833,
				"y": 4.0681669793,
				"z": -1.8551350973,
				"element": "Br" 
			},
			{
				"x": 2.426050685,
				"y": 1.3761560688,
				"z": -2.8822469461,
				"element": "C" 
			},
			{
				"x": 1.7405320649,
				"y": -0.2060399893,
				"z": -2.6813424044,
				"element": "S" 
			},
			{
				"x": -3.2690772994,
				"y": -1.2777393031,
				"z": 2.1619201579,
				"element": "H" 
			},
			{
				"x": -2.5563978802,
				"y": 0.2569106728,
				"z": 2.2896015322,
				"element": "H" 
			},
			{
				"x": 0.0830579862,
				"y": -2.5196242162,
				"z": -1.6406819485,
				"element": "H" 
			},
			{
				"x": 0.460819374,
				"y": 2.1875250391,
				"z": -0.2745429626,
				"element": "H" 
			},
			{
				"x": 3.1520869783,
				"y": 1.5699195086,
				"z": -3.6573175805,
				"element": "H" 
			}
		],
		 "valence_orbital": [ 
			{
				"type": "occ",
				"energy": -0.28486,
				"method": "rhf"
			},
			{
				"type": "occ",
				"energy": -0.28283,
				"method": "rhf"
			},
			{
				"type": "occ",
				"energy": -0.25079,
				"method": "rhf"
			},
			{
				"type": "occ",
				"energy": -0.24141,
				"method": "rhf"
			},
			{
				"type": "occ",
				"energy": -0.20364,
				"method": "rhf"
			},
			{
				"type": "unocc",
				"energy": -0.04418,
				"method": "rhf"
			},
			{
				"type": "unocc",
				"energy": -0.00392,
				"method": "rhf"
			},
			{
				"type": "unocc",
				"energy": 0.0042,
				"method": "rhf"
			},
			{
				"type": "unocc",
				"energy": 0.00983,
				"method": "rhf"
			},
			{
				"type": "unocc",
				"energy": 0.03196,
				"method": "rhf"
			}
		],
		"cosmo_sigma_profile": { 
			"-0.025": 0.0,
			"-0.024": 0.0,
			"-0.023": 0.0,
			"-0.022": 0.0,
			"-0.021": 0.0,
			"-0.02": 0.0,
			"-0.019": 0.0,
			"-0.018": 0.0,
			"-0.017": 0.0,
			"-0.016": 0.0,
			"-0.015": 0.718544163578,
			"-0.014": 2.15435515658,
			"-0.013": 2.75903223501,
			"-0.012": 2.43359737133,
			"-0.011": 2.57892498818,
			"-0.01": 3.31888042177,
			"-0.009": 4.99790230336,
			"-0.008": 6.0532523967,
			"-0.007": 4.91043843723,
			"-0.006": 7.01390462954,
			"-0.005": 5.92871897874,
			"-0.004": 8.18578871295,
			"-0.003": 8.87611770115,
			"-0.002": 9.10284390094,
			"-0.001": 12.3362384433,
			"0.0": 13.8486032663,
			"0.001": 19.0837409433,
			"0.002": 30.3026959868,
			"0.003": 36.0096184032,
			"0.004": 26.144557303,
			"0.005": 8.67676325459,
			"0.006": 3.34707226375,
			"0.007": 2.3427855558,
			"0.008": 2.14491041313,
			"0.009": 2.12234798469,
			"0.01": 1.55530622994,
			"0.011": 2.18341354545,
			"0.012": 0.315240045871,
			"0.013": 0.0,
			"0.014": 0.0,
			"0.015": 0.0,
			"0.016": 0.0,
			"0.017": 0.0,
			"0.018": 0.0,
			"0.019": 0.0,
			"0.02": 0.0,
			"0.021": 0.0,
			"0.022": 0.0,
			"0.023": 0.0,
			"0.024": 0.0,
			"0.025": 0.0
		}
	}
}
