{
	 "smiles": "OC(=O)C1(CC2=NC3=C(S2)C=CC=C3)CCCC1", 
	 "Tm": 429.15, 
	 "num_atms": 33, 
	 "gaussian": { 
		 "optdone": 1, 
		 "sigma_profile": "yes", 
		 "theory": "DFT", 
		 "functional": "B3LYP", 
		 "basiset": "6-31G**", 
		 "properties": { 
			 "R2extent": 5846.8375, 
			 "electric_dipole_moment_norm": 6.20564625885, 
			 "electric_quadrupole_moment_norm": 17.7907424381, 
			 "total_energy": -1145.95195191, 
			 "HOMO_LUMO_gap": 0.19098, 
			 "cosmo_polarized_energy": -13.69, 
			 "cosmo_cavitation_energy": 35.83, 
			 "cosmo_dispersion_energy": -26.29, 
			 "cosmo_repulsion_energy": 1.95, 
			 "cosmo_total_nonelectrostatic_energy": 11.49, 
			 "SMD_solvation_energy": 5.11 
		},
		"coords": [
			{
				"x": -2.4450931985,
				"y": -0.2004784073,
				"z": -0.1333136466,
				"element": "O" 
			},
			{
				"x": -1.8894573702,
				"y": -1.2609134777,
				"z": -0.7330056291,
				"element": "C" 
			},
			{
				"x": -2.5864052959,
				"y": -2.1336780333,
				"z": -1.2069279176,
				"element": "O" 
			},
			{
				"x": -0.337093197,
				"y": -1.3427533555,
				"z": -0.7514313811,
				"element": "C" 
			},
			{
				"x": 0.3129448739,
				"y": -0.0991698114,
				"z": -1.4285617616,
				"element": "C" 
			},
			{
				"x": 0.4492654893,
				"y": 1.1499848901,
				"z": -0.5986150302,
				"element": "C" 
			},
			{
				"x": -0.4387571871,
				"y": 1.5849959412,
				"z": 0.2418879732,
				"element": "N" 
			},
			{
				"x": -0.0650054688,
				"y": 2.7798459492,
				"z": 0.8417653979,
				"element": "C" 
			},
			{
				"x": 1.1899364622,
				"y": 3.2785735005,
				"z": 0.4224554039,
				"element": "C" 
			},
			{
				"x": 1.8832657715,
				"y": 2.1765534061,
				"z": -0.7525725872,
				"element": "S" 
			},
			{
				"x": 1.7048501221,
				"y": 4.4722604408,
				"z": 0.9338995103,
				"element": "C" 
			},
			{
				"x": 0.9434486174,
				"y": 5.1624440613,
				"z": 1.8734316737,
				"element": "C" 
			},
			{
				"x": -0.305712245,
				"y": 4.6747665988,
				"z": 2.2959315342,
				"element": "C" 
			},
			{
				"x": -0.8185259845,
				"y": 3.487295925,
				"z": 1.7883654978,
				"element": "C" 
			},
			{
				"x": 0.1846316627,
				"y": -1.6220465717,
				"z": 0.6854122235,
				"element": "C" 
			},
			{
				"x": -0.1465942966,
				"y": -3.1072095711,
				"z": 0.9313706128,
				"element": "C" 
			},
			{
				"x": -0.0920173353,
				"y": -3.7877393293,
				"z": -0.4665871574,
				"element": "C" 
			},
			{
				"x": 0.0775329214,
				"y": -2.6398012407,
				"z": -1.4916948691,
				"element": "C" 
			},
			{
				"x": -1.7745893797,
				"y": 0.474964325,
				"z": 0.1492690198,
				"element": "H" 
			},
			{
				"x": 1.3151908584,
				"y": -0.3875228044,
				"z": -1.761661204,
				"element": "H" 
			},
			{
				"x": -0.2420443752,
				"y": 0.156100873,
				"z": -2.3421621412,
				"element": "H" 
			},
			{
				"x": 2.668264606,
				"y": 4.8527643442,
				"z": 0.6108106493,
				"element": "H" 
			},
			{
				"x": 1.3225239201,
				"y": 6.0928059627,
				"z": 2.2850400589,
				"element": "H" 
			},
			{
				"x": -0.8774188491,
				"y": 5.2353757508,
				"z": 3.028873348,
				"element": "H" 
			},
			{
				"x": -1.7819722639,
				"y": 3.1014495627,
				"z": 2.1047852748,
				"element": "H" 
			},
			{
				"x": -0.2448060661,
				"y": -0.9568003511,
				"z": 1.438632079,
				"element": "H" 
			},
			{
				"x": 1.271290062,
				"y": -1.4636614343,
				"z": 0.6940990323,
				"element": "H" 
			},
			{
				"x": -1.1522829398,
				"y": -3.1973645736,
				"z": 1.3539853714,
				"element": "H" 
			},
			{
				"x": 0.5418619123,
				"y": -3.5600812341,
				"z": 1.6510739722,
				"element": "H" 
			},
			{
				"x": -1.0155937453,
				"y": -4.3359351666,
				"z": -0.6610840989,
				"element": "H" 
			},
			{
				"x": 0.7357643502,
				"y": -4.4999735771,
				"z": -0.5394401268,
				"element": "H" 
			},
			{
				"x": -0.5137795045,
				"y": -2.7961483621,
				"z": -2.3957717561,
				"element": "H" 
			},
			{
				"x": 1.1309770728,
				"y": -2.5506042305,
				"z": -1.7836593261,
				"element": "H" 
			}
		],
		 "valence_orbital": [ 
			{
				"type": "occ",
				"energy": -0.29878,
				"method": "rhf"
			},
			{
				"type": "occ",
				"energy": -0.28715,
				"method": "rhf"
			},
			{
				"type": "occ",
				"energy": -0.25601,
				"method": "rhf"
			},
			{
				"type": "occ",
				"energy": -0.2534,
				"method": "rhf"
			},
			{
				"type": "occ",
				"energy": -0.24542,
				"method": "rhf"
			},
			{
				"type": "unocc",
				"energy": -0.05444,
				"method": "rhf"
			},
			{
				"type": "unocc",
				"energy": -0.02268,
				"method": "rhf"
			},
			{
				"type": "unocc",
				"energy": -0.01091,
				"method": "rhf"
			},
			{
				"type": "unocc",
				"energy": 0.01048,
				"method": "rhf"
			},
			{
				"type": "unocc",
				"energy": 0.02647,
				"method": "rhf"
			}
		],
		"cosmo_sigma_profile": { 
			"-0.025": 0.0,
			"-0.024": 0.0,
			"-0.023": 0.0,
			"-0.022": 0.0,
			"-0.021": 0.0,
			"-0.02": 0.0,
			"-0.019": 0.0,
			"-0.018": 0.0,
			"-0.017": 0.0,
			"-0.016": 0.0,
			"-0.015": 0.0,
			"-0.014": 0.0,
			"-0.013": 0.0,
			"-0.012": 0.0,
			"-0.011": 0.0,
			"-0.01": 0.0,
			"-0.009": 0.0,
			"-0.008": 1.39305607027,
			"-0.007": 10.9853053819,
			"-0.006": 14.9775919146,
			"-0.005": 16.8080718729,
			"-0.004": 18.3303201938,
			"-0.003": 22.0239448185,
			"-0.002": 30.9537428941,
			"-0.001": 30.368423417,
			"0.0": 28.4728620856,
			"0.001": 29.9243658904,
			"0.002": 20.2919525065,
			"0.003": 15.5307172636,
			"0.004": 12.4983909945,
			"0.005": 4.09846522211,
			"0.006": 2.3220887325,
			"0.007": 2.67104898704,
			"0.008": 2.09842817123,
			"0.009": 2.55592023914,
			"0.01": 3.24690523637,
			"0.011": 4.06646394233,
			"0.012": 5.21221757576,
			"0.013": 4.85478482489,
			"0.014": 1.8245057786,
			"0.015": 0.157279372403,
			"0.016": 0.0,
			"0.017": 0.0,
			"0.018": 0.0,
			"0.019": 0.0,
			"0.02": 0.0,
			"0.021": 0.0,
			"0.022": 0.0,
			"0.023": 0.0,
			"0.024": 0.0,
			"0.025": 0.0
		}
	}
}
