{
	 "smiles": "O=C1NC(=O)C(=CN1C1CC1)C#N", 
	 "Tm": 529.15, 
	 "num_atms": 20, 
	 "gaussian": { 
		 "optdone": 1, 
		 "sigma_profile": "yes", 
		 "theory": "DFT", 
		 "functional": "B3LYP", 
		 "basiset": "6-31G**", 
		 "properties": { 
			 "R2extent": 3325.3845, 
			 "electric_dipole_moment_norm": 6.47468851915, 
			 "electric_quadrupole_moment_norm": 24.3504551824, 
			 "total_energy": -623.748515672, 
			 "HOMO_LUMO_gap": 0.18714, 
			 "cosmo_polarized_energy": -21.74, 
			 "cosmo_cavitation_energy": 25.97, 
			 "cosmo_dispersion_energy": -18.26, 
			 "cosmo_repulsion_energy": 1.46, 
			 "cosmo_total_nonelectrostatic_energy": 9.17, 
			 "SMD_solvation_energy": 7.17 
		},
		"coords": [
			{
				"x": 0.3218924248,
				"y": 0.9148368254,
				"z": 2.3521737825,
				"element": "O" 
			},
			{
				"x": 0.8127028855,
				"y": 1.2190652297,
				"z": 1.2842574306,
				"element": "C" 
			},
			{
				"x": 1.7664192666,
				"y": 2.2109333231,
				"z": 1.1340243642,
				"element": "N" 
			},
			{
				"x": 2.451664615,
				"y": 2.618316548,
				"z": -0.0253367765,
				"element": "C" 
			},
			{
				"x": 3.2820141454,
				"y": 3.5047300655,
				"z": 0.013765277,
				"element": "O" 
			},
			{
				"x": 2.0421819973,
				"y": 1.855185089,
				"z": -1.2145622842,
				"element": "C" 
			},
			{
				"x": 1.0851126344,
				"y": 0.888474502,
				"z": -1.1007974919,
				"element": "C" 
			},
			{
				"x": 0.4549723411,
				"y": 0.5845733763,
				"z": 0.0717452243,
				"element": "N" 
			},
			{
				"x": -0.5107503369,
				"y": -0.4982434358,
				"z": 0.1477627734,
				"element": "C" 
			},
			{
				"x": -1.9367632523,
				"y": -0.1853650781,
				"z": 0.4935783144,
				"element": "C" 
			},
			{
				"x": -1.5805605837,
				"y": -0.6039613996,
				"z": -0.9103093568,
				"element": "C" 
			},
			{
				"x": 2.6489450496,
				"y": 2.1315777952,
				"z": -2.472994718,
				"element": "C" 
			},
			{
				"x": 3.1298048898,
				"y": 2.3394924112,
				"z": -3.5116717124,
				"element": "N" 
			},
			{
				"x": 2.0291056769,
				"y": 2.6856158376,
				"z": 1.9902324137,
				"element": "H" 
			},
			{
				"x": 0.7689554964,
				"y": 0.3081195803,
				"z": -1.9592781724,
				"element": "H" 
			},
			{
				"x": -0.0884949999,
				"y": -1.4173457939,
				"z": 0.5448075999,
				"element": "H" 
			},
			{
				"x": -2.1905134949,
				"y": 0.8563101936,
				"z": 0.6568460669,
				"element": "H" 
			},
			{
				"x": -2.4531063495,
				"y": -0.882695897,
				"z": 1.1441199553,
				"element": "H" 
			},
			{
				"x": -1.8436038209,
				"y": -1.599701422,
				"z": -1.2519100721,
				"element": "H" 
			},
			{
				"x": -1.6199785846,
				"y": 0.1581822496,
				"z": -1.6826526178,
				"element": "H" 
			}
		],
		 "valence_orbital": [ 
			{
				"type": "occ",
				"energy": -0.33297,
				"method": "rhf"
			},
			{
				"type": "occ",
				"energy": -0.31276,
				"method": "rhf"
			},
			{
				"type": "occ",
				"energy": -0.30299,
				"method": "rhf"
			},
			{
				"type": "occ",
				"energy": -0.28274,
				"method": "rhf"
			},
			{
				"type": "occ",
				"energy": -0.26005,
				"method": "rhf"
			},
			{
				"type": "unocc",
				"energy": -0.07291,
				"method": "rhf"
			},
			{
				"type": "unocc",
				"energy": -0.0212,
				"method": "rhf"
			},
			{
				"type": "unocc",
				"energy": 0.02287,
				"method": "rhf"
			},
			{
				"type": "unocc",
				"energy": 0.04473,
				"method": "rhf"
			},
			{
				"type": "unocc",
				"energy": 0.06677,
				"method": "rhf"
			}
		],
		"cosmo_sigma_profile": { 
			"-0.025": 0.0,
			"-0.024": 0.0,
			"-0.023": 0.0,
			"-0.022": 0.0,
			"-0.021": 0.0,
			"-0.02": 0.0,
			"-0.019": 0.0,
			"-0.018": 0.0,
			"-0.017": 0.259447991079,
			"-0.016": 1.12053678462,
			"-0.015": 1.15110700066,
			"-0.014": 0.406405864005,
			"-0.013": 0.597319820015,
			"-0.012": 1.88787194189,
			"-0.011": 2.52404740745,
			"-0.01": 2.78745962237,
			"-0.009": 3.49547621702,
			"-0.008": 5.63971030759,
			"-0.007": 12.1669933114,
			"-0.006": 18.6569935816,
			"-0.005": 15.64869462,
			"-0.004": 13.9201417928,
			"-0.003": 14.2397331712,
			"-0.002": 14.4804853182,
			"-0.001": 9.51951219986,
			"0.0": 6.35815008155,
			"0.001": 5.61476032829,
			"0.002": 6.54850604082,
			"0.003": 4.80123331066,
			"0.004": 5.43230235516,
			"0.005": 4.758300022,
			"0.006": 5.84166921319,
			"0.007": 6.95708324012,
			"0.008": 5.90827990812,
			"0.009": 7.05271432018,
			"0.01": 7.158952353,
			"0.011": 12.1724299529,
			"0.012": 10.1121120382,
			"0.013": 1.46884746376,
			"0.014": 0.00655280924915,
			"0.015": 0.0,
			"0.016": 0.0,
			"0.017": 0.0,
			"0.018": 0.0,
			"0.019": 0.0,
			"0.02": 0.0,
			"0.021": 0.0,
			"0.022": 0.0,
			"0.023": 0.0,
			"0.024": 0.0,
			"0.025": 0.0
		}
	}
}
