{
	 "smiles": "OC1=CC=C(N=O)C2=C(O)C(=CC=C12)N=O", 
	 "Tm": 523.15, 
	 "num_atms": 22, 
	 "gaussian": { 
		 "optdone": 1, 
		 "sigma_profile": "yes", 
		 "theory": "DFT", 
		 "functional": "B3LYP", 
		 "basiset": "6-31G**", 
		 "properties": { 
			 "R2extent": 3855.2701, 
			 "electric_dipole_moment_norm": 7.02540563669, 
			 "electric_quadrupole_moment_norm": 16.2104181948, 
			 "total_energy": -794.91020114, 
			 "HOMO_LUMO_gap": 0.08429, 
			 "cosmo_polarized_energy": -19.64, 
			 "cosmo_cavitation_energy": 27.12, 
			 "cosmo_dispersion_energy": -20.66, 
			 "cosmo_repulsion_energy": 1.54, 
			 "cosmo_total_nonelectrostatic_energy": 8.0, 
			 "SMD_solvation_energy": 5.46 
		},
		"coords": [
			{
				"x": 1.8192144453,
				"y": -1.7233620751,
				"z": 2.7348509643,
				"element": "O" 
			},
			{
				"x": 1.0083969002,
				"y": -1.542476108,
				"z": 1.6783035513,
				"element": "C" 
			},
			{
				"x": 1.0725059181,
				"y": -2.5115000518,
				"z": 0.6882314754,
				"element": "C" 
			},
			{
				"x": 0.2573537662,
				"y": -2.3827443662,
				"z": -0.4235614652,
				"element": "C" 
			},
			{
				"x": -0.6376896655,
				"y": -1.3137953473,
				"z": -0.5997606942,
				"element": "C" 
			},
			{
				"x": -1.2879265404,
				"y": -1.5178447778,
				"z": -1.8225876172,
				"element": "N" 
			},
			{
				"x": -2.1460598094,
				"y": -0.7225253656,
				"z": -2.2434359882,
				"element": "O" 
			},
			{
				"x": -0.7273545632,
				"y": -0.2736363427,
				"z": 0.4243439699,
				"element": "C" 
			},
			{
				"x": -1.5985803354,
				"y": 0.8836231638,
				"z": 0.3790702256,
				"element": "C" 
			},
			{
				"x": -2.4303033095,
				"y": 1.1377016816,
				"z": -0.6089647356,
				"element": "O" 
			},
			{
				"x": -1.5718533461,
				"y": 1.8089453032,
				"z": 1.4467612736,
				"element": "C" 
			},
			{
				"x": -0.7223431537,
				"y": 1.6398547961,
				"z": 2.5518035006,
				"element": "C" 
			},
			{
				"x": 0.1086988814,
				"y": 0.5557799616,
				"z": 2.6187611063,
				"element": "C" 
			},
			{
				"x": 0.123084564,
				"y": -0.4102209448,
				"z": 1.5747297018,
				"element": "C" 
			},
			{
				"x": -2.4571803749,
				"y": 2.9350205027,
				"z": 1.3459025498,
				"element": "N" 
			},
			{
				"x": -2.3936883071,
				"y": 3.7062418106,
				"z": 2.2973424755,
				"element": "O" 
			},
			{
				"x": 1.7083685372,
				"y": -1.0186603781,
				"z": 3.3862703457,
				"element": "H" 
			},
			{
				"x": 1.7546260631,
				"y": -3.3449165921,
				"z": 0.8080605266,
				"element": "H" 
			},
			{
				"x": 0.2796107157,
				"y": -3.121476116,
				"z": -1.2165344053,
				"element": "H" 
			},
			{
				"x": -2.380811421,
				"y": 0.4241491675,
				"z": -1.3251176176,
				"element": "H" 
			},
			{
				"x": -0.7602909582,
				"y": 2.3965280402,
				"z": 3.3279157868,
				"element": "H" 
			},
			{
				"x": 0.7560219933,
				"y": 0.4597140382,
				"z": 3.4865150701,
				"element": "H" 
			}
		],
		 "valence_orbital": [ 
			{
				"type": "occ",
				"energy": -0.28892,
				"method": "rhf"
			},
			{
				"type": "occ",
				"energy": -0.28201,
				"method": "rhf"
			},
			{
				"type": "occ",
				"energy": -0.24618,
				"method": "rhf"
			},
			{
				"type": "occ",
				"energy": -0.23362,
				"method": "rhf"
			},
			{
				"type": "occ",
				"energy": -0.21302,
				"method": "rhf"
			},
			{
				"type": "unocc",
				"energy": -0.12873,
				"method": "rhf"
			},
			{
				"type": "unocc",
				"energy": -0.09008,
				"method": "rhf"
			},
			{
				"type": "unocc",
				"energy": -0.04817,
				"method": "rhf"
			},
			{
				"type": "unocc",
				"energy": -0.02034,
				"method": "rhf"
			},
			{
				"type": "unocc",
				"energy": 0.02288,
				"method": "rhf"
			}
		],
		"cosmo_sigma_profile": { 
			"-0.025": 0.0,
			"-0.024": 0.0,
			"-0.023": 0.0,
			"-0.022": 0.0,
			"-0.021": 0.218454135019,
			"-0.02": 0.80330351294,
			"-0.019": 0.842981010887,
			"-0.018": 1.57363860056,
			"-0.017": 0.380686264821,
			"-0.016": 0.8488333663,
			"-0.015": 0.512790110005,
			"-0.014": 1.1731794138,
			"-0.013": 1.70389740841,
			"-0.012": 0.813713844072,
			"-0.011": 0.505984964105,
			"-0.01": 1.00333657916,
			"-0.009": 3.39372744351,
			"-0.008": 6.29077514381,
			"-0.007": 8.278180961,
			"-0.006": 7.14603386251,
			"-0.005": 7.29975352255,
			"-0.004": 7.98550981734,
			"-0.003": 14.5704872233,
			"-0.002": 20.9000838895,
			"-0.001": 27.1396873226,
			"0.0": 19.2540812189,
			"0.001": 11.4906440417,
			"0.002": 9.49179044479,
			"0.003": 6.55309074399,
			"0.004": 5.88700883445,
			"0.005": 6.72268325322,
			"0.006": 6.99593005049,
			"0.007": 7.65399269429,
			"0.008": 10.3930012793,
			"0.009": 6.91829077866,
			"0.01": 6.55620736786,
			"0.011": 4.0840599757,
			"0.012": 2.04962557223,
			"0.013": 0.839331894798,
			"0.014": 1.3934002552,
			"0.015": 0.201698407313,
			"0.016": 0.0,
			"0.017": 0.0,
			"0.018": 0.0,
			"0.019": 0.0,
			"0.02": 0.0,
			"0.021": 0.0,
			"0.022": 0.0,
			"0.023": 0.0,
			"0.024": 0.0,
			"0.025": 0.0
		}
	}
}
