{
	 "smiles": "BrC1=CC(Br)=NC=C1", 
	 "Tm": 312.15, 
	 "num_atms": 11, 
	 "gaussian": { 
		 "optdone": 1, 
		 "sigma_profile": "yes", 
		 "theory": "DFT", 
		 "functional": "B3LYP", 
		 "basiset": "6-31G**", 
		 "properties": { 
			 "R2extent": 4248.9345, 
			 "electric_dipole_moment_norm": 2.10203540408, 
			 "electric_quadrupole_moment_norm": 9.66642318492, 
			 "total_energy": -5389.88995141, 
			 "HOMO_LUMO_gap": 0.21511, 
			 "cosmo_polarized_energy": -5.67, 
			 "cosmo_cavitation_energy": 20.3, 
			 "cosmo_dispersion_energy": -16.09, 
			 "cosmo_repulsion_energy": 1.34, 
			 "cosmo_total_nonelectrostatic_energy": 5.54, 
			 "SMD_solvation_energy": -0.12 
		},
		"coords": [
			{
				"x": -1.475644655,
				"y": 1.5414094611,
				"z": 1.8653580457,
				"element": "Br" 
			},
			{
				"x": -0.7271485971,
				"y": -0.1590073617,
				"z": 1.4565593115,
				"element": "C" 
			},
			{
				"x": -1.5380411358,
				"y": -1.1599011636,
				"z": 0.9318139827,
				"element": "C" 
			},
			{
				"x": -0.917056932,
				"y": -2.382089827,
				"z": 0.6570335122,
				"element": "C" 
			},
			{
				"x": -1.9979655777,
				"y": -3.7922457089,
				"z": -0.0682203104,
				"element": "Br" 
			},
			{
				"x": 0.3594014604,
				"y": -2.6495266934,
				"z": 0.8560046778,
				"element": "N" 
			},
			{
				"x": 1.1155170438,
				"y": -1.6646868713,
				"z": 1.36280936,
				"element": "C" 
			},
			{
				"x": 0.6282106123,
				"y": -0.3993050198,
				"z": 1.6826299797,
				"element": "C" 
			},
			{
				"x": -2.5921216929,
				"y": -1.0061163479,
				"z": 0.7447226996,
				"element": "H" 
			},
			{
				"x": 2.1651348471,
				"y": -1.9014680522,
				"z": 1.5206632195,
				"element": "H" 
			},
			{
				"x": 1.2778146271,
				"y": 0.3653375847,
				"z": 2.0903255217,
				"element": "H" 
			}
		],
		 "valence_orbital": [ 
			{
				"type": "occ",
				"energy": -0.30823,
				"method": "rhf"
			},
			{
				"type": "occ",
				"energy": -0.29457,
				"method": "rhf"
			},
			{
				"type": "occ",
				"energy": -0.28327,
				"method": "rhf"
			},
			{
				"type": "occ",
				"energy": -0.28116,
				"method": "rhf"
			},
			{
				"type": "occ",
				"energy": -0.2656,
				"method": "rhf"
			},
			{
				"type": "unocc",
				"energy": -0.05049,
				"method": "rhf"
			},
			{
				"type": "unocc",
				"energy": -0.03919,
				"method": "rhf"
			},
			{
				"type": "unocc",
				"energy": -0.02428,
				"method": "rhf"
			},
			{
				"type": "unocc",
				"energy": 0.01792,
				"method": "rhf"
			},
			{
				"type": "unocc",
				"energy": 0.11322,
				"method": "rhf"
			}
		],
		"cosmo_sigma_profile": { 
			"-0.025": 0.0,
			"-0.024": 0.0,
			"-0.023": 0.0,
			"-0.022": 0.0,
			"-0.021": 0.0,
			"-0.02": 0.0,
			"-0.019": 0.0,
			"-0.018": 0.0,
			"-0.017": 0.0,
			"-0.016": 0.0,
			"-0.015": 0.0,
			"-0.014": 0.0,
			"-0.013": 0.0,
			"-0.012": 0.0,
			"-0.011": 0.0,
			"-0.01": 0.019362829453,
			"-0.009": 1.99560672224,
			"-0.008": 5.91616571062,
			"-0.007": 5.534768695,
			"-0.006": 5.53010423284,
			"-0.005": 6.87866830322,
			"-0.004": 8.24697827666,
			"-0.003": 7.27693645007,
			"-0.002": 12.5723426921,
			"-0.001": 22.2577336509,
			"0.0": 20.1991508137,
			"0.001": 13.3511625324,
			"0.002": 12.0746277473,
			"0.003": 19.6527276707,
			"0.004": 14.203770916,
			"0.005": 4.45924959412,
			"0.006": 2.71929124842,
			"0.007": 1.15954886346,
			"0.008": 1.26049078839,
			"0.009": 1.07331352016,
			"0.01": 1.47215033834,
			"0.011": 0.615918668125,
			"0.012": 1.16652177502,
			"0.013": 0.730932005368,
			"0.014": 0.445128444312,
			"0.015": 0.0,
			"0.016": 0.0,
			"0.017": 0.0,
			"0.018": 0.0,
			"0.019": 0.0,
			"0.02": 0.0,
			"0.021": 0.0,
			"0.022": 0.0,
			"0.023": 0.0,
			"0.024": 0.0,
			"0.025": 0.0
		}
	}
}
