{
	 "smiles": "OCC1=C(Cl)N=C2C=CC=CC2=C1", 
	 "Tm": 437.15, 
	 "num_atms": 21, 
	 "gaussian": { 
		 "optdone": 1, 
		 "sigma_profile": "yes", 
		 "theory": "DFT", 
		 "functional": "B3LYP", 
		 "basiset": "6-31G**", 
		 "properties": { 
			 "R2extent": 3547.4138, 
			 "electric_dipole_moment_norm": 3.08340732632, 
			 "electric_quadrupole_moment_norm": 8.86689353381, 
			 "total_energy": -976.053819104, 
			 "HOMO_LUMO_gap": 0.17948, 
			 "cosmo_polarized_energy": -10.84, 
			 "cosmo_cavitation_energy": 26.7, 
			 "cosmo_dispersion_energy": -20.1, 
			 "cosmo_repulsion_energy": 1.58, 
			 "cosmo_total_nonelectrostatic_energy": 8.18, 
			 "SMD_solvation_energy": 2.64 
		},
		"coords": [
			{
				"x": -3.8798046977,
				"y": -1.1889925801,
				"z": -0.3151583415,
				"element": "O" 
			},
			{
				"x": -2.9363020401,
				"y": -2.2435749693,
				"z": -0.229927428,
				"element": "C" 
			},
			{
				"x": -1.5063423758,
				"y": -1.7561198274,
				"z": -0.0842917053,
				"element": "C" 
			},
			{
				"x": -0.3824559707,
				"y": -2.6327810058,
				"z": -0.1627756558,
				"element": "C" 
			},
			{
				"x": -0.6988093831,
				"y": -4.3588711686,
				"z": -0.4293801211,
				"element": "Cl" 
			},
			{
				"x": 0.8640116557,
				"y": -2.2906657747,
				"z": -0.0511603885,
				"element": "N" 
			},
			{
				"x": 1.1542304575,
				"y": -0.9729072327,
				"z": 0.1689100234,
				"element": "C" 
			},
			{
				"x": 2.5109313983,
				"y": -0.5806456986,
				"z": 0.2902890579,
				"element": "C" 
			},
			{
				"x": 2.8288534244,
				"y": 0.7407595586,
				"z": 0.5185104811,
				"element": "C" 
			},
			{
				"x": 1.8103402448,
				"y": 1.7185312265,
				"z": 0.63468203,
				"element": "C" 
			},
			{
				"x": 0.4841813727,
				"y": 1.362253703,
				"z": 0.5192204903,
				"element": "C" 
			},
			{
				"x": 0.1244373045,
				"y": 0.0107160539,
				"z": 0.2823237393,
				"element": "C" 
			},
			{
				"x": -1.2169031508,
				"y": -0.4310559185,
				"z": 0.1493591998,
				"element": "C" 
			},
			{
				"x": -3.7845072962,
				"y": -0.777022877,
				"z": -1.1840588823,
				"element": "H" 
			},
			{
				"x": -3.0091262895,
				"y": -2.9247489367,
				"z": -1.0888874433,
				"element": "H" 
			},
			{
				"x": -3.2156027043,
				"y": -2.8306263423,
				"z": 0.6524842808,
				"element": "H" 
			},
			{
				"x": 3.2724144209,
				"y": -1.3480227527,
				"z": 0.199540404,
				"element": "H" 
			},
			{
				"x": 3.8688205869,
				"y": 1.0394402461,
				"z": 0.6120024872,
				"element": "H" 
			},
			{
				"x": 2.0806948371,
				"y": 2.754513438,
				"z": 0.8161306401,
				"element": "H" 
			},
			{
				"x": -0.3004353353,
				"y": 2.108995234,
				"z": 0.6084047318,
				"element": "H" 
			},
			{
				"x": -2.0368264592,
				"y": 0.2758256245,
				"z": 0.2372824001,
				"element": "H" 
			}
		],
		 "valence_orbital": [ 
			{
				"type": "occ",
				"energy": -0.3112,
				"method": "rhf"
			},
			{
				"type": "occ",
				"energy": -0.29239,
				"method": "rhf"
			},
			{
				"type": "occ",
				"energy": -0.27154,
				"method": "rhf"
			},
			{
				"type": "occ",
				"energy": -0.25064,
				"method": "rhf"
			},
			{
				"type": "occ",
				"energy": -0.23941,
				"method": "rhf"
			},
			{
				"type": "unocc",
				"energy": -0.05993,
				"method": "rhf"
			},
			{
				"type": "unocc",
				"energy": -0.02595,
				"method": "rhf"
			},
			{
				"type": "unocc",
				"energy": 0.01199,
				"method": "rhf"
			},
			{
				"type": "unocc",
				"energy": 0.0323,
				"method": "rhf"
			},
			{
				"type": "unocc",
				"energy": 0.06511,
				"method": "rhf"
			}
		],
		"cosmo_sigma_profile": { 
			"-0.025": 0.0,
			"-0.024": 0.0,
			"-0.023": 0.0,
			"-0.022": 0.0,
			"-0.021": 0.0,
			"-0.02": 0.0,
			"-0.019": 0.0,
			"-0.018": 0.0,
			"-0.017": 0.0978845852073,
			"-0.016": 1.02208045861,
			"-0.015": 0.754716703662,
			"-0.014": 1.22609647316,
			"-0.013": 1.24884054414,
			"-0.012": 0.325619965555,
			"-0.011": 0.958562343815,
			"-0.01": 1.01051553117,
			"-0.009": 0.96088180027,
			"-0.008": 1.34156352662,
			"-0.007": 5.62630425364,
			"-0.006": 13.5204289341,
			"-0.005": 15.0511093676,
			"-0.004": 12.7727183111,
			"-0.003": 11.6014701561,
			"-0.002": 13.4318284572,
			"-0.001": 14.5230845212,
			"0.0": 16.7644382271,
			"0.001": 19.240886226,
			"0.002": 18.8680199003,
			"0.003": 19.2844247455,
			"0.004": 16.7835962274,
			"0.005": 7.35207812637,
			"0.006": 3.5323142182,
			"0.007": 3.44266772313,
			"0.008": 2.38106149993,
			"0.009": 2.4057264694,
			"0.01": 2.34072591657,
			"0.011": 1.38628175599,
			"0.012": 2.79120117289,
			"0.013": 2.86658527374,
			"0.014": 0.984721141895,
			"0.015": 0.0524553212761,
			"0.016": 0.0,
			"0.017": 0.0,
			"0.018": 0.0,
			"0.019": 0.0,
			"0.02": 0.0,
			"0.021": 0.0,
			"0.022": 0.0,
			"0.023": 0.0,
			"0.024": 0.0,
			"0.025": 0.0
		}
	}
}
