{
	 "smiles": "N#CC1=CN=CS1", 
	 "Tm": 325.15, 
	 "num_atms": 9, 
	 "gaussian": { 
		 "optdone": 1, 
		 "sigma_profile": "yes", 
		 "theory": "DFT", 
		 "functional": "B3LYP", 
		 "basiset": "6-31G**", 
		 "properties": { 
			 "R2extent": 1117.0266, 
			 "electric_dipole_moment_norm": 3.29444785359, 
			 "electric_quadrupole_moment_norm": 8.55185626107, 
			 "total_energy": -661.280331201, 
			 "HOMO_LUMO_gap": 0.19751, 
			 "cosmo_polarized_energy": -9.05, 
			 "cosmo_cavitation_energy": 16.44, 
			 "cosmo_dispersion_energy": -12.34, 
			 "cosmo_repulsion_energy": 0.99, 
			 "cosmo_total_nonelectrostatic_energy": 5.09, 
			 "SMD_solvation_energy": 3.05 
		},
		"coords": [
			{
				"x": -1.9105446411,
				"y": 3.2190744122,
				"z": 0.7001934207,
				"element": "N" 
			},
			{
				"x": -1.2984110766,
				"y": 2.4174030621,
				"z": 0.1183458536,
				"element": "C" 
			},
			{
				"x": -0.5528276345,
				"y": 1.4475597337,
				"z": -0.5934780964,
				"element": "C" 
			},
			{
				"x": 0.3931194272,
				"y": 1.6615387116,
				"z": -1.5728770912,
				"element": "C" 
			},
			{
				"x": 0.9684257731,
				"y": 0.5409329379,
				"z": -2.1021686975,
				"element": "N" 
			},
			{
				"x": 0.4803186033,
				"y": -0.5325039077,
				"z": -1.5459489471,
				"element": "C" 
			},
			{
				"x": -0.7301887092,
				"y": -0.2692135615,
				"z": -0.321301458,
				"element": "S" 
			},
			{
				"x": 0.6885953981,
				"y": 2.6417222871,
				"z": -1.9270585466,
				"element": "H" 
			},
			{
				"x": 0.7843128597,
				"y": -1.5404136755,
				"z": -1.8036064376,
				"element": "H" 
			}
		],
		 "valence_orbital": [ 
			{
				"type": "occ",
				"energy": -0.37513,
				"method": "rhf"
			},
			{
				"type": "occ",
				"energy": -0.34848,
				"method": "rhf"
			},
			{
				"type": "occ",
				"energy": -0.31221,
				"method": "rhf"
			},
			{
				"type": "occ",
				"energy": -0.30341,
				"method": "rhf"
			},
			{
				"type": "occ",
				"energy": -0.27559,
				"method": "rhf"
			},
			{
				"type": "unocc",
				"energy": -0.07808,
				"method": "rhf"
			},
			{
				"type": "unocc",
				"energy": -0.02339,
				"method": "rhf"
			},
			{
				"type": "unocc",
				"energy": 0.00063,
				"method": "rhf"
			},
			{
				"type": "unocc",
				"energy": 0.00746,
				"method": "rhf"
			},
			{
				"type": "unocc",
				"energy": 0.09895,
				"method": "rhf"
			}
		],
		"cosmo_sigma_profile": { 
			"-0.025": 0.0,
			"-0.024": 0.0,
			"-0.023": 0.0,
			"-0.022": 0.0,
			"-0.021": 0.0,
			"-0.02": 0.0,
			"-0.019": 0.0,
			"-0.018": 0.0,
			"-0.017": 0.0,
			"-0.016": 0.0,
			"-0.015": 0.0,
			"-0.014": 0.0,
			"-0.013": 0.0,
			"-0.012": 0.701391317322,
			"-0.011": 2.77166590357,
			"-0.01": 3.41453068113,
			"-0.009": 3.72258470369,
			"-0.008": 4.24374024727,
			"-0.007": 3.28287584446,
			"-0.006": 4.94370022991,
			"-0.005": 5.76694309298,
			"-0.004": 6.49311382105,
			"-0.003": 9.49042111063,
			"-0.002": 15.4443671156,
			"-0.001": 16.6298021812,
			"0.0": 10.6083250342,
			"0.001": 5.50490484493,
			"0.002": 3.98729111047,
			"0.003": 3.6921531683,
			"0.004": 3.89286035648,
			"0.005": 2.36303140052,
			"0.006": 4.45333373731,
			"0.007": 4.67002427297,
			"0.008": 4.9041509246,
			"0.009": 4.18612496606,
			"0.01": 3.65433445762,
			"0.011": 3.53707047976,
			"0.012": 2.63017486419,
			"0.013": 1.70998743253,
			"0.014": 0.265530766255,
			"0.015": 0.0,
			"0.016": 0.0,
			"0.017": 0.0,
			"0.018": 0.0,
			"0.019": 0.0,
			"0.02": 0.0,
			"0.021": 0.0,
			"0.022": 0.0,
			"0.023": 0.0,
			"0.024": 0.0,
			"0.025": 0.0
		}
	}
}
