{
	 "smiles": "CC1=NC(=NO1)C1=CC=C(C=C1)C(O)=O", 
	 "Tm": 536.15, 
	 "num_atms": 23, 
	 "gaussian": { 
		 "optdone": 1, 
		 "sigma_profile": "yes", 
		 "theory": "DFT", 
		 "functional": "B3LYP", 
		 "basiset": "6-31G**", 
		 "properties": { 
			 "R2extent": 5384.9873, 
			 "electric_dipole_moment_norm": 5.0667168117, 
			 "electric_quadrupole_moment_norm": 25.0314404931, 
			 "total_energy": -721.040767824, 
			 "HOMO_LUMO_gap": 0.18461, 
			 "cosmo_polarized_energy": -17.16, 
			 "cosmo_cavitation_energy": 28.83, 
			 "cosmo_dispersion_energy": -21.42, 
			 "cosmo_repulsion_energy": 1.66, 
			 "cosmo_total_nonelectrostatic_energy": 9.07, 
			 "SMD_solvation_energy": 4.8 
		},
		"coords": [
			{
				"x": 3.7150109209,
				"y": 1.328547539,
				"z": 2.267865545,
				"element": "C" 
			},
			{
				"x": 2.2642913106,
				"y": 1.2936968959,
				"z": 1.9424749509,
				"element": "C" 
			},
			{
				"x": 1.692249874,
				"y": 1.2664744048,
				"z": 0.7753168917,
				"element": "N" 
			},
			{
				"x": 0.349100138,
				"y": 1.241425259,
				"z": 1.100013034,
				"element": "C" 
			},
			{
				"x": 0.1046731184,
				"y": 1.2535236384,
				"z": 2.3917157418,
				"element": "N" 
			},
			{
				"x": 1.3840234063,
				"y": 1.2882792729,
				"z": 2.9619787462,
				"element": "O" 
			},
			{
				"x": -0.717369724,
				"y": 1.2052092777,
				"z": 0.0899934812,
				"element": "C" 
			},
			{
				"x": -0.3853963359,
				"y": 1.1977740742,
				"z": -1.2731494809,
				"element": "C" 
			},
			{
				"x": -1.3878251716,
				"y": 1.161637535,
				"z": -2.2356083056,
				"element": "C" 
			},
			{
				"x": -2.7366637839,
				"y": 1.1510614027,
				"z": -1.8567898897,
				"element": "C" 
			},
			{
				"x": -3.0649410579,
				"y": 1.1443418015,
				"z": -0.4918712532,
				"element": "C" 
			},
			{
				"x": -2.0663640581,
				"y": 1.1698833334,
				"z": 0.4751041995,
				"element": "C" 
			},
			{
				"x": -3.766244129,
				"y": 1.1105078847,
				"z": -2.9469840424,
				"element": "C" 
			},
			{
				"x": -5.0231881161,
				"y": 1.5129138352,
				"z": -2.6181846977,
				"element": "O" 
			},
			{
				"x": -3.5240840685,
				"y": 0.7448229951,
				"z": -4.0729316886,
				"element": "O" 
			},
			{
				"x": 3.9953555453,
				"y": 0.4582463376,
				"z": 2.8689781428,
				"element": "H" 
			},
			{
				"x": 4.2896145051,
				"y": 1.3286488191,
				"z": 1.3418104204,
				"element": "H" 
			},
			{
				"x": 3.9581954655,
				"y": 2.2250231238,
				"z": 2.8462761109,
				"element": "H" 
			},
			{
				"x": 0.6598996369,
				"y": 1.2175444503,
				"z": -1.5606162337,
				"element": "H" 
			},
			{
				"x": -1.1482469433,
				"y": 1.1427717875,
				"z": -3.2931326335,
				"element": "H" 
			},
			{
				"x": -4.1009265003,
				"y": 1.0781566124,
				"z": -0.168376712,
				"element": "H" 
			},
			{
				"x": -2.320545441,
				"y": 1.1554075595,
				"z": 1.5294155247,
				"element": "H" 
			},
			{
				"x": -5.0250185913,
				"y": 1.92610216,
				"z": -1.7437978516,
				"element": "H" 
			}
		],
		 "valence_orbital": [ 
			{
				"type": "occ",
				"energy": -0.30666,
				"method": "rhf"
			},
			{
				"type": "occ",
				"energy": -0.30638,
				"method": "rhf"
			},
			{
				"type": "occ",
				"energy": -0.27795,
				"method": "rhf"
			},
			{
				"type": "occ",
				"energy": -0.27521,
				"method": "rhf"
			},
			{
				"type": "occ",
				"energy": -0.2584,
				"method": "rhf"
			},
			{
				"type": "unocc",
				"energy": -0.07379,
				"method": "rhf"
			},
			{
				"type": "unocc",
				"energy": -0.03146,
				"method": "rhf"
			},
			{
				"type": "unocc",
				"energy": -0.01781,
				"method": "rhf"
			},
			{
				"type": "unocc",
				"energy": 0.02001,
				"method": "rhf"
			},
			{
				"type": "unocc",
				"energy": 0.05853,
				"method": "rhf"
			}
		],
		"cosmo_sigma_profile": { 
			"-0.025": 0.0,
			"-0.024": 0.0,
			"-0.023": 0.0,
			"-0.022": 0.0,
			"-0.021": 0.0,
			"-0.02": 0.0,
			"-0.019": 0.290921967314,
			"-0.018": 1.05657793676,
			"-0.017": 0.829992221462,
			"-0.016": 1.15642639221,
			"-0.015": 1.10828376043,
			"-0.014": 0.731108296181,
			"-0.013": 1.12752257421,
			"-0.012": 1.36562222907,
			"-0.011": 1.08743481457,
			"-0.01": 1.43369161884,
			"-0.009": 1.33095687318,
			"-0.008": 3.07555006097,
			"-0.007": 10.7819703229,
			"-0.006": 13.1772960486,
			"-0.005": 14.1014520562,
			"-0.004": 15.1031758398,
			"-0.003": 17.774149721,
			"-0.002": 14.1936577708,
			"-0.001": 13.2251174538,
			"0.0": 16.1511379554,
			"0.001": 17.9453095695,
			"0.002": 19.0600833817,
			"0.003": 6.89347656837,
			"0.004": 6.03619383847,
			"0.005": 5.8704998069,
			"0.006": 8.37982632999,
			"0.007": 6.09790165714,
			"0.008": 5.75350981254,
			"0.009": 5.57451476526,
			"0.01": 7.13454887988,
			"0.011": 7.7074492755,
			"0.012": 5.26428766608,
			"0.013": 1.14877262745,
			"0.014": 0.0111410494967,
			"0.015": 0.0,
			"0.016": 0.0,
			"0.017": 0.0,
			"0.018": 0.0,
			"0.019": 0.0,
			"0.02": 0.0,
			"0.021": 0.0,
			"0.022": 0.0,
			"0.023": 0.0,
			"0.024": 0.0,
			"0.025": 0.0
		}
	}
}
