{
	 "smiles": "CC1=CC(Br)=CC(C)=C1C(O)=O", 
	 "Tm": 458.15, 
	 "num_atms": 21, 
	 "gaussian": { 
		 "optdone": 1, 
		 "sigma_profile": "yes", 
		 "theory": "DFT", 
		 "functional": "B3LYP", 
		 "basiset": "6-31G**", 
		 "properties": { 
			 "R2extent": 4994.8803, 
			 "electric_dipole_moment_norm": 2.78440991415, 
			 "electric_quadrupole_moment_norm": 12.5743318502, 
			 "total_energy": -3070.25107198, 
			 "HOMO_LUMO_gap": 0.20228, 
			 "cosmo_polarized_energy": -12.79, 
			 "cosmo_cavitation_energy": 26.95, 
			 "cosmo_dispersion_energy": -19.94, 
			 "cosmo_repulsion_energy": 1.59, 
			 "cosmo_total_nonelectrostatic_energy": 8.59, 
			 "SMD_solvation_energy": 4.39 
		},
		"coords": [
			{
				"x": 0.0854386222,
				"y": -2.3286348322,
				"z": -1.2601695989,
				"element": "C" 
			},
			{
				"x": 0.7454565305,
				"y": -1.5310613814,
				"z": -0.1589161009,
				"element": "C" 
			},
			{
				"x": 1.4638873535,
				"y": -2.2034878072,
				"z": 0.8333879251,
				"element": "C" 
			},
			{
				"x": 2.0554116794,
				"y": -1.4907640785,
				"z": 1.8721014155,
				"element": "C" 
			},
			{
				"x": 3.0212408921,
				"y": -2.433332587,
				"z": 3.2231720834,
				"element": "Br" 
			},
			{
				"x": 1.9482293805,
				"y": -0.1080379259,
				"z": 1.9509507696,
				"element": "C" 
			},
			{
				"x": 1.2548729139,
				"y": 0.5976348988,
				"z": 0.9600112079,
				"element": "C" 
			},
			{
				"x": 1.1511631436,
				"y": 2.1052370428,
				"z": 1.0923315053,
				"element": "C" 
			},
			{
				"x": 0.6631597386,
				"y": -0.1206943998,
				"z": -0.1016099257,
				"element": "C" 
			},
			{
				"x": -0.1238085931,
				"y": 0.5931785423,
				"z": -1.1688257289,
				"element": "C" 
			},
			{
				"x": 0.5151066286,
				"y": 1.6194537105,
				"z": -1.7959580544,
				"element": "O" 
			},
			{
				"x": -1.2512447983,
				"y": 0.3068680613,
				"z": -1.4918336709,
				"element": "O" 
			},
			{
				"x": -1.001564514,
				"y": -2.2258487018,
				"z": -1.2143436366,
				"element": "H" 
			},
			{
				"x": 0.3898468361,
				"y": -1.9797865182,
				"z": -2.2524612006,
				"element": "H" 
			},
			{
				"x": 0.3461129505,
				"y": -3.3862750213,
				"z": -1.1769407217,
				"element": "H" 
			},
			{
				"x": 1.5529088632,
				"y": -3.2834113686,
				"z": 0.7980771019,
				"element": "H" 
			},
			{
				"x": 2.3961071868,
				"y": 0.4250143673,
				"z": 2.7822968765,
				"element": "H" 
			},
			{
				"x": 1.2567810873,
				"y": 2.3985188832,
				"z": 2.1396860017,
				"element": "H" 
			},
			{
				"x": 1.946111833,
				"y": 2.6237746274,
				"z": 0.5403419876,
				"element": "H" 
			},
			{
				"x": 0.1967994205,
				"y": 2.4918150804,
				"z": 0.7279392649,
				"element": "H" 
			},
			{
				"x": 1.4341828449,
				"y": 1.6613394078,
				"z": -1.4960375011,
				"element": "H" 
			}
		],
		 "valence_orbital": [ 
			{
				"type": "occ",
				"energy": -0.31316,
				"method": "rhf"
			},
			{
				"type": "occ",
				"energy": -0.29506,
				"method": "rhf"
			},
			{
				"type": "occ",
				"energy": -0.27928,
				"method": "rhf"
			},
			{
				"type": "occ",
				"energy": -0.26296,
				"method": "rhf"
			},
			{
				"type": "occ",
				"energy": -0.25013,
				"method": "rhf"
			},
			{
				"type": "unocc",
				"energy": -0.04785,
				"method": "rhf"
			},
			{
				"type": "unocc",
				"energy": -0.02343,
				"method": "rhf"
			},
			{
				"type": "unocc",
				"energy": -0.00089,
				"method": "rhf"
			},
			{
				"type": "unocc",
				"energy": 0.02079,
				"method": "rhf"
			},
			{
				"type": "unocc",
				"energy": 0.05536,
				"method": "rhf"
			}
		],
		"cosmo_sigma_profile": { 
			"-0.025": 0.0,
			"-0.024": 0.0,
			"-0.023": 0.0,
			"-0.022": 0.0,
			"-0.021": 0.0848214155379,
			"-0.02": 0.348526263561,
			"-0.019": 0.570199414124,
			"-0.018": 0.341837235307,
			"-0.017": 1.09279940102,
			"-0.016": 0.493560637976,
			"-0.015": 0.656264969744,
			"-0.014": 0.612094951845,
			"-0.013": 1.0422381837,
			"-0.012": 1.36096598571,
			"-0.011": 0.752656372461,
			"-0.01": 1.02622017824,
			"-0.009": 0.959054819482,
			"-0.008": 1.02514743302,
			"-0.007": 5.0233210958,
			"-0.006": 9.33233384234,
			"-0.005": 12.7605202539,
			"-0.004": 13.7930851714,
			"-0.003": 14.3900922448,
			"-0.002": 18.1154273392,
			"-0.001": 20.2630594079,
			"0.0": 17.4845142208,
			"0.001": 14.0232840601,
			"0.002": 19.3897792458,
			"0.003": 17.0272317568,
			"0.004": 13.1930220492,
			"0.005": 6.07037067873,
			"0.006": 2.81663855966,
			"0.007": 1.83873240853,
			"0.008": 3.47312181768,
			"0.009": 3.10568572381,
			"0.01": 5.23128037755,
			"0.011": 5.23148632568,
			"0.012": 3.56495684228,
			"0.013": 0.84913091825,
			"0.014": 0.0,
			"0.015": 0.0,
			"0.016": 0.0,
			"0.017": 0.0,
			"0.018": 0.0,
			"0.019": 0.0,
			"0.02": 0.0,
			"0.021": 0.0,
			"0.022": 0.0,
			"0.023": 0.0,
			"0.024": 0.0,
			"0.025": 0.0
		}
	}
}
