{
	 "smiles": "NS(=O)(=O)C1=CC=C(NC(=O)OCC(F)(F)F)C=C1", 
	 "Tm": 466.15, 
	 "num_atms": 28, 
	 "gaussian": { 
		 "optdone": 1, 
		 "sigma_profile": "yes", 
		 "theory": "DFT", 
		 "functional": "B3LYP", 
		 "basiset": "6-31G**", 
		 "properties": { 
			 "R2extent": 8792.3362, 
			 "electric_dipole_moment_norm": 4.51543143011, 
			 "electric_quadrupole_moment_norm": 34.6896202771, 
			 "total_energy": -1456.44250765, 
			 "HOMO_LUMO_gap": 0.20077, 
			 "cosmo_polarized_energy": -25.6, 
			 "cosmo_cavitation_energy": 36.5, 
			 "cosmo_dispersion_energy": -25.93, 
			 "cosmo_repulsion_energy": 1.9, 
			 "cosmo_total_nonelectrostatic_energy": 12.47, 
			 "SMD_solvation_energy": 8.14 
		},
		"coords": [
			{
				"x": 0.670974941,
				"y": -3.3580788965,
				"z": 3.2720793891,
				"element": "N" 
			},
			{
				"x": -0.4237158841,
				"y": -2.1302305014,
				"z": 3.6250412616,
				"element": "S" 
			},
			{
				"x": -1.681118998,
				"y": -2.5384243372,
				"z": 3.0015847215,
				"element": "O" 
			},
			{
				"x": -0.2832937011,
				"y": -1.8825089403,
				"z": 5.0590418641,
				"element": "O" 
			},
			{
				"x": 0.1435728293,
				"y": -0.6562896567,
				"z": 2.7725821862,
				"element": "C" 
			},
			{
				"x": -0.2624618926,
				"y": -0.4110916735,
				"z": 1.4596274353,
				"element": "C" 
			},
			{
				"x": 0.1902378688,
				"y": 0.7163438553,
				"z": 0.7797377322,
				"element": "C" 
			},
			{
				"x": 1.0482084456,
				"y": 1.6209801992,
				"z": 1.4278865083,
				"element": "C" 
			},
			{
				"x": 1.5850762324,
				"y": 2.7750197541,
				"z": 0.8236424926,
				"element": "N" 
			},
			{
				"x": 1.239445455,
				"y": 3.4944221416,
				"z": -0.295156892,
				"element": "C" 
			},
			{
				"x": 1.873921775,
				"y": 4.4514953269,
				"z": -0.6865980362,
				"element": "O" 
			},
			{
				"x": 0.0983880255,
				"y": 3.0272774419,
				"z": -0.8735090958,
				"element": "O" 
			},
			{
				"x": -0.2507984256,
				"y": 3.5947747018,
				"z": -2.1324851646,
				"element": "C" 
			},
			{
				"x": 0.0419653248,
				"y": 2.5756380493,
				"z": -3.2199443561,
				"element": "C" 
			},
			{
				"x": -0.340496986,
				"y": 3.0628336243,
				"z": -4.4154654026,
				"element": "F" 
			},
			{
				"x": 1.3535681242,
				"y": 2.2817863426,
				"z": -3.2779972785,
				"element": "F" 
			},
			{
				"x": -0.6250058581,
				"y": 1.4217525991,
				"z": -3.0045755082,
				"element": "F" 
			},
			{
				"x": 1.4425802972,
				"y": 1.3675743792,
				"z": 2.7538963973,
				"element": "C" 
			},
			{
				"x": 0.9959676992,
				"y": 0.2367866188,
				"z": 3.4256129091,
				"element": "C" 
			},
			{
				"x": 0.6756434033,
				"y": -3.6129819641,
				"z": 2.2895755072,
				"element": "H" 
			},
			{
				"x": 1.5988236712,
				"y": -3.1795158889,
				"z": 3.6428219345,
				"element": "H" 
			},
			{
				"x": -0.9468683162,
				"y": -1.097259677,
				"z": 0.9718676769,
				"element": "H" 
			},
			{
				"x": -0.1236643219,
				"y": 0.8908935034,
				"z": -0.2389646422,
				"element": "H" 
			},
			{
				"x": 2.3655871566,
				"y": 3.2048218764,
				"z": 1.3007017816,
				"element": "H" 
			},
			{
				"x": -1.3216588897,
				"y": 3.8052813585,
				"z": -2.1196102951,
				"element": "H" 
			},
			{
				"x": 0.3203915234,
				"y": 4.5054761354,
				"z": -2.3182206246,
				"element": "H" 
			},
			{
				"x": 2.091824941,
				"y": 2.0741187248,
				"z": 3.2644524304,
				"element": "H" 
			},
			{
				"x": 1.2795055597,
				"y": 0.0585049027,
				"z": 4.457275068,
				"element": "H" 
			}
		],
		 "valence_orbital": [ 
			{
				"type": "occ",
				"energy": -0.30829,
				"method": "rhf"
			},
			{
				"type": "occ",
				"energy": -0.30533,
				"method": "rhf"
			},
			{
				"type": "occ",
				"energy": -0.30479,
				"method": "rhf"
			},
			{
				"type": "occ",
				"energy": -0.28237,
				"method": "rhf"
			},
			{
				"type": "occ",
				"energy": -0.24854,
				"method": "rhf"
			},
			{
				"type": "unocc",
				"energy": -0.04777,
				"method": "rhf"
			},
			{
				"type": "unocc",
				"energy": -0.03252,
				"method": "rhf"
			},
			{
				"type": "unocc",
				"energy": 0.02667,
				"method": "rhf"
			},
			{
				"type": "unocc",
				"energy": 0.04656,
				"method": "rhf"
			},
			{
				"type": "unocc",
				"energy": 0.05559,
				"method": "rhf"
			}
		],
		"cosmo_sigma_profile": { 
			"-0.025": 0.0,
			"-0.024": 0.0,
			"-0.023": 0.0,
			"-0.022": 0.0,
			"-0.021": 0.0,
			"-0.02": 0.0,
			"-0.019": 0.0,
			"-0.018": 0.0,
			"-0.017": 0.0163433641291,
			"-0.016": 1.12144188587,
			"-0.015": 3.06223419627,
			"-0.014": 4.49400542255,
			"-0.013": 2.63900072319,
			"-0.012": 4.96393661678,
			"-0.011": 3.66260906464,
			"-0.01": 4.71592290011,
			"-0.009": 6.5986318621,
			"-0.008": 7.32163033451,
			"-0.007": 11.180628584,
			"-0.006": 11.8562823133,
			"-0.005": 9.29489861893,
			"-0.004": 10.2678636461,
			"-0.003": 13.6827485064,
			"-0.002": 14.4543466123,
			"-0.001": 15.5547230577,
			"0.0": 16.4261694608,
			"0.001": 21.0972762491,
			"0.002": 40.883242252,
			"0.003": 24.5112674211,
			"0.004": 4.8519678569,
			"0.005": 5.22420888595,
			"0.006": 4.53749388677,
			"0.007": 5.53824707485,
			"0.008": 5.17215341779,
			"0.009": 5.85795279591,
			"0.01": 9.64929628111,
			"0.011": 14.154200559,
			"0.012": 8.82943247847,
			"0.013": 0.254749822181,
			"0.014": 0.0,
			"0.015": 0.0,
			"0.016": 0.0,
			"0.017": 0.0,
			"0.018": 0.0,
			"0.019": 0.0,
			"0.02": 0.0,
			"0.021": 0.0,
			"0.022": 0.0,
			"0.023": 0.0,
			"0.024": 0.0,
			"0.025": 0.0
		}
	}
}
