{
	 "smiles": "BrC1=CC=CC=C1P(C1=CC=CC=C1)C1=CC=CC=C1", 
	 "Tm": 387.0, 
	 "num_atms": 34, 
	 "gaussian": { 
		 "optdone": 1, 
		 "sigma_profile": "yes", 
		 "theory": "DFT", 
		 "functional": "B3LYP", 
		 "basiset": "6-31G**", 
		 "properties": { 
			 "R2extent": 7032.1781, 
			 "electric_dipole_moment_norm": 1.12234045191, 
			 "electric_quadrupole_moment_norm": 14.5319044406, 
			 "total_energy": -3607.09780353, 
			 "HOMO_LUMO_gap": 0.17559, 
			 "cosmo_polarized_energy": -8.71, 
			 "cosmo_cavitation_energy": 40.39, 
			 "cosmo_dispersion_energy": -28.46, 
			 "cosmo_repulsion_energy": 2.26, 
			 "cosmo_total_nonelectrostatic_energy": 14.19, 
			 "SMD_solvation_energy": 5.95 
		},
		"coords": [
			{
				"x": 0.8519088068,
				"y": -2.8919996235,
				"z": 0.7738489382,
				"element": "Br" 
			},
			{
				"x": 2.2746352021,
				"y": -1.6111836309,
				"z": 0.7384070377,
				"element": "C" 
			},
			{
				"x": 3.5461800647,
				"y": -2.1104904794,
				"z": 1.0283597816,
				"element": "C" 
			},
			{
				"x": 4.652279547,
				"y": -1.2622113968,
				"z": 1.0045101808,
				"element": "C" 
			},
			{
				"x": 4.48519864,
				"y": 0.0847314092,
				"z": 0.6892880553,
				"element": "C" 
			},
			{
				"x": 3.2088197094,
				"y": 0.5700732588,
				"z": 0.4104603552,
				"element": "C" 
			},
			{
				"x": 2.0658031914,
				"y": -0.2544562172,
				"z": 0.4255289977,
				"element": "C" 
			},
			{
				"x": 0.4920071028,
				"y": 0.6730912275,
				"z": 0.0687732455,
				"element": "P" 
			},
			{
				"x": -0.1881355318,
				"y": -0.0946739809,
				"z": -1.4649710174,
				"element": "C" 
			},
			{
				"x": -1.4377498466,
				"y": 0.3626690284,
				"z": -1.9230598379,
				"element": "C" 
			},
			{
				"x": -1.9616152381,
				"y": -0.0804240897,
				"z": -3.1366947376,
				"element": "C" 
			},
			{
				"x": -1.2348880162,
				"y": -0.9698033592,
				"z": -3.9314986605,
				"element": "C" 
			},
			{
				"x": 0.0164884016,
				"y": -1.4105418535,
				"z": -3.5006232336,
				"element": "C" 
			},
			{
				"x": 0.5352959331,
				"y": -0.9795549548,
				"z": -2.2780441319,
				"element": "C" 
			},
			{
				"x": -0.6658302097,
				"y": 0.1714047929,
				"z": 1.4258958785,
				"element": "C" 
			},
			{
				"x": -1.8015694707,
				"y": -0.6349109073,
				"z": 1.2653232916,
				"element": "C" 
			},
			{
				"x": -2.6605040672,
				"y": -0.8731393153,
				"z": 2.3394148107,
				"element": "C" 
			},
			{
				"x": -2.3919739646,
				"y": -0.3230021319,
				"z": 3.5937565184,
				"element": "C" 
			},
			{
				"x": -1.2629845317,
				"y": 0.4800908334,
				"z": 3.766775464,
				"element": "C" 
			},
			{
				"x": -0.4171181289,
				"y": 0.736510278,
				"z": 2.6882391687,
				"element": "C" 
			},
			{
				"x": 3.6628198539,
				"y": -3.1614627302,
				"z": 1.2674809728,
				"element": "H" 
			},
			{
				"x": 5.6369528623,
				"y": -1.6602993976,
				"z": 1.2314872211,
				"element": "H" 
			},
			{
				"x": 5.3384476844,
				"y": 0.7556545753,
				"z": 0.6648358048,
				"element": "H" 
			},
			{
				"x": 3.0746169073,
				"y": 1.6221486127,
				"z": 0.1758508218,
				"element": "H" 
			},
			{
				"x": -2.0060358687,
				"y": 1.0717909233,
				"z": -1.3263761071,
				"element": "H" 
			},
			{
				"x": -2.9331870116,
				"y": 0.2776337225,
				"z": -3.4658081167,
				"element": "H" 
			},
			{
				"x": -1.6382315923,
				"y": -1.3098673,
				"z": -4.8809799257,
				"element": "H" 
			},
			{
				"x": 0.5925586618,
				"y": -2.0983268984,
				"z": -4.1135278759,
				"element": "H" 
			},
			{
				"x": 1.5081881487,
				"y": -1.3372299136,
				"z": -1.9589997578,
				"element": "H" 
			},
			{
				"x": -2.013085118,
				"y": -1.0849617491,
				"z": 0.3014286899,
				"element": "H" 
			},
			{
				"x": -3.5367299817,
				"y": -1.4997557037,
				"z": 2.1964197238,
				"element": "H" 
			},
			{
				"x": -3.0598871621,
				"y": -0.5141059353,
				"z": 4.4289010364,
				"element": "H" 
			},
			{
				"x": -1.0476523486,
				"y": 0.9182920471,
				"z": 4.737363884,
				"element": "H" 
			},
			{
				"x": 0.4448773712,
				"y": 1.3847108592,
				"z": 2.8276335237,
				"element": "H" 
			}
		],
		 "valence_orbital": [ 
			{
				"type": "occ",
				"energy": -0.24942,
				"method": "rhf"
			},
			{
				"type": "occ",
				"energy": -0.2488,
				"method": "rhf"
			},
			{
				"type": "occ",
				"energy": -0.2471,
				"method": "rhf"
			},
			{
				"type": "occ",
				"energy": -0.2407,
				"method": "rhf"
			},
			{
				"type": "occ",
				"energy": -0.20834,
				"method": "rhf"
			},
			{
				"type": "unocc",
				"energy": -0.03275,
				"method": "rhf"
			},
			{
				"type": "unocc",
				"energy": -0.02086,
				"method": "rhf"
			},
			{
				"type": "unocc",
				"energy": -0.01274,
				"method": "rhf"
			},
			{
				"type": "unocc",
				"energy": -0.00803,
				"method": "rhf"
			},
			{
				"type": "unocc",
				"energy": -0.00146,
				"method": "rhf"
			}
		],
		"cosmo_sigma_profile": { 
			"-0.025": 0.0,
			"-0.024": 0.0,
			"-0.023": 0.0,
			"-0.022": 0.0,
			"-0.021": 0.0,
			"-0.02": 0.0,
			"-0.019": 0.0,
			"-0.018": 0.0,
			"-0.017": 0.0,
			"-0.016": 0.0,
			"-0.015": 0.0,
			"-0.014": 0.0,
			"-0.013": 0.0,
			"-0.012": 0.0,
			"-0.011": 0.0,
			"-0.01": 0.0,
			"-0.009": 0.0,
			"-0.008": 0.0630803275196,
			"-0.007": 3.68398585261,
			"-0.006": 15.9323583918,
			"-0.005": 28.0069624277,
			"-0.004": 30.2261320628,
			"-0.003": 26.4713026485,
			"-0.002": 22.9719147745,
			"-0.001": 23.1810631742,
			"0.0": 23.6682621263,
			"0.001": 24.0248436348,
			"0.002": 28.4283881964,
			"0.003": 30.4160205176,
			"0.004": 28.3241540029,
			"0.005": 23.557459091,
			"0.006": 12.7714384922,
			"0.007": 1.80262919391,
			"0.008": 0.936453649953,
			"0.009": 0.571666175664,
			"0.01": 0.721609318519,
			"0.011": 0.599123093759,
			"0.012": 0.596048536829,
			"0.013": 0.340217879551,
			"0.014": 0.0,
			"0.015": 0.0,
			"0.016": 0.0,
			"0.017": 0.0,
			"0.018": 0.0,
			"0.019": 0.0,
			"0.02": 0.0,
			"0.021": 0.0,
			"0.022": 0.0,
			"0.023": 0.0,
			"0.024": 0.0,
			"0.025": 0.0
		}
	}
}
