{
	 "smiles": "OC(C(O)=O)C1=CC(F)=CC=C1", 
	 "Tm": 369.15, 
	 "num_atms": 19, 
	 "gaussian": { 
		 "optdone": 1, 
		 "sigma_profile": "yes", 
		 "theory": "DFT", 
		 "functional": "B3LYP", 
		 "basiset": "6-31G**", 
		 "properties": { 
			 "R2extent": 2480.1888, 
			 "electric_dipole_moment_norm": 1.52349116505, 
			 "electric_quadrupole_moment_norm": 12.9016846574, 
			 "total_energy": -634.581048337, 
			 "HOMO_LUMO_gap": 0.21718, 
			 "cosmo_polarized_energy": -11.1, 
			 "cosmo_cavitation_energy": 24.15, 
			 "cosmo_dispersion_energy": -17.51, 
			 "cosmo_repulsion_energy": 1.39, 
			 "cosmo_total_nonelectrostatic_energy": 8.03, 
			 "SMD_solvation_energy": 5.9 
		},
		"coords": [
			{
				"x": 0.0201018257,
				"y": -1.9584439314,
				"z": 2.4513129569,
				"element": "O" 
			},
			{
				"x": -0.7331405714,
				"y": -1.532458309,
				"z": 1.3451704248,
				"element": "C" 
			},
			{
				"x": -1.3551715774,
				"y": -2.7651650001,
				"z": 0.6815588388,
				"element": "C" 
			},
			{
				"x": -2.2819339065,
				"y": -2.4691268517,
				"z": -0.2414801466,
				"element": "O" 
			},
			{
				"x": -1.0340993395,
				"y": -3.8977590328,
				"z": 0.978971708,
				"element": "O" 
			},
			{
				"x": 0.10253412,
				"y": -0.7451606118,
				"z": 0.331889046,
				"element": "C" 
			},
			{
				"x": -0.5248129966,
				"y": 0.083449246,
				"z": -0.6053755111,
				"element": "C" 
			},
			{
				"x": 0.2588362167,
				"y": 0.7763218433,
				"z": -1.5182943316,
				"element": "C" 
			},
			{
				"x": -0.3501301518,
				"y": 1.5760815245,
				"z": -2.4201997893,
				"element": "F" 
			},
			{
				"x": 1.6463820929,
				"y": 0.6796121431,
				"z": -1.5331458812,
				"element": "C" 
			},
			{
				"x": 2.2588184637,
				"y": -0.1453224204,
				"z": -0.5898734054,
				"element": "C" 
			},
			{
				"x": 1.4956251509,
				"y": -0.8557054511,
				"z": 0.339313354,
				"element": "C" 
			},
			{
				"x": 0.0547580284,
				"y": -2.9288743983,
				"z": 2.3938241917,
				"element": "H" 
			},
			{
				"x": -1.5623660632,
				"y": -0.8947384406,
				"z": 1.6850428112,
				"element": "H" 
			},
			{
				"x": -2.5925115068,
				"y": -3.3109907454,
				"z": -0.6162902449,
				"element": "H" 
			},
			{
				"x": -1.6036047583,
				"y": 0.1924738007,
				"z": -0.6389348763,
				"element": "H" 
			},
			{
				"x": 2.2166097182,
				"y": 1.2442178757,
				"z": -2.2626556656,
				"element": "H" 
			},
			{
				"x": 3.3412994422,
				"y": -0.2316494529,
				"z": -0.5772177874,
				"element": "H" 
			},
			{
				"x": 1.968705813,
				"y": -1.4785617878,
				"z": 1.089084308,
				"element": "H" 
			}
		],
		 "valence_orbital": [ 
			{
				"type": "occ",
				"energy": -0.34291,
				"method": "rhf"
			},
			{
				"type": "occ",
				"energy": -0.31078,
				"method": "rhf"
			},
			{
				"type": "occ",
				"energy": -0.28641,
				"method": "rhf"
			},
			{
				"type": "occ",
				"energy": -0.25596,
				"method": "rhf"
			},
			{
				"type": "occ",
				"energy": -0.24457,
				"method": "rhf"
			},
			{
				"type": "unocc",
				"energy": -0.02739,
				"method": "rhf"
			},
			{
				"type": "unocc",
				"energy": -0.00202,
				"method": "rhf"
			},
			{
				"type": "unocc",
				"energy": 0.0049,
				"method": "rhf"
			},
			{
				"type": "unocc",
				"energy": 0.05824,
				"method": "rhf"
			},
			{
				"type": "unocc",
				"energy": 0.0927,
				"method": "rhf"
			}
		],
		"cosmo_sigma_profile": { 
			"-0.025": 0.0,
			"-0.024": 0.0,
			"-0.023": 0.0,
			"-0.022": 0.0,
			"-0.021": 0.0,
			"-0.02": 0.251671070952,
			"-0.019": 0.859439157078,
			"-0.018": 1.15762794346,
			"-0.017": 1.21211919218,
			"-0.016": 0.115315929338,
			"-0.015": 0.43432099813,
			"-0.014": 0.670755931504,
			"-0.013": 0.720236672233,
			"-0.012": 1.40761681369,
			"-0.011": 0.896013640047,
			"-0.01": 1.04664778283,
			"-0.009": 1.38102226506,
			"-0.008": 2.75941356079,
			"-0.007": 8.84670959806,
			"-0.006": 9.09054880829,
			"-0.005": 9.50844467846,
			"-0.004": 11.8932685327,
			"-0.003": 10.8221891246,
			"-0.002": 10.7413263555,
			"-0.001": 9.07982223323,
			"0.0": 10.3068368336,
			"0.001": 15.9536486551,
			"0.002": 12.7134275643,
			"0.003": 16.2924995956,
			"0.004": 20.6584551881,
			"0.005": 10.3684514843,
			"0.006": 4.03987197366,
			"0.007": 3.3802953776,
			"0.008": 2.32257464238,
			"0.009": 3.00238774365,
			"0.01": 5.01467593419,
			"0.011": 2.4592135322,
			"0.012": 1.3821479139,
			"0.013": 1.57514945079,
			"0.014": 0.191298699581,
			"0.015": 0.0,
			"0.016": 0.0,
			"0.017": 0.0,
			"0.018": 0.0,
			"0.019": 0.0,
			"0.02": 0.0,
			"0.021": 0.0,
			"0.022": 0.0,
			"0.023": 0.0,
			"0.024": 0.0,
			"0.025": 0.0
		}
	}
}
