{
	 "smiles": "NC1=CC=CC(C(O)=O)=C1O", 
	 "Tm": 513.15, 
	 "num_atms": 18, 
	 "gaussian": { 
		 "optdone": 1, 
		 "sigma_profile": "yes", 
		 "theory": "DFT", 
		 "functional": "B3LYP", 
		 "basiset": "6-31G**", 
		 "properties": { 
			 "R2extent": 2093.434, 
			 "electric_dipole_moment_norm": 2.36313047037, 
			 "electric_quadrupole_moment_norm": 11.078081481, 
			 "total_energy": -551.409912963, 
			 "HOMO_LUMO_gap": 0.15458, 
			 "cosmo_polarized_energy": -13.05, 
			 "cosmo_cavitation_energy": 22.07, 
			 "cosmo_dispersion_energy": -17.03, 
			 "cosmo_repulsion_energy": 1.36, 
			 "cosmo_total_nonelectrostatic_energy": 6.41, 
			 "SMD_solvation_energy": 5.1 
		},
		"coords": [
			{
				"x": -2.1085269019,
				"y": -1.1526077544,
				"z": -3.0811738293,
				"element": "N" 
			},
			{
				"x": -1.1134606385,
				"y": -1.0336952639,
				"z": -2.1141728491,
				"element": "C" 
			},
			{
				"x": 0.2463582955,
				"y": -1.0892565322,
				"z": -2.4208961338,
				"element": "C" 
			},
			{
				"x": 1.2220611408,
				"y": -0.9070144399,
				"z": -1.4318700972,
				"element": "C" 
			},
			{
				"x": 0.8461521882,
				"y": -0.6666281254,
				"z": -0.1229663642,
				"element": "C" 
			},
			{
				"x": -0.5215276186,
				"y": -0.6090540528,
				"z": 0.2238588271,
				"element": "C" 
			},
			{
				"x": -0.8274539552,
				"y": -0.3575569576,
				"z": 1.6450636311,
				"element": "C" 
			},
			{
				"x": -2.178585147,
				"y": -0.3218245958,
				"z": 1.9231723323,
				"element": "O" 
			},
			{
				"x": -0.0223598086,
				"y": -0.190278806,
				"z": 2.5361240125,
				"element": "O" 
			},
			{
				"x": -1.5019261418,
				"y": -0.7937697911,
				"z": -0.7713218596,
				"element": "C" 
			},
			{
				"x": -2.8454632204,
				"y": -0.7744711547,
				"z": -0.5646333557,
				"element": "O" 
			},
			{
				"x": -3.0195345298,
				"y": -1.3815599105,
				"z": -2.7082404137,
				"element": "H" 
			},
			{
				"x": -1.8591257245,
				"y": -1.7023712971,
				"z": -3.8908221927,
				"element": "H" 
			},
			{
				"x": 0.5431765011,
				"y": -1.2718394597,
				"z": -3.450857379,
				"element": "H" 
			},
			{
				"x": 2.2726750571,
				"y": -0.954618115,
				"z": -1.7000065662,
				"element": "H" 
			},
			{
				"x": 1.576263134,
				"y": -0.5196196598,
				"z": 0.6640544911,
				"element": "H" 
			},
			{
				"x": -2.2551031663,
				"y": -0.1497895648,
				"z": 2.875968978,
				"element": "H" 
			},
			{
				"x": -3.0158194643,
				"y": -0.6123445193,
				"z": 0.3796187685,
				"element": "H" 
			}
		],
		 "valence_orbital": [ 
			{
				"type": "occ",
				"energy": -0.33202,
				"method": "rhf"
			},
			{
				"type": "occ",
				"energy": -0.30822,
				"method": "rhf"
			},
			{
				"type": "occ",
				"energy": -0.2852,
				"method": "rhf"
			},
			{
				"type": "occ",
				"energy": -0.2408,
				"method": "rhf"
			},
			{
				"type": "occ",
				"energy": -0.19714,
				"method": "rhf"
			},
			{
				"type": "unocc",
				"energy": -0.04256,
				"method": "rhf"
			},
			{
				"type": "unocc",
				"energy": 0.01839,
				"method": "rhf"
			},
			{
				"type": "unocc",
				"energy": 0.06106,
				"method": "rhf"
			},
			{
				"type": "unocc",
				"energy": 0.06543,
				"method": "rhf"
			},
			{
				"type": "unocc",
				"energy": 0.09116,
				"method": "rhf"
			}
		],
		"cosmo_sigma_profile": { 
			"-0.025": 0.0,
			"-0.024": 0.0,
			"-0.023": 0.0,
			"-0.022": 0.0,
			"-0.021": 0.0,
			"-0.02": 0.0,
			"-0.019": 0.380935082291,
			"-0.018": 0.732074715205,
			"-0.017": 1.25484578426,
			"-0.016": 0.320469254394,
			"-0.015": 1.32013588214,
			"-0.014": 0.629549485764,
			"-0.013": 0.831251018531,
			"-0.012": 2.42146368231,
			"-0.011": 2.22832109529,
			"-0.01": 3.19258275551,
			"-0.009": 4.25237878765,
			"-0.008": 3.28664272574,
			"-0.007": 4.74733373966,
			"-0.006": 5.70609587517,
			"-0.005": 7.59101682224,
			"-0.004": 9.59213930426,
			"-0.003": 11.1381110192,
			"-0.002": 11.0108767478,
			"-0.001": 10.3623253418,
			"0.0": 7.65557398351,
			"0.001": 10.3396788526,
			"0.002": 12.3905199245,
			"0.003": 11.0373219979,
			"0.004": 11.4954429364,
			"0.005": 11.7071390097,
			"0.006": 6.94599880903,
			"0.007": 3.48090396482,
			"0.008": 3.72398479277,
			"0.009": 3.12604852921,
			"0.01": 2.9665303746,
			"0.011": 5.28803578833,
			"0.012": 3.47224547106,
			"0.013": 0.512829537379,
			"0.014": 0.557676872546,
			"0.015": 0.100320346528,
			"0.016": 0.0,
			"0.017": 0.0,
			"0.018": 0.0,
			"0.019": 0.0,
			"0.02": 0.0,
			"0.021": 0.0,
			"0.022": 0.0,
			"0.023": 0.0,
			"0.024": 0.0,
			"0.025": 0.0
		}
	}
}
