{
	 "smiles": "CC(C)(C)C(=O)OC1=CC=C(C=C1)[N+]([O-])=O", 
	 "Tm": 367.15, 
	 "num_atms": 29, 
	 "gaussian": { 
		 "optdone": 1, 
		 "sigma_profile": "yes", 
		 "theory": "DFT", 
		 "functional": "B3LYP", 
		 "basiset": "6-31G**", 
		 "properties": { 
			 "R2extent": 6669.4923, 
			 "electric_dipole_moment_norm": 5.86451075624, 
			 "electric_quadrupole_moment_norm": 25.9172946611, 
			 "total_energy": -782.573300522, 
			 "HOMO_LUMO_gap": 0.17985, 
			 "cosmo_polarized_energy": -10.38, 
			 "cosmo_cavitation_energy": 33.51, 
			 "cosmo_dispersion_energy": -23.41, 
			 "cosmo_repulsion_energy": 1.82, 
			 "cosmo_total_nonelectrostatic_energy": 11.91, 
			 "SMD_solvation_energy": 9.15 
		},
		"coords": [
			{
				"x": -1.7087618231,
				"y": -0.4981115231,
				"z": 2.3684339472,
				"element": "C" 
			},
			{
				"x": -0.7473937443,
				"y": 0.5307608741,
				"z": 1.7525130755,
				"element": "C" 
			},
			{
				"x": -1.520185331,
				"y": 1.8064022977,
				"z": 1.3455745684,
				"element": "C" 
			},
			{
				"x": 0.3680422975,
				"y": 0.8920837908,
				"z": 2.7598586372,
				"element": "C" 
			},
			{
				"x": -0.1117280429,
				"y": -0.0881292528,
				"z": 0.5054015607,
				"element": "C" 
			},
			{
				"x": -0.3331954962,
				"y": -1.1870536662,
				"z": 0.0615913548,
				"element": "O" 
			},
			{
				"x": 0.7712294568,
				"y": 0.8017429814,
				"z": -0.073908375,
				"element": "O" 
			},
			{
				"x": 1.4968401605,
				"y": 0.5069301794,
				"z": -1.2154505048,
				"element": "C" 
			},
			{
				"x": 2.0129015417,
				"y": -0.7604366778,
				"z": -1.5109389516,
				"element": "C" 
			},
			{
				"x": 2.7893264051,
				"y": -0.9215261508,
				"z": -2.6549121378,
				"element": "C" 
			},
			{
				"x": 3.038677055,
				"y": 0.1759810908,
				"z": -3.4765949095,
				"element": "C" 
			},
			{
				"x": 2.5327435553,
				"y": 1.4423707888,
				"z": -3.1851198874,
				"element": "C" 
			},
			{
				"x": 1.7564227473,
				"y": 1.6037341783,
				"z": -2.0449087459,
				"element": "C" 
			},
			{
				"x": 3.8595939312,
				"y": -0.0038777488,
				"z": -4.6803310672,
				"element": "N" 
			},
			{
				"x": 4.0660446258,
				"y": 0.9857084954,
				"z": -5.383406245,
				"element": "O" 
			},
			{
				"x": 4.2927240945,
				"y": -1.132181333,
				"z": -4.914018189,
				"element": "O" 
			},
			{
				"x": -2.4967394827,
				"y": -0.7762820337,
				"z": 1.663789963,
				"element": "H" 
			},
			{
				"x": -2.1767953137,
				"y": -0.0751805236,
				"z": 3.2627895163,
				"element": "H" 
			},
			{
				"x": -1.1820791851,
				"y": -1.4126911319,
				"z": 2.6535314139,
				"element": "H" 
			},
			{
				"x": -2.3073869759,
				"y": 1.5788908422,
				"z": 0.6192721148,
				"element": "H" 
			},
			{
				"x": -0.8546067077,
				"y": 2.5552941329,
				"z": 0.9098813715,
				"element": "H" 
			},
			{
				"x": -1.9958488901,
				"y": 2.2420398417,
				"z": 2.2301118288,
				"element": "H" 
			},
			{
				"x": 1.0628906487,
				"y": 1.6246548884,
				"z": 2.3424289568,
				"element": "H" 
			},
			{
				"x": 0.9381955567,
				"y": 0.0054973356,
				"z": 3.0566255407,
				"element": "H" 
			},
			{
				"x": -0.0808401904,
				"y": 1.3187181879,
				"z": 3.6626163375,
				"element": "H" 
			},
			{
				"x": 1.8021221185,
				"y": -1.6034252255,
				"z": -0.8692705262,
				"element": "H" 
			},
			{
				"x": 3.2055064012,
				"y": -1.8859079798,
				"z": -2.9176371404,
				"element": "H" 
			},
			{
				"x": 2.7508774955,
				"y": 2.2706181656,
				"z": -3.847168918,
				"element": "H" 
			},
			{
				"x": 1.3455230918,
				"y": 2.5715751762,
				"z": -1.7797545894,
				"element": "H" 
			}
		],
		 "valence_orbital": [ 
			{
				"type": "occ",
				"energy": -0.30623,
				"method": "rhf"
			},
			{
				"type": "occ",
				"energy": -0.29149,
				"method": "rhf"
			},
			{
				"type": "occ",
				"energy": -0.28908,
				"method": "rhf"
			},
			{
				"type": "occ",
				"energy": -0.27958,
				"method": "rhf"
			},
			{
				"type": "occ",
				"energy": -0.26795,
				"method": "rhf"
			},
			{
				"type": "unocc",
				"energy": -0.0881,
				"method": "rhf"
			},
			{
				"type": "unocc",
				"energy": -0.03055,
				"method": "rhf"
			},
			{
				"type": "unocc",
				"energy": -0.02053,
				"method": "rhf"
			},
			{
				"type": "unocc",
				"energy": 0.01358,
				"method": "rhf"
			},
			{
				"type": "unocc",
				"energy": 0.07073,
				"method": "rhf"
			}
		],
		"cosmo_sigma_profile": { 
			"-0.025": 0.0,
			"-0.024": 0.0,
			"-0.023": 0.0,
			"-0.022": 0.0,
			"-0.021": 0.0,
			"-0.02": 0.0,
			"-0.019": 0.0,
			"-0.018": 0.0,
			"-0.017": 0.0,
			"-0.016": 0.0,
			"-0.015": 0.0,
			"-0.014": 0.0,
			"-0.013": 0.0,
			"-0.012": 0.0,
			"-0.011": 0.0,
			"-0.01": 0.0,
			"-0.009": 0.0771389548631,
			"-0.008": 3.0589125036,
			"-0.007": 6.68319309206,
			"-0.006": 7.68523276607,
			"-0.005": 9.51322929722,
			"-0.004": 23.2167443769,
			"-0.003": 28.8385598337,
			"-0.002": 25.9113960731,
			"-0.001": 29.1895069513,
			"0.0": 39.4232394158,
			"0.001": 27.0024811617,
			"0.002": 9.88324582019,
			"0.003": 6.56386112392,
			"0.004": 4.03812419777,
			"0.005": 4.51879036433,
			"0.006": 5.31450121906,
			"0.007": 8.7771489325,
			"0.008": 10.37122585,
			"0.009": 6.64765504282,
			"0.01": 5.7301945797,
			"0.011": 2.5519652847,
			"0.012": 0.203983510749,
			"0.013": 0.0,
			"0.014": 0.0,
			"0.015": 0.0,
			"0.016": 0.0,
			"0.017": 0.0,
			"0.018": 0.0,
			"0.019": 0.0,
			"0.02": 0.0,
			"0.021": 0.0,
			"0.022": 0.0,
			"0.023": 0.0,
			"0.024": 0.0,
			"0.025": 0.0
		}
	}
}
