{
	 "smiles": "FC(F)(F)OC1=C2N=CC=C(Cl)C2=CC=C1", 
	 "Tm": 325.15, 
	 "num_atms": 21, 
	 "gaussian": { 
		 "optdone": 1, 
		 "sigma_profile": "yes", 
		 "theory": "DFT", 
		 "functional": "B3LYP", 
		 "basiset": "6-31G**", 
		 "properties": { 
			 "R2extent": 4475.9829, 
			 "electric_dipole_moment_norm": 2.56745910581, 
			 "electric_quadrupole_moment_norm": 10.4253618748, 
			 "total_energy": -1273.76802104, 
			 "HOMO_LUMO_gap": 0.17322, 
			 "cosmo_polarized_energy": -7.17, 
			 "cosmo_cavitation_energy": 28.95, 
			 "cosmo_dispersion_energy": -20.92, 
			 "cosmo_repulsion_energy": 1.55, 
			 "cosmo_total_nonelectrostatic_energy": 9.58, 
			 "SMD_solvation_energy": 5.01 
		},
		"coords": [
			{
				"x": 1.2239064641,
				"y": -1.4650512645,
				"z": 1.9921132326,
				"element": "F" 
			},
			{
				"x": 1.0416507108,
				"y": -2.1772038817,
				"z": 0.8693710761,
				"element": "C" 
			},
			{
				"x": 2.1948425674,
				"y": -2.1040100612,
				"z": 0.1653476314,
				"element": "F" 
			},
			{
				"x": 0.827683895,
				"y": -3.4513940834,
				"z": 1.1889264805,
				"element": "F" 
			},
			{
				"x": -0.0226313311,
				"y": -1.7501072168,
				"z": 0.1416103725,
				"element": "O" 
			},
			{
				"x": -0.0756842203,
				"y": -0.3960146726,
				"z": -0.1852623753,
				"element": "C" 
			},
			{
				"x": -0.9159110566,
				"y": 0.4500567588,
				"z": 0.5971963266,
				"element": "C" 
			},
			{
				"x": -1.5645141125,
				"y": -0.079385847,
				"z": 1.6677380869,
				"element": "N" 
			},
			{
				"x": -2.3350962121,
				"y": 0.7239545013,
				"z": 2.3695146782,
				"element": "C" 
			},
			{
				"x": -2.531894311,
				"y": 2.0965655544,
				"z": 2.0833431146,
				"element": "C" 
			},
			{
				"x": -1.8773414713,
				"y": 2.6338279136,
				"z": 1.0019252721,
				"element": "C" 
			},
			{
				"x": -2.1007595249,
				"y": 4.3300937776,
				"z": 0.6222045194,
				"element": "Cl" 
			},
			{
				"x": -1.0262075963,
				"y": 1.8253156622,
				"z": 0.1962067343,
				"element": "C" 
			},
			{
				"x": -0.3081387122,
				"y": 2.2912632026,
				"z": -0.9348220765,
				"element": "C" 
			},
			{
				"x": 0.4906526005,
				"y": 1.4307879414,
				"z": -1.6530520279,
				"element": "C" 
			},
			{
				"x": 0.6085856029,
				"y": 0.0724186596,
				"z": -1.2806212595,
				"element": "C" 
			},
			{
				"x": -2.847197885,
				"y": 0.2843135037,
				"z": 3.2241004915,
				"element": "H" 
			},
			{
				"x": -3.181994494,
				"y": 2.7026983622,
				"z": 2.7031858135,
				"element": "H" 
			},
			{
				"x": -0.3985314145,
				"y": 3.3311277769,
				"z": -1.2259132484,
				"element": "H" 
			},
			{
				"x": 1.0364494447,
				"y": 1.7920711375,
				"z": -2.5187493378,
				"element": "H" 
			},
			{
				"x": 1.2292310564,
				"y": -0.6107277247,
				"z": -1.848763505,
				"element": "H" 
			}
		],
		 "valence_orbital": [ 
			{
				"type": "occ",
				"energy": -0.32859,
				"method": "rhf"
			},
			{
				"type": "occ",
				"energy": -0.29927,
				"method": "rhf"
			},
			{
				"type": "occ",
				"energy": -0.2738,
				"method": "rhf"
			},
			{
				"type": "occ",
				"energy": -0.27239,
				"method": "rhf"
			},
			{
				"type": "occ",
				"energy": -0.24731,
				"method": "rhf"
			},
			{
				"type": "unocc",
				"energy": -0.07409,
				"method": "rhf"
			},
			{
				"type": "unocc",
				"energy": -0.03818,
				"method": "rhf"
			},
			{
				"type": "unocc",
				"energy": 0.00357,
				"method": "rhf"
			},
			{
				"type": "unocc",
				"energy": 0.01412,
				"method": "rhf"
			},
			{
				"type": "unocc",
				"energy": 0.06768,
				"method": "rhf"
			}
		],
		"cosmo_sigma_profile": { 
			"-0.025": 0.0,
			"-0.024": 0.0,
			"-0.023": 0.0,
			"-0.022": 0.0,
			"-0.021": 0.0,
			"-0.02": 0.0,
			"-0.019": 0.0,
			"-0.018": 0.0,
			"-0.017": 0.0,
			"-0.016": 0.0,
			"-0.015": 0.0,
			"-0.014": 0.0,
			"-0.013": 0.0,
			"-0.012": 0.0,
			"-0.011": 0.0,
			"-0.01": 0.0,
			"-0.009": 0.431566480725,
			"-0.008": 5.11397828738,
			"-0.007": 9.78805166102,
			"-0.006": 9.98655632755,
			"-0.005": 8.27452088064,
			"-0.004": 7.5936084113,
			"-0.003": 8.91126361388,
			"-0.002": 13.7141390256,
			"-0.001": 26.6176172569,
			"0.0": 32.6533860794,
			"0.001": 31.9660676529,
			"0.002": 39.9927051226,
			"0.003": 18.566437413,
			"0.004": 6.67365289168,
			"0.005": 2.61494311555,
			"0.006": 2.80181799586,
			"0.007": 2.77616562734,
			"0.008": 1.33721759361,
			"0.009": 1.98322682712,
			"0.01": 1.30089749699,
			"0.011": 1.00818953271,
			"0.012": 0.818393680504,
			"0.013": 0.946205528637,
			"0.014": 0.501812911052,
			"0.015": 0.00573882001774,
			"0.016": 0.0,
			"0.017": 0.0,
			"0.018": 0.0,
			"0.019": 0.0,
			"0.02": 0.0,
			"0.021": 0.0,
			"0.022": 0.0,
			"0.023": 0.0,
			"0.024": 0.0,
			"0.025": 0.0
		}
	}
}
