{
	 "smiles": "O=C1N(C2CCC(=O)NC2=O)C(=O)C2=CC=CC=C12", 
	 "Tm": 545.15, 
	 "num_atms": 29, 
	 "gaussian": { 
		 "optdone": 1, 
		 "sigma_profile": "yes", 
		 "theory": "DFT", 
		 "functional": "B3LYP", 
		 "basiset": "6-31G**", 
		 "properties": { 
			 "R2extent": 5358.3008, 
			 "electric_dipole_moment_norm": 4.95300766101, 
			 "electric_quadrupole_moment_norm": 22.2098626702, 
			 "total_energy": -911.869750462, 
			 "HOMO_LUMO_gap": 0.16842, 
			 "cosmo_polarized_energy": -18.82, 
			 "cosmo_cavitation_energy": 33.74, 
			 "cosmo_dispersion_energy": -23.95, 
			 "cosmo_repulsion_energy": 1.82, 
			 "cosmo_total_nonelectrostatic_energy": 11.61, 
			 "SMD_solvation_energy": 7.91 
		},
		"coords": [
			{
				"x": 0.7741551218,
				"y": -1.5494429187,
				"z": -1.9511087134,
				"element": "O" 
			},
			{
				"x": 0.923456726,
				"y": -0.5914193736,
				"z": -1.2157578391,
				"element": "C" 
			},
			{
				"x": 0.0994964883,
				"y": -0.2720865835,
				"z": -0.124261708,
				"element": "N" 
			},
			{
				"x": -1.1377191367,
				"y": -0.9553004429,
				"z": 0.2404104714,
				"element": "C" 
			},
			{
				"x": -0.9456386498,
				"y": -2.2802093833,
				"z": 1.0010531663,
				"element": "C" 
			},
			{
				"x": -0.7753540583,
				"y": -3.4882895566,
				"z": 0.0732436884,
				"element": "C" 
			},
			{
				"x": -1.895016238,
				"y": -3.5893910707,
				"z": -0.9402805802,
				"element": "C" 
			},
			{
				"x": -2.3062941776,
				"y": -4.627661035,
				"z": -1.4171006823,
				"element": "O" 
			},
			{
				"x": -2.4446969459,
				"y": -2.3635926069,
				"z": -1.3427925197,
				"element": "N" 
			},
			{
				"x": -2.0423830101,
				"y": -1.0806191507,
				"z": -1.0011780835,
				"element": "C" 
			},
			{
				"x": -2.4297213198,
				"y": -0.1058538239,
				"z": -1.613594748,
				"element": "O" 
			},
			{
				"x": 0.5073850367,
				"y": 0.9211889721,
				"z": 0.5132697685,
				"element": "C" 
			},
			{
				"x": -0.0556150012,
				"y": 1.4295777535,
				"z": 1.4602481781,
				"element": "O" 
			},
			{
				"x": 1.726300411,
				"y": 1.3695856523,
				"z": -0.2174374288,
				"element": "C" 
			},
			{
				"x": 2.5438042704,
				"y": 2.4697377104,
				"z": -0.0031081585,
				"element": "C" 
			},
			{
				"x": 3.6315983786,
				"y": 2.6410722122,
				"z": -0.8696916877,
				"element": "C" 
			},
			{
				"x": 3.8791572832,
				"y": 1.7348121276,
				"z": -1.9090729418,
				"element": "C" 
			},
			{
				"x": 3.0473315286,
				"y": 0.6265088981,
				"z": -2.1168812658,
				"element": "C" 
			},
			{
				"x": 1.9731779922,
				"y": 0.4659970852,
				"z": -1.2536449609,
				"element": "C" 
			},
			{
				"x": -1.6451304902,
				"y": -0.2407707846,
				"z": 0.8964488561,
				"element": "H" 
			},
			{
				"x": -1.830660642,
				"y": -2.4331682993,
				"z": 1.6298766487,
				"element": "H" 
			},
			{
				"x": -0.0926170098,
				"y": -2.1845369821,
				"z": 1.678481773,
				"element": "H" 
			},
			{
				"x": -0.7498404074,
				"y": -4.4283509952,
				"z": 0.6286393066,
				"element": "H" 
			},
			{
				"x": 0.1558199501,
				"y": -3.4076274411,
				"z": -0.4984551586,
				"element": "H" 
			},
			{
				"x": -3.1062221125,
				"y": -2.4187595474,
				"z": -2.1112565465,
				"element": "H" 
			},
			{
				"x": 2.3411359126,
				"y": 3.1667867662,
				"z": 0.8033850037,
				"element": "H" 
			},
			{
				"x": 4.2941852729,
				"y": 3.4908325879,
				"z": -0.7361355387,
				"element": "H" 
			},
			{
				"x": 4.7295570621,
				"y": 1.8967549806,
				"z": -2.564462709,
				"element": "H" 
			},
			{
				"x": 3.2279477649,
				"y": -0.0802747508,
				"z": -2.9201355903,
				"element": "H" 
			}
		],
		 "valence_orbital": [ 
			{
				"type": "occ",
				"energy": -0.28635,
				"method": "rhf"
			},
			{
				"type": "occ",
				"energy": -0.28553,
				"method": "rhf"
			},
			{
				"type": "occ",
				"energy": -0.28007,
				"method": "rhf"
			},
			{
				"type": "occ",
				"energy": -0.27466,
				"method": "rhf"
			},
			{
				"type": "occ",
				"energy": -0.2609,
				"method": "rhf"
			},
			{
				"type": "unocc",
				"energy": -0.09248,
				"method": "rhf"
			},
			{
				"type": "unocc",
				"energy": -0.05068,
				"method": "rhf"
			},
			{
				"type": "unocc",
				"energy": -0.03128,
				"method": "rhf"
			},
			{
				"type": "unocc",
				"energy": 0.01907,
				"method": "rhf"
			},
			{
				"type": "unocc",
				"energy": 0.02866,
				"method": "rhf"
			}
		],
		"cosmo_sigma_profile": { 
			"-0.025": 0.0,
			"-0.024": 0.0,
			"-0.023": 0.0,
			"-0.022": 0.0,
			"-0.021": 0.0,
			"-0.02": 0.0,
			"-0.019": 0.0,
			"-0.018": 0.0,
			"-0.017": 0.0,
			"-0.016": 0.104498138395,
			"-0.015": 1.23115381789,
			"-0.014": 0.529509302421,
			"-0.013": 0.51112461959,
			"-0.012": 1.24741042527,
			"-0.011": 0.854524918481,
			"-0.01": 1.13594523923,
			"-0.009": 1.70875488227,
			"-0.008": 6.23662219815,
			"-0.007": 13.200874868,
			"-0.006": 19.5233444151,
			"-0.005": 24.2667511296,
			"-0.004": 20.444395963,
			"-0.003": 19.4941496775,
			"-0.002": 17.8681973042,
			"-0.001": 16.9520330393,
			"0.0": 16.1952314836,
			"0.001": 18.2137851656,
			"0.002": 16.0139791217,
			"0.003": 7.30193925778,
			"0.004": 5.56769122261,
			"0.005": 6.22573477785,
			"0.006": 4.47654114631,
			"0.007": 5.89910734491,
			"0.008": 4.53932788492,
			"0.009": 7.7096930449,
			"0.01": 9.70063064072,
			"0.011": 13.4211225085,
			"0.012": 8.21954894733,
			"0.013": 1.18472938414,
			"0.014": 0.00122770876071,
			"0.015": 0.0,
			"0.016": 0.0,
			"0.017": 0.0,
			"0.018": 0.0,
			"0.019": 0.0,
			"0.02": 0.0,
			"0.021": 0.0,
			"0.022": 0.0,
			"0.023": 0.0,
			"0.024": 0.0,
			"0.025": 0.0
		}
	}
}
