{
	 "smiles": "O=C(C=CC=CC1=CC=CC=C1)C=CC=CC1=CC=CC=C1", 
	 "Tm": 415.15, 
	 "num_atms": 40, 
	 "gaussian": { 
		 "optdone": 1, 
		 "sigma_profile": "yes", 
		 "theory": "DFT", 
		 "functional": "B3LYP", 
		 "basiset": "6-31G**", 
		 "properties": { 
			 "R2extent": 8788.2525, 
			 "electric_dipole_moment_norm": 2.90447557745, 
			 "electric_quadrupole_moment_norm": 12.8824214847, 
			 "total_energy": -886.234195694, 
			 "HOMO_LUMO_gap": 0.13379, 
			 "cosmo_polarized_energy": -12.85, 
			 "cosmo_cavitation_energy": 44.59, 
			 "cosmo_dispersion_energy": -29.97, 
			 "cosmo_repulsion_energy": 2.34, 
			 "cosmo_total_nonelectrostatic_energy": 16.95, 
			 "SMD_solvation_energy": 7.89 
		},
		"coords": [
			{
				"x": -0.5884061118,
				"y": -2.7277943778,
				"z": -0.6418898276,
				"element": "O" 
			},
			{
				"x": 0.5160550874,
				"y": -2.1964716643,
				"z": -0.4980410995,
				"element": "C" 
			},
			{
				"x": 1.6491823982,
				"y": -3.0801163344,
				"z": -0.089716252,
				"element": "C" 
			},
			{
				"x": 2.7726424979,
				"y": -2.813576816,
				"z": 0.6077926203,
				"element": "C" 
			},
			{
				"x": 3.284841112,
				"y": -1.5672886569,
				"z": 1.1914109299,
				"element": "C" 
			},
			{
				"x": 2.72770529,
				"y": -0.6701918627,
				"z": 2.0348078144,
				"element": "C" 
			},
			{
				"x": 1.4251602956,
				"y": -0.6305175815,
				"z": 2.7167589731,
				"element": "C" 
			},
			{
				"x": 0.6025677228,
				"y": -1.7538977309,
				"z": 2.9253723902,
				"element": "C" 
			},
			{
				"x": -0.6018123818,
				"y": -1.635339362,
				"z": 3.6133524843,
				"element": "C" 
			},
			{
				"x": -1.0175057661,
				"y": -0.3966145207,
				"z": 4.1098453425,
				"element": "C" 
			},
			{
				"x": -0.2086322551,
				"y": 0.7249577602,
				"z": 3.9231618389,
				"element": "C" 
			},
			{
				"x": 1.001571319,
				"y": 0.6044830472,
				"z": 3.2433790566,
				"element": "C" 
			},
			{
				"x": 0.7778489052,
				"y": -0.7721372133,
				"z": -0.7798682058,
				"element": "C" 
			},
			{
				"x": -0.1481764353,
				"y": 0.1553138622,
				"z": -1.1376252901,
				"element": "C" 
			},
			{
				"x": -1.581488755,
				"y": -0.0248930745,
				"z": -1.22912496,
				"element": "C" 
			},
			{
				"x": -2.4653726243,
				"y": 0.8820244768,
				"z": -1.7171741357,
				"element": "C" 
			},
			{
				"x": -2.2118948581,
				"y": 2.1635533416,
				"z": -2.3883225994,
				"element": "C" 
			},
			{
				"x": -3.1361786721,
				"y": 3.2133941451,
				"z": -2.215945215,
				"element": "C" 
			},
			{
				"x": -2.9426192671,
				"y": 4.45065397,
				"z": -2.8238135674,
				"element": "C" 
			},
			{
				"x": -1.8288631912,
				"y": 4.6638501026,
				"z": -3.6405458112,
				"element": "C" 
			},
			{
				"x": -0.9200455381,
				"y": 3.6249098619,
				"z": -3.8503573988,
				"element": "C" 
			},
			{
				"x": -1.1098548463,
				"y": 2.3873509533,
				"z": -3.2370933797,
				"element": "C" 
			},
			{
				"x": 1.4709473518,
				"y": -4.1136863412,
				"z": -0.3794026155,
				"element": "H" 
			},
			{
				"x": 3.4582720799,
				"y": -3.655640747,
				"z": 0.7291075754,
				"element": "H" 
			},
			{
				"x": 4.3294558468,
				"y": -1.3794737571,
				"z": 0.9367187862,
				"element": "H" 
			},
			{
				"x": 3.3628297224,
				"y": 0.1800747681,
				"z": 2.2828965719,
				"element": "H" 
			},
			{
				"x": 0.9114220703,
				"y": -2.7233390431,
				"z": 2.5538860909,
				"element": "H" 
			},
			{
				"x": -1.2197688208,
				"y": -2.5158914085,
				"z": 3.7634974133,
				"element": "H" 
			},
			{
				"x": -1.9600451498,
				"y": -0.3096273479,
				"z": 4.6425462476,
				"element": "H" 
			},
			{
				"x": -0.5158547149,
				"y": 1.6917839259,
				"z": 4.3115804846,
				"element": "H" 
			},
			{
				"x": 1.6322777679,
				"y": 1.480015299,
				"z": 3.109688183,
				"element": "H" 
			},
			{
				"x": 1.8104206686,
				"y": -0.4521140637,
				"z": -0.6953616577,
				"element": "H" 
			},
			{
				"x": 0.2239258067,
				"y": 1.159048859,
				"z": -1.3331846952,
				"element": "H" 
			},
			{
				"x": -1.9684499749,
				"y": -0.9548983011,
				"z": -0.8288714354,
				"element": "H" 
			},
			{
				"x": -3.5210253216,
				"y": 0.6447957304,
				"z": -1.588382067,
				"element": "H" 
			},
			{
				"x": -4.0057685451,
				"y": 3.051890354,
				"z": -1.5839836907,
				"element": "H" 
			},
			{
				"x": -3.6632289861,
				"y": 5.248144254,
				"z": -2.666100901,
				"element": "H" 
			},
			{
				"x": -1.6803763702,
				"y": 5.6258666149,
				"z": -4.122353014,
				"element": "H" 
			},
			{
				"x": -0.0671347315,
				"y": 3.7729072473,
				"z": -4.5067992888,
				"element": "H" 
			},
			{
				"x": -0.4241226252,
				"y": 1.573691631,
				"z": -3.4472456953,
				"element": "H" 
			}
		],
		 "valence_orbital": [ 
			{
				"type": "occ",
				"energy": -0.25398,
				"method": "rhf"
			},
			{
				"type": "occ",
				"energy": -0.24955,
				"method": "rhf"
			},
			{
				"type": "occ",
				"energy": -0.23623,
				"method": "rhf"
			},
			{
				"type": "occ",
				"energy": -0.21981,
				"method": "rhf"
			},
			{
				"type": "occ",
				"energy": -0.2129,
				"method": "rhf"
			},
			{
				"type": "unocc",
				"energy": -0.07911,
				"method": "rhf"
			},
			{
				"type": "unocc",
				"energy": -0.04795,
				"method": "rhf"
			},
			{
				"type": "unocc",
				"energy": -0.01415,
				"method": "rhf"
			},
			{
				"type": "unocc",
				"energy": -0.00461,
				"method": "rhf"
			},
			{
				"type": "unocc",
				"energy": 0.00113,
				"method": "rhf"
			}
		],
		"cosmo_sigma_profile": { 
			"-0.025": 0.0,
			"-0.024": 0.0,
			"-0.023": 0.0,
			"-0.022": 0.0,
			"-0.021": 0.0,
			"-0.02": 0.0,
			"-0.019": 0.0,
			"-0.018": 0.0,
			"-0.017": 0.0,
			"-0.016": 0.0,
			"-0.015": 0.0,
			"-0.014": 0.0,
			"-0.013": 0.0,
			"-0.012": 0.0,
			"-0.011": 0.0,
			"-0.01": 0.0,
			"-0.009": 0.318560373194,
			"-0.008": 0.811143096767,
			"-0.007": 2.33494145342,
			"-0.006": 21.2588119371,
			"-0.005": 34.3506043403,
			"-0.004": 35.4147715432,
			"-0.003": 28.7853668539,
			"-0.002": 24.7197595052,
			"-0.001": 25.2748605835,
			"0.0": 24.8595760778,
			"0.001": 23.9807927661,
			"0.002": 26.4498849501,
			"0.003": 29.2014768872,
			"0.004": 29.9501080674,
			"0.005": 26.1468053505,
			"0.006": 7.43172178909,
			"0.007": 2.55511312951,
			"0.008": 1.71982522185,
			"0.009": 1.77733059671,
			"0.01": 1.16475031103,
			"0.011": 1.9848154367,
			"0.012": 3.06535181611,
			"0.013": 2.27452534985,
			"0.014": 1.36218891227,
			"0.015": 0.0311849321487,
			"0.016": 0.0,
			"0.017": 0.0,
			"0.018": 0.0,
			"0.019": 0.0,
			"0.02": 0.0,
			"0.021": 0.0,
			"0.022": 0.0,
			"0.023": 0.0,
			"0.024": 0.0,
			"0.025": 0.0
		}
	}
}
