{
	 "smiles": "BrC1=NC(Br)=CS1", 
	 "Tm": 355.15, 
	 "num_atms": 8, 
	 "gaussian": { 
		 "optdone": 1, 
		 "sigma_profile": "yes", 
		 "theory": "DFT", 
		 "functional": "B3LYP", 
		 "basiset": "6-31G**", 
		 "properties": { 
			 "R2extent": 3414.1862, 
			 "electric_dipole_moment_norm": 2.32920386398, 
			 "electric_quadrupole_moment_norm": 6.82388044297, 
			 "total_energy": -5710.63865149, 
			 "HOMO_LUMO_gap": 0.19543, 
			 "cosmo_polarized_energy": -5.2, 
			 "cosmo_cavitation_energy": 19.15, 
			 "cosmo_dispersion_energy": -15.93, 
			 "cosmo_repulsion_energy": 1.3, 
			 "cosmo_total_nonelectrostatic_energy": 4.51, 
			 "SMD_solvation_energy": -0.66 
		},
		"coords": [
			{
				"x": 0.7205526118,
				"y": -0.5530416016,
				"z": -2.6702135969,
				"element": "Br" 
			},
			{
				"x": -0.0064911452,
				"y": -0.7334440802,
				"z": -0.9407581954,
				"element": "C" 
			},
			{
				"x": -0.5110255494,
				"y": -1.8345302084,
				"z": -0.4869015592,
				"element": "N" 
			},
			{
				"x": -0.9521695864,
				"y": -1.6399993176,
				"z": 0.7955113852,
				"element": "C" 
			},
			{
				"x": -1.7438599336,
				"y": -3.086136634,
				"z": 1.7229567877,
				"element": "Br" 
			},
			{
				"x": -0.7903407479,
				"y": -0.3962326833,
				"z": 1.331461852,
				"element": "C" 
			},
			{
				"x": -0.0266976378,
				"y": 0.6304012328,
				"z": 0.1557139081,
				"element": "S" 
			},
			{
				"x": -1.0660680115,
				"y": -0.0402167076,
				"z": 2.3124294185,
				"element": "H" 
			}
		],
		 "valence_orbital": [ 
			{
				"type": "occ",
				"energy": -0.31369,
				"method": "rhf"
			},
			{
				"type": "occ",
				"energy": -0.31006,
				"method": "rhf"
			},
			{
				"type": "occ",
				"energy": -0.29865,
				"method": "rhf"
			},
			{
				"type": "occ",
				"energy": -0.29772,
				"method": "rhf"
			},
			{
				"type": "occ",
				"energy": -0.24874,
				"method": "rhf"
			},
			{
				"type": "unocc",
				"energy": -0.05331,
				"method": "rhf"
			},
			{
				"type": "unocc",
				"energy": -0.03917,
				"method": "rhf"
			},
			{
				"type": "unocc",
				"energy": 0.00124,
				"method": "rhf"
			},
			{
				"type": "unocc",
				"energy": 0.01813,
				"method": "rhf"
			},
			{
				"type": "unocc",
				"energy": 0.02267,
				"method": "rhf"
			}
		],
		"cosmo_sigma_profile": { 
			"-0.025": 0.0,
			"-0.024": 0.0,
			"-0.023": 0.0,
			"-0.022": 0.0,
			"-0.021": 0.0,
			"-0.02": 0.0,
			"-0.019": 0.0,
			"-0.018": 0.0,
			"-0.017": 0.0,
			"-0.016": 0.0,
			"-0.015": 0.0,
			"-0.014": 0.0,
			"-0.013": 0.0,
			"-0.012": 0.00335561991255,
			"-0.011": 1.53268821705,
			"-0.01": 1.88799410481,
			"-0.009": 2.14479498221,
			"-0.008": 1.97041986513,
			"-0.007": 2.37460646713,
			"-0.006": 3.87733916535,
			"-0.005": 4.46059198182,
			"-0.004": 7.09658625757,
			"-0.003": 12.1671965049,
			"-0.002": 13.722618761,
			"-0.001": 17.6279384001,
			"0.0": 18.5372379247,
			"0.001": 19.5521371676,
			"0.002": 17.4591476009,
			"0.003": 16.7566829865,
			"0.004": 11.1404163868,
			"0.005": 3.13596814712,
			"0.006": 2.19547747723,
			"0.007": 1.90394727109,
			"0.008": 0.869771155326,
			"0.009": 0.663958163869,
			"0.01": 1.52523862627,
			"0.011": 0.893265846501,
			"0.012": 0.671467737693,
			"0.013": 0.166879521234,
			"0.014": 0.0,
			"0.015": 0.0,
			"0.016": 0.0,
			"0.017": 0.0,
			"0.018": 0.0,
			"0.019": 0.0,
			"0.02": 0.0,
			"0.021": 0.0,
			"0.022": 0.0,
			"0.023": 0.0,
			"0.024": 0.0,
			"0.025": 0.0
		}
	}
}
