{
	 "smiles": "NS(=O)(=O)C1=CC(O)=CC=C1", 
	 "Tm": 433.15, 
	 "num_atms": 18, 
	 "gaussian": { 
		 "optdone": 1, 
		 "sigma_profile": "yes", 
		 "theory": "DFT", 
		 "functional": "B3LYP", 
		 "basiset": "6-31G**", 
		 "properties": { 
			 "R2extent": 2651.2501, 
			 "electric_dipole_moment_norm": 4.62388322084, 
			 "electric_quadrupole_moment_norm": 16.30432729, 
			 "total_energy": -911.392793217, 
			 "HOMO_LUMO_gap": 0.20404, 
			 "cosmo_polarized_energy": -19.28, 
			 "cosmo_cavitation_energy": 23.81, 
			 "cosmo_dispersion_energy": -18.31, 
			 "cosmo_repulsion_energy": 1.43, 
			 "cosmo_total_nonelectrostatic_energy": 6.94, 
			 "SMD_solvation_energy": 4.14 
		},
		"coords": [
			{
				"x": 1.7304966941,
				"y": 0.3611766594,
				"z": 3.1654236636,
				"element": "N" 
			},
			{
				"x": 0.338594183,
				"y": 0.9065908685,
				"z": 2.363665223,
				"element": "S" 
			},
			{
				"x": 0.2411458654,
				"y": 2.3531372701,
				"z": 2.5811312281,
				"element": "O" 
			},
			{
				"x": -0.740704208,
				"y": -0.0156427514,
				"z": 2.7292904126,
				"element": "O" 
			},
			{
				"x": 0.7297102203,
				"y": 0.6368704684,
				"z": 0.6325480406,
				"element": "C" 
			},
			{
				"x": 1.3024509195,
				"y": 1.6787756463,
				"z": -0.0898200597,
				"element": "C" 
			},
			{
				"x": 1.6161567184,
				"y": 1.4668063481,
				"z": -1.4370849259,
				"element": "C" 
			},
			{
				"x": 2.1764520319,
				"y": 2.5077189826,
				"z": -2.1149879329,
				"element": "O" 
			},
			{
				"x": 1.3480783462,
				"y": 0.2281452932,
				"z": -2.0315758483,
				"element": "C" 
			},
			{
				"x": 0.7627869666,
				"y": -0.7952960037,
				"z": -1.2845956851,
				"element": "C" 
			},
			{
				"x": 0.4445347011,
				"y": -0.6041689422,
				"z": 0.0587226958,
				"element": "C" 
			},
			{
				"x": 1.4635775904,
				"y": -0.3566482418,
				"z": 3.8342053744,
				"element": "H" 
			},
			{
				"x": 2.1847589527,
				"y": 1.1453793078,
				"z": 3.6263185096,
				"element": "H" 
			},
			{
				"x": 1.4886199439,
				"y": 2.6439484402,
				"z": 0.3660437763,
				"element": "H" 
			},
			{
				"x": 2.3303930282,
				"y": 2.2486605657,
				"z": -3.0328578494,
				"element": "H" 
			},
			{
				"x": 1.5899916629,
				"y": 0.0676006321,
				"z": -3.0799891578,
				"element": "H" 
			},
			{
				"x": 0.5493926169,
				"y": -1.7476959442,
				"z": -1.760254497,
				"element": "H" 
			},
			{
				"x": -0.0282362334,
				"y": -1.3821585992,
				"z": 0.646017032,
				"element": "H" 
			}
		],
		 "valence_orbital": [ 
			{
				"type": "occ",
				"energy": -0.31478,
				"method": "rhf"
			},
			{
				"type": "occ",
				"energy": -0.3032,
				"method": "rhf"
			},
			{
				"type": "occ",
				"energy": -0.29789,
				"method": "rhf"
			},
			{
				"type": "occ",
				"energy": -0.26751,
				"method": "rhf"
			},
			{
				"type": "occ",
				"energy": -0.2397,
				"method": "rhf"
			},
			{
				"type": "unocc",
				"energy": -0.03566,
				"method": "rhf"
			},
			{
				"type": "unocc",
				"energy": -0.00828,
				"method": "rhf"
			},
			{
				"type": "unocc",
				"energy": 0.05374,
				"method": "rhf"
			},
			{
				"type": "unocc",
				"energy": 0.05847,
				"method": "rhf"
			},
			{
				"type": "unocc",
				"energy": 0.08603,
				"method": "rhf"
			}
		],
		"cosmo_sigma_profile": { 
			"-0.025": 0.0,
			"-0.024": 0.0,
			"-0.023": 0.0,
			"-0.022": 0.0,
			"-0.021": 0.0,
			"-0.02": 0.0,
			"-0.019": 0.141896022404,
			"-0.018": 0.940231746394,
			"-0.017": 1.44880579407,
			"-0.016": 0.98321069458,
			"-0.015": 1.80128287266,
			"-0.014": 3.73218823117,
			"-0.013": 2.85506390532,
			"-0.012": 3.71346166467,
			"-0.011": 3.85892810357,
			"-0.01": 3.19036317128,
			"-0.009": 2.70747612171,
			"-0.008": 2.60206277061,
			"-0.007": 6.57091572213,
			"-0.006": 7.98183507925,
			"-0.005": 10.295734889,
			"-0.004": 7.64445190611,
			"-0.003": 7.82686161639,
			"-0.002": 7.11017080762,
			"-0.001": 8.0408558907,
			"0.0": 7.94693621217,
			"0.001": 9.79589605888,
			"0.002": 15.3409111201,
			"0.003": 15.1167172315,
			"0.004": 9.17054803343,
			"0.005": 4.32274320576,
			"0.006": 3.95044689894,
			"0.007": 5.55122209071,
			"0.008": 5.3261870101,
			"0.009": 5.82987159886,
			"0.01": 9.25976882373,
			"0.011": 10.8714190122,
			"0.012": 3.58905418605,
			"0.013": 0.200783496004,
			"0.014": 0.0,
			"0.015": 0.0,
			"0.016": 0.0,
			"0.017": 0.0,
			"0.018": 0.0,
			"0.019": 0.0,
			"0.02": 0.0,
			"0.021": 0.0,
			"0.022": 0.0,
			"0.023": 0.0,
			"0.024": 0.0,
			"0.025": 0.0
		}
	}
}
