{
	 "smiles": "COC(=O)C1=C(C(OC)=C(OC)C(OC)=C1)[N+]([O-])=O", 
	 "Tm": 341.15, 
	 "num_atms": 32, 
	 "gaussian": { 
		 "optdone": 1, 
		 "sigma_profile": "yes", 
		 "theory": "DFT", 
		 "functional": "B3LYP", 
		 "basiset": "6-31G**", 
		 "properties": { 
			 "R2extent": 6628.9026, 
			 "electric_dipole_moment_norm": 7.04020677395, 
			 "electric_quadrupole_moment_norm": 25.2036515442, 
			 "total_energy": -1008.16606551, 
			 "HOMO_LUMO_gap": 0.17288, 
			 "cosmo_polarized_energy": -16.79, 
			 "cosmo_cavitation_energy": 37.37, 
			 "cosmo_dispersion_energy": -25.52, 
			 "cosmo_repulsion_energy": 2.0, 
			 "cosmo_total_nonelectrostatic_energy": 13.85, 
			 "SMD_solvation_energy": 12.74 
		},
		"coords": [
			{
				"x": 2.7356233484,
				"y": 2.9912956757,
				"z": 0.1338588987,
				"element": "C" 
			},
			{
				"x": 2.0380440748,
				"y": 1.7581689818,
				"z": 0.3801345484,
				"element": "O" 
			},
			{
				"x": 2.1057736015,
				"y": 0.8561998647,
				"z": -0.6253468144,
				"element": "C" 
			},
			{
				"x": 2.7104847037,
				"y": 1.0501248039,
				"z": -1.6579250102,
				"element": "O" 
			},
			{
				"x": 1.3270256554,
				"y": -0.379856224,
				"z": -0.3165022817,
				"element": "C" 
			},
			{
				"x": 1.5258541847,
				"y": -1.55191441,
				"z": -1.0507823825,
				"element": "C" 
			},
			{
				"x": 0.7550858029,
				"y": -2.6971843504,
				"z": -0.8170918629,
				"element": "C" 
			},
			{
				"x": 1.0494032242,
				"y": -3.8555774531,
				"z": -1.4714066782,
				"element": "O" 
			},
			{
				"x": 0.1435294674,
				"y": -4.2153081258,
				"z": -2.5305452847,
				"element": "C" 
			},
			{
				"x": -0.2577931088,
				"y": -2.6602059875,
				"z": 0.1517143924,
				"element": "C" 
			},
			{
				"x": -1.0465844516,
				"y": -3.7603858692,
				"z": 0.3231005564,
				"element": "O" 
			},
			{
				"x": -0.7737398175,
				"y": -4.536451038,
				"z": 1.4990806755,
				"element": "C" 
			},
			{
				"x": -0.4706778812,
				"y": -1.4812230816,
				"z": 0.8993302608,
				"element": "C" 
			},
			{
				"x": -1.4677149924,
				"y": -1.5451583442,
				"z": 1.8208067203,
				"element": "O" 
			},
			{
				"x": -1.7423837622,
				"y": -0.3849474244,
				"z": 2.5970042758,
				"element": "C" 
			},
			{
				"x": 0.3200075096,
				"y": -0.3565791313,
				"z": 0.6594105878,
				"element": "C" 
			},
			{
				"x": 2.597562211,
				"y": -1.6778250881,
				"z": -2.0583147363,
				"element": "N" 
			},
			{
				"x": 3.7507773386,
				"y": -1.6807946377,
				"z": -1.6481682838,
				"element": "O" 
			},
			{
				"x": 2.2443935727,
				"y": -1.8163346437,
				"z": -3.2252103351,
				"element": "O" 
			},
			{
				"x": 3.7984379224,
				"y": 2.8013878024,
				"z": -0.0325535708,
				"element": "H" 
			},
			{
				"x": 2.3258456945,
				"y": 3.4960742041,
				"z": -0.7444895797,
				"element": "H" 
			},
			{
				"x": 2.587961593,
				"y": 3.5950537316,
				"z": 1.0290284033,
				"element": "H" 
			},
			{
				"x": 0.517190619,
				"y": -5.1586594476,
				"z": -2.9313677059,
				"element": "H" 
			},
			{
				"x": 0.1596879762,
				"y": -3.451443503,
				"z": -3.3136149295,
				"element": "H" 
			},
			{
				"x": -0.8697255217,
				"y": -4.3527097183,
				"z": -2.1423982914,
				"element": "H" 
			},
			{
				"x": 0.2519269465,
				"y": -4.9213852749,
				"z": 1.4775911749,
				"element": "H" 
			},
			{
				"x": -0.9340541029,
				"y": -3.9449179531,
				"z": 2.4054535463,
				"element": "H" 
			},
			{
				"x": -1.4763264269,
				"y": -5.3711183521,
				"z": 1.4786162282,
				"element": "H" 
			},
			{
				"x": -2.5685408048,
				"y": -0.6563122874,
				"z": 3.2550083219,
				"element": "H" 
			},
			{
				"x": -0.8763207271,
				"y": -0.0906114296,
				"z": 3.2024130283,
				"element": "H" 
			},
			{
				"x": -2.0451050987,
				"y": 0.4576896135,
				"z": 1.9636999834,
				"element": "H" 
			},
			{
				"x": 0.1672512494,
				"y": 0.5600090972,
				"z": 1.211166145,
				"element": "H" 
			}
		],
		 "valence_orbital": [ 
			{
				"type": "occ",
				"energy": -0.29036,
				"method": "rhf"
			},
			{
				"type": "occ",
				"energy": -0.28353,
				"method": "rhf"
			},
			{
				"type": "occ",
				"energy": -0.27991,
				"method": "rhf"
			},
			{
				"type": "occ",
				"energy": -0.25226,
				"method": "rhf"
			},
			{
				"type": "occ",
				"energy": -0.23799,
				"method": "rhf"
			},
			{
				"type": "unocc",
				"energy": -0.06511,
				"method": "rhf"
			},
			{
				"type": "unocc",
				"energy": -0.04865,
				"method": "rhf"
			},
			{
				"type": "unocc",
				"energy": -0.01129,
				"method": "rhf"
			},
			{
				"type": "unocc",
				"energy": 0.04444,
				"method": "rhf"
			},
			{
				"type": "unocc",
				"energy": 0.05967,
				"method": "rhf"
			}
		],
		"cosmo_sigma_profile": { 
			"-0.025": 0.0,
			"-0.024": 0.0,
			"-0.023": 0.0,
			"-0.022": 0.0,
			"-0.021": 0.0,
			"-0.02": 0.0,
			"-0.019": 0.0,
			"-0.018": 0.0,
			"-0.017": 0.0,
			"-0.016": 0.0,
			"-0.015": 0.0,
			"-0.014": 0.0,
			"-0.013": 0.0,
			"-0.012": 0.0,
			"-0.011": 0.0,
			"-0.01": 0.0,
			"-0.009": 0.0,
			"-0.008": 0.792315144671,
			"-0.007": 6.65945289995,
			"-0.006": 20.3044215924,
			"-0.005": 23.5786491503,
			"-0.004": 33.6964526667,
			"-0.003": 36.3719590831,
			"-0.002": 21.5518247966,
			"-0.001": 21.2538598506,
			"0.0": 18.9095094654,
			"0.001": 13.7763295172,
			"0.002": 11.7237640254,
			"0.003": 11.1625933081,
			"0.004": 11.8011565808,
			"0.005": 10.3530567847,
			"0.006": 10.6381174086,
			"0.007": 15.0368982451,
			"0.008": 12.5802886126,
			"0.009": 7.75936018023,
			"0.01": 5.54596026158,
			"0.011": 3.13989865715,
			"0.012": 0.295229800788,
			"0.013": 0.0,
			"0.014": 0.0,
			"0.015": 0.0,
			"0.016": 0.0,
			"0.017": 0.0,
			"0.018": 0.0,
			"0.019": 0.0,
			"0.02": 0.0,
			"0.021": 0.0,
			"0.022": 0.0,
			"0.023": 0.0,
			"0.024": 0.0,
			"0.025": 0.0
		}
	}
}
