{
	 "smiles": "OC(=O)CCCNS(=O)(=O)C1=CC(=CC=C1)C(F)(F)F", 
	 "Tm": 427.15, 
	 "num_atms": 32, 
	 "gaussian": { 
		 "optdone": 1, 
		 "sigma_profile": "yes", 
		 "theory": "DFT", 
		 "functional": "B3LYP", 
		 "basiset": "6-31G**", 
		 "properties": { 
			 "R2extent": 8980.9583, 
			 "electric_dipole_moment_norm": 3.77403072722, 
			 "electric_quadrupole_moment_norm": 20.4804918571, 
			 "total_energy": -1479.71353235, 
			 "HOMO_LUMO_gap": 0.21478, 
			 "cosmo_polarized_energy": -20.7, 
			 "cosmo_cavitation_energy": 39.97, 
			 "cosmo_dispersion_energy": -27.47, 
			 "cosmo_repulsion_energy": 2.06, 
			 "cosmo_total_nonelectrostatic_energy": 14.56, 
			 "SMD_solvation_energy": 7.51 
		},
		"coords": [
			{
				"x": 2.5866184357,
				"y": -1.0548782482,
				"z": -5.0159941154,
				"element": "O" 
			},
			{
				"x": 2.6814043627,
				"y": -0.0148801221,
				"z": -4.1555099884,
				"element": "C" 
			},
			{
				"x": 2.5514576193,
				"y": 1.1383596753,
				"z": -4.504450073,
				"element": "O" 
			},
			{
				"x": 2.989396745,
				"y": -0.4849970572,
				"z": -2.7474481753,
				"element": "C" 
			},
			{
				"x": 2.8359401578,
				"y": 0.6173007774,
				"z": -1.6930647061,
				"element": "C" 
			},
			{
				"x": 1.3970863451,
				"y": 1.0872383816,
				"z": -1.4537325182,
				"element": "C" 
			},
			{
				"x": 0.5931055921,
				"y": 0.0135100157,
				"z": -0.8358488445,
				"element": "N" 
			},
			{
				"x": -0.9435580235,
				"y": 0.4143574226,
				"z": -0.2584395671,
				"element": "S" 
			},
			{
				"x": -1.5068741223,
				"y": 1.5584796637,
				"z": -0.984532838,
				"element": "O" 
			},
			{
				"x": -1.655141965,
				"y": -0.8646336842,
				"z": -0.1800574435,
				"element": "O" 
			},
			{
				"x": -0.5748088745,
				"y": 0.981765591,
				"z": 1.4067668033,
				"element": "C" 
			},
			{
				"x": -0.1291229517,
				"y": 0.0580187529,
				"z": 2.3540903453,
				"element": "C" 
			},
			{
				"x": 0.1360344594,
				"y": 0.500855663,
				"z": 3.6474258621,
				"element": "C" 
			},
			{
				"x": -0.0479287716,
				"y": 1.8473982119,
				"z": 3.9877960697,
				"element": "C" 
			},
			{
				"x": -0.5023123693,
				"y": 2.7525913512,
				"z": 3.0326445587,
				"element": "C" 
			},
			{
				"x": -0.7719416344,
				"y": 2.3228053147,
				"z": 1.7302071309,
				"element": "C" 
			},
			{
				"x": 0.5782265151,
				"y": -0.4726187999,
				"z": 4.7094949009,
				"element": "C" 
			},
			{
				"x": 1.0694229207,
				"y": -1.6113318175,
				"z": 4.1787771338,
				"element": "F" 
			},
			{
				"x": -0.4454828376,
				"y": -0.8163275713,
				"z": 5.5216808773,
				"element": "F" 
			},
			{
				"x": 1.5394383007,
				"y": 0.0613538787,
				"z": 5.4962517189,
				"element": "F" 
			},
			{
				"x": 2.4136952496,
				"y": -0.6705868934,
				"z": -5.8922728581,
				"element": "H" 
			},
			{
				"x": 4.0229234617,
				"y": -0.854230502,
				"z": -2.7571238185,
				"element": "H" 
			},
			{
				"x": 2.3782710658,
				"y": -1.3688781548,
				"z": -2.5309955667,
				"element": "H" 
			},
			{
				"x": 3.2567519497,
				"y": 0.2646319642,
				"z": -0.7458019134,
				"element": "H" 
			},
			{
				"x": 3.4192773407,
				"y": 1.4859502513,
				"z": -2.0140247629,
				"element": "H" 
			},
			{
				"x": 0.949074599,
				"y": 1.4554466206,
				"z": -2.3829973655,
				"element": "H" 
			},
			{
				"x": 1.4143396282,
				"y": 1.9231271001,
				"z": -0.7478935253,
				"element": "H" 
			},
			{
				"x": 0.4666206601,
				"y": -0.8085488073,
				"z": -1.422838485,
				"element": "H" 
			},
			{
				"x": 0.0082915168,
				"y": -0.9825908357,
				"z": 2.0856258027,
				"element": "H" 
			},
			{
				"x": 0.1701483413,
				"y": 2.1792752487,
				"z": 4.9975134761,
				"element": "H" 
			},
			{
				"x": -0.647698215,
				"y": 3.7946708813,
				"z": 3.2986967275,
				"element": "H" 
			},
			{
				"x": -1.1361555016,
				"y": 3.0059657278,
				"z": 0.9709551579,
				"element": "H" 
			}
		],
		 "valence_orbital": [ 
			{
				"type": "occ",
				"energy": -0.30548,
				"method": "rhf"
			},
			{
				"type": "occ",
				"energy": -0.29759,
				"method": "rhf"
			},
			{
				"type": "occ",
				"energy": -0.28835,
				"method": "rhf"
			},
			{
				"type": "occ",
				"energy": -0.28764,
				"method": "rhf"
			},
			{
				"type": "occ",
				"energy": -0.26921,
				"method": "rhf"
			},
			{
				"type": "unocc",
				"energy": -0.05443,
				"method": "rhf"
			},
			{
				"type": "unocc",
				"energy": -0.04227,
				"method": "rhf"
			},
			{
				"type": "unocc",
				"energy": -0.00403,
				"method": "rhf"
			},
			{
				"type": "unocc",
				"energy": 0.04441,
				"method": "rhf"
			},
			{
				"type": "unocc",
				"energy": 0.06786,
				"method": "rhf"
			}
		],
		"cosmo_sigma_profile": { 
			"-0.025": 0.0,
			"-0.024": 0.0,
			"-0.023": 0.0,
			"-0.022": 0.0,
			"-0.021": 0.0,
			"-0.02": 0.0,
			"-0.019": 0.0676784737461,
			"-0.018": 0.735727403227,
			"-0.017": 0.879179375266,
			"-0.016": 0.664441744,
			"-0.015": 1.09141796727,
			"-0.014": 1.89899349117,
			"-0.013": 1.73703863571,
			"-0.012": 2.11565882512,
			"-0.011": 2.29265966025,
			"-0.01": 2.33151232729,
			"-0.009": 1.86751101827,
			"-0.008": 6.01784394539,
			"-0.007": 12.019964097,
			"-0.006": 14.7876279314,
			"-0.005": 15.2959766418,
			"-0.004": 19.821792673,
			"-0.003": 23.2062255801,
			"-0.002": 21.8001708521,
			"-0.001": 21.0199104837,
			"0.0": 23.7219728661,
			"0.001": 22.9627673074,
			"0.002": 30.0511622467,
			"0.003": 26.9715962197,
			"0.004": 6.24308402988,
			"0.005": 4.48488261896,
			"0.006": 6.64606271959,
			"0.007": 6.00277149805,
			"0.008": 6.13922903918,
			"0.009": 6.41143481549,
			"0.01": 10.8312739233,
			"0.011": 11.6295549244,
			"0.012": 5.62261985393,
			"0.013": 0.103066745455,
			"0.014": 0.0,
			"0.015": 0.0,
			"0.016": 0.0,
			"0.017": 0.0,
			"0.018": 0.0,
			"0.019": 0.0,
			"0.02": 0.0,
			"0.021": 0.0,
			"0.022": 0.0,
			"0.023": 0.0,
			"0.024": 0.0,
			"0.025": 0.0
		}
	}
}
