{
	 "smiles": "[O-][N+](=O)C1=C(NC(=O)C2=NC3=C(C=CC=C3)C=C2)C=CC=C1", 
	 "Tm": 347.15, 
	 "num_atms": 33, 
	 "gaussian": { 
		 "optdone": 1, 
		 "sigma_profile": "yes", 
		 "theory": "DFT", 
		 "functional": "B3LYP", 
		 "basiset": "6-31G**", 
		 "properties": { 
			 "R2extent": 8733.9856, 
			 "electric_dipole_moment_norm": 2.61523191515, 
			 "electric_quadrupole_moment_norm": 27.8696712191, 
			 "total_energy": -1006.1961491, 
			 "HOMO_LUMO_gap": 0.14315, 
			 "cosmo_polarized_energy": -12.25, 
			 "cosmo_cavitation_energy": 38.53, 
			 "cosmo_dispersion_energy": -28.05, 
			 "cosmo_repulsion_energy": 2.05, 
			 "cosmo_total_nonelectrostatic_energy": 12.53, 
			 "SMD_solvation_energy": 7.74 
		},
		"coords": [
			{
				"x": 0.783483075,
				"y": 2.4662311283,
				"z": 1.0156332619,
				"element": "O" 
			},
			{
				"x": 1.846321976,
				"y": 3.052422472,
				"z": 0.7531980995,
				"element": "N" 
			},
			{
				"x": 1.9651851008,
				"y": 4.2741000404,
				"z": 0.8270188038,
				"element": "O" 
			},
			{
				"x": 3.0094384955,
				"y": 2.2674082071,
				"z": 0.3386505642,
				"element": "C" 
			},
			{
				"x": 2.9879419433,
				"y": 0.8482051552,
				"z": 0.2170282535,
				"element": "C" 
			},
			{
				"x": 1.8434613745,
				"y": 0.1115295128,
				"z": 0.4890915334,
				"element": "N" 
			},
			{
				"x": 1.6631622283,
				"y": -1.2516258355,
				"z": 0.418174388,
				"element": "C" 
			},
			{
				"x": 2.5079047438,
				"y": -2.0791491247,
				"z": 0.0923919868,
				"element": "O" 
			},
			{
				"x": 0.2625995712,
				"y": -1.6757505515,
				"z": 0.794788739,
				"element": "C" 
			},
			{
				"x": -0.5920668501,
				"y": -0.7290359463,
				"z": 1.1344382699,
				"element": "N" 
			},
			{
				"x": -1.8590415671,
				"y": -1.086420297,
				"z": 1.4777329178,
				"element": "C" 
			},
			{
				"x": -2.2842659119,
				"y": -2.4551098552,
				"z": 1.4793474474,
				"element": "C" 
			},
			{
				"x": -3.6204585948,
				"y": -2.7593631408,
				"z": 1.8480481968,
				"element": "C" 
			},
			{
				"x": -4.4921746859,
				"y": -1.7523834845,
				"z": 2.1982778877,
				"element": "C" 
			},
			{
				"x": -4.0686958237,
				"y": -0.398620748,
				"z": 2.1958284002,
				"element": "C" 
			},
			{
				"x": -2.7799252457,
				"y": -0.0686437111,
				"z": 1.8435161598,
				"element": "C" 
			},
			{
				"x": -1.3306545064,
				"y": -3.4380511461,
				"z": 1.1070448327,
				"element": "C" 
			},
			{
				"x": -0.0560909398,
				"y": -3.0570967207,
				"z": 0.7636248359,
				"element": "C" 
			},
			{
				"x": 4.1874847665,
				"y": 0.225740828,
				"z": -0.193730732,
				"element": "C" 
			},
			{
				"x": 5.3271564429,
				"y": 0.9697858697,
				"z": -0.4634147145,
				"element": "C" 
			},
			{
				"x": 5.3308857711,
				"y": 2.3637153672,
				"z": -0.3387216361,
				"element": "C" 
			},
			{
				"x": 4.169970616,
				"y": 3.0023859907,
				"z": 0.0619602866,
				"element": "C" 
			},
			{
				"x": 1.0233231463,
				"y": 0.6460082408,
				"z": 0.7805609842,
				"element": "H" 
			},
			{
				"x": -3.9430668293,
				"y": -3.797234888,
				"z": 1.8493157137,
				"element": "H" 
			},
			{
				"x": -5.5133513317,
				"y": -1.9922196774,
				"z": 2.479390716,
				"element": "H" 
			},
			{
				"x": -4.7714817512,
				"y": 0.3806509423,
				"z": 2.4752154928,
				"element": "H" 
			},
			{
				"x": -2.4290967966,
				"y": 0.9581418761,
				"z": 1.8328419725,
				"element": "H" 
			},
			{
				"x": -1.6210545241,
				"y": -4.4855650143,
				"z": 1.0978831837,
				"element": "H" 
			},
			{
				"x": 0.710831878,
				"y": -3.7642030845,
				"z": 0.4718324697,
				"element": "H" 
			},
			{
				"x": 4.1891338916,
				"y": -0.8498724686,
				"z": -0.2913693082,
				"element": "H" 
			},
			{
				"x": 6.2281570443,
				"y": 0.4502382739,
				"z": -0.7765900376,
				"element": "H" 
			},
			{
				"x": 6.2248541908,
				"y": 2.9402607671,
				"z": -0.5507994818,
				"element": "H" 
			},
			{
				"x": 4.1230291022,
				"y": 4.0776210224,
				"z": 0.1727905123,
				"element": "H" 
			}
		],
		 "valence_orbital": [ 
			{
				"type": "occ",
				"energy": -0.2763,
				"method": "rhf"
			},
			{
				"type": "occ",
				"energy": -0.26279,
				"method": "rhf"
			},
			{
				"type": "occ",
				"energy": -0.25933,
				"method": "rhf"
			},
			{
				"type": "occ",
				"energy": -0.2461,
				"method": "rhf"
			},
			{
				"type": "occ",
				"energy": -0.23541,
				"method": "rhf"
			},
			{
				"type": "unocc",
				"energy": -0.09226,
				"method": "rhf"
			},
			{
				"type": "unocc",
				"energy": -0.07354,
				"method": "rhf"
			},
			{
				"type": "unocc",
				"energy": -0.04303,
				"method": "rhf"
			},
			{
				"type": "unocc",
				"energy": -0.01308,
				"method": "rhf"
			},
			{
				"type": "unocc",
				"energy": 0.00361,
				"method": "rhf"
			}
		],
		"cosmo_sigma_profile": { 
			"-0.025": 0.0,
			"-0.024": 0.0,
			"-0.023": 0.0,
			"-0.022": 0.0,
			"-0.021": 0.0,
			"-0.02": 0.0,
			"-0.019": 0.0,
			"-0.018": 0.0,
			"-0.017": 0.0,
			"-0.016": 0.0,
			"-0.015": 0.0,
			"-0.014": 0.0,
			"-0.013": 0.0,
			"-0.012": 0.0,
			"-0.011": 0.0,
			"-0.01": 0.0,
			"-0.009": 0.0,
			"-0.008": 2.63853937798,
			"-0.007": 13.2252874158,
			"-0.006": 20.4543722465,
			"-0.005": 22.3623928332,
			"-0.004": 18.2007552963,
			"-0.003": 17.6866006387,
			"-0.002": 21.5944552883,
			"-0.001": 26.3563373444,
			"0.0": 29.399424347,
			"0.001": 31.9035538,
			"0.002": 30.958144578,
			"0.003": 21.6443178383,
			"0.004": 9.30682300348,
			"0.005": 7.17210291737,
			"0.006": 9.20524024406,
			"0.007": 8.86129748735,
			"0.008": 6.48870291878,
			"0.009": 5.4924150576,
			"0.01": 4.69951647203,
			"0.011": 2.85455056035,
			"0.012": 1.41025187942,
			"0.013": 0.0,
			"0.014": 0.0,
			"0.015": 0.0,
			"0.016": 0.0,
			"0.017": 0.0,
			"0.018": 0.0,
			"0.019": 0.0,
			"0.02": 0.0,
			"0.021": 0.0,
			"0.022": 0.0,
			"0.023": 0.0,
			"0.024": 0.0,
			"0.025": 0.0
		}
	}
}
