{
	 "smiles": "CC12CCC3C(CCC4CC(CCC34C)OCC3=CC=CC=C3)C1CCC2=O", 
	 "Tm": 491.15, 
	 "num_atms": 64, 
	 "gaussian": { 
		 "optdone": 1, 
		 "sigma_profile": "yes", 
		 "theory": "DFT", 
		 "functional": "B3LYP", 
		 "basiset": "6-31G**", 
		 "properties": { 
			 "R2extent": 13487.194, 
			 "electric_dipole_moment_norm": 1.9236862582, 
			 "electric_quadrupole_moment_norm": 24.3793412282, 
			 "total_energy": -1162.91346217, 
			 "HOMO_LUMO_gap": 0.21709, 
			 "cosmo_polarized_energy": -11.72, 
			 "cosmo_cavitation_energy": 56.4, 
			 "cosmo_dispersion_energy": -37.65, 
			 "cosmo_repulsion_energy": 2.82, 
			 "cosmo_total_nonelectrostatic_energy": 21.57, 
			 "SMD_solvation_energy": 8.16 
		},
		"coords": [
			{
				"x": -3.3842405934,
				"y": 0.6437470173,
				"z": 1.2364203919,
				"element": "C" 
			},
			{
				"x": -2.0985316954,
				"y": 1.4827140818,
				"z": 1.3607068427,
				"element": "C" 
			},
			{
				"x": -1.6854429978,
				"y": 2.0160287484,
				"z": -0.0459441504,
				"element": "C" 
			},
			{
				"x": -0.1713046353,
				"y": 2.0218257883,
				"z": -0.2789730461,
				"element": "C" 
			},
			{
				"x": 0.3698237828,
				"y": 0.5831862243,
				"z": -0.1869470529,
				"element": "C" 
			},
			{
				"x": 0.0214914122,
				"y": -0.0897761083,
				"z": 1.19588356,
				"element": "C" 
			},
			{
				"x": 1.2580147643,
				"y": -0.5306587705,
				"z": 2.0021328118,
				"element": "C" 
			},
			{
				"x": 2.2777679185,
				"y": -1.3616779019,
				"z": 1.1967777068,
				"element": "C" 
			},
			{
				"x": 2.3188124404,
				"y": -1.0401699994,
				"z": -0.3219372483,
				"element": "C" 
			},
			{
				"x": 1.5342839199,
				"y": -2.116345151,
				"z": -1.1148718294,
				"element": "C" 
			},
			{
				"x": 1.2972226885,
				"y": -1.7794129158,
				"z": -2.5986591791,
				"element": "C" 
			},
			{
				"x": 2.2228184885,
				"y": -0.6464298031,
				"z": -3.0400669973,
				"element": "C" 
			},
			{
				"x": 1.9418128173,
				"y": 0.6239502078,
				"z": -2.2175808453,
				"element": "C" 
			},
			{
				"x": 1.8569373575,
				"y": 0.4089679742,
				"z": -0.6580017248,
				"element": "C" 
			},
			{
				"x": 2.8144832788,
				"y": 1.4337130676,
				"z": -0.0077497921,
				"element": "C" 
			},
			{
				"x": 1.5175380563,
				"y": -2.9834067687,
				"z": -3.3480247183,
				"element": "O" 
			},
			{
				"x": 0.8570556301,
				"y": -3.0380370812,
				"z": -4.6026183323,
				"element": "C" 
			},
			{
				"x": -0.6393146238,
				"y": -3.2836408157,
				"z": -4.4986343899,
				"element": "C" 
			},
			{
				"x": -1.1497952911,
				"y": -4.1335197415,
				"z": -3.5087099893,
				"element": "C" 
			},
			{
				"x": -2.5172175399,
				"y": -4.399038935,
				"z": -3.4392325616,
				"element": "C" 
			},
			{
				"x": -3.3934320816,
				"y": -3.8219656916,
				"z": -4.3621913492,
				"element": "C" 
			},
			{
				"x": -2.8935637994,
				"y": -2.9733403053,
				"z": -5.350954949,
				"element": "C" 
			},
			{
				"x": -1.5248025018,
				"y": -2.7032226925,
				"z": -5.4134661893,
				"element": "C" 
			},
			{
				"x": -0.9458996108,
				"y": 0.730398865,
				"z": 2.0979916205,
				"element": "C" 
			},
			{
				"x": -0.2945110087,
				"y": 1.7902147669,
				"z": 3.034820783,
				"element": "C" 
			},
			{
				"x": -1.4636060584,
				"y": 2.6759862502,
				"z": 3.4804408054,
				"element": "C" 
			},
			{
				"x": -2.4011580277,
				"y": 2.6902484561,
				"z": 2.2796341002,
				"element": "C" 
			},
			{
				"x": -3.2581026554,
				"y": 3.5200118485,
				"z": 2.0589264338,
				"element": "O" 
			},
			{
				"x": -4.1783110349,
				"y": 1.2398122582,
				"z": 0.7767939164,
				"element": "H" 
			},
			{
				"x": -3.2089948194,
				"y": -0.2403815051,
				"z": 0.6136388114,
				"element": "H" 
			},
			{
				"x": -3.7415823366,
				"y": 0.3029934722,
				"z": 2.2146989823,
				"element": "H" 
			},
			{
				"x": -2.1198568907,
				"y": 3.0111064928,
				"z": -0.1892905389,
				"element": "H" 
			},
			{
				"x": -2.1410728389,
				"y": 1.3730590087,
				"z": -0.8104571394,
				"element": "H" 
			},
			{
				"x": 0.0326437256,
				"y": 2.4370349956,
				"z": -1.2726520364,
				"element": "H" 
			},
			{
				"x": 0.3295249319,
				"y": 2.6882721516,
				"z": 0.4315741513,
				"element": "H" 
			},
			{
				"x": -0.2192745157,
				"y": 0.0275742972,
				"z": -0.9292548689,
				"element": "H" 
			},
			{
				"x": -0.523815228,
				"y": -1.0105428101,
				"z": 0.9490637581,
				"element": "H" 
			},
			{
				"x": 1.7562028994,
				"y": 0.3529162039,
				"z": 2.4098643305,
				"element": "H" 
			},
			{
				"x": 0.925433399,
				"y": -1.1055095234,
				"z": 2.8759329256,
				"element": "H" 
			},
			{
				"x": 2.0584226306,
				"y": -2.4296241917,
				"z": 1.3151773188,
				"element": "H" 
			},
			{
				"x": 3.2703461101,
				"y": -1.2146230856,
				"z": 1.6369051144,
				"element": "H" 
			},
			{
				"x": 3.3657139452,
				"y": -1.114154156,
				"z": -0.6418514047,
				"element": "H" 
			},
			{
				"x": 0.5774059084,
				"y": -2.3332136176,
				"z": -0.6265296521,
				"element": "H" 
			},
			{
				"x": 2.1094362798,
				"y": -3.0484593989,
				"z": -1.0835245641,
				"element": "H" 
			},
			{
				"x": 0.2550401773,
				"y": -1.4585959966,
				"z": -2.7468241605,
				"element": "H" 
			},
			{
				"x": 2.0862387921,
				"y": -0.4250038367,
				"z": -4.1049010446,
				"element": "H" 
			},
			{
				"x": 3.2621808916,
				"y": -0.9749185962,
				"z": -2.9217889841,
				"element": "H" 
			},
			{
				"x": 2.7166551882,
				"y": 1.3635616242,
				"z": -2.4466572384,
				"element": "H" 
			},
			{
				"x": 1.0025537451,
				"y": 1.0614504228,
				"z": -2.5759529453,
				"element": "H" 
			},
			{
				"x": 2.8006529481,
				"y": 1.4164585797,
				"z": 1.0838871945,
				"element": "H" 
			},
			{
				"x": 3.8443785365,
				"y": 1.2350305911,
				"z": -0.3265626937,
				"element": "H" 
			},
			{
				"x": 2.5706260144,
				"y": 2.4531556589,
				"z": -0.3235257033,
				"element": "H" 
			},
			{
				"x": 1.0423978048,
				"y": -2.1317941465,
				"z": -5.1987911909,
				"element": "H" 
			},
			{
				"x": 1.3325414162,
				"y": -3.8701569255,
				"z": -5.136405908,
				"element": "H" 
			},
			{
				"x": -0.4637768988,
				"y": -4.5746066587,
				"z": -2.7918835514,
				"element": "H" 
			},
			{
				"x": -2.9007003036,
				"y": -5.0586296281,
				"z": -2.6654383416,
				"element": "H" 
			},
			{
				"x": -4.458354633,
				"y": -4.0295897044,
				"z": -4.3081683672,
				"element": "H" 
			},
			{
				"x": -3.5686877541,
				"y": -2.5142753548,
				"z": -6.0678742837,
				"element": "H" 
			},
			{
				"x": -1.1412490569,
				"y": -2.0340143925,
				"z": -6.180754605,
				"element": "H" 
			},
			{
				"x": -1.4221969402,
				"y": 0.0014746385,
				"z": 2.769811853,
				"element": "H" 
			},
			{
				"x": 0.4472050221,
				"y": 2.3933824444,
				"z": 2.500524918,
				"element": "H" 
			},
			{
				"x": 0.2223341592,
				"y": 1.3262032548,
				"z": 3.8785818228,
				"element": "H" 
			},
			{
				"x": -1.2004572845,
				"y": 3.690383235,
				"z": 3.7909780834,
				"element": "H" 
			},
			{
				"x": -2.0080434249,
				"y": 2.2122735838,
				"z": 4.3157853302,
				"element": "H" 
			}
		],
		 "valence_orbital": [ 
			{
				"type": "occ",
				"energy": -0.27318,
				"method": "rhf"
			},
			{
				"type": "occ",
				"energy": -0.25047,
				"method": "rhf"
			},
			{
				"type": "occ",
				"energy": -0.24803,
				"method": "rhf"
			},
			{
				"type": "occ",
				"energy": -0.24097,
				"method": "rhf"
			},
			{
				"type": "occ",
				"energy": -0.23138,
				"method": "rhf"
			},
			{
				"type": "unocc",
				"energy": -0.01429,
				"method": "rhf"
			},
			{
				"type": "unocc",
				"energy": -0.00256,
				"method": "rhf"
			},
			{
				"type": "unocc",
				"energy": -0.00012,
				"method": "rhf"
			},
			{
				"type": "unocc",
				"energy": 0.0573,
				"method": "rhf"
			},
			{
				"type": "unocc",
				"energy": 0.0759,
				"method": "rhf"
			}
		],
		"cosmo_sigma_profile": { 
			"-0.025": 0.0,
			"-0.024": 0.0,
			"-0.023": 0.0,
			"-0.022": 0.0,
			"-0.021": 0.0,
			"-0.02": 0.0,
			"-0.019": 0.0,
			"-0.018": 0.0,
			"-0.017": 0.0,
			"-0.016": 0.0,
			"-0.015": 0.0,
			"-0.014": 0.0,
			"-0.013": 0.0,
			"-0.012": 0.0,
			"-0.011": 0.0,
			"-0.01": 0.0,
			"-0.009": 0.0,
			"-0.008": 0.0,
			"-0.007": 0.0,
			"-0.006": 3.61083052917,
			"-0.005": 19.1861116914,
			"-0.004": 23.8207888554,
			"-0.003": 42.6604375351,
			"-0.002": 75.043074048,
			"-0.001": 75.9203736518,
			"0.0": 58.0495587956,
			"0.001": 41.8460273763,
			"0.002": 22.1076024832,
			"0.003": 12.1648963303,
			"0.004": 11.8903386197,
			"0.005": 10.9984361279,
			"0.006": 11.7657075492,
			"0.007": 5.10933597942,
			"0.008": 2.54615310111,
			"0.009": 2.23543032936,
			"0.01": 3.44963353042,
			"0.011": 3.40397031912,
			"0.012": 5.58497615345,
			"0.013": 3.73189625842,
			"0.014": 0.663526623504,
			"0.015": 0.0,
			"0.016": 0.0,
			"0.017": 0.0,
			"0.018": 0.0,
			"0.019": 0.0,
			"0.02": 0.0,
			"0.021": 0.0,
			"0.022": 0.0,
			"0.023": 0.0,
			"0.024": 0.0,
			"0.025": 0.0
		}
	}
}
