{
	 "smiles": "OC(=O)[C@H](CC1=CC=C(O)C=C1)NC(=O)OCC1=CC=CC=C1", 
	 "Tm": 369.15, 
	 "num_atms": 40, 
	 "gaussian": { 
		 "optdone": 1, 
		 "sigma_profile": "yes", 
		 "theory": "DFT", 
		 "functional": "B3LYP", 
		 "basiset": "6-31G**", 
		 "properties": { 
			 "R2extent": 7394.2234, 
			 "electric_dipole_moment_norm": 4.63440630286, 
			 "electric_quadrupole_moment_norm": 12.7081057007, 
			 "total_energy": -1088.95762103, 
			 "HOMO_LUMO_gap": 0.19613, 
			 "cosmo_polarized_energy": -24.4, 
			 "cosmo_cavitation_energy": 44.21, 
			 "cosmo_dispersion_energy": -28.1, 
			 "cosmo_repulsion_energy": 2.11, 
			 "cosmo_total_nonelectrostatic_energy": 18.22, 
			 "SMD_solvation_energy": 9.29 
		},
		"coords": [
			{
				"x": -1.911353391,
				"y": 3.2297779864,
				"z": -2.6465885923,
				"element": "O" 
			},
			{
				"x": -1.4238515404,
				"y": 3.2304330182,
				"z": -1.3922758897,
				"element": "C" 
			},
			{
				"x": -1.5860418984,
				"y": 4.1613946818,
				"z": -0.6410634958,
				"element": "O" 
			},
			{
				"x": -0.689522043,
				"y": 1.9357600308,
				"z": -0.9717919244,
				"element": "C" 
			},
			{
				"x": 0.4716218878,
				"y": 2.2489524416,
				"z": 0.0003709529,
				"element": "C" 
			},
			{
				"x": 0.9321878525,
				"y": 1.0433060412,
				"z": 0.7861052437,
				"element": "C" 
			},
			{
				"x": 1.844840779,
				"y": 0.1226683976,
				"z": 0.2573050769,
				"element": "C" 
			},
			{
				"x": 2.2008468761,
				"y": -1.0288735306,
				"z": 0.9580624663,
				"element": "C" 
			},
			{
				"x": 1.6439401605,
				"y": -1.2791103899,
				"z": 2.215818323,
				"element": "C" 
			},
			{
				"x": 1.9378780685,
				"y": -2.3979589792,
				"z": 2.9434532124,
				"element": "O" 
			},
			{
				"x": 0.7529640592,
				"y": -0.3569942655,
				"z": 2.7749721259,
				"element": "C" 
			},
			{
				"x": 0.4056880663,
				"y": 0.7856190737,
				"z": 2.0609928036,
				"element": "C" 
			},
			{
				"x": -0.2770448209,
				"y": 1.172365939,
				"z": -2.1540009535,
				"element": "N" 
			},
			{
				"x": -0.4449414262,
				"y": -0.1923096868,
				"z": -2.3435594615,
				"element": "C" 
			},
			{
				"x": 0.1637969998,
				"y": -0.8133298247,
				"z": -3.1944705547,
				"element": "O" 
			},
			{
				"x": -1.3924064897,
				"y": -0.6990064016,
				"z": -1.5305716851,
				"element": "O" 
			},
			{
				"x": -1.7030749354,
				"y": -2.1107334478,
				"z": -1.7216911881,
				"element": "C" 
			},
			{
				"x": -0.7864958937,
				"y": -3.0312652333,
				"z": -0.9533574295,
				"element": "C" 
			},
			{
				"x": -1.0663954446,
				"y": -3.3548748162,
				"z": 0.380470055,
				"element": "C" 
			},
			{
				"x": -0.2404834977,
				"y": -4.2279487844,
				"z": 1.0889648895,
				"element": "C" 
			},
			{
				"x": 0.8756296132,
				"y": -4.7907912757,
				"z": 0.4646620679,
				"element": "C" 
			},
			{
				"x": 1.166725048,
				"y": -4.4684224901,
				"z": -0.8635799508,
				"element": "C" 
			},
			{
				"x": 0.3414128466,
				"y": -3.5915640607,
				"z": -1.5686540371,
				"element": "C" 
			},
			{
				"x": -1.632424611,
				"y": 2.3914009408,
				"z": -3.0605804776,
				"element": "H" 
			},
			{
				"x": -1.4333837981,
				"y": 1.3269391024,
				"z": -0.4498015942,
				"element": "H" 
			},
			{
				"x": 0.1150227973,
				"y": 3.0344065924,
				"z": 0.6712981434,
				"element": "H" 
			},
			{
				"x": 1.3001819048,
				"y": 2.6826556303,
				"z": -0.575585626,
				"element": "H" 
			},
			{
				"x": 2.2874758855,
				"y": 0.2978370327,
				"z": -0.7200158901,
				"element": "H" 
			},
			{
				"x": 2.9014178983,
				"y": -1.7369872863,
				"z": 0.5223570267,
				"element": "H" 
			},
			{
				"x": 2.4252168691,
				"y": -3.0141506717,
				"z": 2.3810730831,
				"element": "H" 
			},
			{
				"x": 0.3398158316,
				"y": -0.5552728408,
				"z": 3.7585666168,
				"element": "H" 
			},
			{
				"x": -0.2944841315,
				"y": 1.4917640354,
				"z": 2.50112756,
				"element": "H" 
			},
			{
				"x": 0.5646923234,
				"y": 1.4927077068,
				"z": -2.6190960806,
				"element": "H" 
			},
			{
				"x": -2.7305430711,
				"y": -2.1946630518,
				"z": -1.3624848565,
				"element": "H" 
			},
			{
				"x": -1.6692881005,
				"y": -2.3252903117,
				"z": -2.7911861259,
				"element": "H" 
			},
			{
				"x": -1.938673617,
				"y": -2.924038819,
				"z": 0.8654840707,
				"element": "H" 
			},
			{
				"x": -0.4675031438,
				"y": -4.4697435204,
				"z": 2.1226405141,
				"element": "H" 
			},
			{
				"x": 1.5071697957,
				"y": -5.4902285508,
				"z": 1.006857309,
				"element": "H" 
			},
			{
				"x": 2.0311827742,
				"y": -4.9072738378,
				"z": -1.3540439038,
				"element": "H" 
			},
			{
				"x": 0.5692035165,
				"y": -3.326656574,
				"z": -2.5959818236,
				"element": "H" 
			}
		],
		 "valence_orbital": [ 
			{
				"type": "occ",
				"energy": -0.26242,
				"method": "rhf"
			},
			{
				"type": "occ",
				"energy": -0.26058,
				"method": "rhf"
			},
			{
				"type": "occ",
				"energy": -0.25905,
				"method": "rhf"
			},
			{
				"type": "occ",
				"energy": -0.25351,
				"method": "rhf"
			},
			{
				"type": "occ",
				"energy": -0.21993,
				"method": "rhf"
			},
			{
				"type": "unocc",
				"energy": -0.0238,
				"method": "rhf"
			},
			{
				"type": "unocc",
				"energy": -0.01093,
				"method": "rhf"
			},
			{
				"type": "unocc",
				"energy": -0.00725,
				"method": "rhf"
			},
			{
				"type": "unocc",
				"energy": 0.0042,
				"method": "rhf"
			},
			{
				"type": "unocc",
				"energy": 0.00999,
				"method": "rhf"
			}
		],
		"cosmo_sigma_profile": { 
			"-0.025": 0.0,
			"-0.024": 0.0,
			"-0.023": 0.0,
			"-0.022": 0.0,
			"-0.021": 0.0,
			"-0.02": 0.0,
			"-0.019": 0.0,
			"-0.018": 0.0,
			"-0.017": 0.0,
			"-0.016": 0.103135421783,
			"-0.015": 1.35099663166,
			"-0.014": 3.78391622409,
			"-0.013": 3.10797122754,
			"-0.012": 2.64552999742,
			"-0.011": 4.0264031389,
			"-0.01": 3.98448757409,
			"-0.009": 4.54254308514,
			"-0.008": 5.17535938239,
			"-0.007": 7.31246622344,
			"-0.006": 20.0665371088,
			"-0.005": 26.3575027773,
			"-0.004": 28.3556868752,
			"-0.003": 25.3327650468,
			"-0.002": 19.1593615033,
			"-0.001": 17.6936042296,
			"0.0": 16.7717575804,
			"0.001": 15.1362539664,
			"0.002": 16.5830506026,
			"0.003": 20.3986410953,
			"0.004": 25.0094390231,
			"0.005": 24.9485494036,
			"0.006": 14.9618415475,
			"0.007": 4.47913802593,
			"0.008": 4.76704485372,
			"0.009": 7.65079660178,
			"0.01": 7.10919787457,
			"0.011": 8.33652040862,
			"0.012": 8.40705733808,
			"0.013": 3.06942156707,
			"0.014": 0.0146723348133,
			"0.015": 0.0,
			"0.016": 0.0,
			"0.017": 0.0,
			"0.018": 0.0,
			"0.019": 0.0,
			"0.02": 0.0,
			"0.021": 0.0,
			"0.022": 0.0,
			"0.023": 0.0,
			"0.024": 0.0,
			"0.025": 0.0
		}
	}
}
