{
	 "smiles": "NS(=O)(=O)N1CCCNCC1", 
	 "Tm": 392.15, 
	 "num_atms": 24, 
	 "gaussian": { 
		 "optdone": 1, 
		 "sigma_profile": "yes", 
		 "theory": "DFT", 
		 "functional": "B3LYP", 
		 "basiset": "6-31G**", 
		 "properties": { 
			 "R2extent": 2149.2697, 
			 "electric_dipole_moment_norm": 5.71829803875, 
			 "electric_quadrupole_moment_norm": 14.6205558366, 
			 "total_energy": -911.167340157, 
			 "HOMO_LUMO_gap": 0.27194, 
			 "cosmo_polarized_energy": -18.92, 
			 "cosmo_cavitation_energy": 26.24, 
			 "cosmo_dispersion_energy": -19.93, 
			 "cosmo_repulsion_energy": 1.55, 
			 "cosmo_total_nonelectrostatic_energy": 7.85, 
			 "SMD_solvation_energy": 1.1 
		},
		"coords": [
			{
				"x": -2.0110062376,
				"y": -0.7577546026,
				"z": 1.2337127782,
				"element": "N" 
			},
			{
				"x": -1.7891655637,
				"y": -0.5613769122,
				"z": -0.4171263169,
				"element": "S" 
			},
			{
				"x": -2.809521886,
				"y": 0.363586747,
				"z": -0.8924735814,
				"element": "O" 
			},
			{
				"x": -1.6740138722,
				"y": -1.9226015984,
				"z": -0.9414698529,
				"element": "O" 
			},
			{
				"x": -0.3187492168,
				"y": 0.2747001864,
				"z": -0.5413191712,
				"element": "N" 
			},
			{
				"x": -0.2520527679,
				"y": 1.2754336781,
				"z": -1.6305405674,
				"element": "C" 
			},
			{
				"x": 1.0486258595,
				"y": 2.0974689355,
				"z": -1.5903194875,
				"element": "C" 
			},
			{
				"x": 1.6004119917,
				"y": 2.4221806271,
				"z": -0.1922848252,
				"element": "C" 
			},
			{
				"x": 2.4514977886,
				"y": 1.337427036,
				"z": 0.3104270319,
				"element": "N" 
			},
			{
				"x": 1.7575751045,
				"y": 0.1580267774,
				"z": 0.8116014838,
				"element": "C" 
			},
			{
				"x": 0.8917261663,
				"y": -0.5182734609,
				"z": -0.2564716859,
				"element": "C" 
			},
			{
				"x": -1.859908058,
				"y": 0.1003721707,
				"z": 1.753451042,
				"element": "H" 
			},
			{
				"x": -1.4937147262,
				"y": -1.5473111879,
				"z": 1.6038160405,
				"element": "H" 
			},
			{
				"x": -0.3457997938,
				"y": 0.8013834369,
				"z": -2.6184000229,
				"element": "H" 
			},
			{
				"x": -1.1146681172,
				"y": 1.9300534109,
				"z": -1.5023806526,
				"element": "H" 
			},
			{
				"x": 1.8471291411,
				"y": 1.5877877832,
				"z": -2.1389536773,
				"element": "H" 
			},
			{
				"x": 0.84489384,
				"y": 3.0296785553,
				"z": -2.1301130082,
				"element": "H" 
			},
			{
				"x": 0.77097216,
				"y": 2.679879134,
				"z": 0.4915776812,
				"element": "H" 
			},
			{
				"x": 2.2373940293,
				"y": 3.3093302195,
				"z": -0.2712410929,
				"element": "H" 
			},
			{
				"x": 3.0597719717,
				"y": 1.6965442365,
				"z": 1.0398935617,
				"element": "H" 
			},
			{
				"x": 2.5196440561,
				"y": -0.5570365868,
				"z": 1.1463994356,
				"element": "H" 
			},
			{
				"x": 1.0989630714,
				"y": 0.3683899253,
				"z": 1.6769720762,
				"element": "H" 
			},
			{
				"x": 1.4710994456,
				"y": -0.6854438882,
				"z": -1.1723700098,
				"element": "H" 
			},
			{
				"x": 0.5903956138,
				"y": -1.506544623,
				"z": 0.100012821,
				"element": "H" 
			}
		],
		 "valence_orbital": [ 
			{
				"type": "occ",
				"energy": -0.31928,
				"method": "rhf"
			},
			{
				"type": "occ",
				"energy": -0.30538,
				"method": "rhf"
			},
			{
				"type": "occ",
				"energy": -0.29786,
				"method": "rhf"
			},
			{
				"type": "occ",
				"energy": -0.24473,
				"method": "rhf"
			},
			{
				"type": "occ",
				"energy": -0.2323,
				"method": "rhf"
			},
			{
				"type": "unocc",
				"energy": 0.03964,
				"method": "rhf"
			},
			{
				"type": "unocc",
				"energy": 0.06938,
				"method": "rhf"
			},
			{
				"type": "unocc",
				"energy": 0.08016,
				"method": "rhf"
			},
			{
				"type": "unocc",
				"energy": 0.08904,
				"method": "rhf"
			},
			{
				"type": "unocc",
				"energy": 0.09054,
				"method": "rhf"
			}
		],
		"cosmo_sigma_profile": { 
			"-0.025": 0.0,
			"-0.024": 0.0,
			"-0.023": 0.0,
			"-0.022": 0.0,
			"-0.021": 0.0,
			"-0.02": 0.0,
			"-0.019": 0.0,
			"-0.018": 0.0,
			"-0.017": 0.0,
			"-0.016": 0.0,
			"-0.015": 0.96822726501,
			"-0.014": 2.24087462116,
			"-0.013": 2.37726766916,
			"-0.012": 2.92907472951,
			"-0.011": 3.06066209916,
			"-0.01": 2.77952567889,
			"-0.009": 3.34809750034,
			"-0.008": 3.44461058498,
			"-0.007": 3.32068257004,
			"-0.006": 4.09117853447,
			"-0.005": 6.44157379574,
			"-0.004": 22.8100562637,
			"-0.003": 23.506947441,
			"-0.002": 21.5388948074,
			"-0.001": 17.3330494282,
			"0.0": 12.166358231,
			"0.001": 5.09336172486,
			"0.002": 4.99672951525,
			"0.003": 4.58756612141,
			"0.004": 4.71317901761,
			"0.005": 4.69581373175,
			"0.006": 3.59716828309,
			"0.007": 4.5011399797,
			"0.008": 4.76912461971,
			"0.009": 4.59176098492,
			"0.01": 8.93214730314,
			"0.011": 11.5801872705,
			"0.012": 6.28152511226,
			"0.013": 0.765294438096,
			"0.014": 0.315554962551,
			"0.015": 0.628518619872,
			"0.016": 0.389382482054,
			"0.017": 0.383813770917,
			"0.018": 0.0435828646052,
			"0.019": 0.0,
			"0.02": 0.0,
			"0.021": 0.0,
			"0.022": 0.0,
			"0.023": 0.0,
			"0.024": 0.0,
			"0.025": 0.0
		}
	}
}
