{
	 "smiles": "CCCCCCCCCCCCCCCCC(C)=C", 
	 "Tm": 287.15, 
	 "num_atms": 57, 
	 "gaussian": { 
		 "optdone": 1, 
		 "sigma_profile": "yes", 
		 "theory": "DFT", 
		 "functional": "B3LYP", 
		 "basiset": "6-31G**", 
		 "properties": { 
			 "R2extent": 8806.4108, 
			 "electric_dipole_moment_norm": 0.558903453201, 
			 "electric_quadrupole_moment_norm": 3.65958875285, 
			 "total_energy": -746.956135507, 
			 "HOMO_LUMO_gap": 0.26586, 
			 "cosmo_polarized_energy": -2.39, 
			 "cosmo_cavitation_energy": 55.46, 
			 "cosmo_dispersion_energy": -33.22, 
			 "cosmo_repulsion_energy": 2.63, 
			 "cosmo_total_nonelectrostatic_energy": 24.87, 
			 "SMD_solvation_energy": 7.7 
		},
		"coords": [
			{
				"x": -2.6965412198,
				"y": 0.2377734527,
				"z": -1.8102638613,
				"element": "C" 
			},
			{
				"x": -3.4373545441,
				"y": -1.1028258605,
				"z": -1.8842035562,
				"element": "C" 
			},
			{
				"x": -3.4394682018,
				"y": -1.8968393637,
				"z": -0.5666864307,
				"element": "C" 
			},
			{
				"x": -2.0704549233,
				"y": -2.4713482848,
				"z": -0.1700596995,
				"element": "C" 
			},
			{
				"x": -2.0784933558,
				"y": -3.2156677256,
				"z": 1.1794681192,
				"element": "C" 
			},
			{
				"x": -2.1651517901,
				"y": -2.3151588226,
				"z": 2.4339541401,
				"element": "C" 
			},
			{
				"x": -0.81669377,
				"y": -1.9438284957,
				"z": 3.0768887027,
				"element": "C" 
			},
			{
				"x": 0.1517576452,
				"y": -1.1331783876,
				"z": 2.2029760461,
				"element": "C" 
			},
			{
				"x": 1.3995384301,
				"y": -0.6816364008,
				"z": 2.976338842,
				"element": "C" 
			},
			{
				"x": 2.4803521604,
				"y": 0.0093752462,
				"z": 2.1293750541,
				"element": "C" 
			},
			{
				"x": 2.0376014723,
				"y": 1.31148807,
				"z": 1.4463758614,
				"element": "C" 
			},
			{
				"x": 3.2090005678,
				"y": 2.0876555789,
				"z": 0.8236827834,
				"element": "C" 
			},
			{
				"x": 2.8035292939,
				"y": 3.3734351385,
				"z": 0.0639984201,
				"element": "C" 
			},
			{
				"x": 2.7484227208,
				"y": 3.2434715725,
				"z": -1.4682174359,
				"element": "C" 
			},
			{
				"x": 1.7156099488,
				"y": 2.2499121081,
				"z": -2.0169681995,
				"element": "C" 
			},
			{
				"x": 1.700091918,
				"y": 2.2215466258,
				"z": -3.5594557743,
				"element": "C" 
			},
			{
				"x": 0.6998483177,
				"y": 1.2591299751,
				"z": -4.1651057827,
				"element": "C" 
			},
			{
				"x": 0.9567331158,
				"y": -0.213635004,
				"z": -3.953335651,
				"element": "C" 
			},
			{
				"x": -0.3520259307,
				"y": 1.6945917802,
				"z": -4.8676632638,
				"element": "C" 
			},
			{
				"x": -3.1448856506,
				"y": 0.8917091952,
				"z": -1.0528138648,
				"element": "H" 
			},
			{
				"x": -1.6406809631,
				"y": 0.1089856035,
				"z": -1.5512728568,
				"element": "H" 
			},
			{
				"x": -2.7281851682,
				"y": 0.7657772319,
				"z": -2.7683878023,
				"element": "H" 
			},
			{
				"x": -2.9982155538,
				"y": -1.7222796542,
				"z": -2.6786844488,
				"element": "H" 
			},
			{
				"x": -4.4761266023,
				"y": -0.9170056584,
				"z": -2.1862688701,
				"element": "H" 
			},
			{
				"x": -3.8224459971,
				"y": -1.2502820585,
				"z": 0.2351947826,
				"element": "H" 
			},
			{
				"x": -4.1529489602,
				"y": -2.7283498998,
				"z": -0.6495034813,
				"element": "H" 
			},
			{
				"x": -1.7458209717,
				"y": -3.1645378695,
				"z": -0.9585279637,
				"element": "H" 
			},
			{
				"x": -1.3224215692,
				"y": -1.6710338663,
				"z": -0.1440562798,
				"element": "H" 
			},
			{
				"x": -2.9258008022,
				"y": -3.9143413793,
				"z": 1.176052977,
				"element": "H" 
			},
			{
				"x": -1.1797731874,
				"y": -3.8427260773,
				"z": 1.2544805022,
				"element": "H" 
			},
			{
				"x": -2.716041073,
				"y": -1.395696598,
				"z": 2.1940698134,
				"element": "H" 
			},
			{
				"x": -2.7641567727,
				"y": -2.825038037,
				"z": 3.1987222914,
				"element": "H" 
			},
			{
				"x": -0.3124545282,
				"y": -2.8653766475,
				"z": 3.4024911001,
				"element": "H" 
			},
			{
				"x": -1.0190466403,
				"y": -1.373945228,
				"z": 3.9947197717,
				"element": "H" 
			},
			{
				"x": 0.4643567693,
				"y": -1.7325259135,
				"z": 1.3370971325,
				"element": "H" 
			},
			{
				"x": -0.3719358366,
				"y": -0.2571627139,
				"z": 1.7976307412,
				"element": "H" 
			},
			{
				"x": 1.0919683968,
				"y": -0.0068649901,
				"z": 3.7882913056,
				"element": "H" 
			},
			{
				"x": 1.8469160211,
				"y": -1.5572332581,
				"z": 3.4668312055,
				"element": "H" 
			},
			{
				"x": 2.8482594783,
				"y": -0.6911475883,
				"z": 1.3656735385,
				"element": "H" 
			},
			{
				"x": 3.3414772101,
				"y": 0.2263399019,
				"z": 2.7766854116,
				"element": "H" 
			},
			{
				"x": 1.2848117215,
				"y": 1.0950212001,
				"z": 0.6784956759,
				"element": "H" 
			},
			{
				"x": 1.5392935132,
				"y": 1.9578611663,
				"z": 2.1836714055,
				"element": "H" 
			},
			{
				"x": 3.7702867921,
				"y": 1.4247127769,
				"z": 0.1495723759,
				"element": "H" 
			},
			{
				"x": 3.908466044,
				"y": 2.3456185606,
				"z": 1.6294142059,
				"element": "H" 
			},
			{
				"x": 3.5173660352,
				"y": 4.1719002463,
				"z": 0.3006463583,
				"element": "H" 
			},
			{
				"x": 1.8310774477,
				"y": 3.726090456,
				"z": 0.4351452316,
				"element": "H" 
			},
			{
				"x": 3.7452829392,
				"y": 2.9575369198,
				"z": -1.8343151944,
				"element": "H" 
			},
			{
				"x": 2.54481747,
				"y": 4.2349212724,
				"z": -1.896096304,
				"element": "H" 
			},
			{
				"x": 1.9294686629,
				"y": 1.2454187548,
				"z": -1.6320722841,
				"element": "H" 
			},
			{
				"x": 0.7136651759,
				"y": 2.5152478985,
				"z": -1.6537124777,
				"element": "H" 
			},
			{
				"x": 2.7095105915,
				"y": 1.9573750778,
				"z": -3.9103230565,
				"element": "H" 
			},
			{
				"x": 1.4981600926,
				"y": 3.2336876206,
				"z": -3.930144485,
				"element": "H" 
			},
			{
				"x": 1.9493351261,
				"y": -0.4955363072,
				"z": -4.3286774927,
				"element": "H" 
			},
			{
				"x": 0.2115602163,
				"y": -0.8296673998,
				"z": -4.4635121041,
				"element": "H" 
			},
			{
				"x": 0.9396829473,
				"y": -0.4787130529,
				"z": -2.8891877119,
				"element": "H" 
			},
			{
				"x": -0.530662476,
				"y": 2.754461985,
				"z": -5.028660923,
				"element": "H" 
			},
			{
				"x": -1.0679617538,
				"y": 1.0072371275,
				"z": -5.3105665398,
				"element": "H" 
			}
		],
		 "valence_orbital": [ 
			{
				"type": "occ",
				"energy": -0.3029,
				"method": "rhf"
			},
			{
				"type": "occ",
				"energy": -0.30068,
				"method": "rhf"
			},
			{
				"type": "occ",
				"energy": -0.29582,
				"method": "rhf"
			},
			{
				"type": "occ",
				"energy": -0.29258,
				"method": "rhf"
			},
			{
				"type": "occ",
				"energy": -0.23859,
				"method": "rhf"
			},
			{
				"type": "unocc",
				"energy": 0.02727,
				"method": "rhf"
			},
			{
				"type": "unocc",
				"energy": 0.06684,
				"method": "rhf"
			},
			{
				"type": "unocc",
				"energy": 0.09047,
				"method": "rhf"
			},
			{
				"type": "unocc",
				"energy": 0.09251,
				"method": "rhf"
			},
			{
				"type": "unocc",
				"energy": 0.09796,
				"method": "rhf"
			}
		],
		"cosmo_sigma_profile": { 
			"-0.025": 0.0,
			"-0.024": 0.0,
			"-0.023": 0.0,
			"-0.022": 0.0,
			"-0.021": 0.0,
			"-0.02": 0.0,
			"-0.019": 0.0,
			"-0.018": 0.0,
			"-0.017": 0.0,
			"-0.016": 0.0,
			"-0.015": 0.0,
			"-0.014": 0.0,
			"-0.013": 0.0,
			"-0.012": 0.0,
			"-0.011": 0.0,
			"-0.01": 0.0,
			"-0.009": 0.0,
			"-0.008": 0.0,
			"-0.007": 0.0,
			"-0.006": 0.0,
			"-0.005": 0.0120979668541,
			"-0.004": 3.23841996421,
			"-0.003": 14.633976094,
			"-0.002": 47.6603195411,
			"-0.001": 101.962199826,
			"0.0": 110.059521651,
			"0.001": 85.7671761976,
			"0.002": 39.2406049014,
			"0.003": 8.22520440752,
			"0.004": 5.71228656431,
			"0.005": 3.64333274949,
			"0.006": 2.13874294432,
			"0.007": 1.32058048528,
			"0.008": 0.510478651783,
			"0.009": 0.0,
			"0.01": 0.0,
			"0.011": 0.0,
			"0.012": 0.0,
			"0.013": 0.0,
			"0.014": 0.0,
			"0.015": 0.0,
			"0.016": 0.0,
			"0.017": 0.0,
			"0.018": 0.0,
			"0.019": 0.0,
			"0.02": 0.0,
			"0.021": 0.0,
			"0.022": 0.0,
			"0.023": 0.0,
			"0.024": 0.0,
			"0.025": 0.0
		}
	}
}
