{
	 "smiles": "CCC(=O)C1=CC=C(OCC(O)=O)C=C1", 
	 "Tm": 405.15, 
	 "num_atms": 27, 
	 "gaussian": { 
		 "optdone": 1, 
		 "sigma_profile": "yes", 
		 "theory": "DFT", 
		 "functional": "B3LYP", 
		 "basiset": "6-31G**", 
		 "properties": { 
			 "R2extent": 4803.6878, 
			 "electric_dipole_moment_norm": 5.08820919381, 
			 "electric_quadrupole_moment_norm": 16.0492894668, 
			 "total_energy": -727.299540608, 
			 "HOMO_LUMO_gap": 0.18891, 
			 "cosmo_polarized_energy": -17.58, 
			 "cosmo_cavitation_energy": 31.45, 
			 "cosmo_dispersion_energy": -22.47, 
			 "cosmo_repulsion_energy": 1.78, 
			 "cosmo_total_nonelectrostatic_energy": 10.75, 
			 "SMD_solvation_energy": 7.39 
		},
		"coords": [
			{
				"x": 2.5201315937,
				"y": 3.0133995318,
				"z": 2.0539804078,
				"element": "C" 
			},
			{
				"x": 2.4800578165,
				"y": 1.5174430171,
				"z": 2.4217763827,
				"element": "C" 
			},
			{
				"x": 2.1902504349,
				"y": 0.6448145819,
				"z": 1.2055370878,
				"element": "C" 
			},
			{
				"x": 3.1124915337,
				"y": 0.1238506595,
				"z": 0.5934390648,
				"element": "O" 
			},
			{
				"x": 0.7771679159,
				"y": 0.4625377579,
				"z": 0.7406818736,
				"element": "C" 
			},
			{
				"x": -0.3378405425,
				"y": 1.0011893886,
				"z": 1.4057544946,
				"element": "C" 
			},
			{
				"x": -1.6241856963,
				"y": 0.7919192627,
				"z": 0.9246312861,
				"element": "C" 
			},
			{
				"x": -1.8174629747,
				"y": 0.0369688832,
				"z": -0.2381913446,
				"element": "C" 
			},
			{
				"x": -3.1294505791,
				"y": -0.1014520068,
				"z": -0.6389794479,
				"element": "O" 
			},
			{
				"x": -3.4387865169,
				"y": -1.0587944448,
				"z": -1.649952478,
				"element": "C" 
			},
			{
				"x": -3.2690899098,
				"y": -0.503637441,
				"z": -3.0692392227,
				"element": "C" 
			},
			{
				"x": -3.2537071719,
				"y": 0.8397685044,
				"z": -3.1501081452,
				"element": "O" 
			},
			{
				"x": -3.2017272184,
				"y": -1.2194744349,
				"z": -4.0358954122,
				"element": "O" 
			},
			{
				"x": -0.7215123405,
				"y": -0.5042839202,
				"z": -0.9222888739,
				"element": "C" 
			},
			{
				"x": 0.5597728978,
				"y": -0.2863724239,
				"z": -0.4247694019,
				"element": "C" 
			},
			{
				"x": 1.5564309766,
				"y": 3.3645529412,
				"z": 1.6722622319,
				"element": "H" 
			},
			{
				"x": 3.2742446441,
				"y": 3.1973879153,
				"z": 1.2831248818,
				"element": "H" 
			},
			{
				"x": 2.7765774264,
				"y": 3.6159805337,
				"z": 2.9303612482,
				"element": "H" 
			},
			{
				"x": 1.7442113093,
				"y": 1.3433263261,
				"z": 3.2145832197,
				"element": "H" 
			},
			{
				"x": 3.4571154128,
				"y": 1.2042172916,
				"z": 2.7986537488,
				"element": "H" 
			},
			{
				"x": -0.2103298562,
				"y": 1.5849273848,
				"z": 2.3111098582,
				"element": "H" 
			},
			{
				"x": -2.4918940812,
				"y": 1.1950685139,
				"z": 1.4360895898,
				"element": "H" 
			},
			{
				"x": -4.4950802521,
				"y": -1.3083626352,
				"z": -1.5093195635,
				"element": "H" 
			},
			{
				"x": -2.8536938039,
				"y": -1.9758569951,
				"z": -1.5473653887,
				"element": "H" 
			},
			{
				"x": -3.310136672,
				"y": 1.1995947208,
				"z": -2.2478493476,
				"element": "H" 
			},
			{
				"x": -0.8491515651,
				"y": -1.0745057462,
				"z": -1.8354849835,
				"element": "H" 
			},
			{
				"x": 1.4253972191,
				"y": -0.6928071667,
				"z": -0.9369417661,
				"element": "H" 
			}
		],
		 "valence_orbital": [ 
			{
				"type": "occ",
				"energy": -0.32556,
				"method": "rhf"
			},
			{
				"type": "occ",
				"energy": -0.28326,
				"method": "rhf"
			},
			{
				"type": "occ",
				"energy": -0.27576,
				"method": "rhf"
			},
			{
				"type": "occ",
				"energy": -0.24914,
				"method": "rhf"
			},
			{
				"type": "occ",
				"energy": -0.248,
				"method": "rhf"
			},
			{
				"type": "unocc",
				"energy": -0.05909,
				"method": "rhf"
			},
			{
				"type": "unocc",
				"energy": -0.02665,
				"method": "rhf"
			},
			{
				"type": "unocc",
				"energy": -0.00327,
				"method": "rhf"
			},
			{
				"type": "unocc",
				"energy": 0.03452,
				"method": "rhf"
			},
			{
				"type": "unocc",
				"energy": 0.06793,
				"method": "rhf"
			}
		],
		"cosmo_sigma_profile": { 
			"-0.025": 0.0,
			"-0.024": 0.0,
			"-0.023": 0.0,
			"-0.022": 0.0,
			"-0.021": 0.0,
			"-0.02": 0.0,
			"-0.019": 0.0,
			"-0.018": 0.0,
			"-0.017": 0.0418703616501,
			"-0.016": 0.386371920249,
			"-0.015": 0.696137515406,
			"-0.014": 0.504000244218,
			"-0.013": 0.746311820417,
			"-0.012": 1.33911730354,
			"-0.011": 0.95081849375,
			"-0.01": 3.080276403,
			"-0.009": 5.37852569264,
			"-0.008": 6.2842591801,
			"-0.007": 10.9108456969,
			"-0.006": 13.2785228897,
			"-0.005": 12.6567178988,
			"-0.004": 14.5619245934,
			"-0.003": 17.1371271755,
			"-0.002": 21.8989293679,
			"-0.001": 21.4023704029,
			"0.0": 17.3323481605,
			"0.001": 15.1152563623,
			"0.002": 13.9541074411,
			"0.003": 16.1948118224,
			"0.004": 5.91038957046,
			"0.005": 3.38718223105,
			"0.006": 5.98218945727,
			"0.007": 4.3969004696,
			"0.008": 5.1550785731,
			"0.009": 5.58655024637,
			"0.01": 6.53813588279,
			"0.011": 7.77188958766,
			"0.012": 8.0457798629,
			"0.013": 2.75675685128,
			"0.014": 0.3772306021,
			"0.015": 0.0,
			"0.016": 0.0,
			"0.017": 0.0,
			"0.018": 0.0,
			"0.019": 0.0,
			"0.02": 0.0,
			"0.021": 0.0,
			"0.022": 0.0,
			"0.023": 0.0,
			"0.024": 0.0,
			"0.0": 0.0
		}
	}
}
