{
	 "smiles": "CC(C)C(N)=NO", 
	 "Tm": 333.65, 
	 "num_atms": 17, 
	 "gaussian": { 
		 "optdone": 1, 
		 "sigma_profile": "yes", 
		 "theory": "DFT", 
		 "functional": "B3LYP", 
		 "basiset": "6-31G**", 
		 "properties": { 
			 "R2extent": 1441.2185, 
			 "electric_dipole_moment_norm": 1.72187721688, 
			 "electric_quadrupole_moment_norm": 7.72940626116, 
			 "total_energy": -343.137259247, 
			 "HOMO_LUMO_gap": 0.25246, 
			 "cosmo_polarized_energy": -10.44, 
			 "cosmo_cavitation_energy": 19.72, 
			 "cosmo_dispersion_energy": -14.6, 
			 "cosmo_repulsion_energy": 1.27, 
			 "cosmo_total_nonelectrostatic_energy": 6.39, 
			 "SMD_solvation_energy": 3.73 
		},
		"coords": [
			{
				"x": 0.8493016911,
				"y": 1.2812554194,
				"z": 0.4861921856,
				"element": "C" 
			},
			{
				"x": 0.6824626886,
				"y": 1.5208006344,
				"z": -1.0294923415,
				"element": "C" 
			},
			{
				"x": -0.6542313234,
				"y": 2.208155652,
				"z": -1.3325348661,
				"element": "C" 
			},
			{
				"x": 0.8628030504,
				"y": 0.2233076816,
				"z": -1.7965034444,
				"element": "C" 
			},
			{
				"x": 2.1464648721,
				"y": -0.2651541501,
				"z": -1.9215458763,
				"element": "N" 
			},
			{
				"x": -0.1749191464,
				"y": -0.3404075241,
				"z": -2.3139087694,
				"element": "N" 
			},
			{
				"x": 0.2151129263,
				"y": -1.562509796,
				"z": -2.9502122402,
				"element": "O" 
			},
			{
				"x": 0.0530792817,
				"y": 0.6282880676,
				"z": 0.8582911385,
				"element": "H" 
			},
			{
				"x": 0.7967054086,
				"y": 2.229043549,
				"z": 1.0314968771,
				"element": "H" 
			},
			{
				"x": 1.8080978286,
				"y": 0.8116022718,
				"z": 0.73178849,
				"element": "H" 
			},
			{
				"x": 1.4952171276,
				"y": 2.1852694221,
				"z": -1.3575380708,
				"element": "H" 
			},
			{
				"x": -1.4938354992,
				"y": 1.5744560478,
				"z": -1.0358816958,
				"element": "H" 
			},
			{
				"x": -0.759688615,
				"y": 2.4152120233,
				"z": -2.4003030921,
				"element": "H" 
			},
			{
				"x": -0.7206363931,
				"y": 3.1540084705,
				"z": -0.7849494612,
				"element": "H" 
			},
			{
				"x": 2.8163379557,
				"y": 0.0185472157,
				"z": -1.22328248,
				"element": "H" 
			},
			{
				"x": 2.2026099513,
				"y": -1.2321887375,
				"z": -2.2095636178,
				"element": "H" 
			},
			{
				"x": -0.6321818048,
				"y": -1.8942862475,
				"z": -3.2692527357,
				"element": "H" 
			}
		],
		 "valence_orbital": [ 
			{
				"type": "occ",
				"energy": -0.34094,
				"method": "rhf"
			},
			{
				"type": "occ",
				"energy": -0.33651,
				"method": "rhf"
			},
			{
				"type": "occ",
				"energy": -0.29908,
				"method": "rhf"
			},
			{
				"type": "occ",
				"energy": -0.26211,
				"method": "rhf"
			},
			{
				"type": "occ",
				"energy": -0.20567,
				"method": "rhf"
			},
			{
				"type": "unocc",
				"energy": 0.04679,
				"method": "rhf"
			},
			{
				"type": "unocc",
				"energy": 0.07045,
				"method": "rhf"
			},
			{
				"type": "unocc",
				"energy": 0.08639,
				"method": "rhf"
			},
			{
				"type": "unocc",
				"energy": 0.12259,
				"method": "rhf"
			},
			{
				"type": "unocc",
				"energy": 0.14428,
				"method": "rhf"
			}
		],
		"cosmo_sigma_profile": { 
			"-0.025": 0.0,
			"-0.024": 0.0,
			"-0.023": 0.0,
			"-0.022": 0.0,
			"-0.021": 0.0,
			"-0.02": 0.0,
			"-0.019": 0.0,
			"-0.018": 0.0,
			"-0.017": 0.0435205485718,
			"-0.016": 0.912502981736,
			"-0.015": 0.705027308726,
			"-0.014": 1.00273329832,
			"-0.013": 1.54385470268,
			"-0.012": 1.60861404054,
			"-0.011": 2.24865435402,
			"-0.01": 2.50690382337,
			"-0.009": 3.58828060943,
			"-0.008": 2.94109289402,
			"-0.007": 2.8491159324,
			"-0.006": 3.07356172563,
			"-0.005": 3.17896766477,
			"-0.004": 5.57917601126,
			"-0.003": 12.5583850682,
			"-0.002": 15.1124526732,
			"-0.001": 15.2449220955,
			"0.0": 15.5273973184,
			"0.001": 16.1718246041,
			"0.002": 7.02613519578,
			"0.003": 3.21628506328,
			"0.004": 3.03791068148,
			"0.005": 3.09720248129,
			"0.006": 3.22556174696,
			"0.007": 3.72282431403,
			"0.008": 5.41672636051,
			"0.009": 5.38615118776,
			"0.01": 4.10536201027,
			"0.011": 3.01575791767,
			"0.012": 2.44757387701,
			"0.013": 1.63950867254,
			"0.014": 0.806182572465,
			"0.015": 0.149430418073,
			"0.016": 0.0,
			"0.017": 0.0,
			"0.018": 0.0,
			"0.019": 0.0,
			"0.02": 0.0,
			"0.021": 0.0,
			"0.022": 0.0,
			"0.023": 0.0,
			"0.024": 0.0,
			"0.025": 0.0
		}
	}
}
