{
	 "smiles": "O=C1CC2(CCCC2)CC(=O)O1", 
	 "Tm": 338.15, 
	 "num_atms": 24, 
	 "gaussian": { 
		 "optdone": 1, 
		 "sigma_profile": "yes", 
		 "theory": "DFT", 
		 "functional": "B3LYP", 
		 "basiset": "6-31G**", 
		 "properties": { 
			 "R2extent": 2304.0317, 
			 "electric_dipole_moment_norm": 5.59530655192, 
			 "electric_quadrupole_moment_norm": 11.2466576791, 
			 "total_energy": -575.882776512, 
			 "HOMO_LUMO_gap": 0.24309, 
			 "cosmo_polarized_energy": -13.58, 
			 "cosmo_cavitation_energy": 25.59, 
			 "cosmo_dispersion_energy": -18.78, 
			 "cosmo_repulsion_energy": 1.5, 
			 "cosmo_total_nonelectrostatic_energy": 8.3, 
			 "SMD_solvation_energy": 5.54 
		},
		"coords": [
			{
				"x": 1.7687017988,
				"y": 1.4898518623,
				"z": 0.6516485439,
				"element": "O" 
			},
			{
				"x": 0.7116636327,
				"y": 1.3826318712,
				"z": 0.0929942893,
				"element": "C" 
			},
			{
				"x": -0.5407052435,
				"y": 0.8043456999,
				"z": 0.7174025002,
				"element": "C" 
			},
			{
				"x": -1.4815985237,
				"y": 0.1311400102,
				"z": -0.2986180725,
				"element": "C" 
			},
			{
				"x": -2.7686459918,
				"y": -0.3814627115,
				"z": 0.3849268842,
				"element": "C" 
			},
			{
				"x": -2.3784309892,
				"y": -1.7242376541,
				"z": 1.045816491,
				"element": "C" 
			},
			{
				"x": -1.1422840931,
				"y": -2.2428148449,
				"z": 0.250390689,
				"element": "C" 
			},
			{
				"x": -0.8745127879,
				"y": -1.1860509004,
				"z": -0.8460458406,
				"element": "C" 
			},
			{
				"x": -1.7624912069,
				"y": 1.1715887388,
				"z": -1.3881488702,
				"element": "C" 
			},
			{
				"x": -0.5142711228,
				"y": 1.7573786359,
				"z": -2.0133238287,
				"element": "C" 
			},
			{
				"x": -0.4391170967,
				"y": 2.168733537,
				"z": -3.1381981301,
				"element": "O" 
			},
			{
				"x": 0.6205893408,
				"y": 1.8445851703,
				"z": -1.2145976059,
				"element": "O" 
			},
			{
				"x": -0.2098969466,
				"y": 0.1288616318,
				"z": 1.509158848,
				"element": "H" 
			},
			{
				"x": -1.0646178703,
				"y": 1.635570577,
				"z": 1.2106335459,
				"element": "H" 
			},
			{
				"x": -3.186683922,
				"y": 0.3423773799,
				"z": 1.0933580328,
				"element": "H" 
			},
			{
				"x": -3.5295867289,
				"y": -0.5491549228,
				"z": -0.3875068156,
				"element": "H" 
			},
			{
				"x": -2.1230985236,
				"y": -1.5773444589,
				"z": 2.1001107244,
				"element": "H" 
			},
			{
				"x": -3.2106300083,
				"y": -2.4333831899,
				"z": 1.0252316944,
				"element": "H" 
			},
			{
				"x": -1.3147821155,
				"y": -3.2307898039,
				"z": -0.1854193548,
				"element": "H" 
			},
			{
				"x": -0.2749829139,
				"y": -2.343842289,
				"z": 0.9104776121,
				"element": "H" 
			},
			{
				"x": 0.1867197643,
				"y": -1.1003783474,
				"z": -1.1042614845,
				"element": "H" 
			},
			{
				"x": -1.4039365398,
				"y": -1.4562808868,
				"z": -1.7678108845,
				"element": "H" 
			},
			{
				"x": -2.328905439,
				"y": 2.0129655365,
				"z": -0.9630503632,
				"element": "H" 
			},
			{
				"x": -2.3651964732,
				"y": 0.7664093588,
				"z": -2.2050686045,
				"element": "H" 
			}
		],
		 "valence_orbital": [ 
			{
				"type": "occ",
				"energy": -0.3424,
				"method": "rhf"
			},
			{
				"type": "occ",
				"energy": -0.33341,
				"method": "rhf"
			},
			{
				"type": "occ",
				"energy": -0.32066,
				"method": "rhf"
			},
			{
				"type": "occ",
				"energy": -0.29485,
				"method": "rhf"
			},
			{
				"type": "occ",
				"energy": -0.27533,
				"method": "rhf"
			},
			{
				"type": "unocc",
				"energy": -0.03224,
				"method": "rhf"
			},
			{
				"type": "unocc",
				"energy": 0.00558,
				"method": "rhf"
			},
			{
				"type": "unocc",
				"energy": 0.05115,
				"method": "rhf"
			},
			{
				"type": "unocc",
				"energy": 0.0776,
				"method": "rhf"
			},
			{
				"type": "unocc",
				"energy": 0.09565,
				"method": "rhf"
			}
		],
		"cosmo_sigma_profile": { 
			"-0.025": 0.0,
			"-0.024": 0.0,
			"-0.023": 0.0,
			"-0.022": 0.0,
			"-0.021": 0.0,
			"-0.02": 0.0,
			"-0.019": 0.0,
			"-0.018": 0.0,
			"-0.017": 0.0,
			"-0.016": 0.0,
			"-0.015": 0.0,
			"-0.014": 0.0,
			"-0.013": 0.0,
			"-0.012": 0.0165282810646,
			"-0.011": 0.564876879666,
			"-0.01": 1.09537872054,
			"-0.009": 2.21652498561,
			"-0.008": 4.49736783447,
			"-0.007": 5.45422358065,
			"-0.006": 9.63010272441,
			"-0.005": 14.5757124939,
			"-0.004": 16.9729002219,
			"-0.003": 23.1015991881,
			"-0.002": 20.3044416925,
			"-0.001": 19.0225365716,
			"0.0": 15.7255564404,
			"0.001": 13.1111663823,
			"0.002": 3.07272022483,
			"0.003": 2.77313539607,
			"0.004": 2.80599513363,
			"0.005": 3.27586787375,
			"0.006": 3.61683583839,
			"0.007": 3.47845177881,
			"0.008": 5.14712147891,
			"0.009": 8.11691717395,
			"0.01": 9.91897827965,
			"0.011": 9.31667732769,
			"0.012": 1.73418710124,
			"0.013": 0.0,
			"0.014": 0.0,
			"0.015": 0.0,
			"0.016": 0.0,
			"0.017": 0.0,
			"0.018": 0.0,
			"0.019": 0.0,
			"0.02": 0.0,
			"0.021": 0.0,
			"0.022": 0.0,
			"0.023": 0.0,
			"0.024": 0.0,
			"0.025": 0.0
		}
	}
}
