{
	 "smiles": "CC(C)NC(=O)NC(=O)CCl", 
	 "Tm": 360.15, 
	 "num_atms": 22, 
	 "gaussian": { 
		 "optdone": 1, 
		 "sigma_profile": "yes", 
		 "theory": "DFT", 
		 "functional": "B3LYP", 
		 "basiset": "6-31G**", 
		 "properties": { 
			 "R2extent": 5156.3396, 
			 "electric_dipole_moment_norm": 3.02684599542, 
			 "electric_quadrupole_moment_norm": 12.0802371438, 
			 "total_energy": -955.441201977, 
			 "HOMO_LUMO_gap": 0.24205, 
			 "cosmo_polarized_energy": -14.79, 
			 "cosmo_cavitation_energy": 26.93, 
			 "cosmo_dispersion_energy": -19.05, 
			 "cosmo_repulsion_energy": 1.58, 
			 "cosmo_total_nonelectrostatic_energy": 9.45, 
			 "SMD_solvation_energy": 5.52 
		},
		"coords": [
			{
				"x": 1.2429933588,
				"y": -0.3864938007,
				"z": -0.681658976,
				"element": "C" 
			},
			{
				"x": 0.2990960275,
				"y": -0.1332287747,
				"z": 0.5031160372,
				"element": "C" 
			},
			{
				"x": -1.148917623,
				"y": -0.5119211137,
				"z": 0.178990139,
				"element": "C" 
			},
			{
				"x": 0.8254751307,
				"y": -0.718542247,
				"z": 1.7630845901,
				"element": "N" 
			},
			{
				"x": 1.2813561111,
				"y": -1.9799572595,
				"z": 2.0051027978,
				"element": "C" 
			},
			{
				"x": 2.2017215713,
				"y": -2.236281905,
				"z": 2.762700516,
				"element": "O" 
			},
			{
				"x": 0.6188043446,
				"y": -3.0549290477,
				"z": 1.3099182694,
				"element": "N" 
			},
			{
				"x": -0.6651879579,
				"y": -3.4563528368,
				"z": 1.6074772133,
				"element": "C" 
			},
			{
				"x": -1.4981940741,
				"y": -2.7965714608,
				"z": 2.2002037004,
				"element": "O" 
			},
			{
				"x": -1.0900771486,
				"y": -4.8499406514,
				"z": 1.1272860833,
				"element": "C" 
			},
			{
				"x": 0.1665333181,
				"y": -5.8636686135,
				"z": 0.3041021639,
				"element": "Cl" 
			},
			{
				"x": 1.2799371835,
				"y": -1.4524679661,
				"z": -0.9267377097,
				"element": "H" 
			},
			{
				"x": 0.8909702236,
				"y": 0.1505019776,
				"z": -1.5684751438,
				"element": "H" 
			},
			{
				"x": 2.2595363954,
				"y": -0.0479966466,
				"z": -0.4585606345,
				"element": "H" 
			},
			{
				"x": 0.3053075312,
				"y": 0.941873567,
				"z": 0.7157332294,
				"element": "H" 
			},
			{
				"x": -1.783445871,
				"y": -0.4409396781,
				"z": 1.0633737718,
				"element": "H" 
			},
			{
				"x": -1.5291665859,
				"y": 0.1672366962,
				"z": -0.5913013842,
				"element": "H" 
			},
			{
				"x": -1.2232990606,
				"y": -1.5288975222,
				"z": -0.2124921893,
				"element": "H" 
			},
			{
				"x": 1.3542609958,
				"y": -0.0659440527,
				"z": 2.328083518,
				"element": "H" 
			},
			{
				"x": 1.261225859,
				"y": -3.8161503591,
				"z": 1.1139507233,
				"element": "H" 
			},
			{
				"x": -1.9175822289,
				"y": -4.728543744,
				"z": 0.4273438847,
				"element": "H" 
			},
			{
				"x": -1.4426475006,
				"y": -5.409384561,
				"z": 1.9939593998,
				"element": "H" 
			}
		],
		 "valence_orbital": [ 
			{
				"type": "occ",
				"energy": -0.31981,
				"method": "rhf"
			},
			{
				"type": "occ",
				"energy": -0.3052,
				"method": "rhf"
			},
			{
				"type": "occ",
				"energy": -0.27785,
				"method": "rhf"
			},
			{
				"type": "occ",
				"energy": -0.2663,
				"method": "rhf"
			},
			{
				"type": "occ",
				"energy": -0.25698,
				"method": "rhf"
			},
			{
				"type": "unocc",
				"energy": -0.01493,
				"method": "rhf"
			},
			{
				"type": "unocc",
				"energy": 0.00761,
				"method": "rhf"
			},
			{
				"type": "unocc",
				"energy": 0.02609,
				"method": "rhf"
			},
			{
				"type": "unocc",
				"energy": 0.06376,
				"method": "rhf"
			},
			{
				"type": "unocc",
				"energy": 0.08777,
				"method": "rhf"
			}
		],
		"cosmo_sigma_profile": { 
			"-0.025": 0.0,
			"-0.024": 0.0,
			"-0.023": 0.0,
			"-0.022": 0.0,
			"-0.021": 0.0,
			"-0.02": 0.0,
			"-0.019": 0.0,
			"-0.018": 0.0,
			"-0.017": 0.0,
			"-0.016": 0.0,
			"-0.015": 0.0,
			"-0.014": 0.805635331893,
			"-0.013": 1.18818379028,
			"-0.012": 1.77651528443,
			"-0.011": 1.617348941,
			"-0.01": 2.60207967696,
			"-0.009": 6.24761219951,
			"-0.008": 7.78160222535,
			"-0.007": 6.60008757897,
			"-0.006": 7.64192566141,
			"-0.005": 8.12596016212,
			"-0.004": 12.7967070667,
			"-0.003": 17.4104657064,
			"-0.002": 17.1761515658,
			"-0.001": 17.9074226957,
			"0.0": 20.6095332076,
			"0.001": 14.5105840043,
			"0.002": 8.18883758371,
			"0.003": 6.71611477634,
			"0.004": 7.64223211256,
			"0.005": 10.2313224877,
			"0.006": 3.89518437845,
			"0.007": 2.96929083866,
			"0.008": 2.8653346233,
			"0.009": 2.69303578557,
			"0.01": 3.77181387684,
			"0.011": 5.413600096,
			"0.012": 8.43500072018,
			"0.013": 5.29660519125,
			"0.014": 0.370495435998,
			"0.015": 0.0,
			"0.016": 0.0,
			"0.017": 0.0,
			"0.018": 0.0,
			"0.019": 0.0,
			"0.02": 0.0,
			"0.021": 0.0,
			"0.022": 0.0,
			"0.023": 0.0,
			"0.024": 0.0,
			"0.025": 0.0
		}
	}
}
