{
	 "smiles": "COC(=O)C1=C(C=CC=C1)N1C(=S)NC2=C(C=CC=C2)C1=O", 
	 "Tm": 529.15, 
	 "num_atms": 34, 
	 "gaussian": { 
		 "optdone": 1, 
		 "sigma_profile": "yes", 
		 "theory": "DFT", 
		 "functional": "B3LYP", 
		 "basiset": "6-31G**", 
		 "properties": { 
			 "R2extent": 6463.1222, 
			 "electric_dipole_moment_norm": 5.05258398545, 
			 "electric_quadrupole_moment_norm": 22.4346681286, 
			 "total_energy": -1350.33939946, 
			 "HOMO_LUMO_gap": 0.15547, 
			 "cosmo_polarized_energy": -21.73, 
			 "cosmo_cavitation_energy": 40.49, 
			 "cosmo_dispersion_energy": -27.44, 
			 "cosmo_repulsion_energy": 2.04, 
			 "cosmo_total_nonelectrostatic_energy": 15.09, 
			 "SMD_solvation_energy": 7.91 
		},
		"coords": [
			{
				"x": -3.083676205,
				"y": -1.2976284245,
				"z": -1.2384325983,
				"element": "C" 
			},
			{
				"x": -1.8701891703,
				"y": -0.5386352836,
				"z": -1.1026987946,
				"element": "O" 
			},
			{
				"x": -1.4386167736,
				"y": 0.0512049336,
				"z": -2.2380167418,
				"element": "C" 
			},
			{
				"x": -2.036379408,
				"y": -0.0475491823,
				"z": -3.2918227659,
				"element": "O" 
			},
			{
				"x": -0.1711999536,
				"y": 0.8343353135,
				"z": -2.0867324588,
				"element": "C" 
			},
			{
				"x": 0.5909178755,
				"y": 0.9799139711,
				"z": -0.9132392523,
				"element": "C" 
			},
			{
				"x": 1.7493091898,
				"y": 1.7538401152,
				"z": -0.9144920849,
				"element": "C" 
			},
			{
				"x": 2.1790630456,
				"y": 2.3815652386,
				"z": -2.0811262847,
				"element": "C" 
			},
			{
				"x": 1.4403860853,
				"y": 2.2383186025,
				"z": -3.2559775666,
				"element": "C" 
			},
			{
				"x": 0.2791368953,
				"y": 1.4731956296,
				"z": -3.251748213,
				"element": "C" 
			},
			{
				"x": 0.1983073222,
				"y": 0.3853214421,
				"z": 0.3465251896,
				"element": "N" 
			},
			{
				"x": 0.6720544775,
				"y": -0.8758744457,
				"z": 0.6710715147,
				"element": "C" 
			},
			{
				"x": 1.713420334,
				"y": -1.7756327188,
				"z": -0.2742224429,
				"element": "S" 
			},
			{
				"x": 0.2288899094,
				"y": -1.3709740398,
				"z": 1.8694603171,
				"element": "N" 
			},
			{
				"x": -0.643728589,
				"y": -0.7419918297,
				"z": 2.7418357857,
				"element": "C" 
			},
			{
				"x": -1.1341854668,
				"y": 0.524924942,
				"z": 2.3928982519,
				"element": "C" 
			},
			{
				"x": -2.0191733327,
				"y": 1.1901834013,
				"z": 3.2515695468,
				"element": "C" 
			},
			{
				"x": -2.4102083586,
				"y": 0.5987279055,
				"z": 4.4455208848,
				"element": "C" 
			},
			{
				"x": -1.9142469475,
				"y": -0.6692697948,
				"z": 4.7867673887,
				"element": "C" 
			},
			{
				"x": -1.0362272915,
				"y": -1.3440391369,
				"z": 3.9473310089,
				"element": "C" 
			},
			{
				"x": -0.7177705304,
				"y": 1.1456017248,
				"z": 1.1267127879,
				"element": "C" 
			},
			{
				"x": -1.0991212729,
				"y": 2.2364374812,
				"z": 0.7417872716,
				"element": "O" 
			},
			{
				"x": -3.2944132264,
				"y": -1.6899569251,
				"z": -0.243720278,
				"element": "H" 
			},
			{
				"x": -2.9472971353,
				"y": -2.1124348665,
				"z": -1.9532921279,
				"element": "H" 
			},
			{
				"x": -3.8999753413,
				"y": -0.6578928128,
				"z": -1.5816473242,
				"element": "H" 
			},
			{
				"x": 2.3122887549,
				"y": 1.8515517261,
				"z": 0.0075106867,
				"element": "H" 
			},
			{
				"x": 3.0857640434,
				"y": 2.9786516569,
				"z": -2.0692485319,
				"element": "H" 
			},
			{
				"x": 1.7659997811,
				"y": 2.7226613057,
				"z": -4.171337207,
				"element": "H" 
			},
			{
				"x": -0.3139787985,
				"y": 1.3493196302,
				"z": -4.150563737,
				"element": "H" 
			},
			{
				"x": 0.5928506915,
				"y": -2.28716856,
				"z": 2.0943221949,
				"element": "H" 
			},
			{
				"x": -2.3792436722,
				"y": 2.1680599765,
				"z": 2.9505150346,
				"element": "H" 
			},
			{
				"x": -3.094732668,
				"y": 1.1122893987,
				"z": 5.112463253,
				"element": "H" 
			},
			{
				"x": -2.21772553,
				"y": -1.1345636254,
				"z": 5.71994426,
				"element": "H" 
			},
			{
				"x": -0.6537987339,
				"y": -2.3250927494,
				"z": 4.2143830332,
				"element": "H" 
			}
		],
		 "valence_orbital": [ 
			{
				"type": "occ",
				"energy": -0.26656,
				"method": "rhf"
			},
			{
				"type": "occ",
				"energy": -0.262,
				"method": "rhf"
			},
			{
				"type": "occ",
				"energy": -0.2603,
				"method": "rhf"
			},
			{
				"type": "occ",
				"energy": -0.22247,
				"method": "rhf"
			},
			{
				"type": "occ",
				"energy": -0.21632,
				"method": "rhf"
			},
			{
				"type": "unocc",
				"energy": -0.06085,
				"method": "rhf"
			},
			{
				"type": "unocc",
				"energy": -0.04873,
				"method": "rhf"
			},
			{
				"type": "unocc",
				"energy": -0.04484,
				"method": "rhf"
			},
			{
				"type": "unocc",
				"energy": -0.0132,
				"method": "rhf"
			},
			{
				"type": "unocc",
				"energy": -0.00236,
				"method": "rhf"
			}
		],
		"cosmo_sigma_profile": { 
			"-0.025": 0.0,
			"-0.024": 0.0,
			"-0.023": 0.0,
			"-0.022": 0.0,
			"-0.021": 0.0,
			"-0.02": 0.0,
			"-0.019": 0.0,
			"-0.018": 0.0,
			"-0.017": 0.347087506813,
			"-0.016": 0.922760726436,
			"-0.015": 1.31578595416,
			"-0.014": 1.26915593573,
			"-0.013": 1.07119535586,
			"-0.012": 0.795188184155,
			"-0.011": 1.19895521502,
			"-0.01": 1.10857114726,
			"-0.009": 1.7215696858,
			"-0.008": 2.98455073872,
			"-0.007": 14.6685636071,
			"-0.006": 24.3379779864,
			"-0.005": 26.1197926646,
			"-0.004": 21.7484329005,
			"-0.003": 21.4098658416,
			"-0.002": 18.9723107412,
			"-0.001": 19.8463228914,
			"0.0": 20.7210689231,
			"0.001": 23.3106121596,
			"0.002": 23.6276067763,
			"0.003": 22.8628459638,
			"0.004": 10.7588428103,
			"0.005": 8.4219332369,
			"0.006": 7.58754745282,
			"0.007": 8.96700709912,
			"0.008": 10.4037538955,
			"0.009": 10.2854218914,
			"0.01": 8.39174005507,
			"0.011": 7.43018600113,
			"0.012": 5.24992014079,
			"0.013": 0.0154591613884,
			"0.014": 0.0,
			"0.015": 0.0,
			"0.016": 0.0,
			"0.017": 0.0,
			"0.018": 0.0,
			"0.019": 0.0,
			"0.02": 0.0,
			"0.021": 0.0,
			"0.022": 0.0,
			"0.023": 0.0,
			"0.024": 0.0,
			"0.025": 0.0
		}
	}
}
