{
	 "smiles": "OCCNCCNCCO", 
	 "Tm": 370.65, 
	 "num_atms": 26, 
	 "gaussian": { 
		 "optdone": 1, 
		 "sigma_profile": "yes", 
		 "theory": "DFT", 
		 "functional": "B3LYP", 
		 "basiset": "6-31G**", 
		 "properties": { 
			 "R2extent": 2897.217, 
			 "electric_dipole_moment_norm": 2.46553489734, 
			 "electric_quadrupole_moment_norm": 14.5261806456, 
			 "total_energy": -498.193999978, 
			 "HOMO_LUMO_gap": 0.25572, 
			 "cosmo_polarized_energy": -14.85, 
			 "cosmo_cavitation_energy": 27.67, 
			 "cosmo_dispersion_energy": -19.69, 
			 "cosmo_repulsion_energy": 1.65, 
			 "cosmo_total_nonelectrostatic_energy": 9.62, 
			 "SMD_solvation_energy": 1.53 
		},
		"coords": [
			{
				"x": 2.1251073046,
				"y": -2.1763639679,
				"z": 0.6056672769,
				"element": "O" 
			},
			{
				"x": 2.2749485768,
				"y": -0.9324042603,
				"z": 1.2867938538,
				"element": "C" 
			},
			{
				"x": 2.4919281952,
				"y": 0.2311613494,
				"z": 0.3078059472,
				"element": "C" 
			},
			{
				"x": 1.4535636345,
				"y": 0.4158276537,
				"z": -0.7052149583,
				"element": "N" 
			},
			{
				"x": 0.1207242001,
				"y": 0.7535148595,
				"z": -0.2074026562,
				"element": "C" 
			},
			{
				"x": -0.7550654625,
				"y": 1.3141226133,
				"z": -1.3419389056,
				"element": "C" 
			},
			{
				"x": -0.888131317,
				"y": 0.4702338661,
				"z": -2.5331131094,
				"element": "N" 
			},
			{
				"x": -1.5756137238,
				"y": -0.8168854969,
				"z": -2.3704964039,
				"element": "C" 
			},
			{
				"x": -3.0897178281,
				"y": -0.6017801582,
				"z": -2.4908374744,
				"element": "C" 
			},
			{
				"x": -3.3932389291,
				"y": 0.0933447935,
				"z": -3.6807307933,
				"element": "O" 
			},
			{
				"x": 1.2088088434,
				"y": -2.2443205689,
				"z": 0.3120965146,
				"element": "H" 
			},
			{
				"x": 1.4147131126,
				"y": -0.7359475497,
				"z": 1.9438530795,
				"element": "H" 
			},
			{
				"x": 3.1554557884,
				"y": -1.0346034699,
				"z": 1.9309659928,
				"element": "H" 
			},
			{
				"x": 2.5985069049,
				"y": 1.1652233411,
				"z": 0.8757534189,
				"element": "H" 
			},
			{
				"x": 3.4382578882,
				"y": 0.065074184,
				"z": -0.2201078577,
				"element": "H" 
			},
			{
				"x": 1.409568976,
				"y": -0.4285626434,
				"z": -1.2702698946,
				"element": "H" 
			},
			{
				"x": -0.3983279004,
				"y": -0.0844612592,
				"z": 0.2938699702,
				"element": "H" 
			},
			{
				"x": 0.2291566901,
				"y": 1.5367622786,
				"z": 0.5533494672,
				"element": "H" 
			},
			{
				"x": -1.7557852123,
				"y": 1.5312634562,
				"z": -0.9498449182,
				"element": "H" 
			},
			{
				"x": -0.3225569743,
				"y": 2.2652816449,
				"z": -1.6699335762,
				"element": "H" 
			},
			{
				"x": 0.0228150612,
				"y": 0.3502265122,
				"z": -2.9630684286,
				"element": "H" 
			},
			{
				"x": -1.2544706968,
				"y": -1.466720372,
				"z": -3.1915472575,
				"element": "H" 
			},
			{
				"x": -1.3419393191,
				"y": -1.3379143256,
				"z": -1.4260306432,
				"element": "H" 
			},
			{
				"x": -3.6038836589,
				"y": -1.5693745906,
				"z": -2.5184345523,
				"element": "H" 
			},
			{
				"x": -3.4625690543,
				"y": -0.0632133814,
				"z": -1.6013287951,
				"element": "H" 
			},
			{
				"x": -2.6755550993,
				"y": 0.7463154917,
				"z": -3.7577552966,
				"element": "H" 
			}
		],
		 "valence_orbital": [ 
			{
				"type": "occ",
				"energy": -0.31615,
				"method": "rhf"
			},
			{
				"type": "occ",
				"energy": -0.28396,
				"method": "rhf"
			},
			{
				"type": "occ",
				"energy": -0.2567,
				"method": "rhf"
			},
			{
				"type": "occ",
				"energy": -0.23929,
				"method": "rhf"
			},
			{
				"type": "occ",
				"energy": -0.22337,
				"method": "rhf"
			},
			{
				"type": "unocc",
				"energy": 0.03235,
				"method": "rhf"
			},
			{
				"type": "unocc",
				"energy": 0.0747,
				"method": "rhf"
			},
			{
				"type": "unocc",
				"energy": 0.09113,
				"method": "rhf"
			},
			{
				"type": "unocc",
				"energy": 0.10849,
				"method": "rhf"
			},
			{
				"type": "unocc",
				"energy": 0.12049,
				"method": "rhf"
			}
		],
		"cosmo_sigma_profile": { 
			"-0.025": 0.0,
			"-0.024": 0.0,
			"-0.023": 0.0,
			"-0.022": 0.0,
			"-0.021": 0.0,
			"-0.02": 0.0,
			"-0.019": 0.0,
			"-0.018": 0.0,
			"-0.017": 0.0,
			"-0.016": 0.0,
			"-0.015": 0.0,
			"-0.014": 0.192614085724,
			"-0.013": 0.771122626216,
			"-0.012": 0.826765918708,
			"-0.011": 0.981992985281,
			"-0.01": 2.06938400576,
			"-0.009": 3.92387579937,
			"-0.008": 5.11525372561,
			"-0.007": 5.0053186127,
			"-0.006": 5.12419915502,
			"-0.005": 5.02014057512,
			"-0.004": 16.4097435438,
			"-0.003": 34.8568570703,
			"-0.002": 32.5478828815,
			"-0.001": 21.9442400666,
			"0.0": 13.9217543703,
			"0.001": 7.6866086536,
			"0.002": 5.66007811293,
			"0.003": 4.76353016238,
			"0.004": 4.81712277719,
			"0.005": 4.20712167988,
			"0.006": 3.69387645881,
			"0.007": 3.17037805939,
			"0.008": 4.00096160304,
			"0.009": 3.13126259937,
			"0.01": 3.06259498706,
			"0.011": 2.52306896546,
			"0.012": 2.87981833515,
			"0.013": 4.20323028398,
			"0.014": 3.92917580161,
			"0.015": 4.62164127942,
			"0.016": 0.817144052673,
			"0.017": 0.496502090866,
			"0.018": 0.0453000461112,
			"0.019": 0.0,
			"0.02": 0.0,
			"0.021": 0.0,
			"0.022": 0.0,
			"0.023": 0.0,
			"0.024": 0.0,
			"0.025": 0.0
		}
	}
}
