{
	 "smiles": "CC1CCCCN1C(=O)C1=C(Cl)C=C(N)C=C1", 
	 "Tm": 460.15, 
	 "num_atms": 34, 
	 "gaussian": { 
		 "optdone": 1, 
		 "sigma_profile": "yes", 
		 "theory": "DFT", 
		 "functional": "B3LYP", 
		 "basiset": "6-31G**", 
		 "properties": { 
			 "R2extent": 5130.7806, 
			 "electric_dipole_moment_norm": 5.06347437339, 
			 "electric_quadrupole_moment_norm": 22.6103900336, 
			 "total_energy": -1150.57754943, 
			 "HOMO_LUMO_gap": 0.19873, 
			 "cosmo_polarized_energy": -15.97, 
			 "cosmo_cavitation_energy": 36.5, 
			 "cosmo_dispersion_energy": -25.75, 
			 "cosmo_repulsion_energy": 2.0, 
			 "cosmo_total_nonelectrostatic_energy": 12.74, 
			 "SMD_solvation_energy": 5.64 
		},
		"coords": [
			{
				"x": 3.6456727809,
				"y": -1.5170563515,
				"z": -1.0433298766,
				"element": "C" 
			},
			{
				"x": 2.3237251448,
				"y": -2.0707301825,
				"z": -0.4869320505,
				"element": "C" 
			},
			{
				"x": 2.4668168812,
				"y": -2.7684400714,
				"z": 0.8790818619,
				"element": "C" 
			},
			{
				"x": 2.6657301744,
				"y": -1.7845501346,
				"z": 2.0402460908,
				"element": "C" 
			},
			{
				"x": 1.5286624537,
				"y": -0.7554806208,
				"z": 2.0534350588,
				"element": "C" 
			},
			{
				"x": 1.412708902,
				"y": -0.0539878742,
				"z": 0.6959268373,
				"element": "C" 
			},
			{
				"x": 1.2872539495,
				"y": -1.0184053261,
				"z": -0.4017692789,
				"element": "N" 
			},
			{
				"x": 0.5021194436,
				"y": -0.8210307597,
				"z": -1.5101326363,
				"element": "C" 
			},
			{
				"x": 0.6540697387,
				"y": -1.4672659048,
				"z": -2.5464106603,
				"element": "O" 
			},
			{
				"x": -0.5651958531,
				"y": 0.248976578,
				"z": -1.4711170911,
				"element": "C" 
			},
			{
				"x": -1.709905573,
				"y": 0.2402205037,
				"z": -0.664275375,
				"element": "C" 
			},
			{
				"x": -1.9724313757,
				"y": -1.046511739,
				"z": 0.5140035952,
				"element": "Cl" 
			},
			{
				"x": -2.7007244292,
				"y": 1.2130623673,
				"z": -0.7663373938,
				"element": "C" 
			},
			{
				"x": -2.576752899,
				"y": 2.2501193119,
				"z": -1.7048333735,
				"element": "C" 
			},
			{
				"x": -3.5818034985,
				"y": 3.1993519007,
				"z": -1.8457046934,
				"element": "N" 
			},
			{
				"x": -1.445138006,
				"y": 2.2642060869,
				"z": -2.5408325962,
				"element": "C" 
			},
			{
				"x": -0.4807779995,
				"y": 1.2739639269,
				"z": -2.4275981489,
				"element": "C" 
			},
			{
				"x": 4.3773386009,
				"y": -2.3249489155,
				"z": -1.1499578888,
				"element": "H" 
			},
			{
				"x": 4.0882380231,
				"y": -0.7516951857,
				"z": -0.3976949892,
				"element": "H" 
			},
			{
				"x": 3.4758971453,
				"y": -1.0811835487,
				"z": -2.0314066958,
				"element": "H" 
			},
			{
				"x": 1.9418969412,
				"y": -2.7908366866,
				"z": -1.2126512094,
				"element": "H" 
			},
			{
				"x": 1.5569142866,
				"y": -3.3532578079,
				"z": 1.0632855233,
				"element": "H" 
			},
			{
				"x": 3.2985348942,
				"y": -3.4806494303,
				"z": 0.8261367682,
				"element": "H" 
			},
			{
				"x": 2.703193654,
				"y": -2.3272049461,
				"z": 2.9916992865,
				"element": "H" 
			},
			{
				"x": 3.6296396996,
				"y": -1.2677079051,
				"z": 1.9394119489,
				"element": "H" 
			},
			{
				"x": 0.5788819575,
				"y": -1.2548082647,
				"z": 2.2775548916,
				"element": "H" 
			},
			{
				"x": 1.6922727853,
				"y": 0.0002377106,
				"z": 2.8308335603,
				"element": "H" 
			},
			{
				"x": 0.5523018462,
				"y": 0.6138924831,
				"z": 0.6773926921,
				"element": "H" 
			},
			{
				"x": 2.3059688795,
				"y": 0.5703381293,
				"z": 0.5344347336,
				"element": "H" 
			},
			{
				"x": -3.5763610305,
				"y": 1.1534921547,
				"z": -0.1283199314,
				"element": "H" 
			},
			{
				"x": -4.1839713622,
				"y": 3.3332656342,
				"z": -1.0462411714,
				"element": "H" 
			},
			{
				"x": -3.3102667367,
				"y": 4.0689633119,
				"z": -2.281201581,
				"element": "H" 
			},
			{
				"x": -1.3381945402,
				"y": 3.0445127785,
				"z": -3.2894476237,
				"element": "H" 
			},
			{
				"x": 0.3724851215,
				"y": 1.2768487777,
				"z": -3.0986485834,
				"element": "H" 
			}
		],
		 "valence_orbital": [ 
			{
				"type": "occ",
				"energy": -0.3053,
				"method": "rhf"
			},
			{
				"type": "occ",
				"energy": -0.2492,
				"method": "rhf"
			},
			{
				"type": "occ",
				"energy": -0.24418,
				"method": "rhf"
			},
			{
				"type": "occ",
				"energy": -0.22637,
				"method": "rhf"
			},
			{
				"type": "occ",
				"energy": -0.21019,
				"method": "rhf"
			},
			{
				"type": "unocc",
				"energy": -0.01146,
				"method": "rhf"
			},
			{
				"type": "unocc",
				"energy": -0.00686,
				"method": "rhf"
			},
			{
				"type": "unocc",
				"energy": 0.03024,
				"method": "rhf"
			},
			{
				"type": "unocc",
				"energy": 0.04286,
				"method": "rhf"
			},
			{
				"type": "unocc",
				"energy": 0.07193,
				"method": "rhf"
			}
		],
		"cosmo_sigma_profile": { 
			"-0.025": 0.0,
			"-0.024": 0.0,
			"-0.023": 0.0,
			"-0.022": 0.0,
			"-0.021": 0.0,
			"-0.02": 0.0,
			"-0.019": 0.0,
			"-0.018": 0.0,
			"-0.017": 0.0,
			"-0.016": 0.0,
			"-0.015": 0.0,
			"-0.014": 0.0493034189043,
			"-0.013": 1.92552461692,
			"-0.012": 3.22328193028,
			"-0.011": 3.17090513757,
			"-0.01": 2.88408633683,
			"-0.009": 3.81983324337,
			"-0.008": 3.34842299987,
			"-0.007": 4.06915413743,
			"-0.006": 5.05097241802,
			"-0.005": 6.69654663195,
			"-0.004": 13.2851294051,
			"-0.003": 26.933758598,
			"-0.002": 36.3645679648,
			"-0.001": 31.4442750501,
			"0.0": 32.7047473296,
			"0.001": 23.8786102999,
			"0.002": 16.3254922463,
			"0.003": 16.1526799682,
			"0.004": 18.9627145038,
			"0.005": 10.6710896028,
			"0.006": 3.7960285028,
			"0.007": 2.56129428739,
			"0.008": 2.66880975819,
			"0.009": 2.64793978074,
			"0.01": 1.73470692102,
			"0.011": 1.52355635645,
			"0.012": 2.80919393093,
			"0.013": 3.24182093206,
			"0.014": 4.49266160354,
			"0.015": 1.57705362089,
			"0.016": 0.0534220910775,
			"0.017": 0.0,
			"0.018": 0.0,
			"0.019": 0.0,
			"0.02": 0.0,
			"0.021": 0.0,
			"0.022": 0.0,
			"0.023": 0.0,
			"0.024": 0.0,
			"0.025": 0.0
		}
	}
}
