{
	 "smiles": "NC1=NC=C(C=C1)S(N)(=O)=O", 
	 "Tm": 445.15, 
	 "num_atms": 18, 
	 "gaussian": { 
		 "optdone": 1, 
		 "sigma_profile": "yes", 
		 "theory": "DFT", 
		 "functional": "B3LYP", 
		 "basiset": "6-31G**", 
		 "properties": { 
			 "R2extent": 2595.4064, 
			 "electric_dipole_moment_norm": 4.79927009971, 
			 "electric_quadrupole_moment_norm": 20.1347501971, 
			 "total_energy": -907.576681642, 
			 "HOMO_LUMO_gap": 0.19912, 
			 "cosmo_polarized_energy": -20.41, 
			 "cosmo_cavitation_energy": 23.91, 
			 "cosmo_dispersion_energy": -18.47, 
			 "cosmo_repulsion_energy": 1.45, 
			 "cosmo_total_nonelectrostatic_energy": 6.89, 
			 "SMD_solvation_energy": 2.43 
		},
		"coords": [
			{
				"x": 2.988472271,
				"y": 0.6141757018,
				"z": -1.3778484793,
				"element": "N" 
			},
			{
				"x": 1.6415414346,
				"y": 0.4946368049,
				"z": -1.1620975262,
				"element": "C" 
			},
			{
				"x": 0.963056788,
				"y": 1.6473634295,
				"z": -1.0188573051,
				"element": "N" 
			},
			{
				"x": -0.3447525612,
				"y": 1.5771245145,
				"z": -0.7625082541,
				"element": "C" 
			},
			{
				"x": -1.0341892085,
				"y": 0.3714800199,
				"z": -0.6398256808,
				"element": "C" 
			},
			{
				"x": -0.3311658481,
				"y": -0.8312922546,
				"z": -0.805251493,
				"element": "C" 
			},
			{
				"x": 1.022739616,
				"y": -0.7761187583,
				"z": -1.0668366622,
				"element": "C" 
			},
			{
				"x": -2.7801787125,
				"y": 0.3582832657,
				"z": -0.3222281179,
				"element": "S" 
			},
			{
				"x": -2.8674377111,
				"y": -0.1105109225,
				"z": 1.3096144432,
				"element": "N" 
			},
			{
				"x": -3.3879774691,
				"y": -0.7518247712,
				"z": -1.0625501463,
				"element": "O" 
			},
			{
				"x": -3.2635061941,
				"y": 1.7367158611,
				"z": -0.4621563849,
				"element": "O" 
			},
			{
				"x": 3.497422845,
				"y": -0.1633115141,
				"z": -1.7666118343,
				"element": "H" 
			},
			{
				"x": 3.313353753,
				"y": 1.5391349423,
				"z": -1.6174381448,
				"element": "H" 
			},
			{
				"x": -0.8776032388,
				"y": 2.5190935287,
				"z": -0.6632165481,
				"element": "H" 
			},
			{
				"x": -0.8496440922,
				"y": -1.7819875344,
				"z": -0.7384866403,
				"element": "H" 
			},
			{
				"x": 1.6046974302,
				"y": -1.6828792253,
				"z": -1.1991993738,
				"element": "H" 
			},
			{
				"x": -3.6702321378,
				"y": -0.7277649304,
				"z": 1.4114614799,
				"element": "H" 
			},
			{
				"x": -2.9682969641,
				"y": 0.7097818424,
				"z": 1.903336668,
				"element": "H" 
			}
		],
		 "valence_orbital": [ 
			{
				"type": "occ",
				"energy": -0.30111,
				"method": "rhf"
			},
			{
				"type": "occ",
				"energy": -0.29727,
				"method": "rhf"
			},
			{
				"type": "occ",
				"energy": -0.28564,
				"method": "rhf"
			},
			{
				"type": "occ",
				"energy": -0.27019,
				"method": "rhf"
			},
			{
				"type": "occ",
				"energy": -0.23233,
				"method": "rhf"
			},
			{
				"type": "unocc",
				"energy": -0.03321,
				"method": "rhf"
			},
			{
				"type": "unocc",
				"energy": -0.02393,
				"method": "rhf"
			},
			{
				"type": "unocc",
				"energy": 0.05877,
				"method": "rhf"
			},
			{
				"type": "unocc",
				"energy": 0.06966,
				"method": "rhf"
			},
			{
				"type": "unocc",
				"energy": 0.09171,
				"method": "rhf"
			}
		],
		"cosmo_sigma_profile": { 
			"-0.025": 0.0,
			"-0.024": 0.0,
			"-0.023": 0.0,
			"-0.022": 0.0,
			"-0.021": 0.0,
			"-0.02": 0.0,
			"-0.019": 0.0,
			"-0.018": 0.0,
			"-0.017": 0.0,
			"-0.016": 0.0,
			"-0.015": 0.947414416434,
			"-0.014": 4.52467432574,
			"-0.013": 4.3757834216,
			"-0.012": 6.19640543905,
			"-0.011": 4.99069846896,
			"-0.01": 4.20767621819,
			"-0.009": 4.39755402774,
			"-0.008": 6.18771451895,
			"-0.007": 6.32789736574,
			"-0.006": 7.05777008428,
			"-0.005": 6.78947695014,
			"-0.004": 5.5116697046,
			"-0.003": 6.9920868028,
			"-0.002": 8.82590202698,
			"-0.001": 7.35726168204,
			"0.0": 11.1559201767,
			"0.001": 13.9971113953,
			"0.002": 12.463972094,
			"0.003": 7.29422230548,
			"0.004": 5.88626238352,
			"0.005": 6.01112794133,
			"0.006": 5.36689791333,
			"0.007": 4.87582082839,
			"0.008": 5.90908470844,
			"0.009": 5.5147154708,
			"0.01": 7.5902202069,
			"0.011": 11.3532529203,
			"0.012": 6.13319470615,
			"0.013": 1.17199599569,
			"0.014": 0.63930092195,
			"0.015": 0.279309566487,
			"0.016": 0.0,
			"0.017": 0.0,
			"0.018": 0.0,
			"0.019": 0.0,
			"0.02": 0.0,
			"0.021": 0.0,
			"0.022": 0.0,
			"0.023": 0.0,
			"0.024": 0.0,
			"0.025": 0.0
		}
	}
}
