{
	 "smiles": "CC1=C(F)C=CC(=C1)S(Cl)(=O)=O", 
	 "Tm": 310.15, 
	 "num_atms": 18, 
	 "gaussian": { 
		 "optdone": 1, 
		 "sigma_profile": "yes", 
		 "theory": "DFT", 
		 "functional": "B3LYP", 
		 "basiset": "6-31G**", 
		 "properties": { 
			 "R2extent": 3540.7479, 
			 "electric_dipole_moment_norm": 4.69194702762, 
			 "electric_quadrupole_moment_norm": 16.1857034598, 
			 "total_energy": -1378.96185504, 
			 "HOMO_LUMO_gap": 0.188, 
			 "cosmo_polarized_energy": -8.56, 
			 "cosmo_cavitation_energy": 26.3, 
			 "cosmo_dispersion_energy": -19.51, 
			 "cosmo_repulsion_energy": 1.5, 
			 "cosmo_total_nonelectrostatic_energy": 8.29, 
			 "SMD_solvation_energy": 3.75 
		},
		"coords": [
			{
				"x": -1.3986261437,
				"y": -0.3584787308,
				"z": 3.0470650886,
				"element": "C" 
			},
			{
				"x": -0.8872979761,
				"y": -0.3743669105,
				"z": 1.6304366681,
				"element": "C" 
			},
			{
				"x": -1.287436394,
				"y": 0.6132368104,
				"z": 0.7212336752,
				"element": "C" 
			},
			{
				"x": -2.1313469102,
				"y": 1.5651410855,
				"z": 1.1599182403,
				"element": "F" 
			},
			{
				"x": -0.8663234489,
				"y": 0.6615265621,
				"z": -0.6030504478,
				"element": "C" 
			},
			{
				"x": 0.007341609,
				"y": -0.3181774669,
				"z": -1.0674427848,
				"element": "C" 
			},
			{
				"x": 0.4183137603,
				"y": -1.3100367963,
				"z": -0.1767471557,
				"element": "C" 
			},
			{
				"x": -0.0120635423,
				"y": -1.3506238771,
				"z": 1.1520587513,
				"element": "C" 
			},
			{
				"x": 1.5233767526,
				"y": -2.5817607299,
				"z": -0.7573371199,
				"element": "S" 
			},
			{
				"x": 3.4311252045,
				"y": -1.7227485399,
				"z": -0.3194465953,
				"element": "Cl" 
			},
			{
				"x": 1.4064296189,
				"y": -3.7550168463,
				"z": 0.0997547188,
				"element": "O" 
			},
			{
				"x": 1.4445299145,
				"y": -2.6651432078,
				"z": -2.2103743455,
				"element": "O" 
			},
			{
				"x": -2.4911791902,
				"y": -0.4258436592,
				"z": 3.0723189245,
				"element": "H" 
			},
			{
				"x": -1.124577588,
				"y": 0.5727497773,
				"z": 3.5535460768,
				"element": "H" 
			},
			{
				"x": -0.9892115622,
				"y": -1.1940934492,
				"z": 3.6184494643,
				"element": "H" 
			},
			{
				"x": -1.2264737345,
				"y": 1.4550326356,
				"z": -1.2480504384,
				"element": "H" 
			},
			{
				"x": 0.3535485426,
				"y": -0.3215309718,
				"z": -2.0943635654,
				"element": "H" 
			},
			{
				"x": 0.3268710877,
				"y": -2.1471656851,
				"z": 1.8057308449,
				"element": "H" 
			}
		],
		 "valence_orbital": [ 
			{
				"type": "occ",
				"energy": -0.33721,
				"method": "rhf"
			},
			{
				"type": "occ",
				"energy": -0.33102,
				"method": "rhf"
			},
			{
				"type": "occ",
				"energy": -0.31328,
				"method": "rhf"
			},
			{
				"type": "occ",
				"energy": -0.29041,
				"method": "rhf"
			},
			{
				"type": "occ",
				"energy": -0.27807,
				"method": "rhf"
			},
			{
				"type": "unocc",
				"energy": -0.09007,
				"method": "rhf"
			},
			{
				"type": "unocc",
				"energy": -0.04195,
				"method": "rhf"
			},
			{
				"type": "unocc",
				"energy": -0.04174,
				"method": "rhf"
			},
			{
				"type": "unocc",
				"energy": 0.05027,
				"method": "rhf"
			},
			{
				"type": "unocc",
				"energy": 0.07252,
				"method": "rhf"
			}
		],
		"cosmo_sigma_profile": { 
			"-0.025": 0.0,
			"-0.024": 0.0,
			"-0.023": 0.0,
			"-0.022": 0.0,
			"-0.021": 0.0,
			"-0.02": 0.0,
			"-0.019": 0.0,
			"-0.018": 0.0,
			"-0.017": 0.0,
			"-0.016": 0.0,
			"-0.015": 0.0,
			"-0.014": 0.0,
			"-0.013": 0.0,
			"-0.012": 0.0,
			"-0.011": 0.0,
			"-0.01": 0.0,
			"-0.009": 2.04417934339,
			"-0.008": 5.78290375739,
			"-0.007": 5.62641364285,
			"-0.006": 8.13803728133,
			"-0.005": 10.7995789843,
			"-0.004": 11.5003944805,
			"-0.003": 13.7647699498,
			"-0.002": 19.1189839131,
			"-0.001": 25.4255061181,
			"0.0": 22.8747371675,
			"0.001": 15.3266816309,
			"0.002": 10.7230346359,
			"0.003": 21.4844914226,
			"0.004": 14.6150507569,
			"0.005": 2.64607918164,
			"0.006": 2.85947498155,
			"0.007": 6.34159326149,
			"0.008": 9.39405445344,
			"0.009": 5.03340910606,
			"0.01": 0.108236849137,
			"0.011": 0.0,
			"0.012": 0.0,
			"0.013": 0.0,
			"0.014": 0.0,
			"0.015": 0.0,
			"0.016": 0.0,
			"0.017": 0.0,
			"0.018": 0.0,
			"0.019": 0.0,
			"0.02": 0.0,
			"0.021": 0.0,
			"0.022": 0.0,
			"0.023": 0.0,
			"0.024": 0.0,
			"0.025": 0.0
		}
	}
}
