{
	 "smiles": "OC(=O)CCC1=CC(F)=CN=C1", 
	 "Tm": 439.15, 
	 "num_atms": 20, 
	 "gaussian": { 
		 "optdone": 1, 
		 "sigma_profile": "yes", 
		 "theory": "DFT", 
		 "functional": "B3LYP", 
		 "basiset": "6-31G**", 
		 "properties": { 
			 "R2extent": 3050.9543, 
			 "electric_dipole_moment_norm": 4.15318585546, 
			 "electric_quadrupole_moment_norm": 13.0672184603, 
			 "total_energy": -614.710211112, 
			 "HOMO_LUMO_gap": 0.22285, 
			 "cosmo_polarized_energy": -16.67, 
			 "cosmo_cavitation_energy": 24.99, 
			 "cosmo_dispersion_energy": -17.92, 
			 "cosmo_repulsion_energy": 1.42, 
			 "cosmo_total_nonelectrostatic_energy": 8.49, 
			 "SMD_solvation_energy": 4.34 
		},
		"coords": [
			{
				"x": 0.9007598136,
				"y": -3.1939221195,
				"z": -0.6629280457,
				"element": "O" 
			},
			{
				"x": 0.5890487914,
				"y": -2.1104388922,
				"z": 0.0926656531,
				"element": "C" 
			},
			{
				"x": 0.210233779,
				"y": -2.2586814682,
				"z": 1.2288752789,
				"element": "O" 
			},
			{
				"x": 0.8002888619,
				"y": -0.7581509556,
				"z": -0.5816230239,
				"element": "C" 
			},
			{
				"x": 0.1913520459,
				"y": 0.4189599019,
				"z": 0.202550499,
				"element": "C" 
			},
			{
				"x": -1.3109982897,
				"y": 0.5406835267,
				"z": 0.0587900582,
				"element": "C" 
			},
			{
				"x": -2.1969966093,
				"y": -0.2210883022,
				"z": 0.8307996727,
				"element": "C" 
			},
			{
				"x": -3.5559416756,
				"y": -0.0473975146,
				"z": 0.6139661619,
				"element": "C" 
			},
			{
				"x": -4.4453481849,
				"y": -0.7550969603,
				"z": 1.3360493859,
				"element": "F" 
			},
			{
				"x": -4.0184575091,
				"y": 0.8524636947,
				"z": -0.34288791,
				"element": "C" 
			},
			{
				"x": -3.1793445613,
				"y": 1.5836980566,
				"z": -1.0818354693,
				"element": "N" 
			},
			{
				"x": -1.8671892561,
				"y": 1.4256830822,
				"z": -0.876302304,
				"element": "C" 
			},
			{
				"x": 1.1770329715,
				"y": -2.920325553,
				"z": -1.5492865747,
				"element": "H" 
			},
			{
				"x": 1.8862161252,
				"y": -0.6185615976,
				"z": -0.6777301958,
				"element": "H" 
			},
			{
				"x": 0.3996185475,
				"y": -0.7891703989,
				"z": -1.6030812672,
				"element": "H" 
			},
			{
				"x": 0.6571840188,
				"y": 1.3436866409,
				"z": -0.1530310566,
				"element": "H" 
			},
			{
				"x": 0.4603866502,
				"y": 0.3013167415,
				"z": 1.2562795261,
				"element": "H" 
			},
			{
				"x": -1.8389009184,
				"y": -0.930764047,
				"z": 1.5684519149,
				"element": "H" 
			},
			{
				"x": -5.0868395644,
				"y": 0.977629717,
				"z": -0.5031530761,
				"element": "H" 
			},
			{
				"x": -1.2119050362,
				"y": 2.0455764475,
				"z": -1.4877692275,
				"element": "H" 
			}
		],
		 "valence_orbital": [ 
			{
				"type": "occ",
				"energy": -0.32821,
				"method": "rhf"
			},
			{
				"type": "occ",
				"energy": -0.28705,
				"method": "rhf"
			},
			{
				"type": "occ",
				"energy": -0.28353,
				"method": "rhf"
			},
			{
				"type": "occ",
				"energy": -0.26011,
				"method": "rhf"
			},
			{
				"type": "occ",
				"energy": -0.25434,
				"method": "rhf"
			},
			{
				"type": "unocc",
				"energy": -0.03149,
				"method": "rhf"
			},
			{
				"type": "unocc",
				"energy": -0.01249,
				"method": "rhf"
			},
			{
				"type": "unocc",
				"energy": -0.00217,
				"method": "rhf"
			},
			{
				"type": "unocc",
				"energy": 0.04592,
				"method": "rhf"
			},
			{
				"type": "unocc",
				"energy": 0.09027,
				"method": "rhf"
			}
		],
		"cosmo_sigma_profile": { 
			"-0.025": 0.0,
			"-0.024": 0.0,
			"-0.023": 0.0,
			"-0.022": 0.0,
			"-0.021": 0.0,
			"-0.02": 0.00283770658346,
			"-0.019": 0.817927756319,
			"-0.018": 0.910529705547,
			"-0.017": 1.31435442045,
			"-0.016": 1.20395150353,
			"-0.015": 1.36155452805,
			"-0.014": 0.726705903804,
			"-0.013": 0.76676842211,
			"-0.012": 0.978507472903,
			"-0.011": 2.0276736142,
			"-0.01": 0.877592924135,
			"-0.009": 1.67489454277,
			"-0.008": 2.88794728038,
			"-0.007": 6.23883734312,
			"-0.006": 10.6883169251,
			"-0.005": 12.9737734359,
			"-0.004": 12.103336521,
			"-0.003": 13.2623511606,
			"-0.002": 10.845520286,
			"-0.001": 12.3660623692,
			"0.0": 17.7612091707,
			"0.001": 14.711003699,
			"0.002": 9.7904722563,
			"0.003": 9.42215045474,
			"0.004": 13.447575379,
			"0.005": 4.59602867374,
			"0.006": 3.67551976293,
			"0.007": 3.37161279785,
			"0.008": 4.17203039124,
			"0.009": 3.70086538495,
			"0.01": 5.988585694,
			"0.011": 5.84653461652,
			"0.012": 3.94944007164,
			"0.013": 1.72245422509,
			"0.014": 1.07206694618,
			"0.015": 0.828364421875,
			"0.016": 0.862041809769,
			"0.017": 0.00273336571512,
			"0.018": 0.0,
			"0.019": 0.0,
			"0.02": 0.0,
			"0.021": 0.0,
			"0.022": 0.0,
			"0.023": 0.0,
			"0.024": 0.0,
			"0.025": 0.0
		}
	}
}
