{
	 "smiles": "CC1=NC2=NC=NN2C(Cl)=C1", 
	 "Tm": 494.15, 
	 "num_atms": 16, 
	 "gaussian": { 
		 "optdone": 1, 
		 "sigma_profile": "yes", 
		 "theory": "DFT", 
		 "functional": "B3LYP", 
		 "basiset": "6-31G**", 
		 "properties": { 
			 "R2extent": 2247.8578, 
			 "electric_dipole_moment_norm": 3.61494107421, 
			 "electric_quadrupole_moment_norm": 8.30397703513, 
			 "total_energy": -910.825526581, 
			 "HOMO_LUMO_gap": 0.18642, 
			 "cosmo_polarized_energy": -11.92, 
			 "cosmo_cavitation_energy": 22.49, 
			 "cosmo_dispersion_energy": -17.15, 
			 "cosmo_repulsion_energy": 1.36, 
			 "cosmo_total_nonelectrostatic_energy": 6.7, 
			 "SMD_solvation_energy": -0.22 
		},
		"coords": [
			{
				"x": 1.3535356202,
				"y": -0.5588774514,
				"z": -2.4462008961,
				"element": "C" 
			},
			{
				"x": 1.0478915117,
				"y": -0.0082526923,
				"z": -1.0771670118,
				"element": "C" 
			},
			{
				"x": 1.6585507898,
				"y": -0.5806009485,
				"z": -0.0493721705,
				"element": "N" 
			},
			{
				"x": 1.3944750703,
				"y": -0.0995891387,
				"z": 1.1718348034,
				"element": "C" 
			},
			{
				"x": 1.861048376,
				"y": -0.4805645394,
				"z": 2.3590353616,
				"element": "N" 
			},
			{
				"x": 1.2453146796,
				"y": 0.3616798834,
				"z": 3.2155292506,
				"element": "C" 
			},
			{
				"x": 0.4112212629,
				"y": 1.267784248,
				"z": 2.6963091556,
				"element": "N" 
			},
			{
				"x": 0.5011777222,
				"y": 0.9770822409,
				"z": 1.3760159001,
				"element": "N" 
			},
			{
				"x": -0.1264736146,
				"y": 1.5663982794,
				"z": 0.3272428828,
				"element": "C" 
			},
			{
				"x": -1.2019219222,
				"y": 2.8728648305,
				"z": 0.6468889531,
				"element": "Cl" 
			},
			{
				"x": 0.1383101916,
				"y": 1.07960984,
				"z": -0.9292471968,
				"element": "C" 
			},
			{
				"x": 2.4266078244,
				"y": -0.4840439241,
				"z": -2.6473224609,
				"element": "H" 
			},
			{
				"x": 0.8093095172,
				"y": -0.0301647037,
				"z": -3.2317554867,
				"element": "H" 
			},
			{
				"x": 1.0923246478,
				"y": -1.6207438816,
				"z": -2.4880133844,
				"element": "H" 
			},
			{
				"x": 1.4044464032,
				"y": 0.3249533143,
				"z": 4.2852052885,
				"element": "H" 
			},
			{
				"x": -0.3450180802,
				"y": 1.5262646432,
				"z": -1.7878829886,
				"element": "H" 
			}
		],
		 "valence_orbital": [ 
			{
				"type": "occ",
				"energy": -0.33627,
				"method": "rhf"
			},
			{
				"type": "occ",
				"energy": -0.28818,
				"method": "rhf"
			},
			{
				"type": "occ",
				"energy": -0.28299,
				"method": "rhf"
			},
			{
				"type": "occ",
				"energy": -0.27764,
				"method": "rhf"
			},
			{
				"type": "occ",
				"energy": -0.25601,
				"method": "rhf"
			},
			{
				"type": "unocc",
				"energy": -0.06959,
				"method": "rhf"
			},
			{
				"type": "unocc",
				"energy": -0.02832,
				"method": "rhf"
			},
			{
				"type": "unocc",
				"energy": 0.0021,
				"method": "rhf"
			},
			{
				"type": "unocc",
				"energy": 0.0436,
				"method": "rhf"
			},
			{
				"type": "unocc",
				"energy": 0.09351,
				"method": "rhf"
			}
		],
		"cosmo_sigma_profile": { 
			"-0.025": 0.0,
			"-0.024": 0.0,
			"-0.023": 0.0,
			"-0.022": 0.0,
			"-0.021": 0.0,
			"-0.02": 0.0,
			"-0.019": 0.0,
			"-0.018": 0.0,
			"-0.017": 0.0,
			"-0.016": 0.0,
			"-0.015": 0.0,
			"-0.014": 0.0,
			"-0.013": 0.0,
			"-0.012": 0.0,
			"-0.011": 0.0,
			"-0.01": 1.43476376898,
			"-0.009": 4.16728069491,
			"-0.008": 3.68739402371,
			"-0.007": 5.38403109368,
			"-0.006": 8.74377931655,
			"-0.005": 12.7134459498,
			"-0.004": 15.3083465882,
			"-0.003": 18.753493292,
			"-0.002": 20.524680514,
			"-0.001": 14.9820537406,
			"0.0": 12.4927984068,
			"0.001": 10.7740214591,
			"0.002": 9.61576833816,
			"0.003": 5.36073141485,
			"0.004": 3.4585363308,
			"0.005": 4.19517340259,
			"0.006": 3.29553949529,
			"0.007": 3.91294787417,
			"0.008": 3.72355782814,
			"0.009": 3.17684063986,
			"0.01": 3.94070553888,
			"0.011": 3.67638218159,
			"0.012": 3.50363939083,
			"0.013": 3.1094320033,
			"0.014": 2.29645994217,
			"0.015": 1.09285283178,
			"0.016": 0.591119607158,
			"0.017": 0.0,
			"0.018": 0.0,
			"0.019": 0.0,
			"0.02": 0.0,
			"0.021": 0.0,
			"0.022": 0.0,
			"0.023": 0.0,
			"0.024": 0.0,
			"0.025": 0.0
		}
	}
}
