{
	 "smiles": "NC(=O)C(=CN1CCOCC1)C#N", 
	 "Tm": 448.15, 
	 "num_atms": 24, 
	 "gaussian": { 
		 "optdone": 1, 
		 "sigma_profile": "yes", 
		 "theory": "DFT", 
		 "functional": "B3LYP", 
		 "basiset": "6-31G**", 
		 "properties": { 
			 "R2extent": 3087.8959, 
			 "electric_dipole_moment_norm": 2.91346984367, 
			 "electric_quadrupole_moment_norm": 20.7180034463, 
			 "total_energy": -626.153828534, 
			 "HOMO_LUMO_gap": 0.18414, 
			 "cosmo_polarized_energy": -18.24, 
			 "cosmo_cavitation_energy": 27.63, 
			 "cosmo_dispersion_energy": -20.04, 
			 "cosmo_repulsion_energy": 1.6, 
			 "cosmo_total_nonelectrostatic_energy": 9.19, 
			 "SMD_solvation_energy": 6.32 
		},
		"coords": [
			{
				"x": 3.0227760123,
				"y": -1.9392034317,
				"z": 2.3784719814,
				"element": "N" 
			},
			{
				"x": 1.8639354765,
				"y": -1.3907137001,
				"z": 1.9090941568,
				"element": "C" 
			},
			{
				"x": 0.8010144287,
				"y": -1.5580724078,
				"z": 2.5153189524,
				"element": "O" 
			},
			{
				"x": 1.9946839451,
				"y": -0.6253852659,
				"z": 0.6380833516,
				"element": "C" 
			},
			{
				"x": 1.0452703365,
				"y": 0.1176618925,
				"z": -0.0521577602,
				"element": "C" 
			},
			{
				"x": -0.1945860546,
				"y": 0.5621895314,
				"z": 0.2050307822,
				"element": "N" 
			},
			{
				"x": -0.9154360093,
				"y": 0.5467777126,
				"z": 1.4866889253,
				"element": "C" 
			},
			{
				"x": -2.3196789429,
				"y": -0.017543092,
				"z": 1.2738205447,
				"element": "C" 
			},
			{
				"x": -3.0304938938,
				"y": 0.693883661,
				"z": 0.2645137087,
				"element": "O" 
			},
			{
				"x": -2.3436254922,
				"y": 0.6504528732,
				"z": -0.972964703,
				"element": "C" 
			},
			{
				"x": -0.9457845865,
				"y": 1.2638986182,
				"z": -0.8455018434,
				"element": "C" 
			},
			{
				"x": 3.2480583438,
				"y": -0.728367226,
				"z": -0.0391883759,
				"element": "C" 
			},
			{
				"x": 4.2925946135,
				"y": -0.8370588394,
				"z": -0.5492136485,
				"element": "N" 
			},
			{
				"x": 2.944511942,
				"y": -2.5466750412,
				"z": 3.1786858966,
				"element": "H" 
			},
			{
				"x": 3.8894967878,
				"y": -1.9040116914,
				"z": 1.8646904877,
				"element": "H" 
			},
			{
				"x": 1.3820902007,
				"y": 0.4328007767,
				"z": -1.0377937418,
				"element": "H" 
			},
			{
				"x": -0.9865649376,
				"y": 1.5845193684,
				"z": 1.8410153563,
				"element": "H" 
			},
			{
				"x": -0.3664077625,
				"y": -0.0644829964,
				"z": 2.2005591669,
				"element": "H" 
			},
			{
				"x": -2.9044217377,
				"y": 0.0776519828,
				"z": 2.1923509871,
				"element": "H" 
			},
			{
				"x": -2.246375531,
				"y": -1.0846452113,
				"z": 1.0126244239,
				"element": "H" 
			},
			{
				"x": -2.2557188684,
				"y": -0.3875772074,
				"z": -1.3339914443,
				"element": "H" 
			},
			{
				"x": -2.9411146602,
				"y": 1.2207966946,
				"z": -1.6902946675,
				"element": "H" 
			},
			{
				"x": -1.0415735498,
				"y": 2.3236456551,
				"z": -0.572210556,
				"element": "H" 
			},
			{
				"x": -0.4083500605,
				"y": 1.1932573442,
				"z": -1.7945319811,
				"element": "H" 
			}
		],
		 "valence_orbital": [ 
			{
				"type": "occ",
				"energy": -0.32177,
				"method": "rhf"
			},
			{
				"type": "occ",
				"energy": -0.27571,
				"method": "rhf"
			},
			{
				"type": "occ",
				"energy": -0.268,
				"method": "rhf"
			},
			{
				"type": "occ",
				"energy": -0.25461,
				"method": "rhf"
			},
			{
				"type": "occ",
				"energy": -0.22125,
				"method": "rhf"
			},
			{
				"type": "unocc",
				"energy": -0.03711,
				"method": "rhf"
			},
			{
				"type": "unocc",
				"energy": 0.03305,
				"method": "rhf"
			},
			{
				"type": "unocc",
				"energy": 0.04247,
				"method": "rhf"
			},
			{
				"type": "unocc",
				"energy": 0.0642,
				"method": "rhf"
			},
			{
				"type": "unocc",
				"energy": 0.09287,
				"method": "rhf"
			}
		],
		"cosmo_sigma_profile": { 
			"-0.025": 0.0,
			"-0.024": 0.0,
			"-0.023": 0.0,
			"-0.022": 0.0,
			"-0.021": 0.0,
			"-0.02": 0.0,
			"-0.019": 0.0,
			"-0.018": 0.0,
			"-0.017": 0.0,
			"-0.016": 0.0,
			"-0.015": 0.0,
			"-0.014": 0.722916249172,
			"-0.013": 1.36256326402,
			"-0.012": 1.57834035982,
			"-0.011": 3.02728785039,
			"-0.01": 4.11028787828,
			"-0.009": 4.14128613998,
			"-0.008": 4.37619586776,
			"-0.007": 5.75061398867,
			"-0.006": 14.4959733061,
			"-0.005": 21.0722395144,
			"-0.004": 20.5375084838,
			"-0.003": 14.9282247628,
			"-0.002": 13.6008621145,
			"-0.001": 12.1837213922,
			"0.0": 11.0071464743,
			"0.001": 10.5018265593,
			"0.002": 9.43240913839,
			"0.003": 6.70956034599,
			"0.004": 5.70019119198,
			"0.005": 5.34079633343,
			"0.006": 5.67946587815,
			"0.007": 4.39782658777,
			"0.008": 5.18279415572,
			"0.009": 5.49789785177,
			"0.01": 5.07979061003,
			"0.011": 5.01776958719,
			"0.012": 7.07687757886,
			"0.013": 5.89118272482,
			"0.014": 4.04553869335,
			"0.015": 0.558341261063,
			"0.016": 0.0,
			"0.017": 0.0,
			"0.018": 0.0,
			"0.019": 0.0,
			"0.02": 0.0,
			"0.021": 0.0,
			"0.022": 0.0,
			"0.023": 0.0,
			"0.024": 0.0,
			"0.025": 0.0
		}
	}
}
