{
	 "smiles": "CCCCCCCCCCOC(C)=O", 
	 "Tm": 258.15, 
	 "num_atms": 38, 
	 "gaussian": { 
		 "optdone": 1, 
		 "sigma_profile": "yes", 
		 "theory": "DFT", 
		 "functional": "B3LYP", 
		 "basiset": "6-31G**", 
		 "properties": { 
			 "R2extent": 6125.1482, 
			 "electric_dipole_moment_norm": 1.80658334433, 
			 "electric_quadrupole_moment_norm": 14.8842643087, 
			 "total_energy": -622.224307782, 
			 "HOMO_LUMO_gap": 0.28276, 
			 "cosmo_polarized_energy": -6.38, 
			 "cosmo_cavitation_energy": 38.23, 
			 "cosmo_dispersion_energy": -26.11, 
			 "cosmo_repulsion_energy": 2.13, 
			 "cosmo_total_nonelectrostatic_energy": 14.24, 
			 "SMD_solvation_energy": 6.73 
		},
		"coords": [
			{
				"x": -0.7345933277,
				"y": -0.1113015384,
				"z": -4.5938775572,
				"element": "C" 
			},
			{
				"x": -2.0160991943,
				"y": -0.6567259337,
				"z": -3.9531238473,
				"element": "C" 
			},
			{
				"x": -1.9642073975,
				"y": -0.8572181983,
				"z": -2.4275213797,
				"element": "C" 
			},
			{
				"x": -1.7676062994,
				"y": 0.4374193433,
				"z": -1.6031520119,
				"element": "C" 
			},
			{
				"x": -0.3085977136,
				"y": 0.8134586743,
				"z": -1.2493657332,
				"element": "C" 
			},
			{
				"x": 0.192565606,
				"y": 0.2911266468,
				"z": 0.1091023884,
				"element": "C" 
			},
			{
				"x": 0.2628483372,
				"y": -1.2390347512,
				"z": 0.2511933874,
				"element": "C" 
			},
			{
				"x": 0.8878795588,
				"y": -1.7219025985,
				"z": 1.5810351613,
				"element": "C" 
			},
			{
				"x": 2.38521197,
				"y": -2.0740091888,
				"z": 1.5210638414,
				"element": "C" 
			},
			{
				"x": 3.32644114,
				"y": -0.9483850984,
				"z": 1.1015868804,
				"element": "C" 
			},
			{
				"x": 3.1973112204,
				"y": 0.2170682253,
				"z": 1.9523102152,
				"element": "O" 
			},
			{
				"x": 3.9343821507,
				"y": 0.226352114,
				"z": 3.088854729,
				"element": "C" 
			},
			{
				"x": 3.6959666267,
				"y": 1.4987144867,
				"z": 3.868040573,
				"element": "C" 
			},
			{
				"x": 4.682207776,
				"y": -0.6683537328,
				"z": 3.418982218,
				"element": "O" 
			},
			{
				"x": -0.4902919747,
				"y": 0.8916050048,
				"z": -4.2291390951,
				"element": "H" 
			},
			{
				"x": 0.1237474567,
				"y": -0.7598419928,
				"z": -4.3824471073,
				"element": "H" 
			},
			{
				"x": -0.8393610225,
				"y": -0.0465771929,
				"z": -5.6822540703,
				"element": "H" 
			},
			{
				"x": -2.2632697836,
				"y": -1.6191648899,
				"z": -4.4202581438,
				"element": "H" 
			},
			{
				"x": -2.8513854967,
				"y": 0.0165583422,
				"z": -4.1913541394,
				"element": "H" 
			},
			{
				"x": -2.9065151891,
				"y": -1.3317828702,
				"z": -2.1251321725,
				"element": "H" 
			},
			{
				"x": -1.1746831591,
				"y": -1.5798140657,
				"z": -2.1858423277,
				"element": "H" 
			},
			{
				"x": -2.230509112,
				"y": 1.2666003283,
				"z": -2.1545939458,
				"element": "H" 
			},
			{
				"x": -2.3369591997,
				"y": 0.3606593771,
				"z": -0.6672872768,
				"element": "H" 
			},
			{
				"x": -0.2187038195,
				"y": 1.9071464123,
				"z": -1.2334123028,
				"element": "H" 
			},
			{
				"x": 0.369100652,
				"y": 0.4705932303,
				"z": -2.0413861891,
				"element": "H" 
			},
			{
				"x": 1.1796802195,
				"y": 0.7241791203,
				"z": 0.3095504843,
				"element": "H" 
			},
			{
				"x": -0.4636902813,
				"y": 0.6811039493,
				"z": 0.9009065559,
				"element": "H" 
			},
			{
				"x": -0.7508458423,
				"y": -1.647464161,
				"z": 0.1661897616,
				"element": "H" 
			},
			{
				"x": 0.8242759103,
				"y": -1.6641744377,
				"z": -0.5938892347,
				"element": "H" 
			},
			{
				"x": 0.3615398915,
				"y": -2.6198435469,
				"z": 1.9258419925,
				"element": "H" 
			},
			{
				"x": 0.7249311672,
				"y": -0.963373903,
				"z": 2.356947276,
				"element": "H" 
			},
			{
				"x": 2.7135308725,
				"y": -2.447821257,
				"z": 2.4972741783,
				"element": "H" 
			},
			{
				"x": 2.5360842238,
				"y": -2.8962070996,
				"z": 0.8074762459,
				"element": "H" 
			},
			{
				"x": 4.3637553167,
				"y": -1.2903658325,
				"z": 1.1303520995,
				"element": "H" 
			},
			{
				"x": 3.0957844859,
				"y": -0.5806705852,
				"z": 0.099024011,
				"element": "H" 
			},
			{
				"x": 4.3040544859,
				"y": 1.4896035381,
				"z": 4.7719813622,
				"element": "H" 
			},
			{
				"x": 3.9499263436,
				"y": 2.3681038383,
				"z": 3.254548345,
				"element": "H" 
			},
			{
				"x": 2.6374934017,
				"y": 1.5845402432,
				"z": 4.1310748283,
				"element": "H" 
			}
		],
		 "valence_orbital": [ 
			{
				"type": "occ",
				"energy": -0.30659,
				"method": "rhf"
			},
			{
				"type": "occ",
				"energy": -0.30148,
				"method": "rhf"
			},
			{
				"type": "occ",
				"energy": -0.29794,
				"method": "rhf"
			},
			{
				"type": "occ",
				"energy": -0.28958,
				"method": "rhf"
			},
			{
				"type": "occ",
				"energy": -0.2676,
				"method": "rhf"
			},
			{
				"type": "unocc",
				"energy": 0.01516,
				"method": "rhf"
			},
			{
				"type": "unocc",
				"energy": 0.08029,
				"method": "rhf"
			},
			{
				"type": "unocc",
				"energy": 0.09381,
				"method": "rhf"
			},
			{
				"type": "unocc",
				"energy": 0.10265,
				"method": "rhf"
			},
			{
				"type": "unocc",
				"energy": 0.10883,
				"method": "rhf"
			}
		],
		"cosmo_sigma_profile": { 
			"-0.025": 0.0,
			"-0.024": 0.0,
			"-0.023": 0.0,
			"-0.022": 0.0,
			"-0.021": 0.0,
			"-0.02": 0.0,
			"-0.019": 0.0,
			"-0.018": 0.0,
			"-0.017": 0.0,
			"-0.016": 0.0,
			"-0.015": 0.0,
			"-0.014": 0.0,
			"-0.013": 0.0,
			"-0.012": 0.0,
			"-0.011": 0.0,
			"-0.01": 0.0,
			"-0.009": 0.0,
			"-0.008": 0.0,
			"-0.007": 0.485978026467,
			"-0.006": 4.04001693638,
			"-0.005": 7.2804883421,
			"-0.004": 12.7927427494,
			"-0.003": 20.0353718607,
			"-0.002": 38.0820056759,
			"-0.001": 60.3422948047,
			"0.0": 60.9417259052,
			"0.001": 40.1400015191,
			"0.002": 18.2677964597,
			"0.003": 4.44401844439,
			"0.004": 3.73369087305,
			"0.005": 3.30470692837,
			"0.006": 3.373224258,
			"0.007": 3.15868885364,
			"0.008": 1.94183127465,
			"0.009": 1.51585528129,
			"0.01": 1.80141663943,
			"0.011": 2.44437235613,
			"0.012": 4.31062881136,
			"0.013": 1.90445867677,
			"0.014": 0.0374984294116,
			"0.015": 0.0,
			"0.016": 0.0,
			"0.017": 0.0,
			"0.018": 0.0,
			"0.019": 0.0,
			"0.02": 0.0,
			"0.021": 0.0,
			"0.022": 0.0,
			"0.023": 0.0,
			"0.024": 0.0,
			"0.025": 0.0
		}
	}
}
