{
	 "smiles": "NS(=O)(=O)C1=CC2=C(CCCC2)C=C1", 
	 "Tm": 409.15, 
	 "num_atms": 27, 
	 "gaussian": { 
		 "optdone": 1, 
		 "sigma_profile": "yes", 
		 "theory": "DFT", 
		 "functional": "B3LYP", 
		 "basiset": "6-31G**", 
		 "properties": { 
			 "R2extent": 4543.9874, 
			 "electric_dipole_moment_norm": 4.38326349767, 
			 "electric_quadrupole_moment_norm": 21.3469237386, 
			 "total_energy": -992.238379895, 
			 "HOMO_LUMO_gap": 0.21855, 
			 "cosmo_polarized_energy": -14.54, 
			 "cosmo_cavitation_energy": 30.36, 
			 "cosmo_dispersion_energy": -23.16, 
			 "cosmo_repulsion_energy": 1.79, 
			 "cosmo_total_nonelectrostatic_energy": 8.99, 
			 "SMD_solvation_energy": 3.86 
		},
		"coords": [
			{
				"x": -2.66288354,
				"y": 2.2070315199,
				"z": -1.8512767252,
				"element": "N" 
			},
			{
				"x": -2.3653563216,
				"y": 2.7616382332,
				"z": -0.2727832678,
				"element": "S" 
			},
			{
				"x": -3.3938963019,
				"y": 2.1947312808,
				"z": 0.6068132863,
				"element": "O" 
			},
			{
				"x": -2.1504349092,
				"y": 4.2074900238,
				"z": -0.3900574168,
				"element": "O" 
			},
			{
				"x": -0.803817656,
				"y": 1.9970008959,
				"z": 0.1493725569,
				"element": "C" 
			},
			{
				"x": -0.7979057712,
				"y": 0.8281538075,
				"z": 0.9033377679,
				"element": "C" 
			},
			{
				"x": 0.4128370324,
				"y": 0.2102265693,
				"z": 1.2442223524,
				"element": "C" 
			},
			{
				"x": 1.6215301689,
				"y": 0.7877486068,
				"z": 0.8126031307,
				"element": "C" 
			},
			{
				"x": 2.9607466463,
				"y": 0.1423347991,
				"z": 1.1226189036,
				"element": "C" 
			},
			{
				"x": 2.8971743195,
				"y": -0.8793987842,
				"z": 2.2648217314,
				"element": "C" 
			},
			{
				"x": 1.7093792102,
				"y": -1.8272052581,
				"z": 2.0659073067,
				"element": "C" 
			},
			{
				"x": 0.3911447792,
				"y": -1.04399207,
				"z": 2.101991581,
				"element": "C" 
			},
			{
				"x": 1.5867602363,
				"y": 1.9741542815,
				"z": 0.0621467905,
				"element": "C" 
			},
			{
				"x": 0.3877650679,
				"y": 2.5897587307,
				"z": -0.2747004225,
				"element": "C" 
			},
			{
				"x": -3.4422664447,
				"y": 1.5539628907,
				"z": -1.8399765784,
				"element": "H" 
			},
			{
				"x": -2.8694712092,
				"y": 3.0113611269,
				"z": -2.43840526,
				"element": "H" 
			},
			{
				"x": -1.7405056609,
				"y": 0.4070314803,
				"z": 1.2394380582,
				"element": "H" 
			},
			{
				"x": 3.3204896753,
				"y": -0.3606949442,
				"z": 0.2127771332,
				"element": "H" 
			},
			{
				"x": 3.6991298759,
				"y": 0.9222729898,
				"z": 1.3432370114,
				"element": "H" 
			},
			{
				"x": 3.8385271755,
				"y": -1.4374770806,
				"z": 2.3155041308,
				"element": "H" 
			},
			{
				"x": 2.787383632,
				"y": -0.3565972481,
				"z": 3.2244077466,
				"element": "H" 
			},
			{
				"x": 1.6985308385,
				"y": -2.6065847939,
				"z": 2.8356728513,
				"element": "H" 
			},
			{
				"x": 1.8113704758,
				"y": -2.3388158354,
				"z": 1.0992892083,
				"element": "H" 
			},
			{
				"x": -0.4449866707,
				"y": -1.6828397544,
				"z": 1.7943635584,
				"element": "H" 
			},
			{
				"x": 0.1776558631,
				"y": -0.7512067414,
				"z": 3.1403509696,
				"element": "H" 
			},
			{
				"x": 2.5241432367,
				"y": 2.4238131473,
				"z": -0.2563596282,
				"element": "H" 
			},
			{
				"x": 0.368756252,
				"y": 3.5164021268,
				"z": -0.8374167761,
				"element": "H" 
			}
		],
		 "valence_orbital": [ 
			{
				"type": "occ",
				"energy": -0.30699,
				"method": "rhf"
			},
			{
				"type": "occ",
				"energy": -0.29911,
				"method": "rhf"
			},
			{
				"type": "occ",
				"energy": -0.29062,
				"method": "rhf"
			},
			{
				"type": "occ",
				"energy": -0.25681,
				"method": "rhf"
			},
			{
				"type": "occ",
				"energy": -0.24822,
				"method": "rhf"
			},
			{
				"type": "unocc",
				"energy": -0.02967,
				"method": "rhf"
			},
			{
				"type": "unocc",
				"energy": -0.01459,
				"method": "rhf"
			},
			{
				"type": "unocc",
				"energy": 0.05969,
				"method": "rhf"
			},
			{
				"type": "unocc",
				"energy": 0.08326,
				"method": "rhf"
			},
			{
				"type": "unocc",
				"energy": 0.08826,
				"method": "rhf"
			}
		],
		"cosmo_sigma_profile": { 
			"-0.025": 0.0,
			"-0.024": 0.0,
			"-0.023": 0.0,
			"-0.022": 0.0,
			"-0.021": 0.0,
			"-0.02": 0.0,
			"-0.019": 0.0,
			"-0.018": 0.0,
			"-0.017": 0.0,
			"-0.016": 0.0,
			"-0.015": 0.496037807956,
			"-0.014": 2.45763888215,
			"-0.013": 2.48812595248,
			"-0.012": 2.63252233549,
			"-0.011": 1.75205218864,
			"-0.01": 2.14977677413,
			"-0.009": 2.33310367827,
			"-0.008": 1.62017438941,
			"-0.007": 2.17869027941,
			"-0.006": 5.50537518151,
			"-0.005": 8.11357977402,
			"-0.004": 15.8273791698,
			"-0.003": 23.3874957022,
			"-0.002": 31.350146428,
			"-0.001": 28.1924141672,
			"0.0": 21.8410430917,
			"0.001": 12.1060886404,
			"0.002": 9.69690618587,
			"0.003": 11.0995174367,
			"0.004": 12.0695446888,
			"0.005": 4.43867481639,
			"0.006": 3.3004006072,
			"0.007": 3.77579306789,
			"0.008": 3.10052135759,
			"0.009": 3.8942845465,
			"0.01": 7.15125101026,
			"0.011": 10.2862961802,
			"0.012": 5.32971960462,
			"0.013": 0.262376748733,
			"0.014": 0.0041762926035,
			"0.015": 0.0,
			"0.016": 0.0,
			"0.017": 0.0,
			"0.018": 0.0,
			"0.019": 0.0,
			"0.02": 0.0,
			"0.021": 0.0,
			"0.022": 0.0,
			"0.023": 0.0,
			"0.024": 0.0,
			"0.025": 0.0
		}
	}
}
