{
	 "smiles": "COC1=CC=C(C=NN2C(S)=NN=C2C(F)(F)F)C=C1", 
	 "Tm": 461.15, 
	 "num_atms": 29, 
	 "gaussian": { 
		 "optdone": 1, 
		 "sigma_profile": "yes", 
		 "theory": "DFT", 
		 "functional": "B3LYP", 
		 "basiset": "6-31G**", 
		 "properties": { 
			 "R2extent": 9639.0945, 
			 "electric_dipole_moment_norm": 7.78680274118, 
			 "electric_quadrupole_moment_norm": 26.4835624977, 
			 "total_energy": -1416.44350062, 
			 "HOMO_LUMO_gap": 0.15858, 
			 "cosmo_polarized_energy": -16.46, 
			 "cosmo_cavitation_energy": 38.16, 
			 "cosmo_dispersion_energy": -26.95, 
			 "cosmo_repulsion_energy": 1.97, 
			 "cosmo_total_nonelectrostatic_energy": 13.17, 
			 "SMD_solvation_energy": 6.01 
		},
		"coords": [
			{
				"x": 4.5130632325,
				"y": 1.5501287653,
				"z": -1.5661705651,
				"element": "C" 
			},
			{
				"x": 3.8490291818,
				"y": 0.3080812675,
				"z": -1.7715659307,
				"element": "O" 
			},
			{
				"x": 2.6321736118,
				"y": 0.1167321134,
				"z": -1.2062652813,
				"element": "C" 
			},
			{
				"x": 1.9596621785,
				"y": 1.0697747795,
				"z": -0.4206181023,
				"element": "C" 
			},
			{
				"x": 0.7116326892,
				"y": 0.7689350672,
				"z": 0.1093988271,
				"element": "C" 
			},
			{
				"x": 0.1088482489,
				"y": -0.4790731071,
				"z": -0.1245135538,
				"element": "C" 
			},
			{
				"x": -1.1917738931,
				"y": -0.8234628902,
				"z": 0.4288808163,
				"element": "C" 
			},
			{
				"x": -1.8424208957,
				"y": -0.0006272788,
				"z": 1.177858443,
				"element": "N" 
			},
			{
				"x": -3.0859622479,
				"y": -0.4112856757,
				"z": 1.6315253892,
				"element": "N" 
			},
			{
				"x": -4.1264936377,
				"y": -1.1052884041,
				"z": 1.0462827339,
				"element": "C" 
			},
			{
				"x": -4.1083753069,
				"y": -1.7692747879,
				"z": -0.5885767021,
				"element": "S" 
			},
			{
				"x": -5.1673081276,
				"y": -1.1288372101,
				"z": 1.8524108594,
				"element": "N" 
			},
			{
				"x": -4.8298087568,
				"y": -0.4363905145,
				"z": 2.993559804,
				"element": "N" 
			},
			{
				"x": -3.6043654508,
				"y": -0.0066722251,
				"z": 2.8419267008,
				"element": "C" 
			},
			{
				"x": -2.8275538597,
				"y": 0.7931229165,
				"z": 3.8450857298,
				"element": "C" 
			},
			{
				"x": -1.678458401,
				"y": 0.1681862074,
				"z": 4.1820622279,
				"element": "F" 
			},
			{
				"x": -2.4944931025,
				"y": 2.0062101855,
				"z": 3.3578163659,
				"element": "F" 
			},
			{
				"x": -3.5503526904,
				"y": 0.9726821973,
				"z": 4.9561029627,
				"element": "F" 
			},
			{
				"x": 0.7942136591,
				"y": -1.4227647825,
				"z": -0.9140945055,
				"element": "C" 
			},
			{
				"x": 2.0381831953,
				"y": -1.1334401536,
				"z": -1.4493969403,
				"element": "C" 
			},
			{
				"x": 4.7140654768,
				"y": 1.7267729725,
				"z": -0.5027125092,
				"element": "H" 
			},
			{
				"x": 3.9319468854,
				"y": 2.3877081642,
				"z": -1.970375125,
				"element": "H" 
			},
			{
				"x": 5.4585528221,
				"y": 1.4746221059,
				"z": -2.1041078876,
				"element": "H" 
			},
			{
				"x": 2.4016006581,
				"y": 2.038835415,
				"z": -0.2234336217,
				"element": "H" 
			},
			{
				"x": 0.1868596015,
				"y": 1.499463146,
				"z": 0.7159570938,
				"element": "H" 
			},
			{
				"x": -1.5743437366,
				"y": -1.8208090906,
				"z": 0.1920309724,
				"element": "H" 
			},
			{
				"x": -5.4464282353,
				"y": -1.9272825241,
				"z": -0.5949458617,
				"element": "H" 
			},
			{
				"x": 0.3416364143,
				"y": -2.392253404,
				"z": -1.1062378675,
				"element": "H" 
			},
			{
				"x": 2.5750704868,
				"y": -1.8522932547,
				"z": -2.0586844724,
				"element": "H" 
			}
		],
		 "valence_orbital": [ 
			{
				"type": "occ",
				"energy": -0.28691,
				"method": "rhf"
			},
			{
				"type": "occ",
				"energy": -0.27681,
				"method": "rhf"
			},
			{
				"type": "occ",
				"energy": -0.26664,
				"method": "rhf"
			},
			{
				"type": "occ",
				"energy": -0.24863,
				"method": "rhf"
			},
			{
				"type": "occ",
				"energy": -0.23464,
				"method": "rhf"
			},
			{
				"type": "unocc",
				"energy": -0.07606,
				"method": "rhf"
			},
			{
				"type": "unocc",
				"energy": -0.02377,
				"method": "rhf"
			},
			{
				"type": "unocc",
				"energy": -0.00487,
				"method": "rhf"
			},
			{
				"type": "unocc",
				"energy": -0.00111,
				"method": "rhf"
			},
			{
				"type": "unocc",
				"energy": 0.02194,
				"method": "rhf"
			}
		],
		"cosmo_sigma_profile": { 
			"-0.025": 0.0,
			"-0.024": 0.0,
			"-0.023": 0.0,
			"-0.022": 0.0,
			"-0.021": 0.0,
			"-0.02": 0.0,
			"-0.019": 0.0,
			"-0.018": 0.0,
			"-0.017": 0.0,
			"-0.016": 0.0,
			"-0.015": 0.0,
			"-0.014": 0.0,
			"-0.013": 0.929649062188,
			"-0.012": 1.62541658009,
			"-0.011": 1.1800574756,
			"-0.01": 2.74317327007,
			"-0.009": 3.85862914675,
			"-0.008": 4.14734097402,
			"-0.007": 9.87401711644,
			"-0.006": 17.9751868725,
			"-0.005": 19.2805734516,
			"-0.004": 20.1875609372,
			"-0.003": 20.3902078479,
			"-0.002": 15.9006937359,
			"-0.001": 18.5866040326,
			"0.0": 19.8713239899,
			"0.001": 24.9692973667,
			"0.002": 44.8054539291,
			"0.003": 29.8691803806,
			"0.004": 11.9196038012,
			"0.005": 8.6416894048,
			"0.006": 6.02999572777,
			"0.007": 4.53372276619,
			"0.008": 3.24632350662,
			"0.009": 4.23976589354,
			"0.01": 2.97477551402,
			"0.011": 3.0301841905,
			"0.012": 3.26370387358,
			"0.013": 2.37432574068,
			"0.014": 2.27429612442,
			"0.015": 0.701295646291,
			"0.016": 0.0,
			"0.017": 0.0,
			"0.018": 0.0,
			"0.019": 0.0,
			"0.02": 0.0,
			"0.021": 0.0,
			"0.022": 0.0,
			"0.023": 0.0,
			"0.024": 0.0,
			"0.025": 0.0
		}
	}
}
