{
	 "smiles": "NC1=CC(Br)=CC2=C1NC=C2", 
	 "Tm": 378.15, 
	 "num_atms": 18, 
	 "gaussian": { 
		 "optdone": 1, 
		 "sigma_profile": "yes", 
		 "theory": "DFT", 
		 "functional": "B3LYP", 
		 "basiset": "6-31G**", 
		 "properties": { 
			 "R2extent": 3855.014, 
			 "electric_dipole_moment_norm": 4.56406847013, 
			 "electric_quadrupole_moment_norm": 10.7610975611, 
			 "total_energy": -2989.97965894, 
			 "HOMO_LUMO_gap": 0.1888, 
			 "cosmo_polarized_energy": -13.27, 
			 "cosmo_cavitation_energy": 24.23, 
			 "cosmo_dispersion_energy": -18.64, 
			 "cosmo_repulsion_energy": 1.49, 
			 "cosmo_total_nonelectrostatic_energy": 7.08, 
			 "SMD_solvation_energy": 2.85 
		},
		"coords": [
			{
				"x": -2.5530561711,
				"y": 0.7470027431,
				"z": 1.7394408325,
				"element": "N" 
			},
			{
				"x": -1.2521059997,
				"y": 0.2379985227,
				"z": 1.5485861283,
				"element": "C" 
			},
			{
				"x": -0.310861852,
				"y": 0.1327554097,
				"z": 2.5712933648,
				"element": "C" 
			},
			{
				"x": 0.9595070107,
				"y": -0.4204121212,
				"z": 2.3179538312,
				"element": "C" 
			},
			{
				"x": 2.1940422671,
				"y": -0.527199107,
				"z": 3.7847262446,
				"element": "Br" 
			},
			{
				"x": 1.357559383,
				"y": -0.866616553,
				"z": 1.0708355522,
				"element": "C" 
			},
			{
				"x": 0.4164047755,
				"y": -0.7801835186,
				"z": 0.0249611728,
				"element": "C" 
			},
			{
				"x": -0.8683377617,
				"y": -0.2438986277,
				"z": 0.2853111281,
				"element": "C" 
			},
			{
				"x": -1.5921296589,
				"y": -0.28405182,
				"z": -0.8921716487,
				"element": "N" 
			},
			{
				"x": -0.8084825841,
				"y": -0.8645015894,
				"z": -1.8736618625,
				"element": "C" 
			},
			{
				"x": 0.4275413588,
				"y": -1.1606849585,
				"z": -1.3615352048,
				"element": "C" 
			},
			{
				"x": -2.7980444906,
				"y": 1.4617725806,
				"z": 1.0611821657,
				"element": "H" 
			},
			{
				"x": -2.6944521569,
				"y": 1.1145786011,
				"z": 2.6730686727,
				"element": "H" 
			},
			{
				"x": -0.5509515472,
				"y": 0.4888581916,
				"z": 3.5673557816,
				"element": "H" 
			},
			{
				"x": 2.3479216545,
				"y": -1.2760095975,
				"z": 0.9121320177,
				"element": "H" 
			},
			{
				"x": -2.5914472032,
				"y": -0.168081115,
				"z": -0.9471316282,
				"element": "H" 
			},
			{
				"x": -1.1997377258,
				"y": -1.0109682702,
				"z": -2.8703538279,
				"element": "H" 
			},
			{
				"x": 1.2526307016,
				"y": -1.5967587709,
				"z": -1.9061927202,
				"element": "H" 
			}
		],
		 "valence_orbital": [ 
			{
				"type": "occ",
				"energy": -0.27942,
				"method": "rhf"
			},
			{
				"type": "occ",
				"energy": -0.2726,
				"method": "rhf"
			},
			{
				"type": "occ",
				"energy": -0.25051,
				"method": "rhf"
			},
			{
				"type": "occ",
				"energy": -0.21539,
				"method": "rhf"
			},
			{
				"type": "occ",
				"energy": -0.19541,
				"method": "rhf"
			},
			{
				"type": "unocc",
				"energy": -0.00661,
				"method": "rhf"
			},
			{
				"type": "unocc",
				"energy": 0.01972,
				"method": "rhf"
			},
			{
				"type": "unocc",
				"energy": 0.02114,
				"method": "rhf"
			},
			{
				"type": "unocc",
				"energy": 0.05691,
				"method": "rhf"
			},
			{
				"type": "unocc",
				"energy": 0.0713,
				"method": "rhf"
			}
		],
		"cosmo_sigma_profile": { 
			"-0.025": 0.0,
			"-0.024": 0.0,
			"-0.023": 0.0,
			"-0.022": 0.0,
			"-0.021": 0.0,
			"-0.02": 0.0,
			"-0.019": 0.0,
			"-0.018": 0.0,
			"-0.017": 0.0,
			"-0.016": 0.210297703059,
			"-0.015": 0.901807118765,
			"-0.014": 1.18004135822,
			"-0.013": 1.65052447356,
			"-0.012": 4.11504789361,
			"-0.011": 5.09660592302,
			"-0.01": 3.13007766666,
			"-0.009": 4.33029232882,
			"-0.008": 6.36529210661,
			"-0.007": 4.46978529858,
			"-0.006": 8.01817601527,
			"-0.005": 7.22915920086,
			"-0.004": 7.89926245047,
			"-0.003": 9.02054668293,
			"-0.002": 8.73070275668,
			"-0.001": 8.09554424204,
			"0.0": 8.6886883936,
			"0.001": 9.39552068949,
			"0.002": 9.89112467837,
			"0.003": 12.8491496943,
			"0.004": 21.4449885947,
			"0.005": 28.6980631964,
			"0.006": 17.5009616044,
			"0.007": 3.25980227066,
			"0.008": 0.941032029168,
			"0.009": 0.711135958606,
			"0.01": 0.931461461541,
			"0.011": 0.0102791496885,
			"0.012": 0.137577260834,
			"0.013": 1.17441448559,
			"0.014": 0.466584743648,
			"0.015": 0.332769000406,
			"0.016": 0.0102916655205,
			"0.017": 0.0,
			"0.018": 0.0,
			"0.019": 0.0,
			"0.02": 0.0,
			"0.021": 0.0,
			"0.022": 0.0,
			"0.023": 0.0,
			"0.024": 0.0,
			"0.025": 0.0
		}
	}
}
