{
	 "smiles": "COS(F)(=O)=O", 
	 "Tm": 178.15, 
	 "num_atms": 9, 
	 "gaussian": { 
		 "optdone": 1, 
		 "sigma_profile": "yes", 
		 "theory": "DFT", 
		 "functional": "B3LYP", 
		 "basiset": "6-31G**", 
		 "properties": { 
			 "R2extent": 1241.5188, 
			 "electric_dipole_moment_norm": 3.25922145458, 
			 "electric_quadrupole_moment_norm": 6.47198775802, 
			 "total_energy": -763.525269757, 
			 "HOMO_LUMO_gap": 0.32246, 
			 "cosmo_polarized_energy": -6.7, 
			 "cosmo_cavitation_energy": 15.11, 
			 "cosmo_dispersion_energy": -12.14, 
			 "cosmo_repulsion_energy": 0.98, 
			 "cosmo_total_nonelectrostatic_energy": 3.95, 
			 "SMD_solvation_energy": 2.63 
		},
		"coords": [
			{
				"x": -0.3947947447,
				"y": -1.099494619,
				"z": 0.4300645985,
				"element": "C" 
			},
			{
				"x": -0.8610352735,
				"y": 0.1082270131,
				"z": -0.2326164896,
				"element": "O" 
			},
			{
				"x": -1.8037035045,
				"y": 1.044775911,
				"z": 0.679108332,
				"element": "S" 
			},
			{
				"x": -1.9991002902,
				"y": 2.131660914,
				"z": -0.4676399092,
				"element": "F" 
			},
			{
				"x": -3.0824694234,
				"y": 0.4137893279,
				"z": 0.9132272742,
				"element": "O" 
			},
			{
				"x": -1.0432359894,
				"y": 1.6572621627,
				"z": 1.7443555712,
				"element": "O" 
			},
			{
				"x": 0.2168122263,
				"y": -1.6036291424,
				"z": -0.3163005919,
				"element": "H" 
			},
			{
				"x": -1.2444564795,
				"y": -1.7258493399,
				"z": 0.7116506129,
				"element": "H" 
			},
			{
				"x": 0.2078834789,
				"y": -0.8403422274,
				"z": 1.3036506019,
				"element": "H" 
			}
		],
		 "valence_orbital": [ 
			{
				"type": "occ",
				"energy": -0.39901,
				"method": "rhf"
			},
			{
				"type": "occ",
				"energy": -0.3792,
				"method": "rhf"
			},
			{
				"type": "occ",
				"energy": -0.36958,
				"method": "rhf"
			},
			{
				"type": "occ",
				"energy": -0.34865,
				"method": "rhf"
			},
			{
				"type": "occ",
				"energy": -0.3245,
				"method": "rhf"
			},
			{
				"type": "unocc",
				"energy": -0.00204,
				"method": "rhf"
			},
			{
				"type": "unocc",
				"energy": 0.02446,
				"method": "rhf"
			},
			{
				"type": "unocc",
				"energy": 0.06889,
				"method": "rhf"
			},
			{
				"type": "unocc",
				"energy": 0.09996,
				"method": "rhf"
			},
			{
				"type": "unocc",
				"energy": 0.11494,
				"method": "rhf"
			}
		],
		"cosmo_sigma_profile": { 
			"-0.025": 0.0,
			"-0.024": 0.0,
			"-0.023": 0.0,
			"-0.022": 0.0,
			"-0.021": 0.0,
			"-0.02": 0.0,
			"-0.019": 0.0,
			"-0.018": 0.0,
			"-0.017": 0.0,
			"-0.016": 0.0,
			"-0.015": 0.0,
			"-0.014": 0.0,
			"-0.013": 0.0,
			"-0.012": 0.0,
			"-0.011": 0.0,
			"-0.01": 0.0,
			"-0.009": 1.08319725529,
			"-0.008": 5.8119085249,
			"-0.007": 8.72139041548,
			"-0.006": 9.64044047939,
			"-0.005": 8.44160537716,
			"-0.004": 4.34617898768,
			"-0.003": 4.18597581221,
			"-0.002": 5.48476689189,
			"-0.001": 4.87006316136,
			"0.0": 9.56808594842,
			"0.001": 14.3688310012,
			"0.002": 6.62937987909,
			"0.003": 4.55828821864,
			"0.004": 3.67949554063,
			"0.005": 4.18410905107,
			"0.006": 5.0370740354,
			"0.007": 10.645106367,
			"0.008": 9.57205973028,
			"0.009": 0.139131878817,
			"0.01": 0.0,
			"0.011": 0.0,
			"0.012": 0.0,
			"0.013": 0.0,
			"0.014": 0.0,
			"0.015": 0.0,
			"0.016": 0.0,
			"0.017": 0.0,
			"0.018": 0.0,
			"0.019": 0.0,
			"0.02": 0.0,
			"0.021": 0.0,
			"0.022": 0.0,
			"0.023": 0.0,
			"0.024": 0.0,
			"0.025": 0.0
		}
	}
}
