{
	 "smiles": "CN1CCOC2=CC(C=O)=CC=C12", 
	 "Tm": 343.65, 
	 "num_atms": 24, 
	 "gaussian": { 
		 "optdone": 1, 
		 "sigma_profile": "yes", 
		 "theory": "DFT", 
		 "functional": "B3LYP", 
		 "basiset": "6-31G**", 
		 "properties": { 
			 "R2extent": 3300.6361, 
			 "electric_dipole_moment_norm": 6.91959816608, 
			 "electric_quadrupole_moment_norm": 9.93801592824, 
			 "total_energy": -592.874333865, 
			 "HOMO_LUMO_gap": 0.15722, 
			 "cosmo_polarized_energy": -13.26, 
			 "cosmo_cavitation_energy": 26.88, 
			 "cosmo_dispersion_energy": -20.06, 
			 "cosmo_repulsion_energy": 1.56, 
			 "cosmo_total_nonelectrostatic_energy": 8.37, 
			 "SMD_solvation_energy": 4.97 
		},
		"coords": [
			{
				"x": 0.5266471833,
				"y": 3.9755628219,
				"z": -0.1354530747,
				"element": "C" 
			},
			{
				"x": 0.0486360346,
				"y": 2.6679364435,
				"z": 0.2736250517,
				"element": "N" 
			},
			{
				"x": -1.3135013714,
				"y": 2.3016953844,
				"z": -0.0868893811,
				"element": "C" 
			},
			{
				"x": -1.7522973478,
				"y": 1.1298651461,
				"z": 0.7803763615,
				"element": "C" 
			},
			{
				"x": -0.8887956245,
				"y": 0.0141484493,
				"z": 0.5913624333,
				"element": "O" 
			},
			{
				"x": 0.4549750328,
				"y": 0.2990817261,
				"z": 0.6437231833,
				"element": "C" 
			},
			{
				"x": 1.3233360511,
				"y": -0.756636143,
				"z": 0.848465941,
				"element": "C" 
			},
			{
				"x": 2.7122813397,
				"y": -0.5465341277,
				"z": 0.8791950954,
				"element": "C" 
			},
			{
				"x": 3.6327948982,
				"y": -1.6721287721,
				"z": 1.0941924864,
				"element": "C" 
			},
			{
				"x": 3.2977577022,
				"y": -2.8336506389,
				"z": 1.2553898019,
				"element": "O" 
			},
			{
				"x": 3.2077051792,
				"y": 0.7506375271,
				"z": 0.7057807975,
				"element": "C" 
			},
			{
				"x": 2.3423907287,
				"y": 1.8185757021,
				"z": 0.4955678541,
				"element": "C" 
			},
			{
				"x": 0.9469728873,
				"y": 1.6254192412,
				"z": 0.4636848807,
				"element": "C" 
			},
			{
				"x": 1.0057825975,
				"y": 3.9684098481,
				"z": -1.1271358569,
				"element": "H" 
			},
			{
				"x": 1.245926329,
				"y": 4.3691920291,
				"z": 0.5895227903,
				"element": "H" 
			},
			{
				"x": -0.3206305364,
				"y": 4.664213704,
				"z": -0.1680835858,
				"element": "H" 
			},
			{
				"x": -1.9712575999,
				"y": 3.1586813777,
				"z": 0.0937989564,
				"element": "H" 
			},
			{
				"x": -1.4026793098,
				"y": 2.0262227448,
				"z": -1.1506074357,
				"element": "H" 
			},
			{
				"x": -1.7558027543,
				"y": 1.4292926388,
				"z": 1.8373114902,
				"element": "H" 
			},
			{
				"x": -2.7534544577,
				"y": 0.790179194,
				"z": 0.504835173,
				"element": "H" 
			},
			{
				"x": 0.9274419743,
				"y": -1.7575940964,
				"z": 0.9828108547,
				"element": "H" 
			},
			{
				"x": 4.7097499006,
				"y": -1.3859327461,
				"z": 1.1018468346,
				"element": "H" 
			},
			{
				"x": 4.280756382,
				"y": 0.9246891491,
				"z": 0.7259038767,
				"element": "H" 
			},
			{
				"x": 2.7502647813,
				"y": 2.8108733969,
				"z": 0.3461754716,
				"element": "H" 
			}
		],
		 "valence_orbital": [ 
			{
				"type": "occ",
				"energy": -0.31519,
				"method": "rhf"
			},
			{
				"type": "occ",
				"energy": -0.29307,
				"method": "rhf"
			},
			{
				"type": "occ",
				"energy": -0.23708,
				"method": "rhf"
			},
			{
				"type": "occ",
				"energy": -0.23521,
				"method": "rhf"
			},
			{
				"type": "occ",
				"energy": -0.19946,
				"method": "rhf"
			},
			{
				"type": "unocc",
				"energy": -0.04224,
				"method": "rhf"
			},
			{
				"type": "unocc",
				"energy": 0.00333,
				"method": "rhf"
			},
			{
				"type": "unocc",
				"energy": 0.05782,
				"method": "rhf"
			},
			{
				"type": "unocc",
				"energy": 0.07689,
				"method": "rhf"
			},
			{
				"type": "unocc",
				"energy": 0.08852,
				"method": "rhf"
			}
		],
		"cosmo_sigma_profile": { 
			"-0.025": 0.0,
			"-0.024": 0.0,
			"-0.023": 0.0,
			"-0.022": 0.0,
			"-0.021": 0.0,
			"-0.02": 0.0,
			"-0.019": 0.0,
			"-0.018": 0.0,
			"-0.017": 0.0,
			"-0.016": 0.0,
			"-0.015": 0.0,
			"-0.014": 0.0,
			"-0.013": 0.0,
			"-0.012": 0.0,
			"-0.011": 0.0,
			"-0.01": 0.0,
			"-0.009": 0.0,
			"-0.008": 0.0748507869365,
			"-0.007": 4.63849173506,
			"-0.006": 15.8140215218,
			"-0.005": 22.9085592388,
			"-0.004": 23.9689352482,
			"-0.003": 22.700315305,
			"-0.002": 18.1013818406,
			"-0.001": 11.9664871932,
			"0.0": 7.8137465756,
			"0.001": 8.90652728858,
			"0.002": 9.54064428675,
			"0.003": 14.5310234983,
			"0.004": 14.7367826649,
			"0.005": 8.85653782463,
			"0.006": 3.91516123108,
			"0.007": 3.49449883851,
			"0.008": 2.50640675107,
			"0.009": 2.89231352621,
			"0.01": 3.65505024555,
			"0.011": 3.54107162712,
			"0.012": 4.17188959443,
			"0.013": 3.52427959896,
			"0.014": 0.850543217674,
			"0.015": 0.0,
			"0.016": 0.0,
			"0.017": 0.0,
			"0.018": 0.0,
			"0.019": 0.0,
			"0.02": 0.0,
			"0.021": 0.0,
			"0.022": 0.0,
			"0.023": 0.0,
			"0.024": 0.0,
			"0.025": 0.0
		}
	}
}
