{
	 "smiles": "OC(=O)C1CN(C1)C(C1=CC=CC=C1)C1=CC=CC=C1", 
	 "Tm": 452.15, 
	 "num_atms": 37, 
	 "gaussian": { 
		 "optdone": 1, 
		 "sigma_profile": "yes", 
		 "theory": "DFT", 
		 "functional": "B3LYP", 
		 "basiset": "6-31G**", 
		 "properties": { 
			 "R2extent": 6772.548, 
			 "electric_dipole_moment_norm": 1.84433268691, 
			 "electric_quadrupole_moment_norm": 7.93841600258, 
			 "total_energy": -863.233056287, 
			 "HOMO_LUMO_gap": 0.21241, 
			 "cosmo_polarized_energy": -13.79, 
			 "cosmo_cavitation_energy": 40.44, 
			 "cosmo_dispersion_energy": -27.16, 
			 "cosmo_repulsion_energy": 2.12, 
			 "cosmo_total_nonelectrostatic_energy": 15.41, 
			 "SMD_solvation_energy": 6.76 
		},
		"coords": [
			{
				"x": -2.3690129449,
				"y": -3.6108739586,
				"z": 1.6763538524,
				"element": "O" 
			},
			{
				"x": -2.6464393607,
				"y": -2.4324208598,
				"z": 1.0637862424,
				"element": "C" 
			},
			{
				"x": -3.6728431756,
				"y": -1.8214085397,
				"z": 1.2629325347,
				"element": "O" 
			},
			{
				"x": -1.5329250145,
				"y": -2.0334160792,
				"z": 0.1243041013,
				"element": "C" 
			},
			{
				"x": -0.1911555787,
				"y": -1.6765711652,
				"z": 0.82463036,
				"element": "C" 
			},
			{
				"x": -0.5602299259,
				"y": -0.2476732162,
				"z": 0.719894609,
				"element": "N" 
			},
			{
				"x": -1.5759717486,
				"y": -0.5569226304,
				"z": -0.3168116203,
				"element": "C" 
			},
			{
				"x": 0.4874918092,
				"y": 0.7131653488,
				"z": 0.4013047456,
				"element": "C" 
			},
			{
				"x": 1.5475202474,
				"y": 0.7235510562,
				"z": 1.5029006991,
				"element": "C" 
			},
			{
				"x": 1.1809340048,
				"y": 0.7301103078,
				"z": 2.8556919489,
				"element": "C" 
			},
			{
				"x": 2.1545777375,
				"y": 0.7643345208,
				"z": 3.853448134,
				"element": "C" 
			},
			{
				"x": 3.509811801,
				"y": 0.7965570587,
				"z": 3.5150756579,
				"element": "C" 
			},
			{
				"x": 3.8839397998,
				"y": 0.7876343734,
				"z": 2.171097691,
				"element": "C" 
			},
			{
				"x": 2.907323963,
				"y": 0.7469554418,
				"z": 1.1738387919,
				"element": "C" 
			},
			{
				"x": -0.1085811903,
				"y": 2.1037539195,
				"z": 0.1797102929,
				"element": "C" 
			},
			{
				"x": 0.4811506219,
				"y": 2.9767490926,
				"z": -0.7424240336,
				"element": "C" 
			},
			{
				"x": -0.023925437,
				"y": 4.2633357492,
				"z": -0.9323234929,
				"element": "C" 
			},
			{
				"x": -1.1353736969,
				"y": 4.6926888676,
				"z": -0.2046493005,
				"element": "C" 
			},
			{
				"x": -1.7351406921,
				"y": 3.8261147003,
				"z": 0.7109725772,
				"element": "C" 
			},
			{
				"x": -1.2250585814,
				"y": 2.541333104,
				"z": 0.9038116141,
				"element": "C" 
			},
			{
				"x": -3.1281981289,
				"y": -3.8003425073,
				"z": 2.2530101235,
				"element": "H" 
			},
			{
				"x": -1.4575128005,
				"y": -2.7869849465,
				"z": -0.6641688024,
				"element": "H" 
			},
			{
				"x": -0.0281980992,
				"y": -2.0472200233,
				"z": 1.8404010154,
				"element": "H" 
			},
			{
				"x": 0.6730693472,
				"y": -1.9539511878,
				"z": 0.2002547059,
				"element": "H" 
			},
			{
				"x": -2.5299924644,
				"y": -0.0377856191,
				"z": -0.2016861834,
				"element": "H" 
			},
			{
				"x": -1.201489263,
				"y": -0.4240755205,
				"z": -1.3439561741,
				"element": "H" 
			},
			{
				"x": 1.0011497636,
				"y": 0.4262870441,
				"z": -0.5388436005,
				"element": "H" 
			},
			{
				"x": 0.12821703,
				"y": 0.6990152208,
				"z": 3.1179020272,
				"element": "H" 
			},
			{
				"x": 1.8551594199,
				"y": 0.7661889949,
				"z": 4.8979807468,
				"element": "H" 
			},
			{
				"x": 4.2671765876,
				"y": 0.8240516362,
				"z": 4.293339672,
				"element": "H" 
			},
			{
				"x": 4.9350904217,
				"y": 0.805647458,
				"z": 1.896827391,
				"element": "H" 
			},
			{
				"x": 3.2055019391,
				"y": 0.7315400202,
				"z": 0.1281275812,
				"element": "H" 
			},
			{
				"x": 1.3437957394,
				"y": 2.6464592083,
				"z": -1.316473185,
				"element": "H" 
			},
			{
				"x": 0.4464958825,
				"y": 4.9271160971,
				"z": -1.6524716616,
				"element": "H" 
			},
			{
				"x": -1.5338915973,
				"y": 5.6921236432,
				"z": -0.3542571106,
				"element": "H" 
			},
			{
				"x": -2.6050789604,
				"y": 4.149149564,
				"z": 1.276209625,
				"element": "H" 
			},
			{
				"x": -1.6967874551,
				"y": 1.8632838262,
				"z": 1.6076584247,
				"element": "H" 
			}
		],
		 "valence_orbital": [ 
			{
				"type": "occ",
				"energy": -0.25053,
				"method": "rhf"
			},
			{
				"type": "occ",
				"energy": -0.24812,
				"method": "rhf"
			},
			{
				"type": "occ",
				"energy": -0.24355,
				"method": "rhf"
			},
			{
				"type": "occ",
				"energy": -0.23167,
				"method": "rhf"
			},
			{
				"type": "occ",
				"energy": -0.22369,
				"method": "rhf"
			},
			{
				"type": "unocc",
				"energy": -0.01128,
				"method": "rhf"
			},
			{
				"type": "unocc",
				"energy": -0.0042,
				"method": "rhf"
			},
			{
				"type": "unocc",
				"energy": 0.00551,
				"method": "rhf"
			},
			{
				"type": "unocc",
				"energy": 0.00856,
				"method": "rhf"
			},
			{
				"type": "unocc",
				"energy": 0.01528,
				"method": "rhf"
			}
		],
		"cosmo_sigma_profile": { 
			"-0.025": 0.0,
			"-0.024": 0.0,
			"-0.023": 0.0,
			"-0.022": 0.0,
			"-0.021": 0.0,
			"-0.02": 0.0,
			"-0.019": 0.037084755864,
			"-0.018": 0.695946985589,
			"-0.017": 1.03358401189,
			"-0.016": 0.817009246282,
			"-0.015": 0.580040967824,
			"-0.014": 0.958337592717,
			"-0.013": 0.599157315435,
			"-0.012": 0.614234264246,
			"-0.011": 0.673482897738,
			"-0.01": 0.410621693459,
			"-0.009": 0.649088894318,
			"-0.008": 0.710956824798,
			"-0.007": 3.15040351779,
			"-0.006": 8.19168546105,
			"-0.005": 24.1236457792,
			"-0.004": 37.1949543633,
			"-0.003": 34.1857497977,
			"-0.002": 26.8993803081,
			"-0.001": 24.4110576527,
			"0.0": 16.9146447612,
			"0.001": 18.5057068705,
			"0.002": 17.9658115437,
			"0.003": 17.6616912795,
			"0.004": 18.7326777731,
			"0.005": 20.7130927595,
			"0.006": 20.9475318382,
			"0.007": 5.63504399068,
			"0.008": 3.34688862686,
			"0.009": 3.33585388621,
			"0.01": 2.77259495587,
			"0.011": 3.78985718824,
			"0.012": 3.95368230035,
			"0.013": 0.0552632259744,
			"0.014": 0.0,
			"0.015": 0.0,
			"0.016": 0.0,
			"0.017": 0.0,
			"0.018": 0.0,
			"0.019": 0.0,
			"0.02": 0.0,
			"0.021": 0.0,
			"0.022": 0.0,
			"0.023": 0.0,
			"0.024": 0.0,
			"0.025": 0.0
		}
	}
}
