{
	 "smiles": "CC(C)(C)OC(=O)NC(CC1=CC2=C(C=CC=C2)C=C1)C(O)=O", 
	 "Tm": 363.15, 
	 "num_atms": 44, 
	 "gaussian": { 
		 "optdone": 1, 
		 "sigma_profile": "yes", 
		 "theory": "DFT", 
		 "functional": "B3LYP", 
		 "basiset": "6-31G**", 
		 "properties": { 
			 "R2extent": 10332.1126, 
			 "electric_dipole_moment_norm": 1.77483643753, 
			 "electric_quadrupole_moment_norm": 19.3590126489, 
			 "total_energy": -1054.28460865, 
			 "HOMO_LUMO_gap": 0.17426, 
			 "cosmo_polarized_energy": -19.84, 
			 "cosmo_cavitation_energy": 46.88, 
			 "cosmo_dispersion_energy": -31.42, 
			 "cosmo_repulsion_energy": 2.4, 
			 "cosmo_total_nonelectrostatic_energy": 17.85, 
			 "SMD_solvation_energy": 9.13 
		},
		"coords": [
			{
				"x": 2.9606882026,
				"y": 3.4378452095,
				"z": -1.2050092609,
				"element": "C" 
			},
			{
				"x": 3.9851922443,
				"y": 2.7441119215,
				"z": -0.3009523567,
				"element": "C" 
			},
			{
				"x": 4.5125555433,
				"y": 3.6721423037,
				"z": 0.7985376456,
				"element": "C" 
			},
			{
				"x": 5.1383289456,
				"y": 2.1683612441,
				"z": -1.1267732365,
				"element": "C" 
			},
			{
				"x": 3.3914514946,
				"y": 1.538490021,
				"z": 0.3001032955,
				"element": "O" 
			},
			{
				"x": 2.3164727886,
				"y": 1.6233980048,
				"z": 1.113997352,
				"element": "C" 
			},
			{
				"x": 1.7326316668,
				"y": 2.6447146155,
				"z": 1.4540254655,
				"element": "O" 
			},
			{
				"x": 1.9398625152,
				"y": 0.3733808532,
				"z": 1.5140288836,
				"element": "N" 
			},
			{
				"x": 0.9162420855,
				"y": 0.1996945991,
				"z": 2.5161044618,
				"element": "C" 
			},
			{
				"x": -0.5278808361,
				"y": 0.3178180283,
				"z": 1.9370471301,
				"element": "C" 
			},
			{
				"x": -0.8800798293,
				"y": -0.72173985,
				"z": 0.8969793257,
				"element": "C" 
			},
			{
				"x": -1.454331879,
				"y": -1.9272269274,
				"z": 1.2523518737,
				"element": "C" 
			},
			{
				"x": -1.7731231246,
				"y": -2.9166317025,
				"z": 0.2849313284,
				"element": "C" 
			},
			{
				"x": -1.4926174957,
				"y": -2.6527307104,
				"z": -1.0948036437,
				"element": "C" 
			},
			{
				"x": -1.8158653929,
				"y": -3.6402739383,
				"z": -2.0638102016,
				"element": "C" 
			},
			{
				"x": -2.3880060937,
				"y": -4.834860511,
				"z": -1.6881934304,
				"element": "C" 
			},
			{
				"x": -2.664338325,
				"y": -5.096945179,
				"z": -0.3231929412,
				"element": "C" 
			},
			{
				"x": -2.3645301346,
				"y": -4.1595614486,
				"z": 0.6393657002,
				"element": "C" 
			},
			{
				"x": -0.9047934967,
				"y": -1.4066586548,
				"z": -1.4406786375,
				"element": "C" 
			},
			{
				"x": -0.6082957923,
				"y": -0.4713699325,
				"z": -0.4769486842,
				"element": "C" 
			},
			{
				"x": 1.1587059126,
				"y": -1.1489833354,
				"z": 3.2000941797,
				"element": "C" 
			},
			{
				"x": 0.3470731872,
				"y": -1.4280049118,
				"z": 4.2485309006,
				"element": "O" 
			},
			{
				"x": 2.0045032947,
				"y": -1.9357091672,
				"z": 2.8537846498,
				"element": "O" 
			},
			{
				"x": 2.1267744151,
				"y": 3.8297230726,
				"z": -0.6220122198,
				"element": "H" 
			},
			{
				"x": 2.5757569963,
				"y": 2.7352869022,
				"z": -1.9511593232,
				"element": "H" 
			},
			{
				"x": 3.4406178415,
				"y": 4.2663334674,
				"z": -1.7359755145,
				"element": "H" 
			},
			{
				"x": 3.694955564,
				"y": 4.0670750482,
				"z": 1.4020987344,
				"element": "H" 
			},
			{
				"x": 5.0538170041,
				"y": 4.5087754267,
				"z": 0.3448552533,
				"element": "H" 
			},
			{
				"x": 5.2071199466,
				"y": 3.1321057843,
				"z": 1.4497677839,
				"element": "H" 
			},
			{
				"x": 5.6746393708,
				"y": 2.9746763011,
				"z": -1.6358245258,
				"element": "H" 
			},
			{
				"x": 4.7627591376,
				"y": 1.4707686933,
				"z": -1.8809308096,
				"element": "H" 
			},
			{
				"x": 5.8438566629,
				"y": 1.6337281015,
				"z": -0.4843111965,
				"element": "H" 
			},
			{
				"x": 2.5288135259,
				"y": -0.4248993322,
				"z": 1.314681079,
				"element": "H" 
			},
			{
				"x": 1.0207624874,
				"y": 0.9928036298,
				"z": 3.2711241639,
				"element": "H" 
			},
			{
				"x": -1.2484710649,
				"y": 0.2806871365,
				"z": 2.7647822961,
				"element": "H" 
			},
			{
				"x": -0.594178029,
				"y": 1.325340842,
				"z": 1.517012049,
				"element": "H" 
			},
			{
				"x": -1.6695283374,
				"y": -2.141234468,
				"z": 2.2970865911,
				"element": "H" 
			},
			{
				"x": -1.6021366811,
				"y": -3.4362594355,
				"z": -3.1099989761,
				"element": "H" 
			},
			{
				"x": -2.6294897559,
				"y": -5.5829021034,
				"z": -2.4378059563,
				"element": "H" 
			},
			{
				"x": -3.114058163,
				"y": -6.0439645854,
				"z": -0.0391370733,
				"element": "H" 
			},
			{
				"x": -2.5734624244,
				"y": -4.3596787865,
				"z": 1.6871863608,
				"element": "H" 
			},
			{
				"x": -0.694860515,
				"y": -1.1987702068,
				"z": -2.4868658058,
				"element": "H" 
			},
			{
				"x": -0.1651658026,
				"y": 0.4787660148,
				"z": -0.7605752996,
				"element": "H" 
			},
			{
				"x": -0.2548676601,
				"y": -0.6888220344,
				"z": 4.4172825895,
				"element": "H" 
			}
		],
		 "valence_orbital": [ 
			{
				"type": "occ",
				"energy": -0.28402,
				"method": "rhf"
			},
			{
				"type": "occ",
				"energy": -0.2675,
				"method": "rhf"
			},
			{
				"type": "occ",
				"energy": -0.26056,
				"method": "rhf"
			},
			{
				"type": "occ",
				"energy": -0.24052,
				"method": "rhf"
			},
			{
				"type": "occ",
				"energy": -0.2145,
				"method": "rhf"
			},
			{
				"type": "unocc",
				"energy": -0.04024,
				"method": "rhf"
			},
			{
				"type": "unocc",
				"energy": -0.01067,
				"method": "rhf"
			},
			{
				"type": "unocc",
				"energy": -0.00313,
				"method": "rhf"
			},
			{
				"type": "unocc",
				"energy": 0.03029,
				"method": "rhf"
			},
			{
				"type": "unocc",
				"energy": 0.03779,
				"method": "rhf"
			}
		],
		"cosmo_sigma_profile": { 
			"-0.025": 0.0,
			"-0.024": 0.0,
			"-0.023": 0.0,
			"-0.022": 0.0,
			"-0.021": 0.0,
			"-0.02": 0.137494111465,
			"-0.019": 1.11525862561,
			"-0.018": 1.14993929112,
			"-0.017": 1.01965091716,
			"-0.016": 1.52001626697,
			"-0.015": 0.875486136526,
			"-0.014": 0.82382692724,
			"-0.013": 1.25969380242,
			"-0.012": 1.34377770357,
			"-0.011": 1.77375765284,
			"-0.01": 1.66798641172,
			"-0.009": 2.50614346939,
			"-0.008": 2.14317550943,
			"-0.007": 3.90616773628,
			"-0.006": 11.5712857463,
			"-0.005": 17.8320954014,
			"-0.004": 29.0915097563,
			"-0.003": 36.499996998,
			"-0.002": 29.1129900745,
			"-0.001": 30.7969950451,
			"0.0": 34.7632520084,
			"0.001": 30.9002024156,
			"0.002": 16.5162298294,
			"0.003": 19.6604889995,
			"0.004": 28.0149890683,
			"0.005": 21.401849239,
			"0.006": 7.80298088163,
			"0.007": 6.31898872604,
			"0.008": 4.91854136388,
			"0.009": 5.50881739086,
			"0.01": 6.4302820218,
			"0.011": 4.74916104765,
			"0.012": 3.55641087406,
			"0.013": 2.52302706284,
			"0.014": 0.21037514679,
			"0.015": 0.0,
			"0.016": 0.0,
			"0.017": 0.0,
			"0.018": 0.0,
			"0.019": 0.0,
			"0.02": 0.0,
			"0.021": 0.0,
			"0.022": 0.0,
			"0.023": 0.0,
			"0.024": 0.0,
			"0.025": 0.0
		}
	}
}
