{
	 "smiles": "COC1=CC=C(CCN2CCC(CC2)NC2=NC3=C(C=CC=C3)N2CC2=CC=C(F)C=C2)C=C1", 
	 "Tm": 422.15, 
	 "num_atms": 65, 
	 "gaussian": { 
		 "optdone": 1, 
		 "sigma_profile": "yes", 
		 "theory": "DFT", 
		 "functional": "B3LYP", 
		 "basiset": "6-31G**", 
		 "properties": { 
			 "R2extent": 25332.0066, 
			 "electric_dipole_moment_norm": 4.02176887576, 
			 "electric_quadrupole_moment_norm": 19.6278747352, 
			 "total_energy": -1479.72582555, 
			 "HOMO_LUMO_gap": 0.17654, 
			 "cosmo_polarized_energy": -21.82, 
			 "cosmo_cavitation_energy": 66.56, 
			 "cosmo_dispersion_energy": -44.47, 
			 "cosmo_repulsion_energy": 3.3, 
			 "cosmo_total_nonelectrostatic_energy": 25.38, 
			 "SMD_solvation_energy": 8.7 
		},
		"coords": [
			{
				"x": 4.5718115291,
				"y": -3.88811996,
				"z": 4.5792361007,
				"element": "C" 
			},
			{
				"x": 5.4885621156,
				"y": -2.8785475403,
				"z": 4.1953012774,
				"element": "O" 
			},
			{
				"x": 4.9861887824,
				"y": -1.6765230996,
				"z": 3.7773981664,
				"element": "C" 
			},
			{
				"x": 5.9347586538,
				"y": -0.7133450651,
				"z": 3.4087531866,
				"element": "C" 
			},
			{
				"x": 5.5196912762,
				"y": 0.5401891066,
				"z": 2.9740357296,
				"element": "C" 
			},
			{
				"x": 4.1594074392,
				"y": 0.8783768798,
				"z": 2.8908822711,
				"element": "C" 
			},
			{
				"x": 3.7308516488,
				"y": 2.2412735613,
				"z": 2.3922549467,
				"element": "C" 
			},
			{
				"x": 3.159432848,
				"y": 2.2407181058,
				"z": 0.9551822021,
				"element": "C" 
			},
			{
				"x": 1.8450349675,
				"y": 1.6124292205,
				"z": 0.8547332275,
				"element": "N" 
			},
			{
				"x": 1.5366883018,
				"y": 0.9816676639,
				"z": -0.4457376508,
				"element": "C" 
			},
			{
				"x": 0.5943857289,
				"y": 1.8215065587,
				"z": -1.3143109618,
				"element": "C" 
			},
			{
				"x": -0.7724521642,
				"y": 2.0082423551,
				"z": -0.6139405844,
				"element": "C" 
			},
			{
				"x": -0.5994475895,
				"y": 1.9571968832,
				"z": 0.9191653756,
				"element": "C" 
			},
			{
				"x": 0.7722671559,
				"y": 2.486547777,
				"z": 1.3410215095,
				"element": "C" 
			},
			{
				"x": -1.7213075958,
				"y": 0.9497082543,
				"z": -1.0087075301,
				"element": "N" 
			},
			{
				"x": -2.3679159877,
				"y": 1.0743032852,
				"z": -2.2235635815,
				"element": "C" 
			},
			{
				"x": -2.0638861761,
				"y": 1.9587880445,
				"z": -3.1454079336,
				"element": "N" 
			},
			{
				"x": -2.9103176217,
				"y": 1.6673385794,
				"z": -4.2089366925,
				"element": "C" 
			},
			{
				"x": -3.7447351491,
				"y": 0.5703424593,
				"z": -3.8915357234,
				"element": "C" 
			},
			{
				"x": -4.6963245616,
				"y": 0.0700027835,
				"z": -4.7760724894,
				"element": "C" 
			},
			{
				"x": -4.8025279881,
				"y": 0.7064797708,
				"z": -6.0158958391,
				"element": "C" 
			},
			{
				"x": -3.9842965913,
				"y": 1.799218054,
				"z": -6.3470476427,
				"element": "C" 
			},
			{
				"x": -3.0321896829,
				"y": 2.2911442773,
				"z": -5.4531327399,
				"element": "C" 
			},
			{
				"x": -3.3836880077,
				"y": 0.2005141778,
				"z": -2.5945461091,
				"element": "N" 
			},
			{
				"x": -3.9218253067,
				"y": -0.9338628987,
				"z": -1.8558357624,
				"element": "C" 
			},
			{
				"x": -3.3251776759,
				"y": -2.2785400419,
				"z": -2.2380819238,
				"element": "C" 
			},
			{
				"x": -4.1511125492,
				"y": -3.3269433361,
				"z": -2.655563127,
				"element": "C" 
			},
			{
				"x": -3.619804782,
				"y": -4.5744278492,
				"z": -2.9887054528,
				"element": "C" 
			},
			{
				"x": -2.2456853637,
				"y": -4.754098667,
				"z": -2.9003268104,
				"element": "C" 
			},
			{
				"x": -1.7194238211,
				"y": -5.9536531477,
				"z": -3.2215492096,
				"element": "F" 
			},
			{
				"x": -1.3940691509,
				"y": -3.7325417498,
				"z": -2.4894707128,
				"element": "C" 
			},
			{
				"x": -1.9419902322,
				"y": -2.4959111749,
				"z": -2.1571932584,
				"element": "C" 
			},
			{
				"x": 3.2277958434,
				"y": -0.0966375802,
				"z": 3.263532309,
				"element": "C" 
			},
			{
				"x": 3.6242561263,
				"y": -1.3629679756,
				"z": 3.7029486795,
				"element": "C" 
			},
			{
				"x": 3.9553153659,
				"y": -3.5756463493,
				"z": 5.4326165099,
				"element": "H" 
			},
			{
				"x": 5.1745817259,
				"y": -4.7499935624,
				"z": 4.870851773,
				"element": "H" 
			},
			{
				"x": 3.911344375,
				"y": -4.1755349684,
				"z": 3.7503185612,
				"element": "H" 
			},
			{
				"x": 6.9874583535,
				"y": -0.9689715406,
				"z": 3.4749520166,
				"element": "H" 
			},
			{
				"x": 6.2705257789,
				"y": 1.2763209321,
				"z": 2.6953856394,
				"element": "H" 
			},
			{
				"x": 4.5938813789,
				"y": 2.9177968913,
				"z": 2.404918939,
				"element": "H" 
			},
			{
				"x": 2.9929738606,
				"y": 2.6827704703,
				"z": 3.0734422902,
				"element": "H" 
			},
			{
				"x": 3.8562049099,
				"y": 1.6897850645,
				"z": 0.3156372228,
				"element": "H" 
			},
			{
				"x": 3.1412580845,
				"y": 3.2862283236,
				"z": 0.587157356,
				"element": "H" 
			},
			{
				"x": 2.4763839616,
				"y": 0.791086263,
				"z": -0.9716494184,
				"element": "H" 
			},
			{
				"x": 1.0773160979,
				"y": -0.0027053096,
				"z": -0.2737007465,
				"element": "H" 
			},
			{
				"x": 0.4423797433,
				"y": 1.3665099284,
				"z": -2.2958257426,
				"element": "H" 
			},
			{
				"x": 1.0386484842,
				"y": 2.807390825,
				"z": -1.4940330713,
				"element": "H" 
			},
			{
				"x": -1.183305267,
				"y": 2.9811317501,
				"z": -0.9104043628,
				"element": "H" 
			},
			{
				"x": -1.3911452051,
				"y": 2.5282530872,
				"z": 1.4164264247,
				"element": "H" 
			},
			{
				"x": -0.682791893,
				"y": 0.9170825898,
				"z": 1.2618340493,
				"element": "H" 
			},
			{
				"x": 0.8883099009,
				"y": 3.5239825248,
				"z": 0.9664674007,
				"element": "H" 
			},
			{
				"x": 0.819322528,
				"y": 2.5521238949,
				"z": 2.4346143866,
				"element": "H" 
			},
			{
				"x": -2.3202186332,
				"y": 0.6428851228,
				"z": -0.252440319,
				"element": "H" 
			},
			{
				"x": -5.3217275888,
				"y": -0.782398147,
				"z": -4.5295432865,
				"element": "H" 
			},
			{
				"x": -5.5290125057,
				"y": 0.3441975355,
				"z": -6.7372209436,
				"element": "H" 
			},
			{
				"x": -4.0949790074,
				"y": 2.2680131682,
				"z": -7.3205825845,
				"element": "H" 
			},
			{
				"x": -2.3978285544,
				"y": 3.1350032599,
				"z": -5.7050776115,
				"element": "H" 
			},
			{
				"x": -5.0057825887,
				"y": -0.9519484796,
				"z": -2.0108333976,
				"element": "H" 
			},
			{
				"x": -3.7742111864,
				"y": -0.7462457013,
				"z": -0.7864439673,
				"element": "H" 
			},
			{
				"x": -5.2252428842,
				"y": -3.1733453347,
				"z": -2.723497092,
				"element": "H" 
			},
			{
				"x": -4.2494921183,
				"y": -5.3940696487,
				"z": -3.3170531232,
				"element": "H" 
			},
			{
				"x": -0.3264582292,
				"y": -3.915819058,
				"z": -2.4342326011,
				"element": "H" 
			},
			{
				"x": -1.2903391309,
				"y": -1.6895643641,
				"z": -1.8325119266,
				"element": "H" 
			},
			{
				"x": 2.1687513026,
				"y": 0.1302674309,
				"z": 3.1963002986,
				"element": "H" 
			},
			{
				"x": 2.8688245207,
				"y": -2.0878543105,
				"z": 3.9835440802,
				"element": "H" 
			}
		],
		 "valence_orbital": [ 
			{
				"type": "occ",
				"energy": -0.24195,
				"method": "rhf"
			},
			{
				"type": "occ",
				"energy": -0.21526,
				"method": "rhf"
			},
			{
				"type": "occ",
				"energy": -0.20753,
				"method": "rhf"
			},
			{
				"type": "occ",
				"energy": -0.20054,
				"method": "rhf"
			},
			{
				"type": "occ",
				"energy": -0.1964,
				"method": "rhf"
			},
			{
				"type": "unocc",
				"energy": -0.01986,
				"method": "rhf"
			},
			{
				"type": "unocc",
				"energy": -0.01084,
				"method": "rhf"
			},
			{
				"type": "unocc",
				"energy": 0.00325,
				"method": "rhf"
			},
			{
				"type": "unocc",
				"energy": 0.00702,
				"method": "rhf"
			},
			{
				"type": "unocc",
				"energy": 0.02028,
				"method": "rhf"
			}
		],
		"cosmo_sigma_profile": { 
			"-0.025": 0.0,
			"-0.024": 0.0,
			"-0.023": 0.0,
			"-0.022": 0.0,
			"-0.021": 0.0,
			"-0.02": 0.0,
			"-0.019": 0.0,
			"-0.018": 0.0,
			"-0.017": 0.0,
			"-0.016": 0.0,
			"-0.015": 0.177477210794,
			"-0.014": 1.15116352703,
			"-0.013": 1.13155148426,
			"-0.012": 1.1751833861,
			"-0.011": 1.57912577479,
			"-0.01": 1.50805314025,
			"-0.009": 1.62339833055,
			"-0.008": 2.96808153119,
			"-0.007": 9.38761389998,
			"-0.006": 15.147397331,
			"-0.005": 30.8244506562,
			"-0.004": 42.5825017565,
			"-0.003": 51.197774955,
			"-0.002": 55.0014840131,
			"-0.001": 52.3359869401,
			"0.0": 42.0353366716,
			"0.001": 34.2640914204,
			"0.002": 28.2204324467,
			"0.003": 33.1558793106,
			"0.004": 37.6351069542,
			"0.005": 25.269200405,
			"0.006": 22.0603303008,
			"0.007": 15.3724129484,
			"0.008": 5.24529681039,
			"0.009": 3.88576297762,
			"0.01": 4.06972547794,
			"0.011": 2.03055652677,
			"0.012": 1.06807781915,
			"0.013": 1.0313495987,
			"0.014": 1.24269249802,
			"0.015": 0.619798721631,
			"0.016": 0.732044858016,
			"0.017": 0.194087723156,
			"0.018": 0.0,
			"0.019": 0.0,
			"0.02": 0.0,
			"0.021": 0.0,
			"0.022": 0.0,
			"0.023": 0.0,
			"0.024": 0.0,
			"0.025": 0.0
		}
	}
}
