{
	 "smiles": "CC(=O)C1=NC2=C(N1)C=C(Cl)C=C2", 
	 "Tm": 447.15, 
	 "num_atms": 20, 
	 "gaussian": { 
		 "optdone": 1, 
		 "sigma_profile": "yes", 
		 "theory": "DFT", 
		 "functional": "B3LYP", 
		 "basiset": "6-31G**", 
		 "properties": { 
			 "R2extent": 4130.9352, 
			 "electric_dipole_moment_norm": 4.39542703045, 
			 "electric_quadrupole_moment_norm": 15.8630319879, 
			 "total_energy": -992.101120567, 
			 "HOMO_LUMO_gap": 0.1626, 
			 "cosmo_polarized_energy": -19.79, 
			 "cosmo_cavitation_energy": 26.86, 
			 "cosmo_dispersion_energy": -19.99, 
			 "cosmo_repulsion_energy": 1.57, 
			 "cosmo_total_nonelectrostatic_energy": 8.44, 
			 "SMD_solvation_energy": 2.91 
		},
		"coords": [
			{
				"x": 0.1370273183,
				"y": 0.5285331112,
				"z": -3.1192827982,
				"element": "C" 
			},
			{
				"x": -0.7515058833,
				"y": 1.0305846831,
				"z": -1.9907494957,
				"element": "C" 
			},
			{
				"x": -1.8070589026,
				"y": 1.5940083808,
				"z": -2.2034606239,
				"element": "O" 
			},
			{
				"x": -0.273719033,
				"y": 0.8038804978,
				"z": -0.5953252898,
				"element": "C" 
			},
			{
				"x": -0.9158306036,
				"y": 1.1729553419,
				"z": 0.4919173501,
				"element": "N" 
			},
			{
				"x": -0.1201344894,
				"y": 0.7676608926,
				"z": 1.5393692546,
				"element": "C" 
			},
			{
				"x": 1.0517622445,
				"y": 0.1267552013,
				"z": 1.0584931097,
				"element": "C" 
			},
			{
				"x": 0.927678995,
				"y": 0.1637247955,
				"z": -0.3110865944,
				"element": "N" 
			},
			{
				"x": 2.03840231,
				"y": -0.3855995157,
				"z": 1.9064493986,
				"element": "C" 
			},
			{
				"x": 1.8028251796,
				"y": -0.2293132803,
				"z": 3.2662110978,
				"element": "C" 
			},
			{
				"x": 2.9937078061,
				"y": -0.8452460364,
				"z": 4.4035713634,
				"element": "Cl" 
			},
			{
				"x": 0.6489318747,
				"y": 0.4026312221,
				"z": 3.7803677252,
				"element": "C" 
			},
			{
				"x": -0.3181952563,
				"y": 0.904288468,
				"z": 2.9229237076,
				"element": "C" 
			},
			{
				"x": 1.1239435143,
				"y": 1.0060055384,
				"z": -3.0871117266,
				"element": "H" 
			},
			{
				"x": -0.340382961,
				"y": 0.7643117563,
				"z": -4.0704419882,
				"element": "H" 
			},
			{
				"x": 0.2845474682,
				"y": -0.5563000765,
				"z": -3.0530306053,
				"element": "H" 
			},
			{
				"x": 1.5847829484,
				"y": -0.2043611178,
				"z": -0.9809331044,
				"element": "H" 
			},
			{
				"x": 2.9343357453,
				"y": -0.8754730923,
				"z": 1.5430367927,
				"element": "H" 
			},
			{
				"x": 0.5331985383,
				"y": 0.4882520258,
				"z": 4.854613412,
				"element": "H" 
			},
			{
				"x": -1.2098168135,
				"y": 1.392201204,
				"z": 3.3016690148,
				"element": "H" 
			}
		],
		 "valence_orbital": [ 
			{
				"type": "occ",
				"energy": -0.31439,
				"method": "rhf"
			},
			{
				"type": "occ",
				"energy": -0.28779,
				"method": "rhf"
			},
			{
				"type": "occ",
				"energy": -0.26353,
				"method": "rhf"
			},
			{
				"type": "occ",
				"energy": -0.25133,
				"method": "rhf"
			},
			{
				"type": "occ",
				"energy": -0.23735,
				"method": "rhf"
			},
			{
				"type": "unocc",
				"energy": -0.07475,
				"method": "rhf"
			},
			{
				"type": "unocc",
				"energy": -0.01012,
				"method": "rhf"
			},
			{
				"type": "unocc",
				"energy": 0.00253,
				"method": "rhf"
			},
			{
				"type": "unocc",
				"energy": 0.02267,
				"method": "rhf"
			},
			{
				"type": "unocc",
				"energy": 0.04939,
				"method": "rhf"
			}
		],
		"cosmo_sigma_profile": { 
			"-0.025": 0.0,
			"-0.024": 0.0,
			"-0.023": 0.0,
			"-0.022": 0.0,
			"-0.021": 0.0,
			"-0.02": 0.0,
			"-0.019": 0.0,
			"-0.018": 0.00337856193583,
			"-0.017": 1.34571166971,
			"-0.016": 0.915402740702,
			"-0.015": 1.21240864999,
			"-0.014": 1.6432238154,
			"-0.013": 1.85901458459,
			"-0.012": 1.70778230026,
			"-0.011": 1.50067859415,
			"-0.01": 2.13996343346,
			"-0.009": 3.96850306888,
			"-0.008": 5.34408238408,
			"-0.007": 8.14771100725,
			"-0.006": 10.7091213,
			"-0.005": 9.96463955468,
			"-0.004": 10.3027066117,
			"-0.003": 10.7974611217,
			"-0.002": 13.8073357776,
			"-0.001": 14.9956760616,
			"0.0": 12.8855401685,
			"0.001": 15.0004950576,
			"0.002": 21.9366642219,
			"0.003": 16.1257212187,
			"0.004": 13.6401610806,
			"0.005": 8.37658841817,
			"0.006": 1.73914894652,
			"0.007": 2.00804717733,
			"0.008": 3.23481648899,
			"0.009": 2.74789017461,
			"0.01": 3.27096556097,
			"0.011": 5.69630499536,
			"0.012": 3.74948292293,
			"0.013": 1.83527782642,
			"0.014": 1.60013838003,
			"0.015": 1.68186800349,
			"0.016": 1.44587935205,
			"0.017": 0.661842442666,
			"0.018": 0.000925874342847,
			"0.019": 0.0,
			"0.02": 0.0,
			"0.021": 0.0,
			"0.022": 0.0,
			"0.023": 0.0,
			"0.024": 0.0,
			"0.025": 0.0
		}
	}
}
