{
	 "smiles": "COC1=CC=C(C=C1)C1=CC=C(C=C1)S(=O)(=O)N1CCCC1C(O)=O", 
	 "Tm": 427.15, 
	 "num_atms": 44, 
	 "gaussian": { 
		 "optdone": 1, 
		 "sigma_profile": "yes", 
		 "theory": "DFT", 
		 "functional": "B3LYP", 
		 "basiset": "6-31G**", 
		 "properties": { 
			 "R2extent": 14686.1066, 
			 "electric_dipole_moment_norm": 8.44818466358, 
			 "electric_quadrupole_moment_norm": 26.7266813419, 
			 "total_energy": -1526.36127624, 
			 "HOMO_LUMO_gap": 0.17155, 
			 "cosmo_polarized_energy": -24.83, 
			 "cosmo_cavitation_energy": 48.62, 
			 "cosmo_dispersion_energy": -34.02, 
			 "cosmo_repulsion_energy": 2.53, 
			 "cosmo_total_nonelectrostatic_energy": 17.14, 
			 "SMD_solvation_energy": 7.94 
		},
		"coords": [
			{
				"x": 1.4249893199,
				"y": -5.7108795045,
				"z": -4.6703703705,
				"element": "C" 
			},
			{
				"x": 0.551680184,
				"y": -4.6525805395,
				"z": -5.0349379484,
				"element": "O" 
			},
			{
				"x": 0.1674954172,
				"y": -3.7697979834,
				"z": -4.0715657725,
				"element": "C" 
			},
			{
				"x": 0.5809377133,
				"y": -3.8154101661,
				"z": -2.7345789991,
				"element": "C" 
			},
			{
				"x": 0.117894842,
				"y": -2.8536755898,
				"z": -1.83560755,
				"element": "C" 
			},
			{
				"x": -0.7550745723,
				"y": -1.8308425634,
				"z": -2.2317884899,
				"element": "C" 
			},
			{
				"x": -1.1565020479,
				"y": -1.8046624409,
				"z": -3.5821046034,
				"element": "C" 
			},
			{
				"x": -0.7076129504,
				"y": -2.7541608225,
				"z": -4.4874746707,
				"element": "C" 
			},
			{
				"x": -1.236778298,
				"y": -0.8146308505,
				"z": -1.2664629059,
				"element": "C" 
			},
			{
				"x": -1.515240423,
				"y": -1.1591143424,
				"z": 0.0694962182,
				"element": "C" 
			},
			{
				"x": -1.965269729,
				"y": -0.2098793463,
				"z": 0.9829093517,
				"element": "C" 
			},
			{
				"x": -2.1455681144,
				"y": 1.1129041038,
				"z": 0.5648791434,
				"element": "C" 
			},
			{
				"x": -1.894118882,
				"y": 1.4800052471,
				"z": -0.7602516914,
				"element": "C" 
			},
			{
				"x": -1.4403724979,
				"y": 0.5207327638,
				"z": -1.6612797564,
				"element": "C" 
			},
			{
				"x": -2.6731243067,
				"y": 2.3531328322,
				"z": 1.7499772061,
				"element": "S" 
			},
			{
				"x": -3.23435842,
				"y": 3.4745092511,
				"z": 0.99559046,
				"element": "O" 
			},
			{
				"x": -3.4097397982,
				"y": 1.6530693341,
				"z": 2.8049443414,
				"element": "O" 
			},
			{
				"x": -1.2828712807,
				"y": 2.9338305032,
				"z": 2.4795579625,
				"element": "N" 
			},
			{
				"x": -0.3930707154,
				"y": 3.8770770728,
				"z": 1.7596408637,
				"element": "C" 
			},
			{
				"x": 1.0161770133,
				"y": 3.4342464239,
				"z": 2.1768884913,
				"element": "C" 
			},
			{
				"x": 0.7982452329,
				"y": 2.8237491903,
				"z": 3.5685992062,
				"element": "C" 
			},
			{
				"x": -0.5457954179,
				"y": 2.0794296496,
				"z": 3.4264741192,
				"element": "C" 
			},
			{
				"x": -1.2665340621,
				"y": 1.9750505544,
				"z": 4.7713902543,
				"element": "C" 
			},
			{
				"x": -1.4428830297,
				"y": 0.6850335852,
				"z": 5.1335982227,
				"element": "O" 
			},
			{
				"x": -1.585780379,
				"y": 2.9137394657,
				"z": 5.4608898331,
				"element": "O" 
			},
			{
				"x": 1.5904925035,
				"y": -6.2909923237,
				"z": -5.5792666292,
				"element": "H" 
			},
			{
				"x": 0.9782480199,
				"y": -6.3583525011,
				"z": -3.9051143615,
				"element": "H" 
			},
			{
				"x": 2.3879014638,
				"y": -5.3328927911,
				"z": -4.3036407254,
				"element": "H" 
			},
			{
				"x": 1.2638538808,
				"y": -4.5811794233,
				"z": -2.3865686124,
				"element": "H" 
			},
			{
				"x": 0.4695135124,
				"y": -2.889450223,
				"z": -0.8086473872,
				"element": "H" 
			},
			{
				"x": -1.8549341525,
				"y": -1.0447352737,
				"z": -3.9194263078,
				"element": "H" 
			},
			{
				"x": -1.028381826,
				"y": -2.7397292193,
				"z": -5.5238948516,
				"element": "H" 
			},
			{
				"x": -1.4123282576,
				"y": -2.1921248568,
				"z": 0.3867271481,
				"element": "H" 
			},
			{
				"x": -2.213426218,
				"y": -0.4913259212,
				"z": 2.0007260654,
				"element": "H" 
			},
			{
				"x": -2.0732741279,
				"y": 2.5012522144,
				"z": -1.0785666039,
				"element": "H" 
			},
			{
				"x": -1.2252774698,
				"y": 0.8143608957,
				"z": -2.6839814977,
				"element": "H" 
			},
			{
				"x": -0.6160335695,
				"y": 4.8995255994,
				"z": 2.0814707008,
				"element": "H" 
			},
			{
				"x": -0.5504363528,
				"y": 3.824792797,
				"z": 0.6791621314,
				"element": "H" 
			},
			{
				"x": 1.3921521975,
				"y": 2.6730605228,
				"z": 1.4841846167,
				"element": "H" 
			},
			{
				"x": 1.728177698,
				"y": 4.2638726866,
				"z": 2.1846801189,
				"element": "H" 
			},
			{
				"x": 0.6803687033,
				"y": 3.610306997,
				"z": 4.3203464784,
				"element": "H" 
			},
			{
				"x": 1.6013474252,
				"y": 2.1539793341,
				"z": 3.8862946488,
				"element": "H" 
			},
			{
				"x": -0.389666518,
				"y": 1.0697214137,
				"z": 3.0255692324,
				"element": "H" 
			},
			{
				"x": -1.9048217102,
				"y": 0.7033342448,
				"z": 5.9889329204,
				"element": "H" 
			}
		],
		 "valence_orbital": [ 
			{
				"type": "occ",
				"energy": -0.27409,
				"method": "rhf"
			},
			{
				"type": "occ",
				"energy": -0.26906,
				"method": "rhf"
			},
			{
				"type": "occ",
				"energy": -0.26257,
				"method": "rhf"
			},
			{
				"type": "occ",
				"energy": -0.24999,
				"method": "rhf"
			},
			{
				"type": "occ",
				"energy": -0.21925,
				"method": "rhf"
			},
			{
				"type": "unocc",
				"energy": -0.0477,
				"method": "rhf"
			},
			{
				"type": "unocc",
				"energy": -0.02241,
				"method": "rhf"
			},
			{
				"type": "unocc",
				"energy": -0.01267,
				"method": "rhf"
			},
			{
				"type": "unocc",
				"energy": 0.00471,
				"method": "rhf"
			},
			{
				"type": "unocc",
				"energy": 0.01537,
				"method": "rhf"
			}
		],
		"cosmo_sigma_profile": { 
			"-0.025": 0.0,
			"-0.024": 0.0,
			"-0.023": 0.0,
			"-0.022": 0.0,
			"-0.021": 0.0,
			"-0.02": 0.0,
			"-0.019": 0.241819404366,
			"-0.018": 0.885817975307,
			"-0.017": 1.09699420141,
			"-0.016": 0.606906103922,
			"-0.015": 0.865941175717,
			"-0.014": 0.733680389526,
			"-0.013": 0.520852701171,
			"-0.012": 0.438768535129,
			"-0.011": 1.04580601315,
			"-0.01": 0.740937592091,
			"-0.009": 0.717286517883,
			"-0.008": 0.604432521913,
			"-0.007": 5.35026768168,
			"-0.006": 25.8042761651,
			"-0.005": 39.1397286268,
			"-0.004": 43.144855196,
			"-0.003": 36.7719961605,
			"-0.002": 27.99479541,
			"-0.001": 19.3310757128,
			"0.0": 15.9334816388,
			"0.001": 18.8855069711,
			"0.002": 23.3541794903,
			"0.003": 25.6680293923,
			"0.004": 17.7860528611,
			"0.005": 15.6544167608,
			"0.006": 7.16570270661,
			"0.007": 9.05695310671,
			"0.008": 9.05328499442,
			"0.009": 8.20990380601,
			"0.01": 10.815443225,
			"0.011": 12.7472786487,
			"0.012": 5.30746943922,
			"0.013": 0.314873269376,
			"0.014": 0.0,
			"0.015": 0.0,
			"0.016": 0.0,
			"0.017": 0.0,
			"0.018": 0.0,
			"0.019": 0.0,
			"0.02": 0.0,
			"0.021": 0.0,
			"0.022": 0.0,
			"0.023": 0.0,
			"0.024": 0.0,
			"0.025": 0.0
		}
	}
}
