{
	 "smiles": "COC(=O)C1=CC=CC(CBr)=C1", 
	 "Tm": 317.15, 
	 "num_atms": 21, 
	 "gaussian": { 
		 "optdone": 1, 
		 "sigma_profile": "yes", 
		 "theory": "DFT", 
		 "functional": "B3LYP", 
		 "basiset": "6-31G**", 
		 "properties": { 
			 "R2extent": 4283.8103, 
			 "electric_dipole_moment_norm": 1.90019868961, 
			 "electric_quadrupole_moment_norm": 16.3522475516, 
			 "total_energy": -3070.25148516, 
			 "HOMO_LUMO_gap": 0.20208, 
			 "cosmo_polarized_energy": -9.81, 
			 "cosmo_cavitation_energy": 27.99, 
			 "cosmo_dispersion_energy": -20.51, 
			 "cosmo_repulsion_energy": 1.66, 
			 "cosmo_total_nonelectrostatic_energy": 9.14, 
			 "SMD_solvation_energy": 5.14 
		},
		"coords": [
			{
				"x": 2.602853766,
				"y": -1.6729531266,
				"z": 2.2627133492,
				"element": "C" 
			},
			{
				"x": 1.566464166,
				"y": -1.11422526,
				"z": 1.4403361804,
				"element": "O" 
			},
			{
				"x": 1.9963695885,
				"y": -0.3348409942,
				"z": 0.4225379564,
				"element": "C" 
			},
			{
				"x": 3.171861894,
				"y": -0.1174384682,
				"z": 0.2024099573,
				"element": "O" 
			},
			{
				"x": 0.8720254253,
				"y": 0.2182939769,
				"z": -0.3869515814,
				"element": "C" 
			},
			{
				"x": 1.1933571458,
				"y": 1.0375725888,
				"z": -1.4769004523,
				"element": "C" 
			},
			{
				"x": 0.1776953062,
				"y": 1.5752160542,
				"z": -2.2642716918,
				"element": "C" 
			},
			{
				"x": -1.1565832689,
				"y": 1.2980615097,
				"z": -1.9678956338,
				"element": "C" 
			},
			{
				"x": -1.4923043311,
				"y": 0.4782964248,
				"z": -0.8804029704,
				"element": "C" 
			},
			{
				"x": -2.9219645398,
				"y": 0.1682719854,
				"z": -0.5745096854,
				"element": "C" 
			},
			{
				"x": -3.7645374145,
				"y": 1.5545604138,
				"z": 0.6063281213,
				"element": "Br" 
			},
			{
				"x": -0.468134465,
				"y": -0.0568957894,
				"z": -0.0919063447,
				"element": "C" 
			},
			{
				"x": 2.0896528604,
				"y": -2.2621909762,
				"z": 3.0224853064,
				"element": "H" 
			},
			{
				"x": 3.2665082228,
				"y": -2.3057270458,
				"z": 1.668154929,
				"element": "H" 
			},
			{
				"x": 3.1950598632,
				"y": -0.8800587589,
				"z": 2.7262084742,
				"element": "H" 
			},
			{
				"x": 2.2387232908,
				"y": 1.2361825927,
				"z": -1.6868082808,
				"element": "H" 
			},
			{
				"x": 0.4241335736,
				"y": 2.2091072627,
				"z": -3.110578643,
				"element": "H" 
			},
			{
				"x": -1.9476651276,
				"y": 1.7222483251,
				"z": -2.5807880493,
				"element": "H" 
			},
			{
				"x": -3.0408008192,
				"y": -0.7624979485,
				"z": -0.0232710696,
				"element": "H" 
			},
			{
				"x": -3.5509030978,
				"y": 0.1590479052,
				"z": -1.4628728141,
				"element": "H" 
			},
			{
				"x": -0.7081120385,
				"y": -0.6891306715,
				"z": 0.7560829425,
				"element": "H" 
			}
		],
		 "valence_orbital": [ 
			{
				"type": "occ",
				"energy": -0.27935,
				"method": "rhf"
			},
			{
				"type": "occ",
				"energy": -0.27651,
				"method": "rhf"
			},
			{
				"type": "occ",
				"energy": -0.27416,
				"method": "rhf"
			},
			{
				"type": "occ",
				"energy": -0.26603,
				"method": "rhf"
			},
			{
				"type": "occ",
				"energy": -0.25684,
				"method": "rhf"
			},
			{
				"type": "unocc",
				"energy": -0.05476,
				"method": "rhf"
			},
			{
				"type": "unocc",
				"energy": -0.03788,
				"method": "rhf"
			},
			{
				"type": "unocc",
				"energy": 0.01531,
				"method": "rhf"
			},
			{
				"type": "unocc",
				"energy": 0.0568,
				"method": "rhf"
			},
			{
				"type": "unocc",
				"energy": 0.08657,
				"method": "rhf"
			}
		],
		"cosmo_sigma_profile": { 
			"-0.025": 0.0,
			"-0.024": 0.0,
			"-0.023": 0.0,
			"-0.022": 0.0,
			"-0.021": 0.0,
			"-0.02": 0.0,
			"-0.019": 0.0,
			"-0.018": 0.0,
			"-0.017": 0.0,
			"-0.016": 0.0,
			"-0.015": 0.0,
			"-0.014": 0.0,
			"-0.013": 0.0,
			"-0.012": 0.0,
			"-0.011": 0.0,
			"-0.01": 0.0,
			"-0.009": 0.0350990673762,
			"-0.008": 4.46356304014,
			"-0.007": 10.6439182473,
			"-0.006": 14.2648822415,
			"-0.005": 17.5921737449,
			"-0.004": 18.0804090596,
			"-0.003": 16.7758192415,
			"-0.002": 13.2785437542,
			"-0.001": 13.4381533174,
			"0.0": 13.9384273312,
			"0.001": 16.6543621018,
			"0.002": 15.8657715831,
			"0.003": 19.9351927887,
			"0.004": 10.8999112281,
			"0.005": 10.1835875859,
			"0.006": 13.7188791712,
			"0.007": 4.80676120023,
			"0.008": 1.43195096072,
			"0.009": 1.60512363749,
			"0.01": 1.62634340102,
			"0.011": 3.35490788642,
			"0.012": 3.8458396758,
			"0.013": 0.14864044926,
			"0.014": 0.0,
			"0.015": 0.0,
			"0.016": 0.0,
			"0.017": 0.0,
			"0.018": 0.0,
			"0.019": 0.0,
			"0.02": 0.0,
			"0.021": 0.0,
			"0.022": 0.0,
			"0.023": 0.0,
			"0.024": 0.0,
			"0.025": 0.0
		}
	}
}
