{
	 "smiles": "NC=NO", 
	 "Tm": 387.15, 
	 "num_atms": 8, 
	 "gaussian": { 
		 "optdone": 1, 
		 "sigma_profile": "yes", 
		 "theory": "DFT", 
		 "functional": "B3LYP", 
		 "basiset": "6-31G**", 
		 "properties": { 
			 "R2extent": 667.6709, 
			 "electric_dipole_moment_norm": 1.84229912881, 
			 "electric_quadrupole_moment_norm": 10.9440857444, 
			 "total_energy": -225.176307827, 
			 "HOMO_LUMO_gap": 0.24319, 
			 "cosmo_polarized_energy": -11.07, 
			 "cosmo_cavitation_energy": 12.15, 
			 "cosmo_dispersion_energy": -9.19, 
			 "cosmo_repulsion_energy": 0.89, 
			 "cosmo_total_nonelectrostatic_energy": 3.85, 
			 "SMD_solvation_energy": 3.01 
		},
		"coords": [
			{
				"x": -0.1363017933,
				"y": -0.0944390203,
				"z": -3.5104183119,
				"element": "N" 
			},
			{
				"x": 0.4501090702,
				"y": 0.1398332788,
				"z": -2.2771624214,
				"element": "C" 
			},
			{
				"x": -0.0538412339,
				"y": -0.334703824,
				"z": -1.2005940342,
				"element": "N" 
			},
			{
				"x": 0.810818696,
				"y": -0.0637494033,
				"z": -0.1054574074,
				"element": "O" 
			},
			{
				"x": -1.0728360122,
				"y": -0.4756252205,
				"z": -3.4445904503,
				"element": "H" 
			},
			{
				"x": -0.0750003226,
				"y": 0.6764713447,
				"z": -4.16232797,
				"element": "H" 
			},
			{
				"x": 1.3904386454,
				"y": 0.6937363211,
				"z": -2.2854935836,
				"element": "H" 
			},
			{
				"x": 0.3155129504,
				"y": -0.4409234765,
				"z": 0.6321441788,
				"element": "H" 
			}
		],
		 "valence_orbital": [ 
			{
				"type": "occ",
				"energy": -0.41483,
				"method": "rhf"
			},
			{
				"type": "occ",
				"energy": -0.39357,
				"method": "rhf"
			},
			{
				"type": "occ",
				"energy": -0.31956,
				"method": "rhf"
			},
			{
				"type": "occ",
				"energy": -0.26759,
				"method": "rhf"
			},
			{
				"type": "occ",
				"energy": -0.20925,
				"method": "rhf"
			},
			{
				"type": "unocc",
				"energy": 0.03394,
				"method": "rhf"
			},
			{
				"type": "unocc",
				"energy": 0.06782,
				"method": "rhf"
			},
			{
				"type": "unocc",
				"energy": 0.10346,
				"method": "rhf"
			},
			{
				"type": "unocc",
				"energy": 0.11927,
				"method": "rhf"
			},
			{
				"type": "unocc",
				"energy": 0.15631,
				"method": "rhf"
			}
		],
		"cosmo_sigma_profile": { 
			"-0.025": 0.0,
			"-0.024": 0.0,
			"-0.023": 0.0,
			"-0.022": 0.0,
			"-0.021": 0.0,
			"-0.02": 0.0,
			"-0.019": 0.0,
			"-0.018": 0.0,
			"-0.017": 0.0,
			"-0.016": 1.22971253509,
			"-0.015": 0.583587719027,
			"-0.014": 0.938573089113,
			"-0.013": 3.13778445935,
			"-0.012": 3.33033789838,
			"-0.011": 3.45294503908,
			"-0.01": 3.35400958314,
			"-0.009": 3.36813230448,
			"-0.008": 4.12686784007,
			"-0.007": 4.29383641817,
			"-0.006": 2.82364895234,
			"-0.005": 3.25910069939,
			"-0.004": 3.16711476661,
			"-0.003": 2.43649843989,
			"-0.002": 2.96509743566,
			"-0.001": 2.81736775014,
			"0.0": 3.27621210024,
			"0.001": 2.95423423351,
			"0.002": 2.5592290481,
			"0.003": 3.01976367889,
			"0.004": 2.95705551944,
			"0.005": 2.91082350884,
			"0.006": 4.55190155894,
			"0.007": 3.8629436249,
			"0.008": 4.74646421947,
			"0.009": 3.93030666767,
			"0.01": 3.5829367992,
			"0.011": 4.70380663508,
			"0.012": 4.05634385621,
			"0.013": 1.60636829917,
			"0.014": 0.679545340618,
			"0.015": 0.564988759795,
			"0.016": 0.0,
			"0.017": 0.0,
			"0.018": 0.0,
			"0.019": 0.0,
			"0.02": 0.0,
			"0.021": 0.0,
			"0.022": 0.0,
			"0.023": 0.0,
			"0.024": 0.0,
			"0.025": 0.0
		}
	}
}
