{
	 "smiles": "OC1=C2CC=CCC2=CC=C1C(=O)C1=CC=CC2=C1C=CC=C2", 
	 "Tm": 405.15, 
	 "num_atms": 39, 
	 "gaussian": { 
		 "optdone": 1, 
		 "sigma_profile": "yes", 
		 "theory": "DFT", 
		 "functional": "B3LYP", 
		 "basiset": "6-31G**", 
		 "properties": { 
			 "R2extent": 7935.6205, 
			 "electric_dipole_moment_norm": 2.78643339594, 
			 "electric_quadrupole_moment_norm": 19.1156995242, 
			 "total_energy": -960.325119928, 
			 "HOMO_LUMO_gap": 0.15766, 
			 "cosmo_polarized_energy": -11.99, 
			 "cosmo_cavitation_energy": 41.39, 
			 "cosmo_dispersion_energy": -29.33, 
			 "cosmo_repulsion_energy": 2.2, 
			 "cosmo_total_nonelectrostatic_energy": 14.25, 
			 "SMD_solvation_energy": 6.7 
		},
		"coords": [
			{
				"x": -0.2245583414,
				"y": -1.0293591028,
				"z": -1.5624403444,
				"element": "O" 
			},
			{
				"x": 0.3568543895,
				"y": 0.1835042349,
				"z": -1.3628885005,
				"element": "C" 
			},
			{
				"x": 1.7639729791,
				"y": 0.1508705877,
				"z": -1.2374910129,
				"element": "C" 
			},
			{
				"x": 2.4555533832,
				"y": -1.1934923297,
				"z": -1.3066598014,
				"element": "C" 
			},
			{
				"x": 3.9475059634,
				"y": -1.1199400004,
				"z": -1.1539126471,
				"element": "C" 
			},
			{
				"x": 4.623113711,
				"y": 0.0160423564,
				"z": -0.9801310965,
				"element": "C" 
			},
			{
				"x": 3.9706193358,
				"y": 1.3675356421,
				"z": -0.9166356168,
				"element": "C" 
			},
			{
				"x": 2.4630059333,
				"y": 1.3469034145,
				"z": -1.0647802089,
				"element": "C" 
			},
			{
				"x": 1.762876649,
				"y": 2.5688355504,
				"z": -1.0319475215,
				"element": "C" 
			},
			{
				"x": 0.3897152759,
				"y": 2.593818702,
				"z": -1.1639936593,
				"element": "C" 
			},
			{
				"x": -0.3532184917,
				"y": 1.4035261529,
				"z": -1.3102949334,
				"element": "C" 
			},
			{
				"x": -1.8281082743,
				"y": 1.5483236293,
				"z": -1.4630544082,
				"element": "C" 
			},
			{
				"x": -2.3194157649,
				"y": 2.6126556954,
				"z": -1.8235160869,
				"element": "O" 
			},
			{
				"x": -2.7652505952,
				"y": 0.3865068411,
				"z": -1.2009581154,
				"element": "C" 
			},
			{
				"x": -3.6209136182,
				"y": 0.0236762294,
				"z": -2.2296372796,
				"element": "C" 
			},
			{
				"x": -4.5595548448,
				"y": -1.0193425791,
				"z": -2.0695481808,
				"element": "C" 
			},
			{
				"x": -4.6605539567,
				"y": -1.6733357312,
				"z": -0.8630602853,
				"element": "C" 
			},
			{
				"x": -3.8346991965,
				"y": -1.3124493363,
				"z": 0.2347900993,
				"element": "C" 
			},
			{
				"x": -2.8654048513,
				"y": -0.2643532202,
				"z": 0.0767594978,
				"element": "C" 
			},
			{
				"x": -2.0732595574,
				"y": 0.0980439885,
				"z": 1.2019719199,
				"element": "C" 
			},
			{
				"x": -2.2204707319,
				"y": -0.5497862736,
				"z": 2.4081423901,
				"element": "C" 
			},
			{
				"x": -3.1659761146,
				"y": -1.5921861128,
				"z": 2.5577018319,
				"element": "C" 
			},
			{
				"x": -3.955385278,
				"y": -1.961301547,
				"z": 1.4936319294,
				"element": "C" 
			},
			{
				"x": -1.1866560448,
				"y": -0.9327545882,
				"z": -1.6381328205,
				"element": "H" 
			},
			{
				"x": 2.2005612073,
				"y": -1.6866440789,
				"z": -2.2564804865,
				"element": "H" 
			},
			{
				"x": 2.0332761271,
				"y": -1.8618289287,
				"z": -0.5417322899,
				"element": "H" 
			},
			{
				"x": 4.4840168841,
				"y": -2.0660005188,
				"z": -1.1916224902,
				"element": "H" 
			},
			{
				"x": 5.7060813564,
				"y": -0.0065691505,
				"z": -0.8767936983,
				"element": "H" 
			},
			{
				"x": 4.2301275174,
				"y": 1.8608687928,
				"z": 0.0331241872,
				"element": "H" 
			},
			{
				"x": 4.3972372718,
				"y": 2.0229138346,
				"z": -1.6918720113,
				"element": "H" 
			},
			{
				"x": 2.315014901,
				"y": 3.4961226253,
				"z": -0.903623988,
				"element": "H" 
			},
			{
				"x": -0.1614975809,
				"y": 3.5280036142,
				"z": -1.1535020585,
				"element": "H" 
			},
			{
				"x": -3.5591607524,
				"y": 0.5571214257,
				"z": -3.1731356646,
				"element": "H" 
			},
			{
				"x": -5.201504514,
				"y": -1.2951206955,
				"z": -2.900526149,
				"element": "H" 
			},
			{
				"x": -5.3820635082,
				"y": -2.4752183556,
				"z": -0.7297420793,
				"element": "H" 
			},
			{
				"x": -1.3482659141,
				"y": 0.8984797395,
				"z": 1.1062772854,
				"element": "H" 
			},
			{
				"x": -1.6073265003,
				"y": -0.2555780795,
				"z": 3.2548469944,
				"element": "H" 
			},
			{
				"x": -3.2691363055,
				"y": -2.0937910599,
				"z": 3.5153289752,
				"element": "H" 
			},
			{
				"x": -4.6912521477,
				"y": -2.7540013683,
				"z": 1.6006383245,
				"element": "H" 
			}
		],
		 "valence_orbital": [ 
			{
				"type": "occ",
				"energy": -0.25374,
				"method": "rhf"
			},
			{
				"type": "occ",
				"energy": -0.24812,
				"method": "rhf"
			},
			{
				"type": "occ",
				"energy": -0.2307,
				"method": "rhf"
			},
			{
				"type": "occ",
				"energy": -0.22646,
				"method": "rhf"
			},
			{
				"type": "occ",
				"energy": -0.22145,
				"method": "rhf"
			},
			{
				"type": "unocc",
				"energy": -0.06379,
				"method": "rhf"
			},
			{
				"type": "unocc",
				"energy": -0.04267,
				"method": "rhf"
			},
			{
				"type": "unocc",
				"energy": -0.02088,
				"method": "rhf"
			},
			{
				"type": "unocc",
				"energy": 0.00482,
				"method": "rhf"
			},
			{
				"type": "unocc",
				"energy": 0.01382,
				"method": "rhf"
			}
		],
		"cosmo_sigma_profile": { 
			"-0.025": 0.0,
			"-0.024": 0.0,
			"-0.023": 0.0,
			"-0.022": 0.0,
			"-0.021": 0.0,
			"-0.02": 0.0,
			"-0.019": 0.0,
			"-0.018": 0.0,
			"-0.017": 0.0,
			"-0.016": 0.0,
			"-0.015": 0.0,
			"-0.014": 0.0,
			"-0.013": 0.0,
			"-0.012": 0.0,
			"-0.011": 0.0,
			"-0.01": 0.128938635997,
			"-0.009": 1.10005355666,
			"-0.008": 2.20563784625,
			"-0.007": 5.53142117659,
			"-0.006": 15.883751689,
			"-0.005": 24.5682487037,
			"-0.004": 31.8089120692,
			"-0.003": 29.63719261,
			"-0.002": 29.0492686277,
			"-0.001": 21.7596086289,
			"0.0": 21.7096705423,
			"0.001": 22.5649988943,
			"0.002": 29.7733956339,
			"0.003": 29.9911482429,
			"0.004": 25.4974236652,
			"0.005": 11.2291402495,
			"0.006": 6.74779183869,
			"0.007": 4.71667782052,
			"0.008": 3.25264033398,
			"0.009": 3.24020089639,
			"0.01": 2.08126309521,
			"0.011": 3.2245109569,
			"0.012": 4.17139776662,
			"0.013": 1.12511326792,
			"0.014": 0.0362526086015,
			"0.015": 0.0,
			"0.016": 0.0,
			"0.017": 0.0,
			"0.018": 0.0,
			"0.019": 0.0,
			"0.02": 0.0,
			"0.021": 0.0,
			"0.022": 0.0,
			"0.023": 0.0,
			"0.024": 0.0,
			"0.025": 0.0
		}
	}
}
