{
	 "smiles": "C=CCN(CC=C)C(=O)COC(=O)C1=CC=CC=C1", 
	 "Tm": 315.65, 
	 "num_atms": 36, 
	 "gaussian": { 
		 "optdone": 1, 
		 "sigma_profile": "yes", 
		 "theory": "DFT", 
		 "functional": "B3LYP", 
		 "basiset": "6-31G**", 
		 "properties": { 
			 "R2extent": 5917.591, 
			 "electric_dipole_moment_norm": 3.26643639614, 
			 "electric_quadrupole_moment_norm": 10.6717896175, 
			 "total_energy": -862.230790896, 
			 "HOMO_LUMO_gap": 0.19282, 
			 "cosmo_polarized_energy": -12.94, 
			 "cosmo_cavitation_energy": 39.82, 
			 "cosmo_dispersion_energy": -26.18, 
			 "cosmo_repulsion_energy": 2.04, 
			 "cosmo_total_nonelectrostatic_energy": 15.67, 
			 "SMD_solvation_energy": 9.05 
		},
		"coords": [
			{
				"x": 1.102261856,
				"y": -0.9060564226,
				"z": 1.4739203302,
				"element": "C" 
			},
			{
				"x": 0.5496009361,
				"y": -1.7226960484,
				"z": 0.579461934,
				"element": "C" 
			},
			{
				"x": -0.862030565,
				"y": -1.6486185711,
				"z": 0.0478951054,
				"element": "C" 
			},
			{
				"x": -1.7463885186,
				"y": -0.6887061933,
				"z": 0.7072323498,
				"element": "N" 
			},
			{
				"x": -2.3716973167,
				"y": -1.0941309059,
				"z": 1.9857669911,
				"element": "C" 
			},
			{
				"x": -2.0478767956,
				"y": -0.1906561099,
				"z": 3.1486449279,
				"element": "C" 
			},
			{
				"x": -1.4790446794,
				"y": -0.6096598865,
				"z": 4.2788023459,
				"element": "C" 
			},
			{
				"x": -2.2509629121,
				"y": 0.438888547,
				"z": 0.1185463873,
				"element": "C" 
			},
			{
				"x": -3.1625516086,
				"y": 1.0850792678,
				"z": 0.6306653853,
				"element": "O" 
			},
			{
				"x": -1.6756859893,
				"y": 0.909965808,
				"z": -1.2226380292,
				"element": "C" 
			},
			{
				"x": -0.2699066537,
				"y": 1.203020271,
				"z": -1.1240626095,
				"element": "O" 
			},
			{
				"x": 0.5643692718,
				"y": 0.6312006697,
				"z": -2.0290836407,
				"element": "C" 
			},
			{
				"x": 0.2008676482,
				"y": -0.1941625737,
				"z": -2.8473786825,
				"element": "O" 
			},
			{
				"x": 1.960714104,
				"y": 1.1282916187,
				"z": -1.9026978086,
				"element": "C" 
			},
			{
				"x": 2.3309951861,
				"y": 2.0921035787,
				"z": -0.9539282526,
				"element": "C" 
			},
			{
				"x": 3.653678342,
				"y": 2.5259250369,
				"z": -0.8873092514,
				"element": "C" 
			},
			{
				"x": 4.6084811888,
				"y": 2.0037460145,
				"z": -1.7637215311,
				"element": "C" 
			},
			{
				"x": 4.2408623308,
				"y": 1.044127483,
				"z": -2.7109655919,
				"element": "C" 
			},
			{
				"x": 2.9207228437,
				"y": 0.6069200255,
				"z": -2.7813985379,
				"element": "C" 
			},
			{
				"x": 0.5424460986,
				"y": -0.0958634458,
				"z": 1.9287197202,
				"element": "H" 
			},
			{
				"x": 2.1344651025,
				"y": -1.0329434583,
				"z": 1.7852414396,
				"element": "H" 
			},
			{
				"x": 1.1385686609,
				"y": -2.5313571222,
				"z": 0.1462646039,
				"element": "H" 
			},
			{
				"x": -1.3239882707,
				"y": -2.6439081576,
				"z": 0.1279195266,
				"element": "H" 
			},
			{
				"x": -0.8225680396,
				"y": -1.4395388674,
				"z": -1.0253235047,
				"element": "H" 
			},
			{
				"x": -2.0403503547,
				"y": -2.1126621261,
				"z": 2.2014683091,
				"element": "H" 
			},
			{
				"x": -3.458982091,
				"y": -1.1054375306,
				"z": 1.8365566702,
				"element": "H" 
			},
			{
				"x": -2.3483463023,
				"y": 0.8467190112,
				"z": 3.0282068994,
				"element": "H" 
			},
			{
				"x": -1.1774456231,
				"y": -1.6453563105,
				"z": 4.4203073692,
				"element": "H" 
			},
			{
				"x": -1.2971676603,
				"y": 0.0661472632,
				"z": 5.1095223468,
				"element": "H" 
			},
			{
				"x": -1.8423829564,
				"y": 0.1900876161,
				"z": -2.0280718352,
				"element": "H" 
			},
			{
				"x": -2.1904733359,
				"y": 1.843806155,
				"z": -1.4518749272,
				"element": "H" 
			},
			{
				"x": 1.5838620159,
				"y": 2.4919021427,
				"z": -0.2785756879,
				"element": "H" 
			},
			{
				"x": 3.9403374264,
				"y": 3.2722696316,
				"z": -0.1524040989,
				"element": "H" 
			},
			{
				"x": 5.6383186155,
				"y": 2.3453007269,
				"z": -1.7091691344,
				"element": "H" 
			},
			{
				"x": 4.9828318942,
				"y": 0.6394133769,
				"z": -3.3928416766,
				"element": "H" 
			},
			{
				"x": 2.6106661515,
				"y": -0.1354605146,
				"z": -3.5088978416,
				"element": "H" 
			}
		],
		 "valence_orbital": [ 
			{
				"type": "occ",
				"energy": -0.26354,
				"method": "rhf"
			},
			{
				"type": "occ",
				"energy": -0.26201,
				"method": "rhf"
			},
			{
				"type": "occ",
				"energy": -0.25589,
				"method": "rhf"
			},
			{
				"type": "occ",
				"energy": -0.24903,
				"method": "rhf"
			},
			{
				"type": "occ",
				"energy": -0.24468,
				"method": "rhf"
			},
			{
				"type": "unocc",
				"energy": -0.05186,
				"method": "rhf"
			},
			{
				"type": "unocc",
				"energy": -0.01162,
				"method": "rhf"
			},
			{
				"type": "unocc",
				"energy": 0.00884,
				"method": "rhf"
			},
			{
				"type": "unocc",
				"energy": 0.01491,
				"method": "rhf"
			},
			{
				"type": "unocc",
				"energy": 0.02016,
				"method": "rhf"
			}
		],
		"cosmo_sigma_profile": { 
			"-0.025": 0.0,
			"-0.024": 0.0,
			"-0.023": 0.0,
			"-0.022": 0.0,
			"-0.021": 0.0,
			"-0.02": 0.0,
			"-0.019": 0.0,
			"-0.018": 0.0,
			"-0.017": 0.0,
			"-0.016": 0.0,
			"-0.015": 0.0,
			"-0.014": 0.0,
			"-0.013": 0.0,
			"-0.012": 0.0,
			"-0.011": 0.0,
			"-0.01": 0.0,
			"-0.009": 0.178569985241,
			"-0.008": 1.58593195023,
			"-0.007": 5.97359878936,
			"-0.006": 18.1620366725,
			"-0.005": 29.9665582331,
			"-0.004": 28.3499820433,
			"-0.003": 26.0725589864,
			"-0.002": 24.8208929668,
			"-0.001": 19.9453794885,
			"0.0": 24.6815756889,
			"0.001": 25.3854745193,
			"0.002": 22.4793606644,
			"0.003": 27.1256705238,
			"0.004": 25.2708691793,
			"0.005": 6.79036195187,
			"0.006": 4.98507294233,
			"0.007": 2.66677501845,
			"0.008": 2.68332353102,
			"0.009": 2.84820621128,
			"0.01": 2.86787333923,
			"0.011": 4.98646547819,
			"0.012": 2.85042008867,
			"0.013": 3.66674306426,
			"0.014": 2.2206250585,
			"0.015": 0.157428873004,
			"0.016": 0.0,
			"0.017": 0.0,
			"0.018": 0.0,
			"0.019": 0.0,
			"0.02": 0.0,
			"0.021": 0.0,
			"0.022": 0.0,
			"0.023": 0.0,
			"0.024": 0.0,
			"0.025": 0.0
		}
	}
}
