{
	 "smiles": "COC1=CC=C(C=C1Br)C(O)=O", 
	 "Tm": 492.65, 
	 "num_atms": 19, 
	 "gaussian": { 
		 "optdone": 1, 
		 "sigma_profile": "yes", 
		 "theory": "DFT", 
		 "functional": "B3LYP", 
		 "basiset": "6-31G**", 
		 "properties": { 
			 "R2extent": 5745.5002, 
			 "electric_dipole_moment_norm": 4.42263484927, 
			 "electric_quadrupole_moment_norm": 11.7176231016, 
			 "total_energy": -3106.15070171, 
			 "HOMO_LUMO_gap": 0.18855, 
			 "cosmo_polarized_energy": -12.0, 
			 "cosmo_cavitation_energy": 26.12, 
			 "cosmo_dispersion_energy": -19.66, 
			 "cosmo_repulsion_energy": 1.57, 
			 "cosmo_total_nonelectrostatic_energy": 8.03, 
			 "SMD_solvation_energy": 5.49 
		},
		"coords": [
			{
				"x": -3.2478102723,
				"y": 2.2247963816,
				"z": -0.1552935118,
				"element": "C" 
			},
			{
				"x": -3.4550216743,
				"y": 0.8552175603,
				"z": 0.1689097453,
				"element": "O" 
			},
			{
				"x": -2.3909818798,
				"y": 0.0236907128,
				"z": 0.1972177261,
				"element": "C" 
			},
			{
				"x": -1.0711705981,
				"y": 0.415711602,
				"z": -0.0742356333,
				"element": "C" 
			},
			{
				"x": -0.0325786652,
				"y": -0.5100840281,
				"z": -0.0217934564,
				"element": "C" 
			},
			{
				"x": -0.2900261409,
				"y": -1.8456672681,
				"z": 0.3025188896,
				"element": "C" 
			},
			{
				"x": -1.607426616,
				"y": -2.2456990672,
				"z": 0.5752375605,
				"element": "C" 
			},
			{
				"x": -2.6407562669,
				"y": -1.3270633022,
				"z": 0.523610101,
				"element": "C" 
			},
			{
				"x": -4.4216242008,
				"y": -1.8893182175,
				"z": 0.8969073456,
				"element": "Br" 
			},
			{
				"x": 0.774466405,
				"y": -2.8739639523,
				"z": 0.3735118568,
				"element": "C" 
			},
			{
				"x": 2.00860085,
				"y": -2.3804448287,
				"z": 0.0925659273,
				"element": "O" 
			},
			{
				"x": 0.5968451795,
				"y": -4.0442873684,
				"z": 0.65083068,
				"element": "O" 
			},
			{
				"x": -4.2334781708,
				"y": 2.6890923757,
				"z": -0.1155811735,
				"element": "H" 
			},
			{
				"x": -2.5862569365,
				"y": 2.7131122028,
				"z": 0.5702637449,
				"element": "H" 
			},
			{
				"x": -2.8319037141,
				"y": 2.3399311831,
				"z": -1.1634143426,
				"element": "H" 
			},
			{
				"x": -0.8525167694,
				"y": 1.4459326082,
				"z": -0.3272617552,
				"element": "H" 
			},
			{
				"x": 0.9823508011,
				"y": -0.1943975514,
				"z": -0.2335597847,
				"element": "H" 
			},
			{
				"x": -1.8016278157,
				"y": -3.2817175716,
				"z": 0.8259709416,
				"element": "H" 
			},
			{
				"x": 2.6149164851,
				"y": -3.1351414712,
				"z": 0.1693951388,
				"element": "H" 
			}
		],
		 "valence_orbital": [ 
			{
				"type": "occ",
				"energy": -0.3149,
				"method": "rhf"
			},
			{
				"type": "occ",
				"energy": -0.28326,
				"method": "rhf"
			},
			{
				"type": "occ",
				"energy": -0.27659,
				"method": "rhf"
			},
			{
				"type": "occ",
				"energy": -0.25714,
				"method": "rhf"
			},
			{
				"type": "occ",
				"energy": -0.23469,
				"method": "rhf"
			},
			{
				"type": "unocc",
				"energy": -0.04614,
				"method": "rhf"
			},
			{
				"type": "unocc",
				"energy": -0.02032,
				"method": "rhf"
			},
			{
				"type": "unocc",
				"energy": 0.00783,
				"method": "rhf"
			},
			{
				"type": "unocc",
				"energy": 0.05781,
				"method": "rhf"
			},
			{
				"type": "unocc",
				"energy": 0.07972,
				"method": "rhf"
			}
		],
		"cosmo_sigma_profile": { 
			"-0.025": 0.0,
			"-0.024": 0.0,
			"-0.023": 0.0,
			"-0.022": 0.0,
			"-0.021": 0.0,
			"-0.02": 0.0,
			"-0.019": 0.0,
			"-0.018": 0.73236135728,
			"-0.017": 0.839425316598,
			"-0.016": 1.00380565663,
			"-0.015": 0.98387063621,
			"-0.014": 0.417036193886,
			"-0.013": 0.592662698888,
			"-0.012": 0.639121527203,
			"-0.011": 1.02006293945,
			"-0.01": 0.578633866447,
			"-0.009": 0.433345382418,
			"-0.008": 2.22129380965,
			"-0.007": 7.14327292356,
			"-0.006": 14.2163176366,
			"-0.005": 12.4909687389,
			"-0.004": 13.5066854063,
			"-0.003": 11.663292933,
			"-0.002": 11.2724793193,
			"-0.001": 11.9146259221,
			"0.0": 16.6285186247,
			"0.001": 21.7374732923,
			"0.002": 19.5045208515,
			"0.003": 13.2290831565,
			"0.004": 13.141743156,
			"0.005": 8.75381357528,
			"0.006": 4.8231455174,
			"0.007": 5.16402857129,
			"0.008": 3.29629454609,
			"0.009": 3.89313404147,
			"0.01": 2.05178574809,
			"0.011": 3.63741434127,
			"0.012": 4.42248895798,
			"0.013": 0.15979924475,
			"0.014": 0.0,
			"0.015": 0.0,
			"0.016": 0.0,
			"0.017": 0.0,
			"0.018": 0.0,
			"0.019": 0.0,
			"0.02": 0.0,
			"0.021": 0.0,
			"0.022": 0.0,
			"0.023": 0.0,
			"0.024": 0.0,
			"0.025": 0.0
		}
	}
}
