{
	 "smiles": "NC(=O)C1=CC=CC2=C1C(=CC=C2)C(O)=O", 
	 "Tm": 540.65, 
	 "num_atms": 25, 
	 "gaussian": { 
		 "optdone": 1, 
		 "sigma_profile": "yes", 
		 "theory": "DFT", 
		 "functional": "B3LYP", 
		 "basiset": "6-31G**", 
		 "properties": { 
			 "R2extent": 3452.2479, 
			 "electric_dipole_moment_norm": 3.41747904749, 
			 "electric_quadrupole_moment_norm": 10.8466592235, 
			 "total_energy": -743.156544552, 
			 "HOMO_LUMO_gap": 0.16148, 
			 "cosmo_polarized_energy": -18.73, 
			 "cosmo_cavitation_energy": 29.18, 
			 "cosmo_dispersion_energy": -21.09, 
			 "cosmo_repulsion_energy": 1.62, 
			 "cosmo_total_nonelectrostatic_energy": 9.71, 
			 "SMD_solvation_energy": 6.56 
		},
		"coords": [
			{
				"x": -1.7834451015,
				"y": 0.419888374,
				"z": 1.8895009983,
				"element": "N" 
			},
			{
				"x": -1.5566513051,
				"y": 1.3530730852,
				"z": 0.911450681,
				"element": "C" 
			},
			{
				"x": -2.4726767185,
				"y": 1.9083721856,
				"z": 0.321052016,
				"element": "O" 
			},
			{
				"x": -0.1079582143,
				"y": 1.7249782226,
				"z": 0.6999977377,
				"element": "C" 
			},
			{
				"x": 0.1189562366,
				"y": 3.0850943605,
				"z": 0.5839431525,
				"element": "C" 
			},
			{
				"x": 1.4219984706,
				"y": 3.6235186503,
				"z": 0.5967826894,
				"element": "C" 
			},
			{
				"x": 2.4980236986,
				"y": 2.7865654578,
				"z": 0.7701824096,
				"element": "C" 
			},
			{
				"x": 2.3203620356,
				"y": 1.3792973788,
				"z": 0.8491211518,
				"element": "C" 
			},
			{
				"x": 1.001634149,
				"y": 0.8140902712,
				"z": 0.734445085,
				"element": "C" 
			},
			{
				"x": 0.9087500293,
				"y": -0.6201831065,
				"z": 0.6728020043,
				"element": "C" 
			},
			{
				"x": 2.0256690061,
				"y": -1.4063508095,
				"z": 0.9031539903,
				"element": "C" 
			},
			{
				"x": 3.2974994235,
				"y": -0.8356087259,
				"z": 1.1112505191,
				"element": "C" 
			},
			{
				"x": 3.4428814818,
				"y": 0.5293477216,
				"z": 1.041479116,
				"element": "C" 
			},
			{
				"x": -0.2985885489,
				"y": -1.381844794,
				"z": 0.221064969,
				"element": "C" 
			},
			{
				"x": -0.9452754761,
				"y": -0.7636387302,
				"z": -0.7923877725,
				"element": "O" 
			},
			{
				"x": -0.6167370125,
				"y": -2.4800230356,
				"z": 0.6306302909,
				"element": "O" 
			},
			{
				"x": -2.7439833528,
				"y": 0.2298997029,
				"z": 2.1331501319,
				"element": "H" 
			},
			{
				"x": -1.0556203224,
				"y": 0.0941027525,
				"z": 2.5051092664,
				"element": "H" 
			},
			{
				"x": -0.745111628,
				"y": 3.738340222,
				"z": 0.5216019335,
				"element": "H" 
			},
			{
				"x": 1.5635357636,
				"y": 4.6967232836,
				"z": 0.5140804433,
				"element": "H" 
			},
			{
				"x": 3.5057694885,
				"y": 3.1861507359,
				"z": 0.8461123553,
				"element": "H" 
			},
			{
				"x": 1.9068977986,
				"y": -2.4843044753,
				"z": 0.8707779682,
				"element": "H" 
			},
			{
				"x": 4.1571462318,
				"y": -1.4770532794,
				"z": 1.2778070206,
				"element": "H" 
			},
			{
				"x": 4.4247319653,
				"y": 0.9855987064,
				"z": 1.1366404414,
				"element": "H" 
			},
			{
				"x": -1.7119080989,
				"y": -1.3194341544,
				"z": -1.0109485991,
				"element": "H" 
			}
		],
		 "valence_orbital": [ 
			{
				"type": "occ",
				"energy": -0.27517,
				"method": "rhf"
			},
			{
				"type": "occ",
				"energy": -0.26824,
				"method": "rhf"
			},
			{
				"type": "occ",
				"energy": -0.25905,
				"method": "rhf"
			},
			{
				"type": "occ",
				"energy": -0.25077,
				"method": "rhf"
			},
			{
				"type": "occ",
				"energy": -0.22861,
				"method": "rhf"
			},
			{
				"type": "unocc",
				"energy": -0.06713,
				"method": "rhf"
			},
			{
				"type": "unocc",
				"energy": -0.0311,
				"method": "rhf"
			},
			{
				"type": "unocc",
				"energy": -0.01655,
				"method": "rhf"
			},
			{
				"type": "unocc",
				"energy": 0.03709,
				"method": "rhf"
			},
			{
				"type": "unocc",
				"energy": 0.05622,
				"method": "rhf"
			}
		],
		"cosmo_sigma_profile": { 
			"-0.025": 0.0,
			"-0.024": 0.0,
			"-0.023": 0.0,
			"-0.022": 0.0,
			"-0.021": 0.0,
			"-0.02": 0.0,
			"-0.019": 0.0705362780154,
			"-0.018": 0.954610064634,
			"-0.017": 1.00634304132,
			"-0.016": 0.431774829288,
			"-0.015": 0.980139639111,
			"-0.014": 2.34833298814,
			"-0.013": 2.16769864702,
			"-0.012": 2.76981185028,
			"-0.011": 3.05489939937,
			"-0.01": 2.47416996963,
			"-0.009": 3.03864988746,
			"-0.008": 3.64048357868,
			"-0.007": 9.34193985166,
			"-0.006": 13.2632784129,
			"-0.005": 15.029092606,
			"-0.004": 11.2123476448,
			"-0.003": 10.4271879901,
			"-0.002": 12.9308318835,
			"-0.001": 13.0271599359,
			"0.0": 12.6515345887,
			"0.001": 16.0036810035,
			"0.002": 23.6420998189,
			"0.003": 18.7142025685,
			"0.004": 7.63495290497,
			"0.005": 4.35879824274,
			"0.006": 3.75375364628,
			"0.007": 4.54854840148,
			"0.008": 4.49305756037,
			"0.009": 4.08901182195,
			"0.01": 3.89012779742,
			"0.011": 4.73941754615,
			"0.012": 6.62045507164,
			"0.013": 4.54116677038,
			"0.014": 4.62420829411,
			"0.015": 0.527516728226,
			"0.016": 0.0,
			"0.017": 0.0,
			"0.018": 0.0,
			"0.019": 0.0,
			"0.02": 0.0,
			"0.021": 0.0,
			"0.022": 0.0,
			"0.023": 0.0,
			"0.024": 0.0,
			"0.025": 0.0
		}
	}
}
