{
	 "smiles": "OC(=O)C1=CC(=C(C=C1)N1CCCCC1)S(=O)(=O)N1CCCCC1", 
	 "Tm": 470.15, 
	 "num_atms": 48, 
	 "gaussian": { 
		 "optdone": 1, 
		 "sigma_profile": "yes", 
		 "theory": "DFT", 
		 "functional": "B3LYP", 
		 "basiset": "6-31G**", 
		 "properties": { 
			 "R2extent": 9147.5764, 
			 "electric_dipole_moment_norm": 4.2344373239, 
			 "electric_quadrupole_moment_norm": 24.7484503666, 
			 "total_energy": -1470.79832975, 
			 "HOMO_LUMO_gap": 0.16107, 
			 "cosmo_polarized_energy": -21.89, 
			 "cosmo_cavitation_energy": 47.43, 
			 "cosmo_dispersion_energy": -33.17, 
			 "cosmo_repulsion_energy": 2.45, 
			 "cosmo_total_nonelectrostatic_energy": 16.71, 
			 "SMD_solvation_energy": 6.96 
		},
		"coords": [
			{
				"x": 2.9294212047,
				"y": -0.7141714452,
				"z": -3.5990066798,
				"element": "O" 
			},
			{
				"x": 1.8905856571,
				"y": -0.0184448528,
				"z": -3.0582702466,
				"element": "C" 
			},
			{
				"x": 1.2812590453,
				"y": 0.7722429265,
				"z": -3.7456030411,
				"element": "O" 
			},
			{
				"x": 1.5754691607,
				"y": -0.2823432037,
				"z": -1.6269317006,
				"element": "C" 
			},
			{
				"x": 0.3381229917,
				"y": 0.1511651242,
				"z": -1.1466617771,
				"element": "C" 
			},
			{
				"x": -0.039871453,
				"y": -0.0016675226,
				"z": 0.1833121575,
				"element": "C" 
			},
			{
				"x": 0.8180626824,
				"y": -0.6743921078,
				"z": 1.111432372,
				"element": "C" 
			},
			{
				"x": 2.0934405514,
				"y": -1.0549308437,
				"z": 0.6114930609,
				"element": "C" 
			},
			{
				"x": 2.4637705022,
				"y": -0.8629572634,
				"z": -0.707029844,
				"element": "C" 
			},
			{
				"x": 0.4903389843,
				"y": -0.9563934003,
				"z": 2.4172934122,
				"element": "N" 
			},
			{
				"x": -0.8369074174,
				"y": -1.3986374515,
				"z": 2.8617276307,
				"element": "C" 
			},
			{
				"x": -0.7471417353,
				"y": -2.7937296974,
				"z": 3.5047705233,
				"element": "C" 
			},
			{
				"x": 0.2897866389,
				"y": -2.8408242935,
				"z": 4.6351327198,
				"element": "C" 
			},
			{
				"x": 1.6521451393,
				"y": -2.3334173467,
				"z": 4.1400626348,
				"element": "C" 
			},
			{
				"x": 1.4916087192,
				"y": -0.9547478955,
				"z": 3.4864604189,
				"element": "C" 
			},
			{
				"x": -1.5748300268,
				"y": 0.8289568689,
				"z": 0.6807249139,
				"element": "S" 
			},
			{
				"x": -2.715435203,
				"y": -0.0847031826,
				"z": 0.505871874,
				"element": "O" 
			},
			{
				"x": -1.3174161903,
				"y": 1.4372967127,
				"z": 1.9942861001,
				"element": "O" 
			},
			{
				"x": -1.7309039061,
				"y": 2.0264279178,
				"z": -0.4711957461,
				"element": "N" 
			},
			{
				"x": -0.9351173214,
				"y": 3.2577588026,
				"z": -0.2703712515,
				"element": "C" 
			},
			{
				"x": -1.214181833,
				"y": 4.2461437084,
				"z": -1.4181157992,
				"element": "C" 
			},
			{
				"x": -1.4219106555,
				"y": 3.5062947309,
				"z": -2.7456277801,
				"element": "C" 
			},
			{
				"x": -2.6720166691,
				"y": 2.5948103842,
				"z": -2.6722050266,
				"element": "C" 
			},
			{
				"x": -2.9897641186,
				"y": 2.1736969838,
				"z": -1.2230333791,
				"element": "C" 
			},
			{
				"x": 3.2050030719,
				"y": -1.4207913216,
				"z": -2.9992440044,
				"element": "H" 
			},
			{
				"x": -0.3223123804,
				"y": 0.6666381903,
				"z": -1.8313549126,
				"element": "H" 
			},
			{
				"x": 2.7840387714,
				"y": -1.5568518886,
				"z": 1.2790340885,
				"element": "H" 
			},
			{
				"x": 3.4645632068,
				"y": -1.1665173535,
				"z": -1.0070127489,
				"element": "H" 
			},
			{
				"x": -1.515842953,
				"y": -1.433442909,
				"z": 2.0114046405,
				"element": "H" 
			},
			{
				"x": -1.2447939387,
				"y": -0.6692852309,
				"z": 3.5732691871,
				"element": "H" 
			},
			{
				"x": -0.481044086,
				"y": -3.5243624726,
				"z": 2.7297155026,
				"element": "H" 
			},
			{
				"x": -1.7395646968,
				"y": -3.0705296261,
				"z": 3.8794400855,
				"element": "H" 
			},
			{
				"x": -0.048905905,
				"y": -2.2049155935,
				"z": 5.4652519045,
				"element": "H" 
			},
			{
				"x": 0.3784347554,
				"y": -3.857486481,
				"z": 5.0341423587,
				"element": "H" 
			},
			{
				"x": 2.3668936842,
				"y": -2.2632999803,
				"z": 4.9687633269,
				"element": "H" 
			},
			{
				"x": 2.0697235606,
				"y": -3.0382862056,
				"z": 3.4089255524,
				"element": "H" 
			},
			{
				"x": 1.1527229513,
				"y": -0.2356433541,
				"z": 4.2488397174,
				"element": "H" 
			},
			{
				"x": 2.4383033696,
				"y": -0.5743728449,
				"z": 3.1003522641,
				"element": "H" 
			},
			{
				"x": 0.1243927047,
				"y": 2.9777835622,
				"z": -0.2734954706,
				"element": "H" 
			},
			{
				"x": -1.1561556407,
				"y": 3.7094534805,
				"z": 0.7042193056,
				"element": "H" 
			},
			{
				"x": -2.1023821142,
				"y": 4.8466546688,
				"z": -1.1858412709,
				"element": "H" 
			},
			{
				"x": -0.3750593917,
				"y": 4.9466527181,
				"z": -1.4821348631,
				"element": "H" 
			},
			{
				"x": -0.5339777885,
				"y": 2.9030599322,
				"z": -2.9673160705,
				"element": "H" 
			},
			{
				"x": -1.522232395,
				"y": 4.2215994081,
				"z": -3.5684168259,
				"element": "H" 
			},
			{
				"x": -2.5172065588,
				"y": 1.706483826,
				"z": -3.2934875051,
				"element": "H" 
			},
			{
				"x": -3.5515393885,
				"y": 3.1120617403,
				"z": -3.0738721468,
				"element": "H" 
			},
			{
				"x": -3.5230748753,
				"y": 1.2246206166,
				"z": -1.1874100648,
				"element": "H" 
			},
			{
				"x": -3.6271987111,
				"y": 2.9219434654,
				"z": -0.7309875965,
				"element": "H" 
			}
		],
		 "valence_orbital": [ 
			{
				"type": "occ",
				"energy": -0.29023,
				"method": "rhf"
			},
			{
				"type": "occ",
				"energy": -0.27268,
				"method": "rhf"
			},
			{
				"type": "occ",
				"energy": -0.26918,
				"method": "rhf"
			},
			{
				"type": "occ",
				"energy": -0.24159,
				"method": "rhf"
			},
			{
				"type": "occ",
				"energy": -0.20908,
				"method": "rhf"
			},
			{
				"type": "unocc",
				"energy": -0.04801,
				"method": "rhf"
			},
			{
				"type": "unocc",
				"energy": -0.03386,
				"method": "rhf"
			},
			{
				"type": "unocc",
				"energy": 0.03435,
				"method": "rhf"
			},
			{
				"type": "unocc",
				"energy": 0.05493,
				"method": "rhf"
			},
			{
				"type": "unocc",
				"energy": 0.06693,
				"method": "rhf"
			}
		],
		"cosmo_sigma_profile": { 
			"-0.025": 0.0,
			"-0.024": 0.0,
			"-0.023": 0.0,
			"-0.022": 0.0,
			"-0.021": 0.0,
			"-0.02": 0.0,
			"-0.019": 0.113660946829,
			"-0.018": 0.692566413228,
			"-0.017": 1.28617943114,
			"-0.016": 0.847038774677,
			"-0.015": 1.42596033107,
			"-0.014": 0.554011715277,
			"-0.013": 0.71695255635,
			"-0.012": 1.21909323611,
			"-0.011": 1.78443864026,
			"-0.01": 1.27445740505,
			"-0.009": 1.10841415766,
			"-0.008": 1.71464902783,
			"-0.007": 4.55946063948,
			"-0.006": 5.37770208289,
			"-0.005": 6.84021256052,
			"-0.004": 28.8167085668,
			"-0.003": 56.3485940128,
			"-0.002": 57.7423710462,
			"-0.001": 42.8119399073,
			"0.0": 35.7371781966,
			"0.001": 21.2171160449,
			"0.002": 15.5011785682,
			"0.003": 11.0169256731,
			"0.004": 7.76012233705,
			"0.005": 6.66612688269,
			"0.006": 7.1804195582,
			"0.007": 5.55572455948,
			"0.008": 6.05098944037,
			"0.009": 8.31727353914,
			"0.01": 9.33880322414,
			"0.011": 12.1590550648,
			"0.012": 6.72628834509,
			"0.013": 2.4349352267,
			"0.014": 0.375773878072,
			"0.015": 0.0,
			"0.016": 0.0,
			"0.017": 0.0,
			"0.018": 0.0,
			"0.019": 0.0,
			"0.02": 0.0,
			"0.021": 0.0,
			"0.022": 0.0,
			"0.023": 0.0,
			"0.024": 0.0,
			"0.025": 0.0
		}
	}
}
