{
	 "smiles": "CC(=O)OC=C", 
	 "Tm": 179.95, 
	 "num_atms": 12, 
	 "gaussian": { 
		 "optdone": 1, 
		 "sigma_profile": "yes", 
		 "theory": "DFT", 
		 "functional": "B3LYP", 
		 "basiset": "6-31G**", 
		 "properties": { 
			 "R2extent": 749.7304, 
			 "electric_dipole_moment_norm": 1.68741510601, 
			 "electric_quadrupole_moment_norm": 7.35730178258, 
			 "total_energy": -306.474120144, 
			 "HOMO_LUMO_gap": 0.23915, 
			 "cosmo_polarized_energy": -5.7, 
			 "cosmo_cavitation_energy": 16.56, 
			 "cosmo_dispersion_energy": -12.01, 
			 "cosmo_repulsion_energy": 1.06, 
			 "cosmo_total_nonelectrostatic_energy": 5.6, 
			 "SMD_solvation_energy": 5.65 
		},
		"coords": [
			{
				"x": -2.5178908447,
				"y": 1.2197843889,
				"z": 0.1731202749,
				"element": "C" 
			},
			{
				"x": -1.2047719587,
				"y": 0.8299779169,
				"z": -0.454492425,
				"element": "C" 
			},
			{
				"x": -0.59631356,
				"y": 1.4610510874,
				"z": -1.2851526917,
				"element": "O" 
			},
			{
				"x": -0.7785104935,
				"y": -0.369271829,
				"z": 0.0552601235,
				"element": "O" 
			},
			{
				"x": 0.4198922586,
				"y": -0.8829547639,
				"z": -0.4122518024,
				"element": "C" 
			},
			{
				"x": 0.8727762236,
				"y": -2.0418605237,
				"z": 0.0524965545,
				"element": "C" 
			},
			{
				"x": -2.4051186088,
				"y": 1.2989905466,
				"z": 1.2584809454,
				"element": "H" 
			},
			{
				"x": -2.8469388559,
				"y": 2.1729668743,
				"z": -0.2388154629,
				"element": "H" 
			},
			{
				"x": -3.2689498886,
				"y": 0.4481102207,
				"z": -0.020333402,
				"element": "H" 
			},
			{
				"x": 0.9122761954,
				"y": -0.2661390699,
				"z": -1.1547130967,
				"element": "H" 
			},
			{
				"x": 0.3278128392,
				"y": -2.6101387242,
				"z": 0.7981690761,
				"element": "H" 
			},
			{
				"x": 1.8105366934,
				"y": -2.4389161242,
				"z": -0.3165680938,
				"element": "H" 
			}
		],
		 "valence_orbital": [ 
			{
				"type": "occ",
				"energy": -0.40763,
				"method": "rhf"
			},
			{
				"type": "occ",
				"energy": -0.35941,
				"method": "rhf"
			},
			{
				"type": "occ",
				"energy": -0.35012,
				"method": "rhf"
			},
			{
				"type": "occ",
				"energy": -0.28256,
				"method": "rhf"
			},
			{
				"type": "occ",
				"energy": -0.2496,
				"method": "rhf"
			},
			{
				"type": "unocc",
				"energy": -0.01045,
				"method": "rhf"
			},
			{
				"type": "unocc",
				"energy": 0.03778,
				"method": "rhf"
			},
			{
				"type": "unocc",
				"energy": 0.1062,
				"method": "rhf"
			},
			{
				"type": "unocc",
				"energy": 0.12718,
				"method": "rhf"
			},
			{
				"type": "unocc",
				"energy": 0.13396,
				"method": "rhf"
			}
		],
		"cosmo_sigma_profile": { 
			"-0.025": 0.0,
			"-0.024": 0.0,
			"-0.023": 0.0,
			"-0.022": 0.0,
			"-0.021": 0.0,
			"-0.02": 0.0,
			"-0.019": 0.0,
			"-0.018": 0.0,
			"-0.017": 0.0,
			"-0.016": 0.0,
			"-0.015": 0.0,
			"-0.014": 0.0,
			"-0.013": 0.0,
			"-0.012": 0.0,
			"-0.011": 0.0,
			"-0.01": 0.0,
			"-0.009": 0.0,
			"-0.008": 0.0209904314135,
			"-0.007": 4.36115982132,
			"-0.006": 10.1360253786,
			"-0.005": 10.6603672524,
			"-0.004": 11.2349227258,
			"-0.003": 12.7211121143,
			"-0.002": 13.7848756746,
			"-0.001": 11.4983571531,
			"0.0": 6.16115564329,
			"0.001": 6.03535230084,
			"0.002": 6.79903889663,
			"0.003": 5.5811196521,
			"0.004": 7.47233089798,
			"0.005": 6.98008062319,
			"0.006": 3.38865565434,
			"0.007": 2.3456534709,
			"0.008": 2.07750442425,
			"0.009": 1.90147407009,
			"0.01": 2.37411482324,
			"0.011": 4.30827923038,
			"0.012": 1.8787578064,
			"0.013": 0.0877351118785,
			"0.014": 0.0,
			"0.015": 0.0,
			"0.016": 0.0,
			"0.017": 0.0,
			"0.018": 0.0,
			"0.019": 0.0,
			"0.02": 0.0,
			"0.021": 0.0,
			"0.022": 0.0,
			"0.023": 0.0,
			"0.024": 0.0,
			"0.025": 0.0
		}
	}
}
