{
	 "smiles": "CC1=C(C#N)C(F)=CC=C1", 
	 "Tm": 319.15, 
	 "num_atms": 16, 
	 "gaussian": { 
		 "optdone": 1, 
		 "sigma_profile": "yes", 
		 "theory": "DFT", 
		 "functional": "B3LYP", 
		 "basiset": "6-31G**", 
		 "properties": { 
			 "R2extent": 2152.0137, 
			 "electric_dipole_moment_norm": 4.98738857018, 
			 "electric_quadrupole_moment_norm": 11.4201170423, 
			 "total_energy": -463.042203002, 
			 "HOMO_LUMO_gap": 0.20676, 
			 "cosmo_polarized_energy": -8.38, 
			 "cosmo_cavitation_energy": 21.52, 
			 "cosmo_dispersion_energy": -15.08, 
			 "cosmo_repulsion_energy": 1.2, 
			 "cosmo_total_nonelectrostatic_energy": 7.64, 
			 "SMD_solvation_energy": 5.48 
		},
		"coords": [
			{
				"x": 0.7079210012,
				"y": 0.6298324341,
				"z": -0.5387282219,
				"element": "C" 
			},
			{
				"x": 0.127879791,
				"y": 0.8382193275,
				"z": 0.8367406919,
				"element": "C" 
			},
			{
				"x": -1.1526557067,
				"y": 0.32757006,
				"z": 1.1582584796,
				"element": "C" 
			},
			{
				"x": -1.9217947037,
				"y": -0.3937886698,
				"z": 0.1916541017,
				"element": "C" 
			},
			{
				"x": -2.5253029352,
				"y": -0.9771595456,
				"z": -0.6137564952,
				"element": "N" 
			},
			{
				"x": -1.6749618304,
				"y": 0.5317201016,
				"z": 2.4428205093,
				"element": "C" 
			},
			{
				"x": -2.8906108089,
				"y": 0.0388685589,
				"z": 2.725370793,
				"element": "F" 
			},
			{
				"x": -0.9762918674,
				"y": 1.2230100561,
				"z": 3.4214874865,
				"element": "C" 
			},
			{
				"x": 0.2843532576,
				"y": 1.7240846697,
				"z": 3.1003603424,
				"element": "C" 
			},
			{
				"x": 0.8264170498,
				"y": 1.5335619323,
				"z": 1.8268446372,
				"element": "C" 
			},
			{
				"x": 0.7998102118,
				"y": -0.4362680732,
				"z": -0.7727155401,
				"element": "H" 
			},
			{
				"x": 0.0651304838,
				"y": 1.0671880985,
				"z": -1.3102868529,
				"element": "H" 
			},
			{
				"x": 1.6975527755,
				"y": 1.0851389681,
				"z": -0.6178475136,
				"element": "H" 
			},
			{
				"x": -1.4213196262,
				"y": 1.3557899685,
				"z": 4.4009060575,
				"element": "H" 
			},
			{
				"x": 0.8494933817,
				"y": 2.2684809861,
				"z": 3.8507151807,
				"element": "H" 
			},
			{
				"x": 1.809779526,
				"y": 1.9315511272,
				"z": 1.5961763437,
				"element": "H" 
			}
		],
		 "valence_orbital": [ 
			{
				"type": "occ",
				"energy": -0.35739,
				"method": "rhf"
			},
			{
				"type": "occ",
				"energy": -0.35041,
				"method": "rhf"
			},
			{
				"type": "occ",
				"energy": -0.33208,
				"method": "rhf"
			},
			{
				"type": "occ",
				"energy": -0.26828,
				"method": "rhf"
			},
			{
				"type": "occ",
				"energy": -0.26318,
				"method": "rhf"
			},
			{
				"type": "unocc",
				"energy": -0.05642,
				"method": "rhf"
			},
			{
				"type": "unocc",
				"energy": -0.01905,
				"method": "rhf"
			},
			{
				"type": "unocc",
				"energy": 0.03128,
				"method": "rhf"
			},
			{
				"type": "unocc",
				"energy": 0.07235,
				"method": "rhf"
			},
			{
				"type": "unocc",
				"energy": 0.07601,
				"method": "rhf"
			}
		],
		"cosmo_sigma_profile": { 
			"-0.025": 0.0,
			"-0.024": 0.0,
			"-0.023": 0.0,
			"-0.022": 0.0,
			"-0.021": 0.0,
			"-0.02": 0.0,
			"-0.019": 0.0,
			"-0.018": 0.0,
			"-0.017": 0.0,
			"-0.016": 0.0,
			"-0.015": 0.0,
			"-0.014": 0.0,
			"-0.013": 0.0,
			"-0.012": 0.0,
			"-0.011": 0.0,
			"-0.01": 0.0,
			"-0.009": 0.154342318272,
			"-0.008": 2.20004003746,
			"-0.007": 5.92421948475,
			"-0.006": 10.2377790491,
			"-0.005": 12.0001254726,
			"-0.004": 10.6250243815,
			"-0.003": 12.317950191,
			"-0.002": 15.8023531509,
			"-0.001": 20.7847471304,
			"0.0": 13.902488181,
			"0.001": 12.8662737051,
			"0.002": 13.3268882707,
			"0.003": 15.2897130356,
			"0.004": 4.1960013125,
			"0.005": 2.63437622322,
			"0.006": 2.36995633205,
			"0.007": 2.9719176232,
			"0.008": 3.09276081532,
			"0.009": 3.71668948946,
			"0.01": 2.80443582128,
			"0.011": 2.83652760749,
			"0.012": 2.21371263389,
			"0.013": 1.29448607643,
			"0.014": 0.0118530798318,
			"0.015": 0.0,
			"0.016": 0.0,
			"0.017": 0.0,
			"0.018": 0.0,
			"0.019": 0.0,
			"0.02": 0.0,
			"0.021": 0.0,
			"0.022": 0.0,
			"0.023": 0.0,
			"0.024": 0.0,
			"0.025": 0.0
		}
	}
}
