{
	 "smiles": "NC1=CC=C(CCN2CCCCC2)C=C1", 
	 "Tm": 328.15, 
	 "num_atms": 35, 
	 "gaussian": { 
		 "optdone": 1, 
		 "sigma_profile": "yes", 
		 "theory": "DFT", 
		 "functional": "B3LYP", 
		 "basiset": "6-31G**", 
		 "properties": { 
			 "R2extent": 4545.2469, 
			 "electric_dipole_moment_norm": 1.56592122727, 
			 "electric_quadrupole_moment_norm": 13.4722190629, 
			 "total_energy": -616.941536439, 
			 "HOMO_LUMO_gap": 0.2022, 
			 "cosmo_polarized_energy": -8.95, 
			 "cosmo_cavitation_energy": 35.23, 
			 "cosmo_dispersion_energy": -24.85, 
			 "cosmo_repulsion_energy": 1.96, 
			 "cosmo_total_nonelectrostatic_energy": 12.34, 
			 "SMD_solvation_energy": 4.64 
		},
		"coords": [
			{
				"x": -1.37201076,
				"y": 1.3388105436,
				"z": -4.8306157467,
				"element": "N" 
			},
			{
				"x": -1.1574497453,
				"y": 1.4097963639,
				"z": -3.44821953,
				"element": "C" 
			},
			{
				"x": 0.1293377961,
				"y": 1.2410865358,
				"z": -2.9094572635,
				"element": "C" 
			},
			{
				"x": 0.3518382828,
				"y": 1.3735855767,
				"z": -1.54183586,
				"element": "C" 
			},
			{
				"x": -0.6921963256,
				"y": 1.6770745462,
				"z": -0.6551164747,
				"element": "C" 
			},
			{
				"x": -0.4625213203,
				"y": 1.8017582822,
				"z": 0.8360339762,
				"element": "C" 
			},
			{
				"x": -0.2283609258,
				"y": 0.4575146863,
				"z": 1.5578264488,
				"element": "C" 
			},
			{
				"x": 1.0748389699,
				"y": -0.1412058835,
				"z": 1.2780092052,
				"element": "N" 
			},
			{
				"x": 2.1730367817,
				"y": 0.4537511545,
				"z": 2.0396447362,
				"element": "C" 
			},
			{
				"x": 3.5265138051,
				"y": 0.0847449721,
				"z": 1.3917571407,
				"element": "C" 
			},
			{
				"x": 3.4459322637,
				"y": -1.2842339356,
				"z": 0.6832564876,
				"element": "C" 
			},
			{
				"x": 2.4746264391,
				"y": -2.2018289447,
				"z": 1.4333350932,
				"element": "C" 
			},
			{
				"x": 1.0502192703,
				"y": -1.601342279,
				"z": 1.4450465307,
				"element": "C" 
			},
			{
				"x": -1.9708370211,
				"y": 1.8435119465,
				"z": -1.2021239387,
				"element": "C" 
			},
			{
				"x": -2.2083622437,
				"y": 1.7137134875,
				"z": -2.5692297894,
				"element": "C" 
			},
			{
				"x": -2.3190051282,
				"y": 1.1052960778,
				"z": -5.0976726269,
				"element": "H" 
			},
			{
				"x": -0.6997571368,
				"y": 0.7732167115,
				"z": -5.3314525373,
				"element": "H" 
			},
			{
				"x": 0.9600644754,
				"y": 1.0111550628,
				"z": -3.5732242183,
				"element": "H" 
			},
			{
				"x": 1.351819031,
				"y": 1.2232287058,
				"z": -1.1481087593,
				"element": "H" 
			},
			{
				"x": -1.3370154247,
				"y": 2.2784752511,
				"z": 1.2953821733,
				"element": "H" 
			},
			{
				"x": 0.3837542998,
				"y": 2.4712662957,
				"z": 1.0356231812,
				"element": "H" 
			},
			{
				"x": -0.3800043575,
				"y": 0.5934464891,
				"z": 2.6472573183,
				"element": "H" 
			},
			{
				"x": -0.9995997401,
				"y": -0.2460784618,
				"z": 1.2243802012,
				"element": "H" 
			},
			{
				"x": 2.0501658743,
				"y": 1.5405220504,
				"z": 2.055556278,
				"element": "H" 
			},
			{
				"x": 2.146983385,
				"y": 0.1275697321,
				"z": 3.0991726457,
				"element": "H" 
			},
			{
				"x": 4.3009729377,
				"y": 0.0676496602,
				"z": 2.1683745102,
				"element": "H" 
			},
			{
				"x": 3.8200782569,
				"y": 0.8561680368,
				"z": 0.6711300992,
				"element": "H" 
			},
			{
				"x": 3.0891609979,
				"y": -1.1478016357,
				"z": -0.3434500275,
				"element": "H" 
			},
			{
				"x": 4.4395612891,
				"y": -1.7414593389,
				"z": 0.617529323,
				"element": "H" 
			},
			{
				"x": 2.8330499069,
				"y": -2.3346346302,
				"z": 2.4619785163,
				"element": "H" 
			},
			{
				"x": 2.4476360363,
				"y": -3.2015694128,
				"z": 0.9866042494,
				"element": "H" 
			},
			{
				"x": 0.4546632501,
				"y": -2.0167799601,
				"z": 0.6226222398,
				"element": "H" 
			},
			{
				"x": 0.5424266412,
				"y": -1.8912693223,
				"z": 2.3860498321,
				"element": "H" 
			},
			{
				"x": -2.8049495782,
				"y": 2.0817358666,
				"z": -0.5452723867,
				"element": "H" 
			},
			{
				"x": -3.2126102829,
				"y": 1.8568257694,
				"z": -2.9618910273,
				"element": "H" 
			}
		],
		 "valence_orbital": [ 
			{
				"type": "occ",
				"energy": -0.30485,
				"method": "rhf"
			},
			{
				"type": "occ",
				"energy": -0.28766,
				"method": "rhf"
			},
			{
				"type": "occ",
				"energy": -0.23487,
				"method": "rhf"
			},
			{
				"type": "occ",
				"energy": -0.20106,
				"method": "rhf"
			},
			{
				"type": "occ",
				"energy": -0.18861,
				"method": "rhf"
			},
			{
				"type": "unocc",
				"energy": 0.01359,
				"method": "rhf"
			},
			{
				"type": "unocc",
				"energy": 0.02733,
				"method": "rhf"
			},
			{
				"type": "unocc",
				"energy": 0.07834,
				"method": "rhf"
			},
			{
				"type": "unocc",
				"energy": 0.08836,
				"method": "rhf"
			},
			{
				"type": "unocc",
				"energy": 0.10513,
				"method": "rhf"
			}
		],
		"cosmo_sigma_profile": { 
			"-0.025": 0.0,
			"-0.024": 0.0,
			"-0.023": 0.0,
			"-0.022": 0.0,
			"-0.021": 0.0,
			"-0.02": 0.0,
			"-0.019": 0.0,
			"-0.018": 0.0,
			"-0.017": 0.0,
			"-0.016": 0.0,
			"-0.015": 0.0,
			"-0.014": 0.0,
			"-0.013": 0.0,
			"-0.012": 1.50251605614,
			"-0.011": 2.53769150644,
			"-0.01": 2.8343074265,
			"-0.009": 3.06793655425,
			"-0.008": 2.77103647986,
			"-0.007": 3.15038327521,
			"-0.006": 3.18410153846,
			"-0.005": 5.16800903404,
			"-0.004": 10.1070681286,
			"-0.003": 16.6366090971,
			"-0.002": 34.020882883,
			"-0.001": 47.4935799545,
			"0.0": 49.2004206834,
			"0.001": 25.587505071,
			"0.002": 11.3967906839,
			"0.003": 7.87151923999,
			"0.004": 7.23801163342,
			"0.005": 6.91745172123,
			"0.006": 8.22898091218,
			"0.007": 9.94467046748,
			"0.008": 7.52604405012,
			"0.009": 2.15345812424,
			"0.01": 1.43483210071,
			"0.011": 0.526835334193,
			"0.012": 0.696305889716,
			"0.013": 1.01923015037,
			"0.014": 0.554513359043,
			"0.015": 0.584713650499,
			"0.016": 0.0834987344563,
			"0.017": 0.0,
			"0.018": 0.0,
			"0.019": 0.0,
			"0.02": 0.0,
			"0.021": 0.0,
			"0.022": 0.0,
			"0.023": 0.0,
			"0.024": 0.0,
			"0.025": 0.0
		}
	}
}
