{
	 "smiles": "FC1=C(F)C(Br)=C(Br)C(F)=C1F", 
	 "Tm": 285.15, 
	 "num_atms": 12, 
	 "gaussian": { 
		 "optdone": 1, 
		 "sigma_profile": "yes", 
		 "theory": "DFT", 
		 "functional": "B3LYP", 
		 "basiset": "6-31G**", 
		 "properties": { 
			 "R2extent": 4030.2551, 
			 "electric_dipole_moment_norm": 0.448596098958, 
			 "electric_quadrupole_moment_norm": 2.48227142553, 
			 "total_energy": -5770.74091767, 
			 "HOMO_LUMO_gap": 0.2092, 
			 "cosmo_polarized_energy": -2.75, 
			 "cosmo_cavitation_energy": 23.66, 
			 "cosmo_dispersion_energy": -17.75, 
			 "cosmo_repulsion_energy": 1.33, 
			 "cosmo_total_nonelectrostatic_energy": 7.23, 
			 "SMD_solvation_energy": 3.97 
		},
		"coords": [
			{
				"x": 2.6511186139,
				"y": -1.1442616335,
				"z": -1.9394695841,
				"element": "F" 
			},
			{
				"x": 1.6749256111,
				"y": -1.1839516244,
				"z": -1.0305217603,
				"element": "C" 
			},
			{
				"x": 0.5042066565,
				"y": -0.455902927,
				"z": -1.2273793127,
				"element": "C" 
			},
			{
				"x": 0.3951569364,
				"y": 0.2719957918,
				"z": -2.3409788897,
				"element": "F" 
			},
			{
				"x": -0.526480133,
				"y": -0.486778736,
				"z": -0.2859512837,
				"element": "C" 
			},
			{
				"x": -2.0762032795,
				"y": 0.531539591,
				"z": -0.6379532689,
				"element": "Br" 
			},
			{
				"x": -0.3765190295,
				"y": -1.2632886095,
				"z": 0.873075457,
				"element": "C" 
			},
			{
				"x": -1.7079147886,
				"y": -1.3731533147,
				"z": 2.206448178,
				"element": "Br" 
			},
			{
				"x": 0.800417884,
				"y": -1.9902525323,
				"z": 1.0625624504,
				"element": "C" 
			},
			{
				"x": 0.9765089485,
				"y": -2.7392965592,
				"z": 2.1533105225,
				"element": "F" 
			},
			{
				"x": 1.8235368431,
				"y": -1.9538808894,
				"z": 0.1184735639,
				"element": "C" 
			},
			{
				"x": 2.9425457374,
				"y": -2.6541685567,
				"z": 0.3137839278,
				"element": "F" 
			}
		],
		 "valence_orbital": [ 
			{
				"type": "occ",
				"energy": -0.32723,
				"method": "rhf"
			},
			{
				"type": "occ",
				"energy": -0.32536,
				"method": "rhf"
			},
			{
				"type": "occ",
				"energy": -0.29721,
				"method": "rhf"
			},
			{
				"type": "occ",
				"energy": -0.26471,
				"method": "rhf"
			},
			{
				"type": "occ",
				"energy": -0.26318,
				"method": "rhf"
			},
			{
				"type": "unocc",
				"energy": -0.05398,
				"method": "rhf"
			},
			{
				"type": "unocc",
				"energy": -0.04632,
				"method": "rhf"
			},
			{
				"type": "unocc",
				"energy": -0.03345,
				"method": "rhf"
			},
			{
				"type": "unocc",
				"energy": 0.01665,
				"method": "rhf"
			},
			{
				"type": "unocc",
				"energy": 0.04601,
				"method": "rhf"
			}
		],
		"cosmo_sigma_profile": { 
			"-0.025": 0.0,
			"-0.024": 0.0,
			"-0.023": 0.0,
			"-0.022": 0.0,
			"-0.021": 0.0,
			"-0.02": 0.0,
			"-0.019": 0.0,
			"-0.018": 0.0,
			"-0.017": 0.0,
			"-0.016": 0.0,
			"-0.015": 0.0,
			"-0.014": 0.0,
			"-0.013": 0.0,
			"-0.012": 0.0,
			"-0.011": 0.0,
			"-0.01": 0.0,
			"-0.009": 0.0,
			"-0.008": 0.0,
			"-0.007": 1.12871412527,
			"-0.006": 3.53369566687,
			"-0.005": 9.27771493401,
			"-0.004": 17.1889274421,
			"-0.003": 15.2383655083,
			"-0.002": 16.6270114741,
			"-0.001": 14.6855585777,
			"0.0": 12.9270718336,
			"0.001": 20.0376834586,
			"0.002": 50.835575218,
			"0.003": 31.9925362627,
			"0.004": 5.46456656175,
			"0.005": 0.0,
			"0.006": 0.0,
			"0.007": 0.0,
			"0.008": 0.0,
			"0.009": 0.0,
			"0.01": 0.0,
			"0.011": 0.0,
			"0.012": 0.0,
			"0.013": 0.0,
			"0.014": 0.0,
			"0.015": 0.0,
			"0.016": 0.0,
			"0.017": 0.0,
			"0.018": 0.0,
			"0.019": 0.0,
			"0.02": 0.0,
			"0.021": 0.0,
			"0.022": 0.0,
			"0.023": 0.0,
			"0.024": 0.0,
			"0.025": 0.0
		}
	}
}
