{
	 "smiles": "FC(F)(F)C(=O)CC1=NC2=C(N1)C=CC=C2", 
	 "Tm": 523.15, 
	 "num_atms": 23, 
	 "gaussian": { 
		 "optdone": 1, 
		 "sigma_profile": "yes", 
		 "theory": "DFT", 
		 "functional": "B3LYP", 
		 "basiset": "6-31G**", 
		 "properties": { 
			 "R2extent": 7052.873, 
			 "electric_dipole_moment_norm": 1.46651567329, 
			 "electric_quadrupole_moment_norm": 7.00213160902, 
			 "total_energy": -869.536281509, 
			 "HOMO_LUMO_gap": 0.1467, 
			 "cosmo_polarized_energy": -12.02, 
			 "cosmo_cavitation_energy": 29.51, 
			 "cosmo_dispersion_energy": -21.4, 
			 "cosmo_repulsion_energy": 1.6, 
			 "cosmo_total_nonelectrostatic_energy": 9.7, 
			 "SMD_solvation_energy": 4.28 
		},
		"coords": [
			{
				"x": 4.3639589951,
				"y": -4.0469664936,
				"z": 1.1180701283,
				"element": "F" 
			},
			{
				"x": 4.4654240926,
				"y": -2.8062356029,
				"z": 1.6407729224,
				"element": "C" 
			},
			{
				"x": 4.4527435245,
				"y": -2.918808603,
				"z": 2.9843008689,
				"element": "F" 
			},
			{
				"x": 5.6236900191,
				"y": -2.2716675872,
				"z": 1.2624716344,
				"element": "F" 
			},
			{
				"x": 3.2583939074,
				"y": -1.9480104002,
				"z": 1.1836477963,
				"element": "C" 
			},
			{
				"x": 3.4597977858,
				"y": -0.8772114441,
				"z": 0.6546823366,
				"element": "O" 
			},
			{
				"x": 1.9065252484,
				"y": -2.5817445647,
				"z": 1.421536241,
				"element": "C" 
			},
			{
				"x": 0.7250053409,
				"y": -1.6586511746,
				"z": 1.4102557986,
				"element": "C" 
			},
			{
				"x": -0.3938405288,
				"y": -1.9227178476,
				"z": 2.041430519,
				"element": "N" 
			},
			{
				"x": -1.2298901643,
				"y": -0.8553859141,
				"z": 1.7403189145,
				"element": "C" 
			},
			{
				"x": -0.5639144191,
				"y": 0.0689779238,
				"z": 0.8983677204,
				"element": "C" 
			},
			{
				"x": 0.6872225418,
				"y": -0.4852679766,
				"z": 0.6918199444,
				"element": "N" 
			},
			{
				"x": -1.1667166174,
				"y": 1.2462613482,
				"z": 0.4496888639,
				"element": "C" 
			},
			{
				"x": -2.4752307709,
				"y": 1.4761147299,
				"z": 0.8662628981,
				"element": "C" 
			},
			{
				"x": -3.1555278374,
				"y": 0.5646880703,
				"z": 1.7002033468,
				"element": "C" 
			},
			{
				"x": -2.5473279292,
				"y": -0.6040478614,
				"z": 2.1455800948,
				"element": "C" 
			},
			{
				"x": 1.911695277,
				"y": -3.1332028846,
				"z": 2.366285894,
				"element": "H" 
			},
			{
				"x": 1.7989123087,
				"y": -3.3523367144,
				"z": 0.6408503964,
				"element": "H" 
			},
			{
				"x": 1.4932576892,
				"y": -0.0749029816,
				"z": 0.2418450713,
				"element": "H" 
			},
			{
				"x": -0.6460378484,
				"y": 1.9493959201,
				"z": -0.1932485762,
				"element": "H" 
			},
			{
				"x": -2.9841598209,
				"y": 2.378410195,
				"z": 0.5403359662,
				"element": "H" 
			},
			{
				"x": -4.1761448749,
				"y": 0.7846051109,
				"z": 1.9990627675,
				"element": "H" 
			},
			{
				"x": -3.0650359192,
				"y": -1.3078952477,
				"z": 2.7891584522,
				"element": "H" 
			}
		],
		 "valence_orbital": [ 
			{
				"type": "occ",
				"energy": -0.30975,
				"method": "rhf"
			},
			{
				"type": "occ",
				"energy": -0.30229,
				"method": "rhf"
			},
			{
				"type": "occ",
				"energy": -0.27522,
				"method": "rhf"
			},
			{
				"type": "occ",
				"energy": -0.22848,
				"method": "rhf"
			},
			{
				"type": "occ",
				"energy": -0.22407,
				"method": "rhf"
			},
			{
				"type": "unocc",
				"energy": -0.07737,
				"method": "rhf"
			},
			{
				"type": "unocc",
				"energy": -0.01798,
				"method": "rhf"
			},
			{
				"type": "unocc",
				"energy": 0.02175,
				"method": "rhf"
			},
			{
				"type": "unocc",
				"energy": 0.04664,
				"method": "rhf"
			},
			{
				"type": "unocc",
				"energy": 0.08892,
				"method": "rhf"
			}
		],
		"cosmo_sigma_profile": { 
			"-0.025": 0.0,
			"-0.024": 0.0,
			"-0.023": 0.0,
			"-0.022": 0.0,
			"-0.021": 0.0,
			"-0.02": 0.0,
			"-0.019": 0.0,
			"-0.018": 0.0,
			"-0.017": 0.0,
			"-0.016": 0.0,
			"-0.015": 0.0,
			"-0.014": 0.273461856273,
			"-0.013": 0.764000352934,
			"-0.012": 0.864634773621,
			"-0.011": 1.33270183361,
			"-0.01": 3.06832233758,
			"-0.009": 4.8206459578,
			"-0.008": 6.10951589872,
			"-0.007": 8.14507334338,
			"-0.006": 12.0884590394,
			"-0.005": 13.2514236735,
			"-0.004": 12.0220378143,
			"-0.003": 13.7678905975,
			"-0.002": 12.4904528688,
			"-0.001": 12.5801319309,
			"0.0": 14.9651220705,
			"0.001": 24.9094489719,
			"0.002": 30.2792108886,
			"0.003": 11.7853174249,
			"0.004": 11.730664745,
			"0.005": 13.6422923118,
			"0.006": 10.781561546,
			"0.007": 4.51845352026,
			"0.008": 2.73594787172,
			"0.009": 2.39564082854,
			"0.01": 1.31646501601,
			"0.011": 1.25012282252,
			"0.012": 0.549902572466,
			"0.013": 1.51349821608,
			"0.014": 0.984077921061,
			"0.015": 0.651620962438,
			"0.016": 0.934448158664,
			"0.017": 0.690898942468,
			"0.018": 0.145061015748,
			"0.019": 0.0,
			"0.02": 0.0,
			"0.021": 0.0,
			"0.022": 0.0,
			"0.023": 0.0,
			"0.024": 0.0,
			"0.0": 0.0
		}
	}
}
