{
	 "smiles": "NN=C(C1=CC=CC=C1)C1=CC=CC=C1", 
	 "Tm": 369.65, 
	 "num_atms": 27, 
	 "gaussian": { 
		 "optdone": 1, 
		 "sigma_profile": "yes", 
		 "theory": "DFT", 
		 "functional": "B3LYP", 
		 "basiset": "6-31G**", 
		 "properties": { 
			 "R2extent": 4361.4342, 
			 "electric_dipole_moment_norm": 2.32430831432, 
			 "electric_quadrupole_moment_norm": 9.94155553472, 
			 "total_energy": -612.085522474, 
			 "HOMO_LUMO_gap": 0.16917, 
			 "cosmo_polarized_energy": -9.49, 
			 "cosmo_cavitation_energy": 30.73, 
			 "cosmo_dispersion_energy": -22.08, 
			 "cosmo_repulsion_energy": 1.75, 
			 "cosmo_total_nonelectrostatic_energy": 10.4, 
			 "SMD_solvation_energy": 4.84 
		},
		"coords": [
			{
				"x": -1.5904408578,
				"y": 2.6838394451,
				"z": 1.4849440761,
				"element": "N" 
			},
			{
				"x": -0.3829377257,
				"y": 2.0819881613,
				"z": 1.2663531534,
				"element": "N" 
			},
			{
				"x": -0.2463017527,
				"y": 0.8090496276,
				"z": 1.4543151952,
				"element": "C" 
			},
			{
				"x": -1.3761242808,
				"y": -0.0873103175,
				"z": 1.8645762981,
				"element": "C" 
			},
			{
				"x": -2.0487958262,
				"y": 0.1142030089,
				"z": 3.0812958508,
				"element": "C" 
			},
			{
				"x": -3.1085110887,
				"y": -0.7142871456,
				"z": 3.4535909075,
				"element": "C" 
			},
			{
				"x": -3.5173447747,
				"y": -1.7517265024,
				"z": 2.613420977,
				"element": "C" 
			},
			{
				"x": -2.8598429525,
				"y": -1.9586490527,
				"z": 1.3986907309,
				"element": "C" 
			},
			{
				"x": -1.7966649607,
				"y": -1.1348868119,
				"z": 1.0284740129,
				"element": "C" 
			},
			{
				"x": 1.1065430914,
				"y": 0.2332727469,
				"z": 1.2328250689,
				"element": "C" 
			},
			{
				"x": 2.0996398711,
				"y": 0.9780356026,
				"z": 0.5682125679,
				"element": "C" 
			},
			{
				"x": 3.3719620977,
				"y": 0.4521394047,
				"z": 0.371676542,
				"element": "C" 
			},
			{
				"x": 3.6872774925,
				"y": -0.8313615403,
				"z": 0.830319524,
				"element": "C" 
			},
			{
				"x": 2.7136080644,
				"y": -1.5788520819,
				"z": 1.4913040899,
				"element": "C" 
			},
			{
				"x": 1.4359401723,
				"y": -1.0531066443,
				"z": 1.6915758416,
				"element": "C" 
			},
			{
				"x": -1.6503434061,
				"y": 3.5377005907,
				"z": 0.9460020952,
				"element": "H" 
			},
			{
				"x": -2.4135247691,
				"y": 2.091634214,
				"z": 1.3770464193,
				"element": "H" 
			},
			{
				"x": -1.734462709,
				"y": 0.922791118,
				"z": 3.7343725221,
				"element": "H" 
			},
			{
				"x": -3.6131973127,
				"y": -0.5498805877,
				"z": 4.401458891,
				"element": "H" 
			},
			{
				"x": -4.3428935463,
				"y": -2.3954112364,
				"z": 2.9033998666,
				"element": "H" 
			},
			{
				"x": -3.1735924503,
				"y": -2.7631150316,
				"z": 0.7394491429,
				"element": "H" 
			},
			{
				"x": -1.2815043644,
				"y": -1.302477586,
				"z": 0.0870118844,
				"element": "H" 
			},
			{
				"x": 1.8514353813,
				"y": 1.9720997431,
				"z": 0.2136447568,
				"element": "H" 
			},
			{
				"x": 4.122330606,
				"y": 1.0430578963,
				"z": -0.1467030726,
				"element": "H" 
			},
			{
				"x": 4.6807016874,
				"y": -1.241443747,
				"z": 0.6722029427,
				"element": "H" 
			},
			{
				"x": 2.9461992672,
				"y": -2.5747731967,
				"z": 1.8582791087,
				"element": "H" 
			},
			{
				"x": 0.6926450464,
				"y": -1.6435300772,
				"z": 2.2167606069,
				"element": "H" 
			}
		],
		 "valence_orbital": [ 
			{
				"type": "occ",
				"energy": -0.26283,
				"method": "rhf"
			},
			{
				"type": "occ",
				"energy": -0.25557,
				"method": "rhf"
			},
			{
				"type": "occ",
				"energy": -0.25318,
				"method": "rhf"
			},
			{
				"type": "occ",
				"energy": -0.24068,
				"method": "rhf"
			},
			{
				"type": "occ",
				"energy": -0.20053,
				"method": "rhf"
			},
			{
				"type": "unocc",
				"energy": -0.03136,
				"method": "rhf"
			},
			{
				"type": "unocc",
				"energy": -0.00891,
				"method": "rhf"
			},
			{
				"type": "unocc",
				"energy": -0.00783,
				"method": "rhf"
			},
			{
				"type": "unocc",
				"energy": 0.01125,
				"method": "rhf"
			},
			{
				"type": "unocc",
				"energy": 0.06303,
				"method": "rhf"
			}
		],
		"cosmo_sigma_profile": { 
			"-0.025": 0.0,
			"-0.024": 0.0,
			"-0.023": 0.0,
			"-0.022": 0.0,
			"-0.021": 0.0,
			"-0.02": 0.0,
			"-0.019": 0.0,
			"-0.018": 0.0,
			"-0.017": 0.0,
			"-0.016": 0.0,
			"-0.015": 0.0,
			"-0.014": 0.0,
			"-0.013": 0.501813490869,
			"-0.012": 1.47640045839,
			"-0.011": 1.6293368268,
			"-0.01": 2.41154260867,
			"-0.009": 2.19419364514,
			"-0.008": 2.31172668581,
			"-0.007": 1.37681458744,
			"-0.006": 9.94191980652,
			"-0.005": 17.9599372872,
			"-0.004": 22.8739916602,
			"-0.003": 20.648105643,
			"-0.002": 16.3780588485,
			"-0.001": 15.2569020469,
			"0.0": 17.2894273325,
			"0.001": 17.0244016097,
			"0.002": 15.8715122158,
			"0.003": 18.5843934998,
			"0.004": 18.5156163885,
			"0.005": 18.3698220096,
			"0.006": 11.684615332,
			"0.007": 3.12211945223,
			"0.008": 1.5416013679,
			"0.009": 2.54778912693,
			"0.01": 2.44734809319,
			"0.011": 1.57926999193,
			"0.012": 1.45789542135,
			"0.013": 0.563069800272,
			"0.014": 0.0272416427415,
			"0.015": 0.0,
			"0.016": 0.0,
			"0.017": 0.0,
			"0.018": 0.0,
			"0.019": 0.0,
			"0.02": 0.0,
			"0.021": 0.0,
			"0.022": 0.0,
			"0.023": 0.0,
			"0.024": 0.0,
			"0.025": 0.0
		}
	}
}
