{
	 "smiles": "NC1=CC(=NO1)C1=CC=C(I)C=C1", 
	 "Tm": 433.15, 
	 "num_atms": 20, 
	 "gaussian": { 
		 "optdone": 1, 
		 "sigma_profile": "yes", 
		 "theory": "DFT", 
		 "functional": "B3LYP", 
		 "basiset": "6-31G**", 
		 "properties": { 
			 "R2extent": 3453.7929, 
			 "electric_dipole_moment_norm": 4.70630088711, 
			 "electric_quadrupole_moment_norm": 14.0948195788, 
			 "total_energy": -543.242159856, 
			 "HOMO_LUMO_gap": 0.18014, 
			 "cosmo_polarized_energy": -14.23, 
			 "cosmo_cavitation_energy": 28.21, 
			 "cosmo_dispersion_energy": -22.51, 
			 "cosmo_repulsion_energy": 1.74, 
			 "cosmo_total_nonelectrostatic_energy": 7.44, 
			 "SMD_solvation_energy": 4.01 
		},
		"coords": [
			{
				"x": -2.9944173651,
				"y": -2.4931546467,
				"z": 1.9349257019,
				"element": "N" 
			},
			{
				"x": -1.9073597198,
				"y": -1.6688395991,
				"z": 1.7837701762,
				"element": "C" 
			},
			{
				"x": -1.2944459266,
				"y": -1.1031295847,
				"z": 0.6973118417,
				"element": "C" 
			},
			{
				"x": -0.1747664598,
				"y": -0.4255311676,
				"z": 1.26473387,
				"element": "C" 
			},
			{
				"x": -0.1186442031,
				"y": -0.5693717844,
				"z": 2.5767223166,
				"element": "N" 
			},
			{
				"x": -1.2344800858,
				"y": -1.3671128549,
				"z": 2.9082573916,
				"element": "O" 
			},
			{
				"x": 0.8571621732,
				"y": 0.3697071229,
				"z": 0.5744101932,
				"element": "C" 
			},
			{
				"x": 0.8585614494,
				"y": 0.4959029668,
				"z": -0.8211628906,
				"element": "C" 
			},
			{
				"x": 1.8341707135,
				"y": 1.2484444893,
				"z": -1.4750597736,
				"element": "C" 
			},
			{
				"x": 2.8229431133,
				"y": 1.8833385531,
				"z": -0.7235230551,
				"element": "C" 
			},
			{
				"x": 4.3112768863,
				"y": 3.0310582763,
				"z": -1.7059576588,
				"element": "I" 
			},
			{
				"x": 2.8434545548,
				"y": 1.7714407936,
				"z": 0.6694992672,
				"element": "C" 
			},
			{
				"x": 1.8635002322,
				"y": 1.0180607707,
				"z": 1.3091836057,
				"element": "C" 
			},
			{
				"x": -3.692222338,
				"y": -2.4275379807,
				"z": 1.2084331758,
				"element": "H" 
			},
			{
				"x": -3.3821919962,
				"y": -2.5120819265,
				"z": 2.8686224454,
				"element": "H" 
			},
			{
				"x": -1.5964941374,
				"y": -1.1674951016,
				"z": -0.3352776543,
				"element": "H" 
			},
			{
				"x": 0.0954326956,
				"y": 0.002498552,
				"z": -1.414640161,
				"element": "H" 
			},
			{
				"x": 1.8195385893,
				"y": 1.3343570882,
				"z": -2.5556285739,
				"element": "H" 
			},
			{
				"x": 3.6131082382,
				"y": 2.2657536682,
				"z": 1.2514657384,
				"element": "H" 
			},
			{
				"x": 1.8701735861,
				"y": 0.925592365,
				"z": 2.3898140437,
				"element": "H" 
			}
		],
		 "valence_orbital": [ 
			{
				"type": "occ",
				"energy": -0.27816,
				"method": "rhf"
			},
			{
				"type": "occ",
				"energy": -0.26762,
				"method": "rhf"
			},
			{
				"type": "occ",
				"energy": -0.26498,
				"method": "rhf"
			},
			{
				"type": "occ",
				"energy": -0.23399,
				"method": "rhf"
			},
			{
				"type": "occ",
				"energy": -0.222,
				"method": "rhf"
			},
			{
				"type": "unocc",
				"energy": -0.04186,
				"method": "rhf"
			},
			{
				"type": "unocc",
				"energy": -0.03752,
				"method": "rhf"
			},
			{
				"type": "unocc",
				"energy": -0.01466,
				"method": "rhf"
			},
			{
				"type": "unocc",
				"energy": 0.0244,
				"method": "rhf"
			},
			{
				"type": "unocc",
				"energy": 0.04436,
				"method": "rhf"
			}
		],
		"cosmo_sigma_profile": { 
			"-0.025": 0.0,
			"-0.024": 0.0,
			"-0.023": 0.0,
			"-0.022": 0.0,
			"-0.021": 0.0,
			"-0.02": 0.0,
			"-0.019": 0.0,
			"-0.018": 0.0,
			"-0.017": 0.0,
			"-0.016": 0.0,
			"-0.015": 0.6840813729,
			"-0.014": 2.66617571388,
			"-0.013": 2.83306281683,
			"-0.012": 3.17513147918,
			"-0.011": 2.61107721976,
			"-0.01": 1.89647373963,
			"-0.009": 2.6716479532,
			"-0.008": 4.98973966904,
			"-0.007": 9.46873980734,
			"-0.006": 10.4239640338,
			"-0.005": 10.7648643473,
			"-0.004": 9.83559840112,
			"-0.003": 8.9753770281,
			"-0.002": 9.8867119035,
			"-0.001": 10.8019965908,
			"0.0": 11.2582311038,
			"0.001": 17.5397473985,
			"0.002": 26.1555557158,
			"0.003": 30.0366024932,
			"0.004": 23.3176880429,
			"0.005": 7.88825076364,
			"0.006": 3.0001844411,
			"0.007": 3.5981051652,
			"0.008": 4.65140264171,
			"0.009": 4.33446636679,
			"0.01": 2.49695308882,
			"0.011": 1.67581776145,
			"0.012": 1.85261975082,
			"0.013": 1.24055962723,
			"0.014": 0.985580584148,
			"0.015": 0.0527178563298,
			"0.016": 0.0,
			"0.017": 0.0,
			"0.018": 0.0,
			"0.019": 0.0,
			"0.02": 0.0,
			"0.021": 0.0,
			"0.022": 0.0,
			"0.023": 0.0,
			"0.024": 0.0,
			"0.025": 0.0
		}
	}
}
