{
	 "smiles": "ClCC1=CSC(CC(=O)NC2=CC=CC=C2)=N1", 
	 "Tm": 389.15, 
	 "num_atms": 28, 
	 "gaussian": { 
		 "optdone": 1, 
		 "sigma_profile": "yes", 
		 "theory": "DFT", 
		 "functional": "B3LYP", 
		 "basiset": "6-31G**", 
		 "properties": { 
			 "R2extent": 6747.6503, 
			 "electric_dipole_moment_norm": 2.04451199801, 
			 "electric_quadrupole_moment_norm": 25.6097630436, 
			 "total_energy": -1507.02493866, 
			 "HOMO_LUMO_gap": 0.19405, 
			 "cosmo_polarized_energy": -15.52, 
			 "cosmo_cavitation_energy": 36.06, 
			 "cosmo_dispersion_energy": -25.59, 
			 "cosmo_repulsion_energy": 1.96, 
			 "cosmo_total_nonelectrostatic_energy": 12.43, 
			 "SMD_solvation_energy": 4.98 
		},
		"coords": [
			{
				"x": -3.1395364478,
				"y": -1.3792182772,
				"z": 2.2558474877,
				"element": "Cl" 
			},
			{
				"x": -3.5972860736,
				"y": -0.3062858694,
				"z": 0.8376825244,
				"element": "C" 
			},
			{
				"x": -2.914039008,
				"y": -0.7075639399,
				"z": -0.4234428748,
				"element": "C" 
			},
			{
				"x": -3.482989433,
				"y": -1.418965679,
				"z": -1.4449324526,
				"element": "C" 
			},
			{
				"x": -2.3366242514,
				"y": -1.6772950451,
				"z": -2.7132599374,
				"element": "S" 
			},
			{
				"x": -1.1536406967,
				"y": -0.776309904,
				"z": -1.7712240504,
				"element": "C" 
			},
			{
				"x": 0.2457705555,
				"y": -0.5337528136,
				"z": -2.2645750108,
				"element": "C" 
			},
			{
				"x": 0.999096172,
				"y": -1.8454654326,
				"z": -2.5025739492,
				"element": "C" 
			},
			{
				"x": 0.6744731086,
				"y": -2.5829958229,
				"z": -3.4244593697,
				"element": "O" 
			},
			{
				"x": 2.0613920112,
				"y": -2.1621967235,
				"z": -1.6914931606,
				"element": "N" 
			},
			{
				"x": 2.5942203911,
				"y": -1.5325625836,
				"z": -0.5350279394,
				"element": "C" 
			},
			{
				"x": 3.9891346358,
				"y": -1.4665850505,
				"z": -0.4048798237,
				"element": "C" 
			},
			{
				"x": 4.5621240244,
				"y": -0.9014528109,
				"z": 0.7322866189,
				"element": "C" 
			},
			{
				"x": 3.7517249504,
				"y": -0.3811649305,
				"z": 1.7437778823,
				"element": "C" 
			},
			{
				"x": 2.3641277414,
				"y": -0.4491600243,
				"z": 1.6147135496,
				"element": "C" 
			},
			{
				"x": 1.7787110584,
				"y": -1.0370630314,
				"z": 0.4920915622,
				"element": "C" 
			},
			{
				"x": -1.5963580109,
				"y": -0.3479064654,
				"z": -0.6240622704,
				"element": "N" 
			},
			{
				"x": -4.6807999455,
				"y": -0.3750465696,
				"z": 0.7500356611,
				"element": "H" 
			},
			{
				"x": -3.3087039774,
				"y": 0.7014792775,
				"z": 1.1351224935,
				"element": "H" 
			},
			{
				"x": -4.4883924843,
				"y": -1.8118209429,
				"z": -1.5056077257,
				"element": "H" 
			},
			{
				"x": 0.216864941,
				"y": -0.0410136228,
				"z": -3.242337639,
				"element": "H" 
			},
			{
				"x": 0.7410397676,
				"y": 0.1285809883,
				"z": -1.5552491375,
				"element": "H" 
			},
			{
				"x": 2.5462944275,
				"y": -2.9887958003,
				"z": -2.021658845,
				"element": "H" 
			},
			{
				"x": 4.6179189302,
				"y": -1.8525603798,
				"z": -1.2027391494,
				"element": "H" 
			},
			{
				"x": 5.6437013412,
				"y": -0.8590111353,
				"z": 0.821671918,
				"element": "H" 
			},
			{
				"x": 4.19819542,
				"y": 0.0661238758,
				"z": 2.6265676951,
				"element": "H" 
			},
			{
				"x": 1.7228577988,
				"y": -0.0626840794,
				"z": 2.4012049966,
				"element": "H" 
			},
			{
				"x": 0.6987230535,
				"y": -1.1144072077,
				"z": 0.4283209461,
				"element": "H" 
			}
		],
		 "valence_orbital": [ 
			{
				"type": "occ",
				"energy": -0.28468,
				"method": "rhf"
			},
			{
				"type": "occ",
				"energy": -0.26503,
				"method": "rhf"
			},
			{
				"type": "occ",
				"energy": -0.2601,
				"method": "rhf"
			},
			{
				"type": "occ",
				"energy": -0.24661,
				"method": "rhf"
			},
			{
				"type": "occ",
				"energy": -0.23374,
				"method": "rhf"
			},
			{
				"type": "unocc",
				"energy": -0.03969,
				"method": "rhf"
			},
			{
				"type": "unocc",
				"energy": -0.01863,
				"method": "rhf"
			},
			{
				"type": "unocc",
				"energy": -0.01191,
				"method": "rhf"
			},
			{
				"type": "unocc",
				"energy": -0.00283,
				"method": "rhf"
			},
			{
				"type": "unocc",
				"energy": 0.0198,
				"method": "rhf"
			}
		],
		"cosmo_sigma_profile": { 
			"-0.025": 0.0,
			"-0.024": 0.0,
			"-0.023": 0.0,
			"-0.022": 0.0,
			"-0.021": 0.0,
			"-0.02": 0.0,
			"-0.019": 0.0,
			"-0.018": 0.0,
			"-0.017": 0.0,
			"-0.016": 0.0,
			"-0.015": 0.326112123402,
			"-0.014": 0.979110904375,
			"-0.013": 0.898658284579,
			"-0.012": 1.40503920379,
			"-0.011": 0.893441075166,
			"-0.01": 1.63731062999,
			"-0.009": 4.89984012571,
			"-0.008": 8.58481166346,
			"-0.007": 10.1261452772,
			"-0.006": 16.0755616459,
			"-0.005": 17.9368016305,
			"-0.004": 21.9326402479,
			"-0.003": 16.4102001661,
			"-0.002": 15.2496340524,
			"-0.001": 16.7266200396,
			"0.0": 19.8690700708,
			"0.001": 23.2144421719,
			"0.002": 21.7303995677,
			"0.003": 17.9399284701,
			"0.004": 16.9035822438,
			"0.005": 17.8803396445,
			"0.006": 14.7271144299,
			"0.007": 8.65240687903,
			"0.008": 1.86965879918,
			"0.009": 2.09478972214,
			"0.01": 2.46506024672,
			"0.011": 2.81790856674,
			"0.012": 3.33128279503,
			"0.013": 4.86420093682,
			"0.014": 0.53267226645,
			"0.015": 0.0,
			"0.016": 0.0,
			"0.017": 0.0,
			"0.018": 0.0,
			"0.019": 0.0,
			"0.02": 0.0,
			"0.021": 0.0,
			"0.022": 0.0,
			"0.023": 0.0,
			"0.024": 0.0,
			"0.025": 0.0
		}
	}
}
