{
	 "smiles": "COC(=O)C1=CC=C(C=C1)C1=NC(CCl)=CS1", 
	 "Tm": 382.15, 
	 "num_atms": 27, 
	 "gaussian": { 
		 "optdone": 1, 
		 "sigma_profile": "yes", 
		 "theory": "DFT", 
		 "functional": "B3LYP", 
		 "basiset": "6-31G**", 
		 "properties": { 
			 "R2extent": 10481.6321, 
			 "electric_dipole_moment_norm": 4.04397496778, 
			 "electric_quadrupole_moment_norm": 22.3859402595, 
			 "total_energy": -1526.8975977, 
			 "HOMO_LUMO_gap": 0.1584, 
			 "cosmo_polarized_energy": -12.87, 
			 "cosmo_cavitation_energy": 35.81, 
			 "cosmo_dispersion_energy": -26.57, 
			 "cosmo_repulsion_energy": 2.03, 
			 "cosmo_total_nonelectrostatic_energy": 11.27, 
			 "SMD_solvation_energy": 5.91 
		},
		"coords": [
			{
				"x": 4.1408008492,
				"y": -0.2411495287,
				"z": 1.7260922532,
				"element": "C" 
			},
			{
				"x": 2.7383453696,
				"y": -0.0018122199,
				"z": 1.5310933177,
				"element": "O" 
			},
			{
				"x": 2.3477429878,
				"y": 0.1084755138,
				"z": 0.240571033,
				"element": "C" 
			},
			{
				"x": 3.1161205537,
				"y": 0.013584495,
				"z": -0.6967573261,
				"element": "O" 
			},
			{
				"x": 0.8844433259,
				"y": 0.3562805929,
				"z": 0.107831926,
				"element": "C" 
			},
			{
				"x": 0.3548034093,
				"y": 0.4930117085,
				"z": -1.1834783118,
				"element": "C" 
			},
			{
				"x": -1.0011510827,
				"y": 0.7248471691,
				"z": -1.3670829504,
				"element": "C" 
			},
			{
				"x": -1.8611688095,
				"y": 0.8245580452,
				"z": -0.2573680322,
				"element": "C" 
			},
			{
				"x": -1.3254313548,
				"y": 0.6867301915,
				"z": 1.0340262926,
				"element": "C" 
			},
			{
				"x": 0.0332290177,
				"y": 0.4554296223,
				"z": 1.2168928046,
				"element": "C" 
			},
			{
				"x": -3.2904565266,
				"y": 1.070109639,
				"z": -0.4868914594,
				"element": "C" 
			},
			{
				"x": -3.8356635291,
				"y": 1.16185522,
				"z": -1.6701375038,
				"element": "N" 
			},
			{
				"x": -5.187908882,
				"y": 1.3910301452,
				"z": -1.5999290266,
				"element": "C" 
			},
			{
				"x": -5.9771849662,
				"y": 1.523256923,
				"z": -2.8583858782,
				"element": "C" 
			},
			{
				"x": -5.8537500094,
				"y": 3.2000924568,
				"z": -3.5866688181,
				"element": "Cl" 
			},
			{
				"x": -5.7020751574,
				"y": 1.475596435,
				"z": -0.3320370981,
				"element": "C" 
			},
			{
				"x": -4.4504502336,
				"y": 1.2657733446,
				"z": 0.837910732,
				"element": "S" 
			},
			{
				"x": 4.7325078613,
				"y": 0.5760526038,
				"z": 1.3060897049,
				"element": "H" 
			},
			{
				"x": 4.2816510667,
				"y": -0.3015205829,
				"z": 2.8051765008,
				"element": "H" 
			},
			{
				"x": 4.4419931135,
				"y": -1.1756036201,
				"z": 1.2460206092,
				"element": "H" 
			},
			{
				"x": 1.0276355265,
				"y": 0.4147689896,
				"z": -2.0306112062,
				"element": "H" 
			},
			{
				"x": -1.419110669,
				"y": 0.8344096695,
				"z": -2.3611785706,
				"element": "H" 
			},
			{
				"x": -1.9710513829,
				"y": 0.7579332472,
				"z": 1.9048735744,
				"element": "H" 
			},
			{
				"x": 0.4398539911,
				"y": 0.3498704592,
				"z": 2.215741827,
				"element": "H" 
			},
			{
				"x": -5.6017721105,
				"y": 0.8434949651,
				"z": -3.6225491691,
				"element": "H" 
			},
			{
				"x": -7.0389051143,
				"y": 1.3474314151,
				"z": -2.6896463048,
				"element": "H" 
			},
			{
				"x": -6.7253472443,
				"y": 1.6552931002,
				"z": -0.03379892,
				"element": "H" 
			}
		],
		 "valence_orbital": [ 
			{
				"type": "occ",
				"energy": -0.28796,
				"method": "rhf"
			},
			{
				"type": "occ",
				"energy": -0.28465,
				"method": "rhf"
			},
			{
				"type": "occ",
				"energy": -0.27743,
				"method": "rhf"
			},
			{
				"type": "occ",
				"energy": -0.2671,
				"method": "rhf"
			},
			{
				"type": "occ",
				"energy": -0.23586,
				"method": "rhf"
			},
			{
				"type": "unocc",
				"energy": -0.07746,
				"method": "rhf"
			},
			{
				"type": "unocc",
				"energy": -0.02839,
				"method": "rhf"
			},
			{
				"type": "unocc",
				"energy": -0.01405,
				"method": "rhf"
			},
			{
				"type": "unocc",
				"energy": 0.00131,
				"method": "rhf"
			},
			{
				"type": "unocc",
				"energy": 0.00734,
				"method": "rhf"
			}
		],
		"cosmo_sigma_profile": { 
			"-0.025": 0.0,
			"-0.024": 0.0,
			"-0.023": 0.0,
			"-0.022": 0.0,
			"-0.021": 0.0,
			"-0.02": 0.0,
			"-0.019": 0.0,
			"-0.018": 0.0,
			"-0.017": 0.0,
			"-0.016": 0.0,
			"-0.015": 0.0,
			"-0.014": 0.0,
			"-0.013": 0.0,
			"-0.012": 0.0,
			"-0.011": 0.0204235728008,
			"-0.01": 1.76274056179,
			"-0.009": 3.67626058732,
			"-0.008": 6.5249152408,
			"-0.007": 9.42625119131,
			"-0.006": 15.0880643872,
			"-0.005": 18.0937211723,
			"-0.004": 19.1034444216,
			"-0.003": 21.1558698937,
			"-0.002": 16.2391366033,
			"-0.001": 18.6581421234,
			"0.0": 26.8058873066,
			"0.001": 29.3450058891,
			"0.002": 28.3240166761,
			"0.003": 17.7777017409,
			"0.004": 11.0201662625,
			"0.005": 10.3288616723,
			"0.006": 14.6553478547,
			"0.007": 7.14351741705,
			"0.008": 3.61109618212,
			"0.009": 2.9034028105,
			"0.01": 3.16704547662,
			"0.011": 2.97751799457,
			"0.012": 3.94449805585,
			"0.013": 0.063659078384,
			"0.014": 0.0,
			"0.015": 0.0,
			"0.016": 0.0,
			"0.017": 0.0,
			"0.018": 0.0,
			"0.019": 0.0,
			"0.02": 0.0,
			"0.021": 0.0,
			"0.022": 0.0,
			"0.023": 0.0,
			"0.024": 0.0,
			"0.025": 0.0
		}
	}
}
