{
	 "smiles": "CC1CCC2=C(C3=C1C=C(C)O3)C1=CC(Cl)=CC=C1O2", 
	 "Tm": 366.15, 
	 "num_atms": 35, 
	 "gaussian": { 
		 "optdone": 1, 
		 "sigma_profile": "yes", 
		 "theory": "DFT", 
		 "functional": "B3LYP", 
		 "basiset": "6-31G**", 
		 "properties": { 
			 "R2extent": 8014.1858, 
			 "electric_dipole_moment_norm": 3.61124088784, 
			 "electric_quadrupole_moment_norm": 15.3925878617, 
			 "total_energy": -1267.4945087, 
			 "HOMO_LUMO_gap": 0.1587, 
			 "cosmo_polarized_energy": -6.76, 
			 "cosmo_cavitation_energy": 38.86, 
			 "cosmo_dispersion_energy": -28.41, 
			 "cosmo_repulsion_energy": 2.16, 
			 "cosmo_total_nonelectrostatic_energy": 12.62, 
			 "SMD_solvation_energy": 6.23 
		},
		"coords": [
			{
				"x": -2.6725083702,
				"y": -3.0427625974,
				"z": 0.9732457222,
				"element": "C" 
			},
			{
				"x": -1.6614237418,
				"y": -2.2671020852,
				"z": 0.1108300816,
				"element": "C" 
			},
			{
				"x": -2.1764466275,
				"y": -0.8276681502,
				"z": -0.1327426084,
				"element": "C" 
			},
			{
				"x": -1.5455231246,
				"y": -0.0616402688,
				"z": -1.3095971178,
				"element": "C" 
			},
			{
				"x": -0.1020464016,
				"y": 0.2725711901,
				"z": -1.1442417446,
				"element": "C" 
			},
			{
				"x": 0.8999608081,
				"y": -0.288860526,
				"z": -0.397619392,
				"element": "C" 
			},
			{
				"x": 0.7680197352,
				"y": -1.4454947238,
				"z": 0.457009702,
				"element": "C" 
			},
			{
				"x": -0.2720028787,
				"y": -2.307498296,
				"z": 0.7142842993,
				"element": "C" 
			},
			{
				"x": 0.2498254601,
				"y": -3.260618766,
				"z": 1.6553136486,
				"element": "C" 
			},
			{
				"x": 1.5484255631,
				"y": -2.9270896699,
				"z": 1.9038309195,
				"element": "C" 
			},
			{
				"x": 2.6140168318,
				"y": -3.5042949331,
				"z": 2.7666697344,
				"element": "C" 
			},
			{
				"x": 1.8778136622,
				"y": -1.8165509705,
				"z": 1.1765993308,
				"element": "O" 
			},
			{
				"x": 2.0887601876,
				"y": 0.5003936478,
				"z": -0.6683821761,
				"element": "C" 
			},
			{
				"x": 3.4242162628,
				"y": 0.4709495743,
				"z": -0.2416474523,
				"element": "C" 
			},
			{
				"x": 4.2807553731,
				"y": 1.4381504958,
				"z": -0.7566159836,
				"element": "C" 
			},
			{
				"x": 5.9691688096,
				"y": 1.4365952046,
				"z": -0.2465585037,
				"element": "Cl" 
			},
			{
				"x": 3.8607932665,
				"y": 2.4209822768,
				"z": -1.6687938965,
				"element": "C" 
			},
			{
				"x": 2.5344593975,
				"y": 2.4556280626,
				"z": -2.0967671339,
				"element": "C" 
			},
			{
				"x": 1.6820437062,
				"y": 1.4885233424,
				"z": -1.5816234745,
				"element": "C" 
			},
			{
				"x": 0.3521165111,
				"y": 1.3520366814,
				"z": -1.8711191093,
				"element": "O" 
			},
			{
				"x": -3.6613528789,
				"y": -3.0368727103,
				"z": 0.5039137718,
				"element": "H" 
			},
			{
				"x": -2.7667494692,
				"y": -2.5955952279,
				"z": 1.9690143589,
				"element": "H" 
			},
			{
				"x": -2.3749819379,
				"y": -4.0875234857,
				"z": 1.1006192315,
				"element": "H" 
			},
			{
				"x": -1.6221564187,
				"y": -2.7693380811,
				"z": -0.8687782557,
				"element": "H" 
			},
			{
				"x": -3.2520242917,
				"y": -0.886090831,
				"z": -0.33485122,
				"element": "H" 
			},
			{
				"x": -2.0640235178,
				"y": -0.243881793,
				"z": 0.7888074732,
				"element": "H" 
			},
			{
				"x": -2.0888673647,
				"y": 0.8800479206,
				"z": -1.4547869064,
				"element": "H" 
			},
			{
				"x": -1.6878832964,
				"y": -0.6314910342,
				"z": -2.2398806276,
				"element": "H" 
			},
			{
				"x": -0.2764135508,
				"y": -4.093983436,
				"z": 2.0975916843,
				"element": "H" 
			},
			{
				"x": 2.9622223882,
				"y": -2.781885601,
				"z": 3.5143504973,
				"element": "H" 
			},
			{
				"x": 2.2306105626,
				"y": -4.3817445931,
				"z": 3.292493213,
				"element": "H" 
			},
			{
				"x": 3.48625416,
				"y": -3.8119986848,
				"z": 2.1778678377,
				"element": "H" 
			},
			{
				"x": 3.7748751909,
				"y": -0.2737857536,
				"z": 0.460441169,
				"element": "H" 
			},
			{
				"x": 4.5744351177,
				"y": 3.1495764704,
				"z": -2.0355053813,
				"element": "H" 
			},
			{
				"x": 2.1833308762,
				"y": 3.2027173517,
				"z": -2.7998716913,
				"element": "H" 
			}
		],
		 "valence_orbital": [ 
			{
				"type": "occ",
				"energy": -0.30372,
				"method": "rhf"
			},
			{
				"type": "occ",
				"energy": -0.26639,
				"method": "rhf"
			},
			{
				"type": "occ",
				"energy": -0.24456,
				"method": "rhf"
			},
			{
				"type": "occ",
				"energy": -0.22829,
				"method": "rhf"
			},
			{
				"type": "occ",
				"energy": -0.18775,
				"method": "rhf"
			},
			{
				"type": "unocc",
				"energy": -0.02905,
				"method": "rhf"
			},
			{
				"type": "unocc",
				"energy": -0.00038,
				"method": "rhf"
			},
			{
				"type": "unocc",
				"energy": 0.00751,
				"method": "rhf"
			},
			{
				"type": "unocc",
				"energy": 0.03701,
				"method": "rhf"
			},
			{
				"type": "unocc",
				"energy": 0.05478,
				"method": "rhf"
			}
		],
		"cosmo_sigma_profile": { 
			"-0.025": 0.0,
			"-0.024": 0.0,
			"-0.023": 0.0,
			"-0.022": 0.0,
			"-0.021": 0.0,
			"-0.02": 0.0,
			"-0.019": 0.0,
			"-0.018": 0.0,
			"-0.017": 0.0,
			"-0.016": 0.0,
			"-0.015": 0.0,
			"-0.014": 0.0,
			"-0.013": 0.0,
			"-0.012": 0.0,
			"-0.011": 0.0,
			"-0.01": 0.0,
			"-0.009": 0.0,
			"-0.008": 0.807712077406,
			"-0.007": 3.5601708096,
			"-0.006": 5.59934309083,
			"-0.005": 15.4825369299,
			"-0.004": 22.2006703902,
			"-0.003": 31.6727288242,
			"-0.002": 32.0422730071,
			"-0.001": 30.2891451306,
			"0.0": 29.2773661743,
			"0.001": 27.153426396,
			"0.002": 31.9003671167,
			"0.003": 33.3042000028,
			"0.004": 22.7254465884,
			"0.005": 17.0440452316,
			"0.006": 5.43756632512,
			"0.007": 1.21553651398,
			"0.008": 1.23070485461,
			"0.009": 0.080222330667,
			"0.01": 0.0,
			"0.011": 0.0,
			"0.012": 0.0,
			"0.013": 0.0,
			"0.014": 0.0,
			"0.015": 0.0,
			"0.016": 0.0,
			"0.017": 0.0,
			"0.018": 0.0,
			"0.019": 0.0,
			"0.02": 0.0,
			"0.021": 0.0,
			"0.022": 0.0,
			"0.023": 0.0,
			"0.024": 0.0,
			"0.025": 0.0
		}
	}
}
