{
	 "smiles": "CN(C)C=C1C(=O)CCC1=O", 
	 "Tm": 363.15, 
	 "num_atms": 22, 
	 "gaussian": { 
		 "optdone": 1, 
		 "sigma_profile": "yes", 
		 "theory": "DFT", 
		 "functional": "B3LYP", 
		 "basiset": "6-31G**", 
		 "properties": { 
			 "R2extent": 2032.8801, 
			 "electric_dipole_moment_norm": 3.62470814411, 
			 "electric_quadrupole_moment_norm": 15.8708416872, 
			 "total_energy": -516.676367185, 
			 "HOMO_LUMO_gap": 0.17202, 
			 "cosmo_polarized_energy": -14.45, 
			 "cosmo_cavitation_energy": 24.97, 
			 "cosmo_dispersion_energy": -18.52, 
			 "cosmo_repulsion_energy": 1.49, 
			 "cosmo_total_nonelectrostatic_energy": 7.94, 
			 "SMD_solvation_energy": 5.66 
		},
		"coords": [
			{
				"x": -2.2900854232,
				"y": -0.9199719373,
				"z": 0.4511075679,
				"element": "C" 
			},
			{
				"x": -1.166313745,
				"y": -0.5012808175,
				"z": 1.2891209559,
				"element": "N" 
			},
			{
				"x": -1.4387289807,
				"y": -0.5235021099,
				"z": 2.7243937834,
				"element": "C" 
			},
			{
				"x": 0.0319073503,
				"y": -0.1205514578,
				"z": 0.8468522224,
				"element": "C" 
			},
			{
				"x": 0.6098047696,
				"y": 0.0122029873,
				"z": -0.4095339115,
				"element": "C" 
			},
			{
				"x": 0.1654471108,
				"y": -0.204328248,
				"z": -1.7826816932,
				"element": "C" 
			},
			{
				"x": -0.9235792626,
				"y": -0.5883093587,
				"z": -2.2069697301,
				"element": "O" 
			},
			{
				"x": 1.3284678895,
				"y": 0.1351152287,
				"z": -2.7305049828,
				"element": "C" 
			},
			{
				"x": 2.5057850152,
				"y": 0.5815282326,
				"z": -1.8526179056,
				"element": "C" 
			},
			{
				"x": 2.0071683284,
				"y": 0.4815423078,
				"z": -0.4069439451,
				"element": "C" 
			},
			{
				"x": 2.6839422843,
				"y": 0.755517443,
				"z": 0.5763490371,
				"element": "O" 
			},
			{
				"x": -2.0113149152,
				"y": -0.8759038552,
				"z": -0.6030079879,
				"element": "H" 
			},
			{
				"x": -3.1466851719,
				"y": -0.2621071262,
				"z": 0.6408740163,
				"element": "H" 
			},
			{
				"x": -2.5800018535,
				"y": -1.9427802824,
				"z": 0.7202555094,
				"element": "H" 
			},
			{
				"x": -0.5596772119,
				"y": -0.2009620771,
				"z": 3.2829460612,
				"element": "H" 
			},
			{
				"x": -1.7103698521,
				"y": -1.5371665365,
				"z": 3.0412303449,
				"element": "H" 
			},
			{
				"x": -2.2756514301,
				"y": 0.144144246,
				"z": 2.959934904,
				"element": "H" 
			},
			{
				"x": 0.7273096574,
				"y": 0.1516032806,
				"z": 1.6432195951,
				"element": "H" 
			},
			{
				"x": 1.5485225154,
				"y": -0.7523879457,
				"z": -3.3330372732,
				"element": "H" 
			},
			{
				"x": 0.9883883875,
				"y": 0.9068363998,
				"z": -3.4287924207,
				"element": "H" 
			},
			{
				"x": 3.3958625786,
				"y": -0.0464549579,
				"z": -1.9633058348,
				"element": "H" 
			},
			{
				"x": 2.8250019593,
				"y": 1.6114165846,
				"z": -2.0437883129,
				"element": "H" 
			}
		],
		 "valence_orbital": [ 
			{
				"type": "occ",
				"energy": -0.33168,
				"method": "rhf"
			},
			{
				"type": "occ",
				"energy": -0.31976,
				"method": "rhf"
			},
			{
				"type": "occ",
				"energy": -0.24424,
				"method": "rhf"
			},
			{
				"type": "occ",
				"energy": -0.22293,
				"method": "rhf"
			},
			{
				"type": "occ",
				"energy": -0.22074,
				"method": "rhf"
			},
			{
				"type": "unocc",
				"energy": -0.04872,
				"method": "rhf"
			},
			{
				"type": "unocc",
				"energy": 0.00785,
				"method": "rhf"
			},
			{
				"type": "unocc",
				"energy": 0.06852,
				"method": "rhf"
			},
			{
				"type": "unocc",
				"energy": 0.10061,
				"method": "rhf"
			},
			{
				"type": "unocc",
				"energy": 0.1075,
				"method": "rhf"
			}
		],
		"cosmo_sigma_profile": { 
			"-0.025": 0.0,
			"-0.024": 0.0,
			"-0.023": 0.0,
			"-0.022": 0.0,
			"-0.021": 0.0,
			"-0.02": 0.0,
			"-0.019": 0.0,
			"-0.018": 0.0,
			"-0.017": 0.0,
			"-0.016": 0.0,
			"-0.015": 0.0,
			"-0.014": 0.0,
			"-0.013": 0.0,
			"-0.012": 0.0,
			"-0.011": 0.0,
			"-0.01": 0.0443787724182,
			"-0.009": 1.36821396788,
			"-0.008": 1.89371997526,
			"-0.007": 3.96571001702,
			"-0.006": 14.4076477543,
			"-0.005": 19.7856951474,
			"-0.004": 25.9145396919,
			"-0.003": 25.377886106,
			"-0.002": 14.4556801619,
			"-0.001": 15.5574439572,
			"0.0": 10.9857260978,
			"0.001": 7.60487868887,
			"0.002": 8.1266004974,
			"0.003": 4.10201354663,
			"0.004": 3.67849147727,
			"0.005": 3.88625977915,
			"0.006": 2.46642060232,
			"0.007": 3.41410403878,
			"0.008": 3.83488443274,
			"0.009": 1.64061257336,
			"0.01": 3.06878381846,
			"0.011": 3.69347391471,
			"0.012": 5.28213608818,
			"0.013": 6.6445904292,
			"0.014": 4.89229724071,
			"0.015": 1.36425506611,
			"0.016": 0.0,
			"0.017": 0.0,
			"0.018": 0.0,
			"0.019": 0.0,
			"0.02": 0.0,
			"0.021": 0.0,
			"0.022": 0.0,
			"0.023": 0.0,
			"0.024": 0.0,
			"0.025": 0.0
		}
	}
}
