{
	 "smiles": "CS(=O)(=O)C1=CC(=C(Cl)C=C1)S(C)(=O)=O", 
	 "Tm": 450.15, 
	 "num_atms": 24, 
	 "gaussian": { 
		 "optdone": 1, 
		 "sigma_profile": "yes", 
		 "theory": "DFT", 
		 "functional": "B3LYP", 
		 "basiset": "6-31G**", 
		 "properties": { 
			 "R2extent": 5222.7021, 
			 "electric_dipole_moment_norm": 7.5692360024, 
			 "electric_quadrupole_moment_norm": 12.2881097033, 
			 "total_energy": -1867.59757957, 
			 "HOMO_LUMO_gap": 0.21294, 
			 "cosmo_polarized_energy": -24.83, 
			 "cosmo_cavitation_energy": 32.5, 
			 "cosmo_dispersion_energy": -24.16, 
			 "cosmo_repulsion_energy": 1.8, 
			 "cosmo_total_nonelectrostatic_energy": 10.14, 
			 "SMD_solvation_energy": 4.92 
		},
		"coords": [
			{
				"x": 2.4202242165,
				"y": -2.1074765307,
				"z": -2.3862871857,
				"element": "C" 
			},
			{
				"x": 1.0038558508,
				"y": -2.5948594771,
				"z": -1.3732686023,
				"element": "S" 
			},
			{
				"x": 1.2621948933,
				"y": -3.9507763548,
				"z": -0.8666292051,
				"element": "O" 
			},
			{
				"x": -0.2144088894,
				"y": -2.2715277366,
				"z": -2.1261343728,
				"element": "O" 
			},
			{
				"x": 1.0918993883,
				"y": -1.4754194405,
				"z": 0.04199964,
				"element": "C" 
			},
			{
				"x": 0.5514955903,
				"y": -0.1953558241,
				"z": -0.0569837821,
				"element": "C" 
			},
			{
				"x": 0.6155744748,
				"y": 0.6676857409,
				"z": 1.0392005714,
				"element": "C" 
			},
			{
				"x": 1.2047666289,
				"y": 0.2239951007,
				"z": 2.2340663189,
				"element": "C" 
			},
			{
				"x": 1.3177536095,
				"y": 1.238989506,
				"z": 3.6527063012,
				"element": "Cl" 
			},
			{
				"x": 1.7316590735,
				"y": -1.0671611555,
				"z": 2.3248777149,
				"element": "C" 
			},
			{
				"x": 1.6751550246,
				"y": -1.9221677955,
				"z": 1.2271401871,
				"element": "C" 
			},
			{
				"x": -0.1821831099,
				"y": 2.2930506582,
				"z": 0.8114087124,
				"element": "S" 
			},
			{
				"x": 1.1769128486,
				"y": 3.4758612101,
				"z": 0.927789885,
				"element": "C" 
			},
			{
				"x": -0.6555536408,
				"y": 2.31253447,
				"z": -0.5801414734,
				"element": "O" 
			},
			{
				"x": -1.1086935049,
				"y": 2.5265632263,
				"z": 1.9229318755,
				"element": "O" 
			},
			{
				"x": 2.3016372481,
				"y": -1.0683986874,
				"z": -2.6964249227,
				"element": "H" 
			},
			{
				"x": 3.3386582235,
				"y": -2.2509710889,
				"z": -1.8154153355,
				"element": "H" 
			},
			{
				"x": 2.4080296841,
				"y": -2.7656995209,
				"z": -3.2576166966,
				"element": "H" 
			},
			{
				"x": 0.0580545125,
				"y": 0.1409627351,
				"z": -0.9632793711,
				"element": "H" 
			},
			{
				"x": 2.1736098981,
				"y": -1.3950123832,
				"z": 3.2590196145,
				"element": "H" 
			},
			{
				"x": 2.0609438477,
				"y": -2.9341851854,
				"z": 1.2891498335,
				"element": "H" 
			},
			{
				"x": 1.6342568958,
				"y": 3.4185417627,
				"z": 1.9149103822,
				"element": "H" 
			},
			{
				"x": 0.722279255,
				"y": 4.4570467699,
				"z": 0.7748710658,
				"element": "H" 
			},
			{
				"x": 1.8961779813,
				"y": 3.2650800006,
				"z": 0.1353088447,
				"element": "H" 
			}
		],
		 "valence_orbital": [ 
			{
				"type": "occ",
				"energy": -0.30993,
				"method": "rhf"
			},
			{
				"type": "occ",
				"energy": -0.30864,
				"method": "rhf"
			},
			{
				"type": "occ",
				"energy": -0.30374,
				"method": "rhf"
			},
			{
				"type": "occ",
				"energy": -0.29652,
				"method": "rhf"
			},
			{
				"type": "occ",
				"energy": -0.28756,
				"method": "rhf"
			},
			{
				"type": "unocc",
				"energy": -0.07462,
				"method": "rhf"
			},
			{
				"type": "unocc",
				"energy": -0.06061,
				"method": "rhf"
			},
			{
				"type": "unocc",
				"energy": -0.00831,
				"method": "rhf"
			},
			{
				"type": "unocc",
				"energy": 0.0444,
				"method": "rhf"
			},
			{
				"type": "unocc",
				"energy": 0.05104,
				"method": "rhf"
			}
		],
		"cosmo_sigma_profile": { 
			"-0.025": 0.0,
			"-0.024": 0.0,
			"-0.023": 0.0,
			"-0.022": 0.0,
			"-0.021": 0.0,
			"-0.02": 0.0,
			"-0.019": 0.0,
			"-0.018": 0.0,
			"-0.017": 0.0,
			"-0.016": 0.0,
			"-0.015": 0.0,
			"-0.014": 0.0,
			"-0.013": 0.0,
			"-0.012": 0.0,
			"-0.011": 0.000502166126778,
			"-0.01": 1.62928467868,
			"-0.009": 12.8115927729,
			"-0.008": 14.9191577912,
			"-0.007": 14.1891118435,
			"-0.006": 15.4667469158,
			"-0.005": 19.2366415606,
			"-0.004": 17.4772894524,
			"-0.003": 17.2579263929,
			"-0.002": 18.3516414779,
			"-0.001": 18.5447232223,
			"0.0": 12.0388481594,
			"0.001": 9.36654594617,
			"0.002": 9.9547342231,
			"0.003": 7.19841346849,
			"0.004": 4.95816591405,
			"0.005": 4.10138819872,
			"0.006": 4.64548393016,
			"0.007": 5.76253492522,
			"0.008": 6.80231629384,
			"0.009": 7.63425546927,
			"0.01": 13.506741947,
			"0.011": 19.8196330631,
			"0.012": 6.52587647409,
			"0.013": 0.0,
			"0.014": 0.0,
			"0.015": 0.0,
			"0.016": 0.0,
			"0.017": 0.0,
			"0.018": 0.0,
			"0.019": 0.0,
			"0.02": 0.0,
			"0.021": 0.0,
			"0.022": 0.0,
			"0.023": 0.0,
			"0.024": 0.0,
			"0.0": 0.0
		}
	}
}
