{
	 "smiles": "CCN1C(=O)N(CC2=CC=CC=C2)C(N)=C(C(=O)CCl)C1=O", 
	 "Tm": 389.15, 
	 "num_atms": 38, 
	 "gaussian": { 
		 "optdone": 1, 
		 "sigma_profile": "yes", 
		 "theory": "DFT", 
		 "functional": "B3LYP", 
		 "basiset": "6-31G**", 
		 "properties": { 
			 "R2extent": 8667.8362, 
			 "electric_dipole_moment_norm": 6.29525546265, 
			 "electric_quadrupole_moment_norm": 28.415468312, 
			 "total_energy": -1431.42469234, 
			 "HOMO_LUMO_gap": 0.19442, 
			 "cosmo_polarized_energy": -18.19, 
			 "cosmo_cavitation_energy": 42.29, 
			 "cosmo_dispersion_energy": -30.32, 
			 "cosmo_repulsion_energy": 2.3, 
			 "cosmo_total_nonelectrostatic_energy": 14.27, 
			 "SMD_solvation_energy": 7.65 
		},
		"coords": [
			{
				"x": 4.4133248191,
				"y": -2.0292003604,
				"z": -0.498338659,
				"element": "C" 
			},
			{
				"x": 2.9976901306,
				"y": -2.5924326634,
				"z": -0.6119005116,
				"element": "C" 
			},
			{
				"x": 1.9620771271,
				"y": -1.5691934232,
				"z": -0.3522174109,
				"element": "N" 
			},
			{
				"x": 1.5427103353,
				"y": -0.8176914902,
				"z": -1.4252665832,
				"element": "C" 
			},
			{
				"x": 1.9731544118,
				"y": -0.9715101535,
				"z": -2.5605228184,
				"element": "O" 
			},
			{
				"x": 0.5687394486,
				"y": 0.1666948307,
				"z": -1.1528578386,
				"element": "N" 
			},
			{
				"x": 0.2356159897,
				"y": 1.0847965926,
				"z": -2.2632139466,
				"element": "C" 
			},
			{
				"x": -1.1222978851,
				"y": 0.842520615,
				"z": -2.8964997354,
				"element": "C" 
			},
			{
				"x": -1.4727813603,
				"y": -0.4301411031,
				"z": -3.3691545792,
				"element": "C" 
			},
			{
				"x": -2.711460211,
				"y": -0.6391045868,
				"z": -3.9723115444,
				"element": "C" 
			},
			{
				"x": -3.6136996398,
				"y": 0.4192810952,
				"z": -4.1171530325,
				"element": "C" 
			},
			{
				"x": -3.2688061764,
				"y": 1.6902892934,
				"z": -3.6599321328,
				"element": "C" 
			},
			{
				"x": -2.0276979179,
				"y": 1.8995440337,
				"z": -3.0517665173,
				"element": "C" 
			},
			{
				"x": 0.0118802431,
				"y": 0.3359751739,
				"z": 0.0972659942,
				"element": "C" 
			},
			{
				"x": -0.9402950984,
				"y": 1.2691520181,
				"z": 0.2304879138,
				"element": "N" 
			},
			{
				"x": 0.4652044663,
				"y": -0.428267163,
				"z": 1.1970322611,
				"element": "C" 
			},
			{
				"x": -0.1572910561,
				"y": -0.2405476726,
				"z": 2.5112466307,
				"element": "C" 
			},
			{
				"x": -1.0621827526,
				"y": 0.5820392101,
				"z": 2.7029320906,
				"element": "O" 
			},
			{
				"x": 0.3329955584,
				"y": -1.0974653459,
				"z": 3.6813855037,
				"element": "C" 
			},
			{
				"x": -0.5672656931,
				"y": -0.7574663339,
				"z": 5.2017421807,
				"element": "Cl" 
			},
			{
				"x": 1.5157620344,
				"y": -1.4042312344,
				"z": 0.9847684805,
				"element": "C" 
			},
			{
				"x": 2.0232097388,
				"y": -2.1053270159,
				"z": 1.8583323141,
				"element": "O" 
			},
			{
				"x": 5.1434025313,
				"y": -2.8211552805,
				"z": -0.6938602818,
				"element": "H" 
			},
			{
				"x": 4.5749239276,
				"y": -1.2307575304,
				"z": -1.2279263013,
				"element": "H" 
			},
			{
				"x": 4.5940089826,
				"y": -1.64004588,
				"z": 0.5071626654,
				"element": "H" 
			},
			{
				"x": 2.8132276199,
				"y": -2.9804329777,
				"z": -1.6137984571,
				"element": "H" 
			},
			{
				"x": 2.8371223697,
				"y": -3.3806406345,
				"z": 0.1227984346,
				"element": "H" 
			},
			{
				"x": 0.3066752902,
				"y": 2.1090371382,
				"z": -1.8845776756,
				"element": "H" 
			},
			{
				"x": 1.0257758853,
				"y": 0.9350496396,
				"z": -2.9994894091,
				"element": "H" 
			},
			{
				"x": -0.7657631246,
				"y": -1.2489971871,
				"z": -3.2740358412,
				"element": "H" 
			},
			{
				"x": -2.9728124192,
				"y": -1.6287560558,
				"z": -4.3353874633,
				"element": "H" 
			},
			{
				"x": -4.5782504851,
				"y": 0.2521351678,
				"z": -4.5870987608,
				"element": "H" 
			},
			{
				"x": -3.9610997264,
				"y": 2.5192792933,
				"z": -3.7732547007,
				"element": "H" 
			},
			{
				"x": -1.7575883405,
				"y": 2.8966264411,
				"z": -2.7082618788,
				"element": "H" 
			},
			{
				"x": -1.3398371813,
				"y": 1.304468172,
				"z": 1.1779205351,
				"element": "H" 
			},
			{
				"x": -1.4550160487,
				"y": 1.5936683253,
				"z": -0.5736866983,
				"element": "H" 
			},
			{
				"x": 1.3917981458,
				"y": -0.9210131694,
				"z": 3.8678876854,
				"element": "H" 
			},
			{
				"x": 0.2279460611,
				"y": -2.1580797781,
				"z": 3.4557500882,
				"element": "H" 
			}
		],
		 "valence_orbital": [ 
			{
				"type": "occ",
				"energy": -0.2739,
				"method": "rhf"
			},
			{
				"type": "occ",
				"energy": -0.26987,
				"method": "rhf"
			},
			{
				"type": "occ",
				"energy": -0.26534,
				"method": "rhf"
			},
			{
				"type": "occ",
				"energy": -0.26293,
				"method": "rhf"
			},
			{
				"type": "occ",
				"energy": -0.24109,
				"method": "rhf"
			},
			{
				"type": "unocc",
				"energy": -0.04667,
				"method": "rhf"
			},
			{
				"type": "unocc",
				"energy": -0.02924,
				"method": "rhf"
			},
			{
				"type": "unocc",
				"energy": -0.02649,
				"method": "rhf"
			},
			{
				"type": "unocc",
				"energy": -0.01643,
				"method": "rhf"
			},
			{
				"type": "unocc",
				"energy": 0.02145,
				"method": "rhf"
			}
		],
		"cosmo_sigma_profile": { 
			"-0.025": 0.0,
			"-0.024": 0.0,
			"-0.023": 0.0,
			"-0.022": 0.0,
			"-0.021": 0.0,
			"-0.02": 0.0,
			"-0.019": 0.0,
			"-0.018": 0.0,
			"-0.017": 0.0,
			"-0.016": 0.0,
			"-0.015": 0.0,
			"-0.014": 0.0,
			"-0.013": 0.0,
			"-0.012": 0.354983517696,
			"-0.011": 1.81418083176,
			"-0.01": 2.50937170955,
			"-0.009": 2.63384750089,
			"-0.008": 3.65193917508,
			"-0.007": 9.53135628843,
			"-0.006": 16.5894699541,
			"-0.005": 23.4129175867,
			"-0.004": 29.0810940013,
			"-0.003": 30.5654260738,
			"-0.002": 31.0857500449,
			"-0.001": 27.2984788125,
			"0.0": 25.4695420248,
			"0.001": 19.893865755,
			"0.002": 16.3044588591,
			"0.003": 16.6881683381,
			"0.004": 16.0329275854,
			"0.005": 16.331397499,
			"0.006": 13.2118632094,
			"0.007": 7.50865549576,
			"0.008": 4.32157274448,
			"0.009": 5.14521379978,
			"0.01": 4.73989911147,
			"0.011": 5.78157967695,
			"0.012": 5.96238815528,
			"0.013": 2.56915623942,
			"0.014": 0.521573192281,
			"0.015": 0.0,
			"0.016": 0.0,
			"0.017": 0.0,
			"0.018": 0.0,
			"0.019": 0.0,
			"0.02": 0.0,
			"0.021": 0.0,
			"0.022": 0.0,
			"0.023": 0.0,
			"0.024": 0.0,
			"0.025": 0.0
		}
	}
}
