{
	 "smiles": "CN1C=NC2=C1N=CC(=C2)C(O)=O", 
	 "Tm": 558.15, 
	 "num_atms": 20, 
	 "gaussian": { 
		 "optdone": 1, 
		 "sigma_profile": "yes", 
		 "theory": "DFT", 
		 "functional": "B3LYP", 
		 "basiset": "6-31G**", 
		 "properties": { 
			 "R2extent": 2738.2925, 
			 "electric_dipole_moment_norm": 6.13882182182, 
			 "electric_quadrupole_moment_norm": 18.7480152542, 
			 "total_energy": -623.785260177, 
			 "HOMO_LUMO_gap": 0.1938, 
			 "cosmo_polarized_energy": -19.72, 
			 "cosmo_cavitation_energy": 25.03, 
			 "cosmo_dispersion_energy": -18.66, 
			 "cosmo_repulsion_energy": 1.44, 
			 "cosmo_total_nonelectrostatic_energy": 7.82, 
			 "SMD_solvation_energy": 2.51 
		},
		"coords": [
			{
				"x": 2.8566337063,
				"y": 0.1873228344,
				"z": -2.4055522481,
				"element": "C" 
			},
			{
				"x": 1.6744013009,
				"y": 0.6274982347,
				"z": -1.6831083877,
				"element": "N" 
			},
			{
				"x": 1.2174045768,
				"y": 1.9158759544,
				"z": -1.5005546074,
				"element": "C" 
			},
			{
				"x": 0.1086073678,
				"y": 2.0100497421,
				"z": -0.8062809786,
				"element": "N" 
			},
			{
				"x": -0.204145289,
				"y": 0.6981859337,
				"z": -0.4969492359,
				"element": "C" 
			},
			{
				"x": 0.7644948534,
				"y": -0.1830115804,
				"z": -1.0395853311,
				"element": "C" 
			},
			{
				"x": 0.7879874683,
				"y": -1.5116078471,
				"z": -0.9595015627,
				"element": "N" 
			},
			{
				"x": -0.2369582477,
				"y": -2.0281446641,
				"z": -0.2779461624,
				"element": "C" 
			},
			{
				"x": -1.2648582072,
				"y": -1.2664572188,
				"z": 0.3307367632,
				"element": "C" 
			},
			{
				"x": -1.2587751043,
				"y": 0.1299352902,
				"z": 0.213480812,
				"element": "C" 
			},
			{
				"x": -2.3368741757,
				"y": -2.026939616,
				"z": 1.0456560416,
				"element": "C" 
			},
			{
				"x": -3.0891151575,
				"y": -1.3316686946,
				"z": 1.9417314233,
				"element": "O" 
			},
			{
				"x": -2.5532787607,
				"y": -3.2020307177,
				"z": 0.8620124907,
				"element": "O" 
			},
			{
				"x": 2.5741464596,
				"y": -0.4725661912,
				"z": -3.2297462428,
				"element": "H" 
			},
			{
				"x": 3.5292425971,
				"y": -0.3566379978,
				"z": -1.7375508411,
				"element": "H" 
			},
			{
				"x": 3.3728601978,
				"y": 1.0623992541,
				"z": -2.8038114862,
				"element": "H" 
			},
			{
				"x": 1.761178651,
				"y": 2.7567442405,
				"z": -1.9138054963,
				"element": "H" 
			},
			{
				"x": -0.2782127741,
				"y": -3.1093227089,
				"z": -0.1872843131,
				"element": "H" 
			},
			{
				"x": -2.046567422,
				"y": 0.7609263339,
				"z": 0.6169107292,
				"element": "H" 
			},
			{
				"x": -2.6996720407,
				"y": -0.4623505814,
				"z": 2.1077486335,
				"element": "H" 
			}
		],
		 "valence_orbital": [ 
			{
				"type": "occ",
				"energy": -0.31469,
				"method": "rhf"
			},
			{
				"type": "occ",
				"energy": -0.27983,
				"method": "rhf"
			},
			{
				"type": "occ",
				"energy": -0.2667,
				"method": "rhf"
			},
			{
				"type": "occ",
				"energy": -0.2636,
				"method": "rhf"
			},
			{
				"type": "occ",
				"energy": -0.25295,
				"method": "rhf"
			},
			{
				"type": "unocc",
				"energy": -0.05915,
				"method": "rhf"
			},
			{
				"type": "unocc",
				"energy": -0.03541,
				"method": "rhf"
			},
			{
				"type": "unocc",
				"energy": 0.0253,
				"method": "rhf"
			},
			{
				"type": "unocc",
				"energy": 0.05302,
				"method": "rhf"
			},
			{
				"type": "unocc",
				"energy": 0.06522,
				"method": "rhf"
			}
		],
		"cosmo_sigma_profile": { 
			"-0.025": 0.0,
			"-0.024": 0.0,
			"-0.023": 0.0,
			"-0.022": 0.0,
			"-0.021": 0.0,
			"-0.02": 0.107163820415,
			"-0.019": 0.725946250347,
			"-0.018": 0.989717920864,
			"-0.017": 1.15226084927,
			"-0.016": 0.628137028682,
			"-0.015": 0.928933525792,
			"-0.014": 0.887877070213,
			"-0.013": 1.37095397786,
			"-0.012": 1.28873747194,
			"-0.011": 2.15606118144,
			"-0.01": 4.54735200928,
			"-0.009": 3.93154983376,
			"-0.008": 4.12139962395,
			"-0.007": 7.66179016097,
			"-0.006": 9.63743490538,
			"-0.005": 11.7232922646,
			"-0.004": 14.0851617045,
			"-0.003": 12.9937604519,
			"-0.002": 13.5907115452,
			"-0.001": 13.571651029,
			"0.0": 13.9321848304,
			"0.001": 9.63771460458,
			"0.002": 7.64939730258,
			"0.003": 5.9648944998,
			"0.004": 5.39684337004,
			"0.005": 5.04846829417,
			"0.006": 5.05474579599,
			"0.007": 5.32079622014,
			"0.008": 5.76176043519,
			"0.009": 4.5895508677,
			"0.01": 5.80947837189,
			"0.011": 7.18209140444,
			"0.012": 7.12057564868,
			"0.013": 3.13888297,
			"0.014": 1.44842787592,
			"0.015": 0.917125732842,
			"0.016": 1.0285089247,
			"0.017": 0.245010695645,
			"0.018": 0.0,
			"0.019": 0.0,
			"0.02": 0.0,
			"0.021": 0.0,
			"0.022": 0.0,
			"0.023": 0.0,
			"0.024": 0.0,
			"0.025": 0.0
		}
	}
}
