{
	 "smiles": "OC(=O)C1=CC=C(C=C1)S(=O)(=O)NC1=C(OC2=CC=CC=C2)C=CC=C1", 
	 "Tm": 478.15, 
	 "num_atms": 41, 
	 "gaussian": { 
		 "optdone": 1, 
		 "sigma_profile": "yes", 
		 "theory": "DFT", 
		 "functional": "B3LYP", 
		 "basiset": "6-31G**", 
		 "properties": { 
			 "R2extent": 10581.8792, 
			 "electric_dipole_moment_norm": 4.43891805061, 
			 "electric_quadrupole_moment_norm": 25.4961460543, 
			 "total_energy": -1562.05424497, 
			 "HOMO_LUMO_gap": 0.1549, 
			 "cosmo_polarized_energy": -21.89, 
			 "cosmo_cavitation_energy": 47.94, 
			 "cosmo_dispersion_energy": -31.64, 
			 "cosmo_repulsion_energy": 2.37, 
			 "cosmo_total_nonelectrostatic_energy": 18.67, 
			 "SMD_solvation_energy": 8.5 
		},
		"coords": [
			{
				"x": 5.1866560185,
				"y": -0.4554491899,
				"z": -2.2164320394,
				"element": "O" 
			},
			{
				"x": 4.3646019754,
				"y": -1.3437081064,
				"z": -2.8260986191,
				"element": "C" 
			},
			{
				"x": 4.7791297356,
				"y": -2.3576721999,
				"z": -3.3505739058,
				"element": "O" 
			},
			{
				"x": 2.9316100529,
				"y": -0.9394583759,
				"z": -2.7781330107,
				"element": "C" 
			},
			{
				"x": 1.9946546285,
				"y": -1.7860191083,
				"z": -3.3884164543,
				"element": "C" 
			},
			{
				"x": 0.6447324613,
				"y": -1.4559789925,
				"z": -3.3774011018,
				"element": "C" 
			},
			{
				"x": 0.2417390475,
				"y": -0.2803373584,
				"z": -2.7385815283,
				"element": "C" 
			},
			{
				"x": 1.1588632539,
				"y": 0.5759957989,
				"z": -2.1328781741,
				"element": "C" 
			},
			{
				"x": 2.5122735444,
				"y": 0.2423820428,
				"z": -2.1549787699,
				"element": "C" 
			},
			{
				"x": -1.4908210674,
				"y": 0.1931022131,
				"z": -2.7828107906,
				"element": "S" 
			},
			{
				"x": -1.9621908397,
				"y": -0.0247002747,
				"z": -4.1557554982,
				"element": "O" 
			},
			{
				"x": -1.6278329083,
				"y": 1.481904371,
				"z": -2.1062102638,
				"element": "O" 
			},
			{
				"x": -2.2900490931,
				"y": -1.0324625073,
				"z": -1.8826705775,
				"element": "N" 
			},
			{
				"x": -2.8794056362,
				"y": -0.7636900562,
				"z": -0.6144310624,
				"element": "C" 
			},
			{
				"x": -2.07735493,
				"y": -0.5306705962,
				"z": 0.5152463398,
				"element": "C" 
			},
			{
				"x": -0.71898236,
				"y": -0.4361909568,
				"z": 0.3097151149,
				"element": "O" 
			},
			{
				"x": 0.1553616851,
				"y": -0.9138213341,
				"z": 1.2748571839,
				"element": "C" 
			},
			{
				"x": 1.2085558388,
				"y": -0.0828456801,
				"z": 1.6564494364,
				"element": "C" 
			},
			{
				"x": 2.1574417611,
				"y": -0.5546087437,
				"z": 2.5650622034,
				"element": "C" 
			},
			{
				"x": 2.0493774203,
				"y": -1.8419210789,
				"z": 3.0941946642,
				"element": "C" 
			},
			{
				"x": 0.9874386418,
				"y": -2.6625649738,
				"z": 2.7052305923,
				"element": "C" 
			},
			{
				"x": 0.037231191,
				"y": -2.2067456858,
				"z": 1.7916240815,
				"element": "C" 
			},
			{
				"x": -2.6629766632,
				"y": -0.3418001121,
				"z": 1.7682726758,
				"element": "C" 
			},
			{
				"x": -4.0483810762,
				"y": -0.4108367631,
				"z": 1.910257607,
				"element": "C" 
			},
			{
				"x": -4.8547792142,
				"y": -0.6510595228,
				"z": 0.7972399789,
				"element": "C" 
			},
			{
				"x": -4.2693841488,
				"y": -0.8098765612,
				"z": -0.4573762241,
				"element": "C" 
			},
			{
				"x": 6.0836119315,
				"y": -0.8164442331,
				"z": -2.3095051043,
				"element": "H" 
			},
			{
				"x": 2.3467975773,
				"y": -2.6917534092,
				"z": -3.8696327812,
				"element": "H" 
			},
			{
				"x": -0.0852557533,
				"y": -2.0947711,
				"z": -3.8618700978,
				"element": "H" 
			},
			{
				"x": 0.806868441,
				"y": 1.4836967553,
				"z": -1.657397617,
				"element": "H" 
			},
			{
				"x": 3.243320203,
				"y": 0.8942972419,
				"z": -1.6914589911,
				"element": "H" 
			},
			{
				"x": -2.943122805,
				"y": -1.4588595374,
				"z": -2.5347154458,
				"element": "H" 
			},
			{
				"x": 1.2694230427,
				"y": 0.9164987726,
				"z": 1.2392244092,
				"element": "H" 
			},
			{
				"x": 2.9788174569,
				"y": 0.0904744038,
				"z": 2.8631493064,
				"element": "H" 
			},
			{
				"x": 2.7871049338,
				"y": -2.2045045519,
				"z": 3.8033731504,
				"element": "H" 
			},
			{
				"x": 0.9004567367,
				"y": -3.6676594669,
				"z": 3.1077076319,
				"element": "H" 
			},
			{
				"x": -0.7844853947,
				"y": -2.8408047026,
				"z": 1.4758221927,
				"element": "H" 
			},
			{
				"x": -2.0260881342,
				"y": -0.1511351554,
				"z": 2.6250276122,
				"element": "H" 
			},
			{
				"x": -4.4937010576,
				"y": -0.2684837831,
				"z": 2.8900516765,
				"element": "H" 
			},
			{
				"x": -5.9340768566,
				"y": -0.7013829994,
				"z": 0.8991092632,
				"element": "H" 
			},
			{
				"x": -4.8905796403,
				"y": -0.9803344822,
				"z": -1.3328870633,
				"element": "H" 
			}
		],
		 "valence_orbital": [ 
			{
				"type": "occ",
				"energy": -0.27472,
				"method": "rhf"
			},
			{
				"type": "occ",
				"energy": -0.26321,
				"method": "rhf"
			},
			{
				"type": "occ",
				"energy": -0.25758,
				"method": "rhf"
			},
			{
				"type": "occ",
				"energy": -0.2419,
				"method": "rhf"
			},
			{
				"type": "occ",
				"energy": -0.22428,
				"method": "rhf"
			},
			{
				"type": "unocc",
				"energy": -0.06938,
				"method": "rhf"
			},
			{
				"type": "unocc",
				"energy": -0.0233,
				"method": "rhf"
			},
			{
				"type": "unocc",
				"energy": -0.02022,
				"method": "rhf"
			},
			{
				"type": "unocc",
				"energy": -0.01296,
				"method": "rhf"
			},
			{
				"type": "unocc",
				"energy": -0.00759,
				"method": "rhf"
			}
		],
		"cosmo_sigma_profile": { 
			"-0.025": 0.0,
			"-0.024": 0.0,
			"-0.023": 0.0,
			"-0.022": 0.0,
			"-0.021": 0.0,
			"-0.02": 0.0,
			"-0.019": 0.242055233198,
			"-0.018": 1.1617791929,
			"-0.017": 0.773509420178,
			"-0.016": 0.673840886391,
			"-0.015": 1.11862554565,
			"-0.014": 1.53475537229,
			"-0.013": 2.10785576546,
			"-0.012": 2.34023216378,
			"-0.011": 2.03908978567,
			"-0.01": 1.88472427126,
			"-0.009": 1.8783719053,
			"-0.008": 4.49939516445,
			"-0.007": 12.2393306036,
			"-0.006": 23.4386180822,
			"-0.005": 23.493502349,
			"-0.004": 27.1978043609,
			"-0.003": 24.2980240074,
			"-0.002": 22.7066778145,
			"-0.001": 25.1470589964,
			"0.0": 27.5661574675,
			"0.001": 28.7603923793,
			"0.002": 26.6862259618,
			"0.003": 23.4587581256,
			"0.004": 24.9117837825,
			"0.005": 19.6694695609,
			"0.006": 9.11467609126,
			"0.007": 8.36738979331,
			"0.008": 6.75741454368,
			"0.009": 6.27662232227,
			"0.01": 11.6910540557,
			"0.011": 10.9324235706,
			"0.012": 1.78729321102,
			"0.013": 0.0,
			"0.014": 0.0,
			"0.015": 0.0,
			"0.016": 0.0,
			"0.017": 0.0,
			"0.018": 0.0,
			"0.019": 0.0,
			"0.02": 0.0,
			"0.021": 0.0,
			"0.022": 0.0,
			"0.023": 0.0,
			"0.024": 0.0,
			"0.025": 0.0
		}
	}
}
