{
	 "smiles": "CNCCCC12CCC(C3=CC=CC=C13)C1=CC=CC=C21", 
	 "Tm": 365.15, 
	 "num_atms": 44, 
	 "gaussian": { 
		 "optdone": 1, 
		 "sigma_profile": "yes", 
		 "theory": "DFT", 
		 "functional": "B3LYP", 
		 "basiset": "6-31G**", 
		 "properties": { 
			 "R2extent": 6775.3795, 
			 "electric_dipole_moment_norm": 1.65249724357, 
			 "electric_quadrupole_moment_norm": 6.59868433174, 
			 "total_energy": -830.75342957, 
			 "HOMO_LUMO_gap": 0.21729, 
			 "cosmo_polarized_energy": -8.06, 
			 "cosmo_cavitation_energy": 42.4, 
			 "cosmo_dispersion_energy": -29.68, 
			 "cosmo_repulsion_energy": 2.27, 
			 "cosmo_total_nonelectrostatic_energy": 14.99, 
			 "SMD_solvation_energy": 5.3 
		},
		"coords": [
			{
				"x": 3.093631261,
				"y": -1.1592461133,
				"z": 3.2611013436,
				"element": "C" 
			},
			{
				"x": 2.0828349731,
				"y": -0.4386966968,
				"z": 2.494908121,
				"element": "N" 
			},
			{
				"x": 0.7098867762,
				"y": -0.789459068,
				"z": 2.8588021391,
				"element": "C" 
			},
			{
				"x": -0.2978633462,
				"y": -0.1280632249,
				"z": 1.9108796367,
				"element": "C" 
			},
			{
				"x": -0.2828647789,
				"y": -0.7594425836,
				"z": 0.5048445229,
				"element": "C" 
			},
			{
				"x": -0.9041401567,
				"y": 0.080532012,
				"z": -0.6243165618,
				"element": "C" 
			},
			{
				"x": -2.3261025669,
				"y": 0.6252958795,
				"z": -0.2188618112,
				"element": "C" 
			},
			{
				"x": -2.9637295735,
				"y": 1.4528345847,
				"z": -1.3659919885,
				"element": "C" 
			},
			{
				"x": -1.9768993312,
				"y": 1.4896139861,
				"z": -2.5724948538,
				"element": "C" 
			},
			{
				"x": -1.7115659454,
				"y": 0.0465496564,
				"z": -2.9549912219,
				"element": "C" 
			},
			{
				"x": -2.0017913013,
				"y": -0.5357167426,
				"z": -4.1850966003,
				"element": "C" 
			},
			{
				"x": -1.703423248,
				"y": -1.8855531955,
				"z": -4.4019387595,
				"element": "C" 
			},
			{
				"x": -1.1202533755,
				"y": -2.6401726136,
				"z": -3.3851883144,
				"element": "C" 
			},
			{
				"x": -0.8360402229,
				"y": -2.0577136334,
				"z": -2.1436345365,
				"element": "C" 
			},
			{
				"x": -1.1314585221,
				"y": -0.7134555238,
				"z": -1.9205907616,
				"element": "C" 
			},
			{
				"x": -0.6713206921,
				"y": 2.0677464559,
				"z": -2.0638421036,
				"element": "C" 
			},
			{
				"x": -0.0510468038,
				"y": 3.2181501107,
				"z": -2.5427433945,
				"element": "C" 
			},
			{
				"x": 1.1809070165,
				"y": 3.614610913,
				"z": -2.0113882947,
				"element": "C" 
			},
			{
				"x": 1.7856617803,
				"y": 2.8500087934,
				"z": -1.0144479603,
				"element": "C" 
			},
			{
				"x": 1.1607282419,
				"y": 1.6960953485,
				"z": -0.5251097249,
				"element": "C" 
			},
			{
				"x": -0.0786351434,
				"y": 1.3082755372,
				"z": -1.0364171379,
				"element": "C" 
			},
			{
				"x": 2.9841935226,
				"y": -1.070075004,
				"z": 4.3574523933,
				"element": "H" 
			},
			{
				"x": 3.0489074331,
				"y": -2.2255105395,
				"z": 3.0121557324,
				"element": "H" 
			},
			{
				"x": 4.0894520024,
				"y": -0.7970180118,
				"z": 2.9881479242,
				"element": "H" 
			},
			{
				"x": 2.2087976578,
				"y": 0.5611076313,
				"z": 2.6361895023,
				"element": "H" 
			},
			{
				"x": 0.6162134591,
				"y": -1.8821211244,
				"z": 2.7890704174,
				"element": "H" 
			},
			{
				"x": 0.4692410781,
				"y": -0.5269758778,
				"z": 3.9064450019,
				"element": "H" 
			},
			{
				"x": -1.2988652409,
				"y": -0.2113324944,
				"z": 2.3495421659,
				"element": "H" 
			},
			{
				"x": -0.079128122,
				"y": 0.9461402082,
				"z": 1.8595750605,
				"element": "H" 
			},
			{
				"x": -0.8245190743,
				"y": -1.7117082076,
				"z": 0.5639454852,
				"element": "H" 
			},
			{
				"x": 0.7511889774,
				"y": -1.0079694892,
				"z": 0.2417787006,
				"element": "H" 
			},
			{
				"x": -2.9585562387,
				"y": -0.2297064641,
				"z": 0.0433511703,
				"element": "H" 
			},
			{
				"x": -2.2256177015,
				"y": 1.2407179142,
				"z": 0.6788332117,
				"element": "H" 
			},
			{
				"x": -3.173590273,
				"y": 2.4761518404,
				"z": -1.0389987895,
				"element": "H" 
			},
			{
				"x": -3.9116680343,
				"y": 1.0111771192,
				"z": -1.6888179715,
				"element": "H" 
			},
			{
				"x": -2.387078171,
				"y": 2.0682549535,
				"z": -3.4055201759,
				"element": "H" 
			},
			{
				"x": -2.452301598,
				"y": 0.060279386,
				"z": -4.9753570237,
				"element": "H" 
			},
			{
				"x": -1.9211974353,
				"y": -2.3418167087,
				"z": -5.3635451959,
				"element": "H" 
			},
			{
				"x": -0.8804869872,
				"y": -3.6862910712,
				"z": -3.5544720967,
				"element": "H" 
			},
			{
				"x": -0.3776592785,
				"y": -2.6603291243,
				"z": -1.3661682958,
				"element": "H" 
			},
			{
				"x": -0.5180061884,
				"y": 3.7967647601,
				"z": -3.3364028625,
				"element": "H" 
			},
			{
				"x": 1.6712150229,
				"y": 4.5086244205,
				"z": -2.3865239327,
				"element": "H" 
			},
			{
				"x": 2.752796824,
				"y": 3.1454208344,
				"z": -0.6166422762,
				"element": "H" 
			},
			{
				"x": 1.6559533243,
				"y": 1.0997211669,
				"z": 0.2350801169,
				"element": "H" 
			}
		],
		 "valence_orbital": [ 
			{
				"type": "occ",
				"energy": -0.23856,
				"method": "rhf"
			},
			{
				"type": "occ",
				"energy": -0.23663,
				"method": "rhf"
			},
			{
				"type": "occ",
				"energy": -0.23558,
				"method": "rhf"
			},
			{
				"type": "occ",
				"energy": -0.22245,
				"method": "rhf"
			},
			{
				"type": "occ",
				"energy": -0.21877,
				"method": "rhf"
			},
			{
				"type": "unocc",
				"energy": -0.00148,
				"method": "rhf"
			},
			{
				"type": "unocc",
				"energy": 0.00209,
				"method": "rhf"
			},
			{
				"type": "unocc",
				"energy": 0.0191,
				"method": "rhf"
			},
			{
				"type": "unocc",
				"energy": 0.0231,
				"method": "rhf"
			},
			{
				"type": "unocc",
				"energy": 0.08159,
				"method": "rhf"
			}
		],
		"cosmo_sigma_profile": { 
			"-0.025": 0.0,
			"-0.024": 0.0,
			"-0.023": 0.0,
			"-0.022": 0.0,
			"-0.021": 0.0,
			"-0.02": 0.0,
			"-0.019": 0.0,
			"-0.018": 0.0,
			"-0.017": 0.0,
			"-0.016": 0.0,
			"-0.015": 0.0,
			"-0.014": 0.0,
			"-0.013": 0.0,
			"-0.012": 0.0,
			"-0.011": 0.0,
			"-0.01": 0.220680983697,
			"-0.009": 0.902975809938,
			"-0.008": 1.3176545416,
			"-0.007": 1.13288621698,
			"-0.006": 2.77938924475,
			"-0.005": 14.0581935117,
			"-0.004": 22.794221689,
			"-0.003": 35.1250563165,
			"-0.002": 46.9990473519,
			"-0.001": 50.9000556881,
			"0.0": 41.1257326431,
			"0.001": 23.7353590827,
			"0.002": 14.785407377,
			"0.003": 13.4746999508,
			"0.004": 15.0590924357,
			"0.005": 15.5267592557,
			"0.006": 16.9726548273,
			"0.007": 10.3732058771,
			"0.008": 1.03722885859,
			"0.009": 0.944706943976,
			"0.01": 0.929106183915,
			"0.011": 0.4812310877,
			"0.012": 0.434999110652,
			"0.013": 0.699037742234,
			"0.014": 0.341443665374,
			"0.015": 0.0808167982398,
			"0.016": 0.0,
			"0.017": 0.0,
			"0.018": 0.0,
			"0.019": 0.0,
			"0.02": 0.0,
			"0.021": 0.0,
			"0.022": 0.0,
			"0.023": 0.0,
			"0.024": 0.0,
			"0.025": 0.0
		}
	}
}
