{
	 "smiles": "COC1=CC2=C(C=C1OC)C(N(CC2)C(C)=O)C1=CC=C(C=C1)[N+]([O-])=O", 
	 "Tm": 457.15, 
	 "num_atms": 46, 
	 "gaussian": { 
		 "optdone": 1, 
		 "sigma_profile": "yes", 
		 "theory": "DFT", 
		 "functional": "B3LYP", 
		 "basiset": "6-31G**", 
		 "properties": { 
			 "R2extent": 11344.4365, 
			 "electric_dipole_moment_norm": 7.33323128982, 
			 "electric_quadrupole_moment_norm": 30.9539038221, 
			 "total_energy": -1221.58755147, 
			 "HOMO_LUMO_gap": 0.1528, 
			 "cosmo_polarized_energy": -18.03, 
			 "cosmo_cavitation_energy": 48.52, 
			 "cosmo_dispersion_energy": -33.31, 
			 "cosmo_repulsion_energy": 2.53, 
			 "cosmo_total_nonelectrostatic_energy": 17.74, 
			 "SMD_solvation_energy": 11.81 
		},
		"coords": [
			{
				"x": 1.1431742839,
				"y": -0.1410982416,
				"z": 5.2739545095,
				"element": "C" 
			},
			{
				"x": 0.9391809869,
				"y": -1.2911047054,
				"z": 4.4416826091,
				"element": "O" 
			},
			{
				"x": 0.5869747068,
				"y": -1.0141095327,
				"z": 3.1412260845,
				"element": "C" 
			},
			{
				"x": 1.4756085415,
				"y": -1.3539346878,
				"z": 2.1189828014,
				"element": "C" 
			},
			{
				"x": 1.1524580384,
				"y": -1.1166770989,
				"z": 0.7818608201,
				"element": "C" 
			},
			{
				"x": -0.0809790672,
				"y": -0.5306054459,
				"z": 0.4613067859,
				"element": "C" 
			},
			{
				"x": -0.9813406589,
				"y": -0.2094559505,
				"z": 1.4789200412,
				"element": "C" 
			},
			{
				"x": -0.662366484,
				"y": -0.450203612,
				"z": 2.8163018961,
				"element": "C" 
			},
			{
				"x": -1.5691966241,
				"y": -0.0976992209,
				"z": 3.7895422285,
				"element": "O" 
			},
			{
				"x": -2.1756433521,
				"y": -1.2007241204,
				"z": 4.4763330424,
				"element": "C" 
			},
			{
				"x": -0.4003778276,
				"y": -0.2759434743,
				"z": -0.997066658,
				"element": "C" 
			},
			{
				"x": 0.0287347413,
				"y": -1.4365730413,
				"z": -1.8197681559,
				"element": "N" 
			},
			{
				"x": 1.2625628474,
				"y": -2.1654469012,
				"z": -1.4829863899,
				"element": "C" 
			},
			{
				"x": 2.0574925051,
				"y": -1.4626637041,
				"z": -0.373275031,
				"element": "C" 
			},
			{
				"x": -0.8555554781,
				"y": -1.9053525777,
				"z": -2.7645827875,
				"element": "C" 
			},
			{
				"x": -0.4683369285,
				"y": -3.1757644372,
				"z": -3.5045131032,
				"element": "C" 
			},
			{
				"x": -1.9100894077,
				"y": -1.3227573169,
				"z": -3.0160504102,
				"element": "O" 
			},
			{
				"x": 0.1573447242,
				"y": 1.0460762017,
				"z": -1.5533846592,
				"element": "C" 
			},
			{
				"x": -0.1766003817,
				"y": 1.415894498,
				"z": -2.8688217484,
				"element": "C" 
			},
			{
				"x": 0.2914055209,
				"y": 2.604463132,
				"z": -3.4168591875,
				"element": "C" 
			},
			{
				"x": 1.0994216673,
				"y": 3.4322799864,
				"z": -2.6369741544,
				"element": "C" 
			},
			{
				"x": 1.4360257528,
				"y": 3.1032177246,
				"z": -1.3276857119,
				"element": "C" 
			},
			{
				"x": 0.9563722681,
				"y": 1.9090260241,
				"z": -0.7917421756,
				"element": "C" 
			},
			{
				"x": 1.6032191468,
				"y": 4.6885405398,
				"z": -3.2098590931,
				"element": "N" 
			},
			{
				"x": 2.3110254146,
				"y": 5.4002255249,
				"z": -2.496330164,
				"element": "O" 
			},
			{
				"x": 1.2896686471,
				"y": 4.9544775492,
				"z": -4.370274063,
				"element": "O" 
			},
			{
				"x": 0.2382187298,
				"y": 0.4699866567,
				"z": 5.3397089018,
				"element": "H" 
			},
			{
				"x": 1.9703007845,
				"y": 0.4700923415,
				"z": 4.8918405188,
				"element": "H" 
			},
			{
				"x": 1.4050348742,
				"y": -0.5237975175,
				"z": 6.2622338442,
				"element": "H" 
			},
			{
				"x": 2.4242032581,
				"y": -1.8051739541,
				"z": 2.3957631011,
				"element": "H" 
			},
			{
				"x": -1.9494269937,
				"y": 0.2289247354,
				"z": 1.254189191,
				"element": "H" 
			},
			{
				"x": -1.425934828,
				"y": -1.8150967285,
				"z": 4.98434912,
				"element": "H" 
			},
			{
				"x": -2.7468564201,
				"y": -1.8241773206,
				"z": 3.7774138013,
				"element": "H" 
			},
			{
				"x": -2.8565683731,
				"y": -0.7654003229,
				"z": 5.2102236937,
				"element": "H" 
			},
			{
				"x": -1.4851564439,
				"y": -0.2343604565,
				"z": -1.1294261915,
				"element": "H" 
			},
			{
				"x": 1.8920403669,
				"y": -2.2655939155,
				"z": -2.374531367,
				"element": "H" 
			},
			{
				"x": 1.0127092849,
				"y": -3.1787004585,
				"z": -1.1419873972,
				"element": "H" 
			},
			{
				"x": 2.8739097471,
				"y": -2.118899422,
				"z": -0.0572449534,
				"element": "H" 
			},
			{
				"x": 2.5180680578,
				"y": -0.5529746719,
				"z": -0.7791180332,
				"element": "H" 
			},
			{
				"x": 0.4714253999,
				"y": -3.0518671076,
				"z": -4.0529611,
				"element": "H" 
			},
			{
				"x": -0.3404064682,
				"y": -4.0216239319,
				"z": -2.820995551,
				"element": "H" 
			},
			{
				"x": -1.2666927406,
				"y": -3.4021231927,
				"z": -4.210171292,
				"element": "H" 
			},
			{
				"x": -0.8233619961,
				"y": 0.7683314408,
				"z": -3.4512608308,
				"element": "H" 
			},
			{
				"x": 0.0397152132,
				"y": 2.9037189936,
				"z": -4.4266806083,
				"element": "H" 
			},
			{
				"x": 2.0584896089,
				"y": 3.7765172337,
				"z": -0.7517349248,
				"element": "H" 
			},
			{
				"x": 1.2052053552,
				"y": 1.6520304868,
				"z": 0.2320527517,
				"element": "H" 
			}
		],
		 "valence_orbital": [ 
			{
				"type": "occ",
				"energy": -0.27054,
				"method": "rhf"
			},
			{
				"type": "occ",
				"energy": -0.25485,
				"method": "rhf"
			},
			{
				"type": "occ",
				"energy": -0.25406,
				"method": "rhf"
			},
			{
				"type": "occ",
				"energy": -0.24697,
				"method": "rhf"
			},
			{
				"type": "occ",
				"energy": -0.23564,
				"method": "rhf"
			},
			{
				"type": "unocc",
				"energy": -0.08284,
				"method": "rhf"
			},
			{
				"type": "unocc",
				"energy": -0.02288,
				"method": "rhf"
			},
			{
				"type": "unocc",
				"energy": -0.01595,
				"method": "rhf"
			},
			{
				"type": "unocc",
				"energy": -0.01243,
				"method": "rhf"
			},
			{
				"type": "unocc",
				"energy": 0.00334,
				"method": "rhf"
			}
		],
		"cosmo_sigma_profile": { 
			"-0.025": 0.0,
			"-0.024": 0.0,
			"-0.023": 0.0,
			"-0.022": 0.0,
			"-0.021": 0.0,
			"-0.02": 0.0,
			"-0.019": 0.0,
			"-0.018": 0.0,
			"-0.017": 0.0,
			"-0.016": 0.0,
			"-0.015": 0.0,
			"-0.014": 0.0,
			"-0.013": 0.0,
			"-0.012": 0.0,
			"-0.011": 0.0,
			"-0.01": 0.0,
			"-0.009": 0.0,
			"-0.008": 0.395817056947,
			"-0.007": 6.08976390272,
			"-0.006": 20.6576757126,
			"-0.005": 31.0161868622,
			"-0.004": 36.5751673451,
			"-0.003": 43.9322155681,
			"-0.002": 39.1900828217,
			"-0.001": 34.3507684072,
			"0.0": 29.6343168391,
			"0.001": 27.7028074021,
			"0.002": 23.8867604531,
			"0.003": 15.7845104436,
			"0.004": 11.3989870836,
			"0.005": 8.42080965725,
			"0.006": 6.43649924013,
			"0.007": 10.820089428,
			"0.008": 11.1940212958,
			"0.009": 7.66785665133,
			"0.01": 6.84576706383,
			"0.011": 3.64899999311,
			"0.012": 2.35321525455,
			"0.013": 3.07429843997,
			"0.014": 2.8751473239,
			"0.015": 0.985262940263,
			"0.016": 0.0,
			"0.017": 0.0,
			"0.018": 0.0,
			"0.019": 0.0,
			"0.02": 0.0,
			"0.021": 0.0,
			"0.022": 0.0,
			"0.023": 0.0,
			"0.024": 0.0,
			"0.025": 0.0
		}
	}
}
