{
	 "smiles": "OC(=O)CCCC1=CC=C(Br)S1", 
	 "Tm": 329.15, 
	 "num_atms": 21, 
	 "gaussian": { 
		 "optdone": 1, 
		 "sigma_profile": "yes", 
		 "theory": "DFT", 
		 "functional": "B3LYP", 
		 "basiset": "6-31G**", 
		 "properties": { 
			 "R2extent": 4957.8146, 
			 "electric_dipole_moment_norm": 2.06523014698, 
			 "electric_quadrupole_moment_norm": 9.06743181281, 
			 "total_energy": -3430.31546623, 
			 "HOMO_LUMO_gap": 0.20002, 
			 "cosmo_polarized_energy": -10.62, 
			 "cosmo_cavitation_energy": 28.8, 
			 "cosmo_dispersion_energy": -20.76, 
			 "cosmo_repulsion_energy": 1.64, 
			 "cosmo_total_nonelectrostatic_energy": 9.68, 
			 "SMD_solvation_energy": 4.05 
		},
		"coords": [
			{
				"x": 0.2100861985,
				"y": 1.0895359573,
				"z": -2.6379343006,
				"element": "O" 
			},
			{
				"x": -0.7480813576,
				"y": 0.1903391997,
				"z": -2.305072927,
				"element": "C" 
			},
			{
				"x": -1.901968767,
				"y": 0.5063886295,
				"z": -2.1154186405,
				"element": "O" 
			},
			{
				"x": -0.2067265305,
				"y": -1.2247148099,
				"z": -2.2665484529,
				"element": "C" 
			},
			{
				"x": 1.0831999763,
				"y": -1.4374963563,
				"z": -1.4546458128,
				"element": "C" 
			},
			{
				"x": 0.9180356063,
				"y": -1.3009853505,
				"z": 0.076446486,
				"element": "C" 
			},
			{
				"x": 0.6700730082,
				"y": 0.0930753434,
				"z": 0.5850406014,
				"element": "C" 
			},
			{
				"x": -0.5062796431,
				"y": 0.6541519989,
				"z": 1.007017896,
				"element": "C" 
			},
			{
				"x": -0.3915076964,
				"y": 2.0210791683,
				"z": 1.4087299778,
				"element": "C" 
			},
			{
				"x": 0.8882271628,
				"y": 2.4804656076,
				"z": 1.2877682422,
				"element": "C" 
			},
			{
				"x": 1.5189706296,
				"y": 4.2092255781,
				"z": 1.7064780907,
				"element": "Br" 
			},
			{
				"x": 1.97456489,
				"y": 1.2613428322,
				"z": 0.6843251898,
				"element": "S" 
			},
			{
				"x": -0.2212168841,
				"y": 1.9604052234,
				"z": -2.6314525832,
				"element": "H" 
			},
			{
				"x": -0.0125313938,
				"y": -1.509230502,
				"z": -3.3088624529,
				"element": "H" 
			},
			{
				"x": -1.0149135036,
				"y": -1.8641301878,
				"z": -1.9012902596,
				"element": "H" 
			},
			{
				"x": 1.8562491892,
				"y": -0.7485463453,
				"z": -1.809984375,
				"element": "H" 
			},
			{
				"x": 1.4437170254,
				"y": -2.4516102125,
				"z": -1.663209541,
				"element": "H" 
			},
			{
				"x": 0.0817526779,
				"y": -1.9300540278,
				"z": 0.4058416704,
				"element": "H" 
			},
			{
				"x": 1.815384213,
				"y": -1.7121484009,
				"z": 0.5550745392,
				"element": "H" 
			},
			{
				"x": -1.4439006734,
				"y": 0.1093830326,
				"z": 1.0177360963,
				"element": "H" 
			},
			{
				"x": -1.2131341277,
				"y": 2.6272236219,
				"z": 1.7689605557,
				"element": "H" 
			}
		],
		 "valence_orbital": [ 
			{
				"type": "occ",
				"energy": -0.30865,
				"method": "rhf"
			},
			{
				"type": "occ",
				"energy": -0.2939,
				"method": "rhf"
			},
			{
				"type": "occ",
				"energy": -0.27075,
				"method": "rhf"
			},
			{
				"type": "occ",
				"energy": -0.25741,
				"method": "rhf"
			},
			{
				"type": "occ",
				"energy": -0.22358,
				"method": "rhf"
			},
			{
				"type": "unocc",
				"energy": -0.02356,
				"method": "rhf"
			},
			{
				"type": "unocc",
				"energy": -0.00152,
				"method": "rhf"
			},
			{
				"type": "unocc",
				"energy": 0.01216,
				"method": "rhf"
			},
			{
				"type": "unocc",
				"energy": 0.02104,
				"method": "rhf"
			},
			{
				"type": "unocc",
				"energy": 0.05815,
				"method": "rhf"
			}
		],
		"cosmo_sigma_profile": { 
			"-0.025": 0.0,
			"-0.024": 0.0,
			"-0.023": 0.0,
			"-0.022": 0.0,
			"-0.021": 0.0,
			"-0.02": 0.0,
			"-0.019": 0.00158488676722,
			"-0.018": 0.521786688751,
			"-0.017": 0.676343014294,
			"-0.016": 1.01691679485,
			"-0.015": 0.777688554343,
			"-0.014": 0.406339957993,
			"-0.013": 0.47596402,
			"-0.012": 0.431268603545,
			"-0.011": 0.861492454206,
			"-0.01": 0.719883971232,
			"-0.009": 0.288807844501,
			"-0.008": 1.34517569244,
			"-0.007": 4.33004192975,
			"-0.006": 7.67055020174,
			"-0.005": 17.2306812399,
			"-0.004": 21.2654215866,
			"-0.003": 20.4282136862,
			"-0.002": 16.8521642333,
			"-0.001": 16.1050298689,
			"0.0": 13.8703311339,
			"0.001": 14.0131859909,
			"0.002": 21.5930005416,
			"0.003": 22.9657099036,
			"0.004": 19.7673306151,
			"0.005": 5.59436767394,
			"0.006": 4.41228801848,
			"0.007": 3.12473401504,
			"0.008": 2.87666507097,
			"0.009": 2.6453826491,
			"0.01": 1.54881759391,
			"0.011": 2.51153538843,
			"0.012": 4.97217989459,
			"0.013": 1.68513300745,
			"0.014": 0.121962342888,
			"0.015": 0.0,
			"0.016": 0.0,
			"0.017": 0.0,
			"0.018": 0.0,
			"0.019": 0.0,
			"0.02": 0.0,
			"0.021": 0.0,
			"0.022": 0.0,
			"0.023": 0.0,
			"0.024": 0.0,
			"0.025": 0.0
		}
	}
}
