{
	 "smiles": "COC1=C(C=CC=C1)C1=NC2=C(C(C)=NO2)C(=C1)C(O)=O", 
	 "Tm": 503.15, 
	 "num_atms": 33, 
	 "gaussian": { 
		 "optdone": 1, 
		 "sigma_profile": "yes", 
		 "theory": "DFT", 
		 "functional": "B3LYP", 
		 "basiset": "6-31G**", 
		 "properties": { 
			 "R2extent": 6878.2264, 
			 "electric_dipole_moment_norm": 6.55960986416, 
			 "electric_quadrupole_moment_norm": 8.42038938589, 
			 "total_energy": -989.19586824, 
			 "HOMO_LUMO_gap": 0.13934, 
			 "cosmo_polarized_energy": -15.55, 
			 "cosmo_cavitation_energy": 37.73, 
			 "cosmo_dispersion_energy": -27.36, 
			 "cosmo_repulsion_energy": 2.05, 
			 "cosmo_total_nonelectrostatic_energy": 12.42, 
			 "SMD_solvation_energy": 6.96 
		},
		"coords": [
			{
				"x": 2.7640978227,
				"y": -1.7512006923,
				"z": -2.5407693716,
				"element": "C" 
			},
			{
				"x": 1.7466523201,
				"y": -1.1112501887,
				"z": -1.7838319002,
				"element": "O" 
			},
			{
				"x": 0.6274088789,
				"y": -0.6593842216,
				"z": -2.4237356337,
				"element": "C" 
			},
			{
				"x": -0.4003989083,
				"y": -0.101358303,
				"z": -1.620930787,
				"element": "C" 
			},
			{
				"x": -1.5738943008,
				"y": 0.3256180331,
				"z": -2.2636872746,
				"element": "C" 
			},
			{
				"x": -1.7361222333,
				"y": 0.2361260972,
				"z": -3.6427176778,
				"element": "C" 
			},
			{
				"x": -0.7098555442,
				"y": -0.3028394664,
				"z": -4.4159404176,
				"element": "C" 
			},
			{
				"x": 0.4637691663,
				"y": -0.7525422979,
				"z": -3.8113977493,
				"element": "C" 
			},
			{
				"x": -0.3245645043,
				"y": 0.0422199054,
				"z": -0.142719917,
				"element": "C" 
			},
			{
				"x": -1.5075287606,
				"y": 0.0681017278,
				"z": 0.4981062284,
				"element": "N" 
			},
			{
				"x": -1.4478147162,
				"y": 0.2383119869,
				"z": 1.804968948,
				"element": "C" 
			},
			{
				"x": -0.3126673138,
				"y": 0.397582678,
				"z": 2.6182104794,
				"element": "C" 
			},
			{
				"x": -0.8691635099,
				"y": 0.5310677482,
				"z": 3.9447858745,
				"element": "C" 
			},
			{
				"x": -0.2238250883,
				"y": 0.7262563528,
				"z": 5.2808832729,
				"element": "C" 
			},
			{
				"x": -2.178928621,
				"y": 0.4585069314,
				"z": 3.8982973179,
				"element": "N" 
			},
			{
				"x": -2.56753499,
				"y": 0.2742920189,
				"z": 2.5590681602,
				"element": "O" 
			},
			{
				"x": 0.9249114421,
				"y": 0.3840518513,
				"z": 1.9387115596,
				"element": "C" 
			},
			{
				"x": 0.8989406777,
				"y": 0.2045287074,
				"z": 0.5568584817,
				"element": "C" 
			},
			{
				"x": 2.2220596065,
				"y": 0.5630905722,
				"z": 2.6513468387,
				"element": "C" 
			},
			{
				"x": 3.2907048965,
				"y": 0.5224623759,
				"z": 1.8212195925,
				"element": "O" 
			},
			{
				"x": 2.3457985503,
				"y": 0.7309219127,
				"z": 3.8478414326,
				"element": "O" 
			},
			{
				"x": 2.3823311526,
				"y": -2.6414190814,
				"z": -3.0551573397,
				"element": "H" 
			},
			{
				"x": 3.2103111319,
				"y": -1.0713333149,
				"z": -3.2771144457,
				"element": "H" 
			},
			{
				"x": 3.5263882383,
				"y": -2.0501227774,
				"z": -1.819984942,
				"element": "H" 
			},
			{
				"x": -2.3636879537,
				"y": 0.7324482361,
				"z": -1.6427099068,
				"element": "H" 
			},
			{
				"x": -2.6531958209,
				"y": 0.5849067601,
				"z": -4.106477813,
				"element": "H" 
			},
			{
				"x": -0.8149440608,
				"y": -0.3804697135,
				"z": -5.494302827,
				"element": "H" 
			},
			{
				"x": 1.2466246902,
				"y": -1.1798772767,
				"z": -4.4254300704,
				"element": "H" 
			},
			{
				"x": -1.0020662873,
				"y": 0.7739249053,
				"z": 6.0454611275,
				"element": "H" 
			},
			{
				"x": 0.3666229906,
				"y": 1.6447936505,
				"z": 5.2995737367,
				"element": "H" 
			},
			{
				"x": 0.4627826805,
				"y": -0.0926431441,
				"z": 5.5067000841,
				"element": "H" 
			},
			{
				"x": 1.8268476,
				"y": 0.1915192195,
				"z": 0.0082704889,
				"element": "H" 
			},
			{
				"x": 4.0688407679,
				"y": 0.6529088073,
				"z": 2.3879044499,
				"element": "H" 
			}
		],
		 "valence_orbital": [ 
			{
				"type": "occ",
				"energy": -0.28146,
				"method": "rhf"
			},
			{
				"type": "occ",
				"energy": -0.27616,
				"method": "rhf"
			},
			{
				"type": "occ",
				"energy": -0.26408,
				"method": "rhf"
			},
			{
				"type": "occ",
				"energy": -0.24414,
				"method": "rhf"
			},
			{
				"type": "occ",
				"energy": -0.22442,
				"method": "rhf"
			},
			{
				"type": "unocc",
				"energy": -0.08508,
				"method": "rhf"
			},
			{
				"type": "unocc",
				"energy": -0.0363,
				"method": "rhf"
			},
			{
				"type": "unocc",
				"energy": 0.00122,
				"method": "rhf"
			},
			{
				"type": "unocc",
				"energy": 0.01061,
				"method": "rhf"
			},
			{
				"type": "unocc",
				"energy": 0.03119,
				"method": "rhf"
			}
		],
		"cosmo_sigma_profile": { 
			"-0.025": 0.0,
			"-0.024": 0.0,
			"-0.023": 0.0,
			"-0.022": 0.0,
			"-0.021": 0.0,
			"-0.02": 0.0,
			"-0.019": 0.377986589728,
			"-0.018": 0.728835841374,
			"-0.017": 1.31694454949,
			"-0.016": 0.762731982996,
			"-0.015": 0.538234238425,
			"-0.014": 0.566680116872,
			"-0.013": 0.723605855524,
			"-0.012": 1.01759665468,
			"-0.011": 1.02689169088,
			"-0.01": 0.265862010873,
			"-0.009": 0.319002906493,
			"-0.008": 0.794722121988,
			"-0.007": 4.02323446234,
			"-0.006": 12.807602053,
			"-0.005": 19.3684324902,
			"-0.004": 25.4315360943,
			"-0.003": 28.4749452069,
			"-0.002": 28.6038290242,
			"-0.001": 28.3354788318,
			"0.0": 21.432128741,
			"0.001": 18.5813031734,
			"0.002": 17.0988690328,
			"0.003": 16.2608654244,
			"0.004": 17.1689665956,
			"0.005": 14.8244332775,
			"0.006": 9.50878735798,
			"0.007": 9.94014836056,
			"0.008": 7.34431729732,
			"0.009": 4.0219623372,
			"0.01": 4.23226432128,
			"0.011": 3.87988643278,
			"0.012": 1.71488613975,
			"0.013": 0.995920446324,
			"0.014": 0.323590776063,
			"0.015": 0.0,
			"0.016": 0.0,
			"0.017": 0.0,
			"0.018": 0.0,
			"0.019": 0.0,
			"0.02": 0.0,
			"0.021": 0.0,
			"0.022": 0.0,
			"0.023": 0.0,
			"0.024": 0.0,
			"0.025": 0.0
		}
	}
}
