{
	 "smiles": "O=C1CCCCC1N1CCS(=O)(=O)CC1", 
	 "Tm": 379.15, 
	 "num_atms": 32, 
	 "gaussian": { 
		 "optdone": 1, 
		 "sigma_profile": "yes", 
		 "theory": "DFT", 
		 "functional": "B3LYP", 
		 "basiset": "6-31G**", 
		 "properties": { 
			 "R2extent": 4663.5272, 
			 "electric_dipole_moment_norm": 8.21402152481, 
			 "electric_quadrupole_moment_norm": 25.2930188615, 
			 "total_energy": -1069.84999155, 
			 "HOMO_LUMO_gap": 0.18281, 
			 "cosmo_polarized_energy": -19.65, 
			 "cosmo_cavitation_energy": 32.13, 
			 "cosmo_dispersion_energy": -24.37, 
			 "cosmo_repulsion_energy": 1.84, 
			 "cosmo_total_nonelectrostatic_energy": 9.6, 
			 "SMD_solvation_energy": 3.01 
		},
		"coords": [
			{
				"x": 0.9564241337,
				"y": 0.3790172007,
				"z": 1.8794950393,
				"element": "O" 
			},
			{
				"x": 0.128274495,
				"y": -0.3771281424,
				"z": 1.4044721863,
				"element": "C" 
			},
			{
				"x": -0.73203783,
				"y": -1.273244141,
				"z": 2.2906029561,
				"element": "C" 
			},
			{
				"x": -2.0202168136,
				"y": -1.7308245353,
				"z": 1.5952886844,
				"element": "C" 
			},
			{
				"x": -1.7310562582,
				"y": -2.4825925373,
				"z": 0.2742501371,
				"element": "C" 
			},
			{
				"x": -0.438988844,
				"y": -1.9958401352,
				"z": -0.4272777696,
				"element": "C" 
			},
			{
				"x": -0.1222642441,
				"y": -0.5115970536,
				"z": -0.1157796905,
				"element": "C" 
			},
			{
				"x": 0.8612734596,
				"y": 0.0647824303,
				"z": -1.0136438201,
				"element": "N" 
			},
			{
				"x": 2.2046490042,
				"y": -0.4934985913,
				"z": -1.1046597421,
				"element": "C" 
			},
			{
				"x": 3.2785097618,
				"y": 0.1999049732,
				"z": -0.234422553,
				"element": "C" 
			},
			{
				"x": 3.3814676844,
				"y": 1.9605838827,
				"z": -0.6549825168,
				"element": "S" 
			},
			{
				"x": 3.7379198912,
				"y": 2.057082506,
				"z": -2.0853879199,
				"element": "O" 
			},
			{
				"x": 4.1793832367,
				"y": 2.6666387937,
				"z": 0.3590029231,
				"element": "O" 
			},
			{
				"x": 1.6352467624,
				"y": 2.4218036718,
				"z": -0.4940771671,
				"element": "C" 
			},
			{
				"x": 0.7713386238,
				"y": 1.476491416,
				"z": -1.3568411794,
				"element": "C" 
			},
			{
				"x": -0.9231058358,
				"y": -0.7421584731,
				"z": 3.2281530015,
				"element": "H" 
			},
			{
				"x": -0.1115228003,
				"y": -2.143309384,
				"z": 2.5532537517,
				"element": "H" 
			},
			{
				"x": -2.6077566498,
				"y": -2.3616309734,
				"z": 2.2699226086,
				"element": "H" 
			},
			{
				"x": -2.6413570443,
				"y": -0.8495004418,
				"z": 1.3931980665,
				"element": "H" 
			},
			{
				"x": -1.6448674197,
				"y": -3.5571962692,
				"z": 0.4683130933,
				"element": "H" 
			},
			{
				"x": -2.5868288598,
				"y": -2.3623419599,
				"z": -0.3990173968,
				"element": "H" 
			},
			{
				"x": -0.5178068483,
				"y": -2.1089496139,
				"z": -1.5118739753,
				"element": "H" 
			},
			{
				"x": 0.4052736276,
				"y": -2.6195666735,
				"z": -0.1098177021,
				"element": "H" 
			},
			{
				"x": -1.0554384274,
				"y": 0.0466776124,
				"z": -0.2924975745,
				"element": "H" 
			},
			{
				"x": 2.5361035161,
				"y": -0.4346828887,
				"z": -2.1495444485,
				"element": "H" 
			},
			{
				"x": 2.1769385234,
				"y": -1.5538834511,
				"z": -0.8399862171,
				"element": "H" 
			},
			{
				"x": 3.0526465163,
				"y": 0.1458149815,
				"z": 0.8307670534,
				"element": "H" 
			},
			{
				"x": 4.2753940993,
				"y": -0.2045652473,
				"z": -0.4345565906,
				"element": "H" 
			},
			{
				"x": 1.3879409845,
				"y": 2.3545539446,
				"z": 0.566444641,
				"element": "H" 
			},
			{
				"x": 1.5728625786,
				"y": 3.4579449132,
				"z": -0.8401211936,
				"element": "H" 
			},
			{
				"x": 1.0795260232,
				"y": 1.6050713343,
				"z": -2.402828889,
				"element": "H" 
			},
			{
				"x": -0.2744250465,
				"y": 1.7935428514,
				"z": -1.2858477963,
				"element": "H" 
			}
		],
		 "valence_orbital": [ 
			{
				"type": "occ",
				"energy": -0.29562,
				"method": "rhf"
			},
			{
				"type": "occ",
				"energy": -0.28023,
				"method": "rhf"
			},
			{
				"type": "occ",
				"energy": -0.26642,
				"method": "rhf"
			},
			{
				"type": "occ",
				"energy": -0.26602,
				"method": "rhf"
			},
			{
				"type": "occ",
				"energy": -0.21832,
				"method": "rhf"
			},
			{
				"type": "unocc",
				"energy": -0.03551,
				"method": "rhf"
			},
			{
				"type": "unocc",
				"energy": 0.0537,
				"method": "rhf"
			},
			{
				"type": "unocc",
				"energy": 0.07028,
				"method": "rhf"
			},
			{
				"type": "unocc",
				"energy": 0.07702,
				"method": "rhf"
			},
			{
				"type": "unocc",
				"energy": 0.08383,
				"method": "rhf"
			}
		],
		"cosmo_sigma_profile": { 
			"-0.025": 0.0,
			"-0.024": 0.0,
			"-0.023": 0.0,
			"-0.022": 0.0,
			"-0.021": 0.0,
			"-0.02": 0.0,
			"-0.019": 0.0,
			"-0.018": 0.0,
			"-0.017": 0.0,
			"-0.016": 0.0,
			"-0.015": 0.0,
			"-0.014": 0.0,
			"-0.013": 0.0,
			"-0.012": 0.0,
			"-0.011": 0.0,
			"-0.01": 0.0,
			"-0.009": 0.04771476337,
			"-0.008": 4.76068762012,
			"-0.007": 11.7873114624,
			"-0.006": 14.7755629696,
			"-0.005": 17.899463478,
			"-0.004": 24.554253024,
			"-0.003": 31.4933419969,
			"-0.002": 30.2822324198,
			"-0.001": 21.9904465458,
			"0.0": 16.870859429,
			"0.001": 8.63477753425,
			"0.002": 4.41838393287,
			"0.003": 4.90754209934,
			"0.004": 5.3448090552,
			"0.005": 4.42188268066,
			"0.006": 2.92527010106,
			"0.007": 3.54362967074,
			"0.008": 4.59483215331,
			"0.009": 3.27276144016,
			"0.01": 4.93760289307,
			"0.011": 8.3823314478,
			"0.012": 12.6217171419,
			"0.013": 7.21128463063,
			"0.014": 0.192172380175,
			"0.015": 0.0,
			"0.016": 0.0,
			"0.017": 0.0,
			"0.018": 0.0,
			"0.019": 0.0,
			"0.02": 0.0,
			"0.021": 0.0,
			"0.022": 0.0,
			"0.023": 0.0,
			"0.024": 0.0,
			"0.025": 0.0
		}
	}
}
