{
	 "smiles": "CC1=NC(=CN1)[N+]([O-])=O", 
	 "Tm": 525.15, 
	 "num_atms": 14, 
	 "gaussian": { 
		 "optdone": 1, 
		 "sigma_profile": "yes", 
		 "theory": "DFT", 
		 "functional": "B3LYP", 
		 "basiset": "6-31G**", 
		 "properties": { 
			 "R2extent": 1491.6819, 
			 "electric_dipole_moment_norm": 7.71880555721, 
			 "electric_quadrupole_moment_norm": 9.96051911047, 
			 "total_energy": -470.037787372, 
			 "HOMO_LUMO_gap": 0.18642, 
			 "cosmo_polarized_energy": -20.7, 
			 "cosmo_cavitation_energy": 19.39, 
			 "cosmo_dispersion_energy": -14.44, 
			 "cosmo_repulsion_energy": 1.21, 
			 "cosmo_total_nonelectrostatic_energy": 6.16, 
			 "SMD_solvation_energy": 4.63 
		},
		"coords": [
			{
				"x": -0.2657082806,
				"y": 1.8460887928,
				"z": -2.5933807559,
				"element": "C" 
			},
			{
				"x": -0.2986938789,
				"y": 1.4817189268,
				"z": -1.1459748841,
				"element": "C" 
			},
			{
				"x": 0.723137243,
				"y": 1.0703260671,
				"z": -0.4280465116,
				"element": "N" 
			},
			{
				"x": 0.2144483261,
				"y": 0.8625437754,
				"z": 0.8208834787,
				"element": "C" 
			},
			{
				"x": -1.1288128916,
				"y": 1.1422255694,
				"z": 0.8941433593,
				"element": "C" 
			},
			{
				"x": -1.4462130199,
				"y": 1.5394453977,
				"z": -0.3779431229,
				"element": "N" 
			},
			{
				"x": 1.0176228534,
				"y": 0.4001381209,
				"z": 1.9259212213,
				"element": "N" 
			},
			{
				"x": 0.4255732575,
				"y": 0.2550343359,
				"z": 3.0028924068,
				"element": "O" 
			},
			{
				"x": 2.2086957955,
				"y": 0.1853849014,
				"z": 1.7316060479,
				"element": "O" 
			},
			{
				"x": 0.7530179851,
				"y": 1.7136864822,
				"z": -2.9591382176,
				"element": "H" 
			},
			{
				"x": -0.5606075949,
				"y": 2.8889675752,
				"z": -2.7556977596,
				"element": "H" 
			},
			{
				"x": -0.9333885702,
				"y": 1.2110853113,
				"z": -3.1865750066,
				"element": "H" 
			},
			{
				"x": -1.8338350669,
				"y": 1.0901822566,
				"z": 1.7067239596,
				"element": "H" 
			},
			{
				"x": -2.3623361575,
				"y": 1.8240724874,
				"z": -0.6936142152,
				"element": "H" 
			}
		],
		 "valence_orbital": [ 
			{
				"type": "occ",
				"energy": -0.30147,
				"method": "rhf"
			},
			{
				"type": "occ",
				"energy": -0.29395,
				"method": "rhf"
			},
			{
				"type": "occ",
				"energy": -0.29356,
				"method": "rhf"
			},
			{
				"type": "occ",
				"energy": -0.27692,
				"method": "rhf"
			},
			{
				"type": "occ",
				"energy": -0.25551,
				"method": "rhf"
			},
			{
				"type": "unocc",
				"energy": -0.06909,
				"method": "rhf"
			},
			{
				"type": "unocc",
				"energy": 0.00157,
				"method": "rhf"
			},
			{
				"type": "unocc",
				"energy": 0.04751,
				"method": "rhf"
			},
			{
				"type": "unocc",
				"energy": 0.07337,
				"method": "rhf"
			},
			{
				"type": "unocc",
				"energy": 0.10303,
				"method": "rhf"
			}
		],
		"cosmo_sigma_profile": { 
			"-0.025": 0.0,
			"-0.024": 0.0,
			"-0.023": 0.0,
			"-0.022": 0.0,
			"-0.021": 0.0,
			"-0.02": 0.0,
			"-0.019": 0.0,
			"-0.018": 1.30809259469,
			"-0.017": 1.54285542266,
			"-0.016": 1.68882071645,
			"-0.015": 0.975319486921,
			"-0.014": 1.30388311336,
			"-0.013": 1.63969587801,
			"-0.012": 1.39870349943,
			"-0.011": 2.04461206045,
			"-0.01": 3.4602730802,
			"-0.009": 2.57188066214,
			"-0.008": 1.93269593424,
			"-0.007": 3.80128907656,
			"-0.006": 7.43057692289,
			"-0.005": 8.88686804795,
			"-0.004": 8.16018385623,
			"-0.003": 10.2161784587,
			"-0.002": 12.5101230874,
			"-0.001": 12.5980404791,
			"0.0": 9.84433402954,
			"0.001": 3.6097730813,
			"0.002": 3.73412065126,
			"0.003": 3.87281571687,
			"0.004": 3.12177047695,
			"0.005": 3.9545588391,
			"0.006": 3.08330424552,
			"0.007": 4.80015457634,
			"0.008": 11.449617964,
			"0.009": 8.54600517585,
			"0.01": 5.53254577974,
			"0.011": 3.17533019217,
			"0.012": 1.58781469894,
			"0.013": 1.15827669608,
			"0.014": 1.41058354193,
			"0.015": 1.43839584561,
			"0.016": 0.957014780818,
			"0.017": 0.147324025501,
			"0.018": 0.0,
			"0.019": 0.0,
			"0.02": 0.0,
			"0.021": 0.0,
			"0.022": 0.0,
			"0.023": 0.0,
			"0.024": 0.0,
			"0.025": 0.0
		}
	}
}
