{
	 "smiles": "ClCC1=CSC(CC2=CC=C(Cl)C=C2)=N1", 
	 "Tm": 342.15, 
	 "num_atms": 24, 
	 "gaussian": { 
		 "optdone": 1, 
		 "sigma_profile": "yes", 
		 "theory": "DFT", 
		 "functional": "B3LYP", 
		 "basiset": "6-31G**", 
		 "properties": { 
			 "R2extent": 7433.2725, 
			 "electric_dipole_moment_norm": 1.99532722379, 
			 "electric_quadrupole_moment_norm": 21.9947242429, 
			 "total_energy": -1797.92085068, 
			 "HOMO_LUMO_gap": 0.20109, 
			 "cosmo_polarized_energy": -10.67, 
			 "cosmo_cavitation_energy": 34.18, 
			 "cosmo_dispersion_energy": -24.8, 
			 "cosmo_repulsion_energy": 1.94, 
			 "cosmo_total_nonelectrostatic_energy": 11.32, 
			 "SMD_solvation_energy": 3.37 
		},
		"coords": [
			{
				"x": -4.8043390966,
				"y": -0.0766044623,
				"z": -4.0408052891,
				"element": "Cl" 
			},
			{
				"x": -3.1923933767,
				"y": 0.775772079,
				"z": -3.842793245,
				"element": "C" 
			},
			{
				"x": -2.2666522087,
				"y": 0.0400102739,
				"z": -2.9356721153,
				"element": "C" 
			},
			{
				"x": -1.2501324363,
				"y": -0.7817413834,
				"z": -3.3411228968,
				"element": "C" 
			},
			{
				"x": -0.4295935828,
				"y": -1.437563209,
				"z": -1.9677772899,
				"element": "S" 
			},
			{
				"x": -1.5344054097,
				"y": -0.5429401294,
				"z": -0.9230436331,
				"element": "C" 
			},
			{
				"x": -1.4088849757,
				"y": -0.5680557997,
				"z": 0.5777950859,
				"element": "C" 
			},
			{
				"x": -0.4329296423,
				"y": 0.467515114,
				"z": 1.1195841343,
				"element": "C" 
			},
			{
				"x": -0.6376092517,
				"y": 1.8319798521,
				"z": 0.8730882888,
				"element": "C" 
			},
			{
				"x": 0.2400765352,
				"y": 2.7906556711,
				"z": 1.3743717171,
				"element": "C" 
			},
			{
				"x": 1.3381459256,
				"y": 2.3786579322,
				"z": 2.1310602696,
				"element": "C" 
			},
			{
				"x": 2.4505330738,
				"y": 3.5826746152,
				"z": 2.7674312579,
				"element": "Cl" 
			},
			{
				"x": 1.5658379375,
				"y": 1.0292694041,
				"z": 2.3895242812,
				"element": "C" 
			},
			{
				"x": 0.6758644174,
				"y": 0.0820473191,
				"z": 1.8791465841,
				"element": "C" 
			},
			{
				"x": -2.4128745062,
				"y": 0.1660729069,
				"z": -1.5683749642,
				"element": "N" 
			},
			{
				"x": -3.4318264028,
				"y": 1.7588921769,
				"z": -3.4387790721,
				"element": "H" 
			},
			{
				"x": -2.7812712954,
				"y": 0.8735515108,
				"z": -4.8467576273,
				"element": "H" 
			},
			{
				"x": -0.9611995851,
				"y": -1.0419084508,
				"z": -4.3496905048,
				"element": "H" 
			},
			{
				"x": -1.1083887476,
				"y": -1.5660645773,
				"z": 0.9114046131,
				"element": "H" 
			},
			{
				"x": -2.4119117363,
				"y": -0.3804567909,
				"z": 0.975813182,
				"element": "H" 
			},
			{
				"x": -1.4904090221,
				"y": 2.1436828476,
				"z": 0.2767424263,
				"element": "H" 
			},
			{
				"x": 0.0773051467,
				"y": 3.8456444031,
				"z": 1.1832367968,
				"element": "H" 
			},
			{
				"x": 2.423604748,
				"y": 0.7239402743,
				"z": 2.9784723575,
				"element": "H" 
			},
			{
				"x": 0.8518534918,
				"y": -0.9712315777,
				"z": 2.0820456429,
				"element": "H" 
			}
		],
		 "valence_orbital": [ 
			{
				"type": "occ",
				"energy": -0.29117,
				"method": "rhf"
			},
			{
				"type": "occ",
				"energy": -0.28651,
				"method": "rhf"
			},
			{
				"type": "occ",
				"energy": -0.26785,
				"method": "rhf"
			},
			{
				"type": "occ",
				"energy": -0.25545,
				"method": "rhf"
			},
			{
				"type": "occ",
				"energy": -0.24379,
				"method": "rhf"
			},
			{
				"type": "unocc",
				"energy": -0.0427,
				"method": "rhf"
			},
			{
				"type": "unocc",
				"energy": -0.02194,
				"method": "rhf"
			},
			{
				"type": "unocc",
				"energy": -0.01794,
				"method": "rhf"
			},
			{
				"type": "unocc",
				"energy": 8e-05,
				"method": "rhf"
			},
			{
				"type": "unocc",
				"energy": 0.00725,
				"method": "rhf"
			}
		],
		"cosmo_sigma_profile": { 
			"-0.025": 0.0,
			"-0.024": 0.0,
			"-0.023": 0.0,
			"-0.022": 0.0,
			"-0.021": 0.0,
			"-0.02": 0.0,
			"-0.019": 0.0,
			"-0.018": 0.0,
			"-0.017": 0.0,
			"-0.016": 0.0,
			"-0.015": 0.0,
			"-0.014": 0.0,
			"-0.013": 0.0,
			"-0.012": 0.0,
			"-0.011": 0.0,
			"-0.01": 0.853381889481,
			"-0.009": 3.00184601434,
			"-0.008": 6.42706862889,
			"-0.007": 13.6353906412,
			"-0.006": 15.2481865999,
			"-0.005": 17.0624179823,
			"-0.004": 15.0414197485,
			"-0.003": 15.3394044432,
			"-0.002": 13.5024549779,
			"-0.001": 16.3131563487,
			"0.0": 18.9154469305,
			"0.001": 28.2195604728,
			"0.002": 28.8569083877,
			"0.003": 25.8496410445,
			"0.004": 23.8302182085,
			"0.005": 14.1378962404,
			"0.006": 11.1546351295,
			"0.007": 8.61787374075,
			"0.008": 0.92636834563,
			"0.009": 0.691074625467,
			"0.01": 0.578381304971,
			"0.011": 0.797091150139,
			"0.012": 0.633173580068,
			"0.013": 0.726515912577,
			"0.014": 0.223859079001,
			"0.015": 0.0475814410878,
			"0.016": 0.0,
			"0.017": 0.0,
			"0.018": 0.0,
			"0.019": 0.0,
			"0.02": 0.0,
			"0.021": 0.0,
			"0.022": 0.0,
			"0.023": 0.0,
			"0.024": 0.0,
			"0.025": 0.0
		}
	}
}
