{
	 "smiles": "CC1=C(N)C=NC(Cl)=C1", 
	 "Tm": 344.15, 
	 "num_atms": 16, 
	 "gaussian": { 
		 "optdone": 1, 
		 "sigma_profile": "yes", 
		 "theory": "DFT", 
		 "functional": "B3LYP", 
		 "basiset": "6-31G**", 
		 "properties": { 
			 "R2extent": 3062.6838, 
			 "electric_dipole_moment_norm": 5.31451912876, 
			 "electric_quadrupole_moment_norm": 19.5367322201, 
			 "total_energy": -802.559227675, 
			 "HOMO_LUMO_gap": 0.19147, 
			 "cosmo_polarized_energy": -12.34, 
			 "cosmo_cavitation_energy": 21.5, 
			 "cosmo_dispersion_energy": -16.29, 
			 "cosmo_repulsion_energy": 1.34, 
			 "cosmo_total_nonelectrostatic_energy": 6.55, 
			 "SMD_solvation_energy": 2.05 
		},
		"coords": [
			{
				"x": -0.5551190873,
				"y": -0.8471879745,
				"z": -0.2690759752,
				"element": "C" 
			},
			{
				"x": -0.43162983,
				"y": 0.4246936516,
				"z": -1.0655464928,
				"element": "C" 
			},
			{
				"x": -1.0042556383,
				"y": 1.6284846538,
				"z": -0.5931875631,
				"element": "C" 
			},
			{
				"x": -1.6538536997,
				"y": 1.6824571739,
				"z": 0.6395570807,
				"element": "N" 
			},
			{
				"x": -0.840633028,
				"y": 2.7810333476,
				"z": -1.3747522389,
				"element": "C" 
			},
			{
				"x": -0.1759989957,
				"y": 2.8109301507,
				"z": -2.5339191027,
				"element": "N" 
			},
			{
				"x": 0.3472122941,
				"y": 1.6795212208,
				"z": -2.9610564814,
				"element": "C" 
			},
			{
				"x": 1.2174117194,
				"y": 1.7234067044,
				"z": -4.49933437,
				"element": "Cl" 
			},
			{
				"x": 0.2529862021,
				"y": 0.465324607,
				"z": -2.2780532531,
				"element": "C" 
			},
			{
				"x": -0.0003444076,
				"y": -1.6633971286,
				"z": -0.7369935622,
				"element": "H" 
			},
			{
				"x": -1.6017780068,
				"y": -1.1697568382,
				"z": -0.180905426,
				"element": "H" 
			},
			{
				"x": -0.1727128203,
				"y": -0.7106593114,
				"z": 0.749510511,
				"element": "H" 
			},
			{
				"x": -2.1411803787,
				"y": 0.8415327241,
				"z": 0.9166076603,
				"element": "H" 
			},
			{
				"x": -2.2203532081,
				"y": 2.5074994235,
				"z": 0.7840696384,
				"element": "H" 
			},
			{
				"x": -1.2666881052,
				"y": 3.7267312736,
				"z": -1.040298175,
				"element": "H" 
			},
			{
				"x": 0.70993699,
				"y": -0.4304136782,
				"z": -2.6840222499,
				"element": "H" 
			}
		],
		 "valence_orbital": [ 
			{
				"type": "occ",
				"energy": -0.30513,
				"method": "rhf"
			},
			{
				"type": "occ",
				"energy": -0.30176,
				"method": "rhf"
			},
			{
				"type": "occ",
				"energy": -0.27587,
				"method": "rhf"
			},
			{
				"type": "occ",
				"energy": -0.26575,
				"method": "rhf"
			},
			{
				"type": "occ",
				"energy": -0.21576,
				"method": "rhf"
			},
			{
				"type": "unocc",
				"energy": -0.02429,
				"method": "rhf"
			},
			{
				"type": "unocc",
				"energy": -0.00189,
				"method": "rhf"
			},
			{
				"type": "unocc",
				"energy": 0.04506,
				"method": "rhf"
			},
			{
				"type": "unocc",
				"energy": 0.06111,
				"method": "rhf"
			},
			{
				"type": "unocc",
				"energy": 0.0998,
				"method": "rhf"
			}
		],
		"cosmo_sigma_profile": { 
			"-0.025": 0.0,
			"-0.024": 0.0,
			"-0.023": 0.0,
			"-0.022": 0.0,
			"-0.021": 0.0,
			"-0.02": 0.0,
			"-0.019": 0.0,
			"-0.018": 0.0,
			"-0.017": 0.0,
			"-0.016": 0.0,
			"-0.015": 0.0,
			"-0.014": 0.0527975705144,
			"-0.013": 1.35674979473,
			"-0.012": 2.73599788047,
			"-0.011": 3.28675904371,
			"-0.01": 2.8983123415,
			"-0.009": 3.81708158074,
			"-0.008": 2.82750309372,
			"-0.007": 5.68097510815,
			"-0.006": 6.95877016701,
			"-0.005": 8.08741279418,
			"-0.004": 8.99947052338,
			"-0.003": 8.86800931799,
			"-0.002": 8.89357903177,
			"-0.001": 13.1137682757,
			"0.0": 9.90897461786,
			"0.001": 11.6382478526,
			"0.002": 18.6579635018,
			"0.003": 11.3593971217,
			"0.004": 9.09795656022,
			"0.005": 11.8217567071,
			"0.006": 6.47333498794,
			"0.007": 2.96147494155,
			"0.008": 2.77939968095,
			"0.009": 2.41684934017,
			"0.01": 1.63544004757,
			"0.011": 1.91716130749,
			"0.012": 1.74061234047,
			"0.013": 1.2504972511,
			"0.014": 0.891611805008,
			"0.015": 0.91185478901,
			"0.016": 0.131252554886,
			"0.017": 0.0,
			"0.018": 0.0,
			"0.019": 0.0,
			"0.02": 0.0,
			"0.021": 0.0,
			"0.022": 0.0,
			"0.023": 0.0,
			"0.024": 0.0,
			"0.025": 0.0
		}
	}
}
