{
	 "smiles": "CC1=NN(CC2=CC=C(Cl)C=C2)C(C)=C1C(O)=O", 
	 "Tm": 462.15, 
	 "num_atms": 31, 
	 "gaussian": { 
		 "optdone": 1, 
		 "sigma_profile": "yes", 
		 "theory": "DFT", 
		 "functional": "B3LYP", 
		 "basiset": "6-31G**", 
		 "properties": { 
			 "R2extent": 6845.454, 
			 "electric_dipole_moment_norm": 3.34251425277, 
			 "electric_quadrupole_moment_norm": 14.5887486537, 
			 "total_energy": -1223.38348715, 
			 "HOMO_LUMO_gap": 0.21901, 
			 "cosmo_polarized_energy": -13.55, 
			 "cosmo_cavitation_energy": 37.1, 
			 "cosmo_dispersion_energy": -26.11, 
			 "cosmo_repulsion_energy": 2.03, 
			 "cosmo_total_nonelectrostatic_energy": 13.02, 
			 "SMD_solvation_energy": 6.25 
		},
		"coords": [
			{
				"x": 2.845327009,
				"y": -0.5482071323,
				"z": 3.5320963574,
				"element": "C" 
			},
			{
				"x": 1.9422650406,
				"y": 0.1122646157,
				"z": 2.5393945914,
				"element": "C" 
			},
			{
				"x": 2.253185304,
				"y": 0.1260001759,
				"z": 1.2501868405,
				"element": "N" 
			},
			{
				"x": 1.2372840863,
				"y": 0.807447135,
				"z": 0.6399568344,
				"element": "N" 
			},
			{
				"x": 1.2589522653,
				"y": 0.9338845505,
				"z": -0.8123351626,
				"element": "C" 
			},
			{
				"x": 0.4703712417,
				"y": -0.1463762485,
				"z": -1.5331078102,
				"element": "C" 
			},
			{
				"x": 0.6660618141,
				"y": -1.498364994,
				"z": -1.2200632615,
				"element": "C" 
			},
			{
				"x": -0.0335624406,
				"y": -2.4946363367,
				"z": -1.8970889741,
				"element": "C" 
			},
			{
				"x": -0.9344378945,
				"y": -2.1337466284,
				"z": -2.9007599055,
				"element": "C" 
			},
			{
				"x": -1.8192115963,
				"y": -3.3866351277,
				"z": -3.7589931017,
				"element": "Cl" 
			},
			{
				"x": -1.1449454199,
				"y": -0.797246362,
				"z": -3.2316008746,
				"element": "C" 
			},
			{
				"x": -0.4398197175,
				"y": 0.1896389082,
				"z": -2.5397519852,
				"element": "C" 
			},
			{
				"x": 0.2781279798,
				"y": 1.2202407681,
				"z": 1.5045429123,
				"element": "C" 
			},
			{
				"x": -0.9308380538,
				"y": 1.9736886759,
				"z": 1.047870629,
				"element": "C" 
			},
			{
				"x": 0.7048409927,
				"y": 0.7908328904,
				"z": 2.7673193147,
				"element": "C" 
			},
			{
				"x": 0.0890983868,
				"y": 0.9618190032,
				"z": 4.0793347053,
				"element": "C" 
			},
			{
				"x": -1.0840668552,
				"y": 1.6589814396,
				"z": 4.0587564508,
				"element": "O" 
			},
			{
				"x": 0.5460958075,
				"y": 0.53725771,
				"z": 5.1263130089,
				"element": "O" 
			},
			{
				"x": 3.7091097489,
				"y": -0.9709171738,
				"z": 3.0142416165,
				"element": "H" 
			},
			{
				"x": 2.3210436841,
				"y": -1.3407084124,
				"z": 4.0737751522,
				"element": "H" 
			},
			{
				"x": 3.187902604,
				"y": 0.1652862917,
				"z": 4.2871115017,
				"element": "H" 
			},
			{
				"x": 0.8813017125,
				"y": 1.9231505657,
				"z": -1.0856407572,
				"element": "H" 
			},
			{
				"x": 2.315395769,
				"y": 0.8923789062,
				"z": -1.0912801575,
				"element": "H" 
			},
			{
				"x": 1.3696972017,
				"y": -1.7672627345,
				"z": -0.4377368779,
				"element": "H" 
			},
			{
				"x": 0.1172093739,
				"y": -3.5405311738,
				"z": -1.6536119289,
				"element": "H" 
			},
			{
				"x": -1.8507245214,
				"y": -0.5328031585,
				"z": -4.0111326685,
				"element": "H" 
			},
			{
				"x": -0.6038889114,
				"y": 1.2337584575,
				"z": -2.7949188195,
				"element": "H" 
			},
			{
				"x": -0.6531227862,
				"y": 2.943038162,
				"z": 0.6158078208,
				"element": "H" 
			},
			{
				"x": -1.5957689497,
				"y": 2.1547336115,
				"z": 1.8897053546,
				"element": "H" 
			},
			{
				"x": -1.4761148371,
				"y": 1.4137398692,
				"z": 0.2803269368,
				"element": "H" 
			},
			{
				"x": -1.3754680385,
				"y": 1.6895937464,
				"z": 4.9849822576,
				"element": "H" 
			}
		],
		 "valence_orbital": [ 
			{
				"type": "occ",
				"energy": -0.27132,
				"method": "rhf"
			},
			{
				"type": "occ",
				"energy": -0.27073,
				"method": "rhf"
			},
			{
				"type": "occ",
				"energy": -0.25484,
				"method": "rhf"
			},
			{
				"type": "occ",
				"energy": -0.24918,
				"method": "rhf"
			},
			{
				"type": "occ",
				"energy": -0.24514,
				"method": "rhf"
			},
			{
				"type": "unocc",
				"energy": -0.02613,
				"method": "rhf"
			},
			{
				"type": "unocc",
				"energy": -0.02198,
				"method": "rhf"
			},
			{
				"type": "unocc",
				"energy": -0.01988,
				"method": "rhf"
			},
			{
				"type": "unocc",
				"energy": 0.02136,
				"method": "rhf"
			},
			{
				"type": "unocc",
				"energy": 0.02518,
				"method": "rhf"
			}
		],
		"cosmo_sigma_profile": { 
			"-0.025": 0.0,
			"-0.024": 0.0,
			"-0.023": 0.0,
			"-0.022": 0.0,
			"-0.021": 0.0,
			"-0.02": 0.0,
			"-0.019": 0.0,
			"-0.018": 0.18177676377,
			"-0.017": 0.887803116584,
			"-0.016": 0.86461214143,
			"-0.015": 0.872999956977,
			"-0.014": 0.50354278682,
			"-0.013": 0.689791605557,
			"-0.012": 1.14349735393,
			"-0.011": 0.386394950376,
			"-0.01": 0.30618249325,
			"-0.009": 0.733211568295,
			"-0.008": 3.5328119918,
			"-0.007": 11.2567922633,
			"-0.006": 12.432856627,
			"-0.005": 15.7794556416,
			"-0.004": 17.9208475094,
			"-0.003": 18.8018205147,
			"-0.002": 21.6813076969,
			"-0.001": 24.9844503377,
			"0.0": 27.6502100762,
			"0.001": 27.1790766736,
			"0.002": 25.0183048646,
			"0.003": 25.5556634283,
			"0.004": 19.8606211059,
			"0.005": 12.2048110496,
			"0.006": 5.07089869401,
			"0.007": 3.59562181281,
			"0.008": 2.83680983025,
			"0.009": 2.52796386051,
			"0.01": 2.36015529513,
			"0.011": 2.71453991021,
			"0.012": 4.21318428919,
			"0.013": 2.98354650441,
			"0.014": 0.572689283791,
			"0.015": 0.355007896145,
			"0.016": 0.0,
			"0.017": 0.0,
			"0.018": 0.0,
			"0.019": 0.0,
			"0.02": 0.0,
			"0.021": 0.0,
			"0.022": 0.0,
			"0.023": 0.0,
			"0.024": 0.0,
			"0.025": 0.0
		}
	}
}
