{
	 "smiles": "CS(=O)(=O)NC1=CC(N)=C(Cl)C=C1", 
	 "Tm": 430.15, 
	 "num_atms": 22, 
	 "gaussian": { 
		 "optdone": 1, 
		 "sigma_profile": "yes", 
		 "theory": "DFT", 
		 "functional": "B3LYP", 
		 "basiset": "6-31G**", 
		 "properties": { 
			 "R2extent": 4444.7694, 
			 "electric_dipole_moment_norm": 5.59523760353, 
			 "electric_quadrupole_moment_norm": 16.7207997689, 
			 "total_energy": -1390.4387758, 
			 "HOMO_LUMO_gap": 0.19798, 
			 "cosmo_polarized_energy": -20.05, 
			 "cosmo_cavitation_energy": 28.87, 
			 "cosmo_dispersion_energy": -21.87, 
			 "cosmo_repulsion_energy": 1.69, 
			 "cosmo_total_nonelectrostatic_energy": 8.69, 
			 "SMD_solvation_energy": 4.22 
		},
		"coords": [
			{
				"x": -0.5653746663,
				"y": 3.8189040309,
				"z": 0.0995094996,
				"element": "C" 
			},
			{
				"x": -1.727341658,
				"y": 2.6166854923,
				"z": 0.7810247819,
				"element": "S" 
			},
			{
				"x": -1.5290633017,
				"y": 2.5995583799,
				"z": 2.2286758261,
				"element": "O" 
			},
			{
				"x": -3.0431040754,
				"y": 2.8409741135,
				"z": 0.1835519451,
				"element": "O" 
			},
			{
				"x": -1.238983685,
				"y": 1.1251612918,
				"z": 0.1495366986,
				"element": "N" 
			},
			{
				"x": 0.066962993,
				"y": 0.5839388736,
				"z": 0.2616367789,
				"element": "C" 
			},
			{
				"x": 0.615792645,
				"y": -0.060577655,
				"z": -0.8508227248,
				"element": "C" 
			},
			{
				"x": 1.8824234822,
				"y": -0.6674029672,
				"z": -0.79793774,
				"element": "C" 
			},
			{
				"x": 2.380846959,
				"y": -1.3663243058,
				"z": -1.881679229,
				"element": "N" 
			},
			{
				"x": 2.5976819361,
				"y": -0.5621641715,
				"z": 0.4120058366,
				"element": "C" 
			},
			{
				"x": 4.2084204588,
				"y": -1.2713463373,
				"z": 0.522936445,
				"element": "Cl" 
			},
			{
				"x": 2.0581800859,
				"y": 0.0889654378,
				"z": 1.5151574542,
				"element": "C" 
			},
			{
				"x": 0.7872073083,
				"y": 0.6569976474,
				"z": 1.4628251384,
				"element": "C" 
			},
			{
				"x": 0.448080009,
				"y": 3.5229894508,
				"z": 0.374277417,
				"element": "H" 
			},
			{
				"x": -0.6869432573,
				"y": 3.8556713804,
				"z": -0.9836448738,
				"element": "H" 
			},
			{
				"x": -0.8121479608,
				"y": 4.7837690931,
				"z": 0.5455102663,
				"element": "H" 
			},
			{
				"x": -1.7358128198,
				"y": 0.9326031136,
				"z": -0.7128394539,
				"element": "H" 
			},
			{
				"x": 0.0511682758,
				"y": -0.1116784299,
				"z": -1.7791221703,
				"element": "H" 
			},
			{
				"x": 3.3784415954,
				"y": -1.5225750811,
				"z": -1.8909493687,
				"element": "H" 
			},
			{
				"x": 1.9912096784,
				"y": -1.1352219817,
				"z": -2.7831064243,
				"element": "H" 
			},
			{
				"x": 2.6352789764,
				"y": 0.1376570466,
				"z": 2.4322379591,
				"element": "H" 
			},
			{
				"x": 0.3527770211,
				"y": 1.1274155779,
				"z": 2.3353159379,
				"element": "H" 
			}
		],
		 "valence_orbital": [ 
			{
				"type": "occ",
				"energy": -0.31156,
				"method": "rhf"
			},
			{
				"type": "occ",
				"energy": -0.30964,
				"method": "rhf"
			},
			{
				"type": "occ",
				"energy": -0.29749,
				"method": "rhf"
			},
			{
				"type": "occ",
				"energy": -0.24166,
				"method": "rhf"
			},
			{
				"type": "occ",
				"energy": -0.21558,
				"method": "rhf"
			},
			{
				"type": "unocc",
				"energy": -0.0176,
				"method": "rhf"
			},
			{
				"type": "unocc",
				"energy": -0.00381,
				"method": "rhf"
			},
			{
				"type": "unocc",
				"energy": 0.02414,
				"method": "rhf"
			},
			{
				"type": "unocc",
				"energy": 0.05723,
				"method": "rhf"
			},
			{
				"type": "unocc",
				"energy": 0.06943,
				"method": "rhf"
			}
		],
		"cosmo_sigma_profile": { 
			"-0.025": 0.0,
			"-0.024": 0.0,
			"-0.023": 0.0,
			"-0.022": 0.0,
			"-0.021": 0.0,
			"-0.02": 0.0,
			"-0.019": 0.0,
			"-0.018": 0.0,
			"-0.017": 0.0,
			"-0.016": 0.244787424859,
			"-0.015": 1.43901419312,
			"-0.014": 1.06726886018,
			"-0.013": 2.66463606368,
			"-0.012": 3.33364020946,
			"-0.011": 3.56339861156,
			"-0.01": 4.37042364659,
			"-0.009": 7.93452746587,
			"-0.008": 8.00998335672,
			"-0.007": 9.8040789636,
			"-0.006": 9.6067475003,
			"-0.005": 11.386940927,
			"-0.004": 12.4216636228,
			"-0.003": 10.8845204287,
			"-0.002": 8.52379668677,
			"-0.001": 8.87795006705,
			"0.0": 9.93584451591,
			"0.001": 11.3293627865,
			"0.002": 12.6167308381,
			"0.003": 18.7504714581,
			"0.004": 21.8965508683,
			"0.005": 13.6216367653,
			"0.006": 4.57722109182,
			"0.007": 4.05759289541,
			"0.008": 4.14774370101,
			"0.009": 4.8998804954,
			"0.01": 8.21862800244,
			"0.011": 10.6011094942,
			"0.012": 3.0549342579,
			"0.013": 0.16331745728,
			"0.014": 0.0,
			"0.015": 0.0,
			"0.016": 0.0,
			"0.017": 0.0,
			"0.018": 0.0,
			"0.019": 0.0,
			"0.02": 0.0,
			"0.021": 0.0,
			"0.022": 0.0,
			"0.023": 0.0,
			"0.024": 0.0,
			"0.025": 0.0
		}
	}
}
