{
	 "smiles": "OC(=O)C1=C2C=CC=CC2=NC(=C1)C1=C2C=CC=CC2=CC=C1", 
	 "Tm": 499.15, 
	 "num_atms": 36, 
	 "gaussian": { 
		 "optdone": 1, 
		 "sigma_profile": "yes", 
		 "theory": "DFT", 
		 "functional": "B3LYP", 
		 "basiset": "6-31G**", 
		 "properties": { 
			 "R2extent": 8712.3671, 
			 "electric_dipole_moment_norm": 3.15136120907, 
			 "electric_quadrupole_moment_norm": 19.6819077421, 
			 "total_energy": -975.190711282, 
			 "HOMO_LUMO_gap": 0.13631, 
			 "cosmo_polarized_energy": -16.5, 
			 "cosmo_cavitation_energy": 40.2, 
			 "cosmo_dispersion_energy": -29.04, 
			 "cosmo_repulsion_energy": 2.16, 
			 "cosmo_total_nonelectrostatic_energy": 13.32, 
			 "SMD_solvation_energy": 5.94 
		},
		"coords": [
			{
				"x": 2.0136566819,
				"y": -2.1532156369,
				"z": -0.6079927589,
				"element": "O" 
			},
			{
				"x": 1.5044478687,
				"y": -2.3211780693,
				"z": 0.6404517672,
				"element": "C" 
			},
			{
				"x": 1.7933395458,
				"y": -3.3025810289,
				"z": 1.2827554598,
				"element": "O" 
			},
			{
				"x": 0.5710973194,
				"y": -1.2382999965,
				"z": 1.1131981896,
				"element": "C" 
			},
			{
				"x": 0.5302958346,
				"y": -0.8286746358,
				"z": 2.4833180063,
				"element": "C" 
			},
			{
				"x": 1.3448576139,
				"y": -1.3674632872,
				"z": 3.5148836991,
				"element": "C" 
			},
			{
				"x": 1.257682573,
				"y": -0.8719396753,
				"z": 4.7977495777,
				"element": "C" 
			},
			{
				"x": 0.3608954282,
				"y": 0.1776452655,
				"z": 5.1120272817,
				"element": "C" 
			},
			{
				"x": -0.4432166829,
				"y": 0.7176886545,
				"z": 4.135315858,
				"element": "C" 
			},
			{
				"x": -0.383388789,
				"y": 0.2308742148,
				"z": 2.8021550907,
				"element": "C" 
			},
			{
				"x": -1.2171168778,
				"y": 0.8022302069,
				"z": 1.8878244551,
				"element": "N" 
			},
			{
				"x": -1.1966157795,
				"y": 0.3706507788,
				"z": 0.6373103821,
				"element": "C" 
			},
			{
				"x": -0.2880754679,
				"y": -0.6425046683,
				"z": 0.2117858847,
				"element": "C" 
			},
			{
				"x": -2.088284141,
				"y": 1.0588952674,
				"z": -0.3393772823,
				"element": "C" 
			},
			{
				"x": -2.8661738978,
				"y": 0.3545426101,
				"z": -1.3211806409,
				"element": "C" 
			},
			{
				"x": -2.983474203,
				"y": -1.0640216399,
				"z": -1.3672472418,
				"element": "C" 
			},
			{
				"x": -3.7444920351,
				"y": -1.6887270991,
				"z": -2.3310826735,
				"element": "C" 
			},
			{
				"x": -4.4399840836,
				"y": -0.9314100455,
				"z": -3.3022935654,
				"element": "C" 
			},
			{
				"x": -4.3800130311,
				"y": 0.4422699439,
				"z": -3.2678042697,
				"element": "C" 
			},
			{
				"x": -3.613547218,
				"y": 1.1199357406,
				"z": -2.2809767518,
				"element": "C" 
			},
			{
				"x": -3.5951658447,
				"y": 2.5381007643,
				"z": -2.2158219695,
				"element": "C" 
			},
			{
				"x": -2.8861497995,
				"y": 3.1859225867,
				"z": -1.2311004063,
				"element": "C" 
			},
			{
				"x": -2.1357101608,
				"y": 2.4428442115,
				"z": -0.2956505775,
				"element": "C" 
			},
			{
				"x": 1.7971199822,
				"y": -1.2691777177,
				"z": -0.9374520556,
				"element": "H" 
			},
			{
				"x": 2.0188577704,
				"y": -2.1816694557,
				"z": 3.2816369771,
				"element": "H" 
			},
			{
				"x": 1.8829911429,
				"y": -1.2940227612,
				"z": 5.5788805624,
				"element": "H" 
			},
			{
				"x": 0.3085899413,
				"y": 0.5530260981,
				"z": 6.1298664769,
				"element": "H" 
			},
			{
				"x": -1.1441262528,
				"y": 1.5193539,
				"z": 4.3425134044,
				"element": "H" 
			},
			{
				"x": -0.2939244205,
				"y": -0.9447286486,
				"z": -0.8304057161,
				"element": "H" 
			},
			{
				"x": -2.4883477335,
				"y": -1.665573399,
				"z": -0.6134330866,
				"element": "H" 
			},
			{
				"x": -3.8200241693,
				"y": -2.7722014922,
				"z": -2.3378162345,
				"element": "H" 
			},
			{
				"x": -5.0323263406,
				"y": -1.4358779305,
				"z": -4.0599050082,
				"element": "H" 
			},
			{
				"x": -4.9309471528,
				"y": 1.0362154729,
				"z": -3.9925793794,
				"element": "H" 
			},
			{
				"x": -4.1626630723,
				"y": 3.1016604058,
				"z": -2.9518494173,
				"element": "H" 
			},
			{
				"x": -2.8869945696,
				"y": 4.2704752338,
				"z": -1.1761271148,
				"element": "H" 
			},
			{
				"x": -1.5640699791,
				"y": 2.9552358321,
				"z": 0.4709230774,
				"element": "H" 
			}
		],
		 "valence_orbital": [ 
			{
				"type": "occ",
				"energy": -0.26337,
				"method": "rhf"
			},
			{
				"type": "occ",
				"energy": -0.26153,
				"method": "rhf"
			},
			{
				"type": "occ",
				"energy": -0.24959,
				"method": "rhf"
			},
			{
				"type": "occ",
				"energy": -0.24248,
				"method": "rhf"
			},
			{
				"type": "occ",
				"energy": -0.2173,
				"method": "rhf"
			},
			{
				"type": "unocc",
				"energy": -0.08099,
				"method": "rhf"
			},
			{
				"type": "unocc",
				"energy": -0.05,
				"method": "rhf"
			},
			{
				"type": "unocc",
				"energy": -0.0272,
				"method": "rhf"
			},
			{
				"type": "unocc",
				"energy": -0.0154,
				"method": "rhf"
			},
			{
				"type": "unocc",
				"energy": -0.01039,
				"method": "rhf"
			}
		],
		"cosmo_sigma_profile": { 
			"-0.025": 0.0,
			"-0.024": 0.0,
			"-0.023": 0.0,
			"-0.022": 0.0,
			"-0.021": 0.0,
			"-0.02": 0.0,
			"-0.019": 0.496309619772,
			"-0.018": 0.989166521897,
			"-0.017": 0.885211186944,
			"-0.016": 1.0329526526,
			"-0.015": 0.888783435091,
			"-0.014": 1.01908846874,
			"-0.013": 0.870322441682,
			"-0.012": 1.6046820018,
			"-0.011": 0.738362841321,
			"-0.01": 1.28178664615,
			"-0.009": 1.12230351871,
			"-0.008": 1.49578062538,
			"-0.007": 4.21403367534,
			"-0.006": 20.0256766968,
			"-0.005": 25.2578306527,
			"-0.004": 25.9412845847,
			"-0.003": 21.506878174,
			"-0.002": 18.9397281821,
			"-0.001": 19.346079855,
			"0.0": 20.7810481917,
			"0.001": 22.4737007661,
			"0.002": 24.4448734526,
			"0.003": 32.3168070753,
			"0.004": 29.5154491324,
			"0.005": 14.0089304609,
			"0.006": 3.9770495907,
			"0.007": 4.44544254362,
			"0.008": 4.17602803995,
			"0.009": 5.12351444934,
			"0.01": 5.80886777105,
			"0.011": 5.92259581627,
			"0.012": 2.30795393886,
			"0.013": 1.07919062148,
			"0.014": 0.284201752264,
			"0.015": 0.0427160566662,
			"0.016": 0.0,
			"0.017": 0.0,
			"0.018": 0.0,
			"0.019": 0.0,
			"0.02": 0.0,
			"0.021": 0.0,
			"0.022": 0.0,
			"0.023": 0.0,
			"0.024": 0.0,
			"0.0": 0.0
		}
	}
}
