{
	 "smiles": "COC1=CC(OC)=C(C=O)C(OC)=C1", 
	 "Tm": 393.15, 
	 "num_atms": 26, 
	 "gaussian": { 
		 "optdone": 1, 
		 "sigma_profile": "yes", 
		 "theory": "DFT", 
		 "functional": "B3LYP", 
		 "basiset": "6-31G**", 
		 "properties": { 
			 "R2extent": 3258.5117, 
			 "electric_dipole_moment_norm": 6.34647733314, 
			 "electric_quadrupole_moment_norm": 10.7195677114, 
			 "total_energy": -689.137392664, 
			 "HOMO_LUMO_gap": 0.17889, 
			 "cosmo_polarized_energy": -14.01, 
			 "cosmo_cavitation_energy": 29.65, 
			 "cosmo_dispersion_energy": -21.45, 
			 "cosmo_repulsion_energy": 1.69, 
			 "cosmo_total_nonelectrostatic_energy": 9.89, 
			 "SMD_solvation_energy": 8.46 
		},
		"coords": [
			{
				"x": 3.8263868569,
				"y": 2.0488535989,
				"z": 1.0753833861,
				"element": "C" 
			},
			{
				"x": 3.3628541903,
				"y": 1.08472963,
				"z": 0.1405839666,
				"element": "O" 
			},
			{
				"x": 2.030460187,
				"y": 0.837757931,
				"z": 0.0571748508,
				"element": "C" 
			},
			{
				"x": 1.6521479201,
				"y": -0.121627282,
				"z": -0.8877997898,
				"element": "C" 
			},
			{
				"x": 0.3112843461,
				"y": -0.4457277122,
				"z": -1.0573663911,
				"element": "C" 
			},
			{
				"x": 0.0403568201,
				"y": -1.4365222483,
				"z": -1.9556475609,
				"element": "O" 
			},
			{
				"x": -0.5606121524,
				"y": -1.0377710241,
				"z": -3.1935507664,
				"element": "C" 
			},
			{
				"x": -0.7003823463,
				"y": 0.1726695849,
				"z": -0.2710759303,
				"element": "C" 
			},
			{
				"x": -2.1177629724,
				"y": -0.227072153,
				"z": -0.2917931021,
				"element": "C" 
			},
			{
				"x": -2.6509785426,
				"y": -0.9709660735,
				"z": -1.1027366223,
				"element": "O" 
			},
			{
				"x": -0.2794226335,
				"y": 1.1500498291,
				"z": 0.6704123129,
				"element": "C" 
			},
			{
				"x": -1.2704894342,
				"y": 1.7413539924,
				"z": 1.3937863344,
				"element": "O" 
			},
			{
				"x": -0.9323492721,
				"y": 2.6800887288,
				"z": 2.403681821,
				"element": "C" 
			},
			{
				"x": 1.0663975253,
				"y": 1.4888872366,
				"z": 0.837960882,
				"element": "C" 
			},
			{
				"x": 3.5730214766,
				"y": 1.7668983827,
				"z": 2.1049059183,
				"element": "H" 
			},
			{
				"x": 3.4205374403,
				"y": 3.0456592821,
				"z": 0.8620776607,
				"element": "H" 
			},
			{
				"x": 4.9113842098,
				"y": 2.0727619581,
				"z": 0.9666671945,
				"element": "H" 
			},
			{
				"x": 2.4052262011,
				"y": -0.6197838526,
				"z": -1.4859251195,
				"element": "H" 
			},
			{
				"x": 0.0741644558,
				"y": -0.3056876111,
				"z": -3.7092048786,
				"element": "H" 
			},
			{
				"x": -0.6263471722,
				"y": -1.9456136051,
				"z": -3.7959778219,
				"element": "H" 
			},
			{
				"x": -1.5634250042,
				"y": -0.6383477621,
				"z": -3.0327957545,
				"element": "H" 
			},
			{
				"x": -2.7123553646,
				"y": 0.1992282857,
				"z": 0.5367971385,
				"element": "H" 
			},
			{
				"x": -1.8773012754,
				"y": 2.9798361848,
				"z": 2.8585950742,
				"element": "H" 
			},
			{
				"x": -0.286538152,
				"y": 2.2342232466,
				"z": 3.1701471925,
				"element": "H" 
			},
			{
				"x": -0.4391472592,
				"y": 3.5649056393,
				"z": 1.9824737166,
				"element": "H" 
			},
			{
				"x": 1.3568899517,
				"y": 2.239315813,
				"z": 1.5575262884,
				"element": "H" 
			}
		],
		 "valence_orbital": [ 
			{
				"type": "occ",
				"energy": -0.29361,
				"method": "rhf"
			},
			{
				"type": "occ",
				"energy": -0.26731,
				"method": "rhf"
			},
			{
				"type": "occ",
				"energy": -0.23836,
				"method": "rhf"
			},
			{
				"type": "occ",
				"energy": -0.22962,
				"method": "rhf"
			},
			{
				"type": "occ",
				"energy": -0.22234,
				"method": "rhf"
			},
			{
				"type": "unocc",
				"energy": -0.04345,
				"method": "rhf"
			},
			{
				"type": "unocc",
				"energy": 0.00451,
				"method": "rhf"
			},
			{
				"type": "unocc",
				"energy": 0.05338,
				"method": "rhf"
			},
			{
				"type": "unocc",
				"energy": 0.0754,
				"method": "rhf"
			},
			{
				"type": "unocc",
				"energy": 0.09597,
				"method": "rhf"
			}
		],
		"cosmo_sigma_profile": { 
			"-0.025": 0.0,
			"-0.024": 0.0,
			"-0.023": 0.0,
			"-0.022": 0.0,
			"-0.021": 0.0,
			"-0.02": 0.0,
			"-0.019": 0.0,
			"-0.018": 0.0,
			"-0.017": 0.0,
			"-0.016": 0.0,
			"-0.015": 0.0,
			"-0.014": 0.0,
			"-0.013": 0.0,
			"-0.012": 0.0,
			"-0.011": 0.0,
			"-0.01": 0.0,
			"-0.009": 0.0,
			"-0.008": 1.05874917655,
			"-0.007": 5.23442753271,
			"-0.006": 17.4692410714,
			"-0.005": 20.4271446842,
			"-0.004": 25.1881523216,
			"-0.003": 23.2986256263,
			"-0.002": 18.7966409532,
			"-0.001": 14.4894014569,
			"0.0": 13.2427032365,
			"0.001": 15.7611853412,
			"0.002": 19.5267156433,
			"0.003": 13.4078975681,
			"0.004": 7.50783128171,
			"0.005": 6.6789387528,
			"0.006": 4.69967679348,
			"0.007": 4.45328788772,
			"0.008": 3.18941284288,
			"0.009": 4.81568761911,
			"0.01": 3.54703609092,
			"0.011": 4.27013278096,
			"0.012": 4.79831946514,
			"0.013": 2.89573084627,
			"0.014": 0.76241302712,
			"0.015": 0.0,
			"0.016": 0.0,
			"0.017": 0.0,
			"0.018": 0.0,
			"0.019": 0.0,
			"0.02": 0.0,
			"0.021": 0.0,
			"0.022": 0.0,
			"0.023": 0.0,
			"0.024": 0.0,
			"0.025": 0.0
		}
	}
}
