{
	 "smiles": "OC(=O)C=CC1=CN(N=C1C1=CC2=C(OCCO2)C=C1)C1=CC=CC=C1", 
	 "Tm": 524.15, 
	 "num_atms": 42, 
	 "gaussian": { 
		 "optdone": 1, 
		 "sigma_profile": "yes", 
		 "theory": "DFT", 
		 "functional": "B3LYP", 
		 "basiset": "6-31G**", 
		 "properties": { 
			 "R2extent": 13109.5401, 
			 "electric_dipole_moment_norm": 2.77293257401, 
			 "electric_quadrupole_moment_norm": 29.9179334084, 
			 "total_energy": -1182.14288359, 
			 "HOMO_LUMO_gap": 0.14534, 
			 "cosmo_polarized_energy": -19.91, 
			 "cosmo_cavitation_energy": 47.59, 
			 "cosmo_dispersion_energy": -34.12, 
			 "cosmo_repulsion_energy": 2.56, 
			 "cosmo_total_nonelectrostatic_energy": 16.03, 
			 "SMD_solvation_energy": 8.89 
		},
		"coords": [
			{
				"x": -2.5608401185,
				"y": -0.9337248706,
				"z": -5.348851769,
				"element": "O" 
			},
			{
				"x": -2.5487036569,
				"y": -0.8356180399,
				"z": -3.9909909038,
				"element": "C" 
			},
			{
				"x": -3.5711111601,
				"y": -0.891479708,
				"z": -3.3313948086,
				"element": "O" 
			},
			{
				"x": -1.1836529206,
				"y": -0.6564916651,
				"z": -3.474550328,
				"element": "C" 
			},
			{
				"x": -0.9714018939,
				"y": -0.5465631344,
				"z": -2.146881894,
				"element": "C" 
			},
			{
				"x": 0.3090993635,
				"y": -0.4016192067,
				"z": -1.4891072857,
				"element": "C" 
			},
			{
				"x": 1.5697133532,
				"y": -0.6515671972,
				"z": -2.0167924615,
				"element": "C" 
			},
			{
				"x": 2.4719444505,
				"y": -0.4729235715,
				"z": -1.0187251936,
				"element": "N" 
			},
			{
				"x": 1.8737555448,
				"y": -0.1135536163,
				"z": 0.1493036097,
				"element": "N" 
			},
			{
				"x": 0.5686437431,
				"y": -0.0648385582,
				"z": -0.1148949643,
				"element": "C" 
			},
			{
				"x": -0.3840258967,
				"y": 0.2987279934,
				"z": 0.9475817808,
				"element": "C" 
			},
			{
				"x": -0.1162536028,
				"y": -0.0770629282,
				"z": 2.2723090922,
				"element": "C" 
			},
			{
				"x": -0.990358718,
				"y": 0.2633252309,
				"z": 3.2993720631,
				"element": "C" 
			},
			{
				"x": -2.1665915196,
				"y": 0.9809441527,
				"z": 3.0127814653,
				"element": "C" 
			},
			{
				"x": -3.0691210905,
				"y": 1.3160634736,
				"z": 3.990421609,
				"element": "O" 
			},
			{
				"x": -2.8953795423,
				"y": 0.5956310172,
				"z": 5.2111255432,
				"element": "C" 
			},
			{
				"x": -1.4234806245,
				"y": 0.5499470014,
				"z": 5.5878658164,
				"element": "C" 
			},
			{
				"x": -0.6784451602,
				"y": -0.1305194286,
				"z": 4.5787445701,
				"element": "O" 
			},
			{
				"x": -2.4270378892,
				"y": 1.3765899674,
				"z": 1.7010983208,
				"element": "C" 
			},
			{
				"x": -1.5433300982,
				"y": 1.0472048419,
				"z": 0.6774231789,
				"element": "C" 
			},
			{
				"x": 3.8829575496,
				"y": -0.6259751038,
				"z": -1.0763015153,
				"element": "C" 
			},
			{
				"x": 4.5515079684,
				"y": -0.5609546345,
				"z": -2.3041130766,
				"element": "C" 
			},
			{
				"x": 5.933937386,
				"y": -0.7374404277,
				"z": -2.344598673,
				"element": "C" 
			},
			{
				"x": 6.654034026,
				"y": -0.9602099839,
				"z": -1.1699904999,
				"element": "C" 
			},
			{
				"x": 5.979525031,
				"y": -1.00495285,
				"z": 0.0523783735,
				"element": "C" 
			},
			{
				"x": 4.5971803292,
				"y": -0.8423942661,
				"z": 0.1074553009,
				"element": "C" 
			},
			{
				"x": -3.4940915806,
				"y": -1.045951442,
				"z": -5.5935732073,
				"element": "H" 
			},
			{
				"x": -0.3816881768,
				"y": -0.6093401975,
				"z": -4.2045347927,
				"element": "H" 
			},
			{
				"x": -1.8510398406,
				"y": -0.582286776,
				"z": -1.5084883879,
				"element": "H" 
			},
			{
				"x": 1.8622750446,
				"y": -0.9973909246,
				"z": -2.9957398774,
				"element": "H" 
			},
			{
				"x": 0.7798563798,
				"y": -0.6371818051,
				"z": 2.5137594706,
				"element": "H" 
			},
			{
				"x": -3.2844108429,
				"y": -0.4257042367,
				"z": 5.0999031195,
				"element": "H" 
			},
			{
				"x": -3.4841768417,
				"y": 1.1208038838,
				"z": 5.967477835,
				"element": "H" 
			},
			{
				"x": -1.0383462437,
				"y": 1.5713021596,
				"z": 5.7136930908,
				"element": "H" 
			},
			{
				"x": -1.2684527887,
				"y": -0.005714713,
				"z": 6.516210853,
				"element": "H" 
			},
			{
				"x": -3.3295102411,
				"y": 1.9459540817,
				"z": 1.5043099284,
				"element": "H" 
			},
			{
				"x": -1.7467191778,
				"y": 1.3941436004,
				"z": -0.3293594819,
				"element": "H" 
			},
			{
				"x": 4.0062140654,
				"y": -0.3516541203,
				"z": -3.2180896375,
				"element": "H" 
			},
			{
				"x": 6.4483294371,
				"y": -0.6858621713,
				"z": -3.2995190414,
				"element": "H" 
			},
			{
				"x": 7.7311046818,
				"y": -1.0911570117,
				"z": -1.2061932925,
				"element": "H" 
			},
			{
				"x": 6.5310250395,
				"y": -1.1731515029,
				"z": 0.9726339815,
				"element": "H" 
			},
			{
				"x": 4.0594662324,
				"y": -0.8755533123,
				"z": 1.0466420894,
				"element": "H" 
			}
		],
		 "valence_orbital": [ 
			{
				"type": "occ",
				"energy": -0.26313,
				"method": "rhf"
			},
			{
				"type": "occ",
				"energy": -0.25172,
				"method": "rhf"
			},
			{
				"type": "occ",
				"energy": -0.2333,
				"method": "rhf"
			},
			{
				"type": "occ",
				"energy": -0.22405,
				"method": "rhf"
			},
			{
				"type": "occ",
				"energy": -0.20343,
				"method": "rhf"
			},
			{
				"type": "unocc",
				"energy": -0.05809,
				"method": "rhf"
			},
			{
				"type": "unocc",
				"energy": -0.0318,
				"method": "rhf"
			},
			{
				"type": "unocc",
				"energy": -0.01345,
				"method": "rhf"
			},
			{
				"type": "unocc",
				"energy": 0.00263,
				"method": "rhf"
			},
			{
				"type": "unocc",
				"energy": 0.0094,
				"method": "rhf"
			}
		],
		"cosmo_sigma_profile": { 
			"-0.025": 0.0,
			"-0.024": 0.0,
			"-0.023": 0.0,
			"-0.022": 0.0,
			"-0.021": 0.0,
			"-0.02": 0.0,
			"-0.019": 0.0,
			"-0.018": 0.31009347821,
			"-0.017": 0.837313297616,
			"-0.016": 0.816343301069,
			"-0.015": 1.16411983842,
			"-0.014": 0.650598322043,
			"-0.013": 0.433347999409,
			"-0.012": 0.56869711246,
			"-0.011": 1.19599241747,
			"-0.01": 3.21322098745,
			"-0.009": 3.47270155849,
			"-0.008": 3.92185586377,
			"-0.007": 12.5778712865,
			"-0.006": 26.3634490595,
			"-0.005": 29.2347252954,
			"-0.004": 26.0531973777,
			"-0.003": 20.4501690519,
			"-0.002": 20.4790846759,
			"-0.001": 22.1921932108,
			"0.0": 23.9580518855,
			"0.001": 29.2937729691,
			"0.002": 31.3250180578,
			"0.003": 31.4608157486,
			"0.004": 29.9462313496,
			"0.005": 15.9952164261,
			"0.006": 7.7450456571,
			"0.007": 6.68077743665,
			"0.008": 5.93128556055,
			"0.009": 5.981388078,
			"0.01": 7.63119575281,
			"0.011": 3.03003832428,
			"0.012": 5.98930879436,
			"0.013": 2.64268432348,
			"0.014": 0.0,
			"0.015": 0.0,
			"0.016": 0.0,
			"0.017": 0.0,
			"0.018": 0.0,
			"0.019": 0.0,
			"0.02": 0.0,
			"0.021": 0.0,
			"0.022": 0.0,
			"0.023": 0.0,
			"0.024": 0.0,
			"0.0": 0.0
		}
	}
}
