{
	 "smiles": "CC(C)(C)N(NC(=O)C1=CC=CC=C1)C(=O)C1=CC=CC=C1I", 
	 "Tm": 461.15, 
	 "num_atms": 42, 
	 "gaussian": { 
		 "optdone": 1, 
		 "sigma_profile": "no", 
		 "theory": "DFT", 
		 "functional": "B3LYP", 
		 "basiset": "6-31G**", 
		 "properties": { 
			 "R2extent": 7210.8189, 
			 "electric_dipole_moment_norm": 4.92754053966, 
			 "electric_quadrupole_moment_norm": 12.3967544853, 
			 "total_energy": -968.704714701, 
			 "HOMO_LUMO_gap": 0.19364, 
			 "cosmo_polarized_energy": -76499.85, 
			 "cosmo_cavitation_energy": 47.14, 
			 "cosmo_dispersion_energy": -31.08, 
			 "cosmo_repulsion_energy": 2.34, 
			 "cosmo_total_nonelectrostatic_energy": 18.4, 
			 "SMD_solvation_energy": 8.27 
		},
		"coords": [
			{
				"x": 2.2944517487,
				"y": 3.1179226725,
				"z": -1.9268458249,
				"element": "C" 
			},
			{
				"x": 1.1344696043,
				"y": 2.1811347475,
				"z": -2.3140021192,
				"element": "C" 
			},
			{
				"x": 1.6309081095,
				"y": 1.1880459754,
				"z": -3.374593726,
				"element": "C" 
			},
			{
				"x": -0.0611381013,
				"y": 2.9757148389,
				"z": -2.8727797033,
				"element": "C" 
			},
			{
				"x": 0.7000620375,
				"y": 1.4087723824,
				"z": -1.0844098134,
				"element": "N" 
			},
			{
				"x": 0.5548482577,
				"y": 0.0335211407,
				"z": -1.1656264376,
				"element": "N" 
			},
			{
				"x": -0.6578932237,
				"y": -0.543208931,
				"z": -1.4954503242,
				"element": "C" 
			},
			{
				"x": -1.6514428955,
				"y": 0.126399486,
				"z": -1.7438067468,
				"element": "O" 
			},
			{
				"x": -0.6664408756,
				"y": -2.0427511565,
				"z": -1.5188079236,
				"element": "C" 
			},
			{
				"x": -1.9088128656,
				"y": -2.6756956458,
				"z": -1.3744816875,
				"element": "C" 
			},
			{
				"x": -1.9955402066,
				"y": -4.0653647434,
				"z": -1.3866875315,
				"element": "C" 
			},
			{
				"x": -0.8431376694,
				"y": -4.8374237529,
				"z": -1.5567380055,
				"element": "C" 
			},
			{
				"x": 0.3952075734,
				"y": -4.2142009305,
				"z": -1.7209201331,
				"element": "C" 
			},
			{
				"x": 0.4854376,
				"y": -2.8221824599,
				"z": -1.702649804,
				"element": "C" 
			},
			{
				"x": 0.2110566735,
				"y": 2.0416383529,
				"z": 0.0413554662,
				"element": "C" 
			},
			{
				"x": 0.1384150092,
				"y": 3.2573694067,
				"z": 0.1495883196,
				"element": "O" 
			},
			{
				"x": -0.2675805809,
				"y": 1.1628001596,
				"z": 1.1808180772,
				"element": "C" 
			},
			{
				"x": -1.649384043,
				"y": 1.1492390325,
				"z": 1.4267440105,
				"element": "C" 
			},
			{
				"x": -2.1792433032,
				"y": 0.459073478,
				"z": 2.513254034,
				"element": "C" 
			},
			{
				"x": -1.3292154632,
				"y": -0.2177167808,
				"z": 3.388848493,
				"element": "C" 
			},
			{
				"x": 0.048887855,
				"y": -0.2056979533,
				"z": 3.1738942425,
				"element": "C" 
			},
			{
				"x": 0.5676030066,
				"y": 0.480907427,
				"z": 2.0733630421,
				"element": "C" 
			},
			{
				"x": 2.6856475036,
				"y": 0.4615229261,
				"z": 1.8225924029,
				"element": "I" 
			},
			{
				"x": 3.1431660762,
				"y": 2.5441204563,
				"z": -1.5405117991,
				"element": "H" 
			},
			{
				"x": 1.9839017032,
				"y": 3.8381108604,
				"z": -1.1705291603,
				"element": "H" 
			},
			{
				"x": 2.6285265549,
				"y": 3.6652370622,
				"z": -2.8143195326,
				"element": "H" 
			},
			{
				"x": 2.4594318283,
				"y": 0.5750422447,
				"z": -3.0064404194,
				"element": "H" 
			},
			{
				"x": 0.8355852445,
				"y": 0.5276597674,
				"z": -3.7279325013,
				"element": "H" 
			},
			{
				"x": 1.9956489282,
				"y": 1.7612712917,
				"z": -4.2317676522,
				"element": "H" 
			},
			{
				"x": -0.400750613,
				"y": 3.7207554147,
				"z": -2.1524132625,
				"element": "H" 
			},
			{
				"x": -0.8912184046,
				"y": 2.3020403116,
				"z": -3.0988307521,
				"element": "H" 
			},
			{
				"x": 0.2386878611,
				"y": 3.4912103875,
				"z": -3.7915033733,
				"element": "H" 
			},
			{
				"x": 1.2992274825,
				"y": -0.5211737344,
				"z": -0.763364463,
				"element": "H" 
			},
			{
				"x": -2.7910897218,
				"y": -2.0560659851,
				"z": -1.2561015984,
				"element": "H" 
			},
			{
				"x": -2.9610617915,
				"y": -4.5479038399,
				"z": -1.2668741364,
				"element": "H" 
			},
			{
				"x": -0.9110598212,
				"y": -5.9213944334,
				"z": -1.5696859175,
				"element": "H" 
			},
			{
				"x": 1.2901932766,
				"y": -4.8102946954,
				"z": -1.8722353418,
				"element": "H" 
			},
			{
				"x": 1.4505146901,
				"y": -2.3525550273,
				"z": -1.8688178681,
				"element": "H" 
			},
			{
				"x": -2.2994405821,
				"y": 1.6823400596,
				"z": 0.741355848,
				"element": "H" 
			},
			{
				"x": -3.2521871617,
				"y": 0.4550591052,
				"z": 2.6787419587,
				"element": "H" 
			},
			{
				"x": -1.7310633703,
				"y": -0.7535085049,
				"z": 4.2436992431,
				"element": "H" 
			},
			{
				"x": 0.7135220697,
				"y": -0.7224704131,
				"z": 3.8568724208,
				"element": "H" 
			}
		],
		 "valence_orbital": [ 
			{
				"type": "occ",
				"energy": -0.26723,
				"method": "rhf"
			},
			{
				"type": "occ",
				"energy": -0.26055,
				"method": "rhf"
			},
			{
				"type": "occ",
				"energy": -0.25391,
				"method": "rhf"
			},
			{
				"type": "occ",
				"energy": -0.24874,
				"method": "rhf"
			},
			{
				"type": "occ",
				"energy": -0.24069,
				"method": "rhf"
			},
			{
				"type": "unocc",
				"energy": -0.04705,
				"method": "rhf"
			},
			{
				"type": "unocc",
				"energy": -0.04544,
				"method": "rhf"
			},
			{
				"type": "unocc",
				"energy": -0.02456,
				"method": "rhf"
			},
			{
				"type": "unocc",
				"energy": -0.01852,
				"method": "rhf"
			},
			{
				"type": "unocc",
				"energy": -0.01702,
				"method": "rhf"
			}
		],
		"cosmo_sigma_profile": { 
			"0.0": 0.0,
			"0.0": 0.0,
			"0.0": 0.0,
			"0.0": 0.0,
			"0.0": 0.0,
			"0.0": 0.0,
			"0.0": 0.0,
			"0.0": 0.0,
			"0.0": 0.0,
			"0.0": 0.0,
			"0.0": 0.0,
			"0.0": 0.0,
			"0.0": 0.0,
			"0.0": 0.0,
			"0.0": 0.0,
			"0.0": 0.0,
			"0.0": 0.0,
			"0.0": 0.0,
			"0.0": 0.0,
			"0.0": 0.0,
			"0.0": 0.0,
			"0.0": 0.0,
			"0.0": 0.0,
			"0.0": 0.0,
			"0.0": 0.0,
			"0.0": 0.0,
			"0.0": 0.0,
			"0.0": 0.0,
			"0.0": 0.0,
			"0.0": 0.0,
			"0.0": 0.0,
			"0.0": 0.0,
			"0.0": 0.0,
			"0.0": 0.0,
			"0.0": 0.0,
			"0.0": 0.0,
			"0.0": 0.0,
			"0.0": 0.0,
			"0.0": 0.0,
			"0.0": 0.0,
			"0.0": 0.0,
			"0.0": 0.0,
			"0.0": 0.0,
			"0.0": 0.0,
			"0.0": 0.0,
			"0.0": 0.0,
			"0.0": 0.0,
			"0.0": 0.0,
			"0.0": 0.0,
			"0.0": 0.0,
			"0.0": 0.0
		}
	}
}
