{
	 "smiles": "CC(CCC(O)=O)CC(O)=O", 
	 "Tm": 373.15, 
	 "num_atms": 23, 
	 "gaussian": { 
		 "optdone": 1, 
		 "sigma_profile": "yes", 
		 "theory": "DFT", 
		 "functional": "B3LYP", 
		 "basiset": "6-31G**", 
		 "properties": { 
			 "R2extent": 2949.5729, 
			 "electric_dipole_moment_norm": 4.47049850912, 
			 "electric_quadrupole_moment_norm": 17.0716105479, 
			 "total_energy": -574.905785954, 
			 "HOMO_LUMO_gap": 0.27598, 
			 "cosmo_polarized_energy": -20.38, 
			 "cosmo_cavitation_energy": 26.18, 
			 "cosmo_dispersion_energy": -18.58, 
			 "cosmo_repulsion_energy": 1.53, 
			 "cosmo_total_nonelectrostatic_energy": 9.13, 
			 "SMD_solvation_energy": 6.48 
		},
		"coords": [
			{
				"x": -0.0894474694,
				"y": -1.8840018308,
				"z": -0.0405478043,
				"element": "C" 
			},
			{
				"x": -0.4161337542,
				"y": -0.3941064187,
				"z": 0.1413851896,
				"element": "C" 
			},
			{
				"x": -1.9063133248,
				"y": -0.0598575247,
				"z": -0.1052357611,
				"element": "C" 
			},
			{
				"x": -2.4739342124,
				"y": -0.4490235101,
				"z": -1.4795737337,
				"element": "C" 
			},
			{
				"x": -3.0208063521,
				"y": -1.8734286544,
				"z": -1.5470738938,
				"element": "C" 
			},
			{
				"x": -3.2962535578,
				"y": -2.3289184105,
				"z": -2.8004607012,
				"element": "O" 
			},
			{
				"x": -3.25033016,
				"y": -2.57374971,
				"z": -0.5932221347,
				"element": "O" 
			},
			{
				"x": 0.5363967161,
				"y": 0.4661659877,
				"z": -0.7069425227,
				"element": "C" 
			},
			{
				"x": 0.5270743188,
				"y": 1.9390832889,
				"z": -0.3558055391,
				"element": "C" 
			},
			{
				"x": 1.1749382758,
				"y": 2.6759686904,
				"z": -1.2924490709,
				"element": "O" 
			},
			{
				"x": 0.0383917507,
				"y": 2.4385346381,
				"z": 0.6347752457,
				"element": "O" 
			},
			{
				"x": -0.170660796,
				"y": -2.1954476838,
				"z": -1.0890346101,
				"element": "H" 
			},
			{
				"x": 0.9358089708,
				"y": -2.0984873522,
				"z": 0.2806573922,
				"element": "H" 
			},
			{
				"x": -0.772011528,
				"y": -2.5106234427,
				"z": 0.5381105112,
				"element": "H" 
			},
			{
				"x": -0.2239630228,
				"y": -0.1287276538,
				"z": 1.1878752545,
				"element": "H" 
			},
			{
				"x": -2.0440771797,
				"y": 1.0139286881,
				"z": 0.0497867051,
				"element": "H" 
			},
			{
				"x": -2.5085718757,
				"y": -0.569866196,
				"z": 0.6530325731,
				"element": "H" 
			},
			{
				"x": -3.3154860572,
				"y": 0.2107364756,
				"z": -1.7332187105,
				"element": "H" 
			},
			{
				"x": -1.7374875139,
				"y": -0.308450211,
				"z": -2.2824588184,
				"element": "H" 
			},
			{
				"x": -3.0637034501,
				"y": -1.65770343,
				"z": -3.4576466713,
				"element": "H" 
			},
			{
				"x": 1.5714718563,
				"y": 0.1236416624,
				"z": -0.5716372828,
				"element": "H" 
			},
			{
				"x": 0.3443872001,
				"y": 0.3671700755,
				"z": -1.7820987833,
				"element": "H" 
			},
			{
				"x": 1.1535111654,
				"y": 3.5943625218,
				"z": -0.9740168336,
				"element": "H" 
			}
		],
		 "valence_orbital": [ 
			{
				"type": "occ",
				"energy": -0.3263,
				"method": "rhf"
			},
			{
				"type": "occ",
				"energy": -0.3224,
				"method": "rhf"
			},
			{
				"type": "occ",
				"energy": -0.3161,
				"method": "rhf"
			},
			{
				"type": "occ",
				"energy": -0.28053,
				"method": "rhf"
			},
			{
				"type": "occ",
				"energy": -0.27318,
				"method": "rhf"
			},
			{
				"type": "unocc",
				"energy": 0.0028,
				"method": "rhf"
			},
			{
				"type": "unocc",
				"energy": 0.0084,
				"method": "rhf"
			},
			{
				"type": "unocc",
				"energy": 0.048,
				"method": "rhf"
			},
			{
				"type": "unocc",
				"energy": 0.07334,
				"method": "rhf"
			},
			{
				"type": "unocc",
				"energy": 0.08079,
				"method": "rhf"
			}
		],
		"cosmo_sigma_profile": { 
			"-0.025": 0.0,
			"-0.024": 0.0,
			"-0.023": 0.0,
			"-0.022": 0.0,
			"-0.021": 0.0,
			"-0.02": 0.0,
			"-0.019": 0.330232087556,
			"-0.018": 1.90977169475,
			"-0.017": 1.87452117495,
			"-0.016": 2.20524023541,
			"-0.015": 1.74944222668,
			"-0.014": 1.32790188178,
			"-0.013": 1.18540631445,
			"-0.012": 2.06263014755,
			"-0.011": 2.19861820087,
			"-0.01": 1.91117693258,
			"-0.009": 1.58706226016,
			"-0.008": 3.09358544712,
			"-0.007": 7.19069631591,
			"-0.006": 9.78440080736,
			"-0.005": 8.65486606662,
			"-0.004": 10.79490535,
			"-0.003": 14.8838122468,
			"-0.002": 16.8254148384,
			"-0.001": 16.5193120182,
			"0.0": 13.4141652199,
			"0.001": 11.7993126169,
			"0.002": 7.39099699164,
			"0.003": 4.8804620599,
			"0.004": 5.44368532424,
			"0.005": 4.79726833526,
			"0.006": 5.91063636132,
			"0.007": 5.49467845473,
			"0.008": 5.36548599619,
			"0.009": 5.99136283654,
			"0.01": 6.98800378523,
			"0.011": 8.65458963438,
			"0.012": 8.74918038641,
			"0.013": 2.52924198874,
			"0.014": 0.158364335448,
			"0.015": 0.0,
			"0.016": 0.0,
			"0.017": 0.0,
			"0.018": 0.0,
			"0.019": 0.0,
			"0.02": 0.0,
			"0.021": 0.0,
			"0.022": 0.0,
			"0.023": 0.0,
			"0.024": 0.0,
			"0.025": 0.0
		}
	}
}
