{
	 "smiles": "N#CC#CC#N", 
	 "Tm": 293.65, 
	 "num_atms": 6, 
	 "gaussian": { 
		 "optdone": 1, 
		 "sigma_profile": "yes", 
		 "theory": "DFT", 
		 "functional": "B3LYP", 
		 "basiset": "6-31G**", 
		 "properties": { 
			 "R2extent": 1063.7227, 
			 "electric_dipole_moment_norm": 0.000374165738677, 
			 "electric_quadrupole_moment_norm": 14.2614834568, 
			 "total_energy": -261.806582192, 
			 "HOMO_LUMO_gap": 0.2096, 
			 "cosmo_polarized_energy": -5.65, 
			 "cosmo_cavitation_energy": 14.33, 
			 "cosmo_dispersion_energy": -8.89, 
			 "cosmo_repulsion_energy": 0.79, 
			 "cosmo_total_nonelectrostatic_energy": 6.23, 
			 "SMD_solvation_energy": 6.27 
		},
		"coords": [
			{
				"x": 1.1377374717,
				"y": -1.6353826601,
				"z": 0.2265827803,
				"element": "N" 
			},
			{
				"x": 0.8414746151,
				"y": -0.5080873001,
				"z": 0.2941692501,
				"element": "C" 
			},
			{
				"x": 0.4947443477,
				"y": 0.8114376539,
				"z": 0.3734063541,
				"element": "C" 
			},
			{
				"x": 0.1858642144,
				"y": 1.986318981,
				"z": 0.4440068796,
				"element": "C" 
			},
			{
				"x": -0.1611000917,
				"y": 3.3057737184,
				"z": 0.5233645139,
				"element": "C" 
			},
			{
				"x": -0.4574205572,
				"y": 4.4330396068,
				"z": 0.591170222,
				"element": "N" 
			}
		],
		 "valence_orbital": [ 
			{
				"type": "occ",
				"energy": -0.41169,
				"method": "rhf"
			},
			{
				"type": "occ",
				"energy": -0.40493,
				"method": "rhf"
			},
			{
				"type": "occ",
				"energy": -0.40493,
				"method": "rhf"
			},
			{
				"type": "occ",
				"energy": -0.32696,
				"method": "rhf"
			},
			{
				"type": "occ",
				"energy": -0.32696,
				"method": "rhf"
			},
			{
				"type": "unocc",
				"energy": -0.11736,
				"method": "rhf"
			},
			{
				"type": "unocc",
				"energy": -0.11736,
				"method": "rhf"
			},
			{
				"type": "unocc",
				"energy": 0.03067,
				"method": "rhf"
			},
			{
				"type": "unocc",
				"energy": 0.03067,
				"method": "rhf"
			},
			{
				"type": "unocc",
				"energy": 0.12199,
				"method": "rhf"
			}
		],
		"cosmo_sigma_profile": { 
			"-0.025": 0.0,
			"-0.024": 0.0,
			"-0.023": 0.0,
			"-0.022": 0.0,
			"-0.021": 0.0,
			"-0.02": 0.0,
			"-0.019": 0.0,
			"-0.018": 0.0,
			"-0.017": 0.0,
			"-0.016": 0.0,
			"-0.015": 0.0,
			"-0.014": 0.0,
			"-0.013": 0.0,
			"-0.012": 0.0,
			"-0.011": 0.0,
			"-0.01": 0.0,
			"-0.009": 0.0,
			"-0.008": 0.0,
			"-0.007": 0.0,
			"-0.006": 7.98807347243,
			"-0.005": 20.15686859,
			"-0.004": 14.9221137848,
			"-0.003": 14.0570532887,
			"-0.002": 3.97917649842,
			"-0.001": 4.5525965223,
			"0.0": 5.1565784012,
			"0.001": 3.97006773677,
			"0.002": 6.67229538424,
			"0.003": 4.23117470315,
			"0.004": 4.70940452792,
			"0.005": 6.7985143833,
			"0.006": 4.94121201299,
			"0.007": 6.19809802942,
			"0.008": 4.61396902058,
			"0.009": 4.89839514976,
			"0.01": 2.55696124399,
			"0.011": 0.0,
			"0.012": 0.0,
			"0.013": 0.0,
			"0.014": 0.0,
			"0.015": 0.0,
			"0.016": 0.0,
			"0.017": 0.0,
			"0.018": 0.0,
			"0.019": 0.0,
			"0.02": 0.0,
			"0.021": 0.0,
			"0.022": 0.0,
			"0.023": 0.0,
			"0.024": 0.0,
			"0.025": 0.0
		}
	}
}
