{
	 "smiles": "CCCCCCCCCCCCOC(=O)CCSCCC(=O)OCCCCCCCCCCCC", 
	 "Tm": 314.15, 
	 "num_atms": 93, 
	 "gaussian": { 
		 "optdone": 1, 
		 "sigma_profile": "yes", 
		 "theory": "DFT", 
		 "functional": "B3LYP", 
		 "basiset": "6-31G**", 
		 "properties": { 
			 "R2extent": 27180.0173, 
			 "electric_dipole_moment_norm": 4.14864158611, 
			 "electric_quadrupole_moment_norm": 18.6614354373, 
			 "total_energy": -1877.33382679, 
			 "HOMO_LUMO_gap": 0.22654, 
			 "cosmo_polarized_energy": -14.85, 
			 "cosmo_cavitation_energy": 91.85, 
			 "cosmo_dispersion_energy": -52.08, 
			 "cosmo_repulsion_energy": 4.1, 
			 "cosmo_total_nonelectrostatic_energy": 43.88, 
			 "SMD_solvation_energy": 12.76 
		},
		"coords": [
			{
				"x": 3.541465002,
				"y": -1.2777688866,
				"z": 5.3575053616,
				"element": "C" 
			},
			{
				"x": 4.1493690994,
				"y": -0.1565495609,
				"z": 4.5080135226,
				"element": "C" 
			},
			{
				"x": 3.5891555476,
				"y": -0.1192685121,
				"z": 3.0794807272,
				"element": "C" 
			},
			{
				"x": 4.2400657038,
				"y": 0.9257492307,
				"z": 2.1564327942,
				"element": "C" 
			},
			{
				"x": 4.1216289456,
				"y": 2.3941487238,
				"z": 2.6082586963,
				"element": "C" 
			},
			{
				"x": 2.6904103046,
				"y": 2.9215755524,
				"z": 2.8113527923,
				"element": "C" 
			},
			{
				"x": 1.8101329974,
				"y": 2.8663747473,
				"z": 1.5540127862,
				"element": "C" 
			},
			{
				"x": 0.4492549967,
				"y": 3.5676130846,
				"z": 1.6998014722,
				"element": "C" 
			},
			{
				"x": -0.4561586396,
				"y": 2.9745621335,
				"z": 2.7900931089,
				"element": "C" 
			},
			{
				"x": -1.900093953,
				"y": 3.487383354,
				"z": 2.7181852706,
				"element": "C" 
			},
			{
				"x": -2.7818696635,
				"y": 2.9759376138,
				"z": 3.8668146942,
				"element": "C" 
			},
			{
				"x": -4.2709432361,
				"y": 3.2013421951,
				"z": 3.6440679685,
				"element": "C" 
			},
			{
				"x": -4.7353959634,
				"y": 2.2471736883,
				"z": 2.6531184918,
				"element": "O" 
			},
			{
				"x": -5.740082549,
				"y": 2.6370768845,
				"z": 1.8364884591,
				"element": "C" 
			},
			{
				"x": -6.2487909179,
				"y": 3.7360257388,
				"z": 1.8568489537,
				"element": "O" 
			},
			{
				"x": -6.2241342759,
				"y": 1.5074340697,
				"z": 0.9392753805,
				"element": "C" 
			},
			{
				"x": -5.2200412123,
				"y": 0.4032031465,
				"z": 0.6028973257,
				"element": "C" 
			},
			{
				"x": -3.8881349476,
				"y": 0.988953162,
				"z": -0.5344346652,
				"element": "S" 
			},
			{
				"x": -2.3814939735,
				"y": 0.4696921664,
				"z": 0.3698200336,
				"element": "C" 
			},
			{
				"x": -2.0732437064,
				"y": -1.0244930224,
				"z": 0.2873273602,
				"element": "C" 
			},
			{
				"x": -0.7803725864,
				"y": -1.3820432762,
				"z": 1.000169938,
				"element": "C" 
			},
			{
				"x": -0.0217081368,
				"y": -0.5844061379,
				"z": 1.5153282655,
				"element": "O" 
			},
			{
				"x": -0.5810749078,
				"y": -2.7161632014,
				"z": 0.9854882893,
				"element": "O" 
			},
			{
				"x": 0.6280214557,
				"y": -3.2109715842,
				"z": 1.6200256465,
				"element": "C" 
			},
			{
				"x": 1.8151780265,
				"y": -3.2826202809,
				"z": 0.6617676433,
				"element": "C" 
			},
			{
				"x": 1.7424542471,
				"y": -4.3740619826,
				"z": -0.4212350393,
				"element": "C" 
			},
			{
				"x": 0.6717872833,
				"y": -4.1956619423,
				"z": -1.5146715281,
				"element": "C" 
			},
			{
				"x": 0.8100652382,
				"y": -2.9355119011,
				"z": -2.3872488353,
				"element": "C" 
			},
			{
				"x": 2.1020400829,
				"y": -2.8725988305,
				"z": -3.2169403696,
				"element": "C" 
			},
			{
				"x": 2.1552622322,
				"y": -1.7105781649,
				"z": -4.2235256943,
				"element": "C" 
			},
			{
				"x": 2.2042326407,
				"y": -0.3148990312,
				"z": -3.5822319229,
				"element": "C" 
			},
			{
				"x": 2.4038304853,
				"y": 0.837790727,
				"z": -4.5807549082,
				"element": "C" 
			},
			{
				"x": 1.2351432866,
				"y": 1.0589574073,
				"z": -5.5513444001,
				"element": "C" 
			},
			{
				"x": 1.4368069527,
				"y": 2.2651430612,
				"z": -6.4780345296,
				"element": "C" 
			},
			{
				"x": 0.2705552657,
				"y": 2.4862182005,
				"z": -7.4465331892,
				"element": "C" 
			},
			{
				"x": 2.4541079453,
				"y": -1.1653238671,
				"z": 5.4402904073,
				"element": "H" 
			},
			{
				"x": 3.7379594998,
				"y": -2.2613465928,
				"z": 4.9145201976,
				"element": "H" 
			},
			{
				"x": 3.952605315,
				"y": -1.2834872864,
				"z": 6.3725436211,
				"element": "H" 
			},
			{
				"x": 5.2408351134,
				"y": -0.2791947405,
				"z": 4.4665870189,
				"element": "H" 
			},
			{
				"x": 3.9718885123,
				"y": 0.8060895647,
				"z": 5.0039682634,
				"element": "H" 
			},
			{
				"x": 3.7282593048,
				"y": -1.1100740888,
				"z": 2.6235228549,
				"element": "H" 
			},
			{
				"x": 2.5030499905,
				"y": 0.0372838653,
				"z": 3.1147048913,
				"element": "H" 
			},
			{
				"x": 5.3074546273,
				"y": 0.687146035,
				"z": 2.0488098656,
				"element": "H" 
			},
			{
				"x": 3.8080465511,
				"y": 0.8197816858,
				"z": 1.1534680672,
				"element": "H" 
			},
			{
				"x": 4.6264579268,
				"y": 3.0221437644,
				"z": 1.8610778795,
				"element": "H" 
			},
			{
				"x": 4.6829162352,
				"y": 2.5339200227,
				"z": 3.5411054448,
				"element": "H" 
			},
			{
				"x": 2.2065311631,
				"y": 2.3656901948,
				"z": 3.6242044841,
				"element": "H" 
			},
			{
				"x": 2.7535372521,
				"y": 3.963245462,
				"z": 3.1571292169,
				"element": "H" 
			},
			{
				"x": 1.6334342671,
				"y": 1.821285792,
				"z": 1.2702861623,
				"element": "H" 
			},
			{
				"x": 2.3560684852,
				"y": 3.3269528938,
				"z": 0.7183064982,
				"element": "H" 
			},
			{
				"x": 0.6033613624,
				"y": 4.6385966062,
				"z": 1.8961804918,
				"element": "H" 
			},
			{
				"x": -0.0754965246,
				"y": 3.511223875,
				"z": 0.7358451154,
				"element": "H" 
			},
			{
				"x": -0.4591851688,
				"y": 1.8802476492,
				"z": 2.6951489946,
				"element": "H" 
			},
			{
				"x": -0.0401779001,
				"y": 3.1970907045,
				"z": 3.7820252038,
				"element": "H" 
			},
			{
				"x": -2.3420388841,
				"y": 3.1860648592,
				"z": 1.7600017674,
				"element": "H" 
			},
			{
				"x": -1.9087135348,
				"y": 4.5863812393,
				"z": 2.7225429287,
				"element": "H" 
			},
			{
				"x": -2.4990708465,
				"y": 3.4738325287,
				"z": 4.8035643329,
				"element": "H" 
			},
			{
				"x": -2.6130319323,
				"y": 1.903107344,
				"z": 4.0284657678,
				"element": "H" 
			},
			{
				"x": -4.846502162,
				"y": 3.0219856003,
				"z": 4.5591004243,
				"element": "H" 
			},
			{
				"x": -4.4933440914,
				"y": 4.2110102102,
				"z": 3.2909940684,
				"element": "H" 
			},
			{
				"x": -6.6269669169,
				"y": 1.974029944,
				"z": 0.0363225245,
				"element": "H" 
			},
			{
				"x": -7.0823682739,
				"y": 1.0560316151,
				"z": 1.4580919988,
				"element": "H" 
			},
			{
				"x": -4.748186498,
				"y": 0.0324113857,
				"z": 1.5149881161,
				"element": "H" 
			},
			{
				"x": -5.743276832,
				"y": -0.430581277,
				"z": 0.1271685789,
				"element": "H" 
			},
			{
				"x": -2.4719936147,
				"y": 0.7957480811,
				"z": 1.4078339529,
				"element": "H" 
			},
			{
				"x": -1.5655848387,
				"y": 1.0455656271,
				"z": -0.0740761241,
				"element": "H" 
			},
			{
				"x": -2.8788144484,
				"y": -1.6283062725,
				"z": 0.7202672286,
				"element": "H" 
			},
			{
				"x": -1.9886411435,
				"y": -1.3475155903,
				"z": -0.7567464883,
				"element": "H" 
			},
			{
				"x": 0.354796902,
				"y": -4.2050352099,
				"z": 1.985688159,
				"element": "H" 
			},
			{
				"x": 0.8598372785,
				"y": -2.5622321649,
				"z": 2.4673150418,
				"element": "H" 
			},
			{
				"x": 2.6993894788,
				"y": -3.4741097592,
				"z": 1.2846762025,
				"element": "H" 
			},
			{
				"x": 1.9717282653,
				"y": -2.2916821792,
				"z": 0.2211575013,
				"element": "H" 
			},
			{
				"x": 1.575735006,
				"y": -5.3415283875,
				"z": 0.0726666705,
				"element": "H" 
			},
			{
				"x": 2.7304028551,
				"y": -4.4505447212,
				"z": -0.8918811782,
				"element": "H" 
			},
			{
				"x": 0.7071611386,
				"y": -5.078231999,
				"z": -2.1682598396,
				"element": "H" 
			},
			{
				"x": -0.3205541585,
				"y": -4.1963410346,
				"z": -1.0510468613,
				"element": "H" 
			},
			{
				"x": 0.7280019688,
				"y": -2.0399062109,
				"z": -1.7589139965,
				"element": "H" 
			},
			{
				"x": -0.0477719633,
				"y": -2.8982694536,
				"z": -3.0732369798,
				"element": "H" 
			},
			{
				"x": 2.973197036,
				"y": -2.8054596719,
				"z": -2.5509835003,
				"element": "H" 
			},
			{
				"x": 2.2118930456,
				"y": -3.8190178506,
				"z": -3.7647170091,
				"element": "H" 
			},
			{
				"x": 1.2903958404,
				"y": -1.7837303958,
				"z": -4.8962656664,
				"element": "H" 
			},
			{
				"x": 3.0442299566,
				"y": -1.8348255531,
				"z": -4.8575117398,
				"element": "H" 
			},
			{
				"x": 1.2851832867,
				"y": -0.1330478292,
				"z": -3.0091867224,
				"element": "H" 
			},
			{
				"x": 3.0254407564,
				"y": -0.2944022056,
				"z": -2.8520890871,
				"element": "H" 
			},
			{
				"x": 2.5721682773,
				"y": 1.7655659232,
				"z": -4.0171093524,
				"element": "H" 
			},
			{
				"x": 3.3246660554,
				"y": 0.6627533481,
				"z": -5.1559535093,
				"element": "H" 
			},
			{
				"x": 0.3080541906,
				"y": 1.1964430025,
				"z": -4.9756431061,
				"element": "H" 
			},
			{
				"x": 1.0805362664,
				"y": 0.161287446,
				"z": -6.1647451068,
				"element": "H" 
			},
			{
				"x": 2.3662131378,
				"y": 2.1309896974,
				"z": -7.0484566385,
				"element": "H" 
			},
			{
				"x": 1.5836776354,
				"y": 3.1678022363,
				"z": -5.8692634257,
				"element": "H" 
			},
			{
				"x": 0.1221131208,
				"y": 1.6142790545,
				"z": -8.0940190621,
				"element": "H" 
			},
			{
				"x": -0.6669870529,
				"y": 2.6573531241,
				"z": -6.9052063103,
				"element": "H" 
			},
			{
				"x": 0.4440506109,
				"y": 3.3533953869,
				"z": -8.0922781387,
				"element": "H" 
			}
		],
		 "valence_orbital": [ 
			{
				"type": "occ",
				"energy": -0.29245,
				"method": "rhf"
			},
			{
				"type": "occ",
				"energy": -0.28932,
				"method": "rhf"
			},
			{
				"type": "occ",
				"energy": -0.2811,
				"method": "rhf"
			},
			{
				"type": "occ",
				"energy": -0.26694,
				"method": "rhf"
			},
			{
				"type": "occ",
				"energy": -0.22418,
				"method": "rhf"
			},
			{
				"type": "unocc",
				"energy": 0.00236,
				"method": "rhf"
			},
			{
				"type": "unocc",
				"energy": 0.01326,
				"method": "rhf"
			},
			{
				"type": "unocc",
				"energy": 0.03361,
				"method": "rhf"
			},
			{
				"type": "unocc",
				"energy": 0.06135,
				"method": "rhf"
			},
			{
				"type": "unocc",
				"energy": 0.0699,
				"method": "rhf"
			}
		],
		"cosmo_sigma_profile": { 
			"-0.025": 0.0,
			"-0.024": 0.0,
			"-0.023": 0.0,
			"-0.022": 0.0,
			"-0.021": 0.0,
			"-0.02": 0.0,
			"-0.019": 0.0,
			"-0.018": 0.0,
			"-0.017": 0.0,
			"-0.016": 0.0,
			"-0.015": 0.0,
			"-0.014": 0.0,
			"-0.013": 0.0,
			"-0.012": 0.0,
			"-0.011": 0.0,
			"-0.01": 0.0,
			"-0.009": 0.0,
			"-0.008": 0.020734006549,
			"-0.007": 2.98598698135,
			"-0.006": 10.2660312369,
			"-0.005": 21.9691826726,
			"-0.004": 29.4702665292,
			"-0.003": 44.9928704505,
			"-0.002": 80.3645364309,
			"-0.001": 129.022872888,
			"0.0": 134.707408415,
			"0.001": 117.007338108,
			"0.002": 54.4492042052,
			"0.003": 13.7898564621,
			"0.004": 12.1644094779,
			"0.005": 14.5630894713,
			"0.006": 11.9231885205,
			"0.007": 7.41511041048,
			"0.008": 5.19966812904,
			"0.009": 4.18458291746,
			"0.01": 3.59937588598,
			"0.011": 2.56833030871,
			"0.012": 5.15910481444,
			"0.013": 1.62396189518,
			"0.014": 0.0,
			"0.015": 0.0,
			"0.016": 0.0,
			"0.017": 0.0,
			"0.018": 0.0,
			"0.019": 0.0,
			"0.02": 0.0,
			"0.021": 0.0,
			"0.022": 0.0,
			"0.023": 0.0,
			"0.024": 0.0,
			"0.025": 0.0
		}
	}
}
