{
	 "smiles": "CCCCCCC(C)C", 
	 "Tm": 192.95, 
	 "num_atms": 29, 
	 "gaussian": { 
		 "optdone": 1, 
		 "sigma_profile": "yes", 
		 "theory": "DFT", 
		 "functional": "B3LYP", 
		 "basiset": "6-31G**", 
		 "properties": { 
			 "R2extent": 2317.8945, 
			 "electric_dipole_moment_norm": 0.0908417304987, 
			 "electric_quadrupole_moment_norm": 0.367706037481, 
			 "total_energy": -355.039234714, 
			 "HOMO_LUMO_gap": 0.36566, 
			 "cosmo_polarized_energy": -0.76, 
			 "cosmo_cavitation_energy": 28.59, 
			 "cosmo_dispersion_energy": -19.86, 
			 "cosmo_repulsion_energy": 1.65, 
			 "cosmo_total_nonelectrostatic_energy": 10.38, 
			 "SMD_solvation_energy": 4.4 
		},
		"coords": [
			{
				"x": 2.3297430834,
				"y": 1.3367556411,
				"z": -0.0352268131,
				"element": "C" 
			},
			{
				"x": 1.6219940454,
				"y": 2.2887963522,
				"z": 0.9360600877,
				"element": "C" 
			},
			{
				"x": 0.8543176284,
				"y": 1.5843271887,
				"z": 2.0690971164,
				"element": "C" 
			},
			{
				"x": -0.3230863777,
				"y": 0.6928336081,
				"z": 1.6352482401,
				"element": "C" 
			},
			{
				"x": -1.4830697371,
				"y": 1.4574639173,
				"z": 0.9750997063,
				"element": "C" 
			},
			{
				"x": -2.7386234919,
				"y": 0.6057050871,
				"z": 0.6745381992,
				"element": "C" 
			},
			{
				"x": -2.8420484161,
				"y": -0.0584679832,
				"z": -0.7200059705,
				"element": "C" 
			},
			{
				"x": -2.9905499783,
				"y": 0.9760413895,
				"z": -1.8472038375,
				"element": "C" 
			},
			{
				"x": -1.7014180972,
				"y": -1.0403902004,
				"z": -1.0274788083,
				"element": "C" 
			},
			{
				"x": 1.6203978514,
				"y": 0.7030770093,
				"z": -0.5781361001,
				"element": "H" 
			},
			{
				"x": 2.9081000292,
				"y": 1.8921129248,
				"z": -0.781076713,
				"element": "H" 
			},
			{
				"x": 3.0227502504,
				"y": 0.6738515616,
				"z": 0.4962334045,
				"element": "H" 
			},
			{
				"x": 0.9429255473,
				"y": 2.9441908566,
				"z": 0.3758453073,
				"element": "H" 
			},
			{
				"x": 2.3690098332,
				"y": 2.9532064481,
				"z": 1.3892566248,
				"element": "H" 
			},
			{
				"x": 0.4790130793,
				"y": 2.346619691,
				"z": 2.7661013,
				"element": "H" 
			},
			{
				"x": 1.5642666082,
				"y": 0.9728694997,
				"z": 2.6432690098,
				"element": "H" 
			},
			{
				"x": -0.7108547202,
				"y": 0.1804092834,
				"z": 2.5263968721,
				"element": "H" 
			},
			{
				"x": 0.0370120422,
				"y": -0.1012864972,
				"z": 0.9716436133,
				"element": "H" 
			},
			{
				"x": -1.1370431353,
				"y": 1.948831405,
				"z": 0.0574625887,
				"element": "H" 
			},
			{
				"x": -1.7705072761,
				"y": 2.2739155731,
				"z": 1.6514678311,
				"element": "H" 
			},
			{
				"x": -2.8275676754,
				"y": -0.1750257258,
				"z": 1.4428271638,
				"element": "H" 
			},
			{
				"x": -3.6272844438,
				"y": 1.2394448298,
				"z": 0.7927629602,
				"element": "H" 
			},
			{
				"x": -3.7730746663,
				"y": -0.6440597367,
				"z": -0.6993147473,
				"element": "H" 
			},
			{
				"x": -2.0894220905,
				"y": 1.590354172,
				"z": -1.9555561128,
				"element": "H" 
			},
			{
				"x": -3.1642557155,
				"y": 0.4829348035,
				"z": -2.8100217075,
				"element": "H" 
			},
			{
				"x": -3.8329388655,
				"y": 1.6514365593,
				"z": -1.6605242493,
				"element": "H" 
			},
			{
				"x": -1.5857501463,
				"y": -1.7863330405,
				"z": -0.233581335,
				"element": "H" 
			},
			{
				"x": -0.7433223878,
				"y": -0.5211785932,
				"z": -1.14231644,
				"element": "H" 
			},
			{
				"x": -1.8931127777,
				"y": -1.5763360242,
				"z": -1.9638671908,
				"element": "H" 
			}
		],
		 "valence_orbital": [ 
			{
				"type": "occ",
				"energy": -0.31853,
				"method": "rhf"
			},
			{
				"type": "occ",
				"energy": -0.31436,
				"method": "rhf"
			},
			{
				"type": "occ",
				"energy": -0.3033,
				"method": "rhf"
			},
			{
				"type": "occ",
				"energy": -0.30172,
				"method": "rhf"
			},
			{
				"type": "occ",
				"energy": -0.29519,
				"method": "rhf"
			},
			{
				"type": "unocc",
				"energy": 0.07047,
				"method": "rhf"
			},
			{
				"type": "unocc",
				"energy": 0.09258,
				"method": "rhf"
			},
			{
				"type": "unocc",
				"energy": 0.10832,
				"method": "rhf"
			},
			{
				"type": "unocc",
				"energy": 0.11405,
				"method": "rhf"
			},
			{
				"type": "unocc",
				"energy": 0.13586,
				"method": "rhf"
			}
		],
		"cosmo_sigma_profile": { 
			"-0.025": 0.0,
			"-0.024": 0.0,
			"-0.023": 0.0,
			"-0.022": 0.0,
			"-0.021": 0.0,
			"-0.02": 0.0,
			"-0.019": 0.0,
			"-0.018": 0.0,
			"-0.017": 0.0,
			"-0.016": 0.0,
			"-0.015": 0.0,
			"-0.014": 0.0,
			"-0.013": 0.0,
			"-0.012": 0.0,
			"-0.011": 0.0,
			"-0.01": 0.0,
			"-0.009": 0.0,
			"-0.008": 0.0,
			"-0.007": 0.0,
			"-0.006": 0.0,
			"-0.005": 0.0,
			"-0.004": 0.0,
			"-0.003": 3.83868509355,
			"-0.002": 29.4544199138,
			"-0.001": 48.7814608083,
			"0.0": 53.419785864,
			"0.001": 50.1785368749,
			"0.002": 31.3322087422,
			"0.003": 1.45115632727,
			"0.004": 0.0,
			"0.005": 0.0,
			"0.006": 0.0,
			"0.007": 0.0,
			"0.008": 0.0,
			"0.009": 0.0,
			"0.01": 0.0,
			"0.011": 0.0,
			"0.012": 0.0,
			"0.013": 0.0,
			"0.014": 0.0,
			"0.015": 0.0,
			"0.016": 0.0,
			"0.017": 0.0,
			"0.018": 0.0,
			"0.019": 0.0,
			"0.02": 0.0,
			"0.021": 0.0,
			"0.022": 0.0,
			"0.023": 0.0,
			"0.024": 0.0,
			"0.025": 0.0
		}
	}
}
