{
	 "smiles": "COC1=CC=C(N)C(F)=C1F", 
	 "Tm": 312.15, 
	 "num_atms": 18, 
	 "gaussian": { 
		 "optdone": 1, 
		 "sigma_profile": "yes", 
		 "theory": "DFT", 
		 "functional": "B3LYP", 
		 "basiset": "6-31G**", 
		 "properties": { 
			 "R2extent": 4316.3477, 
			 "electric_dipole_moment_norm": 3.51682139154, 
			 "electric_quadrupole_moment_norm": 16.3141522179, 
			 "total_energy": -600.580997476, 
			 "HOMO_LUMO_gap": 0.19707, 
			 "cosmo_polarized_energy": -9.76, 
			 "cosmo_cavitation_energy": 22.91, 
			 "cosmo_dispersion_energy": -16.92, 
			 "cosmo_repulsion_energy": 1.33, 
			 "cosmo_total_nonelectrostatic_energy": 7.31, 
			 "SMD_solvation_energy": 5.62 
		},
		"coords": [
			{
				"x": -1.1209377516,
				"y": -3.1675242261,
				"z": 0.74025045,
				"element": "C" 
			},
			{
				"x": -1.2820300401,
				"y": -3.2248990653,
				"z": -0.6664874544,
				"element": "O" 
			},
			{
				"x": -0.7033727411,
				"y": -2.234278861,
				"z": -1.4056514978,
				"element": "C" 
			},
			{
				"x": 0.0326165773,
				"y": -1.1542324298,
				"z": -0.9129198759,
				"element": "C" 
			},
			{
				"x": 0.580047965,
				"y": -0.2013513195,
				"z": -1.7795850843,
				"element": "C" 
			},
			{
				"x": 0.409302754,
				"y": -0.2897213869,
				"z": -3.164405183,
				"element": "C" 
			},
			{
				"x": 0.9871050106,
				"y": 0.6019396667,
				"z": -4.0732490963,
				"element": "N" 
			},
			{
				"x": -0.3364976615,
				"y": -1.3771017602,
				"z": -3.6425679238,
				"element": "C" 
			},
			{
				"x": -0.5412873807,
				"y": -1.4862272456,
				"z": -4.9765625035,
				"element": "F" 
			},
			{
				"x": -0.8807908133,
				"y": -2.3275177046,
				"z": -2.7955798726,
				"element": "C" 
			},
			{
				"x": -1.590137236,
				"y": -3.3418238883,
				"z": -3.3150568163,
				"element": "F" 
			},
			{
				"x": -1.6464754126,
				"y": -4.0365266803,
				"z": 1.1389295696,
				"element": "H" 
			},
			{
				"x": -1.5614731864,
				"y": -2.2544187261,
				"z": 1.1624660519,
				"element": "H" 
			},
			{
				"x": -0.0630834478,
				"y": -3.220909515,
				"z": 1.0301124299,
				"element": "H" 
			},
			{
				"x": 0.1906328969,
				"y": -1.0444608632,
				"z": 0.1529967597,
				"element": "H" 
			},
			{
				"x": 1.1567371535,
				"y": 0.6226428251,
				"z": -1.3696164408,
				"element": "H" 
			},
			{
				"x": 0.5487179677,
				"y": 0.5891553047,
				"z": -4.9846187991,
				"element": "H" 
			},
			{
				"x": 1.0962253463,
				"y": 1.5433558753,
				"z": -3.7213547133,
				"element": "H" 
			}
		],
		 "valence_orbital": [ 
			{
				"type": "occ",
				"energy": -0.34403,
				"method": "rhf"
			},
			{
				"type": "occ",
				"energy": -0.33528,
				"method": "rhf"
			},
			{
				"type": "occ",
				"energy": -0.2819,
				"method": "rhf"
			},
			{
				"type": "occ",
				"energy": -0.23836,
				"method": "rhf"
			},
			{
				"type": "occ",
				"energy": -0.19414,
				"method": "rhf"
			},
			{
				"type": "unocc",
				"energy": 0.00293,
				"method": "rhf"
			},
			{
				"type": "unocc",
				"energy": 0.02199,
				"method": "rhf"
			},
			{
				"type": "unocc",
				"energy": 0.06112,
				"method": "rhf"
			},
			{
				"type": "unocc",
				"energy": 0.08663,
				"method": "rhf"
			},
			{
				"type": "unocc",
				"energy": 0.10094,
				"method": "rhf"
			}
		],
		"cosmo_sigma_profile": { 
			"-0.025": 0.0,
			"-0.024": 0.0,
			"-0.023": 0.0,
			"-0.022": 0.0,
			"-0.021": 0.0,
			"-0.02": 0.0,
			"-0.019": 0.0,
			"-0.018": 0.0,
			"-0.017": 0.0,
			"-0.016": 0.0,
			"-0.015": 0.0,
			"-0.014": 0.0,
			"-0.013": 0.620346224469,
			"-0.012": 1.79083466554,
			"-0.011": 2.8024657565,
			"-0.01": 1.76220547889,
			"-0.009": 3.22661558403,
			"-0.008": 2.48615557515,
			"-0.007": 4.21508430864,
			"-0.006": 9.19559824232,
			"-0.005": 13.7018418898,
			"-0.004": 13.2244446778,
			"-0.003": 11.7329543703,
			"-0.002": 7.11276904101,
			"-0.001": 5.42405552397,
			"0.0": 10.9242520092,
			"0.001": 13.7179481521,
			"0.002": 13.7517696377,
			"0.003": 16.3133141028,
			"0.004": 22.216242021,
			"0.005": 10.472105751,
			"0.006": 4.07918371962,
			"0.007": 2.75737202662,
			"0.008": 2.98089333647,
			"0.009": 2.59246318938,
			"0.01": 2.02410681605,
			"0.011": 1.21158065686,
			"0.012": 0.654983993332,
			"0.013": 0.819823522369,
			"0.014": 0.501729007746,
			"0.015": 0.267043900343,
			"0.016": 0.0,
			"0.017": 0.0,
			"0.018": 0.0,
			"0.019": 0.0,
			"0.02": 0.0,
			"0.021": 0.0,
			"0.022": 0.0,
			"0.023": 0.0,
			"0.024": 0.0,
			"0.025": 0.0
		}
	}
}
