{
	 "smiles": "OC(=O)C1=C(SC2=C1CCCC2)N1C=CC=C1", 
	 "Tm": 433.15, 
	 "num_atms": 30, 
	 "gaussian": { 
		 "optdone": 1, 
		 "sigma_profile": "yes", 
		 "theory": "DFT", 
		 "functional": "B3LYP", 
		 "basiset": "6-31G**", 
		 "properties": { 
			 "R2extent": 4732.5868, 
			 "electric_dipole_moment_norm": 3.29778169077, 
			 "electric_quadrupole_moment_norm": 5.31116790075, 
			 "total_energy": -1106.60166504, 
			 "HOMO_LUMO_gap": 0.163, 
			 "cosmo_polarized_energy": -10.19, 
			 "cosmo_cavitation_energy": 33.72, 
			 "cosmo_dispersion_energy": -25.23, 
			 "cosmo_repulsion_energy": 1.91, 
			 "cosmo_total_nonelectrostatic_energy": 10.39, 
			 "SMD_solvation_energy": 6.25 
		},
		"coords": [
			{
				"x": 1.6643929144,
				"y": -1.0323825338,
				"z": -2.3181804843,
				"element": "O" 
			},
			{
				"x": 1.4269443307,
				"y": -1.5097975648,
				"z": -1.0667473037,
				"element": "C" 
			},
			{
				"x": 2.0045063709,
				"y": -2.4979142142,
				"z": -0.6551595006,
				"element": "O" 
			},
			{
				"x": 0.4410875724,
				"y": -0.6937203606,
				"z": -0.3275976569,
				"element": "C" 
			},
			{
				"x": 0.4333127926,
				"y": -0.5973355861,
				"z": 1.0558861053,
				"element": "C" 
			},
			{
				"x": -0.7935744011,
				"y": 0.5205002924,
				"z": 1.6034937225,
				"element": "S" 
			},
			{
				"x": -1.2929952309,
				"y": 0.8628337835,
				"z": -0.0319272559,
				"element": "C" 
			},
			{
				"x": -0.5683201241,
				"y": 0.1468408529,
				"z": -0.9452317017,
				"element": "C" 
			},
			{
				"x": -0.8589989953,
				"y": 0.2628132106,
				"z": -2.4274227952,
				"element": "C" 
			},
			{
				"x": -2.2183393209,
				"y": 0.9314267408,
				"z": -2.6915819166,
				"element": "C" 
			},
			{
				"x": -2.4050038059,
				"y": 2.1880910957,
				"z": -1.831873722,
				"element": "C" 
			},
			{
				"x": -2.4068698343,
				"y": 1.8287694658,
				"z": -0.3361112179,
				"element": "C" 
			},
			{
				"x": 1.2347978443,
				"y": -1.2021310478,
				"z": 2.0287674955,
				"element": "N" 
			},
			{
				"x": 1.4665149483,
				"y": -2.5652710797,
				"z": 2.1969491784,
				"element": "C" 
			},
			{
				"x": 2.1410422557,
				"y": -2.7392565559,
				"z": 3.3764595529,
				"element": "C" 
			},
			{
				"x": 2.3282724486,
				"y": -1.4504600118,
				"z": 3.9675468895,
				"element": "C" 
			},
			{
				"x": 1.7572824044,
				"y": -0.5268519149,
				"z": 3.1324518141,
				"element": "C" 
			},
			{
				"x": 2.3120916907,
				"y": -1.6452849599,
				"z": -2.7047243511,
				"element": "H" 
			},
			{
				"x": -0.8281979522,
				"y": -0.7265361801,
				"z": -2.8945324728,
				"element": "H" 
			},
			{
				"x": -0.0582615101,
				"y": 0.8367823404,
				"z": -2.909968008,
				"element": "H" 
			},
			{
				"x": -2.3011649301,
				"y": 1.1800305191,
				"z": -3.7553318382,
				"element": "H" 
			},
			{
				"x": -3.0261695288,
				"y": 0.2211947194,
				"z": -2.4697798416,
				"element": "H" 
			},
			{
				"x": -3.3393217583,
				"y": 2.6994066714,
				"z": -2.0880146331,
				"element": "H" 
			},
			{
				"x": -1.5886336302,
				"y": 2.8928433892,
				"z": -2.0360257908,
				"element": "H" 
			},
			{
				"x": -2.3078234614,
				"y": 2.7342648057,
				"z": 0.2749167515,
				"element": "H" 
			},
			{
				"x": -3.3733020218,
				"y": 1.3806848548,
				"z": -0.063721262,
				"element": "H" 
			},
			{
				"x": 1.1481514458,
				"y": -3.2629385552,
				"z": 1.4425884123,
				"element": "H" 
			},
			{
				"x": 2.4733486657,
				"y": -3.6882125069,
				"z": 3.7732814802,
				"element": "H" 
			},
			{
				"x": 2.8395737938,
				"y": -1.2292909163,
				"z": 4.8940173631,
				"element": "H" 
			},
			{
				"x": 1.6960570272,
				"y": 0.5490012465,
				"z": 3.1904729872,
				"element": "H" 
			}
		],
		 "valence_orbital": [ 
			{
				"type": "occ",
				"energy": -0.27849,
				"method": "rhf"
			},
			{
				"type": "occ",
				"energy": -0.2615,
				"method": "rhf"
			},
			{
				"type": "occ",
				"energy": -0.25352,
				"method": "rhf"
			},
			{
				"type": "occ",
				"energy": -0.21339,
				"method": "rhf"
			},
			{
				"type": "occ",
				"energy": -0.20707,
				"method": "rhf"
			},
			{
				"type": "unocc",
				"energy": -0.04407,
				"method": "rhf"
			},
			{
				"type": "unocc",
				"energy": 0.00157,
				"method": "rhf"
			},
			{
				"type": "unocc",
				"energy": 0.01335,
				"method": "rhf"
			},
			{
				"type": "unocc",
				"energy": 0.04942,
				"method": "rhf"
			},
			{
				"type": "unocc",
				"energy": 0.07771,
				"method": "rhf"
			}
		],
		"cosmo_sigma_profile": { 
			"-0.025": 0.0,
			"-0.024": 0.0,
			"-0.023": 0.0,
			"-0.022": 0.0,
			"-0.021": 0.0,
			"-0.02": 0.0,
			"-0.019": 0.0,
			"-0.018": 0.510983210175,
			"-0.017": 0.8050110251,
			"-0.016": 1.11648536019,
			"-0.015": 0.705541730761,
			"-0.014": 0.701075549489,
			"-0.013": 0.531072844188,
			"-0.012": 0.658935197546,
			"-0.011": 0.521276347605,
			"-0.01": 0.955095676287,
			"-0.009": 0.606888196369,
			"-0.008": 1.08157139881,
			"-0.007": 1.99307728751,
			"-0.006": 5.35548246189,
			"-0.005": 8.54369323733,
			"-0.004": 15.4376015743,
			"-0.003": 27.140640243,
			"-0.002": 33.2039476669,
			"-0.001": 34.1223276483,
			"0.0": 29.1768564322,
			"0.001": 22.2492212393,
			"0.002": 18.9230262292,
			"0.003": 15.9654939631,
			"0.004": 9.90932644198,
			"0.005": 7.14634706278,
			"0.006": 8.93082475855,
			"0.007": 8.00722323051,
			"0.008": 5.50679772898,
			"0.009": 2.01247595833,
			"0.01": 2.40920585403,
			"0.011": 2.8248816281,
			"0.012": 2.17218757045,
			"0.013": 0.0829370247448,
			"0.014": 0.0,
			"0.015": 0.0,
			"0.016": 0.0,
			"0.017": 0.0,
			"0.018": 0.0,
			"0.019": 0.0,
			"0.02": 0.0,
			"0.021": 0.0,
			"0.022": 0.0,
			"0.023": 0.0,
			"0.024": 0.0,
			"0.025": 0.0
		}
	}
}
