{
	 "smiles": "OC(=O)C1=NC2=C(C=CC=C2)C(OCC2CC2)=N1", 
	 "Tm": 383.15, 
	 "num_atms": 30, 
	 "gaussian": { 
		 "optdone": 1, 
		 "sigma_profile": "yes", 
		 "theory": "DFT", 
		 "functional": "B3LYP", 
		 "basiset": "6-31G**", 
		 "properties": { 
			 "R2extent": 4960.2687, 
			 "electric_dipole_moment_norm": 6.23879469529, 
			 "electric_quadrupole_moment_norm": 17.3319951639, 
			 "total_energy": -837.787034256, 
			 "HOMO_LUMO_gap": 0.17421, 
			 "cosmo_polarized_energy": -13.97, 
			 "cosmo_cavitation_energy": 34.48, 
			 "cosmo_dispersion_energy": -24.66, 
			 "cosmo_repulsion_energy": 1.91, 
			 "cosmo_total_nonelectrostatic_energy": 11.73, 
			 "SMD_solvation_energy": 5.65 
		},
		"coords": [
			{
				"x": 0.2847069278,
				"y": 1.6776261029,
				"z": -3.7378857924,
				"element": "O" 
			},
			{
				"x": 0.7981919739,
				"y": 0.8847492367,
				"z": -2.7836752505,
				"element": "C" 
			},
			{
				"x": 1.8175858678,
				"y": 0.2529236598,
				"z": -2.9201607848,
				"element": "O" 
			},
			{
				"x": -0.0344133754,
				"y": 0.8772566918,
				"z": -1.5099612581,
				"element": "C" 
			},
			{
				"x": -1.0795995276,
				"y": 1.6784171052,
				"z": -1.5077004499,
				"element": "N" 
			},
			{
				"x": -1.8271499855,
				"y": 1.7122740891,
				"z": -0.359428655,
				"element": "C" 
			},
			{
				"x": -1.4726991494,
				"y": 0.9181579567,
				"z": 0.7673134133,
				"element": "C" 
			},
			{
				"x": -2.2503589833,
				"y": 0.968788749,
				"z": 1.9445008259,
				"element": "C" 
			},
			{
				"x": -3.3572991563,
				"y": 1.7927922921,
				"z": 1.9965363806,
				"element": "C" 
			},
			{
				"x": -3.7137766401,
				"y": 2.5828106405,
				"z": 0.8793389482,
				"element": "C" 
			},
			{
				"x": -2.9662326593,
				"y": 2.5476010232,
				"z": -0.2803500604,
				"element": "C" 
			},
			{
				"x": -0.3075018613,
				"y": 0.0926686041,
				"z": 0.601720621,
				"element": "C" 
			},
			{
				"x": 0.0366139219,
				"y": -0.672344782,
				"z": 1.6371344101,
				"element": "O" 
			},
			{
				"x": 1.19751964,
				"y": -1.5514002412,
				"z": 1.5149780995,
				"element": "C" 
			},
			{
				"x": 2.4762863628,
				"y": -0.8731092859,
				"z": 1.9226227804,
				"element": "C" 
			},
			{
				"x": 3.7840367634,
				"y": -1.4831353653,
				"z": 1.4625251298,
				"element": "C" 
			},
			{
				"x": 3.3385924299,
				"y": -0.1556251515,
				"z": 0.9097197132,
				"element": "C" 
			},
			{
				"x": 0.3888062928,
				"y": 0.0708304335,
				"z": -0.5136488134,
				"element": "N" 
			},
			{
				"x": -0.5225419476,
				"y": 2.0777160522,
				"z": -3.3515886473,
				"element": "H" 
			},
			{
				"x": -1.9639667233,
				"y": 0.3565803042,
				"z": 2.7921655642,
				"element": "H" 
			},
			{
				"x": -3.9596078161,
				"y": 1.8365465998,
				"z": 2.8986844532,
				"element": "H" 
			},
			{
				"x": -4.587563981,
				"y": 3.2252098138,
				"z": 0.937432347,
				"element": "H" 
			},
			{
				"x": -3.2244832149,
				"y": 3.147733955,
				"z": -1.146367524,
				"element": "H" 
			},
			{
				"x": 0.9539228691,
				"y": -2.3752938329,
				"z": 2.1909725366,
				"element": "H" 
			},
			{
				"x": 1.2547297044,
				"y": -1.9219286186,
				"z": 0.4893476334,
				"element": "H" 
			},
			{
				"x": 2.4620392572,
				"y": -0.4715915506,
				"z": 2.9337417074,
				"element": "H" 
			},
			{
				"x": 4.6055849635,
				"y": -1.511241914,
				"z": 2.1715498893,
				"element": "H" 
			},
			{
				"x": 3.7395497534,
				"y": -2.3455565095,
				"z": 0.8029586758,
				"element": "H" 
			},
			{
				"x": 2.985092654,
				"y": -0.1219108421,
				"z": -0.1156108102,
				"element": "H" 
			},
			{
				"x": 3.8611356393,
				"y": 0.7366547841,
				"z": 1.2416349171,
				"element": "H" 
			}
		],
		 "valence_orbital": [ 
			{
				"type": "occ",
				"energy": -0.28934,
				"method": "rhf"
			},
			{
				"type": "occ",
				"energy": -0.28041,
				"method": "rhf"
			},
			{
				"type": "occ",
				"energy": -0.2768,
				"method": "rhf"
			},
			{
				"type": "occ",
				"energy": -0.262,
				"method": "rhf"
			},
			{
				"type": "occ",
				"energy": -0.25004,
				"method": "rhf"
			},
			{
				"type": "unocc",
				"energy": -0.07583,
				"method": "rhf"
			},
			{
				"type": "unocc",
				"energy": -0.05485,
				"method": "rhf"
			},
			{
				"type": "unocc",
				"energy": -0.00079,
				"method": "rhf"
			},
			{
				"type": "unocc",
				"energy": 0.03713,
				"method": "rhf"
			},
			{
				"type": "unocc",
				"energy": 0.0816,
				"method": "rhf"
			}
		],
		"cosmo_sigma_profile": { 
			"-0.025": 0.0,
			"-0.024": 0.0,
			"-0.023": 0.0,
			"-0.022": 0.0,
			"-0.021": 0.0,
			"-0.02": 0.0,
			"-0.019": 0.0,
			"-0.018": 0.0,
			"-0.017": 0.0,
			"-0.016": 0.0,
			"-0.015": 0.0,
			"-0.014": 0.0,
			"-0.013": 0.179630914752,
			"-0.012": 0.537304611044,
			"-0.011": 0.792085405901,
			"-0.01": 0.549750150876,
			"-0.009": 0.386118344308,
			"-0.008": 1.11418067454,
			"-0.007": 6.87193590682,
			"-0.006": 13.4319693096,
			"-0.005": 20.6860931548,
			"-0.004": 24.1314188647,
			"-0.003": 27.0879512804,
			"-0.002": 19.3777507119,
			"-0.001": 20.6287482645,
			"0.0": 22.700350124,
			"0.001": 24.8076392367,
			"0.002": 24.5253873395,
			"0.003": 18.3159325229,
			"0.004": 9.82702901731,
			"0.005": 7.4177352746,
			"0.006": 4.1169476487,
			"0.007": 3.6904067447,
			"0.008": 3.74928437413,
			"0.009": 5.13670192383,
			"0.01": 5.18822236179,
			"0.011": 5.24657550336,
			"0.012": 4.1613048215,
			"0.013": 1.17738587616,
			"0.014": 0.00492734075728,
			"0.015": 0.0,
			"0.016": 0.0,
			"0.017": 0.0,
			"0.018": 0.0,
			"0.019": 0.0,
			"0.02": 0.0,
			"0.021": 0.0,
			"0.022": 0.0,
			"0.023": 0.0,
			"0.024": 0.0,
			"0.025": 0.0
		}
	}
}
