{
	 "smiles": "FC(F)(F)C1=C(C=C2SC(=O)NC2=O)C=CC=C1", 
	 "Tm": 444.15, 
	 "num_atms": 24, 
	 "gaussian": { 
		 "optdone": 1, 
		 "sigma_profile": "yes", 
		 "theory": "DFT", 
		 "functional": "B3LYP", 
		 "basiset": "6-31G**", 
		 "properties": { 
			 "R2extent": 6021.9428, 
			 "electric_dipole_moment_norm": 3.28363740081, 
			 "electric_quadrupole_moment_norm": 20.2567525319, 
			 "total_energy": -1325.71620543, 
			 "HOMO_LUMO_gap": 0.15113, 
			 "cosmo_polarized_energy": -12.47, 
			 "cosmo_cavitation_energy": 32.21, 
			 "cosmo_dispersion_energy": -23.31, 
			 "cosmo_repulsion_energy": 1.68, 
			 "cosmo_total_nonelectrostatic_energy": 10.59, 
			 "SMD_solvation_energy": 8.0 
		},
		"coords": [
			{
				"x": -3.9608560847,
				"y": -0.1181665123,
				"z": -0.353842001,
				"element": "F" 
			},
			{
				"x": -3.654153073,
				"y": 0.9494670255,
				"z": -1.122992663,
				"element": "C" 
			},
			{
				"x": -3.4042908547,
				"y": 0.4756013596,
				"z": -2.369253816,
				"element": "F" 
			},
			{
				"x": -4.7632512498,
				"y": 1.7117562842,
				"z": -1.2094109333,
				"element": "F" 
			},
			{
				"x": -2.4763441196,
				"y": 1.7190181818,
				"z": -0.5714544781,
				"element": "C" 
			},
			{
				"x": -1.2326647346,
				"y": 1.0762021591,
				"z": -0.340077774,
				"element": "C" 
			},
			{
				"x": -1.047681237,
				"y": -0.3402579395,
				"z": -0.6622287616,
				"element": "C" 
			},
			{
				"x": -0.1867370762,
				"y": -1.2307709153,
				"z": -0.1274387283,
				"element": "C" 
			},
			{
				"x": 0.9781034003,
				"y": -1.0381963954,
				"z": 1.1995966388,
				"element": "S" 
			},
			{
				"x": 1.4493284977,
				"y": -2.7906043771,
				"z": 1.1174589389,
				"element": "C" 
			},
			{
				"x": 2.2638001392,
				"y": -3.3144968859,
				"z": 1.8335480722,
				"element": "O" 
			},
			{
				"x": 0.7260085036,
				"y": -3.3963638138,
				"z": 0.10565971,
				"element": "N" 
			},
			{
				"x": -0.185046104,
				"y": -2.6400489617,
				"z": -0.6309593664,
				"element": "C" 
			},
			{
				"x": -0.862991345,
				"y": -3.0859172147,
				"z": -1.5346123255,
				"element": "O" 
			},
			{
				"x": -0.1820463223,
				"y": 1.8555773887,
				"z": 0.1765015957,
				"element": "C" 
			},
			{
				"x": -0.3534225593,
				"y": 3.2066439824,
				"z": 0.4694060917,
				"element": "C" 
			},
			{
				"x": -1.586904343,
				"y": 3.8170786771,
				"z": 0.2522381122,
				"element": "C" 
			},
			{
				"x": -2.6433843141,
				"y": 3.0691326234,
				"z": -0.2691019344,
				"element": "C" 
			},
			{
				"x": -1.6888245584,
				"y": -0.7684940422,
				"z": -1.427014691,
				"element": "H" 
			},
			{
				"x": 0.8547112073,
				"y": -4.3822218283,
				"z": -0.0857381498,
				"element": "H" 
			},
			{
				"x": 0.7954199845,
				"y": 1.407722664,
				"z": 0.3155861533,
				"element": "H" 
			},
			{
				"x": 0.4811235971,
				"y": 3.7805284895,
				"z": 0.8604522897,
				"element": "H" 
			},
			{
				"x": -1.7295165544,
				"y": 4.8685525212,
				"z": 0.4805029034,
				"element": "H" 
			},
			{
				"x": -3.6063807996,
				"y": 3.5340575297,
				"z": -0.4424248835,
				"element": "H" 
			}
		],
		 "valence_orbital": [ 
			{
				"type": "occ",
				"energy": -0.30931,
				"method": "rhf"
			},
			{
				"type": "occ",
				"energy": -0.2943,
				"method": "rhf"
			},
			{
				"type": "occ",
				"energy": -0.28418,
				"method": "rhf"
			},
			{
				"type": "occ",
				"energy": -0.2789,
				"method": "rhf"
			},
			{
				"type": "occ",
				"energy": -0.24301,
				"method": "rhf"
			},
			{
				"type": "unocc",
				"energy": -0.09188,
				"method": "rhf"
			},
			{
				"type": "unocc",
				"energy": -0.03992,
				"method": "rhf"
			},
			{
				"type": "unocc",
				"energy": -0.02137,
				"method": "rhf"
			},
			{
				"type": "unocc",
				"energy": -0.00452,
				"method": "rhf"
			},
			{
				"type": "unocc",
				"energy": 0.01174,
				"method": "rhf"
			}
		],
		"cosmo_sigma_profile": { 
			"-0.025": 0.0,
			"-0.024": 0.0,
			"-0.023": 0.0,
			"-0.022": 0.0,
			"-0.021": 0.0,
			"-0.02": 0.0,
			"-0.019": 0.0,
			"-0.018": 0.489211792884,
			"-0.017": 1.27850280283,
			"-0.016": 1.22404026445,
			"-0.015": 0.219482618117,
			"-0.014": 0.747378001162,
			"-0.013": 1.62737644608,
			"-0.012": 1.1957098597,
			"-0.011": 0.453694942658,
			"-0.01": 0.80944439899,
			"-0.009": 1.11504288384,
			"-0.008": 1.70035711914,
			"-0.007": 8.33224427141,
			"-0.006": 11.5534594265,
			"-0.005": 12.2280610763,
			"-0.004": 12.923510723,
			"-0.003": 15.9014649578,
			"-0.002": 16.7414034201,
			"-0.001": 22.1989896477,
			"0.0": 28.14237776,
			"0.001": 26.7774392079,
			"0.002": 38.6188427234,
			"0.003": 21.9635810304,
			"0.004": 4.04462743798,
			"0.005": 2.26571487454,
			"0.006": 2.67291087309,
			"0.007": 2.70316854558,
			"0.008": 3.22998652342,
			"0.009": 4.76956253907,
			"0.01": 8.6594727243,
			"0.011": 7.17051664634,
			"0.012": 0.637378498312,
			"0.013": 0.0,
			"0.014": 0.0,
			"0.015": 0.0,
			"0.016": 0.0,
			"0.017": 0.0,
			"0.018": 0.0,
			"0.019": 0.0,
			"0.02": 0.0,
			"0.021": 0.0,
			"0.022": 0.0,
			"0.023": 0.0,
			"0.024": 0.0,
			"0.025": 0.0
		}
	}
}
