{
	 "smiles": "ClCC(=O)C1=CN=C(S1)N1CCCCC1", 
	 "Tm": 392.15, 
	 "num_atms": 28, 
	 "gaussian": { 
		 "optdone": 1, 
		 "sigma_profile": "yes", 
		 "theory": "DFT", 
		 "functional": "B3LYP", 
		 "basiset": "6-31G**", 
		 "properties": { 
			 "R2extent": 8733.6062, 
			 "electric_dipole_moment_norm": 6.67187590637, 
			 "electric_quadrupole_moment_norm": 20.6812764589, 
			 "total_energy": -1432.00130402, 
			 "HOMO_LUMO_gap": 0.15121, 
			 "cosmo_polarized_energy": -12.56, 
			 "cosmo_cavitation_energy": 33.39, 
			 "cosmo_dispersion_energy": -25.1, 
			 "cosmo_repulsion_energy": 1.94, 
			 "cosmo_total_nonelectrostatic_energy": 10.23, 
			 "SMD_solvation_energy": 3.39 
		},
		"coords": [
			{
				"x": 2.7377103842,
				"y": 3.1514074177,
				"z": 5.3090551444,
				"element": "Cl" 
			},
			{
				"x": 2.0159894652,
				"y": 4.517961449,
				"z": 4.3524112972,
				"element": "C" 
			},
			{
				"x": 2.4483864116,
				"y": 4.5034369974,
				"z": 2.883159803,
				"element": "C" 
			},
			{
				"x": 3.1116428321,
				"y": 5.4446984507,
				"z": 2.4601726584,
				"element": "O" 
			},
			{
				"x": 2.0181300076,
				"y": 3.4179358603,
				"z": 2.0119435058,
				"element": "C" 
			},
			{
				"x": 2.2741812545,
				"y": 3.3496745724,
				"z": 0.6579023584,
				"element": "C" 
			},
			{
				"x": 1.7667645175,
				"y": 2.3052750068,
				"z": -0.0374835435,
				"element": "N" 
			},
			{
				"x": 1.0790575152,
				"y": 1.505725072,
				"z": 0.7660868209,
				"element": "C" 
			},
			{
				"x": 1.0333162301,
				"y": 2.0191263144,
				"z": 2.4628032963,
				"element": "S" 
			},
			{
				"x": 0.4602436684,
				"y": 0.3769914835,
				"z": 0.3591513938,
				"element": "N" 
			},
			{
				"x": -0.28877361,
				"y": -0.4564686489,
				"z": 1.3058922896,
				"element": "C" 
			},
			{
				"x": -0.6166970222,
				"y": -1.8121720244,
				"z": 0.6774821189,
				"element": "C" 
			},
			{
				"x": -1.4279587787,
				"y": -1.6699743336,
				"z": -0.625588017,
				"element": "C" 
			},
			{
				"x": -0.9510075122,
				"y": -0.4607981695,
				"z": -1.4726064407,
				"element": "C" 
			},
			{
				"x": 0.4472819849,
				"y": 0.0148820204,
				"z": -1.0680278094,
				"element": "C" 
			},
			{
				"x": 0.9314030402,
				"y": 4.431327008,
				"z": 4.4549993336,
				"element": "H" 
			},
			{
				"x": 2.3687804435,
				"y": 5.446537272,
				"z": 4.7971997997,
				"element": "H" 
			},
			{
				"x": 2.8597444361,
				"y": 4.1049487923,
				"z": 0.1459546852,
				"element": "H" 
			},
			{
				"x": -1.2130372765,
				"y": 0.0581232353,
				"z": 1.6124429536,
				"element": "H" 
			},
			{
				"x": 0.316008278,
				"y": -0.5983826547,
				"z": 2.2106532507,
				"element": "H" 
			},
			{
				"x": -1.1631157431,
				"y": -2.4156886232,
				"z": 1.4090578554,
				"element": "H" 
			},
			{
				"x": 0.3234595645,
				"y": -2.3401506971,
				"z": 0.4805637096,
				"element": "H" 
			},
			{
				"x": -1.3423986271,
				"y": -2.5990863063,
				"z": -1.1988529324,
				"element": "H" 
			},
			{
				"x": -2.490917123,
				"y": -1.5519207936,
				"z": -0.3880219085,
				"element": "H" 
			},
			{
				"x": -0.9455051091,
				"y": -0.7094690204,
				"z": -2.5388958938,
				"element": "H" 
			},
			{
				"x": -1.6429590284,
				"y": 0.3802801251,
				"z": -1.3522190305,
				"element": "H" 
			},
			{
				"x": 1.197101733,
				"y": -0.7651101355,
				"z": -1.25953442,
				"element": "H" 
			},
			{
				"x": 0.7493680637,
				"y": 0.8990903299,
				"z": -1.6290022788,
				"element": "H" 
			}
		],
		 "valence_orbital": [ 
			{
				"type": "occ",
				"energy": -0.29399,
				"method": "rhf"
			},
			{
				"type": "occ",
				"energy": -0.28193,
				"method": "rhf"
			},
			{
				"type": "occ",
				"energy": -0.27882,
				"method": "rhf"
			},
			{
				"type": "occ",
				"energy": -0.24749,
				"method": "rhf"
			},
			{
				"type": "occ",
				"energy": -0.20842,
				"method": "rhf"
			},
			{
				"type": "unocc",
				"energy": -0.05721,
				"method": "rhf"
			},
			{
				"type": "unocc",
				"energy": 0.00748,
				"method": "rhf"
			},
			{
				"type": "unocc",
				"energy": 0.01087,
				"method": "rhf"
			},
			{
				"type": "unocc",
				"energy": 0.04084,
				"method": "rhf"
			},
			{
				"type": "unocc",
				"energy": 0.05942,
				"method": "rhf"
			}
		],
		"cosmo_sigma_profile": { 
			"-0.025": 0.0,
			"-0.024": 0.0,
			"-0.023": 0.0,
			"-0.022": 0.0,
			"-0.021": 0.0,
			"-0.02": 0.0,
			"-0.019": 0.0,
			"-0.018": 0.0,
			"-0.017": 0.0,
			"-0.016": 0.0,
			"-0.015": 0.0,
			"-0.014": 0.0,
			"-0.013": 0.0,
			"-0.012": 0.0,
			"-0.011": 0.0,
			"-0.01": 0.0,
			"-0.009": 1.30050899924,
			"-0.008": 4.16856368522,
			"-0.007": 5.29842730319,
			"-0.006": 6.60842053328,
			"-0.005": 13.7113274848,
			"-0.004": 26.9297499338,
			"-0.003": 36.6531743582,
			"-0.002": 27.1640594064,
			"-0.001": 20.9127088779,
			"0.0": 22.5437549343,
			"0.001": 17.5053766919,
			"0.002": 16.2170623502,
			"0.003": 10.8099840298,
			"0.004": 11.7896002439,
			"0.005": 15.0081040508,
			"0.006": 8.38716967158,
			"0.007": 2.24947817732,
			"0.008": 2.41018832898,
			"0.009": 2.69857969306,
			"0.01": 3.17988454933,
			"0.011": 4.63302593541,
			"0.012": 5.24058233851,
			"0.013": 1.746101923,
			"0.014": 0.0135785890097,
			"0.015": 0.0,
			"0.016": 0.0,
			"0.017": 0.0,
			"0.018": 0.0,
			"0.019": 0.0,
			"0.02": 0.0,
			"0.021": 0.0,
			"0.022": 0.0,
			"0.023": 0.0,
			"0.024": 0.0,
			"0.025": 0.0
		}
	}
}
