{
	 "smiles": "ClCC1=NC2=C(C(=CS2)C2=CC=CC=C2)C(=O)N1", 
	 "Tm": 501.15, 
	 "num_atms": 27, 
	 "gaussian": { 
		 "optdone": 1, 
		 "sigma_profile": "yes", 
		 "theory": "DFT", 
		 "functional": "B3LYP", 
		 "basiset": "6-31G**", 
		 "properties": { 
			 "R2extent": 7567.8118, 
			 "electric_dipole_moment_norm": 1.74820372097, 
			 "electric_quadrupole_moment_norm": 11.1862977834, 
			 "total_energy": -1543.93634841, 
			 "HOMO_LUMO_gap": 0.15781, 
			 "cosmo_polarized_energy": -14.46, 
			 "cosmo_cavitation_energy": 34.93, 
			 "cosmo_dispersion_energy": -26.21, 
			 "cosmo_repulsion_energy": 1.97, 
			 "cosmo_total_nonelectrostatic_energy": 10.69, 
			 "SMD_solvation_energy": 3.97 
		},
		"coords": [
			{
				"x": -5.7522588509,
				"y": 2.6019594599,
				"z": 0.6198485046,
				"element": "Cl" 
			},
			{
				"x": -4.1935443468,
				"y": 2.6900822368,
				"z": 1.5470807591,
				"element": "C" 
			},
			{
				"x": -3.0305929957,
				"y": 2.0924029844,
				"z": 0.8021145807,
				"element": "C" 
			},
			{
				"x": -1.895865276,
				"y": 2.7298621084,
				"z": 0.8257547019,
				"element": "N" 
			},
			{
				"x": -0.8639599677,
				"y": 2.0874968364,
				"z": 0.2063460422,
				"element": "C" 
			},
			{
				"x": -0.9039293095,
				"y": 0.8574236208,
				"z": -0.4558315628,
				"element": "C" 
			},
			{
				"x": 0.3832814744,
				"y": 0.4598989282,
				"z": -0.9821067099,
				"element": "C" 
			},
			{
				"x": 1.3337232374,
				"y": 1.4095902449,
				"z": -0.6970297529,
				"element": "C" 
			},
			{
				"x": 0.7346157754,
				"y": 2.7778531186,
				"z": 0.1903738625,
				"element": "S" 
			},
			{
				"x": 0.724584383,
				"y": -0.7744973702,
				"z": -1.7315861704,
				"element": "C" 
			},
			{
				"x": 1.9174724677,
				"y": -1.4547099332,
				"z": -1.4325392347,
				"element": "C" 
			},
			{
				"x": 2.3027594681,
				"y": -2.578244202,
				"z": -2.1627981204,
				"element": "C" 
			},
			{
				"x": 1.4999913724,
				"y": -3.0432040574,
				"z": -3.2052007503,
				"element": "C" 
			},
			{
				"x": 0.3094565831,
				"y": -2.3785441168,
				"z": -3.5070042689,
				"element": "C" 
			},
			{
				"x": -0.0779126605,
				"y": -1.2555654544,
				"z": -2.7785523394,
				"element": "C" 
			},
			{
				"x": -2.1803189981,
				"y": 0.1530688964,
				"z": -0.4814994455,
				"element": "C" 
			},
			{
				"x": -2.459823577,
				"y": -0.9218196797,
				"z": -0.9901263574,
				"element": "O" 
			},
			{
				"x": -3.1917964089,
				"y": 0.8803244938,
				"z": 0.198870519,
				"element": "N" 
			},
			{
				"x": -3.9746026145,
				"y": 3.7362255514,
				"z": 1.7495362492,
				"element": "H" 
			},
			{
				"x": -4.3714249565,
				"y": 2.1601823493,
				"z": 2.4859546896,
				"element": "H" 
			},
			{
				"x": 2.3718788328,
				"y": 1.3864482163,
				"z": -0.9976557324,
				"element": "H" 
			},
			{
				"x": 2.5333944812,
				"y": -1.1101346603,
				"z": -0.606849531,
				"element": "H" 
			},
			{
				"x": 3.2250433239,
				"y": -3.093979234,
				"z": -1.9106886441,
				"element": "H" 
			},
			{
				"x": 1.7956342621,
				"y": -3.9203526803,
				"z": -3.7736544142,
				"element": "H" 
			},
			{
				"x": -0.3233150047,
				"y": -2.7355984747,
				"z": -4.3144280866,
				"element": "H" 
			},
			{
				"x": -1.0086035801,
				"y": -0.7551082351,
				"z": -3.0148264147,
				"element": "H" 
			},
			{
				"x": -4.1105871146,
				"y": 0.4513390523,
				"z": 0.1670976263,
				"element": "H" 
			}
		],
		 "valence_orbital": [ 
			{
				"type": "occ",
				"energy": -0.27764,
				"method": "rhf"
			},
			{
				"type": "occ",
				"energy": -0.2706,
				"method": "rhf"
			},
			{
				"type": "occ",
				"energy": -0.24726,
				"method": "rhf"
			},
			{
				"type": "occ",
				"energy": -0.24384,
				"method": "rhf"
			},
			{
				"type": "occ",
				"energy": -0.22011,
				"method": "rhf"
			},
			{
				"type": "unocc",
				"energy": -0.0623,
				"method": "rhf"
			},
			{
				"type": "unocc",
				"energy": -0.02619,
				"method": "rhf"
			},
			{
				"type": "unocc",
				"energy": -0.01302,
				"method": "rhf"
			},
			{
				"type": "unocc",
				"energy": 0.0027,
				"method": "rhf"
			},
			{
				"type": "unocc",
				"energy": 0.00965,
				"method": "rhf"
			}
		],
		"cosmo_sigma_profile": { 
			"-0.025": 0.0,
			"-0.024": 0.0,
			"-0.023": 0.0,
			"-0.022": 0.0,
			"-0.021": 0.0,
			"-0.02": 0.0,
			"-0.019": 0.0,
			"-0.018": 0.0,
			"-0.017": 0.0,
			"-0.016": 0.0,
			"-0.015": 0.362723865706,
			"-0.014": 0.622604979612,
			"-0.013": 1.23632822602,
			"-0.012": 0.991319666926,
			"-0.011": 1.05909568993,
			"-0.01": 3.83939209149,
			"-0.009": 6.55921294046,
			"-0.008": 5.87934541597,
			"-0.007": 6.260229988,
			"-0.006": 10.1758125982,
			"-0.005": 15.8375860759,
			"-0.004": 19.3790833178,
			"-0.003": 20.6220549815,
			"-0.002": 17.8131057426,
			"-0.001": 16.4873164346,
			"0.0": 22.6034541283,
			"0.001": 26.2719017037,
			"0.002": 23.9949186804,
			"0.003": 20.4937010308,
			"0.004": 16.2109933011,
			"0.005": 17.6414492605,
			"0.006": 9.04918399174,
			"0.007": 3.14166916048,
			"0.008": 2.95575003456,
			"0.009": 3.09519461285,
			"0.01": 1.90602711403,
			"0.011": 3.45464687666,
			"0.012": 4.57913482442,
			"0.013": 2.98483285793,
			"0.014": 0.107666773645,
			"0.015": 0.0,
			"0.016": 0.0,
			"0.017": 0.0,
			"0.018": 0.0,
			"0.019": 0.0,
			"0.02": 0.0,
			"0.021": 0.0,
			"0.022": 0.0,
			"0.023": 0.0,
			"0.024": 0.0,
			"0.025": 0.0
		}
	}
}
