{
	 "smiles": "FC(F)(F)C1=CC=C(C=C1)N1C=CC=C1C=O", 
	 "Tm": 370.65, 
	 "num_atms": 25, 
	 "gaussian": { 
		 "optdone": 1, 
		 "sigma_profile": "yes", 
		 "theory": "DFT", 
		 "functional": "B3LYP", 
		 "basiset": "6-31G**", 
		 "properties": { 
			 "R2extent": 5676.1817, 
			 "electric_dipole_moment_norm": 4.24707250468, 
			 "electric_quadrupole_moment_norm": 6.65598696438, 
			 "total_energy": -891.581144625, 
			 "HOMO_LUMO_gap": 0.18078, 
			 "cosmo_polarized_energy": -10.32, 
			 "cosmo_cavitation_energy": 31.42, 
			 "cosmo_dispersion_energy": -21.87, 
			 "cosmo_repulsion_energy": 1.61, 
			 "cosmo_total_nonelectrostatic_energy": 11.16, 
			 "SMD_solvation_energy": 7.8 
		},
		"coords": [
			{
				"x": 4.6289453643,
				"y": -0.2461840937,
				"z": -2.1367069238,
				"element": "F" 
			},
			{
				"x": 3.975731545,
				"y": -1.3772100751,
				"z": -1.7878045108,
				"element": "C" 
			},
			{
				"x": 4.7779799688,
				"y": -2.045517663,
				"z": -0.9282185536,
				"element": "F" 
			},
			{
				"x": 3.8656788465,
				"y": -2.142626567,
				"z": -2.896426951,
				"element": "F" 
			},
			{
				"x": 2.6316832202,
				"y": -1.0819017871,
				"z": -1.1791030401,
				"element": "C" 
			},
			{
				"x": 2.4164160966,
				"y": 0.1217894485,
				"z": -0.5069762246,
				"element": "C" 
			},
			{
				"x": 1.187493076,
				"y": 0.3670481517,
				"z": 0.1019653657,
				"element": "C" 
			},
			{
				"x": 0.1697300765,
				"y": -0.5889884439,
				"z": 0.0307054268,
				"element": "C" 
			},
			{
				"x": 0.3824764734,
				"y": -1.7943214028,
				"z": -0.6455522799,
				"element": "C" 
			},
			{
				"x": 1.6140556207,
				"y": -2.0393985834,
				"z": -1.2420486405,
				"element": "C" 
			},
			{
				"x": -1.103592771,
				"y": -0.2823742348,
				"z": 0.6023247351,
				"element": "N" 
			},
			{
				"x": -1.7673528575,
				"y": 0.8932466329,
				"z": 0.3538555298,
				"element": "C" 
			},
			{
				"x": -2.9671367313,
				"y": 0.8995525483,
				"z": 1.0421939389,
				"element": "C" 
			},
			{
				"x": -3.0387072606,
				"y": -0.3193138153,
				"z": 1.7448926829,
				"element": "C" 
			},
			{
				"x": -1.8851953693,
				"y": -1.0503416521,
				"z": 1.4696961664,
				"element": "C" 
			},
			{
				"x": -1.5420770636,
				"y": -2.3313049725,
				"z": 2.0605948216,
				"element": "C" 
			},
			{
				"x": -0.528178407,
				"y": -2.9878203496,
				"z": 1.8759128667,
				"element": "O" 
			},
			{
				"x": 3.2056286351,
				"y": 0.8635486277,
				"z": -0.4569243906,
				"element": "H" 
			},
			{
				"x": 1.0202319962,
				"y": 1.2908982613,
				"z": 0.6456084922,
				"element": "H" 
			},
			{
				"x": -0.4083963753,
				"y": -2.5312187162,
				"z": -0.6977053183,
				"element": "H" 
			},
			{
				"x": 1.7812548863,
				"y": -2.970392553,
				"z": -1.7722843838,
				"element": "H" 
			},
			{
				"x": -1.3438950594,
				"y": 1.6206801943,
				"z": -0.3231078176,
				"element": "H" 
			},
			{
				"x": -3.7002197027,
				"y": 1.6930190092,
				"z": 1.0257176181,
				"element": "H" 
			},
			{
				"x": -3.8330895677,
				"y": -0.651889592,
				"z": 2.3996431231,
				"element": "H" 
			},
			{
				"x": -2.3372646402,
				"y": -2.6912783725,
				"z": 2.7497482672,
				"element": "H" 
			}
		],
		 "valence_orbital": [ 
			{
				"type": "occ",
				"energy": -0.29504,
				"method": "rhf"
			},
			{
				"type": "occ",
				"energy": -0.27588,
				"method": "rhf"
			},
			{
				"type": "occ",
				"energy": -0.25692,
				"method": "rhf"
			},
			{
				"type": "occ",
				"energy": -0.24409,
				"method": "rhf"
			},
			{
				"type": "occ",
				"energy": -0.23975,
				"method": "rhf"
			},
			{
				"type": "unocc",
				"energy": -0.05897,
				"method": "rhf"
			},
			{
				"type": "unocc",
				"energy": -0.02905,
				"method": "rhf"
			},
			{
				"type": "unocc",
				"energy": -0.02324,
				"method": "rhf"
			},
			{
				"type": "unocc",
				"energy": 0.04297,
				"method": "rhf"
			},
			{
				"type": "unocc",
				"energy": 0.08548,
				"method": "rhf"
			}
		],
		"cosmo_sigma_profile": { 
			"-0.025": 0.0,
			"-0.024": 0.0,
			"-0.023": 0.0,
			"-0.022": 0.0,
			"-0.021": 0.0,
			"-0.02": 0.0,
			"-0.019": 0.0,
			"-0.018": 0.0,
			"-0.017": 0.0,
			"-0.016": 0.0,
			"-0.015": 0.0,
			"-0.014": 0.0,
			"-0.013": 0.0,
			"-0.012": 0.0,
			"-0.011": 0.0,
			"-0.01": 0.0,
			"-0.009": 0.862345255096,
			"-0.008": 3.7363881639,
			"-0.007": 13.8788066801,
			"-0.006": 17.0103552814,
			"-0.005": 15.4118489627,
			"-0.004": 13.6308168168,
			"-0.003": 11.8142612846,
			"-0.002": 15.6339357405,
			"-0.001": 16.8766912454,
			"0.0": 18.4736386434,
			"0.001": 22.2138448309,
			"0.002": 33.097975627,
			"0.003": 36.7866814563,
			"0.004": 9.49754264077,
			"0.005": 5.915277731,
			"0.006": 1.84237807364,
			"0.007": 1.75233190164,
			"0.008": 1.49736343751,
			"0.009": 2.10507433404,
			"0.01": 2.58678315631,
			"0.011": 1.98442929994,
			"0.012": 3.69500783163,
			"0.013": 2.18052200319,
			"0.014": 0.692242847203,
			"0.015": 0.0,
			"0.016": 0.0,
			"0.017": 0.0,
			"0.018": 0.0,
			"0.019": 0.0,
			"0.02": 0.0,
			"0.021": 0.0,
			"0.022": 0.0,
			"0.023": 0.0,
			"0.024": 0.0,
			"0.025": 0.0
		}
	}
}
