{
	 "smiles": "NC1=CC=C(C=C1)C1=CC=C(NNC2=CC=CC=C2)C=C1", 
	 "Tm": 413.15, 
	 "num_atms": 38, 
	 "gaussian": { 
		 "optdone": 1, 
		 "sigma_profile": "yes", 
		 "theory": "DFT", 
		 "functional": "B3LYP", 
		 "basiset": "6-31G**", 
		 "properties": { 
			 "R2extent": 10572.7529, 
			 "electric_dipole_moment_norm": 3.24604673565, 
			 "electric_quadrupole_moment_norm": 14.9217024816, 
			 "total_energy": -860.397662176, 
			 "HOMO_LUMO_gap": 0.17339, 
			 "cosmo_polarized_energy": -16.67, 
			 "cosmo_cavitation_energy": 41.99, 
			 "cosmo_dispersion_energy": -30.26, 
			 "cosmo_repulsion_energy": 2.3, 
			 "cosmo_total_nonelectrostatic_energy": 14.03, 
			 "SMD_solvation_energy": 6.77 
		},
		"coords": [
			{
				"x": -1.0667694487,
				"y": 1.5235109906,
				"z": 6.9912209681,
				"element": "N" 
			},
			{
				"x": -0.7261621979,
				"y": 1.1855760385,
				"z": 5.6793005633,
				"element": "C" 
			},
			{
				"x": -0.3579305079,
				"y": -0.1285184676,
				"z": 5.3443944941,
				"element": "C" 
			},
			{
				"x": -0.0769936059,
				"y": -0.4736616019,
				"z": 4.0269615961,
				"element": "C" 
			},
			{
				"x": -0.1444328117,
				"y": 0.4676146908,
				"z": 2.9850290747,
				"element": "C" 
			},
			{
				"x": -0.5123303265,
				"y": 1.7790515337,
				"z": 3.3326835185,
				"element": "C" 
			},
			{
				"x": -0.7988820167,
				"y": 2.1350532454,
				"z": 4.6460386632,
				"element": "C" 
			},
			{
				"x": 0.1601951034,
				"y": 0.0945967683,
				"z": 1.5835696078,
				"element": "C" 
			},
			{
				"x": 1.1674367782,
				"y": -0.8382134418,
				"z": 1.2747950841,
				"element": "C" 
			},
			{
				"x": 1.4591174146,
				"y": -1.187797771,
				"z": -0.037916823,
				"element": "C" 
			},
			{
				"x": 0.7479268262,
				"y": -0.6145423012,
				"z": -1.1046951256,
				"element": "C" 
			},
			{
				"x": 1.0401415878,
				"y": -1.0143444017,
				"z": -2.4233083577,
				"element": "N" 
			},
			{
				"x": 0.7819582315,
				"y": -0.1350703865,
				"z": -3.4764572518,
				"element": "N" 
			},
			{
				"x": -0.4229323474,
				"y": -0.2799558868,
				"z": -4.1928664906,
				"element": "C" 
			},
			{
				"x": -0.8698786529,
				"y": 0.7912820963,
				"z": -4.9839954721,
				"element": "C" 
			},
			{
				"x": -2.0227404901,
				"y": 0.6614445951,
				"z": -5.7548432955,
				"element": "C" 
			},
			{
				"x": -2.7505762938,
				"y": -0.5307309873,
				"z": -5.7504142336,
				"element": "C" 
			},
			{
				"x": -2.3050752498,
				"y": -1.5921807781,
				"z": -4.9602489884,
				"element": "C" 
			},
			{
				"x": -1.1520626661,
				"y": -1.4773170183,
				"z": -4.184623356,
				"element": "C" 
			},
			{
				"x": -0.2599819998,
				"y": 0.3172643018,
				"z": -0.8171083206,
				"element": "C" 
			},
			{
				"x": -0.5417415193,
				"y": 0.656316691,
				"z": 0.5046298742,
				"element": "C" 
			},
			{
				"x": -0.9780316315,
				"y": 2.5047865953,
				"z": 7.2170618296,
				"element": "H" 
			},
			{
				"x": -0.6567219908,
				"y": 0.9365860996,
				"z": 7.7047885059,
				"element": "H" 
			},
			{
				"x": -0.3097574548,
				"y": -0.8857968944,
				"z": 6.1235069633,
				"element": "H" 
			},
			{
				"x": 0.1779124461,
				"y": -1.5046768731,
				"z": 3.7985215483,
				"element": "H" 
			},
			{
				"x": -0.5485218089,
				"y": 2.5443997558,
				"z": 2.5625715131,
				"element": "H" 
			},
			{
				"x": -1.074732013,
				"y": 3.1607911635,
				"z": 4.8798589862,
				"element": "H" 
			},
			{
				"x": 1.7555445842,
				"y": -1.2737799495,
				"z": 2.0774158886,
				"element": "H" 
			},
			{
				"x": 2.2538770428,
				"y": -1.9016433345,
				"z": -0.2437753546,
				"element": "H" 
			},
			{
				"x": 1.951395771,
				"y": -1.4450055823,
				"z": -2.5237594935,
				"element": "H" 
			},
			{
				"x": 1.0190838217,
				"y": 0.8317920184,
				"z": -3.2664059621,
				"element": "H" 
			},
			{
				"x": -0.3063402691,
				"y": 1.721791003,
				"z": -4.9971322368,
				"element": "H" 
			},
			{
				"x": -2.3541721057,
				"y": 1.5009057739,
				"z": -6.3600115016,
				"element": "H" 
			},
			{
				"x": -3.6499197623,
				"y": -0.6290212518,
				"z": -6.3503706942,
				"element": "H" 
			},
			{
				"x": -2.8620045136,
				"y": -2.5252093384,
				"z": -4.941745057,
				"element": "H" 
			},
			{
				"x": -0.8089339695,
				"y": -2.2990076081,
				"z": -3.5669196486,
				"element": "H" 
			},
			{
				"x": -0.8450602239,
				"y": 0.7500598104,
				"z": -1.6212314716,
				"element": "H" 
			},
			{
				"x": -1.34880373,
				"y": 1.3559507029,
				"z": 0.701980456,
				"element": "H" 
			}
		],
		 "valence_orbital": [ 
			{
				"type": "occ",
				"energy": -0.2434,
				"method": "rhf"
			},
			{
				"type": "occ",
				"energy": -0.24074,
				"method": "rhf"
			},
			{
				"type": "occ",
				"energy": -0.22194,
				"method": "rhf"
			},
			{
				"type": "occ",
				"energy": -0.20139,
				"method": "rhf"
			},
			{
				"type": "occ",
				"energy": -0.18159,
				"method": "rhf"
			},
			{
				"type": "unocc",
				"energy": -0.0082,
				"method": "rhf"
			},
			{
				"type": "unocc",
				"energy": -0.0006,
				"method": "rhf"
			},
			{
				"type": "unocc",
				"energy": 0.00584,
				"method": "rhf"
			},
			{
				"type": "unocc",
				"energy": 0.00951,
				"method": "rhf"
			},
			{
				"type": "unocc",
				"energy": 0.02192,
				"method": "rhf"
			}
		],
		"cosmo_sigma_profile": { 
			"-0.025": 0.0,
			"-0.024": 0.0,
			"-0.023": 0.0,
			"-0.022": 0.0,
			"-0.021": 0.0,
			"-0.02": 0.0,
			"-0.019": 0.0,
			"-0.018": 0.0,
			"-0.017": 0.0,
			"-0.016": 0.0,
			"-0.015": 0.0,
			"-0.014": 0.0162165954125,
			"-0.013": 1.00127372571,
			"-0.012": 4.19462846462,
			"-0.011": 6.08408038647,
			"-0.01": 5.32245079456,
			"-0.009": 5.47205175078,
			"-0.008": 5.57901553618,
			"-0.007": 6.67681524912,
			"-0.006": 10.186052043,
			"-0.005": 21.7267860888,
			"-0.004": 26.8913965603,
			"-0.003": 26.0726011821,
			"-0.002": 19.6103500747,
			"-0.001": 17.13636152,
			"0.0": 18.2464516762,
			"0.001": 15.3677435842,
			"0.002": 16.9611235366,
			"0.003": 21.8341500578,
			"0.004": 22.903558837,
			"0.005": 28.7465851871,
			"0.006": 29.0244437758,
			"0.007": 17.3366691681,
			"0.008": 2.04016177559,
			"0.009": 1.68255778703,
			"0.01": 1.01940222027,
			"0.011": 1.20479341223,
			"0.012": 0.558741656784,
			"0.013": 0.843804479825,
			"0.014": 0.602800684868,
			"0.015": 0.245497876902,
			"0.016": 0.0,
			"0.017": 0.0,
			"0.018": 0.0,
			"0.019": 0.0,
			"0.02": 0.0,
			"0.021": 0.0,
			"0.022": 0.0,
			"0.023": 0.0,
			"0.024": 0.0,
			"0.025": 0.0
		}
	}
}
