{
	 "smiles": "O=CC1=CC(CN2CCOCC2)=CC=C1", 
	 "Tm": 336.65, 
	 "num_atms": 30, 
	 "gaussian": { 
		 "optdone": 1, 
		 "sigma_profile": "yes", 
		 "theory": "DFT", 
		 "functional": "B3LYP", 
		 "basiset": "6-31G**", 
		 "properties": { 
			 "R2extent": 4224.662, 
			 "electric_dipole_moment_norm": 3.74561154553, 
			 "electric_quadrupole_moment_norm": 12.9775251974, 
			 "total_energy": -671.475396076, 
			 "HOMO_LUMO_gap": 0.15316, 
			 "cosmo_polarized_energy": -11.84, 
			 "cosmo_cavitation_energy": 32.38, 
			 "cosmo_dispersion_energy": -23.09, 
			 "cosmo_repulsion_energy": 1.82, 
			 "cosmo_total_nonelectrostatic_energy": 11.1, 
			 "SMD_solvation_energy": 4.86 
		},
		"coords": [
			{
				"x": -3.2203082317,
				"y": -0.1266700858,
				"z": 2.6555569157,
				"element": "O" 
			},
			{
				"x": -3.6540144309,
				"y": 0.6844348292,
				"z": 1.8596897271,
				"element": "C" 
			},
			{
				"x": -3.0828167565,
				"y": 0.9424251781,
				"z": 0.5176834054,
				"element": "C" 
			},
			{
				"x": -1.9625071666,
				"y": 0.2240523683,
				"z": 0.0778593719,
				"element": "C" 
			},
			{
				"x": -1.4163001269,
				"y": 0.4639023852,
				"z": -1.1839063879,
				"element": "C" 
			},
			{
				"x": -0.2337038483,
				"y": -0.3499112252,
				"z": -1.6868915584,
				"element": "C" 
			},
			{
				"x": 0.7537108607,
				"y": -0.6143816763,
				"z": -0.6494279963,
				"element": "N" 
			},
			{
				"x": 1.4702431865,
				"y": 0.599920011,
				"z": -0.2346430493,
				"element": "C" 
			},
			{
				"x": 2.7408287788,
				"y": 0.2299512705,
				"z": 0.5194427734,
				"element": "C" 
			},
			{
				"x": 3.6731435248,
				"y": -0.4781157908,
				"z": -0.2975830112,
				"element": "O" 
			},
			{
				"x": 3.0699149258,
				"y": -1.2675813466,
				"z": -1.3208431383,
				"element": "C" 
			},
			{
				"x": 1.6699839628,
				"y": -1.7373640946,
				"z": -0.9262131942,
				"element": "C" 
			},
			{
				"x": -2.0076809267,
				"y": 1.4413883598,
				"z": -1.9978634431,
				"element": "C" 
			},
			{
				"x": -3.1280778601,
				"y": 2.157737134,
				"z": -1.570634789,
				"element": "C" 
			},
			{
				"x": -3.668272028,
				"y": 1.9095190839,
				"z": -0.3109088365,
				"element": "C" 
			},
			{
				"x": -4.5446627344,
				"y": 1.3052655503,
				"z": 2.107881672,
				"element": "H" 
			},
			{
				"x": -1.5153334669,
				"y": -0.5151344154,
				"z": 0.7347334252,
				"element": "H" 
			},
			{
				"x": -0.6100000255,
				"y": -1.3170204853,
				"z": -2.0441116559,
				"element": "H" 
			},
			{
				"x": 0.1993149293,
				"y": 0.1633255934,
				"z": -2.5690766485,
				"element": "H" 
			},
			{
				"x": 1.7459820021,
				"y": 1.2281707343,
				"z": -1.1033053806,
				"element": "H" 
			},
			{
				"x": 0.8230910382,
				"y": 1.2103661842,
				"z": 0.4059011235,
				"element": "H" 
			},
			{
				"x": 3.2498532949,
				"y": 1.1350508646,
				"z": 0.8658782664,
				"element": "H" 
			},
			{
				"x": 2.4781765077,
				"y": -0.3673757736,
				"z": 1.4062617006,
				"element": "H" 
			},
			{
				"x": 3.0218113729,
				"y": -0.6955897027,
				"z": -2.2618303194,
				"element": "H" 
			},
			{
				"x": 3.7289554504,
				"y": -2.1265400739,
				"z": -1.4912451736,
				"element": "H" 
			},
			{
				"x": 1.2545611511,
				"y": -2.362936136,
				"z": -1.7230932123,
				"element": "H" 
			},
			{
				"x": 1.7517893231,
				"y": -2.3726670971,
				"z": -0.0338460484,
				"element": "H" 
			},
			{
				"x": -1.5827583399,
				"y": 1.6448213057,
				"z": -2.9781623378,
				"element": "H" 
			},
			{
				"x": -3.5694041511,
				"y": 2.9101327504,
				"z": -2.2175579247,
				"element": "H" 
			},
			{
				"x": -4.5370202156,
				"y": 2.4635243003,
				"z": 0.0372557239,
				"element": "H" 
			}
		],
		 "valence_orbital": [ 
			{
				"type": "occ",
				"energy": -0.262,
				"method": "rhf"
			},
			{
				"type": "occ",
				"energy": -0.25792,
				"method": "rhf"
			},
			{
				"type": "occ",
				"energy": -0.25256,
				"method": "rhf"
			},
			{
				"type": "occ",
				"energy": -0.2468,
				"method": "rhf"
			},
			{
				"type": "occ",
				"energy": -0.21439,
				"method": "rhf"
			},
			{
				"type": "unocc",
				"energy": -0.06123,
				"method": "rhf"
			},
			{
				"type": "unocc",
				"energy": -0.0156,
				"method": "rhf"
			},
			{
				"type": "unocc",
				"energy": 0.039,
				"method": "rhf"
			},
			{
				"type": "unocc",
				"energy": 0.07863,
				"method": "rhf"
			},
			{
				"type": "unocc",
				"energy": 0.09287,
				"method": "rhf"
			}
		],
		"cosmo_sigma_profile": { 
			"-0.025": 0.0,
			"-0.024": 0.0,
			"-0.023": 0.0,
			"-0.022": 0.0,
			"-0.021": 0.0,
			"-0.02": 0.0,
			"-0.019": 0.0,
			"-0.018": 0.0,
			"-0.017": 0.0,
			"-0.016": 0.0,
			"-0.015": 0.0,
			"-0.014": 0.0,
			"-0.013": 0.0,
			"-0.012": 0.0,
			"-0.011": 0.0,
			"-0.01": 0.0,
			"-0.009": 0.0,
			"-0.008": 0.225003749147,
			"-0.007": 4.23174285905,
			"-0.006": 11.5896808879,
			"-0.005": 18.1881561174,
			"-0.004": 24.1725372534,
			"-0.003": 37.3482800633,
			"-0.002": 30.28451385,
			"-0.001": 20.1561163614,
			"0.0": 16.7241170425,
			"0.001": 14.1456089407,
			"0.002": 13.5958347682,
			"0.003": 13.6554966677,
			"0.004": 12.1804697052,
			"0.005": 5.08465532623,
			"0.006": 3.2557171091,
			"0.007": 3.76644857174,
			"0.008": 3.63858885978,
			"0.009": 4.0616479619,
			"0.01": 4.21072181036,
			"0.011": 5.1794758544,
			"0.012": 4.63403947831,
			"0.013": 2.83158045708,
			"0.014": 1.47118416873,
			"0.015": 0.0133912105765,
			"0.016": 0.0,
			"0.017": 0.0,
			"0.018": 0.0,
			"0.019": 0.0,
			"0.02": 0.0,
			"0.021": 0.0,
			"0.022": 0.0,
			"0.023": 0.0,
			"0.024": 0.0,
			"0.025": 0.0
		}
	}
}
