{
	 "smiles": "NC(CC1C(=O)NC2=C1C=CC=C2)=NO", 
	 "Tm": 457.15, 
	 "num_atms": 26, 
	 "gaussian": { 
		 "optdone": 1, 
		 "sigma_profile": "yes", 
		 "theory": "DFT", 
		 "functional": "B3LYP", 
		 "basiset": "6-31G**", 
		 "properties": { 
			 "R2extent": 3304.29, 
			 "electric_dipole_moment_norm": 1.36197295494, 
			 "electric_quadrupole_moment_norm": 15.9813917457, 
			 "total_energy": -702.36589458, 
			 "HOMO_LUMO_gap": 0.20166, 
			 "cosmo_polarized_energy": -20.65, 
			 "cosmo_cavitation_energy": 29.94, 
			 "cosmo_dispersion_energy": -21.31, 
			 "cosmo_repulsion_energy": 1.72, 
			 "cosmo_total_nonelectrostatic_energy": 10.35, 
			 "SMD_solvation_energy": 5.67 
		},
		"coords": [
			{
				"x": 1.1289582393,
				"y": 2.8420804222,
				"z": -2.5981456487,
				"element": "N" 
			},
			{
				"x": 1.0035715171,
				"y": 2.0297311771,
				"z": -1.4899608917,
				"element": "C" 
			},
			{
				"x": 2.2763371967,
				"y": 1.6873082392,
				"z": -0.7558655442,
				"element": "C" 
			},
			{
				"x": 2.1488048226,
				"y": 0.681916616,
				"z": 0.3963594224,
				"element": "C" 
			},
			{
				"x": 1.2528920289,
				"y": 1.1925668349,
				"z": 1.5466452945,
				"element": "C" 
			},
			{
				"x": 1.268508507,
				"y": 2.2956871237,
				"z": 2.0573704977,
				"element": "O" 
			},
			{
				"x": 0.462139099,
				"y": 0.1238673135,
				"z": 1.9308920501,
				"element": "N" 
			},
			{
				"x": 0.6131065056,
				"y": -0.9824187099,
				"z": 1.0854918086,
				"element": "C" 
			},
			{
				"x": 1.5987514533,
				"y": -0.7000931223,
				"z": 0.122669655,
				"element": "C" 
			},
			{
				"x": 1.9339819142,
				"y": -1.6599397511,
				"z": -0.8187682952,
				"element": "C" 
			},
			{
				"x": 1.2719105337,
				"y": -2.8973989155,
				"z": -0.8022391088,
				"element": "C" 
			},
			{
				"x": 0.2948872353,
				"y": -3.1605502771,
				"z": 0.1584916205,
				"element": "C" 
			},
			{
				"x": -0.0482010579,
				"y": -2.2037274626,
				"z": 1.123364435,
				"element": "C" 
			},
			{
				"x": -0.1061150682,
				"y": 1.524272469,
				"z": -1.0788283539,
				"element": "N" 
			},
			{
				"x": -1.1799064142,
				"y": 1.995700732,
				"z": -1.8902630315,
				"element": "O" 
			},
			{
				"x": 1.9022398832,
				"y": 3.4912329358,
				"z": -2.5939978717,
				"element": "H" 
			},
			{
				"x": 0.2532845501,
				"y": 3.2300858874,
				"z": -2.9227128105,
				"element": "H" 
			},
			{
				"x": 3.0087959782,
				"y": 1.3201067771,
				"z": -1.4857608524,
				"element": "H" 
			},
			{
				"x": 2.6887171712,
				"y": 2.6144076938,
				"z": -0.3352108204,
				"element": "H" 
			},
			{
				"x": 3.1544024811,
				"y": 0.587483466,
				"z": 0.833175528,
				"element": "H" 
			},
			{
				"x": -0.2544375142,
				"y": 0.2251356959,
				"z": 2.6343169592,
				"element": "H" 
			},
			{
				"x": 2.6942536015,
				"y": -1.4581906214,
				"z": -1.5688978224,
				"element": "H" 
			},
			{
				"x": 1.5224202577,
				"y": -3.6530795731,
				"z": -1.5403371049,
				"element": "H" 
			},
			{
				"x": -0.2096711606,
				"y": -4.1224803106,
				"z": 0.1641713975,
				"element": "H" 
			},
			{
				"x": -0.8074209191,
				"y": -2.412174525,
				"z": 1.8714394452,
				"element": "H" 
			},
			{
				"x": -1.9422108416,
				"y": 1.5792698849,
				"z": -1.4712999574,
				"element": "H" 
			}
		],
		 "valence_orbital": [ 
			{
				"type": "occ",
				"energy": -0.27125,
				"method": "rhf"
			},
			{
				"type": "occ",
				"energy": -0.24957,
				"method": "rhf"
			},
			{
				"type": "occ",
				"energy": -0.24428,
				"method": "rhf"
			},
			{
				"type": "occ",
				"energy": -0.21403,
				"method": "rhf"
			},
			{
				"type": "occ",
				"energy": -0.20684,
				"method": "rhf"
			},
			{
				"type": "unocc",
				"energy": -0.00518,
				"method": "rhf"
			},
			{
				"type": "unocc",
				"energy": 0.00435,
				"method": "rhf"
			},
			{
				"type": "unocc",
				"energy": 0.03948,
				"method": "rhf"
			},
			{
				"type": "unocc",
				"energy": 0.04438,
				"method": "rhf"
			},
			{
				"type": "unocc",
				"energy": 0.07191,
				"method": "rhf"
			}
		],
		"cosmo_sigma_profile": { 
			"-0.025": 0.0,
			"-0.024": 0.0,
			"-0.023": 0.0,
			"-0.022": 0.0,
			"-0.021": 0.0,
			"-0.02": 0.0,
			"-0.019": 0.0,
			"-0.018": 0.0,
			"-0.017": 0.108412990168,
			"-0.016": 1.27924904963,
			"-0.015": 1.96673144504,
			"-0.014": 1.96215797354,
			"-0.013": 3.71486259151,
			"-0.012": 3.73042049373,
			"-0.011": 3.47935260148,
			"-0.01": 3.32924982299,
			"-0.009": 4.65266825993,
			"-0.008": 4.54687585576,
			"-0.007": 6.36148797014,
			"-0.006": 13.5346481834,
			"-0.005": 19.3138265448,
			"-0.004": 15.780808235,
			"-0.003": 14.9685395838,
			"-0.002": 9.77392862659,
			"-0.001": 10.3349177899,
			"0.0": 8.79071505826,
			"0.001": 9.465540227,
			"0.002": 10.2698507744,
			"0.003": 10.4982464958,
			"0.004": 10.7240757032,
			"0.005": 9.51894164282,
			"0.006": 11.4689572908,
			"0.007": 8.48978218445,
			"0.008": 7.36159024514,
			"0.009": 7.37306306791,
			"0.01": 6.83796784321,
			"0.011": 4.63301040319,
			"0.012": 4.27604751453,
			"0.013": 5.88055316233,
			"0.014": 2.09724546775,
			"0.015": 0.0140640209236,
			"0.016": 0.0,
			"0.017": 0.0,
			"0.018": 0.0,
			"0.019": 0.0,
			"0.02": 0.0,
			"0.021": 0.0,
			"0.022": 0.0,
			"0.023": 0.0,
			"0.024": 0.0,
			"0.025": 0.0
		}
	}
}
