{
	 "smiles": "CCOC1=CC=C(C=C1)C1=NN=C2SC(=NN12)C1=CC=C(Cl)C=C1", 
	 "Tm": 386.15, 
	 "num_atms": 37, 
	 "gaussian": { 
		 "optdone": 1, 
		 "sigma_profile": "yes", 
		 "theory": "DFT", 
		 "functional": "B3LYP", 
		 "basiset": "6-31G**", 
		 "properties": { 
			 "R2extent": 14966.8678, 
			 "electric_dipole_moment_norm": 5.69051816621, 
			 "electric_quadrupole_moment_norm": 27.4409180497, 
			 "total_energy": -1808.19901444, 
			 "HOMO_LUMO_gap": 0.12605, 
			 "cosmo_polarized_energy": -16.88, 
			 "cosmo_cavitation_energy": 45.74, 
			 "cosmo_dispersion_energy": -34.06, 
			 "cosmo_repulsion_energy": 2.5, 
			 "cosmo_total_nonelectrostatic_energy": 14.19, 
			 "SMD_solvation_energy": 4.75 
		},
		"coords": [
			{
				"x": -3.2044797939,
				"y": 6.6899287661,
				"z": 2.0380646752,
				"element": "C" 
			},
			{
				"x": -2.7352615897,
				"y": 5.313154974,
				"z": 1.6016787032,
				"element": "C" 
			},
			{
				"x": -1.4206786476,
				"y": 5.1207813433,
				"z": 2.1255471755,
				"element": "O" 
			},
			{
				"x": -0.774773301,
				"y": 3.950662041,
				"z": 1.8702665383,
				"element": "C" 
			},
			{
				"x": -1.3024924056,
				"y": 2.8933480833,
				"z": 1.1194861078,
				"element": "C" 
			},
			{
				"x": -0.5472554226,
				"y": 1.7358961492,
				"z": 0.9215182614,
				"element": "C" 
			},
			{
				"x": 0.7377223188,
				"y": 1.6121070613,
				"z": 1.464339437,
				"element": "C" 
			},
			{
				"x": 1.2583607724,
				"y": 2.6840704631,
				"z": 2.2183473216,
				"element": "C" 
			},
			{
				"x": 0.5150666473,
				"y": 3.8333980888,
				"z": 2.4179312787,
				"element": "C" 
			},
			{
				"x": 1.5657212528,
				"y": 0.4227341875,
				"z": 1.2833489546,
				"element": "C" 
			},
			{
				"x": 2.7929639717,
				"y": 0.260931419,
				"z": 1.7570197928,
				"element": "N" 
			},
			{
				"x": 3.2864525516,
				"y": -0.9847779532,
				"z": 1.3986825077,
				"element": "N" 
			},
			{
				"x": 2.3329960006,
				"y": -1.5491933424,
				"z": 0.7102421328,
				"element": "C" 
			},
			{
				"x": 2.0165375893,
				"y": -3.0519158868,
				"z": -0.1260825171,
				"element": "S" 
			},
			{
				"x": 0.4028917855,
				"y": -2.3873819073,
				"z": -0.5459040422,
				"element": "C" 
			},
			{
				"x": 0.1537130867,
				"y": -1.1907091862,
				"z": -0.1003316742,
				"element": "N" 
			},
			{
				"x": 1.2291954823,
				"y": -0.7315790692,
				"z": 0.5976054223,
				"element": "N" 
			},
			{
				"x": -0.5655244286,
				"y": -3.1586966966,
				"z": -1.3322377138,
				"element": "C" 
			},
			{
				"x": -1.8673799729,
				"y": -2.6594340714,
				"z": -1.5165367283,
				"element": "C" 
			},
			{
				"x": -2.8011993289,
				"y": -3.3714356496,
				"z": -2.2592644908,
				"element": "C" 
			},
			{
				"x": -2.4373565965,
				"y": -4.5960644121,
				"z": -2.8249577466,
				"element": "C" 
			},
			{
				"x": -3.6126472728,
				"y": -5.4971047883,
				"z": -3.7598434268,
				"element": "Cl" 
			},
			{
				"x": -1.1526692006,
				"y": -5.111658157,
				"z": -2.6556769116,
				"element": "C" 
			},
			{
				"x": -0.2234629849,
				"y": -4.3901599715,
				"z": -1.9111936034,
				"element": "C" 
			},
			{
				"x": -4.2125116693,
				"y": 6.8814119065,
				"z": 1.6577124918,
				"element": "H" 
			},
			{
				"x": -3.225163151,
				"y": 6.7621153246,
				"z": 3.1289741612,
				"element": "H" 
			},
			{
				"x": -2.535207158,
				"y": 7.4647763476,
				"z": 1.6541446819,
				"element": "H" 
			},
			{
				"x": -2.7149137347,
				"y": 5.2346485685,
				"z": 0.505544754,
				"element": "H" 
			},
			{
				"x": -3.4066052076,
				"y": 4.5307120014,
				"z": 1.9827218854,
				"element": "H" 
			},
			{
				"x": -2.2929086684,
				"y": 2.9569729411,
				"z": 0.685422696,
				"element": "H" 
			},
			{
				"x": -0.9675159619,
				"y": 0.9255048581,
				"z": 0.3371412975,
				"element": "H" 
			},
			{
				"x": 2.25337181,
				"y": 2.5912668409,
				"z": 2.639389592,
				"element": "H" 
			},
			{
				"x": 0.9079398218,
				"y": 4.6626962596,
				"z": 2.9968028574,
				"element": "H" 
			},
			{
				"x": -2.1392615865,
				"y": -1.7104005899,
				"z": -1.0689724096,
				"element": "H" 
			},
			{
				"x": -3.8048212509,
				"y": -2.9859061422,
				"z": -2.3988708249,
				"element": "H" 
			},
			{
				"x": -0.8835917133,
				"y": -6.0620240294,
				"z": -3.1021265371,
				"element": "H" 
			},
			{
				"x": 0.7768479565,
				"y": -4.795975772,
				"z": -1.7924340995,
				"element": "H" 
			}
		],
		 "valence_orbital": [ 
			{
				"type": "occ",
				"energy": -0.26325,
				"method": "rhf"
			},
			{
				"type": "occ",
				"energy": -0.25818,
				"method": "rhf"
			},
			{
				"type": "occ",
				"energy": -0.25483,
				"method": "rhf"
			},
			{
				"type": "occ",
				"energy": -0.25198,
				"method": "rhf"
			},
			{
				"type": "occ",
				"energy": -0.2084,
				"method": "rhf"
			},
			{
				"type": "unocc",
				"energy": -0.08235,
				"method": "rhf"
			},
			{
				"type": "unocc",
				"energy": -0.03781,
				"method": "rhf"
			},
			{
				"type": "unocc",
				"energy": -0.02459,
				"method": "rhf"
			},
			{
				"type": "unocc",
				"energy": -0.01643,
				"method": "rhf"
			},
			{
				"type": "unocc",
				"energy": -0.00483,
				"method": "rhf"
			}
		],
		"cosmo_sigma_profile": { 
			"-0.025": 0.0,
			"-0.024": 0.0,
			"-0.023": 0.0,
			"-0.022": 0.0,
			"-0.021": 0.0,
			"-0.02": 0.0,
			"-0.019": 0.0,
			"-0.018": 0.0,
			"-0.017": 0.0,
			"-0.016": 0.0,
			"-0.015": 0.0,
			"-0.014": 0.0,
			"-0.013": 0.0,
			"-0.012": 0.0,
			"-0.011": 0.0,
			"-0.01": 0.0332536983991,
			"-0.009": 1.45568838881,
			"-0.008": 5.27392712873,
			"-0.007": 9.63027739955,
			"-0.006": 14.5242201409,
			"-0.005": 21.9788034811,
			"-0.004": 30.366181247,
			"-0.003": 30.8693204601,
			"-0.002": 31.4325106431,
			"-0.001": 34.73896513,
			"0.0": 36.3880046975,
			"0.001": 37.9523145041,
			"0.002": 29.1735733781,
			"0.003": 25.2110040439,
			"0.004": 26.4559619884,
			"0.005": 7.13156094898,
			"0.006": 3.04164243932,
			"0.007": 3.19049150449,
			"0.008": 3.21000604207,
			"0.009": 3.49482326463,
			"0.01": 3.23316545395,
			"0.011": 2.71805296728,
			"0.012": 2.63281546089,
			"0.013": 3.35744348726,
			"0.014": 3.01377798479,
			"0.015": 1.99415087874,
			"0.016": 0.532242320926,
			"0.017": 0.0,
			"0.018": 0.0,
			"0.019": 0.0,
			"0.02": 0.0,
			"0.021": 0.0,
			"0.022": 0.0,
			"0.023": 0.0,
			"0.024": 0.0,
			"0.025": 0.0
		}
	}
}
