{
	 "smiles": "FC1=C(CCN2C(=O)C=CC2=O)C=CC=C1", 
	 "Tm": 380.15, 
	 "num_atms": 26, 
	 "gaussian": { 
		 "optdone": 1, 
		 "sigma_profile": "yes", 
		 "theory": "DFT", 
		 "functional": "B3LYP", 
		 "basiset": "6-31G**", 
		 "properties": { 
			 "R2extent": 3273.0268, 
			 "electric_dipole_moment_norm": 1.12195206226, 
			 "electric_quadrupole_moment_norm": 16.43479555, 
			 "total_energy": -768.345853016, 
			 "HOMO_LUMO_gap": 0.15102, 
			 "cosmo_polarized_energy": -11.95, 
			 "cosmo_cavitation_energy": 30.79, 
			 "cosmo_dispersion_energy": -20.97, 
			 "cosmo_repulsion_energy": 1.62, 
			 "cosmo_total_nonelectrostatic_energy": 11.44, 
			 "SMD_solvation_energy": 6.8 
		},
		"coords": [
			{
				"x": 0.4974567051,
				"y": -1.6768591671,
				"z": -0.7759835021,
				"element": "F" 
			},
			{
				"x": 1.0504131495,
				"y": -0.7322086051,
				"z": -1.5795172424,
				"element": "C" 
			},
			{
				"x": 1.9664332359,
				"y": 0.1646076222,
				"z": -1.0251452236,
				"element": "C" 
			},
			{
				"x": 2.3304243354,
				"y": 0.1078151467,
				"z": 0.440321345,
				"element": "C" 
			},
			{
				"x": 1.4187414375,
				"y": 0.9589676637,
				"z": 1.3501858986,
				"element": "C" 
			},
			{
				"x": 0.0299418992,
				"y": 0.5249109839,
				"z": 1.3457286877,
				"element": "N" 
			},
			{
				"x": -0.4323773639,
				"y": -0.6539309964,
				"z": 1.9380265847,
				"element": "C" 
			},
			{
				"x": 0.245866345,
				"y": -1.4441955955,
				"z": 2.5627322569,
				"element": "O" 
			},
			{
				"x": -1.9087856693,
				"y": -0.7059343917,
				"z": 1.6621468698,
				"element": "C" 
			},
			{
				"x": -2.2530373816,
				"y": 0.3841756724,
				"z": 0.9701653545,
				"element": "C" 
			},
			{
				"x": -1.0244819037,
				"y": 1.2202992986,
				"z": 0.7427716232,
				"element": "C" 
			},
			{
				"x": -0.9396271686,
				"y": 2.2892708677,
				"z": 0.1735521614,
				"element": "O" 
			},
			{
				"x": 2.5148468845,
				"y": 1.1182283352,
				"z": -1.8934407047,
				"element": "C" 
			},
			{
				"x": 2.1611886582,
				"y": 1.167991385,
				"z": -3.2420977119,
				"element": "C" 
			},
			{
				"x": 1.2420391872,
				"y": 0.2508949877,
				"z": -3.7554842014,
				"element": "C" 
			},
			{
				"x": 0.6793513337,
				"y": -0.7125576144,
				"z": -2.9181126919,
				"element": "C" 
			},
			{
				"x": 2.3060774659,
				"y": -0.9246967091,
				"z": 0.7984452133,
				"element": "H" 
			},
			{
				"x": 3.3546964864,
				"y": 0.4740389887,
				"z": 0.5735616546,
				"element": "H" 
			},
			{
				"x": 1.7912227894,
				"y": 0.9101503076,
				"z": 2.3783386442,
				"element": "H" 
			},
			{
				"x": 1.4125238283,
				"y": 2.0030451445,
				"z": 1.0273487276,
				"element": "H" 
			},
			{
				"x": -2.5254980861,
				"y": -1.5247308411,
				"z": 2.0084235909,
				"element": "H" 
			},
			{
				"x": -3.2244774254,
				"y": 0.6881014424,
				"z": 0.6031867166,
				"element": "H" 
			},
			{
				"x": 3.2355078099,
				"y": 1.8301105861,
				"z": -1.4984378487,
				"element": "H" 
			},
			{
				"x": 2.6037509712,
				"y": 1.9180117446,
				"z": -3.8901890428,
				"element": "H" 
			},
			{
				"x": 0.96274709,
				"y": 0.2813414396,
				"z": -4.8042384069,
				"element": "H" 
			},
			{
				"x": -0.0347446138,
				"y": -1.4440476964,
				"z": -3.2808887526,
				"element": "H" 
			}
		],
		 "valence_orbital": [ 
			{
				"type": "occ",
				"energy": -0.29247,
				"method": "rhf"
			},
			{
				"type": "occ",
				"energy": -0.27516,
				"method": "rhf"
			},
			{
				"type": "occ",
				"energy": -0.26654,
				"method": "rhf"
			},
			{
				"type": "occ",
				"energy": -0.2534,
				"method": "rhf"
			},
			{
				"type": "occ",
				"energy": -0.2424,
				"method": "rhf"
			},
			{
				"type": "unocc",
				"energy": -0.09138,
				"method": "rhf"
			},
			{
				"type": "unocc",
				"energy": -0.01169,
				"method": "rhf"
			},
			{
				"type": "unocc",
				"energy": 0.00078,
				"method": "rhf"
			},
			{
				"type": "unocc",
				"energy": 0.05759,
				"method": "rhf"
			},
			{
				"type": "unocc",
				"energy": 0.07003,
				"method": "rhf"
			}
		],
		"cosmo_sigma_profile": { 
			"-0.025": 0.0,
			"-0.024": 0.0,
			"-0.023": 0.0,
			"-0.022": 0.0,
			"-0.021": 0.0,
			"-0.02": 0.0,
			"-0.019": 0.0,
			"-0.018": 0.0,
			"-0.017": 0.0,
			"-0.016": 0.0,
			"-0.015": 0.0,
			"-0.014": 0.0,
			"-0.013": 0.0,
			"-0.012": 0.0,
			"-0.011": 0.0,
			"-0.01": 1.28637048279,
			"-0.009": 3.64980975553,
			"-0.008": 3.08919995387,
			"-0.007": 5.29950487985,
			"-0.006": 13.7805723296,
			"-0.005": 22.4086035795,
			"-0.004": 21.5245144016,
			"-0.003": 21.8701337986,
			"-0.002": 20.0790087376,
			"-0.001": 15.0352737857,
			"0.0": 14.4855143951,
			"0.001": 15.8146027548,
			"0.002": 13.0472748012,
			"0.003": 13.4361730518,
			"0.004": 17.5167734052,
			"0.005": 12.9217200437,
			"0.006": 3.37573272486,
			"0.007": 2.71529896688,
			"0.008": 3.32243416308,
			"0.009": 4.20924544013,
			"0.01": 5.44441411901,
			"0.011": 9.34854415126,
			"0.012": 2.7239925697,
			"0.013": 0.0122601568318,
			"0.014": 0.0,
			"0.015": 0.0,
			"0.016": 0.0,
			"0.017": 0.0,
			"0.018": 0.0,
			"0.019": 0.0,
			"0.02": 0.0,
			"0.021": 0.0,
			"0.022": 0.0,
			"0.023": 0.0,
			"0.024": 0.0,
			"0.025": 0.0
		}
	}
}
