{
	 "smiles": "OC(=O)CCC(=O)C1=CC2=C(OCCO2)C=C1", 
	 "Tm": 412.15, 
	 "num_atms": 29, 
	 "gaussian": { 
		 "optdone": 1, 
		 "sigma_profile": "yes", 
		 "theory": "DFT", 
		 "functional": "B3LYP", 
		 "basiset": "6-31G**", 
		 "properties": { 
			 "R2extent": 6313.5746, 
			 "electric_dipole_moment_norm": 4.06097930184, 
			 "electric_quadrupole_moment_norm": 35.4260001077, 
			 "total_energy": -840.623264984, 
			 "HOMO_LUMO_gap": 0.17147, 
			 "cosmo_polarized_energy": -20.93, 
			 "cosmo_cavitation_energy": 33.53, 
			 "cosmo_dispersion_energy": -24.69, 
			 "cosmo_repulsion_energy": 1.92, 
			 "cosmo_total_nonelectrostatic_energy": 10.76, 
			 "SMD_solvation_energy": 7.48 
		},
		"coords": [
			{
				"x": 5.2943827963,
				"y": -0.119804489,
				"z": 2.511104958,
				"element": "O" 
			},
			{
				"x": 3.9507587399,
				"y": -0.2938414586,
				"z": 2.3782759025,
				"element": "C" 
			},
			{
				"x": 3.2959342053,
				"y": -0.6656189846,
				"z": 3.3205570213,
				"element": "O" 
			},
			{
				"x": 3.3946888745,
				"y": 0.0087839614,
				"z": 0.9958791325,
				"element": "C" 
			},
			{
				"x": 1.8831449841,
				"y": -0.1761041012,
				"z": 0.9216093568,
				"element": "C" 
			},
			{
				"x": 1.339186857,
				"y": 0.0791950146,
				"z": -0.4798289833,
				"element": "C" 
			},
			{
				"x": 2.0991485683,
				"y": 0.3794417937,
				"z": -1.3932032338,
				"element": "O" 
			},
			{
				"x": -0.1290417539,
				"y": -0.0439814583,
				"z": -0.7118312643,
				"element": "C" 
			},
			{
				"x": -1.0268786494,
				"y": -0.4058439209,
				"z": 0.3034037881,
				"element": "C" 
			},
			{
				"x": -2.3895066832,
				"y": -0.5064953648,
				"z": 0.0392854452,
				"element": "C" 
			},
			{
				"x": -2.8747896439,
				"y": -0.2318788096,
				"z": -1.2532781575,
				"element": "C" 
			},
			{
				"x": -4.206464675,
				"y": -0.2958683875,
				"z": -1.5538294282,
				"element": "O" 
			},
			{
				"x": -5.0683558413,
				"y": -0.3478415526,
				"z": -0.4129541875,
				"element": "C" 
			},
			{
				"x": -4.5131725798,
				"y": -1.3129830335,
				"z": 0.6210251503,
				"element": "C" 
			},
			{
				"x": -3.2294676787,
				"y": -0.8716714777,
				"z": 1.0630509457,
				"element": "O" 
			},
			{
				"x": -1.98022346,
				"y": 0.1129960441,
				"z": -2.2719850491,
				"element": "C" 
			},
			{
				"x": -0.6221278287,
				"y": 0.2037487229,
				"z": -2.005261326,
				"element": "C" 
			},
			{
				"x": 5.6762285213,
				"y": 0.1779838059,
				"z": 1.6729567339,
				"element": "H" 
			},
			{
				"x": 3.8915893812,
				"y": -0.6354351421,
				"z": 0.259928231,
				"element": "H" 
			},
			{
				"x": 3.6683213081,
				"y": 1.0328979388,
				"z": 0.7130516106,
				"element": "H" 
			},
			{
				"x": 1.6143818544,
				"y": -1.1896324346,
				"z": 1.2416469405,
				"element": "H" 
			},
			{
				"x": 1.3856358406,
				"y": 0.4894486389,
				"z": 1.6365943729,
				"element": "H" 
			},
			{
				"x": -0.6970661327,
				"y": -0.62352073,
				"z": 1.3132725082,
				"element": "H" 
			},
			{
				"x": -5.1636647297,
				"y": 0.6553946721,
				"z": 0.0228410053,
				"element": "H" 
			},
			{
				"x": -6.0452066693,
				"y": -0.6724279767,
				"z": -0.77945253,
				"element": "H" 
			},
			{
				"x": -5.1503111101,
				"y": -1.3531660744,
				"z": 1.5077709113,
				"element": "H" 
			},
			{
				"x": -4.4349709558,
				"y": -2.3205661171,
				"z": 0.1902036395,
				"element": "H" 
			},
			{
				"x": -2.3813465194,
				"y": 0.3130108944,
				"z": -3.260316165,
				"element": "H" 
			},
			{
				"x": 0.08379298,
				"y": 0.4748800266,
				"z": -2.7820173288,
				"element": "H" 
			}
		],
		 "valence_orbital": [ 
			{
				"type": "occ",
				"energy": -0.31349,
				"method": "rhf"
			},
			{
				"type": "occ",
				"energy": -0.2713,
				"method": "rhf"
			},
			{
				"type": "occ",
				"energy": -0.25043,
				"method": "rhf"
			},
			{
				"type": "occ",
				"energy": -0.24851,
				"method": "rhf"
			},
			{
				"type": "occ",
				"energy": -0.22346,
				"method": "rhf"
			},
			{
				"type": "unocc",
				"energy": -0.05199,
				"method": "rhf"
			},
			{
				"type": "unocc",
				"energy": -0.00573,
				"method": "rhf"
			},
			{
				"type": "unocc",
				"energy": 0.01282,
				"method": "rhf"
			},
			{
				"type": "unocc",
				"energy": 0.04633,
				"method": "rhf"
			},
			{
				"type": "unocc",
				"energy": 0.05826,
				"method": "rhf"
			}
		],
		"cosmo_sigma_profile": { 
			"-0.025": 0.0,
			"-0.024": 0.0,
			"-0.023": 0.0,
			"-0.022": 0.0,
			"-0.021": 0.0,
			"-0.02": 0.00419386838249,
			"-0.019": 0.831880885139,
			"-0.018": 0.899103822426,
			"-0.017": 1.15284504685,
			"-0.016": 1.22904080869,
			"-0.015": 1.00272066929,
			"-0.014": 0.791426216744,
			"-0.013": 0.919587683328,
			"-0.012": 0.845983041958,
			"-0.011": 1.79058033233,
			"-0.01": 1.22206844888,
			"-0.009": 1.31196989442,
			"-0.008": 3.20514125901,
			"-0.007": 14.7748318818,
			"-0.006": 26.0612934786,
			"-0.005": 23.2742899493,
			"-0.004": 19.7494850507,
			"-0.003": 12.3175832425,
			"-0.002": 10.7773364789,
			"-0.001": 9.93198318366,
			"0.0": 11.6508748071,
			"0.001": 12.5634107142,
			"0.002": 16.1715010572,
			"0.003": 17.8522049778,
			"0.004": 12.5843350023,
			"0.005": 7.40954889477,
			"0.006": 6.68417565825,
			"0.007": 5.20236986473,
			"0.008": 6.92215449496,
			"0.009": 8.27746447122,
			"0.01": 8.27524465244,
			"0.011": 8.40938402977,
			"0.012": 8.99254659563,
			"0.013": 2.54954687377,
			"0.014": 0.0989899359562,
			"0.015": 0.0,
			"0.016": 0.0,
			"0.017": 0.0,
			"0.018": 0.0,
			"0.019": 0.0,
			"0.02": 0.0,
			"0.021": 0.0,
			"0.022": 0.0,
			"0.023": 0.0,
			"0.024": 0.0,
			"0.025": 0.0
		}
	}
}
