{
	 "smiles": "FC1=CC=C(CC(=O)CCl)C=C1", 
	 "Tm": 401.15, 
	 "num_atms": 20, 
	 "gaussian": { 
		 "optdone": 1, 
		 "sigma_profile": "yes", 
		 "theory": "DFT", 
		 "functional": "B3LYP", 
		 "basiset": "6-31G**", 
		 "properties": { 
			 "R2extent": 3482.2764, 
			 "electric_dipole_moment_norm": 3.62419443877, 
			 "electric_quadrupole_moment_norm": 15.4485990766, 
			 "total_energy": -983.025408225, 
			 "HOMO_LUMO_gap": 0.20647, 
			 "cosmo_polarized_energy": -12.26, 
			 "cosmo_cavitation_energy": 26.97, 
			 "cosmo_dispersion_energy": -19.03, 
			 "cosmo_repulsion_energy": 1.52, 
			 "cosmo_total_nonelectrostatic_energy": 9.46, 
			 "SMD_solvation_energy": 5.26 
		},
		"coords": [
			{
				"x": 0.2682419674,
				"y": -1.6065291612,
				"z": -3.099100241,
				"element": "F" 
			},
			{
				"x": -0.0776734248,
				"y": -1.0399400015,
				"z": -1.9254663207,
				"element": "C" 
			},
			{
				"x": -0.1329131731,
				"y": -1.830610565,
				"z": -0.7845457811,
				"element": "C" 
			},
			{
				"x": -0.4932415622,
				"y": -1.2342945878,
				"z": 0.4250910176,
				"element": "C" 
			},
			{
				"x": -0.7986890183,
				"y": 0.1304469879,
				"z": 0.4951809899,
				"element": "C" 
			},
			{
				"x": -1.1899118116,
				"y": 0.781658684,
				"z": 1.8132385472,
				"element": "C" 
			},
			{
				"x": -0.176464708,
				"y": 1.8634600411,
				"z": 2.2039272446,
				"element": "C" 
			},
			{
				"x": -0.3109324707,
				"y": 3.0184450181,
				"z": 1.8710811069,
				"element": "O" 
			},
			{
				"x": 1.0159539385,
				"y": 1.3435888219,
				"z": 3.0043332479,
				"element": "C" 
			},
			{
				"x": 2.290303211,
				"y": 2.5658673374,
				"z": 3.2901572922,
				"element": "Cl" 
			},
			{
				"x": -0.7286633971,
				"y": 0.8991161304,
				"z": -0.6768039612,
				"element": "C" 
			},
			{
				"x": -0.3699078247,
				"y": 0.3200601861,
				"z": -1.8920255586,
				"element": "C" 
			},
			{
				"x": 0.1006170669,
				"y": -2.8875985985,
				"z": -0.8513620682,
				"element": "H" 
			},
			{
				"x": -0.5458991529,
				"y": -1.8459703964,
				"z": 1.3220865822,
				"element": "H" 
			},
			{
				"x": -2.161424149,
				"y": 1.2778982477,
				"z": 1.7266474394,
				"element": "H" 
			},
			{
				"x": -1.2626053398,
				"y": 0.0190435707,
				"z": 2.5960473413,
				"element": "H" 
			},
			{
				"x": 1.4619848874,
				"y": 0.4954983638,
				"z": 2.4769319684,
				"element": "H" 
			},
			{
				"x": 0.665019938,
				"y": 0.9857606003,
				"z": 3.9774316212,
				"element": "H" 
			},
			{
				"x": -0.950194926,
				"y": 1.9613601325,
				"z": -0.6315114015,
				"element": "H" 
			},
			{
				"x": -0.3133000511,
				"y": 0.9030391884,
				"z": -2.8048390666,
				"element": "H" 
			}
		],
		 "valence_orbital": [ 
			{
				"type": "occ",
				"energy": -0.3049,
				"method": "rhf"
			},
			{
				"type": "occ",
				"energy": -0.30197,
				"method": "rhf"
			},
			{
				"type": "occ",
				"energy": -0.27412,
				"method": "rhf"
			},
			{
				"type": "occ",
				"energy": -0.27074,
				"method": "rhf"
			},
			{
				"type": "occ",
				"energy": -0.24544,
				"method": "rhf"
			},
			{
				"type": "unocc",
				"energy": -0.03897,
				"method": "rhf"
			},
			{
				"type": "unocc",
				"energy": -0.02293,
				"method": "rhf"
			},
			{
				"type": "unocc",
				"energy": -0.00366,
				"method": "rhf"
			},
			{
				"type": "unocc",
				"energy": 0.02315,
				"method": "rhf"
			},
			{
				"type": "unocc",
				"energy": 0.07497,
				"method": "rhf"
			}
		],
		"cosmo_sigma_profile": { 
			"-0.025": 0.0,
			"-0.024": 0.0,
			"-0.023": 0.0,
			"-0.022": 0.0,
			"-0.021": 0.0,
			"-0.02": 0.0,
			"-0.019": 0.0,
			"-0.018": 0.0,
			"-0.017": 0.0,
			"-0.016": 0.0,
			"-0.015": 0.0,
			"-0.014": 0.0,
			"-0.013": 0.0,
			"-0.012": 0.0,
			"-0.011": 0.0159476309421,
			"-0.01": 2.27005917939,
			"-0.009": 3.60977745816,
			"-0.008": 6.340475606,
			"-0.007": 11.9664935988,
			"-0.006": 14.4993747672,
			"-0.005": 14.2642325879,
			"-0.004": 12.4232985367,
			"-0.003": 11.5389442164,
			"-0.002": 11.0319668151,
			"-0.001": 9.70832925068,
			"0.0": 11.5409437019,
			"0.001": 18.0057079739,
			"0.002": 13.9252901606,
			"0.003": 16.1881328761,
			"0.004": 23.2266158247,
			"0.005": 11.231374285,
			"0.006": 7.69531797391,
			"0.007": 2.92992393733,
			"0.008": 2.33272064259,
			"0.009": 2.70774329639,
			"0.01": 3.04672845339,
			"0.011": 4.45674111896,
			"0.012": 2.00026001497,
			"0.013": 0.500279755908,
			"0.014": 0.0,
			"0.015": 0.0,
			"0.016": 0.0,
			"0.017": 0.0,
			"0.018": 0.0,
			"0.019": 0.0,
			"0.02": 0.0,
			"0.021": 0.0,
			"0.022": 0.0,
			"0.023": 0.0,
			"0.024": 0.0,
			"0.025": 0.0
		}
	}
}
