{
	 "smiles": "CCOC(=O)C1=CC(=NN1CC1=C(C)C=C(C)C=C1C)C(C)(C)C", 
	 "Tm": 346.15, 
	 "num_atms": 52, 
	 "gaussian": { 
		 "optdone": 1, 
		 "sigma_profile": "yes", 
		 "theory": "DFT", 
		 "functional": "B3LYP", 
		 "basiset": "6-31G**", 
		 "properties": { 
			 "R2extent": 9486.859, 
			 "electric_dipole_moment_norm": 2.39196378108, 
			 "electric_quadrupole_moment_norm": 10.1180362324, 
			 "total_energy": -1038.98919386, 
			 "HOMO_LUMO_gap": 0.19064, 
			 "cosmo_polarized_energy": -11.43, 
			 "cosmo_cavitation_energy": 52.77, 
			 "cosmo_dispersion_energy": -33.88, 
			 "cosmo_repulsion_energy": 2.62, 
			 "cosmo_total_nonelectrostatic_energy": 21.51, 
			 "SMD_solvation_energy": 9.44 
		},
		"coords": [
			{
				"x": -4.6917593389,
				"y": -0.6623828884,
				"z": 2.4872261004,
				"element": "C" 
			},
			{
				"x": -4.5834103372,
				"y": -0.4995884114,
				"z": 0.9832855877,
				"element": "C" 
			},
			{
				"x": -3.1902600457,
				"y": -0.2586860399,
				"z": 0.6668329399,
				"element": "O" 
			},
			{
				"x": -2.9205746523,
				"y": -0.0518736068,
				"z": -0.6454243156,
				"element": "C" 
			},
			{
				"x": -3.7787612767,
				"y": -0.0701148314,
				"z": -1.5064709364,
				"element": "O" 
			},
			{
				"x": -1.5023336445,
				"y": 0.2174482096,
				"z": -0.9491084663,
				"element": "C" 
			},
			{
				"x": -1.0363689538,
				"y": 0.5551007516,
				"z": -2.2131948858,
				"element": "C" 
			},
			{
				"x": 0.3478488989,
				"y": 0.7658802716,
				"z": -2.0641663483,
				"element": "C" 
			},
			{
				"x": 0.7088083364,
				"y": 0.5658222897,
				"z": -0.7894492629,
				"element": "N" 
			},
			{
				"x": -0.4050556356,
				"y": 0.2277273296,
				"z": -0.1185518074,
				"element": "N" 
			},
			{
				"x": -0.2879597105,
				"y": -0.0084959395,
				"z": 1.3333722726,
				"element": "C" 
			},
			{
				"x": 0.7979152756,
				"y": -1.0041831837,
				"z": 1.6974422992,
				"element": "C" 
			},
			{
				"x": 2.0588591403,
				"y": -0.5527172174,
				"z": 2.1384951288,
				"element": "C" 
			},
			{
				"x": 2.3970738141,
				"y": 0.9200585028,
				"z": 2.2185617988,
				"element": "C" 
			},
			{
				"x": 3.0288386303,
				"y": -1.4925790998,
				"z": 2.5036872302,
				"element": "C" 
			},
			{
				"x": 2.7912411561,
				"y": -2.8674213197,
				"z": 2.4371983849,
				"element": "C" 
			},
			{
				"x": 3.8665565339,
				"y": -3.8626046018,
				"z": 2.8050124424,
				"element": "C" 
			},
			{
				"x": 1.5370671152,
				"y": -3.2937325023,
				"z": 1.9929751338,
				"element": "C" 
			},
			{
				"x": 0.5379982345,
				"y": -2.3885894232,
				"z": 1.6215138675,
				"element": "C" 
			},
			{
				"x": -0.7928435452,
				"y": -2.922365352,
				"z": 1.1391647767,
				"element": "C" 
			},
			{
				"x": 1.3622945999,
				"y": 1.1428611684,
				"z": -3.1309620325,
				"element": "C" 
			},
			{
				"x": 0.8864403514,
				"y": 2.4192551201,
				"z": -3.8602099321,
				"element": "C" 
			},
			{
				"x": 2.7441068274,
				"y": 1.3984820936,
				"z": -2.5028647597,
				"element": "C" 
			},
			{
				"x": 1.470641539,
				"y": -0.015267167,
				"z": -4.1505035873,
				"element": "C" 
			},
			{
				"x": -5.7361321873,
				"y": -0.8364123311,
				"z": 2.7641927011,
				"element": "H" 
			},
			{
				"x": -4.1003529156,
				"y": -1.5138032219,
				"z": 2.8369963524,
				"element": "H" 
			},
			{
				"x": -4.3452266664,
				"y": 0.2363152214,
				"z": 3.0056336318,
				"element": "H" 
			},
			{
				"x": -5.1754403487,
				"y": 0.3440878252,
				"z": 0.6166258144,
				"element": "H" 
			},
			{
				"x": -4.916157269,
				"y": -1.3927395135,
				"z": 0.4458349245,
				"element": "H" 
			},
			{
				"x": -1.6492298488,
				"y": 0.6303415319,
				"z": -3.0980379022,
				"element": "H" 
			},
			{
				"x": -1.2638847686,
				"y": -0.3469919537,
				"z": 1.6699342915,
				"element": "H" 
			},
			{
				"x": -0.0964922449,
				"y": 0.9582866679,
				"z": 1.8046152689,
				"element": "H" 
			},
			{
				"x": 3.4464007294,
				"y": 1.0589136631,
				"z": 2.4918418326,
				"element": "H" 
			},
			{
				"x": 1.7944579526,
				"y": 1.4427595409,
				"z": 2.9720664235,
				"element": "H" 
			},
			{
				"x": 2.2258841376,
				"y": 1.4101504092,
				"z": 1.2554631933,
				"element": "H" 
			},
			{
				"x": 3.9985812403,
				"y": -1.1378200967,
				"z": 2.8461788402,
				"element": "H" 
			},
			{
				"x": 3.4373106359,
				"y": -4.7928141776,
				"z": 3.189806773,
				"element": "H" 
			},
			{
				"x": 4.479240908,
				"y": -4.124153753,
				"z": 1.932929702,
				"element": "H" 
			},
			{
				"x": 4.5418935377,
				"y": -3.4599245285,
				"z": 3.5660847518,
				"element": "H" 
			},
			{
				"x": 1.3277835678,
				"y": -4.3597964384,
				"z": 1.9338906222,
				"element": "H" 
			},
			{
				"x": -1.6290131783,
				"y": -2.5624970638,
				"z": 1.7495660453,
				"element": "H" 
			},
			{
				"x": -0.8052668716,
				"y": -4.0147784467,
				"z": 1.173111431,
				"element": "H" 
			},
			{
				"x": -1.0011300861,
				"y": -2.6194204408,
				"z": 0.1072589716,
				"element": "H" 
			},
			{
				"x": 0.7989717478,
				"y": 3.2603925987,
				"z": -3.1648163019,
				"element": "H" 
			},
			{
				"x": 1.5997884813,
				"y": 2.6984463117,
				"z": -4.6437149647,
				"element": "H" 
			},
			{
				"x": -0.0894177642,
				"y": 2.2725363076,
				"z": -4.3345324266,
				"element": "H" 
			},
			{
				"x": 3.1084699781,
				"y": 0.5157868093,
				"z": -1.9710157608,
				"element": "H" 
			},
			{
				"x": 2.7075051615,
				"y": 2.2240539985,
				"z": -1.7859195944,
				"element": "H" 
			},
			{
				"x": 3.4660357337,
				"y": 1.6555198092,
				"z": -3.2855968374,
				"element": "H" 
			},
			{
				"x": 2.1847696255,
				"y": 0.237866712,
				"z": -4.9424090135,
				"element": "H" 
			},
			{
				"x": 1.8130694524,
				"y": -0.9341027142,
				"z": -3.6637950763,
				"element": "H" 
			},
			{
				"x": 0.5047179473,
				"y": -0.2240368795,
				"z": -4.6220553219,
				"element": "H" 
			}
		],
		 "valence_orbital": [ 
			{
				"type": "occ",
				"energy": -0.26891,
				"method": "rhf"
			},
			{
				"type": "occ",
				"energy": -0.24829,
				"method": "rhf"
			},
			{
				"type": "occ",
				"energy": -0.23968,
				"method": "rhf"
			},
			{
				"type": "occ",
				"energy": -0.23067,
				"method": "rhf"
			},
			{
				"type": "occ",
				"energy": -0.22643,
				"method": "rhf"
			},
			{
				"type": "unocc",
				"energy": -0.03579,
				"method": "rhf"
			},
			{
				"type": "unocc",
				"energy": -0.00208,
				"method": "rhf"
			},
			{
				"type": "unocc",
				"energy": 0.01071,
				"method": "rhf"
			},
			{
				"type": "unocc",
				"energy": 0.05076,
				"method": "rhf"
			},
			{
				"type": "unocc",
				"energy": 0.07549,
				"method": "rhf"
			}
		],
		"cosmo_sigma_profile": { 
			"-0.025": 0.0,
			"-0.024": 0.0,
			"-0.023": 0.0,
			"-0.022": 0.0,
			"-0.021": 0.0,
			"-0.02": 0.0,
			"-0.019": 0.0,
			"-0.018": 0.0,
			"-0.017": 0.0,
			"-0.016": 0.0,
			"-0.015": 0.0,
			"-0.014": 0.0,
			"-0.013": 0.0,
			"-0.012": 0.0,
			"-0.011": 0.0,
			"-0.01": 0.0,
			"-0.009": 0.0,
			"-0.008": 0.0,
			"-0.007": 0.310306517192,
			"-0.006": 3.4258629997,
			"-0.005": 14.4867338866,
			"-0.004": 38.5563715201,
			"-0.003": 47.432609622,
			"-0.002": 54.5708926172,
			"-0.001": 50.9965310933,
			"0.0": 55.274803378,
			"0.001": 45.9592407543,
			"0.002": 26.8242867573,
			"0.003": 16.1876082569,
			"0.004": 13.3109221449,
			"0.005": 10.5704150049,
			"0.006": 9.78387748244,
			"0.007": 6.72100516425,
			"0.008": 3.25785425994,
			"0.009": 2.69835884237,
			"0.01": 3.3528514531,
			"0.011": 4.55574506244,
			"0.012": 4.64033031959,
			"0.013": 0.127774364318,
			"0.014": 0.0,
			"0.015": 0.0,
			"0.016": 0.0,
			"0.017": 0.0,
			"0.018": 0.0,
			"0.019": 0.0,
			"0.02": 0.0,
			"0.021": 0.0,
			"0.022": 0.0,
			"0.023": 0.0,
			"0.024": 0.0,
			"0.025": 0.0
		}
	}
}
