{
	 "smiles": "CC(C)(C)OC(=O)NCC1=CC=C(Br)S1", 
	 "Tm": 325.65, 
	 "num_atms": 29, 
	 "gaussian": { 
		 "optdone": 1, 
		 "sigma_profile": "yes", 
		 "theory": "DFT", 
		 "functional": "B3LYP", 
		 "basiset": "6-31G**", 
		 "properties": { 
			 "R2extent": 11237.9846, 
			 "electric_dipole_moment_norm": 1.87745777316, 
			 "electric_quadrupole_moment_norm": 7.86765928469, 
			 "total_energy": -3564.31132103, 
			 "HOMO_LUMO_gap": 0.20099, 
			 "cosmo_polarized_energy": -9.47, 
			 "cosmo_cavitation_energy": 36.23, 
			 "cosmo_dispersion_energy": -26.08, 
			 "cosmo_repulsion_energy": 2.04, 
			 "cosmo_total_nonelectrostatic_energy": 12.2, 
			 "SMD_solvation_energy": 4.79 
		},
		"coords": [
			{
				"x": -2.0311801116,
				"y": -2.0098128314,
				"z": -1.9099975408,
				"element": "C" 
			},
			{
				"x": -1.1275609422,
				"y": -1.6845053066,
				"z": -0.7178830625,
				"element": "C" 
			},
			{
				"x": -1.7471461415,
				"y": -0.5845535334,
				"z": 0.150702948,
				"element": "C" 
			},
			{
				"x": -0.8090849274,
				"y": -2.9497454198,
				"z": 0.0856453177,
				"element": "C" 
			},
			{
				"x": 0.0930024739,
				"y": -1.1825442069,
				"z": -1.370753782,
				"element": "O" 
			},
			{
				"x": 1.1609306281,
				"y": -0.7864392216,
				"z": -0.6415101685,
				"element": "C" 
			},
			{
				"x": 1.2483096866,
				"y": -0.7742977834,
				"z": 0.5773967874,
				"element": "O" 
			},
			{
				"x": 2.176682696,
				"y": -0.4153344957,
				"z": -1.4862634099,
				"element": "N" 
			},
			{
				"x": 3.3463670674,
				"y": 0.2761327639,
				"z": -0.9545022494,
				"element": "C" 
			},
			{
				"x": 3.1532643377,
				"y": 1.7561375898,
				"z": -0.7339267253,
				"element": "C" 
			},
			{
				"x": 2.5816390808,
				"y": 2.3765574819,
				"z": 0.3456882515,
				"element": "C" 
			},
			{
				"x": 2.4925775753,
				"y": 3.7957132879,
				"z": 0.2140663558,
				"element": "C" 
			},
			{
				"x": 2.9988127451,
				"y": 4.2325843792,
				"z": -0.9777447885,
				"element": "C" 
			},
			{
				"x": 3.1066596817,
				"y": 6.0173763997,
				"z": -1.5795672328,
				"element": "Br" 
			},
			{
				"x": 3.5977067616,
				"y": 2.9264133409,
				"z": -1.9588051257,
				"element": "S" 
			},
			{
				"x": -2.9909693551,
				"y": -2.3995361428,
				"z": -1.5581651558,
				"element": "H" 
			},
			{
				"x": -2.219563604,
				"y": -1.1134529508,
				"z": -2.5080855413,
				"element": "H" 
			},
			{
				"x": -1.5661708886,
				"y": -2.7625000148,
				"z": -2.5532651217,
				"element": "H" 
			},
			{
				"x": -2.7121854531,
				"y": -0.9244683365,
				"z": 0.5404063311,
				"element": "H" 
			},
			{
				"x": -1.9200974957,
				"y": 0.3175236504,
				"z": -0.4447161186,
				"element": "H" 
			},
			{
				"x": -1.0963191538,
				"y": -0.3359690391,
				"z": 0.9892286044,
				"element": "H" 
			},
			{
				"x": -1.7371072577,
				"y": -3.3806261625,
				"z": 0.475311651,
				"element": "H" 
			},
			{
				"x": -0.146603909,
				"y": -2.7249108051,
				"z": 0.9218732794,
				"element": "H" 
			},
			{
				"x": -0.3310090901,
				"y": -3.6968441761,
				"z": -0.5558098733,
				"element": "H" 
			},
			{
				"x": 1.9254442975,
				"y": -0.2764145921,
				"z": -2.4546314724,
				"element": "H" 
			},
			{
				"x": 4.1879504995,
				"y": 0.088221144,
				"z": -1.6279974904,
				"element": "H" 
			},
			{
				"x": 3.5774761349,
				"y": -0.1924388934,
				"z": 0.0044978867,
				"element": "H" 
			},
			{
				"x": 2.2213337563,
				"y": 1.8217463893,
				"z": 1.2045461283,
				"element": "H" 
			},
			{
				"x": 2.0794409076,
				"y": 4.4593874848,
				"z": 0.9633613178,
				"element": "H" 
			}
		],
		 "valence_orbital": [ 
			{
				"type": "occ",
				"energy": -0.29076,
				"method": "rhf"
			},
			{
				"type": "occ",
				"energy": -0.27172,
				"method": "rhf"
			},
			{
				"type": "occ",
				"energy": -0.26129,
				"method": "rhf"
			},
			{
				"type": "occ",
				"energy": -0.25911,
				"method": "rhf"
			},
			{
				"type": "occ",
				"energy": -0.22606,
				"method": "rhf"
			},
			{
				"type": "unocc",
				"energy": -0.02507,
				"method": "rhf"
			},
			{
				"type": "unocc",
				"energy": -0.0033,
				"method": "rhf"
			},
			{
				"type": "unocc",
				"energy": 0.01559,
				"method": "rhf"
			},
			{
				"type": "unocc",
				"energy": 0.04462,
				"method": "rhf"
			},
			{
				"type": "unocc",
				"energy": 0.05972,
				"method": "rhf"
			}
		],
		"cosmo_sigma_profile": { 
			"-0.025": 0.0,
			"-0.024": 0.0,
			"-0.023": 0.0,
			"-0.022": 0.0,
			"-0.021": 0.0,
			"-0.02": 0.0,
			"-0.019": 0.0,
			"-0.018": 0.0,
			"-0.017": 0.0,
			"-0.016": 0.0,
			"-0.015": 0.0287683143574,
			"-0.014": 0.664983522162,
			"-0.013": 0.825946272192,
			"-0.012": 1.4271897133,
			"-0.011": 1.09468882921,
			"-0.01": 0.701348776822,
			"-0.009": 1.06369334136,
			"-0.008": 3.3398254031,
			"-0.007": 5.84229752178,
			"-0.006": 5.80257280659,
			"-0.005": 9.63860102434,
			"-0.004": 19.8006224563,
			"-0.003": 24.3463142259,
			"-0.002": 22.28314524,
			"-0.001": 25.69036294,
			"0.0": 36.2743830321,
			"0.001": 33.6024332538,
			"0.002": 24.5595363817,
			"0.003": 29.2340492955,
			"0.004": 21.7373343875,
			"0.005": 5.90113902487,
			"0.006": 4.17655393037,
			"0.007": 3.83150829619,
			"0.008": 1.96372085385,
			"0.009": 1.23775684476,
			"0.01": 1.23722270003,
			"0.011": 1.16296079558,
			"0.012": 1.79527037049,
			"0.013": 1.79653193043,
			"0.014": 0.129396422326,
			"0.015": 0.0,
			"0.016": 0.0,
			"0.017": 0.0,
			"0.018": 0.0,
			"0.019": 0.0,
			"0.02": 0.0,
			"0.021": 0.0,
			"0.022": 0.0,
			"0.023": 0.0,
			"0.024": 0.0,
			"0.025": 0.0
		}
	}
}
