{
	 "smiles": "NCC1=CC=C(C=C1)N1CCCC(C1)C(N)=O", 
	 "Tm": 443.15, 
	 "num_atms": 36, 
	 "gaussian": { 
		 "optdone": 1, 
		 "sigma_profile": "yes", 
		 "theory": "DFT", 
		 "functional": "B3LYP", 
		 "basiset": "6-31G**", 
		 "properties": { 
			 "R2extent": 5795.9564, 
			 "electric_dipole_moment_norm": 4.07314996532, 
			 "electric_quadrupole_moment_norm": 18.6134784183, 
			 "total_energy": -746.33239229, 
			 "HOMO_LUMO_gap": 0.20394, 
			 "cosmo_polarized_energy": -16.02, 
			 "cosmo_cavitation_energy": 36.45, 
			 "cosmo_dispersion_energy": -26.34, 
			 "cosmo_repulsion_energy": 2.06, 
			 "cosmo_total_nonelectrostatic_energy": 12.17, 
			 "SMD_solvation_energy": 5.26 
		},
		"coords": [
			{
				"x": -0.9279883143,
				"y": 1.7636870352,
				"z": 5.6703620294,
				"element": "N" 
			},
			{
				"x": -0.1598440555,
				"y": 0.5780983004,
				"z": 5.2769200614,
				"element": "C" 
			},
			{
				"x": -0.2161096001,
				"y": 0.3428740187,
				"z": 3.7795043547,
				"element": "C" 
			},
			{
				"x": -1.3642554127,
				"y": 0.639001879,
				"z": 3.040202178,
				"element": "C" 
			},
			{
				"x": -1.4252995964,
				"y": 0.3960678913,
				"z": 1.6665730644,
				"element": "C" 
			},
			{
				"x": -0.3356042673,
				"y": -0.1714773923,
				"z": 0.9878805261,
				"element": "C" 
			},
			{
				"x": 0.8175647458,
				"y": -0.4768193675,
				"z": 1.7336841094,
				"element": "C" 
			},
			{
				"x": 0.8750761407,
				"y": -0.2121398845,
				"z": 3.097759308,
				"element": "C" 
			},
			{
				"x": -0.3610037433,
				"y": -0.4776467081,
				"z": -0.4065084634,
				"element": "N" 
			},
			{
				"x": -1.6693789616,
				"y": -0.4340772953,
				"z": -1.0704584234,
				"element": "C" 
			},
			{
				"x": -1.6039052423,
				"y": -1.1026996181,
				"z": -2.4491195189,
				"element": "C" 
			},
			{
				"x": -0.5175911551,
				"y": -0.4710833183,
				"z": -3.3281555113,
				"element": "C" 
			},
			{
				"x": 0.8450014397,
				"y": -0.4425264361,
				"z": -2.5986036819,
				"element": "C" 
			},
			{
				"x": 0.6792027265,
				"y": 0.1984626778,
				"z": -1.2114367357,
				"element": "C" 
			},
			{
				"x": 1.4956420103,
				"y": -1.8368961142,
				"z": -2.6174821589,
				"element": "C" 
			},
			{
				"x": 1.3564349105,
				"y": -2.5846574926,
				"z": -1.48332784,
				"element": "N" 
			},
			{
				"x": 2.0961998528,
				"y": -2.2333655172,
				"z": -3.6081773804,
				"element": "O" 
			},
			{
				"x": -0.4810114269,
				"y": 2.6008887945,
				"z": 5.303787108,
				"element": "H" 
			},
			{
				"x": -0.935987043,
				"y": 1.8527248373,
				"z": 6.6829075268,
				"element": "H" 
			},
			{
				"x": -0.6082376752,
				"y": -0.2810015338,
				"z": 5.7959372239,
				"element": "H" 
			},
			{
				"x": 0.8994166494,
				"y": 0.5997356664,
				"z": 5.5881058328,
				"element": "H" 
			},
			{
				"x": -2.2117531034,
				"y": 1.0853990242,
				"z": 3.550762632,
				"element": "H" 
			},
			{
				"x": -2.3284720655,
				"y": 0.6621029212,
				"z": 1.1294035784,
				"element": "H" 
			},
			{
				"x": 1.6680116383,
				"y": -0.9386870606,
				"z": 1.2404974799,
				"element": "H" 
			},
			{
				"x": 1.7829886644,
				"y": -0.4550737706,
				"z": 3.6456821469,
				"element": "H" 
			},
			{
				"x": -2.3937189198,
				"y": -0.9545273743,
				"z": -0.437537882,
				"element": "H" 
			},
			{
				"x": -2.0225181702,
				"y": 0.6079939336,
				"z": -1.1869956544,
				"element": "H" 
			},
			{
				"x": -2.5835992671,
				"y": -1.0152505991,
				"z": -2.9326139084,
				"element": "H" 
			},
			{
				"x": -1.4062051905,
				"y": -2.1730355774,
				"z": -2.3190880213,
				"element": "H" 
			},
			{
				"x": -0.801769244,
				"y": 0.5626394934,
				"z": -3.5672329859,
				"element": "H" 
			},
			{
				"x": -0.4154821166,
				"y": -1.0051789081,
				"z": -4.2777342329,
				"element": "H" 
			},
			{
				"x": 1.5326228828,
				"y": 0.1813678483,
				"z": -3.1789898237,
				"element": "H" 
			},
			{
				"x": 0.4174322262,
				"y": 1.2636008805,
				"z": -1.3458046301,
				"element": "H" 
			},
			{
				"x": 1.6226664947,
				"y": 0.1686892125,
				"z": -0.6642631523,
				"element": "H" 
			},
			{
				"x": 1.6905545226,
				"y": -3.5367932276,
				"z": -1.5139101429,
				"element": "H" 
			},
			{
				"x": 0.6966196663,
				"y": -2.2898972186,
				"z": -0.7712290121,
				"element": "H" 
			}
		],
		 "valence_orbital": [ 
			{
				"type": "occ",
				"energy": -0.25576,
				"method": "rhf"
			},
			{
				"type": "occ",
				"energy": -0.24835,
				"method": "rhf"
			},
			{
				"type": "occ",
				"energy": -0.23897,
				"method": "rhf"
			},
			{
				"type": "occ",
				"energy": -0.23321,
				"method": "rhf"
			},
			{
				"type": "occ",
				"energy": -0.20609,
				"method": "rhf"
			},
			{
				"type": "unocc",
				"energy": -0.00215,
				"method": "rhf"
			},
			{
				"type": "unocc",
				"energy": 0.00441,
				"method": "rhf"
			},
			{
				"type": "unocc",
				"energy": 0.03733,
				"method": "rhf"
			},
			{
				"type": "unocc",
				"energy": 0.08215,
				"method": "rhf"
			},
			{
				"type": "unocc",
				"energy": 0.08553,
				"method": "rhf"
			}
		],
		"cosmo_sigma_profile": { 
			"-0.025": 0.0,
			"-0.024": 0.0,
			"-0.023": 0.0,
			"-0.022": 0.0,
			"-0.021": 0.0,
			"-0.02": 0.0,
			"-0.019": 0.0,
			"-0.018": 0.0,
			"-0.017": 0.0,
			"-0.016": 0.0,
			"-0.015": 0.0,
			"-0.014": 0.132181413897,
			"-0.013": 0.920227144831,
			"-0.012": 0.972894882549,
			"-0.011": 1.11479055587,
			"-0.01": 2.17368587185,
			"-0.009": 3.5761732833,
			"-0.008": 3.87049658773,
			"-0.007": 4.61758687639,
			"-0.006": 4.50090139697,
			"-0.005": 11.7061018686,
			"-0.004": 25.070840153,
			"-0.003": 43.2747408792,
			"-0.002": 39.1160775412,
			"-0.001": 28.338282683,
			"0.0": 19.3715618181,
			"0.001": 13.0308136308,
			"0.002": 9.51401231808,
			"0.003": 10.5857837104,
			"0.004": 10.0053424207,
			"0.005": 9.57524663251,
			"0.006": 10.5918161815,
			"0.007": 6.95056107377,
			"0.008": 2.70514878248,
			"0.009": 1.83612047206,
			"0.01": 1.74093832123,
			"0.011": 1.94676372446,
			"0.012": 2.42450237542,
			"0.013": 2.36818857283,
			"0.014": 6.44098516557,
			"0.015": 4.16996933699,
			"0.016": 0.976849320513,
			"0.017": 0.436419897137,
			"0.018": 0.0126253482334,
			"0.019": 0.0,
			"0.02": 0.0,
			"0.021": 0.0,
			"0.022": 0.0,
			"0.023": 0.0,
			"0.024": 0.0,
			"0.025": 0.0
		}
	}
}
