{
	 "smiles": "CCOCC1=CC=C(CNC(=O)CCl)C=C1", 
	 "Tm": 360.15, 
	 "num_atms": 32, 
	 "gaussian": { 
		 "optdone": 1, 
		 "sigma_profile": "yes", 
		 "theory": "DFT", 
		 "functional": "B3LYP", 
		 "basiset": "6-31G**", 
		 "properties": { 
			 "R2extent": 6251.8513, 
			 "electric_dipole_moment_norm": 4.72810286161, 
			 "electric_quadrupole_moment_norm": 21.9880801913, 
			 "total_energy": -1132.31258412, 
			 "HOMO_LUMO_gap": 0.2253, 
			 "cosmo_polarized_energy": -17.87, 
			 "cosmo_cavitation_energy": 37.48, 
			 "cosmo_dispersion_energy": -25.1, 
			 "cosmo_repulsion_energy": 2.02, 
			 "cosmo_total_nonelectrostatic_energy": 14.39, 
			 "SMD_solvation_energy": 6.48 
		},
		"coords": [
			{
				"x": 3.2790325835,
				"y": -0.4138654512,
				"z": 1.4377041579,
				"element": "C" 
			},
			{
				"x": 2.6002331193,
				"y": 0.2078541862,
				"z": 0.2291213739,
				"element": "C" 
			},
			{
				"x": 2.3934183016,
				"y": -0.8167536408,
				"z": -0.7395966013,
				"element": "O" 
			},
			{
				"x": 1.7891376188,
				"y": -0.3607903036,
				"z": -1.9349603385,
				"element": "C" 
			},
			{
				"x": 0.3101732643,
				"y": -0.0391634096,
				"z": -1.7986173279,
				"element": "C" 
			},
			{
				"x": -0.2719085271,
				"y": 1.0029697283,
				"z": -2.5259963047,
				"element": "C" 
			},
			{
				"x": -1.6387557149,
				"y": 1.2657641571,
				"z": -2.424424552,
				"element": "C" 
			},
			{
				"x": -2.4536856903,
				"y": 0.4959463035,
				"z": -1.5877400951,
				"element": "C" 
			},
			{
				"x": -3.9492442362,
				"y": 0.7718285562,
				"z": -1.5298232818,
				"element": "C" 
			},
			{
				"x": -4.593825863,
				"y": 0.5080394052,
				"z": -0.2464907823,
				"element": "N" 
			},
			{
				"x": -4.50090364,
				"y": 1.1988040536,
				"z": 0.9338034569,
				"element": "C" 
			},
			{
				"x": -5.1439135393,
				"y": 0.8740299806,
				"z": 1.9190335716,
				"element": "O" 
			},
			{
				"x": -3.5756560356,
				"y": 2.4193900558,
				"z": 0.9598738684,
				"element": "C" 
			},
			{
				"x": -2.2270386086,
				"y": 2.1684568071,
				"z": 2.1370510312,
				"element": "Cl" 
			},
			{
				"x": -1.8693219997,
				"y": -0.5416598072,
				"z": -0.8513572428,
				"element": "C" 
			},
			{
				"x": -0.5060839061,
				"y": -0.8068828204,
				"z": -0.958505098,
				"element": "C" 
			},
			{
				"x": 3.4689155351,
				"y": 0.3472812812,
				"z": 2.200913027,
				"element": "H" 
			},
			{
				"x": 2.6469585249,
				"y": -1.1917531944,
				"z": 1.8759269358,
				"element": "H" 
			},
			{
				"x": 4.2327955052,
				"y": -0.8676197134,
				"z": 1.1528399421,
				"element": "H" 
			},
			{
				"x": 1.6426224657,
				"y": 0.6667615958,
				"z": 0.5155530454,
				"element": "H" 
			},
			{
				"x": 3.2292788481,
				"y": 1.0038144806,
				"z": -0.2036372398,
				"element": "H" 
			},
			{
				"x": 1.9232052242,
				"y": -1.1772480251,
				"z": -2.6555589652,
				"element": "H" 
			},
			{
				"x": 2.3234554374,
				"y": 0.5165267978,
				"z": -2.3356173973,
				"element": "H" 
			},
			{
				"x": 0.3476228872,
				"y": 1.6235042146,
				"z": -3.1695340282,
				"element": "H" 
			},
			{
				"x": -2.0714901347,
				"y": 2.0854765852,
				"z": -2.9943804045,
				"element": "H" 
			},
			{
				"x": -4.1438652562,
				"y": 1.8022007075,
				"z": -1.8525960885,
				"element": "H" 
			},
			{
				"x": -4.4652081505,
				"y": 0.1354504456,
				"z": -2.2580935267,
				"element": "H" 
			},
			{
				"x": -5.2421191833,
				"y": -0.2658677025,
				"z": -0.1884459461,
				"element": "H" 
			},
			{
				"x": -4.1519496627,
				"y": 3.2718118495,
				"z": 1.3209137516,
				"element": "H" 
			},
			{
				"x": -3.113442736,
				"y": 2.6549265156,
				"z": 0.0035470561,
				"element": "H" 
			},
			{
				"x": -2.4837609714,
				"y": -1.1349620111,
				"z": -0.1805589714,
				"element": "H" 
			},
			{
				"x": -0.0561754599,
				"y": -1.6055716276,
				"z": -0.3766470261,
				"element": "H" 
			}
		],
		 "valence_orbital": [ 
			{
				"type": "occ",
				"energy": -0.26485,
				"method": "rhf"
			},
			{
				"type": "occ",
				"energy": -0.25903,
				"method": "rhf"
			},
			{
				"type": "occ",
				"energy": -0.25717,
				"method": "rhf"
			},
			{
				"type": "occ",
				"energy": -0.25673,
				"method": "rhf"
			},
			{
				"type": "occ",
				"energy": -0.24449,
				"method": "rhf"
			},
			{
				"type": "unocc",
				"energy": -0.01919,
				"method": "rhf"
			},
			{
				"type": "unocc",
				"energy": -0.01408,
				"method": "rhf"
			},
			{
				"type": "unocc",
				"energy": -0.01063,
				"method": "rhf"
			},
			{
				"type": "unocc",
				"energy": 0.05618,
				"method": "rhf"
			},
			{
				"type": "unocc",
				"energy": 0.07738,
				"method": "rhf"
			}
		],
		"cosmo_sigma_profile": { 
			"-0.025": 0.0,
			"-0.024": 0.0,
			"-0.023": 0.0,
			"-0.022": 0.0,
			"-0.021": 0.0,
			"-0.02": 0.0,
			"-0.019": 0.0,
			"-0.018": 0.0,
			"-0.017": 0.0,
			"-0.016": 0.0,
			"-0.015": 0.0434158263056,
			"-0.014": 1.11686754119,
			"-0.013": 1.45104764283,
			"-0.012": 1.07171607502,
			"-0.011": 0.958064912599,
			"-0.01": 0.817430419595,
			"-0.009": 3.25255861199,
			"-0.008": 6.42501361866,
			"-0.007": 8.64010427416,
			"-0.006": 12.5641878204,
			"-0.005": 18.0688341226,
			"-0.004": 23.1071380714,
			"-0.003": 26.6732023191,
			"-0.002": 26.0741687525,
			"-0.001": 24.0941953459,
			"0.0": 22.2649882978,
			"0.001": 19.990862683,
			"0.002": 14.0771991057,
			"0.003": 12.3149427948,
			"0.004": 15.3817393989,
			"0.005": 17.8274964051,
			"0.006": 12.0071253879,
			"0.007": 3.42986990193,
			"0.008": 2.76740122906,
			"0.009": 3.30280419618,
			"0.01": 2.67732703093,
			"0.011": 2.75168640459,
			"0.012": 3.78851115436,
			"0.013": 7.03596714588,
			"0.014": 3.11618866124,
			"0.015": 0.107130466531,
			"0.016": 0.0,
			"0.017": 0.0,
			"0.018": 0.0,
			"0.019": 0.0,
			"0.02": 0.0,
			"0.021": 0.0,
			"0.022": 0.0,
			"0.023": 0.0,
			"0.024": 0.0,
			"0.025": 0.0
		}
	}
}
