{
	 "smiles": "OC(=O)C1=C(C=CC=C1)C(=O)C1=CC=C(F)C=C1", 
	 "Tm": 413.15, 
	 "num_atms": 27, 
	 "gaussian": { 
		 "optdone": 1, 
		 "sigma_profile": "yes", 
		 "theory": "DFT", 
		 "functional": "B3LYP", 
		 "basiset": "6-31G**", 
		 "properties": { 
			 "R2extent": 5022.5624, 
			 "electric_dipole_moment_norm": 3.70216951125, 
			 "electric_quadrupole_moment_norm": 15.5707020856, 
			 "total_energy": -864.432888237, 
			 "HOMO_LUMO_gap": 0.18533, 
			 "cosmo_polarized_energy": -15.08, 
			 "cosmo_cavitation_energy": 33.01, 
			 "cosmo_dispersion_energy": -22.98, 
			 "cosmo_repulsion_energy": 1.75, 
			 "cosmo_total_nonelectrostatic_energy": 11.78, 
			 "SMD_solvation_energy": 7.74 
		},
		"coords": [
			{
				"x": -3.1916113797,
				"y": 0.1467992743,
				"z": -0.9777805604,
				"element": "O" 
			},
			{
				"x": -1.8491031706,
				"y": 0.3170606221,
				"z": -0.8967037863,
				"element": "C" 
			},
			{
				"x": -1.0780709754,
				"y": -0.620569494,
				"z": -0.9594821116,
				"element": "O" 
			},
			{
				"x": -1.4468456214,
				"y": 1.7391812649,
				"z": -0.7350490063,
				"element": "C" 
			},
			{
				"x": -0.0838438665,
				"y": 2.0581564957,
				"z": -0.5682119254,
				"element": "C" 
			},
			{
				"x": 0.2891126406,
				"y": 3.403546307,
				"z": -0.4775634757,
				"element": "C" 
			},
			{
				"x": -0.6683863761,
				"y": 4.4166829383,
				"z": -0.5252502644,
				"element": "C" 
			},
			{
				"x": -2.0188008662,
				"y": 4.0973520199,
				"z": -0.6782221252,
				"element": "C" 
			},
			{
				"x": -2.4037201361,
				"y": 2.7641874701,
				"z": -0.7883005161,
				"element": "C" 
			},
			{
				"x": 1.0409207387,
				"y": 1.0357333247,
				"z": -0.5389127687,
				"element": "C" 
			},
			{
				"x": 1.7866850719,
				"y": 0.9593081092,
				"z": -1.5030123596,
				"element": "O" 
			},
			{
				"x": 1.2931896732,
				"y": 0.2633535488,
				"z": 0.7124346461,
				"element": "C" 
			},
			{
				"x": 2.3277062922,
				"y": -0.6861940289,
				"z": 0.7050075288,
				"element": "C" 
			},
			{
				"x": 2.626259913,
				"y": -1.4202929224,
				"z": 1.846229767,
				"element": "C" 
			},
			{
				"x": 1.8806551119,
				"y": -1.1883841609,
				"z": 3.0002721629,
				"element": "C" 
			},
			{
				"x": 2.1657448738,
				"y": -1.8942203545,
				"z": 4.1113309048,
				"element": "F" 
			},
			{
				"x": 0.8540648155,
				"y": -0.2510042747,
				"z": 3.0453342847,
				"element": "C" 
			},
			{
				"x": 0.5640307735,
				"y": 0.4741364646,
				"z": 1.8915653979,
				"element": "C" 
			},
			{
				"x": -3.3288567776,
				"y": -0.8071431652,
				"z": -1.0986886866,
				"element": "H" 
			},
			{
				"x": 1.3402883722,
				"y": 3.6532796385,
				"z": -0.3707772448,
				"element": "H" 
			},
			{
				"x": -0.3581686958,
				"y": 5.454735484,
				"z": -0.4484518513,
				"element": "H" 
			},
			{
				"x": -2.7668410201,
				"y": 4.8830121897,
				"z": -0.720155348,
				"element": "H" 
			},
			{
				"x": -3.4464567717,
				"y": 2.502701845,
				"z": -0.9255004072,
				"element": "H" 
			},
			{
				"x": 2.8838841692,
				"y": -0.8321054793,
				"z": -0.2146090283,
				"element": "H" 
			},
			{
				"x": 3.4173118654,
				"y": -2.1622023254,
				"z": 1.8608123778,
				"element": "H" 
			},
			{
				"x": 0.3048162475,
				"y": -0.102146704,
				"z": 3.9684936568,
				"element": "H" 
			},
			{
				"x": -0.2314649017,
				"y": 1.2118359124,
				"z": 1.9133907392,
				"element": "H" 
			}
		],
		 "valence_orbital": [ 
			{
				"type": "occ",
				"energy": -0.27317,
				"method": "rhf"
			},
			{
				"type": "occ",
				"energy": -0.27254,
				"method": "rhf"
			},
			{
				"type": "occ",
				"energy": -0.26603,
				"method": "rhf"
			},
			{
				"type": "occ",
				"energy": -0.24834,
				"method": "rhf"
			},
			{
				"type": "occ",
				"energy": -0.24698,
				"method": "rhf"
			},
			{
				"type": "unocc",
				"energy": -0.06165,
				"method": "rhf"
			},
			{
				"type": "unocc",
				"energy": -0.04947,
				"method": "rhf"
			},
			{
				"type": "unocc",
				"energy": -0.02146,
				"method": "rhf"
			},
			{
				"type": "unocc",
				"energy": -0.01436,
				"method": "rhf"
			},
			{
				"type": "unocc",
				"energy": 0.04612,
				"method": "rhf"
			}
		],
		"cosmo_sigma_profile": { 
			"-0.025": 0.0,
			"-0.024": 0.0,
			"-0.023": 0.0,
			"-0.022": 0.0,
			"-0.021": 0.0,
			"-0.02": 0.0,
			"-0.019": 0.180218397576,
			"-0.018": 0.69431546834,
			"-0.017": 1.18694051308,
			"-0.016": 0.782284849745,
			"-0.015": 0.930433776756,
			"-0.014": 0.807078411135,
			"-0.013": 0.265774530245,
			"-0.012": 0.508104544792,
			"-0.011": 1.18678544121,
			"-0.01": 0.600325352767,
			"-0.009": 0.25623006779,
			"-0.008": 3.15123244968,
			"-0.007": 11.9091660315,
			"-0.006": 17.0979260528,
			"-0.005": 17.3993094656,
			"-0.004": 13.6285045617,
			"-0.003": 15.7442555339,
			"-0.002": 14.6395293751,
			"-0.001": 16.24226643,
			"0.0": 22.5814293515,
			"0.001": 21.7439839811,
			"0.002": 25.9601662618,
			"0.003": 22.8210116043,
			"0.004": 14.6061131153,
			"0.005": 5.08805474011,
			"0.006": 4.90872837743,
			"0.007": 5.3220532182,
			"0.008": 4.32829808863,
			"0.009": 4.93008706996,
			"0.01": 4.60051173552,
			"0.011": 6.89463955876,
			"0.012": 3.93247534683,
			"0.013": 0.657737807722,
			"0.014": 0.0,
			"0.015": 0.0,
			"0.016": 0.0,
			"0.017": 0.0,
			"0.018": 0.0,
			"0.019": 0.0,
			"0.02": 0.0,
			"0.021": 0.0,
			"0.022": 0.0,
			"0.023": 0.0,
			"0.024": 0.0,
			"0.025": 0.0
		}
	}
}
