{
	 "smiles": "CC1=CC=CC2=C1CC(NC2)C(O)=O", 
	 "Tm": 590.15, 
	 "num_atms": 27, 
	 "gaussian": { 
		 "optdone": 1, 
		 "sigma_profile": "yes", 
		 "theory": "DFT", 
		 "functional": "B3LYP", 
		 "basiset": "6-31G**", 
		 "properties": { 
			 "R2extent": 2583.9022, 
			 "electric_dipole_moment_norm": 1.10978004127, 
			 "electric_quadrupole_moment_norm": 5.32124656072, 
			 "total_energy": -632.220169961, 
			 "HOMO_LUMO_gap": 0.21623, 
			 "cosmo_polarized_energy": -10.92, 
			 "cosmo_cavitation_energy": 29.03, 
			 "cosmo_dispersion_energy": -20.9, 
			 "cosmo_repulsion_energy": 1.64, 
			 "cosmo_total_nonelectrostatic_energy": 9.77, 
			 "SMD_solvation_energy": 3.03 
		},
		"coords": [
			{
				"x": -0.4015674744,
				"y": -3.0034041493,
				"z": 1.5819791725,
				"element": "C" 
			},
			{
				"x": -1.0683555022,
				"y": -1.9164667221,
				"z": 0.7696218126,
				"element": "C" 
			},
			{
				"x": -2.430180904,
				"y": -1.634993492,
				"z": 0.9470114512,
				"element": "C" 
			},
			{
				"x": -3.063755325,
				"y": -0.620321813,
				"z": 0.2285912402,
				"element": "C" 
			},
			{
				"x": -2.339470933,
				"y": 0.1428877316,
				"z": -0.6869633048,
				"element": "C" 
			},
			{
				"x": -0.9848977337,
				"y": -0.1265798668,
				"z": -0.8885854635,
				"element": "C" 
			},
			{
				"x": -0.3511176646,
				"y": -1.1551667184,
				"z": -0.1706055063,
				"element": "C" 
			},
			{
				"x": 1.1228808806,
				"y": -1.3247937645,
				"z": -0.4585110206,
				"element": "C" 
			},
			{
				"x": 1.8271142192,
				"y": 0.0522047998,
				"z": -0.4008376115,
				"element": "C" 
			},
			{
				"x": 1.2001666877,
				"y": 1.0349856218,
				"z": -1.2920526197,
				"element": "N" 
			},
			{
				"x": -0.1070563183,
				"y": 0.6383942701,
				"z": -1.8546488797,
				"element": "C" 
			},
			{
				"x": 1.9191108941,
				"y": 0.4779320965,
				"z": 1.0704092855,
				"element": "C" 
			},
			{
				"x": 1.6163813714,
				"y": 1.7819796437,
				"z": 1.2750927334,
				"element": "O" 
			},
			{
				"x": 2.2721770004,
				"y": -0.2517209286,
				"z": 1.9718156191,
				"element": "O" 
			},
			{
				"x": 0.0037919612,
				"y": -3.7990034338,
				"z": 0.9457232731,
				"element": "H" 
			},
			{
				"x": 0.4319850255,
				"y": -2.6044763812,
				"z": 2.1709805101,
				"element": "H" 
			},
			{
				"x": -1.1120316182,
				"y": -3.4640514789,
				"z": 2.2735493877,
				"element": "H" 
			},
			{
				"x": -2.9992518085,
				"y": -2.218376037,
				"z": 1.6665825229,
				"element": "H" 
			},
			{
				"x": -4.1196546326,
				"y": -0.4215526204,
				"z": 0.3902159351,
				"element": "H" 
			},
			{
				"x": -2.8234627139,
				"y": 0.9427597224,
				"z": -1.2424376148,
				"element": "H" 
			},
			{
				"x": 1.6152555447,
				"y": -1.9944673299,
				"z": 0.2460832411,
				"element": "H" 
			},
			{
				"x": 1.2732928875,
				"y": -1.738873178,
				"z": -1.4645294935,
				"element": "H" 
			},
			{
				"x": 2.8782427469,
				"y": -0.0951509699,
				"z": -0.6977323898,
				"element": "H" 
			},
			{
				"x": 1.0990859761,
				"y": 1.9139816284,
				"z": -0.7987041946,
				"element": "H" 
			},
			{
				"x": -0.6066188432,
				"y": 1.5440647265,
				"z": -2.2110350047,
				"element": "H" 
			},
			{
				"x": 0.0752349373,
				"y": 0.0201072944,
				"z": -2.7463172008,
				"element": "H" 
			},
			{
				"x": 1.7355013391,
				"y": 1.9423013484,
				"z": 2.2263041198,
				"element": "H" 
			}
		],
		 "valence_orbital": [ 
			{
				"type": "occ",
				"energy": -0.32053,
				"method": "rhf"
			},
			{
				"type": "occ",
				"energy": -0.28571,
				"method": "rhf"
			},
			{
				"type": "occ",
				"energy": -0.23629,
				"method": "rhf"
			},
			{
				"type": "occ",
				"energy": -0.23403,
				"method": "rhf"
			},
			{
				"type": "occ",
				"energy": -0.21729,
				"method": "rhf"
			},
			{
				"type": "unocc",
				"energy": -0.00106,
				"method": "rhf"
			},
			{
				"type": "unocc",
				"energy": 0.00434,
				"method": "rhf"
			},
			{
				"type": "unocc",
				"energy": 0.00834,
				"method": "rhf"
			},
			{
				"type": "unocc",
				"energy": 0.06721,
				"method": "rhf"
			},
			{
				"type": "unocc",
				"energy": 0.09587,
				"method": "rhf"
			}
		],
		"cosmo_sigma_profile": { 
			"-0.025": 0.0,
			"-0.024": 0.0,
			"-0.023": 0.0,
			"-0.022": 0.0,
			"-0.021": 0.0,
			"-0.02": 0.0,
			"-0.019": 0.20538413294,
			"-0.018": 0.689723398826,
			"-0.017": 1.27516151774,
			"-0.016": 0.951376379384,
			"-0.015": 0.39089377411,
			"-0.014": 0.626089978129,
			"-0.013": 0.416810038872,
			"-0.012": 0.56224457601,
			"-0.011": 1.49703382671,
			"-0.01": 0.72805897129,
			"-0.009": 0.549739244697,
			"-0.008": 1.03658183695,
			"-0.007": 1.97423599728,
			"-0.006": 5.41612467851,
			"-0.005": 14.9264029057,
			"-0.004": 21.2826883601,
			"-0.003": 23.0911013324,
			"-0.002": 21.6536246121,
			"-0.001": 19.6337526004,
			"0.0": 16.854891721,
			"0.001": 15.8959761004,
			"0.002": 13.7349548086,
			"0.003": 11.964128429,
			"0.004": 10.9207023988,
			"0.005": 10.9021675683,
			"0.006": 9.7332106482,
			"0.007": 4.64128637247,
			"0.008": 2.23180125586,
			"0.009": 2.1289640212,
			"0.01": 2.69321444951,
			"0.011": 3.65574350679,
			"0.012": 3.238315714,
			"0.013": 0.655336442542,
			"0.014": 0.630334941953,
			"0.015": 0.555910267657,
			"0.016": 0.566027431754,
			"0.017": 0.345655391106,
			"0.018": 0.0528322888805,
			"0.019": 0.0,
			"0.02": 0.0,
			"0.021": 0.0,
			"0.022": 0.0,
			"0.023": 0.0,
			"0.024": 0.0,
			"0.025": 0.0
		}
	}
}
