{
	 "smiles": "CCOC(=O)COC1=CC=CC2=C1C=CC=C2", 
	 "Tm": 329.65, 
	 "num_atms": 31, 
	 "gaussian": { 
		 "optdone": 1, 
		 "sigma_profile": "yes", 
		 "theory": "DFT", 
		 "functional": "B3LYP", 
		 "basiset": "6-31G**", 
		 "properties": { 
			 "R2extent": 5779.9329, 
			 "electric_dipole_moment_norm": 0.941248553784, 
			 "electric_quadrupole_moment_norm": 12.4547498265, 
			 "total_energy": -767.609299359, 
			 "HOMO_LUMO_gap": 0.17199, 
			 "cosmo_polarized_energy": -10.69, 
			 "cosmo_cavitation_energy": 35.14, 
			 "cosmo_dispersion_energy": -25.2, 
			 "cosmo_repulsion_energy": 1.96, 
			 "cosmo_total_nonelectrostatic_energy": 11.91, 
			 "SMD_solvation_energy": 7.17 
		},
		"coords": [
			{
				"x": 1.1449417747,
				"y": 5.1816424288,
				"z": -1.3878527592,
				"element": "C" 
			},
			{
				"x": 0.5944144868,
				"y": 4.8932045521,
				"z": -0.000076886,
				"element": "C" 
			},
			{
				"x": 0.7707645101,
				"y": 3.4961165596,
				"z": 0.3536368098,
				"element": "O" 
			},
			{
				"x": 1.948708805,
				"y": 3.1661562864,
				"z": 0.8962134775,
				"element": "C" 
			},
			{
				"x": 2.862830757,
				"y": 3.9322824639,
				"z": 1.1169770289,
				"element": "O" 
			},
			{
				"x": 2.0688713657,
				"y": 1.6889293659,
				"z": 1.2425143372,
				"element": "C" 
			},
			{
				"x": 0.9007812319,
				"y": 0.97923051,
				"z": 0.9023181334,
				"element": "O" 
			},
			{
				"x": 0.8586953239,
				"y": -0.3650555353,
				"z": 1.1496495598,
				"element": "C" 
			},
			{
				"x": 1.8856808173,
				"y": -1.0912892614,
				"z": 1.718848775,
				"element": "C" 
			},
			{
				"x": 1.7302530157,
				"y": -2.4849997944,
				"z": 1.9287932635,
				"element": "C" 
			},
			{
				"x": 0.5719563404,
				"y": -3.1325132333,
				"z": 1.5755914379,
				"element": "C" 
			},
			{
				"x": -0.5025762966,
				"y": -2.4083138614,
				"z": 0.9871302144,
				"element": "C" 
			},
			{
				"x": -0.3664368177,
				"y": -1.0013582684,
				"z": 0.7666338657,
				"element": "C" 
			},
			{
				"x": -1.436810093,
				"y": -0.2781478877,
				"z": 0.1801023524,
				"element": "C" 
			},
			{
				"x": -2.6016636175,
				"y": -0.9230439589,
				"z": -0.176321677,
				"element": "C" 
			},
			{
				"x": -2.7438040912,
				"y": -2.3142310261,
				"z": 0.0385290373,
				"element": "C" 
			},
			{
				"x": -1.7181226269,
				"y": -3.0371665082,
				"z": 0.6064747919,
				"element": "C" 
			},
			{
				"x": 0.6872240856,
				"y": 4.5247240698,
				"z": -2.1330729058,
				"element": "H" 
			},
			{
				"x": 2.2285543168,
				"y": 5.0424348188,
				"z": -1.4087836316,
				"element": "H" 
			},
			{
				"x": 0.9273822702,
				"y": 6.2188956788,
				"z": -1.6632979768,
				"element": "H" 
			},
			{
				"x": 1.0823746345,
				"y": 5.5112811106,
				"z": 0.7569864463,
				"element": "H" 
			},
			{
				"x": -0.4861860937,
				"y": 5.0450697741,
				"z": 0.0445115294,
				"element": "H" 
			},
			{
				"x": 2.2841307576,
				"y": 1.6247944844,
				"z": 2.3184076447,
				"element": "H" 
			},
			{
				"x": 2.9483910534,
				"y": 1.3008968251,
				"z": 0.7098497747,
				"element": "H" 
			},
			{
				"x": 2.8142053219,
				"y": -0.6155109223,
				"z": 2.0107613608,
				"element": "H" 
			},
			{
				"x": 2.5499175743,
				"y": -3.0383260219,
				"z": 2.3779691607,
				"element": "H" 
			},
			{
				"x": 0.4607624369,
				"y": -4.2005319254,
				"z": 1.7397488469,
				"element": "H" 
			},
			{
				"x": -1.3177596706,
				"y": 0.7874079208,
				"z": 0.0198127367,
				"element": "H" 
			},
			{
				"x": -3.4165449607,
				"y": -0.3620722341,
				"z": -0.6248105273,
				"element": "H" 
			},
			{
				"x": -3.6666580101,
				"y": -2.8115164855,
				"z": -0.2465199475,
				"element": "H" 
			},
			{
				"x": -1.8244786016,
				"y": -4.1060899244,
				"z": 0.7727757262,
				"element": "H" 
			}
		],
		 "valence_orbital": [ 
			{
				"type": "occ",
				"energy": -0.30402,
				"method": "rhf"
			},
			{
				"type": "occ",
				"energy": -0.27996,
				"method": "rhf"
			},
			{
				"type": "occ",
				"energy": -0.26096,
				"method": "rhf"
			},
			{
				"type": "occ",
				"energy": -0.24148,
				"method": "rhf"
			},
			{
				"type": "occ",
				"energy": -0.20254,
				"method": "rhf"
			},
			{
				"type": "unocc",
				"energy": -0.03055,
				"method": "rhf"
			},
			{
				"type": "unocc",
				"energy": -0.00796,
				"method": "rhf"
			},
			{
				"type": "unocc",
				"energy": 0.00618,
				"method": "rhf"
			},
			{
				"type": "unocc",
				"energy": 0.04292,
				"method": "rhf"
			},
			{
				"type": "unocc",
				"energy": 0.08956,
				"method": "rhf"
			}
		],
		"cosmo_sigma_profile": { 
			"-0.025": 0.0,
			"-0.024": 0.0,
			"-0.023": 0.0,
			"-0.022": 0.0,
			"-0.021": 0.0,
			"-0.02": 0.0,
			"-0.019": 0.0,
			"-0.018": 0.0,
			"-0.017": 0.0,
			"-0.016": 0.0,
			"-0.015": 0.0,
			"-0.014": 0.0,
			"-0.013": 0.0,
			"-0.012": 0.0,
			"-0.011": 0.0,
			"-0.01": 0.0,
			"-0.009": 0.0,
			"-0.008": 4.24095276901,
			"-0.007": 8.6381957418,
			"-0.006": 12.706272292,
			"-0.005": 22.9949488387,
			"-0.004": 26.8392798944,
			"-0.003": 26.2313262119,
			"-0.002": 21.4004272939,
			"-0.001": 18.3432175101,
			"0.0": 18.927094745,
			"0.001": 13.1290814361,
			"0.002": 14.1421656284,
			"0.003": 19.1063883042,
			"0.004": 24.6738888476,
			"0.005": 21.7102853436,
			"0.006": 7.23003159652,
			"0.007": 4.34242047321,
			"0.008": 2.9845068357,
			"0.009": 2.9669572955,
			"0.01": 1.79268667833,
			"0.011": 3.24412593878,
			"0.012": 3.78129785194,
			"0.013": 0.280705980334,
			"0.014": 0.0,
			"0.015": 0.0,
			"0.016": 0.0,
			"0.017": 0.0,
			"0.018": 0.0,
			"0.019": 0.0,
			"0.02": 0.0,
			"0.021": 0.0,
			"0.022": 0.0,
			"0.023": 0.0,
			"0.024": 0.0,
			"0.025": 0.0
		}
	}
}
