{
	 "smiles": "CCCCCCCSCCCCCCC", 
	 "Tm": 343.15, 
	 "num_atms": 45, 
	 "gaussian": { 
		 "optdone": 1, 
		 "sigma_profile": "yes", 
		 "theory": "DFT", 
		 "functional": "B3LYP", 
		 "basiset": "6-31G**", 
		 "properties": { 
			 "R2extent": 8076.4347, 
			 "electric_dipole_moment_norm": 1.79658525542, 
			 "electric_quadrupole_moment_norm": 4.53964898202, 
			 "total_energy": -949.795026436, 
			 "HOMO_LUMO_gap": 0.25532, 
			 "cosmo_polarized_energy": -4.42, 
			 "cosmo_cavitation_energy": 45.01, 
			 "cosmo_dispersion_energy": -31.11, 
			 "cosmo_repulsion_energy": 2.52, 
			 "cosmo_total_nonelectrostatic_energy": 16.42, 
			 "SMD_solvation_energy": 5.94 
		},
		"coords": [
			{
				"x": 2.8967218481,
				"y": -4.0570528423,
				"z": -3.3588473372,
				"element": "C" 
			},
			{
				"x": 1.5210999434,
				"y": -4.0461749682,
				"z": -2.6812605048,
				"element": "C" 
			},
			{
				"x": 0.3414146626,
				"y": -4.1801146532,
				"z": -3.6638763215,
				"element": "C" 
			},
			{
				"x": 0.0724510828,
				"y": -2.9571053861,
				"z": -4.5714574054,
				"element": "C" 
			},
			{
				"x": -0.9728734313,
				"y": -1.9564118776,
				"z": -4.0450474262,
				"element": "C" 
			},
			{
				"x": -0.604166353,
				"y": -1.2304702669,
				"z": -2.7418570257,
				"element": "C" 
			},
			{
				"x": -1.649730859,
				"y": -0.1790118604,
				"z": -2.3546983746,
				"element": "C" 
			},
			{
				"x": -1.2743222826,
				"y": 0.7853166999,
				"z": -0.8389669364,
				"element": "S" 
			},
			{
				"x": -1.5793254036,
				"y": -0.4913373911,
				"z": 0.4565700392,
				"element": "C" 
			},
			{
				"x": -1.664975592,
				"y": 0.0918061616,
				"z": 1.8771891808,
				"element": "C" 
			},
			{
				"x": -0.3272270207,
				"y": 0.4033360842,
				"z": 2.5752205415,
				"element": "C" 
			},
			{
				"x": 0.4881345173,
				"y": 1.6014624938,
				"z": 2.0557484727,
				"element": "C" 
			},
			{
				"x": -0.2076444243,
				"y": 2.9606653234,
				"z": 2.2215764422,
				"element": "C" 
			},
			{
				"x": 0.6256059347,
				"y": 4.161398007,
				"z": 1.7411235038,
				"element": "C" 
			},
			{
				"x": 1.8908370425,
				"y": 4.4322115144,
				"z": 2.5644581405,
				"element": "C" 
			},
			{
				"x": 3.0138234989,
				"y": -3.2256069677,
				"z": -4.0621345615,
				"element": "H" 
			},
			{
				"x": 3.051357028,
				"y": -4.9864480265,
				"z": -3.9193638529,
				"element": "H" 
			},
			{
				"x": 3.7014319789,
				"y": -3.9757284963,
				"z": -2.6206882159,
				"element": "H" 
			},
			{
				"x": 1.4745432593,
				"y": -4.8777550031,
				"z": -1.9660817952,
				"element": "H" 
			},
			{
				"x": 1.416442849,
				"y": -3.130614286,
				"z": -2.0870648828,
				"element": "H" 
			},
			{
				"x": -0.5736390436,
				"y": -4.4128862885,
				"z": -3.1020763688,
				"element": "H" 
			},
			{
				"x": 0.5309964575,
				"y": -5.0588718818,
				"z": -4.294634588,
				"element": "H" 
			},
			{
				"x": -0.2792567693,
				"y": -3.3118739501,
				"z": -5.5480431861,
				"element": "H" 
			},
			{
				"x": 1.0118897795,
				"y": -2.4254877082,
				"z": -4.7731458529,
				"element": "H" 
			},
			{
				"x": -1.9287390297,
				"y": -2.4819530545,
				"z": -3.9059539475,
				"element": "H" 
			},
			{
				"x": -1.1542282416,
				"y": -1.2043134705,
				"z": -4.8256508468,
				"element": "H" 
			},
			{
				"x": -0.5013326012,
				"y": -1.9564468618,
				"z": -1.9274678567,
				"element": "H" 
			},
			{
				"x": 0.3715014344,
				"y": -0.7402143768,
				"z": -2.84808703,
				"element": "H" 
			},
			{
				"x": -2.640237762,
				"y": -0.6360638764,
				"z": -2.238776018,
				"element": "H" 
			},
			{
				"x": -1.7385538988,
				"y": 0.5755236313,
				"z": -3.14412537,
				"element": "H" 
			},
			{
				"x": -0.796495966,
				"y": -1.2565494132,
				"z": 0.4132280546,
				"element": "H" 
			},
			{
				"x": -2.5313447242,
				"y": -0.9717373787,
				"z": 0.2047028493,
				"element": "H" 
			},
			{
				"x": -2.1842707608,
				"y": -0.6586837952,
				"z": 2.4877380909,
				"element": "H" 
			},
			{
				"x": -2.3168743646,
				"y": 0.9732125086,
				"z": 1.8710566405,
				"element": "H" 
			},
			{
				"x": -0.5394842565,
				"y": 0.5668631633,
				"z": 3.6409761085,
				"element": "H" 
			},
			{
				"x": 0.3004446504,
				"y": -0.4975424278,
				"z": 2.5308149289,
				"element": "H" 
			},
			{
				"x": 0.7426142844,
				"y": 1.4527908087,
				"z": 0.9992248914,
				"element": "H" 
			},
			{
				"x": 1.440350633,
				"y": 1.6116784944,
				"z": 2.6011881398,
				"element": "H" 
			},
			{
				"x": -0.4744643495,
				"y": 3.1057425382,
				"z": 3.2793813277,
				"element": "H" 
			},
			{
				"x": -1.1530203807,
				"y": 2.9552494986,
				"z": 1.6653589707,
				"element": "H" 
			},
			{
				"x": -0.0082410109,
				"y": 5.0572720656,
				"z": 1.7621031173,
				"element": "H" 
			},
			{
				"x": 0.8987826797,
				"y": 4.0092597224,
				"z": 0.6882246337,
				"element": "H" 
			},
			{
				"x": 2.4094017233,
				"y": 5.3278062347,
				"z": 2.2060254533,
				"element": "H" 
			},
			{
				"x": 1.6469454653,
				"y": 4.5913974758,
				"z": 3.6216694942,
				"element": "H" 
			},
			{
				"x": 2.6013577729,
				"y": 3.600964083,
				"z": 2.5111266834,
				"element": "H" 
			}
		],
		 "valence_orbital": [ 
			{
				"type": "occ",
				"energy": -0.30675,
				"method": "rhf"
			},
			{
				"type": "occ",
				"energy": -0.30406,
				"method": "rhf"
			},
			{
				"type": "occ",
				"energy": -0.29786,
				"method": "rhf"
			},
			{
				"type": "occ",
				"energy": -0.28832,
				"method": "rhf"
			},
			{
				"type": "occ",
				"energy": -0.21223,
				"method": "rhf"
			},
			{
				"type": "unocc",
				"energy": 0.04309,
				"method": "rhf"
			},
			{
				"type": "unocc",
				"energy": 0.07684,
				"method": "rhf"
			},
			{
				"type": "unocc",
				"energy": 0.08162,
				"method": "rhf"
			},
			{
				"type": "unocc",
				"energy": 0.09046,
				"method": "rhf"
			},
			{
				"type": "unocc",
				"energy": 0.10488,
				"method": "rhf"
			}
		],
		"cosmo_sigma_profile": { 
			"-0.025": 0.0,
			"-0.024": 0.0,
			"-0.023": 0.0,
			"-0.022": 0.0,
			"-0.021": 0.0,
			"-0.02": 0.0,
			"-0.019": 0.0,
			"-0.018": 0.0,
			"-0.017": 0.0,
			"-0.016": 0.0,
			"-0.015": 0.0,
			"-0.014": 0.0,
			"-0.013": 0.0,
			"-0.012": 0.0,
			"-0.011": 0.0,
			"-0.01": 0.0,
			"-0.009": 0.0,
			"-0.008": 0.0,
			"-0.007": 0.0,
			"-0.006": 0.0,
			"-0.005": 2.2783245556,
			"-0.004": 9.36106395768,
			"-0.003": 19.9919602718,
			"-0.002": 55.3190650003,
			"-0.001": 71.406528371,
			"0.0": 68.7842916862,
			"0.001": 62.3489513695,
			"0.002": 29.9940778546,
			"0.003": 5.27532541941,
			"0.004": 3.60949452963,
			"0.005": 3.49205235697,
			"0.006": 3.69866399008,
			"0.007": 3.02446038956,
			"0.008": 2.29454847943,
			"0.009": 2.40587076979,
			"0.01": 1.25037804368,
			"0.011": 1.42727006078,
			"0.012": 0.579874345762,
			"0.013": 0.0367226142761,
			"0.014": 0.0,
			"0.015": 0.0,
			"0.016": 0.0,
			"0.017": 0.0,
			"0.018": 0.0,
			"0.019": 0.0,
			"0.02": 0.0,
			"0.021": 0.0,
			"0.022": 0.0,
			"0.023": 0.0,
			"0.024": 0.0,
			"0.025": 0.0
		}
	}
}
