{
	 "smiles": "COC(=O)C1=C(N)SC(C)=C1C1=C(Cl)C=C(Cl)C=C1", 
	 "Tm": 368.15, 
	 "num_atms": 30, 
	 "gaussian": { 
		 "optdone": 1, 
		 "sigma_profile": "yes", 
		 "theory": "DFT", 
		 "functional": "B3LYP", 
		 "basiset": "6-31G**", 
		 "properties": { 
			 "R2extent": 6909.6209, 
			 "electric_dipole_moment_norm": 1.67452371139, 
			 "electric_quadrupole_moment_norm": 7.92817725962, 
			 "total_energy": -2025.79726462, 
			 "HOMO_LUMO_gap": 0.17256, 
			 "cosmo_polarized_energy": -11.35, 
			 "cosmo_cavitation_energy": 39.33, 
			 "cosmo_dispersion_energy": -27.06, 
			 "cosmo_repulsion_energy": 2.09, 
			 "cosmo_total_nonelectrostatic_energy": 14.36, 
			 "SMD_solvation_energy": 7.17 
		},
		"coords": [
			{
				"x": 1.5452104008,
				"y": 1.711756347,
				"z": -2.359227583,
				"element": "C" 
			},
			{
				"x": 0.7404690145,
				"y": 0.7768054601,
				"z": -1.626815343,
				"element": "O" 
			},
			{
				"x": -0.594722849,
				"y": 0.9554816219,
				"z": -1.7246307067,
				"element": "C" 
			},
			{
				"x": -1.0774529295,
				"y": 1.8537457707,
				"z": -2.4154884846,
				"element": "O" 
			},
			{
				"x": -1.3791371941,
				"y": 0.0006604279,
				"z": -0.9502610836,
				"element": "C" 
			},
			{
				"x": -2.7712439438,
				"y": 0.0732244633,
				"z": -0.992307698,
				"element": "C" 
			},
			{
				"x": -3.5285094533,
				"y": 0.9079991276,
				"z": -1.7498783516,
				"element": "N" 
			},
			{
				"x": -3.5033017777,
				"y": -1.1469809855,
				"z": 0.0215547624,
				"element": "S" 
			},
			{
				"x": -1.9239997213,
				"y": -1.7642929734,
				"z": 0.5214077503,
				"element": "C" 
			},
			{
				"x": -1.8641579397,
				"y": -2.8902138812,
				"z": 1.5086944034,
				"element": "C" 
			},
			{
				"x": -0.9134816777,
				"y": -1.0630757541,
				"z": -0.0707796044,
				"element": "C" 
			},
			{
				"x": 0.5151254369,
				"y": -1.4032962472,
				"z": 0.1831815437,
				"element": "C" 
			},
			{
				"x": 1.3163631699,
				"y": -0.7050022522,
				"z": 1.1004371786,
				"element": "C" 
			},
			{
				"x": 0.6583066395,
				"y": 0.6554278522,
				"z": 1.9936474501,
				"element": "Cl" 
			},
			{
				"x": 2.6446724939,
				"y": -1.0545741412,
				"z": 1.340970183,
				"element": "C" 
			},
			{
				"x": 3.1890388423,
				"y": -2.1337107263,
				"z": 0.6480330814,
				"element": "C" 
			},
			{
				"x": 4.8616188706,
				"y": -2.5818047988,
				"z": 0.9437156319,
				"element": "Cl" 
			},
			{
				"x": 2.4307694489,
				"y": -2.8593553582,
				"z": -0.2676907686,
				"element": "C" 
			},
			{
				"x": 1.106465839,
				"y": -2.4845825692,
				"z": -0.4864112214,
				"element": "C" 
			},
			{
				"x": 1.3656481221,
				"y": 2.7323477779,
				"z": -2.0119782218,
				"element": "H" 
			},
			{
				"x": 2.5775619805,
				"y": 1.4191433772,
				"z": -2.1674287516,
				"element": "H" 
			},
			{
				"x": 1.3234777219,
				"y": 1.6600308532,
				"z": -3.428213228,
				"element": "H" 
			},
			{
				"x": -2.9956969404,
				"y": 1.6480159407,
				"z": -2.200694234,
				"element": "H" 
			},
			{
				"x": -4.4869016914,
				"y": 1.0804407701,
				"z": -1.490954304,
				"element": "H" 
			},
			{
				"x": -2.3838227195,
				"y": -3.7840083655,
				"z": 1.1435132784,
				"element": "H" 
			},
			{
				"x": -0.8240065782,
				"y": -3.1621463429,
				"z": 1.7004106608,
				"element": "H" 
			},
			{
				"x": -2.3208503742,
				"y": -2.613770529,
				"z": 2.4665177855,
				"element": "H" 
			},
			{
				"x": 3.2378449231,
				"y": -0.4978481833,
				"z": 2.0557767451,
				"element": "H" 
			},
			{
				"x": 2.8671488346,
				"y": -3.6978728234,
				"z": -0.7982106098,
				"element": "H" 
			},
			{
				"x": 0.5061640516,
				"y": -3.0383438583,
				"z": -1.20139026,
				"element": "H" 
			}
		],
		 "valence_orbital": [ 
			{
				"type": "occ",
				"energy": -0.27255,
				"method": "rhf"
			},
			{
				"type": "occ",
				"energy": -0.26085,
				"method": "rhf"
			},
			{
				"type": "occ",
				"energy": -0.25563,
				"method": "rhf"
			},
			{
				"type": "occ",
				"energy": -0.24461,
				"method": "rhf"
			},
			{
				"type": "occ",
				"energy": -0.1987,
				"method": "rhf"
			},
			{
				"type": "unocc",
				"energy": -0.02614,
				"method": "rhf"
			},
			{
				"type": "unocc",
				"energy": -0.02301,
				"method": "rhf"
			},
			{
				"type": "unocc",
				"energy": -0.01872,
				"method": "rhf"
			},
			{
				"type": "unocc",
				"energy": 0.00774,
				"method": "rhf"
			},
			{
				"type": "unocc",
				"energy": 0.00844,
				"method": "rhf"
			}
		],
		"cosmo_sigma_profile": { 
			"-0.025": 0.0,
			"-0.024": 0.0,
			"-0.023": 0.0,
			"-0.022": 0.0,
			"-0.021": 0.0,
			"-0.02": 0.0,
			"-0.019": 0.0,
			"-0.018": 0.0,
			"-0.017": 0.0,
			"-0.016": 0.0,
			"-0.015": 0.835646542786,
			"-0.014": 1.19716408249,
			"-0.013": 1.19978375826,
			"-0.012": 1.63012921902,
			"-0.011": 1.05963795966,
			"-0.01": 1.8297750341,
			"-0.009": 1.93249575612,
			"-0.008": 4.19262445296,
			"-0.007": 6.53170409883,
			"-0.006": 9.34577992272,
			"-0.005": 14.8826013731,
			"-0.004": 20.458217072,
			"-0.003": 23.8465746806,
			"-0.002": 22.3259087381,
			"-0.001": 25.9970125559,
			"0.0": 25.039752154,
			"0.001": 31.6482402218,
			"0.002": 31.2390527257,
			"0.003": 29.8242602469,
			"0.004": 31.3179035931,
			"0.005": 16.0662227954,
			"0.006": 4.98249523953,
			"0.007": 2.92630807672,
			"0.008": 2.34697132239,
			"0.009": 1.84720967257,
			"0.01": 1.89711306577,
			"0.011": 1.333839007,
			"0.012": 2.31066797384,
			"0.013": 0.703745176696,
			"0.014": 0.0,
			"0.015": 0.0,
			"0.016": 0.0,
			"0.017": 0.0,
			"0.018": 0.0,
			"0.019": 0.0,
			"0.02": 0.0,
			"0.021": 0.0,
			"0.022": 0.0,
			"0.023": 0.0,
			"0.024": 0.0,
			"0.025": 0.0
		}
	}
}
