{
	 "smiles": "CC(=O)OC1=NN(C=C1Br)C1=CC=CC=C1", 
	 "Tm": 356.65, 
	 "num_atms": 25, 
	 "gaussian": { 
		 "optdone": 1, 
		 "sigma_profile": "yes", 
		 "theory": "DFT", 
		 "functional": "B3LYP", 
		 "basiset": "6-31G**", 
		 "properties": { 
			 "R2extent": 6521.8189, 
			 "electric_dipole_moment_norm": 6.12608860775, 
			 "electric_quadrupole_moment_norm": 15.9471352609, 
			 "total_energy": -3255.92195879, 
			 "HOMO_LUMO_gap": 0.19139, 
			 "cosmo_polarized_energy": -12.71, 
			 "cosmo_cavitation_energy": 32.95, 
			 "cosmo_dispersion_energy": -23.66, 
			 "cosmo_repulsion_energy": 1.86, 
			 "cosmo_total_nonelectrostatic_energy": 11.16, 
			 "SMD_solvation_energy": 5.56 
		},
		"coords": [
			{
				"x": 2.1980860112,
				"y": -2.8111467445,
				"z": 1.5945555687,
				"element": "C" 
			},
			{
				"x": 0.9719109235,
				"y": -3.6665377157,
				"z": 1.8029667972,
				"element": "C" 
			},
			{
				"x": 0.890192495,
				"y": -4.5959325697,
				"z": 2.5561554775,
				"element": "O" 
			},
			{
				"x": -0.1524994845,
				"y": -3.3604817985,
				"z": 1.0373115649,
				"element": "O" 
			},
			{
				"x": -0.2091615748,
				"y": -2.2566785175,
				"z": 0.2451120472,
				"element": "C" 
			},
			{
				"x": -0.2372707052,
				"y": -1.0298353696,
				"z": 0.7453975131,
				"element": "N" 
			},
			{
				"x": -0.3647109918,
				"y": -0.2154623801,
				"z": -0.3349352562,
				"element": "N" 
			},
			{
				"x": -0.4348542945,
				"y": -0.9192442484,
				"z": -1.5020509858,
				"element": "C" 
			},
			{
				"x": -0.3289523054,
				"y": -2.2519205056,
				"z": -1.1638530424,
				"element": "C" 
			},
			{
				"x": -0.3506431987,
				"y": -3.7338681168,
				"z": -2.3129354019,
				"element": "Br" 
			},
			{
				"x": -0.4407366285,
				"y": 1.1938581982,
				"z": -0.158616604,
				"element": "C" 
			},
			{
				"x": -0.1004493577,
				"y": 2.0520765235,
				"z": -1.2092996472,
				"element": "C" 
			},
			{
				"x": -0.2014691942,
				"y": 3.43107607,
				"z": -1.0282854995,
				"element": "C" 
			},
			{
				"x": -0.6200956069,
				"y": 3.9552897488,
				"z": 0.1954853888,
				"element": "C" 
			},
			{
				"x": -0.9407263701,
				"y": 3.0886842505,
				"z": 1.2429502,
				"element": "C" 
			},
			{
				"x": -0.8588360056,
				"y": 1.7082669502,
				"z": 1.0728922218,
				"element": "C" 
			},
			{
				"x": 2.0074114872,
				"y": -1.7837448273,
				"z": 1.9138647011,
				"element": "H" 
			},
			{
				"x": 2.4758009447,
				"y": -2.7800090383,
				"z": 0.5364342699,
				"element": "H" 
			},
			{
				"x": 3.0100150993,
				"y": -3.2406252229,
				"z": 2.1798651307,
				"element": "H" 
			},
			{
				"x": -0.5787157813,
				"y": -0.4485747702,
				"z": -2.4610623128,
				"element": "H" 
			},
			{
				"x": 0.261228114,
				"y": 1.6540982641,
				"z": -2.1514762219,
				"element": "H" 
			},
			{
				"x": 0.0631480264,
				"y": 4.0951509598,
				"z": -1.8455448785,
				"element": "H" 
			},
			{
				"x": -0.6912180891,
				"y": 5.0296853626,
				"z": 0.3332756813,
				"element": "H" 
			},
			{
				"x": -1.2657691973,
				"y": 3.4870605667,
				"z": 2.1993528827,
				"element": "H" 
			},
			{
				"x": -1.1111843156,
				"y": 1.0236149307,
				"z": 1.8733404054,
				"element": "H" 
			}
		],
		 "valence_orbital": [ 
			{
				"type": "occ",
				"energy": -0.29209,
				"method": "rhf"
			},
			{
				"type": "occ",
				"energy": -0.27789,
				"method": "rhf"
			},
			{
				"type": "occ",
				"energy": -0.27101,
				"method": "rhf"
			},
			{
				"type": "occ",
				"energy": -0.26178,
				"method": "rhf"
			},
			{
				"type": "occ",
				"energy": -0.23362,
				"method": "rhf"
			},
			{
				"type": "unocc",
				"energy": -0.04223,
				"method": "rhf"
			},
			{
				"type": "unocc",
				"energy": -0.02161,
				"method": "rhf"
			},
			{
				"type": "unocc",
				"energy": 0.00064,
				"method": "rhf"
			},
			{
				"type": "unocc",
				"energy": 0.00559,
				"method": "rhf"
			},
			{
				"type": "unocc",
				"energy": 0.0183,
				"method": "rhf"
			}
		],
		"cosmo_sigma_profile": { 
			"-0.025": 0.0,
			"-0.024": 0.0,
			"-0.023": 0.0,
			"-0.022": 0.0,
			"-0.021": 0.0,
			"-0.02": 0.0,
			"-0.019": 0.0,
			"-0.018": 0.0,
			"-0.017": 0.0,
			"-0.016": 0.0,
			"-0.015": 0.0,
			"-0.014": 0.0,
			"-0.013": 0.0,
			"-0.012": 0.0630206741271,
			"-0.011": 1.60040859938,
			"-0.01": 2.45709697104,
			"-0.009": 1.6827801848,
			"-0.008": 2.91747464649,
			"-0.007": 6.14921932937,
			"-0.006": 16.2544867398,
			"-0.005": 19.2296578506,
			"-0.004": 20.791521703,
			"-0.003": 20.4471477571,
			"-0.002": 16.2799497904,
			"-0.001": 17.7991246376,
			"0.0": 20.9594316449,
			"0.001": 19.4785050358,
			"0.002": 18.3848730441,
			"0.003": 23.379322435,
			"0.004": 24.6103636912,
			"0.005": 8.20836996635,
			"0.006": 4.03050820094,
			"0.007": 3.75963522116,
			"0.008": 4.26134107449,
			"0.009": 4.10626566923,
			"0.01": 5.04462387485,
			"0.011": 5.31113391733,
			"0.012": 1.31317190392,
			"0.013": 0.0,
			"0.014": 0.0,
			"0.015": 0.0,
			"0.016": 0.0,
			"0.017": 0.0,
			"0.018": 0.0,
			"0.019": 0.0,
			"0.02": 0.0,
			"0.021": 0.0,
			"0.022": 0.0,
			"0.023": 0.0,
			"0.024": 0.0,
			"0.025": 0.0
		}
	}
}
