{
	 "smiles": "CCCCC(O)(CCCC)CCCC", 
	 "Tm": 293.15, 
	 "num_atms": 42, 
	 "gaussian": { 
		 "optdone": 1, 
		 "sigma_profile": "yes", 
		 "theory": "DFT", 
		 "functional": "B3LYP", 
		 "basiset": "6-31G**", 
		 "properties": { 
			 "R2extent": 4898.3607, 
			 "electric_dipole_moment_norm": 1.41151216785, 
			 "electric_quadrupole_moment_norm": 4.54140808781, 
			 "total_energy": -587.512836404, 
			 "HOMO_LUMO_gap": 0.32559, 
			 "cosmo_polarized_energy": -5.72, 
			 "cosmo_cavitation_energy": 39.9, 
			 "cosmo_dispersion_energy": -27.13, 
			 "cosmo_repulsion_energy": 2.21, 
			 "cosmo_total_nonelectrostatic_energy": 14.99, 
			 "SMD_solvation_energy": 6.01 
		},
		"coords": [
			{
				"x": -1.9449399636,
				"y": 1.9704635025,
				"z": -3.6512010771,
				"element": "C" 
			},
			{
				"x": -1.7201179531,
				"y": 1.8691591173,
				"z": -2.139386139,
				"element": "C" 
			},
			{
				"x": -0.2402606017,
				"y": 1.9854183321,
				"z": -1.7424217144,
				"element": "C" 
			},
			{
				"x": 0.0386286247,
				"y": 1.8961117977,
				"z": -0.2235156379,
				"element": "C" 
			},
			{
				"x": 0.5431213903,
				"y": 0.5346196961,
				"z": 0.3254651835,
				"element": "C" 
			},
			{
				"x": 1.8017864356,
				"y": 0.2124817476,
				"z": -0.2960969674,
				"element": "O" 
			},
			{
				"x": 0.9228463554,
				"y": 0.6772786324,
				"z": 1.8147028131,
				"element": "C" 
			},
			{
				"x": -0.1852629383,
				"y": 1.109471846,
				"z": 2.78378584,
				"element": "C" 
			},
			{
				"x": 0.2880794464,
				"y": 1.1279568097,
				"z": 4.2444167269,
				"element": "C" 
			},
			{
				"x": -0.7973138297,
				"y": 1.5824584069,
				"z": 5.2251776543,
				"element": "C" 
			},
			{
				"x": -0.4675995578,
				"y": -0.6065414467,
				"z": 0.0469106826,
				"element": "C" 
			},
			{
				"x": -0.021843062,
				"y": -2.0271972767,
				"z": 0.4610408951,
				"element": "C" 
			},
			{
				"x": -0.5349959776,
				"y": -2.5147292918,
				"z": 1.8243998904,
				"element": "C" 
			},
			{
				"x": -0.0939762408,
				"y": -3.9471102671,
				"z": 2.143519507,
				"element": "C" 
			},
			{
				"x": -1.4277917087,
				"y": 1.1644652636,
				"z": -4.1848347624,
				"element": "H" 
			},
			{
				"x": -3.0083805846,
				"y": 1.9055978404,
				"z": -3.9035367032,
				"element": "H" 
			},
			{
				"x": -1.5668329711,
				"y": 2.9207450062,
				"z": -4.0455728238,
				"element": "H" 
			},
			{
				"x": -2.2830729462,
				"y": 2.6639000872,
				"z": -1.6313777163,
				"element": "H" 
			},
			{
				"x": -2.1363810684,
				"y": 0.9240199098,
				"z": -1.7701104734,
				"element": "H" 
			},
			{
				"x": 0.3402877184,
				"y": 1.2281322677,
				"z": -2.2902302637,
				"element": "H" 
			},
			{
				"x": 0.1358497422,
				"y": 2.9463530291,
				"z": -2.1153431327,
				"element": "H" 
			},
			{
				"x": 0.8081878576,
				"y": 2.6296554378,
				"z": 0.04256589,
				"element": "H" 
			},
			{
				"x": -0.8685047153,
				"y": 2.190937397,
				"z": 0.3176899616,
				"element": "H" 
			},
			{
				"x": 1.6354349162,
				"y": 0.04116499,
				"z": -1.232498809,
				"element": "H" 
			},
			{
				"x": 1.3488443784,
				"y": -0.2776296453,
				"z": 2.143222632,
				"element": "H" 
			},
			{
				"x": 1.7479124309,
				"y": 1.3992366787,
				"z": 1.8619677826,
				"element": "H" 
			},
			{
				"x": -1.0504970524,
				"y": 0.4385063245,
				"z": 2.6999453367,
				"element": "H" 
			},
			{
				"x": -0.5500227101,
				"y": 2.1105182442,
				"z": 2.5203092121,
				"element": "H" 
			},
			{
				"x": 1.1620718586,
				"y": 1.7874858725,
				"z": 4.3322598913,
				"element": "H" 
			},
			{
				"x": 0.6384912426,
				"y": 0.1250121195,
				"z": 4.5241002465,
				"element": "H" 
			},
			{
				"x": -1.6710995775,
				"y": 0.9219064237,
				"z": 5.1840361232,
				"element": "H" 
			},
			{
				"x": -1.1409212734,
				"y": 2.5973726202,
				"z": 4.9941355225,
				"element": "H" 
			},
			{
				"x": -0.4302877775,
				"y": 1.583286082,
				"z": 6.2568040845,
				"element": "H" 
			},
			{
				"x": -1.4340692226,
				"y": -0.3620596899,
				"z": 0.5062975831,
				"element": "H" 
			},
			{
				"x": -0.6529390409,
				"y": -0.6062253552,
				"z": -1.0348590191,
				"element": "H" 
			},
			{
				"x": -0.3716749742,
				"y": -2.7395357342,
				"z": -0.2980404805,
				"element": "H" 
			},
			{
				"x": 1.0736317355,
				"y": -2.073814856,
				"z": 0.4324527399,
				"element": "H" 
			},
			{
				"x": -1.6325067017,
				"y": -2.4598079476,
				"z": 1.8351428274,
				"element": "H" 
			},
			{
				"x": -0.1910958387,
				"y": -1.8461752701,
				"z": 2.6222107194,
				"element": "H" 
			},
			{
				"x": -0.4792478832,
				"y": -4.2794757313,
				"z": 3.1131701214,
				"element": "H" 
			},
			{
				"x": 0.9986898662,
				"y": -4.026586478,
				"z": 2.1743820507,
				"element": "H" 
			},
			{
				"x": -0.4533278281,
				"y": -4.6509264927,
				"z": 1.3837138022,
				"element": "H" 
			}
		],
		 "valence_orbital": [ 
			{
				"type": "occ",
				"energy": -0.31377,
				"method": "rhf"
			},
			{
				"type": "occ",
				"energy": -0.31346,
				"method": "rhf"
			},
			{
				"type": "occ",
				"energy": -0.30665,
				"method": "rhf"
			},
			{
				"type": "occ",
				"energy": -0.28889,
				"method": "rhf"
			},
			{
				"type": "occ",
				"energy": -0.25727,
				"method": "rhf"
			},
			{
				"type": "unocc",
				"energy": 0.06832,
				"method": "rhf"
			},
			{
				"type": "unocc",
				"energy": 0.08156,
				"method": "rhf"
			},
			{
				"type": "unocc",
				"energy": 0.09799,
				"method": "rhf"
			},
			{
				"type": "unocc",
				"energy": 0.10145,
				"method": "rhf"
			},
			{
				"type": "unocc",
				"energy": 0.1078,
				"method": "rhf"
			}
		],
		"cosmo_sigma_profile": { 
			"-0.025": 0.0,
			"-0.024": 0.0,
			"-0.023": 0.0,
			"-0.022": 0.0,
			"-0.021": 0.0,
			"-0.02": 0.0,
			"-0.019": 0.0,
			"-0.018": 0.0,
			"-0.017": 0.0,
			"-0.016": 0.0,
			"-0.015": 0.0,
			"-0.014": 0.24291186424,
			"-0.013": 0.563802241025,
			"-0.012": 0.763446624675,
			"-0.011": 0.983282696994,
			"-0.01": 1.47399837243,
			"-0.009": 0.855681651561,
			"-0.008": 1.00490187233,
			"-0.007": 0.901998023867,
			"-0.006": 1.16282015201,
			"-0.005": 1.64752687854,
			"-0.004": 1.39423769065,
			"-0.003": 7.31392031949,
			"-0.002": 47.2918911134,
			"-0.001": 70.3710907107,
			"0.0": 62.768930788,
			"0.001": 55.8753588617,
			"0.002": 30.5382923458,
			"0.003": 3.17703019462,
			"0.004": 2.15254174999,
			"0.005": 1.18545258485,
			"0.006": 1.46616222282,
			"0.007": 1.53898573215,
			"0.008": 1.35154347366,
			"0.009": 1.18108505563,
			"0.01": 1.08551602267,
			"0.011": 1.04850694224,
			"0.012": 1.29386657998,
			"0.013": 1.31999479201,
			"0.014": 1.52983631049,
			"0.015": 1.16818351337,
			"0.016": 0.00040322410249,
			"0.017": 0.0,
			"0.018": 0.0,
			"0.019": 0.0,
			"0.02": 0.0,
			"0.021": 0.0,
			"0.022": 0.0,
			"0.023": 0.0,
			"0.024": 0.0,
			"0.025": 0.0
		}
	}
}
