{
	 "smiles": "NC1=CC=CC(N)=N1", 
	 "Tm": 394.15, 
	 "num_atms": 15, 
	 "gaussian": { 
		 "optdone": 1, 
		 "sigma_profile": "yes", 
		 "theory": "DFT", 
		 "functional": "B3LYP", 
		 "basiset": "6-31G**", 
		 "properties": { 
			 "R2extent": 1001.8153, 
			 "electric_dipole_moment_norm": 0.11155975977, 
			 "electric_quadrupole_moment_norm": 12.2691266372, 
			 "total_energy": -359.021707618, 
			 "HOMO_LUMO_gap": 0.19526, 
			 "cosmo_polarized_energy": -11.71, 
			 "cosmo_cavitation_energy": 18.77, 
			 "cosmo_dispersion_energy": -14.41, 
			 "cosmo_repulsion_energy": 1.22, 
			 "cosmo_total_nonelectrostatic_energy": 5.57, 
			 "SMD_solvation_energy": 1.92 
		},
		"coords": [
			{
				"x": -1.6590762631,
				"y": -1.7539265978,
				"z": 0.2759045241,
				"element": "N" 
			},
			{
				"x": -0.5582462934,
				"y": -1.1320115123,
				"z": -0.292242203,
				"element": "C" 
			},
			{
				"x": 0.2476641643,
				"y": -1.7944678136,
				"z": -1.2362293419,
				"element": "C" 
			},
			{
				"x": 1.3009239943,
				"y": -1.0780178365,
				"z": -1.795964997,
				"element": "C" 
			},
			{
				"x": 1.5334708261,
				"y": 0.2425288667,
				"z": -1.4244186972,
				"element": "C" 
			},
			{
				"x": 0.6678644253,
				"y": 0.8104241963,
				"z": -0.4717142607,
				"element": "C" 
			},
			{
				"x": 0.8583955979,
				"y": 2.102380881,
				"z": -0.0070103739,
				"element": "N" 
			},
			{
				"x": -0.3533302275,
				"y": 0.1396255457,
				"z": 0.0811448773,
				"element": "N" 
			},
			{
				"x": -1.9986673484,
				"y": -1.2932978926,
				"z": 1.1087935006,
				"element": "H" 
			},
			{
				"x": -1.6259155806,
				"y": -2.7606146042,
				"z": 0.3395893663,
				"element": "H" 
			},
			{
				"x": 0.0422076335,
				"y": -2.8209887669,
				"z": -1.5212032364,
				"element": "H" 
			},
			{
				"x": 1.9470659708,
				"y": -1.5536189542,
				"z": -2.5291863177,
				"element": "H" 
			},
			{
				"x": 2.3563647539,
				"y": 0.8145601565,
				"z": -1.8401077407,
				"element": "H" 
			},
			{
				"x": 1.3212679292,
				"y": 2.7438640585,
				"z": -0.6337662487,
				"element": "H" 
			},
			{
				"x": 0.0502104178,
				"y": 2.4865602734,
				"z": 0.4625111489,
				"element": "H" 
			}
		],
		 "valence_orbital": [ 
			{
				"type": "occ",
				"energy": -0.33563,
				"method": "rhf"
			},
			{
				"type": "occ",
				"energy": -0.28376,
				"method": "rhf"
			},
			{
				"type": "occ",
				"energy": -0.25227,
				"method": "rhf"
			},
			{
				"type": "occ",
				"energy": -0.23582,
				"method": "rhf"
			},
			{
				"type": "occ",
				"energy": -0.18886,
				"method": "rhf"
			},
			{
				"type": "unocc",
				"energy": 0.0064,
				"method": "rhf"
			},
			{
				"type": "unocc",
				"energy": 0.03029,
				"method": "rhf"
			},
			{
				"type": "unocc",
				"energy": 0.0943,
				"method": "rhf"
			},
			{
				"type": "unocc",
				"energy": 0.09465,
				"method": "rhf"
			},
			{
				"type": "unocc",
				"energy": 0.11805,
				"method": "rhf"
			}
		],
		"cosmo_sigma_profile": { 
			"-0.025": 0.0,
			"-0.024": 0.0,
			"-0.023": 0.0,
			"-0.022": 0.0,
			"-0.021": 0.0,
			"-0.02": 0.0,
			"-0.019": 0.0,
			"-0.018": 0.0,
			"-0.017": 0.0,
			"-0.016": 0.0,
			"-0.015": 0.0,
			"-0.014": 0.0,
			"-0.013": 1.10047627624,
			"-0.012": 3.91431318853,
			"-0.011": 4.42573834787,
			"-0.01": 4.63719624153,
			"-0.009": 4.51171562008,
			"-0.008": 5.19089344367,
			"-0.007": 4.35273160069,
			"-0.006": 6.35320979583,
			"-0.005": 9.67095970367,
			"-0.004": 6.45529167745,
			"-0.003": 7.24615801036,
			"-0.002": 7.97017743778,
			"-0.001": 4.32532964591,
			"0.0": 5.88232472783,
			"0.001": 5.6286874407,
			"0.002": 6.31662860473,
			"0.003": 6.28495144751,
			"0.004": 8.82608832782,
			"0.005": 11.4216533582,
			"0.006": 10.5484054508,
			"0.007": 4.2282040349,
			"0.008": 4.50213897405,
			"0.009": 2.92207048223,
			"0.01": 2.68608378976,
			"0.011": 3.12751836483,
			"0.012": 2.28745162631,
			"0.013": 2.32083232456,
			"0.014": 1.20322694377,
			"0.015": 0.0176567774065,
			"0.016": 0.0,
			"0.017": 0.0,
			"0.018": 0.0,
			"0.019": 0.0,
			"0.02": 0.0,
			"0.021": 0.0,
			"0.022": 0.0,
			"0.023": 0.0,
			"0.024": 0.0,
			"0.025": 0.0
		}
	}
}
