{
	 "smiles": "NNC(=O)C1=CC(N)=C(N)C=C1", 
	 "Tm": 422.15, 
	 "num_atms": 22, 
	 "gaussian": { 
		 "optdone": 1, 
		 "sigma_profile": "yes", 
		 "theory": "DFT", 
		 "functional": "B3LYP", 
		 "basiset": "6-31G**", 
		 "properties": { 
			 "R2extent": 3351.1787, 
			 "electric_dipole_moment_norm": 3.76162725426, 
			 "electric_quadrupole_moment_norm": 10.0428828366, 
			 "total_energy": -566.99428927, 
			 "HOMO_LUMO_gap": 0.1779, 
			 "cosmo_polarized_energy": -18.6, 
			 "cosmo_cavitation_energy": 25.94, 
			 "cosmo_dispersion_energy": -19.46, 
			 "cosmo_repulsion_energy": 1.57, 
			 "cosmo_total_nonelectrostatic_energy": 8.04, 
			 "SMD_solvation_energy": 5.4 
		},
		"coords": [
			{
				"x": 3.2059291063,
				"y": 4.3591158754,
				"z": 0.8525690778,
				"element": "N" 
			},
			{
				"x": 2.2290189939,
				"y": 3.3408053851,
				"z": 0.7400939396,
				"element": "N" 
			},
			{
				"x": 2.0280279912,
				"y": 2.7340464041,
				"z": -0.4847798216,
				"element": "C" 
			},
			{
				"x": 2.5752805298,
				"y": 3.1652063602,
				"z": -1.4988485057,
				"element": "O" 
			},
			{
				"x": 1.1296010702,
				"y": 1.5435957415,
				"z": -0.4882533994,
				"element": "C" 
			},
			{
				"x": 1.1841368895,
				"y": 0.6984021277,
				"z": -1.6071683279,
				"element": "C" 
			},
			{
				"x": 0.3861145986,
				"y": -0.4363373179,
				"z": -1.6956204508,
				"element": "C" 
			},
			{
				"x": 0.444118596,
				"y": -1.3358991077,
				"z": -2.7808369944,
				"element": "N" 
			},
			{
				"x": -0.4960735823,
				"y": -0.7503647944,
				"z": -0.6305518948,
				"element": "C" 
			},
			{
				"x": -1.2909031473,
				"y": -1.8944963989,
				"z": -0.7537309984,
				"element": "N" 
			},
			{
				"x": -0.5773180475,
				"y": 0.1153505728,
				"z": 0.4651454404,
				"element": "C" 
			},
			{
				"x": 0.2214626944,
				"y": 1.2552472629,
				"z": 0.5382887842,
				"element": "C" 
			},
			{
				"x": 2.7396050668,
				"y": 5.2428214748,
				"z": 0.6488761564,
				"element": "H" 
			},
			{
				"x": 3.8511599605,
				"y": 4.2159447335,
				"z": 0.0724823903,
				"element": "H" 
			},
			{
				"x": 2.1553065007,
				"y": 2.7668630347,
				"z": 1.5682621629,
				"element": "H" 
			},
			{
				"x": 1.863167058,
				"y": 0.9605147207,
				"z": -2.4133856876,
				"element": "H" 
			},
			{
				"x": -0.4791697929,
				"y": -1.5646864662,
				"z": -3.1391127006,
				"element": "H" 
			},
			{
				"x": 1.0299167727,
				"y": -0.9993794428,
				"z": -3.5358447855,
				"element": "H" 
			},
			{
				"x": -1.7414043518,
				"y": -2.181325188,
				"z": 0.1056851998,
				"element": "H" 
			},
			{
				"x": -0.7995842602,
				"y": -2.6679669004,
				"z": -1.1904045756,
				"element": "H" 
			},
			{
				"x": -1.2747673519,
				"y": -0.1115355616,
				"z": 1.267996062,
				"element": "H" 
			},
			{
				"x": 0.1112747053,
				"y": 1.9250774845,
				"z": 1.3852389287,
				"element": "H" 
			}
		],
		 "valence_orbital": [ 
			{
				"type": "occ",
				"energy": -0.28089,
				"method": "rhf"
			},
			{
				"type": "occ",
				"energy": -0.25015,
				"method": "rhf"
			},
			{
				"type": "occ",
				"energy": -0.24111,
				"method": "rhf"
			},
			{
				"type": "occ",
				"energy": -0.22945,
				"method": "rhf"
			},
			{
				"type": "occ",
				"energy": -0.19831,
				"method": "rhf"
			},
			{
				"type": "unocc",
				"energy": -0.02041,
				"method": "rhf"
			},
			{
				"type": "unocc",
				"energy": 0.00714,
				"method": "rhf"
			},
			{
				"type": "unocc",
				"energy": 0.06316,
				"method": "rhf"
			},
			{
				"type": "unocc",
				"energy": 0.07873,
				"method": "rhf"
			},
			{
				"type": "unocc",
				"energy": 0.09639,
				"method": "rhf"
			}
		],
		"cosmo_sigma_profile": { 
			"-0.025": 0.0,
			"-0.024": 0.0,
			"-0.023": 0.0,
			"-0.022": 0.0,
			"-0.021": 0.0,
			"-0.02": 0.0,
			"-0.019": 0.0,
			"-0.018": 0.0,
			"-0.017": 0.0,
			"-0.016": 0.0,
			"-0.015": 0.0,
			"-0.014": 0.336061958926,
			"-0.013": 0.986023362288,
			"-0.012": 3.44695630248,
			"-0.011": 7.374727073,
			"-0.01": 7.58237282765,
			"-0.009": 8.57192692611,
			"-0.008": 9.90181002482,
			"-0.007": 8.08999421219,
			"-0.006": 8.54067809644,
			"-0.005": 9.38359291521,
			"-0.004": 8.58670541264,
			"-0.003": 8.50575075425,
			"-0.002": 8.6495127942,
			"-0.001": 8.07950024435,
			"0.0": 7.14398913453,
			"0.001": 9.44701929067,
			"0.002": 9.60690300502,
			"0.003": 10.0143164939,
			"0.004": 12.025094214,
			"0.005": 13.8831491636,
			"0.006": 11.1982546355,
			"0.007": 4.28539453124,
			"0.008": 3.1047435532,
			"0.009": 3.31521509838,
			"0.01": 2.6937163589,
			"0.011": 3.92218949832,
			"0.012": 3.68515098821,
			"0.013": 5.64894157778,
			"0.014": 4.43794023944,
			"0.015": 0.580109930598,
			"0.016": 0.942273754376,
			"0.017": 0.341667620038,
			"0.018": 0.007175748656,
			"0.019": 0.0,
			"0.02": 0.0,
			"0.021": 0.0,
			"0.022": 0.0,
			"0.023": 0.0,
			"0.024": 0.0,
			"0.025": 0.0
		}
	}
}
