{
	 "smiles": "OC(=O)C(O)(C(F)(F)F)C(F)(F)F", 
	 "Tm": 354.15, 
	 "num_atms": 15, 
	 "gaussian": { 
		 "optdone": 1, 
		 "sigma_profile": "yes", 
		 "theory": "DFT", 
		 "functional": "B3LYP", 
		 "basiset": "6-31G**", 
		 "properties": { 
			 "R2extent": 2130.0718, 
			 "electric_dipole_moment_norm": 2.88257032698, 
			 "electric_quadrupole_moment_norm": 4.31976703423, 
			 "total_energy": -978.346430703, 
			 "HOMO_LUMO_gap": 0.27402, 
			 "cosmo_polarized_energy": -9.54, 
			 "cosmo_cavitation_energy": 22.15, 
			 "cosmo_dispersion_energy": -15.39, 
			 "cosmo_repulsion_energy": 1.12, 
			 "cosmo_total_nonelectrostatic_energy": 7.89, 
			 "SMD_solvation_energy": 7.37 
		},
		"coords": [
			{
				"x": -1.2073419856,
				"y": -1.3864201841,
				"z": 0.4998406819,
				"element": "O" 
			},
			{
				"x": 0.0348353007,
				"y": -1.8621194209,
				"z": 0.544618654,
				"element": "C" 
			},
			{
				"x": 0.3441072548,
				"y": -2.9739720922,
				"z": 0.9121063932,
				"element": "O" 
			},
			{
				"x": 1.1184765259,
				"y": -0.8637803751,
				"z": 0.0766656531,
				"element": "C" 
			},
			{
				"x": 2.3616621392,
				"y": -1.4822837034,
				"z": 0.1731405243,
				"element": "O" 
			},
			{
				"x": 1.1329623738,
				"y": 0.3819145544,
				"z": 1.0018528153,
				"element": "C" 
			},
			{
				"x": 1.2405096551,
				"y": -0.0304454591,
				"z": 2.2808424963,
				"element": "F" 
			},
			{
				"x": 2.178789925,
				"y": 1.1659836351,
				"z": 0.7206213252,
				"element": "F" 
			},
			{
				"x": 0.0139797356,
				"y": 1.114695626,
				"z": 0.8939000658,
				"element": "F" 
			},
			{
				"x": 0.8892331967,
				"y": -0.4842119753,
				"z": -1.4103974259,
				"element": "C" 
			},
			{
				"x": -0.2385095049,
				"y": 0.219829652,
				"z": -1.5927758062,
				"element": "F" 
			},
			{
				"x": 1.9151551764,
				"y": 0.2352187334,
				"z": -1.8768655422,
				"element": "F" 
			},
			{
				"x": 0.7968850076,
				"y": -1.6163859377,
				"z": -2.1363759296,
				"element": "F" 
			},
			{
				"x": -1.8021815953,
				"y": -2.0904910855,
				"z": 0.8127145078,
				"element": "H" 
			},
			{
				"x": 2.1919367951,
				"y": -2.3802319677,
				"z": 0.511911587,
				"element": "H" 
			}
		],
		 "valence_orbital": [ 
			{
				"type": "occ",
				"energy": -0.40844,
				"method": "rhf"
			},
			{
				"type": "occ",
				"energy": -0.38421,
				"method": "rhf"
			},
			{
				"type": "occ",
				"energy": -0.36667,
				"method": "rhf"
			},
			{
				"type": "occ",
				"energy": -0.33381,
				"method": "rhf"
			},
			{
				"type": "occ",
				"energy": -0.31691,
				"method": "rhf"
			},
			{
				"type": "unocc",
				"energy": -0.04289,
				"method": "rhf"
			},
			{
				"type": "unocc",
				"energy": 0.03914,
				"method": "rhf"
			},
			{
				"type": "unocc",
				"energy": 0.06472,
				"method": "rhf"
			},
			{
				"type": "unocc",
				"energy": 0.09927,
				"method": "rhf"
			},
			{
				"type": "unocc",
				"energy": 0.13617,
				"method": "rhf"
			}
		],
		"cosmo_sigma_profile": { 
			"-0.025": 0.0,
			"-0.024": 0.0,
			"-0.023": 0.0,
			"-0.022": 0.0,
			"-0.021": 0.583024875898,
			"-0.02": 1.44480210234,
			"-0.019": 0.750707398751,
			"-0.018": 0.657571703357,
			"-0.017": 1.06754220712,
			"-0.016": 1.04294956598,
			"-0.015": 0.422105820502,
			"-0.014": 1.45714296646,
			"-0.013": 1.08002949743,
			"-0.012": 0.842332068524,
			"-0.011": 1.75305270397,
			"-0.01": 1.69723003842,
			"-0.009": 1.58991623059,
			"-0.008": 1.24346962748,
			"-0.007": 2.60279875256,
			"-0.006": 1.98174972275,
			"-0.005": 2.86810229037,
			"-0.004": 4.76659672039,
			"-0.003": 5.54400647365,
			"-0.002": 7.24481845521,
			"-0.001": 9.11367885748,
			"0.0": 13.1983994314,
			"0.001": 38.5621286284,
			"0.002": 39.5255436414,
			"0.003": 8.11077877296,
			"0.004": 4.83686113784,
			"0.005": 5.86907489794,
			"0.006": 5.35943836699,
			"0.007": 3.43970846634,
			"0.008": 3.64603343102,
			"0.009": 3.88308265715,
			"0.01": 0.719087689394,
			"0.011": 0.0,
			"0.012": 0.0,
			"0.013": 0.0,
			"0.014": 0.0,
			"0.015": 0.0,
			"0.016": 0.0,
			"0.017": 0.0,
			"0.018": 0.0,
			"0.019": 0.0,
			"0.02": 0.0,
			"0.021": 0.0,
			"0.022": 0.0,
			"0.023": 0.0,
			"0.024": 0.0,
			"0.025": 0.0
		}
	}
}
