{
	 "smiles": "ON=CC(=O)NC1=CC=CC=C1", 
	 "Tm": 448.0, 
	 "num_atms": 20, 
	 "gaussian": { 
		 "optdone": 1, 
		 "sigma_profile": "yes", 
		 "theory": "DFT", 
		 "functional": "B3LYP", 
		 "basiset": "6-31G**", 
		 "properties": { 
			 "R2extent": 3458.3658, 
			 "electric_dipole_moment_norm": 3.62586973153, 
			 "electric_quadrupole_moment_norm": 16.0338453547, 
			 "total_energy": -569.571000956, 
			 "HOMO_LUMO_gap": 0.15895, 
			 "cosmo_polarized_energy": -12.53, 
			 "cosmo_cavitation_energy": 24.85, 
			 "cosmo_dispersion_energy": -18.44, 
			 "cosmo_repulsion_energy": 1.47, 
			 "cosmo_total_nonelectrostatic_energy": 7.88, 
			 "SMD_solvation_energy": 5.03 
		},
		"coords": [
			{
				"x": 1.6815904434,
				"y": -1.9560344438,
				"z": 3.2654325659,
				"element": "O" 
			},
			{
				"x": 2.9481181048,
				"y": -2.3481917803,
				"z": 2.8099841252,
				"element": "N" 
			},
			{
				"x": 3.0455503504,
				"y": -2.4292338216,
				"z": 1.5350392311,
				"element": "C" 
			},
			{
				"x": 2.0939614003,
				"y": -2.1957518878,
				"z": 0.3882280495,
				"element": "C" 
			},
			{
				"x": 2.5262573335,
				"y": -2.3697156301,
				"z": -0.7476814738,
				"element": "O" 
			},
			{
				"x": 0.8205773588,
				"y": -1.8075653207,
				"z": 0.7048055356,
				"element": "N" 
			},
			{
				"x": -0.2494543608,
				"y": -1.5286227313,
				"z": -0.1703585964,
				"element": "C" 
			},
			{
				"x": -0.153272241,
				"y": -1.6135839707,
				"z": -1.568615447,
				"element": "C" 
			},
			{
				"x": -1.271490591,
				"y": -1.3165759305,
				"z": -2.3484019902,
				"element": "C" 
			},
			{
				"x": -2.4816408414,
				"y": -0.9373497549,
				"z": -1.7665172191,
				"element": "C" 
			},
			{
				"x": -2.5723125465,
				"y": -0.8542833241,
				"z": -0.3752905148,
				"element": "C" 
			},
			{
				"x": -1.4672250795,
				"y": -1.1468918899,
				"z": 0.4178993772,
				"element": "C" 
			},
			{
				"x": 1.7916286578,
				"y": -1.9493030335,
				"z": 4.2251152959,
				"element": "H" 
			},
			{
				"x": 4.0304596025,
				"y": -2.7338074235,
				"z": 1.1901951312,
				"element": "H" 
			},
			{
				"x": 0.6295325792,
				"y": -1.7105794724,
				"z": 1.6942167195,
				"element": "H" 
			},
			{
				"x": 0.7833672259,
				"y": -1.9072086866,
				"z": -2.0199523953,
				"element": "H" 
			},
			{
				"x": -1.1883705578,
				"y": -1.3848526152,
				"z": -3.4294439396,
				"element": "H" 
			},
			{
				"x": -3.3429334091,
				"y": -0.7094011737,
				"z": -2.3869696497,
				"element": "H" 
			},
			{
				"x": -3.5055437366,
				"y": -0.560881851,
				"z": 0.0967512264,
				"element": "H" 
			},
			{
				"x": -1.5428996931,
				"y": -1.0807652585,
				"z": 1.5008639683,
				"element": "H" 
			}
		],
		 "valence_orbital": [ 
			{
				"type": "occ",
				"energy": -0.31136,
				"method": "rhf"
			},
			{
				"type": "occ",
				"energy": -0.2882,
				"method": "rhf"
			},
			{
				"type": "occ",
				"energy": -0.25965,
				"method": "rhf"
			},
			{
				"type": "occ",
				"energy": -0.25102,
				"method": "rhf"
			},
			{
				"type": "occ",
				"energy": -0.22136,
				"method": "rhf"
			},
			{
				"type": "unocc",
				"energy": -0.06241,
				"method": "rhf"
			},
			{
				"type": "unocc",
				"energy": -0.00112,
				"method": "rhf"
			},
			{
				"type": "unocc",
				"energy": 0.00939,
				"method": "rhf"
			},
			{
				"type": "unocc",
				"energy": 0.04292,
				"method": "rhf"
			},
			{
				"type": "unocc",
				"energy": 0.08777,
				"method": "rhf"
			}
		],
		"cosmo_sigma_profile": { 
			"-0.025": 0.0,
			"-0.024": 0.0,
			"-0.023": 0.0,
			"-0.022": 0.0,
			"-0.021": 0.0,
			"-0.02": 0.0315557681236,
			"-0.019": 0.67479859505,
			"-0.018": 1.39612981603,
			"-0.017": 0.176598786878,
			"-0.016": 1.40014169717,
			"-0.015": 0.877039348939,
			"-0.014": 0.644366859799,
			"-0.013": 0.476301639049,
			"-0.012": 0.856034803728,
			"-0.011": 1.0080111567,
			"-0.01": 2.00525344048,
			"-0.009": 1.98621922866,
			"-0.008": 2.79845684006,
			"-0.007": 5.20094361018,
			"-0.006": 7.95491531623,
			"-0.005": 9.76223615442,
			"-0.004": 13.180417255,
			"-0.003": 14.2743554084,
			"-0.002": 14.7476452169,
			"-0.001": 12.589296348,
			"0.0": 12.7030474961,
			"0.001": 12.5666569323,
			"0.002": 14.6794987059,
			"0.003": 13.8561814603,
			"0.004": 13.2052790355,
			"0.005": 14.0673455173,
			"0.006": 7.83029988338,
			"0.007": 2.16375419133,
			"0.008": 2.58940386998,
			"0.009": 2.35739074144,
			"0.01": 2.74711883661,
			"0.011": 3.16996674233,
			"0.012": 3.10063825455,
			"0.013": 2.16143996037,
			"0.014": 0.160081271772,
			"0.015": 0.0,
			"0.016": 0.0,
			"0.017": 0.0,
			"0.018": 0.0,
			"0.019": 0.0,
			"0.02": 0.0,
			"0.021": 0.0,
			"0.022": 0.0,
			"0.023": 0.0,
			"0.024": 0.0,
			"0.025": 0.0
		}
	}
}
