{
	 "smiles": "NC(=O)C1=C(I)C(F)=CC=C1", 
	 "Tm": 463.15, 
	 "num_atms": 16, 
	 "gaussian": { 
		 "optdone": 1, 
		 "sigma_profile": "yes", 
		 "theory": "DFT", 
		 "functional": "B3LYP", 
		 "basiset": "6-31G**", 
		 "properties": { 
			 "R2extent": 1880.559, 
			 "electric_dipole_moment_norm": 2.17648574082, 
			 "electric_quadrupole_moment_norm": 19.9841586673, 
			 "total_energy": -510.960900344, 
			 "HOMO_LUMO_gap": 0.19741, 
			 "cosmo_polarized_energy": -11.64, 
			 "cosmo_cavitation_energy": 23.85, 
			 "cosmo_dispersion_energy": -18.87, 
			 "cosmo_repulsion_energy": 1.46, 
			 "cosmo_total_nonelectrostatic_energy": 6.45, 
			 "SMD_solvation_energy": 4.53 
		},
		"coords": [
			{
				"x": 0.8155902975,
				"y": -1.006962708,
				"z": -2.6339501431,
				"element": "N" 
			},
			{
				"x": 1.5413045175,
				"y": -1.1556003692,
				"z": -1.4911275123,
				"element": "C" 
			},
			{
				"x": 2.624131633,
				"y": -1.726092014,
				"z": -1.4726159911,
				"element": "O" 
			},
			{
				"x": 0.9046497918,
				"y": -0.6889552293,
				"z": -0.1945225285,
				"element": "C" 
			},
			{
				"x": 0.2112559573,
				"y": 0.512878331,
				"z": 0.0350654594,
				"element": "C" 
			},
			{
				"x": -0.0519920364,
				"y": 2.0622540138,
				"z": -1.3939044426,
				"element": "I" 
			},
			{
				"x": -0.2938354577,
				"y": 0.7729746713,
				"z": 1.3130118883,
				"element": "C" 
			},
			{
				"x": -0.9448092692,
				"y": 1.9238982437,
				"z": 1.5524447336,
				"element": "F" 
			},
			{
				"x": -0.1384237857,
				"y": -0.1211113327,
				"z": 2.3645882287,
				"element": "C" 
			},
			{
				"x": 0.5622346655,
				"y": -1.30404725,
				"z": 2.1413905498,
				"element": "C" 
			},
			{
				"x": 1.0848228295,
				"y": -1.5738832283,
				"z": 0.8810354166,
				"element": "C" 
			},
			{
				"x": 1.2732009986,
				"y": -1.2582657625,
				"z": -3.4979586764,
				"element": "H" 
			},
			{
				"x": -0.0183646222,
				"y": -0.4437628831,
				"z": -2.6781044478,
				"element": "H" 
			},
			{
				"x": -0.555885034,
				"y": 0.1335682867,
				"z": 3.3326805643,
				"element": "H" 
			},
			{
				"x": 0.7050398968,
				"y": -2.0101310695,
				"z": 2.9530473509,
				"element": "H" 
			},
			{
				"x": 1.6555796176,
				"y": -2.4761616999,
				"z": 0.69381955,
				"element": "H" 
			}
		],
		 "valence_orbital": [ 
			{
				"type": "occ",
				"energy": -0.28848,
				"method": "rhf"
			},
			{
				"type": "occ",
				"energy": -0.27506,
				"method": "rhf"
			},
			{
				"type": "occ",
				"energy": -0.26669,
				"method": "rhf"
			},
			{
				"type": "occ",
				"energy": -0.25543,
				"method": "rhf"
			},
			{
				"type": "occ",
				"energy": -0.25138,
				"method": "rhf"
			},
			{
				"type": "unocc",
				"energy": -0.05397,
				"method": "rhf"
			},
			{
				"type": "unocc",
				"energy": -0.04757,
				"method": "rhf"
			},
			{
				"type": "unocc",
				"energy": -0.02042,
				"method": "rhf"
			},
			{
				"type": "unocc",
				"energy": 0.03629,
				"method": "rhf"
			},
			{
				"type": "unocc",
				"energy": 0.03988,
				"method": "rhf"
			}
		],
		"cosmo_sigma_profile": { 
			"-0.025": 0.0,
			"-0.024": 0.0,
			"-0.023": 0.0,
			"-0.022": 0.0,
			"-0.021": 0.0,
			"-0.02": 0.0,
			"-0.019": 0.0,
			"-0.018": 0.0,
			"-0.017": 0.0,
			"-0.016": 0.0,
			"-0.015": 0.125062606505,
			"-0.014": 0.965741783954,
			"-0.013": 1.61790305997,
			"-0.012": 1.64427090079,
			"-0.011": 2.30196043888,
			"-0.01": 2.30320802444,
			"-0.009": 2.87326392285,
			"-0.008": 4.60643420367,
			"-0.007": 6.85400479976,
			"-0.006": 10.4567352326,
			"-0.005": 8.12324900016,
			"-0.004": 7.66357844967,
			"-0.003": 7.88972063843,
			"-0.002": 10.0447375151,
			"-0.001": 15.8975978134,
			"0.0": 17.9156367543,
			"0.001": 19.5558498198,
			"0.002": 17.9030869974,
			"0.003": 17.8037383519,
			"0.004": 14.2046290422,
			"0.005": 5.92103094617,
			"0.006": 1.82345003142,
			"0.007": 1.76168427796,
			"0.008": 1.35707338901,
			"0.009": 1.06741095645,
			"0.01": 1.61179158736,
			"0.011": 1.69371765568,
			"0.012": 2.19410113954,
			"0.013": 5.61669366731,
			"0.014": 2.48585188953,
			"0.015": 0.0111102917908,
			"0.016": 0.0,
			"0.017": 0.0,
			"0.018": 0.0,
			"0.019": 0.0,
			"0.02": 0.0,
			"0.021": 0.0,
			"0.022": 0.0,
			"0.023": 0.0,
			"0.024": 0.0,
			"0.025": 0.0
		}
	}
}
