{
	 "smiles": "N#CC1=CC=C(C#N)C2=CC=CC=C12", 
	 "Tm": 483.15, 
	 "num_atms": 20, 
	 "gaussian": { 
		 "optdone": 1, 
		 "sigma_profile": "yes", 
		 "theory": "DFT", 
		 "functional": "B3LYP", 
		 "basiset": "6-31G**", 
		 "properties": { 
			 "R2extent": 3790.0455, 
			 "electric_dipole_moment_norm": 1.23062645429, 
			 "electric_quadrupole_moment_norm": 33.8475205485, 
			 "total_energy": -570.372343071, 
			 "HOMO_LUMO_gap": 0.14922, 
			 "cosmo_polarized_energy": -11.81, 
			 "cosmo_cavitation_energy": 26.54, 
			 "cosmo_dispersion_energy": -18.43, 
			 "cosmo_repulsion_energy": 1.41, 
			 "cosmo_total_nonelectrostatic_energy": 9.52, 
			 "SMD_solvation_energy": 6.79 
		},
		"coords": [
			{
				"x": -1.0276058338,
				"y": -1.0863543595,
				"z": -5.0797820971,
				"element": "N" 
			},
			{
				"x": -1.118218821,
				"y": -0.9767034499,
				"z": -3.9249710963,
				"element": "C" 
			},
			{
				"x": -1.2304597402,
				"y": -0.8363572551,
				"z": -2.5031484928,
				"element": "C" 
			},
			{
				"x": -1.0565579066,
				"y": -1.952039324,
				"z": -1.6974121372,
				"element": "C" 
			},
			{
				"x": -1.1613510569,
				"y": -1.8417904758,
				"z": -0.3007549328,
				"element": "C" 
			},
			{
				"x": -1.4397721936,
				"y": -0.616178258,
				"z": 0.2862400783,
				"element": "C" 
			},
			{
				"x": -1.541187535,
				"y": -0.531583756,
				"z": 1.7132979253,
				"element": "C" 
			},
			{
				"x": -1.6242819034,
				"y": -0.4588122778,
				"z": 2.8715943567,
				"element": "N" 
			},
			{
				"x": -1.6262978482,
				"y": 0.5605672879,
				"z": -0.5118283531,
				"element": "C" 
			},
			{
				"x": -1.9120732478,
				"y": 1.8275299393,
				"z": 0.0600027346,
				"element": "C" 
			},
			{
				"x": -2.0841945873,
				"y": 2.9331479752,
				"z": -0.741938906,
				"element": "C" 
			},
			{
				"x": -1.9785964824,
				"y": 2.8221385694,
				"z": -2.1484277394,
				"element": "C" 
			},
			{
				"x": -1.7023502817,
				"y": 1.60703516,
				"z": -2.7335335568,
				"element": "C" 
			},
			{
				"x": -1.5194757138,
				"y": 0.4482339367,
				"z": -1.9350490892,
				"element": "C" 
			},
			{
				"x": -0.83871607,
				"y": -2.9131947456,
				"z": -2.14944809,
				"element": "H" 
			},
			{
				"x": -1.0242098117,
				"y": -2.7180230032,
				"z": 0.3229600127,
				"element": "H" 
			},
			{
				"x": -1.9926644367,
				"y": 1.9106112356,
				"z": 1.1390855641,
				"element": "H" 
			},
			{
				"x": -2.3024715426,
				"y": 3.8973086536,
				"z": -0.2933078,
				"element": "H" 
			},
			{
				"x": -2.1165635233,
				"y": 3.7018771547,
				"z": -2.7693511948,
				"element": "H" 
			},
			{
				"x": -1.6209514641,
				"y": 1.5197869925,
				"z": -3.8122271862,
				"element": "H" 
			}
		],
		 "valence_orbital": [ 
			{
				"type": "occ",
				"energy": -0.34486,
				"method": "rhf"
			},
			{
				"type": "occ",
				"energy": -0.34016,
				"method": "rhf"
			},
			{
				"type": "occ",
				"energy": -0.30414,
				"method": "rhf"
			},
			{
				"type": "occ",
				"energy": -0.28194,
				"method": "rhf"
			},
			{
				"type": "occ",
				"energy": -0.25099,
				"method": "rhf"
			},
			{
				"type": "unocc",
				"energy": -0.10177,
				"method": "rhf"
			},
			{
				"type": "unocc",
				"energy": -0.0459,
				"method": "rhf"
			},
			{
				"type": "unocc",
				"energy": -0.02653,
				"method": "rhf"
			},
			{
				"type": "unocc",
				"energy": 0.01538,
				"method": "rhf"
			},
			{
				"type": "unocc",
				"energy": 0.01684,
				"method": "rhf"
			}
		],
		"cosmo_sigma_profile": { 
			"-0.025": 0.0,
			"-0.024": 0.0,
			"-0.023": 0.0,
			"-0.022": 0.0,
			"-0.021": 0.0,
			"-0.02": 0.0,
			"-0.019": 0.0,
			"-0.018": 0.0,
			"-0.017": 0.0,
			"-0.016": 0.0,
			"-0.015": 0.0,
			"-0.014": 0.0,
			"-0.013": 0.0,
			"-0.012": 0.0,
			"-0.011": 0.0,
			"-0.01": 0.236472714031,
			"-0.009": 4.46833295718,
			"-0.008": 5.56721099902,
			"-0.007": 10.1471717892,
			"-0.006": 11.9073623769,
			"-0.005": 12.1373380444,
			"-0.004": 11.2537906018,
			"-0.003": 19.3060449912,
			"-0.002": 20.652170103,
			"-0.001": 21.120600666,
			"0.0": 17.8095326564,
			"0.001": 12.1241859691,
			"0.002": 13.2508479637,
			"0.003": 10.2104216633,
			"0.004": 3.98640084938,
			"0.005": 4.39259743425,
			"0.006": 5.11818311321,
			"0.007": 5.9626055153,
			"0.008": 5.69710872085,
			"0.009": 6.43726658574,
			"0.01": 5.16452733456,
			"0.011": 5.28966880789,
			"0.012": 4.27126415955,
			"0.013": 0.583014991011,
			"0.014": 0.0,
			"0.015": 0.0,
			"0.016": 0.0,
			"0.017": 0.0,
			"0.018": 0.0,
			"0.019": 0.0,
			"0.02": 0.0,
			"0.021": 0.0,
			"0.022": 0.0,
			"0.023": 0.0,
			"0.024": 0.0,
			"0.025": 0.0
		}
	}
}
