{
	 "smiles": "C[Si](C)(C)O[Si](C)(O[Si](C)(C)C)O[Si](C)(C)C", 
	 "Tm": 197.15, 
	 "num_atms": 47, 
	 "gaussian": { 
		 "optdone": 1, 
		 "sigma_profile": "yes", 
		 "theory": "DFT", 
		 "functional": "B3LYP", 
		 "basiset": "6-31G**", 
		 "properties": { 
			 "R2extent": 6973.7756, 
			 "electric_dipole_moment_norm": 0.332088150948, 
			 "electric_quadrupole_moment_norm": 1.58836083432, 
			 "total_energy": -1783.2392734, 
			 "HOMO_LUMO_gap": 0.31515, 
			 "cosmo_polarized_energy": -5.39, 
			 "cosmo_cavitation_energy": 55.96, 
			 "cosmo_dispersion_energy": -25.65, 
			 "cosmo_repulsion_energy": 2.39, 
			 "cosmo_total_nonelectrostatic_energy": 32.7, 
			 "SMD_solvation_energy": 13.94 
		},
		"coords": [
			{
				"x": -2.8522201075,
				"y": 0.0453490083,
				"z": 1.4444046056,
				"element": "C" 
			},
			{
				"x": -2.4075136118,
				"y": 1.6004510658,
				"z": 0.4764827822,
				"element": "Si" 
			},
			{
				"x": -2.713310893,
				"y": 3.1365892263,
				"z": 1.5218186982,
				"element": "C" 
			},
			{
				"x": -3.4003465356,
				"y": 1.6758411508,
				"z": -1.124352253,
				"element": "C" 
			},
			{
				"x": -0.7723543008,
				"y": 1.5811780127,
				"z": 0.1240112448,
				"element": "O" 
			},
			{
				"x": 0.3829234938,
				"y": 0.9278904065,
				"z": -0.8515960642,
				"element": "Si" 
			},
			{
				"x": 0.8668224674,
				"y": 2.1555745249,
				"z": -2.1715592718,
				"element": "C" 
			},
			{
				"x": -0.2126125924,
				"y": -0.4395913738,
				"z": -1.5503474996,
				"element": "O" 
			},
			{
				"x": 0.1343626361,
				"y": -2.0246270787,
				"z": -1.9573661587,
				"element": "Si" 
			},
			{
				"x": -1.1862358703,
				"y": -2.5640710292,
				"z": -3.1866277433,
				"element": "C" 
			},
			{
				"x": 0.0673691316,
				"y": -3.0935127105,
				"z": -0.4062676442,
				"element": "C" 
			},
			{
				"x": 1.8478659682,
				"y": -2.1183483688,
				"z": -2.7379673194,
				"element": "C" 
			},
			{
				"x": 1.698284586,
				"y": 0.5363258173,
				"z": 0.0594676684,
				"element": "O" 
			},
			{
				"x": 2.4779900381,
				"y": 0.8102754724,
				"z": 1.5139094216,
				"element": "Si" 
			},
			{
				"x": 2.4912870934,
				"y": 2.6581731032,
				"z": 1.8871687721,
				"element": "C" 
			},
			{
				"x": 4.2335529385,
				"y": 0.1595386644,
				"z": 1.312447984,
				"element": "C" 
			},
			{
				"x": 1.582088822,
				"y": -0.1232002339,
				"z": 2.8845851884,
				"element": "C" 
			},
			{
				"x": -3.9129990181,
				"y": 0.0368763801,
				"z": 1.7206057997,
				"element": "H" 
			},
			{
				"x": -2.6538173301,
				"y": -0.8543179404,
				"z": 0.8522239633,
				"element": "H" 
			},
			{
				"x": -2.2671411315,
				"y": -0.0285659925,
				"z": 2.3675576837,
				"element": "H" 
			},
			{
				"x": -2.1222873722,
				"y": 3.111138369,
				"z": 2.4436726602,
				"element": "H" 
			},
			{
				"x": -2.4389894717,
				"y": 4.0458371887,
				"z": 0.9763202839,
				"element": "H" 
			},
			{
				"x": -3.7687243159,
				"y": 3.2222872138,
				"z": 1.8047003294,
				"element": "H" 
			},
			{
				"x": -4.4780871616,
				"y": 1.6757194919,
				"z": -0.9244894294,
				"element": "H" 
			},
			{
				"x": -3.1691132993,
				"y": 2.5821697198,
				"z": -1.6947601742,
				"element": "H" 
			},
			{
				"x": -3.177495164,
				"y": 0.8137839954,
				"z": -1.7619683345,
				"element": "H" 
			},
			{
				"x": 0.0174460815,
				"y": 2.384357877,
				"z": -2.8231385637,
				"element": "H" 
			},
			{
				"x": 1.2126344414,
				"y": 3.0935615572,
				"z": -1.725524517,
				"element": "H" 
			},
			{
				"x": 1.6745672041,
				"y": 1.7603167806,
				"z": -2.7958019755,
				"element": "H" 
			},
			{
				"x": -2.187447806,
				"y": -2.490634982,
				"z": -2.748496944,
				"element": "H" 
			},
			{
				"x": -1.1694947851,
				"y": -1.9363783565,
				"z": -4.0839983939,
				"element": "H" 
			},
			{
				"x": -1.0360089917,
				"y": -3.6027606465,
				"z": -3.5025701121,
				"element": "H" 
			},
			{
				"x": -0.9153887912,
				"y": -3.0349140058,
				"z": 0.0741434866,
				"element": "H" 
			},
			{
				"x": 0.2622804772,
				"y": -4.1468819631,
				"z": -0.6387160679,
				"element": "H" 
			},
			{
				"x": 0.8148455681,
				"y": -2.7686401044,
				"z": 0.325255192,
				"element": "H" 
			},
			{
				"x": 2.6125323827,
				"y": -1.7495530842,
				"z": -2.0461077565,
				"element": "H" 
			},
			{
				"x": 1.9038212399,
				"y": -1.514957316,
				"z": -3.6506788305,
				"element": "H" 
			},
			{
				"x": 2.1068436962,
				"y": -3.1492712864,
				"z": -3.0056043649,
				"element": "H" 
			},
			{
				"x": 2.9884273925,
				"y": 2.8680179603,
				"z": 2.841247258,
				"element": "H" 
			},
			{
				"x": 1.4706951347,
				"y": 3.0508320348,
				"z": 1.9476056034,
				"element": "H" 
			},
			{
				"x": 3.0194777447,
				"y": 3.2185371781,
				"z": 1.1078927362,
				"element": "H" 
			},
			{
				"x": 4.7576368611,
				"y": 0.6820532501,
				"z": 0.5050687445,
				"element": "H" 
			},
			{
				"x": 4.2333511541,
				"y": -0.9089735195,
				"z": 1.0714957479,
				"element": "H" 
			},
			{
				"x": 4.8162398834,
				"y": 0.2939933481,
				"z": 2.2309610888,
				"element": "H" 
			},
			{
				"x": 1.5445473037,
				"y": -1.1976241028,
				"z": 2.6743186477,
				"element": "H" 
			},
			{
				"x": 2.0820263341,
				"y": 0.0099567475,
				"z": 3.8509847509,
				"element": "H" 
			},
			{
				"x": 0.5511684751,
				"y": 0.2310985498,
				"z": 2.9897890766,
				"element": "H" 
			}
		],
		 "valence_orbital": [ 
			{
				"type": "occ",
				"energy": -0.28451,
				"method": "rhf"
			},
			{
				"type": "occ",
				"energy": -0.28153,
				"method": "rhf"
			},
			{
				"type": "occ",
				"energy": -0.27459,
				"method": "rhf"
			},
			{
				"type": "occ",
				"energy": -0.27454,
				"method": "rhf"
			},
			{
				"type": "occ",
				"energy": -0.27003,
				"method": "rhf"
			},
			{
				"type": "unocc",
				"energy": 0.04512,
				"method": "rhf"
			},
			{
				"type": "unocc",
				"energy": 0.07172,
				"method": "rhf"
			},
			{
				"type": "unocc",
				"energy": 0.07299,
				"method": "rhf"
			},
			{
				"type": "unocc",
				"energy": 0.0731,
				"method": "rhf"
			},
			{
				"type": "unocc",
				"energy": 0.09371,
				"method": "rhf"
			}
		],
		"cosmo_sigma_profile": { 
			"-0.025": 0.0,
			"-0.024": 0.0,
			"-0.023": 0.0,
			"-0.022": 0.0,
			"-0.021": 0.0,
			"-0.02": 0.0,
			"-0.019": 0.0,
			"-0.018": 0.0,
			"-0.017": 0.0,
			"-0.016": 0.0,
			"-0.015": 0.0,
			"-0.014": 0.0,
			"-0.013": 0.0,
			"-0.012": 0.0,
			"-0.011": 0.0,
			"-0.01": 0.0,
			"-0.009": 0.0,
			"-0.008": 0.0,
			"-0.007": 0.0,
			"-0.006": 0.0,
			"-0.005": 0.0493912793716,
			"-0.004": 15.9861861832,
			"-0.003": 50.5050571249,
			"-0.002": 57.3192351249,
			"-0.001": 59.4223819111,
			"0.0": 58.6864067612,
			"0.001": 74.6690541906,
			"0.002": 46.2338191495,
			"0.003": 26.734102987,
			"0.004": 7.55698651066,
			"0.005": 5.99756228149,
			"0.006": 5.30608720651,
			"0.007": 2.80918054521,
			"0.008": 2.33611198057,
			"0.009": 0.864033652715,
			"0.01": 0.0,
			"0.011": 0.0,
			"0.012": 0.0,
			"0.013": 0.0,
			"0.014": 0.0,
			"0.015": 0.0,
			"0.016": 0.0,
			"0.017": 0.0,
			"0.018": 0.0,
			"0.019": 0.0,
			"0.02": 0.0,
			"0.021": 0.0,
			"0.022": 0.0,
			"0.023": 0.0,
			"0.024": 0.0,
			"0.025": 0.0
		}
	}
}
