{
	 "smiles": "COC1=C(C(O)=O)C(OC)=C(C=C1Cl)[N+]([O-])=O", 
	 "Tm": 404.15, 
	 "num_atms": 25, 
	 "gaussian": { 
		 "optdone": 1, 
		 "sigma_profile": "yes", 
		 "theory": "DFT", 
		 "functional": "B3LYP", 
		 "basiset": "6-31G**", 
		 "properties": { 
			 "R2extent": 4838.3928, 
			 "electric_dipole_moment_norm": 4.4857345452, 
			 "electric_quadrupole_moment_norm": 16.6854510092, 
			 "total_energy": -1313.92289762, 
			 "HOMO_LUMO_gap": 0.16931, 
			 "cosmo_polarized_energy": -16.94, 
			 "cosmo_cavitation_energy": 31.55, 
			 "cosmo_dispersion_energy": -22.74, 
			 "cosmo_repulsion_energy": 1.75, 
			 "cosmo_total_nonelectrostatic_energy": 10.57, 
			 "SMD_solvation_energy": 9.72 
		},
		"coords": [
			{
				"x": 3.0414115785,
				"y": -1.4937285167,
				"z": -2.0544978291,
				"element": "C" 
			},
			{
				"x": 2.267689591,
				"y": -0.3153594235,
				"z": -2.3905842133,
				"element": "O" 
			},
			{
				"x": 1.0177996958,
				"y": -0.2380553676,
				"z": -1.8147602378,
				"element": "C" 
			},
			{
				"x": 0.8267878699,
				"y": 0.5285397294,
				"z": -0.643396869,
				"element": "C" 
			},
			{
				"x": 1.9986176778,
				"y": 1.1670616966,
				"z": 0.08828243,
				"element": "C" 
			},
			{
				"x": 3.1040373158,
				"y": 1.4115629404,
				"z": -0.639826357,
				"element": "O" 
			},
			{
				"x": 1.958341129,
				"y": 1.4617388178,
				"z": 1.2589188395,
				"element": "O" 
			},
			{
				"x": -0.4854297807,
				"y": 0.6499802639,
				"z": -0.1101556622,
				"element": "C" 
			},
			{
				"x": -0.7579163649,
				"y": 1.2634989687,
				"z": 1.0559603074,
				"element": "O" 
			},
			{
				"x": -0.760244498,
				"y": 2.7021326202,
				"z": 1.1011650315,
				"element": "C" 
			},
			{
				"x": -1.5347186313,
				"y": -0.0091007541,
				"z": -0.7784031307,
				"element": "C" 
			},
			{
				"x": -1.3312799285,
				"y": -0.7962442849,
				"z": -1.9050247858,
				"element": "C" 
			},
			{
				"x": -0.0549372275,
				"y": -0.8949845237,
				"z": -2.4358519967,
				"element": "C" 
			},
			{
				"x": 0.1991838323,
				"y": -1.8145451038,
				"z": -3.899024345,
				"element": "Cl" 
			},
			{
				"x": -2.9267209284,
				"y": 0.1125807305,
				"z": -0.3128122036,
				"element": "N" 
			},
			{
				"x": -3.6359291125,
				"y": -0.8859929688,
				"z": -0.4306868936,
				"element": "O" 
			},
			{
				"x": -3.2991761773,
				"y": 1.1990447691,
				"z": 0.1180240945,
				"element": "O" 
			},
			{
				"x": 3.9641713806,
				"y": -1.4140656304,
				"z": -2.6290563022,
				"element": "H" 
			},
			{
				"x": 3.2664521434,
				"y": -1.5077394228,
				"z": -0.9837821918,
				"element": "H" 
			},
			{
				"x": 2.5018714647,
				"y": -2.397817347,
				"z": -2.3437137476,
				"element": "H" 
			},
			{
				"x": 2.9980214581,
				"y": 1.0319877106,
				"z": -1.5352084991,
				"element": "H" 
			},
			{
				"x": 0.2044922551,
				"y": 3.1107705301,
				"z": 0.7958774162,
				"element": "H" 
			},
			{
				"x": -0.9408666543,
				"y": 2.9559361743,
				"z": 2.1452417611,
				"element": "H" 
			},
			{
				"x": -1.5733302514,
				"y": 3.0852739041,
				"z": 0.4792509185,
				"element": "H" 
			},
			{
				"x": -2.1709278372,
				"y": -1.3047755123,
				"z": -2.3617355344,
				"element": "H" 
			}
		],
		 "valence_orbital": [ 
			{
				"type": "occ",
				"energy": -0.31248,
				"method": "rhf"
			},
			{
				"type": "occ",
				"energy": -0.30369,
				"method": "rhf"
			},
			{
				"type": "occ",
				"energy": -0.29024,
				"method": "rhf"
			},
			{
				"type": "occ",
				"energy": -0.27694,
				"method": "rhf"
			},
			{
				"type": "occ",
				"energy": -0.26764,
				"method": "rhf"
			},
			{
				"type": "unocc",
				"energy": -0.09833,
				"method": "rhf"
			},
			{
				"type": "unocc",
				"energy": -0.07286,
				"method": "rhf"
			},
			{
				"type": "unocc",
				"energy": -0.03342,
				"method": "rhf"
			},
			{
				"type": "unocc",
				"energy": -0.00603,
				"method": "rhf"
			},
			{
				"type": "unocc",
				"energy": 0.02702,
				"method": "rhf"
			}
		],
		"cosmo_sigma_profile": { 
			"-0.025": 0.0,
			"-0.024": 0.0,
			"-0.023": 0.0,
			"-0.022": 0.0,
			"-0.021": 0.0,
			"-0.02": 0.0,
			"-0.019": 0.0,
			"-0.018": 0.0,
			"-0.017": 0.0,
			"-0.016": 0.0,
			"-0.015": 0.0,
			"-0.014": 0.0,
			"-0.013": 0.0,
			"-0.012": 0.0571562818181,
			"-0.011": 0.73618666688,
			"-0.01": 2.30265812823,
			"-0.009": 3.70015721434,
			"-0.008": 5.4391486226,
			"-0.007": 11.3525766559,
			"-0.006": 17.0361369923,
			"-0.005": 20.6949033497,
			"-0.004": 26.0252338147,
			"-0.003": 23.6818779871,
			"-0.002": 15.5595720354,
			"-0.001": 12.6718958686,
			"0.0": 10.174659317,
			"0.001": 10.5759270464,
			"0.002": 11.4375481396,
			"0.003": 12.932278313,
			"0.004": 6.95414200096,
			"0.005": 8.37349214361,
			"0.006": 10.193803096,
			"0.007": 12.2042763539,
			"0.008": 8.68592015478,
			"0.009": 7.02205240494,
			"0.01": 5.77190138881,
			"0.011": 5.84916457212,
			"0.012": 3.93320214078,
			"0.013": 1.44142440868,
			"0.014": 0.0943065858554,
			"0.015": 0.0,
			"0.016": 0.0,
			"0.017": 0.0,
			"0.018": 0.0,
			"0.019": 0.0,
			"0.02": 0.0,
			"0.021": 0.0,
			"0.022": 0.0,
			"0.023": 0.0,
			"0.024": 0.0,
			"0.025": 0.0
		}
	}
}
