{
	 "smiles": "CC(CC(O)=O)C1=CC=C(C=C1)C(O)=O", 
	 "Tm": 501.15, 
	 "num_atms": 27, 
	 "gaussian": { 
		 "optdone": 1, 
		 "sigma_profile": "yes", 
		 "theory": "DFT", 
		 "functional": "B3LYP", 
		 "basiset": "6-31G**", 
		 "properties": { 
			 "R2extent": 5650.4104, 
			 "electric_dipole_moment_norm": 5.19052536166, 
			 "electric_quadrupole_moment_norm": 27.1501733435, 
			 "total_energy": -727.331686494, 
			 "HOMO_LUMO_gap": 0.20815, 
			 "cosmo_polarized_energy": -20.34, 
			 "cosmo_cavitation_energy": 31.71, 
			 "cosmo_dispersion_energy": -22.24, 
			 "cosmo_repulsion_energy": 1.76, 
			 "cosmo_total_nonelectrostatic_energy": 11.23, 
			 "SMD_solvation_energy": 7.65 
		},
		"coords": [
			{
				"x": -0.3164345973,
				"y": 1.0453249372,
				"z": 2.0409249554,
				"element": "C" 
			},
			{
				"x": -0.6225538321,
				"y": 0.2184143074,
				"z": 0.7783856132,
				"element": "C" 
			},
			{
				"x": -0.2467254202,
				"y": 0.9901054616,
				"z": -0.5142951658,
				"element": "C" 
			},
			{
				"x": -0.9938785252,
				"y": 2.2966460866,
				"z": -0.6743122762,
				"element": "C" 
			},
			{
				"x": -2.3394343411,
				"y": 2.1105248277,
				"z": -0.6723811854,
				"element": "O" 
			},
			{
				"x": -0.4914844752,
				"y": 3.3910906135,
				"z": -0.7967745563,
				"element": "O" 
			},
			{
				"x": 0.0618661849,
				"y": -1.1398448167,
				"z": 0.8055352109,
				"element": "C" 
			},
			{
				"x": -0.6959666453,
				"y": -2.315956081,
				"z": 0.744645782,
				"element": "C" 
			},
			{
				"x": -0.0847914549,
				"y": -3.5688635254,
				"z": 0.7727871794,
				"element": "C" 
			},
			{
				"x": 1.3091787865,
				"y": -3.6754160333,
				"z": 0.8596272787,
				"element": "C" 
			},
			{
				"x": 2.0760084393,
				"y": -2.5022736518,
				"z": 0.8969872243,
				"element": "C" 
			},
			{
				"x": 1.4599696336,
				"y": -1.2563898526,
				"z": 0.8800188434,
				"element": "C" 
			},
			{
				"x": 2.0359727685,
				"y": -4.9857277039,
				"z": 0.8775861677,
				"element": "C" 
			},
			{
				"x": 1.3156125424,
				"y": -6.0816550417,
				"z": 1.2413875943,
				"element": "O" 
			},
			{
				"x": 3.2042869092,
				"y": -5.1010336992,
				"z": 0.5902245414,
				"element": "O" 
			},
			{
				"x": -0.8761158726,
				"y": 1.9860188904,
				"z": 2.0367882294,
				"element": "H" 
			},
			{
				"x": -0.5933956232,
				"y": 0.4920383942,
				"z": 2.9429630753,
				"element": "H" 
			},
			{
				"x": 0.747766462,
				"y": 1.2927606916,
				"z": 2.1112059688,
				"element": "H" 
			},
			{
				"x": -1.7033288371,
				"y": 0.0434214201,
				"z": 0.743340854,
				"element": "H" 
			},
			{
				"x": -0.4732522433,
				"y": 0.3632442081,
				"z": -1.384603495,
				"element": "H" 
			},
			{
				"x": 0.8196468183,
				"y": 1.2259540806,
				"z": -0.5364497587,
				"element": "H" 
			},
			{
				"x": -2.7330560917,
				"y": 2.9926089582,
				"z": -0.7818909028,
				"element": "H" 
			},
			{
				"x": -1.7780859434,
				"y": -2.2507334836,
				"z": 0.6676639274,
				"element": "H" 
			},
			{
				"x": -0.7085575231,
				"y": -4.4557029478,
				"z": 0.6855639919,
				"element": "H" 
			},
			{
				"x": 3.1559900558,
				"y": -2.5935932661,
				"z": 0.9414091506,
				"element": "H" 
			},
			{
				"x": 2.0758793257,
				"y": -0.3624600455,
				"z": 0.9233257672,
				"element": "H" 
			},
			{
				"x": 0.4575834995,
				"y": -5.8133027287,
				"z": 1.597635985,
				"element": "H" 
			}
		],
		 "valence_orbital": [ 
			{
				"type": "occ",
				"energy": -0.31629,
				"method": "rhf"
			},
			{
				"type": "occ",
				"energy": -0.28346,
				"method": "rhf"
			},
			{
				"type": "occ",
				"energy": -0.27575,
				"method": "rhf"
			},
			{
				"type": "occ",
				"energy": -0.27234,
				"method": "rhf"
			},
			{
				"type": "occ",
				"energy": -0.26115,
				"method": "rhf"
			},
			{
				"type": "unocc",
				"energy": -0.053,
				"method": "rhf"
			},
			{
				"type": "unocc",
				"energy": -0.02503,
				"method": "rhf"
			},
			{
				"type": "unocc",
				"energy": -0.00086,
				"method": "rhf"
			},
			{
				"type": "unocc",
				"energy": 0.04519,
				"method": "rhf"
			},
			{
				"type": "unocc",
				"energy": 0.05909,
				"method": "rhf"
			}
		],
		"cosmo_sigma_profile": { 
			"-0.025": 0.0,
			"-0.024": 0.0,
			"-0.023": 0.0,
			"-0.022": 0.0,
			"-0.021": 0.0,
			"-0.02": 0.0,
			"-0.019": 0.17351749621,
			"-0.018": 1.32455010251,
			"-0.017": 2.0571354033,
			"-0.016": 1.82932494242,
			"-0.015": 2.19520504578,
			"-0.014": 1.06465744673,
			"-0.013": 1.41911935391,
			"-0.012": 1.46093815918,
			"-0.011": 2.67289968002,
			"-0.01": 2.23530072848,
			"-0.009": 1.34583507667,
			"-0.008": 2.01877292795,
			"-0.007": 4.70405731364,
			"-0.006": 12.6620668991,
			"-0.005": 16.9024612115,
			"-0.004": 18.1835214957,
			"-0.003": 18.3053084043,
			"-0.002": 19.4829186372,
			"-0.001": 17.57156557,
			"0.0": 19.9998793921,
			"0.001": 13.2030825824,
			"0.002": 11.9306295631,
			"0.003": 15.0890312915,
			"0.004": 9.25796984314,
			"0.005": 4.75134684086,
			"0.006": 4.4935408462,
			"0.007": 4.6450282866,
			"0.008": 5.51311378143,
			"0.009": 5.99400841667,
			"0.01": 6.36183313907,
			"0.011": 9.34945146799,
			"0.012": 9.59551714733,
			"0.013": 2.7995703695,
			"0.014": 0.10849116154,
			"0.015": 0.0,
			"0.016": 0.0,
			"0.017": 0.0,
			"0.018": 0.0,
			"0.019": 0.0,
			"0.02": 0.0,
			"0.021": 0.0,
			"0.022": 0.0,
			"0.023": 0.0,
			"0.024": 0.0,
			"0.025": 0.0
		}
	}
}
