{
	 "smiles": "FC1=NC(=CC=C1)N1C=CN=C1", 
	 "Tm": 361.15, 
	 "num_atms": 18, 
	 "gaussian": { 
		 "optdone": 1, 
		 "sigma_profile": "yes", 
		 "theory": "DFT", 
		 "functional": "B3LYP", 
		 "basiset": "6-31G**", 
		 "properties": { 
			 "R2extent": 2460.122, 
			 "electric_dipole_moment_norm": 5.15137700135, 
			 "electric_quadrupole_moment_norm": 5.53508886017, 
			 "total_energy": -572.548073915, 
			 "HOMO_LUMO_gap": 0.18285, 
			 "cosmo_polarized_energy": -11.54, 
			 "cosmo_cavitation_energy": 23.24, 
			 "cosmo_dispersion_energy": -17.25, 
			 "cosmo_repulsion_energy": 1.31, 
			 "cosmo_total_nonelectrostatic_energy": 7.29, 
			 "SMD_solvation_energy": 2.73 
		},
		"coords": [
			{
				"x": 2.5917747479,
				"y": 1.0327247087,
				"z": 2.8974069216,
				"element": "F" 
			},
			{
				"x": 1.7234148363,
				"y": 1.0938743617,
				"z": 1.8799146478,
				"element": "C" 
			},
			{
				"x": 0.868309432,
				"y": 0.0988202862,
				"z": 1.7965441655,
				"element": "N" 
			},
			{
				"x": -0.0155757887,
				"y": 0.1252274385,
				"z": 0.7920378963,
				"element": "C" 
			},
			{
				"x": -0.0601367494,
				"y": 1.1560010109,
				"z": -0.1546887583,
				"element": "C" 
			},
			{
				"x": 0.8651697562,
				"y": 2.1913113407,
				"z": -0.0284763271,
				"element": "C" 
			},
			{
				"x": 1.7922832494,
				"y": 2.1803463568,
				"z": 1.0105576206,
				"element": "C" 
			},
			{
				"x": -0.9085733906,
				"y": -0.9633980674,
				"z": 0.7480058569,
				"element": "N" 
			},
			{
				"x": -1.9268015541,
				"y": -1.2084020003,
				"z": -0.1695882325,
				"element": "C" 
			},
			{
				"x": -2.4969046286,
				"y": -2.3863384608,
				"z": 0.2227920152,
				"element": "C" 
			},
			{
				"x": -1.8731926797,
				"y": -2.8862893182,
				"z": 1.3509556864,
				"element": "N" 
			},
			{
				"x": -0.9344375857,
				"y": -2.0213326271,
				"z": 1.6403335778,
				"element": "C" 
			},
			{
				"x": -0.78420748,
				"y": 1.1557844083,
				"z": -0.9584365281,
				"element": "H" 
			},
			{
				"x": 0.860916426,
				"y": 3.0077740559,
				"z": -0.7439645509,
				"element": "H" 
			},
			{
				"x": 2.5309166595,
				"y": 2.9588753026,
				"z": 1.1530149158,
				"element": "H" 
			},
			{
				"x": -2.145379715,
				"y": -0.5452882787,
				"z": -0.9896731682,
				"element": "H" 
			},
			{
				"x": -3.3231238525,
				"y": -2.9060089522,
				"z": -0.2423821312,
				"element": "H" 
			},
			{
				"x": -0.2359516832,
				"y": -2.0724815658,
				"z": 2.4606463923,
				"element": "H" 
			}
		],
		 "valence_orbital": [ 
			{
				"type": "occ",
				"energy": -0.30445,
				"method": "rhf"
			},
			{
				"type": "occ",
				"energy": -0.30117,
				"method": "rhf"
			},
			{
				"type": "occ",
				"energy": -0.2687,
				"method": "rhf"
			},
			{
				"type": "occ",
				"energy": -0.25222,
				"method": "rhf"
			},
			{
				"type": "occ",
				"energy": -0.23364,
				"method": "rhf"
			},
			{
				"type": "unocc",
				"energy": -0.05079,
				"method": "rhf"
			},
			{
				"type": "unocc",
				"energy": -0.03031,
				"method": "rhf"
			},
			{
				"type": "unocc",
				"energy": 0.03879,
				"method": "rhf"
			},
			{
				"type": "unocc",
				"energy": 0.06659,
				"method": "rhf"
			},
			{
				"type": "unocc",
				"energy": 0.07391,
				"method": "rhf"
			}
		],
		"cosmo_sigma_profile": { 
			"-0.025": 0.0,
			"-0.024": 0.0,
			"-0.023": 0.0,
			"-0.022": 0.0,
			"-0.021": 0.0,
			"-0.02": 0.0,
			"-0.019": 0.0,
			"-0.018": 0.0,
			"-0.017": 0.0,
			"-0.016": 0.0,
			"-0.015": 0.0,
			"-0.014": 0.0,
			"-0.013": 0.0,
			"-0.012": 0.051521074891,
			"-0.011": 1.40621015642,
			"-0.01": 1.84716009775,
			"-0.009": 3.03376740556,
			"-0.008": 6.98758082045,
			"-0.007": 10.5778812463,
			"-0.006": 9.21443808217,
			"-0.005": 7.04506684572,
			"-0.004": 8.46880270415,
			"-0.003": 7.72051318114,
			"-0.002": 13.0166249563,
			"-0.001": 19.8985301201,
			"0.0": 16.3870111996,
			"0.001": 16.4585071025,
			"0.002": 11.7974525241,
			"0.003": 12.4952861286,
			"0.004": 12.8912985008,
			"0.005": 7.17180095174,
			"0.006": 3.92009211916,
			"0.007": 3.06419149189,
			"0.008": 3.04283689165,
			"0.009": 2.57621191834,
			"0.01": 1.32832151857,
			"0.011": 0.937141655282,
			"0.012": 1.78104207539,
			"0.013": 0.991647148678,
			"0.014": 1.07021021245,
			"0.015": 1.00562838205,
			"0.016": 1.35142660265,
			"0.017": 0.774935720074,
			"0.018": 0.21522461562,
			"0.019": 0.0,
			"0.02": 0.0,
			"0.021": 0.0,
			"0.022": 0.0,
			"0.023": 0.0,
			"0.024": 0.0,
			"0.025": 0.0
		}
	}
}
