{
	 "smiles": "O=C1C2=CC=CC=C2C(=O)C2=C1C=CC1=C2C=CC=C1", 
	 "Tm": 443.15, 
	 "num_atms": 30, 
	 "gaussian": { 
		 "optdone": 1, 
		 "sigma_profile": "yes", 
		 "theory": "DFT", 
		 "functional": "B3LYP", 
		 "basiset": "6-31G**", 
		 "properties": { 
			 "R2extent": 6379.6269, 
			 "electric_dipole_moment_norm": 0.633209372957, 
			 "electric_quadrupole_moment_norm": 19.7003634022, 
			 "total_energy": -842.416168088, 
			 "HOMO_LUMO_gap": 0.12268, 
			 "cosmo_polarized_energy": -9.39, 
			 "cosmo_cavitation_energy": 33.79, 
			 "cosmo_dispersion_energy": -25.35, 
			 "cosmo_repulsion_energy": 1.83, 
			 "cosmo_total_nonelectrostatic_energy": 10.26, 
			 "SMD_solvation_energy": 5.89 
		},
		"coords": [
			{
				"x": 1.7619937235,
				"y": -4.1442014986,
				"z": 0.3981389648,
				"element": "O" 
			},
			{
				"x": 1.5415940997,
				"y": -3.0682336201,
				"z": -0.149685942,
				"element": "C" 
			},
			{
				"x": 2.2528911739,
				"y": -2.6775343525,
				"z": -1.3894471993,
				"element": "C" 
			},
			{
				"x": 3.195321424,
				"y": -3.5452854414,
				"z": -1.9533712959,
				"element": "C" 
			},
			{
				"x": 3.8648023751,
				"y": -3.180555143,
				"z": -3.1180081153,
				"element": "C" 
			},
			{
				"x": 3.5945280193,
				"y": -1.9470959253,
				"z": -3.7229865989,
				"element": "C" 
			},
			{
				"x": 2.6573631185,
				"y": -1.0813936604,
				"z": -3.1643776437,
				"element": "C" 
			},
			{
				"x": 1.9794486782,
				"y": -1.4406978068,
				"z": -1.9928613746,
				"element": "C" 
			},
			{
				"x": 0.9783132896,
				"y": -0.4842755058,
				"z": -1.4207680818,
				"element": "C" 
			},
			{
				"x": 0.7914836533,
				"y": 0.5808751652,
				"z": -2.0046296568,
				"element": "O" 
			},
			{
				"x": 0.2538958745,
				"y": -0.8704087828,
				"z": -0.1673459572,
				"element": "C" 
			},
			{
				"x": 0.5417390931,
				"y": -2.1101566407,
				"z": 0.4193238855,
				"element": "C" 
			},
			{
				"x": -0.1083270864,
				"y": -2.5323704263,
				"z": 1.6030394259,
				"element": "C" 
			},
			{
				"x": -1.040684318,
				"y": -1.7289143333,
				"z": 2.2036756732,
				"element": "C" 
			},
			{
				"x": -1.3735519408,
				"y": -0.4631871326,
				"z": 1.6559593372,
				"element": "C" 
			},
			{
				"x": -0.7273570143,
				"y": -0.0091766337,
				"z": 0.4526624695,
				"element": "C" 
			},
			{
				"x": -1.1052813798,
				"y": 1.2714974687,
				"z": -0.0473550352,
				"element": "C" 
			},
			{
				"x": -2.0510672898,
				"y": 2.0381168296,
				"z": 0.5996330068,
				"element": "C" 
			},
			{
				"x": -2.6798114527,
				"y": 1.583668262,
				"z": 1.7802887413,
				"element": "C" 
			},
			{
				"x": -2.3430255727,
				"y": 0.3541145076,
				"z": 2.2946312925,
				"element": "C" 
			},
			{
				"x": 3.3819810273,
				"y": -4.4934477156,
				"z": -1.4605723314,
				"element": "H" 
			},
			{
				"x": 4.596353688,
				"y": -3.8526009866,
				"z": -3.5569453521,
				"element": "H" 
			},
			{
				"x": 4.1172136367,
				"y": -1.6630316957,
				"z": -4.6317209318,
				"element": "H" 
			},
			{
				"x": 2.4323827084,
				"y": -0.1215786727,
				"z": -3.6158494328,
				"element": "H" 
			},
			{
				"x": 0.1595912172,
				"y": -3.5021892877,
				"z": 2.0058516098,
				"element": "H" 
			},
			{
				"x": -1.541358541,
				"y": -2.0512104776,
				"z": 3.1131340681,
				"element": "H" 
			},
			{
				"x": -0.635746205,
				"y": 1.6351465084,
				"z": -0.9479590524,
				"element": "H" 
			},
			{
				"x": -2.3159707216,
				"y": 3.0094365228,
				"z": 0.1917753482,
				"element": "H" 
			},
			{
				"x": -3.4224938635,
				"y": 2.2025949194,
				"z": 2.2751263427,
				"element": "H" 
			},
			{
				"x": -2.8135214149,
				"y": -0.0161044445,
				"z": 3.2016438357,
				"element": "H" 
			}
		],
		 "valence_orbital": [ 
			{
				"type": "occ",
				"energy": -0.26657,
				"method": "rhf"
			},
			{
				"type": "occ",
				"energy": -0.26617,
				"method": "rhf"
			},
			{
				"type": "occ",
				"energy": -0.25553,
				"method": "rhf"
			},
			{
				"type": "occ",
				"energy": -0.25373,
				"method": "rhf"
			},
			{
				"type": "occ",
				"energy": -0.2302,
				"method": "rhf"
			},
			{
				"type": "unocc",
				"energy": -0.10752,
				"method": "rhf"
			},
			{
				"type": "unocc",
				"energy": -0.05433,
				"method": "rhf"
			},
			{
				"type": "unocc",
				"energy": -0.03962,
				"method": "rhf"
			},
			{
				"type": "unocc",
				"energy": -0.01595,
				"method": "rhf"
			},
			{
				"type": "unocc",
				"energy": 0.00746,
				"method": "rhf"
			}
		],
		"cosmo_sigma_profile": { 
			"-0.025": 0.0,
			"-0.024": 0.0,
			"-0.023": 0.0,
			"-0.022": 0.0,
			"-0.021": 0.0,
			"-0.02": 0.0,
			"-0.019": 0.0,
			"-0.018": 0.0,
			"-0.017": 0.0,
			"-0.016": 0.0,
			"-0.015": 0.0,
			"-0.014": 0.0,
			"-0.013": 0.0,
			"-0.012": 0.0,
			"-0.011": 0.0,
			"-0.01": 0.0,
			"-0.009": 0.0,
			"-0.008": 0.709978950832,
			"-0.007": 9.63386637203,
			"-0.006": 16.2983397253,
			"-0.005": 21.1670387036,
			"-0.004": 19.3794241749,
			"-0.003": 18.1993234231,
			"-0.002": 15.6346662637,
			"-0.001": 18.5225144698,
			"0.0": 20.7392165598,
			"0.001": 32.9097418409,
			"0.002": 37.6528089707,
			"0.003": 21.7044999977,
			"0.004": 13.2964486479,
			"0.005": 3.90833781033,
			"0.006": 3.39636166914,
			"0.007": 3.60774605746,
			"0.008": 2.62463307912,
			"0.009": 4.17490156536,
			"0.01": 4.59407541568,
			"0.011": 5.14691543223,
			"0.012": 0.650888242335,
			"0.013": 0.0,
			"0.014": 0.0,
			"0.015": 0.0,
			"0.016": 0.0,
			"0.017": 0.0,
			"0.018": 0.0,
			"0.019": 0.0,
			"0.02": 0.0,
			"0.021": 0.0,
			"0.022": 0.0,
			"0.023": 0.0,
			"0.024": 0.0,
			"0.025": 0.0
		}
	}
}
