{
	 "smiles": "CCOC(=O)COC1=CC=C(O)C=C1", 
	 "Tm": 395.15, 
	 "num_atms": 26, 
	 "gaussian": { 
		 "optdone": 1, 
		 "sigma_profile": "yes", 
		 "theory": "DFT", 
		 "functional": "B3LYP", 
		 "basiset": "6-31G**", 
		 "properties": { 
			 "R2extent": 4876.0055, 
			 "electric_dipole_moment_norm": 0.380024012399, 
			 "electric_quadrupole_moment_norm": 21.8600537422, 
			 "total_energy": -689.181774692, 
			 "HOMO_LUMO_gap": 0.19641, 
			 "cosmo_polarized_energy": -15.01, 
			 "cosmo_cavitation_energy": 30.92, 
			 "cosmo_dispersion_energy": -22.48, 
			 "cosmo_repulsion_energy": 1.82, 
			 "cosmo_total_nonelectrostatic_energy": 10.27, 
			 "SMD_solvation_energy": 7.11 
		},
		"coords": [
			{
				"x": -2.9840462876,
				"y": -1.2070554099,
				"z": -2.8212576755,
				"element": "C" 
			},
			{
				"x": -1.534571103,
				"y": -1.1777299186,
				"z": -3.2652079273,
				"element": "C" 
			},
			{
				"x": -0.7267286151,
				"y": -0.9255515579,
				"z": -2.0884196338,
				"element": "O" 
			},
			{
				"x": 0.5924234401,
				"y": -0.8654428345,
				"z": -2.2956369,
				"element": "C" 
			},
			{
				"x": 1.1366753896,
				"y": -1.0042739037,
				"z": -3.3708230358,
				"element": "O" 
			},
			{
				"x": 1.4022311885,
				"y": -0.5999878774,
				"z": -1.0346314528,
				"element": "C" 
			},
			{
				"x": 0.5791811357,
				"y": -0.4666916152,
				"z": 0.099192375,
				"element": "O" 
			},
			{
				"x": 1.1870053208,
				"y": -0.225107108,
				"z": 1.3071815681,
				"element": "C" 
			},
			{
				"x": 2.5642030245,
				"y": -0.10020065,
				"z": 1.5000210974,
				"element": "C" 
			},
			{
				"x": 3.0679986584,
				"y": 0.1467835063,
				"z": 2.7833899499,
				"element": "C" 
			},
			{
				"x": 2.2072657293,
				"y": 0.2695255019,
				"z": 3.8725470427,
				"element": "C" 
			},
			{
				"x": 2.642188121,
				"y": 0.5108164025,
				"z": 5.1493255369,
				"element": "O" 
			},
			{
				"x": 0.8249882837,
				"y": 0.1435232272,
				"z": 3.6748447171,
				"element": "C" 
			},
			{
				"x": 0.3225558973,
				"y": -0.1011151916,
				"z": 2.4051645976,
				"element": "C" 
			},
			{
				"x": -3.6311091671,
				"y": -1.3958084706,
				"z": -3.683560207,
				"element": "H" 
			},
			{
				"x": -3.2750593497,
				"y": -0.2526298811,
				"z": -2.3736894862,
				"element": "H" 
			},
			{
				"x": -3.1512332987,
				"y": -1.99783199,
				"z": -2.0846043296,
				"element": "H" 
			},
			{
				"x": -1.3413693247,
				"y": -0.3885951783,
				"z": -3.9984288078,
				"element": "H" 
			},
			{
				"x": -1.2181170109,
				"y": -2.1259361159,
				"z": -3.7106886782,
				"element": "H" 
			},
			{
				"x": 2.1123504904,
				"y": -1.4331873845,
				"z": -0.9287875992,
				"element": "H" 
			},
			{
				"x": 1.9942682411,
				"y": 0.308265455,
				"z": -1.2194064298,
				"element": "H" 
			},
			{
				"x": 3.2599784879,
				"y": -0.1902527868,
				"z": 0.6742519423,
				"element": "H" 
			},
			{
				"x": 4.1427209187,
				"y": 0.2425766015,
				"z": 2.9236618115,
				"element": "H" 
			},
			{
				"x": 3.6056328876,
				"y": 0.5753786655,
				"z": 5.1467232921,
				"element": "H" 
			},
			{
				"x": 0.1620048863,
				"y": 0.2404860672,
				"z": 4.5282010602,
				"element": "H" 
			},
			{
				"x": -0.744637944,
				"y": -0.2010575531,
				"z": 2.2367371721,
				"element": "H" 
			}
		],
		 "valence_orbital": [ 
			{
				"type": "occ",
				"energy": -0.30519,
				"method": "rhf"
			},
			{
				"type": "occ",
				"energy": -0.29514,
				"method": "rhf"
			},
			{
				"type": "occ",
				"energy": -0.27555,
				"method": "rhf"
			},
			{
				"type": "occ",
				"energy": -0.25374,
				"method": "rhf"
			},
			{
				"type": "occ",
				"energy": -0.20274,
				"method": "rhf"
			},
			{
				"type": "unocc",
				"energy": -0.00633,
				"method": "rhf"
			},
			{
				"type": "unocc",
				"energy": 0.00999,
				"method": "rhf"
			},
			{
				"type": "unocc",
				"energy": 0.02552,
				"method": "rhf"
			},
			{
				"type": "unocc",
				"energy": 0.07088,
				"method": "rhf"
			},
			{
				"type": "unocc",
				"energy": 0.08941,
				"method": "rhf"
			}
		],
		"cosmo_sigma_profile": { 
			"-0.025": 0.0,
			"-0.024": 0.0,
			"-0.023": 0.0,
			"-0.022": 0.0,
			"-0.021": 0.0,
			"-0.02": 0.0,
			"-0.019": 0.0,
			"-0.018": 0.196829139,
			"-0.017": 1.13850132116,
			"-0.016": 0.877483777045,
			"-0.015": 0.872537344006,
			"-0.014": 1.49326738682,
			"-0.013": 0.947706836757,
			"-0.012": 0.548369172114,
			"-0.011": 0.629476018841,
			"-0.01": 1.49977751914,
			"-0.009": 1.15201374961,
			"-0.008": 3.8162611456,
			"-0.007": 10.4865452243,
			"-0.006": 12.6125215618,
			"-0.005": 16.4085094394,
			"-0.004": 22.4233979901,
			"-0.003": 19.4427372871,
			"-0.002": 17.4937369828,
			"-0.001": 14.4980873342,
			"0.0": 14.0714373817,
			"0.001": 10.010747969,
			"0.002": 9.80324897116,
			"0.003": 11.5383891043,
			"0.004": 16.4303398769,
			"0.005": 16.5027473441,
			"0.006": 8.04900317889,
			"0.007": 4.00239431716,
			"0.008": 3.30611312832,
			"0.009": 3.95222331459,
			"0.01": 5.43020111675,
			"0.011": 6.45498247534,
			"0.012": 7.1749237983,
			"0.013": 1.29614451858,
			"0.014": 0.0755368590328,
			"0.015": 0.0,
			"0.016": 0.0,
			"0.017": 0.0,
			"0.018": 0.0,
			"0.019": 0.0,
			"0.02": 0.0,
			"0.021": 0.0,
			"0.022": 0.0,
			"0.023": 0.0,
			"0.024": 0.0,
			"0.025": 0.0
		}
	}
}
