{
	 "smiles": "CC(C)(C)N(NC(=O)C1=CC=CC=C1)C(=O)C1=CC=CC=C1Cl", 
	 "Tm": 435.15, 
	 "num_atms": 42, 
	 "gaussian": { 
		 "optdone": 1, 
		 "sigma_profile": "yes", 
		 "theory": "DFT", 
		 "functional": "B3LYP", 
		 "basiset": "6-31G**", 
		 "properties": { 
			 "R2extent": 8115.8421, 
			 "electric_dipole_moment_norm": 6.6085789471, 
			 "electric_quadrupole_moment_norm": 16.0899454477, 
			 "total_energy": -1417.50828646, 
			 "HOMO_LUMO_gap": 0.19376, 
			 "cosmo_polarized_energy": -21.63, 
			 "cosmo_cavitation_energy": 46.13, 
			 "cosmo_dispersion_energy": -29.82, 
			 "cosmo_repulsion_energy": 2.27, 
			 "cosmo_total_nonelectrostatic_energy": 18.58, 
			 "SMD_solvation_energy": 8.57 
		},
		"coords": [
			{
				"x": 3.5928713479,
				"y": 0.2134983896,
				"z": -0.9337612464,
				"element": "C" 
			},
			{
				"x": 2.6644057955,
				"y": -1.0010567761,
				"z": -0.7456477289,
				"element": "C" 
			},
			{
				"x": 2.6730502427,
				"y": -1.4342815437,
				"z": 0.727926805,
				"element": "C" 
			},
			{
				"x": 3.1231375918,
				"y": -2.1909689176,
				"z": -1.6105575185,
				"element": "C" 
			},
			{
				"x": 1.2446562669,
				"y": -0.6425549444,
				"z": -1.1388320776,
				"element": "N" 
			},
			{
				"x": 0.3261756856,
				"y": -0.3728701937,
				"z": -0.1331474843,
				"element": "N" 
			},
			{
				"x": 0.131312397,
				"y": 0.9096334191,
				"z": 0.352746919,
				"element": "C" 
			},
			{
				"x": 0.7815901965,
				"y": 1.8645309039,
				"z": -0.0432815278,
				"element": "O" 
			},
			{
				"x": -0.9381623204,
				"y": 1.0346690676,
				"z": 1.3980046438,
				"element": "C" 
			},
			{
				"x": -1.5258819971,
				"y": 2.29682457,
				"z": 1.5602156478,
				"element": "C" 
			},
			{
				"x": -2.5249104598,
				"y": 2.4894372366,
				"z": 2.5110082221,
				"element": "C" 
			},
			{
				"x": -2.9366947915,
				"y": 1.4267560781,
				"z": 3.3199394025,
				"element": "C" 
			},
			{
				"x": -2.341186522,
				"y": 0.1720719213,
				"z": 3.1787566454,
				"element": "C" 
			},
			{
				"x": -1.3455595602,
				"y": -0.0253523928,
				"z": 2.2215269404,
				"element": "C" 
			},
			{
				"x": 0.9313685737,
				"y": -0.2350242335,
				"z": -2.430899511,
				"element": "C" 
			},
			{
				"x": 1.7572301737,
				"y": -0.1748144398,
				"z": -3.3273343011,
				"element": "O" 
			},
			{
				"x": -0.5344009061,
				"y": 0.0036635253,
				"z": -2.7221150834,
				"element": "C" 
			},
			{
				"x": -1.4337788501,
				"y": -1.0660312987,
				"z": -2.5974160557,
				"element": "C" 
			},
			{
				"x": -2.7677477821,
				"y": -0.9422560534,
				"z": -2.9778921171,
				"element": "C" 
			},
			{
				"x": -3.2271800664,
				"y": 0.2728861492,
				"z": -3.4879914705,
				"element": "C" 
			},
			{
				"x": -2.3513078878,
				"y": 1.3483177397,
				"z": -3.6243464314,
				"element": "C" 
			},
			{
				"x": -1.0116106136,
				"y": 1.2095904906,
				"z": -3.2539959537,
				"element": "C" 
			},
			{
				"x": 0.0439361008,
				"y": 2.5920270605,
				"z": -3.455773431,
				"element": "Cl" 
			},
			{
				"x": 3.6380540643,
				"y": 0.5057505245,
				"z": -1.983228082,
				"element": "H" 
			},
			{
				"x": 4.6033968196,
				"y": -0.0435102676,
				"z": -0.5977435603,
				"element": "H" 
			},
			{
				"x": 3.2305359284,
				"y": 1.0642573163,
				"z": -0.3524969285,
				"element": "H" 
			},
			{
				"x": 2.415596038,
				"y": -0.6148817303,
				"z": 1.4026557988,
				"element": "H" 
			},
			{
				"x": 3.683305985,
				"y": -1.7700923881,
				"z": 0.9788017989,
				"element": "H" 
			},
			{
				"x": 1.9887469037,
				"y": -2.2688327211,
				"z": 0.9128806961,
				"element": "H" 
			},
			{
				"x": 4.1359510144,
				"y": -2.4832743394,
				"z": -1.3152855048,
				"element": "H" 
			},
			{
				"x": 2.4648141714,
				"y": -3.0539648848,
				"z": -1.4620617096,
				"element": "H" 
			},
			{
				"x": 3.132340562,
				"y": -1.9315817119,
				"z": -2.668621638,
				"element": "H" 
			},
			{
				"x": -0.3646024523,
				"y": -1.0850171227,
				"z": 0.0528333074,
				"element": "H" 
			},
			{
				"x": -1.1812895485,
				"y": 3.1098965524,
				"z": 0.930310474,
				"element": "H" 
			},
			{
				"x": -2.98092495,
				"y": 3.4684467425,
				"z": 2.6249481138,
				"element": "H" 
			},
			{
				"x": -3.7129375294,
				"y": 1.5783260908,
				"z": 4.0644305148,
				"element": "H" 
			},
			{
				"x": -2.644006352,
				"y": -0.6506458835,
				"z": 3.8197345077,
				"element": "H" 
			},
			{
				"x": -0.8644183558,
				"y": -0.9966619252,
				"z": 2.1499836134,
				"element": "H" 
			},
			{
				"x": -1.0651709223,
				"y": -2.0149851846,
				"z": -2.2158194543,
				"element": "H" 
			},
			{
				"x": -3.4417043906,
				"y": -1.7877263182,
				"z": -2.8800595915,
				"element": "H" 
			},
			{
				"x": -4.2654015962,
				"y": 0.3869593499,
				"z": -3.784838828,
				"element": "H" 
			},
			{
				"x": -2.6950980045,
				"y": 2.2974421433,
				"z": -4.0204568158,
				"element": "H" 
			}
		],
		 "valence_orbital": [ 
			{
				"type": "occ",
				"energy": -0.26738,
				"method": "rhf"
			},
			{
				"type": "occ",
				"energy": -0.25993,
				"method": "rhf"
			},
			{
				"type": "occ",
				"energy": -0.25416,
				"method": "rhf"
			},
			{
				"type": "occ",
				"energy": -0.24988,
				"method": "rhf"
			},
			{
				"type": "occ",
				"energy": -0.2395,
				"method": "rhf"
			},
			{
				"type": "unocc",
				"energy": -0.04574,
				"method": "rhf"
			},
			{
				"type": "unocc",
				"energy": -0.02979,
				"method": "rhf"
			},
			{
				"type": "unocc",
				"energy": -0.01788,
				"method": "rhf"
			},
			{
				"type": "unocc",
				"energy": -0.01639,
				"method": "rhf"
			},
			{
				"type": "unocc",
				"energy": 0.02395,
				"method": "rhf"
			}
		],
		"cosmo_sigma_profile": { 
			"-0.025": 0.0,
			"-0.024": 0.0,
			"-0.023": 0.0,
			"-0.022": 0.0,
			"-0.021": 0.0,
			"-0.02": 0.0,
			"-0.019": 0.0,
			"-0.018": 0.0,
			"-0.017": 0.0,
			"-0.016": 0.0,
			"-0.015": 0.17086781921,
			"-0.014": 0.813153162465,
			"-0.013": 1.08043100861,
			"-0.012": 1.50692882148,
			"-0.011": 1.32901561637,
			"-0.01": 1.65402540909,
			"-0.009": 1.75637793863,
			"-0.008": 2.84803063942,
			"-0.007": 10.2835817749,
			"-0.006": 18.0193646047,
			"-0.005": 21.3473577529,
			"-0.004": 25.0166306509,
			"-0.003": 28.4351023267,
			"-0.002": 26.7230664654,
			"-0.001": 30.0687898708,
			"0.0": 35.8010098101,
			"0.001": 34.0577090189,
			"0.002": 26.298735818,
			"0.003": 29.2000621005,
			"0.004": 23.7190602595,
			"0.005": 9.0660051123,
			"0.006": 5.73865734216,
			"0.007": 5.98822236097,
			"0.008": 4.997879038,
			"0.009": 4.12688162318,
			"0.01": 5.09876411978,
			"0.011": 4.19553362191,
			"0.012": 4.84228114594,
			"0.013": 3.51898464704,
			"0.014": 0.368252638085,
			"0.015": 0.0,
			"0.016": 0.0,
			"0.017": 0.0,
			"0.018": 0.0,
			"0.019": 0.0,
			"0.02": 0.0,
			"0.021": 0.0,
			"0.022": 0.0,
			"0.023": 0.0,
			"0.024": 0.0,
			"0.025": 0.0
		}
	}
}
