{
	 "smiles": "FC(F)(F)CNC1=CC=NC=C1", 
	 "Tm": 431.15, 
	 "num_atms": 19, 
	 "gaussian": { 
		 "optdone": 1, 
		 "sigma_profile": "yes", 
		 "theory": "DFT", 
		 "functional": "B3LYP", 
		 "basiset": "6-31G**", 
		 "properties": { 
			 "R2extent": 2850.772, 
			 "electric_dipole_moment_norm": 3.57954083787, 
			 "electric_quadrupole_moment_norm": 12.44083869, 
			 "total_energy": -679.989203521, 
			 "HOMO_LUMO_gap": 0.22089, 
			 "cosmo_polarized_energy": -12.27, 
			 "cosmo_cavitation_energy": 24.33, 
			 "cosmo_dispersion_energy": -17.4, 
			 "cosmo_repulsion_energy": 1.33, 
			 "cosmo_total_nonelectrostatic_energy": 8.26, 
			 "SMD_solvation_energy": 3.25 
		},
		"coords": [
			{
				"x": 1.9515778222,
				"y": 2.1660890834,
				"z": -0.9127698617,
				"element": "F" 
			},
			{
				"x": 2.4689878242,
				"y": 2.1960344138,
				"z": 0.3303960454,
				"element": "C" 
			},
			{
				"x": 3.6991382271,
				"y": 2.7474645074,
				"z": 0.2552274419,
				"element": "F" 
			},
			{
				"x": 1.693620638,
				"y": 3.0135535388,
				"z": 1.0757691754,
				"element": "F" 
			},
			{
				"x": 2.5516718435,
				"y": 0.8065998193,
				"z": 0.9560129827,
				"element": "C" 
			},
			{
				"x": 1.2788136152,
				"y": 0.1647057656,
				"z": 1.1420286861,
				"element": "N" 
			},
			{
				"x": 0.5939941792,
				"y": -0.5606994161,
				"z": 0.1806800065,
				"element": "C" 
			},
			{
				"x": 1.1223265417,
				"y": -0.8803374534,
				"z": -1.081869896,
				"element": "C" 
			},
			{
				"x": 0.3647335862,
				"y": -1.6700865672,
				"z": -1.9437015584,
				"element": "C" 
			},
			{
				"x": -0.854028343,
				"y": -2.1519403082,
				"z": -1.6721354655,
				"element": "N" 
			},
			{
				"x": -1.3532980116,
				"y": -1.8280835305,
				"z": -0.469744175,
				"element": "C" 
			},
			{
				"x": -0.6906060488,
				"y": -1.0563275243,
				"z": 0.4753083211,
				"element": "C" 
			},
			{
				"x": 3.0448746729,
				"y": 0.9263324047,
				"z": 1.9256176685,
				"element": "H" 
			},
			{
				"x": 3.2068617947,
				"y": 0.1914446304,
				"z": 0.3343539657,
				"element": "H" 
			},
			{
				"x": 0.7248336415,
				"y": 0.50361304,
				"z": 1.914101788,
				"element": "H" 
			},
			{
				"x": 2.0847309723,
				"y": -0.5067612437,
				"z": -1.4098425963,
				"element": "H" 
			},
			{
				"x": 0.7705284824,
				"y": -1.9214307647,
				"z": -2.9227357139,
				"element": "H" 
			},
			{
				"x": -2.3470648725,
				"y": -2.2122009636,
				"z": -0.2441950215,
				"element": "H" 
			},
			{
				"x": -1.1566965652,
				"y": -0.8446694317,
				"z": 1.434198207,
				"element": "H" 
			}
		],
		 "valence_orbital": [ 
			{
				"type": "occ",
				"energy": -0.35731,
				"method": "rhf"
			},
			{
				"type": "occ",
				"energy": -0.33234,
				"method": "rhf"
			},
			{
				"type": "occ",
				"energy": -0.25797,
				"method": "rhf"
			},
			{
				"type": "occ",
				"energy": -0.24711,
				"method": "rhf"
			},
			{
				"type": "occ",
				"energy": -0.22708,
				"method": "rhf"
			},
			{
				"type": "unocc",
				"energy": -0.00619,
				"method": "rhf"
			},
			{
				"type": "unocc",
				"energy": -0.00255,
				"method": "rhf"
			},
			{
				"type": "unocc",
				"energy": 0.06569,
				"method": "rhf"
			},
			{
				"type": "unocc",
				"energy": 0.08961,
				"method": "rhf"
			},
			{
				"type": "unocc",
				"energy": 0.10598,
				"method": "rhf"
			}
		],
		"cosmo_sigma_profile": { 
			"-0.025": 0.0,
			"-0.024": 0.0,
			"-0.023": 0.0,
			"-0.022": 0.0,
			"-0.021": 0.0,
			"-0.02": 0.0,
			"-0.019": 0.0,
			"-0.018": 0.0,
			"-0.017": 0.0,
			"-0.016": 0.0,
			"-0.015": 0.0623767353011,
			"-0.014": 1.00751397628,
			"-0.013": 1.5759752686,
			"-0.012": 1.15420870676,
			"-0.011": 1.42042955598,
			"-0.01": 2.05419192878,
			"-0.009": 5.18318546457,
			"-0.008": 6.41574677158,
			"-0.007": 6.38222928749,
			"-0.006": 9.25222078893,
			"-0.005": 11.10713765,
			"-0.004": 10.3731244733,
			"-0.003": 7.34027871185,
			"-0.002": 8.16281167554,
			"-0.001": 7.29222043241,
			"0.0": 9.34269520179,
			"0.001": 10.324091348,
			"0.002": 21.6252262525,
			"0.003": 37.6012338947,
			"0.004": 17.0087788686,
			"0.005": 3.4639644906,
			"0.006": 3.00285276161,
			"0.007": 1.44032840552,
			"0.008": 1.38696875124,
			"0.009": 1.58224841115,
			"0.01": 1.36881765274,
			"0.011": 0.982650111246,
			"0.012": 0.865710828414,
			"0.013": 1.04120652399,
			"0.014": 1.16391492052,
			"0.015": 0.666376977485,
			"0.016": 1.11811481382,
			"0.017": 0.894069260295,
			"0.018": 0.572609974437,
			"0.019": 0.0,
			"0.02": 0.0,
			"0.021": 0.0,
			"0.022": 0.0,
			"0.023": 0.0,
			"0.024": 0.0,
			"0.025": 0.0
		}
	}
}
