{
	 "smiles": "CC1=C(SC(NC(=O)C2=C(I)C=CC=C2)=C1)C(O)=O", 
	 "Tm": 476.15, 
	 "num_atms": 29, 
	 "gaussian": { 
		 "optdone": 1, 
		 "sigma_profile": "yes", 
		 "theory": "DFT", 
		 "functional": "B3LYP", 
		 "basiset": "6-31G**", 
		 "properties": { 
			 "R2extent": 6167.0764, 
			 "electric_dipole_moment_norm": 2.29818166819, 
			 "electric_quadrupole_moment_norm": 48.7817292156, 
			 "total_energy": -1191.40713736, 
			 "HOMO_LUMO_gap": 0.16655, 
			 "cosmo_polarized_energy": -21.14, 
			 "cosmo_cavitation_energy": 38.54, 
			 "cosmo_dispersion_energy": -27.63, 
			 "cosmo_repulsion_energy": 2.1, 
			 "cosmo_total_nonelectrostatic_energy": 13.01, 
			 "SMD_solvation_energy": 7.2 
		},
		"coords": [
			{
				"x": 3.2618000799,
				"y": 0.4416848429,
				"z": 3.8709708139,
				"element": "C" 
			},
			{
				"x": 2.3981852666,
				"y": 0.7204543235,
				"z": 2.6719864545,
				"element": "C" 
			},
			{
				"x": 2.852861383,
				"y": 0.8483349765,
				"z": 1.3722647739,
				"element": "C" 
			},
			{
				"x": 1.5365566532,
				"y": 1.1997766766,
				"z": 0.256312996,
				"element": "S" 
			},
			{
				"x": 0.367949244,
				"y": 1.1025638827,
				"z": 1.5499458524,
				"element": "C" 
			},
			{
				"x": -0.9865522175,
				"y": 1.3804352873,
				"z": 1.3935288247,
				"element": "N" 
			},
			{
				"x": -1.8490980248,
				"y": 1.2646877737,
				"z": 0.3140889892,
				"element": "C" 
			},
			{
				"x": -2.9933311012,
				"y": 1.6775501547,
				"z": 0.4075289925,
				"element": "O" 
			},
			{
				"x": -1.3300535472,
				"y": 0.6739747503,
				"z": -0.9709330183,
				"element": "C" 
			},
			{
				"x": -1.1086237137,
				"y": -0.6958813846,
				"z": -1.1736928535,
				"element": "C" 
			},
			{
				"x": -1.4258101117,
				"y": -2.1161529804,
				"z": 0.3711312829,
				"element": "I" 
			},
			{
				"x": -0.7041032261,
				"y": -1.1734368287,
				"z": -2.4227478826,
				"element": "C" 
			},
			{
				"x": -0.519688395,
				"y": -0.2819246582,
				"z": -3.480181236,
				"element": "C" 
			},
			{
				"x": -0.7583443106,
				"y": 1.0811557037,
				"z": -3.3004158666,
				"element": "C" 
			},
			{
				"x": -1.1734807946,
				"y": 1.5496125117,
				"z": -2.0569669278,
				"element": "C" 
			},
			{
				"x": 0.9839797119,
				"y": 0.8635482659,
				"z": 2.756507723,
				"element": "C" 
			},
			{
				"x": 4.2394181471,
				"y": 0.6780589441,
				"z": 0.9063069288,
				"element": "C" 
			},
			{
				"x": 4.4245684041,
				"y": 0.479547103,
				"z": -0.4312698879,
				"element": "O" 
			},
			{
				"x": 5.2001122177,
				"y": 0.7157051565,
				"z": 1.644319105,
				"element": "O" 
			},
			{
				"x": 4.0722997651,
				"y": -0.2467025301,
				"z": 3.6275089332,
				"element": "H" 
			},
			{
				"x": 3.7371815688,
				"y": 1.3638547575,
				"z": 4.223128359,
				"element": "H" 
			},
			{
				"x": 2.6636381373,
				"y": 0.0315255597,
				"z": 4.6892506522,
				"element": "H" 
			},
			{
				"x": -1.4628674512,
				"y": 1.7333672586,
				"z": 2.2165135252,
				"element": "H" 
			},
			{
				"x": -0.5409572606,
				"y": -2.2349629204,
				"z": -2.5704150012,
				"element": "H" 
			},
			{
				"x": -0.2013894072,
				"y": -0.6607933843,
				"z": -4.4467957451,
				"element": "H" 
			},
			{
				"x": -0.6314938216,
				"y": 1.7745822002,
				"z": -4.1256919613,
				"element": "H" 
			},
			{
				"x": -1.3817561116,
				"y": 2.6048874836,
				"z": -1.9095034104,
				"element": "H" 
			},
			{
				"x": 0.4320637787,
				"y": 0.7796865138,
				"z": 3.6866596143,
				"element": "H" 
			},
			{
				"x": 3.5884351372,
				"y": 0.2660605603,
				"z": -0.8709400297,
				"element": "H" 
			}
		],
		 "valence_orbital": [ 
			{
				"type": "occ",
				"energy": -0.27316,
				"method": "rhf"
			},
			{
				"type": "occ",
				"energy": -0.27102,
				"method": "rhf"
			},
			{
				"type": "occ",
				"energy": -0.26903,
				"method": "rhf"
			},
			{
				"type": "occ",
				"energy": -0.2542,
				"method": "rhf"
			},
			{
				"type": "occ",
				"energy": -0.23088,
				"method": "rhf"
			},
			{
				"type": "unocc",
				"energy": -0.06433,
				"method": "rhf"
			},
			{
				"type": "unocc",
				"energy": -0.05218,
				"method": "rhf"
			},
			{
				"type": "unocc",
				"energy": -0.04426,
				"method": "rhf"
			},
			{
				"type": "unocc",
				"energy": -0.03507,
				"method": "rhf"
			},
			{
				"type": "unocc",
				"energy": -0.00502,
				"method": "rhf"
			}
		],
		"cosmo_sigma_profile": { 
			"-0.025": 0.0,
			"-0.024": 0.0,
			"-0.023": 0.0,
			"-0.022": 0.0,
			"-0.021": 0.0,
			"-0.02": 0.0,
			"-0.019": 0.0,
			"-0.018": 0.00901581069948,
			"-0.017": 0.562094165516,
			"-0.016": 1.75642753611,
			"-0.015": 1.88912210811,
			"-0.014": 1.96288890023,
			"-0.013": 1.85059146694,
			"-0.012": 1.76950369607,
			"-0.011": 2.90233055084,
			"-0.01": 1.55155203327,
			"-0.009": 1.77635934996,
			"-0.008": 5.11793708311,
			"-0.007": 14.1573261429,
			"-0.006": 15.7605180862,
			"-0.005": 16.7450315372,
			"-0.004": 14.7331010208,
			"-0.003": 18.2774984172,
			"-0.002": 18.8307560015,
			"-0.001": 23.0276441302,
			"0.0": 22.4629408016,
			"0.001": 25.5972893731,
			"0.002": 36.3042487952,
			"0.003": 25.5951521033,
			"0.004": 13.2609674501,
			"0.005": 4.33035594268,
			"0.006": 4.03344917993,
			"0.007": 4.29623495694,
			"0.008": 3.62004137217,
			"0.009": 4.25993883071,
			"0.01": 6.42552458442,
			"0.011": 8.03371336476,
			"0.012": 10.0290297217,
			"0.013": 3.58064304877,
			"0.014": 0.319061382767,
			"0.015": 0.0,
			"0.016": 0.0,
			"0.017": 0.0,
			"0.018": 0.0,
			"0.019": 0.0,
			"0.02": 0.0,
			"0.021": 0.0,
			"0.022": 0.0,
			"0.023": 0.0,
			"0.024": 0.0,
			"0.025": 0.0
		}
	}
}
