{
	 "smiles": "COCCOC1=CC(=CC=C1)C(O)=O", 
	 "Tm": 354.15, 
	 "num_atms": 26, 
	 "gaussian": { 
		 "optdone": 1, 
		 "sigma_profile": "yes", 
		 "theory": "DFT", 
		 "functional": "B3LYP", 
		 "basiset": "6-31G**", 
		 "properties": { 
			 "R2extent": 3409.3201, 
			 "electric_dipole_moment_norm": 1.59723541471, 
			 "electric_quadrupole_moment_norm": 12.7345449985, 
			 "total_energy": -689.182669534, 
			 "HOMO_LUMO_gap": 0.18182, 
			 "cosmo_polarized_energy": -12.58, 
			 "cosmo_cavitation_energy": 30.2, 
			 "cosmo_dispersion_energy": -21.57, 
			 "cosmo_repulsion_energy": 1.73, 
			 "cosmo_total_nonelectrostatic_energy": 10.36, 
			 "SMD_solvation_energy": 7.32 
		},
		"coords": [
			{
				"x": -2.5022133707,
				"y": -2.0136391597,
				"z": 2.4232222078,
				"element": "C" 
			},
			{
				"x": -2.1812932612,
				"y": -0.8827494712,
				"z": 1.6397779947,
				"element": "O" 
			},
			{
				"x": -3.2044235924,
				"y": -0.5178648383,
				"z": 0.7402671051,
				"element": "C" 
			},
			{
				"x": -2.7548819795,
				"y": 0.6658158098,
				"z": -0.1004192365,
				"element": "C" 
			},
			{
				"x": -1.8282684759,
				"y": 0.3069915465,
				"z": -1.1254151367,
				"element": "O" 
			},
			{
				"x": -0.4849111455,
				"y": 0.5038013577,
				"z": -0.9558207285,
				"element": "C" 
			},
			{
				"x": 0.1533828636,
				"y": 0.6641308689,
				"z": 0.2751136084,
				"element": "C" 
			},
			{
				"x": 1.5410849731,
				"y": 0.8678706736,
				"z": 0.30881579,
				"element": "C" 
			},
			{
				"x": 2.2949352901,
				"y": 0.8967118066,
				"z": -0.8701364655,
				"element": "C" 
			},
			{
				"x": 1.6462157492,
				"y": 0.7173139158,
				"z": -2.0925372966,
				"element": "C" 
			},
			{
				"x": 0.2682813224,
				"y": 0.5279474157,
				"z": -2.1402969501,
				"element": "C" 
			},
			{
				"x": 2.1693071759,
				"y": 1.0357593207,
				"z": 1.6462688422,
				"element": "C" 
			},
			{
				"x": 3.5148465359,
				"y": 1.2145865203,
				"z": 1.5858158358,
				"element": "O" 
			},
			{
				"x": 1.5747214444,
				"y": 1.0221237882,
				"z": 2.7068286333,
				"element": "O" 
			},
			{
				"x": -3.3958705728,
				"y": -1.838996544,
				"z": 3.0429957528,
				"element": "H" 
			},
			{
				"x": -2.6822596406,
				"y": -2.9026186105,
				"z": 1.7991851734,
				"element": "H" 
			},
			{
				"x": -1.6492194524,
				"y": -2.2049517104,
				"z": 3.0775228051,
				"element": "H" 
			},
			{
				"x": -3.4642463319,
				"y": -1.3568053379,
				"z": 0.0737935187,
				"element": "H" 
			},
			{
				"x": -4.1210604044,
				"y": -0.2310540055,
				"z": 1.2865633821,
				"element": "H" 
			},
			{
				"x": -3.6287892981,
				"y": 1.0663439561,
				"z": -0.6260699565,
				"element": "H" 
			},
			{
				"x": -2.3471872776,
				"y": 1.4555848302,
				"z": 0.5404697705,
				"element": "H" 
			},
			{
				"x": -0.3862711684,
				"y": 0.5926679144,
				"z": 1.2103084718,
				"element": "H" 
			},
			{
				"x": 3.3659761285,
				"y": 1.0521200436,
				"z": -0.8252459919,
				"element": "H" 
			},
			{
				"x": 2.2161420017,
				"y": 0.7345334681,
				"z": -3.0168553521,
				"element": "H" 
			},
			{
				"x": -0.2513096714,
				"y": 0.398794634,
				"z": -3.0843472574,
				"element": "H" 
			},
			{
				"x": 3.8039121579,
				"y": 1.3128818073,
				"z": 2.50759548,
				"element": "H" 
			}
		],
		 "valence_orbital": [ 
			{
				"type": "occ",
				"energy": -0.30753,
				"method": "rhf"
			},
			{
				"type": "occ",
				"energy": -0.26886,
				"method": "rhf"
			},
			{
				"type": "occ",
				"energy": -0.26357,
				"method": "rhf"
			},
			{
				"type": "occ",
				"energy": -0.25215,
				"method": "rhf"
			},
			{
				"type": "occ",
				"energy": -0.22129,
				"method": "rhf"
			},
			{
				"type": "unocc",
				"energy": -0.03947,
				"method": "rhf"
			},
			{
				"type": "unocc",
				"energy": 0.00876,
				"method": "rhf"
			},
			{
				"type": "unocc",
				"energy": 0.06886,
				"method": "rhf"
			},
			{
				"type": "unocc",
				"energy": 0.08358,
				"method": "rhf"
			},
			{
				"type": "unocc",
				"energy": 0.08652,
				"method": "rhf"
			}
		],
		"cosmo_sigma_profile": { 
			"-0.025": 0.0,
			"-0.024": 0.0,
			"-0.023": 0.0,
			"-0.022": 0.0,
			"-0.021": 0.0,
			"-0.02": 0.0,
			"-0.019": 0.0158450452807,
			"-0.018": 0.548861179636,
			"-0.017": 0.930042771679,
			"-0.016": 1.18647762556,
			"-0.015": 0.394134537967,
			"-0.014": 0.524405521602,
			"-0.013": 0.947268778489,
			"-0.012": 0.820195080697,
			"-0.011": 0.494214348641,
			"-0.01": 0.593793978019,
			"-0.009": 0.611986476509,
			"-0.008": 0.470471483557,
			"-0.007": 2.23316555297,
			"-0.006": 10.9820502693,
			"-0.005": 17.4938845912,
			"-0.004": 26.9585876914,
			"-0.003": 22.8535433948,
			"-0.002": 22.2787954924,
			"-0.001": 12.5278520916,
			"0.0": 12.0650865203,
			"0.001": 11.3028347763,
			"0.002": 16.0834177984,
			"0.003": 17.0426173098,
			"0.004": 15.3474445537,
			"0.005": 8.88346562061,
			"0.006": 8.23922690682,
			"0.007": 6.62795959496,
			"0.008": 5.3411606606,
			"0.009": 3.5868594347,
			"0.01": 3.04096273304,
			"0.011": 3.62776508498,
			"0.012": 4.7241321839,
			"0.013": 0.291020812576,
			"0.014": 0.0,
			"0.015": 0.0,
			"0.016": 0.0,
			"0.017": 0.0,
			"0.018": 0.0,
			"0.019": 0.0,
			"0.02": 0.0,
			"0.021": 0.0,
			"0.022": 0.0,
			"0.023": 0.0,
			"0.024": 0.0,
			"0.025": 0.0
		}
	}
}
