{
	 "smiles": "CC(CC(O)=O)S(=O)(=O)C1=CC=C(F)C=C1", 
	 "Tm": 400.15, 
	 "num_atms": 27, 
	 "gaussian": { 
		 "optdone": 1, 
		 "sigma_profile": "yes", 
		 "theory": "DFT", 
		 "functional": "B3LYP", 
		 "basiset": "6-31G**", 
		 "properties": { 
			 "R2extent": 4759.1614, 
			 "electric_dipole_moment_norm": 6.47293885882, 
			 "electric_quadrupole_moment_norm": 18.333684886, 
			 "total_energy": -1186.56526563, 
			 "HOMO_LUMO_gap": 0.20046, 
			 "cosmo_polarized_energy": -19.71, 
			 "cosmo_cavitation_energy": 32.45, 
			 "cosmo_dispersion_energy": -23.1, 
			 "cosmo_repulsion_energy": 1.71, 
			 "cosmo_total_nonelectrostatic_energy": 11.07, 
			 "SMD_solvation_energy": 6.54 
		},
		"coords": [
			{
				"x": -2.15528185,
				"y": 0.787071029,
				"z": 0.3341442791,
				"element": "C" 
			},
			{
				"x": -0.8081972192,
				"y": 0.9556573698,
				"z": -0.3691825651,
				"element": "C" 
			},
			{
				"x": -0.9452850723,
				"y": 1.6191700113,
				"z": -1.7648305394,
				"element": "C" 
			},
			{
				"x": 0.1635059246,
				"y": 2.6159453273,
				"z": -2.1273279141,
				"element": "C" 
			},
			{
				"x": 1.4215595645,
				"y": 2.1505797279,
				"z": -2.1305017788,
				"element": "O" 
			},
			{
				"x": -0.0856536685,
				"y": 3.7689288782,
				"z": -2.3930027964,
				"element": "O" 
			},
			{
				"x": 0.0051092115,
				"y": -0.6870722117,
				"z": -0.5728841854,
				"element": "S" 
			},
			{
				"x": -0.9741383191,
				"y": -1.6295154233,
				"z": -1.1356749834,
				"element": "O" 
			},
			{
				"x": 1.2826194117,
				"y": -0.4314332212,
				"z": -1.2913368684,
				"element": "O" 
			},
			{
				"x": 0.4354475457,
				"y": -1.2310016431,
				"z": 1.0789831396,
				"element": "C" 
			},
			{
				"x": -0.392977147,
				"y": -2.1510992829,
				"z": 1.7277843321,
				"element": "C" 
			},
			{
				"x": -0.0598169856,
				"y": -2.5820962941,
				"z": 3.0098704636,
				"element": "C" 
			},
			{
				"x": 1.0947483321,
				"y": -2.0796170567,
				"z": 3.6044992454,
				"element": "C" 
			},
			{
				"x": 1.4164731618,
				"y": -2.4923036354,
				"z": 4.8401519832,
				"element": "F" 
			},
			{
				"x": 1.9338998075,
				"y": -1.1708250453,
				"z": 2.9630052773,
				"element": "C" 
			},
			{
				"x": 1.6008011826,
				"y": -0.744303386,
				"z": 1.6803861193,
				"element": "C" 
			},
			{
				"x": -2.8369786626,
				"y": 0.1908625455,
				"z": -0.2776913914,
				"element": "H" 
			},
			{
				"x": -2.5994777279,
				"y": 1.7738171786,
				"z": 0.4928655056,
				"element": "H" 
			},
			{
				"x": -2.0489077937,
				"y": 0.305199218,
				"z": 1.3099040014,
				"element": "H" 
			},
			{
				"x": -0.1142392029,
				"y": 1.5210424269,
				"z": 0.2626186887,
				"element": "H" 
			},
			{
				"x": -1.8755526067,
				"y": 2.1891382104,
				"z": -1.7845477709,
				"element": "H" 
			},
			{
				"x": -1.0271388656,
				"y": 0.8533411947,
				"z": -2.5464084193,
				"element": "H" 
			},
			{
				"x": 1.4511945403,
				"y": 1.1868648296,
				"z": -1.9352314991,
				"element": "H" 
			},
			{
				"x": -1.2719714005,
				"y": -2.5341729029,
				"z": 1.2211876673,
				"element": "H" 
			},
			{
				"x": -0.6706931748,
				"y": -3.2993719413,
				"z": 3.5463546942,
				"element": "H" 
			},
			{
				"x": 2.8301149639,
				"y": -0.822625293,
				"z": 3.4639790589,
				"element": "H" 
			},
			{
				"x": 2.2483360501,
				"y": -0.0604806101,
				"z": 1.1421862562,
				"element": "H" 
			}
		],
		 "valence_orbital": [ 
			{
				"type": "occ",
				"energy": -0.31004,
				"method": "rhf"
			},
			{
				"type": "occ",
				"energy": -0.301,
				"method": "rhf"
			},
			{
				"type": "occ",
				"energy": -0.29944,
				"method": "rhf"
			},
			{
				"type": "occ",
				"energy": -0.2874,
				"method": "rhf"
			},
			{
				"type": "occ",
				"energy": -0.25997,
				"method": "rhf"
			},
			{
				"type": "unocc",
				"energy": -0.05951,
				"method": "rhf"
			},
			{
				"type": "unocc",
				"energy": -0.04974,
				"method": "rhf"
			},
			{
				"type": "unocc",
				"energy": 0.01262,
				"method": "rhf"
			},
			{
				"type": "unocc",
				"energy": 0.03714,
				"method": "rhf"
			},
			{
				"type": "unocc",
				"energy": 0.0521,
				"method": "rhf"
			}
		],
		"cosmo_sigma_profile": { 
			"-0.025": 0.0,
			"-0.024": 0.0,
			"-0.023": 0.0,
			"-0.022": 0.0,
			"-0.021": 0.0,
			"-0.02": 0.0,
			"-0.019": 0.0,
			"-0.018": 0.0,
			"-0.017": 0.0,
			"-0.016": 0.0,
			"-0.015": 0.0,
			"-0.014": 0.0,
			"-0.013": 0.0,
			"-0.012": 0.00140831837375,
			"-0.011": 0.403394941481,
			"-0.01": 1.16119727988,
			"-0.009": 6.20675225145,
			"-0.008": 12.1483910081,
			"-0.007": 14.8952854057,
			"-0.006": 15.1964197778,
			"-0.005": 16.4758775585,
			"-0.004": 18.9607815172,
			"-0.003": 15.570234789,
			"-0.002": 17.0816977118,
			"-0.001": 20.145356393,
			"0.0": 19.007937059,
			"0.001": 16.5299658082,
			"0.002": 8.51272895747,
			"0.003": 12.5929002528,
			"0.004": 8.53229657826,
			"0.005": 4.44628163084,
			"0.006": 3.53743492858,
			"0.007": 5.72175135676,
			"0.008": 4.81762276472,
			"0.009": 6.2472361457,
			"0.01": 9.63811211419,
			"0.011": 9.99671574473,
			"0.012": 7.08973387284,
			"0.013": 3.05640481259,
			"0.014": 0.517981442054,
			"0.015": 0.0,
			"0.016": 0.0,
			"0.017": 0.0,
			"0.018": 0.0,
			"0.019": 0.0,
			"0.02": 0.0,
			"0.021": 0.0,
			"0.022": 0.0,
			"0.023": 0.0,
			"0.024": 0.0,
			"0.025": 0.0
		}
	}
}
