{
	 "smiles": "CNCC(O)=O", 
	 "Tm": 481.15, 
	 "num_atms": 13, 
	 "gaussian": { 
		 "optdone": 1, 
		 "sigma_profile": "yes", 
		 "theory": "DFT", 
		 "functional": "B3LYP", 
		 "basiset": "6-31G**", 
		 "properties": { 
			 "R2extent": 1400.3307, 
			 "electric_dipole_moment_norm": 2.13621809046, 
			 "electric_quadrupole_moment_norm": 5.53012434942, 
			 "total_energy": -323.736743864, 
			 "HOMO_LUMO_gap": 0.23815, 
			 "cosmo_polarized_energy": -11.38, 
			 "cosmo_cavitation_energy": 16.58, 
			 "cosmo_dispersion_energy": -12.41, 
			 "cosmo_repulsion_energy": 1.1, 
			 "cosmo_total_nonelectrostatic_energy": 5.27, 
			 "SMD_solvation_energy": 2.37 
		},
		"coords": [
			{
				"x": 1.4458820372,
				"y": 0.4248086905,
				"z": -1.0378712819,
				"element": "C" 
			},
			{
				"x": 0.2853559954,
				"y": -0.4382577106,
				"z": -0.8317222702,
				"element": "N" 
			},
			{
				"x": 0.5089730904,
				"y": -1.82921085,
				"z": -1.1654682579,
				"element": "C" 
			},
			{
				"x": 1.3331739873,
				"y": -2.5595328114,
				"z": -0.1155521937,
				"element": "C" 
			},
			{
				"x": 1.3888168224,
				"y": -3.8855436023,
				"z": -0.4017825235,
				"element": "O" 
			},
			{
				"x": 1.894797701,
				"y": -2.0729177693,
				"z": 0.8378317403,
				"element": "O" 
			},
			{
				"x": 1.1593234723,
				"y": 1.4628216699,
				"z": -0.8463792773,
				"element": "H" 
			},
			{
				"x": 1.8727918167,
				"y": 0.3663965092,
				"z": -2.0565121018,
				"element": "H" 
			},
			{
				"x": 2.2259287496,
				"y": 0.1545357625,
				"z": -0.3229006918,
				"element": "H" 
			},
			{
				"x": -0.498247557,
				"y": -0.09583432,
				"z": -1.3778231248,
				"element": "H" 
			},
			{
				"x": 1.0222201047,
				"y": -1.9960416456,
				"z": -2.1340226449,
				"element": "H" 
			},
			{
				"x": -0.4519357951,
				"y": -2.3502086367,
				"z": -1.2390580534,
				"element": "H" 
			},
			{
				"x": 1.9423195753,
				"y": -4.2862152862,
				"z": 0.2891606809,
				"element": "H" 
			}
		],
		 "valence_orbital": [ 
			{
				"type": "occ",
				"energy": -0.36856,
				"method": "rhf"
			},
			{
				"type": "occ",
				"energy": -0.36626,
				"method": "rhf"
			},
			{
				"type": "occ",
				"energy": -0.31772,
				"method": "rhf"
			},
			{
				"type": "occ",
				"energy": -0.27493,
				"method": "rhf"
			},
			{
				"type": "occ",
				"energy": -0.22608,
				"method": "rhf"
			},
			{
				"type": "unocc",
				"energy": 0.01207,
				"method": "rhf"
			},
			{
				"type": "unocc",
				"energy": 0.07802,
				"method": "rhf"
			},
			{
				"type": "unocc",
				"energy": 0.08086,
				"method": "rhf"
			},
			{
				"type": "unocc",
				"energy": 0.13928,
				"method": "rhf"
			},
			{
				"type": "unocc",
				"energy": 0.14684,
				"method": "rhf"
			}
		],
		"cosmo_sigma_profile": { 
			"-0.025": 0.0,
			"-0.024": 0.0,
			"-0.023": 0.0,
			"-0.022": 0.0,
			"-0.021": 0.0,
			"-0.02": 0.0,
			"-0.019": 0.0,
			"-0.018": 0.442543029738,
			"-0.017": 1.09608985453,
			"-0.016": 0.909026164156,
			"-0.015": 0.815515315845,
			"-0.014": 0.622399947535,
			"-0.013": 0.816410369544,
			"-0.012": 0.308811137227,
			"-0.011": 1.52304552344,
			"-0.01": 2.84114827482,
			"-0.009": 1.70469941421,
			"-0.008": 1.98378733013,
			"-0.007": 4.17315125567,
			"-0.006": 5.00486883886,
			"-0.005": 6.10115278706,
			"-0.004": 8.84288869789,
			"-0.003": 11.4815950678,
			"-0.002": 12.3633552831,
			"-0.001": 11.2444467078,
			"0.0": 11.3080015197,
			"0.001": 5.02703404502,
			"0.002": 2.92091272633,
			"0.003": 2.36595704877,
			"0.004": 2.94230538832,
			"0.005": 2.57370828727,
			"0.006": 3.05072071784,
			"0.007": 3.11301510998,
			"0.008": 3.57457915955,
			"0.009": 3.39127829766,
			"0.01": 3.22529970548,
			"0.011": 4.21937179198,
			"0.012": 3.99020588849,
			"0.013": 1.37463683418,
			"0.014": 1.59455306749,
			"0.015": 0.731653349132,
			"0.016": 0.84160289912,
			"0.017": 0.633796441942,
			"0.018": 0.197459588417,
			"0.019": 0.0,
			"0.02": 0.0,
			"0.021": 0.0,
			"0.022": 0.0,
			"0.023": 0.0,
			"0.024": 0.0,
			"0.025": 0.0
		}
	}
}
