{
	 "smiles": "C(C(C1=CC=CC=C1)C1=CC=CC=C1)C1=CC=CC=C1", 
	 "Tm": 325.15, 
	 "num_atms": 38, 
	 "gaussian": { 
		 "optdone": 1, 
		 "sigma_profile": "yes", 
		 "theory": "DFT", 
		 "functional": "B3LYP", 
		 "basiset": "6-31G**", 
		 "properties": { 
			 "R2extent": 5755.421, 
			 "electric_dipole_moment_norm": 0.179574051578, 
			 "electric_quadrupole_moment_norm": 8.41484819768, 
			 "total_energy": -772.982834914, 
			 "HOMO_LUMO_gap": 0.22127, 
			 "cosmo_polarized_energy": -7.28, 
			 "cosmo_cavitation_energy": 39.86, 
			 "cosmo_dispersion_energy": -27.04, 
			 "cosmo_repulsion_energy": 2.09, 
			 "cosmo_total_nonelectrostatic_energy": 14.9, 
			 "SMD_solvation_energy": 6.27 
		},
		"coords": [
			{
				"x": 1.0734652596,
				"y": -0.4923542361,
				"z": -1.9909337229,
				"element": "C" 
			},
			{
				"x": 1.1399402701,
				"y": -0.0828833913,
				"z": -0.4751144147,
				"element": "C" 
			},
			{
				"x": 0.3405529526,
				"y": 1.191537189,
				"z": -0.1795698221,
				"element": "C" 
			},
			{
				"x": 0.8276532754,
				"y": 2.4100107063,
				"z": -0.6828311235,
				"element": "C" 
			},
			{
				"x": 0.1479593954,
				"y": 3.6078145221,
				"z": -0.4693007493,
				"element": "C" 
			},
			{
				"x": -1.040036701,
				"y": 3.6159379752,
				"z": 0.2659466233,
				"element": "C" 
			},
			{
				"x": -1.5279815141,
				"y": 2.4176867289,
				"z": 0.7844566894,
				"element": "C" 
			},
			{
				"x": -0.844030079,
				"y": 1.2183514442,
				"z": 0.5657114642,
				"element": "C" 
			},
			{
				"x": 0.9048594266,
				"y": -1.2431961519,
				"z": 0.4837915367,
				"element": "C" 
			},
			{
				"x": -0.2790040062,
				"y": -1.9997174834,
				"z": 0.5051361274,
				"element": "C" 
			},
			{
				"x": -0.4365378566,
				"y": -3.0595742859,
				"z": 1.4006545643,
				"element": "C" 
			},
			{
				"x": 0.5835815745,
				"y": -3.3895529739,
				"z": 2.2938377913,
				"element": "C" 
			},
			{
				"x": 1.7657481624,
				"y": -2.6485719706,
				"z": 2.2846781257,
				"element": "C" 
			},
			{
				"x": 1.9192321485,
				"y": -1.589743876,
				"z": 1.3889690133,
				"element": "C" 
			},
			{
				"x": -0.2605041399,
				"y": -0.909366256,
				"z": -2.5758070112,
				"element": "C" 
			},
			{
				"x": -1.2578188645,
				"y": 0.0350846246,
				"z": -2.867115502,
				"element": "C" 
			},
			{
				"x": -2.4742130815,
				"y": -0.3579013494,
				"z": -3.4266559051,
				"element": "C" 
			},
			{
				"x": -2.7161869181,
				"y": -1.702864817,
				"z": -3.7145020802,
				"element": "C" 
			},
			{
				"x": -1.7296893391,
				"y": -2.6513969162,
				"z": -3.4411782646,
				"element": "C" 
			},
			{
				"x": -0.5152898312,
				"y": -2.2550922732,
				"z": -2.8782957295,
				"element": "C" 
			},
			{
				"x": 1.4545465265,
				"y": 0.3624576506,
				"z": -2.562270962,
				"element": "H" 
			},
			{
				"x": 1.7935886847,
				"y": -1.3055953274,
				"z": -2.1334220742,
				"element": "H" 
			},
			{
				"x": 2.1912437457,
				"y": 0.2012166733,
				"z": -0.3374796544,
				"element": "H" 
			},
			{
				"x": 1.7577070834,
				"y": 2.419866972,
				"z": -1.2474390425,
				"element": "H" 
			},
			{
				"x": 0.5498396857,
				"y": 4.5349813874,
				"z": -0.8687727723,
				"element": "H" 
			},
			{
				"x": -1.5720933056,
				"y": 4.547090303,
				"z": 0.438468746,
				"element": "H" 
			},
			{
				"x": -2.4450848099,
				"y": 2.4102361764,
				"z": 1.3671865088,
				"element": "H" 
			},
			{
				"x": -1.2339771387,
				"y": 0.3016829974,
				"z": 0.9925723282,
				"element": "H" 
			},
			{
				"x": -1.082044014,
				"y": -1.7672180644,
				"z": -0.1842729941,
				"element": "H" 
			},
			{
				"x": -1.3617365636,
				"y": -3.6293894975,
				"z": 1.3965382415,
				"element": "H" 
			},
			{
				"x": 0.4585499145,
				"y": -4.215105736,
				"z": 2.9887406205,
				"element": "H" 
			},
			{
				"x": 2.5697474037,
				"y": -2.8930674619,
				"z": 2.9734207998,
				"element": "H" 
			},
			{
				"x": 2.8449823369,
				"y": -1.0189153073,
				"z": 1.3918229713,
				"element": "H" 
			},
			{
				"x": -1.0780328164,
				"y": 1.0850007313,
				"z": -2.6576593422,
				"element": "H" 
			},
			{
				"x": -3.2318684384,
				"y": 0.389950633,
				"z": -3.6442466652,
				"element": "H" 
			},
			{
				"x": -3.6617284673,
				"y": -2.0070450218,
				"z": -4.1545150627,
				"element": "H" 
			},
			{
				"x": -1.9023410518,
				"y": -3.6998685564,
				"z": -3.668277658,
				"element": "H" 
			},
			{
				"x": 0.2479010908,
				"y": -2.9998857611,
				"z": -2.667271599,
				"element": "H" 
			}
		],
		 "valence_orbital": [ 
			{
				"type": "occ",
				"energy": -0.24582,
				"method": "rhf"
			},
			{
				"type": "occ",
				"energy": -0.24437,
				"method": "rhf"
			},
			{
				"type": "occ",
				"energy": -0.24138,
				"method": "rhf"
			},
			{
				"type": "occ",
				"energy": -0.23513,
				"method": "rhf"
			},
			{
				"type": "occ",
				"energy": -0.23197,
				"method": "rhf"
			},
			{
				"type": "unocc",
				"energy": -0.0107,
				"method": "rhf"
			},
			{
				"type": "unocc",
				"energy": 0.00032,
				"method": "rhf"
			},
			{
				"type": "unocc",
				"energy": 0.00247,
				"method": "rhf"
			},
			{
				"type": "unocc",
				"energy": 0.00686,
				"method": "rhf"
			},
			{
				"type": "unocc",
				"energy": 0.00707,
				"method": "rhf"
			}
		],
		"cosmo_sigma_profile": { 
			"-0.025": 0.0,
			"-0.024": 0.0,
			"-0.023": 0.0,
			"-0.022": 0.0,
			"-0.021": 0.0,
			"-0.02": 0.0,
			"-0.019": 0.0,
			"-0.018": 0.0,
			"-0.017": 0.0,
			"-0.016": 0.0,
			"-0.015": 0.0,
			"-0.014": 0.0,
			"-0.013": 0.0,
			"-0.012": 0.0,
			"-0.011": 0.0,
			"-0.01": 0.0,
			"-0.009": 0.0,
			"-0.008": 0.0,
			"-0.007": 0.0,
			"-0.006": 4.99806998536,
			"-0.005": 28.6275412704,
			"-0.004": 31.1696660663,
			"-0.003": 40.2985837359,
			"-0.002": 27.5580863561,
			"-0.001": 25.1312156939,
			"0.0": 21.3189819255,
			"0.001": 21.1222666052,
			"0.002": 21.9751354179,
			"0.003": 22.4907272809,
			"0.004": 25.1997452457,
			"0.005": 24.55424414,
			"0.006": 19.2319795152,
			"0.007": 3.92504431778,
			"0.008": 0.0,
			"0.009": 0.0,
			"0.01": 0.0,
			"0.011": 0.0,
			"0.012": 0.0,
			"0.013": 0.0,
			"0.014": 0.0,
			"0.015": 0.0,
			"0.016": 0.0,
			"0.017": 0.0,
			"0.018": 0.0,
			"0.019": 0.0,
			"0.02": 0.0,
			"0.021": 0.0,
			"0.022": 0.0,
			"0.023": 0.0,
			"0.024": 0.0,
			"0.025": 0.0
		}
	}
}
