{
	 "smiles": "CC(=O)C1=CC2=C(C=CS2)N=C1", 
	 "Tm": 406.15, 
	 "num_atms": 19, 
	 "gaussian": { 
		 "optdone": 1, 
		 "sigma_profile": "yes", 
		 "theory": "DFT", 
		 "functional": "B3LYP", 
		 "basiset": "6-31G**", 
		 "properties": { 
			 "R2extent": 3405.7613, 
			 "electric_dipole_moment_norm": 1.8496756959, 
			 "electric_quadrupole_moment_norm": 17.7355281497, 
			 "total_energy": -875.33619583, 
			 "HOMO_LUMO_gap": 0.17118, 
			 "cosmo_polarized_energy": -9.87, 
			 "cosmo_cavitation_energy": 25.09, 
			 "cosmo_dispersion_energy": -19.17, 
			 "cosmo_repulsion_energy": 1.45, 
			 "cosmo_total_nonelectrostatic_energy": 7.37, 
			 "SMD_solvation_energy": 3.17 
		},
		"coords": [
			{
				"x": 0.1833884976,
				"y": 2.9042609297,
				"z": 4.338559986,
				"element": "C" 
			},
			{
				"x": 0.2488792525,
				"y": 3.2041849106,
				"z": 2.8517739891,
				"element": "C" 
			},
			{
				"x": 0.5164743223,
				"y": 4.3274524586,
				"z": 2.4509828697,
				"element": "O" 
			},
			{
				"x": -0.0199837912,
				"y": 2.0993691185,
				"z": 1.8778191451,
				"element": "C" 
			},
			{
				"x": 0.0446681837,
				"y": 2.3932068908,
				"z": 0.5113768247,
				"element": "C" 
			},
			{
				"x": -0.2069781567,
				"y": 1.3591112599,
				"z": -0.379315491,
				"element": "C" 
			},
			{
				"x": -0.5161217375,
				"y": 0.0607130612,
				"z": 0.1148922887,
				"element": "C" 
			},
			{
				"x": -0.7464977574,
				"y": -0.8810344254,
				"z": -0.9471360318,
				"element": "C" 
			},
			{
				"x": -0.6162930007,
				"y": -0.3156346559,
				"z": -2.1758386998,
				"element": "C" 
			},
			{
				"x": -0.2078116653,
				"y": 1.3871391789,
				"z": -2.131714123,
				"element": "S" 
			},
			{
				"x": -0.5784391414,
				"y": -0.222839184,
				"z": 1.4306789245,
				"element": "N" 
			},
			{
				"x": -0.3348878977,
				"y": 0.7783624632,
				"z": 2.2705279778,
				"element": "C" 
			},
			{
				"x": 0.4046071111,
				"y": 3.8191229519,
				"z": 4.8887345363,
				"element": "H" 
			},
			{
				"x": -0.8099426973,
				"y": 2.5394908839,
				"z": 4.6225874306,
				"element": "H" 
			},
			{
				"x": 0.9063433154,
				"y": 2.1288959195,
				"z": 4.6153096869,
				"element": "H" 
			},
			{
				"x": 0.2858734976,
				"y": 3.4050045798,
				"z": 0.2016459692,
				"element": "H" 
			},
			{
				"x": -0.9948044333,
				"y": -1.9199525894,
				"z": -0.7697600367,
				"element": "H" 
			},
			{
				"x": -0.7355924836,
				"y": -0.7958083593,
				"z": -3.1379625752,
				"element": "H" 
			},
			{
				"x": -0.3909814181,
				"y": 0.5254546076,
				"z": 3.326937329,
				"element": "H" 
			}
		],
		 "valence_orbital": [ 
			{
				"type": "occ",
				"energy": -0.31182,
				"method": "rhf"
			},
			{
				"type": "occ",
				"energy": -0.27082,
				"method": "rhf"
			},
			{
				"type": "occ",
				"energy": -0.25656,
				"method": "rhf"
			},
			{
				"type": "occ",
				"energy": -0.25239,
				"method": "rhf"
			},
			{
				"type": "occ",
				"energy": -0.24323,
				"method": "rhf"
			},
			{
				"type": "unocc",
				"energy": -0.07205,
				"method": "rhf"
			},
			{
				"type": "unocc",
				"energy": -0.03211,
				"method": "rhf"
			},
			{
				"type": "unocc",
				"energy": -0.00186,
				"method": "rhf"
			},
			{
				"type": "unocc",
				"energy": 0.00897,
				"method": "rhf"
			},
			{
				"type": "unocc",
				"energy": 0.05515,
				"method": "rhf"
			}
		],
		"cosmo_sigma_profile": { 
			"-0.025": 0.0,
			"-0.024": 0.0,
			"-0.023": 0.0,
			"-0.022": 0.0,
			"-0.021": 0.0,
			"-0.02": 0.0,
			"-0.019": 0.0,
			"-0.018": 0.0,
			"-0.017": 0.0,
			"-0.016": 0.0,
			"-0.015": 0.0,
			"-0.014": 0.0,
			"-0.013": 0.0,
			"-0.012": 0.0,
			"-0.011": 0.0,
			"-0.01": 0.573198174884,
			"-0.009": 2.64389640123,
			"-0.008": 4.07942186778,
			"-0.007": 10.0214299325,
			"-0.006": 14.3199947251,
			"-0.005": 11.0503412077,
			"-0.004": 12.0864238436,
			"-0.003": 12.5309795548,
			"-0.002": 12.6468115277,
			"-0.001": 15.546619661,
			"0.0": 22.0427914073,
			"0.001": 22.8356593112,
			"0.002": 15.0287318432,
			"0.003": 11.4419624557,
			"0.004": 7.56705428395,
			"0.005": 3.49701076456,
			"0.006": 2.42284102345,
			"0.007": 2.93184656403,
			"0.008": 2.87551410271,
			"0.009": 2.67564597039,
			"0.01": 3.40619128097,
			"0.011": 3.42149331202,
			"0.012": 4.64720024195,
			"0.013": 1.91155370832,
			"0.014": 0.910266009274,
			"0.015": 0.892078923685,
			"0.016": 0.157162609994,
			"0.017": 0.0,
			"0.018": 0.0,
			"0.019": 0.0,
			"0.02": 0.0,
			"0.021": 0.0,
			"0.022": 0.0,
			"0.023": 0.0,
			"0.024": 0.0,
			"0.025": 0.0
		}
	}
}
