{
	 "smiles": "CC(C)C1=CC=C(C=C1)S(=O)(=O)C1=CC=C(NN)C=C1", 
	 "Tm": 465.15, 
	 "num_atms": 38, 
	 "gaussian": { 
		 "optdone": 1, 
		 "sigma_profile": "yes", 
		 "theory": "DFT", 
		 "functional": "B3LYP", 
		 "basiset": "6-31G**", 
		 "properties": { 
			 "R2extent": 8718.108, 
			 "electric_dipole_moment_norm": 5.80352034889, 
			 "electric_quadrupole_moment_norm": 31.3352693911, 
			 "total_energy": -1240.49760568, 
			 "HOMO_LUMO_gap": 0.18067, 
			 "cosmo_polarized_energy": -20.92, 
			 "cosmo_cavitation_energy": 42.74, 
			 "cosmo_dispersion_energy": -30.19, 
			 "cosmo_repulsion_energy": 2.3, 
			 "cosmo_total_nonelectrostatic_energy": 14.85, 
			 "SMD_solvation_energy": 6.95 
		},
		"coords": [
			{
				"x": -1.9642344653,
				"y": 4.4452862822,
				"z": -1.8085355873,
				"element": "C" 
			},
			{
				"x": -0.9537920504,
				"y": 3.3554167463,
				"z": -2.2145906735,
				"element": "C" 
			},
			{
				"x": -1.405310716,
				"y": 2.6291381253,
				"z": -3.4959616129,
				"element": "C" 
			},
			{
				"x": -0.6887496013,
				"y": 2.3801401601,
				"z": -1.0759274204,
				"element": "C" 
			},
			{
				"x": -1.7131600089,
				"y": 1.5728585715,
				"z": -0.555182763,
				"element": "C" 
			},
			{
				"x": -1.4705450824,
				"y": 0.6829733596,
				"z": 0.4881547718,
				"element": "C" 
			},
			{
				"x": -0.1834894575,
				"y": 0.5920392326,
				"z": 1.0225777325,
				"element": "C" 
			},
			{
				"x": 0.8510966705,
				"y": 1.3890297977,
				"z": 0.533679582,
				"element": "C" 
			},
			{
				"x": 0.5898590685,
				"y": 2.2746312446,
				"z": -0.5114513532,
				"element": "C" 
			},
			{
				"x": 0.1393207792,
				"y": -0.5544253335,
				"z": 2.373376494,
				"element": "S" 
			},
			{
				"x": 1.3188037031,
				"y": -0.0477195657,
				"z": 3.0967353833,
				"element": "O" 
			},
			{
				"x": -1.1455573872,
				"y": -0.7904640472,
				"z": 3.0548703596,
				"element": "O" 
			},
			{
				"x": 0.6150976605,
				"y": -2.0885647673,
				"z": 1.5851609512,
				"element": "C" 
			},
			{
				"x": 1.9612844209,
				"y": -2.346982477,
				"z": 1.3237740684,
				"element": "C" 
			},
			{
				"x": 2.3376221355,
				"y": -3.5419171045,
				"z": 0.7185481198,
				"element": "C" 
			},
			{
				"x": 1.3648297042,
				"y": -4.4975595688,
				"z": 0.3672017746,
				"element": "C" 
			},
			{
				"x": 1.6994523183,
				"y": -5.6822380135,
				"z": -0.2692449623,
				"element": "N" 
			},
			{
				"x": 3.0050960405,
				"y": -6.2000972448,
				"z": -0.2827620237,
				"element": "N" 
			},
			{
				"x": 0.007890326,
				"y": -4.2249860486,
				"z": 0.6479739283,
				"element": "C" 
			},
			{
				"x": -0.3628751529,
				"y": -3.0335963108,
				"z": 1.2503507716,
				"element": "C" 
			},
			{
				"x": -2.0937233336,
				"y": 5.1701281015,
				"z": -2.6194028974,
				"element": "H" 
			},
			{
				"x": -1.6292885843,
				"y": 4.9855693375,
				"z": -0.9178914655,
				"element": "H" 
			},
			{
				"x": -2.9470573219,
				"y": 4.0147518156,
				"z": -1.5879082011,
				"element": "H" 
			},
			{
				"x": -0.0018964446,
				"y": 3.8549095209,
				"z": -2.4369058467,
				"element": "H" 
			},
			{
				"x": -2.3644584131,
				"y": 2.1207293403,
				"z": -3.3489253479,
				"element": "H" 
			},
			{
				"x": -0.6730114326,
				"y": 1.8772620749,
				"z": -3.805954389,
				"element": "H" 
			},
			{
				"x": -1.5308463475,
				"y": 3.3424783692,
				"z": -4.3175321098,
				"element": "H" 
			},
			{
				"x": -2.717551445,
				"y": 1.6439077682,
				"z": -0.9631836772,
				"element": "H" 
			},
			{
				"x": -2.2698282024,
				"y": 0.079633934,
				"z": 0.9049565075,
				"element": "H" 
			},
			{
				"x": 1.8364123267,
				"y": 1.3294068574,
				"z": 0.9833160797,
				"element": "H" 
			},
			{
				"x": 1.3927868751,
				"y": 2.9014976839,
				"z": -0.8910299245,
				"element": "H" 
			},
			{
				"x": 2.7123657193,
				"y": -1.6208408277,
				"z": 1.6160372041,
				"element": "H" 
			},
			{
				"x": 3.3853363656,
				"y": -3.7361908746,
				"z": 0.5184173827,
				"element": "H" 
			},
			{
				"x": 1.0011801867,
				"y": -6.4120399956,
				"z": -0.2496645302,
				"element": "H" 
			},
			{
				"x": 3.4499502189,
				"y": -6.0837160233,
				"z": 0.6287570279,
				"element": "H" 
			},
			{
				"x": 3.5584354112,
				"y": -5.6962250756,
				"z": -0.9713909897,
				"element": "H" 
			},
			{
				"x": -0.7484742376,
				"y": -4.9638854974,
				"z": 0.3956235663,
				"element": "H" 
			},
			{
				"x": -1.4024702463,
				"y": -2.8385395476,
				"z": 1.4908340699,
				"element": "H" 
			}
		],
		 "valence_orbital": [ 
			{
				"type": "occ",
				"energy": -0.27697,
				"method": "rhf"
			},
			{
				"type": "occ",
				"energy": -0.26686,
				"method": "rhf"
			},
			{
				"type": "occ",
				"energy": -0.26107,
				"method": "rhf"
			},
			{
				"type": "occ",
				"energy": -0.25746,
				"method": "rhf"
			},
			{
				"type": "occ",
				"energy": -0.2181,
				"method": "rhf"
			},
			{
				"type": "unocc",
				"energy": -0.03743,
				"method": "rhf"
			},
			{
				"type": "unocc",
				"energy": -0.01928,
				"method": "rhf"
			},
			{
				"type": "unocc",
				"energy": -0.0097,
				"method": "rhf"
			},
			{
				"type": "unocc",
				"energy": -0.00416,
				"method": "rhf"
			},
			{
				"type": "unocc",
				"energy": 0.06073,
				"method": "rhf"
			}
		],
		"cosmo_sigma_profile": { 
			"-0.025": 0.0,
			"-0.024": 0.0,
			"-0.023": 0.0,
			"-0.022": 0.0,
			"-0.021": 0.0,
			"-0.02": 0.0,
			"-0.019": 0.0,
			"-0.018": 0.0,
			"-0.017": 0.0,
			"-0.016": 0.0,
			"-0.015": 0.0,
			"-0.014": 0.078507855733,
			"-0.013": 1.35185458178,
			"-0.012": 1.25491731144,
			"-0.011": 4.36208592982,
			"-0.01": 5.22000673463,
			"-0.009": 4.9577323162,
			"-0.008": 5.2265409801,
			"-0.007": 6.3568208402,
			"-0.006": 15.7600536108,
			"-0.005": 20.4952901416,
			"-0.004": 21.4749123399,
			"-0.003": 24.3977065229,
			"-0.002": 25.0640014502,
			"-0.001": 26.5552290884,
			"0.0": 27.5429255499,
			"0.001": 28.4035661699,
			"0.002": 22.313610676,
			"0.003": 25.9682612643,
			"0.004": 22.1227341868,
			"0.005": 5.6793105193,
			"0.006": 5.5148390387,
			"0.007": 4.51531279847,
			"0.008": 3.72979310691,
			"0.009": 4.36185183016,
			"0.01": 4.85361927006,
			"0.011": 7.14070908843,
			"0.012": 8.46651882306,
			"0.013": 2.92836661234,
			"0.014": 0.699987224932,
			"0.015": 0.489747533571,
			"0.016": 0.648718199749,
			"0.017": 0.017387952734,
			"0.018": 0.0,
			"0.019": 0.0,
			"0.02": 0.0,
			"0.021": 0.0,
			"0.022": 0.0,
			"0.023": 0.0,
			"0.024": 0.0,
			"0.025": 0.0
		}
	}
}
