{
	 "smiles": "OC(=O)C1=CSC(=N1)C1=CC=C(Br)S1", 
	 "Tm": 522.15, 
	 "num_atms": 18, 
	 "gaussian": { 
		 "optdone": 1, 
		 "sigma_profile": "yes", 
		 "theory": "DFT", 
		 "functional": "B3LYP", 
		 "basiset": "6-31G**", 
		 "properties": { 
			 "R2extent": 7325.9035, 
			 "electric_dipole_moment_norm": 1.15353865128, 
			 "electric_quadrupole_moment_norm": 7.04486894839, 
			 "total_energy": -3880.22448275, 
			 "HOMO_LUMO_gap": 0.14954, 
			 "cosmo_polarized_energy": -11.57, 
			 "cosmo_cavitation_energy": 29.8, 
			 "cosmo_dispersion_energy": -23.26, 
			 "cosmo_repulsion_energy": 1.75, 
			 "cosmo_total_nonelectrostatic_energy": 8.29, 
			 "SMD_solvation_energy": 3.63 
		},
		"coords": [
			{
				"x": -1.3724729826,
				"y": -0.7734864916,
				"z": -4.0416701377,
				"element": "O" 
			},
			{
				"x": -2.3292706547,
				"y": -1.3312861927,
				"z": -3.2730199072,
				"element": "C" 
			},
			{
				"x": -3.2351179281,
				"y": -2.0067926333,
				"z": -3.7213813059,
				"element": "O" 
			},
			{
				"x": -2.1617504778,
				"y": -1.0375699151,
				"z": -1.8285192394,
				"element": "C" 
			},
			{
				"x": -3.0433712694,
				"y": -1.5241949308,
				"z": -0.8955445953,
				"element": "C" 
			},
			{
				"x": -2.5766537675,
				"y": -1.0099599939,
				"z": 0.6790864415,
				"element": "S" 
			},
			{
				"x": -1.1966200824,
				"y": -0.1566245305,
				"z": -0.0449742155,
				"element": "C" 
			},
			{
				"x": -1.1305978718,
				"y": -0.2728346037,
				"z": -1.3443451094,
				"element": "N" 
			},
			{
				"x": -0.2349714313,
				"y": 0.5976941248,
				"z": 0.7370654341,
				"element": "C" 
			},
			{
				"x": 0.8539415775,
				"y": 1.2800289582,
				"z": 0.2392652526,
				"element": "C" 
			},
			{
				"x": 1.6229778286,
				"y": 1.9301263693,
				"z": 1.2412661086,
				"element": "C" 
			},
			{
				"x": 1.107391727,
				"y": 1.7334670595,
				"z": 2.4943268179,
				"element": "C" 
			},
			{
				"x": 1.7857007758,
				"y": 2.3988706483,
				"z": 4.11804528,
				"element": "Br" 
			},
			{
				"x": -0.3278938958,
				"y": 0.7508299228,
				"z": 2.4805743246,
				"element": "S" 
			},
			{
				"x": -1.5859731732,
				"y": -1.0330780073,
				"z": -4.9537588379,
				"element": "H" 
			},
			{
				"x": -3.9121541819,
				"y": -2.1400905994,
				"z": -1.074708784,
				"element": "H" 
			},
			{
				"x": 1.0787316764,
				"y": 1.3020377463,
				"z": -0.8199230644,
				"element": "H" 
			},
			{
				"x": 2.513704131,
				"y": 2.5151630692,
				"z": 1.0505155375,
				"element": "H" 
			}
		],
		 "valence_orbital": [ 
			{
				"type": "occ",
				"energy": -0.29567,
				"method": "rhf"
			},
			{
				"type": "occ",
				"energy": -0.28187,
				"method": "rhf"
			},
			{
				"type": "occ",
				"energy": -0.28091,
				"method": "rhf"
			},
			{
				"type": "occ",
				"energy": -0.27509,
				"method": "rhf"
			},
			{
				"type": "occ",
				"energy": -0.22541,
				"method": "rhf"
			},
			{
				"type": "unocc",
				"energy": -0.07587,
				"method": "rhf"
			},
			{
				"type": "unocc",
				"energy": -0.04294,
				"method": "rhf"
			},
			{
				"type": "unocc",
				"energy": -0.0273,
				"method": "rhf"
			},
			{
				"type": "unocc",
				"energy": -0.00796,
				"method": "rhf"
			},
			{
				"type": "unocc",
				"energy": 0.00813,
				"method": "rhf"
			}
		],
		"cosmo_sigma_profile": { 
			"-0.025": 0.0,
			"-0.024": 0.0,
			"-0.023": 0.0,
			"-0.022": 0.0,
			"-0.021": 0.0,
			"-0.02": 0.0,
			"-0.019": 0.36686551793,
			"-0.018": 0.953564493663,
			"-0.017": 0.981785238918,
			"-0.016": 0.330379457497,
			"-0.015": 1.05997685967,
			"-0.014": 0.665618546323,
			"-0.013": 0.582418266256,
			"-0.012": 0.711481261651,
			"-0.011": 1.49276171719,
			"-0.01": 2.12429026584,
			"-0.009": 2.54320261822,
			"-0.008": 4.59023101958,
			"-0.007": 5.31730741139,
			"-0.006": 7.22001710305,
			"-0.005": 7.32817204169,
			"-0.004": 10.5176640824,
			"-0.003": 15.4708161858,
			"-0.002": 19.516404719,
			"-0.001": 23.3800966841,
			"0.0": 30.5559520998,
			"0.001": 30.666645598,
			"0.002": 26.9557866474,
			"0.003": 17.5554561704,
			"0.004": 5.5101499715,
			"0.005": 3.89857711353,
			"0.006": 3.0625284731,
			"0.007": 3.00924231025,
			"0.008": 2.45992440086,
			"0.009": 3.90546006436,
			"0.01": 3.8457551066,
			"0.011": 6.09057098847,
			"0.012": 3.89166264497,
			"0.013": 1.20225570464,
			"0.014": 0.647190661688,
			"0.015": 0.00287356124889,
			"0.016": 0.0,
			"0.017": 0.0,
			"0.018": 0.0,
			"0.019": 0.0,
			"0.02": 0.0,
			"0.021": 0.0,
			"0.022": 0.0,
			"0.023": 0.0,
			"0.024": 0.0,
			"0.025": 0.0
		}
	}
}
