{
	 "smiles": "CCOC1=CC=CC=C1C(C)=O", 
	 "Tm": 313.15, 
	 "num_atms": 24, 
	 "gaussian": { 
		 "optdone": 1, 
		 "sigma_profile": "yes", 
		 "theory": "DFT", 
		 "functional": "B3LYP", 
		 "basiset": "6-31G**", 
		 "properties": { 
			 "R2extent": 2318.4927, 
			 "electric_dipole_moment_norm": 4.72058222892, 
			 "electric_quadrupole_moment_norm": 7.49509641032, 
			 "total_energy": -538.742324182, 
			 "HOMO_LUMO_gap": 0.18329, 
			 "cosmo_polarized_energy": -9.07, 
			 "cosmo_cavitation_energy": 27.22, 
			 "cosmo_dispersion_energy": -19.56, 
			 "cosmo_repulsion_energy": 1.55, 
			 "cosmo_total_nonelectrostatic_energy": 9.21, 
			 "SMD_solvation_energy": 5.76 
		},
		"coords": [
			{
				"x": -2.7538907648,
				"y": -2.4062632351,
				"z": -1.0988044275,
				"element": "C" 
			},
			{
				"x": -1.2640289625,
				"y": -2.3948427612,
				"z": -0.8047127181,
				"element": "C" 
			},
			{
				"x": -0.9109726296,
				"y": -1.0657131249,
				"z": -0.4130100049,
				"element": "O" 
			},
			{
				"x": 0.382159116,
				"y": -0.7802310495,
				"z": -0.0908577394,
				"element": "C" 
			},
			{
				"x": 1.3964158661,
				"y": -1.7498412434,
				"z": -0.1282726863,
				"element": "C" 
			},
			{
				"x": 2.7063410033,
				"y": -1.4148628572,
				"z": 0.2092378972,
				"element": "C" 
			},
			{
				"x": 3.0290949477,
				"y": -0.1119112841,
				"z": 0.5891210685,
				"element": "C" 
			},
			{
				"x": 2.0237915525,
				"y": 0.8464625824,
				"z": 0.6255487612,
				"element": "C" 
			},
			{
				"x": 0.6920259839,
				"y": 0.5493813704,
				"z": 0.2928646322,
				"element": "C" 
			},
			{
				"x": -0.2768374694,
				"y": 1.7008253155,
				"z": 0.3830161264,
				"element": "C" 
			},
			{
				"x": -1.7457096297,
				"y": 1.5295467044,
				"z": 0.0515998202,
				"element": "C" 
			},
			{
				"x": 0.134031289,
				"y": 2.8001855047,
				"z": 0.7321619934,
				"element": "O" 
			},
			{
				"x": -2.9954486711,
				"y": -1.7091354522,
				"z": -1.905892283,
				"element": "H" 
			},
			{
				"x": -3.065538635,
				"y": -3.4098710753,
				"z": -1.4038309071,
				"element": "H" 
			},
			{
				"x": -3.3267405457,
				"y": -2.1210492785,
				"z": -0.2121141426,
				"element": "H" 
			},
			{
				"x": -0.6876443736,
				"y": -2.6860318634,
				"z": -1.6932823812,
				"element": "H" 
			},
			{
				"x": -1.0192350982,
				"y": -3.0977944233,
				"z": 0.003059298,
				"element": "H" 
			},
			{
				"x": 1.170315424,
				"y": -2.7675953197,
				"z": -0.4198882479,
				"element": "H" 
			},
			{
				"x": 3.4742916954,
				"y": -2.1826936864,
				"z": 0.1727115236,
				"element": "H" 
			},
			{
				"x": 4.0487490982,
				"y": 0.1507612648,
				"z": 0.8523371576,
				"element": "H" 
			},
			{
				"x": 2.233312194,
				"y": 1.8704256755,
				"z": 0.9154597425,
				"element": "H" 
			},
			{
				"x": -2.2071886149,
				"y": 0.7745986637,
				"z": 0.694350414,
				"element": "H" 
			},
			{
				"x": -1.8776794161,
				"y": 1.1796734178,
				"z": -0.9761059349,
				"element": "H" 
			},
			{
				"x": -2.2355133594,
				"y": 2.4945761551,
				"z": 0.1891030383,
				"element": "H" 
			}
		],
		 "valence_orbital": [ 
			{
				"type": "occ",
				"energy": -0.32629,
				"method": "rhf"
			},
			{
				"type": "occ",
				"energy": -0.32312,
				"method": "rhf"
			},
			{
				"type": "occ",
				"energy": -0.25371,
				"method": "rhf"
			},
			{
				"type": "occ",
				"energy": -0.23824,
				"method": "rhf"
			},
			{
				"type": "occ",
				"energy": -0.22873,
				"method": "rhf"
			},
			{
				"type": "unocc",
				"energy": -0.04544,
				"method": "rhf"
			},
			{
				"type": "unocc",
				"energy": 0.00639,
				"method": "rhf"
			},
			{
				"type": "unocc",
				"energy": 0.04501,
				"method": "rhf"
			},
			{
				"type": "unocc",
				"energy": 0.08395,
				"method": "rhf"
			},
			{
				"type": "unocc",
				"energy": 0.09126,
				"method": "rhf"
			}
		],
		"cosmo_sigma_profile": { 
			"-0.025": 0.0,
			"-0.024": 0.0,
			"-0.023": 0.0,
			"-0.022": 0.0,
			"-0.021": 0.0,
			"-0.02": 0.0,
			"-0.019": 0.0,
			"-0.018": 0.0,
			"-0.017": 0.0,
			"-0.016": 0.0,
			"-0.015": 0.0,
			"-0.014": 0.0,
			"-0.013": 0.0,
			"-0.012": 0.0,
			"-0.011": 0.0,
			"-0.01": 0.0,
			"-0.009": 0.0,
			"-0.008": 0.0,
			"-0.007": 1.75938236605,
			"-0.006": 7.28662094982,
			"-0.005": 15.475760044,
			"-0.004": 23.9656893393,
			"-0.003": 23.6484560987,
			"-0.002": 18.8603365354,
			"-0.001": 20.0839067555,
			"0.0": 22.7769844723,
			"0.001": 14.3900751031,
			"0.002": 13.2435356761,
			"0.003": 15.428988509,
			"0.004": 13.7136664522,
			"0.005": 6.76568145728,
			"0.006": 1.97694393408,
			"0.007": 1.93628006015,
			"0.008": 1.55682267232,
			"0.009": 1.2628914799,
			"0.01": 1.91165402592,
			"0.011": 2.54837166422,
			"0.012": 3.83380129172,
			"0.013": 2.58650921805,
			"0.014": 0.542102769781,
			"0.015": 0.0,
			"0.016": 0.0,
			"0.017": 0.0,
			"0.018": 0.0,
			"0.019": 0.0,
			"0.02": 0.0,
			"0.021": 0.0,
			"0.022": 0.0,
			"0.023": 0.0,
			"0.024": 0.0,
			"0.025": 0.0
		}
	}
}
