{
	 "smiles": "CC1=NC(COC2=CC(=CC=C2)C(O)=O)=CS1", 
	 "Tm": 427.15, 
	 "num_atms": 28, 
	 "gaussian": { 
		 "optdone": 1, 
		 "sigma_profile": "yes", 
		 "theory": "DFT", 
		 "functional": "B3LYP", 
		 "basiset": "6-31G**", 
		 "properties": { 
			 "R2extent": 6210.9542, 
			 "electric_dipole_moment_norm": 1.07865022134, 
			 "electric_quadrupole_moment_norm": 7.84793093242, 
			 "total_energy": -1142.52300796, 
			 "HOMO_LUMO_gap": 0.18227, 
			 "cosmo_polarized_energy": -13.05, 
			 "cosmo_cavitation_energy": 34.84, 
			 "cosmo_dispersion_energy": -24.99, 
			 "cosmo_repulsion_energy": 1.93, 
			 "cosmo_total_nonelectrostatic_energy": 11.79, 
			 "SMD_solvation_energy": 5.65 
		},
		"coords": [
			{
				"x": -2.8652332008,
				"y": -1.8809958804,
				"z": 3.3710008043,
				"element": "C" 
			},
			{
				"x": -2.9620998069,
				"y": -1.125280722,
				"z": 2.0810543691,
				"element": "C" 
			},
			{
				"x": -2.5146688672,
				"y": 0.0846029323,
				"z": 1.9036765278,
				"element": "N" 
			},
			{
				"x": -2.7310811502,
				"y": 0.5237647208,
				"z": 0.6132808004,
				"element": "C" 
			},
			{
				"x": -2.2965795206,
				"y": 1.9247472571,
				"z": 0.2641427284,
				"element": "C" 
			},
			{
				"x": -2.293157951,
				"y": 2.1799651834,
				"z": -1.1367362602,
				"element": "O" 
			},
			{
				"x": -1.2175962951,
				"y": 1.7840350652,
				"z": -1.8850847508,
				"element": "C" 
			},
			{
				"x": -0.152067312,
				"y": 1.0179812228,
				"z": -1.4110737742,
				"element": "C" 
			},
			{
				"x": 0.8994384065,
				"y": 0.6874699148,
				"z": -2.2795471394,
				"element": "C" 
			},
			{
				"x": 0.8898993139,
				"y": 1.1082120458,
				"z": -3.6133801409,
				"element": "C" 
			},
			{
				"x": -0.1866015825,
				"y": 1.8672490648,
				"z": -4.0765355484,
				"element": "C" 
			},
			{
				"x": -1.2326087433,
				"y": 2.205581232,
				"z": -3.2241702443,
				"element": "C" 
			},
			{
				"x": 2.0087455958,
				"y": -0.1292429796,
				"z": -1.7176651318,
				"element": "C" 
			},
			{
				"x": 2.9794328033,
				"y": -0.4070186425,
				"z": -2.6246620838,
				"element": "O" 
			},
			{
				"x": 2.0717602058,
				"y": -0.5234901051,
				"z": -0.5693333758,
				"element": "O" 
			},
			{
				"x": -3.3577289396,
				"y": -0.3593060166,
				"z": -0.2165261553,
				"element": "C" 
			},
			{
				"x": -3.6976565843,
				"y": -1.8281311407,
				"z": 0.6405047413,
				"element": "S" 
			},
			{
				"x": -2.3945370634,
				"y": -1.2356965791,
				"z": 4.1148378398,
				"element": "H" 
			},
			{
				"x": -3.8524206502,
				"y": -2.1816802855,
				"z": 3.7373403036,
				"element": "H" 
			},
			{
				"x": -2.2608215003,
				"y": -2.7874886621,
				"z": 3.259885765,
				"element": "H" 
			},
			{
				"x": -1.3163794002,
				"y": 2.1321219294,
				"z": 0.7104182905,
				"element": "H" 
			},
			{
				"x": -3.0034209502,
				"y": 2.6500665046,
				"z": 0.6812841208,
				"element": "H" 
			},
			{
				"x": -0.1070264191,
				"y": 0.6500064215,
				"z": -0.3939257539,
				"element": "H" 
			},
			{
				"x": 1.7087055124,
				"y": 0.8431318077,
				"z": -4.2710155932,
				"element": "H" 
			},
			{
				"x": -0.2092760349,
				"y": 2.2020176388,
				"z": -5.1093217415,
				"element": "H" 
			},
			{
				"x": -2.0724046556,
				"y": 2.800714185,
				"z": -3.5682728558,
				"element": "H" 
			},
			{
				"x": 3.6389895553,
				"y": -0.9358979898,
				"z": -2.1467818595,
				"element": "H" 
			},
			{
				"x": -3.6257047656,
				"y": -0.2275381225,
				"z": -1.2540938823,
				"element": "H" 
			}
		],
		 "valence_orbital": [ 
			{
				"type": "occ",
				"energy": -0.27512,
				"method": "rhf"
			},
			{
				"type": "occ",
				"energy": -0.27469,
				"method": "rhf"
			},
			{
				"type": "occ",
				"energy": -0.26049,
				"method": "rhf"
			},
			{
				"type": "occ",
				"energy": -0.23842,
				"method": "rhf"
			},
			{
				"type": "occ",
				"energy": -0.22845,
				"method": "rhf"
			},
			{
				"type": "unocc",
				"energy": -0.04618,
				"method": "rhf"
			},
			{
				"type": "unocc",
				"energy": -0.02392,
				"method": "rhf"
			},
			{
				"type": "unocc",
				"energy": 0.00214,
				"method": "rhf"
			},
			{
				"type": "unocc",
				"energy": 0.01809,
				"method": "rhf"
			},
			{
				"type": "unocc",
				"energy": 0.0459,
				"method": "rhf"
			}
		],
		"cosmo_sigma_profile": { 
			"-0.025": 0.0,
			"-0.024": 0.0,
			"-0.023": 0.0,
			"-0.022": 0.0,
			"-0.021": 0.0,
			"-0.02": 0.0,
			"-0.019": 0.0804716663853,
			"-0.018": 0.737176624903,
			"-0.017": 1.06996619248,
			"-0.016": 0.884714289336,
			"-0.015": 0.279536311543,
			"-0.014": 0.529129893893,
			"-0.013": 0.581175123568,
			"-0.012": 0.921310597074,
			"-0.011": 1.29600991157,
			"-0.01": 0.812757038205,
			"-0.009": 0.702246611181,
			"-0.008": 1.98618364954,
			"-0.007": 6.5609849821,
			"-0.006": 15.8799917711,
			"-0.005": 20.2244972728,
			"-0.004": 19.5596895686,
			"-0.003": 18.8127744487,
			"-0.002": 19.2353885348,
			"-0.001": 19.1112695378,
			"0.0": 18.9693613222,
			"0.001": 24.0866776293,
			"0.002": 26.8389791257,
			"0.003": 28.0498586729,
			"0.004": 14.694899933,
			"0.005": 5.95610754107,
			"0.006": 4.43660820128,
			"0.007": 5.96701825822,
			"0.008": 4.22195914731,
			"0.009": 3.85699030865,
			"0.01": 3.20947488949,
			"0.011": 3.75569325335,
			"0.012": 5.40117807962,
			"0.013": 0.884635513948,
			"0.014": 0.685690255935,
			"0.015": 0.376980276432,
			"0.016": 0.0,
			"0.017": 0.0,
			"0.018": 0.0,
			"0.019": 0.0,
			"0.02": 0.0,
			"0.021": 0.0,
			"0.022": 0.0,
			"0.023": 0.0,
			"0.024": 0.0,
			"0.025": 0.0
		}
	}
}
