{
	 "smiles": "OC(=O)C=CC1=CCCC1", 
	 "Tm": 421.15, 
	 "num_atms": 20, 
	 "gaussian": { 
		 "optdone": 1, 
		 "sigma_profile": "yes", 
		 "theory": "DFT", 
		 "functional": "B3LYP", 
		 "basiset": "6-31G**", 
		 "properties": { 
			 "R2extent": 2237.2059, 
			 "electric_dipole_moment_norm": 2.51835510006, 
			 "electric_quadrupole_moment_norm": 8.65955455379, 
			 "total_energy": -461.319034603, 
			 "HOMO_LUMO_gap": 0.17125, 
			 "cosmo_polarized_energy": -9.01, 
			 "cosmo_cavitation_energy": 23.94, 
			 "cosmo_dispersion_energy": -17.61, 
			 "cosmo_repulsion_energy": 1.46, 
			 "cosmo_total_nonelectrostatic_energy": 7.79, 
			 "SMD_solvation_energy": 5.04 
		},
		"coords": [
			{
				"x": -3.1671162619,
				"y": 1.4846180348,
				"z": 2.035341307,
				"element": "O" 
			},
			{
				"x": -1.840362741,
				"y": 1.7126369718,
				"z": 1.8401737516,
				"element": "C" 
			},
			{
				"x": -1.2679332421,
				"y": 2.6643660879,
				"z": 2.339545761,
				"element": "O" 
			},
			{
				"x": -1.235735539,
				"y": 0.6858466402,
				"z": 0.9751955067,
				"element": "C" 
			},
			{
				"x": 0.0755980467,
				"y": 0.7434527791,
				"z": 0.6647681269,
				"element": "C" 
			},
			{
				"x": 0.7840330508,
				"y": -0.1989842927,
				"z": -0.1737778353,
				"element": "C" 
			},
			{
				"x": 2.0862558995,
				"y": -0.0914017131,
				"z": -0.5109281479,
				"element": "C" 
			},
			{
				"x": 2.5386521109,
				"y": -1.1892366308,
				"z": -1.4350280649,
				"element": "C" 
			},
			{
				"x": 1.3745628337,
				"y": -2.2127639049,
				"z": -1.3617781618,
				"element": "C" 
			},
			{
				"x": 0.1545178967,
				"y": -1.4125942515,
				"z": -0.837405702,
				"element": "C" 
			},
			{
				"x": -3.4749856548,
				"y": 2.2046102598,
				"z": 2.610163457,
				"element": "H" 
			},
			{
				"x": -1.8870564558,
				"y": -0.100178422,
				"z": 0.6079339547,
				"element": "H" 
			},
			{
				"x": 0.6484946122,
				"y": 1.57185692,
				"z": 1.0788562788,
				"element": "H" 
			},
			{
				"x": 2.7354329679,
				"y": 0.7176649378,
				"z": -0.1873375442,
				"element": "H" 
			},
			{
				"x": 2.6764659939,
				"y": -0.7954569009,
				"z": -2.4537235606,
				"element": "H" 
			},
			{
				"x": 3.5038817962,
				"y": -1.6212731152,
				"z": -1.1445468765,
				"element": "H" 
			},
			{
				"x": 1.6299750198,
				"y": -2.9983332017,
				"z": -0.6431930055,
				"element": "H" 
			},
			{
				"x": 1.1795577099,
				"y": -2.7014517005,
				"z": -2.3200560368,
				"element": "H" 
			},
			{
				"x": -0.4624283731,
				"y": -1.9981771188,
				"z": -0.1465909081,
				"element": "H" 
			},
			{
				"x": -0.5085096704,
				"y": -1.0936013792,
				"z": -1.6538123003,
				"element": "H" 
			}
		],
		 "valence_orbital": [ 
			{
				"type": "occ",
				"energy": -0.34296,
				"method": "rhf"
			},
			{
				"type": "occ",
				"energy": -0.31435,
				"method": "rhf"
			},
			{
				"type": "occ",
				"energy": -0.29898,
				"method": "rhf"
			},
			{
				"type": "occ",
				"energy": -0.26737,
				"method": "rhf"
			},
			{
				"type": "occ",
				"energy": -0.23088,
				"method": "rhf"
			},
			{
				"type": "unocc",
				"energy": -0.05963,
				"method": "rhf"
			},
			{
				"type": "unocc",
				"energy": 0.04316,
				"method": "rhf"
			},
			{
				"type": "unocc",
				"energy": 0.08867,
				"method": "rhf"
			},
			{
				"type": "unocc",
				"energy": 0.09058,
				"method": "rhf"
			},
			{
				"type": "unocc",
				"energy": 0.10486,
				"method": "rhf"
			}
		],
		"cosmo_sigma_profile": { 
			"-0.025": 0.0,
			"-0.024": 0.0,
			"-0.023": 0.0,
			"-0.022": 0.0,
			"-0.021": 0.0,
			"-0.02": 0.0,
			"-0.019": 0.0,
			"-0.018": 0.142252469635,
			"-0.017": 1.08033950176,
			"-0.016": 0.838236189345,
			"-0.015": 0.592150095404,
			"-0.014": 1.05881877757,
			"-0.013": 0.742101626725,
			"-0.012": 0.291453129274,
			"-0.011": 0.598538703752,
			"-0.01": 1.11250912203,
			"-0.009": 0.610456871019,
			"-0.008": 0.343293656817,
			"-0.007": 0.710846380537,
			"-0.006": 6.08415846882,
			"-0.005": 6.39309312342,
			"-0.004": 11.1184710934,
			"-0.003": 18.3346625309,
			"-0.002": 23.2585260884,
			"-0.001": 25.5881638382,
			"0.0": 19.0467658858,
			"0.001": 16.209673935,
			"0.002": 11.1584916761,
			"0.003": 10.8391720453,
			"0.004": 5.92037912733,
			"0.005": 2.77287514692,
			"0.006": 2.43923823887,
			"0.007": 2.65589653386,
			"0.008": 2.52912127011,
			"0.009": 3.24454461682,
			"0.01": 2.79610604837,
			"0.011": 2.36763804835,
			"0.012": 5.15877174719,
			"0.013": 2.58741462283,
			"0.014": 0.0,
			"0.015": 0.0,
			"0.016": 0.0,
			"0.017": 0.0,
			"0.018": 0.0,
			"0.019": 0.0,
			"0.02": 0.0,
			"0.021": 0.0,
			"0.022": 0.0,
			"0.023": 0.0,
			"0.024": 0.0,
			"0.025": 0.0
		}
	}
}
