{
	 "smiles": "CN(C)C1=CC=C(C=C1)C(O)C1C(=O)N(N=C1C(F)(F)F)C1=CC=CC=C1", 
	 "Tm": 444.15, 
	 "num_atms": 45, 
	 "gaussian": { 
		 "optdone": 1, 
		 "sigma_profile": "yes", 
		 "theory": "DFT", 
		 "functional": "B3LYP", 
		 "basiset": "6-31G**", 
		 "properties": { 
			 "R2extent": 10450.2092, 
			 "electric_dipole_moment_norm": 4.29164479541, 
			 "electric_quadrupole_moment_norm": 12.3757223082, 
			 "total_energy": -1349.0584133, 
			 "HOMO_LUMO_gap": 0.13861, 
			 "cosmo_polarized_energy": -15.05, 
			 "cosmo_cavitation_energy": 48.87, 
			 "cosmo_dispersion_energy": -32.85, 
			 "cosmo_repulsion_energy": 2.44, 
			 "cosmo_total_nonelectrostatic_energy": 18.46, 
			 "SMD_solvation_energy": 8.55 
		},
		"coords": [
			{
				"x": -5.1579444994,
				"y": 1.652163086,
				"z": -0.4881350985,
				"element": "C" 
			},
			{
				"x": -4.4245352998,
				"y": 1.2361477302,
				"z": 0.6957570836,
				"element": "N" 
			},
			{
				"x": -5.0012019004,
				"y": 0.1993942797,
				"z": 1.5350533178,
				"element": "C" 
			},
			{
				"x": -3.0676925055,
				"y": 1.5117105589,
				"z": 0.7884912087,
				"element": "C" 
			},
			{
				"x": -2.2721514296,
				"y": 0.9605386338,
				"z": 1.8201029086,
				"element": "C" 
			},
			{
				"x": -0.9204098715,
				"y": 1.2693053532,
				"z": 1.9249896666,
				"element": "C" 
			},
			{
				"x": -0.2888821872,
				"y": 2.1196002087,
				"z": 1.0093565721,
				"element": "C" 
			},
			{
				"x": -1.0694398731,
				"y": 2.6601245865,
				"z": -0.0224037829,
				"element": "C" 
			},
			{
				"x": -2.4233755079,
				"y": 2.3659498107,
				"z": -0.1368140377,
				"element": "C" 
			},
			{
				"x": 1.1869894624,
				"y": 2.4492935483,
				"z": 1.1342992799,
				"element": "C" 
			},
			{
				"x": 1.4985776875,
				"y": 3.7682856595,
				"z": 0.7099569186,
				"element": "O" 
			},
			{
				"x": 2.132681751,
				"y": 1.5318754118,
				"z": 0.2941769117,
				"element": "C" 
			},
			{
				"x": 1.6786269203,
				"y": 1.307779322,
				"z": -1.1538240014,
				"element": "C" 
			},
			{
				"x": 1.4591357057,
				"y": 2.1355060442,
				"z": -2.0134801361,
				"element": "O" 
			},
			{
				"x": 1.5657491118,
				"y": -0.0891140727,
				"z": -1.2881000349,
				"element": "N" 
			},
			{
				"x": 1.9384837587,
				"y": -0.7552864672,
				"z": -0.1395764611,
				"element": "N" 
			},
			{
				"x": 2.250848864,
				"y": 0.1122128634,
				"z": 0.755629633,
				"element": "C" 
			},
			{
				"x": 2.7800441147,
				"y": -0.3391062836,
				"z": 2.0842419976,
				"element": "C" 
			},
			{
				"x": 3.9982305584,
				"y": 0.2064762185,
				"z": 2.3042980469,
				"element": "F" 
			},
			{
				"x": 2.8889846691,
				"y": -1.6681603783,
				"z": 2.1699895756,
				"element": "F" 
			},
			{
				"x": 1.9840512248,
				"y": 0.0771817792,
				"z": 3.105466125,
				"element": "F" 
			},
			{
				"x": 1.1586913241,
				"y": -0.8522403312,
				"z": -2.4189803436,
				"element": "C" 
			},
			{
				"x": 1.1236651577,
				"y": -2.2510022673,
				"z": -2.3220125233,
				"element": "C" 
			},
			{
				"x": 0.7267244465,
				"y": -3.0081027287,
				"z": -3.421628235,
				"element": "C" 
			},
			{
				"x": 0.3625491921,
				"y": -2.3902282183,
				"z": -4.6193323161,
				"element": "C" 
			},
			{
				"x": 0.4000417515,
				"y": -0.9986731184,
				"z": -4.7051761615,
				"element": "C" 
			},
			{
				"x": 0.7947002285,
				"y": -0.2200493474,
				"z": -3.6170109532,
				"element": "C" 
			},
			{
				"x": -4.7747645793,
				"y": 1.1938039323,
				"z": -1.4129891478,
				"element": "H" 
			},
			{
				"x": -6.2059008637,
				"y": 1.3697271967,
				"z": -0.3766673853,
				"element": "H" 
			},
			{
				"x": -5.1228731935,
				"y": 2.7406701275,
				"z": -0.6115113448,
				"element": "H" 
			},
			{
				"x": -4.5585653488,
				"y": -0.7928697386,
				"z": 1.3560669655,
				"element": "H" 
			},
			{
				"x": -4.8769996077,
				"y": 0.4373498165,
				"z": 2.5978005726,
				"element": "H" 
			},
			{
				"x": -6.0723619803,
				"y": 0.1347631507,
				"z": 1.3380494812,
				"element": "H" 
			},
			{
				"x": -2.7083681356,
				"y": 0.2917093195,
				"z": 2.5515268765,
				"element": "H" 
			},
			{
				"x": -0.3450872408,
				"y": 0.8285227861,
				"z": 2.7341767236,
				"element": "H" 
			},
			{
				"x": -0.6026278631,
				"y": 3.3091129169,
				"z": -0.7563634917,
				"element": "H" 
			},
			{
				"x": -2.9788354685,
				"y": 2.8035903404,
				"z": -0.956944788,
				"element": "H" 
			},
			{
				"x": 1.4874607826,
				"y": 2.3074998516,
				"z": 2.1825087126,
				"element": "H" 
			},
			{
				"x": 0.7945157298,
				"y": 4.3463667446,
				"z": 1.0325419006,
				"element": "H" 
			},
			{
				"x": 3.1113055602,
				"y": 2.0281736944,
				"z": 0.2921433851,
				"element": "H" 
			},
			{
				"x": 1.4059963338,
				"y": -2.7292922236,
				"z": -1.3931809797,
				"element": "H" 
			},
			{
				"x": 0.7037044319,
				"y": -4.0907640846,
				"z": -3.3364104022,
				"element": "H" 
			},
			{
				"x": 0.0546258806,
				"y": -2.9858994903,
				"z": -5.473346782,
				"element": "H" 
			},
			{
				"x": 0.1205386826,
				"y": -0.5023649178,
				"z": -5.6301307183,
				"element": "H" 
			},
			{
				"x": 0.8240940254,
				"y": 0.8577186961,
				"z": -3.6876047382,
				"element": "H" 
			}
		],
		 "valence_orbital": [ 
			{
				"type": "occ",
				"energy": -0.25862,
				"method": "rhf"
			},
			{
				"type": "occ",
				"energy": -0.24968,
				"method": "rhf"
			},
			{
				"type": "occ",
				"energy": -0.24851,
				"method": "rhf"
			},
			{
				"type": "occ",
				"energy": -0.22046,
				"method": "rhf"
			},
			{
				"type": "occ",
				"energy": -0.19359,
				"method": "rhf"
			},
			{
				"type": "unocc",
				"energy": -0.05498,
				"method": "rhf"
			},
			{
				"type": "unocc",
				"energy": -0.01832,
				"method": "rhf"
			},
			{
				"type": "unocc",
				"energy": -0.00034,
				"method": "rhf"
			},
			{
				"type": "unocc",
				"energy": 0.00105,
				"method": "rhf"
			},
			{
				"type": "unocc",
				"energy": 0.00753,
				"method": "rhf"
			}
		],
		"cosmo_sigma_profile": { 
			"-0.025": 0.0,
			"-0.024": 0.0,
			"-0.023": 0.0,
			"-0.022": 0.0,
			"-0.021": 0.0,
			"-0.02": 0.0,
			"-0.019": 0.0,
			"-0.018": 0.0,
			"-0.017": 0.0,
			"-0.016": 0.128300023435,
			"-0.015": 0.899186190344,
			"-0.014": 0.582065684838,
			"-0.013": 0.98552887718,
			"-0.012": 0.6050923146,
			"-0.011": 0.693255228969,
			"-0.01": 1.37799993437,
			"-0.009": 3.31144647397,
			"-0.008": 3.17515302375,
			"-0.007": 5.75230996733,
			"-0.006": 12.3114252997,
			"-0.005": 22.8280017221,
			"-0.004": 33.1310978457,
			"-0.003": 35.1845804236,
			"-0.002": 33.926726107,
			"-0.001": 33.0985964068,
			"0.0": 25.5249009838,
			"0.001": 30.3197332639,
			"0.002": 42.4354244353,
			"0.003": 22.7055672075,
			"0.004": 21.2948925875,
			"0.005": 22.8584728063,
			"0.006": 13.2481312659,
			"0.007": 5.11966209274,
			"0.008": 3.06688257376,
			"0.009": 2.91740478931,
			"0.01": 2.97728718978,
			"0.011": 3.28241181657,
			"0.012": 3.18386968894,
			"0.013": 2.08802055738,
			"0.014": 0.478644417643,
			"0.015": 0.0,
			"0.016": 0.0,
			"0.017": 0.0,
			"0.018": 0.0,
			"0.019": 0.0,
			"0.02": 0.0,
			"0.021": 0.0,
			"0.022": 0.0,
			"0.023": 0.0,
			"0.024": 0.0,
			"0.025": 0.0
		}
	}
}
