{
	 "smiles": "CCCOCC", 
	 "Tm": 146.15, 
	 "num_atms": 18, 
	 "gaussian": { 
		 "optdone": 1, 
		 "sigma_profile": "yes", 
		 "theory": "DFT", 
		 "functional": "B3LYP", 
		 "basiset": "6-31G**", 
		 "properties": { 
			 "R2extent": 1097.7328, 
			 "electric_dipole_moment_norm": 1.16408775442, 
			 "electric_quadrupole_moment_norm": 3.24600048829, 
			 "total_energy": -272.98647472, 
			 "HOMO_LUMO_gap": 0.33778, 
			 "cosmo_polarized_energy": -3.45, 
			 "cosmo_cavitation_energy": 19.99, 
			 "cosmo_dispersion_energy": -14.85, 
			 "cosmo_repulsion_energy": 1.32, 
			 "cosmo_total_nonelectrostatic_energy": 6.45, 
			 "SMD_solvation_energy": 3.71 
		},
		"coords": [
			{
				"x": 2.1243851713,
				"y": -0.0284632655,
				"z": -2.048521794,
				"element": "C" 
			},
			{
				"x": 1.1222099241,
				"y": -0.0804240478,
				"z": -0.8906096422,
				"element": "C" 
			},
			{
				"x": 0.1370811884,
				"y": -1.2452556551,
				"z": -1.0339370996,
				"element": "C" 
			},
			{
				"x": -0.7505935348,
				"y": -1.3889153916,
				"z": 0.063092935,
				"element": "O" 
			},
			{
				"x": -1.8353658684,
				"y": -0.474872064,
				"z": 0.0746374086,
				"element": "C" 
			},
			{
				"x": -2.7571577472,
				"y": -0.8493309579,
				"z": 1.2244813194,
				"element": "C" 
			},
			{
				"x": 1.6168051456,
				"y": 0.1043807865,
				"z": -3.0109359389,
				"element": "H" 
			},
			{
				"x": 2.8272828602,
				"y": 0.8015519257,
				"z": -1.9285934751,
				"element": "H" 
			},
			{
				"x": 2.7103538901,
				"y": -0.9527664948,
				"z": -2.1096578231,
				"element": "H" 
			},
			{
				"x": 1.6494436653,
				"y": -0.1911862947,
				"z": 0.0645484024,
				"element": "H" 
			},
			{
				"x": 0.573853725,
				"y": 0.8680534056,
				"z": -0.8380339104,
				"element": "H" 
			},
			{
				"x": -0.4306319501,
				"y": -1.1452193133,
				"z": -1.9755133449,
				"element": "H" 
			},
			{
				"x": 0.6938706955,
				"y": -2.1884334475,
				"z": -1.089613323,
				"element": "H" 
			},
			{
				"x": -2.3775413773,
				"y": -0.5206311102,
				"z": -0.885681162,
				"element": "H" 
			},
			{
				"x": -1.4824509814,
				"y": 0.561571574,
				"z": 0.1959755988,
				"element": "H" 
			},
			{
				"x": -3.1293089637,
				"y": -1.8703880748,
				"z": 1.0999839435,
				"element": "H" 
			},
			{
				"x": -3.6127993865,
				"y": -0.1679061514,
				"z": 1.2679990534,
				"element": "H" 
			},
			{
				"x": -2.2218364558,
				"y": -0.795265423,
				"z": 2.1769788522,
				"element": "H" 
			}
		],
		 "valence_orbital": [ 
			{
				"type": "occ",
				"energy": -0.3533,
				"method": "rhf"
			},
			{
				"type": "occ",
				"energy": -0.34635,
				"method": "rhf"
			},
			{
				"type": "occ",
				"energy": -0.32981,
				"method": "rhf"
			},
			{
				"type": "occ",
				"energy": -0.30064,
				"method": "rhf"
			},
			{
				"type": "occ",
				"energy": -0.24456,
				"method": "rhf"
			},
			{
				"type": "unocc",
				"energy": 0.09322,
				"method": "rhf"
			},
			{
				"type": "unocc",
				"energy": 0.10247,
				"method": "rhf"
			},
			{
				"type": "unocc",
				"energy": 0.12295,
				"method": "rhf"
			},
			{
				"type": "unocc",
				"energy": 0.13135,
				"method": "rhf"
			},
			{
				"type": "unocc",
				"energy": 0.14236,
				"method": "rhf"
			}
		],
		"cosmo_sigma_profile": { 
			"-0.025": 0.0,
			"-0.024": 0.0,
			"-0.023": 0.0,
			"-0.022": 0.0,
			"-0.021": 0.0,
			"-0.02": 0.0,
			"-0.019": 0.0,
			"-0.018": 0.0,
			"-0.017": 0.0,
			"-0.016": 0.0,
			"-0.015": 0.0,
			"-0.014": 0.0,
			"-0.013": 0.0,
			"-0.012": 0.0,
			"-0.011": 0.0,
			"-0.01": 0.0,
			"-0.009": 0.0,
			"-0.008": 0.0,
			"-0.007": 0.0,
			"-0.006": 0.0,
			"-0.005": 0.0,
			"-0.004": 2.95790280044,
			"-0.003": 23.6649951885,
			"-0.002": 32.5830680359,
			"-0.001": 27.3161596422,
			"0.0": 22.2262565358,
			"0.001": 20.9552179246,
			"0.002": 6.58051755851,
			"0.003": 2.71267610491,
			"0.004": 1.35446216618,
			"0.005": 1.70027601922,
			"0.006": 1.43642777332,
			"0.007": 1.32520881442,
			"0.008": 1.83771321386,
			"0.009": 1.10211988351,
			"0.01": 1.23407102787,
			"0.011": 1.58453771099,
			"0.012": 1.12707683459,
			"0.013": 1.21446182612,
			"0.014": 1.19595469639,
			"0.015": 0.0221824415768,
			"0.016": 0.0,
			"0.017": 0.0,
			"0.018": 0.0,
			"0.019": 0.0,
			"0.02": 0.0,
			"0.021": 0.0,
			"0.022": 0.0,
			"0.023": 0.0,
			"0.024": 0.0,
			"0.025": 0.0
		}
	}
}
