{
	 "smiles": "CCOC(=O)C1=C(C)NC(=O)NC1C", 
	 "Tm": 463.15, 
	 "num_atms": 28, 
	 "gaussian": { 
		 "optdone": 1, 
		 "sigma_profile": "yes", 
		 "theory": "DFT", 
		 "functional": "B3LYP", 
		 "basiset": "6-31G**", 
		 "properties": { 
			 "R2extent": 3705.5296, 
			 "electric_dipole_moment_norm": 3.46310397765, 
			 "electric_quadrupole_moment_norm": 12.5585923805, 
			 "total_energy": -686.615653563, 
			 "HOMO_LUMO_gap": 0.18783, 
			 "cosmo_polarized_energy": -15.82, 
			 "cosmo_cavitation_energy": 31.02, 
			 "cosmo_dispersion_energy": -22.03, 
			 "cosmo_repulsion_energy": 1.76, 
			 "cosmo_total_nonelectrostatic_energy": 10.76, 
			 "SMD_solvation_energy": 6.6 
		},
		"coords": [
			{
				"x": -0.845946256,
				"y": 0.7406850255,
				"z": 3.442833947,
				"element": "C" 
			},
			{
				"x": -0.3919230897,
				"y": 1.4670586945,
				"z": 2.190438113,
				"element": "C" 
			},
			{
				"x": -0.0786388239,
				"y": 0.4672464722,
				"z": 1.1957517662,
				"element": "O" 
			},
			{
				"x": 0.3429092439,
				"y": 0.9511077928,
				"z": -0.0031053159,
				"element": "C" 
			},
			{
				"x": 0.4355966256,
				"y": 2.1513084277,
				"z": -0.2188323175,
				"element": "O" 
			},
			{
				"x": 0.6558310753,
				"y": -0.0672836297,
				"z": -1.0114713649,
				"element": "C" 
			},
			{
				"x": 0.6680515615,
				"y": -1.417925477,
				"z": -0.8277787315,
				"element": "C" 
			},
			{
				"x": 0.4094442149,
				"y": -2.1775260514,
				"z": 0.4482357531,
				"element": "C" 
			},
			{
				"x": 0.9337519857,
				"y": -2.2309873861,
				"z": -1.9182109259,
				"element": "N" 
			},
			{
				"x": 0.8680717908,
				"y": -1.8250831527,
				"z": -3.2615930196,
				"element": "C" 
			},
			{
				"x": 0.8983765183,
				"y": -2.6440352408,
				"z": -4.1684645819,
				"element": "O" 
			},
			{
				"x": 0.7205361771,
				"y": -0.4786694547,
				"z": -3.4127511712,
				"element": "N" 
			},
			{
				"x": 1.0489922533,
				"y": 0.5004181107,
				"z": -2.3681059592,
				"element": "C" 
			},
			{
				"x": 2.5288834785,
				"y": 0.9223226704,
				"z": -2.4145799525,
				"element": "C" 
			},
			{
				"x": -1.7289859093,
				"y": 0.1269485129,
				"z": 3.2420707429,
				"element": "H" 
			},
			{
				"x": -0.0553599999,
				"y": 0.0914530772,
				"z": 3.8310048562,
				"element": "H" 
			},
			{
				"x": -1.1030459036,
				"y": 1.4673807709,
				"z": 4.2198026705,
				"element": "H" 
			},
			{
				"x": -1.1697399696,
				"y": 2.1278846828,
				"z": 1.7954569224,
				"element": "H" 
			},
			{
				"x": 0.4957574691,
				"y": 2.0815717201,
				"z": 2.370949704,
				"element": "H" 
			},
			{
				"x": 0.8444210541,
				"y": -1.6721922145,
				"z": 1.3076802992,
				"element": "H" 
			},
			{
				"x": -0.6662888547,
				"y": -2.2639000225,
				"z": 0.6339432902,
				"element": "H" 
			},
			{
				"x": 0.8249817822,
				"y": -3.18747936,
				"z": 0.3772847822,
				"element": "H" 
			},
			{
				"x": 0.9292837962,
				"y": -3.2344095758,
				"z": -1.8066215962,
				"element": "H" 
			},
			{
				"x": 0.7578743801,
				"y": -0.176911371,
				"z": -4.3764546665,
				"element": "H" 
			},
			{
				"x": 0.4363780034,
				"y": 1.387824072,
				"z": -2.5495752864,
				"element": "H" 
			},
			{
				"x": 2.783610789,
				"y": 1.334328883,
				"z": -3.3977911446,
				"element": "H" 
			},
			{
				"x": 2.7154501039,
				"y": 1.6923739562,
				"z": -1.6617251499,
				"element": "H" 
			},
			{
				"x": 3.1836265039,
				"y": 0.0668900674,
				"z": -2.2195916632,
				"element": "H" 
			}
		],
		 "valence_orbital": [ 
			{
				"type": "occ",
				"energy": -0.29544,
				"method": "rhf"
			},
			{
				"type": "occ",
				"energy": -0.27013,
				"method": "rhf"
			},
			{
				"type": "occ",
				"energy": -0.26525,
				"method": "rhf"
			},
			{
				"type": "occ",
				"energy": -0.25126,
				"method": "rhf"
			},
			{
				"type": "occ",
				"energy": -0.22374,
				"method": "rhf"
			},
			{
				"type": "unocc",
				"energy": -0.03591,
				"method": "rhf"
			},
			{
				"type": "unocc",
				"energy": 0.05783,
				"method": "rhf"
			},
			{
				"type": "unocc",
				"energy": 0.07037,
				"method": "rhf"
			},
			{
				"type": "unocc",
				"energy": 0.08743,
				"method": "rhf"
			},
			{
				"type": "unocc",
				"energy": 0.09342,
				"method": "rhf"
			}
		],
		"cosmo_sigma_profile": { 
			"-0.025": 0.0,
			"-0.024": 0.0,
			"-0.023": 0.0,
			"-0.022": 0.0,
			"-0.021": 0.0,
			"-0.02": 0.0,
			"-0.019": 0.0,
			"-0.018": 0.0,
			"-0.017": 0.0,
			"-0.016": 0.0589883145262,
			"-0.015": 0.822387908323,
			"-0.014": 1.60523380867,
			"-0.013": 2.09794893377,
			"-0.012": 2.31095702573,
			"-0.011": 2.50562412805,
			"-0.01": 1.71325876317,
			"-0.009": 1.8926841136,
			"-0.008": 2.62597659304,
			"-0.007": 2.83700726083,
			"-0.006": 3.72917065497,
			"-0.005": 9.66996564877,
			"-0.004": 20.3351482392,
			"-0.003": 25.1825533012,
			"-0.002": 25.9699807698,
			"-0.001": 28.2838998516,
			"0.0": 26.607591754,
			"0.001": 19.052210997,
			"0.002": 11.7330902611,
			"0.003": 7.27215954125,
			"0.004": 5.84847499232,
			"0.005": 5.36407218727,
			"0.006": 3.43301112268,
			"0.007": 2.4018687278,
			"0.008": 2.73577909242,
			"0.009": 2.30719355758,
			"0.01": 3.16534880328,
			"0.011": 2.93108509706,
			"0.012": 4.17796034142,
			"0.013": 8.22996596183,
			"0.014": 5.7093990309,
			"0.015": 0.441900973898,
			"0.016": 0.0,
			"0.017": 0.0,
			"0.018": 0.0,
			"0.019": 0.0,
			"0.02": 0.0,
			"0.021": 0.0,
			"0.022": 0.0,
			"0.023": 0.0,
			"0.024": 0.0,
			"0.025": 0.0
		}
	}
}
