{
	 "smiles": "NS(=O)(=O)CC1=C2N=CC=CC2=CC=C1", 
	 "Tm": 428.15, 
	 "num_atms": 25, 
	 "gaussian": { 
		 "optdone": 1, 
		 "sigma_profile": "yes", 
		 "theory": "DFT", 
		 "functional": "B3LYP", 
		 "basiset": "6-31G**", 
		 "properties": { 
			 "R2extent": 3677.5614, 
			 "electric_dipole_moment_norm": 5.27895268969, 
			 "electric_quadrupole_moment_norm": 12.1337217489, 
			 "total_energy": -1045.17561682, 
			 "HOMO_LUMO_gap": 0.17376, 
			 "cosmo_polarized_energy": -17.78, 
			 "cosmo_cavitation_energy": 30.21, 
			 "cosmo_dispersion_energy": -22.36, 
			 "cosmo_repulsion_energy": 1.7, 
			 "cosmo_total_nonelectrostatic_energy": 9.56, 
			 "SMD_solvation_energy": 3.57 
		},
		"coords": [
			{
				"x": -2.3952246312,
				"y": -0.1338204999,
				"z": 0.9669122994,
				"element": "N" 
			},
			{
				"x": -2.8970185751,
				"y": -0.0307746319,
				"z": -0.6463717075,
				"element": "S" 
			},
			{
				"x": -3.2403063746,
				"y": 1.375744701,
				"z": -0.8912892355,
				"element": "O" 
			},
			{
				"x": -3.8573971069,
				"y": -1.107250401,
				"z": -0.9131411086,
				"element": "O" 
			},
			{
				"x": -1.3836844883,
				"y": -0.4374889194,
				"z": -1.5749765186,
				"element": "C" 
			},
			{
				"x": -0.2087372762,
				"y": 0.4478175096,
				"z": -1.2738718212,
				"element": "C" 
			},
			{
				"x": 0.9158003495,
				"y": -0.0954794602,
				"z": -0.5727483781,
				"element": "C" 
			},
			{
				"x": 0.8936399162,
				"y": -1.4103154493,
				"z": -0.2105209461,
				"element": "N" 
			},
			{
				"x": 1.9339568753,
				"y": -1.900337963,
				"z": 0.4325309988,
				"element": "C" 
			},
			{
				"x": 3.0836230837,
				"y": -1.1461842265,
				"z": 0.7739764444,
				"element": "C" 
			},
			{
				"x": 3.1296048083,
				"y": 0.1783967131,
				"z": 0.4104444061,
				"element": "C" 
			},
			{
				"x": 2.0342190473,
				"y": 0.7520615164,
				"z": -0.2848672425,
				"element": "C" 
			},
			{
				"x": 2.0101910816,
				"y": 2.1094752515,
				"z": -0.6964402887,
				"element": "C" 
			},
			{
				"x": 0.9203227647,
				"y": 2.6074950337,
				"z": -1.3727067524,
				"element": "C" 
			},
			{
				"x": -0.1857296837,
				"y": 1.774817506,
				"z": -1.6612763036,
				"element": "C" 
			},
			{
				"x": -2.8155010712,
				"y": -0.947372319,
				"z": 1.4076749226,
				"element": "H" 
			},
			{
				"x": -2.6490418946,
				"y": 0.7250972721,
				"z": 1.4468145334,
				"element": "H" 
			},
			{
				"x": -1.7095640781,
				"y": -0.3615595629,
				"z": -2.6168026713,
				"element": "H" 
			},
			{
				"x": -1.1577173847,
				"y": -1.4773393179,
				"z": -1.3371312868,
				"element": "H" 
			},
			{
				"x": 1.8818769722,
				"y": -2.9542268086,
				"z": 0.7040793896,
				"element": "H" 
			},
			{
				"x": 3.903294036,
				"y": -1.6181682936,
				"z": 1.3060670731,
				"element": "H" 
			},
			{
				"x": 3.9925786952,
				"y": 0.7965469578,
				"z": 0.6451621603,
				"element": "H" 
			},
			{
				"x": 2.8636973544,
				"y": 2.7439013212,
				"z": -0.4715833698,
				"element": "H" 
			},
			{
				"x": 0.900647161,
				"y": 3.6457219126,
				"z": -1.6898710042,
				"element": "H" 
			},
			{
				"x": -1.0449295807,
				"y": 2.1896421585,
				"z": -2.178463593,
				"element": "H" 
			}
		],
		 "valence_orbital": [ 
			{
				"type": "occ",
				"energy": -0.29517,
				"method": "rhf"
			},
			{
				"type": "occ",
				"energy": -0.28453,
				"method": "rhf"
			},
			{
				"type": "occ",
				"energy": -0.26242,
				"method": "rhf"
			},
			{
				"type": "occ",
				"energy": -0.25869,
				"method": "rhf"
			},
			{
				"type": "occ",
				"energy": -0.23673,
				"method": "rhf"
			},
			{
				"type": "unocc",
				"energy": -0.06297,
				"method": "rhf"
			},
			{
				"type": "unocc",
				"energy": -0.02371,
				"method": "rhf"
			},
			{
				"type": "unocc",
				"energy": 0.00339,
				"method": "rhf"
			},
			{
				"type": "unocc",
				"energy": 0.06123,
				"method": "rhf"
			},
			{
				"type": "unocc",
				"energy": 0.07515,
				"method": "rhf"
			}
		],
		"cosmo_sigma_profile": { 
			"-0.025": 0.0,
			"-0.024": 0.0,
			"-0.023": 0.0,
			"-0.022": 0.0,
			"-0.021": 0.0,
			"-0.02": 0.0,
			"-0.019": 0.0,
			"-0.018": 0.0,
			"-0.017": 0.0,
			"-0.016": 0.0,
			"-0.015": 0.836129820016,
			"-0.014": 2.73466307163,
			"-0.013": 2.2925270842,
			"-0.012": 2.50735927028,
			"-0.011": 1.99893204449,
			"-0.01": 1.8606222986,
			"-0.009": 3.2815984688,
			"-0.008": 4.00543843414,
			"-0.007": 11.6454598779,
			"-0.006": 16.7024800609,
			"-0.005": 17.8630693494,
			"-0.004": 14.5868107232,
			"-0.003": 11.9447819682,
			"-0.002": 10.6562168199,
			"-0.001": 10.3092840608,
			"0.0": 11.7159317239,
			"0.001": 17.6177897981,
			"0.002": 21.3703793107,
			"0.003": 16.6891140773,
			"0.004": 9.25288267923,
			"0.005": 5.28391892685,
			"0.006": 3.53911907178,
			"0.007": 5.85286350782,
			"0.008": 4.8035501279,
			"0.009": 6.24834129068,
			"0.01": 8.5499197168,
			"0.011": 10.614222285,
			"0.012": 6.55744650002,
			"0.013": 0.125227465265,
			"0.014": 0.0,
			"0.015": 0.0,
			"0.016": 0.0,
			"0.017": 0.0,
			"0.018": 0.0,
			"0.019": 0.0,
			"0.02": 0.0,
			"0.021": 0.0,
			"0.022": 0.0,
			"0.023": 0.0,
			"0.024": 0.0,
			"0.025": 0.0
		}
	}
}
