{
	 "smiles": "CC(=O)OCC1OC(C(OC(C)=O)C1OC(C)=O)N1N=CC(=O)NC1=O", 
	 "Tm": 373.15, 
	 "num_atms": 43, 
	 "gaussian": { 
		 "optdone": 1, 
		 "sigma_profile": "yes", 
		 "theory": "DFT", 
		 "functional": "B3LYP", 
		 "basiset": "6-31G**", 
		 "properties": { 
			 "R2extent": 9898.1404, 
			 "electric_dipole_moment_norm": 3.74141074195, 
			 "electric_quadrupole_moment_norm": 13.952424561, 
			 "total_energy": -1385.02656301, 
			 "HOMO_LUMO_gap": 0.1903, 
			 "cosmo_polarized_energy": -27.35, 
			 "cosmo_cavitation_energy": 49.24, 
			 "cosmo_dispersion_energy": -31.27, 
			 "cosmo_repulsion_energy": 2.44, 
			 "cosmo_total_nonelectrostatic_energy": 20.41, 
			 "SMD_solvation_energy": 12.61 
		},
		"coords": [
			{
				"x": -4.3057890583,
				"y": 0.3582345792,
				"z": 0.0154276156,
				"element": "C" 
			},
			{
				"x": -3.3386231435,
				"y": 1.0981669442,
				"z": -0.8758947115,
				"element": "C" 
			},
			{
				"x": -3.3430243294,
				"y": 2.2890730399,
				"z": -1.0801441441,
				"element": "O" 
			},
			{
				"x": -2.4543843064,
				"y": 0.2260388558,
				"z": -1.4381876079,
				"element": "O" 
			},
			{
				"x": -1.3980568116,
				"y": 0.7887158468,
				"z": -2.2311089723,
				"element": "C" 
			},
			{
				"x": -0.0525080394,
				"y": 0.6790372281,
				"z": -1.5239749575,
				"element": "C" 
			},
			{
				"x": -0.1477353956,
				"y": 1.2982295642,
				"z": -0.2306411419,
				"element": "O" 
			},
			{
				"x": 0.7769404638,
				"y": 0.7138902501,
				"z": 0.6652424016,
				"element": "C" 
			},
			{
				"x": 1.5177202789,
				"y": -0.3767517094,
				"z": -0.1260496223,
				"element": "C" 
			},
			{
				"x": 1.8349394012,
				"y": -1.4495183491,
				"z": 0.7574069827,
				"element": "O" 
			},
			{
				"x": 2.7301279178,
				"y": -2.3624339028,
				"z": 0.2874371792,
				"element": "C" 
			},
			{
				"x": 2.9942272893,
				"y": -3.4282611354,
				"z": 1.3197437669,
				"element": "C" 
			},
			{
				"x": 3.2262077687,
				"y": -2.2946565717,
				"z": -0.8139168457,
				"element": "O" 
			},
			{
				"x": 0.5433863948,
				"y": -0.7140104961,
				"z": -1.2629049589,
				"element": "C" 
			},
			{
				"x": -0.4082790427,
				"y": -1.6570351875,
				"z": -0.7497874771,
				"element": "O" 
			},
			{
				"x": -1.0538969438,
				"y": -2.4279924094,
				"z": -1.6661394438,
				"element": "C" 
			},
			{
				"x": -2.033638436,
				"y": -3.3498571092,
				"z": -0.9881139553,
				"element": "C" 
			},
			{
				"x": -0.8615283298,
				"y": -2.3528689359,
				"z": -2.8590566564,
				"element": "O" 
			},
			{
				"x": 1.6817175729,
				"y": 1.7391072699,
				"z": 1.1963383964,
				"element": "N" 
			},
			{
				"x": 2.4781436284,
				"y": 2.3392210748,
				"z": 0.2814495216,
				"element": "N" 
			},
			{
				"x": 3.2182145454,
				"y": 3.3329083258,
				"z": 0.6371267718,
				"element": "C" 
			},
			{
				"x": 3.2486307448,
				"y": 3.8912739447,
				"z": 2.0009129856,
				"element": "C" 
			},
			{
				"x": 3.9390996309,
				"y": 4.8244868461,
				"z": 2.3647714442,
				"element": "O" 
			},
			{
				"x": 2.3760650655,
				"y": 3.2169687436,
				"z": 2.8576462435,
				"element": "N" 
			},
			{
				"x": 1.544538914,
				"y": 2.1537297077,
				"z": 2.5312572133,
				"element": "C" 
			},
			{
				"x": 0.7907142105,
				"y": 1.6299333881,
				"z": 3.3278850818,
				"element": "O" 
			},
			{
				"x": -3.7617828008,
				"y": -0.1076778595,
				"z": 0.8426736649,
				"element": "H" 
			},
			{
				"x": -5.0441079462,
				"y": 1.0569963124,
				"z": 0.4070248739,
				"element": "H" 
			},
			{
				"x": -4.804486722,
				"y": -0.4380762213,
				"z": -0.5448975804,
				"element": "H" 
			},
			{
				"x": -1.3619728348,
				"y": 0.2302233602,
				"z": -3.1690717023,
				"element": "H" 
			},
			{
				"x": -1.6236380121,
				"y": 1.8394559024,
				"z": -2.4221121816,
				"element": "H" 
			},
			{
				"x": 0.6746445773,
				"y": 1.2275374405,
				"z": -2.1448938022,
				"element": "H" 
			},
			{
				"x": 0.2606456999,
				"y": 0.3016677296,
				"z": 1.5331412892,
				"element": "H" 
			},
			{
				"x": 2.4334505528,
				"y": 0.0250808015,
				"z": -0.5665122653,
				"element": "H" 
			},
			{
				"x": 3.3801347543,
				"y": -2.974875967,
				"z": 2.2374122067,
				"element": "H" 
			},
			{
				"x": 2.0607519901,
				"y": -3.9374254678,
				"z": 1.5765902371,
				"element": "H" 
			},
			{
				"x": 3.7138591182,
				"y": -4.1442455803,
				"z": 0.9248092873,
				"element": "H" 
			},
			{
				"x": 1.03360511,
				"y": -1.1316499348,
				"z": -2.142134974,
				"element": "H" 
			},
			{
				"x": -1.5900802852,
				"y": -3.8095246324,
				"z": -0.101939883,
				"element": "H" 
			},
			{
				"x": -2.3638860073,
				"y": -4.1120069547,
				"z": -1.6933408956,
				"element": "H" 
			},
			{
				"x": -2.8957462727,
				"y": -2.7598385067,
				"z": -0.6614655773,
				"element": "H" 
			},
			{
				"x": 3.8534585738,
				"y": 3.7859820885,
				"z": -0.116170942,
				"element": "H" 
			},
			{
				"x": 2.3147405145,
				"y": 3.541847687,
				"z": 3.816263135,
				"element": "H" 
			}
		],
		 "valence_orbital": [ 
			{
				"type": "occ",
				"energy": -0.28567,
				"method": "rhf"
			},
			{
				"type": "occ",
				"energy": -0.28401,
				"method": "rhf"
			},
			{
				"type": "occ",
				"energy": -0.28215,
				"method": "rhf"
			},
			{
				"type": "occ",
				"energy": -0.27553,
				"method": "rhf"
			},
			{
				"type": "occ",
				"energy": -0.27008,
				"method": "rhf"
			},
			{
				"type": "unocc",
				"energy": -0.07978,
				"method": "rhf"
			},
			{
				"type": "unocc",
				"energy": -0.01019,
				"method": "rhf"
			},
			{
				"type": "unocc",
				"energy": -0.00581,
				"method": "rhf"
			},
			{
				"type": "unocc",
				"energy": -0.00034,
				"method": "rhf"
			},
			{
				"type": "unocc",
				"energy": 0.0105,
				"method": "rhf"
			}
		],
		"cosmo_sigma_profile": { 
			"-0.025": 0.0,
			"-0.024": 0.0,
			"-0.023": 0.0,
			"-0.022": 0.0,
			"-0.021": 0.0,
			"-0.02": 0.0,
			"-0.019": 0.0,
			"-0.018": 0.0932645497311,
			"-0.017": 0.765945405742,
			"-0.016": 0.896125846617,
			"-0.015": 1.0462084763,
			"-0.014": 0.925464174026,
			"-0.013": 0.788285816299,
			"-0.012": 0.673379519332,
			"-0.011": 0.733040997043,
			"-0.01": 1.65604100258,
			"-0.009": 5.30794390266,
			"-0.008": 7.73470052124,
			"-0.007": 14.8397193464,
			"-0.006": 25.7497044202,
			"-0.005": 31.8985848896,
			"-0.004": 34.9137721607,
			"-0.003": 38.2214270004,
			"-0.002": 35.5516771084,
			"-0.001": 22.5372288156,
			"0.0": 16.6402530518,
			"0.001": 14.4866748456,
			"0.002": 14.1908638802,
			"0.003": 12.2157632408,
			"0.004": 14.4275433108,
			"0.005": 10.4782714013,
			"0.006": 9.70256307846,
			"0.007": 9.67653703618,
			"0.008": 9.37276627647,
			"0.009": 8.51808033914,
			"0.01": 12.632738166,
			"0.011": 20.3118383501,
			"0.012": 12.1288930027,
			"0.013": 1.07643976141,
			"0.014": 0.0,
			"0.015": 0.0,
			"0.016": 0.0,
			"0.017": 0.0,
			"0.018": 0.0,
			"0.019": 0.0,
			"0.02": 0.0,
			"0.021": 0.0,
			"0.022": 0.0,
			"0.023": 0.0,
			"0.024": 0.0,
			"0.025": 0.0
		}
	}
}
