{
	 "smiles": "CC(C)(C)C1=NC(N)=NC(O)=N1", 
	 "Tm": 548.15, 
	 "num_atms": 24, 
	 "gaussian": { 
		 "optdone": 1, 
		 "sigma_profile": "yes", 
		 "theory": "DFT", 
		 "functional": "B3LYP", 
		 "basiset": "6-31G**", 
		 "properties": { 
			 "R2extent": 2255.0942, 
			 "electric_dipole_moment_norm": 1.53638883425, 
			 "electric_quadrupole_moment_norm": 11.8459845463, 
			 "total_energy": -568.257058612, 
			 "HOMO_LUMO_gap": 0.22972, 
			 "cosmo_polarized_energy": -12.43, 
			 "cosmo_cavitation_energy": 27.0, 
			 "cosmo_dispersion_energy": -19.58, 
			 "cosmo_repulsion_energy": 1.6, 
			 "cosmo_total_nonelectrostatic_energy": 9.02, 
			 "SMD_solvation_energy": 2.03 
		},
		"coords": [
			{
				"x": -1.0590055726,
				"y": -1.9346985906,
				"z": 0.8087049672,
				"element": "C" 
			},
			{
				"x": -1.5029830283,
				"y": -0.477370331,
				"z": 0.5441654758,
				"element": "C" 
			},
			{
				"x": -2.8039474201,
				"y": -0.4718025815,
				"z": -0.274153812,
				"element": "C" 
			},
			{
				"x": -1.7326423992,
				"y": 0.239969817,
				"z": 1.8944410638,
				"element": "C" 
			},
			{
				"x": -0.3725548915,
				"y": 0.2409360426,
				"z": -0.1952661629,
				"element": "C" 
			},
			{
				"x": 0.809706472,
				"y": 0.3021063924,
				"z": 0.4256503155,
				"element": "N" 
			},
			{
				"x": 1.7795829386,
				"y": 0.9413368354,
				"z": -0.2576968925,
				"element": "C" 
			},
			{
				"x": 2.9961243259,
				"y": 1.0217982964,
				"z": 0.325178425,
				"element": "N" 
			},
			{
				"x": 1.6482257654,
				"y": 1.5047068191,
				"z": -1.4748995005,
				"element": "N" 
			},
			{
				"x": 0.4295941024,
				"y": 1.372332511,
				"z": -1.9751173088,
				"element": "C" 
			},
			{
				"x": 0.2254682811,
				"y": 1.9095139723,
				"z": -3.1851707604,
				"element": "O" 
			},
			{
				"x": -0.6220005856,
				"y": 0.7615448276,
				"z": -1.4050398679,
				"element": "N" 
			},
			{
				"x": -0.9013725397,
				"y": -2.475660657,
				"z": -0.1307685766,
				"element": "H" 
			},
			{
				"x": -0.1272728367,
				"y": -1.9600711789,
				"z": 1.3786607908,
				"element": "H" 
			},
			{
				"x": -1.8324591971,
				"y": -2.4635109408,
				"z": 1.3760530798,
				"element": "H" 
			},
			{
				"x": -3.5893663061,
				"y": -0.9932703613,
				"z": 0.2833517401,
				"element": "H" 
			},
			{
				"x": -2.6737846483,
				"y": -0.9733696185,
				"z": -1.2367782904,
				"element": "H" 
			},
			{
				"x": -3.1446710078,
				"y": 0.5468740485,
				"z": -0.4778765137,
				"element": "H" 
			},
			{
				"x": -2.5089769161,
				"y": -0.2799221634,
				"z": 2.4660612528,
				"element": "H" 
			},
			{
				"x": -0.8145794217,
				"y": 0.2583216969,
				"z": 2.4863664687,
				"element": "H" 
			},
			{
				"x": -2.0626097507,
				"y": 1.2732642422,
				"z": 1.7409280919,
				"element": "H" 
			},
			{
				"x": 3.7313249758,
				"y": 1.5287866989,
				"z": -0.1381602565,
				"element": "H" 
			},
			{
				"x": 3.1221919639,
				"y": 0.65129017,
				"z": 1.2516434921,
				"element": "H" 
			},
			{
				"x": -0.7030923034,
				"y": 1.7267940528,
				"z": -3.4002772214,
				"element": "H" 
			}
		],
		 "valence_orbital": [ 
			{
				"type": "occ",
				"energy": -0.31684,
				"method": "rhf"
			},
			{
				"type": "occ",
				"energy": -0.2773,
				"method": "rhf"
			},
			{
				"type": "occ",
				"energy": -0.2647,
				"method": "rhf"
			},
			{
				"type": "occ",
				"energy": -0.26035,
				"method": "rhf"
			},
			{
				"type": "occ",
				"energy": -0.24922,
				"method": "rhf"
			},
			{
				"type": "unocc",
				"energy": -0.0195,
				"method": "rhf"
			},
			{
				"type": "unocc",
				"energy": 0.00236,
				"method": "rhf"
			},
			{
				"type": "unocc",
				"energy": 0.083,
				"method": "rhf"
			},
			{
				"type": "unocc",
				"energy": 0.09067,
				"method": "rhf"
			},
			{
				"type": "unocc",
				"energy": 0.09678,
				"method": "rhf"
			}
		],
		"cosmo_sigma_profile": { 
			"-0.025": 0.0,
			"-0.024": 0.0,
			"-0.023": 0.0,
			"-0.022": 0.0,
			"-0.021": 0.0,
			"-0.02": 0.0,
			"-0.019": 0.0,
			"-0.018": 0.301133318545,
			"-0.017": 0.793867417577,
			"-0.016": 0.746357544819,
			"-0.015": 1.36902373527,
			"-0.014": 2.99189562593,
			"-0.013": 2.32973796745,
			"-0.012": 1.70065626315,
			"-0.011": 3.39448506693,
			"-0.01": 3.63609501485,
			"-0.009": 1.48218494826,
			"-0.008": 1.70179994888,
			"-0.007": 1.91529087417,
			"-0.006": 2.71714115755,
			"-0.005": 1.71411094812,
			"-0.004": 3.35841302852,
			"-0.003": 16.7882571332,
			"-0.002": 25.0491534902,
			"-0.001": 21.90821923,
			"0.0": 21.6655312455,
			"0.001": 28.0925990876,
			"0.002": 14.5715891155,
			"0.003": 8.75782848198,
			"0.004": 6.4199966903,
			"0.005": 5.83493044794,
			"0.006": 5.9165253327,
			"0.007": 5.1170755791,
			"0.008": 4.57118067237,
			"0.009": 4.59851472902,
			"0.01": 3.71098836684,
			"0.011": 4.46456177191,
			"0.012": 1.25664614493,
			"0.013": 0.720057219526,
			"0.014": 1.29451054952,
			"0.015": 0.311684030778,
			"0.016": 0.0,
			"0.017": 0.0,
			"0.018": 0.0,
			"0.019": 0.0,
			"0.02": 0.0,
			"0.021": 0.0,
			"0.022": 0.0,
			"0.023": 0.0,
			"0.024": 0.0,
			"0.025": 0.0
		}
	}
}
