{
	 "smiles": "[O-][N+](=O)C1=CC(Cl)=C(OC2=C(Br)C=CC=C2)C=C1", 
	 "Tm": 360.15, 
	 "num_atms": 25, 
	 "gaussian": { 
		 "optdone": 1, 
		 "sigma_profile": "yes", 
		 "theory": "DFT", 
		 "functional": "B3LYP", 
		 "basiset": "6-31G**", 
		 "properties": { 
			 "R2extent": 7878.7684, 
			 "electric_dipole_moment_norm": 3.64461199444, 
			 "electric_quadrupole_moment_norm": 15.5308259623, 
			 "total_energy": -3773.39578031, 
			 "HOMO_LUMO_gap": 0.14062, 
			 "cosmo_polarized_energy": -10.81, 
			 "cosmo_cavitation_energy": 35.22, 
			 "cosmo_dispersion_energy": -25.09, 
			 "cosmo_repulsion_energy": 1.95, 
			 "cosmo_total_nonelectrostatic_energy": 12.08, 
			 "SMD_solvation_energy": 7.12 
		},
		"coords": [
			{
				"x": -2.7121774134,
				"y": -2.6764711175,
				"z": -3.4336118672,
				"element": "O" 
			},
			{
				"x": -2.0442030875,
				"y": -2.9755769307,
				"z": -2.4453742752,
				"element": "N" 
			},
			{
				"x": -2.038083525,
				"y": -4.0803587297,
				"z": -1.9054623795,
				"element": "O" 
			},
			{
				"x": -1.1879570265,
				"y": -1.9281302894,
				"z": -1.8642861279,
				"element": "C" 
			},
			{
				"x": -0.4180949341,
				"y": -2.2434076587,
				"z": -0.7473775156,
				"element": "C" 
			},
			{
				"x": 0.3917872781,
				"y": -1.2555709188,
				"z": -0.195429657,
				"element": "C" 
			},
			{
				"x": 1.3859510212,
				"y": -1.628052214,
				"z": 1.1855310082,
				"element": "Cl" 
			},
			{
				"x": 0.4206926965,
				"y": 0.0322030028,
				"z": -0.7617624209,
				"element": "C" 
			},
			{
				"x": 1.275962549,
				"y": 0.9950580399,
				"z": -0.2959225692,
				"element": "O" 
			},
			{
				"x": 0.9495836096,
				"y": 1.7474941592,
				"z": 0.8147320572,
				"element": "C" 
			},
			{
				"x": 1.9410422271,
				"y": 2.6017838649,
				"z": 1.3153422429,
				"element": "C" 
			},
			{
				"x": 3.6537719041,
				"y": 2.6648477952,
				"z": 0.4881123326,
				"element": "Br" 
			},
			{
				"x": 1.6763723178,
				"y": 3.4094310796,
				"z": 2.418445235,
				"element": "C" 
			},
			{
				"x": 0.4228788972,
				"y": 3.3708373645,
				"z": 3.0310130775,
				"element": "C" 
			},
			{
				"x": -0.5639752564,
				"y": 2.5225040838,
				"z": 2.5316699735,
				"element": "C" 
			},
			{
				"x": -0.3055606008,
				"y": 1.7133757791,
				"z": 1.4247739343,
				"element": "C" 
			},
			{
				"x": -0.3597164842,
				"y": 0.3144184135,
				"z": -1.886893269,
				"element": "C" 
			},
			{
				"x": -1.1714502052,
				"y": -0.6643494959,
				"z": -2.4496522952,
				"element": "C" 
			},
			{
				"x": -0.4523293908,
				"y": -3.241145108,
				"z": -0.3299093568,
				"element": "H" 
			},
			{
				"x": 2.4565078074,
				"y": 4.0633204401,
				"z": 2.7914860404,
				"element": "H" 
			},
			{
				"x": 0.2249724028,
				"y": 4.001616336,
				"z": 3.8915053335,
				"element": "H" 
			},
			{
				"x": -1.5430248354,
				"y": 2.4851395989,
				"z": 2.9990266464,
				"element": "H" 
			},
			{
				"x": -1.0751590147,
				"y": 1.0571347034,
				"z": 1.033741783,
				"element": "H" 
			},
			{
				"x": -0.306309414,
				"y": 1.3111491974,
				"z": -2.310793211,
				"element": "H" 
			},
			{
				"x": -1.7830815229,
				"y": -0.4688513957,
				"z": -3.3209047198,
				"element": "H" 
			}
		],
		 "valence_orbital": [ 
			{
				"type": "occ",
				"energy": -0.29593,
				"method": "rhf"
			},
			{
				"type": "occ",
				"energy": -0.28814,
				"method": "rhf"
			},
			{
				"type": "occ",
				"energy": -0.276,
				"method": "rhf"
			},
			{
				"type": "occ",
				"energy": -0.26119,
				"method": "rhf"
			},
			{
				"type": "occ",
				"energy": -0.2421,
				"method": "rhf"
			},
			{
				"type": "unocc",
				"energy": -0.10148,
				"method": "rhf"
			},
			{
				"type": "unocc",
				"energy": -0.04875,
				"method": "rhf"
			},
			{
				"type": "unocc",
				"energy": -0.02424,
				"method": "rhf"
			},
			{
				"type": "unocc",
				"energy": -0.01775,
				"method": "rhf"
			},
			{
				"type": "unocc",
				"energy": -0.01179,
				"method": "rhf"
			}
		],
		"cosmo_sigma_profile": { 
			"-0.025": 0.0,
			"-0.024": 0.0,
			"-0.023": 0.0,
			"-0.022": 0.0,
			"-0.021": 0.0,
			"-0.02": 0.0,
			"-0.019": 0.0,
			"-0.018": 0.0,
			"-0.017": 0.0,
			"-0.016": 0.0,
			"-0.015": 0.0,
			"-0.014": 0.0,
			"-0.013": 0.0,
			"-0.012": 0.0,
			"-0.011": 0.0,
			"-0.01": 0.00292983326735,
			"-0.009": 2.18002320996,
			"-0.008": 6.0563210021,
			"-0.007": 11.5024455699,
			"-0.006": 14.9167933046,
			"-0.005": 16.1572165319,
			"-0.004": 16.2612859937,
			"-0.003": 19.035414767,
			"-0.002": 24.8053888766,
			"-0.001": 24.8781961711,
			"0.0": 18.9798914702,
			"0.001": 18.9716709614,
			"0.002": 24.5690801361,
			"0.003": 29.3715617763,
			"0.004": 22.3984608622,
			"0.005": 9.48283141373,
			"0.006": 6.99368644327,
			"0.007": 11.3381050566,
			"0.008": 6.66189801421,
			"0.009": 4.1390376983,
			"0.01": 1.11239980854,
			"0.011": 0.0,
			"0.012": 0.0,
			"0.013": 0.0,
			"0.014": 0.0,
			"0.015": 0.0,
			"0.016": 0.0,
			"0.017": 0.0,
			"0.018": 0.0,
			"0.019": 0.0,
			"0.02": 0.0,
			"0.021": 0.0,
			"0.022": 0.0,
			"0.023": 0.0,
			"0.024": 0.0,
			"0.025": 0.0
		}
	}
}
