{
	 "smiles": "NCC1=CC=CC2=CC=CC=C12", 
	 "Tm": 539.15, 
	 "num_atms": 23, 
	 "gaussian": { 
		 "optdone": 1, 
		 "sigma_profile": "yes", 
		 "theory": "DFT", 
		 "functional": "B3LYP", 
		 "basiset": "6-31G**", 
		 "properties": { 
			 "R2extent": 2145.2997, 
			 "electric_dipole_moment_norm": 1.38521169501, 
			 "electric_quadrupole_moment_norm": 7.38096990578, 
			 "total_energy": -480.558300008, 
			 "HOMO_LUMO_gap": 0.17255, 
			 "cosmo_polarized_energy": -7.97, 
			 "cosmo_cavitation_energy": 25.62, 
			 "cosmo_dispersion_energy": -18.99, 
			 "cosmo_repulsion_energy": 1.49, 
			 "cosmo_total_nonelectrostatic_energy": 8.13, 
			 "SMD_solvation_energy": 2.52 
		},
		"coords": [
			{
				"x": 1.8408713754,
				"y": -2.7213105649,
				"z": -0.9545968705,
				"element": "N" 
			},
			{
				"x": 1.1101714583,
				"y": -1.8323084237,
				"z": -1.8749351635,
				"element": "C" 
			},
			{
				"x": 0.2047414801,
				"y": -0.801585337,
				"z": -1.2199515506,
				"element": "C" 
			},
			{
				"x": -1.159735985,
				"y": -1.01641283,
				"z": -1.1815484488,
				"element": "C" 
			},
			{
				"x": -2.0401801941,
				"y": -0.1196042909,
				"z": -0.5309649033,
				"element": "C" 
			},
			{
				"x": -1.5458821034,
				"y": 1.0039181359,
				"z": 0.0868761748,
				"element": "C" 
			},
			{
				"x": -0.1517751209,
				"y": 1.2805902873,
				"z": 0.0723049118,
				"element": "C" 
			},
			{
				"x": 0.3765967332,
				"y": 2.4415987142,
				"z": 0.6985275203,
				"element": "C" 
			},
			{
				"x": 1.7264429516,
				"y": 2.7089504126,
				"z": 0.6775076777,
				"element": "C" 
			},
			{
				"x": 2.6099763248,
				"y": 1.8220980966,
				"z": 0.0190454411,
				"element": "C" 
			},
			{
				"x": 2.1295667963,
				"y": 0.6867146589,
				"z": -0.5967487271,
				"element": "C" 
			},
			{
				"x": 0.7409430374,
				"y": 0.372523211,
				"z": -0.5910235427,
				"element": "C" 
			},
			{
				"x": 1.1694063858,
				"y": -3.1889384356,
				"z": -0.3484668807,
				"element": "H" 
			},
			{
				"x": 2.4221612426,
				"y": -2.1634955646,
				"z": -0.3325197681,
				"element": "H" 
			},
			{
				"x": 0.5040126628,
				"y": -2.4656018228,
				"z": -2.5314510225,
				"element": "H" 
			},
			{
				"x": 1.8471989803,
				"y": -1.3437800958,
				"z": -2.5220457649,
				"element": "H" 
			},
			{
				"x": -1.5690145932,
				"y": -1.9005147624,
				"z": -1.6653416781,
				"element": "H" 
			},
			{
				"x": -3.1067215838,
				"y": -0.3256585438,
				"z": -0.5239036956,
				"element": "H" 
			},
			{
				"x": -2.2121837918,
				"y": 1.6984824493,
				"z": 0.5919770046,
				"element": "H" 
			},
			{
				"x": -0.3109332132,
				"y": 3.1202687384,
				"z": 1.1972178346,
				"element": "H" 
			},
			{
				"x": 2.1159689958,
				"y": 3.6003458637,
				"z": 1.1605703639,
				"element": "H" 
			},
			{
				"x": 3.67388081,
				"y": 2.040244087,
				"z": -0.0029380811,
				"element": "H" 
			},
			{
				"x": 2.826187351,
				"y": 0.0283760164,
				"z": -1.1059908316,
				"element": "H" 
			}
		],
		 "valence_orbital": [ 
			{
				"type": "occ",
				"energy": -0.32403,
				"method": "rhf"
			},
			{
				"type": "occ",
				"energy": -0.2819,
				"method": "rhf"
			},
			{
				"type": "occ",
				"energy": -0.24356,
				"method": "rhf"
			},
			{
				"type": "occ",
				"energy": -0.2367,
				"method": "rhf"
			},
			{
				"type": "occ",
				"energy": -0.21221,
				"method": "rhf"
			},
			{
				"type": "unocc",
				"energy": -0.03966,
				"method": "rhf"
			},
			{
				"type": "unocc",
				"energy": -0.00949,
				"method": "rhf"
			},
			{
				"type": "unocc",
				"energy": 0.0279,
				"method": "rhf"
			},
			{
				"type": "unocc",
				"energy": 0.08575,
				"method": "rhf"
			},
			{
				"type": "unocc",
				"energy": 0.09595,
				"method": "rhf"
			}
		],
		"cosmo_sigma_profile": { 
			"-0.025": 0.0,
			"-0.024": 0.0,
			"-0.023": 0.0,
			"-0.022": 0.0,
			"-0.021": 0.0,
			"-0.02": 0.0,
			"-0.019": 0.0,
			"-0.018": 0.0,
			"-0.017": 0.0,
			"-0.016": 0.0,
			"-0.015": 0.0,
			"-0.014": 0.0,
			"-0.013": 0.0,
			"-0.012": 0.0,
			"-0.011": 0.0,
			"-0.01": 0.166149404273,
			"-0.009": 1.59480814458,
			"-0.008": 2.1095556178,
			"-0.007": 4.74175949914,
			"-0.006": 10.4771988087,
			"-0.005": 19.6748779695,
			"-0.004": 19.803812599,
			"-0.003": 19.0346856589,
			"-0.002": 13.1466169663,
			"-0.001": 13.9920055838,
			"0.0": 11.6783037326,
			"0.001": 8.88714640054,
			"0.002": 11.8582517678,
			"0.003": 12.456626397,
			"0.004": 19.1311258819,
			"0.005": 19.9812420051,
			"0.006": 6.1319596432,
			"0.007": 0.495534597905,
			"0.008": 0.4325857751,
			"0.009": 0.634171082635,
			"0.01": 0.961437056828,
			"0.011": 0.446764292224,
			"0.012": 0.78509549475,
			"0.013": 0.530093162771,
			"0.014": 0.85949677431,
			"0.015": 0.407019161473,
			"0.016": 0.914158595433,
			"0.017": 0.502297791154,
			"0.018": 0.726438999434,
			"0.019": 0.670361053327,
			"0.02": 0.341007625518,
			"0.021": 0.0,
			"0.022": 0.0,
			"0.023": 0.0,
			"0.024": 0.0,
			"0.025": 0.0
		}
	}
}
