{
	 "smiles": "NC(=NO)C1=CC=C(OC(F)(F)F)C=C1", 
	 "Tm": 387.15, 
	 "num_atms": 22, 
	 "gaussian": { 
		 "optdone": 1, 
		 "sigma_profile": "yes", 
		 "theory": "DFT", 
		 "functional": "B3LYP", 
		 "basiset": "6-31G**", 
		 "properties": { 
			 "R2extent": 4683.4016, 
			 "electric_dipole_moment_norm": 2.31342448764, 
			 "electric_quadrupole_moment_norm": 8.76999245496, 
			 "total_energy": -868.494973397, 
			 "HOMO_LUMO_gap": 0.18172, 
			 "cosmo_polarized_energy": -11.02, 
			 "cosmo_cavitation_energy": 28.42, 
			 "cosmo_dispersion_energy": -20.77, 
			 "cosmo_repulsion_energy": 1.58, 
			 "cosmo_total_nonelectrostatic_energy": 9.24, 
			 "SMD_solvation_energy": 6.54 
		},
		"coords": [
			{
				"x": -0.377995427,
				"y": 4.1794534972,
				"z": 1.3176614629,
				"element": "N" 
			},
			{
				"x": -0.5887208111,
				"y": 2.9398060798,
				"z": 1.8940662355,
				"element": "C" 
			},
			{
				"x": -1.0896328053,
				"y": 2.7646686958,
				"z": 3.0745141207,
				"element": "N" 
			},
			{
				"x": -1.2713930897,
				"y": 4.0244413601,
				"z": 3.707925428,
				"element": "O" 
			},
			{
				"x": -0.2833398393,
				"y": 1.7330076409,
				"z": 1.0913757454,
				"element": "C" 
			},
			{
				"x": -0.0393612134,
				"y": 0.5014289902,
				"z": 1.7213182461,
				"element": "C" 
			},
			{
				"x": 0.2501589689,
				"y": -0.6312126042,
				"z": 0.9725353071,
				"element": "C" 
			},
			{
				"x": 0.2995874143,
				"y": -0.5445198294,
				"z": -0.4199221214,
				"element": "C" 
			},
			{
				"x": 0.5812295045,
				"y": -1.7514166983,
				"z": -1.0654825608,
				"element": "O" 
			},
			{
				"x": 1.0284105352,
				"y": -1.7717436061,
				"z": -2.3442251459,
				"element": "C" 
			},
			{
				"x": 2.1033024592,
				"y": -0.983564169,
				"z": -2.5283744179,
				"element": "F" 
			},
			{
				"x": 0.0880481514,
				"y": -1.376103109,
				"z": -3.2296841555,
				"element": "F" 
			},
			{
				"x": 1.3633843228,
				"y": -3.0287822926,
				"z": -2.6300273766,
				"element": "F" 
			},
			{
				"x": 0.0515849805,
				"y": 0.6608504252,
				"z": -1.0732809792,
				"element": "C" 
			},
			{
				"x": -0.2371498826,
				"y": 1.7914813218,
				"z": -0.3076800728,
				"element": "C" 
			},
			{
				"x": 0.4272608933,
				"y": 4.2483004156,
				"z": 0.7117540496,
				"element": "H" 
			},
			{
				"x": -0.4691180756,
				"y": 4.9440311983,
				"z": 1.9735670551,
				"element": "H" 
			},
			{
				"x": -1.6573060132,
				"y": 3.768975087,
				"z": 4.5542554021,
				"element": "H" 
			},
			{
				"x": -0.0743505706,
				"y": 0.450070734,
				"z": 2.8034054688,
				"element": "H" 
			},
			{
				"x": 0.4499650979,
				"y": -1.5857055734,
				"z": 1.4473032538,
				"element": "H" 
			},
			{
				"x": 0.062431826,
				"y": 0.7265384453,
				"z": -2.1531267496,
				"element": "H" 
			},
			{
				"x": -0.4620964264,
				"y": 2.7240939908,
				"z": -0.8148781952,
				"element": "H" 
			}
		],
		 "valence_orbital": [ 
			{
				"type": "occ",
				"energy": -0.32247,
				"method": "rhf"
			},
			{
				"type": "occ",
				"energy": -0.27803,
				"method": "rhf"
			},
			{
				"type": "occ",
				"energy": -0.26717,
				"method": "rhf"
			},
			{
				"type": "occ",
				"energy": -0.25602,
				"method": "rhf"
			},
			{
				"type": "occ",
				"energy": -0.21327,
				"method": "rhf"
			},
			{
				"type": "unocc",
				"energy": -0.03155,
				"method": "rhf"
			},
			{
				"type": "unocc",
				"energy": -0.01747,
				"method": "rhf"
			},
			{
				"type": "unocc",
				"energy": 0.05396,
				"method": "rhf"
			},
			{
				"type": "unocc",
				"energy": 0.07221,
				"method": "rhf"
			},
			{
				"type": "unocc",
				"energy": 0.08437,
				"method": "rhf"
			}
		],
		"cosmo_sigma_profile": { 
			"-0.025": 0.0,
			"-0.024": 0.0,
			"-0.023": 0.0,
			"-0.022": 0.0,
			"-0.021": 0.0,
			"-0.02": 0.0,
			"-0.019": 0.0,
			"-0.018": 0.000436158545544,
			"-0.017": 0.647582970324,
			"-0.016": 0.688916949342,
			"-0.015": 1.27534210857,
			"-0.014": 0.950942935189,
			"-0.013": 1.72722029935,
			"-0.012": 1.96117452686,
			"-0.011": 2.38818383464,
			"-0.01": 2.52537442111,
			"-0.009": 3.48624078553,
			"-0.008": 4.0869778119,
			"-0.007": 6.47740579973,
			"-0.006": 8.44637130052,
			"-0.005": 8.15824567476,
			"-0.004": 7.45713531805,
			"-0.003": 7.79709602618,
			"-0.002": 9.51130206593,
			"-0.001": 14.4775826523,
			"0.0": 18.7699551506,
			"0.001": 29.9377457766,
			"0.002": 39.0813418419,
			"0.003": 17.6493926954,
			"0.004": 8.00133407163,
			"0.005": 6.06083170435,
			"0.006": 5.60487131972,
			"0.007": 4.66240168033,
			"0.008": 6.12151273569,
			"0.009": 2.94088565275,
			"0.01": 2.78122580831,
			"0.011": 1.53935689097,
			"0.012": 1.02163599076,
			"0.013": 0.776649292415,
			"0.014": 0.296332090848,
			"0.015": 0.0,
			"0.016": 0.0,
			"0.017": 0.0,
			"0.018": 0.0,
			"0.019": 0.0,
			"0.02": 0.0,
			"0.021": 0.0,
			"0.022": 0.0,
			"0.023": 0.0,
			"0.024": 0.0,
			"0.025": 0.0
		}
	}
}
