{
	 "smiles": "O=S(=O)(NC1CC1)C1=CC=C(C=C1)C#N", 
	 "Tm": 373.15, 
	 "num_atms": 25, 
	 "gaussian": { 
		 "optdone": 1, 
		 "sigma_profile": "yes", 
		 "theory": "DFT", 
		 "functional": "B3LYP", 
		 "basiset": "6-31G**", 
		 "properties": { 
			 "R2extent": 5254.6904, 
			 "electric_dipole_moment_norm": 4.19201911374, 
			 "electric_quadrupole_moment_norm": 20.5544486902, 
			 "total_energy": -1045.10178145, 
			 "HOMO_LUMO_gap": 0.18165, 
			 "cosmo_polarized_energy": -18.65, 
			 "cosmo_cavitation_energy": 32.15, 
			 "cosmo_dispersion_energy": -22.6, 
			 "cosmo_repulsion_energy": 1.72, 
			 "cosmo_total_nonelectrostatic_energy": 11.27, 
			 "SMD_solvation_energy": 5.26 
		},
		"coords": [
			{
				"x": 0.4434804791,
				"y": 0.1860306484,
				"z": -2.2912644075,
				"element": "O" 
			},
			{
				"x": 0.9736566887,
				"y": 1.0994847713,
				"z": -1.2781681799,
				"element": "S" 
			},
			{
				"x": 1.8386661604,
				"y": 2.2284321014,
				"z": -1.64883363,
				"element": "O" 
			},
			{
				"x": -0.3661593039,
				"y": 1.6239849994,
				"z": -0.3707684047,
				"element": "N" 
			},
			{
				"x": -1.5697472527,
				"y": 1.9178564327,
				"z": -1.1354295645,
				"element": "C" 
			},
			{
				"x": -1.6632271539,
				"y": 3.1061286615,
				"z": -2.0625881988,
				"element": "C" 
			},
			{
				"x": -2.3841892709,
				"y": 3.1165725359,
				"z": -0.7341236456,
				"element": "C" 
			},
			{
				"x": 1.8584800261,
				"y": 0.1438595272,
				"z": -0.0355741349,
				"element": "C" 
			},
			{
				"x": 1.3222174246,
				"y": -1.0711232293,
				"z": 0.3998344989,
				"element": "C" 
			},
			{
				"x": 2.0179220838,
				"y": -1.8210498578,
				"z": 1.3404528207,
				"element": "C" 
			},
			{
				"x": 3.2495635833,
				"y": -1.3537980378,
				"z": 1.8355463338,
				"element": "C" 
			},
			{
				"x": 3.7816731928,
				"y": -0.1369329426,
				"z": 1.3802165128,
				"element": "C" 
			},
			{
				"x": 3.0827299215,
				"y": 0.614644676,
				"z": 0.4379709308,
				"element": "C" 
			},
			{
				"x": 3.9660167458,
				"y": -2.1269873307,
				"z": 2.8091560452,
				"element": "C" 
			},
			{
				"x": 4.5450003655,
				"y": -2.752654678,
				"z": 3.6001618707,
				"element": "N" 
			},
			{
				"x": -0.0772926961,
				"y": 2.3945417473,
				"z": 0.2285240774,
				"element": "H" 
			},
			{
				"x": -2.1004432243,
				"y": 1.0158619637,
				"z": -1.4195637289,
				"element": "H" 
			},
			{
				"x": -2.2440447525,
				"y": 2.9911809496,
				"z": -2.9721601831,
				"element": "H" 
			},
			{
				"x": -0.781965335,
				"y": 3.7312406289,
				"z": -2.165629978,
				"element": "H" 
			},
			{
				"x": -1.9928546154,
				"y": 3.760951794,
				"z": 0.0492484708,
				"element": "H" 
			},
			{
				"x": -3.4641047461,
				"y": 3.0103672341,
				"z": -0.7151093106,
				"element": "H" 
			},
			{
				"x": 0.3765779367,
				"y": -1.4219762474,
				"z": 0.0020724133,
				"element": "H" 
			},
			{
				"x": 1.6208580163,
				"y": -2.7662040026,
				"z": 1.6942285196,
				"element": "H" 
			},
			{
				"x": 4.7356464158,
				"y": 0.2097305771,
				"z": 1.7622376827,
				"element": "H" 
			},
			{
				"x": 3.4779393105,
				"y": 1.5515570778,
				"z": 0.0617631897,
				"element": "H" 
			}
		],
		 "valence_orbital": [ 
			{
				"type": "occ",
				"energy": -0.31323,
				"method": "rhf"
			},
			{
				"type": "occ",
				"energy": -0.30772,
				"method": "rhf"
			},
			{
				"type": "occ",
				"energy": -0.29433,
				"method": "rhf"
			},
			{
				"type": "occ",
				"energy": -0.28726,
				"method": "rhf"
			},
			{
				"type": "occ",
				"energy": -0.26194,
				"method": "rhf"
			},
			{
				"type": "unocc",
				"energy": -0.08029,
				"method": "rhf"
			},
			{
				"type": "unocc",
				"energy": -0.04262,
				"method": "rhf"
			},
			{
				"type": "unocc",
				"energy": 0.02357,
				"method": "rhf"
			},
			{
				"type": "unocc",
				"energy": 0.03768,
				"method": "rhf"
			},
			{
				"type": "unocc",
				"energy": 0.04605,
				"method": "rhf"
			}
		],
		"cosmo_sigma_profile": { 
			"-0.025": 0.0,
			"-0.024": 0.0,
			"-0.023": 0.0,
			"-0.022": 0.0,
			"-0.021": 0.0,
			"-0.02": 0.0,
			"-0.019": 0.0,
			"-0.018": 0.0,
			"-0.017": 0.0,
			"-0.016": 0.143588214469,
			"-0.015": 0.839848235198,
			"-0.014": 1.32124468677,
			"-0.013": 1.33987947638,
			"-0.012": 1.03369495901,
			"-0.011": 1.95413723634,
			"-0.01": 1.01288608459,
			"-0.009": 5.15603466319,
			"-0.008": 9.80349209017,
			"-0.007": 10.2742708816,
			"-0.006": 11.3228423212,
			"-0.005": 16.4193229489,
			"-0.004": 15.3420068248,
			"-0.003": 17.3619933713,
			"-0.002": 19.2501491738,
			"-0.001": 20.2361927214,
			"0.0": 23.6605588143,
			"0.001": 14.6219243176,
			"0.002": 9.70920176261,
			"0.003": 8.39596022922,
			"0.004": 7.61036991511,
			"0.005": 7.21168581278,
			"0.006": 5.88384059794,
			"0.007": 6.95977772389,
			"0.008": 8.11911953637,
			"0.009": 7.77043358498,
			"0.01": 11.4081693238,
			"0.011": 9.84253163764,
			"0.012": 3.3309756441,
			"0.013": 0.49223419868,
			"0.014": 0.0,
			"0.015": 0.0,
			"0.016": 0.0,
			"0.017": 0.0,
			"0.018": 0.0,
			"0.019": 0.0,
			"0.02": 0.0,
			"0.021": 0.0,
			"0.022": 0.0,
			"0.023": 0.0,
			"0.024": 0.0,
			"0.025": 0.0
		}
	}
}
