{
	 "smiles": "NC1=C(F)C=C(F)C(=C1)C(O)=O", 
	 "Tm": 443.15, 
	 "num_atms": 17, 
	 "gaussian": { 
		 "optdone": 1, 
		 "sigma_profile": "yes", 
		 "theory": "DFT", 
		 "functional": "B3LYP", 
		 "basiset": "6-31G**", 
		 "properties": { 
			 "R2extent": 2407.9363, 
			 "electric_dipole_moment_norm": 4.50421246724, 
			 "electric_quadrupole_moment_norm": 13.524744554, 
			 "total_energy": -674.638173137, 
			 "HOMO_LUMO_gap": 0.17399, 
			 "cosmo_polarized_energy": -13.82, 
			 "cosmo_cavitation_energy": 22.61, 
			 "cosmo_dispersion_energy": -16.89, 
			 "cosmo_repulsion_energy": 1.3, 
			 "cosmo_total_nonelectrostatic_energy": 7.02, 
			 "SMD_solvation_energy": 5.9 
		},
		"coords": [
			{
				"x": 2.7511017275,
				"y": -2.8329137157,
				"z": -0.7687184357,
				"element": "N" 
			},
			{
				"x": 1.6742170975,
				"y": -2.079274586,
				"z": -0.3226814237,
				"element": "C" 
			},
			{
				"x": 0.571819066,
				"y": -2.7181436377,
				"z": 0.2726741172,
				"element": "C" 
			},
			{
				"x": 0.5822251451,
				"y": -4.0692286189,
				"z": 0.3150522871,
				"element": "F" 
			},
			{
				"x": -0.5085912226,
				"y": -2.0296430142,
				"z": 0.7954066096,
				"element": "C" 
			},
			{
				"x": -0.4895783709,
				"y": -0.643891088,
				"z": 0.7201958797,
				"element": "C" 
			},
			{
				"x": -1.5655301125,
				"y": 0.0247778934,
				"z": 1.2420163368,
				"element": "F" 
			},
			{
				"x": 0.5653867071,
				"y": 0.0609708134,
				"z": 0.1384718252,
				"element": "C" 
			},
			{
				"x": 1.6381505094,
				"y": -0.6837134389,
				"z": -0.3758652138,
				"element": "C" 
			},
			{
				"x": 0.6567240458,
				"y": 1.5584243955,
				"z": 0.0073453488,
				"element": "C" 
			},
			{
				"x": -0.3577238957,
				"y": 2.2948363917,
				"z": 0.5038341087,
				"element": "O" 
			},
			{
				"x": 1.6023981781,
				"y": 2.0954542303,
				"z": -0.5240067898,
				"element": "O" 
			},
			{
				"x": 2.5445973359,
				"y": -3.8040170058,
				"z": -0.9542874453,
				"element": "H" 
			},
			{
				"x": 3.3224817839,
				"y": -2.4012562017,
				"z": -1.4805323267,
				"element": "H" 
			},
			{
				"x": -1.3411704502,
				"y": -2.557316915,
				"z": 1.2441601999,
				"element": "H" 
			},
			{
				"x": 2.4546919766,
				"y": -0.1252462538,
				"z": -0.8218329281,
				"element": "H" 
			},
			{
				"x": -1.035899521,
				"y": 1.7210807515,
				"z": 0.8942678502,
				"element": "H" 
			}
		],
		 "valence_orbital": [ 
			{
				"type": "occ",
				"energy": -0.33266,
				"method": "rhf"
			},
			{
				"type": "occ",
				"energy": -0.31109,
				"method": "rhf"
			},
			{
				"type": "occ",
				"energy": -0.27505,
				"method": "rhf"
			},
			{
				"type": "occ",
				"energy": -0.27331,
				"method": "rhf"
			},
			{
				"type": "occ",
				"energy": -0.22631,
				"method": "rhf"
			},
			{
				"type": "unocc",
				"energy": -0.05232,
				"method": "rhf"
			},
			{
				"type": "unocc",
				"energy": -0.01538,
				"method": "rhf"
			},
			{
				"type": "unocc",
				"energy": 0.05577,
				"method": "rhf"
			},
			{
				"type": "unocc",
				"energy": 0.06059,
				"method": "rhf"
			},
			{
				"type": "unocc",
				"energy": 0.07173,
				"method": "rhf"
			}
		],
		"cosmo_sigma_profile": { 
			"-0.025": 0.0,
			"-0.024": 0.0,
			"-0.023": 0.0,
			"-0.022": 0.0,
			"-0.021": 0.0,
			"-0.02": 0.0,
			"-0.019": 0.0,
			"-0.018": 0.0,
			"-0.017": 0.0,
			"-0.016": 0.0,
			"-0.015": 0.0,
			"-0.014": 0.246209069724,
			"-0.013": 2.11246061398,
			"-0.012": 3.08713076959,
			"-0.011": 3.76834552,
			"-0.01": 3.88771084161,
			"-0.009": 6.31164969816,
			"-0.008": 6.33294857136,
			"-0.007": 5.50357156696,
			"-0.006": 5.66575309649,
			"-0.005": 5.21197432724,
			"-0.004": 5.65136738246,
			"-0.003": 7.6594614616,
			"-0.002": 9.66272583663,
			"-0.001": 13.9311354806,
			"0.0": 19.2277561446,
			"0.001": 16.1622101333,
			"0.002": 13.6246931072,
			"0.003": 13.0338298142,
			"0.004": 5.74265173162,
			"0.005": 3.61326978356,
			"0.006": 2.34074076593,
			"0.007": 3.46898268438,
			"0.008": 3.38447867149,
			"0.009": 3.93801538953,
			"0.01": 4.8210701945,
			"0.011": 6.33449114235,
			"0.012": 4.83293881438,
			"0.013": 2.07994873611,
			"0.014": 0.0819082704739,
			"0.015": 0.0,
			"0.016": 0.0,
			"0.017": 0.0,
			"0.018": 0.0,
			"0.019": 0.0,
			"0.02": 0.0,
			"0.021": 0.0,
			"0.022": 0.0,
			"0.023": 0.0,
			"0.024": 0.0,
			"0.025": 0.0
		}
	}
}
