{
	 "smiles": "BrC1=CC=CC(O[Si]23OCCN(CCO2)CCO3)=C1", 
	 "Tm": 514.15, 
	 "num_atms": 35, 
	 "gaussian": { 
		 "optdone": 1, 
		 "sigma_profile": "yes", 
		 "theory": "DFT", 
		 "functional": "B3LYP", 
		 "basiset": "6-31G**", 
		 "properties": { 
			 "R2extent": 8645.5689, 
			 "electric_dipole_moment_norm": 7.59858257638, 
			 "electric_quadrupole_moment_norm": 15.2309124494, 
			 "total_energy": -3683.60971357, 
			 "HOMO_LUMO_gap": 0.21745, 
			 "cosmo_polarized_energy": -18.04, 
			 "cosmo_cavitation_energy": 38.71, 
			 "cosmo_dispersion_energy": -27.58, 
			 "cosmo_repulsion_energy": 2.2, 
			 "cosmo_total_nonelectrostatic_energy": 13.33, 
			 "SMD_solvation_energy": 5.24 
		},
		"coords": [
			{
				"x": -0.7335260469,
				"y": -5.3462676473,
				"z": -0.0114590991,
				"element": "Br" 
			},
			{
				"x": -0.7697849633,
				"y": -3.8851532552,
				"z": -1.2562714254,
				"element": "C" 
			},
			{
				"x": -1.2619289727,
				"y": -4.1051461245,
				"z": -2.5399699675,
				"element": "C" 
			},
			{
				"x": -1.2715450923,
				"y": -3.0286808003,
				"z": -3.430774837,
				"element": "C" 
			},
			{
				"x": -0.8097779122,
				"y": -1.773060653,
				"z": -3.0459489531,
				"element": "C" 
			},
			{
				"x": -0.3244599108,
				"y": -1.5735042985,
				"z": -1.7462905812,
				"element": "C" 
			},
			{
				"x": 0.1326529949,
				"y": -0.3339619309,
				"z": -1.4326747752,
				"element": "O" 
			},
			{
				"x": 0.2511282438,
				"y": 0.4659840826,
				"z": 0.0308057305,
				"element": "Si" 
			},
			{
				"x": 0.8650754123,
				"y": 1.9145793473,
				"z": -0.509703766,
				"element": "O" 
			},
			{
				"x": 0.7267602514,
				"y": 3.1306378304,
				"z": 0.194386217,
				"element": "C" 
			},
			{
				"x": 1.0288168906,
				"y": 2.9240954245,
				"z": 1.690029245,
				"element": "C" 
			},
			{
				"x": 0.4227374962,
				"y": 1.6683667745,
				"z": 2.1458749388,
				"element": "N" 
			},
			{
				"x": 1.3165732753,
				"y": 0.7702689144,
				"z": 2.890092481,
				"element": "C" 
			},
			{
				"x": 2.1642768174,
				"y": -0.0052891111,
				"z": 1.8761838181,
				"element": "C" 
			},
			{
				"x": 1.3339463673,
				"y": -0.5070407944,
				"z": 0.8480605924,
				"element": "O" 
			},
			{
				"x": -0.9798494674,
				"y": 1.7237594844,
				"z": 2.5706738419,
				"element": "C" 
			},
			{
				"x": -1.8963063606,
				"y": 1.4643492683,
				"z": 1.3577608349,
				"element": "C" 
			},
			{
				"x": -1.3421025136,
				"y": 0.4704680573,
				"z": 0.5223865418,
				"element": "O" 
			},
			{
				"x": -0.2954441399,
				"y": -2.6445431371,
				"z": -0.8404730609,
				"element": "C" 
			},
			{
				"x": -1.6230860998,
				"y": -5.0831913358,
				"z": -2.8340563664,
				"element": "H" 
			},
			{
				"x": -1.6483381322,
				"y": -3.1755492044,
				"z": -4.4390809698,
				"element": "H" 
			},
			{
				"x": -0.8166091831,
				"y": -0.9326135899,
				"z": -3.7315204456,
				"element": "H" 
			},
			{
				"x": -0.2840649286,
				"y": 3.5387399264,
				"z": 0.0565029758,
				"element": "H" 
			},
			{
				"x": 1.4281526716,
				"y": 3.8575819146,
				"z": -0.230019353,
				"element": "H" 
			},
			{
				"x": 0.6860175366,
				"y": 3.7853222671,
				"z": 2.2819348683,
				"element": "H" 
			},
			{
				"x": 2.1116342044,
				"y": 2.843231993,
				"z": 1.8217035236,
				"element": "H" 
			},
			{
				"x": 0.6986904205,
				"y": 0.0602763017,
				"z": 3.4449503838,
				"element": "H" 
			},
			{
				"x": 1.9490272659,
				"y": 1.3053808832,
				"z": 3.6133183383,
				"element": "H" 
			},
			{
				"x": 2.6645621892,
				"y": -0.8486051807,
				"z": 2.3639543637,
				"element": "H" 
			},
			{
				"x": 2.945375739,
				"y": 0.6397950976,
				"z": 1.4480732184,
				"element": "H" 
			},
			{
				"x": -1.1420804157,
				"y": 0.9354903363,
				"z": 3.3096395594,
				"element": "H" 
			},
			{
				"x": -1.22870823,
				"y": 2.6821203705,
				"z": 3.0484555237,
				"element": "H" 
			},
			{
				"x": -2.8778583614,
				"y": 1.1200201303,
				"z": 1.7016011848,
				"element": "H" 
			},
			{
				"x": -2.0604446358,
				"y": 2.3893018716,
				"z": 0.7875592211,
				"element": "H" 
			},
			{
				"x": 0.1066875901,
				"y": -2.506063213,
				"z": 0.1547961978,
				"element": "H" 
			}
		],
		 "valence_orbital": [ 
			{
				"type": "occ",
				"energy": -0.2736,
				"method": "rhf"
			},
			{
				"type": "occ",
				"energy": -0.26898,
				"method": "rhf"
			},
			{
				"type": "occ",
				"energy": -0.26439,
				"method": "rhf"
			},
			{
				"type": "occ",
				"energy": -0.22848,
				"method": "rhf"
			},
			{
				"type": "occ",
				"energy": -0.20994,
				"method": "rhf"
			},
			{
				"type": "unocc",
				"energy": 0.00751,
				"method": "rhf"
			},
			{
				"type": "unocc",
				"energy": 0.01899,
				"method": "rhf"
			},
			{
				"type": "unocc",
				"energy": 0.02357,
				"method": "rhf"
			},
			{
				"type": "unocc",
				"energy": 0.0538,
				"method": "rhf"
			},
			{
				"type": "unocc",
				"energy": 0.07328,
				"method": "rhf"
			}
		],
		"cosmo_sigma_profile": { 
			"-0.025": 0.0,
			"-0.024": 0.0,
			"-0.023": 0.0,
			"-0.022": 0.0,
			"-0.021": 0.0,
			"-0.02": 0.0,
			"-0.019": 0.0,
			"-0.018": 0.0,
			"-0.017": 0.0,
			"-0.016": 0.0,
			"-0.015": 0.0,
			"-0.014": 0.0,
			"-0.013": 0.0,
			"-0.012": 0.0,
			"-0.011": 0.0,
			"-0.01": 0.0,
			"-0.009": 0.0,
			"-0.008": 0.0223992943487,
			"-0.007": 4.18032867447,
			"-0.006": 18.5405453314,
			"-0.005": 41.9820968937,
			"-0.004": 36.2219004391,
			"-0.003": 26.4366991595,
			"-0.002": 22.9696128146,
			"-0.001": 13.0678819031,
			"0.0": 11.1746410005,
			"0.001": 12.3005541457,
			"0.002": 16.0287049108,
			"0.003": 22.3012012624,
			"0.004": 26.9528730496,
			"0.005": 18.7558214705,
			"0.006": 5.36326617742,
			"0.007": 6.33262535218,
			"0.008": 5.86594006942,
			"0.009": 3.81086979894,
			"0.01": 3.59161927759,
			"0.011": 4.24863929931,
			"0.012": 2.80613403661,
			"0.013": 1.8785964877,
			"0.014": 1.39641310795,
			"0.015": 0.0501689581645,
			"0.016": 0.0,
			"0.017": 0.0,
			"0.018": 0.0,
			"0.019": 0.0,
			"0.02": 0.0,
			"0.021": 0.0,
			"0.022": 0.0,
			"0.023": 0.0,
			"0.024": 0.0,
			"0.025": 0.0
		}
	}
}
