{
	 "smiles": "ClCCN(CCCl)C1=CNC(=O)NC1=O", 
	 "Tm": 479.15, 
	 "num_atms": 26, 
	 "gaussian": { 
		 "optdone": 1, 
		 "sigma_profile": "yes", 
		 "theory": "DFT", 
		 "functional": "B3LYP", 
		 "basiset": "6-31G**", 
		 "properties": { 
			 "R2extent": 5256.181, 
			 "electric_dipole_moment_norm": 2.60138806601, 
			 "electric_quadrupole_moment_norm": 14.4226108261, 
			 "total_energy": -1546.59844849, 
			 "HOMO_LUMO_gap": 0.18451, 
			 "cosmo_polarized_energy": -21.54, 
			 "cosmo_cavitation_energy": 33.49, 
			 "cosmo_dispersion_energy": -23.35, 
			 "cosmo_repulsion_energy": 1.89, 
			 "cosmo_total_nonelectrostatic_energy": 12.03, 
			 "SMD_solvation_energy": 5.94 
		},
		"coords": [
			{
				"x": 1.6957583485,
				"y": 4.9922720053,
				"z": 1.0571213887,
				"element": "Cl" 
			},
			{
				"x": 1.1242796771,
				"y": 3.2748300299,
				"z": 1.1961356774,
				"element": "C" 
			},
			{
				"x": 1.526836188,
				"y": 2.4694763095,
				"z": -0.0374306493,
				"element": "C" 
			},
			{
				"x": 1.0359461242,
				"y": 1.0873911252,
				"z": 0.0962969603,
				"element": "N" 
			},
			{
				"x": 1.9403422651,
				"y": 0.0627701297,
				"z": -0.4402193845,
				"element": "C" 
			},
			{
				"x": 1.6277931388,
				"y": -1.341905018,
				"z": 0.051773009,
				"element": "C" 
			},
			{
				"x": 1.7667918557,
				"y": -1.5083393784,
				"z": 1.8576746327,
				"element": "Cl" 
			},
			{
				"x": -0.3303690687,
				"y": 0.921115467,
				"z": -0.2665005581,
				"element": "C" 
			},
			{
				"x": -1.2575526207,
				"y": 0.594224347,
				"z": 0.6687943918,
				"element": "C" 
			},
			{
				"x": -2.5861990183,
				"y": 0.4278806102,
				"z": 0.363471056,
				"element": "N" 
			},
			{
				"x": -3.1145409374,
				"y": 0.5746156125,
				"z": -0.9184873064,
				"element": "C" 
			},
			{
				"x": -4.29451308,
				"y": 0.4252987295,
				"z": -1.1703307578,
				"element": "O" 
			},
			{
				"x": -2.1488905128,
				"y": 0.9027732555,
				"z": -1.8591025978,
				"element": "N" 
			},
			{
				"x": -0.7678170304,
				"y": 1.0879365399,
				"z": -1.6640724739,
				"element": "C" 
			},
			{
				"x": -0.0381633817,
				"y": 1.3582828475,
				"z": -2.607575937,
				"element": "O" 
			},
			{
				"x": 0.0405881233,
				"y": 3.3180136083,
				"z": 1.3143733512,
				"element": "H" 
			},
			{
				"x": 1.5695490222,
				"y": 2.8569112795,
				"z": 2.0994603007,
				"element": "H" 
			},
			{
				"x": 1.1629820772,
				"y": 2.9559934967,
				"z": -0.9509574694,
				"element": "H" 
			},
			{
				"x": 2.6178720883,
				"y": 2.4446853075,
				"z": -0.1002049347,
				"element": "H" 
			},
			{
				"x": 1.9209238052,
				"y": 0.0295250972,
				"z": -1.5422411244,
				"element": "H" 
			},
			{
				"x": 2.9566477035,
				"y": 0.3262069267,
				"z": -0.1342135254,
				"element": "H" 
			},
			{
				"x": 2.3323909577,
				"y": -2.0534433574,
				"z": -0.3811515835,
				"element": "H" 
			},
			{
				"x": 0.6131102025,
				"y": -1.6501108693,
				"z": -0.2033062926,
				"element": "H" 
			},
			{
				"x": -0.9730322384,
				"y": 0.4416411852,
				"z": 1.7036527172,
				"element": "H" 
			},
			{
				"x": -3.2585692465,
				"y": 0.1828044644,
				"z": 1.0763111246,
				"element": "H" 
			},
			{
				"x": -2.4850644424,
				"y": 1.0151502489,
				"z": -2.8086700148,
				"element": "H" 
			}
		],
		 "valence_orbital": [ 
			{
				"type": "occ",
				"energy": -0.29806,
				"method": "rhf"
			},
			{
				"type": "occ",
				"energy": -0.29579,
				"method": "rhf"
			},
			{
				"type": "occ",
				"energy": -0.28437,
				"method": "rhf"
			},
			{
				"type": "occ",
				"energy": -0.25902,
				"method": "rhf"
			},
			{
				"type": "occ",
				"energy": -0.23949,
				"method": "rhf"
			},
			{
				"type": "unocc",
				"energy": -0.05498,
				"method": "rhf"
			},
			{
				"type": "unocc",
				"energy": -0.00347,
				"method": "rhf"
			},
			{
				"type": "unocc",
				"energy": 0.01918,
				"method": "rhf"
			},
			{
				"type": "unocc",
				"energy": 0.02428,
				"method": "rhf"
			},
			{
				"type": "unocc",
				"energy": 0.04805,
				"method": "rhf"
			}
		],
		"cosmo_sigma_profile": { 
			"-0.025": 0.0,
			"-0.024": 0.0,
			"-0.023": 0.0,
			"-0.022": 0.0,
			"-0.021": 0.0,
			"-0.02": 0.0,
			"-0.019": 0.0,
			"-0.018": 0.213869605884,
			"-0.017": 1.53552414329,
			"-0.016": 1.79489662152,
			"-0.015": 2.3097966295,
			"-0.014": 2.14042238003,
			"-0.013": 1.4866000259,
			"-0.012": 1.77562180207,
			"-0.011": 2.29307379599,
			"-0.01": 3.01150257264,
			"-0.009": 1.91332246862,
			"-0.008": 2.74007647334,
			"-0.007": 7.85825403256,
			"-0.006": 17.1479382583,
			"-0.005": 21.8921926598,
			"-0.004": 21.055816531,
			"-0.003": 19.3100441704,
			"-0.002": 18.4397690126,
			"-0.001": 11.7824473516,
			"0.0": 10.8878110518,
			"0.001": 10.3635753832,
			"0.002": 10.66221092,
			"0.003": 11.3000790108,
			"0.004": 12.1775651361,
			"0.005": 12.3882451675,
			"0.006": 18.814176848,
			"0.007": 13.4780432332,
			"0.008": 3.58878903,
			"0.009": 3.61156005743,
			"0.01": 2.95444029516,
			"0.011": 4.14948963306,
			"0.012": 9.36522603179,
			"0.013": 6.13630336614,
			"0.014": 0.242491871645,
			"0.015": 0.0,
			"0.016": 0.0,
			"0.017": 0.0,
			"0.018": 0.0,
			"0.019": 0.0,
			"0.02": 0.0,
			"0.021": 0.0,
			"0.022": 0.0,
			"0.023": 0.0,
			"0.024": 0.0,
			"0.025": 0.0
		}
	}
}
