{
	 "smiles": "NC(=O)CC1(CC(O)=O)CCCCC1", 
	 "Tm": 415.15, 
	 "num_atms": 31, 
	 "gaussian": { 
		 "optdone": 1, 
		 "sigma_profile": "yes", 
		 "theory": "DFT", 
		 "functional": "B3LYP", 
		 "basiset": "6-31G**", 
		 "properties": { 
			 "R2extent": 3075.1523, 
			 "electric_dipole_moment_norm": 2.87925893938, 
			 "electric_quadrupole_moment_norm": 14.1657443747, 
			 "total_energy": -671.777000642, 
			 "HOMO_LUMO_gap": 0.22153, 
			 "cosmo_polarized_energy": -14.83, 
			 "cosmo_cavitation_energy": 30.65, 
			 "cosmo_dispersion_energy": -22.02, 
			 "cosmo_repulsion_energy": 1.73, 
			 "cosmo_total_nonelectrostatic_energy": 10.37, 
			 "SMD_solvation_energy": 5.88 
		},
		"coords": [
			{
				"x": 0.1518909994,
				"y": 3.7429451717,
				"z": -0.8790611509,
				"element": "N" 
			},
			{
				"x": 0.8796923075,
				"y": 2.7808997591,
				"z": -0.2378200879,
				"element": "C" 
			},
			{
				"x": 2.0800854435,
				"y": 2.6272744572,
				"z": -0.4388547196,
				"element": "O" 
			},
			{
				"x": 0.1316727642,
				"y": 1.962503431,
				"z": 0.8215528522,
				"element": "C" 
			},
			{
				"x": -0.2178984481,
				"y": 0.4706445923,
				"z": 0.5004600565,
				"element": "C" 
			},
			{
				"x": -1.6399022216,
				"y": 0.342111988,
				"z": -0.1398008949,
				"element": "C" 
			},
			{
				"x": -1.9056993459,
				"y": 1.1548340998,
				"z": -1.3823409596,
				"element": "C" 
			},
			{
				"x": -1.6288483196,
				"y": 0.4815610184,
				"z": -2.5206075089,
				"element": "O" 
			},
			{
				"x": -2.3312986179,
				"y": 2.2961438808,
				"z": -1.4022070534,
				"element": "O" 
			},
			{
				"x": -0.3098941654,
				"y": -0.2853523174,
				"z": 1.866832629,
				"element": "C" 
			},
			{
				"x": 1.0463630222,
				"y": -0.8509942835,
				"z": 2.3035735555,
				"element": "C" 
			},
			{
				"x": 1.5196936649,
				"y": -1.9548333929,
				"z": 1.3287342319,
				"element": "C" 
			},
			{
				"x": 1.0015146695,
				"y": -1.7048058129,
				"z": -0.1068741231,
				"element": "C" 
			},
			{
				"x": 0.8681744365,
				"y": -0.2027336821,
				"z": -0.3915260035,
				"element": "C" 
			},
			{
				"x": 0.6240385178,
				"y": 4.231201704,
				"z": -1.6268551207,
				"element": "H" 
			},
			{
				"x": -0.8568721958,
				"y": 3.6813222286,
				"z": -0.9126896623,
				"element": "H" 
			},
			{
				"x": 0.8174082583,
				"y": 1.9601680019,
				"z": 1.6743717527,
				"element": "H" 
			},
			{
				"x": -0.7780962683,
				"y": 2.4833661661,
				"z": 1.1397262008,
				"element": "H" 
			},
			{
				"x": -2.3824201443,
				"y": 0.6617922289,
				"z": 0.5979191526,
				"element": "H" 
			},
			{
				"x": -1.8180307895,
				"y": -0.7116191844,
				"z": -0.3733198563,
				"element": "H" 
			},
			{
				"x": -1.8144774107,
				"y": 1.0928639834,
				"z": -3.2542554766,
				"element": "H" 
			},
			{
				"x": -1.0226039429,
				"y": -1.1158693051,
				"z": 1.7806710221,
				"element": "H" 
			},
			{
				"x": -0.7215322952,
				"y": 0.3892648327,
				"z": 2.6274632764,
				"element": "H" 
			},
			{
				"x": 1.7840491506,
				"y": -0.0394722259,
				"z": 2.3360555203,
				"element": "H" 
			},
			{
				"x": 0.9819285433,
				"y": -1.2421908028,
				"z": 3.3248680776,
				"element": "H" 
			},
			{
				"x": 2.6149883554,
				"y": -1.9943089546,
				"z": 1.3287938871,
				"element": "H" 
			},
			{
				"x": 1.1755244961,
				"y": -2.9357301256,
				"z": 1.677939523,
				"element": "H" 
			},
			{
				"x": 0.0302255699,
				"y": -2.1982211515,
				"z": -0.2454718295,
				"element": "H" 
			},
			{
				"x": 1.6747911596,
				"y": -2.164646992,
				"z": -0.8383217937,
				"element": "H" 
			},
			{
				"x": 1.8288491899,
				"y": 0.2876735068,
				"z": -0.2116454575,
				"element": "H" 
			},
			{
				"x": 0.6412836167,
				"y": -0.0306928201,
				"z": -1.4485100395,
				"element": "H" 
			}
		],
		 "valence_orbital": [ 
			{
				"type": "occ",
				"energy": -0.30169,
				"method": "rhf"
			},
			{
				"type": "occ",
				"energy": -0.29864,
				"method": "rhf"
			},
			{
				"type": "occ",
				"energy": -0.28471,
				"method": "rhf"
			},
			{
				"type": "occ",
				"energy": -0.25678,
				"method": "rhf"
			},
			{
				"type": "occ",
				"energy": -0.23633,
				"method": "rhf"
			},
			{
				"type": "unocc",
				"energy": -0.0148,
				"method": "rhf"
			},
			{
				"type": "unocc",
				"energy": 0.03241,
				"method": "rhf"
			},
			{
				"type": "unocc",
				"energy": 0.06356,
				"method": "rhf"
			},
			{
				"type": "unocc",
				"energy": 0.08064,
				"method": "rhf"
			},
			{
				"type": "unocc",
				"energy": 0.10426,
				"method": "rhf"
			}
		],
		"cosmo_sigma_profile": { 
			"-0.025": 0.0,
			"-0.024": 0.0,
			"-0.023": 0.0,
			"-0.022": 0.0,
			"-0.021": 0.0,
			"-0.02": 0.0,
			"-0.019": 0.0987057034026,
			"-0.018": 0.717258292874,
			"-0.017": 0.983310331379,
			"-0.016": 0.838080845848,
			"-0.015": 0.935895238961,
			"-0.014": 0.737897484958,
			"-0.013": 1.43963484342,
			"-0.012": 1.93240797985,
			"-0.011": 1.96070686451,
			"-0.01": 1.337460873,
			"-0.009": 1.3015704682,
			"-0.008": 2.35854782967,
			"-0.007": 3.0490804723,
			"-0.006": 3.02993584771,
			"-0.005": 9.39418497269,
			"-0.004": 14.9189446891,
			"-0.003": 20.7659647414,
			"-0.002": 27.844713753,
			"-0.001": 31.3766768136,
			"0.0": 28.6179734818,
			"0.001": 21.2556884099,
			"0.002": 10.531565575,
			"0.003": 5.23787653757,
			"0.004": 4.27049621895,
			"0.005": 4.53815515239,
			"0.006": 4.56726975516,
			"0.007": 4.38636070605,
			"0.008": 4.99390599515,
			"0.009": 4.50461375058,
			"0.01": 2.43714163099,
			"0.011": 4.20509955675,
			"0.012": 2.47875088974,
			"0.013": 2.07288130181,
			"0.014": 5.05067297513,
			"0.015": 2.53155057144,
			"0.016": 0.0225252167281,
			"0.017": 0.0,
			"0.018": 0.0,
			"0.019": 0.0,
			"0.02": 0.0,
			"0.021": 0.0,
			"0.022": 0.0,
			"0.023": 0.0,
			"0.024": 0.0,
			"0.025": 0.0
		}
	}
}
