{
	 "smiles": "OC1=NC2=C(C=C(Cl)C(Cl)=C2)N=C1", 
	 "Tm": 573.15, 
	 "num_atms": 17, 
	 "gaussian": { 
		 "optdone": 1, 
		 "sigma_profile": "yes", 
		 "theory": "DFT", 
		 "functional": "B3LYP", 
		 "basiset": "6-31G**", 
		 "properties": { 
			 "R2extent": 4181.5476, 
			 "electric_dipole_moment_norm": 2.54082562566, 
			 "electric_quadrupole_moment_norm": 3.53949484673, 
			 "total_energy": -1412.37390126, 
			 "HOMO_LUMO_gap": 0.16396, 
			 "cosmo_polarized_energy": -8.31, 
			 "cosmo_cavitation_energy": 25.7, 
			 "cosmo_dispersion_energy": -19.71, 
			 "cosmo_repulsion_energy": 1.54, 
			 "cosmo_total_nonelectrostatic_energy": 7.53, 
			 "SMD_solvation_energy": 1.3 
		},
		"coords": [
			{
				"x": -1.3675597946,
				"y": -3.399873415,
				"z": 0.2688049349,
				"element": "O" 
			},
			{
				"x": -1.359370055,
				"y": -2.1035803822,
				"z": -0.090678808,
				"element": "C" 
			},
			{
				"x": -0.7185251997,
				"y": -1.2310398617,
				"z": 0.6436402796,
				"element": "N" 
			},
			{
				"x": -0.7563745208,
				"y": 0.0657014084,
				"z": 0.2133798718,
				"element": "C" 
			},
			{
				"x": -1.4607609213,
				"y": 0.4249430089,
				"z": -0.9719942816,
				"element": "C" 
			},
			{
				"x": -1.4814042265,
				"y": 1.7740135079,
				"z": -1.3908374698,
				"element": "C" 
			},
			{
				"x": -0.8250557082,
				"y": 2.7413501675,
				"z": -0.6599287045,
				"element": "C" 
			},
			{
				"x": -0.8713081526,
				"y": 4.3982516535,
				"z": -1.2065967617,
				"element": "Cl" 
			},
			{
				"x": -0.1210221078,
				"y": 2.3819944978,
				"z": 0.5249923015,
				"element": "C" 
			},
			{
				"x": 0.7158185544,
				"y": 3.5910064741,
				"z": 1.4639435135,
				"element": "Cl" 
			},
			{
				"x": -0.0893218298,
				"y": 1.0697312506,
				"z": 0.9502530385,
				"element": "C" 
			},
			{
				"x": -2.1202181132,
				"y": -0.5176175409,
				"z": -1.7148444679,
				"element": "N" 
			},
			{
				"x": -2.0715849128,
				"y": -1.7519702867,
				"z": -1.2859586388,
				"element": "C" 
			},
			{
				"x": -0.8481135268,
				"y": -3.46795625,
				"z": 1.0866788616,
				"element": "H" 
			},
			{
				"x": -2.0222400112,
				"y": 2.0282233463,
				"z": -2.2948668264,
				"element": "H" 
			},
			{
				"x": 0.4447390093,
				"y": 0.791053528,
				"z": 1.8508887731,
				"element": "H" 
			},
			{
				"x": -2.5841984833,
				"y": -2.5267311063,
				"z": -1.8513756159,
				"element": "H" 
			}
		],
		 "valence_orbital": [ 
			{
				"type": "occ",
				"energy": -0.3149,
				"method": "rhf"
			},
			{
				"type": "occ",
				"energy": -0.31132,
				"method": "rhf"
			},
			{
				"type": "occ",
				"energy": -0.2727,
				"method": "rhf"
			},
			{
				"type": "occ",
				"energy": -0.25936,
				"method": "rhf"
			},
			{
				"type": "occ",
				"energy": -0.247,
				"method": "rhf"
			},
			{
				"type": "unocc",
				"energy": -0.08304,
				"method": "rhf"
			},
			{
				"type": "unocc",
				"energy": -0.03641,
				"method": "rhf"
			},
			{
				"type": "unocc",
				"energy": -0.01091,
				"method": "rhf"
			},
			{
				"type": "unocc",
				"energy": -0.00304,
				"method": "rhf"
			},
			{
				"type": "unocc",
				"energy": 0.05565,
				"method": "rhf"
			}
		],
		"cosmo_sigma_profile": { 
			"-0.025": 0.0,
			"-0.024": 0.0,
			"-0.023": 0.0,
			"-0.022": 0.0,
			"-0.021": 0.0,
			"-0.02": 0.0,
			"-0.019": 0.0,
			"-0.018": 0.654484126002,
			"-0.017": 1.00457682051,
			"-0.016": 0.812068337355,
			"-0.015": 0.514488283936,
			"-0.014": 0.823569313026,
			"-0.013": 1.00670339726,
			"-0.012": 0.416264162043,
			"-0.011": 0.789914359484,
			"-0.01": 0.685927679576,
			"-0.009": 1.07619315607,
			"-0.008": 5.15748585587,
			"-0.007": 5.44282506425,
			"-0.006": 5.00366159326,
			"-0.005": 5.80664260503,
			"-0.004": 8.42491297785,
			"-0.003": 12.350856724,
			"-0.002": 15.6944237178,
			"-0.001": 22.3917262093,
			"0.0": 28.4647109249,
			"0.001": 19.5466075315,
			"0.002": 14.9831968593,
			"0.003": 18.6184459743,
			"0.004": 18.0969765065,
			"0.005": 6.33479485144,
			"0.006": 3.36239623028,
			"0.007": 2.96091664365,
			"0.008": 3.58942268159,
			"0.009": 2.95594984846,
			"0.01": 1.78304315238,
			"0.011": 1.83441952877,
			"0.012": 0.611873437381,
			"0.013": 0.61724994745,
			"0.014": 0.388936992355,
			"0.015": 0.0,
			"0.016": 0.0,
			"0.017": 0.0,
			"0.018": 0.0,
			"0.019": 0.0,
			"0.02": 0.0,
			"0.021": 0.0,
			"0.022": 0.0,
			"0.023": 0.0,
			"0.024": 0.0,
			"0.025": 0.0
		}
	}
}
