{
	 "smiles": "COC(=O)CCNC1=CC=C(C)C=C1", 
	 "Tm": 333.15, 
	 "num_atms": 29, 
	 "gaussian": { 
		 "optdone": 1, 
		 "sigma_profile": "yes", 
		 "theory": "DFT", 
		 "functional": "B3LYP", 
		 "basiset": "6-31G**", 
		 "properties": { 
			 "R2extent": 4950.5202, 
			 "electric_dipole_moment_norm": 3.16651403439, 
			 "electric_quadrupole_moment_norm": 10.5862035627, 
			 "total_energy": -633.428964894, 
			 "HOMO_LUMO_gap": 0.18174, 
			 "cosmo_polarized_energy": -9.59, 
			 "cosmo_cavitation_energy": 32.33, 
			 "cosmo_dispersion_energy": -23.56, 
			 "cosmo_repulsion_energy": 1.88, 
			 "cosmo_total_nonelectrostatic_energy": 10.65, 
			 "SMD_solvation_energy": 5.81 
		},
		"coords": [
			{
				"x": 0.594266186,
				"y": -3.9826413794,
				"z": 3.2889519093,
				"element": "C" 
			},
			{
				"x": -0.0760218284,
				"y": -3.6952780426,
				"z": 2.0479649823,
				"element": "O" 
			},
			{
				"x": -0.0830757722,
				"y": -2.4006188976,
				"z": 1.6781542525,
				"element": "C" 
			},
			{
				"x": 0.4563786734,
				"y": -1.5219674737,
				"z": 2.3250492637,
				"element": "O" 
			},
			{
				"x": -0.8657920335,
				"y": -2.1917359486,
				"z": 0.3974049771,
				"element": "C" 
			},
			{
				"x": -0.3631816133,
				"y": -1.0188480096,
				"z": -0.4529747149,
				"element": "C" 
			},
			{
				"x": -0.5409677534,
				"y": 0.245395564,
				"z": 0.237264841,
				"element": "N" 
			},
			{
				"x": -0.2460016533,
				"y": 1.4551165212,
				"z": -0.3975522779,
				"element": "C" 
			},
			{
				"x": -0.0973614445,
				"y": 1.5819287423,
				"z": -1.7881858912,
				"element": "C" 
			},
			{
				"x": 0.1444642666,
				"y": 2.8319640483,
				"z": -2.3643064512,
				"element": "C" 
			},
			{
				"x": 0.2595312515,
				"y": 3.9925231062,
				"z": -1.596444179,
				"element": "C" 
			},
			{
				"x": 0.5166417281,
				"y": 5.3415839126,
				"z": -2.2262486045,
				"element": "C" 
			},
			{
				"x": 0.121773006,
				"y": 3.8551752752,
				"z": -0.2052201707,
				"element": "C" 
			},
			{
				"x": -0.1258268807,
				"y": 2.6231409231,
				"z": 0.3838458912,
				"element": "C" 
			},
			{
				"x": 0.1275487244,
				"y": -3.4371725678,
				"z": 4.1127112857,
				"element": "H" 
			},
			{
				"x": 1.6477553524,
				"y": -3.6992720774,
				"z": 3.2297877738,
				"element": "H" 
			},
			{
				"x": 0.4934506229,
				"y": -5.0578399413,
				"z": 3.434040168,
				"element": "H" 
			},
			{
				"x": -1.908983523,
				"y": -2.0054885984,
				"z": 0.6843676185,
				"element": "H" 
			},
			{
				"x": -0.8517043626,
				"y": -3.1191752739,
				"z": -0.1809693222,
				"element": "H" 
			},
			{
				"x": -0.9538903391,
				"y": -1.0080924599,
				"z": -1.3752522474,
				"element": "H" 
			},
			{
				"x": 0.6850847028,
				"y": -1.1985650678,
				"z": -0.7514706893,
				"element": "H" 
			},
			{
				"x": -0.1982602542,
				"y": 0.194470712,
				"z": 1.1904540076,
				"element": "H" 
			},
			{
				"x": -0.1624768046,
				"y": 0.7114408212,
				"z": -2.4318260892,
				"element": "H" 
			},
			{
				"x": 0.254166852,
				"y": 2.8957896986,
				"z": -3.4447865861,
				"element": "H" 
			},
			{
				"x": 0.6946582228,
				"y": 5.2501020794,
				"z": -3.3018860229,
				"element": "H" 
			},
			{
				"x": 1.3919361655,
				"y": 5.8341741141,
				"z": -1.7862982929,
				"element": "H" 
			},
			{
				"x": -0.3336955556,
				"y": 6.0217529131,
				"z": -2.0908188993,
				"element": "H" 
			},
			{
				"x": 0.2105757415,
				"y": 4.7339433116,
				"z": 0.4302542487,
				"element": "H" 
			},
			{
				"x": -0.2358916775,
				"y": 2.5497939952,
				"z": 1.4633892192,
				"element": "H" 
			}
		],
		 "valence_orbital": [ 
			{
				"type": "occ",
				"energy": -0.31321,
				"method": "rhf"
			},
			{
				"type": "occ",
				"energy": -0.28498,
				"method": "rhf"
			},
			{
				"type": "occ",
				"energy": -0.2727,
				"method": "rhf"
			},
			{
				"type": "occ",
				"energy": -0.23323,
				"method": "rhf"
			},
			{
				"type": "occ",
				"energy": -0.18202,
				"method": "rhf"
			},
			{
				"type": "unocc",
				"energy": -0.00028,
				"method": "rhf"
			},
			{
				"type": "unocc",
				"energy": 0.01497,
				"method": "rhf"
			},
			{
				"type": "unocc",
				"energy": 0.0302,
				"method": "rhf"
			},
			{
				"type": "unocc",
				"energy": 0.09622,
				"method": "rhf"
			},
			{
				"type": "unocc",
				"energy": 0.10474,
				"method": "rhf"
			}
		],
		"cosmo_sigma_profile": { 
			"-0.025": 0.0,
			"-0.024": 0.0,
			"-0.023": 0.0,
			"-0.022": 0.0,
			"-0.021": 0.0,
			"-0.02": 0.0,
			"-0.019": 0.0,
			"-0.018": 0.0,
			"-0.017": 0.0,
			"-0.016": 0.0,
			"-0.015": 0.0,
			"-0.014": 0.0,
			"-0.013": 0.0,
			"-0.012": 0.0,
			"-0.011": 0.0,
			"-0.01": 0.0,
			"-0.009": 0.0,
			"-0.008": 0.372362378554,
			"-0.007": 2.89358140949,
			"-0.006": 11.7869103765,
			"-0.005": 20.0100547518,
			"-0.004": 28.1947763765,
			"-0.003": 32.8881580859,
			"-0.002": 23.0099021563,
			"-0.001": 20.337392655,
			"0.0": 18.1214352242,
			"0.001": 16.4196219065,
			"0.002": 11.4838507195,
			"0.003": 9.69638209233,
			"0.004": 9.72577569848,
			"0.005": 9.85294526791,
			"0.006": 10.5585463545,
			"0.007": 11.65430896,
			"0.008": 7.20990495109,
			"0.009": 3.26184773188,
			"0.01": 2.51776100289,
			"0.011": 3.06562581209,
			"0.012": 1.46760814511,
			"0.013": 0.258791727441,
			"0.014": 0.0,
			"0.015": 0.0,
			"0.016": 0.0,
			"0.017": 0.0,
			"0.018": 0.0,
			"0.019": 0.0,
			"0.02": 0.0,
			"0.021": 0.0,
			"0.022": 0.0,
			"0.023": 0.0,
			"0.024": 0.0,
			"0.025": 0.0
		}
	}
}
