{
	 "smiles": "ClC1=CC=C(C=C1)C1=CSC(NC(=O)C2=CC=CC=C2)=N1", 
	 "Tm": 393.15, 
	 "num_atms": 32, 
	 "gaussian": { 
		 "optdone": 1, 
		 "sigma_profile": "yes", 
		 "theory": "DFT", 
		 "functional": "B3LYP", 
		 "basiset": "6-31G**", 
		 "properties": { 
			 "R2extent": 14307.6273, 
			 "electric_dipole_moment_norm": 4.01826274651, 
			 "electric_quadrupole_moment_norm": 25.1892419894, 
			 "total_energy": -1659.46265451, 
			 "HOMO_LUMO_gap": 0.15021, 
			 "cosmo_polarized_energy": -14.41, 
			 "cosmo_cavitation_energy": 40.81, 
			 "cosmo_dispersion_energy": -30.77, 
			 "cosmo_repulsion_energy": 2.27, 
			 "cosmo_total_nonelectrostatic_energy": 12.31, 
			 "SMD_solvation_energy": 5.66 
		},
		"coords": [
			{
				"x": 7.1179718836,
				"y": 1.1488660624,
				"z": -4.9847576796,
				"element": "Cl" 
			},
			{
				"x": 5.6127024136,
				"y": 0.5957206568,
				"z": -4.2632215555,
				"element": "C" 
			},
			{
				"x": 5.2367369854,
				"y": 1.0655265638,
				"z": -3.0061216289,
				"element": "C" 
			},
			{
				"x": 4.0429490056,
				"y": 0.622249928,
				"z": -2.4417877002,
				"element": "C" 
			},
			{
				"x": 3.2133289346,
				"y": -0.2880651145,
				"z": -3.1165609253,
				"element": "C" 
			},
			{
				"x": 3.6193268664,
				"y": -0.743476553,
				"z": -4.3820808844,
				"element": "C" 
			},
			{
				"x": 4.8094726653,
				"y": -0.3091247975,
				"z": -4.9580006589,
				"element": "C" 
			},
			{
				"x": 1.9549824673,
				"y": -0.7383071375,
				"z": -2.4923054933,
				"element": "C" 
			},
			{
				"x": 1.0410941695,
				"y": -1.6151525376,
				"z": -3.0177667727,
				"element": "C" 
			},
			{
				"x": -0.3004196023,
				"y": -1.8542297316,
				"z": -1.9375619992,
				"element": "S" 
			},
			{
				"x": 0.4866367882,
				"y": -0.7416652734,
				"z": -0.8336202049,
				"element": "C" 
			},
			{
				"x": -0.0376312113,
				"y": -0.3891189871,
				"z": 0.3999586621,
				"element": "N" 
			},
			{
				"x": -1.2415174609,
				"y": -0.8332525906,
				"z": 0.9108242434,
				"element": "C" 
			},
			{
				"x": -1.9597183832,
				"y": -1.5885780789,
				"z": 0.2630524637,
				"element": "O" 
			},
			{
				"x": -1.6133837056,
				"y": -0.3314833267,
				"z": 2.2693830194,
				"element": "C" 
			},
			{
				"x": -0.6893144169,
				"y": 0.196397777,
				"z": 3.1837400476,
				"element": "C" 
			},
			{
				"x": -1.1150757263,
				"y": 0.6382179334,
				"z": 4.4357798048,
				"element": "C" 
			},
			{
				"x": -2.464667595,
				"y": 0.5573925796,
				"z": 4.7846946634,
				"element": "C" 
			},
			{
				"x": -3.3875576225,
				"y": 0.021350136,
				"z": 3.8828201858,
				"element": "C" 
			},
			{
				"x": -2.9639231007,
				"y": -0.4267628414,
				"z": 2.6345608663,
				"element": "C" 
			},
			{
				"x": 1.6206185485,
				"y": -0.2485429444,
				"z": -1.2394582023,
				"element": "N" 
			},
			{
				"x": 5.8703398805,
				"y": 1.7687878579,
				"z": -2.4768434212,
				"element": "H" 
			},
			{
				"x": 3.7383155235,
				"y": 0.9793866725,
				"z": -1.4649222158,
				"element": "H" 
			},
			{
				"x": 3.0036299876,
				"y": -1.4475866161,
				"z": -4.9329009939,
				"element": "H" 
			},
			{
				"x": 5.1133183511,
				"y": -0.6671255072,
				"z": -5.9354188898,
				"element": "H" 
			},
			{
				"x": 1.0659689443,
				"y": -2.1309970101,
				"z": -3.9662897461,
				"element": "H" 
			},
			{
				"x": 0.5063609534,
				"y": 0.3072411994,
				"z": 0.8901125117,
				"element": "H" 
			},
			{
				"x": 0.3707699662,
				"y": 0.2347001676,
				"z": 2.9482034006,
				"element": "H" 
			},
			{
				"x": -0.392116642,
				"y": 1.0374780265,
				"z": 5.14064581,
				"element": "H" 
			},
			{
				"x": -2.7944340162,
				"y": 0.9044553385,
				"z": 5.7595455168,
				"element": "H" 
			},
			{
				"x": -4.4366000177,
				"y": -0.0485020179,
				"z": 4.1543397879,
				"element": "H" 
			},
			{
				"x": -3.660864834,
				"y": -0.8551998343,
				"z": 1.9225579887,
				"element": "H" 
			}
		],
		 "valence_orbital": [ 
			{
				"type": "occ",
				"energy": -0.27359,
				"method": "rhf"
			},
			{
				"type": "occ",
				"energy": -0.26791,
				"method": "rhf"
			},
			{
				"type": "occ",
				"energy": -0.26112,
				"method": "rhf"
			},
			{
				"type": "occ",
				"energy": -0.25258,
				"method": "rhf"
			},
			{
				"type": "occ",
				"energy": -0.21117,
				"method": "rhf"
			},
			{
				"type": "unocc",
				"energy": -0.06096,
				"method": "rhf"
			},
			{
				"type": "unocc",
				"energy": -0.03681,
				"method": "rhf"
			},
			{
				"type": "unocc",
				"energy": -0.02238,
				"method": "rhf"
			},
			{
				"type": "unocc",
				"energy": -0.01106,
				"method": "rhf"
			},
			{
				"type": "unocc",
				"energy": 0.00178,
				"method": "rhf"
			}
		],
		"cosmo_sigma_profile": { 
			"-0.025": 0.0,
			"-0.024": 0.0,
			"-0.023": 0.0,
			"-0.022": 0.0,
			"-0.021": 0.0,
			"-0.02": 0.0,
			"-0.019": 0.0,
			"-0.018": 0.0,
			"-0.017": 0.0,
			"-0.016": 0.22371235334,
			"-0.015": 1.35161306402,
			"-0.014": 0.846651808197,
			"-0.013": 0.950467385578,
			"-0.012": 1.52590613458,
			"-0.011": 0.837483579997,
			"-0.01": 2.46504887717,
			"-0.009": 3.99588696,
			"-0.008": 4.50441371689,
			"-0.007": 9.32334156602,
			"-0.006": 17.6269645025,
			"-0.005": 18.9017277895,
			"-0.004": 17.7015174009,
			"-0.003": 17.0205903434,
			"-0.002": 19.0596313703,
			"-0.001": 19.8462468206,
			"0.0": 24.5027190852,
			"0.001": 26.423243139,
			"0.002": 34.9088260982,
			"0.003": 43.8018660955,
			"0.004": 34.2268595934,
			"0.005": 11.7050068357,
			"0.006": 4.14529705527,
			"0.007": 3.34750820297,
			"0.008": 3.56800532808,
			"0.009": 3.23796118418,
			"0.01": 2.28255465271,
			"0.011": 2.68862737759,
			"0.012": 2.38262087003,
			"0.013": 0.357440790142,
			"0.014": 0.0,
			"0.015": 0.0,
			"0.016": 0.0,
			"0.017": 0.0,
			"0.018": 0.0,
			"0.019": 0.0,
			"0.02": 0.0,
			"0.021": 0.0,
			"0.022": 0.0,
			"0.023": 0.0,
			"0.024": 0.0,
			"0.025": 0.0
		}
	}
}
