{
	 "smiles": "BrC(C(=O)C1=CC=CC=C1)C1=CC=CC=C1", 
	 "Tm": 328.65, 
	 "num_atms": 27, 
	 "gaussian": { 
		 "optdone": 1, 
		 "sigma_profile": "yes", 
		 "theory": "DFT", 
		 "functional": "B3LYP", 
		 "basiset": "6-31G**", 
		 "properties": { 
			 "R2extent": 5288.5148, 
			 "electric_dipole_moment_norm": 3.0777011762, 
			 "electric_quadrupole_moment_norm": 9.73299587126, 
			 "total_energy": -3186.7446738, 
			 "HOMO_LUMO_gap": 0.17813, 
			 "cosmo_polarized_energy": -8.03, 
			 "cosmo_cavitation_energy": 32.82, 
			 "cosmo_dispersion_energy": -23.43, 
			 "cosmo_repulsion_energy": 1.83, 
			 "cosmo_total_nonelectrostatic_energy": 11.22, 
			 "SMD_solvation_energy": 4.89 
		},
		"coords": [
			{
				"x": -0.6540417399,
				"y": -1.2056100047,
				"z": 3.2445325126,
				"element": "Br" 
			},
			{
				"x": 1.0017038763,
				"y": -0.602056934,
				"z": 2.3172603556,
				"element": "C" 
			},
			{
				"x": 1.4189728593,
				"y": -1.6745328703,
				"z": 1.2879761379,
				"element": "C" 
			},
			{
				"x": 2.4914876008,
				"y": -2.2274638014,
				"z": 1.4811180775,
				"element": "O" 
			},
			{
				"x": 0.5852716225,
				"y": -1.9967317683,
				"z": 0.0919232351,
				"element": "C" 
			},
			{
				"x": -0.5934985144,
				"y": -1.3132000094,
				"z": -0.2459653018,
				"element": "C" 
			},
			{
				"x": -1.3023607865,
				"y": -1.6654676332,
				"z": -1.3932615643,
				"element": "C" 
			},
			{
				"x": -0.8480552837,
				"y": -2.7033306726,
				"z": -2.2094920174,
				"element": "C" 
			},
			{
				"x": 0.3241699168,
				"y": -3.3899377663,
				"z": -1.8794865653,
				"element": "C" 
			},
			{
				"x": 1.0370246991,
				"y": -3.0368132018,
				"z": -0.7385793338,
				"element": "C" 
			},
			{
				"x": 0.949559322,
				"y": 0.8140198682,
				"z": 1.7662457045,
				"element": "C" 
			},
			{
				"x": -0.0932839091,
				"y": 1.7148444114,
				"z": 2.001203817,
				"element": "C" 
			},
			{
				"x": -0.0332792907,
				"y": 3.0141826212,
				"z": 1.4916897695,
				"element": "C" 
			},
			{
				"x": 1.0680967981,
				"y": 3.4306293457,
				"z": 0.7452314998,
				"element": "C" 
			},
			{
				"x": 2.1171224128,
				"y": 2.5386179604,
				"z": 0.5127027777,
				"element": "C" 
			},
			{
				"x": 2.0604702433,
				"y": 1.2417926265,
				"z": 1.0195992215,
				"element": "C" 
			},
			{
				"x": 1.7515380056,
				"y": -0.6696673477,
				"z": 3.1050957931,
				"element": "H" 
			},
			{
				"x": -0.9576808569,
				"y": -0.5067236604,
				"z": 0.3777784227,
				"element": "H" 
			},
			{
				"x": -2.2114663928,
				"y": -1.1295275035,
				"z": -1.6490337167,
				"element": "H" 
			},
			{
				"x": -1.4056937639,
				"y": -2.9765363332,
				"z": -3.1009225528,
				"element": "H" 
			},
			{
				"x": 0.6796638591,
				"y": -4.1975112765,
				"z": -2.5126387678,
				"element": "H" 
			},
			{
				"x": 1.9511728819,
				"y": -3.5522853413,
				"z": -0.4648939784,
				"element": "H" 
			},
			{
				"x": -0.9516193817,
				"y": 1.4006449935,
				"z": 2.5842208563,
				"element": "H" 
			},
			{
				"x": -0.8530996602,
				"y": 3.7004048629,
				"z": 1.6837300431,
				"element": "H" 
			},
			{
				"x": 1.1114984015,
				"y": 4.4411165521,
				"z": 0.3497302722,
				"element": "H" 
			},
			{
				"x": 2.9830963812,
				"y": 2.8509762313,
				"z": -0.0636402628,
				"element": "H" 
			},
			{
				"x": 2.8859306995,
				"y": 0.5585666511,
				"z": 0.839775565,
				"element": "H" 
			}
		],
		 "valence_orbital": [ 
			{
				"type": "occ",
				"energy": -0.26824,
				"method": "rhf"
			},
			{
				"type": "occ",
				"energy": -0.26033,
				"method": "rhf"
			},
			{
				"type": "occ",
				"energy": -0.25913,
				"method": "rhf"
			},
			{
				"type": "occ",
				"energy": -0.25742,
				"method": "rhf"
			},
			{
				"type": "occ",
				"energy": -0.24775,
				"method": "rhf"
			},
			{
				"type": "unocc",
				"energy": -0.06962,
				"method": "rhf"
			},
			{
				"type": "unocc",
				"energy": -0.01866,
				"method": "rhf"
			},
			{
				"type": "unocc",
				"energy": -0.01416,
				"method": "rhf"
			},
			{
				"type": "unocc",
				"energy": -0.00957,
				"method": "rhf"
			},
			{
				"type": "unocc",
				"energy": -0.00523,
				"method": "rhf"
			}
		],
		"cosmo_sigma_profile": { 
			"-0.025": 0.0,
			"-0.024": 0.0,
			"-0.023": 0.0,
			"-0.022": 0.0,
			"-0.021": 0.0,
			"-0.02": 0.0,
			"-0.019": 0.0,
			"-0.018": 0.0,
			"-0.017": 0.0,
			"-0.016": 0.0,
			"-0.015": 0.0,
			"-0.014": 0.0,
			"-0.013": 0.0,
			"-0.012": 0.0,
			"-0.011": 0.0,
			"-0.01": 0.0,
			"-0.009": 0.200505883416,
			"-0.008": 1.22278493133,
			"-0.007": 3.97315929721,
			"-0.006": 15.6039551392,
			"-0.005": 21.4879928197,
			"-0.004": 23.7776385678,
			"-0.003": 18.1865653051,
			"-0.002": 18.843463959,
			"-0.001": 17.6668314098,
			"0.0": 19.045227875,
			"0.001": 21.5847744456,
			"0.002": 24.799372029,
			"0.003": 26.7853166197,
			"0.004": 27.7707171186,
			"0.005": 12.0787877558,
			"0.006": 1.5828875269,
			"0.007": 1.52854050132,
			"0.008": 1.84380762814,
			"0.009": 1.34338126383,
			"0.01": 3.15066213651,
			"0.011": 3.32666875196,
			"0.012": 0.59546012235,
			"0.013": 0.0,
			"0.014": 0.0,
			"0.015": 0.0,
			"0.016": 0.0,
			"0.017": 0.0,
			"0.018": 0.0,
			"0.019": 0.0,
			"0.02": 0.0,
			"0.021": 0.0,
			"0.022": 0.0,
			"0.023": 0.0,
			"0.024": 0.0,
			"0.025": 0.0
		}
	}
}
