{
	 "smiles": "CC1=CC=C(C=C1)C(=O)C1=NN2C(S1)=NC(=O)C1=CC=CC=C21", 
	 "Tm": 484.15, 
	 "num_atms": 34, 
	 "gaussian": { 
		 "optdone": 1, 
		 "sigma_profile": "yes", 
		 "theory": "DFT", 
		 "functional": "B3LYP", 
		 "basiset": "6-31G**", 
		 "properties": { 
			 "R2extent": 11404.9104, 
			 "electric_dipole_moment_norm": 8.83757566191, 
			 "electric_quadrupole_moment_norm": 31.3372973358, 
			 "total_energy": -1367.31919452, 
			 "HOMO_LUMO_gap": 0.13261, 
			 "cosmo_polarized_energy": -18.25, 
			 "cosmo_cavitation_energy": 41.09, 
			 "cosmo_dispersion_energy": -30.25, 
			 "cosmo_repulsion_energy": 2.18, 
			 "cosmo_total_nonelectrostatic_energy": 13.02, 
			 "SMD_solvation_energy": 5.53 
		},
		"coords": [
			{
				"x": 3.4434711826,
				"y": -3.1784894837,
				"z": -1.9798773301,
				"element": "C" 
			},
			{
				"x": 2.605666622,
				"y": -1.9242861212,
				"z": -1.9782306357,
				"element": "C" 
			},
			{
				"x": 1.5755592123,
				"y": -1.7419218598,
				"z": -1.046297436,
				"element": "C" 
			},
			{
				"x": 0.8185106513,
				"y": -0.573014159,
				"z": -1.0219766577,
				"element": "C" 
			},
			{
				"x": 1.0741791086,
				"y": 0.4516059654,
				"z": -1.9475219132,
				"element": "C" 
			},
			{
				"x": 2.0962210936,
				"y": 0.2667953664,
				"z": -2.8976824092,
				"element": "C" 
			},
			{
				"x": 2.8501063681,
				"y": -0.8976856662,
				"z": -2.9060810398,
				"element": "C" 
			},
			{
				"x": 0.305108909,
				"y": 1.7180780131,
				"z": -2.0356281323,
				"element": "C" 
			},
			{
				"x": 0.3741742937,
				"y": 2.4556172341,
				"z": -3.0150062438,
				"element": "O" 
			},
			{
				"x": -0.5924536429,
				"y": 2.1935473723,
				"z": -0.9355579294,
				"element": "C" 
			},
			{
				"x": -0.7016227774,
				"y": 1.6990320305,
				"z": 0.2580556823,
				"element": "N" 
			},
			{
				"x": -1.5825312822,
				"y": 2.4196450724,
				"z": 0.9946453903,
				"element": "N" 
			},
			{
				"x": -2.1960312556,
				"y": 3.5132753094,
				"z": 0.3839264657,
				"element": "C" 
			},
			{
				"x": -1.5658407982,
				"y": 3.6303538014,
				"z": -1.2658209613,
				"element": "S" 
			},
			{
				"x": -3.0599672724,
				"y": 4.3064742732,
				"z": 0.9082809455,
				"element": "N" 
			},
			{
				"x": -3.4600117471,
				"y": 4.0869887705,
				"z": 2.238819225,
				"element": "C" 
			},
			{
				"x": -4.2860527411,
				"y": 4.8059332416,
				"z": 2.7770215666,
				"element": "O" 
			},
			{
				"x": -2.8280697651,
				"y": 2.9415482913,
				"z": 2.9601313177,
				"element": "C" 
			},
			{
				"x": -3.1679877759,
				"y": 2.6750969707,
				"z": 4.293536849,
				"element": "C" 
			},
			{
				"x": -2.5824225047,
				"y": 1.6152702471,
				"z": 4.9731916224,
				"element": "C" 
			},
			{
				"x": -1.6404761117,
				"y": 0.8025308128,
				"z": 4.3243296196,
				"element": "C" 
			},
			{
				"x": -1.2830863771,
				"y": 1.0405579234,
				"z": 3.0025468931,
				"element": "C" 
			},
			{
				"x": -1.884772808,
				"y": 2.1109748874,
				"z": 2.3301298257,
				"element": "C" 
			},
			{
				"x": 3.6441264218,
				"y": -3.5227931914,
				"z": -2.9992834384,
				"element": "H" 
			},
			{
				"x": 4.4152791884,
				"y": -2.9988488806,
				"z": -1.5034344457,
				"element": "H" 
			},
			{
				"x": 2.9542819109,
				"y": -3.989797413,
				"z": -1.434302057,
				"element": "H" 
			},
			{
				"x": 1.3590691314,
				"y": -2.5305507435,
				"z": -0.3305750529,
				"element": "H" 
			},
			{
				"x": 0.0253079425,
				"y": -0.4630203633,
				"z": -0.294210167,
				"element": "H" 
			},
			{
				"x": 2.277857316,
				"y": 1.0543531078,
				"z": -3.6208943824,
				"element": "H" 
			},
			{
				"x": 3.6390241441,
				"y": -1.0206036656,
				"z": -3.6436367859,
				"element": "H" 
			},
			{
				"x": -3.8981189433,
				"y": 3.3265749849,
				"z": 4.7616413836,
				"element": "H" 
			},
			{
				"x": -2.8501629982,
				"y": 1.4150018322,
				"z": 6.0058539503,
				"element": "H" 
			},
			{
				"x": -1.1799312659,
				"y": -0.024031295,
				"z": 4.8571410984,
				"element": "H" 
			},
			{
				"x": -0.5529034296,
				"y": 0.4243873342,
				"z": 2.4924651828,
				"element": "H" 
			}
		],
		 "valence_orbital": [ 
			{
				"type": "occ",
				"energy": -0.27249,
				"method": "rhf"
			},
			{
				"type": "occ",
				"energy": -0.27192,
				"method": "rhf"
			},
			{
				"type": "occ",
				"energy": -0.26488,
				"method": "rhf"
			},
			{
				"type": "occ",
				"energy": -0.24961,
				"method": "rhf"
			},
			{
				"type": "occ",
				"energy": -0.23672,
				"method": "rhf"
			},
			{
				"type": "unocc",
				"energy": -0.10411,
				"method": "rhf"
			},
			{
				"type": "unocc",
				"energy": -0.05492,
				"method": "rhf"
			},
			{
				"type": "unocc",
				"energy": -0.03811,
				"method": "rhf"
			},
			{
				"type": "unocc",
				"energy": -0.03393,
				"method": "rhf"
			},
			{
				"type": "unocc",
				"energy": -0.02079,
				"method": "rhf"
			}
		],
		"cosmo_sigma_profile": { 
			"-0.025": 0.0,
			"-0.024": 0.0,
			"-0.023": 0.0,
			"-0.022": 0.0,
			"-0.021": 0.0,
			"-0.02": 0.0,
			"-0.019": 0.0,
			"-0.018": 0.0,
			"-0.017": 0.0,
			"-0.016": 0.0,
			"-0.015": 0.0,
			"-0.014": 0.0,
			"-0.013": 0.0,
			"-0.012": 0.0,
			"-0.011": 0.0,
			"-0.01": 0.0,
			"-0.009": 0.0585678083746,
			"-0.008": 1.48308985749,
			"-0.007": 10.018037851,
			"-0.006": 18.7062282841,
			"-0.005": 29.1492993076,
			"-0.004": 28.2636271105,
			"-0.003": 26.0449250061,
			"-0.002": 28.9228358506,
			"-0.001": 31.7227578372,
			"0.0": 30.079777146,
			"0.001": 26.8487359644,
			"0.002": 25.2916467382,
			"0.003": 23.7259897567,
			"0.004": 9.89958673753,
			"0.005": 3.91149979108,
			"0.006": 3.57395994145,
			"0.007": 3.78300799947,
			"0.008": 4.38222022472,
			"0.009": 3.78200553754,
			"0.01": 5.76865976517,
			"0.011": 3.95243113914,
			"0.012": 4.52291097329,
			"0.013": 5.37848817715,
			"0.014": 3.54872688894,
			"0.015": 1.43540122328,
			"0.016": 0.0,
			"0.017": 0.0,
			"0.018": 0.0,
			"0.019": 0.0,
			"0.02": 0.0,
			"0.021": 0.0,
			"0.022": 0.0,
			"0.023": 0.0,
			"0.024": 0.0,
			"0.025": 0.0
		}
	}
}
