{
	 "smiles": "CC(=O)CC(C1=CC=C(C=C1)[N+]([O-])=O)C1=C(O)OC2=CC=CC=C2C1=O", 
	 "Tm": 470.15, 
	 "num_atms": 41, 
	 "gaussian": { 
		 "optdone": 1, 
		 "sigma_profile": "yes", 
		 "theory": "DFT", 
		 "functional": "B3LYP", 
		 "basiset": "6-31G**", 
		 "properties": { 
			 "R2extent": 11367.022, 
			 "electric_dipole_moment_norm": 7.98723745359, 
			 "electric_quadrupole_moment_norm": 46.2343518369, 
			 "total_energy": -1239.05848349, 
			 "HOMO_LUMO_gap": 0.1576, 
			 "cosmo_polarized_energy": -25.51, 
			 "cosmo_cavitation_energy": 46.3, 
			 "cosmo_dispersion_energy": -31.87, 
			 "cosmo_repulsion_energy": 2.41, 
			 "cosmo_total_nonelectrostatic_energy": 16.83, 
			 "SMD_solvation_energy": 11.91 
		},
		"coords": [
			{
				"x": 1.6287112269,
				"y": -2.8769625797,
				"z": -2.201670704,
				"element": "C" 
			},
			{
				"x": 1.4423378505,
				"y": -1.7757614547,
				"z": -1.170633556,
				"element": "C" 
			},
			{
				"x": 2.1171473624,
				"y": -1.7271608506,
				"z": -0.1605204905,
				"element": "O" 
			},
			{
				"x": 0.365057582,
				"y": -0.7407218627,
				"z": -1.4837821536,
				"element": "C" 
			},
			{
				"x": 0.1917039718,
				"y": 0.3207003319,
				"z": -0.3843883937,
				"element": "C" 
			},
			{
				"x": -0.6365815135,
				"y": 1.5286564787,
				"z": -0.8198685238,
				"element": "C" 
			},
			{
				"x": -1.7226973201,
				"y": 1.4262814107,
				"z": -1.7030753682,
				"element": "C" 
			},
			{
				"x": -2.4658227553,
				"y": 2.5485487025,
				"z": -2.0600056191,
				"element": "C" 
			},
			{
				"x": -2.1155447034,
				"y": 3.7846149618,
				"z": -1.5217997744,
				"element": "C" 
			},
			{
				"x": -1.0459677951,
				"y": 3.9225126634,
				"z": -0.6377464162,
				"element": "C" 
			},
			{
				"x": -0.3134416533,
				"y": 2.791617808,
				"z": -0.2934982644,
				"element": "C" 
			},
			{
				"x": -2.8944206864,
				"y": 4.9720354336,
				"z": -1.8960893859,
				"element": "N" 
			},
			{
				"x": -3.8351132544,
				"y": 4.8181572853,
				"z": -2.6767039334,
				"element": "O" 
			},
			{
				"x": -2.5631364501,
				"y": 6.0524786997,
				"z": -1.4072753431,
				"element": "O" 
			},
			{
				"x": -0.3108404233,
				"y": -0.2143780419,
				"z": 0.9510826499,
				"element": "C" 
			},
			{
				"x": -1.3946864071,
				"y": -1.0194900564,
				"z": 1.0945345799,
				"element": "C" 
			},
			{
				"x": -2.1553406391,
				"y": -1.438523629,
				"z": 0.0666191448,
				"element": "O" 
			},
			{
				"x": -1.8639103339,
				"y": -1.5120297611,
				"z": 2.2646213682,
				"element": "O" 
			},
			{
				"x": -1.2141328378,
				"y": -1.1922687875,
				"z": 3.4416194054,
				"element": "C" 
			},
			{
				"x": -1.7195315912,
				"y": -1.7486796984,
				"z": 4.6166500352,
				"element": "C" 
			},
			{
				"x": -1.0888910533,
				"y": -1.4399980075,
				"z": 5.817055807,
				"element": "C" 
			},
			{
				"x": 0.0262200581,
				"y": -0.5872893091,
				"z": 5.8408295879,
				"element": "C" 
			},
			{
				"x": 0.5087146267,
				"y": -0.042042375,
				"z": 4.6591280495,
				"element": "C" 
			},
			{
				"x": -0.1076704394,
				"y": -0.3411249302,
				"z": 3.4339384838,
				"element": "C" 
			},
			{
				"x": 0.3851906691,
				"y": 0.2350992432,
				"z": 2.1599243469,
				"element": "C" 
			},
			{
				"x": 1.3095614285,
				"y": 1.0503983274,
				"z": 2.1362169482,
				"element": "O" 
			},
			{
				"x": 0.7190596214,
				"y": -3.4848869348,
				"z": -2.2749387541,
				"element": "H" 
			},
			{
				"x": 2.4669432347,
				"y": -3.5123126567,
				"z": -1.9127997233,
				"element": "H" 
			},
			{
				"x": 1.8096695858,
				"y": -2.4542930977,
				"z": -3.1964095222,
				"element": "H" 
			},
			{
				"x": -0.5647911995,
				"y": -1.2751136209,
				"z": -1.704862222,
				"element": "H" 
			},
			{
				"x": 0.6496752508,
				"y": -0.2459168116,
				"z": -2.423065155,
				"element": "H" 
			},
			{
				"x": 1.1919869996,
				"y": 0.6919305503,
				"z": -0.1434861377,
				"element": "H" 
			},
			{
				"x": -1.9992739914,
				"y": 0.4626651246,
				"z": -2.1163987139,
				"element": "H" 
			},
			{
				"x": -3.304055144,
				"y": 2.4843618735,
				"z": -2.7425338292,
				"element": "H" 
			},
			{
				"x": -0.8042911838,
				"y": 4.9009360497,
				"z": -0.2416275142,
				"element": "H" 
			},
			{
				"x": 0.5165443923,
				"y": 2.8723012461,
				"z": 0.4017801786,
				"element": "H" 
			},
			{
				"x": -2.8699536458,
				"y": -1.9892582758,
				"z": 0.4205398034,
				"element": "H" 
			},
			{
				"x": -2.5835336685,
				"y": -2.4030619709,
				"z": 4.5736668012,
				"element": "H" 
			},
			{
				"x": -1.4671837911,
				"y": -1.8648517463,
				"z": 6.7418764917,
				"element": "H" 
			},
			{
				"x": 0.5084768336,
				"y": -0.3550891595,
				"z": 6.7850911806,
				"element": "H" 
			},
			{
				"x": 1.3652117864,
				"y": 0.6235194273,
				"z": 4.6383046355,
				"element": "H" 
			}
		],
		 "valence_orbital": [ 
			{
				"type": "occ",
				"energy": -0.26818,
				"method": "rhf"
			},
			{
				"type": "occ",
				"energy": -0.26391,
				"method": "rhf"
			},
			{
				"type": "occ",
				"energy": -0.25241,
				"method": "rhf"
			},
			{
				"type": "occ",
				"energy": -0.24822,
				"method": "rhf"
			},
			{
				"type": "occ",
				"energy": -0.23743,
				"method": "rhf"
			},
			{
				"type": "unocc",
				"energy": -0.07983,
				"method": "rhf"
			},
			{
				"type": "unocc",
				"energy": -0.05564,
				"method": "rhf"
			},
			{
				"type": "unocc",
				"energy": -0.02329,
				"method": "rhf"
			},
			{
				"type": "unocc",
				"energy": -0.01971,
				"method": "rhf"
			},
			{
				"type": "unocc",
				"energy": -0.0154,
				"method": "rhf"
			}
		],
		"cosmo_sigma_profile": { 
			"-0.025": 0.0,
			"-0.024": 0.0,
			"-0.023": 0.0,
			"-0.022": 0.0,
			"-0.021": 0.0,
			"-0.02": 0.357505180102,
			"-0.019": 1.01516928231,
			"-0.018": 0.668775231635,
			"-0.017": 0.89353409955,
			"-0.016": 0.785740456314,
			"-0.015": 0.680901691942,
			"-0.014": 0.822183524743,
			"-0.013": 0.776053003585,
			"-0.012": 0.874811691273,
			"-0.011": 0.846297457065,
			"-0.01": 0.424319259977,
			"-0.009": 0.600037225899,
			"-0.008": 2.14350369652,
			"-0.007": 11.718692553,
			"-0.006": 23.6009200888,
			"-0.005": 26.9324356336,
			"-0.004": 27.6734090819,
			"-0.003": 28.3021050453,
			"-0.002": 24.1229182432,
			"-0.001": 29.6289648618,
			"0.0": 28.5297233234,
			"0.001": 28.3528685584,
			"0.002": 32.3134370177,
			"0.003": 21.0636798893,
			"0.004": 10.0668571436,
			"0.005": 5.95057557178,
			"0.006": 6.65446884429,
			"0.007": 10.2882514407,
			"0.008": 12.1382481477,
			"0.009": 7.98162192013,
			"0.01": 8.16668409028,
			"0.011": 5.71595818711,
			"0.012": 5.09765666226,
			"0.013": 4.31873853432,
			"0.014": 0.810774184642,
			"0.015": 0.0,
			"0.016": 0.0,
			"0.017": 0.0,
			"0.018": 0.0,
			"0.019": 0.0,
			"0.02": 0.0,
			"0.021": 0.0,
			"0.022": 0.0,
			"0.023": 0.0,
			"0.024": 0.0,
			"0.025": 0.0
		}
	}
}
