{
	 "smiles": "NC1=CC=C(C=C1)C(=O)NCCO", 
	 "Tm": 389.15, 
	 "num_atms": 25, 
	 "gaussian": { 
		 "optdone": 1, 
		 "sigma_profile": "yes", 
		 "theory": "DFT", 
		 "functional": "B3LYP", 
		 "basiset": "6-31G**", 
		 "properties": { 
			 "R2extent": 3736.1605, 
			 "electric_dipole_moment_norm": 5.24063836379, 
			 "electric_quadrupole_moment_norm": 22.7702544735, 
			 "total_energy": -610.145283804, 
			 "HOMO_LUMO_gap": 0.19149, 
			 "cosmo_polarized_energy": -21.25, 
			 "cosmo_cavitation_energy": 28.39, 
			 "cosmo_dispersion_energy": -20.86, 
			 "cosmo_repulsion_energy": 1.69, 
			 "cosmo_total_nonelectrostatic_energy": 9.22, 
			 "SMD_solvation_energy": 5.19 
		},
		"coords": [
			{
				"x": 2.0513865445,
				"y": 3.3723838839,
				"z": -3.5125118085,
				"element": "N" 
			},
			{
				"x": 1.1790009128,
				"y": 2.4366005635,
				"z": -2.9665547234,
				"element": "C" 
			},
			{
				"x": 0.6116438191,
				"y": 2.6366305791,
				"z": -1.6954388742,
				"element": "C" 
			},
			{
				"x": -0.2932602784,
				"y": 1.721921861,
				"z": -1.1664587583,
				"element": "C" 
			},
			{
				"x": -0.6638710443,
				"y": 0.5785832807,
				"z": -1.8927923333,
				"element": "C" 
			},
			{
				"x": -0.1209535163,
				"y": 0.3988753412,
				"z": -3.1752775803,
				"element": "C" 
			},
			{
				"x": 0.7942654034,
				"y": 1.2983373463,
				"z": -3.7013918425,
				"element": "C" 
			},
			{
				"x": -1.6849806418,
				"y": -0.4120759529,
				"z": -1.4371129772,
				"element": "C" 
			},
			{
				"x": -2.4180977176,
				"y": -0.9856203085,
				"z": -2.2412022101,
				"element": "O" 
			},
			{
				"x": -1.8352366975,
				"y": -0.6634433639,
				"z": -0.0832497023,
				"element": "N" 
			},
			{
				"x": -0.8193303384,
				"y": -0.6314389762,
				"z": 0.960740974,
				"element": "C" 
			},
			{
				"x": -1.2771997528,
				"y": 0.0887405925,
				"z": 2.226433722,
				"element": "C" 
			},
			{
				"x": -1.3730155269,
				"y": 1.4801756702,
				"z": 1.9619719665,
				"element": "O" 
			},
			{
				"x": 2.6565266318,
				"y": 3.0347025392,
				"z": -4.2473314966,
				"element": "H" 
			},
			{
				"x": 2.5345093954,
				"y": 3.9635447104,
				"z": -2.8512581718,
				"element": "H" 
			},
			{
				"x": 0.8753952319,
				"y": 3.5252648122,
				"z": -1.1267193728,
				"element": "H" 
			},
			{
				"x": -0.731112493,
				"y": 1.9129848062,
				"z": -0.1921203586,
				"element": "H" 
			},
			{
				"x": -0.4375407221,
				"y": -0.4634371721,
				"z": -3.7528042049,
				"element": "H" 
			},
			{
				"x": 1.210044262,
				"y": 1.1358016638,
				"z": -4.6929924499,
				"element": "H" 
			},
			{
				"x": -2.5732967191,
				"y": -1.3448800069,
				"z": 0.0524458723,
				"element": "H" 
			},
			{
				"x": -0.5341107313,
				"y": -1.6565606648,
				"z": 1.2409495645,
				"element": "H" 
			},
			{
				"x": 0.0776260703,
				"y": -0.1458274753,
				"z": 0.5731683249,
				"element": "H" 
			},
			{
				"x": -0.5470368283,
				"y": -0.1158947458,
				"z": 3.0268658195,
				"element": "H" 
			},
			{
				"x": -2.244941068,
				"y": -0.3264470939,
				"z": 2.5489046327,
				"element": "H" 
			},
			{
				"x": -1.8798141954,
				"y": 1.89747811,
				"z": 2.6680359883,
				"element": "H" 
			}
		],
		 "valence_orbital": [ 
			{
				"type": "occ",
				"energy": -0.28037,
				"method": "rhf"
			},
			{
				"type": "occ",
				"energy": -0.24504,
				"method": "rhf"
			},
			{
				"type": "occ",
				"energy": -0.24258,
				"method": "rhf"
			},
			{
				"type": "occ",
				"energy": -0.22731,
				"method": "rhf"
			},
			{
				"type": "occ",
				"energy": -0.19962,
				"method": "rhf"
			},
			{
				"type": "unocc",
				"energy": -0.00813,
				"method": "rhf"
			},
			{
				"type": "unocc",
				"energy": 0.00726,
				"method": "rhf"
			},
			{
				"type": "unocc",
				"energy": 0.06284,
				"method": "rhf"
			},
			{
				"type": "unocc",
				"energy": 0.07227,
				"method": "rhf"
			},
			{
				"type": "unocc",
				"energy": 0.08502,
				"method": "rhf"
			}
		],
		"cosmo_sigma_profile": { 
			"-0.025": 0.0,
			"-0.024": 0.0,
			"-0.023": 0.0,
			"-0.022": 0.0,
			"-0.021": 0.0,
			"-0.02": 0.0,
			"-0.019": 0.0,
			"-0.018": 0.0,
			"-0.017": 0.0,
			"-0.016": 0.800027198753,
			"-0.015": 1.004917942,
			"-0.014": 1.4335387181,
			"-0.013": 1.93925891215,
			"-0.012": 5.01480874622,
			"-0.011": 4.50866924243,
			"-0.01": 4.76915777185,
			"-0.009": 5.39310081096,
			"-0.008": 4.21421965385,
			"-0.007": 5.32044672861,
			"-0.006": 8.40306393046,
			"-0.005": 13.6521212461,
			"-0.004": 17.4494680247,
			"-0.003": 16.6226663877,
			"-0.002": 12.4475005293,
			"-0.001": 10.2363825661,
			"0.0": 8.62466893096,
			"0.001": 10.1991629961,
			"0.002": 10.1271477076,
			"0.003": 10.143769403,
			"0.004": 10.6244616974,
			"0.005": 15.2769090259,
			"0.006": 11.0960496614,
			"0.007": 4.4273208857,
			"0.008": 3.88081701221,
			"0.009": 3.44588629244,
			"0.01": 3.34767779535,
			"0.011": 4.22831627928,
			"0.012": 3.12948045438,
			"0.013": 3.50316975893,
			"0.014": 5.31611845678,
			"0.015": 2.8974981664,
			"0.016": 0.0839415848926,
			"0.017": 0.0,
			"0.018": 0.0,
			"0.019": 0.0,
			"0.02": 0.0,
			"0.021": 0.0,
			"0.022": 0.0,
			"0.023": 0.0,
			"0.024": 0.0,
			"0.025": 0.0
		}
	}
}
