{
	 "smiles": "CC(C)(C)C1=NC2=C(S1)C=C(N)C=C2", 
	 "Tm": 411.15, 
	 "num_atms": 28, 
	 "gaussian": { 
		 "optdone": 1, 
		 "sigma_profile": "yes", 
		 "theory": "DFT", 
		 "functional": "B3LYP", 
		 "basiset": "6-31G**", 
		 "properties": { 
			 "R2extent": 3930.508, 
			 "electric_dipole_moment_norm": 2.04130237594, 
			 "electric_quadrupole_moment_norm": 14.6712257603, 
			 "total_energy": -935.326282811, 
			 "HOMO_LUMO_gap": 0.17983, 
			 "cosmo_polarized_energy": -10.68, 
			 "cosmo_cavitation_energy": 31.67, 
			 "cosmo_dispersion_energy": -23.35, 
			 "cosmo_repulsion_energy": 1.79, 
			 "cosmo_total_nonelectrostatic_energy": 10.11, 
			 "SMD_solvation_energy": 3.62 
		},
		"coords": [
			{
				"x": 2.3262462172,
				"y": 1.6609850977,
				"z": -2.8523025358,
				"element": "C" 
			},
			{
				"x": 0.8247679396,
				"y": 1.3265213157,
				"z": -2.782529951,
				"element": "C" 
			},
			{
				"x": 0.3942937391,
				"y": 0.6114296627,
				"z": -4.0837541341,
				"element": "C" 
			},
			{
				"x": 0.0125251515,
				"y": 2.6333719338,
				"z": -2.6204931498,
				"element": "C" 
			},
			{
				"x": 0.5714089518,
				"y": 0.4222489697,
				"z": -1.5869632211,
				"element": "C" 
			},
			{
				"x": 1.4608853671,
				"y": 0.0665362269,
				"z": -0.7222685053,
				"element": "N" 
			},
			{
				"x": 0.9334310377,
				"y": -0.7491161843,
				"z": 0.2676885455,
				"element": "C" 
			},
			{
				"x": -0.4470435048,
				"y": -1.0344675013,
				"z": 0.1524161067,
				"element": "C" 
			},
			{
				"x": -1.0782803311,
				"y": -0.231636751,
				"z": -1.2702195284,
				"element": "S" 
			},
			{
				"x": -1.1130068925,
				"y": -1.8452641861,
				"z": 1.0708356389,
				"element": "C" 
			},
			{
				"x": -0.3857017922,
				"y": -2.3859760498,
				"z": 2.1407943348,
				"element": "C" 
			},
			{
				"x": -1.0256678316,
				"y": -3.1536773255,
				"z": 3.1173864294,
				"element": "N" 
			},
			{
				"x": 0.9956527195,
				"y": -2.1017736796,
				"z": 2.2614532872,
				"element": "C" 
			},
			{
				"x": 1.6490658821,
				"y": -1.2971707688,
				"z": 1.3411804462,
				"element": "C" 
			},
			{
				"x": 2.660982523,
				"y": 2.1653400097,
				"z": -1.9428226622,
				"element": "H" 
			},
			{
				"x": 2.5159312482,
				"y": 2.3173262668,
				"z": -3.708340759,
				"element": "H" 
			},
			{
				"x": 2.9274779163,
				"y": 0.7554063933,
				"z": -2.9667940417,
				"element": "H" 
			},
			{
				"x": 0.9465631903,
				"y": -0.3235793554,
				"z": -4.2203191632,
				"element": "H" 
			},
			{
				"x": 0.5946517931,
				"y": 1.255595593,
				"z": -4.9466216583,
				"element": "H" 
			},
			{
				"x": -0.6747112993,
				"y": 0.3755174803,
				"z": -4.0838639445,
				"element": "H" 
			},
			{
				"x": -1.0637840018,
				"y": 2.4385179175,
				"z": -2.5800253002,
				"element": "H" 
			},
			{
				"x": 0.2029442422,
				"y": 3.2989767287,
				"z": -3.4694158488,
				"element": "H" 
			},
			{
				"x": 0.2956628581,
				"y": 3.1594317798,
				"z": -1.7035244013,
				"element": "H" 
			},
			{
				"x": -2.1742844757,
				"y": -2.0540613715,
				"z": 0.9716284272,
				"element": "H" 
			},
			{
				"x": -1.8826550379,
				"y": -3.5994440942,
				"z": 2.8198158906,
				"element": "H" 
			},
			{
				"x": -0.4251625387,
				"y": -3.7947915135,
				"z": 3.6173536921,
				"element": "H" 
			},
			{
				"x": 1.5467455542,
				"y": -2.5221721458,
				"z": 3.0987068204,
				"element": "H" 
			},
			{
				"x": 2.7089613746,
				"y": -1.0848744487,
				"z": 1.4372991857,
				"element": "H" 
			}
		],
		 "valence_orbital": [ 
			{
				"type": "occ",
				"energy": -0.29146,
				"method": "rhf"
			},
			{
				"type": "occ",
				"energy": -0.28489,
				"method": "rhf"
			},
			{
				"type": "occ",
				"energy": -0.26141,
				"method": "rhf"
			},
			{
				"type": "occ",
				"energy": -0.22631,
				"method": "rhf"
			},
			{
				"type": "occ",
				"energy": -0.1959,
				"method": "rhf"
			},
			{
				"type": "unocc",
				"energy": -0.01607,
				"method": "rhf"
			},
			{
				"type": "unocc",
				"energy": 0.00148,
				"method": "rhf"
			},
			{
				"type": "unocc",
				"energy": 0.02122,
				"method": "rhf"
			},
			{
				"type": "unocc",
				"energy": 0.05078,
				"method": "rhf"
			},
			{
				"type": "unocc",
				"energy": 0.08036,
				"method": "rhf"
			}
		],
		"cosmo_sigma_profile": { 
			"-0.025": 0.0,
			"-0.024": 0.0,
			"-0.023": 0.0,
			"-0.022": 0.0,
			"-0.021": 0.0,
			"-0.02": 0.0,
			"-0.019": 0.0,
			"-0.018": 0.0,
			"-0.017": 0.0,
			"-0.016": 0.0,
			"-0.015": 0.0,
			"-0.014": 0.0,
			"-0.013": 0.488447786959,
			"-0.012": 2.94764150651,
			"-0.011": 2.56080820766,
			"-0.01": 3.03003068179,
			"-0.009": 3.7656194439,
			"-0.008": 2.65228279701,
			"-0.007": 5.16272726807,
			"-0.006": 5.90943339271,
			"-0.005": 6.67470600507,
			"-0.004": 10.7426192214,
			"-0.003": 25.2548487811,
			"-0.002": 22.1802471936,
			"-0.001": 21.6868179278,
			"0.0": 26.8166984496,
			"0.001": 25.0777070935,
			"0.002": 15.9250804067,
			"0.003": 14.8192821884,
			"0.004": 16.7298400313,
			"0.005": 17.3853620052,
			"0.006": 6.09482339091,
			"0.007": 2.9122380421,
			"0.008": 2.26649665521,
			"0.009": 1.96840858992,
			"0.01": 2.62433565828,
			"0.011": 1.53983074165,
			"0.012": 1.1706368522,
			"0.013": 1.51938482327,
			"0.014": 1.14222731974,
			"0.015": 0.0859495934946,
			"0.016": 0.0,
			"0.017": 0.0,
			"0.018": 0.0,
			"0.019": 0.0,
			"0.02": 0.0,
			"0.021": 0.0,
			"0.022": 0.0,
			"0.023": 0.0,
			"0.024": 0.0,
			"0.025": 0.0
		}
	}
}
