{
	 "smiles": "BrC(=C)CC1(CC=C)C(=O)NC(=O)NC1=O", 
	 "Tm": 441.15, 
	 "num_atms": 27, 
	 "gaussian": { 
		 "optdone": 1, 
		 "sigma_profile": "yes", 
		 "theory": "DFT", 
		 "functional": "B3LYP", 
		 "basiset": "6-31G**", 
		 "properties": { 
			 "R2extent": 5205.1133, 
			 "electric_dipole_moment_norm": 1.80142022027, 
			 "electric_quadrupole_moment_norm": 8.07286777917, 
			 "total_energy": -3294.27759066, 
			 "HOMO_LUMO_gap": 0.20395, 
			 "cosmo_polarized_energy": -16.98, 
			 "cosmo_cavitation_energy": 33.46, 
			 "cosmo_dispersion_energy": -22.62, 
			 "cosmo_repulsion_energy": 1.78, 
			 "cosmo_total_nonelectrostatic_energy": 12.62, 
			 "SMD_solvation_energy": 7.52 
		},
		"coords": [
			{
				"x": 2.6859992683,
				"y": 2.3795791633,
				"z": 2.5270713951,
				"element": "Br" 
			},
			{
				"x": 1.7526302867,
				"y": 1.0552591886,
				"z": 1.478198136,
				"element": "C" 
			},
			{
				"x": 1.9985526603,
				"y": -0.229294426,
				"z": 1.7147455075,
				"element": "C" 
			},
			{
				"x": 0.8232760639,
				"y": 1.6971713413,
				"z": 0.4819394694,
				"element": "C" 
			},
			{
				"x": 0.0026527693,
				"y": 0.763299283,
				"z": -0.4421545713,
				"element": "C" 
			},
			{
				"x": -0.8793521138,
				"y": 1.6912886807,
				"z": -1.3641221189,
				"element": "C" 
			},
			{
				"x": -1.7285609948,
				"y": 0.9610218377,
				"z": -2.3693131999,
				"element": "C" 
			},
			{
				"x": -3.0589985559,
				"y": 0.886067987,
				"z": -2.3126122565,
				"element": "C" 
			},
			{
				"x": 0.9344311722,
				"y": -0.0259599366,
				"z": -1.364374078,
				"element": "C" 
			},
			{
				"x": 1.8379374969,
				"y": 0.5013577559,
				"z": -1.9830784995,
				"element": "O" 
			},
			{
				"x": 0.6589360986,
				"y": -1.3788742066,
				"z": -1.5207552453,
				"element": "N" 
			},
			{
				"x": -0.3148785307,
				"y": -2.1357231153,
				"z": -0.8744679429,
				"element": "C" 
			},
			{
				"x": -0.4895452087,
				"y": -3.3140310478,
				"z": -1.1035819661,
				"element": "O" 
			},
			{
				"x": -1.0517393864,
				"y": -1.4317108759,
				"z": 0.0712084101,
				"element": "N" 
			},
			{
				"x": -0.9744858731,
				"y": -0.0800899924,
				"z": 0.3811569768,
				"element": "C" 
			},
			{
				"x": -1.6901417752,
				"y": 0.404879667,
				"z": 1.2349560156,
				"element": "O" 
			},
			{
				"x": 1.4978083469,
				"y": -1.0095662375,
				"z": 1.1526443996,
				"element": "H" 
			},
			{
				"x": 2.7023731667,
				"y": -0.548897878,
				"z": 2.4728886137,
				"element": "H" 
			},
			{
				"x": 1.4132342152,
				"y": 2.3582962203,
				"z": -0.1603286577,
				"element": "H" 
			},
			{
				"x": 0.1131317206,
				"y": 2.3241849215,
				"z": 1.0299534739,
				"element": "H" 
			},
			{
				"x": -0.1834232813,
				"y": 2.3635758288,
				"z": -1.8781025432,
				"element": "H" 
			},
			{
				"x": -1.5108362343,
				"y": 2.2866177201,
				"z": -0.6988793546,
				"element": "H" 
			},
			{
				"x": -1.2021878688,
				"y": 0.4798038016,
				"z": -3.1934163103,
				"element": "H" 
			},
			{
				"x": -3.6316800447,
				"y": 0.3559810551,
				"z": -3.0676960711,
				"element": "H" 
			},
			{
				"x": -3.6228892621,
				"y": 1.358123033,
				"z": -1.5116701459,
				"element": "H" 
			},
			{
				"x": 1.2360028015,
				"y": -1.8877832504,
				"z": -2.1807657068,
				"element": "H" 
			},
			{
				"x": -1.7532469371,
				"y": -1.9716765183,
				"z": 0.5648562703,
				"element": "H" 
			}
		],
		 "valence_orbital": [ 
			{
				"type": "occ",
				"energy": -0.30681,
				"method": "rhf"
			},
			{
				"type": "occ",
				"energy": -0.2893,
				"method": "rhf"
			},
			{
				"type": "occ",
				"energy": -0.2778,
				"method": "rhf"
			},
			{
				"type": "occ",
				"energy": -0.27451,
				"method": "rhf"
			},
			{
				"type": "occ",
				"energy": -0.25825,
				"method": "rhf"
			},
			{
				"type": "unocc",
				"energy": -0.0543,
				"method": "rhf"
			},
			{
				"type": "unocc",
				"energy": -0.01469,
				"method": "rhf"
			},
			{
				"type": "unocc",
				"energy": -0.01096,
				"method": "rhf"
			},
			{
				"type": "unocc",
				"energy": -0.0052,
				"method": "rhf"
			},
			{
				"type": "unocc",
				"energy": 0.00366,
				"method": "rhf"
			}
		],
		"cosmo_sigma_profile": { 
			"-0.025": 0.0,
			"-0.024": 0.0,
			"-0.023": 0.0,
			"-0.022": 0.0,
			"-0.021": 0.0,
			"-0.02": 0.0,
			"-0.019": 0.0,
			"-0.018": 0.0,
			"-0.017": 0.729015728633,
			"-0.016": 2.4076834008,
			"-0.015": 1.40509634015,
			"-0.014": 1.62234397671,
			"-0.013": 1.5601608483,
			"-0.012": 1.80696637674,
			"-0.011": 1.84200085599,
			"-0.01": 1.75913393786,
			"-0.009": 1.30689425851,
			"-0.008": 3.47199823399,
			"-0.007": 5.10049243236,
			"-0.006": 14.5239725805,
			"-0.005": 20.6693308055,
			"-0.004": 21.2322635129,
			"-0.003": 20.4935817528,
			"-0.002": 17.3999534263,
			"-0.001": 14.9480491442,
			"0.0": 14.7995677688,
			"0.001": 15.8085730326,
			"0.002": 16.7202222522,
			"0.003": 18.6035983601,
			"0.004": 16.3261145683,
			"0.005": 10.8480163686,
			"0.006": 4.16197246412,
			"0.007": 4.13983688933,
			"0.008": 3.91907181089,
			"0.009": 4.51235484111,
			"0.01": 7.60041226848,
			"0.011": 14.9855351277,
			"0.012": 3.51852402245,
			"0.013": 0.0,
			"0.014": 0.0,
			"0.015": 0.0,
			"0.016": 0.0,
			"0.017": 0.0,
			"0.018": 0.0,
			"0.019": 0.0,
			"0.02": 0.0,
			"0.021": 0.0,
			"0.022": 0.0,
			"0.023": 0.0,
			"0.024": 0.0,
			"0.025": 0.0
		}
	}
}
