{
	 "smiles": "CCCCC(N)=O", 
	 "Tm": 377.15, 
	 "num_atms": 18, 
	 "gaussian": { 
		 "optdone": 1, 
		 "sigma_profile": "yes", 
		 "theory": "DFT", 
		 "functional": "B3LYP", 
		 "basiset": "6-31G**", 
		 "properties": { 
			 "R2extent": 1504.4103, 
			 "electric_dipole_moment_norm": 3.51775992643, 
			 "electric_quadrupole_moment_norm": 14.3231555402, 
			 "total_energy": -327.167557638, 
			 "HOMO_LUMO_gap": 0.27743, 
			 "cosmo_polarized_energy": -11.8, 
			 "cosmo_cavitation_energy": 20.9, 
			 "cosmo_dispersion_energy": -15.36, 
			 "cosmo_repulsion_energy": 1.35, 
			 "cosmo_total_nonelectrostatic_energy": 6.9, 
			 "SMD_solvation_energy": 4.34 
		},
		"coords": [
			{
				"x": -1.0692041607,
				"y": -1.9354970322,
				"z": -1.1948312596,
				"element": "C" 
			},
			{
				"x": 0.1127548818,
				"y": -1.8157166325,
				"z": -0.2274725829,
				"element": "C" 
			},
			{
				"x": 0.2632070094,
				"y": -0.4073099459,
				"z": 0.3584754937,
				"element": "C" 
			},
			{
				"x": 1.441345134,
				"y": -0.2806138366,
				"z": 1.328952584,
				"element": "C" 
			},
			{
				"x": 1.6795822476,
				"y": 1.1629364043,
				"z": 1.7716553882,
				"element": "C" 
			},
			{
				"x": 2.2241082901,
				"y": 1.30528329,
				"z": 3.0195349279,
				"element": "N" 
			},
			{
				"x": 1.4207715853,
				"y": 2.1261396579,
				"z": 1.0642472291,
				"element": "O" 
			},
			{
				"x": -1.1518491379,
				"y": -2.9481291968,
				"z": -1.6029861782,
				"element": "H" 
			},
			{
				"x": -0.9610798096,
				"y": -1.2434381803,
				"z": -2.0374321648,
				"element": "H" 
			},
			{
				"x": -2.0154590608,
				"y": -1.6997455806,
				"z": -0.6947349079,
				"element": "H" 
			},
			{
				"x": 1.0404717724,
				"y": -2.0932782924,
				"z": -0.7470181685,
				"element": "H" 
			},
			{
				"x": -0.0067804943,
				"y": -2.5435472963,
				"z": 0.5872795803,
				"element": "H" 
			},
			{
				"x": -0.6626422939,
				"y": -0.1220597956,
				"z": 0.8752394547,
				"element": "H" 
			},
			{
				"x": 0.3995253433,
				"y": 0.3270827001,
				"z": -0.4424534877,
				"element": "H" 
			},
			{
				"x": 2.3633361769,
				"y": -0.6219618739,
				"z": 0.8362848646,
				"element": "H" 
			},
			{
				"x": 1.3010036831,
				"y": -0.9309212703,
				"z": 2.2020963008,
				"element": "H" 
			},
			{
				"x": 2.4924296991,
				"y": 0.5173456799,
				"z": 3.5856163671,
				"element": "H" 
			},
			{
				"x": 2.4775791342,
				"y": 2.2335312011,
				"z": 3.3224465591,
				"element": "H" 
			}
		],
		 "valence_orbital": [ 
			{
				"type": "occ",
				"energy": -0.3321,
				"method": "rhf"
			},
			{
				"type": "occ",
				"energy": -0.32741,
				"method": "rhf"
			},
			{
				"type": "occ",
				"energy": -0.3211,
				"method": "rhf"
			},
			{
				"type": "occ",
				"energy": -0.26336,
				"method": "rhf"
			},
			{
				"type": "occ",
				"energy": -0.2427,
				"method": "rhf"
			},
			{
				"type": "unocc",
				"energy": 0.03473,
				"method": "rhf"
			},
			{
				"type": "unocc",
				"energy": 0.07393,
				"method": "rhf"
			},
			{
				"type": "unocc",
				"energy": 0.09634,
				"method": "rhf"
			},
			{
				"type": "unocc",
				"energy": 0.12121,
				"method": "rhf"
			},
			{
				"type": "unocc",
				"energy": 0.13043,
				"method": "rhf"
			}
		],
		"cosmo_sigma_profile": { 
			"-0.025": 0.0,
			"-0.024": 0.0,
			"-0.023": 0.0,
			"-0.022": 0.0,
			"-0.021": 0.0,
			"-0.02": 0.0,
			"-0.019": 0.0,
			"-0.018": 0.0,
			"-0.017": 0.0,
			"-0.016": 0.0,
			"-0.015": 0.0,
			"-0.014": 0.855262457493,
			"-0.013": 3.01163650722,
			"-0.012": 1.74019300246,
			"-0.011": 2.09841493634,
			"-0.01": 2.96843090765,
			"-0.009": 2.39230328473,
			"-0.008": 2.44427372922,
			"-0.007": 1.99225396156,
			"-0.006": 1.62626491518,
			"-0.005": 4.25359311248,
			"-0.004": 5.80385173066,
			"-0.003": 9.98610949982,
			"-0.002": 22.0887728246,
			"-0.001": 20.4202473003,
			"0.0": 21.7239724106,
			"0.001": 17.78584975,
			"0.002": 8.09991123904,
			"0.003": 4.01837298144,
			"0.004": 3.5242547709,
			"0.005": 2.29663892415,
			"0.006": 2.13778357456,
			"0.007": 1.42353869701,
			"0.008": 1.18546261003,
			"0.009": 2.2745618882,
			"0.01": 1.23589885346,
			"0.011": 0.882138770237,
			"0.012": 2.34440429629,
			"0.013": 2.27694831344,
			"0.014": 5.87272085771,
			"0.015": 2.71681371381,
			"0.016": 0.0460164813748,
			"0.017": 0.0,
			"0.018": 0.0,
			"0.019": 0.0,
			"0.02": 0.0,
			"0.021": 0.0,
			"0.022": 0.0,
			"0.023": 0.0,
			"0.024": 0.0,
			"0.025": 0.0
		}
	}
}
