{
	 "smiles": "CC(=O)OC1=CN(C(C)=O)C2=CC=C(Br)C=C12", 
	 "Tm": 399.15, 
	 "num_atms": 27, 
	 "gaussian": { 
		 "optdone": 1, 
		 "sigma_profile": "yes", 
		 "theory": "DFT", 
		 "functional": "B3LYP", 
		 "basiset": "6-31G**", 
		 "properties": { 
			 "R2extent": 7858.5507, 
			 "electric_dipole_moment_norm": 5.12452817438, 
			 "electric_quadrupole_moment_norm": 6.89539166473, 
			 "total_energy": -3315.14881275, 
			 "HOMO_LUMO_gap": 0.17827, 
			 "cosmo_polarized_energy": -14.32, 
			 "cosmo_cavitation_energy": 34.52, 
			 "cosmo_dispersion_energy": -24.95, 
			 "cosmo_repulsion_energy": 1.95, 
			 "cosmo_total_nonelectrostatic_energy": 11.51, 
			 "SMD_solvation_energy": 6.94 
		},
		"coords": [
			{
				"x": 1.5500198465,
				"y": -1.9200947276,
				"z": -2.0595070905,
				"element": "C" 
			},
			{
				"x": 0.6009340762,
				"y": -1.2143957103,
				"z": -1.1258271529,
				"element": "C" 
			},
			{
				"x": -0.36588198,
				"y": -1.6874667098,
				"z": -0.5870728576,
				"element": "O" 
			},
			{
				"x": 1.00175104,
				"y": 0.0948106875,
				"z": -0.9587564815,
				"element": "O" 
			},
			{
				"x": 0.2694320242,
				"y": 0.9062770552,
				"z": -0.1141848185,
				"element": "C" 
			},
			{
				"x": -0.2853327196,
				"y": 2.0813635607,
				"z": -0.5083061351,
				"element": "C" 
			},
			{
				"x": -0.8519520347,
				"y": 2.7227224539,
				"z": 0.6045850297,
				"element": "N" 
			},
			{
				"x": -1.5179820972,
				"y": 3.9579644582,
				"z": 0.6002225684,
				"element": "C" 
			},
			{
				"x": -1.6331377361,
				"y": 4.6535392929,
				"z": -0.7422747907,
				"element": "C" 
			},
			{
				"x": -1.9729402228,
				"y": 4.4315854784,
				"z": 1.624884476,
				"element": "O" 
			},
			{
				"x": -0.6339331833,
				"y": 1.9066248752,
				"z": 1.7326826176,
				"element": "C" 
			},
			{
				"x": -0.9905178757,
				"y": 2.0925057999,
				"z": 3.0709274292,
				"element": "C" 
			},
			{
				"x": -0.6233687657,
				"y": 1.1052518978,
				"z": 3.9811590508,
				"element": "C" 
			},
			{
				"x": 0.077571485,
				"y": -0.0347662816,
				"z": 3.5563120712,
				"element": "C" 
			},
			{
				"x": 0.5540879873,
				"y": -1.3568224465,
				"z": 4.8560530017,
				"element": "Br" 
			},
			{
				"x": 0.4318696623,
				"y": -0.2346832895,
				"z": 2.2301065322,
				"element": "C" 
			},
			{
				"x": 0.0702056351,
				"y": 0.754596955,
				"z": 1.3072059395,
				"element": "C" 
			},
			{
				"x": 2.5603988916,
				"y": -1.9136376465,
				"z": -1.6399150702,
				"element": "H" 
			},
			{
				"x": 1.5927646809,
				"y": -1.3966110583,
				"z": -3.0189591238,
				"element": "H" 
			},
			{
				"x": 1.214589457,
				"y": -2.9458502251,
				"z": -2.2067639236,
				"element": "H" 
			},
			{
				"x": -0.3132516926,
				"y": 2.5197681698,
				"z": -1.4917096253,
				"element": "H" 
			},
			{
				"x": -2.1814515476,
				"y": 4.0399831148,
				"z": -1.4642250585,
				"element": "H" 
			},
			{
				"x": -0.647159474,
				"y": 4.8735095231,
				"z": -1.1641283285,
				"element": "H" 
			},
			{
				"x": -2.1711427502,
				"y": 5.587164466,
				"z": -0.5829421471,
				"element": "H" 
			},
			{
				"x": -1.5305843395,
				"y": 2.9748510523,
				"z": 3.3830419644,
				"element": "H" 
			},
			{
				"x": -0.8809556265,
				"y": 1.214503556,
				"z": 5.0280744571,
				"element": "H" 
			},
			{
				"x": 0.9564672594,
				"y": -1.1297943016,
				"z": 1.921817466,
				"element": "H" 
			}
		],
		 "valence_orbital": [ 
			{
				"type": "occ",
				"energy": -0.28448,
				"method": "rhf"
			},
			{
				"type": "occ",
				"energy": -0.28287,
				"method": "rhf"
			},
			{
				"type": "occ",
				"energy": -0.27649,
				"method": "rhf"
			},
			{
				"type": "occ",
				"energy": -0.23271,
				"method": "rhf"
			},
			{
				"type": "occ",
				"energy": -0.22525,
				"method": "rhf"
			},
			{
				"type": "unocc",
				"energy": -0.04698,
				"method": "rhf"
			},
			{
				"type": "unocc",
				"energy": -0.0205,
				"method": "rhf"
			},
			{
				"type": "unocc",
				"energy": -0.00545,
				"method": "rhf"
			},
			{
				"type": "unocc",
				"energy": 0.01167,
				"method": "rhf"
			},
			{
				"type": "unocc",
				"energy": 0.02421,
				"method": "rhf"
			}
		],
		"cosmo_sigma_profile": { 
			"-0.025": 0.0,
			"-0.024": 0.0,
			"-0.023": 0.0,
			"-0.022": 0.0,
			"-0.021": 0.0,
			"-0.02": 0.0,
			"-0.019": 0.0,
			"-0.018": 0.0,
			"-0.017": 0.0,
			"-0.016": 0.0,
			"-0.015": 0.0,
			"-0.014": 0.0,
			"-0.013": 0.0,
			"-0.012": 0.0,
			"-0.011": 0.0459599254037,
			"-0.01": 1.34956027805,
			"-0.009": 2.47273881823,
			"-0.008": 4.97199137882,
			"-0.007": 14.4427016105,
			"-0.006": 16.8798736263,
			"-0.005": 17.002468678,
			"-0.004": 18.3946580001,
			"-0.003": 22.1978609815,
			"-0.002": 23.3391723274,
			"-0.001": 15.4526221408,
			"0.0": 14.6709931863,
			"0.001": 19.7973745778,
			"0.002": 24.710441131,
			"0.003": 22.6200521824,
			"0.004": 16.71462324,
			"0.005": 12.2877335189,
			"0.006": 3.9562358233,
			"0.007": 5.29817293174,
			"0.008": 3.08217445052,
			"0.009": 4.78373569203,
			"0.01": 4.71665432186,
			"0.011": 7.01908422313,
			"0.012": 3.27618279415,
			"0.013": 0.433907234706,
			"0.014": 0.0,
			"0.015": 0.0,
			"0.016": 0.0,
			"0.017": 0.0,
			"0.018": 0.0,
			"0.019": 0.0,
			"0.02": 0.0,
			"0.021": 0.0,
			"0.022": 0.0,
			"0.023": 0.0,
			"0.024": 0.0,
			"0.025": 0.0
		}
	}
}
