{
	 "smiles": "COC1OCC2(C)CCCC11C2CC(OC(C)=O)C23C(OC(C)=O)C(CC(OC(C)=O)C12)C(=C)C3=O", 
	 "Tm": 344.15, 
	 "num_atms": 72, 
	 "gaussian": { 
		 "optdone": 1, 
		 "sigma_profile": "yes", 
		 "theory": "DFT", 
		 "functional": "B3LYP", 
		 "basiset": "6-31G**", 
		 "properties": { 
			 "R2extent": 14146.7819, 
			 "electric_dipole_moment_norm": 1.18636680247, 
			 "electric_quadrupole_moment_norm": 11.341028512, 
			 "total_energy": -1727.58805814, 
			 "HOMO_LUMO_gap": 0.17996, 
			 "cosmo_polarized_energy": -20.12, 
			 "cosmo_cavitation_energy": 64.47, 
			 "cosmo_dispersion_energy": -39.38, 
			 "cosmo_repulsion_energy": 2.89, 
			 "cosmo_total_nonelectrostatic_energy": 27.98, 
			 "SMD_solvation_energy": 13.89 
		},
		"coords": [
			{
				"x": -4.0497689492,
				"y": -1.9491843603,
				"z": 0.2279533255,
				"element": "C" 
			},
			{
				"x": -2.7646569358,
				"y": -1.6603531315,
				"z": 0.7682881698,
				"element": "O" 
			},
			{
				"x": -2.3392734854,
				"y": -0.3469120563,
				"z": 0.5711418313,
				"element": "C" 
			},
			{
				"x": -3.2299763979,
				"y": 0.5064390191,
				"z": 1.2671859737,
				"element": "O" 
			},
			{
				"x": -2.8759878916,
				"y": 1.8810852484,
				"z": 1.1751498918,
				"element": "C" 
			},
			{
				"x": -1.4625817271,
				"y": 2.154491438,
				"z": 1.7146920557,
				"element": "C" 
			},
			{
				"x": -1.1655833067,
				"y": 3.6573781698,
				"z": 1.578266393,
				"element": "C" 
			},
			{
				"x": -1.3490811656,
				"y": 1.7663096105,
				"z": 3.2121267533,
				"element": "C" 
			},
			{
				"x": -1.5105330172,
				"y": 0.2645315198,
				"z": 3.4993063581,
				"element": "C" 
			},
			{
				"x": -0.715614004,
				"y": -0.6322443084,
				"z": 2.5300601653,
				"element": "C" 
			},
			{
				"x": -0.8548764262,
				"y": -0.2281953199,
				"z": 1.0368998885,
				"element": "C" 
			},
			{
				"x": -0.4404678154,
				"y": 1.274147844,
				"z": 0.9358899474,
				"element": "C" 
			},
			{
				"x": -0.1547439717,
				"y": 1.6746185075,
				"z": -0.5205523676,
				"element": "C" 
			},
			{
				"x": 1.1921049976,
				"y": 1.0488554615,
				"z": -0.8735921161,
				"element": "C" 
			},
			{
				"x": 1.7597994992,
				"y": 1.4642274164,
				"z": -2.1508192336,
				"element": "O" 
			},
			{
				"x": 1.0345282623,
				"y": 1.6045910568,
				"z": -3.2828780938,
				"element": "C" 
			},
			{
				"x": 1.9153832768,
				"y": 2.0747513562,
				"z": -4.4166341735,
				"element": "C" 
			},
			{
				"x": -0.1487350284,
				"y": 1.3536452005,
				"z": -3.3941998381,
				"element": "O" 
			},
			{
				"x": 1.271022967,
				"y": -0.4925925985,
				"z": -0.654900364,
				"element": "C" 
			},
			{
				"x": 1.5809073288,
				"y": -1.3441677535,
				"z": -1.9202556123,
				"element": "C" 
			},
			{
				"x": 0.4267754536,
				"y": -1.5332737612,
				"z": -2.7534307314,
				"element": "O" 
			},
			{
				"x": 0.6011782658,
				"y": -1.485517356,
				"z": -4.1018345949,
				"element": "C" 
			},
			{
				"x": -0.7201197056,
				"y": -1.5989747891,
				"z": -4.8143526371,
				"element": "C" 
			},
			{
				"x": 1.6799826473,
				"y": -1.3375461138,
				"z": -4.6348334705,
				"element": "O" 
			},
			{
				"x": 2.085949933,
				"y": -2.674612782,
				"z": -1.3212316415,
				"element": "C" 
			},
			{
				"x": 0.8917108292,
				"y": -3.4132824992,
				"z": -0.67377217,
				"element": "C" 
			},
			{
				"x": 0.2142662337,
				"y": -2.5858189612,
				"z": 0.4327683343,
				"element": "C" 
			},
			{
				"x": 1.0780019982,
				"y": -2.6091635484,
				"z": 1.6047545421,
				"element": "O" 
			},
			{
				"x": 1.0080696951,
				"y": -3.6952254726,
				"z": 2.4114695814,
				"element": "C" 
			},
			{
				"x": 1.9701431167,
				"y": -3.5590307585,
				"z": 3.5663910698,
				"element": "C" 
			},
			{
				"x": 0.2653488781,
				"y": -4.6333776331,
				"z": 2.2176813515,
				"element": "O" 
			},
			{
				"x": -0.030685325,
				"y": -1.1169889185,
				"z": 0.0126627299,
				"element": "C" 
			},
			{
				"x": 3.0769469947,
				"y": -2.1454107294,
				"z": -0.3073062291,
				"element": "C" 
			},
			{
				"x": 4.2711031126,
				"y": -2.6226232867,
				"z": 0.0515954369,
				"element": "C" 
			},
			{
				"x": 2.5445247965,
				"y": -0.8289179861,
				"z": 0.177639588,
				"element": "C" 
			},
			{
				"x": 3.0463700623,
				"y": -0.1093552432,
				"z": 1.0187597659,
				"element": "O" 
			},
			{
				"x": -4.0828975307,
				"y": -1.7324355776,
				"z": -0.8501685662,
				"element": "H" 
			},
			{
				"x": -4.2209038916,
				"y": -3.0159634096,
				"z": 0.384714642,
				"element": "H" 
			},
			{
				"x": -4.8323965016,
				"y": -1.3725303956,
				"z": 0.7299549409,
				"element": "H" 
			},
			{
				"x": -2.4053216266,
				"y": -0.0928837313,
				"z": -0.5067890322,
				"element": "H" 
			},
			{
				"x": -2.9548619834,
				"y": 2.2232899189,
				"z": 0.1291406849,
				"element": "H" 
			},
			{
				"x": -3.6273513877,
				"y": 2.4232660378,
				"z": 1.7587312221,
				"element": "H" 
			},
			{
				"x": -0.1216001272,
				"y": 3.8753799852,
				"z": 1.8290481936,
				"element": "H" 
			},
			{
				"x": -1.7964650569,
				"y": 4.2329286783,
				"z": 2.2650147402,
				"element": "H" 
			},
			{
				"x": -1.3544445206,
				"y": 4.0340422114,
				"z": 0.5681521978,
				"element": "H" 
			},
			{
				"x": -2.0850932672,
				"y": 2.3374687442,
				"z": 3.7934148682,
				"element": "H" 
			},
			{
				"x": -0.3603492862,
				"y": 2.0989139495,
				"z": 3.5581905114,
				"element": "H" 
			},
			{
				"x": -2.5668205885,
				"y": -0.0052432252,
				"z": 3.4573701702,
				"element": "H" 
			},
			{
				"x": -1.171212109,
				"y": 0.0571977156,
				"z": 4.5222186977,
				"element": "H" 
			},
			{
				"x": 0.3486546498,
				"y": -0.584041345,
				"z": 2.7805097186,
				"element": "H" 
			},
			{
				"x": -1.0353534768,
				"y": -1.6663866838,
				"z": 2.6755934549,
				"element": "H" 
			},
			{
				"x": 0.5115063041,
				"y": 1.3698495962,
				"z": 1.4791267673,
				"element": "H" 
			},
			{
				"x": -0.9376134756,
				"y": 1.3588075264,
				"z": -1.2087471279,
				"element": "H" 
			},
			{
				"x": -0.0550196473,
				"y": 2.7589875341,
				"z": -0.6232565893,
				"element": "H" 
			},
			{
				"x": 1.920186428,
				"y": 1.4750628861,
				"z": -0.1780022866,
				"element": "H" 
			},
			{
				"x": 1.3052484731,
				"y": 2.6025679064,
				"z": -5.1506983371,
				"element": "H" 
			},
			{
				"x": 2.3474552466,
				"y": 1.1895457255,
				"z": -4.8953302787,
				"element": "H" 
			},
			{
				"x": 2.7275674417,
				"y": 2.7092567837,
				"z": -4.0587322203,
				"element": "H" 
			},
			{
				"x": 2.3635694637,
				"y": -0.8763491951,
				"z": -2.5173755228,
				"element": "H" 
			},
			{
				"x": -1.3735999645,
				"y": -2.3242920157,
				"z": -4.3249094588,
				"element": "H" 
			},
			{
				"x": -1.2032639339,
				"y": -0.6176528747,
				"z": -4.7695459028,
				"element": "H" 
			},
			{
				"x": -0.5508347207,
				"y": -1.8733576189,
				"z": -5.8555529036,
				"element": "H" 
			},
			{
				"x": 2.5570110949,
				"y": -3.3057334855,
				"z": -2.0805527345,
				"element": "H" 
			},
			{
				"x": 1.2077297189,
				"y": -4.3697992194,
				"z": -0.2502691762,
				"element": "H" 
			},
			{
				"x": 0.1542653464,
				"y": -3.6331656661,
				"z": -1.4522127919,
				"element": "H" 
			},
			{
				"x": -0.7362966681,
				"y": -3.0426988383,
				"z": 0.7079510898,
				"element": "H" 
			},
			{
				"x": 1.9671433219,
				"y": -4.4772459891,
				"z": 4.1530383981,
				"element": "H" 
			},
			{
				"x": 2.9760918892,
				"y": -3.3473127896,
				"z": 3.1931341968,
				"element": "H" 
			},
			{
				"x": 1.6740467179,
				"y": -2.7156871268,
				"z": 4.197969145,
				"element": "H" 
			},
			{
				"x": -0.6961630922,
				"y": -1.2247884748,
				"z": -0.8494363427,
				"element": "H" 
			},
			{
				"x": 4.6724280441,
				"y": -3.547618135,
				"z": -0.3520407788,
				"element": "H" 
			},
			{
				"x": 4.8776255203,
				"y": -2.0741818833,
				"z": 0.7667565308,
				"element": "H" 
			}
		],
		 "valence_orbital": [ 
			{
				"type": "occ",
				"energy": -0.26858,
				"method": "rhf"
			},
			{
				"type": "occ",
				"energy": -0.26691,
				"method": "rhf"
			},
			{
				"type": "occ",
				"energy": -0.26648,
				"method": "rhf"
			},
			{
				"type": "occ",
				"energy": -0.24982,
				"method": "rhf"
			},
			{
				"type": "occ",
				"energy": -0.24298,
				"method": "rhf"
			},
			{
				"type": "unocc",
				"energy": -0.06302,
				"method": "rhf"
			},
			{
				"type": "unocc",
				"energy": 0.00419,
				"method": "rhf"
			},
			{
				"type": "unocc",
				"energy": 0.00859,
				"method": "rhf"
			},
			{
				"type": "unocc",
				"energy": 0.01374,
				"method": "rhf"
			},
			{
				"type": "unocc",
				"energy": 0.05836,
				"method": "rhf"
			}
		],
		"cosmo_sigma_profile": { 
			"-0.025": 0.0,
			"-0.024": 0.0,
			"-0.023": 0.0,
			"-0.022": 0.0,
			"-0.021": 0.0,
			"-0.02": 0.0,
			"-0.019": 0.0,
			"-0.018": 0.0,
			"-0.017": 0.0,
			"-0.016": 0.0,
			"-0.015": 0.0,
			"-0.014": 0.0,
			"-0.013": 0.0,
			"-0.012": 0.0,
			"-0.011": 0.0,
			"-0.01": 0.0,
			"-0.009": 0.0,
			"-0.008": 0.0177690537783,
			"-0.007": 2.08432997388,
			"-0.006": 12.1910780879,
			"-0.005": 27.1042838249,
			"-0.004": 50.7203195221,
			"-0.003": 70.3530357049,
			"-0.002": 73.9190068381,
			"-0.001": 56.2541631768,
			"0.0": 40.2279955617,
			"0.001": 37.339467391,
			"0.002": 23.8199889307,
			"0.003": 15.5031315627,
			"0.004": 12.5164845903,
			"0.005": 11.1653217643,
			"0.006": 10.5939506776,
			"0.007": 9.4581399094,
			"0.008": 10.0250885833,
			"0.009": 9.44553898105,
			"0.01": 7.54165445247,
			"0.011": 10.8064900313,
			"0.012": 8.29174683586,
			"0.013": 1.54286565081,
			"0.014": 0.0,
			"0.015": 0.0,
			"0.016": 0.0,
			"0.017": 0.0,
			"0.018": 0.0,
			"0.019": 0.0,
			"0.02": 0.0,
			"0.021": 0.0,
			"0.022": 0.0,
			"0.023": 0.0,
			"0.024": 0.0,
			"0.025": 0.0
		}
	}
}
