{
	 "smiles": "NCC1=CC=C(OCCCOC2=C(Cl)C=C(Cl)C=C2)C=C1", 
	 "Tm": 325.15, 
	 "num_atms": 38, 
	 "gaussian": { 
		 "optdone": 1, 
		 "sigma_profile": "yes", 
		 "theory": "DFT", 
		 "functional": "B3LYP", 
		 "basiset": "6-31G**", 
		 "properties": { 
			 "R2extent": 12201.5715, 
			 "electric_dipole_moment_norm": 4.90811763816, 
			 "electric_quadrupole_moment_norm": 19.6167438567, 
			 "total_energy": -1745.5104987, 
			 "HOMO_LUMO_gap": 0.18701, 
			 "cosmo_polarized_energy": -16.94, 
			 "cosmo_cavitation_energy": 46.09, 
			 "cosmo_dispersion_energy": -31.88, 
			 "cosmo_repulsion_energy": 2.47, 
			 "cosmo_total_nonelectrostatic_energy": 16.68, 
			 "SMD_solvation_energy": 5.74 
		},
		"coords": [
			{
				"x": -4.9494570798,
				"y": -0.123511707,
				"z": 4.4286357211,
				"element": "N" 
			},
			{
				"x": -4.2676301894,
				"y": 0.8747243978,
				"z": 3.5847530479,
				"element": "C" 
			},
			{
				"x": -2.9174367863,
				"y": 0.4594203458,
				"z": 3.0287186362,
				"element": "C" 
			},
			{
				"x": -1.7299891096,
				"y": 0.7779726774,
				"z": 3.6921150518,
				"element": "C" 
			},
			{
				"x": -0.4836577269,
				"y": 0.3518671914,
				"z": 3.2207189191,
				"element": "C" 
			},
			{
				"x": -0.4162043889,
				"y": -0.4136220927,
				"z": 2.0517201855,
				"element": "C" 
			},
			{
				"x": 0.7383440714,
				"y": -0.8883161283,
				"z": 1.4946409773,
				"element": "O" 
			},
			{
				"x": 1.975699231,
				"y": -0.5539437695,
				"z": 2.1014741026,
				"element": "C" 
			},
			{
				"x": 3.1083635336,
				"y": -1.1748468542,
				"z": 1.2907043841,
				"element": "C" 
			},
			{
				"x": 3.2815343517,
				"y": -0.6264331065,
				"z": -0.1228254844,
				"element": "C" 
			},
			{
				"x": 2.2923686651,
				"y": -1.2124235309,
				"z": -0.9666680735,
				"element": "O" 
			},
			{
				"x": 2.2448487582,
				"y": -0.8466973113,
				"z": -2.2689487308,
				"element": "C" 
			},
			{
				"x": 1.2523235923,
				"y": -1.4523584929,
				"z": -3.0671947607,
				"element": "C" 
			},
			{
				"x": 0.163330782,
				"y": -2.6188761535,
				"z": -2.351568415,
				"element": "Cl" 
			},
			{
				"x": 1.122825208,
				"y": -1.1431307513,
				"z": -4.4162250101,
				"element": "C" 
			},
			{
				"x": 1.9933163951,
				"y": -0.2153745992,
				"z": -4.9900771725,
				"element": "C" 
			},
			{
				"x": 1.8297726087,
				"y": 0.1759482449,
				"z": -6.695406049,
				"element": "Cl" 
			},
			{
				"x": 2.9822513975,
				"y": 0.3964951493,
				"z": -4.2285682215,
				"element": "C" 
			},
			{
				"x": 3.1045473844,
				"y": 0.0792590259,
				"z": -2.8743303604,
				"element": "C" 
			},
			{
				"x": -1.596638131,
				"y": -0.7379666757,
				"z": 1.3657844559,
				"element": "C" 
			},
			{
				"x": -2.8225946171,
				"y": -0.3041817155,
				"z": 1.8524447109,
				"element": "C" 
			},
			{
				"x": -5.0840805522,
				"y": -0.9768436162,
				"z": 3.888810958,
				"element": "H" 
			},
			{
				"x": -4.3299070616,
				"y": -0.3859355959,
				"z": 5.1935804989,
				"element": "H" 
			},
			{
				"x": -4.946650332,
				"y": 1.1236591595,
				"z": 2.7607444632,
				"element": "H" 
			},
			{
				"x": -4.1539536131,
				"y": 1.7874000949,
				"z": 4.1811901931,
				"element": "H" 
			},
			{
				"x": -1.7693053793,
				"y": 1.3781739475,
				"z": 4.5989260117,
				"element": "H" 
			},
			{
				"x": 0.4131053459,
				"y": 0.6243068727,
				"z": 3.7650614471,
				"element": "H" 
			},
			{
				"x": 2.094544045,
				"y": 0.5401367399,
				"z": 2.146517332,
				"element": "H" 
			},
			{
				"x": 2.0111607309,
				"y": -0.933387621,
				"z": 3.1334360261,
				"element": "H" 
			},
			{
				"x": 4.0414394925,
				"y": -0.9919960359,
				"z": 1.8377699719,
				"element": "H" 
			},
			{
				"x": 2.972821896,
				"y": -2.2600121724,
				"z": 1.2350621672,
				"element": "H" 
			},
			{
				"x": 4.2813916356,
				"y": -0.8785179821,
				"z": -0.5034969056,
				"element": "H" 
			},
			{
				"x": 3.1835061191,
				"y": 0.4690057182,
				"z": -0.1287311072,
				"element": "H" 
			},
			{
				"x": 0.3522808056,
				"y": -1.6214054209,
				"z": -5.0083721112,
				"element": "H" 
			},
			{
				"x": 3.6547689515,
				"y": 1.1154769379,
				"z": -4.6823933597,
				"element": "H" 
			},
			{
				"x": 3.8798906179,
				"y": 0.5626621436,
				"z": -2.2929466831,
				"element": "H" 
			},
			{
				"x": -1.5188187478,
				"y": -1.3191911596,
				"z": 0.4525472008,
				"element": "H" 
			},
			{
				"x": -3.7281119041,
				"y": -0.5563361543,
				"z": 1.3040959822,
				"element": "H" 
			}
		],
		 "valence_orbital": [ 
			{
				"type": "occ",
				"energy": -0.25996,
				"method": "rhf"
			},
			{
				"type": "occ",
				"energy": -0.24936,
				"method": "rhf"
			},
			{
				"type": "occ",
				"energy": -0.23819,
				"method": "rhf"
			},
			{
				"type": "occ",
				"energy": -0.22625,
				"method": "rhf"
			},
			{
				"type": "occ",
				"energy": -0.21011,
				"method": "rhf"
			},
			{
				"type": "unocc",
				"energy": -0.0231,
				"method": "rhf"
			},
			{
				"type": "unocc",
				"energy": -0.00786,
				"method": "rhf"
			},
			{
				"type": "unocc",
				"energy": -0.00098,
				"method": "rhf"
			},
			{
				"type": "unocc",
				"energy": 0.01068,
				"method": "rhf"
			},
			{
				"type": "unocc",
				"energy": 0.0115,
				"method": "rhf"
			}
		],
		"cosmo_sigma_profile": { 
			"-0.025": 0.0,
			"-0.024": 0.0,
			"-0.023": 0.0,
			"-0.022": 0.0,
			"-0.021": 0.0,
			"-0.02": 0.0,
			"-0.019": 0.0,
			"-0.018": 0.0,
			"-0.017": 0.0,
			"-0.016": 0.0,
			"-0.015": 0.0,
			"-0.014": 0.0,
			"-0.013": 0.0,
			"-0.012": 0.0,
			"-0.011": 0.0,
			"-0.01": 0.0545270941561,
			"-0.009": 1.96086084776,
			"-0.008": 5.30826309372,
			"-0.007": 10.2127531598,
			"-0.006": 19.4669012615,
			"-0.005": 35.8724992053,
			"-0.004": 31.8359632052,
			"-0.003": 26.6902794017,
			"-0.002": 22.3015441144,
			"-0.001": 22.2575695941,
			"0.0": 22.8306266945,
			"0.001": 29.8124385604,
			"0.002": 31.8714012649,
			"0.003": 27.623125996,
			"0.004": 26.9161476555,
			"0.005": 20.3222348231,
			"0.006": 11.4716562166,
			"0.007": 4.33011081603,
			"0.008": 3.32855503085,
			"0.009": 2.54960776543,
			"0.01": 3.01982685028,
			"0.011": 2.43627084847,
			"0.012": 1.5292287914,
			"0.013": 0.820994936934,
			"0.014": 0.585685761064,
			"0.015": 1.12603006958,
			"0.016": 0.799004362542,
			"0.017": 0.679992507859,
			"0.018": 0.257894007752,
			"0.019": 0.885536118473,
			"0.02": 0.436672190606,
			"0.021": 0.0,
			"0.022": 0.0,
			"0.023": 0.0,
			"0.024": 0.0,
			"0.025": 0.0
		}
	}
}
