{
	 "smiles": "ClCCOC1=CC=C(C=CC(=O)C2=CC=C(OCCCl)C=C2)C=C1", 
	 "Tm": 356.15, 
	 "num_atms": 42, 
	 "gaussian": { 
		 "optdone": 1, 
		 "sigma_profile": "yes", 
		 "theory": "DFT", 
		 "functional": "B3LYP", 
		 "basiset": "6-31G**", 
		 "properties": { 
			 "R2extent": 23007.0633, 
			 "electric_dipole_moment_norm": 1.87558644162, 
			 "electric_quadrupole_moment_norm": 27.0555984641, 
			 "total_energy": -1880.89970159, 
			 "HOMO_LUMO_gap": 0.1416, 
			 "cosmo_polarized_energy": -18.45, 
			 "cosmo_cavitation_energy": 50.08, 
			 "cosmo_dispersion_energy": -36.27, 
			 "cosmo_repulsion_energy": 2.77, 
			 "cosmo_total_nonelectrostatic_energy": 16.57, 
			 "SMD_solvation_energy": 8.45 
		},
		"coords": [
			{
				"x": -5.9097152673,
				"y": -1.5893148463,
				"z": 5.731155198,
				"element": "Cl" 
			},
			{
				"x": -5.7442430469,
				"y": -1.5229127279,
				"z": 3.9295007129,
				"element": "C" 
			},
			{
				"x": -6.0573471213,
				"y": -0.1390965262,
				"z": 3.3759150503,
				"element": "C" 
			},
			{
				"x": -5.1482373833,
				"y": 0.863915604,
				"z": 3.8051748381,
				"element": "O" 
			},
			{
				"x": -3.9169171691,
				"y": 0.9688336887,
				"z": 3.2267806962,
				"element": "C" 
			},
			{
				"x": -3.460282656,
				"y": 0.2082031956,
				"z": 2.140956929,
				"element": "C" 
			},
			{
				"x": -2.186731141,
				"y": 0.4212007823,
				"z": 1.6193549452,
				"element": "C" 
			},
			{
				"x": -1.3276917313,
				"y": 1.3971536692,
				"z": 2.1622108631,
				"element": "C" 
			},
			{
				"x": 0.019704371,
				"y": 1.7137893845,
				"z": 1.7022787989,
				"element": "C" 
			},
			{
				"x": 0.8167687538,
				"y": 1.3529505654,
				"z": 0.6585143257,
				"element": "C" 
			},
			{
				"x": 0.6031596288,
				"y": 0.4111401425,
				"z": -0.4544138724,
				"element": "C" 
			},
			{
				"x": -0.3234601574,
				"y": -0.4041148225,
				"z": -0.502768156,
				"element": "O" 
			},
			{
				"x": 1.6001430568,
				"y": 0.430968338,
				"z": -1.5776099348,
				"element": "C" 
			},
			{
				"x": 2.5019424662,
				"y": 1.4826255877,
				"z": -1.8235776379,
				"element": "C" 
			},
			{
				"x": 3.3767109263,
				"y": 1.4386518696,
				"z": -2.9003285679,
				"element": "C" 
			},
			{
				"x": 3.3796643493,
				"y": 0.3325193827,
				"z": -3.7626084342,
				"element": "C" 
			},
			{
				"x": 4.2816063288,
				"y": 0.3974787592,
				"z": -4.7879077729,
				"element": "O" 
			},
			{
				"x": 4.3648662364,
				"y": -0.6619460429,
				"z": -5.73710833,
				"element": "C" 
			},
			{
				"x": 5.2470946286,
				"y": -1.7879412367,
				"z": -5.2015586584,
				"element": "C" 
			},
			{
				"x": 5.3956837025,
				"y": -3.0963639637,
				"z": -6.4439900984,
				"element": "Cl" 
			},
			{
				"x": 2.4858131446,
				"y": -0.7245452812,
				"z": -3.5370799478,
				"element": "C" 
			},
			{
				"x": 1.6063448797,
				"y": -0.6583359021,
				"z": -2.4606745368,
				"element": "C" 
			},
			{
				"x": -1.8103419547,
				"y": 2.142310674,
				"z": 3.2657852535,
				"element": "C" 
			},
			{
				"x": -3.0744381603,
				"y": 1.9406651304,
				"z": 3.7897555191,
				"element": "C" 
			},
			{
				"x": -4.7244748647,
				"y": -1.83120591,
				"z": 3.6976588377,
				"element": "H" 
			},
			{
				"x": -6.4442631383,
				"y": -2.2534635249,
				"z": 3.5185975002,
				"element": "H" 
			},
			{
				"x": -6.0951168884,
				"y": -0.1958509692,
				"z": 2.279471916,
				"element": "H" 
			},
			{
				"x": -7.0362435378,
				"y": 0.1916464154,
				"z": 3.730434664,
				"element": "H" 
			},
			{
				"x": -4.0813967445,
				"y": -0.5565482296,
				"z": 1.6892651829,
				"element": "H" 
			},
			{
				"x": -1.8344158259,
				"y": -0.1756303189,
				"z": 0.7882166405,
				"element": "H" 
			},
			{
				"x": 0.4939879815,
				"y": 2.4476420619,
				"z": 2.3554762226,
				"element": "H" 
			},
			{
				"x": 1.7876457823,
				"y": 1.8378686122,
				"z": 0.6541074101,
				"element": "H" 
			},
			{
				"x": 2.5084547684,
				"y": 2.3627645191,
				"z": -1.1897793123,
				"element": "H" 
			},
			{
				"x": 4.0647493449,
				"y": 2.2529751918,
				"z": -3.1014925093,
				"element": "H" 
			},
			{
				"x": 4.8224444739,
				"y": -0.2235217987,
				"z": -6.6268115243,
				"element": "H" 
			},
			{
				"x": 3.3732097521,
				"y": -1.034460823,
				"z": -6.0141245614,
				"element": "H" 
			},
			{
				"x": 4.8293942891,
				"y": -2.2419225003,
				"z": -4.3026274636,
				"element": "H" 
			},
			{
				"x": 6.2521760132,
				"y": -1.4230507986,
				"z": -4.9880004975,
				"element": "H" 
			},
			{
				"x": 2.4638871128,
				"y": -1.593226663,
				"z": -4.1849579231,
				"element": "H" 
			},
			{
				"x": 0.9007039883,
				"y": -1.4623042957,
				"z": -2.2811016766,
				"element": "H" 
			},
			{
				"x": -1.1712515434,
				"y": 2.8992808795,
				"z": 3.7134570702,
				"element": "H" 
			},
			{
				"x": -3.4383876475,
				"y": 2.5169727274,
				"z": 4.6335528416,
				"element": "H" 
			}
		],
		 "valence_orbital": [ 
			{
				"type": "occ",
				"energy": -0.26374,
				"method": "rhf"
			},
			{
				"type": "occ",
				"energy": -0.25812,
				"method": "rhf"
			},
			{
				"type": "occ",
				"energy": -0.24456,
				"method": "rhf"
			},
			{
				"type": "occ",
				"energy": -0.23269,
				"method": "rhf"
			},
			{
				"type": "occ",
				"energy": -0.21598,
				"method": "rhf"
			},
			{
				"type": "unocc",
				"energy": -0.07438,
				"method": "rhf"
			},
			{
				"type": "unocc",
				"energy": -0.01846,
				"method": "rhf"
			},
			{
				"type": "unocc",
				"energy": -0.0126,
				"method": "rhf"
			},
			{
				"type": "unocc",
				"energy": -0.00732,
				"method": "rhf"
			},
			{
				"type": "unocc",
				"energy": 0.0133,
				"method": "rhf"
			}
		],
		"cosmo_sigma_profile": { 
			"-0.025": 0.0,
			"-0.024": 0.0,
			"-0.023": 0.0,
			"-0.022": 0.0,
			"-0.021": 0.0,
			"-0.02": 0.0,
			"-0.019": 0.0,
			"-0.018": 0.0,
			"-0.017": 0.0,
			"-0.016": 0.0,
			"-0.015": 0.0,
			"-0.014": 0.0,
			"-0.013": 0.0,
			"-0.012": 0.0,
			"-0.011": 0.0,
			"-0.01": 0.435576438215,
			"-0.009": 2.98598335269,
			"-0.008": 11.308988207,
			"-0.007": 24.8346343856,
			"-0.006": 30.8287362469,
			"-0.005": 28.7334472926,
			"-0.004": 24.9299775466,
			"-0.003": 19.0099164297,
			"-0.002": 16.8838827837,
			"-0.001": 18.5701052417,
			"0.0": 22.5728407559,
			"0.001": 24.0710136248,
			"0.002": 30.3870222154,
			"0.003": 38.0931548265,
			"0.004": 41.9907306312,
			"0.005": 19.5709897458,
			"0.006": 23.9184669977,
			"0.007": 9.33903334361,
			"0.008": 4.78982656772,
			"0.009": 4.70960664991,
			"0.01": 2.45367082603,
			"0.011": 1.63423493602,
			"0.012": 1.95978503628,
			"0.013": 0.531977251375,
			"0.014": 0.0,
			"0.015": 0.0,
			"0.016": 0.0,
			"0.017": 0.0,
			"0.018": 0.0,
			"0.019": 0.0,
			"0.02": 0.0,
			"0.021": 0.0,
			"0.022": 0.0,
			"0.023": 0.0,
			"0.024": 0.0,
			"0.025": 0.0
		}
	}
}
