{
	 "smiles": "BrCC1=CC(Br)=CC=C1", 
	 "Tm": 315.15, 
	 "num_atms": 15, 
	 "gaussian": { 
		 "optdone": 1, 
		 "sigma_profile": "yes", 
		 "theory": "DFT", 
		 "functional": "B3LYP", 
		 "basiset": "6-31G**", 
		 "properties": { 
			 "R2extent": 4805.878, 
			 "electric_dipole_moment_norm": 2.31856088986, 
			 "electric_quadrupole_moment_norm": 8.92784268399, 
			 "total_energy": -5413.17468879, 
			 "HOMO_LUMO_gap": 0.20124, 
			 "cosmo_polarized_energy": -6.59, 
			 "cosmo_cavitation_energy": 23.77, 
			 "cosmo_dispersion_energy": -18.1, 
			 "cosmo_repulsion_energy": 1.5, 
			 "cosmo_total_nonelectrostatic_energy": 7.17, 
			 "SMD_solvation_energy": 1.66 
		},
		"coords": [
			{
				"x": -0.0506944875,
				"y": 3.1054916021,
				"z": 1.5932730366,
				"element": "Br" 
			},
			{
				"x": 0.2242531534,
				"y": 1.607234467,
				"z": 0.2907683813,
				"element": "C" 
			},
			{
				"x": 0.1548751716,
				"y": 0.26668009,
				"z": 0.9492283233,
				"element": "C" 
			},
			{
				"x": -1.0639403203,
				"y": -0.4221363131,
				"z": 1.0104743906,
				"element": "C" 
			},
			{
				"x": -1.1162472668,
				"y": -1.6769094481,
				"z": 1.6110477103,
				"element": "C" 
			},
			{
				"x": -2.7828104882,
				"y": -2.6104846963,
				"z": 1.6804783799,
				"element": "Br" 
			},
			{
				"x": 0.0215845795,
				"y": -2.2676175582,
				"z": 2.1585270929,
				"element": "C" 
			},
			{
				"x": 1.2333929931,
				"y": -1.5769571235,
				"z": 2.0970890074,
				"element": "C" 
			},
			{
				"x": 1.3025811687,
				"y": -0.3205440161,
				"z": 1.4983927232,
				"element": "C" 
			},
			{
				"x": -0.5557171711,
				"y": 1.7505234813,
				"z": -0.4545541537,
				"element": "H" 
			},
			{
				"x": 1.2002378023,
				"y": 1.8081524723,
				"z": -0.1470993431,
				"element": "H" 
			},
			{
				"x": -1.9636601157,
				"y": 0.0189827914,
				"z": 0.5950754383,
				"element": "H" 
			},
			{
				"x": -0.0393524478,
				"y": -3.246086903,
				"z": 2.6207513395,
				"element": "H" 
			},
			{
				"x": 2.1266541892,
				"y": -2.027816775,
				"z": 2.5187757924,
				"element": "H" 
			},
			{
				"x": 2.2486432397,
				"y": 0.2117879293,
				"z": 1.458671881,
				"element": "H" 
			}
		],
		 "valence_orbital": [ 
			{
				"type": "occ",
				"energy": -0.2922,
				"method": "rhf"
			},
			{
				"type": "occ",
				"energy": -0.27979,
				"method": "rhf"
			},
			{
				"type": "occ",
				"energy": -0.27506,
				"method": "rhf"
			},
			{
				"type": "occ",
				"energy": -0.26366,
				"method": "rhf"
			},
			{
				"type": "occ",
				"energy": -0.24892,
				"method": "rhf"
			},
			{
				"type": "unocc",
				"energy": -0.04768,
				"method": "rhf"
			},
			{
				"type": "unocc",
				"energy": -0.02275,
				"method": "rhf"
			},
			{
				"type": "unocc",
				"energy": 0.0014,
				"method": "rhf"
			},
			{
				"type": "unocc",
				"energy": 0.0199,
				"method": "rhf"
			},
			{
				"type": "unocc",
				"energy": 0.08924,
				"method": "rhf"
			}
		],
		"cosmo_sigma_profile": { 
			"-0.025": 0.0,
			"-0.024": 0.0,
			"-0.023": 0.0,
			"-0.022": 0.0,
			"-0.021": 0.0,
			"-0.02": 0.0,
			"-0.019": 0.0,
			"-0.018": 0.0,
			"-0.017": 0.0,
			"-0.016": 0.0,
			"-0.015": 0.0,
			"-0.014": 0.0,
			"-0.013": 0.0,
			"-0.012": 0.0,
			"-0.011": 0.0,
			"-0.01": 0.0,
			"-0.009": 0.192433209398,
			"-0.008": 5.78973130536,
			"-0.007": 12.1381416261,
			"-0.006": 10.6572603695,
			"-0.005": 11.7993150513,
			"-0.004": 10.5750125065,
			"-0.003": 9.36908130195,
			"-0.002": 9.70372606948,
			"-0.001": 11.1796537241,
			"0.0": 11.5403196429,
			"0.001": 14.5383784339,
			"0.002": 19.8043827512,
			"0.003": 22.4879625362,
			"0.004": 20.3483368506,
			"0.005": 12.3709947486,
			"0.006": 11.546965958,
			"0.007": 2.88803608683,
			"0.008": 0.0,
			"0.009": 0.0,
			"0.01": 0.0,
			"0.011": 0.0,
			"0.012": 0.0,
			"0.013": 0.0,
			"0.014": 0.0,
			"0.015": 0.0,
			"0.016": 0.0,
			"0.017": 0.0,
			"0.018": 0.0,
			"0.019": 0.0,
			"0.02": 0.0,
			"0.021": 0.0,
			"0.022": 0.0,
			"0.023": 0.0,
			"0.024": 0.0,
			"0.025": 0.0
		}
	}
}
