{
	 "smiles": "CC(C)(C(O)=O)C1=CC(=CC=C1)C#N", 
	 "Tm": 365.15, 
	 "num_atms": 25, 
	 "gaussian": { 
		 "optdone": 1, 
		 "sigma_profile": "yes", 
		 "theory": "DFT", 
		 "functional": "B3LYP", 
		 "basiset": "6-31G**", 
		 "properties": { 
			 "R2extent": 3361.6991, 
			 "electric_dipole_moment_norm": 1.67290359256, 
			 "electric_quadrupole_moment_norm": 31.4882062374, 
			 "total_energy": -630.997431328, 
			 "HOMO_LUMO_gap": 0.20194, 
			 "cosmo_polarized_energy": -17.84, 
			 "cosmo_cavitation_energy": 29.52, 
			 "cosmo_dispersion_energy": -20.0, 
			 "cosmo_repulsion_energy": 1.57, 
			 "cosmo_total_nonelectrostatic_energy": 11.08, 
			 "SMD_solvation_energy": 7.56 
		},
		"coords": [
			{
				"x": -1.0666069932,
				"y": 0.3601095738,
				"z": 1.6089219153,
				"element": "C" 
			},
			{
				"x": -0.5082826411,
				"y": 0.3193042847,
				"z": 0.1663153518,
				"element": "C" 
			},
			{
				"x": -1.6682146205,
				"y": 0.0517250625,
				"z": -0.8140344488,
				"element": "C" 
			},
			{
				"x": 0.0675864201,
				"y": 1.7307052807,
				"z": -0.113172957,
				"element": "C" 
			},
			{
				"x": 1.260847181,
				"y": 2.0095398993,
				"z": 0.4710906866,
				"element": "O" 
			},
			{
				"x": -0.5032166069,
				"y": 2.5760448843,
				"z": -0.7556923745,
				"element": "O" 
			},
			{
				"x": 0.5922501852,
				"y": -0.7359177757,
				"z": -0.0262836144,
				"element": "C" 
			},
			{
				"x": 0.8939243242,
				"y": -1.7000927842,
				"z": 0.9391948702,
				"element": "C" 
			},
			{
				"x": 1.8880976607,
				"y": -2.6679247986,
				"z": 0.703097283,
				"element": "C" 
			},
			{
				"x": 2.5964888836,
				"y": -2.6767525334,
				"z": -0.5062658848,
				"element": "C" 
			},
			{
				"x": 2.3037724739,
				"y": -1.7130032256,
				"z": -1.4696399507,
				"element": "C" 
			},
			{
				"x": 1.3169978357,
				"y": -0.758759423,
				"z": -1.233256928,
				"element": "C" 
			},
			{
				"x": 2.1748739316,
				"y": -3.6467171903,
				"z": 1.7125187927,
				"element": "C" 
			},
			{
				"x": 2.4060645644,
				"y": -4.4377178984,
				"z": 2.5333619472,
				"element": "N" 
			},
			{
				"x": -1.5726219017,
				"y": -0.5777178906,
				"z": 1.8563655589,
				"element": "H" 
			},
			{
				"x": -1.8008171539,
				"y": 1.1656880351,
				"z": 1.6922192955,
				"element": "H" 
			},
			{
				"x": -0.2866506523,
				"y": 0.5392747255,
				"z": 2.3553969358,
				"element": "H" 
			},
			{
				"x": -2.4286392007,
				"y": 0.8291670214,
				"z": -0.7166154343,
				"element": "H" 
			},
			{
				"x": -1.3251560113,
				"y": 0.0528567977,
				"z": -1.8512510618,
				"element": "H" 
			},
			{
				"x": -2.1189673198,
				"y": -0.9219408898,
				"z": -0.6007327002,
				"element": "H" 
			},
			{
				"x": 1.6262693542,
				"y": 1.2091845407,
				"z": 0.8778622211,
				"element": "H" 
			},
			{
				"x": 0.3658064301,
				"y": -1.7253734512,
				"z": 1.8846260196,
				"element": "H" 
			},
			{
				"x": 3.3623106302,
				"y": -3.4250302801,
				"z": -0.6790190705,
				"element": "H" 
			},
			{
				"x": 2.848640434,
				"y": -1.7051436479,
				"z": -2.4083860886,
				"element": "H" 
			},
			{
				"x": 1.1069427923,
				"y": -0.013508317,
				"z": -1.9959203645,
				"element": "H" 
			}
		],
		 "valence_orbital": [ 
			{
				"type": "occ",
				"energy": -0.33965,
				"method": "rhf"
			},
			{
				"type": "occ",
				"energy": -0.3233,
				"method": "rhf"
			},
			{
				"type": "occ",
				"energy": -0.29288,
				"method": "rhf"
			},
			{
				"type": "occ",
				"energy": -0.28119,
				"method": "rhf"
			},
			{
				"type": "occ",
				"energy": -0.26906,
				"method": "rhf"
			},
			{
				"type": "unocc",
				"energy": -0.06712,
				"method": "rhf"
			},
			{
				"type": "unocc",
				"energy": -0.04076,
				"method": "rhf"
			},
			{
				"type": "unocc",
				"energy": -0.00011,
				"method": "rhf"
			},
			{
				"type": "unocc",
				"energy": 0.02696,
				"method": "rhf"
			},
			{
				"type": "unocc",
				"energy": 0.05278,
				"method": "rhf"
			}
		],
		"cosmo_sigma_profile": { 
			"-0.025": 0.0,
			"-0.024": 0.0,
			"-0.023": 0.0,
			"-0.022": 0.0,
			"-0.021": 0.0,
			"-0.02": 0.0,
			"-0.019": 0.0,
			"-0.018": 0.0,
			"-0.017": 0.025979105217,
			"-0.016": 0.494124131241,
			"-0.015": 0.470169853935,
			"-0.014": 1.21083800685,
			"-0.013": 1.16360561753,
			"-0.012": 1.30273666685,
			"-0.011": 1.01380668491,
			"-0.01": 1.08146357685,
			"-0.009": 1.14907098492,
			"-0.008": 5.11743922571,
			"-0.007": 11.6910260594,
			"-0.006": 13.7210365603,
			"-0.005": 14.8597866304,
			"-0.004": 17.5514663312,
			"-0.003": 18.0361493595,
			"-0.002": 18.7971261848,
			"-0.001": 21.1075985274,
			"0.0": 18.9726050052,
			"0.001": 13.1831865996,
			"0.002": 11.4120087093,
			"0.003": 5.41981763669,
			"0.004": 4.02784923585,
			"0.005": 4.8381764289,
			"0.006": 4.12598680295,
			"0.007": 5.18081183717,
			"0.008": 6.25958459041,
			"0.009": 6.79640942895,
			"0.01": 8.31565383531,
			"0.011": 7.93237128823,
			"0.012": 6.9784740491,
			"0.013": 2.60322914233,
			"0.014": 0.046092754073,
			"0.015": 0.0,
			"0.016": 0.0,
			"0.017": 0.0,
			"0.018": 0.0,
			"0.019": 0.0,
			"0.02": 0.0,
			"0.021": 0.0,
			"0.022": 0.0,
			"0.023": 0.0,
			"0.024": 0.0,
			"0.025": 0.0
		}
	}
}
