{
	 "smiles": "CC(C)N1C(=O)NC(=O)C2=C1CCCC2", 
	 "Tm": 503.15, 
	 "num_atms": 31, 
	 "gaussian": { 
		 "optdone": 1, 
		 "sigma_profile": "yes", 
		 "theory": "DFT", 
		 "functional": "B3LYP", 
		 "basiset": "6-31G**", 
		 "properties": { 
			 "R2extent": 4307.4053, 
			 "electric_dipole_moment_norm": 4.97402266782, 
			 "electric_quadrupole_moment_norm": 10.6186463295, 
			 "total_energy": -688.822559744, 
			 "HOMO_LUMO_gap": 0.1957, 
			 "cosmo_polarized_energy": -13.95, 
			 "cosmo_cavitation_energy": 31.24, 
			 "cosmo_dispersion_energy": -22.87, 
			 "cosmo_repulsion_energy": 1.78, 
			 "cosmo_total_nonelectrostatic_energy": 10.15, 
			 "SMD_solvation_energy": 6.07 
		},
		"coords": [
			{
				"x": -2.3493905543,
				"y": -1.3338874506,
				"z": -2.1811127804,
				"element": "C" 
			},
			{
				"x": -2.5952339165,
				"y": 0.1811982018,
				"z": -2.1520043092,
				"element": "C" 
			},
			{
				"x": -3.8345709567,
				"y": 0.6004641168,
				"z": -1.3490490778,
				"element": "C" 
			},
			{
				"x": -1.3523029305,
				"y": 0.9577507416,
				"z": -1.8421468307,
				"element": "N" 
			},
			{
				"x": -0.7525395537,
				"y": 1.5213906755,
				"z": -2.9837222923,
				"element": "C" 
			},
			{
				"x": -1.2101987365,
				"y": 1.4146270585,
				"z": -4.1145353523,
				"element": "O" 
			},
			{
				"x": 0.4126861701,
				"y": 2.2189753289,
				"z": -2.750203763,
				"element": "N" 
			},
			{
				"x": 1.0740148504,
				"y": 2.4063155739,
				"z": -1.5347156602,
				"element": "C" 
			},
			{
				"x": 2.1180367706,
				"y": 3.0456107377,
				"z": -1.4863570449,
				"element": "O" 
			},
			{
				"x": 0.4061024769,
				"y": 1.7837754681,
				"z": -0.3991454635,
				"element": "C" 
			},
			{
				"x": -0.7519851462,
				"y": 1.082221507,
				"z": -0.5782656695,
				"element": "C" 
			},
			{
				"x": -1.4406821085,
				"y": 0.4421972623,
				"z": 0.6125302096,
				"element": "C" 
			},
			{
				"x": -0.5174565946,
				"y": 0.2779437771,
				"z": 1.827042582,
				"element": "C" 
			},
			{
				"x": 0.2170603053,
				"y": 1.5848553138,
				"z": 2.1253960372,
				"element": "C" 
			},
			{
				"x": 1.0968450657,
				"y": 1.9659577732,
				"z": 0.9340091537,
				"element": "C" 
			},
			{
				"x": -1.51014123,
				"y": -1.5692264414,
				"z": -2.8413658791,
				"element": "H" 
			},
			{
				"x": -2.1429276931,
				"y": -1.7635576379,
				"z": -1.1968455643,
				"element": "H" 
			},
			{
				"x": -3.2387589216,
				"y": -1.8344564757,
				"z": -2.5779714054,
				"element": "H" 
			},
			{
				"x": -2.7842574174,
				"y": 0.4770634012,
				"z": -3.1832457582,
				"element": "H" 
			},
			{
				"x": -4.7233074443,
				"y": 0.2613489222,
				"z": -1.8909794605,
				"element": "H" 
			},
			{
				"x": -3.8962383247,
				"y": 1.689397542,
				"z": -1.263470409,
				"element": "H" 
			},
			{
				"x": -3.8836244172,
				"y": 0.1679212902,
				"z": -0.348235511,
				"element": "H" 
			},
			{
				"x": 0.8420820994,
				"y": 2.6247910385,
				"z": -3.5726467398,
				"element": "H" 
			},
			{
				"x": -2.2954682521,
				"y": 1.0696189766,
				"z": 0.8957382583,
				"element": "H" 
			},
			{
				"x": -1.8538438735,
				"y": -0.5287613579,
				"z": 0.3365101507,
				"element": "H" 
			},
			{
				"x": 0.2128624752,
				"y": -0.5172898669,
				"z": 1.6287598438,
				"element": "H" 
			},
			{
				"x": -1.1161646066,
				"y": -0.0475800399,
				"z": 2.6848315977,
				"element": "H" 
			},
			{
				"x": 0.826550089,
				"y": 1.4937659826,
				"z": 3.0307766637,
				"element": "H" 
			},
			{
				"x": -0.5186797848,
				"y": 2.3774839294,
				"z": 2.3170711935,
				"element": "H" 
			},
			{
				"x": 1.4386162869,
				"y": 3.0036922905,
				"z": 1.0053291759,
				"element": "H" 
			},
			{
				"x": 2.0161158732,
				"y": 1.3629923607,
				"z": 0.9384241049,
				"element": "H" 
			}
		],
		 "valence_orbital": [ 
			{
				"type": "occ",
				"energy": -0.31978,
				"method": "rhf"
			},
			{
				"type": "occ",
				"energy": -0.28021,
				"method": "rhf"
			},
			{
				"type": "occ",
				"energy": -0.27455,
				"method": "rhf"
			},
			{
				"type": "occ",
				"energy": -0.25191,
				"method": "rhf"
			},
			{
				"type": "occ",
				"energy": -0.22403,
				"method": "rhf"
			},
			{
				"type": "unocc",
				"energy": -0.02833,
				"method": "rhf"
			},
			{
				"type": "unocc",
				"energy": 0.01952,
				"method": "rhf"
			},
			{
				"type": "unocc",
				"energy": 0.06673,
				"method": "rhf"
			},
			{
				"type": "unocc",
				"energy": 0.09011,
				"method": "rhf"
			},
			{
				"type": "unocc",
				"energy": 0.09869,
				"method": "rhf"
			}
		],
		"cosmo_sigma_profile": { 
			"-0.025": 0.0,
			"-0.024": 0.0,
			"-0.023": 0.0,
			"-0.022": 0.0,
			"-0.021": 0.0,
			"-0.02": 0.0,
			"-0.019": 0.0,
			"-0.018": 0.0,
			"-0.017": 0.0,
			"-0.016": 0.098830108575,
			"-0.015": 0.990524743398,
			"-0.014": 0.723479157769,
			"-0.013": 0.890681618859,
			"-0.012": 0.617442856807,
			"-0.011": 0.607740985927,
			"-0.01": 0.447987418481,
			"-0.009": 0.85939240423,
			"-0.008": 0.86414372515,
			"-0.007": 0.934330187586,
			"-0.006": 2.75619939848,
			"-0.005": 6.33902610749,
			"-0.004": 22.3786313474,
			"-0.003": 36.170283327,
			"-0.002": 39.5765615438,
			"-0.001": 36.239631699,
			"0.0": 33.0724587367,
			"0.001": 13.0206973607,
			"0.002": 3.50560845604,
			"0.003": 3.07795746791,
			"0.004": 3.04108062077,
			"0.005": 3.04888122728,
			"0.006": 2.1374638156,
			"0.007": 3.10332535875,
			"0.008": 1.95854323725,
			"0.009": 2.78592775876,
			"0.01": 2.98412012958,
			"0.011": 2.61530034381,
			"0.012": 5.63660753058,
			"0.013": 9.34102648205,
			"0.014": 4.16724366483,
			"0.015": 0.113915657382,
			"0.016": 0.0,
			"0.017": 0.0,
			"0.018": 0.0,
			"0.019": 0.0,
			"0.02": 0.0,
			"0.021": 0.0,
			"0.022": 0.0,
			"0.023": 0.0,
			"0.024": 0.0,
			"0.025": 0.0
		}
	}
}
