{
	 "smiles": "CC(=O)OC1=CC=C(I)C=C1", 
	 "Tm": 305.15, 
	 "num_atms": 18, 
	 "gaussian": { 
		 "optdone": 1, 
		 "sigma_profile": "no", 
		 "theory": "DFT", 
		 "functional": "B3LYP", 
		 "basiset": "6-31G**", 
		 "properties": { 
			 "R2extent": 2693.8749, 
			 "electric_dipole_moment_norm": 2.8373462672, 
			 "electric_quadrupole_moment_norm": 6.65427035594, 
			 "total_energy": -470.911058702, 
			 "HOMO_LUMO_gap": 0.19616, 
			 "cosmo_polarized_energy": -104677.08, 
			 "cosmo_cavitation_energy": 26.02, 
			 "cosmo_dispersion_energy": -20.55, 
			 "cosmo_repulsion_energy": 1.63, 
			 "cosmo_total_nonelectrostatic_energy": 7.1, 
			 "SMD_solvation_energy": 4.96 
		},
		"coords": [
			{
				"x": 1.3522668288,
				"y": 2.4292080223,
				"z": -0.0699952095,
				"element": "C" 
			},
			{
				"x": 0.5465999853,
				"y": 1.1780386304,
				"z": 0.1753527903,
				"element": "C" 
			},
			{
				"x": -0.0530906875,
				"y": 0.9077955673,
				"z": 1.1860637015,
				"element": "O" 
			},
			{
				"x": 0.6003183573,
				"y": 0.3776184162,
				"z": -0.9379739729,
				"element": "O" 
			},
			{
				"x": -0.0321604315,
				"y": -0.8613434375,
				"z": -1.0017912468,
				"element": "C" 
			},
			{
				"x": 0.6251389856,
				"y": -1.817675611,
				"z": -1.7763275201,
				"element": "C" 
			},
			{
				"x": 0.0533086992,
				"y": -3.0738700576,
				"z": -1.9687788847,
				"element": "C" 
			},
			{
				"x": -1.1789128987,
				"y": -3.3609193075,
				"z": -1.3782104019,
				"element": "C" 
			},
			{
				"x": -2.0574763957,
				"y": -5.2702869368,
				"z": -1.6595545948,
				"element": "I" 
			},
			{
				"x": -1.8379581212,
				"y": -2.4035127844,
				"z": -0.606146913,
				"element": "C" 
			},
			{
				"x": -1.2671340567,
				"y": -1.1434131672,
				"z": -0.4151087149,
				"element": "C" 
			},
			{
				"x": 0.9708011398,
				"y": 2.9546493898,
				"z": -0.9503434688,
				"element": "H" 
			},
			{
				"x": 1.2920632825,
				"y": 3.0736056406,
				"z": 0.8061804152,
				"element": "H" 
			},
			{
				"x": 2.3955794144,
				"y": 2.1694162988,
				"z": -0.2721563913,
				"element": "H" 
			},
			{
				"x": 1.579903978,
				"y": -1.5672161587,
				"z": -2.2265991414,
				"element": "H" 
			},
			{
				"x": 0.566360347,
				"y": -3.814600397,
				"z": -2.5713254472,
				"element": "H" 
			},
			{
				"x": -2.7954368742,
				"y": -2.6275822062,
				"z": -0.1497876144,
				"element": "H" 
			},
			{
				"x": -1.7719715524,
				"y": -0.4046119016,
				"z": 0.1910026147,
				"element": "H" 
			}
		],
		 "valence_orbital": [ 
			{
				"type": "occ",
				"energy": -0.2877,
				"method": "rhf"
			},
			{
				"type": "occ",
				"energy": -0.28672,
				"method": "rhf"
			},
			{
				"type": "occ",
				"energy": -0.26893,
				"method": "rhf"
			},
			{
				"type": "occ",
				"energy": -0.26766,
				"method": "rhf"
			},
			{
				"type": "occ",
				"energy": -0.23521,
				"method": "rhf"
			},
			{
				"type": "unocc",
				"energy": -0.03905,
				"method": "rhf"
			},
			{
				"type": "unocc",
				"energy": -0.02694,
				"method": "rhf"
			},
			{
				"type": "unocc",
				"energy": -0.01903,
				"method": "rhf"
			},
			{
				"type": "unocc",
				"energy": 0.00745,
				"method": "rhf"
			},
			{
				"type": "unocc",
				"energy": 0.0433,
				"method": "rhf"
			}
		],
		"cosmo_sigma_profile": { 
			"0.0": 0.0,
			"0.0": 0.0,
			"0.0": 0.0,
			"0.0": 0.0,
			"0.0": 0.0,
			"0.0": 0.0,
			"0.0": 0.0,
			"0.0": 0.0,
			"0.0": 0.0,
			"0.0": 0.0,
			"0.0": 0.0,
			"0.0": 0.0,
			"0.0": 0.0,
			"0.0": 0.0,
			"0.0": 0.0,
			"0.0": 0.0,
			"0.0": 0.0,
			"0.0": 0.0,
			"0.0": 0.0,
			"0.0": 0.0,
			"0.0": 0.0,
			"0.0": 0.0,
			"0.0": 0.0,
			"0.0": 0.0,
			"0.0": 0.0,
			"0.0": 0.0,
			"0.0": 0.0,
			"0.0": 0.0,
			"0.0": 0.0,
			"0.0": 0.0,
			"0.0": 0.0,
			"0.0": 0.0,
			"0.0": 0.0,
			"0.0": 0.0,
			"0.0": 0.0,
			"0.0": 0.0,
			"0.0": 0.0,
			"0.0": 0.0,
			"0.0": 0.0,
			"0.0": 0.0,
			"0.0": 0.0,
			"0.0": 0.0,
			"0.0": 0.0,
			"0.0": 0.0,
			"0.0": 0.0,
			"0.0": 0.0,
			"0.0": 0.0,
			"0.0": 0.0,
			"0.0": 0.0,
			"0.0": 0.0,
			"0.0": 0.0
		}
	}
}
