{
	 "smiles": "OC(=O)C1=CC=CC=C1N1C(=O)C2=CC=CC=C2C1=O", 
	 "Tm": 492.15, 
	 "num_atms": 29, 
	 "gaussian": { 
		 "optdone": 1, 
		 "sigma_profile": "yes", 
		 "theory": "DFT", 
		 "functional": "B3LYP", 
		 "basiset": "6-31G**", 
		 "properties": { 
			 "R2extent": 6160.6266, 
			 "electric_dipole_moment_norm": 3.42114037859, 
			 "electric_quadrupole_moment_norm": 25.3438858599, 
			 "total_energy": -932.708377841, 
			 "HOMO_LUMO_gap": 0.16807, 
			 "cosmo_polarized_energy": -17.24, 
			 "cosmo_cavitation_energy": 34.86, 
			 "cosmo_dispersion_energy": -24.4, 
			 "cosmo_repulsion_energy": 1.85, 
			 "cosmo_total_nonelectrostatic_energy": 12.31, 
			 "SMD_solvation_energy": 8.38 
		},
		"coords": [
			{
				"x": -0.6491482681,
				"y": -0.9237787851,
				"z": 3.4473394361,
				"element": "O" 
			},
			{
				"x": -0.6730132021,
				"y": -2.1946256838,
				"z": 2.9797724298,
				"element": "C" 
			},
			{
				"x": -1.3665021567,
				"y": -3.0496446012,
				"z": 3.4919964257,
				"element": "O" 
			},
			{
				"x": 0.2713531772,
				"y": -2.4588958961,
				"z": 1.8525697567,
				"element": "C" 
			},
			{
				"x": 0.6303300787,
				"y": -3.8031338413,
				"z": 1.6730306329,
				"element": "C" 
			},
			{
				"x": 1.5620265556,
				"y": -4.1792443753,
				"z": 0.71171679,
				"element": "C" 
			},
			{
				"x": 2.1437134368,
				"y": -3.2062185302,
				"z": -0.1025552848,
				"element": "C" 
			},
			{
				"x": 1.7692655824,
				"y": -1.8716722586,
				"z": 0.032051871,
				"element": "C" 
			},
			{
				"x": 0.8343462848,
				"y": -1.4889208312,
				"z": 0.9984764456,
				"element": "C" 
			},
			{
				"x": 0.4622892907,
				"y": -0.1167993718,
				"z": 1.0554587955,
				"element": "N" 
			},
			{
				"x": -0.8650105575,
				"y": 0.3554336338,
				"z": 0.9018886505,
				"element": "C" 
			},
			{
				"x": -1.8385946449,
				"y": -0.3322696529,
				"z": 0.6852050943,
				"element": "O" 
			},
			{
				"x": -0.778693167,
				"y": 1.8357352651,
				"z": 1.0466688424,
				"element": "C" 
			},
			{
				"x": -1.7791959509,
				"y": 2.7952433934,
				"z": 0.9789923643,
				"element": "C" 
			},
			{
				"x": -1.4013574626,
				"y": 4.1326631744,
				"z": 1.1542841319,
				"element": "C" 
			},
			{
				"x": -0.0640824533,
				"y": 4.4823362516,
				"z": 1.3858449624,
				"element": "C" 
			},
			{
				"x": 0.9383710309,
				"y": 3.5059046573,
				"z": 1.4481649126,
				"element": "C" 
			},
			{
				"x": 0.5526757374,
				"y": 2.1841116644,
				"z": 1.2744900851,
				"element": "C" 
			},
			{
				"x": 1.3755666144,
				"y": 0.9410433693,
				"z": 1.2806902092,
				"element": "C" 
			},
			{
				"x": 2.5726218216,
				"y": 0.8232793552,
				"z": 1.4331356237,
				"element": "O" 
			},
			{
				"x": -1.2971158559,
				"y": -0.9059524104,
				"z": 4.1715992663,
				"element": "H" 
			},
			{
				"x": 0.1655624414,
				"y": -4.5379506539,
				"z": 2.3208035141,
				"element": "H" 
			},
			{
				"x": 1.8347631378,
				"y": -5.2239483209,
				"z": 0.5999455143,
				"element": "H" 
			},
			{
				"x": 2.8766030663,
				"y": -3.484661754,
				"z": -0.853759244,
				"element": "H" 
			},
			{
				"x": 2.1942077232,
				"y": -1.1118039835,
				"z": -0.6136691143,
				"element": "H" 
			},
			{
				"x": -2.810991027,
				"y": 2.511866416,
				"z": 0.7981536131,
				"element": "H" 
			},
			{
				"x": -2.1551593086,
				"y": 4.9130965424,
				"z": 1.1103756907,
				"element": "H" 
			},
			{
				"x": 0.1969835371,
				"y": 5.5281565871,
				"z": 1.51745082,
				"element": "H" 
			},
			{
				"x": 1.9774845382,
				"y": 3.7640506401,
				"z": 1.6246777651,
				"element": "H" 
			}
		],
		 "valence_orbital": [ 
			{
				"type": "occ",
				"energy": -0.28096,
				"method": "rhf"
			},
			{
				"type": "occ",
				"energy": -0.28007,
				"method": "rhf"
			},
			{
				"type": "occ",
				"energy": -0.26942,
				"method": "rhf"
			},
			{
				"type": "occ",
				"energy": -0.26302,
				"method": "rhf"
			},
			{
				"type": "occ",
				"energy": -0.25123,
				"method": "rhf"
			},
			{
				"type": "unocc",
				"energy": -0.08316,
				"method": "rhf"
			},
			{
				"type": "unocc",
				"energy": -0.05524,
				"method": "rhf"
			},
			{
				"type": "unocc",
				"energy": -0.04062,
				"method": "rhf"
			},
			{
				"type": "unocc",
				"energy": -0.01567,
				"method": "rhf"
			},
			{
				"type": "unocc",
				"energy": 0.02679,
				"method": "rhf"
			}
		],
		"cosmo_sigma_profile": { 
			"-0.025": 0.0,
			"-0.024": 0.0,
			"-0.023": 0.0,
			"-0.022": 0.0,
			"-0.021": 0.0,
			"-0.02": 0.0,
			"-0.019": 0.193911910786,
			"-0.018": 0.825767086126,
			"-0.017": 1.01092367396,
			"-0.016": 0.982072437356,
			"-0.015": 0.457313613717,
			"-0.014": 0.767262866356,
			"-0.013": 0.247088579035,
			"-0.012": 0.765137261465,
			"-0.011": 0.771046875348,
			"-0.01": 0.434126586815,
			"-0.009": 0.794168058845,
			"-0.008": 4.26360301652,
			"-0.007": 15.7408489089,
			"-0.006": 20.7851159297,
			"-0.005": 18.3136541766,
			"-0.004": 13.0376394353,
			"-0.003": 15.6498939614,
			"-0.002": 15.8369995679,
			"-0.001": 19.928567998,
			"0.0": 21.8987171457,
			"0.001": 24.9476430927,
			"0.002": 28.7673613049,
			"0.003": 15.1053857499,
			"0.004": 7.47589956855,
			"0.005": 5.96745104017,
			"0.006": 5.44835510525,
			"0.007": 5.4032408826,
			"0.008": 5.10870279264,
			"0.009": 5.98570274853,
			"0.01": 8.33038395423,
			"0.011": 13.0092080408,
			"0.012": 2.88937552876,
			"0.013": 0.0,
			"0.014": 0.0,
			"0.015": 0.0,
			"0.016": 0.0,
			"0.017": 0.0,
			"0.018": 0.0,
			"0.019": 0.0,
			"0.02": 0.0,
			"0.021": 0.0,
			"0.022": 0.0,
			"0.023": 0.0,
			"0.024": 0.0,
			"0.025": 0.0
		}
	}
}
