{
	 "smiles": "OC(C(=C)C#N)C1=CC=C(C=C1)[N+]([O-])=O", 
	 "Tm": 338.15, 
	 "num_atms": 23, 
	 "gaussian": { 
		 "optdone": 1, 
		 "sigma_profile": "yes", 
		 "theory": "DFT", 
		 "functional": "B3LYP", 
		 "basiset": "6-31G**", 
		 "properties": { 
			 "R2extent": 4542.2243, 
			 "electric_dipole_moment_norm": 5.59742192532, 
			 "electric_quadrupole_moment_norm": 25.6070937929, 
			 "total_energy": -720.908946899, 
			 "HOMO_LUMO_gap": 0.18573, 
			 "cosmo_polarized_energy": -16.99, 
			 "cosmo_cavitation_energy": 29.84, 
			 "cosmo_dispersion_energy": -20.21, 
			 "cosmo_repulsion_energy": 1.58, 
			 "cosmo_total_nonelectrostatic_energy": 11.21, 
			 "SMD_solvation_energy": 9.4 
		},
		"coords": [
			{
				"x": 0.415728016,
				"y": 3.0443360379,
				"z": -1.1842972529,
				"element": "O" 
			},
			{
				"x": -0.3388847974,
				"y": 1.8482810706,
				"z": -1.1317910083,
				"element": "C" 
			},
			{
				"x": 0.5128825434,
				"y": 0.7491117056,
				"z": -1.7670364714,
				"element": "C" 
			},
			{
				"x": 1.7821219387,
				"y": 0.9273979592,
				"z": -2.1556115511,
				"element": "C" 
			},
			{
				"x": -0.1457154101,
				"y": -0.5133192764,
				"z": -1.9488660732,
				"element": "C" 
			},
			{
				"x": -0.7169928336,
				"y": -1.5166287529,
				"z": -2.0919500278,
				"element": "N" 
			},
			{
				"x": -0.7414200948,
				"y": 1.4803320972,
				"z": 0.2953420359,
				"element": "C" 
			},
			{
				"x": 0.1299489353,
				"y": 1.7556633841,
				"z": 1.3584956183,
				"element": "C" 
			},
			{
				"x": -0.2180271283,
				"y": 1.4195654671,
				"z": 2.6627450178,
				"element": "C" 
			},
			{
				"x": -1.4467318534,
				"y": 0.8004653646,
				"z": 2.8878281427,
				"element": "C" 
			},
			{
				"x": -2.3303001115,
				"y": 0.5106286419,
				"z": 1.85121603,
				"element": "C" 
			},
			{
				"x": -1.9695814218,
				"y": 0.8587373023,
				"z": 0.551647511,
				"element": "C" 
			},
			{
				"x": -1.824237725,
				"y": 0.4466621506,
				"z": 4.2668333248,
				"element": "N" 
			},
			{
				"x": -1.0233289771,
				"y": 0.7128872574,
				"z": 5.1620765288,
				"element": "O" 
			},
			{
				"x": -2.9169156276,
				"y": -0.0914105056,
				"z": 4.4382534694,
				"element": "O" 
			},
			{
				"x": -0.1005427075,
				"y": 3.7402601453,
				"z": -0.7574030976,
				"element": "H" 
			},
			{
				"x": -1.2572054671,
				"y": 1.9383129181,
				"z": -1.734589856,
				"element": "H" 
			},
			{
				"x": 2.2588719418,
				"y": 1.8916374969,
				"z": -2.030681143,
				"element": "H" 
			},
			{
				"x": 2.3496888497,
				"y": 0.1203072377,
				"z": -2.6048895482,
				"element": "H" 
			},
			{
				"x": 1.0790411123,
				"y": 2.2401641096,
				"z": 1.1546585966,
				"element": "H" 
			},
			{
				"x": 0.436648325,
				"y": 1.623614209,
				"z": 3.5007123908,
				"element": "H" 
			},
			{
				"x": -3.2745953896,
				"y": 0.02971634,
				"z": 2.0729974699,
				"element": "H" 
			},
			{
				"x": -2.6485521174,
				"y": 0.6410776399,
				"z": -0.2675901064,
				"element": "H" 
			}
		],
		 "valence_orbital": [ 
			{
				"type": "occ",
				"energy": -0.31128,
				"method": "rhf"
			},
			{
				"type": "occ",
				"energy": -0.29541,
				"method": "rhf"
			},
			{
				"type": "occ",
				"energy": -0.29006,
				"method": "rhf"
			},
			{
				"type": "occ",
				"energy": -0.28623,
				"method": "rhf"
			},
			{
				"type": "occ",
				"energy": -0.28175,
				"method": "rhf"
			},
			{
				"type": "unocc",
				"energy": -0.09602,
				"method": "rhf"
			},
			{
				"type": "unocc",
				"energy": -0.05553,
				"method": "rhf"
			},
			{
				"type": "unocc",
				"energy": -0.03725,
				"method": "rhf"
			},
			{
				"type": "unocc",
				"energy": -0.00925,
				"method": "rhf"
			},
			{
				"type": "unocc",
				"energy": 0.01715,
				"method": "rhf"
			}
		],
		"cosmo_sigma_profile": { 
			"-0.025": 0.0,
			"-0.024": 0.0,
			"-0.023": 0.0,
			"-0.022": 0.0,
			"-0.021": 0.0,
			"-0.02": 0.0,
			"-0.019": 0.0,
			"-0.018": 0.0911295279447,
			"-0.017": 0.869580980545,
			"-0.016": 1.12435276389,
			"-0.015": 0.996511440472,
			"-0.014": 0.557760218415,
			"-0.013": 0.71236181076,
			"-0.012": 0.783074506667,
			"-0.011": 0.825241946476,
			"-0.01": 1.30261129313,
			"-0.009": 2.70681850883,
			"-0.008": 7.46021446322,
			"-0.007": 14.4533042458,
			"-0.006": 11.8464369765,
			"-0.005": 14.2526464148,
			"-0.004": 11.5421200387,
			"-0.003": 12.7640375723,
			"-0.002": 14.3458946148,
			"-0.001": 20.2918996185,
			"0.0": 19.9279145718,
			"0.001": 19.4323369576,
			"0.002": 12.0380892174,
			"0.003": 5.66660701248,
			"0.004": 6.31056885551,
			"0.005": 6.92528659296,
			"0.006": 7.98428417185,
			"0.007": 11.6266622815,
			"0.008": 11.8956320398,
			"0.009": 8.69836721248,
			"0.01": 5.95282593688,
			"0.011": 3.19918412573,
			"0.012": 2.37241341213,
			"0.013": 0.903617143148,
			"0.014": 0.0,
			"0.015": 0.0,
			"0.016": 0.0,
			"0.017": 0.0,
			"0.018": 0.0,
			"0.019": 0.0,
			"0.02": 0.0,
			"0.021": 0.0,
			"0.022": 0.0,
			"0.023": 0.0,
			"0.024": 0.0,
			"0.025": 0.0
		}
	}
}
