{
	 "smiles": "CCOC(=O)NC1=C(C=C(N)C=C1)C#N", 
	 "Tm": 440.15, 
	 "num_atms": 26, 
	 "gaussian": { 
		 "optdone": 1, 
		 "sigma_profile": "yes", 
		 "theory": "DFT", 
		 "functional": "B3LYP", 
		 "basiset": "6-31G**", 
		 "properties": { 
			 "R2extent": 4204.719, 
			 "electric_dipole_moment_norm": 6.72043213343, 
			 "electric_quadrupole_moment_norm": 19.8235759355, 
			 "total_energy": -702.405516445, 
			 "HOMO_LUMO_gap": 0.16778, 
			 "cosmo_polarized_energy": -20.62, 
			 "cosmo_cavitation_energy": 31.87, 
			 "cosmo_dispersion_energy": -21.63, 
			 "cosmo_repulsion_energy": 1.74, 
			 "cosmo_total_nonelectrostatic_energy": 11.98, 
			 "SMD_solvation_energy": 7.84 
		},
		"coords": [
			{
				"x": -2.8555399864,
				"y": -2.2636994161,
				"z": 0.3556377045,
				"element": "C" 
			},
			{
				"x": -1.3753208775,
				"y": -2.322226651,
				"z": 0.6801190302,
				"element": "C" 
			},
			{
				"x": -0.7131325607,
				"y": -1.3454850899,
				"z": -0.1563941482,
				"element": "O" 
			},
			{
				"x": 0.5852460662,
				"y": -1.1292797633,
				"z": 0.1277934463,
				"element": "C" 
			},
			{
				"x": 1.2440628246,
				"y": -1.7525292,
				"z": 0.9373060257,
				"element": "O" 
			},
			{
				"x": 1.1069522152,
				"y": -0.0918696315,
				"z": -0.6236574011,
				"element": "N" 
			},
			{
				"x": 0.4775093251,
				"y": 0.6449806796,
				"z": -1.6552663527,
				"element": "C" 
			},
			{
				"x": -0.6741748631,
				"y": 1.4294450678,
				"z": -1.4291433787,
				"element": "C" 
			},
			{
				"x": -1.2529591603,
				"y": 2.164190609,
				"z": -2.4738829391,
				"element": "C" 
			},
			{
				"x": -0.6848742435,
				"y": 2.1719749439,
				"z": -3.7550649301,
				"element": "C" 
			},
			{
				"x": -1.223427395,
				"y": 2.9557889603,
				"z": -4.770770668,
				"element": "N" 
			},
			{
				"x": 0.4820189451,
				"y": 1.4151692527,
				"z": -3.9653237222,
				"element": "C" 
			},
			{
				"x": 1.0370176574,
				"y": 0.662905842,
				"z": -2.9370410694,
				"element": "C" 
			},
			{
				"x": -1.2709351884,
				"y": 1.5212550839,
				"z": -0.1289059666,
				"element": "C" 
			},
			{
				"x": -1.7763354301,
				"y": 1.6366506178,
				"z": 0.9124247954,
				"element": "N" 
			},
			{
				"x": -3.3953607427,
				"y": -2.9972171586,
				"z": 0.9627712689,
				"element": "H" 
			},
			{
				"x": -3.0359440557,
				"y": -2.4913477901,
				"z": -0.6992084882,
				"element": "H" 
			},
			{
				"x": -3.2568600249,
				"y": -1.2701295756,
				"z": 0.5722898645,
				"element": "H" 
			},
			{
				"x": -1.175482781,
				"y": -2.0810941573,
				"z": 1.7275837286,
				"element": "H" 
			},
			{
				"x": -0.9456824255,
				"y": -3.3083863896,
				"z": 0.4756783338,
				"element": "H" 
			},
			{
				"x": 2.1102621377,
				"y": -0.0192030014,
				"z": -0.5338513599,
				"element": "H" 
			},
			{
				"x": -2.1432826013,
				"y": 2.750938682,
				"z": -2.2700865471,
				"element": "H" 
			},
			{
				"x": -0.9974853904,
				"y": 2.6692980977,
				"z": -5.712712018,
				"element": "H" 
			},
			{
				"x": -2.197445183,
				"y": 3.2025842187,
				"z": -4.6670243026,
				"element": "H" 
			},
			{
				"x": 0.9483404218,
				"y": 1.4096941083,
				"z": -4.9469755665,
				"element": "H" 
			},
			{
				"x": 1.9221333163,
				"y": 0.0631916606,
				"z": -3.1282953393,
				"element": "H" 
			}
		],
		 "valence_orbital": [ 
			{
				"type": "occ",
				"energy": -0.29114,
				"method": "rhf"
			},
			{
				"type": "occ",
				"energy": -0.27559,
				"method": "rhf"
			},
			{
				"type": "occ",
				"energy": -0.27066,
				"method": "rhf"
			},
			{
				"type": "occ",
				"energy": -0.26632,
				"method": "rhf"
			},
			{
				"type": "occ",
				"energy": -0.21584,
				"method": "rhf"
			},
			{
				"type": "unocc",
				"energy": -0.04806,
				"method": "rhf"
			},
			{
				"type": "unocc",
				"energy": -0.01357,
				"method": "rhf"
			},
			{
				"type": "unocc",
				"energy": 0.04148,
				"method": "rhf"
			},
			{
				"type": "unocc",
				"energy": 0.05716,
				"method": "rhf"
			},
			{
				"type": "unocc",
				"energy": 0.06324,
				"method": "rhf"
			}
		],
		"cosmo_sigma_profile": { 
			"-0.025": 0.0,
			"-0.024": 0.0,
			"-0.023": 0.0,
			"-0.022": 0.0,
			"-0.021": 0.0,
			"-0.02": 0.0,
			"-0.019": 0.0,
			"-0.018": 0.0,
			"-0.017": 0.0,
			"-0.016": 0.00748262895614,
			"-0.015": 0.665183697105,
			"-0.014": 1.04760362982,
			"-0.013": 3.30695262514,
			"-0.012": 4.00612396606,
			"-0.011": 4.59475684051,
			"-0.01": 4.31694465406,
			"-0.009": 4.76476003022,
			"-0.008": 5.64918240488,
			"-0.007": 8.29476517501,
			"-0.006": 7.85787363402,
			"-0.005": 12.4675169609,
			"-0.004": 16.0753323553,
			"-0.003": 16.1253033991,
			"-0.002": 14.6905822109,
			"-0.001": 18.4314320189,
			"0.0": 19.2895340063,
			"0.001": 14.9439668409,
			"0.002": 15.3569426991,
			"0.003": 18.4102915901,
			"0.004": 11.5631417434,
			"0.005": 6.50528581109,
			"0.006": 5.57986810465,
			"0.007": 5.80410225027,
			"0.008": 4.62874480864,
			"0.009": 4.80948142606,
			"0.01": 4.47063309709,
			"0.011": 5.00727814227,
			"0.012": 6.22001643278,
			"0.013": 7.92011876656,
			"0.014": 0.622483048024,
			"0.015": 0.0,
			"0.016": 0.0,
			"0.017": 0.0,
			"0.018": 0.0,
			"0.019": 0.0,
			"0.02": 0.0,
			"0.021": 0.0,
			"0.022": 0.0,
			"0.023": 0.0,
			"0.024": 0.0,
			"0.025": 0.0
		}
	}
}
