{
	 "smiles": "CC1CNC(=O)N(C1=O)C1=CC=CC=C1", 
	 "Tm": 448.15, 
	 "num_atms": 27, 
	 "gaussian": { 
		 "optdone": 1, 
		 "sigma_profile": "yes", 
		 "theory": "DFT", 
		 "functional": "B3LYP", 
		 "basiset": "6-31G**", 
		 "properties": { 
			 "R2extent": 3691.6545, 
			 "electric_dipole_moment_norm": 3.19309595847, 
			 "electric_quadrupole_moment_norm": 18.5884437619, 
			 "total_energy": -686.39147711, 
			 "HOMO_LUMO_gap": 0.22786, 
			 "cosmo_polarized_energy": -17.63, 
			 "cosmo_cavitation_energy": 30.39, 
			 "cosmo_dispersion_energy": -21.74, 
			 "cosmo_repulsion_energy": 1.72, 
			 "cosmo_total_nonelectrostatic_energy": 10.37, 
			 "SMD_solvation_energy": 5.8 
		},
		"coords": [
			{
				"x": -1.130114465,
				"y": -2.062171345,
				"z": -1.7888924037,
				"element": "C" 
			},
			{
				"x": -0.2214583643,
				"y": -0.853360868,
				"z": -1.5610649483,
				"element": "C" 
			},
			{
				"x": 1.1676805794,
				"y": -1.0296682994,
				"z": -2.1726368768,
				"element": "C" 
			},
			{
				"x": 1.9768315961,
				"y": 0.1319059936,
				"z": -1.8430321585,
				"element": "N" 
			},
			{
				"x": 2.0536237079,
				"y": 0.6446215708,
				"z": -0.5738179919,
				"element": "C" 
			},
			{
				"x": 2.9238419926,
				"y": 1.4188513033,
				"z": -0.2184299323,
				"element": "O" 
			},
			{
				"x": 1.0217174104,
				"y": 0.2177676448,
				"z": 0.3117898636,
				"element": "N" 
			},
			{
				"x": -0.1095434676,
				"y": -0.523004644,
				"z": -0.0712797705,
				"element": "C" 
			},
			{
				"x": -0.9598211744,
				"y": -0.8473233638,
				"z": 0.7357693698,
				"element": "O" 
			},
			{
				"x": 1.1282074354,
				"y": 0.6449339276,
				"z": 1.688989035,
				"element": "C" 
			},
			{
				"x": 0.233426547,
				"y": 1.5868882205,
				"z": 2.1961854076,
				"element": "C" 
			},
			{
				"x": 0.3354754355,
				"y": 1.9880037654,
				"z": 3.5277641603,
				"element": "C" 
			},
			{
				"x": 1.3331205615,
				"y": 1.4558146945,
				"z": 4.3467253138,
				"element": "C" 
			},
			{
				"x": 2.228062695,
				"y": 0.5164746804,
				"z": 3.8314819354,
				"element": "C" 
			},
			{
				"x": 2.1240310559,
				"y": 0.1057119919,
				"z": 2.5028884408,
				"element": "C" 
			},
			{
				"x": -1.3000213036,
				"y": -2.2177206312,
				"z": -2.8587493628,
				"element": "H" 
			},
			{
				"x": -0.6840553229,
				"y": -2.9723063617,
				"z": -1.3749567671,
				"element": "H" 
			},
			{
				"x": -2.090837087,
				"y": -1.9124069564,
				"z": -1.2946385658,
				"element": "H" 
			},
			{
				"x": -0.6733915547,
				"y": 0.0353641612,
				"z": -2.0264511435,
				"element": "H" 
			},
			{
				"x": 1.0942741551,
				"y": -1.1072165308,
				"z": -3.2610486931,
				"element": "H" 
			},
			{
				"x": 1.6223336513,
				"y": -1.9639448587,
				"z": -1.8052327308,
				"element": "H" 
			},
			{
				"x": 2.795999613,
				"y": 0.3420634376,
				"z": -2.3953391383,
				"element": "H" 
			},
			{
				"x": -0.5381604799,
				"y": 1.9956694779,
				"z": 1.5525405041,
				"element": "H" 
			},
			{
				"x": -0.3636453701,
				"y": 2.7186283546,
				"z": 3.9235770834,
				"element": "H" 
			},
			{
				"x": 1.412936009,
				"y": 1.7722995713,
				"z": 5.3826039049,
				"element": "H" 
			},
			{
				"x": 3.0072530344,
				"y": 0.1005179571,
				"z": 4.463228541,
				"element": "H" 
			},
			{
				"x": 2.8148331101,
				"y": -0.6236928936,
				"z": 2.092926924,
				"element": "H" 
			}
		],
		 "valence_orbital": [ 
			{
				"type": "occ",
				"energy": -0.27882,
				"method": "rhf"
			},
			{
				"type": "occ",
				"energy": -0.26454,
				"method": "rhf"
			},
			{
				"type": "occ",
				"energy": -0.25831,
				"method": "rhf"
			},
			{
				"type": "occ",
				"energy": -0.24755,
				"method": "rhf"
			},
			{
				"type": "occ",
				"energy": -0.24049,
				"method": "rhf"
			},
			{
				"type": "unocc",
				"energy": -0.01263,
				"method": "rhf"
			},
			{
				"type": "unocc",
				"energy": -0.00225,
				"method": "rhf"
			},
			{
				"type": "unocc",
				"energy": 0.00186,
				"method": "rhf"
			},
			{
				"type": "unocc",
				"energy": 0.0513,
				"method": "rhf"
			},
			{
				"type": "unocc",
				"energy": 0.07722,
				"method": "rhf"
			}
		],
		"cosmo_sigma_profile": { 
			"-0.025": 0.0,
			"-0.024": 0.0,
			"-0.023": 0.0,
			"-0.022": 0.0,
			"-0.021": 0.0,
			"-0.02": 0.0,
			"-0.019": 0.0,
			"-0.018": 0.0,
			"-0.017": 0.0,
			"-0.016": 0.0,
			"-0.015": 0.445640534369,
			"-0.014": 1.0824027547,
			"-0.013": 1.02825939863,
			"-0.012": 1.44380611525,
			"-0.011": 0.466780548393,
			"-0.01": 0.954982637206,
			"-0.009": 1.33457307365,
			"-0.008": 1.01899497947,
			"-0.007": 5.38790287092,
			"-0.006": 18.6556163806,
			"-0.005": 24.4622507321,
			"-0.004": 26.784231221,
			"-0.003": 20.7565411365,
			"-0.002": 17.2937886602,
			"-0.001": 13.7058105861,
			"0.0": 13.4093891111,
			"0.001": 11.4548143828,
			"0.002": 8.43391463467,
			"0.003": 9.44220134925,
			"0.004": 10.2907686274,
			"0.005": 10.4045027645,
			"0.006": 5.49197555149,
			"0.007": 3.50004810075,
			"0.008": 4.40433324847,
			"0.009": 3.38967411342,
			"0.01": 3.25468234538,
			"0.011": 4.99232998741,
			"0.012": 8.35766740781,
			"0.013": 7.41700622105,
			"0.014": 1.54122607748,
			"0.015": 0.0,
			"0.016": 0.0,
			"0.017": 0.0,
			"0.018": 0.0,
			"0.019": 0.0,
			"0.02": 0.0,
			"0.021": 0.0,
			"0.022": 0.0,
			"0.023": 0.0,
			"0.024": 0.0,
			"0.025": 0.0
		}
	}
}
