{
	 "smiles": "OC1=CC(F)=C(C=C1)C#N", 
	 "Tm": 398.15, 
	 "num_atms": 14, 
	 "gaussian": { 
		 "optdone": 1, 
		 "sigma_profile": "yes", 
		 "theory": "DFT", 
		 "functional": "B3LYP", 
		 "basiset": "6-31G**", 
		 "properties": { 
			 "R2extent": 1571.6031, 
			 "electric_dipole_moment_norm": 6.08596585597, 
			 "electric_quadrupole_moment_norm": 16.1950607365, 
			 "total_energy": -498.941767508, 
			 "HOMO_LUMO_gap": 0.20199, 
			 "cosmo_polarized_energy": -14.05, 
			 "cosmo_cavitation_energy": 20.4, 
			 "cosmo_dispersion_energy": -14.47, 
			 "cosmo_repulsion_energy": 1.16, 
			 "cosmo_total_nonelectrostatic_energy": 7.08, 
			 "SMD_solvation_energy": 5.86 
		},
		"coords": [
			{
				"x": 2.5055818,
				"y": -2.0272688092,
				"z": -0.354407349,
				"element": "O" 
			},
			{
				"x": 1.2789838752,
				"y": -1.4501933908,
				"z": -0.4008396619,
				"element": "C" 
			},
			{
				"x": 0.7549196453,
				"y": -0.9790797539,
				"z": 0.8091065732,
				"element": "C" 
			},
			{
				"x": -0.4936137702,
				"y": -0.3837159173,
				"z": 0.8055871191,
				"element": "C" 
			},
			{
				"x": -0.998857835,
				"y": 0.0684949793,
				"z": 1.961032791,
				"element": "F" 
			},
			{
				"x": -1.2542450278,
				"y": -0.2346227024,
				"z": -0.3663024863,
				"element": "C" 
			},
			{
				"x": -0.7049732463,
				"y": -0.7161448955,
				"z": -1.5674941912,
				"element": "C" 
			},
			{
				"x": 0.5462153091,
				"y": -1.3176464229,
				"z": -1.5906953987,
				"element": "C" 
			},
			{
				"x": -2.5395124853,
				"y": 0.3857125279,
				"z": -0.3287901429,
				"element": "C" 
			},
			{
				"x": -3.5886489119,
				"y": 0.8884604439,
				"z": -0.3179077397,
				"element": "N" 
			},
			{
				"x": 2.7652642924,
				"y": -2.3130147269,
				"z": -1.2403784934,
				"element": "H" 
			},
			{
				"x": 1.315413909,
				"y": -1.0783490658,
				"z": 1.7305708876,
				"element": "H" 
			},
			{
				"x": -1.2757540413,
				"y": -0.6109775618,
				"z": -2.4836197227,
				"element": "H" 
			},
			{
				"x": 0.9564264869,
				"y": -1.6845547044,
				"z": -2.527662185,
				"element": "H" 
			}
		],
		 "valence_orbital": [ 
			{
				"type": "occ",
				"energy": -0.35657,
				"method": "rhf"
			},
			{
				"type": "occ",
				"energy": -0.33106,
				"method": "rhf"
			},
			{
				"type": "occ",
				"energy": -0.33038,
				"method": "rhf"
			},
			{
				"type": "occ",
				"energy": -0.27716,
				"method": "rhf"
			},
			{
				"type": "occ",
				"energy": -0.24925,
				"method": "rhf"
			},
			{
				"type": "unocc",
				"energy": -0.04726,
				"method": "rhf"
			},
			{
				"type": "unocc",
				"energy": -0.02649,
				"method": "rhf"
			},
			{
				"type": "unocc",
				"energy": 0.03165,
				"method": "rhf"
			},
			{
				"type": "unocc",
				"energy": 0.04753,
				"method": "rhf"
			},
			{
				"type": "unocc",
				"energy": 0.07253,
				"method": "rhf"
			}
		],
		"cosmo_sigma_profile": { 
			"-0.025": 0.0,
			"-0.024": 0.0,
			"-0.023": 0.0,
			"-0.022": 0.0,
			"-0.021": 0.0,
			"-0.02": 0.0,
			"-0.019": 0.819544297731,
			"-0.018": 1.14816193638,
			"-0.017": 1.13361747038,
			"-0.016": 1.45194731611,
			"-0.015": 1.00602951373,
			"-0.014": 0.984341468216,
			"-0.013": 0.712013869727,
			"-0.012": 1.16238205374,
			"-0.011": 1.07073653953,
			"-0.01": 1.53142377379,
			"-0.009": 1.90249006545,
			"-0.008": 5.89778503643,
			"-0.007": 6.3985830456,
			"-0.006": 5.47879269605,
			"-0.005": 4.44751996731,
			"-0.004": 4.51995367449,
			"-0.003": 6.34501567928,
			"-0.002": 8.5859191479,
			"-0.001": 14.1826565659,
			"0.0": 16.2435132334,
			"0.001": 16.4785666619,
			"0.002": 11.2138252468,
			"0.003": 14.3599973631,
			"0.004": 4.79083784959,
			"0.005": 3.65278799716,
			"0.006": 4.4540630916,
			"0.007": 3.93004360378,
			"0.008": 4.84696882077,
			"0.009": 4.77908295164,
			"0.01": 4.90357826045,
			"0.011": 2.57844702737,
			"0.012": 2.64576766873,
			"0.013": 1.62003529165,
			"0.014": 0.0765420872771,
			"0.015": 0.0,
			"0.016": 0.0,
			"0.017": 0.0,
			"0.018": 0.0,
			"0.019": 0.0,
			"0.02": 0.0,
			"0.021": 0.0,
			"0.022": 0.0,
			"0.023": 0.0,
			"0.024": 0.0,
			"0.025": 0.0
		}
	}
}
