{
	 "smiles": "OC(=O)CCC1=CC=CC=C1Cl", 
	 "Tm": 368.65, 
	 "num_atms": 21, 
	 "gaussian": { 
		 "optdone": 1, 
		 "sigma_profile": "yes", 
		 "theory": "DFT", 
		 "functional": "B3LYP", 
		 "basiset": "6-31G**", 
		 "properties": { 
			 "R2extent": 4047.0978, 
			 "electric_dipole_moment_norm": 2.23841023497, 
			 "electric_quadrupole_moment_norm": 12.7530671413, 
			 "total_energy": -959.046214092, 
			 "HOMO_LUMO_gap": 0.23186, 
			 "cosmo_polarized_energy": -10.18, 
			 "cosmo_cavitation_energy": 27.07, 
			 "cosmo_dispersion_energy": -19.54, 
			 "cosmo_repulsion_energy": 1.58, 
			 "cosmo_total_nonelectrostatic_energy": 9.11, 
			 "SMD_solvation_energy": 5.39 
		},
		"coords": [
			{
				"x": 0.0313049504,
				"y": 2.6654623212,
				"z": -4.0592230089,
				"element": "O" 
			},
			{
				"x": -1.0732949331,
				"y": 2.1290819949,
				"z": -3.485090587,
				"element": "C" 
			},
			{
				"x": -2.1954425332,
				"y": 2.3948978205,
				"z": -3.8568055274,
				"element": "O" 
			},
			{
				"x": -0.7098171642,
				"y": 1.1941124704,
				"z": -2.3526522342,
				"element": "C" 
			},
			{
				"x": -1.9443681061,
				"y": 0.5233185652,
				"z": -1.7301235774,
				"element": "C" 
			},
			{
				"x": -1.5961820186,
				"y": -0.3573709475,
				"z": -0.551370917,
				"element": "C" 
			},
			{
				"x": -1.740291369,
				"y": 0.1269539798,
				"z": 0.7579103939,
				"element": "C" 
			},
			{
				"x": -1.415935698,
				"y": -0.6454882656,
				"z": 1.8717409043,
				"element": "C" 
			},
			{
				"x": -0.9342136202,
				"y": -1.9431268978,
				"z": 1.6981540594,
				"element": "C" 
			},
			{
				"x": -0.7801733264,
				"y": -2.4580236709,
				"z": 0.4118377291,
				"element": "C" 
			},
			{
				"x": -1.1078263294,
				"y": -1.6658801394,
				"z": -0.6884469874,
				"element": "C" 
			},
			{
				"x": -0.8962734091,
				"y": -2.3695404712,
				"z": -2.2952524023,
				"element": "Cl" 
			},
			{
				"x": -0.2897306319,
				"y": 3.2501403707,
				"z": -4.7662936168,
				"element": "H" 
			},
			{
				"x": -0.1556281788,
				"y": 1.7729857916,
				"z": -1.6034527445,
				"element": "H" 
			},
			{
				"x": -0.0033144789,
				"y": 0.4504109704,
				"z": -2.7368792989,
				"element": "H" 
			},
			{
				"x": -2.6431070462,
				"y": 1.3004458097,
				"z": -1.4077542205,
				"element": "H" 
			},
			{
				"x": -2.4602093025,
				"y": -0.0552278427,
				"z": -2.5014608274,
				"element": "H" 
			},
			{
				"x": -2.1227243164,
				"y": 1.1352273304,
				"z": 0.8953254529,
				"element": "H" 
			},
			{
				"x": -1.5434211217,
				"y": -0.2371517441,
				"z": 2.8697048538,
				"element": "H" 
			},
			{
				"x": -0.6806219952,
				"y": -2.5577636513,
				"z": 2.5565524722,
				"element": "H" 
			},
			{
				"x": -0.4108293715,
				"y": -3.4654637944,
				"z": 0.2548800841,
				"element": "H" 
			}
		],
		 "valence_orbital": [ 
			{
				"type": "occ",
				"energy": -0.31986,
				"method": "rhf"
			},
			{
				"type": "occ",
				"energy": -0.31296,
				"method": "rhf"
			},
			{
				"type": "occ",
				"energy": -0.27807,
				"method": "rhf"
			},
			{
				"type": "occ",
				"energy": -0.25806,
				"method": "rhf"
			},
			{
				"type": "occ",
				"energy": -0.24646,
				"method": "rhf"
			},
			{
				"type": "unocc",
				"energy": -0.0146,
				"method": "rhf"
			},
			{
				"type": "unocc",
				"energy": -0.01419,
				"method": "rhf"
			},
			{
				"type": "unocc",
				"energy": 0.00981,
				"method": "rhf"
			},
			{
				"type": "unocc",
				"energy": 0.02856,
				"method": "rhf"
			},
			{
				"type": "unocc",
				"energy": 0.07952,
				"method": "rhf"
			}
		],
		"cosmo_sigma_profile": { 
			"-0.025": 0.0,
			"-0.024": 0.0,
			"-0.023": 0.0,
			"-0.022": 0.0,
			"-0.021": 0.0,
			"-0.02": 0.0,
			"-0.019": 0.0,
			"-0.018": 0.681022286933,
			"-0.017": 0.839458901999,
			"-0.016": 0.716759705607,
			"-0.015": 0.890381927439,
			"-0.014": 0.670449497871,
			"-0.013": 1.03432916779,
			"-0.012": 0.482449229462,
			"-0.011": 0.718764275768,
			"-0.01": 0.53980360311,
			"-0.009": 0.500979381843,
			"-0.008": 0.615371064722,
			"-0.007": 3.34398688652,
			"-0.006": 12.8160124675,
			"-0.005": 15.7585194347,
			"-0.004": 16.4405368534,
			"-0.003": 14.6932609499,
			"-0.002": 16.2231442611,
			"-0.001": 15.7688893621,
			"0.0": 14.0010134418,
			"0.001": 14.8450899464,
			"0.002": 16.8517848233,
			"0.003": 16.6360490324,
			"0.004": 18.4905346249,
			"0.005": 10.6561148492,
			"0.006": 2.79141461322,
			"0.007": 3.21427570063,
			"0.008": 2.65436400072,
			"0.009": 2.93974743956,
			"0.01": 2.9180879082,
			"0.011": 3.64117055657,
			"0.012": 4.33582333119,
			"0.013": 0.34122669831,
			"0.014": 0.0,
			"0.015": 0.0,
			"0.016": 0.0,
			"0.017": 0.0,
			"0.018": 0.0,
			"0.019": 0.0,
			"0.02": 0.0,
			"0.021": 0.0,
			"0.022": 0.0,
			"0.023": 0.0,
			"0.024": 0.0,
			"0.025": 0.0
		}
	}
}
