{
	 "smiles": "CC1=CC(C)=C(NC(=O)CCl)C=C1", 
	 "Tm": 427.15, 
	 "num_atms": 25, 
	 "gaussian": { 
		 "optdone": 1, 
		 "sigma_profile": "yes", 
		 "theory": "DFT", 
		 "functional": "B3LYP", 
		 "basiset": "6-31G**", 
		 "properties": { 
			 "R2extent": 5112.6563, 
			 "electric_dipole_moment_norm": 4.76284584361, 
			 "electric_quadrupole_moment_norm": 20.7788952955, 
			 "total_energy": -978.489194132, 
			 "HOMO_LUMO_gap": 0.19919, 
			 "cosmo_polarized_energy": -11.73, 
			 "cosmo_cavitation_energy": 30.06, 
			 "cosmo_dispersion_energy": -21.46, 
			 "cosmo_repulsion_energy": 1.72, 
			 "cosmo_total_nonelectrostatic_energy": 10.33, 
			 "SMD_solvation_energy": 5.75 
		},
		"coords": [
			{
				"x": -0.7460700281,
				"y": 0.6091036745,
				"z": 2.9476511126,
				"element": "C" 
			},
			{
				"x": -0.6250013865,
				"y": 0.6946792031,
				"z": 1.4445785027,
				"element": "C" 
			},
			{
				"x": -0.3620175961,
				"y": -0.4477003694,
				"z": 0.6776995616,
				"element": "C" 
			},
			{
				"x": -0.2835698844,
				"y": -0.4175876326,
				"z": -0.7172551448,
				"element": "C" 
			},
			{
				"x": -0.0101878536,
				"y": -1.6771195045,
				"z": -1.5033643473,
				"element": "C" 
			},
			{
				"x": -0.4628902428,
				"y": 0.8211781521,
				"z": -1.368344646,
				"element": "C" 
			},
			{
				"x": -0.3520717027,
				"y": 0.8709772733,
				"z": -2.7849916275,
				"element": "N" 
			},
			{
				"x": -1.1447238994,
				"y": 1.464360984,
				"z": -3.741856624,
				"element": "C" 
			},
			{
				"x": -0.8508660409,
				"y": 1.4089165653,
				"z": -4.9257570583,
				"element": "O" 
			},
			{
				"x": -2.4359880792,
				"y": 2.1399455453,
				"z": -3.2853667612,
				"element": "C" 
			},
			{
				"x": -2.2522818896,
				"y": 3.9446905928,
				"z": -3.2571009056,
				"element": "Cl" 
			},
			{
				"x": -0.69238372,
				"y": 1.9790403851,
				"z": -0.6170365945,
				"element": "C" 
			},
			{
				"x": -0.7890949009,
				"y": 1.9097300817,
				"z": 0.7715409185,
				"element": "C" 
			},
			{
				"x": -1.7713440821,
				"y": 0.3607863106,
				"z": 3.2498334906,
				"element": "H" 
			},
			{
				"x": -0.0908846122,
				"y": -0.1643696829,
				"z": 3.3598186144,
				"element": "H" 
			},
			{
				"x": -0.4887330152,
				"y": 1.5598733971,
				"z": 3.4236554592,
				"element": "H" 
			},
			{
				"x": -0.2220157433,
				"y": -1.4012045566,
				"z": 1.1826337503,
				"element": "H" 
			},
			{
				"x": -0.0333878429,
				"y": -2.5544778279,
				"z": -0.8525937713,
				"element": "H" 
			},
			{
				"x": -0.747977941,
				"y": -1.8227396016,
				"z": -2.2998776154,
				"element": "H" 
			},
			{
				"x": 0.9777565366,
				"y": -1.6571153565,
				"z": -1.9831032336,
				"element": "H" 
			},
			{
				"x": 0.4122386606,
				"y": 0.358079289,
				"z": -3.2093462599,
				"element": "H" 
			},
			{
				"x": -3.1981925803,
				"y": 1.9214564872,
				"z": -4.0316842454,
				"element": "H" 
			},
			{
				"x": -2.7639320615,
				"y": 1.8351304492,
				"z": -2.2929794529,
				"element": "H" 
			},
			{
				"x": -0.7772327752,
				"y": 2.9361658163,
				"z": -1.1204744003,
				"element": "H" 
			},
			{
				"x": -0.9733473191,
				"y": 2.8197003253,
				"z": 1.3365212781,
				"element": "H" 
			}
		],
		 "valence_orbital": [ 
			{
				"type": "occ",
				"energy": -0.30447,
				"method": "rhf"
			},
			{
				"type": "occ",
				"energy": -0.29037,
				"method": "rhf"
			},
			{
				"type": "occ",
				"energy": -0.26037,
				"method": "rhf"
			},
			{
				"type": "occ",
				"energy": -0.25509,
				"method": "rhf"
			},
			{
				"type": "occ",
				"energy": -0.2293,
				"method": "rhf"
			},
			{
				"type": "unocc",
				"energy": -0.03011,
				"method": "rhf"
			},
			{
				"type": "unocc",
				"energy": -0.01126,
				"method": "rhf"
			},
			{
				"type": "unocc",
				"energy": -0.00359,
				"method": "rhf"
			},
			{
				"type": "unocc",
				"energy": 0.05824,
				"method": "rhf"
			},
			{
				"type": "unocc",
				"energy": 0.07921,
				"method": "rhf"
			}
		],
		"cosmo_sigma_profile": { 
			"-0.025": 0.0,
			"-0.024": 0.0,
			"-0.023": 0.0,
			"-0.022": 0.0,
			"-0.021": 0.0,
			"-0.02": 0.0,
			"-0.019": 0.0,
			"-0.018": 0.0,
			"-0.017": 0.0,
			"-0.016": 0.0,
			"-0.015": 0.0,
			"-0.014": 0.255136662961,
			"-0.013": 1.13756569102,
			"-0.012": 0.989052633444,
			"-0.011": 1.25581129382,
			"-0.01": 0.848587924252,
			"-0.009": 1.90095121139,
			"-0.008": 3.580454108,
			"-0.007": 5.27839407347,
			"-0.006": 7.15177790372,
			"-0.005": 12.5802682437,
			"-0.004": 21.8836877827,
			"-0.003": 20.0828760098,
			"-0.002": 21.1246496159,
			"-0.001": 23.4714926251,
			"0.0": 24.4725665257,
			"0.001": 15.1115497542,
			"0.002": 11.7013410213,
			"0.003": 13.3049822865,
			"0.004": 12.9538368469,
			"0.005": 15.5587173141,
			"0.006": 7.89920423821,
			"0.007": 2.01683759377,
			"0.008": 1.04301922637,
			"0.009": 0.767889584963,
			"0.01": 1.56457499313,
			"0.011": 1.96173942949,
			"0.012": 3.67437423985,
			"0.013": 5.28284475926,
			"0.014": 1.20321773062,
			"0.015": 0.000166301462965,
			"0.016": 0.0,
			"0.017": 0.0,
			"0.018": 0.0,
			"0.019": 0.0,
			"0.02": 0.0,
			"0.021": 0.0,
			"0.022": 0.0,
			"0.023": 0.0,
			"0.024": 0.0,
			"0.025": 0.0
		}
	}
}
