{
	 "smiles": "FC(F)(Cl)C(F)(Cl)Cl", 
	 "Tm": 238.15, 
	 "num_atms": 8, 
	 "gaussian": { 
		 "optdone": 1, 
		 "sigma_profile": "yes", 
		 "theory": "DFT", 
		 "functional": "B3LYP", 
		 "basiset": "6-31G**", 
		 "properties": { 
			 "R2extent": 3425.1287, 
			 "electric_dipole_moment_norm": 0.182262283537, 
			 "electric_quadrupole_moment_norm": 1.6501558684, 
			 "total_energy": -1756.27665361, 
			 "HOMO_LUMO_gap": 0.28384, 
			 "cosmo_polarized_energy": -1.01, 
			 "cosmo_cavitation_energy": 18.84, 
			 "cosmo_dispersion_energy": -13.86, 
			 "cosmo_repulsion_energy": 1.1, 
			 "cosmo_total_nonelectrostatic_energy": 6.08, 
			 "SMD_solvation_energy": 3.47 
		},
		"coords": [
			{
				"x": -1.3178319826,
				"y": -1.3789744657,
				"z": -1.5025491807,
				"element": "F" 
			},
			{
				"x": -2.1830003759,
				"y": -0.3875641244,
				"z": -1.7408485522,
				"element": "C" 
			},
			{
				"x": -3.0549499983,
				"y": -0.7865832131,
				"z": -2.6771629348,
				"element": "F" 
			},
			{
				"x": -3.0854324975,
				"y": -0.0049375918,
				"z": -0.2475159117,
				"element": "Cl" 
			},
			{
				"x": -1.4162650872,
				"y": 0.8642463572,
				"z": -2.2848944302,
				"element": "C" 
			},
			{
				"x": -2.3136465235,
				"y": 1.844333667,
				"z": -2.4837854366,
				"element": "F" 
			},
			{
				"x": -0.1804983952,
				"y": 1.4168201471,
				"z": -1.1262830968,
				"element": "Cl" 
			},
			{
				"x": -0.6643751398,
				"y": 0.4478592238,
				"z": -3.8551604569,
				"element": "Cl" 
			}
		],
		 "valence_orbital": [ 
			{
				"type": "occ",
				"energy": -0.36049,
				"method": "rhf"
			},
			{
				"type": "occ",
				"energy": -0.35582,
				"method": "rhf"
			},
			{
				"type": "occ",
				"energy": -0.34541,
				"method": "rhf"
			},
			{
				"type": "occ",
				"energy": -0.34377,
				"method": "rhf"
			},
			{
				"type": "occ",
				"energy": -0.32906,
				"method": "rhf"
			},
			{
				"type": "unocc",
				"energy": -0.04522,
				"method": "rhf"
			},
			{
				"type": "unocc",
				"energy": -0.02648,
				"method": "rhf"
			},
			{
				"type": "unocc",
				"energy": 0.01445,
				"method": "rhf"
			},
			{
				"type": "unocc",
				"energy": 0.06564,
				"method": "rhf"
			},
			{
				"type": "unocc",
				"energy": 0.13549,
				"method": "rhf"
			}
		],
		"cosmo_sigma_profile": { 
			"-0.025": 0.0,
			"-0.024": 0.0,
			"-0.023": 0.0,
			"-0.022": 0.0,
			"-0.021": 0.0,
			"-0.02": 0.0,
			"-0.019": 0.0,
			"-0.018": 0.0,
			"-0.017": 0.0,
			"-0.016": 0.0,
			"-0.015": 0.0,
			"-0.014": 0.0,
			"-0.013": 0.0,
			"-0.012": 0.0,
			"-0.011": 0.0,
			"-0.01": 0.0,
			"-0.009": 0.0,
			"-0.008": 0.0,
			"-0.007": 0.0,
			"-0.006": 0.350333879879,
			"-0.005": 3.47811510415,
			"-0.004": 5.62030945717,
			"-0.003": 7.84068640611,
			"-0.002": 10.9622484634,
			"-0.001": 18.3821241358,
			"0.0": 30.67518433,
			"0.001": 56.0940896884,
			"0.002": 24.5087542596,
			"0.003": 0.113198493568,
			"0.004": 0.0,
			"0.005": 0.0,
			"0.006": 0.0,
			"0.007": 0.0,
			"0.008": 0.0,
			"0.009": 0.0,
			"0.01": 0.0,
			"0.011": 0.0,
			"0.012": 0.0,
			"0.013": 0.0,
			"0.014": 0.0,
			"0.015": 0.0,
			"0.016": 0.0,
			"0.017": 0.0,
			"0.018": 0.0,
			"0.019": 0.0,
			"0.02": 0.0,
			"0.021": 0.0,
			"0.022": 0.0,
			"0.023": 0.0,
			"0.024": 0.0,
			"0.025": 0.0
		}
	}
}
