{
	 "smiles": "CCCCCCC=CCCC", 
	 "Tm": 209.45, 
	 "num_atms": 33, 
	 "gaussian": { 
		 "optdone": 1, 
		 "sigma_profile": "yes", 
		 "theory": "DFT", 
		 "functional": "B3LYP", 
		 "basiset": "6-31G**", 
		 "properties": { 
			 "R2extent": 3423.3693, 
			 "electric_dipole_moment_norm": 0.0890566673529, 
			 "electric_quadrupole_moment_norm": 1.75001531993, 
			 "total_energy": -432.438310716, 
			 "HOMO_LUMO_gap": 0.26262, 
			 "cosmo_polarized_energy": -1.61, 
			 "cosmo_cavitation_energy": 33.47, 
			 "cosmo_dispersion_energy": -22.86, 
			 "cosmo_repulsion_energy": 1.92, 
			 "cosmo_total_nonelectrostatic_energy": 12.53, 
			 "SMD_solvation_energy": 5.04 
		},
		"coords": [
			{
				"x": -0.3841181885,
				"y": 3.1447169836,
				"z": -2.5349100225,
				"element": "C" 
			},
			{
				"x": -0.1273799736,
				"y": 1.7058120453,
				"z": -2.0715150726,
				"element": "C" 
			},
			{
				"x": 1.3394653887,
				"y": 1.2558799135,
				"z": -2.1829800745,
				"element": "C" 
			},
			{
				"x": 2.3562159192,
				"y": 2.0653209413,
				"z": -1.3559443614,
				"element": "C" 
			},
			{
				"x": 2.1262318638,
				"y": 2.1667997567,
				"z": 0.1634756234,
				"element": "C" 
			},
			{
				"x": 2.2805115059,
				"y": 0.8616123556,
				"z": 0.9852733424,
				"element": "C" 
			},
			{
				"x": 1.0967716111,
				"y": -0.0715559529,
				"z": 0.9695113476,
				"element": "C" 
			},
			{
				"x": 0.2999703573,
				"y": -0.3044882594,
				"z": 2.0173501861,
				"element": "C" 
			},
			{
				"x": -0.8940214121,
				"y": -1.2195124956,
				"z": 2.0200233655,
				"element": "C" 
			},
			{
				"x": -2.2159069427,
				"y": -0.4916578257,
				"z": 2.3317242637,
				"element": "C" 
			},
			{
				"x": -3.4210278469,
				"y": -1.435564928,
				"z": 2.3825801506,
				"element": "C" 
			},
			{
				"x": 0.138160773,
				"y": 3.875707888,
				"z": -1.9088021195,
				"element": "H" 
			},
			{
				"x": -0.0464257964,
				"y": 3.2942224911,
				"z": -3.5673911857,
				"element": "H" 
			},
			{
				"x": -1.4515960643,
				"y": 3.3860797624,
				"z": -2.4972862838,
				"element": "H" 
			},
			{
				"x": -0.4732646694,
				"y": 1.5857009327,
				"z": -1.0372073849,
				"element": "H" 
			},
			{
				"x": -0.7418848962,
				"y": 1.0232488443,
				"z": -2.6729053757,
				"element": "H" 
			},
			{
				"x": 1.406329318,
				"y": 0.1947212972,
				"z": -1.9141886212,
				"element": "H" 
			},
			{
				"x": 1.6443077631,
				"y": 1.3113770344,
				"z": -3.2375678427,
				"element": "H" 
			},
			{
				"x": 2.3997306364,
				"y": 3.0869129102,
				"z": -1.7555014589,
				"element": "H" 
			},
			{
				"x": 3.3550088263,
				"y": 1.6406941162,
				"z": -1.5285764542,
				"element": "H" 
			},
			{
				"x": 2.8619147564,
				"y": 2.8839100004,
				"z": 0.5504244553,
				"element": "H" 
			},
			{
				"x": 1.1427890798,
				"y": 2.6048950032,
				"z": 0.3743863329,
				"element": "H" 
			},
			{
				"x": 3.1761603917,
				"y": 0.3302874135,
				"z": 0.6297883936,
				"element": "H" 
			},
			{
				"x": 2.482831695,
				"y": 1.1378902361,
				"z": 2.0274743632,
				"element": "H" 
			},
			{
				"x": 0.8846617394,
				"y": -0.5909721616,
				"z": 0.0349739297,
				"element": "H" 
			},
			{
				"x": 0.5089201132,
				"y": 0.2088968731,
				"z": 2.959105888,
				"element": "H" 
			},
			{
				"x": -0.9749112171,
				"y": -1.7266456914,
				"z": 1.0497681549,
				"element": "H" 
			},
			{
				"x": -0.7487453778,
				"y": -2.010359309,
				"z": 2.7720000114,
				"element": "H" 
			},
			{
				"x": -2.1199789273,
				"y": 0.0348118151,
				"z": 3.2908768839,
				"element": "H" 
			},
			{
				"x": -2.3812219577,
				"y": 0.2847212448,
				"z": 1.5740457482,
				"element": "H" 
			},
			{
				"x": -3.2918453897,
				"y": -2.2023636361,
				"z": 3.1551756712,
				"element": "H" 
			},
			{
				"x": -4.3453901543,
				"y": -0.8922890989,
				"z": 2.6045501075,
				"element": "H" 
			},
			{
				"x": -3.5607629244,
				"y": -1.9522105001,
				"z": 1.4260680386,
				"element": "H" 
			}
		],
		 "valence_orbital": [ 
			{
				"type": "occ",
				"energy": -0.31881,
				"method": "rhf"
			},
			{
				"type": "occ",
				"energy": -0.31005,
				"method": "rhf"
			},
			{
				"type": "occ",
				"energy": -0.30423,
				"method": "rhf"
			},
			{
				"type": "occ",
				"energy": -0.30387,
				"method": "rhf"
			},
			{
				"type": "occ",
				"energy": -0.2343,
				"method": "rhf"
			},
			{
				"type": "unocc",
				"energy": 0.02832,
				"method": "rhf"
			},
			{
				"type": "unocc",
				"energy": 0.08536,
				"method": "rhf"
			},
			{
				"type": "unocc",
				"energy": 0.09808,
				"method": "rhf"
			},
			{
				"type": "unocc",
				"energy": 0.10209,
				"method": "rhf"
			},
			{
				"type": "unocc",
				"energy": 0.11723,
				"method": "rhf"
			}
		],
		"cosmo_sigma_profile": { 
			"-0.025": 0.0,
			"-0.024": 0.0,
			"-0.023": 0.0,
			"-0.022": 0.0,
			"-0.021": 0.0,
			"-0.02": 0.0,
			"-0.019": 0.0,
			"-0.018": 0.0,
			"-0.017": 0.0,
			"-0.016": 0.0,
			"-0.015": 0.0,
			"-0.014": 0.0,
			"-0.013": 0.0,
			"-0.012": 0.0,
			"-0.011": 0.0,
			"-0.01": 0.0,
			"-0.009": 0.0,
			"-0.008": 0.0,
			"-0.007": 0.0,
			"-0.006": 0.0,
			"-0.005": 0.0,
			"-0.004": 1.45655355245,
			"-0.003": 11.7380776553,
			"-0.002": 40.5965726801,
			"-0.001": 53.9359070144,
			"0.0": 54.3229935955,
			"0.001": 53.2708721768,
			"0.002": 25.5232890498,
			"0.003": 5.6415078066,
			"0.004": 3.94545246871,
			"0.005": 3.14050205402,
			"0.006": 2.06540916494,
			"0.007": 1.34049046758,
			"0.008": 0.221910487673,
			"0.009": 0.0,
			"0.01": 0.0,
			"0.011": 0.0,
			"0.012": 0.0,
			"0.013": 0.0,
			"0.014": 0.0,
			"0.015": 0.0,
			"0.016": 0.0,
			"0.017": 0.0,
			"0.018": 0.0,
			"0.019": 0.0,
			"0.02": 0.0,
			"0.021": 0.0,
			"0.022": 0.0,
			"0.023": 0.0,
			"0.024": 0.0,
			"0.025": 0.0
		}
	}
}
