{
	 "smiles": "CCN(CC)C(=O)N1CCC(CC1)C(O)=O", 
	 "Tm": 370.15, 
	 "num_atms": 36, 
	 "gaussian": { 
		 "optdone": 1, 
		 "sigma_profile": "yes", 
		 "theory": "DFT", 
		 "functional": "B3LYP", 
		 "basiset": "6-31G**", 
		 "properties": { 
			 "R2extent": 5785.9789, 
			 "electric_dipole_moment_norm": 6.06716488238, 
			 "electric_quadrupole_moment_norm": 29.3068265058, 
			 "total_energy": -766.426684042, 
			 "HOMO_LUMO_gap": 0.22931, 
			 "cosmo_polarized_energy": -21.78, 
			 "cosmo_cavitation_energy": 36.38, 
			 "cosmo_dispersion_energy": -25.21, 
			 "cosmo_repulsion_energy": 1.99, 
			 "cosmo_total_nonelectrostatic_energy": 13.16, 
			 "SMD_solvation_energy": 6.87 
		},
		"coords": [
			{
				"x": 2.5352135837,
				"y": -3.1525832001,
				"z": -0.9757296704,
				"element": "C" 
			},
			{
				"x": 2.2725207833,
				"y": -1.6456306146,
				"z": -1.0070181224,
				"element": "C" 
			},
			{
				"x": 0.8765119679,
				"y": -1.3194774739,
				"z": -0.6776115789,
				"element": "N" 
			},
			{
				"x": -0.0582271445,
				"y": -1.3839832679,
				"z": -1.8130874506,
				"element": "C" 
			},
			{
				"x": -0.0758087773,
				"y": -0.1180598667,
				"z": -2.678962844,
				"element": "C" 
			},
			{
				"x": 0.6884658041,
				"y": -0.3688602545,
				"z": 0.3339967608,
				"element": "C" 
			},
			{
				"x": 1.603654222,
				"y": 0.3084596762,
				"z": 0.7983049289,
				"element": "O" 
			},
			{
				"x": -0.6141576907,
				"y": -0.221011861,
				"z": 0.8000872152,
				"element": "N" 
			},
			{
				"x": -0.7997617341,
				"y": 0.8825296545,
				"z": 1.7554957038,
				"element": "C" 
			},
			{
				"x": -2.2866034652,
				"y": 1.0505967678,
				"z": 2.0645849974,
				"element": "C" 
			},
			{
				"x": -2.8626603864,
				"y": -0.2110454451,
				"z": 2.7815383954,
				"element": "C" 
			},
			{
				"x": -2.0798786814,
				"y": -1.4711741746,
				"z": 2.3640540191,
				"element": "C" 
			},
			{
				"x": -1.5358252987,
				"y": -1.3621183924,
				"z": 0.9358282335,
				"element": "C" 
			},
			{
				"x": -2.8299021833,
				"y": -0.0265147303,
				"z": 4.3014678808,
				"element": "C" 
			},
			{
				"x": -3.7330792398,
				"y": 0.8654374763,
				"z": 4.7961545481,
				"element": "O" 
			},
			{
				"x": -2.0659402914,
				"y": -0.5801244317,
				"z": 5.0520459195,
				"element": "O" 
			},
			{
				"x": 1.9022312975,
				"y": -3.6961556453,
				"z": -1.685965309,
				"element": "H" 
			},
			{
				"x": 3.5784165785,
				"y": -3.3608898249,
				"z": -1.2370136457,
				"element": "H" 
			},
			{
				"x": 2.3443645635,
				"y": -3.5570711951,
				"z": 0.0229358651,
				"element": "H" 
			},
			{
				"x": 2.5282933148,
				"y": -1.2382410262,
				"z": -1.995234206,
				"element": "H" 
			},
			{
				"x": 2.9029656056,
				"y": -1.1280345317,
				"z": -0.2840501811,
				"element": "H" 
			},
			{
				"x": -1.0693368319,
				"y": -1.5985728001,
				"z": -1.462813496,
				"element": "H" 
			},
			{
				"x": 0.2380325266,
				"y": -2.2475513473,
				"z": -2.4172950906,
				"element": "H" 
			},
			{
				"x": 0.9195139675,
				"y": 0.1184337979,
				"z": -3.0674395962,
				"element": "H" 
			},
			{
				"x": -0.748621239,
				"y": -0.2506523969,
				"z": -3.5333695134,
				"element": "H" 
			},
			{
				"x": -0.4274364028,
				"y": 0.7408970794,
				"z": -2.0996058748,
				"element": "H" 
			},
			{
				"x": -0.2317577115,
				"y": 0.7075998156,
				"z": 2.6792838284,
				"element": "H" 
			},
			{
				"x": -0.3914251433,
				"y": 1.7924245213,
				"z": 1.3101698971,
				"element": "H" 
			},
			{
				"x": -2.4294407309,
				"y": 1.9481987865,
				"z": 2.6759428975,
				"element": "H" 
			},
			{
				"x": -2.8296868503,
				"y": 1.2161116023,
				"z": 1.1274045908,
				"element": "H" 
			},
			{
				"x": -3.9174498065,
				"y": -0.3177303616,
				"z": 2.4915430369,
				"element": "H" 
			},
			{
				"x": -1.2543816556,
				"y": -1.6154867999,
				"z": 3.0666785562,
				"element": "H" 
			},
			{
				"x": -2.7176888161,
				"y": -2.3578095702,
				"z": 2.4423129104,
				"element": "H" 
			},
			{
				"x": -0.9923351876,
				"y": -2.2743618393,
				"z": 0.680337555,
				"element": "H" 
			},
			{
				"x": -2.3751484315,
				"y": -1.2728862394,
				"z": 0.2289009052,
				"element": "H" 
			},
			{
				"x": -4.2896305154,
				"y": 1.2091381131,
				"z": 4.0829279339,
				"element": "H" 
			}
		],
		 "valence_orbital": [ 
			{
				"type": "occ",
				"energy": -0.3189,
				"method": "rhf"
			},
			{
				"type": "occ",
				"energy": -0.27338,
				"method": "rhf"
			},
			{
				"type": "occ",
				"energy": -0.25828,
				"method": "rhf"
			},
			{
				"type": "occ",
				"energy": -0.23061,
				"method": "rhf"
			},
			{
				"type": "occ",
				"energy": -0.2267,
				"method": "rhf"
			},
			{
				"type": "unocc",
				"energy": 0.00261,
				"method": "rhf"
			},
			{
				"type": "unocc",
				"energy": 0.04406,
				"method": "rhf"
			},
			{
				"type": "unocc",
				"energy": 0.04782,
				"method": "rhf"
			},
			{
				"type": "unocc",
				"energy": 0.07003,
				"method": "rhf"
			},
			{
				"type": "unocc",
				"energy": 0.08794,
				"method": "rhf"
			}
		],
		"cosmo_sigma_profile": { 
			"-0.025": 0.0,
			"-0.024": 0.0,
			"-0.023": 0.0,
			"-0.022": 0.0,
			"-0.021": 0.0,
			"-0.02": 0.0,
			"-0.019": 0.242109831318,
			"-0.018": 0.808435390071,
			"-0.017": 1.37811327515,
			"-0.016": 0.76975274509,
			"-0.015": 1.26100200375,
			"-0.014": 1.19484363707,
			"-0.013": 1.00496224251,
			"-0.012": 0.734515055749,
			"-0.011": 1.27414952003,
			"-0.01": 1.28770020172,
			"-0.009": 1.29439646419,
			"-0.008": 1.28947898191,
			"-0.007": 2.63974121692,
			"-0.006": 3.77933454169,
			"-0.005": 12.4871592183,
			"-0.004": 29.8543455114,
			"-0.003": 37.7491596268,
			"-0.002": 35.5452196683,
			"-0.001": 28.9542528319,
			"0.0": 24.079782762,
			"0.001": 20.9167193407,
			"0.002": 10.1816532636,
			"0.003": 6.58114621449,
			"0.004": 5.11778580097,
			"0.005": 5.02942875906,
			"0.006": 3.76192971168,
			"0.007": 4.26020239669,
			"0.008": 3.86003587417,
			"0.009": 4.45135872099,
			"0.01": 6.18115805049,
			"0.011": 7.11451085585,
			"0.012": 6.6478079814,
			"0.013": 3.24250546378,
			"0.014": 4.17703834933,
			"0.015": 3.07124799193,
			"0.016": 0.0,
			"0.017": 0.0,
			"0.018": 0.0,
			"0.019": 0.0,
			"0.02": 0.0,
			"0.021": 0.0,
			"0.022": 0.0,
			"0.023": 0.0,
			"0.024": 0.0,
			"0.025": 0.0
		}
	}
}
