{
	 "smiles": "CCCCCCCCOC1=CC=C(NC(=O)C2=CC=C(C)C=C2)C=C1", 
	 "Tm": 414.15, 
	 "num_atms": 54, 
	 "gaussian": { 
		 "optdone": 1, 
		 "sigma_profile": "yes", 
		 "theory": "DFT", 
		 "functional": "B3LYP", 
		 "basiset": "6-31G**", 
		 "properties": { 
			 "R2extent": 19086.7333, 
			 "electric_dipole_moment_norm": 4.47078807706, 
			 "electric_quadrupole_moment_norm": 28.5918013988, 
			 "total_energy": -1061.05849504, 
			 "HOMO_LUMO_gap": 0.17677, 
			 "cosmo_polarized_energy": -13.81, 
			 "cosmo_cavitation_energy": 56.28, 
			 "cosmo_dispersion_energy": -38.66, 
			 "cosmo_repulsion_energy": 3.04, 
			 "cosmo_total_nonelectrostatic_energy": 20.65, 
			 "SMD_solvation_energy": 9.38 
		},
		"coords": [
			{
				"x": 5.9410699242,
				"y": -1.5421696117,
				"z": 3.6136792684,
				"element": "C" 
			},
			{
				"x": 5.047772293,
				"y": -2.0427812854,
				"z": 4.7551670489,
				"element": "C" 
			},
			{
				"x": 3.5437550235,
				"y": -1.8068768363,
				"z": 4.5381757164,
				"element": "C" 
			},
			{
				"x": 2.931920861,
				"y": -2.5963160773,
				"z": 3.3725599274,
				"element": "C" 
			},
			{
				"x": 1.4183565443,
				"y": -2.3873841455,
				"z": 3.2278597788,
				"element": "C" 
			},
			{
				"x": 0.8110030267,
				"y": -3.1767157616,
				"z": 2.059928489,
				"element": "C" 
			},
			{
				"x": -0.7155488747,
				"y": -3.0539965957,
				"z": 1.9245252832,
				"element": "C" 
			},
			{
				"x": -1.217830037,
				"y": -1.6617998553,
				"z": 1.5578655121,
				"element": "C" 
			},
			{
				"x": -0.6718894119,
				"y": -1.318635834,
				"z": 0.2841520035,
				"element": "O" 
			},
			{
				"x": -0.9684546758,
				"y": -0.1004890608,
				"z": -0.2528359151,
				"element": "C" 
			},
			{
				"x": -1.7981470595,
				"y": 0.8560813822,
				"z": 0.3437934246,
				"element": "C" 
			},
			{
				"x": -2.0417146694,
				"y": 2.0663703257,
				"z": -0.3106941658,
				"element": "C" 
			},
			{
				"x": -1.4535019798,
				"y": 2.3526424707,
				"z": -1.5449882801,
				"element": "C" 
			},
			{
				"x": -1.6866167527,
				"y": 3.6218625166,
				"z": -2.1439269954,
				"element": "N" 
			},
			{
				"x": -1.7903657017,
				"y": 3.9770699933,
				"z": -3.4783613853,
				"element": "C" 
			},
			{
				"x": -1.5518674642,
				"y": 5.1329198978,
				"z": -3.8165054488,
				"element": "O" 
			},
			{
				"x": -2.257079215,
				"y": 2.9613664457,
				"z": -4.477223171,
				"element": "C" 
			},
			{
				"x": -3.1488194798,
				"y": 1.9236648648,
				"z": -4.173471573,
				"element": "C" 
			},
			{
				"x": -3.6044588221,
				"y": 1.0720271122,
				"z": -5.1781409621,
				"element": "C" 
			},
			{
				"x": -3.1814669514,
				"y": 1.2227525637,
				"z": -6.5055206058,
				"element": "C" 
			},
			{
				"x": -3.6928911336,
				"y": 0.3090866483,
				"z": -7.5935055455,
				"element": "C" 
			},
			{
				"x": -2.2932341113,
				"y": 2.2674162342,
				"z": -6.8013518397,
				"element": "C" 
			},
			{
				"x": -1.8489148952,
				"y": 3.1333509754,
				"z": -5.8073801318,
				"element": "C" 
			},
			{
				"x": -0.6034986708,
				"y": 1.3967979805,
				"z": -2.1252294092,
				"element": "C" 
			},
			{
				"x": -0.378095829,
				"y": 0.1812577359,
				"z": -1.494798989,
				"element": "C" 
			},
			{
				"x": 5.7877036049,
				"y": -0.4715449157,
				"z": 3.433882625,
				"element": "H" 
			},
			{
				"x": 7.000279363,
				"y": -1.6901263264,
				"z": 3.8487770893,
				"element": "H" 
			},
			{
				"x": 5.7383808449,
				"y": -2.0670385294,
				"z": 2.6745320009,
				"element": "H" 
			},
			{
				"x": 5.224995729,
				"y": -3.1154380774,
				"z": 4.9146329813,
				"element": "H" 
			},
			{
				"x": 5.3491415477,
				"y": -1.5455325179,
				"z": 5.6860566079,
				"element": "H" 
			},
			{
				"x": 3.366111349,
				"y": -0.7329857222,
				"z": 4.3812205757,
				"element": "H" 
			},
			{
				"x": 3.0086146677,
				"y": -2.0700953191,
				"z": 5.4609944897,
				"element": "H" 
			},
			{
				"x": 3.4208216838,
				"y": -2.3147637972,
				"z": 2.4308479064,
				"element": "H" 
			},
			{
				"x": 3.1379718969,
				"y": -3.6673354049,
				"z": 3.5140529283,
				"element": "H" 
			},
			{
				"x": 0.9205043327,
				"y": -2.6792439174,
				"z": 4.1643111854,
				"element": "H" 
			},
			{
				"x": 1.2208539347,
				"y": -1.3144763916,
				"z": 3.0993866721,
				"element": "H" 
			},
			{
				"x": 1.0596755895,
				"y": -4.2390416589,
				"z": 2.1825442568,
				"element": "H" 
			},
			{
				"x": 1.2762996234,
				"y": -2.8579160472,
				"z": 1.11969741,
				"element": "H" 
			},
			{
				"x": -1.0715152693,
				"y": -3.7549501069,
				"z": 1.1602147108,
				"element": "H" 
			},
			{
				"x": -1.2002812552,
				"y": -3.3430802958,
				"z": 2.8667354526,
				"element": "H" 
			},
			{
				"x": -0.9130906931,
				"y": -0.9173424716,
				"z": 2.3065379961,
				"element": "H" 
			},
			{
				"x": -2.3160498238,
				"y": -1.6550977459,
				"z": 1.507332847,
				"element": "H" 
			},
			{
				"x": -2.2672542189,
				"y": 0.6702781566,
				"z": 1.3023301978,
				"element": "H" 
			},
			{
				"x": -2.7024274642,
				"y": 2.7986239666,
				"z": 0.1450083167,
				"element": "H" 
			},
			{
				"x": -1.4788101328,
				"y": 4.4329968016,
				"z": -1.5728683913,
				"element": "H" 
			},
			{
				"x": -3.4969589276,
				"y": 1.7844941024,
				"z": -3.1559791167,
				"element": "H" 
			},
			{
				"x": -4.301194387,
				"y": 0.2761188436,
				"z": -4.9269958028,
				"element": "H" 
			},
			{
				"x": -4.0045126444,
				"y": -0.6591957833,
				"z": -7.1911080737,
				"element": "H" 
			},
			{
				"x": -4.5621073688,
				"y": 0.7476606632,
				"z": -8.0997884838,
				"element": "H" 
			},
			{
				"x": -2.9302190941,
				"y": 0.130999536,
				"z": -8.357889836,
				"element": "H" 
			},
			{
				"x": -1.9535651303,
				"y": 2.4063976036,
				"z": -7.8248670159,
				"element": "H" 
			},
			{
				"x": -1.1849530501,
				"y": 3.9585662964,
				"z": -6.0424267765,
				"element": "H" 
			},
			{
				"x": -0.1202501314,
				"y": 1.6108583221,
				"z": -3.0722886358,
				"element": "H" 
			},
			{
				"x": 0.2728534859,
				"y": -0.5646913466,
				"z": -1.938856152,
				"element": "H" 
			}
		],
		 "valence_orbital": [ 
			{
				"type": "occ",
				"energy": -0.25941,
				"method": "rhf"
			},
			{
				"type": "occ",
				"energy": -0.25287,
				"method": "rhf"
			},
			{
				"type": "occ",
				"energy": -0.24656,
				"method": "rhf"
			},
			{
				"type": "occ",
				"energy": -0.23547,
				"method": "rhf"
			},
			{
				"type": "occ",
				"energy": -0.20794,
				"method": "rhf"
			},
			{
				"type": "unocc",
				"energy": -0.03117,
				"method": "rhf"
			},
			{
				"type": "unocc",
				"energy": -0.01155,
				"method": "rhf"
			},
			{
				"type": "unocc",
				"energy": 0.00272,
				"method": "rhf"
			},
			{
				"type": "unocc",
				"energy": 0.00884,
				"method": "rhf"
			},
			{
				"type": "unocc",
				"energy": 0.06208,
				"method": "rhf"
			}
		],
		"cosmo_sigma_profile": { 
			"-0.025": 0.0,
			"-0.024": 0.0,
			"-0.023": 0.0,
			"-0.022": 0.0,
			"-0.021": 0.0,
			"-0.02": 0.0,
			"-0.019": 0.0,
			"-0.018": 0.0,
			"-0.017": 0.0,
			"-0.016": 0.0,
			"-0.015": 0.0,
			"-0.014": 0.375206467162,
			"-0.013": 1.07459556017,
			"-0.012": 1.01099701253,
			"-0.011": 0.469900906869,
			"-0.01": 0.821471847813,
			"-0.009": 1.67854882211,
			"-0.008": 0.727602985472,
			"-0.007": 1.76040307539,
			"-0.006": 9.39190144396,
			"-0.005": 21.6125660719,
			"-0.004": 30.7618369291,
			"-0.003": 33.7441419332,
			"-0.002": 46.1008623114,
			"-0.001": 60.3769515414,
			"0.0": 63.8524638446,
			"0.001": 49.5002131332,
			"0.002": 29.2848796735,
			"0.003": 19.1834481349,
			"0.004": 24.4412397299,
			"0.005": 17.9822989717,
			"0.006": 3.6692373342,
			"0.007": 3.9459495027,
			"0.008": 2.55305787559,
			"0.009": 2.07297063621,
			"0.01": 1.59288921878,
			"0.011": 1.88500143639,
			"0.012": 2.02739020911,
			"0.013": 4.5659515104,
			"0.014": 3.8356977444,
			"0.015": 0.233890564852,
			"0.016": 0.0,
			"0.017": 0.0,
			"0.018": 0.0,
			"0.019": 0.0,
			"0.02": 0.0,
			"0.021": 0.0,
			"0.022": 0.0,
			"0.023": 0.0,
			"0.024": 0.0,
			"0.025": 0.0
		}
	}
}
