{
	 "smiles": "OCCOCCOCCO", 
	 "Tm": 267.65, 
	 "num_atms": 24, 
	 "gaussian": { 
		 "optdone": 1, 
		 "sigma_profile": "yes", 
		 "theory": "DFT", 
		 "functional": "B3LYP", 
		 "basiset": "6-31G**", 
		 "properties": { 
			 "R2extent": 2671.9502, 
			 "electric_dipole_moment_norm": 2.58017215705, 
			 "electric_quadrupole_moment_norm": 12.7056148608, 
			 "total_energy": -537.912150297, 
			 "HOMO_LUMO_gap": 0.29986, 
			 "cosmo_polarized_energy": -14.92, 
			 "cosmo_cavitation_energy": 26.72, 
			 "cosmo_dispersion_energy": -19.17, 
			 "cosmo_repulsion_energy": 1.63, 
			 "cosmo_total_nonelectrostatic_energy": 9.18, 
			 "SMD_solvation_energy": 4.76 
		},
		"coords": [
			{
				"x": -1.9855425956,
				"y": 0.7989410956,
				"z": -0.9001912544,
				"element": "O" 
			},
			{
				"x": -1.4499240044,
				"y": 0.8351638265,
				"z": -2.2180663775,
				"element": "C" 
			},
			{
				"x": -0.3598876253,
				"y": -0.2020880543,
				"z": -2.4824210721,
				"element": "C" 
			},
			{
				"x": 0.8562929507,
				"y": 0.0299230275,
				"z": -1.8002210449,
				"element": "O" 
			},
			{
				"x": 0.9594682547,
				"y": -0.4504178114,
				"z": -0.4650549033,
				"element": "C" 
			},
			{
				"x": 0.9340007227,
				"y": 0.7008455123,
				"z": 0.5357372972,
				"element": "C" 
			},
			{
				"x": 1.1765932057,
				"y": 0.1375871303,
				"z": 1.818619926,
				"element": "O" 
			},
			{
				"x": 1.1470083895,
				"y": 1.0697499476,
				"z": 2.8850596566,
				"element": "C" 
			},
			{
				"x": -0.2733727198,
				"y": 1.3392715055,
				"z": 3.3971747024,
				"element": "C" 
			},
			{
				"x": -0.2640677436,
				"y": 2.2185471909,
				"z": 4.5146046082,
				"element": "O" 
			},
			{
				"x": -2.4228444299,
				"y": -0.0538608478,
				"z": -0.777150345,
				"element": "H" 
			},
			{
				"x": -1.0267128997,
				"y": 1.8366345539,
				"z": -2.3415907212,
				"element": "H" 
			},
			{
				"x": -2.2427401501,
				"y": 0.7106619639,
				"z": -2.9745785402,
				"element": "H" 
			},
			{
				"x": -0.7471769517,
				"y": -1.2115954242,
				"z": -2.2586660207,
				"element": "H" 
			},
			{
				"x": -0.1180301009,
				"y": -0.1783830356,
				"z": -3.5528332235,
				"element": "H" 
			},
			{
				"x": 1.9130481626,
				"y": -0.9841792873,
				"z": -0.3707329533,
				"element": "H" 
			},
			{
				"x": 0.1550101653,
				"y": -1.159634906,
				"z": -0.2298304642,
				"element": "H" 
			},
			{
				"x": -0.0379610988,
				"y": 1.2048973146,
				"z": 0.4814578946,
				"element": "H" 
			},
			{
				"x": 1.7200745314,
				"y": 1.4284152634,
				"z": 0.2766508358,
				"element": "H" 
			},
			{
				"x": 1.6251169695,
				"y": 2.0196519957,
				"z": 2.5883064214,
				"element": "H" 
			},
			{
				"x": 1.7409710071,
				"y": 0.6441749787,
				"z": 3.7006461813,
				"element": "H" 
			},
			{
				"x": -0.9129821243,
				"y": 1.7181032052,
				"z": 2.58595103,
				"element": "H" 
			},
			{
				"x": -0.711834709,
				"y": 0.3997543784,
				"z": 3.7463688932,
				"element": "H" 
			},
			{
				"x": 0.0107927937,
				"y": 3.0904364764,
				"z": 4.2028594734,
				"element": "H" 
			}
		],
		 "valence_orbital": [ 
			{
				"type": "occ",
				"energy": -0.31147,
				"method": "rhf"
			},
			{
				"type": "occ",
				"energy": -0.29021,
				"method": "rhf"
			},
			{
				"type": "occ",
				"energy": -0.28172,
				"method": "rhf"
			},
			{
				"type": "occ",
				"energy": -0.24762,
				"method": "rhf"
			},
			{
				"type": "occ",
				"energy": -0.23998,
				"method": "rhf"
			},
			{
				"type": "unocc",
				"energy": 0.05988,
				"method": "rhf"
			},
			{
				"type": "unocc",
				"energy": 0.07336,
				"method": "rhf"
			},
			{
				"type": "unocc",
				"energy": 0.08741,
				"method": "rhf"
			},
			{
				"type": "unocc",
				"energy": 0.11753,
				"method": "rhf"
			},
			{
				"type": "unocc",
				"energy": 0.12228,
				"method": "rhf"
			}
		],
		"cosmo_sigma_profile": { 
			"-0.025": 0.0,
			"-0.024": 0.0,
			"-0.023": 0.0,
			"-0.022": 0.0,
			"-0.021": 0.0,
			"-0.02": 0.0,
			"-0.019": 0.0,
			"-0.018": 0.0,
			"-0.017": 0.0,
			"-0.016": 0.265570095125,
			"-0.015": 2.05122856617,
			"-0.014": 2.20523517449,
			"-0.013": 2.1296494608,
			"-0.012": 1.72669281464,
			"-0.011": 2.17908941045,
			"-0.01": 2.9250204048,
			"-0.009": 1.7023077821,
			"-0.008": 1.52126835836,
			"-0.007": 2.64578310767,
			"-0.006": 4.34420220301,
			"-0.005": 9.54352254515,
			"-0.004": 23.523501102,
			"-0.003": 23.7963221833,
			"-0.002": 20.3324207046,
			"-0.001": 18.0222342784,
			"0.0": 11.3684145868,
			"0.001": 8.66277950226,
			"0.002": 8.47529696835,
			"0.003": 5.95537268047,
			"0.004": 5.2216700943,
			"0.005": 5.9827941261,
			"0.006": 5.33674834222,
			"0.007": 4.95911404606,
			"0.008": 4.68538826449,
			"0.009": 3.78603007263,
			"0.01": 4.15659294794,
			"0.011": 4.67106097725,
			"0.012": 4.78138669324,
			"0.013": 4.64866129351,
			"0.014": 4.01550328661,
			"0.015": 0.624323886737,
			"0.016": 0.0,
			"0.017": 0.0,
			"0.018": 0.0,
			"0.019": 0.0,
			"0.02": 0.0,
			"0.021": 0.0,
			"0.022": 0.0,
			"0.023": 0.0,
			"0.024": 0.0,
			"0.025": 0.0
		}
	}
}
