{
	 "smiles": "CC1=C(CC(O)=O)N=C(O1)C1=CC=CC=C1", 
	 "Tm": 405.15, 
	 "num_atms": 27, 
	 "gaussian": { 
		 "optdone": 1, 
		 "sigma_profile": "yes", 
		 "theory": "DFT", 
		 "functional": "B3LYP", 
		 "basiset": "6-31G**", 
		 "properties": { 
			 "R2extent": 5124.1239, 
			 "electric_dipole_moment_norm": 3.07492965285, 
			 "electric_quadrupole_moment_norm": 16.2605999228, 
			 "total_energy": -744.350086376, 
			 "HOMO_LUMO_gap": 0.17431, 
			 "cosmo_polarized_energy": -14.12, 
			 "cosmo_cavitation_energy": 32.57, 
			 "cosmo_dispersion_energy": -23.2, 
			 "cosmo_repulsion_energy": 1.85, 
			 "cosmo_total_nonelectrostatic_energy": 11.22, 
			 "SMD_solvation_energy": 5.72 
		},
		"coords": [
			{
				"x": 2.0765503934,
				"y": 2.0001401486,
				"z": -2.4669257095,
				"element": "C" 
			},
			{
				"x": 1.3103934979,
				"y": 0.8500329221,
				"z": -1.9223552047,
				"element": "C" 
			},
			{
				"x": 1.0612618725,
				"y": -0.4301461946,
				"z": -2.3202638824,
				"element": "C" 
			},
			{
				"x": 1.5305492681,
				"y": -1.1615628191,
				"z": -3.5391817644,
				"element": "C" 
			},
			{
				"x": 0.4349447486,
				"y": -1.4690049221,
				"z": -4.5509015397,
				"element": "C" 
			},
			{
				"x": -0.3392008145,
				"y": -0.3877613815,
				"z": -4.8073236724,
				"element": "O" 
			},
			{
				"x": 0.2785405679,
				"y": -2.5331510304,
				"z": -5.1038978148,
				"element": "O" 
			},
			{
				"x": 0.2452678012,
				"y": -1.0523816398,
				"z": -1.3848840685,
				"element": "N" 
			},
			{
				"x": 0.0300458056,
				"y": -0.1509016708,
				"z": -0.4698165371,
				"element": "C" 
			},
			{
				"x": 0.650947614,
				"y": 1.0380822463,
				"z": -0.7296850962,
				"element": "O" 
			},
			{
				"x": -0.7633655153,
				"y": -0.2711573149,
				"z": 0.7494898801,
				"element": "C" 
			},
			{
				"x": -0.8948354037,
				"y": 0.8034037478,
				"z": 1.6434316361,
				"element": "C" 
			},
			{
				"x": -1.6590439476,
				"y": 0.6592803967,
				"z": 2.79972668,
				"element": "C" 
			},
			{
				"x": -2.2973734124,
				"y": -0.5518553786,
				"z": 3.0756511852,
				"element": "C" 
			},
			{
				"x": -2.1682951511,
				"y": -1.6235086184,
				"z": 2.1870312826,
				"element": "C" 
			},
			{
				"x": -1.4069884593,
				"y": -1.488216809,
				"z": 1.0299960326,
				"element": "C" 
			},
			{
				"x": 2.5751557563,
				"y": 1.7147953456,
				"z": -3.3959397491,
				"element": "H" 
			},
			{
				"x": 2.8398186971,
				"y": 2.3434241011,
				"z": -1.7594075765,
				"element": "H" 
			},
			{
				"x": 1.4192395257,
				"y": 2.8498529368,
				"z": -2.6842495574,
				"element": "H" 
			},
			{
				"x": 1.9792168263,
				"y": -2.1196120485,
				"z": -3.2668523213,
				"element": "H" 
			},
			{
				"x": 2.2931277104,
				"y": -0.5709689847,
				"z": -4.0604457758,
				"element": "H" 
			},
			{
				"x": -0.994362008,
				"y": -0.6793074627,
				"z": -5.4634834051,
				"element": "H" 
			},
			{
				"x": -0.3983944371,
				"y": 1.7433959937,
				"z": 1.4274914531,
				"element": "H" 
			},
			{
				"x": -1.7562734916,
				"y": 1.4948486986,
				"z": 3.4868152897,
				"element": "H" 
			},
			{
				"x": -2.8922732813,
				"y": -0.6607356123,
				"z": 3.9778352098,
				"element": "H" 
			},
			{
				"x": -2.6630123603,
				"y": -2.5672491168,
				"z": 2.3974774998,
				"element": "H" 
			},
			{
				"x": -1.2978418028,
				"y": -2.3108355331,
				"z": 0.3313675258,
				"element": "H" 
			}
		],
		 "valence_orbital": [ 
			{
				"type": "occ",
				"energy": -0.28702,
				"method": "rhf"
			},
			{
				"type": "occ",
				"energy": -0.28195,
				"method": "rhf"
			},
			{
				"type": "occ",
				"energy": -0.26737,
				"method": "rhf"
			},
			{
				"type": "occ",
				"energy": -0.25448,
				"method": "rhf"
			},
			{
				"type": "occ",
				"energy": -0.2146,
				"method": "rhf"
			},
			{
				"type": "unocc",
				"energy": -0.04029,
				"method": "rhf"
			},
			{
				"type": "unocc",
				"energy": -0.00392,
				"method": "rhf"
			},
			{
				"type": "unocc",
				"energy": 0.00829,
				"method": "rhf"
			},
			{
				"type": "unocc",
				"energy": 0.03622,
				"method": "rhf"
			},
			{
				"type": "unocc",
				"energy": 0.07034,
				"method": "rhf"
			}
		],
		"cosmo_sigma_profile": { 
			"-0.025": 0.0,
			"-0.024": 0.0,
			"-0.023": 0.0,
			"-0.022": 0.0,
			"-0.021": 0.0,
			"-0.02": 0.0,
			"-0.019": 0.00257940000124,
			"-0.018": 0.873314375886,
			"-0.017": 0.806855485519,
			"-0.016": 0.697480731816,
			"-0.015": 0.917982743825,
			"-0.014": 0.955525914997,
			"-0.013": 0.455574941269,
			"-0.012": 0.783853407973,
			"-0.011": 0.683403768118,
			"-0.01": 0.857351367688,
			"-0.009": 0.370055690021,
			"-0.008": 3.64229225835,
			"-0.007": 5.66005946856,
			"-0.006": 13.9240817762,
			"-0.005": 19.6422440455,
			"-0.004": 20.2197763291,
			"-0.003": 17.745414667,
			"-0.002": 20.2167549505,
			"-0.001": 16.7259716599,
			"0.0": 18.4543470644,
			"0.001": 18.3522768277,
			"0.002": 18.4110434368,
			"0.003": 15.1073588282,
			"0.004": 18.353781881,
			"0.005": 13.7231825408,
			"0.006": 4.27845280815,
			"0.007": 4.59097615702,
			"0.008": 4.48625490275,
			"0.009": 4.5804501816,
			"0.01": 3.56694335736,
			"0.011": 4.7144393175,
			"0.012": 4.62204481154,
			"0.013": 1.51968545985,
			"0.014": 0.194141869059,
			"0.015": 0.0,
			"0.016": 0.0,
			"0.017": 0.0,
			"0.018": 0.0,
			"0.019": 0.0,
			"0.02": 0.0,
			"0.021": 0.0,
			"0.022": 0.0,
			"0.023": 0.0,
			"0.024": 0.0,
			"0.025": 0.0
		}
	}
}
