{
	 "smiles": "CN1C=CN=C1C(O)(CCN)C(F)(F)F", 
	 "Tm": 389.15, 
	 "num_atms": 27, 
	 "gaussian": { 
		 "optdone": 1, 
		 "sigma_profile": "yes", 
		 "theory": "DFT", 
		 "functional": "B3LYP", 
		 "basiset": "6-31G**", 
		 "properties": { 
			 "R2extent": 3376.2386, 
			 "electric_dipole_moment_norm": 3.80779792268, 
			 "electric_quadrupole_moment_norm": 11.3145814434, 
			 "total_energy": -851.06878914, 
			 "HOMO_LUMO_gap": 0.2421, 
			 "cosmo_polarized_energy": -14.02, 
			 "cosmo_cavitation_energy": 29.33, 
			 "cosmo_dispersion_energy": -20.73, 
			 "cosmo_repulsion_energy": 1.56, 
			 "cosmo_total_nonelectrostatic_energy": 10.16, 
			 "SMD_solvation_energy": 4.68 
		},
		"coords": [
			{
				"x": 0.0449209525,
				"y": 0.1833484226,
				"z": 2.3588352121,
				"element": "C" 
			},
			{
				"x": -0.3785414808,
				"y": 0.6785058411,
				"z": 1.0528886722,
				"element": "N" 
			},
			{
				"x": -1.6942774789,
				"y": 0.8435562651,
				"z": 0.676178289,
				"element": "C" 
			},
			{
				"x": -1.6748872267,
				"y": 1.1452095483,
				"z": -0.6622774982,
				"element": "C" 
			},
			{
				"x": -0.3818307322,
				"y": 1.1649000588,
				"z": -1.1237134387,
				"element": "N" 
			},
			{
				"x": 0.3736041071,
				"y": 0.881497236,
				"z": -0.076757161,
				"element": "C" 
			},
			{
				"x": 1.8738991782,
				"y": 0.7200973446,
				"z": -0.1429754941,
				"element": "C" 
			},
			{
				"x": 2.4255074398,
				"y": 1.4205420346,
				"z": 0.9760175981,
				"element": "O" 
			},
			{
				"x": 2.3405673636,
				"y": -0.7628633512,
				"z": -0.100971396,
				"element": "C" 
			},
			{
				"x": 1.6344443806,
				"y": -1.7862971,
				"z": -1.0059303259,
				"element": "C" 
			},
			{
				"x": 0.2724023625,
				"y": -2.0871750493,
				"z": -0.5393998996,
				"element": "N" 
			},
			{
				"x": 2.4374074901,
				"y": 1.430288037,
				"z": -1.4012217649,
				"element": "C" 
			},
			{
				"x": 3.8040709237,
				"y": 1.4188587306,
				"z": -1.3040883961,
				"element": "F" 
			},
			{
				"x": 2.1295957951,
				"y": 0.8179839364,
				"z": -2.5558117038,
				"element": "F" 
			},
			{
				"x": 2.0684740923,
				"y": 2.7111036089,
				"z": -1.4823641845,
				"element": "F" 
			},
			{
				"x": -0.6706689509,
				"y": 0.5200230699,
				"z": 3.11190345,
				"element": "H" 
			},
			{
				"x": 1.0298141718,
				"y": 0.5818762436,
				"z": 2.5937909912,
				"element": "H" 
			},
			{
				"x": 0.0753479497,
				"y": -0.9107045338,
				"z": 2.3482316893,
				"element": "H" 
			},
			{
				"x": -2.4986774512,
				"y": 0.7434383442,
				"z": 1.3892164416,
				"element": "H" 
			},
			{
				"x": -2.5106878235,
				"y": 1.365222426,
				"z": -1.31174226,
				"element": "H" 
			},
			{
				"x": 3.3883568678,
				"y": 1.3405159634,
				"z": 0.9162431682,
				"element": "H" 
			},
			{
				"x": 2.222358295,
				"y": -1.0924837326,
				"z": 0.9352251353,
				"element": "H" 
			},
			{
				"x": 3.4147333765,
				"y": -0.7704336658,
				"z": -0.3237174227,
				"element": "H" 
			},
			{
				"x": 2.2174641368,
				"y": -2.711963812,
				"z": -0.9398948362,
				"element": "H" 
			},
			{
				"x": 1.6833221269,
				"y": -1.4579497137,
				"z": -2.0524375883,
				"element": "H" 
			},
			{
				"x": -0.0233159567,
				"y": -2.9812990318,
				"z": -0.9220842582,
				"element": "H" 
			},
			{
				"x": -0.377103909,
				"y": -1.396497121,
				"z": -0.9075430187,
				"element": "H" 
			}
		],
		 "valence_orbital": [ 
			{
				"type": "occ",
				"energy": -0.29227,
				"method": "rhf"
			},
			{
				"type": "occ",
				"energy": -0.27036,
				"method": "rhf"
			},
			{
				"type": "occ",
				"energy": -0.26454,
				"method": "rhf"
			},
			{
				"type": "occ",
				"energy": -0.23713,
				"method": "rhf"
			},
			{
				"type": "occ",
				"energy": -0.22451,
				"method": "rhf"
			},
			{
				"type": "unocc",
				"energy": 0.01759,
				"method": "rhf"
			},
			{
				"type": "unocc",
				"energy": 0.06239,
				"method": "rhf"
			},
			{
				"type": "unocc",
				"energy": 0.07535,
				"method": "rhf"
			},
			{
				"type": "unocc",
				"energy": 0.08917,
				"method": "rhf"
			},
			{
				"type": "unocc",
				"energy": 0.10347,
				"method": "rhf"
			}
		],
		"cosmo_sigma_profile": { 
			"-0.025": 0.0,
			"-0.024": 0.0,
			"-0.023": 0.0,
			"-0.022": 0.0,
			"-0.021": 0.0,
			"-0.02": 0.0,
			"-0.019": 0.0,
			"-0.018": 0.0,
			"-0.017": 0.0,
			"-0.016": 0.488056293417,
			"-0.015": 0.40662599087,
			"-0.014": 0.927919387254,
			"-0.013": 0.919298116357,
			"-0.012": 0.682369442084,
			"-0.011": 0.706841486479,
			"-0.01": 1.66149215741,
			"-0.009": 2.83824904939,
			"-0.008": 5.81127461569,
			"-0.007": 7.04675270912,
			"-0.006": 8.24194612092,
			"-0.005": 10.8086063649,
			"-0.004": 17.5154649846,
			"-0.003": 22.0090373043,
			"-0.002": 18.4916887347,
			"-0.001": 15.8547147797,
			"0.0": 11.2735006975,
			"0.001": 10.9053110272,
			"0.002": 20.4368998976,
			"0.003": 24.4443001684,
			"0.004": 10.8844949502,
			"0.005": 8.61420400225,
			"0.006": 5.56232378531,
			"0.007": 4.84062797501,
			"0.008": 3.49306941163,
			"0.009": 3.71822630597,
			"0.01": 3.09364998873,
			"0.011": 2.222082751,
			"0.012": 2.12688333657,
			"0.013": 2.04687162128,
			"0.014": 1.50347353672,
			"0.015": 1.14160505842,
			"0.016": 0.108693371007,
			"0.017": 0.0,
			"0.018": 0.0,
			"0.019": 0.0,
			"0.02": 0.0,
			"0.021": 0.0,
			"0.022": 0.0,
			"0.023": 0.0,
			"0.024": 0.0,
			"0.025": 0.0
		}
	}
}
