{
	 "smiles": "COC(=O)C1=CC=COC1=O", 
	 "Tm": 349.15, 
	 "num_atms": 17, 
	 "gaussian": { 
		 "optdone": 1, 
		 "sigma_profile": "yes", 
		 "theory": "DFT", 
		 "functional": "B3LYP", 
		 "basiset": "6-31G**", 
		 "properties": { 
			 "R2extent": 1962.6612, 
			 "electric_dipole_moment_norm": 2.95834880465, 
			 "electric_quadrupole_moment_norm": 17.7085253271, 
			 "total_energy": -571.238738698, 
			 "HOMO_LUMO_gap": 0.16514, 
			 "cosmo_polarized_energy": -14.32, 
			 "cosmo_cavitation_energy": 22.36, 
			 "cosmo_dispersion_energy": -16.57, 
			 "cosmo_repulsion_energy": 1.33, 
			 "cosmo_total_nonelectrostatic_energy": 7.12, 
			 "SMD_solvation_energy": 7.33 
		},
		"coords": [
			{
				"x": 1.9702773635,
				"y": -0.711017592,
				"z": -2.2169835799,
				"element": "C" 
			},
			{
				"x": 1.3107033478,
				"y": -0.5902420038,
				"z": -0.9462198037,
				"element": "O" 
			},
			{
				"x": 0.9166852732,
				"y": 0.6485230592,
				"z": -0.6233562561,
				"element": "C" 
			},
			{
				"x": 1.0922001867,
				"y": 1.6205989962,
				"z": -1.3373320078,
				"element": "O" 
			},
			{
				"x": 0.2347134799,
				"y": 0.7385957822,
				"z": 0.7035773708,
				"element": "C" 
			},
			{
				"x": -0.1936658353,
				"y": 1.9828921091,
				"z": 1.0901467627,
				"element": "C" 
			},
			{
				"x": -0.8550867202,
				"y": 2.2004121992,
				"z": 2.3280855372,
				"element": "C" 
			},
			{
				"x": -1.0519933599,
				"y": 1.121653663,
				"z": 3.1270286851,
				"element": "C" 
			},
			{
				"x": -0.6544132639,
				"y": -0.1087611381,
				"z": 2.7968102781,
				"element": "O" 
			},
			{
				"x": 0.0200168817,
				"y": -0.4201748291,
				"z": 1.5681168428,
				"element": "C" 
			},
			{
				"x": 0.3149477995,
				"y": -1.5740113617,
				"z": 1.4140103149,
				"element": "O" 
			},
			{
				"x": 2.2177796963,
				"y": -1.7674643251,
				"z": -2.3144538357,
				"element": "H" 
			},
			{
				"x": 2.8747602273,
				"y": -0.0980584292,
				"z": -2.2406059769,
				"element": "H" 
			},
			{
				"x": 1.3078617426,
				"y": -0.3927483507,
				"z": -3.025869005,
				"element": "H" 
			},
			{
				"x": -0.0067892415,
				"y": 2.8064015265,
				"z": 0.4074007782,
				"element": "H" 
			},
			{
				"x": -1.1932737434,
				"y": 3.182172984,
				"z": 2.6333678272,
				"element": "H" 
			},
			{
				"x": -1.5424238342,
				"y": 1.1489277103,
				"z": 4.0953760684,
				"element": "H" 
			}
		],
		 "valence_orbital": [ 
			{
				"type": "occ",
				"energy": -0.33653,
				"method": "rhf"
			},
			{
				"type": "occ",
				"energy": -0.30224,
				"method": "rhf"
			},
			{
				"type": "occ",
				"energy": -0.28061,
				"method": "rhf"
			},
			{
				"type": "occ",
				"energy": -0.27945,
				"method": "rhf"
			},
			{
				"type": "occ",
				"energy": -0.24832,
				"method": "rhf"
			},
			{
				"type": "unocc",
				"energy": -0.08318,
				"method": "rhf"
			},
			{
				"type": "unocc",
				"energy": -0.00986,
				"method": "rhf"
			},
			{
				"type": "unocc",
				"energy": 0.02839,
				"method": "rhf"
			},
			{
				"type": "unocc",
				"energy": 0.08515,
				"method": "rhf"
			},
			{
				"type": "unocc",
				"energy": 0.11162,
				"method": "rhf"
			}
		],
		"cosmo_sigma_profile": { 
			"-0.025": 0.0,
			"-0.024": 0.0,
			"-0.023": 0.0,
			"-0.022": 0.0,
			"-0.021": 0.0,
			"-0.02": 0.0,
			"-0.019": 0.0,
			"-0.018": 0.0,
			"-0.017": 0.0,
			"-0.016": 0.0,
			"-0.015": 0.0,
			"-0.014": 0.0,
			"-0.013": 0.0,
			"-0.012": 0.0,
			"-0.011": 0.932509853114,
			"-0.01": 2.85846262716,
			"-0.009": 3.3567592272,
			"-0.008": 6.2085489473,
			"-0.007": 6.98300241824,
			"-0.006": 10.1892726198,
			"-0.005": 12.8423483889,
			"-0.004": 15.3688740721,
			"-0.003": 20.0564512841,
			"-0.002": 14.8725673554,
			"-0.001": 13.6008111295,
			"0.0": 9.38263864631,
			"0.001": 6.97583525977,
			"0.002": 4.12978247692,
			"0.003": 3.80213415683,
			"0.004": 4.26306027073,
			"0.005": 4.03422135674,
			"0.006": 3.56841970359,
			"0.007": 3.22525293773,
			"0.008": 3.87076363294,
			"0.009": 5.08728501697,
			"0.01": 4.70558500384,
			"0.011": 8.03453448365,
			"0.012": 8.04713618404,
			"0.013": 2.28874908244,
			"0.014": 1.03286657123,
			"0.015": 0.00325589538438,
			"0.016": 0.0,
			"0.017": 0.0,
			"0.018": 0.0,
			"0.019": 0.0,
			"0.02": 0.0,
			"0.021": 0.0,
			"0.022": 0.0,
			"0.023": 0.0,
			"0.024": 0.0,
			"0.025": 0.0
		}
	}
}
