{
	 "smiles": "FC1=CC(CNC(=O)CCl)=CC=C1", 
	 "Tm": 327.15, 
	 "num_atms": 22, 
	 "gaussian": { 
		 "optdone": 1, 
		 "sigma_profile": "yes", 
		 "theory": "DFT", 
		 "functional": "B3LYP", 
		 "basiset": "6-31G**", 
		 "properties": { 
			 "R2extent": 3619.5355, 
			 "electric_dipole_moment_norm": 3.92085512739, 
			 "electric_quadrupole_moment_norm": 8.82932936751, 
			 "total_energy": -1038.39406828, 
			 "HOMO_LUMO_gap": 0.227, 
			 "cosmo_polarized_energy": -13.01, 
			 "cosmo_cavitation_energy": 28.51, 
			 "cosmo_dispersion_energy": -19.99, 
			 "cosmo_repulsion_energy": 1.59, 
			 "cosmo_total_nonelectrostatic_energy": 10.12, 
			 "SMD_solvation_energy": 5.57 
		},
		"coords": [
			{
				"x": -4.5138539597,
				"y": -0.3403468779,
				"z": 0.1293239793,
				"element": "F" 
			},
			{
				"x": -3.4959232871,
				"y": -0.1166283084,
				"z": -0.7269087477,
				"element": "C" 
			},
			{
				"x": -2.1994160593,
				"y": -0.3924676203,
				"z": -0.3058836938,
				"element": "C" 
			},
			{
				"x": -1.1361159833,
				"y": -0.1634169006,
				"z": -1.1841615703,
				"element": "C" 
			},
			{
				"x": 0.3026802323,
				"y": -0.489843318,
				"z": -0.7967986541,
				"element": "C" 
			},
			{
				"x": 0.5726164814,
				"y": -0.5626884157,
				"z": 0.6314074912,
				"element": "N" 
			},
			{
				"x": 0.7688512149,
				"y": 0.4713565713,
				"z": 1.5066311698,
				"element": "C" 
			},
			{
				"x": 0.9200565733,
				"y": 0.2885837196,
				"z": 2.7051691033,
				"element": "O" 
			},
			{
				"x": 0.7764976666,
				"y": 1.8870243251,
				"z": 0.9276308052,
				"element": "C" 
			},
			{
				"x": 2.3202810426,
				"y": 2.246739397,
				"z": 0.035950532,
				"element": "Cl" 
			},
			{
				"x": -1.4013405408,
				"y": 0.3436655302,
				"z": -2.4638131646,
				"element": "C" 
			},
			{
				"x": -2.7115117642,
				"y": 0.6087825676,
				"z": -2.8633255172,
				"element": "C" 
			},
			{
				"x": -3.7789648449,
				"y": 0.3802794718,
				"z": -1.9933350313,
				"element": "C" 
			},
			{
				"x": -2.0343657158,
				"y": -0.7723031182,
				"z": 0.6963505453,
				"element": "H" 
			},
			{
				"x": 0.575189932,
				"y": -1.4640703358,
				"z": -1.2188650025,
				"element": "H" 
			},
			{
				"x": 0.9787798743,
				"y": 0.2346654204,
				"z": -1.2605409483,
				"element": "H" 
			},
			{
				"x": 0.5780273978,
				"y": -1.468976055,
				"z": 1.0797318792,
				"element": "H" 
			},
			{
				"x": 0.723836113,
				"y": 2.5815722359,
				"z": 1.7626164631,
				"element": "H" 
			},
			{
				"x": -0.0426131119,
				"y": 2.0623508664,
				"z": 0.2285654833,
				"element": "H" 
			},
			{
				"x": -0.5790161379,
				"y": 0.5330744281,
				"z": -3.1488350877,
				"element": "H" 
			},
			{
				"x": -2.9049007155,
				"y": 1.0041960085,
				"z": -3.8559950365,
				"element": "H" 
			},
			{
				"x": -4.8060944075,
				"y": 0.583150408,
				"z": -2.2755149974,
				"element": "H" 
			}
		],
		 "valence_orbital": [ 
			{
				"type": "occ",
				"energy": -0.30866,
				"method": "rhf"
			},
			{
				"type": "occ",
				"energy": -0.27144,
				"method": "rhf"
			},
			{
				"type": "occ",
				"energy": -0.26388,
				"method": "rhf"
			},
			{
				"type": "occ",
				"energy": -0.26072,
				"method": "rhf"
			},
			{
				"type": "occ",
				"energy": -0.25318,
				"method": "rhf"
			},
			{
				"type": "unocc",
				"energy": -0.02618,
				"method": "rhf"
			},
			{
				"type": "unocc",
				"energy": -0.02187,
				"method": "rhf"
			},
			{
				"type": "unocc",
				"energy": -0.01115,
				"method": "rhf"
			},
			{
				"type": "unocc",
				"energy": 0.04984,
				"method": "rhf"
			},
			{
				"type": "unocc",
				"energy": 0.07183,
				"method": "rhf"
			}
		],
		"cosmo_sigma_profile": { 
			"-0.025": 0.0,
			"-0.024": 0.0,
			"-0.023": 0.0,
			"-0.022": 0.0,
			"-0.021": 0.0,
			"-0.02": 0.0,
			"-0.019": 0.0,
			"-0.018": 0.0,
			"-0.017": 0.0,
			"-0.016": 0.0,
			"-0.015": 0.196392421285,
			"-0.014": 1.23284632434,
			"-0.013": 1.02140477188,
			"-0.012": 1.40794218593,
			"-0.011": 1.04891620109,
			"-0.01": 0.905143441581,
			"-0.009": 1.79712110361,
			"-0.008": 4.12185777683,
			"-0.007": 9.43646368111,
			"-0.006": 15.4220344724,
			"-0.005": 17.2033443023,
			"-0.004": 16.9235306256,
			"-0.003": 11.8516634647,
			"-0.002": 10.8484177347,
			"-0.001": 10.5533644582,
			"0.0": 11.715807885,
			"0.001": 17.4589672644,
			"0.002": 18.8574280331,
			"0.003": 17.4261724359,
			"0.004": 22.9093665398,
			"0.005": 16.0082989866,
			"0.006": 4.02331533936,
			"0.007": 1.19351402592,
			"0.008": 0.888318422372,
			"0.009": 1.35565316276,
			"0.01": 1.10160747933,
			"0.011": 1.87553761141,
			"0.012": 3.56030984641,
			"0.013": 5.44034312728,
			"0.014": 1.56623886183,
			"0.015": 0.0,
			"0.016": 0.0,
			"0.017": 0.0,
			"0.018": 0.0,
			"0.019": 0.0,
			"0.02": 0.0,
			"0.021": 0.0,
			"0.022": 0.0,
			"0.023": 0.0,
			"0.024": 0.0,
			"0.025": 0.0
		}
	}
}
