{
	 "smiles": "CC1=C(C)C=C(C=C1)S(=O)(=O)NCCCC(O)=O", 
	 "Tm": 385.15, 
	 "num_atms": 35, 
	 "gaussian": { 
		 "optdone": 1, 
		 "sigma_profile": "yes", 
		 "theory": "DFT", 
		 "functional": "B3LYP", 
		 "basiset": "6-31G**", 
		 "properties": { 
			 "R2extent": 7677.454, 
			 "electric_dipole_moment_norm": 4.56439775436, 
			 "electric_quadrupole_moment_norm": 24.565528009, 
			 "total_energy": -1221.32225721, 
			 "HOMO_LUMO_gap": 0.2161, 
			 "cosmo_polarized_energy": -21.39, 
			 "cosmo_cavitation_energy": 40.29, 
			 "cosmo_dispersion_energy": -28.17, 
			 "cosmo_repulsion_energy": 2.2, 
			 "cosmo_total_nonelectrostatic_energy": 14.32, 
			 "SMD_solvation_energy": 6.38 
		},
		"coords": [
			{
				"x": 1.1447592263,
				"y": 2.1340571887,
				"z": -3.5455967323,
				"element": "C" 
			},
			{
				"x": 0.9339213285,
				"y": 1.8269250082,
				"z": -2.0832468727,
				"element": "C" 
			},
			{
				"x": 1.503741783,
				"y": 0.6740292322,
				"z": -1.5001608804,
				"element": "C" 
			},
			{
				"x": 2.3406120739,
				"y": -0.2790608715,
				"z": -2.3193807442,
				"element": "C" 
			},
			{
				"x": 1.2886022919,
				"y": 0.423252882,
				"z": -0.1405819502,
				"element": "C" 
			},
			{
				"x": 0.5198893433,
				"y": 1.2985800383,
				"z": 0.6258240988,
				"element": "C" 
			},
			{
				"x": -0.0425390806,
				"y": 2.4446583248,
				"z": 0.0654461981,
				"element": "C" 
			},
			{
				"x": 0.1716548304,
				"y": 2.693518487,
				"z": -1.2871389089,
				"element": "C" 
			},
			{
				"x": 0.2795099575,
				"y": 0.9617370351,
				"z": 2.3675264873,
				"element": "S" 
			},
			{
				"x": 1.1550742142,
				"y": -0.1626004861,
				"z": 2.7254750645,
				"element": "O" 
			},
			{
				"x": 0.3201430897,
				"y": 2.2204352805,
				"z": 3.1191492022,
				"element": "O" 
			},
			{
				"x": -1.3510938013,
				"y": 0.4938327613,
				"z": 2.4182860132,
				"element": "N" 
			},
			{
				"x": -1.6552078722,
				"y": -0.9184846039,
				"z": 2.1379320167,
				"element": "C" 
			},
			{
				"x": -3.1705389663,
				"y": -1.1299842469,
				"z": 2.1736556983,
				"element": "C" 
			},
			{
				"x": -3.5798708418,
				"y": -2.5720064948,
				"z": 1.8361869161,
				"element": "C" 
			},
			{
				"x": -3.0853771026,
				"y": -3.630925478,
				"z": 2.8023740888,
				"element": "C" 
			},
			{
				"x": -3.193810382,
				"y": -3.2347893009,
				"z": 4.0962498183,
				"element": "O" 
			},
			{
				"x": -2.6659427939,
				"y": -4.7224851449,
				"z": 2.4906267233,
				"element": "O" 
			},
			{
				"x": 0.7637299681,
				"y": 1.328808054,
				"z": -4.1850922761,
				"element": "H" 
			},
			{
				"x": 2.209419178,
				"y": 2.2463307347,
				"z": -3.7829581616,
				"element": "H" 
			},
			{
				"x": 0.6383557104,
				"y": 3.0586025606,
				"z": -3.8332945183,
				"element": "H" 
			},
			{
				"x": 1.7709301164,
				"y": -0.7002371984,
				"z": -3.1564994189,
				"element": "H" 
			},
			{
				"x": 3.2142262343,
				"y": 0.2223189825,
				"z": -2.7527903779,
				"element": "H" 
			},
			{
				"x": 2.7018093459,
				"y": -1.1101130363,
				"z": -1.7089418445,
				"element": "H" 
			},
			{
				"x": 1.7291913423,
				"y": -0.4467700054,
				"z": 0.3352446047,
				"element": "H" 
			},
			{
				"x": -0.6231731074,
				"y": 3.1266535021,
				"z": 0.6766915601,
				"element": "H" 
			},
			{
				"x": -0.2577715243,
				"y": 3.5839031234,
				"z": -1.7385749274,
				"element": "H" 
			},
			{
				"x": -1.7114129615,
				"y": 0.8145963796,
				"z": 3.3161425971,
				"element": "H" 
			},
			{
				"x": -1.2727064967,
				"y": -1.1462353491,
				"z": 1.1365946164,
				"element": "H" 
			},
			{
				"x": -1.1498181918,
				"y": -1.5917968374,
				"z": 2.8423097682,
				"element": "H" 
			},
			{
				"x": -3.5538269874,
				"y": -0.8718756667,
				"z": 3.1674297147,
				"element": "H" 
			},
			{
				"x": -3.6421692008,
				"y": -0.447740568,
				"z": 1.4586401736,
				"element": "H" 
			},
			{
				"x": -4.675305111,
				"y": -2.6394832523,
				"z": 1.8281435633,
				"element": "H" 
			},
			{
				"x": -3.2344789062,
				"y": -2.8674629735,
				"z": 0.8419395709,
				"element": "H" 
			},
			{
				"x": -2.8716267064,
				"y": -3.978488061,
				"z": 4.6330891189,
				"element": "H" 
			}
		],
		 "valence_orbital": [ 
			{
				"type": "occ",
				"energy": -0.29377,
				"method": "rhf"
			},
			{
				"type": "occ",
				"energy": -0.27835,
				"method": "rhf"
			},
			{
				"type": "occ",
				"energy": -0.27496,
				"method": "rhf"
			},
			{
				"type": "occ",
				"energy": -0.26144,
				"method": "rhf"
			},
			{
				"type": "occ",
				"energy": -0.24937,
				"method": "rhf"
			},
			{
				"type": "unocc",
				"energy": -0.03327,
				"method": "rhf"
			},
			{
				"type": "unocc",
				"energy": -0.01289,
				"method": "rhf"
			},
			{
				"type": "unocc",
				"energy": 0.0019,
				"method": "rhf"
			},
			{
				"type": "unocc",
				"energy": 0.06218,
				"method": "rhf"
			},
			{
				"type": "unocc",
				"energy": 0.06678,
				"method": "rhf"
			}
		],
		"cosmo_sigma_profile": { 
			"-0.025": 0.0,
			"-0.024": 0.0,
			"-0.023": 0.0,
			"-0.022": 0.0,
			"-0.021": 0.0,
			"-0.02": 0.0,
			"-0.019": 0.0,
			"-0.018": 0.442867430319,
			"-0.017": 1.37536570865,
			"-0.016": 0.45106066853,
			"-0.015": 0.891459301031,
			"-0.014": 1.50794467694,
			"-0.013": 1.95050900807,
			"-0.012": 1.82560052451,
			"-0.011": 2.26338840727,
			"-0.01": 1.40471419396,
			"-0.009": 1.48534823311,
			"-0.008": 1.84475507989,
			"-0.007": 5.53621785334,
			"-0.006": 11.9268277377,
			"-0.005": 24.6710743474,
			"-0.004": 32.037751391,
			"-0.003": 29.5386963337,
			"-0.002": 27.4139089465,
			"-0.001": 25.8707835189,
			"0.0": 23.938143581,
			"0.001": 14.3293511085,
			"0.002": 14.4539518195,
			"0.003": 16.8377310496,
			"0.004": 11.3701347754,
			"0.005": 6.26134094102,
			"0.006": 7.0815609485,
			"0.007": 4.74809858671,
			"0.008": 6.83250695653,
			"0.009": 5.91902804768,
			"0.01": 7.72460948592,
			"0.011": 13.6274401828,
			"0.012": 9.94589598718,
			"0.013": 1.22370016312,
			"0.014": 0.0112504397136,
			"0.015": 0.0,
			"0.016": 0.0,
			"0.017": 0.0,
			"0.018": 0.0,
			"0.019": 0.0,
			"0.02": 0.0,
			"0.021": 0.0,
			"0.022": 0.0,
			"0.023": 0.0,
			"0.024": 0.0,
			"0.025": 0.0
		}
	}
}
