{
	 "smiles": "NC(=O)C(F)(F)F", 
	 "Tm": 345.95, 
	 "num_atms": 9, 
	 "gaussian": { 
		 "optdone": 1, 
		 "sigma_profile": "yes", 
		 "theory": "DFT", 
		 "functional": "B3LYP", 
		 "basiset": "6-31G**", 
		 "properties": { 
			 "R2extent": 734.7288, 
			 "electric_dipole_moment_norm": 3.82162838722, 
			 "electric_quadrupole_moment_norm": 11.3600741631, 
			 "total_energy": -506.922156938, 
			 "HOMO_LUMO_gap": 0.26847, 
			 "cosmo_polarized_energy": -10.74, 
			 "cosmo_cavitation_energy": 15.03, 
			 "cosmo_dispersion_energy": -10.83, 
			 "cosmo_repulsion_energy": 0.9, 
			 "cosmo_total_nonelectrostatic_energy": 5.11, 
			 "SMD_solvation_energy": 4.98 
		},
		"coords": [
			{
				"x": 1.2758259316,
				"y": -0.6319270822,
				"z": -2.2592968449,
				"element": "N" 
			},
			{
				"x": 0.9781061346,
				"y": -0.661117073,
				"z": -0.9378878475,
				"element": "C" 
			},
			{
				"x": 1.5541748189,
				"y": -1.309436799,
				"z": -0.0870705412,
				"element": "O" 
			},
			{
				"x": -0.2185742338,
				"y": 0.2389829277,
				"z": -0.5414347229,
				"element": "C" 
			},
			{
				"x": 0.1703374848,
				"y": 1.1593374122,
				"z": 0.3504752122,
				"element": "F" 
			},
			{
				"x": -1.1918946545,
				"y": -0.5002609017,
				"z": 0.0062721087,
				"element": "F" 
			},
			{
				"x": -0.7442447383,
				"y": 0.8922649097,
				"z": -1.6108528796,
				"element": "F" 
			},
			{
				"x": 0.7513397138,
				"y": -0.067505375,
				"z": -2.9076245332,
				"element": "H" 
			},
			{
				"x": 2.0454295428,
				"y": -1.1953380188,
				"z": -2.5881799517,
				"element": "H" 
			}
		],
		 "valence_orbital": [ 
			{
				"type": "occ",
				"energy": -0.41268,
				"method": "rhf"
			},
			{
				"type": "occ",
				"energy": -0.41167,
				"method": "rhf"
			},
			{
				"type": "occ",
				"energy": -0.40763,
				"method": "rhf"
			},
			{
				"type": "occ",
				"energy": -0.29588,
				"method": "rhf"
			},
			{
				"type": "occ",
				"energy": -0.27963,
				"method": "rhf"
			},
			{
				"type": "unocc",
				"energy": -0.01116,
				"method": "rhf"
			},
			{
				"type": "unocc",
				"energy": 0.06681,
				"method": "rhf"
			},
			{
				"type": "unocc",
				"energy": 0.11197,
				"method": "rhf"
			},
			{
				"type": "unocc",
				"energy": 0.14333,
				"method": "rhf"
			},
			{
				"type": "unocc",
				"energy": 0.20335,
				"method": "rhf"
			}
		],
		"cosmo_sigma_profile": { 
			"-0.025": 0.0,
			"-0.024": 0.0,
			"-0.023": 0.0,
			"-0.022": 0.0,
			"-0.021": 0.0,
			"-0.02": 0.0,
			"-0.019": 0.0,
			"-0.018": 0.0,
			"-0.017": 0.0,
			"-0.016": 0.715513100008,
			"-0.015": 2.13204643705,
			"-0.014": 2.03504707336,
			"-0.013": 2.76062312519,
			"-0.012": 1.93477461377,
			"-0.011": 1.81115084265,
			"-0.01": 2.16384803368,
			"-0.009": 1.67022289434,
			"-0.008": 1.71620940994,
			"-0.007": 2.7244977945,
			"-0.006": 3.13724706062,
			"-0.005": 2.98882017054,
			"-0.004": 2.96597128581,
			"-0.003": 3.75951260311,
			"-0.002": 3.83214359391,
			"-0.001": 5.76802190865,
			"0.0": 7.55514615174,
			"0.001": 14.6147640444,
			"0.002": 27.5513965167,
			"0.003": 6.39810439791,
			"0.004": 2.33155121656,
			"0.005": 1.94149554406,
			"0.006": 1.45144255647,
			"0.007": 1.11644671352,
			"0.008": 1.55452810928,
			"0.009": 1.3609733175,
			"0.01": 2.0775986726,
			"0.011": 3.49042784022,
			"0.012": 5.45678415233,
			"0.013": 1.02137210956,
			"0.014": 0.0,
			"0.015": 0.0,
			"0.016": 0.0,
			"0.017": 0.0,
			"0.018": 0.0,
			"0.019": 0.0,
			"0.02": 0.0,
			"0.021": 0.0,
			"0.022": 0.0,
			"0.023": 0.0,
			"0.024": 0.0,
			"0.025": 0.0
		}
	}
}
