{
	 "smiles": "OC(=O)C1=C2C=NN(CC3=CC=CO3)C2=NC(=C1)C1=CC=CC=C1", 
	 "Tm": 516.15, 
	 "num_atms": 37, 
	 "gaussian": { 
		 "optdone": 1, 
		 "sigma_profile": "yes", 
		 "theory": "DFT", 
		 "functional": "B3LYP", 
		 "basiset": "6-31G**", 
		 "properties": { 
			 "R2extent": 9059.3457, 
			 "electric_dipole_moment_norm": 4.52776768287, 
			 "electric_quadrupole_moment_norm": 21.6836735645, 
			 "total_energy": -1083.64889296, 
			 "HOMO_LUMO_gap": 0.1498, 
			 "cosmo_polarized_energy": -18.05, 
			 "cosmo_cavitation_energy": 43.16, 
			 "cosmo_dispersion_energy": -30.13, 
			 "cosmo_repulsion_energy": 2.25, 
			 "cosmo_total_nonelectrostatic_energy": 15.28, 
			 "SMD_solvation_energy": 7.04 
		},
		"coords": [
			{
				"x": 1.611145494,
				"y": -4.305249345,
				"z": -0.0003232582,
				"element": "O" 
			},
			{
				"x": 0.3042407539,
				"y": -3.9504044122,
				"z": 0.1044539503,
				"element": "C" 
			},
			{
				"x": -0.5359370234,
				"y": -4.7699854487,
				"z": 0.3856520112,
				"element": "O" 
			},
			{
				"x": -0.0009594051,
				"y": -2.5014269344,
				"z": -0.1431837303,
				"element": "C" 
			},
			{
				"x": 0.8134446955,
				"y": -1.6468892584,
				"z": -0.9181391845,
				"element": "C" 
			},
			{
				"x": 1.9899642511,
				"y": -1.6943151011,
				"z": -1.7234547204,
				"element": "C" 
			},
			{
				"x": 2.2714015418,
				"y": -0.5017759071,
				"z": -2.2289140104,
				"element": "N" 
			},
			{
				"x": 1.310119836,
				"y": 0.3472121782,
				"z": -1.7919783002,
				"element": "N" 
			},
			{
				"x": 1.3398663767,
				"y": 1.7655335545,
				"z": -2.1478085487,
				"element": "C" 
			},
			{
				"x": 2.3801936184,
				"y": 2.5479499991,
				"z": -1.4201690607,
				"element": "C" 
			},
			{
				"x": 3.5779793416,
				"y": 3.0810073298,
				"z": -1.7950673976,
				"element": "C" 
			},
			{
				"x": 4.1206365973,
				"y": 3.7200638657,
				"z": -0.6321554652,
				"element": "C" 
			},
			{
				"x": 3.2125194589,
				"y": 3.5238015378,
				"z": 0.3625326764,
				"element": "C" 
			},
			{
				"x": 2.1438713565,
				"y": 2.8142485508,
				"z": -0.098663472,
				"element": "O" 
			},
			{
				"x": 0.3975711574,
				"y": -0.2917877057,
				"z": -0.997514503,
				"element": "C" 
			},
			{
				"x": -0.6820757659,
				"y": 0.256660445,
				"z": -0.4430607616,
				"element": "N" 
			},
			{
				"x": -1.4631260718,
				"y": -0.5765196671,
				"z": 0.2591562097,
				"element": "C" 
			},
			{
				"x": -1.1408355833,
				"y": -1.9531658964,
				"z": 0.424328754,
				"element": "C" 
			},
			{
				"x": -2.6756609281,
				"y": 0.0093098486,
				"z": 0.8850200056,
				"element": "C" 
			},
			{
				"x": -3.7742639511,
				"y": -0.7848589969,
				"z": 1.2540689127,
				"element": "C" 
			},
			{
				"x": -4.9011948768,
				"y": -0.2103126966,
				"z": 1.8400234893,
				"element": "C" 
			},
			{
				"x": -4.9497673601,
				"y": 1.1656618554,
				"z": 2.0693206729,
				"element": "C" 
			},
			{
				"x": -3.8650275354,
				"y": 1.9656906283,
				"z": 1.7009331538,
				"element": "C" 
			},
			{
				"x": -2.7403499336,
				"y": 1.3949119596,
				"z": 1.1114354048,
				"element": "C" 
			},
			{
				"x": 2.1660845544,
				"y": -3.5144021521,
				"z": -0.0676739259,
				"element": "H" 
			},
			{
				"x": 2.6117348997,
				"y": -2.5401278869,
				"z": -1.9873588049,
				"element": "H" 
			},
			{
				"x": 0.3396842736,
				"y": 2.1489540861,
				"z": -1.9283577272,
				"element": "H" 
			},
			{
				"x": 1.5210552591,
				"y": 1.8386147812,
				"z": -3.2223895392,
				"element": "H" 
			},
			{
				"x": 4.0227108628,
				"y": 3.0194455792,
				"z": -2.7779925639,
				"element": "H" 
			},
			{
				"x": 5.0584598041,
				"y": 4.2504792859,
				"z": -0.5526259471,
				"element": "H" 
			},
			{
				"x": 3.172329903,
				"y": 3.811105434,
				"z": 1.4017815331,
				"element": "H" 
			},
			{
				"x": -1.7670880469,
				"y": -2.5972969968,
				"z": 1.028125545,
				"element": "H" 
			},
			{
				"x": -3.76626755,
				"y": -1.852857662,
				"z": 1.0615524519,
				"element": "H" 
			},
			{
				"x": -5.7441679341,
				"y": -0.8389045868,
				"z": 2.1116661439,
				"element": "H" 
			},
			{
				"x": -5.8271429992,
				"y": 1.611735217,
				"z": 2.5286558156,
				"element": "H" 
			},
			{
				"x": -3.8950296867,
				"y": 3.0372936681,
				"z": 1.8763499385,
				"element": "H" 
			},
			{
				"x": -1.8947193843,
				"y": 2.0087008499,
				"z": 0.8221742523,
				"element": "H" 
			}
		],
		 "valence_orbital": [ 
			{
				"type": "occ",
				"energy": -0.2785,
				"method": "rhf"
			},
			{
				"type": "occ",
				"energy": -0.25677,
				"method": "rhf"
			},
			{
				"type": "occ",
				"energy": -0.25152,
				"method": "rhf"
			},
			{
				"type": "occ",
				"energy": -0.23544,
				"method": "rhf"
			},
			{
				"type": "occ",
				"energy": -0.23243,
				"method": "rhf"
			},
			{
				"type": "unocc",
				"energy": -0.08263,
				"method": "rhf"
			},
			{
				"type": "unocc",
				"energy": -0.03681,
				"method": "rhf"
			},
			{
				"type": "unocc",
				"energy": -0.00626,
				"method": "rhf"
			},
			{
				"type": "unocc",
				"energy": -0.00109,
				"method": "rhf"
			},
			{
				"type": "unocc",
				"energy": 0.00841,
				"method": "rhf"
			}
		],
		"cosmo_sigma_profile": { 
			"-0.025": 0.0,
			"-0.024": 0.0,
			"-0.023": 0.0,
			"-0.022": 0.0,
			"-0.021": 0.0,
			"-0.02": 0.0,
			"-0.019": 0.0,
			"-0.018": 0.01473392982,
			"-0.017": 0.725323580042,
			"-0.016": 1.2364941213,
			"-0.015": 1.04793729083,
			"-0.014": 1.17441580011,
			"-0.013": 0.891762035626,
			"-0.012": 1.09582348009,
			"-0.011": 1.36614141559,
			"-0.01": 1.42059492817,
			"-0.009": 3.37510852301,
			"-0.008": 7.12138216885,
			"-0.007": 11.062700996,
			"-0.006": 21.4068975779,
			"-0.005": 20.5131397557,
			"-0.004": 24.0614475949,
			"-0.003": 21.8534575804,
			"-0.002": 19.5600842187,
			"-0.001": 24.7018534737,
			"0.0": 26.3962955169,
			"0.001": 22.5909292772,
			"0.002": 20.6850589584,
			"0.003": 23.3742385959,
			"0.004": 24.9397665832,
			"0.005": 22.8986391587,
			"0.006": 9.24364705887,
			"0.007": 6.51642694833,
			"0.008": 6.16520163357,
			"0.009": 5.23663553394,
			"0.01": 6.87880671481,
			"0.011": 6.54541619322,
			"0.012": 2.98803074299,
			"0.013": 0.793453335177,
			"0.014": 0.482129234069,
			"0.015": 0.0,
			"0.016": 0.0,
			"0.017": 0.0,
			"0.018": 0.0,
			"0.019": 0.0,
			"0.02": 0.0,
			"0.021": 0.0,
			"0.022": 0.0,
			"0.023": 0.0,
			"0.024": 0.0,
			"0.025": 0.0
		}
	}
}
