{
	 "smiles": "CCOC(=O)C(=CNC1=C(Cl)C=C(F)C=C1)C#N", 
	 "Tm": 442.15, 
	 "num_atms": 28, 
	 "gaussian": { 
		 "optdone": 1, 
		 "sigma_profile": "yes", 
		 "theory": "DFT", 
		 "functional": "B3LYP", 
		 "basiset": "6-31G**", 
		 "properties": { 
			 "R2extent": 7269.091, 
			 "electric_dipole_moment_norm": 6.08019825828, 
			 "electric_quadrupole_moment_norm": 27.0387660342, 
			 "total_energy": -1283.26615559, 
			 "HOMO_LUMO_gap": 0.17479, 
			 "cosmo_polarized_energy": -18.04, 
			 "cosmo_cavitation_energy": 37.04, 
			 "cosmo_dispersion_energy": -25.28, 
			 "cosmo_repulsion_energy": 1.97, 
			 "cosmo_total_nonelectrostatic_energy": 13.73, 
			 "SMD_solvation_energy": 9.12 
		},
		"coords": [
			{
				"x": -4.9248323631,
				"y": 0.0661309037,
				"z": 0.37069477,
				"element": "C" 
			},
			{
				"x": -4.2479867642,
				"y": 1.1010223796,
				"z": -0.5151191947,
				"element": "C" 
			},
			{
				"x": -2.8447677388,
				"y": 0.7986928337,
				"z": -0.7043606107,
				"element": "O" 
			},
			{
				"x": -2.5490396846,
				"y": -0.0692482378,
				"z": -1.7062700753,
				"element": "C" 
			},
			{
				"x": -3.3782208669,
				"y": -0.5836737143,
				"z": -2.4300297376,
				"element": "O" 
			},
			{
				"x": -1.0973819047,
				"y": -0.3087943018,
				"z": -1.8120573712,
				"element": "C" 
			},
			{
				"x": -0.1845669366,
				"y": 0.2883818,
				"z": -0.979737065,
				"element": "C" 
			},
			{
				"x": 1.1511508852,
				"y": 0.0799870418,
				"z": -1.0452032087,
				"element": "N" 
			},
			{
				"x": 2.1337920985,
				"y": 0.6087408903,
				"z": -0.1761883389,
				"element": "C" 
			},
			{
				"x": 2.2330822976,
				"y": 1.9741713527,
				"z": 0.1512023984,
				"element": "C" 
			},
			{
				"x": 1.1431786317,
				"y": 3.1612250363,
				"z": -0.5361015647,
				"element": "Cl" 
			},
			{
				"x": 3.2342439633,
				"y": 2.433116448,
				"z": 1.007304236,
				"element": "C" 
			},
			{
				"x": 4.1593374644,
				"y": 1.5269880814,
				"z": 1.5085816538,
				"element": "C" 
			},
			{
				"x": 5.1277218916,
				"y": 1.977612098,
				"z": 2.3246443512,
				"element": "F" 
			},
			{
				"x": 4.1141755577,
				"y": 0.1759823351,
				"z": 1.1835673891,
				"element": "C" 
			},
			{
				"x": 3.0933589702,
				"y": -0.2692537417,
				"z": 0.351387211,
				"element": "C" 
			},
			{
				"x": -0.6269788488,
				"y": -1.2087524417,
				"z": -2.811717863,
				"element": "C" 
			},
			{
				"x": -0.1186706539,
				"y": -1.9253284218,
				"z": -3.5777374909,
				"element": "N" 
			},
			{
				"x": -4.4138795711,
				"y": -0.0180712998,
				"z": 1.3345490253,
				"element": "H" 
			},
			{
				"x": -5.9632071577,
				"y": 0.3600260629,
				"z": 0.5571862246,
				"element": "H" 
			},
			{
				"x": -4.9278581948,
				"y": -0.9117272655,
				"z": -0.1166580554,
				"element": "H" 
			},
			{
				"x": -4.7295469329,
				"y": 1.15655228,
				"z": -1.4939811036,
				"element": "H" 
			},
			{
				"x": -4.2511178306,
				"y": 2.0906497107,
				"z": -0.0517167671,
				"element": "H" 
			},
			{
				"x": -0.5363279455,
				"y": 0.964591666,
				"z": -0.2118602803,
				"element": "H" 
			},
			{
				"x": 1.4663926179,
				"y": -0.6142628512,
				"z": -1.7153230616,
				"element": "H" 
			},
			{
				"x": 3.307910171,
				"y": 3.4832382523,
				"z": 1.2618469743,
				"element": "H" 
			},
			{
				"x": 4.8538008928,
				"y": -0.50479835,
				"z": 1.5886613525,
				"element": "H" 
			},
			{
				"x": 3.0202379521,
				"y": -1.3241985469,
				"z": 0.1047362023,
				"element": "H" 
			}
		],
		 "valence_orbital": [ 
			{
				"type": "occ",
				"energy": -0.29904,
				"method": "rhf"
			},
			{
				"type": "occ",
				"energy": -0.28698,
				"method": "rhf"
			},
			{
				"type": "occ",
				"energy": -0.27801,
				"method": "rhf"
			},
			{
				"type": "occ",
				"energy": -0.27462,
				"method": "rhf"
			},
			{
				"type": "occ",
				"energy": -0.23346,
				"method": "rhf"
			},
			{
				"type": "unocc",
				"energy": -0.05867,
				"method": "rhf"
			},
			{
				"type": "unocc",
				"energy": -0.04742,
				"method": "rhf"
			},
			{
				"type": "unocc",
				"energy": -0.02146,
				"method": "rhf"
			},
			{
				"type": "unocc",
				"energy": 0.00088,
				"method": "rhf"
			},
			{
				"type": "unocc",
				"energy": 0.02734,
				"method": "rhf"
			}
		],
		"cosmo_sigma_profile": { 
			"-0.025": 0.0,
			"-0.024": 0.0,
			"-0.023": 0.0,
			"-0.022": 0.0,
			"-0.021": 0.0,
			"-0.02": 0.0,
			"-0.019": 0.0,
			"-0.018": 0.0,
			"-0.017": 0.0,
			"-0.016": 0.0,
			"-0.015": 0.558812578934,
			"-0.014": 1.54574515233,
			"-0.013": 1.17697004326,
			"-0.012": 1.09571903925,
			"-0.011": 1.19599716661,
			"-0.01": 1.77041087782,
			"-0.009": 4.88977901312,
			"-0.008": 7.30992719691,
			"-0.007": 7.05490975864,
			"-0.006": 9.71835495069,
			"-0.005": 11.2339740621,
			"-0.004": 17.1284003173,
			"-0.003": 21.0325870007,
			"-0.002": 25.0946119474,
			"-0.001": 31.4857859133,
			"0.0": 38.7349080831,
			"0.001": 25.3843212209,
			"0.002": 16.4759185398,
			"0.003": 18.839221093,
			"0.004": 14.8212936143,
			"0.005": 4.77369188307,
			"0.006": 4.07386058635,
			"0.007": 4.97625521682,
			"0.008": 4.69037884349,
			"0.009": 4.56671840285,
			"0.01": 4.57809940306,
			"0.011": 5.78015742473,
			"0.012": 7.04141648031,
			"0.013": 2.43781019226,
			"0.014": 0.266305183728,
			"0.015": 0.0,
			"0.016": 0.0,
			"0.017": 0.0,
			"0.018": 0.0,
			"0.019": 0.0,
			"0.02": 0.0,
			"0.021": 0.0,
			"0.022": 0.0,
			"0.023": 0.0,
			"0.024": 0.0,
			"0.025": 0.0
		}
	}
}
