{
	 "smiles": "COC1=CC=C(CCNC(=O)C2=C(N)C=CC=C2)C=C1", 
	 "Tm": 354.15, 
	 "num_atms": 38, 
	 "gaussian": { 
		 "optdone": 1, 
		 "sigma_profile": "yes", 
		 "theory": "DFT", 
		 "functional": "B3LYP", 
		 "basiset": "6-31G**", 
		 "properties": { 
			 "R2extent": 6908.4915, 
			 "electric_dipole_moment_norm": 4.40903224075, 
			 "electric_quadrupole_moment_norm": 13.2450340018, 
			 "total_energy": -880.522200818, 
			 "HOMO_LUMO_gap": 0.19081, 
			 "cosmo_polarized_energy": -17.09, 
			 "cosmo_cavitation_energy": 40.79, 
			 "cosmo_dispersion_energy": -28.07, 
			 "cosmo_repulsion_energy": 2.14, 
			 "cosmo_total_nonelectrostatic_energy": 14.86, 
			 "SMD_solvation_energy": 7.33 
		},
		"coords": [
			{
				"x": -0.4808854299,
				"y": -1.5871570699,
				"z": 4.8271944206,
				"element": "C" 
			},
			{
				"x": -0.690674095,
				"y": -0.1962724373,
				"z": 4.6488021989,
				"element": "O" 
			},
			{
				"x": -0.1254370862,
				"y": 0.4071745563,
				"z": 3.5612309175,
				"element": "C" 
			},
			{
				"x": 0.6251945076,
				"y": -0.2518095972,
				"z": 2.5815992956,
				"element": "C" 
			},
			{
				"x": 1.1582819457,
				"y": 0.4796269507,
				"z": 1.5119831674,
				"element": "C" 
			},
			{
				"x": 0.961411544,
				"y": 1.8588364563,
				"z": 1.3883186766,
				"element": "C" 
			},
			{
				"x": 1.5073737211,
				"y": 2.6242061473,
				"z": 0.2046904434,
				"element": "C" 
			},
			{
				"x": 0.4497901398,
				"y": 2.9139638916,
				"z": -0.8866348086,
				"element": "C" 
			},
			{
				"x": -0.1898102277,
				"y": 1.7131017631,
				"z": -1.3997258868,
				"element": "N" 
			},
			{
				"x": 0.4464817731,
				"y": 0.8847091508,
				"z": -2.2796467668,
				"element": "C" 
			},
			{
				"x": 1.5667329231,
				"y": 1.1467351926,
				"z": -2.7198920086,
				"element": "O" 
			},
			{
				"x": -0.3082288406,
				"y": -0.3416311749,
				"z": -2.7242107992,
				"element": "C" 
			},
			{
				"x": -1.3260066765,
				"y": -0.9919778436,
				"z": -1.9843970071,
				"element": "C" 
			},
			{
				"x": -1.724276498,
				"y": -0.5429026896,
				"z": -0.7082760608,
				"element": "N" 
			},
			{
				"x": -1.981196681,
				"y": -2.0924506535,
				"z": -2.5618987042,
				"element": "C" 
			},
			{
				"x": -1.6361123583,
				"y": -2.5546777184,
				"z": -3.8279724766,
				"element": "C" 
			},
			{
				"x": -0.6047111062,
				"y": -1.9414842673,
				"z": -4.543007745,
				"element": "C" 
			},
			{
				"x": 0.0498363137,
				"y": -0.851220463,
				"z": -3.9802525691,
				"element": "C" 
			},
			{
				"x": 0.20593655,
				"y": 2.4974224649,
				"z": 2.3869581075,
				"element": "C" 
			},
			{
				"x": -0.3306554711,
				"y": 1.791439048,
				"z": 3.4559778073,
				"element": "C" 
			},
			{
				"x": -0.8989214743,
				"y": -2.1719367678,
				"z": 3.9969506577,
				"element": "H" 
			},
			{
				"x": -0.9992715678,
				"y": -1.8555004279,
				"z": 5.7490452663,
				"element": "H" 
			},
			{
				"x": 0.5853549425,
				"y": -1.8271767745,
				"z": 4.9300048122,
				"element": "H" 
			},
			{
				"x": 0.8155683026,
				"y": -1.3170278125,
				"z": 2.644419907,
				"element": "H" 
			},
			{
				"x": 1.7568235993,
				"y": -0.0399060327,
				"z": 0.7674029119,
				"element": "H" 
			},
			{
				"x": 1.9228482531,
				"y": 3.5859674453,
				"z": 0.5314033881,
				"element": "H" 
			},
			{
				"x": 2.3212704366,
				"y": 2.0641983548,
				"z": -0.2644532463,
				"element": "H" 
			},
			{
				"x": -0.3378152463,
				"y": 3.560825987,
				"z": -0.4877094474,
				"element": "H" 
			},
			{
				"x": 0.9343318914,
				"y": 3.4364069603,
				"z": -1.717194859,
				"element": "H" 
			},
			{
				"x": -1.1220812875,
				"y": 1.4716395667,
				"z": -1.091023559,
				"element": "H" 
			},
			{
				"x": -2.3745602432,
				"y": -1.1750992627,
				"z": -0.257501036,
				"element": "H" 
			},
			{
				"x": -0.9576949848,
				"y": -0.3241172226,
				"z": -0.0785664725,
				"element": "H" 
			},
			{
				"x": -2.7639438864,
				"y": -2.5934640118,
				"z": -1.9963593904,
				"element": "H" 
			},
			{
				"x": -2.1639463893,
				"y": -3.406912401,
				"z": -4.2470828966,
				"element": "H" 
			},
			{
				"x": -0.3183968945,
				"y": -2.3073300893,
				"z": -5.523936519,
				"element": "H" 
			},
			{
				"x": 0.8586848009,
				"y": -0.3504185216,
				"z": -4.5017673455,
				"element": "H" 
			},
			{
				"x": 0.0409959706,
				"y": 3.5710920459,
				"z": 2.3286133045,
				"element": "H" 
			},
			{
				"x": -0.9075911707,
				"y": 2.2887272576,
				"z": 4.229114322,
				"element": "H" 
			}
		],
		 "valence_orbital": [ 
			{
				"type": "occ",
				"energy": -0.25105,
				"method": "rhf"
			},
			{
				"type": "occ",
				"energy": -0.24268,
				"method": "rhf"
			},
			{
				"type": "occ",
				"energy": -0.23661,
				"method": "rhf"
			},
			{
				"type": "occ",
				"energy": -0.21872,
				"method": "rhf"
			},
			{
				"type": "occ",
				"energy": -0.2135,
				"method": "rhf"
			},
			{
				"type": "unocc",
				"energy": -0.02269,
				"method": "rhf"
			},
			{
				"type": "unocc",
				"energy": -0.00788,
				"method": "rhf"
			},
			{
				"type": "unocc",
				"energy": 0.00606,
				"method": "rhf"
			},
			{
				"type": "unocc",
				"energy": 0.01062,
				"method": "rhf"
			},
			{
				"type": "unocc",
				"energy": 0.06814,
				"method": "rhf"
			}
		],
		"cosmo_sigma_profile": { 
			"-0.025": 0.0,
			"-0.024": 0.0,
			"-0.023": 0.0,
			"-0.022": 0.0,
			"-0.021": 0.0,
			"-0.02": 0.0,
			"-0.019": 0.0,
			"-0.018": 0.0,
			"-0.017": 0.0,
			"-0.016": 0.0,
			"-0.015": 0.0,
			"-0.014": 0.0,
			"-0.013": 0.372483927883,
			"-0.012": 1.40872113579,
			"-0.011": 2.03761229116,
			"-0.01": 1.49798038925,
			"-0.009": 2.31922786138,
			"-0.008": 2.3034545318,
			"-0.007": 2.88099070799,
			"-0.006": 11.7113140423,
			"-0.005": 28.8881354011,
			"-0.004": 35.7998284957,
			"-0.003": 36.0547521644,
			"-0.002": 26.1789284529,
			"-0.001": 20.522950147,
			"0.0": 17.0510376461,
			"0.001": 16.7835403293,
			"0.002": 18.1013618732,
			"0.003": 18.1917425205,
			"0.004": 19.4229326227,
			"0.005": 21.1593226269,
			"0.006": 13.8237612834,
			"0.007": 3.59206648383,
			"0.008": 4.55359274374,
			"0.009": 2.95121301056,
			"0.01": 3.35986665597,
			"0.011": 2.41385747156,
			"0.012": 1.69502902297,
			"0.013": 2.03611159969,
			"0.014": 4.24320335707,
			"0.015": 1.74969580083,
			"0.016": 0.0,
			"0.017": 0.0,
			"0.018": 0.0,
			"0.019": 0.0,
			"0.02": 0.0,
			"0.021": 0.0,
			"0.022": 0.0,
			"0.023": 0.0,
			"0.024": 0.0,
			"0.025": 0.0
		}
	}
}
