{
	 "smiles": "CC1=C(C)C2=C(S1)N=C(CCCC(O)=O)NC2=O", 
	 "Tm": 517.15, 
	 "num_atms": 32, 
	 "gaussian": { 
		 "optdone": 1, 
		 "sigma_profile": "yes", 
		 "theory": "DFT", 
		 "functional": "B3LYP", 
		 "basiset": "6-31G**", 
		 "properties": { 
			 "R2extent": 6447.1883, 
			 "electric_dipole_moment_norm": 0.834532707568, 
			 "electric_quadrupole_moment_norm": 11.7408456071, 
			 "total_energy": -1199.13691049, 
			 "HOMO_LUMO_gap": 0.16919, 
			 "cosmo_polarized_energy": -17.8, 
			 "cosmo_cavitation_energy": 36.71, 
			 "cosmo_dispersion_energy": -26.71, 
			 "cosmo_repulsion_energy": 2.03, 
			 "cosmo_total_nonelectrostatic_energy": 12.03, 
			 "SMD_solvation_energy": 5.61 
		},
		"coords": [
			{
				"x": 4.2678240987,
				"y": 1.7757647298,
				"z": -2.5553229523,
				"element": "C" 
			},
			{
				"x": 3.0723988736,
				"y": 1.2280721453,
				"z": -1.8326852863,
				"element": "C" 
			},
			{
				"x": 2.6179204852,
				"y": 1.4965225696,
				"z": -0.5660478667,
				"element": "C" 
			},
			{
				"x": 3.2510917142,
				"y": 2.4441534165,
				"z": 0.4174255628,
				"element": "C" 
			},
			{
				"x": 1.4231081595,
				"y": 0.7489503958,
				"z": -0.2613387523,
				"element": "C" 
			},
			{
				"x": 0.9914965373,
				"y": -0.0718582524,
				"z": -1.2992403395,
				"element": "C" 
			},
			{
				"x": 2.0518720812,
				"y": 0.0608539301,
				"z": -2.6768233041,
				"element": "S" 
			},
			{
				"x": -0.1014430198,
				"y": -0.8859167097,
				"z": -1.3066176016,
				"element": "N" 
			},
			{
				"x": -0.8021297804,
				"y": -0.8813546175,
				"z": -0.2035756119,
				"element": "C" 
			},
			{
				"x": -2.022969658,
				"y": -1.7621975776,
				"z": -0.094705755,
				"element": "C" 
			},
			{
				"x": -1.736513652,
				"y": -3.1663037162,
				"z": 0.4840690197,
				"element": "C" 
			},
			{
				"x": -1.2476901529,
				"y": -3.2066445339,
				"z": 1.9508739912,
				"element": "C" 
			},
			{
				"x": -2.284097377,
				"y": -2.6787670174,
				"z": 2.9175842622,
				"element": "C" 
			},
			{
				"x": -2.1751980757,
				"y": -1.3269924593,
				"z": 3.0988483239,
				"element": "O" 
			},
			{
				"x": -3.1462373724,
				"y": -3.3247649935,
				"z": 3.4639172309,
				"element": "O" 
			},
			{
				"x": -0.4656108321,
				"y": -0.115804849,
				"z": 0.8819096189,
				"element": "N" 
			},
			{
				"x": 0.6503993544,
				"y": 0.7536258124,
				"z": 0.965658224,
				"element": "C" 
			},
			{
				"x": 0.855032087,
				"y": 1.3892567772,
				"z": 1.9939748466,
				"element": "O" 
			},
			{
				"x": 4.814779053,
				"y": 2.4782556433,
				"z": -1.9233406175,
				"element": "H" 
			},
			{
				"x": 4.9635583854,
				"y": 0.980215994,
				"z": -2.8466378475,
				"element": "H" 
			},
			{
				"x": 3.9788580325,
				"y": 2.307455036,
				"z": -3.4694837018,
				"element": "H" 
			},
			{
				"x": 4.1520468746,
				"y": 2.9092846084,
				"z": 0.0121570961,
				"element": "H" 
			},
			{
				"x": 2.5504144275,
				"y": 3.2350556227,
				"z": 0.7014086226,
				"element": "H" 
			},
			{
				"x": 3.5141904905,
				"y": 1.9247876279,
				"z": 1.3435162138,
				"element": "H" 
			},
			{
				"x": -2.7929182583,
				"y": -1.2570695156,
				"z": 0.4985044445,
				"element": "H" 
			},
			{
				"x": -2.4122681308,
				"y": -1.8835210702,
				"z": -1.1082752358,
				"element": "H" 
			},
			{
				"x": -0.9789188894,
				"y": -3.6530472147,
				"z": -0.1387295424,
				"element": "H" 
			},
			{
				"x": -2.6504165813,
				"y": -3.7650129196,
				"z": 0.4029710798,
				"element": "H" 
			},
			{
				"x": -1.0543545205,
				"y": -4.2450071999,
				"z": 2.2303023039,
				"element": "H" 
			},
			{
				"x": -0.3190207904,
				"y": -2.6401074824,
				"z": 2.0624728879,
				"element": "H" 
			},
			{
				"x": -2.8831755194,
				"y": -1.0690349909,
				"z": 3.713872207,
				"element": "H" 
			},
			{
				"x": -1.0278280441,
				"y": -0.1762491889,
				"z": 1.7274584786,
				"element": "H" 
			}
		],
		 "valence_orbital": [ 
			{
				"type": "occ",
				"energy": -0.28227,
				"method": "rhf"
			},
			{
				"type": "occ",
				"energy": -0.28071,
				"method": "rhf"
			},
			{
				"type": "occ",
				"energy": -0.25445,
				"method": "rhf"
			},
			{
				"type": "occ",
				"energy": -0.24753,
				"method": "rhf"
			},
			{
				"type": "occ",
				"energy": -0.20799,
				"method": "rhf"
			},
			{
				"type": "unocc",
				"energy": -0.0388,
				"method": "rhf"
			},
			{
				"type": "unocc",
				"energy": -0.01302,
				"method": "rhf"
			},
			{
				"type": "unocc",
				"energy": -0.00144,
				"method": "rhf"
			},
			{
				"type": "unocc",
				"energy": 0.02517,
				"method": "rhf"
			},
			{
				"type": "unocc",
				"energy": 0.03287,
				"method": "rhf"
			}
		],
		"cosmo_sigma_profile": { 
			"-0.025": 0.0,
			"-0.024": 0.0,
			"-0.023": 0.0,
			"-0.022": 0.0,
			"-0.021": 0.0,
			"-0.02": 0.0,
			"-0.019": 0.0999592175332,
			"-0.018": 1.14315230631,
			"-0.017": 0.684016810762,
			"-0.016": 0.823531500021,
			"-0.015": 1.21647080692,
			"-0.014": 0.6092578054,
			"-0.013": 0.517045114764,
			"-0.012": 0.481739924395,
			"-0.011": 0.853443832743,
			"-0.01": 0.827862182795,
			"-0.009": 0.439457474897,
			"-0.008": 2.03298331051,
			"-0.007": 3.05159259167,
			"-0.006": 10.1453619516,
			"-0.005": 23.501722789,
			"-0.004": 30.9102812646,
			"-0.003": 31.2497616537,
			"-0.002": 27.2315494246,
			"-0.001": 22.5645970408,
			"0.0": 20.5483570209,
			"0.001": 18.2577689903,
			"0.002": 18.5667255035,
			"0.003": 16.4304169196,
			"0.004": 12.4123731898,
			"0.005": 5.54180530844,
			"0.006": 3.80647933274,
			"0.007": 3.99152702567,
			"0.008": 4.0684450053,
			"0.009": 4.54488486681,
			"0.01": 4.00606775176,
			"0.011": 7.20662621596,
			"0.012": 6.5559004481,
			"0.013": 5.48821477399,
			"0.014": 2.67911084388,
			"0.015": 0.103250554083,
			"0.016": 0.0,
			"0.017": 0.0,
			"0.018": 0.0,
			"0.019": 0.0,
			"0.02": 0.0,
			"0.021": 0.0,
			"0.022": 0.0,
			"0.023": 0.0,
			"0.024": 0.0,
			"0.025": 0.0
		}
	}
}
