{
	 "smiles": "ClC(=O)C1=NOC(=C1)C1=CC=CS1", 
	 "Tm": 350.65, 
	 "num_atms": 17, 
	 "gaussian": { 
		 "optdone": 1, 
		 "sigma_profile": "yes", 
		 "theory": "DFT", 
		 "functional": "B3LYP", 
		 "basiset": "6-31G**", 
		 "properties": { 
			 "R2extent": 4654.3516, 
			 "electric_dipole_moment_norm": 5.88459842385, 
			 "electric_quadrupole_moment_norm": 9.22135659651, 
			 "total_energy": -1370.76915116, 
			 "HOMO_LUMO_gap": 0.15349, 
			 "cosmo_polarized_energy": -9.1, 
			 "cosmo_cavitation_energy": 26.78, 
			 "cosmo_dispersion_energy": -20.23, 
			 "cosmo_repulsion_energy": 1.54, 
			 "cosmo_total_nonelectrostatic_energy": 8.09, 
			 "SMD_solvation_energy": 5.07 
		},
		"coords": [
			{
				"x": 0.8382847302,
				"y": -3.8470136489,
				"z": -2.017659291,
				"element": "Cl" 
			},
			{
				"x": 2.0411477622,
				"y": -2.7174873194,
				"z": -1.245645628,
				"element": "C" 
			},
			{
				"x": 3.1070352834,
				"y": -3.11173408,
				"z": -0.8962603321,
				"element": "O" 
			},
			{
				"x": 1.5256368611,
				"y": -1.3330768743,
				"z": -1.1282633531,
				"element": "C" 
			},
			{
				"x": 2.3228447735,
				"y": -0.4294808471,
				"z": -0.5796964314,
				"element": "N" 
			},
			{
				"x": 1.5991346843,
				"y": 0.7426413566,
				"z": -0.5998054009,
				"element": "O" 
			},
			{
				"x": 0.3751565047,
				"y": 0.5321812902,
				"z": -1.1598464374,
				"element": "C" 
			},
			{
				"x": 0.2748857095,
				"y": -0.7864585844,
				"z": -1.5179039879,
				"element": "C" 
			},
			{
				"x": -0.5026639252,
				"y": 1.673470864,
				"z": -1.2514540262,
				"element": "C" 
			},
			{
				"x": -0.2500883714,
				"y": 2.9635634931,
				"z": -0.8368189529,
				"element": "C" 
			},
			{
				"x": -1.3389204458,
				"y": 3.8451321404,
				"z": -1.0784233882,
				"element": "C" 
			},
			{
				"x": -2.4047328875,
				"y": 3.2217803654,
				"z": -1.671507165,
				"element": "C" 
			},
			{
				"x": -2.1005834971,
				"y": 1.5402124764,
				"z": -1.948374285,
				"element": "S" 
			},
			{
				"x": -0.5521892064,
				"y": -1.2955959625,
				"z": -1.9843449834,
				"element": "H" 
			},
			{
				"x": 0.6858697358,
				"y": 3.2565489108,
				"z": -0.3770087043,
				"element": "H" 
			},
			{
				"x": -1.3309307871,
				"y": 4.8979800212,
				"z": -0.8225087625,
				"element": "H" 
			},
			{
				"x": -3.3541869242,
				"y": 3.6480363983,
				"z": -1.9643788705,
				"element": "H" 
			}
		],
		 "valence_orbital": [ 
			{
				"type": "occ",
				"energy": -0.32737,
				"method": "rhf"
			},
			{
				"type": "occ",
				"energy": -0.31594,
				"method": "rhf"
			},
			{
				"type": "occ",
				"energy": -0.3064,
				"method": "rhf"
			},
			{
				"type": "occ",
				"energy": -0.27805,
				"method": "rhf"
			},
			{
				"type": "occ",
				"energy": -0.24242,
				"method": "rhf"
			},
			{
				"type": "unocc",
				"energy": -0.08893,
				"method": "rhf"
			},
			{
				"type": "unocc",
				"energy": -0.06611,
				"method": "rhf"
			},
			{
				"type": "unocc",
				"energy": -0.00089,
				"method": "rhf"
			},
			{
				"type": "unocc",
				"energy": 0.01054,
				"method": "rhf"
			},
			{
				"type": "unocc",
				"energy": 0.01177,
				"method": "rhf"
			}
		],
		"cosmo_sigma_profile": { 
			"-0.025": 0.0,
			"-0.024": 0.0,
			"-0.023": 0.0,
			"-0.022": 0.0,
			"-0.021": 0.0,
			"-0.02": 0.0,
			"-0.019": 0.0,
			"-0.018": 0.0,
			"-0.017": 0.0,
			"-0.016": 0.0,
			"-0.015": 0.0,
			"-0.014": 0.0,
			"-0.013": 0.0,
			"-0.012": 0.0,
			"-0.011": 0.0,
			"-0.01": 0.745579838568,
			"-0.009": 3.85737693162,
			"-0.008": 5.42752199945,
			"-0.007": 8.27081296354,
			"-0.006": 8.81885079893,
			"-0.005": 11.2818207489,
			"-0.004": 10.1805847217,
			"-0.003": 14.3030931541,
			"-0.002": 17.3115481082,
			"-0.001": 20.2062349965,
			"0.0": 17.4575539753,
			"0.001": 18.9138834121,
			"0.002": 21.1297831364,
			"0.003": 22.5191038833,
			"0.004": 11.7964136219,
			"0.005": 6.68550238482,
			"0.006": 4.8960741615,
			"0.007": 6.48052205731,
			"0.008": 5.80248111919,
			"0.009": 2.15136990445,
			"0.01": 1.33717850671,
			"0.011": 1.45063086109,
			"0.012": 0.719493003488,
			"0.013": 0.0,
			"0.014": 0.0,
			"0.015": 0.0,
			"0.016": 0.0,
			"0.017": 0.0,
			"0.018": 0.0,
			"0.019": 0.0,
			"0.02": 0.0,
			"0.021": 0.0,
			"0.022": 0.0,
			"0.023": 0.0,
			"0.024": 0.0,
			"0.025": 0.0
		}
	}
}
