{
	 "smiles": "COC1=C(F)C=C(CBr)C=C1Cl", 
	 "Tm": 311.15, 
	 "num_atms": 19, 
	 "gaussian": { 
		 "optdone": 1, 
		 "sigma_profile": "yes", 
		 "theory": "DFT", 
		 "functional": "B3LYP", 
		 "basiset": "6-31G**", 
		 "properties": { 
			 "R2extent": 5376.219, 
			 "electric_dipole_moment_norm": 1.88119653678, 
			 "electric_quadrupole_moment_norm": 12.5788744528, 
			 "total_energy": -3515.70777775, 
			 "HOMO_LUMO_gap": 0.19071, 
			 "cosmo_polarized_energy": -8.12, 
			 "cosmo_cavitation_energy": 27.78, 
			 "cosmo_dispersion_energy": -20.45, 
			 "cosmo_repulsion_energy": 1.64, 
			 "cosmo_total_nonelectrostatic_energy": 8.97, 
			 "SMD_solvation_energy": 4.46 
		},
		"coords": [
			{
				"x": -3.0507262595,
				"y": 0.9180672682,
				"z": -1.1221018062,
				"element": "C" 
			},
			{
				"x": -2.1283089073,
				"y": 0.3034816852,
				"z": -0.2124442293,
				"element": "O" 
			},
			{
				"x": -0.798022222,
				"y": 0.4698973184,
				"z": -0.3810678781,
				"element": "C" 
			},
			{
				"x": -0.1396579283,
				"y": 0.5781516158,
				"z": -1.6180063012,
				"element": "C" 
			},
			{
				"x": -0.8714410726,
				"y": 0.5260819385,
				"z": -2.755467921,
				"element": "F" 
			},
			{
				"x": 1.2333730533,
				"y": 0.7202088095,
				"z": -1.7270847596,
				"element": "C" 
			},
			{
				"x": 2.0274395845,
				"y": 0.736365661,
				"z": -0.5748912289,
				"element": "C" 
			},
			{
				"x": 3.5100048393,
				"y": 0.8717524614,
				"z": -0.6740747418,
				"element": "C" 
			},
			{
				"x": 4.102296617,
				"y": 2.7905851792,
				"z": -0.7235816638,
				"element": "Br" 
			},
			{
				"x": 1.4058273125,
				"y": 0.6116980601,
				"z": 0.6728287603,
				"element": "C" 
			},
			{
				"x": 0.0230074758,
				"y": 0.4851448047,
				"z": 0.7634915453,
				"element": "C" 
			},
			{
				"x": -0.7238517073,
				"y": 0.3368834373,
				"z": 2.3367800896,
				"element": "Cl" 
			},
			{
				"x": -3.1268757682,
				"y": 0.3585194461,
				"z": -2.0564313153,
				"element": "H" 
			},
			{
				"x": -4.0109585109,
				"y": 0.909189992,
				"z": -0.6044155864,
				"element": "H" 
			},
			{
				"x": -2.7616083164,
				"y": 1.9519080868,
				"z": -1.3371746575,
				"element": "H" 
			},
			{
				"x": 1.6670521561,
				"y": 0.8081139578,
				"z": -2.7177792645,
				"element": "H" 
			},
			{
				"x": 3.9109633983,
				"y": 0.4475919754,
				"z": -1.5925839594,
				"element": "H" 
			},
			{
				"x": 4.0275171452,
				"y": 0.4538613343,
				"z": 0.1870019946,
				"element": "H" 
			},
			{
				"x": 1.9935691103,
				"y": 0.6261969681,
				"z": 1.5842029232,
				"element": "H" 
			}
		],
		 "valence_orbital": [ 
			{
				"type": "occ",
				"energy": -0.31327,
				"method": "rhf"
			},
			{
				"type": "occ",
				"energy": -0.27613,
				"method": "rhf"
			},
			{
				"type": "occ",
				"energy": -0.27493,
				"method": "rhf"
			},
			{
				"type": "occ",
				"energy": -0.25635,
				"method": "rhf"
			},
			{
				"type": "occ",
				"energy": -0.2363,
				"method": "rhf"
			},
			{
				"type": "unocc",
				"energy": -0.04559,
				"method": "rhf"
			},
			{
				"type": "unocc",
				"energy": -0.02107,
				"method": "rhf"
			},
			{
				"type": "unocc",
				"energy": 0.01891,
				"method": "rhf"
			},
			{
				"type": "unocc",
				"energy": 0.02288,
				"method": "rhf"
			},
			{
				"type": "unocc",
				"energy": 0.08248,
				"method": "rhf"
			}
		],
		"cosmo_sigma_profile": { 
			"-0.025": 0.0,
			"-0.024": 0.0,
			"-0.023": 0.0,
			"-0.022": 0.0,
			"-0.021": 0.0,
			"-0.02": 0.0,
			"-0.019": 0.0,
			"-0.018": 0.0,
			"-0.017": 0.0,
			"-0.016": 0.0,
			"-0.015": 0.0,
			"-0.014": 0.0,
			"-0.013": 0.0,
			"-0.012": 0.0,
			"-0.011": 0.0,
			"-0.01": 0.0,
			"-0.009": 1.58762681998,
			"-0.008": 8.31848247394,
			"-0.007": 8.24718530151,
			"-0.006": 11.0295050816,
			"-0.005": 12.9658390329,
			"-0.004": 14.4904102669,
			"-0.003": 14.165019952,
			"-0.002": 10.6401439051,
			"-0.001": 16.2354249541,
			"0.0": 18.9616151284,
			"0.001": 19.6690867376,
			"0.002": 18.6668062937,
			"0.003": 18.7490153924,
			"0.004": 17.9137586084,
			"0.005": 12.6312797963,
			"0.006": 13.6937916604,
			"0.007": 4.91849081173,
			"0.008": 1.79414646203,
			"0.009": 1.7186973281,
			"0.01": 1.18533021814,
			"0.011": 0.00768033674373,
			"0.012": 0.0,
			"0.013": 0.0,
			"0.014": 0.0,
			"0.015": 0.0,
			"0.016": 0.0,
			"0.017": 0.0,
			"0.018": 0.0,
			"0.019": 0.0,
			"0.02": 0.0,
			"0.021": 0.0,
			"0.022": 0.0,
			"0.023": 0.0,
			"0.024": 0.0,
			"0.025": 0.0
		}
	}
}
