{
	 "smiles": "N#CC1=CC=CN=C1SC1=CC=CC=C1", 
	 "Tm": 379.15, 
	 "num_atms": 23, 
	 "gaussian": { 
		 "optdone": 1, 
		 "sigma_profile": "yes", 
		 "theory": "DFT", 
		 "functional": "B3LYP", 
		 "basiset": "6-31G**", 
		 "properties": { 
			 "R2extent": 3713.2558, 
			 "electric_dipole_moment_norm": 3.00638372301, 
			 "electric_quadrupole_moment_norm": 21.3368583747, 
			 "total_energy": -969.755285999, 
			 "HOMO_LUMO_gap": 0.16178, 
			 "cosmo_polarized_energy": -12.99, 
			 "cosmo_cavitation_energy": 30.21, 
			 "cosmo_dispersion_energy": -21.25, 
			 "cosmo_repulsion_energy": 1.62, 
			 "cosmo_total_nonelectrostatic_energy": 10.59, 
			 "SMD_solvation_energy": 4.37 
		},
		"coords": [
			{
				"x": -2.0610424804,
				"y": -0.725442533,
				"z": 1.0130692668,
				"element": "N" 
			},
			{
				"x": -1.3603647093,
				"y": 0.1407437327,
				"z": 0.678396587,
				"element": "C" 
			},
			{
				"x": -0.5781591532,
				"y": 1.2592259813,
				"z": 0.2483726967,
				"element": "C" 
			},
			{
				"x": -1.1479011966,
				"y": 2.5402217683,
				"z": 0.3284176108,
				"element": "C" 
			},
			{
				"x": -0.4566783442,
				"y": 3.630636611,
				"z": -0.1851580824,
				"element": "C" 
			},
			{
				"x": 0.7828591078,
				"y": 3.3949064212,
				"z": -0.7805236692,
				"element": "C" 
			},
			{
				"x": 1.3611338387,
				"y": 2.191282214,
				"z": -0.8290824136,
				"element": "N" 
			},
			{
				"x": 0.7193113187,
				"y": 1.140099201,
				"z": -0.3133009205,
				"element": "C" 
			},
			{
				"x": 1.6163560963,
				"y": -0.3966966855,
				"z": -0.5056555557,
				"element": "S" 
			},
			{
				"x": 1.3640829036,
				"y": -1.2706621235,
				"z": 1.0433806273,
				"element": "C" 
			},
			{
				"x": 0.8780465032,
				"y": -2.5821546019,
				"z": 1.0074776758,
				"element": "C" 
			},
			{
				"x": 0.7784070938,
				"y": -3.3173601859,
				"z": 2.1892808284,
				"element": "C" 
			},
			{
				"x": 1.1435745548,
				"y": -2.7427365351,
				"z": 3.407254319,
				"element": "C" 
			},
			{
				"x": 1.6251941274,
				"y": -1.4317998098,
				"z": 3.4419417049,
				"element": "C" 
			},
			{
				"x": 1.7525783254,
				"y": -0.6990891811,
				"z": 2.2626411509,
				"element": "C" 
			},
			{
				"x": -2.1328576851,
				"y": 2.6546938022,
				"z": 0.7694357889,
				"element": "H" 
			},
			{
				"x": -0.8720662414,
				"y": 4.631437863,
				"z": -0.1423052188,
				"element": "H" 
			},
			{
				"x": 1.3465056663,
				"y": 4.2098912897,
				"z": -1.2301716722,
				"element": "H" 
			},
			{
				"x": 0.5669379924,
				"y": -3.0157348324,
				"z": 0.062783899,
				"element": "H" 
			},
			{
				"x": 0.3979141322,
				"y": -4.3339303682,
				"z": 2.1575813912,
				"element": "H" 
			},
			{
				"x": 1.0542225242,
				"y": -3.3135079796,
				"z": 4.3267855362,
				"element": "H" 
			},
			{
				"x": 1.9174978791,
				"y": -0.9829918954,
				"z": 4.3869272926,
				"element": "H" 
			},
			{
				"x": 2.1545477462,
				"y": 0.3090678469,
				"z": 2.284751157,
				"element": "H" 
			}
		],
		 "valence_orbital": [ 
			{
				"type": "occ",
				"energy": -0.29131,
				"method": "rhf"
			},
			{
				"type": "occ",
				"energy": -0.28069,
				"method": "rhf"
			},
			{
				"type": "occ",
				"energy": -0.26467,
				"method": "rhf"
			},
			{
				"type": "occ",
				"energy": -0.25713,
				"method": "rhf"
			},
			{
				"type": "occ",
				"energy": -0.22894,
				"method": "rhf"
			},
			{
				"type": "unocc",
				"energy": -0.06716,
				"method": "rhf"
			},
			{
				"type": "unocc",
				"energy": -0.04877,
				"method": "rhf"
			},
			{
				"type": "unocc",
				"energy": -0.02314,
				"method": "rhf"
			},
			{
				"type": "unocc",
				"energy": -0.0084,
				"method": "rhf"
			},
			{
				"type": "unocc",
				"energy": 0.03232,
				"method": "rhf"
			}
		],
		"cosmo_sigma_profile": { 
			"-0.025": 0.0,
			"-0.024": 0.0,
			"-0.023": 0.0,
			"-0.022": 0.0,
			"-0.021": 0.0,
			"-0.02": 0.0,
			"-0.019": 0.0,
			"-0.018": 0.0,
			"-0.017": 0.0,
			"-0.016": 0.0,
			"-0.015": 0.0,
			"-0.014": 0.0,
			"-0.013": 0.0,
			"-0.012": 0.0,
			"-0.011": 0.0,
			"-0.01": 0.452178032998,
			"-0.009": 2.65618073273,
			"-0.008": 6.64097650098,
			"-0.007": 11.2620266534,
			"-0.006": 15.855374064,
			"-0.005": 16.9694713051,
			"-0.004": 16.1561591804,
			"-0.003": 15.2562766814,
			"-0.002": 19.8652021357,
			"-0.001": 18.8132575913,
			"0.0": 18.906994708,
			"0.001": 14.520664297,
			"0.002": 13.8405824466,
			"0.003": 15.0655358595,
			"0.004": 13.8136739059,
			"0.005": 11.2391656809,
			"0.006": 6.53333281151,
			"0.007": 6.42370495745,
			"0.008": 5.10863481688,
			"0.009": 4.69253127563,
			"0.01": 3.40197953504,
			"0.011": 3.59334304089,
			"0.012": 3.01940984452,
			"0.013": 1.68371348876,
			"0.014": 0.686809455987,
			"0.015": 0.0695763744688,
			"0.016": 0.0,
			"0.017": 0.0,
			"0.018": 0.0,
			"0.019": 0.0,
			"0.02": 0.0,
			"0.021": 0.0,
			"0.022": 0.0,
			"0.023": 0.0,
			"0.024": 0.0,
			"0.025": 0.0
		}
	}
}
