{
	 "smiles": "CNS(=O)(=O)C1=C(OC)C=CC(C=CC(O)=O)=C1", 
	 "Tm": 512.15, 
	 "num_atms": 31, 
	 "gaussian": { 
		 "optdone": 1, 
		 "sigma_profile": "yes", 
		 "theory": "DFT", 
		 "functional": "B3LYP", 
		 "basiset": "6-31G**", 
		 "properties": { 
			 "R2extent": 6482.5187, 
			 "electric_dipole_moment_norm": 3.20574340988, 
			 "electric_quadrupole_moment_norm": 44.7522276406, 
			 "total_energy": -1255.96287059, 
			 "HOMO_LUMO_gap": 0.17628, 
			 "cosmo_polarized_energy": -24.14, 
			 "cosmo_cavitation_energy": 36.46, 
			 "cosmo_dispersion_energy": -25.87, 
			 "cosmo_repulsion_energy": 1.97, 
			 "cosmo_total_nonelectrostatic_energy": 12.56, 
			 "SMD_solvation_energy": 7.05 
		},
		"coords": [
			{
				"x": -2.6390721124,
				"y": -0.6558142168,
				"z": 0.9555989501,
				"element": "C" 
			},
			{
				"x": -2.8583833718,
				"y": -0.4071714976,
				"z": -0.4730290893,
				"element": "N" 
			},
			{
				"x": -2.1159672608,
				"y": 0.918597076,
				"z": -1.1702793853,
				"element": "S" 
			},
			{
				"x": -2.287761956,
				"y": 2.0455952572,
				"z": -0.2519492896,
				"element": "O" 
			},
			{
				"x": -2.5781005275,
				"y": 0.9737368867,
				"z": -2.5574614975,
				"element": "O" 
			},
			{
				"x": -0.3484945638,
				"y": 0.5505939469,
				"z": -1.2105560369,
				"element": "C" 
			},
			{
				"x": 0.1171178556,
				"y": -0.5825178593,
				"z": -1.8967620211,
				"element": "C" 
			},
			{
				"x": -0.785412919,
				"y": -1.4775508777,
				"z": -2.4109596237,
				"element": "O" 
			},
			{
				"x": -0.8912444378,
				"y": -1.5101445431,
				"z": -3.8480649777,
				"element": "C" 
			},
			{
				"x": 1.493719257,
				"y": -0.8040933745,
				"z": -1.9836737631,
				"element": "C" 
			},
			{
				"x": 2.3877715357,
				"y": 0.0830487024,
				"z": -1.3884220147,
				"element": "C" 
			},
			{
				"x": 1.9308674743,
				"y": 1.2060476001,
				"z": -0.6710924662,
				"element": "C" 
			},
			{
				"x": 2.832366387,
				"y": 2.1914151149,
				"z": -0.0416992185,
				"element": "C" 
			},
			{
				"x": 4.0202058333,
				"y": 2.0237854804,
				"z": 0.571032616,
				"element": "C" 
			},
			{
				"x": 4.7858113471,
				"y": 0.7791622053,
				"z": 0.8765256459,
				"element": "C" 
			},
			{
				"x": 4.0939163138,
				"y": -0.3768895908,
				"z": 1.0592961944,
				"element": "O" 
			},
			{
				"x": 5.9882803332,
				"y": 0.7893366129,
				"z": 0.9999129001,
				"element": "O" 
			},
			{
				"x": 0.5436684559,
				"y": 1.4317866088,
				"z": -0.6090950296,
				"element": "C" 
			},
			{
				"x": -2.8847610339,
				"y": 0.2508414925,
				"z": 1.5091430763,
				"element": "H" 
			},
			{
				"x": -1.6112718121,
				"y": -0.9599597324,
				"z": 1.1977717022,
				"element": "H" 
			},
			{
				"x": -3.3233615763,
				"y": -1.4489020753,
				"z": 1.2657860454,
				"element": "H" 
			},
			{
				"x": -2.7088930305,
				"y": -1.2141169279,
				"z": -1.0748277998,
				"element": "H" 
			},
			{
				"x": -1.5603576891,
				"y": -2.3392485727,
				"z": -4.0811664026,
				"element": "H" 
			},
			{
				"x": -1.3190220947,
				"y": -0.5714594237,
				"z": -4.2102274448,
				"element": "H" 
			},
			{
				"x": 0.0858083491,
				"y": -1.690169168,
				"z": -4.3088086253,
				"element": "H" 
			},
			{
				"x": 1.858120472,
				"y": -1.6769636132,
				"z": -2.5158528566,
				"element": "H" 
			},
			{
				"x": 3.4522634297,
				"y": -0.095423335,
				"z": -1.4915611744,
				"element": "H" 
			},
			{
				"x": 2.465081569,
				"y": 3.2157877203,
				"z": -0.0914420016,
				"element": "H" 
			},
			{
				"x": 4.5579131948,
				"y": 2.9103839037,
				"z": 0.8930429205,
				"element": "H" 
			},
			{
				"x": 3.1420544797,
				"y": -0.2149907147,
				"z": 0.9821524684,
				"element": "H" 
			},
			{
				"x": 0.1448380985,
				"y": 2.2991969148,
				"z": -0.0923318009,
				"element": "H" 
			}
		],
		 "valence_orbital": [ 
			{
				"type": "occ",
				"energy": -0.30773,
				"method": "rhf"
			},
			{
				"type": "occ",
				"energy": -0.29107,
				"method": "rhf"
			},
			{
				"type": "occ",
				"energy": -0.28215,
				"method": "rhf"
			},
			{
				"type": "occ",
				"energy": -0.2766,
				"method": "rhf"
			},
			{
				"type": "occ",
				"energy": -0.25693,
				"method": "rhf"
			},
			{
				"type": "unocc",
				"energy": -0.08065,
				"method": "rhf"
			},
			{
				"type": "unocc",
				"energy": -0.05178,
				"method": "rhf"
			},
			{
				"type": "unocc",
				"energy": -0.01835,
				"method": "rhf"
			},
			{
				"type": "unocc",
				"energy": 0.04898,
				"method": "rhf"
			},
			{
				"type": "unocc",
				"energy": 0.05695,
				"method": "rhf"
			}
		],
		"cosmo_sigma_profile": { 
			"-0.025": 0.0,
			"-0.024": 0.0,
			"-0.023": 0.0,
			"-0.022": 0.0,
			"-0.021": 0.0,
			"-0.02": 0.0,
			"-0.019": 0.0,
			"-0.018": 0.0,
			"-0.017": 0.0,
			"-0.016": 0.237033725863,
			"-0.015": 0.93626889609,
			"-0.014": 0.681977509966,
			"-0.013": 0.85781783626,
			"-0.012": 1.31141158555,
			"-0.011": 1.91975318703,
			"-0.01": 1.49458558323,
			"-0.009": 2.14105091172,
			"-0.008": 9.77247164449,
			"-0.007": 14.2493844699,
			"-0.006": 17.173150523,
			"-0.005": 20.263690048,
			"-0.004": 24.20070058,
			"-0.003": 28.0574720875,
			"-0.002": 23.625474886,
			"-0.001": 15.6976850526,
			"0.0": 16.243402938,
			"0.001": 16.7290806167,
			"0.002": 10.8744230693,
			"0.003": 6.33785378992,
			"0.004": 6.15649290842,
			"0.005": 6.24713524262,
			"0.006": 6.88892919041,
			"0.007": 7.12570815407,
			"0.008": 7.25559835047,
			"0.009": 8.2787249542,
			"0.01": 11.3680503161,
			"0.011": 13.5930038969,
			"0.012": 8.45735898738,
			"0.013": 2.16898699613,
			"0.014": 0.0582184592706,
			"0.015": 0.0,
			"0.016": 0.0,
			"0.017": 0.0,
			"0.018": 0.0,
			"0.019": 0.0,
			"0.02": 0.0,
			"0.021": 0.0,
			"0.022": 0.0,
			"0.023": 0.0,
			"0.024": 0.0,
			"0.025": 0.0
		}
	}
}
