{
	 "smiles": "NC1=C(C=NN1C1=CC=CC=C1)C#N", 
	 "Tm": 411.15, 
	 "num_atms": 22, 
	 "gaussian": { 
		 "optdone": 1, 
		 "sigma_profile": "yes", 
		 "theory": "DFT", 
		 "functional": "B3LYP", 
		 "basiset": "6-31G**", 
		 "properties": { 
			 "R2extent": 3141.6901, 
			 "electric_dipole_moment_norm": 5.6003656577, 
			 "electric_quadrupole_moment_norm": 13.6389604483, 
			 "total_energy": -604.856398195, 
			 "HOMO_LUMO_gap": 0.19466, 
			 "cosmo_polarized_energy": -15.65, 
			 "cosmo_cavitation_energy": 27.56, 
			 "cosmo_dispersion_energy": -19.75, 
			 "cosmo_repulsion_energy": 1.54, 
			 "cosmo_total_nonelectrostatic_energy": 9.36, 
			 "SMD_solvation_energy": 5.59 
		},
		"coords": [
			{
				"x": -0.2841956453,
				"y": -1.8460747073,
				"z": 0.8710260589,
				"element": "N" 
			},
			{
				"x": -1.071327583,
				"y": -0.7173949803,
				"z": 0.8952698156,
				"element": "C" 
			},
			{
				"x": -2.372323246,
				"y": -0.5600653251,
				"z": 1.3876422687,
				"element": "C" 
			},
			{
				"x": -2.6692166303,
				"y": 0.8159101141,
				"z": 1.1735106231,
				"element": "C" 
			},
			{
				"x": -1.6697782355,
				"y": 1.4588966451,
				"z": 0.6084123899,
				"element": "N" 
			},
			{
				"x": -0.6763951583,
				"y": 0.5111975014,
				"z": 0.4524517515,
				"element": "N" 
			},
			{
				"x": 0.5472896622,
				"y": 0.8804208586,
				"z": -0.172681971,
				"element": "C" 
			},
			{
				"x": 1.7639459115,
				"y": 0.3411671053,
				"z": 0.2626069494,
				"element": "C" 
			},
			{
				"x": 2.9474265029,
				"y": 0.7182430845,
				"z": -0.3749793668,
				"element": "C" 
			},
			{
				"x": 2.9245414519,
				"y": 1.6396595754,
				"z": -1.4219310932,
				"element": "C" 
			},
			{
				"x": 1.7071793951,
				"y": 2.1902056014,
				"z": -1.8320779324,
				"element": "C" 
			},
			{
				"x": 0.5164345897,
				"y": 1.8122539652,
				"z": -1.2166209614,
				"element": "C" 
			},
			{
				"x": -3.1715555688,
				"y": -1.5910435039,
				"z": 1.9289354033,
				"element": "C" 
			},
			{
				"x": -3.8040014009,
				"y": -2.4700464507,
				"z": 2.3615643452,
				"element": "N" 
			},
			{
				"x": -0.8036476268,
				"y": -2.7013480135,
				"z": 1.0235630042,
				"element": "H" 
			},
			{
				"x": 0.3711099329,
				"y": -1.9104185799,
				"z": 0.102358725,
				"element": "H" 
			},
			{
				"x": -3.5843817934,
				"y": 1.3363455787,
				"z": 1.4207674522,
				"element": "H" 
			},
			{
				"x": 1.7874049744,
				"y": -0.3414381753,
				"z": 1.104905359,
				"element": "H" 
			},
			{
				"x": 3.8904821498,
				"y": 0.3003062457,
				"z": -0.0356079543,
				"element": "H" 
			},
			{
				"x": 3.8485683308,
				"y": 1.9336511652,
				"z": -1.9101878338,
				"element": "H" 
			},
			{
				"x": 1.6822767813,
				"y": 2.9146527426,
				"z": -2.6406064774,
				"element": "H" 
			},
			{
				"x": -0.4354367941,
				"y": 2.232319553,
				"z": -1.5187205554,
				"element": "H" 
			}
		],
		 "valence_orbital": [ 
			{
				"type": "occ",
				"energy": -0.30039,
				"method": "rhf"
			},
			{
				"type": "occ",
				"energy": -0.29647,
				"method": "rhf"
			},
			{
				"type": "occ",
				"energy": -0.27072,
				"method": "rhf"
			},
			{
				"type": "occ",
				"energy": -0.24289,
				"method": "rhf"
			},
			{
				"type": "occ",
				"energy": -0.22857,
				"method": "rhf"
			},
			{
				"type": "unocc",
				"energy": -0.03391,
				"method": "rhf"
			},
			{
				"type": "unocc",
				"energy": -0.02287,
				"method": "rhf"
			},
			{
				"type": "unocc",
				"energy": 0.00422,
				"method": "rhf"
			},
			{
				"type": "unocc",
				"energy": 0.02313,
				"method": "rhf"
			},
			{
				"type": "unocc",
				"energy": 0.02885,
				"method": "rhf"
			}
		],
		"cosmo_sigma_profile": { 
			"-0.025": 0.0,
			"-0.024": 0.0,
			"-0.023": 0.0,
			"-0.022": 0.0,
			"-0.021": 0.0,
			"-0.02": 0.0,
			"-0.019": 0.0,
			"-0.018": 0.0,
			"-0.017": 0.0,
			"-0.016": 0.0,
			"-0.015": 0.286301242401,
			"-0.014": 2.10776398722,
			"-0.013": 2.08892539268,
			"-0.012": 2.65993720501,
			"-0.011": 2.30235404781,
			"-0.01": 2.68425489349,
			"-0.009": 3.89826783281,
			"-0.008": 4.24154113408,
			"-0.007": 5.450150773,
			"-0.006": 12.8424028013,
			"-0.005": 14.2432173806,
			"-0.004": 14.5111316436,
			"-0.003": 11.6377129929,
			"-0.002": 11.6812605232,
			"-0.001": 12.8887298932,
			"0.0": 15.2958207225,
			"0.001": 16.6428883425,
			"0.002": 14.4182091842,
			"0.003": 14.1286899552,
			"0.004": 14.8178880501,
			"0.005": 8.01596886961,
			"0.006": 4.84207490042,
			"0.007": 4.54406016248,
			"0.008": 4.45820728009,
			"0.009": 5.34936802532,
			"0.01": 4.24483100155,
			"0.011": 4.64954778062,
			"0.012": 3.49538681895,
			"0.013": 3.24046285622,
			"0.014": 1.21966675198,
			"0.015": 0.0,
			"0.016": 0.0,
			"0.017": 0.0,
			"0.018": 0.0,
			"0.019": 0.0,
			"0.02": 0.0,
			"0.021": 0.0,
			"0.022": 0.0,
			"0.023": 0.0,
			"0.024": 0.0,
			"0.025": 0.0
		}
	}
}
