{
	 "smiles": "CCC1=NC=NC(O)=C1", 
	 "Tm": 409.15, 
	 "num_atms": 17, 
	 "gaussian": { 
		 "optdone": 1, 
		 "sigma_profile": "yes", 
		 "theory": "DFT", 
		 "functional": "B3LYP", 
		 "basiset": "6-31G**", 
		 "properties": { 
			 "R2extent": 1792.9854, 
			 "electric_dipole_moment_norm": 3.6767641344, 
			 "electric_quadrupole_moment_norm": 7.66117254472, 
			 "total_energy": -418.19266474, 
			 "HOMO_LUMO_gap": 0.22701, 
			 "cosmo_polarized_energy": -13.48, 
			 "cosmo_cavitation_energy": 20.91, 
			 "cosmo_dispersion_energy": -15.61, 
			 "cosmo_repulsion_energy": 1.3, 
			 "cosmo_total_nonelectrostatic_energy": 6.6, 
			 "SMD_solvation_energy": 1.5 
		},
		"coords": [
			{
				"x": -2.8083569563,
				"y": -0.4818311314,
				"z": 1.0272402778,
				"element": "C" 
			},
			{
				"x": -1.9948355623,
				"y": -0.3684899008,
				"z": -0.2727276953,
				"element": "C" 
			},
			{
				"x": -0.7350927583,
				"y": -1.1997130226,
				"z": -0.2343544418,
				"element": "C" 
			},
			{
				"x": -0.8951243843,
				"y": -2.537099534,
				"z": -0.1565249024,
				"element": "N" 
			},
			{
				"x": 0.2231908962,
				"y": -3.2600176368,
				"z": -0.1115221924,
				"element": "C" 
			},
			{
				"x": 1.4853449452,
				"y": -2.8203167805,
				"z": -0.1342858649,
				"element": "N" 
			},
			{
				"x": 1.6298932154,
				"y": -1.5003471113,
				"z": -0.2106667865,
				"element": "C" 
			},
			{
				"x": 2.9092755251,
				"y": -1.0676985046,
				"z": -0.2330677817,
				"element": "O" 
			},
			{
				"x": 0.5332891948,
				"y": -0.6261302043,
				"z": -0.2638816321,
				"element": "C" 
			},
			{
				"x": -2.24603117,
				"y": -0.0898397567,
				"z": 1.8811013457,
				"element": "H" 
			},
			{
				"x": -3.0492387969,
				"y": -1.5283469115,
				"z": 1.2302184564,
				"element": "H" 
			},
			{
				"x": -3.7428023613,
				"y": 0.0819940376,
				"z": 0.9483471846,
				"element": "H" 
			},
			{
				"x": -2.6068687205,
				"y": -0.7240871876,
				"z": -1.1101417568,
				"element": "H" 
			},
			{
				"x": -1.7419822847,
				"y": 0.6781641527,
				"z": -0.4751693484,
				"element": "H" 
			},
			{
				"x": 0.098695744,
				"y": -4.3400572356,
				"z": -0.0506217937,
				"element": "H" 
			},
			{
				"x": 2.9189407859,
				"y": -0.1026255593,
				"z": -0.2900851149,
				"element": "H" 
			},
			{
				"x": 0.6627026881,
				"y": 0.4509422868,
				"z": -0.3269579536,
				"element": "H" 
			}
		],
		 "valence_orbital": [ 
			{
				"type": "occ",
				"energy": -0.35061,
				"method": "rhf"
			},
			{
				"type": "occ",
				"energy": -0.29637,
				"method": "rhf"
			},
			{
				"type": "occ",
				"energy": -0.28843,
				"method": "rhf"
			},
			{
				"type": "occ",
				"energy": -0.26403,
				"method": "rhf"
			},
			{
				"type": "occ",
				"energy": -0.25396,
				"method": "rhf"
			},
			{
				"type": "unocc",
				"energy": -0.02695,
				"method": "rhf"
			},
			{
				"type": "unocc",
				"energy": -0.01586,
				"method": "rhf"
			},
			{
				"type": "unocc",
				"energy": 0.05752,
				"method": "rhf"
			},
			{
				"type": "unocc",
				"energy": 0.09763,
				"method": "rhf"
			},
			{
				"type": "unocc",
				"energy": 0.12066,
				"method": "rhf"
			}
		],
		"cosmo_sigma_profile": { 
			"-0.025": 0.0,
			"-0.024": 0.0,
			"-0.023": 0.0,
			"-0.022": 0.0,
			"-0.021": 0.0,
			"-0.02": 0.0358017142221,
			"-0.019": 0.959395133469,
			"-0.018": 1.1313315937,
			"-0.017": 1.04561559964,
			"-0.016": 1.32796526549,
			"-0.015": 1.16587297337,
			"-0.014": 0.856182022057,
			"-0.013": 0.668798323335,
			"-0.012": 0.930510415297,
			"-0.011": 1.00642989785,
			"-0.01": 1.15833588436,
			"-0.009": 1.34869198887,
			"-0.008": 2.07611600253,
			"-0.007": 3.79859010873,
			"-0.006": 4.16393024313,
			"-0.005": 5.42059937512,
			"-0.004": 8.26914044458,
			"-0.003": 11.6664984087,
			"-0.002": 14.4449445791,
			"-0.001": 21.4611649908,
			"0.0": 20.1229561941,
			"0.001": 14.268108782,
			"0.002": 5.61637445971,
			"0.003": 5.106126785,
			"0.004": 4.36265598267,
			"0.005": 3.11064848639,
			"0.006": 2.96264772485,
			"0.007": 4.48477573633,
			"0.008": 4.00412663825,
			"0.009": 2.17062936226,
			"0.01": 3.36496115987,
			"0.011": 4.00569217024,
			"0.012": 3.20934887037,
			"0.013": 2.00610660001,
			"0.014": 1.67848005938,
			"0.015": 1.69464636809,
			"0.016": 0.538491853121,
			"0.017": 0.0,
			"0.018": 0.0,
			"0.019": 0.0,
			"0.02": 0.0,
			"0.021": 0.0,
			"0.022": 0.0,
			"0.023": 0.0,
			"0.024": 0.0,
			"0.025": 0.0
		}
	}
}
