{
	 "smiles": "OC(=O)CCCNC(=O)C1=CC=C(F)C=C1", 
	 "Tm": 367.15, 
	 "num_atms": 28, 
	 "gaussian": { 
		 "optdone": 1, 
		 "sigma_profile": "yes", 
		 "theory": "DFT", 
		 "functional": "B3LYP", 
		 "basiset": "6-31G**", 
		 "properties": { 
			 "R2extent": 6392.3474, 
			 "electric_dipole_moment_norm": 3.33364997113, 
			 "electric_quadrupole_moment_norm": 26.5081929561, 
			 "total_energy": -806.680404716, 
			 "HOMO_LUMO_gap": 0.20915, 
			 "cosmo_polarized_energy": -24.62, 
			 "cosmo_cavitation_energy": 33.55, 
			 "cosmo_dispersion_energy": -23.32, 
			 "cosmo_repulsion_energy": 1.83, 
			 "cosmo_total_nonelectrostatic_energy": 12.07, 
			 "SMD_solvation_energy": 7.31 
		},
		"coords": [
			{
				"x": 0.6094849919,
				"y": 1.4153633847,
				"z": 4.7980150435,
				"element": "O" 
			},
			{
				"x": -0.0560107633,
				"y": 2.2224168531,
				"z": 3.9244153003,
				"element": "C" 
			},
			{
				"x": 0.1187383321,
				"y": 3.4135391699,
				"z": 3.9526627518,
				"element": "O" 
			},
			{
				"x": -0.9761176195,
				"y": 1.5122886288,
				"z": 2.9391602984,
				"element": "C" 
			},
			{
				"x": -0.2111382668,
				"y": 0.6266583266,
				"z": 1.9365290825,
				"element": "C" 
			},
			{
				"x": -1.1508038988,
				"y": -0.0141061964,
				"z": 0.9065027086,
				"element": "C" 
			},
			{
				"x": -0.4440582321,
				"y": -0.8865669041,
				"z": -0.025927531,
				"element": "N" 
			},
			{
				"x": -0.5774853136,
				"y": -0.9453273612,
				"z": -1.4011380308,
				"element": "C" 
			},
			{
				"x": -0.3726626861,
				"y": -1.9973629761,
				"z": -1.9974703937,
				"element": "O" 
			},
			{
				"x": -0.9283055989,
				"y": 0.3074869366,
				"z": -2.1491743755,
				"element": "C" 
			},
			{
				"x": -0.450300935,
				"y": 1.578056599,
				"z": -1.7962066923,
				"element": "C" 
			},
			{
				"x": -0.7480633937,
				"y": 2.6941256573,
				"z": -2.5772466073,
				"element": "C" 
			},
			{
				"x": -1.5334351087,
				"y": 2.5219020288,
				"z": -3.7118318942,
				"element": "C" 
			},
			{
				"x": -1.8330927997,
				"y": 3.5965019638,
				"z": -4.4657206843,
				"element": "F" 
			},
			{
				"x": -2.0108197089,
				"y": 1.2727070325,
				"z": -4.098911306,
				"element": "C" 
			},
			{
				"x": -1.6912026166,
				"y": 0.166458672,
				"z": -3.3181522609,
				"element": "C" 
			},
			{
				"x": 0.3515281407,
				"y": 0.4917254535,
				"z": 4.6711627322,
				"element": "H" 
			},
			{
				"x": -1.7050259016,
				"y": 0.9055428886,
				"z": 3.4945525993,
				"element": "H" 
			},
			{
				"x": -1.531293504,
				"y": 2.2917020681,
				"z": 2.4120720132,
				"element": "H" 
			},
			{
				"x": 0.3370825754,
				"y": -0.1667497494,
				"z": 2.4626222814,
				"element": "H" 
			},
			{
				"x": 0.5455148382,
				"y": 1.225185643,
				"z": 1.4170059077,
				"element": "H" 
			},
			{
				"x": -1.6661417429,
				"y": 0.7617943855,
				"z": 0.3371179286,
				"element": "H" 
			},
			{
				"x": -1.9304336988,
				"y": -0.5870079432,
				"z": 1.4304034009,
				"element": "H" 
			},
			{
				"x": -0.1898645727,
				"y": -1.7992253799,
				"z": 0.3350561729,
				"element": "H" 
			},
			{
				"x": 0.1871632816,
				"y": 1.6973038172,
				"z": -0.9261721625,
				"element": "H" 
			},
			{
				"x": -0.3759360271,
				"y": 3.6814437262,
				"z": -2.3267262384,
				"element": "H" 
			},
			{
				"x": -2.6091630647,
				"y": 1.1834796987,
				"z": -4.999026283,
				"element": "H" 
			},
			{
				"x": -2.0209567066,
				"y": -0.8259364236,
				"z": -3.6059737616,
				"element": "H" 
			}
		],
		 "valence_orbital": [ 
			{
				"type": "occ",
				"energy": -0.27842,
				"method": "rhf"
			},
			{
				"type": "occ",
				"energy": -0.27482,
				"method": "rhf"
			},
			{
				"type": "occ",
				"energy": -0.27112,
				"method": "rhf"
			},
			{
				"type": "occ",
				"energy": -0.26049,
				"method": "rhf"
			},
			{
				"type": "occ",
				"energy": -0.24768,
				"method": "rhf"
			},
			{
				"type": "unocc",
				"energy": -0.03853,
				"method": "rhf"
			},
			{
				"type": "unocc",
				"energy": -0.02393,
				"method": "rhf"
			},
			{
				"type": "unocc",
				"energy": 6e-05,
				"method": "rhf"
			},
			{
				"type": "unocc",
				"energy": 0.03249,
				"method": "rhf"
			},
			{
				"type": "unocc",
				"energy": 0.04508,
				"method": "rhf"
			}
		],
		"cosmo_sigma_profile": { 
			"-0.025": 0.0,
			"-0.024": 0.0,
			"-0.023": 0.0,
			"-0.022": 0.0,
			"-0.021": 0.0,
			"-0.02": 0.0,
			"-0.019": 0.342032919003,
			"-0.018": 0.841326099769,
			"-0.017": 0.739312055569,
			"-0.016": 1.55171628769,
			"-0.015": 0.675043624853,
			"-0.014": 0.879507995609,
			"-0.013": 2.09301576439,
			"-0.012": 2.78233708768,
			"-0.011": 1.83565404438,
			"-0.01": 2.14709785718,
			"-0.009": 3.19510265378,
			"-0.008": 4.09766005161,
			"-0.007": 9.66112346087,
			"-0.006": 18.1435981117,
			"-0.005": 22.8455561503,
			"-0.004": 16.784931905,
			"-0.003": 18.2798886777,
			"-0.002": 14.7197183316,
			"-0.001": 11.9367013586,
			"0.0": 15.3747194483,
			"0.001": 15.7424394939,
			"0.002": 16.1577720759,
			"0.003": 16.7169454333,
			"0.004": 13.9552885601,
			"0.005": 5.77118904635,
			"0.006": 3.87153712489,
			"0.007": 3.42812919006,
			"0.008": 3.3104818413,
			"0.009": 5.05208614588,
			"0.01": 6.57930667698,
			"0.011": 6.84808943748,
			"0.012": 7.90133989985,
			"0.013": 7.30265305273,
			"0.014": 4.1240134848,
			"0.015": 0.252242507858,
			"0.016": 0.0,
			"0.017": 0.0,
			"0.018": 0.0,
			"0.019": 0.0,
			"0.02": 0.0,
			"0.021": 0.0,
			"0.022": 0.0,
			"0.023": 0.0,
			"0.024": 0.0,
			"0.025": 0.0
		}
	}
}
