{
	 "smiles": "FC(F)(F)C(F)(F)C(F)(F)C(F)(F)C(F)(F)C(F)(F)C(F)(F)C(F)(F)C(=O)NC1=NC=CC=C1", 
	 "Tm": 339.15, 
	 "num_atms": 39, 
	 "gaussian": { 
		 "optdone": 1, 
		 "sigma_profile": "yes", 
		 "theory": "DFT", 
		 "functional": "B3LYP", 
		 "basiset": "6-31G**", 
		 "properties": { 
			 "R2extent": 15629.8849, 
			 "electric_dipole_moment_norm": 3.36460982731, 
			 "electric_quadrupole_moment_norm": 16.2391694372, 
			 "total_energy": -2418.45694654, 
			 "HOMO_LUMO_gap": 0.19996, 
			 "cosmo_polarized_energy": -8.57, 
			 "cosmo_cavitation_energy": 49.6, 
			 "cosmo_dispersion_energy": -32.26, 
			 "cosmo_repulsion_energy": 2.12, 
			 "cosmo_total_nonelectrostatic_energy": 19.46, 
			 "SMD_solvation_energy": 12.57 
		},
		"coords": [
			{
				"x": 3.4179480023,
				"y": 4.0227253214,
				"z": 3.8548059029,
				"element": "F" 
			},
			{
				"x": 2.5324183622,
				"y": 3.2984276955,
				"z": 3.1610118359,
				"element": "C" 
			},
			{
				"x": 1.4461596445,
				"y": 3.0981818294,
				"z": 3.9195614233,
				"element": "F" 
			},
			{
				"x": 2.1840891369,
				"y": 3.9786295379,
				"z": 2.0644182403,
				"element": "F" 
			},
			{
				"x": 3.1833889021,
				"y": 1.9417354847,
				"z": 2.779261345,
				"element": "C" 
			},
			{
				"x": 4.1432843417,
				"y": 2.1941826299,
				"z": 1.8590661217,
				"element": "F" 
			},
			{
				"x": 3.7519677018,
				"y": 1.4311521636,
				"z": 3.8915603304,
				"element": "F" 
			},
			{
				"x": 2.1798080082,
				"y": 0.8977251969,
				"z": 2.2078368375,
				"element": "C" 
			},
			{
				"x": 1.3503094346,
				"y": 1.5295184586,
				"z": 1.3436522,
				"element": "F" 
			},
			{
				"x": 1.4552525302,
				"y": 0.410593956,
				"z": 3.2382958635,
				"element": "F" 
			},
			{
				"x": 2.8778765783,
				"y": -0.2752927931,
				"z": 1.4571743555,
				"element": "C" 
			},
			{
				"x": 3.2955716157,
				"y": 0.1705906873,
				"z": 0.2510225238,
				"element": "F" 
			},
			{
				"x": 3.9594580528,
				"y": -0.6477163609,
				"z": 2.1854160688,
				"element": "F" 
			},
			{
				"x": 2.0551690689,
				"y": -1.5815015798,
				"z": 1.2360226186,
				"element": "C" 
			},
			{
				"x": 2.8866575539,
				"y": -2.4465773586,
				"z": 0.612292474,
				"element": "F" 
			},
			{
				"x": 1.7436050248,
				"y": -2.0870710094,
				"z": 2.4511154448,
				"element": "F" 
			},
			{
				"x": 0.7197192698,
				"y": -1.5258669871,
				"z": 0.4319962238,
				"element": "C" 
			},
			{
				"x": 0.2473146924,
				"y": -2.7914967113,
				"z": 0.4293560279,
				"element": "F" 
			},
			{
				"x": -0.141769655,
				"y": -0.7311449408,
				"z": 1.1152468589,
				"element": "F" 
			},
			{
				"x": 0.7855008353,
				"y": -1.0206158619,
				"z": -1.0353000769,
				"element": "C" 
			},
			{
				"x": 0.9284784547,
				"y": 0.3299280249,
				"z": -1.0182921993,
				"element": "F" 
			},
			{
				"x": 1.8595550286,
				"y": -1.5681074302,
				"z": -1.6473732668,
				"element": "F" 
			},
			{
				"x": -0.4619466635,
				"y": -1.3309441763,
				"z": -1.9136145328,
				"element": "C" 
			},
			{
				"x": -0.1967695985,
				"y": -0.7405072109,
				"z": -3.1226612267,
				"element": "F" 
			},
			{
				"x": -0.5505412692,
				"y": -2.6601201593,
				"z": -2.102458434,
				"element": "F" 
			},
			{
				"x": -1.8066132585,
				"y": -0.8036979733,
				"z": -1.3434818305,
				"element": "C" 
			},
			{
				"x": -2.4283388205,
				"y": -1.4868288718,
				"z": -0.5492885915,
				"element": "O" 
			},
			{
				"x": -2.136462651,
				"y": 0.4294141701,
				"z": -1.8109247167,
				"element": "N" 
			},
			{
				"x": -3.2642907587,
				"y": 1.2139970781,
				"z": -1.4939372292,
				"element": "C" 
			},
			{
				"x": -3.2861564327,
				"y": 2.3700284903,
				"z": -2.1661473524,
				"element": "N" 
			},
			{
				"x": -4.3109179955,
				"y": 3.1981434791,
				"z": -1.9401946946,
				"element": "C" 
			},
			{
				"x": -5.3444615716,
				"y": 2.9163971135,
				"z": -1.0479021961,
				"element": "C" 
			},
			{
				"x": -5.3010284853,
				"y": 1.703665284,
				"z": -0.3584197466,
				"element": "C" 
			},
			{
				"x": -4.2460243689,
				"y": 0.821060976,
				"z": -0.5740590215,
				"element": "C" 
			},
			{
				"x": -1.5356415838,
				"y": 0.8570636926,
				"z": -2.5052900078,
				"element": "H" 
			},
			{
				"x": -4.2998804229,
				"y": 4.1297649473,
				"z": -2.502130733,
				"element": "H" 
			},
			{
				"x": -6.1537152951,
				"y": 3.6235475507,
				"z": -0.9011199332,
				"element": "H" 
			},
			{
				"x": -6.0845894258,
				"y": 1.4408504853,
				"z": 0.3460893648,
				"element": "H" 
			},
			{
				"x": -4.1704839835,
				"y": -0.1301348287,
				"z": -0.0663062717,
				"element": "H" 
			}
		],
		 "valence_orbital": [ 
			{
				"type": "occ",
				"energy": -0.33398,
				"method": "rhf"
			},
			{
				"type": "occ",
				"energy": -0.29806,
				"method": "rhf"
			},
			{
				"type": "occ",
				"energy": -0.28988,
				"method": "rhf"
			},
			{
				"type": "occ",
				"energy": -0.28228,
				"method": "rhf"
			},
			{
				"type": "occ",
				"energy": -0.25238,
				"method": "rhf"
			},
			{
				"type": "unocc",
				"energy": -0.05242,
				"method": "rhf"
			},
			{
				"type": "unocc",
				"energy": -0.03443,
				"method": "rhf"
			},
			{
				"type": "unocc",
				"energy": 0.00437,
				"method": "rhf"
			},
			{
				"type": "unocc",
				"energy": 0.00958,
				"method": "rhf"
			},
			{
				"type": "unocc",
				"energy": 0.0148,
				"method": "rhf"
			}
		],
		"cosmo_sigma_profile": { 
			"-0.025": 0.0,
			"-0.024": 0.0,
			"-0.023": 0.0,
			"-0.022": 0.0,
			"-0.021": 0.0,
			"-0.02": 0.0,
			"-0.019": 0.0,
			"-0.018": 0.0,
			"-0.017": 0.0,
			"-0.016": 0.0,
			"-0.015": 0.0,
			"-0.014": 0.0349395656196,
			"-0.013": 0.463229876601,
			"-0.012": 0.46589963405,
			"-0.011": 0.792877289192,
			"-0.01": 1.12967063004,
			"-0.009": 1.1146274369,
			"-0.008": 2.5621306831,
			"-0.007": 8.08706461672,
			"-0.006": 9.85299398983,
			"-0.005": 10.9986429401,
			"-0.004": 11.9296416353,
			"-0.003": 15.8818770459,
			"-0.002": 23.4087915868,
			"-0.001": 36.6362055845,
			"0.0": 83.7840208126,
			"0.001": 127.275811926,
			"0.002": 28.8601630032,
			"0.003": 8.08434675918,
			"0.004": 4.73740614249,
			"0.005": 3.87263889693,
			"0.006": 4.10306878797,
			"0.007": 2.74556152426,
			"0.008": 2.67935013373,
			"0.009": 4.12275603418,
			"0.01": 3.33556718081,
			"0.011": 1.21475893099,
			"0.012": 0.842365384673,
			"0.013": 0.618690841415,
			"0.014": 0.0,
			"0.015": 0.0,
			"0.016": 0.0,
			"0.017": 0.0,
			"0.018": 0.0,
			"0.019": 0.0,
			"0.02": 0.0,
			"0.021": 0.0,
			"0.022": 0.0,
			"0.023": 0.0,
			"0.024": 0.0,
			"0.025": 0.0
		}
	}
}
