{
	 "smiles": "CCOC(=O)C(=NO)C1=CSC(N)=N1", 
	 "Tm": 463.15, 
	 "num_atms": 23, 
	 "gaussian": { 
		 "optdone": 1, 
		 "sigma_profile": "yes", 
		 "theory": "DFT", 
		 "functional": "B3LYP", 
		 "basiset": "6-31G**", 
		 "properties": { 
			 "R2extent": 4431.5591, 
			 "electric_dipole_moment_norm": 3.37369097577, 
			 "electric_quadrupole_moment_norm": 18.6195805063, 
			 "total_energy": -1060.21757538, 
			 "HOMO_LUMO_gap": 0.16549, 
			 "cosmo_polarized_energy": -19.02, 
			 "cosmo_cavitation_energy": 30.67, 
			 "cosmo_dispersion_energy": -21.8, 
			 "cosmo_repulsion_energy": 1.74, 
			 "cosmo_total_nonelectrostatic_energy": 10.61, 
			 "SMD_solvation_energy": 5.12 
		},
		"coords": [
			{
				"x": -2.0449773483,
				"y": -0.8811810913,
				"z": -1.0929324657,
				"element": "C" 
			},
			{
				"x": -0.8089199376,
				"y": -1.7348967066,
				"z": -0.8543690116,
				"element": "C" 
			},
			{
				"x": 0.3822191127,
				"y": -0.9116586183,
				"z": -0.7658992192,
				"element": "O" 
			},
			{
				"x": 0.6571991568,
				"y": -0.3940024837,
				"z": 0.4414790773,
				"element": "C" 
			},
			{
				"x": 0.0141573775,
				"y": -0.5685375954,
				"z": 1.450026407,
				"element": "O" 
			},
			{
				"x": 1.9125826314,
				"y": 0.4566610415,
				"z": 0.3882029191,
				"element": "C" 
			},
			{
				"x": 3.0875433178,
				"y": -0.017930019,
				"z": 0.5967018563,
				"element": "N" 
			},
			{
				"x": 3.0536000164,
				"y": -1.3988760137,
				"z": 0.809933395,
				"element": "O" 
			},
			{
				"x": 1.7464288013,
				"y": 1.8938325256,
				"z": 0.1389588243,
				"element": "C" 
			},
			{
				"x": 2.7417243842,
				"y": 2.8312337124,
				"z": 0.14821727,
				"element": "C" 
			},
			{
				"x": 2.0784891691,
				"y": 4.4018950724,
				"z": -0.2005611261,
				"element": "S" 
			},
			{
				"x": 0.4845425589,
				"y": 3.6424910044,
				"z": -0.3522657476,
				"element": "C" 
			},
			{
				"x": -0.6412624206,
				"y": 4.3968716542,
				"z": -0.5868406572,
				"element": "N" 
			},
			{
				"x": 0.4735797857,
				"y": 2.3580693138,
				"z": -0.1512397372,
				"element": "N" 
			},
			{
				"x": -2.9222142394,
				"y": -1.5247534385,
				"z": -1.2189291215,
				"element": "H" 
			},
			{
				"x": -2.2209498739,
				"y": -0.217922164,
				"z": -0.242851584,
				"element": "H" 
			},
			{
				"x": -1.9284437467,
				"y": -0.274009382,
				"z": -1.9952519846,
				"element": "H" 
			},
			{
				"x": -0.6118875383,
				"y": -2.4049575656,
				"z": -1.6942594068,
				"element": "H" 
			},
			{
				"x": -0.900431832,
				"y": -2.3194846035,
				"z": 0.0638948335,
				"element": "H" 
			},
			{
				"x": 3.9835002147,
				"y": -1.60975806,
				"z": 0.9668545208,
				"element": "H" 
			},
			{
				"x": 3.7948959651,
				"y": 2.6863607246,
				"z": 0.3326799685,
				"element": "H" 
			},
			{
				"x": -0.531930391,
				"y": 5.2201160624,
				"z": -1.161375372,
				"element": "H" 
			},
			{
				"x": -1.4509451636,
				"y": 3.8365366305,
				"z": -0.8189736382,
				"element": "H" 
			}
		],
		 "valence_orbital": [ 
			{
				"type": "occ",
				"energy": -0.28991,
				"method": "rhf"
			},
			{
				"type": "occ",
				"energy": -0.28246,
				"method": "rhf"
			},
			{
				"type": "occ",
				"energy": -0.2646,
				"method": "rhf"
			},
			{
				"type": "occ",
				"energy": -0.25504,
				"method": "rhf"
			},
			{
				"type": "occ",
				"energy": -0.20819,
				"method": "rhf"
			},
			{
				"type": "unocc",
				"energy": -0.0427,
				"method": "rhf"
			},
			{
				"type": "unocc",
				"energy": 0.00355,
				"method": "rhf"
			},
			{
				"type": "unocc",
				"energy": 0.01234,
				"method": "rhf"
			},
			{
				"type": "unocc",
				"energy": 0.01718,
				"method": "rhf"
			},
			{
				"type": "unocc",
				"energy": 0.06507,
				"method": "rhf"
			}
		],
		"cosmo_sigma_profile": { 
			"-0.025": 0.0,
			"-0.024": 0.0,
			"-0.023": 0.0,
			"-0.022": 0.0,
			"-0.021": 0.0,
			"-0.02": 0.0,
			"-0.019": 0.0197458412781,
			"-0.018": 0.943468217108,
			"-0.017": 1.08955032646,
			"-0.016": 0.634068896314,
			"-0.015": 1.82473537764,
			"-0.014": 3.79401030166,
			"-0.013": 3.17639516552,
			"-0.012": 2.7130450863,
			"-0.011": 3.15059089279,
			"-0.01": 3.30466473608,
			"-0.009": 4.36572110787,
			"-0.008": 3.94113022353,
			"-0.007": 3.74918831051,
			"-0.006": 5.8912219887,
			"-0.005": 10.1636313326,
			"-0.004": 15.4020402941,
			"-0.003": 15.4393844121,
			"-0.002": 12.6920388433,
			"-0.001": 13.2567499934,
			"0.0": 15.5826109048,
			"0.001": 17.4381381007,
			"0.002": 18.6874539772,
			"0.003": 18.5690717735,
			"0.004": 11.9375951429,
			"0.005": 9.87849467926,
			"0.006": 9.29918270517,
			"0.007": 10.6990429748,
			"0.008": 10.2986311751,
			"0.009": 6.79632077483,
			"0.01": 4.7344883201,
			"0.011": 5.15427376136,
			"0.012": 0.941755283151,
			"0.013": 0.0,
			"0.014": 0.0,
			"0.015": 0.0,
			"0.016": 0.0,
			"0.017": 0.0,
			"0.018": 0.0,
			"0.019": 0.0,
			"0.02": 0.0,
			"0.021": 0.0,
			"0.022": 0.0,
			"0.023": 0.0,
			"0.024": 0.0,
			"0.025": 0.0
		}
	}
}
