{
	 "smiles": "ClC1=NC=C(CN2C=NC=N2)C=C1", 
	 "Tm": 335.15, 
	 "num_atms": 20, 
	 "gaussian": { 
		 "optdone": 1, 
		 "sigma_profile": "yes", 
		 "theory": "DFT", 
		 "functional": "B3LYP", 
		 "basiset": "6-31G**", 
		 "properties": { 
			 "R2extent": 4159.3734, 
			 "electric_dipole_moment_norm": 4.57456416831, 
			 "electric_quadrupole_moment_norm": 12.4773388212, 
			 "total_energy": -988.243251265, 
			 "HOMO_LUMO_gap": 0.21842, 
			 "cosmo_polarized_energy": -15.94, 
			 "cosmo_cavitation_energy": 27.02, 
			 "cosmo_dispersion_energy": -19.69, 
			 "cosmo_repulsion_energy": 1.55, 
			 "cosmo_total_nonelectrostatic_energy": 8.87, 
			 "SMD_solvation_energy": 1.0 
		},
		"coords": [
			{
				"x": 0.9167387896,
				"y": -3.8383528381,
				"z": -2.8494694271,
				"element": "Cl" 
			},
			{
				"x": 0.6874163387,
				"y": -2.4829802828,
				"z": -1.7493358445,
				"element": "C" 
			},
			{
				"x": 1.7503642467,
				"y": -2.0744818986,
				"z": -1.0789727298,
				"element": "N" 
			},
			{
				"x": 1.5943401449,
				"y": -1.0417880751,
				"z": -0.2413771824,
				"element": "C" 
			},
			{
				"x": 0.3742695664,
				"y": -0.3845886404,
				"z": -0.0418581542,
				"element": "C" 
			},
			{
				"x": 0.2640733919,
				"y": 0.7924417965,
				"z": 0.9079011707,
				"element": "C" 
			},
			{
				"x": 0.6352633868,
				"y": 0.4741237659,
				"z": 2.28269603,
				"element": "N" 
			},
			{
				"x": -0.1405014825,
				"y": 0.0985784585,
				"z": 3.3262667131,
				"element": "C" 
			},
			{
				"x": 0.6040636083,
				"y": -0.1592952427,
				"z": 4.3876619696,
				"element": "N" 
			},
			{
				"x": 1.8644217512,
				"y": 0.0706125048,
				"z": 3.924932422,
				"element": "C" 
			},
			{
				"x": 1.9415134835,
				"y": 0.4558771197,
				"z": 2.6581943956,
				"element": "N" 
			},
			{
				"x": -0.729669751,
				"y": -0.8453355095,
				"z": -0.7659266847,
				"element": "C" 
			},
			{
				"x": -0.5843843993,
				"y": -1.9159954419,
				"z": -1.6433488111,
				"element": "C" 
			},
			{
				"x": 2.479343247,
				"y": -0.7278238906,
				"z": 0.3069523076,
				"element": "H" 
			},
			{
				"x": 0.9176896929,
				"y": 1.6103364167,
				"z": 0.5921848873,
				"element": "H" 
			},
			{
				"x": -0.76133005,
				"y": 1.1718735874,
				"z": 0.9212773144,
				"element": "H" 
			},
			{
				"x": -1.2188089374,
				"y": 0.0380735922,
				"z": 3.2677798013,
				"element": "H" 
			},
			{
				"x": 2.7488912055,
				"y": -0.0404994438,
				"z": 4.5369030984,
				"element": "H" 
			},
			{
				"x": -1.7011721873,
				"y": -0.3711787741,
				"z": -0.6491465934,
				"element": "H" 
			},
			{
				"x": -1.4161220459,
				"y": -2.300697204,
				"z": -2.2210146827,
				"element": "H" 
			}
		],
		 "valence_orbital": [ 
			{
				"type": "occ",
				"energy": -0.29853,
				"method": "rhf"
			},
			{
				"type": "occ",
				"energy": -0.28372,
				"method": "rhf"
			},
			{
				"type": "occ",
				"energy": -0.27975,
				"method": "rhf"
			},
			{
				"type": "occ",
				"energy": -0.2736,
				"method": "rhf"
			},
			{
				"type": "occ",
				"energy": -0.26454,
				"method": "rhf"
			},
			{
				"type": "unocc",
				"energy": -0.04612,
				"method": "rhf"
			},
			{
				"type": "unocc",
				"energy": -0.03963,
				"method": "rhf"
			},
			{
				"type": "unocc",
				"energy": -0.00218,
				"method": "rhf"
			},
			{
				"type": "unocc",
				"energy": 0.02737,
				"method": "rhf"
			},
			{
				"type": "unocc",
				"energy": 0.04628,
				"method": "rhf"
			}
		],
		"cosmo_sigma_profile": { 
			"-0.025": 0.0,
			"-0.024": 0.0,
			"-0.023": 0.0,
			"-0.022": 0.0,
			"-0.021": 0.0,
			"-0.02": 0.0,
			"-0.019": 0.0,
			"-0.018": 0.0,
			"-0.017": 0.0,
			"-0.016": 0.0,
			"-0.015": 0.0,
			"-0.014": 0.0,
			"-0.013": 0.0,
			"-0.012": 0.0,
			"-0.011": 1.61507508743,
			"-0.01": 4.23135845717,
			"-0.009": 5.7862919561,
			"-0.008": 12.2797719601,
			"-0.007": 10.5127014193,
			"-0.006": 10.1195296178,
			"-0.005": 11.2781694049,
			"-0.004": 9.22428689029,
			"-0.003": 8.40109337785,
			"-0.002": 11.7838142517,
			"-0.001": 15.290198039,
			"0.0": 23.0615413952,
			"0.001": 17.1505466221,
			"0.002": 12.1694545364,
			"0.003": 11.6002641642,
			"0.004": 13.8607705473,
			"0.005": 8.7903981046,
			"0.006": 4.61814080049,
			"0.007": 5.55411421536,
			"0.008": 3.58130431021,
			"0.009": 2.94692304418,
			"0.01": 3.29285107379,
			"0.011": 2.68938484017,
			"0.012": 2.75780507045,
			"0.013": 3.08519854031,
			"0.014": 2.00819832777,
			"0.015": 1.12375640908,
			"0.016": 1.11096917161,
			"0.017": 0.259732540127,
			"0.018": 0.0,
			"0.019": 0.0,
			"0.02": 0.0,
			"0.021": 0.0,
			"0.022": 0.0,
			"0.023": 0.0,
			"0.024": 0.0,
			"0.025": 0.0
		}
	}
}
