{
	 "smiles": "CCOC1=C(OCC(F)(F)F)C=CC(CC#N)=C1", 
	 "Tm": 314.15, 
	 "num_atms": 30, 
	 "gaussian": { 
		 "optdone": 1, 
		 "sigma_profile": "yes", 
		 "theory": "DFT", 
		 "functional": "B3LYP", 
		 "basiset": "6-31G**", 
		 "properties": { 
			 "R2extent": 5889.7297, 
			 "electric_dipole_moment_norm": 3.34902924144, 
			 "electric_quadrupole_moment_norm": 27.5227656419, 
			 "total_energy": -969.195969604, 
			 "HOMO_LUMO_gap": 0.22408, 
			 "cosmo_polarized_energy": -13.5, 
			 "cosmo_cavitation_energy": 36.3, 
			 "cosmo_dispersion_energy": -24.17, 
			 "cosmo_repulsion_energy": 1.85, 
			 "cosmo_total_nonelectrostatic_energy": 13.98, 
			 "SMD_solvation_energy": 9.09 
		},
		"coords": [
			{
				"x": 3.0055711062,
				"y": 2.1924452284,
				"z": 0.2334064524,
				"element": "C" 
			},
			{
				"x": 1.5898521203,
				"y": 1.856116357,
				"z": 0.6602489499,
				"element": "C" 
			},
			{
				"x": 0.9866880419,
				"y": 1.0685310888,
				"z": -0.3945919381,
				"element": "O" 
			},
			{
				"x": -0.2908121951,
				"y": 0.632182781,
				"z": -0.1414789854,
				"element": "C" 
			},
			{
				"x": -0.5349200942,
				"y": -0.4228571833,
				"z": 0.7581650583,
				"element": "C" 
			},
			{
				"x": 0.4927751971,
				"y": -1.0065329681,
				"z": 1.4714988563,
				"element": "O" 
			},
			{
				"x": 1.4304222009,
				"y": -1.7410148142,
				"z": 0.6940810842,
				"element": "C" 
			},
			{
				"x": 2.6704084976,
				"y": -1.9480043866,
				"z": 1.5413460445,
				"element": "C" 
			},
			{
				"x": 3.5641752889,
				"y": -2.684648657,
				"z": 0.8478476031,
				"element": "F" 
			},
			{
				"x": 2.4001613776,
				"y": -2.5906161038,
				"z": 2.6897202766,
				"element": "F" 
			},
			{
				"x": 3.2609294417,
				"y": -0.7747829142,
				"z": 1.857775814,
				"element": "F" 
			},
			{
				"x": -1.8406472454,
				"y": -0.8540174944,
				"z": 0.9830540723,
				"element": "C" 
			},
			{
				"x": -2.9053604511,
				"y": -0.2568803724,
				"z": 0.3079424882,
				"element": "C" 
			},
			{
				"x": -2.6719632523,
				"y": 0.772159935,
				"z": -0.6088833382,
				"element": "C" 
			},
			{
				"x": -3.8273751279,
				"y": 1.4077019152,
				"z": -1.3707658683,
				"element": "C" 
			},
			{
				"x": -4.0877803089,
				"y": 0.7521804918,
				"z": -2.6603167611,
				"element": "C" 
			},
			{
				"x": -4.2875329747,
				"y": 0.2289421765,
				"z": -3.6768684758,
				"element": "N" 
			},
			{
				"x": -1.3612341103,
				"y": 1.211109668,
				"z": -0.8230793623,
				"element": "C" 
			},
			{
				"x": 3.0083063291,
				"y": 2.7140547252,
				"z": -0.7278796979,
				"element": "H" 
			},
			{
				"x": 3.4750835781,
				"y": 2.83907176,
				"z": 0.9812915257,
				"element": "H" 
			},
			{
				"x": 3.6058630856,
				"y": 1.2836194066,
				"z": 0.1432572184,
				"element": "H" 
			},
			{
				"x": 0.990079827,
				"y": 2.7648376228,
				"z": 0.8044657696,
				"element": "H" 
			},
			{
				"x": 1.5856208264,
				"y": 1.2835110257,
				"z": 1.5930776482,
				"element": "H" 
			},
			{
				"x": 1.7218197279,
				"y": -1.1989791428,
				"z": -0.2094432784,
				"element": "H" 
			},
			{
				"x": 1.0303219585,
				"y": -2.7254801175,
				"z": 0.4215816059,
				"element": "H" 
			},
			{
				"x": -2.0045404795,
				"y": -1.658377608,
				"z": 1.6927465684,
				"element": "H" 
			},
			{
				"x": -3.9184097385,
				"y": -0.6046010754,
				"z": 0.489071806,
				"element": "H" 
			},
			{
				"x": -4.7471047784,
				"y": 1.364901756,
				"z": -0.7766687772,
				"element": "H" 
			},
			{
				"x": -3.625131906,
				"y": 2.4673470887,
				"z": -1.5636968754,
				"element": "H" 
			},
			{
				"x": -1.1442659426,
				"y": 2.012279811,
				"z": -1.523605484,
				"element": "H" 
			}
		],
		 "valence_orbital": [ 
			{
				"type": "occ",
				"energy": -0.32521,
				"method": "rhf"
			},
			{
				"type": "occ",
				"energy": -0.31603,
				"method": "rhf"
			},
			{
				"type": "occ",
				"energy": -0.28157,
				"method": "rhf"
			},
			{
				"type": "occ",
				"energy": -0.26338,
				"method": "rhf"
			},
			{
				"type": "occ",
				"energy": -0.24775,
				"method": "rhf"
			},
			{
				"type": "unocc",
				"energy": -0.02367,
				"method": "rhf"
			},
			{
				"type": "unocc",
				"energy": -0.02066,
				"method": "rhf"
			},
			{
				"type": "unocc",
				"energy": 0.03628,
				"method": "rhf"
			},
			{
				"type": "unocc",
				"energy": 0.03974,
				"method": "rhf"
			},
			{
				"type": "unocc",
				"energy": 0.06524,
				"method": "rhf"
			}
		],
		"cosmo_sigma_profile": { 
			"-0.025": 0.0,
			"-0.024": 0.0,
			"-0.023": 0.0,
			"-0.022": 0.0,
			"-0.021": 0.0,
			"-0.02": 0.0,
			"-0.019": 0.0,
			"-0.018": 0.0,
			"-0.017": 0.0,
			"-0.016": 0.0,
			"-0.015": 0.0,
			"-0.014": 0.0,
			"-0.013": 0.0,
			"-0.012": 0.0,
			"-0.011": 0.0,
			"-0.01": 0.0,
			"-0.009": 4.05160715734,
			"-0.008": 10.2841113324,
			"-0.007": 13.5052008711,
			"-0.006": 13.2724571089,
			"-0.005": 14.4609247624,
			"-0.004": 16.9032623764,
			"-0.003": 20.3921597909,
			"-0.002": 20.1721779795,
			"-0.001": 20.2270403652,
			"0.0": 20.1916244513,
			"0.001": 20.8151749663,
			"0.002": 31.6147917671,
			"0.003": 34.6134270346,
			"0.004": 10.8232975756,
			"0.005": 4.89870927024,
			"0.006": 5.24464063927,
			"0.007": 4.88229143669,
			"0.008": 5.6191323679,
			"0.009": 4.72354503868,
			"0.01": 4.44616665768,
			"0.011": 3.54236942847,
			"0.012": 2.45219052185,
			"0.013": 2.02736809641,
			"0.014": 0.267269159822,
			"0.015": 0.0,
			"0.016": 0.0,
			"0.017": 0.0,
			"0.018": 0.0,
			"0.019": 0.0,
			"0.02": 0.0,
			"0.021": 0.0,
			"0.022": 0.0,
			"0.023": 0.0,
			"0.024": 0.0,
			"0.025": 0.0
		}
	}
}
