{
	 "smiles": "CC(C)S(=O)(=O)C1=CN=C(N)N=C1N", 
	 "Tm": 573.15, 
	 "num_atms": 26, 
	 "gaussian": { 
		 "optdone": 1, 
		 "sigma_profile": "yes", 
		 "theory": "DFT", 
		 "functional": "B3LYP", 
		 "basiset": "6-31G**", 
		 "properties": { 
			 "R2extent": 3787.3589, 
			 "electric_dipole_moment_norm": 4.57738147307, 
			 "electric_quadrupole_moment_norm": 18.6103673341, 
			 "total_energy": -1041.59793909, 
			 "HOMO_LUMO_gap": 0.20618, 
			 "cosmo_polarized_energy": -18.16, 
			 "cosmo_cavitation_energy": 29.79, 
			 "cosmo_dispersion_energy": -22.2, 
			 "cosmo_repulsion_energy": 1.71, 
			 "cosmo_total_nonelectrostatic_energy": 9.3, 
			 "SMD_solvation_energy": 1.41 
		},
		"coords": [
			{
				"x": 1.2939804232,
				"y": -0.5388504377,
				"z": 1.1419471657,
				"element": "C" 
			},
			{
				"x": 0.7022681124,
				"y": -1.6053156043,
				"z": 0.221034157,
				"element": "C" 
			},
			{
				"x": 1.163870117,
				"y": -1.4912716625,
				"z": -1.2313095349,
				"element": "C" 
			},
			{
				"x": -1.1365774665,
				"y": -1.6374253654,
				"z": 0.3446512912,
				"element": "S" 
			},
			{
				"x": -1.6003261201,
				"y": -2.7121287431,
				"z": -0.5684423627,
				"element": "O" 
			},
			{
				"x": -1.4630405026,
				"y": -1.7005294894,
				"z": 1.7798169893,
				"element": "O" 
			},
			{
				"x": -1.7377072399,
				"y": -0.0905872231,
				"z": -0.2880966503,
				"element": "C" 
			},
			{
				"x": -1.916196628,
				"y": 0.9788897945,
				"z": 0.5933212087,
				"element": "C" 
			},
			{
				"x": -2.3564335046,
				"y": 2.1772856348,
				"z": 0.2266895342,
				"element": "N" 
			},
			{
				"x": -2.6425213853,
				"y": 2.2949428353,
				"z": -1.0932870804,
				"element": "C" 
			},
			{
				"x": -3.0375669402,
				"y": 3.5247916093,
				"z": -1.5073480552,
				"element": "N" 
			},
			{
				"x": -2.5768769523,
				"y": 1.3352767156,
				"z": -2.027581534,
				"element": "N" 
			},
			{
				"x": -2.1325659139,
				"y": 0.1293736272,
				"z": -1.6431847502,
				"element": "C" 
			},
			{
				"x": -2.0741284173,
				"y": -0.8325412996,
				"z": -2.5931653558,
				"element": "N" 
			},
			{
				"x": 2.3847430405,
				"y": -0.6315886901,
				"z": 1.1453318252,
				"element": "H" 
			},
			{
				"x": 1.0468851807,
				"y": 0.4686866618,
				"z": 0.7923973389,
				"element": "H" 
			},
			{
				"x": 0.9341629102,
				"y": -0.6562033557,
				"z": 2.1661155998,
				"element": "H" 
			},
			{
				"x": 0.9373443016,
				"y": -2.6041283321,
				"z": 0.6097726462,
				"element": "H" 
			},
			{
				"x": 2.2540460394,
				"y": -1.5836718377,
				"z": -1.2689689513,
				"element": "H" 
			},
			{
				"x": 0.8959966474,
				"y": -0.5206418709,
				"z": -1.6598295236,
				"element": "H" 
			},
			{
				"x": 0.7310482977,
				"y": -2.2788564425,
				"z": -1.8510343782,
				"element": "H" 
			},
			{
				"x": -1.7004390728,
				"y": 0.8357361281,
				"z": 1.6497853731,
				"element": "H" 
			},
			{
				"x": -3.244690094,
				"y": 4.2157343011,
				"z": -0.8050996428,
				"element": "H" 
			},
			{
				"x": -3.4037990704,
				"y": 3.6262147177,
				"z": -2.4392971766,
				"element": "H" 
			},
			{
				"x": -2.0049175721,
				"y": -1.796674722,
				"z": -2.2876313952,
				"element": "H" 
			},
			{
				"x": -2.51485819,
				"y": -0.6106169493,
				"z": -3.4728867381,
				"element": "H" 
			}
		],
		 "valence_orbital": [ 
			{
				"type": "occ",
				"energy": -0.29513,
				"method": "rhf"
			},
			{
				"type": "occ",
				"energy": -0.2765,
				"method": "rhf"
			},
			{
				"type": "occ",
				"energy": -0.25885,
				"method": "rhf"
			},
			{
				"type": "occ",
				"energy": -0.25649,
				"method": "rhf"
			},
			{
				"type": "occ",
				"energy": -0.23453,
				"method": "rhf"
			},
			{
				"type": "unocc",
				"energy": -0.02835,
				"method": "rhf"
			},
			{
				"type": "unocc",
				"energy": -0.01091,
				"method": "rhf"
			},
			{
				"type": "unocc",
				"energy": 0.07095,
				"method": "rhf"
			},
			{
				"type": "unocc",
				"energy": 0.07714,
				"method": "rhf"
			},
			{
				"type": "unocc",
				"energy": 0.08297,
				"method": "rhf"
			}
		],
		"cosmo_sigma_profile": { 
			"-0.025": 0.0,
			"-0.024": 0.0,
			"-0.023": 0.0,
			"-0.022": 0.0,
			"-0.021": 0.0,
			"-0.02": 0.0,
			"-0.019": 0.0,
			"-0.018": 0.0,
			"-0.017": 0.0,
			"-0.016": 0.0,
			"-0.015": 0.0936872364049,
			"-0.014": 2.85613072239,
			"-0.013": 2.82784285868,
			"-0.012": 2.92744554775,
			"-0.011": 2.67185451007,
			"-0.01": 4.31160238453,
			"-0.009": 3.54990682476,
			"-0.008": 3.63785120054,
			"-0.007": 5.77134441547,
			"-0.006": 5.87652281974,
			"-0.005": 12.6214683574,
			"-0.004": 17.825001306,
			"-0.003": 17.857158151,
			"-0.002": 20.362614216,
			"-0.001": 23.1626389067,
			"0.0": 18.2572386135,
			"0.001": 12.1306089165,
			"0.002": 7.58931042779,
			"0.003": 8.46535812792,
			"0.004": 7.74701384125,
			"0.005": 7.25775563896,
			"0.006": 5.94513307587,
			"0.007": 5.31489358662,
			"0.008": 4.43274699353,
			"0.009": 4.515193775,
			"0.01": 6.91613062749,
			"0.011": 7.90706992991,
			"0.012": 8.71121406479,
			"0.013": 2.00989481858,
			"0.014": 0.583954979108,
			"0.015": 0.642697857652,
			"0.016": 0.0305074041038,
			"0.017": 0.0,
			"0.018": 0.0,
			"0.019": 0.0,
			"0.02": 0.0,
			"0.021": 0.0,
			"0.022": 0.0,
			"0.023": 0.0,
			"0.024": 0.0,
			"0.025": 0.0
		}
	}
}
