{
	 "smiles": "CN(C1CCCC1)C1=NC=CC(=C1)C(O)=O", 
	 "Tm": 453.15, 
	 "num_atms": 32, 
	 "gaussian": { 
		 "optdone": 1, 
		 "sigma_profile": "yes", 
		 "theory": "DFT", 
		 "functional": "B3LYP", 
		 "basiset": "6-31G**", 
		 "properties": { 
			 "R2extent": 5139.2056, 
			 "electric_dipole_moment_norm": 5.13136334515, 
			 "electric_quadrupole_moment_norm": 31.3643616844, 
			 "total_energy": -726.877864121, 
			 "HOMO_LUMO_gap": 0.15393, 
			 "cosmo_polarized_energy": -14.66, 
			 "cosmo_cavitation_energy": 33.45, 
			 "cosmo_dispersion_energy": -24.08, 
			 "cosmo_repulsion_energy": 1.88, 
			 "cosmo_total_nonelectrostatic_energy": 11.25, 
			 "SMD_solvation_energy": 6.15 
		},
		"coords": [
			{
				"x": 2.9380660937,
				"y": 0.5203951811,
				"z": 0.4138846379,
				"element": "C" 
			},
			{
				"x": 1.5795479279,
				"y": 0.2164187907,
				"z": -0.0087889599,
				"element": "N" 
			},
			{
				"x": 1.2747822483,
				"y": -1.1346889988,
				"z": -0.5182264211,
				"element": "C" 
			},
			{
				"x": 0.92904372,
				"y": -1.2168707487,
				"z": -2.0285297238,
				"element": "C" 
			},
			{
				"x": 0.1003028859,
				"y": -2.5052022615,
				"z": -2.1414439132,
				"element": "C" 
			},
			{
				"x": -0.7848179535,
				"y": -2.4660676814,
				"z": -0.8808864365,
				"element": "C" 
			},
			{
				"x": 0.1385622096,
				"y": -1.9135433413,
				"z": 0.2261959873,
				"element": "C" 
			},
			{
				"x": 0.6338597406,
				"y": 1.2127376264,
				"z": 0.0399110638,
				"element": "C" 
			},
			{
				"x": -0.6115466307,
				"y": 0.912845765,
				"z": -0.3853547411,
				"element": "N" 
			},
			{
				"x": -1.5570092051,
				"y": 1.8541279314,
				"z": -0.3234616219,
				"element": "C" 
			},
			{
				"x": -1.352765854,
				"y": 3.1467153167,
				"z": 0.1469234366,
				"element": "C" 
			},
			{
				"x": -0.0589694224,
				"y": 3.4762960413,
				"z": 0.5656482843,
				"element": "C" 
			},
			{
				"x": 0.9459043851,
				"y": 2.5122110715,
				"z": 0.5237392649,
				"element": "C" 
			},
			{
				"x": 0.1931365479,
				"y": 4.8676230287,
				"z": 1.0777057869,
				"element": "C" 
			},
			{
				"x": 1.4705090517,
				"y": 5.3234870381,
				"z": 0.9798734896,
				"element": "O" 
			},
			{
				"x": -0.669461313,
				"y": 5.5657454453,
				"z": 1.5524281581,
				"element": "O" 
			},
			{
				"x": 2.9844218468,
				"y": 0.8175690609,
				"z": 1.4707030075,
				"element": "H" 
			},
			{
				"x": 3.5585080852,
				"y": -0.3670865592,
				"z": 0.2919807714,
				"element": "H" 
			},
			{
				"x": 3.3867715238,
				"y": 1.3256105179,
				"z": -0.184801333,
				"element": "H" 
			},
			{
				"x": 2.2027178364,
				"y": -1.6916797453,
				"z": -0.3660906033,
				"element": "H" 
			},
			{
				"x": 0.3167059163,
				"y": -0.3575203044,
				"z": -2.3098753521,
				"element": "H" 
			},
			{
				"x": 1.828425647,
				"y": -1.2171148555,
				"z": -2.6535724272,
				"element": "H" 
			},
			{
				"x": -0.4764297947,
				"y": -2.5598590605,
				"z": -3.0702567006,
				"element": "H" 
			},
			{
				"x": 0.7579502154,
				"y": -3.3848455147,
				"z": -2.1159088655,
				"element": "H" 
			},
			{
				"x": -1.2134560226,
				"y": -3.4411756988,
				"z": -0.6287878332,
				"element": "H" 
			},
			{
				"x": -1.612207972,
				"y": -1.7680574508,
				"z": -1.0429135583,
				"element": "H" 
			},
			{
				"x": -0.3986051846,
				"y": -1.2696917812,
				"z": 0.9230085706,
				"element": "H" 
			},
			{
				"x": 0.5826042173,
				"y": -2.7291877583,
				"z": 0.8081121776,
				"element": "H" 
			},
			{
				"x": -2.5421175213,
				"y": 1.5510223031,
				"z": -0.6747223828,
				"element": "H" 
			},
			{
				"x": -2.1485016624,
				"y": 3.8797509888,
				"z": 0.1901382249,
				"element": "H" 
			},
			{
				"x": 1.9342150033,
				"y": 2.7336222286,
				"z": 0.9073986853,
				"element": "H" 
			},
			{
				"x": 1.9922534342,
				"y": 4.714813425,
				"z": 0.4375693268,
				"element": "H" 
			}
		],
		 "valence_orbital": [ 
			{
				"type": "occ",
				"energy": -0.29816,
				"method": "rhf"
			},
			{
				"type": "occ",
				"energy": -0.28984,
				"method": "rhf"
			},
			{
				"type": "occ",
				"energy": -0.27562,
				"method": "rhf"
			},
			{
				"type": "occ",
				"energy": -0.26128,
				"method": "rhf"
			},
			{
				"type": "occ",
				"energy": -0.2107,
				"method": "rhf"
			},
			{
				"type": "unocc",
				"energy": -0.05677,
				"method": "rhf"
			},
			{
				"type": "unocc",
				"energy": -0.00613,
				"method": "rhf"
			},
			{
				"type": "unocc",
				"energy": 0.04477,
				"method": "rhf"
			},
			{
				"type": "unocc",
				"energy": 0.06014,
				"method": "rhf"
			},
			{
				"type": "unocc",
				"energy": 0.06851,
				"method": "rhf"
			}
		],
		"cosmo_sigma_profile": { 
			"-0.025": 0.0,
			"-0.024": 0.0,
			"-0.023": 0.0,
			"-0.022": 0.0,
			"-0.021": 0.0,
			"-0.02": 0.0,
			"-0.019": 0.012240824625,
			"-0.018": 0.738608020692,
			"-0.017": 0.622351743759,
			"-0.016": 1.31629398819,
			"-0.015": 0.567956028688,
			"-0.014": 0.63337071558,
			"-0.013": 1.42506180056,
			"-0.012": 1.75233331256,
			"-0.011": 0.591992806565,
			"-0.01": 1.16795667173,
			"-0.009": 1.09100212744,
			"-0.008": 1.83899653177,
			"-0.007": 3.40695662202,
			"-0.006": 8.60892685386,
			"-0.005": 12.0219098097,
			"-0.004": 14.6636307815,
			"-0.003": 17.3955060926,
			"-0.002": 29.5347449019,
			"-0.001": 23.9092845314,
			"0.0": 25.677368347,
			"0.001": 30.1635159987,
			"0.002": 29.0155678412,
			"0.003": 13.6357580615,
			"0.004": 6.13381912154,
			"0.005": 4.07534127951,
			"0.006": 5.08764554185,
			"0.007": 4.41329449978,
			"0.008": 4.30888472116,
			"0.009": 3.70221971484,
			"0.01": 5.41054217237,
			"0.011": 5.42398933795,
			"0.012": 3.94849926181,
			"0.013": 0.800223200591,
			"0.014": 0.0,
			"0.015": 0.0,
			"0.016": 0.0,
			"0.017": 0.0,
			"0.018": 0.0,
			"0.019": 0.0,
			"0.02": 0.0,
			"0.021": 0.0,
			"0.022": 0.0,
			"0.023": 0.0,
			"0.024": 0.0,
			"0.025": 0.0
		}
	}
}
