{
	 "smiles": "CC1=C(F)C=CC(C#N)=C1F", 
	 "Tm": 317.15, 
	 "num_atms": 16, 
	 "gaussian": { 
		 "optdone": 1, 
		 "sigma_profile": "yes", 
		 "theory": "DFT", 
		 "functional": "B3LYP", 
		 "basiset": "6-31G**", 
		 "properties": { 
			 "R2extent": 2220.7445, 
			 "electric_dipole_moment_norm": 4.2002103864, 
			 "electric_quadrupole_moment_norm": 20.8686644877, 
			 "total_energy": -562.272961853, 
			 "HOMO_LUMO_gap": 0.20968, 
			 "cosmo_polarized_energy": -8.06, 
			 "cosmo_cavitation_energy": 22.34, 
			 "cosmo_dispersion_energy": -15.61, 
			 "cosmo_repulsion_energy": 1.22, 
			 "cosmo_total_nonelectrostatic_energy": 7.94, 
			 "SMD_solvation_energy": 6.25 
		},
		"coords": [
			{
				"x": -1.5875808557,
				"y": 0.9759391569,
				"z": 0.8252004711,
				"element": "C" 
			},
			{
				"x": -0.8134427125,
				"y": -0.3141790377,
				"z": 0.8790911883,
				"element": "C" 
			},
			{
				"x": -1.4403757013,
				"y": -1.5613437384,
				"z": 0.9451137334,
				"element": "C" 
			},
			{
				"x": -2.7858880737,
				"y": -1.5884727933,
				"z": 0.9701987872,
				"element": "F" 
			},
			{
				"x": -0.7526351406,
				"y": -2.7711674167,
				"z": 0.99031101,
				"element": "C" 
			},
			{
				"x": 0.6360061953,
				"y": -2.7521502363,
				"z": 0.9656493032,
				"element": "C" 
			},
			{
				"x": 1.3261665799,
				"y": -1.5291508928,
				"z": 0.8980791916,
				"element": "C" 
			},
			{
				"x": 2.75462507,
				"y": -1.4832899412,
				"z": 0.8730187418,
				"element": "C" 
			},
			{
				"x": 3.9173308117,
				"y": -1.4667337237,
				"z": 0.8536128362,
				"element": "N" 
			},
			{
				"x": 0.5796414539,
				"y": -0.3424190157,
				"z": 0.8549352544,
				"element": "C" 
			},
			{
				"x": 1.2397122773,
				"y": 0.8250823693,
				"z": 0.7910839059,
				"element": "F" 
			},
			{
				"x": -2.5509936673,
				"y": 0.8663165014,
				"z": 1.3259323165,
				"element": "H" 
			},
			{
				"x": -1.7832424078,
				"y": 1.2728840331,
				"z": -0.2115687151,
				"element": "H" 
			},
			{
				"x": -1.0265041103,
				"y": 1.7832655319,
				"z": 1.2993635432,
				"element": "H" 
			},
			{
				"x": -1.3097618545,
				"y": -3.6990979864,
				"z": 1.0431582259,
				"element": "H" 
			},
			{
				"x": 1.2010421357,
				"y": -3.6766828105,
				"z": 0.9985202063,
				"element": "H" 
			}
		],
		 "valence_orbital": [ 
			{
				"type": "occ",
				"energy": -0.36201,
				"method": "rhf"
			},
			{
				"type": "occ",
				"energy": -0.34451,
				"method": "rhf"
			},
			{
				"type": "occ",
				"energy": -0.33608,
				"method": "rhf"
			},
			{
				"type": "occ",
				"energy": -0.27497,
				"method": "rhf"
			},
			{
				"type": "occ",
				"energy": -0.26464,
				"method": "rhf"
			},
			{
				"type": "unocc",
				"energy": -0.05496,
				"method": "rhf"
			},
			{
				"type": "unocc",
				"energy": -0.03152,
				"method": "rhf"
			},
			{
				"type": "unocc",
				"energy": 0.02748,
				"method": "rhf"
			},
			{
				"type": "unocc",
				"energy": 0.0637,
				"method": "rhf"
			},
			{
				"type": "unocc",
				"energy": 0.069,
				"method": "rhf"
			}
		],
		"cosmo_sigma_profile": { 
			"-0.025": 0.0,
			"-0.024": 0.0,
			"-0.023": 0.0,
			"-0.022": 0.0,
			"-0.021": 0.0,
			"-0.02": 0.0,
			"-0.019": 0.0,
			"-0.018": 0.0,
			"-0.017": 0.0,
			"-0.016": 0.0,
			"-0.015": 0.0,
			"-0.014": 0.0,
			"-0.013": 0.0,
			"-0.012": 0.0,
			"-0.011": 0.0,
			"-0.01": 0.0,
			"-0.009": 1.99716635318,
			"-0.008": 4.89665401024,
			"-0.007": 4.08391684599,
			"-0.006": 4.90132095575,
			"-0.005": 8.52717144561,
			"-0.004": 9.58304206217,
			"-0.003": 14.624496459,
			"-0.002": 24.1814386088,
			"-0.001": 26.0352807078,
			"0.0": 13.7531127804,
			"0.001": 10.6813527739,
			"0.002": 10.9970802962,
			"0.003": 17.8026436673,
			"0.004": 4.76708326633,
			"0.005": 2.74176098232,
			"0.006": 1.9636621198,
			"0.007": 4.37932725332,
			"0.008": 2.39424648998,
			"0.009": 4.06899453375,
			"0.01": 2.31729798997,
			"0.011": 2.95634722627,
			"0.012": 2.38458510046,
			"0.013": 0.871454487289,
			"0.014": 0.0,
			"0.015": 0.0,
			"0.016": 0.0,
			"0.017": 0.0,
			"0.018": 0.0,
			"0.019": 0.0,
			"0.02": 0.0,
			"0.021": 0.0,
			"0.022": 0.0,
			"0.023": 0.0,
			"0.024": 0.0,
			"0.025": 0.0
		}
	}
}
