{
	 "smiles": "COC1=CC2=C(C=C1OC)C1(O)C(CO2)OC2=C(C=CC3=C2C=CC(C)(C)O3)C1=O", 
	 "Tm": 471.15, 
	 "num_atms": 52, 
	 "gaussian": { 
		 "optdone": 1, 
		 "sigma_profile": "yes", 
		 "theory": "DFT", 
		 "functional": "B3LYP", 
		 "basiset": "6-31G**", 
		 "properties": { 
			 "R2extent": 16833.9607, 
			 "electric_dipole_moment_norm": 5.4505756008, 
			 "electric_quadrupole_moment_norm": 16.964099147, 
			 "total_energy": -1416.2147819, 
			 "HOMO_LUMO_gap": 0.1342, 
			 "cosmo_polarized_energy": -17.86, 
			 "cosmo_cavitation_energy": 53.17, 
			 "cosmo_dispersion_energy": -37.47, 
			 "cosmo_repulsion_energy": 2.77, 
			 "cosmo_total_nonelectrostatic_energy": 18.48, 
			 "SMD_solvation_energy": 10.95 
		},
		"coords": [
			{
				"x": -7.1050831188,
				"y": -2.684805687,
				"z": -0.763794648,
				"element": "C" 
			},
			{
				"x": -6.7138087121,
				"y": -1.3254318263,
				"z": -0.9744137177,
				"element": "O" 
			},
			{
				"x": -5.4464867828,
				"y": -0.9886026933,
				"z": -0.5752584557,
				"element": "C" 
			},
			{
				"x": -4.5536835576,
				"y": -0.5407240221,
				"z": -1.5394029121,
				"element": "C" 
			},
			{
				"x": -3.2687717408,
				"y": -0.1182050287,
				"z": -1.1846325352,
				"element": "C" 
			},
			{
				"x": -2.8475604342,
				"y": -0.1740087356,
				"z": 0.1515178466,
				"element": "C" 
			},
			{
				"x": -3.7668688476,
				"y": -0.6038924352,
				"z": 1.1253518552,
				"element": "C" 
			},
			{
				"x": -5.053313717,
				"y": -1.0081793066,
				"z": 0.7846448967,
				"element": "C" 
			},
			{
				"x": -6.000115804,
				"y": -1.4199589833,
				"z": 1.6849632239,
				"element": "O" 
			},
			{
				"x": -5.6469989072,
				"y": -1.4218889536,
				"z": 3.0596397355,
				"element": "C" 
			},
			{
				"x": -1.4612035788,
				"y": 0.301965458,
				"z": 0.524074467,
				"element": "C" 
			},
			{
				"x": -1.5846427969,
				"y": 1.6333464604,
				"z": 1.0575879114,
				"element": "O" 
			},
			{
				"x": -0.5935804993,
				"y": 0.3195731256,
				"z": -0.7444729618,
				"element": "C" 
			},
			{
				"x": -1.3182693522,
				"y": 1.054541491,
				"z": -1.856883515,
				"element": "C" 
			},
			{
				"x": -2.4709047142,
				"y": 0.3059610866,
				"z": -2.2255165304,
				"element": "O" 
			},
			{
				"x": 0.6597922369,
				"y": 0.9723512242,
				"z": -0.4983144254,
				"element": "O" 
			},
			{
				"x": 1.3912022962,
				"y": 0.4240961105,
				"z": 0.5222497268,
				"element": "C" 
			},
			{
				"x": 0.7772414738,
				"y": -0.3292702992,
				"z": 1.5436245937,
				"element": "C" 
			},
			{
				"x": 1.5887140286,
				"y": -0.8482669535,
				"z": 2.5711046467,
				"element": "C" 
			},
			{
				"x": 2.9541113303,
				"y": -0.6304085708,
				"z": 2.5907825256,
				"element": "C" 
			},
			{
				"x": 3.5434686865,
				"y": 0.1244342461,
				"z": 1.5627932251,
				"element": "C" 
			},
			{
				"x": 2.7732165769,
				"y": 0.6660089966,
				"z": 0.515537434,
				"element": "C" 
			},
			{
				"x": 3.4497664044,
				"y": 1.4869603958,
				"z": -0.4811493037,
				"element": "C" 
			},
			{
				"x": 4.7861473957,
				"y": 1.5674461777,
				"z": -0.4868950431,
				"element": "C" 
			},
			{
				"x": 5.6417866518,
				"y": 0.7671793682,
				"z": 0.4686871582,
				"element": "C" 
			},
			{
				"x": 6.1711965746,
				"y": -0.5058528389,
				"z": -0.2111801688,
				"element": "C" 
			},
			{
				"x": 6.7846558696,
				"y": 1.6104369887,
				"z": 1.0400114672,
				"element": "C" 
			},
			{
				"x": 4.8742147058,
				"y": 0.3457639289,
				"z": 1.644188802,
				"element": "O" 
			},
			{
				"x": -0.6904353786,
				"y": -0.5237785801,
				"z": 1.5906717386,
				"element": "C" 
			},
			{
				"x": -1.2290694088,
				"y": -1.2019510328,
				"z": 2.4526290963,
				"element": "O" 
			},
			{
				"x": -7.1192471931,
				"y": -2.9400658834,
				"z": 0.2988946551,
				"element": "H" 
			},
			{
				"x": -8.1117236146,
				"y": -2.7753453452,
				"z": -1.177246284,
				"element": "H" 
			},
			{
				"x": -6.4340090187,
				"y": -3.3702916834,
				"z": -1.2978551011,
				"element": "H" 
			},
			{
				"x": -4.8664034156,
				"y": -0.5027274729,
				"z": -2.5764886175,
				"element": "H" 
			},
			{
				"x": -3.4362181747,
				"y": -0.631132151,
				"z": 2.1524973862,
				"element": "H" 
			},
			{
				"x": -6.5309980907,
				"y": -1.7706739261,
				"z": 3.596139995,
				"element": "H" 
			},
			{
				"x": -5.3852095693,
				"y": -0.4150843644,
				"z": 3.4091603757,
				"element": "H" 
			},
			{
				"x": -4.8070263188,
				"y": -2.0982902514,
				"z": 3.2628815998,
				"element": "H" 
			},
			{
				"x": -0.6933195809,
				"y": 2.0081941121,
				"z": 1.1310933849,
				"element": "H" 
			},
			{
				"x": -0.3952629789,
				"y": -0.7147542276,
				"z": -1.0602154459,
				"element": "H" 
			},
			{
				"x": -0.6964889478,
				"y": 1.1348124422,
				"z": -2.7510082786,
				"element": "H" 
			},
			{
				"x": -1.5992755274,
				"y": 2.0582500538,
				"z": -1.512660816,
				"element": "H" 
			},
			{
				"x": 1.0999715284,
				"y": -1.4228578958,
				"z": 3.3509431821,
				"element": "H" 
			},
			{
				"x": 3.5865360615,
				"y": -1.0226307131,
				"z": 3.3792474895,
				"element": "H" 
			},
			{
				"x": 2.8454769908,
				"y": 2.0357667538,
				"z": -1.1948697693,
				"element": "H" 
			},
			{
				"x": 5.3116480685,
				"y": 2.1839434638,
				"z": -1.2109617169,
				"element": "H" 
			},
			{
				"x": 6.7819069451,
				"y": -1.0843136531,
				"z": 0.4890409499,
				"element": "H" 
			},
			{
				"x": 5.3407898131,
				"y": -1.1293322274,
				"z": -0.5539609608,
				"element": "H" 
			},
			{
				"x": 6.7849060209,
				"y": -0.2477054218,
				"z": -1.0802248909,
				"element": "H" 
			},
			{
				"x": 7.357687787,
				"y": 1.0270344565,
				"z": 1.7660652758,
				"element": "H" 
			},
			{
				"x": 6.3916992238,
				"y": 2.5002738948,
				"z": 1.5385181738,
				"element": "H" 
			},
			{
				"x": 7.4592431109,
				"y": 1.9272909286,
				"z": 0.2387632798,
				"element": "H" 
			}
		],
		 "valence_orbital": [ 
			{
				"type": "occ",
				"energy": -0.24059,
				"method": "rhf"
			},
			{
				"type": "occ",
				"energy": -0.23674,
				"method": "rhf"
			},
			{
				"type": "occ",
				"energy": -0.22971,
				"method": "rhf"
			},
			{
				"type": "occ",
				"energy": -0.2205,
				"method": "rhf"
			},
			{
				"type": "occ",
				"energy": -0.19459,
				"method": "rhf"
			},
			{
				"type": "unocc",
				"energy": -0.06039,
				"method": "rhf"
			},
			{
				"type": "unocc",
				"energy": -0.03635,
				"method": "rhf"
			},
			{
				"type": "unocc",
				"energy": -0.00088,
				"method": "rhf"
			},
			{
				"type": "unocc",
				"energy": 0.01892,
				"method": "rhf"
			},
			{
				"type": "unocc",
				"energy": 0.02684,
				"method": "rhf"
			}
		],
		"cosmo_sigma_profile": { 
			"-0.025": 0.0,
			"-0.024": 0.0,
			"-0.023": 0.0,
			"-0.022": 0.0,
			"-0.021": 0.0,
			"-0.02": 0.0,
			"-0.019": 0.0,
			"-0.018": 0.0,
			"-0.017": 0.0,
			"-0.016": 0.0,
			"-0.015": 0.470881382927,
			"-0.014": 0.451305656222,
			"-0.013": 0.477982508378,
			"-0.012": 1.00556552593,
			"-0.011": 0.763494962324,
			"-0.01": 0.728082113143,
			"-0.009": 0.653906874286,
			"-0.008": 2.75911201693,
			"-0.007": 7.55744653679,
			"-0.006": 17.8787834074,
			"-0.005": 28.7434518357,
			"-0.004": 40.5441984826,
			"-0.003": 41.6481716921,
			"-0.002": 36.4576480726,
			"-0.001": 28.9782056865,
			"0.0": 34.1065715605,
			"0.001": 32.0248502653,
			"0.002": 29.972653309,
			"0.003": 32.3600789221,
			"0.004": 21.4788243778,
			"0.005": 12.1155747549,
			"0.006": 8.19960284753,
			"0.007": 8.69693660238,
			"0.008": 7.6662957361,
			"0.009": 7.35472689376,
			"0.01": 8.14763646707,
			"0.011": 5.86782712029,
			"0.012": 3.57941598752,
			"0.013": 0.526362606777,
			"0.014": 0.0,
			"0.015": 0.0,
			"0.016": 0.0,
			"0.017": 0.0,
			"0.018": 0.0,
			"0.019": 0.0,
			"0.02": 0.0,
			"0.021": 0.0,
			"0.022": 0.0,
			"0.023": 0.0,
			"0.024": 0.0,
			"0.025": 0.0
		}
	}
}
