{
	 "smiles": "OC(=O)C(=O)CC1=CC=C(O)C=C1", 
	 "Tm": 493.15, 
	 "num_atms": 21, 
	 "gaussian": { 
		 "optdone": 1, 
		 "sigma_profile": "yes", 
		 "theory": "DFT", 
		 "functional": "B3LYP", 
		 "basiset": "6-31G**", 
		 "properties": { 
			 "R2extent": 3175.6866, 
			 "electric_dipole_moment_norm": 1.21166376112, 
			 "electric_quadrupole_moment_norm": 15.3091655651, 
			 "total_energy": -648.669165073, 
			 "HOMO_LUMO_gap": 0.14378, 
			 "cosmo_polarized_energy": -16.39, 
			 "cosmo_cavitation_energy": 26.67, 
			 "cosmo_dispersion_energy": -18.9, 
			 "cosmo_repulsion_energy": 1.52, 
			 "cosmo_total_nonelectrostatic_energy": 9.29, 
			 "SMD_solvation_energy": 6.8 
		},
		"coords": [
			{
				"x": 2.1506526042,
				"y": 1.0699348785,
				"z": 3.7162487198,
				"element": "O" 
			},
			{
				"x": 2.3405637711,
				"y": 1.3018859355,
				"z": 2.4102412067,
				"element": "C" 
			},
			{
				"x": 3.2231818574,
				"y": 0.7995755932,
				"z": 1.7471464281,
				"element": "O" 
			},
			{
				"x": 1.3220769843,
				"y": 2.3169053929,
				"z": 1.8399281294,
				"element": "C" 
			},
			{
				"x": 0.6031829885,
				"y": 2.9479314349,
				"z": 2.5819323576,
				"element": "O" 
			},
			{
				"x": 1.298835694,
				"y": 2.4194658804,
				"z": 0.3249132976,
				"element": "C" 
			},
			{
				"x": 0.4822772259,
				"y": 1.2711084578,
				"z": -0.2515205081,
				"element": "C" 
			},
			{
				"x": 1.0990571129,
				"y": 0.1144063514,
				"z": -0.7496570103,
				"element": "C" 
			},
			{
				"x": 0.3466270995,
				"y": -0.9379395443,
				"z": -1.2623614813,
				"element": "C" 
			},
			{
				"x": -1.0501527135,
				"y": -0.8531079192,
				"z": -1.2762666307,
				"element": "C" 
			},
			{
				"x": -1.7407572661,
				"y": -1.9117193959,
				"z": -1.7926445097,
				"element": "O" 
			},
			{
				"x": -1.6813177971,
				"y": 0.2892339277,
				"z": -0.7713334373,
				"element": "C" 
			},
			{
				"x": -0.9164387344,
				"y": 1.336591393,
				"z": -0.2611583224,
				"element": "C" 
			},
			{
				"x": 2.8400313887,
				"y": 0.4401411623,
				"z": 3.9881067672,
				"element": "H" 
			},
			{
				"x": 0.8480306205,
				"y": 3.3826538364,
				"z": 0.0728774,
				"element": "H" 
			},
			{
				"x": 2.3210576388,
				"y": 2.3843245677,
				"z": -0.0591926206,
				"element": "H" 
			},
			{
				"x": 2.1819016352,
				"y": 0.0371106219,
				"z": -0.7286037491,
				"element": "H" 
			},
			{
				"x": 0.8218464312,
				"y": -1.830751884,
				"z": -1.655017915,
				"element": "H" 
			},
			{
				"x": -2.687878075,
				"y": -1.7290476818,
				"z": -1.7402500111,
				"element": "H" 
			},
			{
				"x": -2.7670868112,
				"y": 0.3604197585,
				"z": -0.7779518284,
				"element": "H" 
			},
			{
				"x": -1.4155916549,
				"y": 2.2175772331,
				"z": 0.1335637178,
				"element": "H" 
			}
		],
		 "valence_orbital": [ 
			{
				"type": "occ",
				"energy": -0.33397,
				"method": "rhf"
			},
			{
				"type": "occ",
				"energy": -0.3209,
				"method": "rhf"
			},
			{
				"type": "occ",
				"energy": -0.26111,
				"method": "rhf"
			},
			{
				"type": "occ",
				"energy": -0.25624,
				"method": "rhf"
			},
			{
				"type": "occ",
				"energy": -0.22132,
				"method": "rhf"
			},
			{
				"type": "unocc",
				"energy": -0.07754,
				"method": "rhf"
			},
			{
				"type": "unocc",
				"energy": -0.00832,
				"method": "rhf"
			},
			{
				"type": "unocc",
				"energy": 0.00699,
				"method": "rhf"
			},
			{
				"type": "unocc",
				"energy": 0.05486,
				"method": "rhf"
			},
			{
				"type": "unocc",
				"energy": 0.06651,
				"method": "rhf"
			}
		],
		"cosmo_sigma_profile": { 
			"-0.025": 0.0,
			"-0.024": 0.0,
			"-0.023": 0.0,
			"-0.022": 0.0,
			"-0.021": 0.0,
			"-0.02": 0.0527324131674,
			"-0.019": 1.14006852359,
			"-0.018": 1.12496760001,
			"-0.017": 2.37983285173,
			"-0.016": 1.6068354973,
			"-0.015": 2.08796087863,
			"-0.014": 1.38181219526,
			"-0.013": 1.8890176158,
			"-0.012": 1.98829022766,
			"-0.011": 1.12760844979,
			"-0.01": 1.50522188692,
			"-0.009": 2.27365555988,
			"-0.008": 2.84729995469,
			"-0.007": 3.98296217288,
			"-0.006": 9.89103424668,
			"-0.005": 15.4859648716,
			"-0.004": 14.2454514437,
			"-0.003": 12.5488893919,
			"-0.002": 10.7450664749,
			"-0.001": 9.78582324818,
			"0.0": 9.61046480685,
			"0.001": 10.2426283748,
			"0.002": 11.3500335837,
			"0.003": 13.2203619117,
			"0.004": 14.3649240478,
			"0.005": 13.4434057237,
			"0.006": 5.40493080702,
			"0.007": 6.03506509003,
			"0.008": 5.2588393351,
			"0.009": 7.80509636937,
			"0.01": 9.79414699955,
			"0.011": 6.25152577465,
			"0.012": 1.32617679633,
			"0.013": 0.0,
			"0.014": 0.0,
			"0.015": 0.0,
			"0.016": 0.0,
			"0.017": 0.0,
			"0.018": 0.0,
			"0.019": 0.0,
			"0.02": 0.0,
			"0.021": 0.0,
			"0.022": 0.0,
			"0.023": 0.0,
			"0.024": 0.0,
			"0.025": 0.0
		}
	}
}
