{
	 "smiles": "ClCC1=CSC(=N1)C1=NC=CC=N1", 
	 "Tm": 421.15, 
	 "num_atms": 19, 
	 "gaussian": { 
		 "optdone": 1, 
		 "sigma_profile": "yes", 
		 "theory": "DFT", 
		 "functional": "B3LYP", 
		 "basiset": "6-31G**", 
		 "properties": { 
			 "R2extent": 5555.9204, 
			 "electric_dipole_moment_norm": 3.84734913934, 
			 "electric_quadrupole_moment_norm": 17.7393109987, 
			 "total_energy": -1331.08918091, 
			 "HOMO_LUMO_gap": 0.16823, 
			 "cosmo_polarized_energy": -14.47, 
			 "cosmo_cavitation_energy": 27.81, 
			 "cosmo_dispersion_energy": -21.15, 
			 "cosmo_repulsion_energy": 1.65, 
			 "cosmo_total_nonelectrostatic_energy": 8.32, 
			 "SMD_solvation_energy": 0.45 
		},
		"coords": [
			{
				"x": -5.4521824313,
				"y": 2.4122118558,
				"z": 0.7634489219,
				"element": "Cl" 
			},
			{
				"x": -4.7083012255,
				"y": 1.0416972147,
				"z": 1.729533175,
				"element": "C" 
			},
			{
				"x": -3.8658520396,
				"y": 0.1432553008,
				"z": 0.8885950748,
				"element": "C" 
			},
			{
				"x": -4.2908347778,
				"y": -1.0195634611,
				"z": 0.2910349403,
				"element": "C" 
			},
			{
				"x": -3.0072593317,
				"y": -1.7537162309,
				"z": -0.5923524566,
				"element": "S" 
			},
			{
				"x": -1.9663511964,
				"y": -0.4242875307,
				"z": -0.0852644771,
				"element": "C" 
			},
			{
				"x": -2.5500555195,
				"y": 0.4649256724,
				"z": 0.6677341797,
				"element": "N" 
			},
			{
				"x": -0.5573382546,
				"y": -0.3994869302,
				"z": -0.5164588024,
				"element": "C" 
			},
			{
				"x": 0.2128741759,
				"y": 0.6153474254,
				"z": -0.0986556935,
				"element": "N" 
			},
			{
				"x": 1.4800328127,
				"y": 0.597425383,
				"z": -0.5190852891,
				"element": "C" 
			},
			{
				"x": 1.9884727037,
				"y": -0.4080018154,
				"z": -1.3417799588,
				"element": "C" 
			},
			{
				"x": 1.096239021,
				"y": -1.4134820429,
				"z": -1.710727793,
				"element": "C" 
			},
			{
				"x": -0.1748422832,
				"y": -1.4188252029,
				"z": -1.3049103347,
				"element": "N" 
			},
			{
				"x": -4.105940198,
				"y": 1.5194728882,
				"z": 2.5009518765,
				"element": "H" 
			},
			{
				"x": -5.5455683616,
				"y": 0.5099421722,
				"z": 2.1801049947,
				"element": "H" 
			},
			{
				"x": -5.2780958675,
				"y": -1.4597186987,
				"z": 0.3230082813,
				"element": "H" 
			},
			{
				"x": 2.1098481185,
				"y": 1.4195388859,
				"z": -0.1831706524,
				"element": "H" 
			},
			{
				"x": 3.0200859785,
				"y": -0.4080708978,
				"z": -1.6752626463,
				"element": "H" 
			},
			{
				"x": 1.4055686764,
				"y": -2.2389639879,
				"z": -2.3491433402,
				"element": "H" 
			}
		],
		 "valence_orbital": [ 
			{
				"type": "occ",
				"energy": -0.29119,
				"method": "rhf"
			},
			{
				"type": "occ",
				"energy": -0.28557,
				"method": "rhf"
			},
			{
				"type": "occ",
				"energy": -0.28266,
				"method": "rhf"
			},
			{
				"type": "occ",
				"energy": -0.26084,
				"method": "rhf"
			},
			{
				"type": "occ",
				"energy": -0.24311,
				"method": "rhf"
			},
			{
				"type": "unocc",
				"energy": -0.07488,
				"method": "rhf"
			},
			{
				"type": "unocc",
				"energy": -0.05075,
				"method": "rhf"
			},
			{
				"type": "unocc",
				"energy": -0.01819,
				"method": "rhf"
			},
			{
				"type": "unocc",
				"energy": 0.02174,
				"method": "rhf"
			},
			{
				"type": "unocc",
				"energy": 0.02715,
				"method": "rhf"
			}
		],
		"cosmo_sigma_profile": { 
			"-0.025": 0.0,
			"-0.024": 0.0,
			"-0.023": 0.0,
			"-0.022": 0.0,
			"-0.021": 0.0,
			"-0.02": 0.0,
			"-0.019": 0.0,
			"-0.018": 0.0,
			"-0.017": 0.0,
			"-0.016": 0.0,
			"-0.015": 0.0,
			"-0.014": 0.0,
			"-0.013": 0.0,
			"-0.012": 0.0,
			"-0.011": 0.0419974748797,
			"-0.01": 1.72926442127,
			"-0.009": 4.86598608973,
			"-0.008": 13.8279290733,
			"-0.007": 12.6442817147,
			"-0.006": 11.5360039951,
			"-0.005": 9.40578937091,
			"-0.004": 9.51829489337,
			"-0.003": 10.2640195225,
			"-0.002": 15.2329528605,
			"-0.001": 21.2327743525,
			"0.0": 19.9087341054,
			"0.001": 16.4694032729,
			"0.002": 14.5977194394,
			"0.003": 9.85664617792,
			"0.004": 8.88972027096,
			"0.005": 10.3921642967,
			"0.006": 14.0597811555,
			"0.007": 7.25581896562,
			"0.008": 2.6332362251,
			"0.009": 3.19437959579,
			"0.01": 2.24567381719,
			"0.011": 1.83099436906,
			"0.012": 1.16747351406,
			"0.013": 1.14098025611,
			"0.014": 1.30894898677,
			"0.015": 1.28412963074,
			"0.016": 1.21334688763,
			"0.017": 1.02963713414,
			"0.018": 0.231278099366,
			"0.019": 0.0,
			"0.02": 0.0,
			"0.021": 0.0,
			"0.022": 0.0,
			"0.023": 0.0,
			"0.024": 0.0,
			"0.025": 0.0
		}
	}
}
