{
	 "smiles": "COCCN1C(=O)C2=C(C=CC=C2)N2C(=O)CCC12C(O)=O", 
	 "Tm": 290.15, 
	 "num_atms": 38, 
	 "gaussian": { 
		 "optdone": 1, 
		 "sigma_profile": "yes", 
		 "theory": "DFT", 
		 "functional": "B3LYP", 
		 "basiset": "6-31G**", 
		 "properties": { 
			 "R2extent": 5725.3279, 
			 "electric_dipole_moment_norm": 4.11505765816, 
			 "electric_quadrupole_moment_norm": 17.129788633, 
			 "total_energy": -1066.89510944, 
			 "HOMO_LUMO_gap": 0.18466, 
			 "cosmo_polarized_energy": -18.8, 
			 "cosmo_cavitation_energy": 38.72, 
			 "cosmo_dispersion_energy": -27.31, 
			 "cosmo_repulsion_energy": 2.03, 
			 "cosmo_total_nonelectrostatic_energy": 13.45, 
			 "SMD_solvation_energy": 7.81 
		},
		"coords": [
			{
				"x": 1.8379066065,
				"y": -3.9660823709,
				"z": -0.1216382109,
				"element": "C" 
			},
			{
				"x": 2.2374829766,
				"y": -2.6423063863,
				"z": -0.4262605817,
				"element": "O" 
			},
			{
				"x": 1.868218431,
				"y": -2.2454478258,
				"z": -1.741977131,
				"element": "C" 
			},
			{
				"x": 2.1604879087,
				"y": -0.7585836869,
				"z": -1.9031432359,
				"element": "C" 
			},
			{
				"x": 1.237016408,
				"y": 0.1322711343,
				"z": -1.1904352828,
				"element": "N" 
			},
			{
				"x": 0.1049822413,
				"y": 0.5437598877,
				"z": -1.8868130782,
				"element": "C" 
			},
			{
				"x": -0.0645796864,
				"y": 0.2503445288,
				"z": -3.0661994892,
				"element": "O" 
			},
			{
				"x": -0.8368558711,
				"y": 1.4292087823,
				"z": -1.1486859531,
				"element": "C" 
			},
			{
				"x": -0.5369837833,
				"y": 1.9193051095,
				"z": 0.1356991239,
				"element": "C" 
			},
			{
				"x": -1.4032100959,
				"y": 2.8248674995,
				"z": 0.7631380731,
				"element": "C" 
			},
			{
				"x": -2.569237885,
				"y": 3.2139643279,
				"z": 0.1055922774,
				"element": "C" 
			},
			{
				"x": -2.8851033181,
				"y": 2.7184139499,
				"z": -1.1629469162,
				"element": "C" 
			},
			{
				"x": -2.0141630697,
				"y": 1.8311592088,
				"z": -1.7863388009,
				"element": "C" 
			},
			{
				"x": 0.6566627798,
				"y": 1.4586558445,
				"z": 0.7313651627,
				"element": "N" 
			},
			{
				"x": 1.3327144587,
				"y": 2.0233852502,
				"z": 1.812619574,
				"element": "C" 
			},
			{
				"x": 0.9921356617,
				"y": 3.0218171478,
				"z": 2.4183281354,
				"element": "O" 
			},
			{
				"x": 2.54685204,
				"y": 1.1526951467,
				"z": 2.0994598179,
				"element": "C" 
			},
			{
				"x": 2.678570936,
				"y": 0.2508378351,
				"z": 0.8685345294,
				"element": "C" 
			},
			{
				"x": 1.2528665137,
				"y": 0.1960579654,
				"z": 0.2638957002,
				"element": "C" 
			},
			{
				"x": 0.3763556533,
				"y": -0.9533949623,
				"z": 0.8505413073,
				"element": "C" 
			},
			{
				"x": 0.6544663967,
				"y": -1.1851480114,
				"z": 2.1531310808,
				"element": "O" 
			},
			{
				"x": -0.5119778629,
				"y": -1.5181703174,
				"z": 0.2566098955,
				"element": "O" 
			},
			{
				"x": 2.2790493978,
				"y": -4.6910427733,
				"z": -0.8219143443,
				"element": "H" 
			},
			{
				"x": 0.7436591821,
				"y": -4.0687731121,
				"z": -0.1499725206,
				"element": "H" 
			},
			{
				"x": 2.1955937925,
				"y": -4.1889880189,
				"z": 0.8866664216,
				"element": "H" 
			},
			{
				"x": 0.8023916679,
				"y": -2.4381780493,
				"z": -1.9215854362,
				"element": "H" 
			},
			{
				"x": 2.4532872,
				"y": -2.8131779191,
				"z": -2.4840725026,
				"element": "H" 
			},
			{
				"x": 3.1846478934,
				"y": -0.5558040345,
				"z": -1.5795753238,
				"element": "H" 
			},
			{
				"x": 2.0710886732,
				"y": -0.4969613347,
				"z": -2.9579092658,
				"element": "H" 
			},
			{
				"x": -1.1511488967,
				"y": 3.2169257307,
				"z": 1.7380400039,
				"element": "H" 
			},
			{
				"x": -3.2403817341,
				"y": 3.9124272521,
				"z": 0.5973219345,
				"element": "H" 
			},
			{
				"x": -3.7983944576,
				"y": 3.0286931935,
				"z": -1.6608936386,
				"element": "H" 
			},
			{
				"x": -2.2088320895,
				"y": 1.4386687008,
				"z": -2.7783680263,
				"element": "H" 
			},
			{
				"x": 3.4188773455,
				"y": 1.7843260764,
				"z": 2.2813670934,
				"element": "H" 
			},
			{
				"x": 2.3481195584,
				"y": 0.5813275498,
				"z": 3.0109784879,
				"element": "H" 
			},
			{
				"x": 3.0644753014,
				"y": -0.7462152947,
				"z": 1.0727399176,
				"element": "H" 
			},
			{
				"x": 3.3256565441,
				"y": 0.7319911502,
				"z": 0.1309478366,
				"element": "H" 
			},
			{
				"x": 0.0112031822,
				"y": -1.8478291741,
				"z": 2.4568533651,
				"element": "H" 
			}
		],
		 "valence_orbital": [ 
			{
				"type": "occ",
				"energy": -0.26315,
				"method": "rhf"
			},
			{
				"type": "occ",
				"energy": -0.25969,
				"method": "rhf"
			},
			{
				"type": "occ",
				"energy": -0.25191,
				"method": "rhf"
			},
			{
				"type": "occ",
				"energy": -0.24966,
				"method": "rhf"
			},
			{
				"type": "occ",
				"energy": -0.22642,
				"method": "rhf"
			},
			{
				"type": "unocc",
				"energy": -0.04176,
				"method": "rhf"
			},
			{
				"type": "unocc",
				"energy": -0.01872,
				"method": "rhf"
			},
			{
				"type": "unocc",
				"energy": -0.00784,
				"method": "rhf"
			},
			{
				"type": "unocc",
				"energy": 0.03707,
				"method": "rhf"
			},
			{
				"type": "unocc",
				"energy": 0.05104,
				"method": "rhf"
			}
		],
		"cosmo_sigma_profile": { 
			"-0.025": 0.0,
			"-0.024": 0.0,
			"-0.023": 0.0,
			"-0.022": 0.0,
			"-0.021": 0.0,
			"-0.02": 0.0,
			"-0.019": 0.392180600118,
			"-0.018": 1.08909018044,
			"-0.017": 0.817429369569,
			"-0.016": 0.996744257982,
			"-0.015": 0.606946129041,
			"-0.014": 0.683495813853,
			"-0.013": 0.261047722089,
			"-0.012": 0.813222771704,
			"-0.011": 0.792689390414,
			"-0.01": 0.676208652262,
			"-0.009": 0.551549953507,
			"-0.008": 0.99533301669,
			"-0.007": 5.60200759112,
			"-0.006": 15.5262435749,
			"-0.005": 22.918169837,
			"-0.004": 30.2426987905,
			"-0.003": 31.3980496228,
			"-0.002": 30.9134477933,
			"-0.001": 18.2303841611,
			"0.0": 16.2142916381,
			"0.001": 15.7723511684,
			"0.002": 17.8208125402,
			"0.003": 23.1183156106,
			"0.004": 16.3287380786,
			"0.005": 6.60877107524,
			"0.006": 6.79887914055,
			"0.007": 5.87129238221,
			"0.008": 4.83715746389,
			"0.009": 4.66799958312,
			"0.01": 5.41376663821,
			"0.011": 7.44681602563,
			"0.012": 6.31048709172,
			"0.013": 5.29336924872,
			"0.014": 0.112876424448,
			"0.015": 0.0,
			"0.016": 0.0,
			"0.017": 0.0,
			"0.018": 0.0,
			"0.019": 0.0,
			"0.02": 0.0,
			"0.021": 0.0,
			"0.022": 0.0,
			"0.023": 0.0,
			"0.024": 0.0,
			"0.025": 0.0
		}
	}
}
