{
	 "smiles": "CN1CCC(CC1)NC1=C(N)C=CC=C1", 
	 "Tm": 360.15, 
	 "num_atms": 34, 
	 "gaussian": { 
		 "optdone": 1, 
		 "sigma_profile": "yes", 
		 "theory": "DFT", 
		 "functional": "B3LYP", 
		 "basiset": "6-31G**", 
		 "properties": { 
			 "R2extent": 3808.5967, 
			 "electric_dipole_moment_norm": 2.07515451473, 
			 "electric_quadrupole_moment_norm": 12.4673414696, 
			 "total_energy": -632.963253396, 
			 "HOMO_LUMO_gap": 0.19829, 
			 "cosmo_polarized_energy": -11.58, 
			 "cosmo_cavitation_energy": 33.43, 
			 "cosmo_dispersion_energy": -24.22, 
			 "cosmo_repulsion_energy": 1.88, 
			 "cosmo_total_nonelectrostatic_energy": 11.08, 
			 "SMD_solvation_energy": 1.39 
		},
		"coords": [
			{
				"x": -4.2762731958,
				"y": 0.5121790842,
				"z": -2.3964796412,
				"element": "C" 
			},
			{
				"x": -2.9481737605,
				"y": 0.1399964792,
				"z": -1.9407184103,
				"element": "N" 
			},
			{
				"x": -2.9932565013,
				"y": -1.0377754663,
				"z": -1.0675447888,
				"element": "C" 
			},
			{
				"x": -1.7218643778,
				"y": -1.1473037042,
				"z": -0.2234746787,
				"element": "C" 
			},
			{
				"x": -1.6335866064,
				"y": 0.0150887632,
				"z": 0.796459338,
				"element": "C" 
			},
			{
				"x": -2.1924760021,
				"y": 1.3165022811,
				"z": 0.1523936016,
				"element": "C" 
			},
			{
				"x": -2.1622151549,
				"y": 1.2572696726,
				"z": -1.3831301604,
				"element": "C" 
			},
			{
				"x": -0.3021738286,
				"y": 0.1709162338,
				"z": 1.4176239683,
				"element": "N" 
			},
			{
				"x": 0.8931734948,
				"y": 0.230137747,
				"z": 0.6585520956,
				"element": "C" 
			},
			{
				"x": 1.8424705197,
				"y": -0.8194536621,
				"z": 0.7588955409,
				"element": "C" 
			},
			{
				"x": 1.5481454236,
				"y": -1.9315981084,
				"z": 1.5820226392,
				"element": "N" 
			},
			{
				"x": 3.070538439,
				"y": -0.7073783209,
				"z": 0.0974170905,
				"element": "C" 
			},
			{
				"x": 3.3661244311,
				"y": 0.4083861066,
				"z": -0.6855989892,
				"element": "C" 
			},
			{
				"x": 2.4268294418,
				"y": 1.4307547467,
				"z": -0.8118892171,
				"element": "C" 
			},
			{
				"x": 1.2122285683,
				"y": 1.3440025417,
				"z": -0.1298052616,
				"element": "C" 
			},
			{
				"x": -4.2105792659,
				"y": 1.3211979798,
				"z": -3.1308107392,
				"element": "H" 
			},
			{
				"x": -4.9589208726,
				"y": 0.8371073189,
				"z": -1.5853901912,
				"element": "H" 
			},
			{
				"x": -4.7457842585,
				"y": -0.3460611653,
				"z": -2.8911198845,
				"element": "H" 
			},
			{
				"x": -3.8658930327,
				"y": -1.0044414663,
				"z": -0.3820927165,
				"element": "H" 
			},
			{
				"x": -3.1265967392,
				"y": -1.9351903516,
				"z": -1.6866079161,
				"element": "H" 
			},
			{
				"x": -0.847350822,
				"y": -1.1247793555,
				"z": -0.8843979323,
				"element": "H" 
			},
			{
				"x": -1.7081696747,
				"y": -2.1106282269,
				"z": 0.3014042585,
				"element": "H" 
			},
			{
				"x": -2.2902443787,
				"y": -0.2311178654,
				"z": 1.6392452328,
				"element": "H" 
			},
			{
				"x": -3.2311868913,
				"y": 1.4544381782,
				"z": 0.4765625661,
				"element": "H" 
			},
			{
				"x": -1.6370571129,
				"y": 2.1805103389,
				"z": 0.5279789316,
				"element": "H" 
			},
			{
				"x": -1.1226404719,
				"y": 1.1696071422,
				"z": -1.7231609414,
				"element": "H" 
			},
			{
				"x": -2.54602832,
				"y": 2.1917037576,
				"z": -1.8051376635,
				"element": "H" 
			},
			{
				"x": -0.1886935521,
				"y": -0.483723943,
				"z": 2.1832163574,
				"element": "H" 
			},
			{
				"x": 0.6442498149,
				"y": -2.3450287144,
				"z": 1.3752735264,
				"element": "H" 
			},
			{
				"x": 2.26294528,
				"y": -2.6479013375,
				"z": 1.5328944501,
				"element": "H" 
			},
			{
				"x": 3.7921472252,
				"y": -1.5171966172,
				"z": 0.1845679065,
				"element": "H" 
			},
			{
				"x": 4.3223241472,
				"y": 0.470649282,
				"z": -1.1966750938,
				"element": "H" 
			},
			{
				"x": 2.644700148,
				"y": 2.3071421611,
				"z": -1.4149102601,
				"element": "H" 
			},
			{
				"x": 0.5094878863,
				"y": 2.1682884902,
				"z": -0.1753630175,
				"element": "H" 
			}
		],
		 "valence_orbital": [ 
			{
				"type": "occ",
				"energy": -0.29825,
				"method": "rhf"
			},
			{
				"type": "occ",
				"energy": -0.26357,
				"method": "rhf"
			},
			{
				"type": "occ",
				"energy": -0.21771,
				"method": "rhf"
			},
			{
				"type": "occ",
				"energy": -0.19565,
				"method": "rhf"
			},
			{
				"type": "occ",
				"energy": -0.18717,
				"method": "rhf"
			},
			{
				"type": "unocc",
				"energy": 0.01112,
				"method": "rhf"
			},
			{
				"type": "unocc",
				"energy": 0.0207,
				"method": "rhf"
			},
			{
				"type": "unocc",
				"energy": 0.0633,
				"method": "rhf"
			},
			{
				"type": "unocc",
				"energy": 0.08073,
				"method": "rhf"
			},
			{
				"type": "unocc",
				"energy": 0.09763,
				"method": "rhf"
			}
		],
		"cosmo_sigma_profile": { 
			"-0.025": 0.0,
			"-0.024": 0.0,
			"-0.023": 0.0,
			"-0.022": 0.0,
			"-0.021": 0.0,
			"-0.02": 0.0,
			"-0.019": 0.0,
			"-0.018": 0.0,
			"-0.017": 0.0,
			"-0.016": 0.0,
			"-0.015": 0.0,
			"-0.014": 0.0,
			"-0.013": 0.0,
			"-0.012": 0.567244110656,
			"-0.011": 1.37349839863,
			"-0.01": 2.29018953526,
			"-0.009": 5.46709351061,
			"-0.008": 5.6007820525,
			"-0.007": 3.82249611689,
			"-0.006": 3.92874087029,
			"-0.005": 7.58040007068,
			"-0.004": 15.6466586829,
			"-0.003": 24.1300380972,
			"-0.002": 33.1073671723,
			"-0.001": 33.9120336428,
			"0.0": 32.0670515145,
			"0.001": 17.7732133061,
			"0.002": 10.2321011445,
			"0.003": 7.35333455636,
			"0.004": 9.55407498995,
			"0.005": 8.36219090096,
			"0.006": 10.4752912586,
			"0.007": 8.46808607537,
			"0.008": 5.35264346974,
			"0.009": 2.7792612188,
			"0.01": 1.57063055862,
			"0.011": 2.05833474979,
			"0.012": 1.59835409205,
			"0.013": 1.33587154385,
			"0.014": 1.85418382807,
			"0.015": 0.882069962415,
			"0.016": 0.361513814031,
			"0.017": 0.376372522839,
			"0.018": 0.0570776378323,
			"0.019": 0.0,
			"0.02": 0.0,
			"0.021": 0.0,
			"0.022": 0.0,
			"0.023": 0.0,
			"0.024": 0.0,
			"0.025": 0.0
		}
	}
}
