{
	 "smiles": "ClC(=C)C1=CC=CC=C1", 
	 "Tm": 250.15, 
	 "num_atms": 16, 
	 "gaussian": { 
		 "optdone": 1, 
		 "sigma_profile": "yes", 
		 "theory": "DFT", 
		 "functional": "B3LYP", 
		 "basiset": "6-31G**", 
		 "properties": { 
			 "R2extent": 1622.6467, 
			 "electric_dipole_moment_norm": 1.8663980015, 
			 "electric_quadrupole_moment_norm": 6.58775096903, 
			 "total_energy": -769.243760824, 
			 "HOMO_LUMO_gap": 0.19642, 
			 "cosmo_polarized_energy": -4.33, 
			 "cosmo_cavitation_energy": 21.63, 
			 "cosmo_dispersion_energy": -15.99, 
			 "cosmo_repulsion_energy": 1.3, 
			 "cosmo_total_nonelectrostatic_energy": 6.94, 
			 "SMD_solvation_energy": 4.07 
		},
		"coords": [
			{
				"x": -0.5731891454,
				"y": 0.651798982,
				"z": 2.9773628145,
				"element": "Cl" 
			},
			{
				"x": -0.7994158717,
				"y": 0.9895972127,
				"z": 1.2501727423,
				"element": "C" 
			},
			{
				"x": -1.2979416625,
				"y": 2.1782826225,
				"z": 0.8991709051,
				"element": "C" 
			},
			{
				"x": -0.4045491231,
				"y": -0.0927279409,
				"z": 0.3214406662,
				"element": "C" 
			},
			{
				"x": -1.0984800054,
				"y": -0.2520962988,
				"z": -0.8912776854,
				"element": "C" 
			},
			{
				"x": -0.7169394097,
				"y": -1.2320200441,
				"z": -1.8050234246,
				"element": "C" 
			},
			{
				"x": 0.3574424411,
				"y": -2.0776193949,
				"z": -1.5213095254,
				"element": "C" 
			},
			{
				"x": 1.0434389653,
				"y": -1.93767431,
				"z": -0.3136430296,
				"element": "C" 
			},
			{
				"x": 0.6644442361,
				"y": -0.958393647,
				"z": 0.6028196586,
				"element": "C" 
			},
			{
				"x": -1.4023687725,
				"y": 2.4345864621,
				"z": -0.1493842502,
				"element": "H" 
			},
			{
				"x": -1.5917415116,
				"y": 2.916680993,
				"z": 1.6347159882,
				"element": "H" 
			},
			{
				"x": -1.9543884784,
				"y": 0.3803832998,
				"z": -1.1040499415,
				"element": "H" 
			},
			{
				"x": -1.2695250176,
				"y": -1.3442044552,
				"z": -2.7333798929,
				"element": "H" 
			},
			{
				"x": 0.6504332971,
				"y": -2.8457937337,
				"z": -2.2309425393,
				"element": "H" 
			},
			{
				"x": 1.8774302265,
				"y": -2.5936624416,
				"z": -0.0817001076,
				"element": "H" 
			},
			{
				"x": 1.2017498317,
				"y": -0.856937306,
				"z": 1.5393276216,
				"element": "H" 
			}
		],
		 "valence_orbital": [ 
			{
				"type": "occ",
				"energy": -0.34763,
				"method": "rhf"
			},
			{
				"type": "occ",
				"energy": -0.31009,
				"method": "rhf"
			},
			{
				"type": "occ",
				"energy": -0.27795,
				"method": "rhf"
			},
			{
				"type": "occ",
				"energy": -0.25755,
				"method": "rhf"
			},
			{
				"type": "occ",
				"energy": -0.23568,
				"method": "rhf"
			},
			{
				"type": "unocc",
				"energy": -0.03926,
				"method": "rhf"
			},
			{
				"type": "unocc",
				"energy": -0.00839,
				"method": "rhf"
			},
			{
				"type": "unocc",
				"energy": 0.02466,
				"method": "rhf"
			},
			{
				"type": "unocc",
				"energy": 0.04624,
				"method": "rhf"
			},
			{
				"type": "unocc",
				"energy": 0.0916,
				"method": "rhf"
			}
		],
		"cosmo_sigma_profile": { 
			"-0.025": 0.0,
			"-0.024": 0.0,
			"-0.023": 0.0,
			"-0.022": 0.0,
			"-0.021": 0.0,
			"-0.02": 0.0,
			"-0.019": 0.0,
			"-0.018": 0.0,
			"-0.017": 0.0,
			"-0.016": 0.0,
			"-0.015": 0.0,
			"-0.014": 0.0,
			"-0.013": 0.0,
			"-0.012": 0.0,
			"-0.011": 0.0,
			"-0.01": 0.0,
			"-0.009": 0.0,
			"-0.008": 0.181775291248,
			"-0.007": 3.00828371098,
			"-0.006": 11.6874073788,
			"-0.005": 12.0132775014,
			"-0.004": 14.8476326673,
			"-0.003": 11.0598633643,
			"-0.002": 11.9045969037,
			"-0.001": 10.6501721973,
			"0.0": 11.5360777206,
			"0.001": 14.4320670748,
			"0.002": 16.0883055061,
			"0.003": 20.8852699736,
			"0.004": 19.9674072146,
			"0.005": 16.6359550776,
			"0.006": 0.99061311587,
			"0.007": 0.0,
			"0.008": 0.0,
			"0.009": 0.0,
			"0.01": 0.0,
			"0.011": 0.0,
			"0.012": 0.0,
			"0.013": 0.0,
			"0.014": 0.0,
			"0.015": 0.0,
			"0.016": 0.0,
			"0.017": 0.0,
			"0.018": 0.0,
			"0.019": 0.0,
			"0.02": 0.0,
			"0.021": 0.0,
			"0.022": 0.0,
			"0.023": 0.0,
			"0.024": 0.0,
			"0.025": 0.0
		}
	}
}
