{
	 "smiles": "CC1=CC(C)=CC(O1)C1=CC=CC=C1", 
	 "Tm": 444.15, 
	 "num_atms": 28, 
	 "gaussian": { 
		 "optdone": 1, 
		 "sigma_profile": "yes", 
		 "theory": "DFT", 
		 "functional": "B3LYP", 
		 "basiset": "6-31G**", 
		 "properties": { 
			 "R2extent": 3375.4103, 
			 "electric_dipole_moment_norm": 0.637645865665, 
			 "electric_quadrupole_moment_norm": 6.24869239921, 
			 "total_energy": -579.019420269, 
			 "HOMO_LUMO_gap": 0.17879, 
			 "cosmo_polarized_energy": -5.89, 
			 "cosmo_cavitation_energy": 31.13, 
			 "cosmo_dispersion_energy": -22.25, 
			 "cosmo_repulsion_energy": 1.78, 
			 "cosmo_total_nonelectrostatic_energy": 10.66, 
			 "SMD_solvation_energy": 5.56 
		},
		"coords": [
			{
				"x": -2.9467299037,
				"y": 0.1795269753,
				"z": 2.7928650589,
				"element": "C" 
			},
			{
				"x": -2.5158081872,
				"y": 0.2901589519,
				"z": 1.3646047375,
				"element": "C" 
			},
			{
				"x": -3.2715095379,
				"y": 0.7238813884,
				"z": 0.3337378701,
				"element": "C" 
			},
			{
				"x": -2.6397709459,
				"y": 0.9879552375,
				"z": -0.95798326,
				"element": "C" 
			},
			{
				"x": -3.3699112099,
				"y": 1.8466170263,
				"z": -1.9565403215,
				"element": "C" 
			},
			{
				"x": -1.4045586664,
				"y": 0.498580428,
				"z": -1.1700518571,
				"element": "C" 
			},
			{
				"x": -0.7775706744,
				"y": -0.4062018498,
				"z": -0.1323034874,
				"element": "C" 
			},
			{
				"x": -1.1981639036,
				"y": -0.0278905904,
				"z": 1.2058665055,
				"element": "O" 
			},
			{
				"x": 0.7372460357,
				"y": -0.3883244654,
				"z": -0.1582539529,
				"element": "C" 
			},
			{
				"x": 1.4402667044,
				"y": -1.4231020897,
				"z": -0.7823885697,
				"element": "C" 
			},
			{
				"x": 2.8344856813,
				"y": -1.3900926008,
				"z": -0.858981941,
				"element": "C" 
			},
			{
				"x": 3.5387622978,
				"y": -0.3229441428,
				"z": -0.3007480973,
				"element": "C" 
			},
			{
				"x": 2.8422205844,
				"y": 0.7108271934,
				"z": 0.3310844188,
				"element": "C" 
			},
			{
				"x": 1.4498405225,
				"y": 0.6814642357,
				"z": 0.3972696612,
				"element": "C" 
			},
			{
				"x": -2.8516827818,
				"y": -0.8511301032,
				"z": 3.1530822482,
				"element": "H" 
			},
			{
				"x": -2.3025228155,
				"y": 0.7996434213,
				"z": 3.4274000374,
				"element": "H" 
			},
			{
				"x": -3.9812115097,
				"y": 0.5066023009,
				"z": 2.9161451527,
				"element": "H" 
			},
			{
				"x": -4.3093180449,
				"y": 0.9879912936,
				"z": 0.5037166654,
				"element": "H" 
			},
			{
				"x": -3.5865367792,
				"y": 2.8394671776,
				"z": -1.5434639337,
				"element": "H" 
			},
			{
				"x": -4.3353351458,
				"y": 1.3975542704,
				"z": -2.2220838252,
				"element": "H" 
			},
			{
				"x": -2.7911847497,
				"y": 1.9761194454,
				"z": -2.8748777237,
				"element": "H" 
			},
			{
				"x": -0.8461941139,
				"y": 0.7024682319,
				"z": -2.0785141593,
				"element": "H" 
			},
			{
				"x": -1.119201589,
				"y": -1.4461479167,
				"z": -0.2873373307,
				"element": "H" 
			},
			{
				"x": 0.8944901653,
				"y": -2.2621313285,
				"z": -1.2076233876,
				"element": "H" 
			},
			{
				"x": 3.3682345766,
				"y": -2.2012975543,
				"z": -1.346167241,
				"element": "H" 
			},
			{
				"x": 4.6235698264,
				"y": -0.2979099735,
				"z": -0.3529769232,
				"element": "H" 
			},
			{
				"x": 3.3857030943,
				"y": 1.542038727,
				"z": 0.7718778574,
				"element": "H" 
			},
			{
				"x": 0.9047910697,
				"y": 1.4793763103,
				"z": 0.8911457982,
				"element": "H" 
			}
		],
		 "valence_orbital": [ 
			{
				"type": "occ",
				"energy": -0.30818,
				"method": "rhf"
			},
			{
				"type": "occ",
				"energy": -0.27366,
				"method": "rhf"
			},
			{
				"type": "occ",
				"energy": -0.24609,
				"method": "rhf"
			},
			{
				"type": "occ",
				"energy": -0.24053,
				"method": "rhf"
			},
			{
				"type": "occ",
				"energy": -0.19161,
				"method": "rhf"
			},
			{
				"type": "unocc",
				"energy": -0.01282,
				"method": "rhf"
			},
			{
				"type": "unocc",
				"energy": 0.00047,
				"method": "rhf"
			},
			{
				"type": "unocc",
				"energy": 0.00736,
				"method": "rhf"
			},
			{
				"type": "unocc",
				"energy": 0.07969,
				"method": "rhf"
			},
			{
				"type": "unocc",
				"energy": 0.09961,
				"method": "rhf"
			}
		],
		"cosmo_sigma_profile": { 
			"-0.025": 0.0,
			"-0.024": 0.0,
			"-0.023": 0.0,
			"-0.022": 0.0,
			"-0.021": 0.0,
			"-0.02": 0.0,
			"-0.019": 0.0,
			"-0.018": 0.0,
			"-0.017": 0.0,
			"-0.016": 0.0,
			"-0.015": 0.0,
			"-0.014": 0.0,
			"-0.013": 0.0,
			"-0.012": 0.0,
			"-0.011": 0.0,
			"-0.01": 0.0,
			"-0.009": 0.0,
			"-0.008": 0.0,
			"-0.007": 0.0,
			"-0.006": 4.28905678697,
			"-0.005": 16.7591474152,
			"-0.004": 27.3967017104,
			"-0.003": 26.4172898269,
			"-0.002": 24.1419596499,
			"-0.001": 25.3037942531,
			"0.0": 24.6502593426,
			"0.001": 16.5050406346,
			"0.002": 14.2317724035,
			"0.003": 14.4132785594,
			"0.004": 14.9547644691,
			"0.005": 16.342463343,
			"0.006": 14.8802218776,
			"0.007": 2.32579964328,
			"0.008": 1.21934117854,
			"0.009": 1.25561604443,
			"0.01": 1.0388737796,
			"0.011": 0.413630101965,
			"0.012": 0.0,
			"0.013": 0.0,
			"0.014": 0.0,
			"0.015": 0.0,
			"0.016": 0.0,
			"0.017": 0.0,
			"0.018": 0.0,
			"0.019": 0.0,
			"0.02": 0.0,
			"0.021": 0.0,
			"0.022": 0.0,
			"0.023": 0.0,
			"0.024": 0.0,
			"0.025": 0.0
		}
	}
}
