{
	 "smiles": "OC(=O)COC1=C(Br)C=C(Cl)C=C1", 
	 "Tm": 397.15, 
	 "num_atms": 19, 
	 "gaussian": { 
		 "optdone": 1, 
		 "sigma_profile": "yes", 
		 "theory": "DFT", 
		 "functional": "B3LYP", 
		 "basiset": "6-31G**", 
		 "properties": { 
			 "R2extent": 5196.8728, 
			 "electric_dipole_moment_norm": 4.09588693814, 
			 "electric_quadrupole_moment_norm": 19.2450735826, 
			 "total_energy": -3565.71327343, 
			 "HOMO_LUMO_gap": 0.21606, 
			 "cosmo_polarized_energy": -19.09, 
			 "cosmo_cavitation_energy": 28.69, 
			 "cosmo_dispersion_energy": -21.04, 
			 "cosmo_repulsion_energy": 1.7, 
			 "cosmo_total_nonelectrostatic_energy": 9.35, 
			 "SMD_solvation_energy": 5.11 
		},
		"coords": [
			{
				"x": -1.1364285443,
				"y": 1.1167549939,
				"z": -3.3604220722,
				"element": "O" 
			},
			{
				"x": -0.3963198023,
				"y": 0.2643342515,
				"z": -2.6010564489,
				"element": "C" 
			},
			{
				"x": 0.060910677,
				"y": -0.7426695743,
				"z": -3.0632476216,
				"element": "O" 
			},
			{
				"x": -0.1956603878,
				"y": 0.7416494349,
				"z": -1.1631391253,
				"element": "C" 
			},
			{
				"x": 0.4279535095,
				"y": -0.2925095057,
				"z": -0.4251909864,
				"element": "O" 
			},
			{
				"x": 0.9501683242,
				"y": 0.0768884607,
				"z": 0.7898648589,
				"element": "C" 
			},
			{
				"x": 0.1661309051,
				"y": 0.1536021578,
				"z": 1.949421076,
				"element": "C" 
			},
			{
				"x": -1.7026512901,
				"y": -0.2097345983,
				"z": 1.8650981695,
				"element": "Br" 
			},
			{
				"x": 0.7359316685,
				"y": 0.4748322148,
				"z": 3.18031279,
				"element": "C" 
			},
			{
				"x": 2.1072083693,
				"y": 0.7181907517,
				"z": 3.2469517409,
				"element": "C" 
			},
			{
				"x": 2.8272793755,
				"y": 1.1224999556,
				"z": 4.7944382923,
				"element": "Cl" 
			},
			{
				"x": 2.9111894922,
				"y": 0.6389129371,
				"z": 2.1101064049,
				"element": "C" 
			},
			{
				"x": 2.3230496943,
				"y": 0.3195556056,
				"z": 0.8885283226,
				"element": "C" 
			},
			{
				"x": -1.4663456423,
				"y": 1.8590493294,
				"z": -2.8328022242,
				"element": "H" 
			},
			{
				"x": 0.4307601034,
				"y": 1.6470052161,
				"z": -1.1830895344,
				"element": "H" 
			},
			{
				"x": -1.1660552387,
				"y": 1.0125236856,
				"z": -0.7215878922,
				"element": "H" 
			},
			{
				"x": 0.1216436724,
				"y": 0.5285577329,
				"z": 4.0703632062,
				"element": "H" 
			},
			{
				"x": 3.9771837736,
				"y": 0.8216434145,
				"z": 2.1812403979,
				"element": "H" 
			},
			{
				"x": 2.9222513407,
				"y": 0.2363135362,
				"z": -0.0123893541,
				"element": "H" 
			}
		],
		 "valence_orbital": [ 
			{
				"type": "occ",
				"energy": -0.30494,
				"method": "rhf"
			},
			{
				"type": "occ",
				"energy": -0.30356,
				"method": "rhf"
			},
			{
				"type": "occ",
				"energy": -0.28404,
				"method": "rhf"
			},
			{
				"type": "occ",
				"energy": -0.2708,
				"method": "rhf"
			},
			{
				"type": "occ",
				"energy": -0.25341,
				"method": "rhf"
			},
			{
				"type": "unocc",
				"energy": -0.03735,
				"method": "rhf"
			},
			{
				"type": "unocc",
				"energy": -0.03115,
				"method": "rhf"
			},
			{
				"type": "unocc",
				"energy": -0.01892,
				"method": "rhf"
			},
			{
				"type": "unocc",
				"energy": -0.00023,
				"method": "rhf"
			},
			{
				"type": "unocc",
				"energy": 0.03135,
				"method": "rhf"
			}
		],
		"cosmo_sigma_profile": { 
			"-0.025": 0.0,
			"-0.024": 0.0,
			"-0.023": 0.0,
			"-0.022": 0.0,
			"-0.021": 0.00429472251508,
			"-0.02": 0.81472047866,
			"-0.019": 1.04366042451,
			"-0.018": 1.4074905779,
			"-0.017": 1.31352079686,
			"-0.016": 1.43529691581,
			"-0.015": 0.950185239382,
			"-0.014": 0.814661155352,
			"-0.013": 1.42915419074,
			"-0.012": 1.2347613876,
			"-0.011": 1.45284693457,
			"-0.01": 1.99675350035,
			"-0.009": 2.62236004784,
			"-0.008": 7.1170717714,
			"-0.007": 9.34106869871,
			"-0.006": 8.9933035202,
			"-0.005": 9.79284701491,
			"-0.004": 10.0341784955,
			"-0.003": 10.5378304866,
			"-0.002": 9.45239767382,
			"-0.001": 13.6821811458,
			"0.0": 18.1852439498,
			"0.001": 27.3155098977,
			"0.002": 20.4423273821,
			"0.003": 14.740222244,
			"0.004": 18.658369006,
			"0.005": 5.97658532919,
			"0.006": 3.37440619461,
			"0.007": 2.82191053729,
			"0.008": 4.13035199517,
			"0.009": 4.70617597716,
			"0.01": 5.9688278319,
			"0.011": 6.30199175537,
			"0.012": 4.48822340828,
			"0.013": 1.81550719098,
			"0.014": 0.946047096958,
			"0.015": 0.00058531857347,
			"0.016": 0.0,
			"0.017": 0.0,
			"0.018": 0.0,
			"0.019": 0.0,
			"0.02": 0.0,
			"0.021": 0.0,
			"0.022": 0.0,
			"0.023": 0.0,
			"0.024": 0.0,
			"0.025": 0.0
		}
	}
}
