{
	 "smiles": "ClC1=CC=C(C=C1)C(=O)CC1=NC=CC=C1", 
	 "Tm": 373.15, 
	 "num_atms": 26, 
	 "gaussian": { 
		 "optdone": 1, 
		 "sigma_profile": "yes", 
		 "theory": "DFT", 
		 "functional": "B3LYP", 
		 "basiset": "6-31G**", 
		 "properties": { 
			 "R2extent": 5935.324, 
			 "electric_dipole_moment_norm": 2.58163391866, 
			 "electric_quadrupole_moment_norm": 6.92472107886, 
			 "total_energy": -1091.58046508, 
			 "HOMO_LUMO_gap": 0.18168, 
			 "cosmo_polarized_energy": -9.03, 
			 "cosmo_cavitation_energy": 32.57, 
			 "cosmo_dispersion_energy": -23.32, 
			 "cosmo_repulsion_energy": 1.81, 
			 "cosmo_total_nonelectrostatic_energy": 11.06, 
			 "SMD_solvation_energy": 4.78 
		},
		"coords": [
			{
				"x": 2.5894019575,
				"y": 3.8280174607,
				"z": 4.2217718427,
				"element": "Cl" 
			},
			{
				"x": 2.28769327,
				"y": 2.5201990443,
				"z": 3.0909599219,
				"element": "C" 
			},
			{
				"x": 1.0385076039,
				"y": 1.9001384859,
				"z": 3.0805284584,
				"element": "C" 
			},
			{
				"x": 0.8046531536,
				"y": 0.8556503801,
				"z": 2.1871228103,
				"element": "C" 
			},
			{
				"x": 1.8111916458,
				"y": 0.4380261776,
				"z": 1.3022479596,
				"element": "C" 
			},
			{
				"x": 3.0561437772,
				"y": 1.0882231794,
				"z": 1.3252462403,
				"element": "C" 
			},
			{
				"x": 3.3042015688,
				"y": 2.1241343217,
				"z": 2.2173870376,
				"element": "C" 
			},
			{
				"x": 1.6222027926,
				"y": -0.6741264224,
				"z": 0.3205911849,
				"element": "C" 
			},
			{
				"x": 2.4737228689,
				"y": -0.9222790315,
				"z": -0.5208069559,
				"element": "O" 
			},
			{
				"x": 0.3358591711,
				"y": -1.5098079229,
				"z": 0.3633392798,
				"element": "C" 
			},
			{
				"x": -0.8047435717,
				"y": -0.8318889085,
				"z": -0.3760136887,
				"element": "C" 
			},
			{
				"x": -1.8020152914,
				"y": -0.333350421,
				"z": 0.3705504565,
				"element": "N" 
			},
			{
				"x": -2.818716476,
				"y": 0.2696708336,
				"z": -0.2598935624,
				"element": "C" 
			},
			{
				"x": -2.8942661358,
				"y": 0.4099604626,
				"z": -1.6447598437,
				"element": "C" 
			},
			{
				"x": -1.8493128564,
				"y": -0.100854513,
				"z": -2.4157798552,
				"element": "C" 
			},
			{
				"x": -0.7867335043,
				"y": -0.730967341,
				"z": -1.7739540862,
				"element": "C" 
			},
			{
				"x": 0.2620292344,
				"y": 2.2315589635,
				"z": 3.7608204797,
				"element": "H" 
			},
			{
				"x": -0.1771338952,
				"y": 0.3932848925,
				"z": 2.162843387,
				"element": "H" 
			},
			{
				"x": 3.8209831518,
				"y": 0.7592500476,
				"z": 0.6297896312,
				"element": "H" 
			},
			{
				"x": 4.2666796795,
				"y": 2.6229491272,
				"z": 2.2419573943,
				"element": "H" 
			},
			{
				"x": 0.0179081913,
				"y": -1.7046278121,
				"z": 1.3894569593,
				"element": "H" 
			},
			{
				"x": 0.5823956198,
				"y": -2.4593765265,
				"z": -0.1187446486,
				"element": "H" 
			},
			{
				"x": -3.6107769224,
				"y": 0.6582169296,
				"z": 0.3777448803,
				"element": "H" 
			},
			{
				"x": -3.7444360134,
				"y": 0.9065175003,
				"z": -2.1011954211,
				"element": "H" 
			},
			{
				"x": -1.8625282248,
				"y": -0.0104213774,
				"z": -3.4981713242,
				"element": "H" 
			},
			{
				"x": 0.0502892054,
				"y": -1.1373975302,
				"z": -2.332938538,
				"element": "H" 
			}
		],
		 "valence_orbital": [ 
			{
				"type": "occ",
				"energy": -0.27309,
				"method": "rhf"
			},
			{
				"type": "occ",
				"energy": -0.2696,
				"method": "rhf"
			},
			{
				"type": "occ",
				"energy": -0.26499,
				"method": "rhf"
			},
			{
				"type": "occ",
				"energy": -0.253,
				"method": "rhf"
			},
			{
				"type": "occ",
				"energy": -0.2472,
				"method": "rhf"
			},
			{
				"type": "unocc",
				"energy": -0.06552,
				"method": "rhf"
			},
			{
				"type": "unocc",
				"energy": -0.03062,
				"method": "rhf"
			},
			{
				"type": "unocc",
				"energy": -0.02047,
				"method": "rhf"
			},
			{
				"type": "unocc",
				"energy": -0.01687,
				"method": "rhf"
			},
			{
				"type": "unocc",
				"energy": 0.02621,
				"method": "rhf"
			}
		],
		"cosmo_sigma_profile": { 
			"-0.025": 0.0,
			"-0.024": 0.0,
			"-0.023": 0.0,
			"-0.022": 0.0,
			"-0.021": 0.0,
			"-0.02": 0.0,
			"-0.019": 0.0,
			"-0.018": 0.0,
			"-0.017": 0.0,
			"-0.016": 0.0,
			"-0.015": 0.0,
			"-0.014": 0.0,
			"-0.013": 0.0,
			"-0.012": 0.0,
			"-0.011": 0.0,
			"-0.01": 0.0,
			"-0.009": 0.0,
			"-0.008": 1.68118809047,
			"-0.007": 8.87139233701,
			"-0.006": 17.3687525887,
			"-0.005": 19.4719096611,
			"-0.004": 17.4471438789,
			"-0.003": 16.3612175769,
			"-0.002": 17.3933441685,
			"-0.001": 17.3838979,
			"0.0": 21.507011403,
			"0.001": 28.7860054763,
			"0.002": 35.2132758044,
			"0.003": 21.2980386705,
			"0.004": 15.7155925659,
			"0.005": 4.88671912054,
			"0.006": 2.58543213488,
			"0.007": 2.34276294026,
			"0.008": 2.41777155352,
			"0.009": 2.43243720073,
			"0.01": 2.57666486791,
			"0.011": 4.03670075984,
			"0.012": 3.15652738478,
			"0.013": 1.0272971849,
			"0.014": 0.191816392088,
			"0.015": 0.0,
			"0.016": 0.0,
			"0.017": 0.0,
			"0.018": 0.0,
			"0.019": 0.0,
			"0.02": 0.0,
			"0.021": 0.0,
			"0.022": 0.0,
			"0.023": 0.0,
			"0.024": 0.0,
			"0.025": 0.0
		}
	}
}
