{
	 "smiles": "C1NCC2=CC=CC=C12", 
	 "Tm": 290.15, 
	 "num_atms": 18, 
	 "gaussian": { 
		 "optdone": 1, 
		 "sigma_profile": "yes", 
		 "theory": "DFT", 
		 "functional": "B3LYP", 
		 "basiset": "6-31G**", 
		 "properties": { 
			 "R2extent": 1358.2417, 
			 "electric_dipole_moment_norm": 1.06842120439, 
			 "electric_quadrupole_moment_norm": 6.06756946149, 
			 "total_energy": -365.016409392, 
			 "HOMO_LUMO_gap": 0.22613, 
			 "cosmo_polarized_energy": -6.14, 
			 "cosmo_cavitation_energy": 20.47, 
			 "cosmo_dispersion_energy": -15.71, 
			 "cosmo_repulsion_energy": 1.29, 
			 "cosmo_total_nonelectrostatic_energy": 6.04, 
			 "SMD_solvation_energy": 0.11 
		},
		"coords": [
			{
				"x": 2.1695628326,
				"y": 0.6517235243,
				"z": -1.3595992205,
				"element": "C" 
			},
			{
				"x": 3.1417203283,
				"y": 1.2668229786,
				"z": -0.4248194075,
				"element": "N" 
			},
			{
				"x": 2.3434253388,
				"y": 1.8340167211,
				"z": 0.6879418636,
				"element": "C" 
			},
			{
				"x": 1.0415555173,
				"y": 1.0523271045,
				"z": 0.6875870907,
				"element": "C" 
			},
			{
				"x": 0.02698145,
				"y": 0.9787033327,
				"z": 1.6382941403,
				"element": "C" 
			},
			{
				"x": -1.0928516649,
				"y": 0.183060986,
				"z": 1.3699294134,
				"element": "C" 
			},
			{
				"x": -1.1953800332,
				"y": -0.5141671171,
				"z": 0.162438504,
				"element": "C" 
			},
			{
				"x": -0.1797836724,
				"y": -0.427351366,
				"z": -0.7967974906,
				"element": "C" 
			},
			{
				"x": 0.9389249661,
				"y": 0.3543895728,
				"z": -0.5211382758,
				"element": "C" 
			},
			{
				"x": 1.9236366955,
				"y": 1.3646938687,
				"z": -2.1608211033,
				"element": "H" 
			},
			{
				"x": 2.6026837434,
				"y": -0.2305662858,
				"z": -1.8426258029,
				"element": "H" 
			},
			{
				"x": 3.7052941434,
				"y": 0.5138999583,
				"z": -0.0379271752,
				"element": "H" 
			},
			{
				"x": 2.8976235134,
				"y": 1.7749989143,
				"z": 1.6306644856,
				"element": "H" 
			},
			{
				"x": 2.1494976481,
				"y": 2.900532906,
				"z": 0.4990040052,
				"element": "H" 
			},
			{
				"x": 0.0999622551,
				"y": 1.5213262215,
				"z": 2.5776705068,
				"element": "H" 
			},
			{
				"x": -1.887332372,
				"y": 0.1036897328,
				"z": 2.10674647,
				"element": "H" 
			},
			{
				"x": -2.06884826,
				"y": -1.1306516009,
				"z": -0.0309453474,
				"element": "H" 
			},
			{
				"x": -0.2662724297,
				"y": -0.9691494517,
				"z": -1.7355026563,
				"element": "H" 
			}
		],
		 "valence_orbital": [ 
			{
				"type": "occ",
				"energy": -0.3409,
				"method": "rhf"
			},
			{
				"type": "occ",
				"energy": -0.3305,
				"method": "rhf"
			},
			{
				"type": "occ",
				"energy": -0.24475,
				"method": "rhf"
			},
			{
				"type": "occ",
				"energy": -0.23382,
				"method": "rhf"
			},
			{
				"type": "occ",
				"energy": -0.22734,
				"method": "rhf"
			},
			{
				"type": "unocc",
				"energy": -0.00121,
				"method": "rhf"
			},
			{
				"type": "unocc",
				"energy": 0.00673,
				"method": "rhf"
			},
			{
				"type": "unocc",
				"energy": 0.08666,
				"method": "rhf"
			},
			{
				"type": "unocc",
				"energy": 0.10145,
				"method": "rhf"
			},
			{
				"type": "unocc",
				"energy": 0.13838,
				"method": "rhf"
			}
		],
		"cosmo_sigma_profile": { 
			"-0.025": 0.0,
			"-0.024": 0.0,
			"-0.023": 0.0,
			"-0.022": 0.0,
			"-0.021": 0.0,
			"-0.02": 0.0,
			"-0.019": 0.0,
			"-0.018": 0.0,
			"-0.017": 0.0,
			"-0.016": 0.0,
			"-0.015": 0.0,
			"-0.014": 0.0,
			"-0.013": 0.0,
			"-0.012": 0.0,
			"-0.011": 0.0329637564607,
			"-0.01": 1.28634845638,
			"-0.009": 1.48898208618,
			"-0.008": 1.4622087438,
			"-0.007": 1.44803569187,
			"-0.006": 3.35870622909,
			"-0.005": 13.8774055616,
			"-0.004": 15.1907239838,
			"-0.003": 20.1018728792,
			"-0.002": 17.058966247,
			"-0.001": 14.9620994101,
			"0.0": 9.69005600145,
			"0.001": 9.19839050045,
			"0.002": 6.8608401705,
			"0.003": 8.6842228549,
			"0.004": 8.14599804389,
			"0.005": 8.02802280374,
			"0.006": 8.68289634928,
			"0.007": 4.7321905485,
			"0.008": 0.909526512875,
			"0.009": 1.03403345559,
			"0.01": 0.322459316924,
			"0.011": 0.566177431016,
			"0.012": 0.394690021766,
			"0.013": 0.772939507406,
			"0.014": 1.26023140257,
			"0.015": 0.217054945745,
			"0.016": 0.829594385711,
			"0.017": 0.163494537043,
			"0.018": 0.914772386736,
			"0.019": 0.342603514402,
			"0.02": 0.0,
			"0.021": 0.0,
			"0.022": 0.0,
			"0.023": 0.0,
			"0.024": 0.0,
			"0.025": 0.0
		}
	}
}
