{
	 "smiles": "OC1=CC=C(NC2=CC=C(O)C=C2)C=C1", 
	 "Tm": 447.15, 
	 "num_atms": 26, 
	 "gaussian": { 
		 "optdone": 1, 
		 "sigma_profile": "yes", 
		 "theory": "DFT", 
		 "functional": "B3LYP", 
		 "basiset": "6-31G**", 
		 "properties": { 
			 "R2extent": 4807.554, 
			 "electric_dipole_moment_norm": 1.79792474259, 
			 "electric_quadrupole_moment_norm": 17.0397723154, 
			 "total_energy": -669.093650791, 
			 "HOMO_LUMO_gap": 0.16768, 
			 "cosmo_polarized_energy": -16.58, 
			 "cosmo_cavitation_energy": 30.3, 
			 "cosmo_dispersion_energy": -22.46, 
			 "cosmo_repulsion_energy": 1.75, 
			 "cosmo_total_nonelectrostatic_energy": 9.58, 
			 "SMD_solvation_energy": 5.51 
		},
		"coords": [
			{
				"x": -0.8660217878,
				"y": 1.7254677116,
				"z": 4.7290254315,
				"element": "O" 
			},
			{
				"x": -0.4669008785,
				"y": 1.3235409666,
				"z": 3.4800184279,
				"element": "C" 
			},
			{
				"x": 0.5281642015,
				"y": 2.0722018734,
				"z": 2.8429812147,
				"element": "C" 
			},
			{
				"x": 0.9841418529,
				"y": 1.6983873407,
				"z": 1.5845532327,
				"element": "C" 
			},
			{
				"x": 0.4472019931,
				"y": 0.5846383205,
				"z": 0.9125188868,
				"element": "C" 
			},
			{
				"x": 0.918386409,
				"y": 0.2837620483,
				"z": -0.3747699139,
				"element": "N" 
			},
			{
				"x": 0.8135661372,
				"y": -0.9219759829,
				"z": -1.0820563488,
				"element": "C" 
			},
			{
				"x": 0.8588576497,
				"y": -2.1778960943,
				"z": -0.4485144754,
				"element": "C" 
			},
			{
				"x": 0.7947307033,
				"y": -3.3536400029,
				"z": -1.1890128101,
				"element": "C" 
			},
			{
				"x": 0.7096443307,
				"y": -3.3108514225,
				"z": -2.5843175217,
				"element": "C" 
			},
			{
				"x": 0.6564279902,
				"y": -4.5046752894,
				"z": -3.2567589692,
				"element": "O" 
			},
			{
				"x": 0.6860438639,
				"y": -2.0707953629,
				"z": -3.2270087983,
				"element": "C" 
			},
			{
				"x": 0.7244029781,
				"y": -0.8927011213,
				"z": -2.4824148797,
				"element": "C" 
			},
			{
				"x": -0.5643511004,
				"y": -0.1475764984,
				"z": 1.5525391749,
				"element": "C" 
			},
			{
				"x": -1.0053471314,
				"y": 0.2131621919,
				"z": 2.8264402765,
				"element": "C" 
			},
			{
				"x": -1.5549679284,
				"y": 1.1270238912,
				"z": 5.044511235,
				"element": "H" 
			},
			{
				"x": 0.944298138,
				"y": 2.9352931255,
				"z": 3.3522802466,
				"element": "H" 
			},
			{
				"x": 1.773667554,
				"y": 2.275155243,
				"z": 1.1088694906,
				"element": "H" 
			},
			{
				"x": 1.2450442836,
				"y": 1.0734104792,
				"z": -0.9099800772,
				"element": "H" 
			},
			{
				"x": 0.9625717023,
				"y": -2.2321336379,
				"z": 0.6293824738,
				"element": "H" 
			},
			{
				"x": 0.8285900894,
				"y": -4.3200089753,
				"z": -0.6963396624,
				"element": "H" 
			},
			{
				"x": 0.6008900961,
				"y": -4.3282790944,
				"z": -4.2044301559,
				"element": "H" 
			},
			{
				"x": 0.6226550836,
				"y": -2.0187099317,
				"z": -4.3122079913,
				"element": "H" 
			},
			{
				"x": 0.6832384368,
				"y": 0.0649159749,
				"z": -2.9957097053,
				"element": "H" 
			},
			{
				"x": -1.0218690043,
				"y": -0.9927122886,
				"z": 1.0513232722,
				"element": "H" 
			},
			{
				"x": -1.7893656625,
				"y": -0.3717034644,
				"z": 3.3039779458,
				"element": "H" 
			}
		],
		 "valence_orbital": [ 
			{
				"type": "occ",
				"energy": -0.28152,
				"method": "rhf"
			},
			{
				"type": "occ",
				"energy": -0.25029,
				"method": "rhf"
			},
			{
				"type": "occ",
				"energy": -0.24799,
				"method": "rhf"
			},
			{
				"type": "occ",
				"energy": -0.22081,
				"method": "rhf"
			},
			{
				"type": "occ",
				"energy": -0.17088,
				"method": "rhf"
			},
			{
				"type": "unocc",
				"energy": -0.0032,
				"method": "rhf"
			},
			{
				"type": "unocc",
				"energy": 0.0015,
				"method": "rhf"
			},
			{
				"type": "unocc",
				"energy": 0.00937,
				"method": "rhf"
			},
			{
				"type": "unocc",
				"energy": 0.04505,
				"method": "rhf"
			},
			{
				"type": "unocc",
				"energy": 0.07399,
				"method": "rhf"
			}
		],
		"cosmo_sigma_profile": { 
			"-0.025": 0.0,
			"-0.024": 0.0,
			"-0.023": 0.0,
			"-0.022": 0.0,
			"-0.021": 0.0,
			"-0.02": 0.0,
			"-0.019": 0.0,
			"-0.018": 0.137203367368,
			"-0.017": 1.83624457188,
			"-0.016": 2.27695704269,
			"-0.015": 1.39525905176,
			"-0.014": 2.20903612871,
			"-0.013": 3.43193798604,
			"-0.012": 2.7306562971,
			"-0.011": 3.54637718525,
			"-0.01": 2.9079068182,
			"-0.009": 3.77043176047,
			"-0.008": 4.39889478448,
			"-0.007": 4.79071055215,
			"-0.006": 8.95472578534,
			"-0.005": 12.7902088325,
			"-0.004": 14.337247751,
			"-0.003": 14.4634651769,
			"-0.002": 11.4016275778,
			"-0.001": 11.8909688134,
			"0.0": 9.06733867194,
			"0.001": 11.7231298933,
			"0.002": 10.9504386377,
			"0.003": 12.9773021762,
			"0.004": 20.7937794019,
			"0.005": 24.1415891059,
			"0.006": 22.4899714007,
			"0.007": 5.53463767635,
			"0.008": 3.37558361482,
			"0.009": 2.46568258223,
			"0.01": 2.93634817684,
			"0.011": 3.93406783569,
			"0.012": 3.4230483373,
			"0.013": 0.253410484126,
			"0.014": 0.0,
			"0.015": 0.0,
			"0.016": 0.0,
			"0.017": 0.0,
			"0.018": 0.0,
			"0.019": 0.0,
			"0.02": 0.0,
			"0.021": 0.0,
			"0.022": 0.0,
			"0.023": 0.0,
			"0.024": 0.0,
			"0.025": 0.0
		}
	}
}
