{
	 "smiles": "CCOC(=O)C1=C(C)N(C2CC2)C(C)=C1C=O", 
	 "Tm": 350.65, 
	 "num_atms": 34, 
	 "gaussian": { 
		 "optdone": 1, 
		 "sigma_profile": "yes", 
		 "theory": "DFT", 
		 "functional": "B3LYP", 
		 "basiset": "6-31G**", 
		 "properties": { 
			 "R2extent": 5080.5364, 
			 "electric_dipole_moment_norm": 6.95133647653, 
			 "electric_quadrupole_moment_norm": 22.188775708, 
			 "total_energy": -786.037747683, 
			 "HOMO_LUMO_gap": 0.18065, 
			 "cosmo_polarized_energy": -14.52, 
			 "cosmo_cavitation_energy": 36.06, 
			 "cosmo_dispersion_energy": -25.36, 
			 "cosmo_repulsion_energy": 1.97, 
			 "cosmo_total_nonelectrostatic_energy": 12.67, 
			 "SMD_solvation_energy": 7.6 
		},
		"coords": [
			{
				"x": 0.8045306542,
				"y": 0.9210661048,
				"z": -4.8922873591,
				"element": "C" 
			},
			{
				"x": 0.06538069,
				"y": 1.9801000411,
				"z": -4.0875428576,
				"element": "C" 
			},
			{
				"x": 0.011033213,
				"y": 1.6354338285,
				"z": -2.683690976,
				"element": "O" 
			},
			{
				"x": -1.0032642311,
				"y": 0.8091213193,
				"z": -2.3054415971,
				"element": "C" 
			},
			{
				"x": -1.8149845505,
				"y": 0.3716851117,
				"z": -3.1045042109,
				"element": "O" 
			},
			{
				"x": -0.9931639083,
				"y": 0.5111009961,
				"z": -0.8661115296,
				"element": "C" 
			},
			{
				"x": -0.1906526951,
				"y": 1.084884435,
				"z": 0.11089998,
				"element": "C" 
			},
			{
				"x": 0.8178682929,
				"y": 2.1895234578,
				"z": 0.0360927216,
				"element": "C" 
			},
			{
				"x": -0.5076363708,
				"y": 0.4705932117,
				"z": 1.3159459728,
				"element": "N" 
			},
			{
				"x": 0.0555293639,
				"y": 0.8172416735,
				"z": 2.5986317889,
				"element": "C" 
			},
			{
				"x": 0.6909092245,
				"y": -0.253490084,
				"z": 3.452948819,
				"element": "C" 
			},
			{
				"x": 1.551424719,
				"y": 0.7912206362,
				"z": 2.8005936543,
				"element": "C" 
			},
			{
				"x": -1.5260828968,
				"y": -0.4500518571,
				"z": 1.1341888823,
				"element": "C" 
			},
			{
				"x": -2.1347743225,
				"y": -1.2169482215,
				"z": 2.2636236353,
				"element": "C" 
			},
			{
				"x": -1.8482729353,
				"y": -0.4611791665,
				"z": -0.2154701261,
				"element": "C" 
			},
			{
				"x": -2.8766448281,
				"y": -1.3060471883,
				"z": -0.838180473,
				"element": "C" 
			},
			{
				"x": -3.5680800626,
				"y": -2.1202880007,
				"z": -0.2349450062,
				"element": "O" 
			},
			{
				"x": 0.2559155929,
				"y": -0.0233661398,
				"z": -4.8751645468,
				"element": "H" 
			},
			{
				"x": 0.9000882499,
				"y": 1.2450604429,
				"z": -5.934180086,
				"element": "H" 
			},
			{
				"x": 1.808839122,
				"y": 0.7562816499,
				"z": -4.4904782397,
				"element": "H" 
			},
			{
				"x": 0.5914509017,
				"y": 2.9380249382,
				"z": -4.1109514199,
				"element": "H" 
			},
			{
				"x": -0.9526416796,
				"y": 2.1156518607,
				"z": -4.4596333372,
				"element": "H" 
			},
			{
				"x": 0.8269774286,
				"y": 2.7798640776,
				"z": 0.9554286882,
				"element": "H" 
			},
			{
				"x": 1.8347570813,
				"y": 1.8101143686,
				"z": -0.124150985,
				"element": "H" 
			},
			{
				"x": 0.5860745744,
				"y": 2.8422227938,
				"z": -0.8032749217,
				"element": "H" 
			},
			{
				"x": -0.4956796156,
				"y": 1.5960345033,
				"z": 3.1226749329,
				"element": "H" 
			},
			{
				"x": 0.5173123862,
				"y": -0.2083379877,
				"z": 4.523190809,
				"element": "H" 
			},
			{
				"x": 0.7380799439,
				"y": -1.2566503202,
				"z": 3.044341565,
				"element": "H" 
			},
			{
				"x": 1.9877833901,
				"y": 1.5771984514,
				"z": 3.4087025565,
				"element": "H" 
			},
			{
				"x": 2.1643852855,
				"y": 0.4754725657,
				"z": 1.9636192948,
				"element": "H" 
			},
			{
				"x": -2.3765451765,
				"y": -0.5642434158,
				"z": 3.1094182515,
				"element": "H" 
			},
			{
				"x": -3.0399314022,
				"y": -1.7003682335,
				"z": 1.8991473623,
				"element": "H" 
			},
			{
				"x": -1.4651845319,
				"y": -2.000101827,
				"z": 2.6384239685,
				"element": "H" 
			},
			{
				"x": -2.9992009073,
				"y": -1.157424026,
				"z": -1.9230652111,
				"element": "H" 
			}
		],
		 "valence_orbital": [ 
			{
				"type": "occ",
				"energy": -0.29178,
				"method": "rhf"
			},
			{
				"type": "occ",
				"energy": -0.27006,
				"method": "rhf"
			},
			{
				"type": "occ",
				"energy": -0.24928,
				"method": "rhf"
			},
			{
				"type": "occ",
				"energy": -0.2236,
				"method": "rhf"
			},
			{
				"type": "occ",
				"energy": -0.21529,
				"method": "rhf"
			},
			{
				"type": "unocc",
				"energy": -0.03464,
				"method": "rhf"
			},
			{
				"type": "unocc",
				"energy": -0.01011,
				"method": "rhf"
			},
			{
				"type": "unocc",
				"energy": 0.06569,
				"method": "rhf"
			},
			{
				"type": "unocc",
				"energy": 0.0738,
				"method": "rhf"
			},
			{
				"type": "unocc",
				"energy": 0.08297,
				"method": "rhf"
			}
		],
		"cosmo_sigma_profile": { 
			"-0.025": 0.0,
			"-0.024": 0.0,
			"-0.023": 0.0,
			"-0.022": 0.0,
			"-0.021": 0.0,
			"-0.02": 0.0,
			"-0.019": 0.0,
			"-0.018": 0.0,
			"-0.017": 0.0,
			"-0.016": 0.0,
			"-0.015": 0.0,
			"-0.014": 0.0,
			"-0.013": 0.0,
			"-0.012": 0.0,
			"-0.011": 0.0,
			"-0.01": 0.0,
			"-0.009": 0.0,
			"-0.008": 0.0,
			"-0.007": 1.35654715681,
			"-0.006": 11.1633402813,
			"-0.005": 22.5544129546,
			"-0.004": 27.2138646648,
			"-0.003": 27.2204839496,
			"-0.002": 29.6397640885,
			"-0.001": 35.2033670661,
			"0.0": 33.49087524,
			"0.001": 19.2565795356,
			"0.002": 15.5131803232,
			"0.003": 14.1123039575,
			"0.004": 9.05369650054,
			"0.005": 5.42438967777,
			"0.006": 5.23291688062,
			"0.007": 4.08884993203,
			"0.008": 2.7474380542,
			"0.009": 3.6385412191,
			"0.01": 3.70092834103,
			"0.011": 3.84073392918,
			"0.012": 5.66416972763,
			"0.013": 3.05655529274,
			"0.014": 1.33353429731,
			"0.015": 0.140852638721,
			"0.016": 0.0,
			"0.017": 0.0,
			"0.018": 0.0,
			"0.019": 0.0,
			"0.02": 0.0,
			"0.021": 0.0,
			"0.022": 0.0,
			"0.023": 0.0,
			"0.024": 0.0,
			"0.025": 0.0
		}
	}
}
