{
	 "smiles": "CSC1=C(F)C=C(N)C=C1F", 
	 "Tm": 365.15, 
	 "num_atms": 18, 
	 "gaussian": { 
		 "optdone": 1, 
		 "sigma_profile": "yes", 
		 "theory": "DFT", 
		 "functional": "B3LYP", 
		 "basiset": "6-31G**", 
		 "properties": { 
			 "R2extent": 2421.3845, 
			 "electric_dipole_moment_norm": 4.43742768955, 
			 "electric_quadrupole_moment_norm": 17.8388519429, 
			 "total_energy": -923.571616412, 
			 "HOMO_LUMO_gap": 0.19896, 
			 "cosmo_polarized_energy": -11.06, 
			 "cosmo_cavitation_energy": 24.37, 
			 "cosmo_dispersion_energy": -18.14, 
			 "cosmo_repulsion_energy": 1.38, 
			 "cosmo_total_nonelectrostatic_energy": 7.61, 
			 "SMD_solvation_energy": 5.21 
		},
		"coords": [
			{
				"x": 1.848676951,
				"y": 1.1853736974,
				"z": -1.7228926213,
				"element": "C" 
			},
			{
				"x": 0.1584026968,
				"y": 0.504713472,
				"z": -1.5136237247,
				"element": "S" 
			},
			{
				"x": -0.0235888579,
				"y": 0.5661379186,
				"z": 0.2535008289,
				"element": "C" 
			},
			{
				"x": -0.0507767787,
				"y": 1.766185973,
				"z": 0.9784208894,
				"element": "C" 
			},
			{
				"x": 0.1294312641,
				"y": 2.9227148888,
				"z": 0.3099551629,
				"element": "F" 
			},
			{
				"x": -0.2290973327,
				"y": 1.837803316,
				"z": 2.3499718458,
				"element": "C" 
			},
			{
				"x": -0.4219517138,
				"y": 0.6511466177,
				"z": 3.0801954565,
				"element": "C" 
			},
			{
				"x": -0.6688525887,
				"y": 0.6961951722,
				"z": 4.4441461705,
				"element": "N" 
			},
			{
				"x": -0.4117287493,
				"y": -0.5758642633,
				"z": 2.3956556456,
				"element": "C" 
			},
			{
				"x": -0.2118874134,
				"y": -0.5906492074,
				"z": 1.0230201301,
				"element": "C" 
			},
			{
				"x": -0.2025283458,
				"y": -1.7863774498,
				"z": 0.4102695403,
				"element": "F" 
			},
			{
				"x": 2.5888795454,
				"y": 0.5502475251,
				"z": -1.2322982042,
				"element": "H" 
			},
			{
				"x": 2.0405583247,
				"y": 1.197016369,
				"z": -2.7985370984,
				"element": "H" 
			},
			{
				"x": 1.9021259928,
				"y": 2.2036622225,
				"z": -1.3358486754,
				"element": "H" 
			},
			{
				"x": -0.2318438744,
				"y": 2.8089883309,
				"z": 2.8330869431,
				"element": "H" 
			},
			{
				"x": -0.3608058702,
				"y": 1.527423667,
				"z": 4.9270895285,
				"element": "H" 
			},
			{
				"x": -0.4848919864,
				"y": -0.1521126813,
				"z": 4.9596485812,
				"element": "H" 
			},
			{
				"x": -0.5599212633,
				"y": -1.5162055683,
				"z": 2.915639601,
				"element": "H" 
			}
		],
		 "valence_orbital": [ 
			{
				"type": "occ",
				"energy": -0.33033,
				"method": "rhf"
			},
			{
				"type": "occ",
				"energy": -0.29982,
				"method": "rhf"
			},
			{
				"type": "occ",
				"energy": -0.24656,
				"method": "rhf"
			},
			{
				"type": "occ",
				"energy": -0.23597,
				"method": "rhf"
			},
			{
				"type": "occ",
				"energy": -0.20598,
				"method": "rhf"
			},
			{
				"type": "unocc",
				"energy": -0.00702,
				"method": "rhf"
			},
			{
				"type": "unocc",
				"energy": 0.00046,
				"method": "rhf"
			},
			{
				"type": "unocc",
				"energy": 0.0487,
				"method": "rhf"
			},
			{
				"type": "unocc",
				"energy": 0.06517,
				"method": "rhf"
			},
			{
				"type": "unocc",
				"energy": 0.07973,
				"method": "rhf"
			}
		],
		"cosmo_sigma_profile": { 
			"-0.025": 0.0,
			"-0.024": 0.0,
			"-0.023": 0.0,
			"-0.022": 0.0,
			"-0.021": 0.0,
			"-0.02": 0.0,
			"-0.019": 0.0,
			"-0.018": 0.0,
			"-0.017": 0.0,
			"-0.016": 0.0,
			"-0.015": 0.0,
			"-0.014": 0.207507105495,
			"-0.013": 2.6353235211,
			"-0.012": 3.32140076457,
			"-0.011": 2.64971780655,
			"-0.01": 3.52354294393,
			"-0.009": 3.57035053987,
			"-0.008": 3.71207362172,
			"-0.007": 4.48309977694,
			"-0.006": 7.28227846491,
			"-0.005": 7.13784157906,
			"-0.004": 8.59066152893,
			"-0.003": 8.57344884679,
			"-0.002": 11.4145215516,
			"-0.001": 13.0108267997,
			"0.0": 11.8277609255,
			"0.001": 16.504633411,
			"0.002": 18.4301377185,
			"0.003": 17.5863456868,
			"0.004": 20.6825242305,
			"0.005": 9.61329586245,
			"0.006": 5.2201226442,
			"0.007": 4.85700815381,
			"0.008": 4.21861575615,
			"0.009": 3.10875823416,
			"0.01": 2.3481115986,
			"0.011": 0.845090586115,
			"0.012": 0.613115053484,
			"0.013": 0.215683916687,
			"0.014": 0.0,
			"0.015": 0.0,
			"0.016": 0.0,
			"0.017": 0.0,
			"0.018": 0.0,
			"0.019": 0.0,
			"0.02": 0.0,
			"0.021": 0.0,
			"0.022": 0.0,
			"0.023": 0.0,
			"0.024": 0.0,
			"0.025": 0.0
		}
	}
}
