{
	 "smiles": "NC1=CC(=CC=C1)S(=O)(=O)NCC1=CC=CO1", 
	 "Tm": 357.15, 
	 "num_atms": 29, 
	 "gaussian": { 
		 "optdone": 1, 
		 "sigma_profile": "yes", 
		 "theory": "DFT", 
		 "functional": "B3LYP", 
		 "basiset": "6-31G**", 
		 "properties": { 
			 "R2extent": 5595.071, 
			 "electric_dipole_moment_norm": 6.39233506162, 
			 "electric_quadrupole_moment_norm": 16.4135403323, 
			 "total_energy": -1159.66741267, 
			 "HOMO_LUMO_gap": 0.18737, 
			 "cosmo_polarized_energy": -19.91, 
			 "cosmo_cavitation_energy": 35.3, 
			 "cosmo_dispersion_energy": -25.54, 
			 "cosmo_repulsion_energy": 1.96, 
			 "cosmo_total_nonelectrostatic_energy": 11.72, 
			 "SMD_solvation_energy": 5.32 
		},
		"coords": [
			{
				"x": 2.4909774298,
				"y": -3.042872396,
				"z": -3.1648474746,
				"element": "N" 
			},
			{
				"x": 1.6377924623,
				"y": -1.9572601876,
				"z": -3.0016743386,
				"element": "C" 
			},
			{
				"x": 0.8342049054,
				"y": -1.8435950308,
				"z": -1.8561870429,
				"element": "C" 
			},
			{
				"x": -0.0554668264,
				"y": -0.7774855072,
				"z": -1.7471387999,
				"element": "C" 
			},
			{
				"x": -0.1922569166,
				"y": 0.190420691,
				"z": -2.7420166813,
				"element": "C" 
			},
			{
				"x": 0.6132950731,
				"y": 0.0716683817,
				"z": -3.8777770908,
				"element": "C" 
			},
			{
				"x": 1.515707502,
				"y": -0.9788914788,
				"z": -4.0085079998,
				"element": "C" 
			},
			{
				"x": -1.0579648369,
				"y": -0.6558314581,
				"z": -0.2641257201,
				"element": "S" 
			},
			{
				"x": -1.3418460043,
				"y": -2.0020985265,
				"z": 0.243425763,
				"element": "O" 
			},
			{
				"x": -2.1404909627,
				"y": 0.2983552964,
				"z": -0.5400264027,
				"element": "O" 
			},
			{
				"x": 0.0415052081,
				"y": -0.0024026812,
				"z": 0.8525005701,
				"element": "N" 
			},
			{
				"x": 0.1533915198,
				"y": 1.4731745802,
				"z": 0.8918518596,
				"element": "C" 
			},
			{
				"x": 1.0765638074,
				"y": 1.8873237752,
				"z": 1.9836794011,
				"element": "C" 
			},
			{
				"x": 2.2980347922,
				"y": 2.4910834354,
				"z": 2.0157499399,
				"element": "C" 
			},
			{
				"x": 2.6552420545,
				"y": 2.6190006092,
				"z": 3.3994255772,
				"element": "C" 
			},
			{
				"x": 1.6273407099,
				"y": 2.07688332,
				"z": 4.10624855,
				"element": "C" 
			},
			{
				"x": 0.6534405056,
				"y": 1.6281955054,
				"z": 3.2616273986,
				"element": "O" 
			},
			{
				"x": 3.2599341176,
				"y": -2.9099664154,
				"z": -3.8057847251,
				"element": "H" 
			},
			{
				"x": 2.7662951427,
				"y": -3.5207270502,
				"z": -2.3187954223,
				"element": "H" 
			},
			{
				"x": 0.887354032,
				"y": -2.5857344143,
				"z": -1.0660443168,
				"element": "H" 
			},
			{
				"x": -0.9178760735,
				"y": 0.9872862142,
				"z": -2.6335762548,
				"element": "H" 
			},
			{
				"x": 0.5326114891,
				"y": 0.8061546334,
				"z": -4.6737510624,
				"element": "H" 
			},
			{
				"x": 2.128632662,
				"y": -1.0586093675,
				"z": -4.9028512626,
				"element": "H" 
			},
			{
				"x": -0.1922342287,
				"y": -0.3990978743,
				"z": 1.7617312028,
				"element": "H" 
			},
			{
				"x": 0.5702854411,
				"y": 1.8093258305,
				"z": -0.0616309173,
				"element": "H" 
			},
			{
				"x": -0.8300842146,
				"y": 1.945761874,
				"z": 1.0131230199,
				"element": "H" 
			},
			{
				"x": 2.8752402875,
				"y": 2.8060460344,
				"z": 1.1582226437,
				"element": "H" 
			},
			{
				"x": 3.5562075702,
				"y": 3.0550082581,
				"z": 3.8061594987,
				"element": "H" 
			},
			{
				"x": 1.4363633514,
				"y": 1.9390839488,
				"z": 5.1590900875,
				"element": "H" 
			}
		],
		 "valence_orbital": [ 
			{
				"type": "occ",
				"energy": -0.28369,
				"method": "rhf"
			},
			{
				"type": "occ",
				"energy": -0.27833,
				"method": "rhf"
			},
			{
				"type": "occ",
				"energy": -0.25652,
				"method": "rhf"
			},
			{
				"type": "occ",
				"energy": -0.2305,
				"method": "rhf"
			},
			{
				"type": "occ",
				"energy": -0.21835,
				"method": "rhf"
			},
			{
				"type": "unocc",
				"energy": -0.03098,
				"method": "rhf"
			},
			{
				"type": "unocc",
				"energy": -0.00096,
				"method": "rhf"
			},
			{
				"type": "unocc",
				"energy": 0.00259,
				"method": "rhf"
			},
			{
				"type": "unocc",
				"energy": 0.05897,
				"method": "rhf"
			},
			{
				"type": "unocc",
				"energy": 0.06935,
				"method": "rhf"
			}
		],
		"cosmo_sigma_profile": { 
			"-0.025": 0.0,
			"-0.024": 0.0,
			"-0.023": 0.0,
			"-0.022": 0.0,
			"-0.021": 0.0,
			"-0.02": 0.0,
			"-0.019": 0.0,
			"-0.018": 0.0,
			"-0.017": 0.0,
			"-0.016": 0.0,
			"-0.015": 0.0,
			"-0.014": 0.0256350480467,
			"-0.013": 2.40953787233,
			"-0.012": 4.38349093957,
			"-0.011": 4.12714331265,
			"-0.01": 4.28589274121,
			"-0.009": 5.27799623005,
			"-0.008": 6.01942514833,
			"-0.007": 10.265004484,
			"-0.006": 17.3841905684,
			"-0.005": 16.9004521173,
			"-0.004": 19.6930905316,
			"-0.003": 15.3770582888,
			"-0.002": 13.34346115,
			"-0.001": 13.58942213,
			"0.0": 13.2279983472,
			"0.001": 14.6167550968,
			"0.002": 15.8954284317,
			"0.003": 21.6661965231,
			"0.004": 22.6856314953,
			"0.005": 14.6149439023,
			"0.006": 7.9019621296,
			"0.007": 5.61355026363,
			"0.008": 4.52954685794,
			"0.009": 4.66747834567,
			"0.01": 7.92949413406,
			"0.011": 10.2328307269,
			"0.012": 4.28491447621,
			"0.013": 0.51120612801,
			"0.014": 0.0949097583364,
			"0.015": 0.0,
			"0.016": 0.0,
			"0.017": 0.0,
			"0.018": 0.0,
			"0.019": 0.0,
			"0.02": 0.0,
			"0.021": 0.0,
			"0.022": 0.0,
			"0.023": 0.0,
			"0.024": 0.0,
			"0.025": 0.0
		}
	}
}
