{
	 "smiles": "FC(F)(F)C1=CC=CC=C1CCC1=CC=CC=C1C(F)(F)F", 
	 "Tm": 348.15, 
	 "num_atms": 34, 
	 "gaussian": { 
		 "optdone": 1, 
		 "sigma_profile": "yes", 
		 "theory": "DFT", 
		 "functional": "B3LYP", 
		 "basiset": "6-31G**", 
		 "properties": { 
			 "R2extent": 7368.1374, 
			 "electric_dipole_moment_norm": 1.6650207296, 
			 "electric_quadrupole_moment_norm": 12.1447293086, 
			 "total_energy": -1216.00211344, 
			 "HOMO_LUMO_gap": 0.21928, 
			 "cosmo_polarized_energy": -5.51, 
			 "cosmo_cavitation_energy": 38.57, 
			 "cosmo_dispersion_energy": -26.17, 
			 "cosmo_repulsion_energy": 1.86, 
			 "cosmo_total_nonelectrostatic_energy": 14.25, 
			 "SMD_solvation_energy": 8.18 
		},
		"coords": [
			{
				"x": -3.345958113,
				"y": -1.0917889398,
				"z": -0.7900098511,
				"element": "F" 
			},
			{
				"x": -3.0841570176,
				"y": 0.2081740339,
				"z": -1.0652313646,
				"element": "C" 
			},
			{
				"x": -2.4616679505,
				"y": 0.2241517624,
				"z": -2.2784395155,
				"element": "F" 
			},
			{
				"x": -4.2740945263,
				"y": 0.8187605605,
				"z": -1.2402037355,
				"element": "F" 
			},
			{
				"x": -2.2488265965,
				"y": 0.8640180543,
				"z": 0.0050020291,
				"element": "C" 
			},
			{
				"x": -2.7375753141,
				"y": 2.0284346432,
				"z": 0.6046723689,
				"element": "C" 
			},
			{
				"x": -1.996714854,
				"y": 2.6826948613,
				"z": 1.5862339122,
				"element": "C" 
			},
			{
				"x": -0.7576649528,
				"y": 2.1681084978,
				"z": 1.9602273935,
				"element": "C" 
			},
			{
				"x": -0.269112994,
				"y": 1.0066791651,
				"z": 1.3607495962,
				"element": "C" 
			},
			{
				"x": -0.99764164,
				"y": 0.3249444984,
				"z": 0.3774014298,
				"element": "C" 
			},
			{
				"x": -0.4705803686,
				"y": -0.9724342073,
				"z": -0.222615304,
				"element": "C" 
			},
			{
				"x": 1.0584323438,
				"y": -1.134530648,
				"z": -0.245222644,
				"element": "C" 
			},
			{
				"x": 1.8327120115,
				"y": -0.0719643119,
				"z": -1.0149987913,
				"element": "C" 
			},
			{
				"x": 1.2477152097,
				"y": 0.5935735805,
				"z": -2.1001361942,
				"element": "C" 
			},
			{
				"x": 1.9556715403,
				"y": 1.5326743466,
				"z": -2.8509819432,
				"element": "C" 
			},
			{
				"x": 3.2772937838,
				"y": 1.8342375417,
				"z": -2.5311249964,
				"element": "C" 
			},
			{
				"x": 3.8799855387,
				"y": 1.1925759647,
				"z": -1.4516151564,
				"element": "C" 
			},
			{
				"x": 3.1711936007,
				"y": 0.2506040226,
				"z": -0.7001231436,
				"element": "C" 
			},
			{
				"x": 3.8673799118,
				"y": -0.3985268717,
				"z": 0.4691498725,
				"element": "C" 
			},
			{
				"x": 3.2743234431,
				"y": -0.0810657907,
				"z": 1.6554730786,
				"element": "F" 
			},
			{
				"x": 5.1582763697,
				"y": -0.0226232834,
				"z": 0.576909382,
				"element": "F" 
			},
			{
				"x": 3.8569085224,
				"y": -1.7504051032,
				"z": 0.3892252051,
				"element": "F" 
			},
			{
				"x": -3.7002951801,
				"y": 2.4188835637,
				"z": 0.2967313148,
				"element": "H" 
			},
			{
				"x": -2.3834145806,
				"y": 3.5861830771,
				"z": 2.0472874488,
				"element": "H" 
			},
			{
				"x": -0.1631486446,
				"y": 2.6698498572,
				"z": 2.7182558481,
				"element": "H" 
			},
			{
				"x": 0.706986485,
				"y": 0.6386043422,
				"z": 1.6565120147,
				"element": "H" 
			},
			{
				"x": -0.8803334357,
				"y": -1.8099253657,
				"z": 0.3570169596,
				"element": "H" 
			},
			{
				"x": -0.8673038341,
				"y": -1.1082599005,
				"z": -1.2291527936,
				"element": "H" 
			},
			{
				"x": 1.277559549,
				"y": -2.1118770193,
				"z": -0.6947722368,
				"element": "H" 
			},
			{
				"x": 1.4332438969,
				"y": -1.2059320428,
				"z": 0.7762106038,
				"element": "H" 
			},
			{
				"x": 0.2140724403,
				"y": 0.392077101,
				"z": -2.3585923806,
				"element": "H" 
			},
			{
				"x": 1.4675523291,
				"y": 2.0293360156,
				"z": -3.6845676507,
				"element": "H" 
			},
			{
				"x": 3.8346552477,
				"y": 2.5642306955,
				"z": -3.10978889,
				"element": "H" 
			},
			{
				"x": 4.905127779,
				"y": 1.4203372988,
				"z": -1.184581866,
				"element": "H" 
			}
		],
		 "valence_orbital": [ 
			{
				"type": "occ",
				"energy": -0.33549,
				"method": "rhf"
			},
			{
				"type": "occ",
				"energy": -0.26645,
				"method": "rhf"
			},
			{
				"type": "occ",
				"energy": -0.26633,
				"method": "rhf"
			},
			{
				"type": "occ",
				"energy": -0.25786,
				"method": "rhf"
			},
			{
				"type": "occ",
				"energy": -0.25112,
				"method": "rhf"
			},
			{
				"type": "unocc",
				"energy": -0.03184,
				"method": "rhf"
			},
			{
				"type": "unocc",
				"energy": -0.0212,
				"method": "rhf"
			},
			{
				"type": "unocc",
				"energy": -0.0181,
				"method": "rhf"
			},
			{
				"type": "unocc",
				"energy": -0.00712,
				"method": "rhf"
			},
			{
				"type": "unocc",
				"energy": 0.09223,
				"method": "rhf"
			}
		],
		"cosmo_sigma_profile": { 
			"-0.025": 0.0,
			"-0.024": 0.0,
			"-0.023": 0.0,
			"-0.022": 0.0,
			"-0.021": 0.0,
			"-0.02": 0.0,
			"-0.019": 0.0,
			"-0.018": 0.0,
			"-0.017": 0.0,
			"-0.016": 0.0,
			"-0.015": 0.0,
			"-0.014": 0.0,
			"-0.013": 0.0,
			"-0.012": 0.0,
			"-0.011": 0.0,
			"-0.01": 0.0,
			"-0.009": 0.0,
			"-0.008": 0.0,
			"-0.007": 2.1773238393,
			"-0.006": 12.2039813517,
			"-0.005": 17.7375766799,
			"-0.004": 24.3453570643,
			"-0.003": 21.8260224596,
			"-0.002": 23.6416717438,
			"-0.001": 22.8746247391,
			"0.0": 24.9971389807,
			"0.001": 28.7178694235,
			"0.002": 43.9990461185,
			"0.003": 58.655212444,
			"0.004": 22.9432534172,
			"0.005": 5.12808748047,
			"0.006": 0.0,
			"0.007": 0.0,
			"0.008": 0.0,
			"0.009": 0.0,
			"0.01": 0.0,
			"0.011": 0.0,
			"0.012": 0.0,
			"0.013": 0.0,
			"0.014": 0.0,
			"0.015": 0.0,
			"0.016": 0.0,
			"0.017": 0.0,
			"0.018": 0.0,
			"0.019": 0.0,
			"0.02": 0.0,
			"0.021": 0.0,
			"0.022": 0.0,
			"0.023": 0.0,
			"0.024": 0.0,
			"0.025": 0.0
		}
	}
}
