{
	 "smiles": "COC1=CC(OC)=C(C=C1)C1=NN=C(S)N1N", 
	 "Tm": 474.15, 
	 "num_atms": 29, 
	 "gaussian": { 
		 "optdone": 1, 
		 "sigma_profile": "yes", 
		 "theory": "DFT", 
		 "functional": "B3LYP", 
		 "basiset": "6-31G**", 
		 "properties": { 
			 "R2extent": 5577.6135, 
			 "electric_dipole_moment_norm": 7.91375306034, 
			 "electric_quadrupole_moment_norm": 15.9161100197, 
			 "total_energy": -1155.85293091, 
			 "HOMO_LUMO_gap": 0.18567, 
			 "cosmo_polarized_energy": -21.09, 
			 "cosmo_cavitation_energy": 34.79, 
			 "cosmo_dispersion_energy": -25.09, 
			 "cosmo_repulsion_energy": 1.91, 
			 "cosmo_total_nonelectrostatic_energy": 11.61, 
			 "SMD_solvation_energy": 5.06 
		},
		"coords": [
			{
				"x": -2.0718619322,
				"y": 0.2522297443,
				"z": -5.0200591716,
				"element": "C" 
			},
			{
				"x": -0.7033557074,
				"y": 0.0090698021,
				"z": -4.7273676723,
				"element": "O" 
			},
			{
				"x": -0.2801515482,
				"y": 0.1511676718,
				"z": -3.4429614381,
				"element": "C" 
			},
			{
				"x": -1.1037706917,
				"y": 0.5223442578,
				"z": -2.3745784,
				"element": "C" 
			},
			{
				"x": -0.5616568299,
				"y": 0.6315115559,
				"z": -1.091802969,
				"element": "C" 
			},
			{
				"x": -1.4111543592,
				"y": 1.0206769645,
				"z": -0.0632099357,
				"element": "O" 
			},
			{
				"x": -1.4040958051,
				"y": 2.4340954352,
				"z": 0.1976255452,
				"element": "C" 
			},
			{
				"x": 0.7896282222,
				"y": 0.3532525886,
				"z": -0.8353220925,
				"element": "C" 
			},
			{
				"x": 1.6001930126,
				"y": 0.0017752717,
				"z": -1.9329042321,
				"element": "C" 
			},
			{
				"x": 1.0836388053,
				"y": -0.097038461,
				"z": -3.2140199687,
				"element": "C" 
			},
			{
				"x": 1.3983500443,
				"y": 0.4577578576,
				"z": 0.4965468041,
				"element": "C" 
			},
			{
				"x": 2.5652878851,
				"y": 1.0047486245,
				"z": 0.7587102279,
				"element": "N" 
			},
			{
				"x": 2.8157331362,
				"y": 0.8716444988,
				"z": 2.1142724171,
				"element": "N" 
			},
			{
				"x": 1.7884427288,
				"y": 0.2479036338,
				"z": 2.6383915249,
				"element": "C" 
			},
			{
				"x": 1.6022053295,
				"y": -0.1681638028,
				"z": 4.3387290309,
				"element": "S" 
			},
			{
				"x": 0.8567114143,
				"y": -0.0451184714,
				"z": 1.6705679262,
				"element": "N" 
			},
			{
				"x": -0.3150110856,
				"y": -0.7795990536,
				"z": 1.8929370006,
				"element": "N" 
			},
			{
				"x": -2.3556421611,
				"y": 1.2872327163,
				"z": -4.7911540827,
				"element": "H" 
			},
			{
				"x": -2.729902661,
				"y": -0.4319213904,
				"z": -4.4695357287,
				"element": "H" 
			},
			{
				"x": -2.185738813,
				"y": 0.0771349996,
				"z": -6.0905500383,
				"element": "H" 
			},
			{
				"x": -2.1571880708,
				"y": 0.7374836724,
				"z": -2.5026865889,
				"element": "H" 
			},
			{
				"x": -1.7438194256,
				"y": 2.9888759521,
				"z": -0.68439763,
				"element": "H" 
			},
			{
				"x": -2.0982556153,
				"y": 2.5996383495,
				"z": 1.0234142638,
				"element": "H" 
			},
			{
				"x": -0.4035255305,
				"y": 2.7789862937,
				"z": 0.48022021,
				"element": "H" 
			},
			{
				"x": 2.6517707405,
				"y": -0.1917090424,
				"z": -1.7505838643,
				"element": "H" 
			},
			{
				"x": 1.7098372697,
				"y": -0.375063221,
				"z": -4.0546645583,
				"element": "H" 
			},
			{
				"x": 0.3865847486,
				"y": -0.7243705534,
				"z": 4.1404097344,
				"element": "H" 
			},
			{
				"x": -1.0782126923,
				"y": -0.2605731612,
				"z": 1.4566754149,
				"element": "H" 
			},
			{
				"x": -0.2278404082,
				"y": -1.6787727327,
				"z": 1.4215982713,
				"element": "H" 
			}
		],
		 "valence_orbital": [ 
			{
				"type": "occ",
				"energy": -0.2854,
				"method": "rhf"
			},
			{
				"type": "occ",
				"energy": -0.26286,
				"method": "rhf"
			},
			{
				"type": "occ",
				"energy": -0.2477,
				"method": "rhf"
			},
			{
				"type": "occ",
				"energy": -0.24019,
				"method": "rhf"
			},
			{
				"type": "occ",
				"energy": -0.21137,
				"method": "rhf"
			},
			{
				"type": "unocc",
				"energy": -0.0257,
				"method": "rhf"
			},
			{
				"type": "unocc",
				"energy": -0.01582,
				"method": "rhf"
			},
			{
				"type": "unocc",
				"energy": 0.02631,
				"method": "rhf"
			},
			{
				"type": "unocc",
				"energy": 0.03522,
				"method": "rhf"
			},
			{
				"type": "unocc",
				"energy": 0.05381,
				"method": "rhf"
			}
		],
		"cosmo_sigma_profile": { 
			"-0.025": 0.0,
			"-0.024": 0.0,
			"-0.023": 0.0,
			"-0.022": 0.0,
			"-0.021": 0.0,
			"-0.02": 0.0,
			"-0.019": 0.0,
			"-0.018": 0.0,
			"-0.017": 0.0,
			"-0.016": 0.0,
			"-0.015": 0.0,
			"-0.014": 0.522140129828,
			"-0.013": 2.01436878951,
			"-0.012": 1.50847092444,
			"-0.011": 1.63496570292,
			"-0.01": 2.6055128077,
			"-0.009": 3.04417902238,
			"-0.008": 2.98715516947,
			"-0.007": 5.95918938243,
			"-0.006": 16.07662699,
			"-0.005": 23.4839974907,
			"-0.004": 25.7963358534,
			"-0.003": 28.5954823256,
			"-0.002": 19.547843932,
			"-0.001": 14.6172721976,
			"0.0": 12.0754877395,
			"0.001": 13.9388738211,
			"0.002": 18.644936594,
			"0.003": 20.8637982476,
			"0.004": 14.8672993292,
			"0.005": 8.2704645297,
			"0.006": 8.91387461821,
			"0.007": 6.40262446081,
			"0.008": 3.15636962365,
			"0.009": 3.58616094517,
			"0.01": 3.75962699201,
			"0.011": 2.35366216557,
			"0.012": 2.05492608579,
			"0.013": 3.93561968845,
			"0.014": 2.93966267939,
			"0.015": 2.76094369701,
			"0.016": 2.18603099454,
			"0.017": 0.861500532172,
			"0.018": 0.0,
			"0.019": 0.0,
			"0.02": 0.0,
			"0.021": 0.0,
			"0.022": 0.0,
			"0.023": 0.0,
			"0.024": 0.0,
			"0.025": 0.0
		}
	}
}
