{
	 "smiles": "O=C(NC1CCNCC1)C1CCOCC1", 
	 "Tm": 430.15, 
	 "num_atms": 35, 
	 "gaussian": { 
		 "optdone": 1, 
		 "sigma_profile": "yes", 
		 "theory": "DFT", 
		 "functional": "B3LYP", 
		 "basiset": "6-31G**", 
		 "properties": { 
			 "R2extent": 4827.8971, 
			 "electric_dipole_moment_norm": 3.41915912031, 
			 "electric_quadrupole_moment_norm": 13.2157409626, 
			 "total_energy": -691.168453629, 
			 "HOMO_LUMO_gap": 0.22803, 
			 "cosmo_polarized_energy": -15.95, 
			 "cosmo_cavitation_energy": 33.99, 
			 "cosmo_dispersion_energy": -25.08, 
			 "cosmo_repulsion_energy": 1.99, 
			 "cosmo_total_nonelectrostatic_energy": 10.9, 
			 "SMD_solvation_energy": 2.1 
		},
		"coords": [
			{
				"x": 0.4707549949,
				"y": -0.5631379578,
				"z": 0.7283067898,
				"element": "O" 
			},
			{
				"x": 0.6531366904,
				"y": 0.354248624,
				"z": -0.0707810193,
				"element": "C" 
			},
			{
				"x": 0.0282358622,
				"y": 1.5612900799,
				"z": 0.0303122757,
				"element": "N" 
			},
			{
				"x": -0.9625020563,
				"y": 1.9026988591,
				"z": 1.0627082319,
				"element": "C" 
			},
			{
				"x": -2.2631435464,
				"y": 1.0872651661,
				"z": 0.9040409704,
				"element": "C" 
			},
			{
				"x": -3.1998311132,
				"y": 1.3300739794,
				"z": 2.0917802176,
				"element": "C" 
			},
			{
				"x": -2.5963008946,
				"y": 0.8736839587,
				"z": 3.358721719,
				"element": "N" 
			},
			{
				"x": -1.1363693582,
				"y": 0.7039041861,
				"z": 3.315850173,
				"element": "C" 
			},
			{
				"x": -0.4042534014,
				"y": 1.7924544953,
				"z": 2.5149549678,
				"element": "C" 
			},
			{
				"x": 1.6466110706,
				"y": 0.220484864,
				"z": -1.22795601,
				"element": "C" 
			},
			{
				"x": 1.3877599134,
				"y": -1.0810940771,
				"z": -2.0231751037,
				"element": "C" 
			},
			{
				"x": 2.6807652748,
				"y": -1.5553397999,
				"z": -2.7185688576,
				"element": "C" 
			},
			{
				"x": 3.5287982094,
				"y": -0.4542559351,
				"z": -3.0231964279,
				"element": "O" 
			},
			{
				"x": 4.0943460764,
				"y": 0.1159570947,
				"z": -1.8470872975,
				"element": "C" 
			},
			{
				"x": 3.0872635559,
				"y": 0.1945670439,
				"z": -0.6783616027,
				"element": "C" 
			},
			{
				"x": 0.1974348929,
				"y": 2.238571936,
				"z": -0.6974207575,
				"element": "H" 
			},
			{
				"x": -1.2053561634,
				"y": 2.9541283583,
				"z": 0.8709989604,
				"element": "H" 
			},
			{
				"x": -2.0152127707,
				"y": 0.024759114,
				"z": 0.8347092637,
				"element": "H" 
			},
			{
				"x": -2.7648954942,
				"y": 1.3676178624,
				"z": -0.0287173534,
				"element": "H" 
			},
			{
				"x": -3.4488882325,
				"y": 2.4056252431,
				"z": 2.1214185366,
				"element": "H" 
			},
			{
				"x": -4.1478637533,
				"y": 0.8015281374,
				"z": 1.9223948066,
				"element": "H" 
			},
			{
				"x": -2.8391034233,
				"y": 1.523656685,
				"z": 4.0986486955,
				"element": "H" 
			},
			{
				"x": -0.7713202954,
				"y": 0.6817875143,
				"z": 4.3480600948,
				"element": "H" 
			},
			{
				"x": -0.8932143119,
				"y": -0.2671687375,
				"z": 2.8746508343,
				"element": "H" 
			},
			{
				"x": -0.5283460683,
				"y": 2.7597859926,
				"z": 3.018565816,
				"element": "H" 
			},
			{
				"x": 0.6687492408,
				"y": 1.5822189302,
				"z": 2.4862378633,
				"element": "H" 
			},
			{
				"x": 1.5528810914,
				"y": 1.0786967693,
				"z": -1.9053922703,
				"element": "H" 
			},
			{
				"x": 0.5971024363,
				"y": -0.9060241328,
				"z": -2.7607561699,
				"element": "H" 
			},
			{
				"x": 1.0298448126,
				"y": -1.8488220801,
				"z": -1.3295616311,
				"element": "H" 
			},
			{
				"x": 2.4620646149,
				"y": -2.0481830087,
				"z": -3.6697917635,
				"element": "H" 
			},
			{
				"x": 3.2175176976,
				"y": -2.2823353148,
				"z": -2.0877884137,
				"element": "H" 
			},
			{
				"x": 4.4260455008,
				"y": 1.1174507078,
				"z": -2.1408771388,
				"element": "H" 
			},
			{
				"x": 4.985571113,
				"y": -0.4554542332,
				"z": -1.5388421537,
				"element": "H" 
			},
			{
				"x": 3.1786296832,
				"y": -0.6709474193,
				"z": -0.0135978596,
				"element": "H" 
			},
			{
				"x": 3.2930881516,
				"y": 1.0819070947,
				"z": -0.0691883865,
				"element": "H" 
			}
		],
		 "valence_orbital": [ 
			{
				"type": "occ",
				"energy": -0.29656,
				"method": "rhf"
			},
			{
				"type": "occ",
				"energy": -0.25061,
				"method": "rhf"
			},
			{
				"type": "occ",
				"energy": -0.24802,
				"method": "rhf"
			},
			{
				"type": "occ",
				"energy": -0.24179,
				"method": "rhf"
			},
			{
				"type": "occ",
				"energy": -0.2016,
				"method": "rhf"
			},
			{
				"type": "unocc",
				"energy": 0.02643,
				"method": "rhf"
			},
			{
				"type": "unocc",
				"energy": 0.0569,
				"method": "rhf"
			},
			{
				"type": "unocc",
				"energy": 0.0798,
				"method": "rhf"
			},
			{
				"type": "unocc",
				"energy": 0.08861,
				"method": "rhf"
			},
			{
				"type": "unocc",
				"energy": 0.11009,
				"method": "rhf"
			}
		],
		"cosmo_sigma_profile": { 
			"-0.025": 0.0,
			"-0.024": 0.0,
			"-0.023": 0.0,
			"-0.022": 0.0,
			"-0.021": 0.0,
			"-0.02": 0.0,
			"-0.019": 0.0,
			"-0.018": 0.0,
			"-0.017": 0.0,
			"-0.016": 0.0,
			"-0.015": 0.0,
			"-0.014": 0.422420854875,
			"-0.013": 1.35514897021,
			"-0.012": 1.61251338951,
			"-0.011": 1.46328141721,
			"-0.01": 1.89331918504,
			"-0.009": 2.56462470356,
			"-0.008": 2.33641854837,
			"-0.007": 3.28513514759,
			"-0.006": 3.47063724916,
			"-0.005": 6.33815344441,
			"-0.004": 18.4127809789,
			"-0.003": 42.5832248072,
			"-0.002": 40.7040628258,
			"-0.001": 28.2587157159,
			"0.0": 24.0225798967,
			"0.001": 18.4706350528,
			"0.002": 10.2995444599,
			"0.003": 5.03741788595,
			"0.004": 5.9983850145,
			"0.005": 4.98840587031,
			"0.006": 4.11558431356,
			"0.007": 5.0187609613,
			"0.008": 3.53336583334,
			"0.009": 3.83781174313,
			"0.01": 3.36404601446,
			"0.011": 3.08627208655,
			"0.012": 3.11518368377,
			"0.013": 3.93632438428,
			"0.014": 4.35498791461,
			"0.015": 1.66306960231,
			"0.016": 0.706005564734,
			"0.017": 0.417123498209,
			"0.018": 0.530713625637,
			"0.019": 0.563544121189,
			"0.02": 0.0,
			"0.021": 0.0,
			"0.022": 0.0,
			"0.023": 0.0,
			"0.024": 0.0,
			"0.025": 0.0
		}
	}
}
