{
	 "smiles": "CC(C)C1=NOC(NC(=O)CCl)=C1", 
	 "Tm": 349.15, 
	 "num_atms": 24, 
	 "gaussian": { 
		 "optdone": 1, 
		 "sigma_profile": "yes", 
		 "theory": "DFT", 
		 "functional": "B3LYP", 
		 "basiset": "6-31G**", 
		 "properties": { 
			 "R2extent": 5404.0686, 
			 "electric_dipole_moment_norm": 1.8331782592, 
			 "electric_quadrupole_moment_norm": 14.4514471386, 
			 "total_energy": -1031.59971488, 
			 "HOMO_LUMO_gap": 0.20671, 
			 "cosmo_polarized_energy": -12.28, 
			 "cosmo_cavitation_energy": 30.05, 
			 "cosmo_dispersion_energy": -21.79, 
			 "cosmo_repulsion_energy": 1.77, 
			 "cosmo_total_nonelectrostatic_energy": 10.02, 
			 "SMD_solvation_energy": 5.57 
		},
		"coords": [
			{
				"x": -1.4800017107,
				"y": -1.8184598047,
				"z": -1.949842249,
				"element": "C" 
			},
			{
				"x": -0.3902554832,
				"y": -1.8112406567,
				"z": -0.8623390156,
				"element": "C" 
			},
			{
				"x": -0.9591359219,
				"y": -2.2206750304,
				"z": 0.5084359303,
				"element": "C" 
			},
			{
				"x": 0.29077456,
				"y": -0.468137426,
				"z": -0.7868666675,
				"element": "C" 
			},
			{
				"x": 1.5778806438,
				"y": -0.3818367282,
				"z": -1.0449941274,
				"element": "N" 
			},
			{
				"x": 1.9001439742,
				"y": 0.9883972616,
				"z": -0.8890094779,
				"element": "O" 
			},
			{
				"x": 0.7800207913,
				"y": 1.6462054501,
				"z": -0.5446629658,
				"element": "C" 
			},
			{
				"x": 0.9536650048,
				"y": 3.0076600921,
				"z": -0.3587766661,
				"element": "N" 
			},
			{
				"x": -0.0523804788,
				"y": 3.8665834948,
				"z": -0.0063543855,
				"element": "C" 
			},
			{
				"x": -1.2100609347,
				"y": 3.533708739,
				"z": 0.1841075423,
				"element": "O" 
			},
			{
				"x": 0.3100304644,
				"y": 5.3430949512,
				"z": 0.1573552842,
				"element": "C" 
			},
			{
				"x": 2.0407070911,
				"y": 5.7941404935,
				"z": -0.1305766855,
				"element": "Cl" 
			},
			{
				"x": -0.2843441828,
				"y": 0.7984148227,
				"z": -0.4583296646,
				"element": "C" 
			},
			{
				"x": -2.2778502538,
				"y": -1.1047372049,
				"z": -1.7165880865,
				"element": "H" 
			},
			{
				"x": -1.9331347521,
				"y": -2.8122045675,
				"z": -2.0274393472,
				"element": "H" 
			},
			{
				"x": -1.0664127475,
				"y": -1.5547912666,
				"z": -2.9277436247,
				"element": "H" 
			},
			{
				"x": 0.3873472312,
				"y": -2.5305412496,
				"z": -1.1447647123,
				"element": "H" 
			},
			{
				"x": -1.7362173772,
				"y": -1.5230294482,
				"z": 0.8398016849,
				"element": "H" 
			},
			{
				"x": -0.1764345824,
				"y": -2.2419539167,
				"z": 1.2724981602,
				"element": "H" 
			},
			{
				"x": -1.4078635656,
				"y": -3.2178098391,
				"z": 0.4514262109,
				"element": "H" 
			},
			{
				"x": 1.888163377,
				"y": 3.3738559196,
				"z": -0.4969643965,
				"element": "H" 
			},
			{
				"x": -0.2979742666,
				"y": 5.9214316802,
				"z": -0.5390748445,
				"element": "H" 
			},
			{
				"x": 0.05973885,
				"y": 5.6435249091,
				"z": 1.1753009693,
				"element": "H" 
			},
			{
				"x": -1.2986057304,
				"y": 1.0501993245,
				"z": -0.2026988655,
				"element": "H" 
			}
		],
		 "valence_orbital": [ 
			{
				"type": "occ",
				"energy": -0.32078,
				"method": "rhf"
			},
			{
				"type": "occ",
				"energy": -0.30393,
				"method": "rhf"
			},
			{
				"type": "occ",
				"energy": -0.28583,
				"method": "rhf"
			},
			{
				"type": "occ",
				"energy": -0.28481,
				"method": "rhf"
			},
			{
				"type": "occ",
				"energy": -0.23874,
				"method": "rhf"
			},
			{
				"type": "unocc",
				"energy": -0.03203,
				"method": "rhf"
			},
			{
				"type": "unocc",
				"energy": -0.00108,
				"method": "rhf"
			},
			{
				"type": "unocc",
				"energy": 0.02152,
				"method": "rhf"
			},
			{
				"type": "unocc",
				"energy": 0.07844,
				"method": "rhf"
			},
			{
				"type": "unocc",
				"energy": 0.07968,
				"method": "rhf"
			}
		],
		"cosmo_sigma_profile": { 
			"-0.025": 0.0,
			"-0.024": 0.0,
			"-0.023": 0.0,
			"-0.022": 0.0,
			"-0.021": 0.0,
			"-0.02": 0.0,
			"-0.019": 0.0,
			"-0.018": 0.0,
			"-0.017": 0.0,
			"-0.016": 0.0,
			"-0.015": 0.0,
			"-0.014": 0.311201353156,
			"-0.013": 0.531931688533,
			"-0.012": 1.52083744871,
			"-0.011": 0.607696257793,
			"-0.01": 3.03009845307,
			"-0.009": 6.16294768113,
			"-0.008": 4.98049095927,
			"-0.007": 6.38570226834,
			"-0.006": 7.78151302457,
			"-0.005": 7.46051676591,
			"-0.004": 12.2684768868,
			"-0.003": 21.0488719676,
			"-0.002": 24.4909841418,
			"-0.001": 22.4682378125,
			"0.0": 25.3792730846,
			"0.001": 20.583467789,
			"0.002": 12.128965355,
			"0.003": 11.0292478222,
			"0.004": 9.25391076009,
			"0.005": 9.30678987638,
			"0.006": 4.3222965036,
			"0.007": 4.55472167239,
			"0.008": 5.37527811591,
			"0.009": 3.95613119635,
			"0.01": 3.50461087404,
			"0.011": 4.37756723677,
			"0.012": 3.74678740523,
			"0.013": 1.58472707751,
			"0.014": 1.22058795964,
			"0.015": 0.45405534387,
			"0.016": 0.0,
			"0.017": 0.0,
			"0.018": 0.0,
			"0.019": 0.0,
			"0.02": 0.0,
			"0.021": 0.0,
			"0.022": 0.0,
			"0.023": 0.0,
			"0.024": 0.0,
			"0.025": 0.0
		}
	}
}
