{
	 "smiles": "CCCCCCN1N=C(C(O)=O)C2=C(C=CC=C2)C1=O", 
	 "Tm": 398.15, 
	 "num_atms": 38, 
	 "gaussian": { 
		 "optdone": 1, 
		 "sigma_profile": "yes", 
		 "theory": "DFT", 
		 "functional": "B3LYP", 
		 "basiset": "6-31G**", 
		 "properties": { 
			 "R2extent": 6974.8078, 
			 "electric_dipole_moment_norm": 2.41727276285, 
			 "electric_quadrupole_moment_norm": 28.9166129746, 
			 "total_energy": -917.651755663, 
			 "HOMO_LUMO_gap": 0.16378, 
			 "cosmo_polarized_energy": -13.15, 
			 "cosmo_cavitation_energy": 40.69, 
			 "cosmo_dispersion_energy": -27.43, 
			 "cosmo_repulsion_energy": 2.14, 
			 "cosmo_total_nonelectrostatic_energy": 15.4, 
			 "SMD_solvation_energy": 7.52 
		},
		"coords": [
			{
				"x": 0.0943436655,
				"y": -3.1584962262,
				"z": -0.5146330637,
				"element": "C" 
			},
			{
				"x": 0.890260541,
				"y": -2.5553337747,
				"z": 0.6470579263,
				"element": "C" 
			},
			{
				"x": 0.4142178431,
				"y": -1.1513816353,
				"z": 1.0414936899,
				"element": "C" 
			},
			{
				"x": 1.2037315608,
				"y": -0.5609730901,
				"z": 2.2200404137,
				"element": "C" 
			},
			{
				"x": 0.732044342,
				"y": 0.8267909741,
				"z": 2.6991884,
				"element": "C" 
			},
			{
				"x": 1.3391055067,
				"y": 2.0359416339,
				"z": 1.9746306793,
				"element": "C" 
			},
			{
				"x": 0.9613555411,
				"y": 2.1563509318,
				"z": 0.5557287922,
				"element": "N" 
			},
			{
				"x": -0.2872746517,
				"y": 2.5832021594,
				"z": 0.3294857886,
				"element": "N" 
			},
			{
				"x": -0.7389513328,
				"y": 2.7352750766,
				"z": -0.8871336366,
				"element": "C" 
			},
			{
				"x": -2.1679486613,
				"y": 3.2261735055,
				"z": -0.9321479007,
				"element": "C" 
			},
			{
				"x": -2.7234556986,
				"y": 3.4217649208,
				"z": 0.2748984676,
				"element": "O" 
			},
			{
				"x": -2.7822430233,
				"y": 3.4324656745,
				"z": -1.9559585254,
				"element": "O" 
			},
			{
				"x": 0.0692698505,
				"y": 2.4608659852,
				"z": -2.0599422064,
				"element": "C" 
			},
			{
				"x": 1.3906358538,
				"y": 2.0123633301,
				"z": -1.8207870068,
				"element": "C" 
			},
			{
				"x": 2.2520590599,
				"y": 1.7247839071,
				"z": -2.8898837159,
				"element": "C" 
			},
			{
				"x": 1.8070853883,
				"y": 1.8821433904,
				"z": -4.1934605516,
				"element": "C" 
			},
			{
				"x": 0.4969268213,
				"y": 2.3259611658,
				"z": -4.4386452141,
				"element": "C" 
			},
			{
				"x": -0.3684987073,
				"y": 2.6140143607,
				"z": -3.3931431168,
				"element": "C" 
			},
			{
				"x": 1.8906162221,
				"y": 1.8307994098,
				"z": -0.4501655492,
				"element": "C" 
			},
			{
				"x": 3.0127691247,
				"y": 1.4292316912,
				"z": -0.1615735916,
				"element": "O" 
			},
			{
				"x": 0.171773958,
				"y": -2.5361100883,
				"z": -1.4134429305,
				"element": "H" 
			},
			{
				"x": 0.4577207267,
				"y": -4.1588203958,
				"z": -0.7716654973,
				"element": "H" 
			},
			{
				"x": -0.9693026192,
				"y": -3.2453893964,
				"z": -0.2646358128,
				"element": "H" 
			},
			{
				"x": 1.9544282017,
				"y": -2.511822886,
				"z": 0.3793991746,
				"element": "H" 
			},
			{
				"x": 0.8233051628,
				"y": -3.2180625067,
				"z": 1.5208886311,
				"element": "H" 
			},
			{
				"x": -0.6520703129,
				"y": -1.191187012,
				"z": 1.3074910609,
				"element": "H" 
			},
			{
				"x": 0.4827658538,
				"y": -0.4953315158,
				"z": 0.1653049353,
				"element": "H" 
			},
			{
				"x": 2.2692957682,
				"y": -0.5137029252,
				"z": 1.9616042377,
				"element": "H" 
			},
			{
				"x": 1.1242127848,
				"y": -1.2596216976,
				"z": 3.0631549719,
				"element": "H" 
			},
			{
				"x": -0.3630014533,
				"y": 0.8911743476,
				"z": 2.6547580577,
				"element": "H" 
			},
			{
				"x": 1.0004037196,
				"y": 0.9539372303,
				"z": 3.755577455,
				"element": "H" 
			},
			{
				"x": 1.0186506691,
				"y": 2.961696911,
				"z": 2.4612788722,
				"element": "H" 
			},
			{
				"x": 2.428299578,
				"y": 1.9877985043,
				"z": 1.9888166152,
				"element": "H" 
			},
			{
				"x": -2.0466717204,
				"y": 3.1917899156,
				"z": 0.9413241233,
				"element": "H" 
			},
			{
				"x": 3.2554695616,
				"y": 1.3826096564,
				"z": -2.662067309,
				"element": "H" 
			},
			{
				"x": 2.4698146038,
				"y": 1.662005452,
				"z": -5.0249483209,
				"element": "H" 
			},
			{
				"x": 0.1526505527,
				"y": 2.4466149758,
				"z": -5.461579959,
				"element": "H" 
			},
			{
				"x": -1.3780942806,
				"y": 2.9560780402,
				"z": -3.5758083844,
				"element": "H" 
			}
		],
		 "valence_orbital": [ 
			{
				"type": "occ",
				"energy": -0.2944,
				"method": "rhf"
			},
			{
				"type": "occ",
				"energy": -0.27875,
				"method": "rhf"
			},
			{
				"type": "occ",
				"energy": -0.27388,
				"method": "rhf"
			},
			{
				"type": "occ",
				"energy": -0.26869,
				"method": "rhf"
			},
			{
				"type": "occ",
				"energy": -0.24481,
				"method": "rhf"
			},
			{
				"type": "unocc",
				"energy": -0.08103,
				"method": "rhf"
			},
			{
				"type": "unocc",
				"energy": -0.05757,
				"method": "rhf"
			},
			{
				"type": "unocc",
				"energy": -0.01555,
				"method": "rhf"
			},
			{
				"type": "unocc",
				"energy": 0.04776,
				"method": "rhf"
			},
			{
				"type": "unocc",
				"energy": 0.07772,
				"method": "rhf"
			}
		],
		"cosmo_sigma_profile": { 
			"-0.025": 0.0,
			"-0.024": 0.0,
			"-0.023": 0.0,
			"-0.022": 0.0,
			"-0.021": 0.0,
			"-0.02": 0.0,
			"-0.019": 0.0,
			"-0.018": 0.0,
			"-0.017": 0.0,
			"-0.016": 0.0,
			"-0.015": 0.0,
			"-0.014": 0.0951445968576,
			"-0.013": 0.505014157542,
			"-0.012": 0.505393625185,
			"-0.011": 0.623608257344,
			"-0.01": 0.74982321062,
			"-0.009": 0.497537084616,
			"-0.008": 1.12315439722,
			"-0.007": 5.65091836134,
			"-0.006": 10.5972275172,
			"-0.005": 16.5724634093,
			"-0.004": 20.8730865573,
			"-0.003": 27.6760354421,
			"-0.002": 38.2842641481,
			"-0.001": 41.6937128342,
			"0.0": 38.2715045224,
			"0.001": 35.819416385,
			"0.002": 24.2177742852,
			"0.003": 10.5571263218,
			"0.004": 4.84540583187,
			"0.005": 2.84639530198,
			"0.006": 5.01203527791,
			"0.007": 4.66592130007,
			"0.008": 4.0676737568,
			"0.009": 5.90728925236,
			"0.01": 6.38601500636,
			"0.011": 5.22771805556,
			"0.012": 6.24489920001,
			"0.013": 1.76007147467,
			"0.014": 0.0,
			"0.015": 0.0,
			"0.016": 0.0,
			"0.017": 0.0,
			"0.018": 0.0,
			"0.019": 0.0,
			"0.02": 0.0,
			"0.021": 0.0,
			"0.022": 0.0,
			"0.023": 0.0,
			"0.024": 0.0,
			"0.025": 0.0
		}
	}
}
