{
	 "smiles": "ON=C1CCCC1", 
	 "Tm": 330.05, 
	 "num_atms": 16, 
	 "gaussian": { 
		 "optdone": 1, 
		 "sigma_profile": "yes", 
		 "theory": "DFT", 
		 "functional": "B3LYP", 
		 "basiset": "6-31G**", 
		 "properties": { 
			 "R2extent": 1026.2265, 
			 "electric_dipole_moment_norm": 0.8893420152, 
			 "electric_quadrupole_moment_norm": 2.89115673736, 
			 "total_energy": -325.878339858, 
			 "HOMO_LUMO_gap": 0.24915, 
			 "cosmo_polarized_energy": -6.77, 
			 "cosmo_cavitation_energy": 18.43, 
			 "cosmo_dispersion_energy": -14.12, 
			 "cosmo_repulsion_energy": 1.23, 
			 "cosmo_total_nonelectrostatic_energy": 5.53, 
			 "SMD_solvation_energy": 2.7 
		},
		"coords": [
			{
				"x": 2.4109200904,
				"y": -1.2534386781,
				"z": 1.488658089,
				"element": "O" 
			},
			{
				"x": 1.1037484746,
				"y": -0.7087818041,
				"z": 1.430856922,
				"element": "N" 
			},
			{
				"x": 0.9311738561,
				"y": -0.0697554435,
				"z": 0.3400071151,
				"element": "C" 
			},
			{
				"x": -0.3808768114,
				"y": 0.6218398618,
				"z": 0.023004807,
				"element": "C" 
			},
			{
				"x": 0.0178246457,
				"y": 1.6470439356,
				"z": -1.0578565438,
				"element": "C" 
			},
			{
				"x": 1.1297195582,
				"y": 0.9276208492,
				"z": -1.8502128562,
				"element": "C" 
			},
			{
				"x": 1.9320517462,
				"y": 0.1634705411,
				"z": -0.7747612133,
				"element": "C" 
			},
			{
				"x": 2.405306529,
				"y": -1.6916065078,
				"z": 2.3494937984,
				"element": "H" 
			},
			{
				"x": -0.849859107,
				"y": 1.0549831279,
				"z": 0.9100408297,
				"element": "H" 
			},
			{
				"x": -1.0873617965,
				"y": -0.1085150547,
				"z": -0.3960472873,
				"element": "H" 
			},
			{
				"x": 0.4239517337,
				"y": 2.5479933885,
				"z": -0.5813949766,
				"element": "H" 
			},
			{
				"x": -0.8237288674,
				"y": 1.9574140652,
				"z": -1.683933444,
				"element": "H" 
			},
			{
				"x": 1.7483772205,
				"y": 1.6127712165,
				"z": -2.4369203107,
				"element": "H" 
			},
			{
				"x": 0.6783374514,
				"y": 0.215743904,
				"z": -2.5521663333,
				"element": "H" 
			},
			{
				"x": 2.7645707655,
				"y": 0.7624028775,
				"z": -0.3828250417,
				"element": "H" 
			},
			{
				"x": 2.3712445113,
				"y": -0.7757862791,
				"z": -1.1249435542,
				"element": "H" 
			}
		],
		 "valence_orbital": [ 
			{
				"type": "occ",
				"energy": -0.34442,
				"method": "rhf"
			},
			{
				"type": "occ",
				"energy": -0.34055,
				"method": "rhf"
			},
			{
				"type": "occ",
				"energy": -0.32776,
				"method": "rhf"
			},
			{
				"type": "occ",
				"energy": -0.25948,
				"method": "rhf"
			},
			{
				"type": "occ",
				"energy": -0.23654,
				"method": "rhf"
			},
			{
				"type": "unocc",
				"energy": 0.01261,
				"method": "rhf"
			},
			{
				"type": "unocc",
				"energy": 0.08421,
				"method": "rhf"
			},
			{
				"type": "unocc",
				"energy": 0.08952,
				"method": "rhf"
			},
			{
				"type": "unocc",
				"energy": 0.12631,
				"method": "rhf"
			},
			{
				"type": "unocc",
				"energy": 0.13989,
				"method": "rhf"
			}
		],
		"cosmo_sigma_profile": { 
			"-0.025": 0.0,
			"-0.024": 0.0,
			"-0.023": 0.0,
			"-0.022": 0.0,
			"-0.021": 0.0,
			"-0.02": 0.0,
			"-0.019": 0.0,
			"-0.018": 0.0,
			"-0.017": 0.202439209386,
			"-0.016": 0.905533396583,
			"-0.015": 1.08269452089,
			"-0.014": 0.697676666998,
			"-0.013": 0.72731709182,
			"-0.012": 0.646560699048,
			"-0.011": 0.966130403472,
			"-0.01": 0.745176810672,
			"-0.009": 0.408013763285,
			"-0.008": 0.47119394413,
			"-0.007": 0.550769586088,
			"-0.006": 0.708028421734,
			"-0.005": 2.36088343474,
			"-0.004": 9.57872563734,
			"-0.003": 20.7083624481,
			"-0.002": 21.9754916812,
			"-0.001": 18.7899183383,
			"0.0": 16.4996585744,
			"0.001": 8.55387108042,
			"0.002": 2.99159789723,
			"0.003": 3.43983443329,
			"0.004": 3.01712151973,
			"0.005": 2.93593260778,
			"0.006": 3.46853254749,
			"0.007": 4.10348017344,
			"0.008": 3.87932412329,
			"0.009": 3.48880369098,
			"0.01": 3.17390881509,
			"0.011": 2.86405717718,
			"0.012": 1.20432925967,
			"0.013": 0.677963492893,
			"0.014": 1.14917772809,
			"0.015": 0.256190650256,
			"0.016": 0.0,
			"0.017": 0.0,
			"0.018": 0.0,
			"0.019": 0.0,
			"0.02": 0.0,
			"0.021": 0.0,
			"0.022": 0.0,
			"0.023": 0.0,
			"0.024": 0.0,
			"0.025": 0.0
		}
	}
}
