{
	 "smiles": "ClC(=O)C1=CC=C(S1)C1=CC=CO1", 
	 "Tm": 356.15, 
	 "num_atms": 18, 
	 "gaussian": { 
		 "optdone": 1, 
		 "sigma_profile": "yes", 
		 "theory": "DFT", 
		 "functional": "B3LYP", 
		 "basiset": "6-31G**", 
		 "properties": { 
			 "R2extent": 4931.5213, 
			 "electric_dipole_moment_norm": 6.29698247179, 
			 "electric_quadrupole_moment_norm": 17.8302998202, 
			 "total_energy": -1354.76974621, 
			 "HOMO_LUMO_gap": 0.13448, 
			 "cosmo_polarized_energy": -9.11, 
			 "cosmo_cavitation_energy": 27.15, 
			 "cosmo_dispersion_energy": -20.46, 
			 "cosmo_repulsion_energy": 1.56, 
			 "cosmo_total_nonelectrostatic_energy": 8.26, 
			 "SMD_solvation_energy": 5.94 
		},
		"coords": [
			{
				"x": -3.4408413653,
				"y": -0.1995162474,
				"z": 3.9787569894,
				"element": "Cl" 
			},
			{
				"x": -2.4601092008,
				"y": -1.7141870984,
				"z": 3.6390001329,
				"element": "C" 
			},
			{
				"x": -2.5477835547,
				"y": -2.6552541955,
				"z": 4.3740618515,
				"element": "O" 
			},
			{
				"x": -1.631489175,
				"y": -1.6189220932,
				"z": 2.4519092907,
				"element": "C" 
			},
			{
				"x": -0.810981377,
				"y": -2.6433622445,
				"z": 2.0086719296,
				"element": "C" 
			},
			{
				"x": -0.1049396565,
				"y": -2.3181176157,
				"z": 0.8374043053,
				"element": "C" 
			},
			{
				"x": -0.3845890357,
				"y": -1.0369368737,
				"z": 0.3785024911,
				"element": "C" 
			},
			{
				"x": -1.5326776486,
				"y": -0.2240714869,
				"z": 1.4048888537,
				"element": "S" 
			},
			{
				"x": 0.1585454243,
				"y": -0.3866188712,
				"z": -0.7843079796,
				"element": "C" 
			},
			{
				"x": 1.0573933577,
				"y": -0.7749637986,
				"z": -1.7496879897,
				"element": "C" 
			},
			{
				"x": 1.1888067134,
				"y": 0.3248543719,
				"z": -2.6483187203,
				"element": "C" 
			},
			{
				"x": 0.3668733076,
				"y": 1.3050092427,
				"z": -2.1745686498,
				"element": "C" 
			},
			{
				"x": -0.2659261181,
				"y": 0.8903940165,
				"z": -1.0443823725,
				"element": "O" 
			},
			{
				"x": -0.7408974964,
				"y": -3.5889592716,
				"z": 2.5324181325,
				"element": "H" 
			},
			{
				"x": 0.5853024139,
				"y": -2.9881711433,
				"z": 0.3389285904,
				"element": "H" 
			},
			{
				"x": 1.5608513085,
				"y": -1.7288459715,
				"z": -1.8082489019,
				"element": "H" 
			},
			{
				"x": 1.812017774,
				"y": 0.3781488203,
				"z": -3.52898241,
				"element": "H" 
			},
			{
				"x": 0.1295443289,
				"y": 2.3036204602,
				"z": -2.5063455434,
				"element": "H" 
			}
		],
		 "valence_orbital": [ 
			{
				"type": "occ",
				"energy": -0.30605,
				"method": "rhf"
			},
			{
				"type": "occ",
				"energy": -0.29284,
				"method": "rhf"
			},
			{
				"type": "occ",
				"energy": -0.28991,
				"method": "rhf"
			},
			{
				"type": "occ",
				"energy": -0.27605,
				"method": "rhf"
			},
			{
				"type": "occ",
				"energy": -0.22326,
				"method": "rhf"
			},
			{
				"type": "unocc",
				"energy": -0.08878,
				"method": "rhf"
			},
			{
				"type": "unocc",
				"energy": -0.02039,
				"method": "rhf"
			},
			{
				"type": "unocc",
				"energy": 0.00348,
				"method": "rhf"
			},
			{
				"type": "unocc",
				"energy": 0.02739,
				"method": "rhf"
			},
			{
				"type": "unocc",
				"energy": 0.03722,
				"method": "rhf"
			}
		],
		"cosmo_sigma_profile": { 
			"-0.025": 0.0,
			"-0.024": 0.0,
			"-0.023": 0.0,
			"-0.022": 0.0,
			"-0.021": 0.0,
			"-0.02": 0.0,
			"-0.019": 0.0,
			"-0.018": 0.0,
			"-0.017": 0.0,
			"-0.016": 0.0,
			"-0.015": 0.0,
			"-0.014": 0.0,
			"-0.013": 0.0,
			"-0.012": 0.0,
			"-0.011": 0.0,
			"-0.01": 1.19249391025,
			"-0.009": 3.80206269422,
			"-0.008": 9.90487320903,
			"-0.007": 8.19817579559,
			"-0.006": 8.22968931466,
			"-0.005": 7.44256300536,
			"-0.004": 8.49218106203,
			"-0.003": 9.96765198856,
			"-0.002": 9.63532095312,
			"-0.001": 15.0564885903,
			"0.0": 24.7212897167,
			"0.001": 32.7633367665,
			"0.002": 28.5438742372,
			"0.003": 18.1574970297,
			"0.004": 13.8648944286,
			"0.005": 9.14263059622,
			"0.006": 2.70674638429,
			"0.007": 2.62421745081,
			"0.008": 2.92640284863,
			"0.009": 5.0223029355,
			"0.01": 1.72368222514,
			"0.011": 0.00358029348133,
			"0.012": 0.0,
			"0.013": 0.0,
			"0.014": 0.0,
			"0.015": 0.0,
			"0.016": 0.0,
			"0.017": 0.0,
			"0.018": 0.0,
			"0.019": 0.0,
			"0.02": 0.0,
			"0.021": 0.0,
			"0.022": 0.0,
			"0.023": 0.0,
			"0.024": 0.0,
			"0.025": 0.0
		}
	}
}
