{
	 "smiles": "C[C@]12CC[C@H]3[C@@H](CC[C@@]45O[C@@H]4C(O)=C(C[C@]35C)C#N)[C@@H]1CC[C@@H]2O", 
	 "Tm": 537.15, 
	 "num_atms": 51, 
	 "gaussian": { 
		 "optdone": 1, 
		 "sigma_profile": "yes", 
		 "theory": "DFT", 
		 "functional": "B3LYP", 
		 "basiset": "6-31G**", 
		 "properties": { 
			 "R2extent": 9933.8166, 
			 "electric_dipole_moment_norm": 7.38004377494, 
			 "electric_quadrupole_moment_norm": 47.3762016539, 
			 "total_energy": -1058.76986822, 
			 "HOMO_LUMO_gap": 0.19394, 
			 "cosmo_polarized_energy": -23.34, 
			 "cosmo_cavitation_energy": 46.43, 
			 "cosmo_dispersion_energy": -31.95, 
			 "cosmo_repulsion_energy": 2.35, 
			 "cosmo_total_nonelectrostatic_energy": 16.82, 
			 "SMD_solvation_energy": 8.01 
		},
		"coords": [
			{
				"x": 1.7952265742,
				"y": 2.1617337916,
				"z": -0.2293520147,
				"element": "C" 
			},
			{
				"x": 1.0514456941,
				"y": 1.6435095098,
				"z": 1.0208269551,
				"element": "C" 
			},
			{
				"x": 1.5861309655,
				"y": 0.2637770035,
				"z": 1.4335273425,
				"element": "C" 
			},
			{
				"x": 1.1941264802,
				"y": -0.8232758712,
				"z": 0.4117084761,
				"element": "C" 
			},
			{
				"x": -0.3242794628,
				"y": -0.8711199462,
				"z": 0.1169504689,
				"element": "C" 
			},
			{
				"x": -0.8963543632,
				"y": 0.5314459533,
				"z": -0.2562044298,
				"element": "C" 
			},
			{
				"x": -2.4245834617,
				"y": 0.4732764855,
				"z": -0.4251221552,
				"element": "C" 
			},
			{
				"x": -2.8523838167,
				"y": -0.5910688352,
				"z": -1.4452801883,
				"element": "C" 
			},
			{
				"x": -2.2586547827,
				"y": -1.9321725207,
				"z": -1.0647816257,
				"element": "C" 
			},
			{
				"x": -3.0077791993,
				"y": -2.6280009651,
				"z": -0.0446186406,
				"element": "O" 
			},
			{
				"x": -2.9838360413,
				"y": -3.1836406525,
				"z": -1.3732953652,
				"element": "C" 
			},
			{
				"x": -2.2250809817,
				"y": -4.4479017248,
				"z": -1.5555063881,
				"element": "C" 
			},
			{
				"x": -2.817916979,
				"y": -5.4668932152,
				"z": -2.2260414361,
				"element": "O" 
			},
			{
				"x": -0.9586461373,
				"y": -4.5494448114,
				"z": -1.0904986524,
				"element": "C" 
			},
			{
				"x": -0.3172798478,
				"y": -3.3800850081,
				"z": -0.358670247,
				"element": "C" 
			},
			{
				"x": -0.7296935437,
				"y": -1.9852564493,
				"z": -0.9113456396,
				"element": "C" 
			},
			{
				"x": -0.0839795567,
				"y": -1.7844779019,
				"z": -2.3022834589,
				"element": "C" 
			},
			{
				"x": -0.2162839734,
				"y": -5.7551196334,
				"z": -1.2392242069,
				"element": "C" 
			},
			{
				"x": 0.4341142934,
				"y": -6.7171680901,
				"z": -1.3373228878,
				"element": "N" 
			},
			{
				"x": -0.4816631572,
				"y": 1.5323854832,
				"z": 0.8296008689,
				"element": "C" 
			},
			{
				"x": -0.963623985,
				"y": 2.9974840658,
				"z": 0.7525258274,
				"element": "C" 
			},
			{
				"x": 0.0222915944,
				"y": 3.7637224618,
				"z": 1.6850534749,
				"element": "C" 
			},
			{
				"x": 1.0948421232,
				"y": 2.7240204792,
				"z": 2.1227994906,
				"element": "C" 
			},
			{
				"x": 2.4039733723,
				"y": 3.2566040469,
				"z": 2.2700302879,
				"element": "O" 
			},
			{
				"x": 1.7412909035,
				"y": 1.4581166369,
				"z": -1.0634423003,
				"element": "H" 
			},
			{
				"x": 2.8485246236,
				"y": 2.3199359553,
				"z": 0.0144838981,
				"element": "H" 
			},
			{
				"x": 1.3984733289,
				"y": 3.1175695218,
				"z": -0.5826591392,
				"element": "H" 
			},
			{
				"x": 2.6757173634,
				"y": 0.2869924396,
				"z": 1.5523079616,
				"element": "H" 
			},
			{
				"x": 1.1687208638,
				"y": 0.0005963593,
				"z": 2.4158317776,
				"element": "H" 
			},
			{
				"x": 1.5258700621,
				"y": -1.7944050607,
				"z": 0.7935424651,
				"element": "H" 
			},
			{
				"x": 1.7482644037,
				"y": -0.6601104529,
				"z": -0.5193510265,
				"element": "H" 
			},
			{
				"x": -0.8228414124,
				"y": -1.1531231184,
				"z": 1.0585080905,
				"element": "H" 
			},
			{
				"x": -0.4627603715,
				"y": 0.8549677611,
				"z": -1.2133477138,
				"element": "H" 
			},
			{
				"x": -2.8098741094,
				"y": 1.4528529567,
				"z": -0.7288193305,
				"element": "H" 
			},
			{
				"x": -2.8859357173,
				"y": 0.2378714916,
				"z": 0.543720487,
				"element": "H" 
			},
			{
				"x": -2.5177557785,
				"y": -0.3086201408,
				"z": -2.4506886941,
				"element": "H" 
			},
			{
				"x": -3.9434774959,
				"y": -0.679120907,
				"z": -1.479520178,
				"element": "H" 
			},
			{
				"x": -3.9352291945,
				"y": -3.1188886473,
				"z": -1.908843811,
				"element": "H" 
			},
			{
				"x": -3.7503788118,
				"y": -5.2639755144,
				"z": -2.3764499471,
				"element": "H" 
			},
			{
				"x": 0.7680088237,
				"y": -3.4862449514,
				"z": -0.4239331355,
				"element": "H" 
			},
			{
				"x": -0.5789240242,
				"y": -3.4355084889,
				"z": 0.7042315386,
				"element": "H" 
			},
			{
				"x": -0.4356972706,
				"y": -2.5473149614,
				"z": -3.003214032,
				"element": "H" 
			},
			{
				"x": 1.0035968559,
				"y": -1.8770379568,
				"z": -2.2414040963,
				"element": "H" 
			},
			{
				"x": -0.3078737483,
				"y": -0.8060491297,
				"z": -2.7339436603,
				"element": "H" 
			},
			{
				"x": -0.872809329,
				"y": 1.1279221246,
				"z": 1.7786444789,
				"element": "H" 
			},
			{
				"x": -2.0050349998,
				"y": 3.1067810525,
				"z": 1.0688172167,
				"element": "H" 
			},
			{
				"x": -0.9036350879,
				"y": 3.3768090908,
				"z": -0.2739649227,
				"element": "H" 
			},
			{
				"x": -0.4857710414,
				"y": 4.204076648,
				"z": 2.5494394507,
				"element": "H" 
			},
			{
				"x": 0.5234970006,
				"y": 4.5800897473,
				"z": 1.1555448646,
				"element": "H" 
			},
			{
				"x": 0.7782119078,
				"y": 2.2529502658,
				"z": 3.0684289395,
				"element": "H" 
			},
			{
				"x": 2.3874104477,
				"y": 3.8958336226,
				"z": 2.9931049623,
				"element": "H" 
			}
		],
		 "valence_orbital": [ 
			{
				"type": "occ",
				"energy": -0.28984,
				"method": "rhf"
			},
			{
				"type": "occ",
				"energy": -0.2857,
				"method": "rhf"
			},
			{
				"type": "occ",
				"energy": -0.27482,
				"method": "rhf"
			},
			{
				"type": "occ",
				"energy": -0.2632,
				"method": "rhf"
			},
			{
				"type": "occ",
				"energy": -0.22873,
				"method": "rhf"
			},
			{
				"type": "unocc",
				"energy": -0.03479,
				"method": "rhf"
			},
			{
				"type": "unocc",
				"energy": 0.04002,
				"method": "rhf"
			},
			{
				"type": "unocc",
				"energy": 0.05679,
				"method": "rhf"
			},
			{
				"type": "unocc",
				"energy": 0.06659,
				"method": "rhf"
			},
			{
				"type": "unocc",
				"energy": 0.0722,
				"method": "rhf"
			}
		],
		"cosmo_sigma_profile": { 
			"-0.025": 0.0,
			"-0.024": 0.0,
			"-0.023": 0.0,
			"-0.022": 0.0,
			"-0.021": 0.0,
			"-0.02": 0.159424568428,
			"-0.019": 1.18403532467,
			"-0.018": 1.50231633448,
			"-0.017": 0.946875844254,
			"-0.016": 1.54399654024,
			"-0.015": 1.95085558496,
			"-0.014": 1.59850936368,
			"-0.013": 1.49915627545,
			"-0.012": 2.85050864639,
			"-0.011": 2.39462198775,
			"-0.01": 1.1085753346,
			"-0.009": 1.90575677155,
			"-0.008": 2.52796421368,
			"-0.007": 3.79317515785,
			"-0.006": 3.05581583036,
			"-0.005": 6.64963632494,
			"-0.004": 14.9188595438,
			"-0.003": 34.069821196,
			"-0.002": 59.458371403,
			"-0.001": 50.568255737,
			"0.0": 40.9032037696,
			"0.001": 29.4985265861,
			"0.002": 15.3851305034,
			"0.003": 8.66857210786,
			"0.004": 6.52029609683,
			"0.005": 6.33902216749,
			"0.006": 6.61318419324,
			"0.007": 9.10650788939,
			"0.008": 7.59672668433,
			"0.009": 8.61575591112,
			"0.01": 7.01585666953,
			"0.011": 7.58763505187,
			"0.012": 5.27661061111,
			"0.013": 3.88200035669,
			"0.014": 2.00111024709,
			"0.015": 0.028352095343,
			"0.016": 0.0,
			"0.017": 0.0,
			"0.018": 0.0,
			"0.019": 0.0,
			"0.02": 0.0,
			"0.021": 0.0,
			"0.022": 0.0,
			"0.023": 0.0,
			"0.024": 0.0,
			"0.025": 0.0
		}
	}
}
