{
	 "smiles": "CC(=O)N1C(=O)C(=CC2=CC=CC=C2)C2=CC3=C(C=C12)N(C(C)=O)C(=O)C3=CC1=CC=CC=C1", 
	 "Tm": 529.15, 
	 "num_atms": 54, 
	 "gaussian": { 
		 "optdone": 1, 
		 "sigma_profile": "yes", 
		 "theory": "DFT", 
		 "functional": "B3LYP", 
		 "basiset": "6-31G**", 
		 "properties": { 
			 "R2extent": 16283.1134, 
			 "electric_dipole_moment_norm": 7.11571238387, 
			 "electric_quadrupole_moment_norm": 7.61890271561, 
			 "total_energy": -1489.48082038, 
			 "HOMO_LUMO_gap": 0.12154, 
			 "cosmo_polarized_energy": -18.88, 
			 "cosmo_cavitation_energy": 58.27, 
			 "cosmo_dispersion_energy": -38.73, 
			 "cosmo_repulsion_energy": 2.76, 
			 "cosmo_total_nonelectrostatic_energy": 22.31, 
			 "SMD_solvation_energy": 11.59 
		},
		"coords": [
			{
				"x": -0.0819082976,
				"y": -5.7049935489,
				"z": 1.3187227174,
				"element": "C" 
			},
			{
				"x": -0.7819776197,
				"y": -4.4833851587,
				"z": 0.7713165086,
				"element": "C" 
			},
			{
				"x": -1.9293428255,
				"y": -4.5241954321,
				"z": 0.3706521061,
				"element": "O" 
			},
			{
				"x": -0.0573398511,
				"y": -3.2631177612,
				"z": 0.7318387164,
				"element": "N" 
			},
			{
				"x": 1.289470021,
				"y": -3.0758743803,
				"z": 1.1519864086,
				"element": "C" 
			},
			{
				"x": 2.0095585467,
				"y": -3.9329319603,
				"z": 1.6291111077,
				"element": "O" 
			},
			{
				"x": 1.6393248936,
				"y": -1.6469620707,
				"z": 0.8747883132,
				"element": "C" 
			},
			{
				"x": 2.9060712635,
				"y": -1.2596223893,
				"z": 1.1687631214,
				"element": "C" 
			},
			{
				"x": 3.6234189229,
				"y": -0.0095454313,
				"z": 0.9271241852,
				"element": "C" 
			},
			{
				"x": 4.6430055722,
				"y": 0.3618790131,
				"z": 1.8269013095,
				"element": "C" 
			},
			{
				"x": 5.3786166519,
				"y": 1.5278443155,
				"z": 1.6339059396,
				"element": "C" 
			},
			{
				"x": 5.1333589603,
				"y": 2.3331022342,
				"z": 0.5185899156,
				"element": "C" 
			},
			{
				"x": 4.1523000799,
				"y": 1.9592701468,
				"z": -0.403415545,
				"element": "C" 
			},
			{
				"x": 3.4044493758,
				"y": 0.8013575809,
				"z": -0.203085056,
				"element": "C" 
			},
			{
				"x": 0.4249673971,
				"y": -1.0234233726,
				"z": 0.3550162877,
				"element": "C" 
			},
			{
				"x": 0.1061801286,
				"y": 0.3000759085,
				"z": 0.0424931233,
				"element": "C" 
			},
			{
				"x": -1.1882330776,
				"y": 0.6078482063,
				"z": -0.382654178,
				"element": "C" 
			},
			{
				"x": -2.1417823643,
				"y": -0.4315521402,
				"z": -0.5238178451,
				"element": "C" 
			},
			{
				"x": -1.8697715952,
				"y": -1.757072768,
				"z": -0.1853732085,
				"element": "C" 
			},
			{
				"x": -0.578320281,
				"y": -2.0212940593,
				"z": 0.2705360803,
				"element": "C" 
			},
			{
				"x": -3.3480890631,
				"y": 0.0967098401,
				"z": -1.064315236,
				"element": "N" 
			},
			{
				"x": -4.5218010428,
				"y": -0.6591617017,
				"z": -1.3227038788,
				"element": "C" 
			},
			{
				"x": -5.70667814,
				"y": 0.0576658388,
				"z": -1.9262685134,
				"element": "C" 
			},
			{
				"x": -4.5535278098,
				"y": -1.8455362064,
				"z": -1.0578372301,
				"element": "O" 
			},
			{
				"x": -3.1782553079,
				"y": 1.4882016333,
				"z": -1.3099499678,
				"element": "C" 
			},
			{
				"x": -4.0100439644,
				"y": 2.2288022184,
				"z": -1.8002222669,
				"element": "O" 
			},
			{
				"x": -1.8063395132,
				"y": 1.8519830297,
				"z": -0.8340270677,
				"element": "C" 
			},
			{
				"x": -1.4481203286,
				"y": 3.1563389672,
				"z": -0.9410532379,
				"element": "C" 
			},
			{
				"x": -0.2669344487,
				"y": 3.8832639308,
				"z": -0.4806760299,
				"element": "C" 
			},
			{
				"x": 0.4241160073,
				"y": 3.564150853,
				"z": 0.7040269664,
				"element": "C" 
			},
			{
				"x": 1.5170469451,
				"y": 4.3228867159,
				"z": 1.1163421302,
				"element": "C" 
			},
			{
				"x": 1.9440263831,
				"y": 5.4148576599,
				"z": 0.356342169,
				"element": "C" 
			},
			{
				"x": 1.2557172455,
				"y": 5.7585756482,
				"z": -0.8101114484,
				"element": "C" 
			},
			{
				"x": 0.153400672,
				"y": 5.010904285,
				"z": -1.2147565371,
				"element": "C" 
			},
			{
				"x": -0.7959786538,
				"y": -6.526592267,
				"z": 1.259666135,
				"element": "H" 
			},
			{
				"x": 0.2413642236,
				"y": -5.5509218552,
				"z": 2.3505702257,
				"element": "H" 
			},
			{
				"x": 0.8199092554,
				"y": -5.9384537641,
				"z": 0.7484238445,
				"element": "H" 
			},
			{
				"x": 3.4858803291,
				"y": -2.033567343,
				"z": 1.6724439745,
				"element": "H" 
			},
			{
				"x": 4.8449848421,
				"y": -0.2709240479,
				"z": 2.6869447508,
				"element": "H" 
			},
			{
				"x": 6.1507308122,
				"y": 1.803152023,
				"z": 2.3464110713,
				"element": "H" 
			},
			{
				"x": 5.7134940875,
				"y": 3.2374999681,
				"z": 0.3604883865,
				"element": "H" 
			},
			{
				"x": 3.9728857988,
				"y": 2.5684823907,
				"z": -1.2840556034,
				"element": "H" 
			},
			{
				"x": 2.6727072049,
				"y": 0.4990909692,
				"z": -0.9439387667,
				"element": "H" 
			},
			{
				"x": 0.852123782,
				"y": 1.0765265986,
				"z": 0.1285673396,
				"element": "H" 
			},
			{
				"x": -2.612163073,
				"y": -2.5299391847,
				"z": -0.2709166413,
				"element": "H" 
			},
			{
				"x": -6.0428132358,
				"y": 0.8801054483,
				"z": -1.2909468403,
				"element": "H" 
			},
			{
				"x": -6.4960032644,
				"y": -0.6855207458,
				"z": -2.0404956811,
				"element": "H" 
			},
			{
				"x": -5.4550056891,
				"y": 0.5016969187,
				"z": -2.8919067253,
				"element": "H" 
			},
			{
				"x": -2.1879380907,
				"y": 3.7633819176,
				"z": -1.4635867084,
				"element": "H" 
			},
			{
				"x": 0.0764515302,
				"y": 2.7428597595,
				"z": 1.3206993349,
				"element": "H" 
			},
			{
				"x": 2.0334234514,
				"y": 4.064806338,
				"z": 2.0359096557,
				"element": "H" 
			},
			{
				"x": 2.7976709774,
				"y": 6.0033509381,
				"z": 0.679540301,
				"element": "H" 
			},
			{
				"x": 1.5715596038,
				"y": 6.615852068,
				"z": -1.3974265983,
				"element": "H" 
			},
			{
				"x": -0.3897474276,
				"y": 5.2882642253,
				"z": -2.1141813137,
				"element": "H" 
			}
		],
		 "valence_orbital": [ 
			{
				"type": "occ",
				"energy": -0.26473,
				"method": "rhf"
			},
			{
				"type": "occ",
				"energy": -0.26081,
				"method": "rhf"
			},
			{
				"type": "occ",
				"energy": -0.25929,
				"method": "rhf"
			},
			{
				"type": "occ",
				"energy": -0.23272,
				"method": "rhf"
			},
			{
				"type": "occ",
				"energy": -0.21006,
				"method": "rhf"
			},
			{
				"type": "unocc",
				"energy": -0.08852,
				"method": "rhf"
			},
			{
				"type": "unocc",
				"energy": -0.08507,
				"method": "rhf"
			},
			{
				"type": "unocc",
				"energy": -0.02647,
				"method": "rhf"
			},
			{
				"type": "unocc",
				"energy": -0.02157,
				"method": "rhf"
			},
			{
				"type": "unocc",
				"energy": -0.01628,
				"method": "rhf"
			}
		],
		"cosmo_sigma_profile": { 
			"-0.025": 0.0,
			"-0.024": 0.0,
			"-0.023": 0.0,
			"-0.022": 0.0,
			"-0.021": 0.0,
			"-0.02": 0.0,
			"-0.019": 0.0,
			"-0.018": 0.0,
			"-0.017": 0.0,
			"-0.016": 0.0,
			"-0.015": 0.0,
			"-0.014": 0.0,
			"-0.013": 0.0,
			"-0.012": 0.0,
			"-0.011": 0.0,
			"-0.01": 0.0,
			"-0.009": 0.0,
			"-0.008": 0.0511063327676,
			"-0.007": 6.482252707,
			"-0.006": 30.5156928327,
			"-0.005": 39.3334336533,
			"-0.004": 46.1845979715,
			"-0.003": 35.3987488169,
			"-0.002": 38.6502712716,
			"-0.001": 37.2175404308,
			"0.0": 35.1161343999,
			"0.001": 41.9223263159,
			"0.002": 39.3330137872,
			"0.003": 32.3907869233,
			"0.004": 25.2038299541,
			"0.005": 11.0730540963,
			"0.006": 6.62330377525,
			"0.007": 5.48173229151,
			"0.008": 7.29850107942,
			"0.009": 6.92904384032,
			"0.01": 8.30592881579,
			"0.011": 10.4423905972,
			"0.012": 4.97326681345,
			"0.013": 0.451180332774,
			"0.014": 0.0,
			"0.015": 0.0,
			"0.016": 0.0,
			"0.017": 0.0,
			"0.018": 0.0,
			"0.019": 0.0,
			"0.02": 0.0,
			"0.021": 0.0,
			"0.022": 0.0,
			"0.023": 0.0,
			"0.024": 0.0,
			"0.025": 0.0
		}
	}
}
