{
	 "smiles": "NC1=C(C=C(Br)C=C1Br)C(O)=O", 
	 "Tm": 509.15, 
	 "num_atms": 17, 
	 "gaussian": { 
		 "optdone": 1, 
		 "sigma_profile": "yes", 
		 "theory": "DFT", 
		 "functional": "B3LYP", 
		 "basiset": "6-31G**", 
		 "properties": { 
			 "R2extent": 5495.3261, 
			 "electric_dipole_moment_norm": 5.05689454507, 
			 "electric_quadrupole_moment_norm": 10.3252986015, 
			 "total_energy": -5617.77992458, 
			 "HOMO_LUMO_gap": 0.18809, 
			 "cosmo_polarized_energy": -14.69, 
			 "cosmo_cavitation_energy": 26.08, 
			 "cosmo_dispersion_energy": -20.32, 
			 "cosmo_repulsion_energy": 1.62, 
			 "cosmo_total_nonelectrostatic_energy": 7.38, 
			 "SMD_solvation_energy": 3.67 
		},
		"coords": [
			{
				"x": -1.3991242348,
				"y": 0.6337081731,
				"z": 1.0323381964,
				"element": "N" 
			},
			{
				"x": -0.5042984237,
				"y": 0.5634174296,
				"z": -0.0770023332,
				"element": "C" 
			},
			{
				"x": 0.8885211436,
				"y": 0.5815999352,
				"z": 0.1515748402,
				"element": "C" 
			},
			{
				"x": 1.7792874847,
				"y": 0.4899942934,
				"z": -0.922701774,
				"element": "C" 
			},
			{
				"x": 1.2989864319,
				"y": 0.4256967215,
				"z": -2.2240759987,
				"element": "C" 
			},
			{
				"x": 2.517218071,
				"y": 0.3188446035,
				"z": -3.6854834736,
				"element": "Br" 
			},
			{
				"x": -0.0701849367,
				"y": 0.4474065117,
				"z": -2.4817877273,
				"element": "C" 
			},
			{
				"x": -0.9519660198,
				"y": 0.5057185994,
				"z": -1.4064708033,
				"element": "C" 
			},
			{
				"x": -2.8298898534,
				"y": 0.5023355123,
				"z": -1.7813284658,
				"element": "Br" 
			},
			{
				"x": 1.5279185398,
				"y": 0.7511083911,
				"z": 1.5190539887,
				"element": "C" 
			},
			{
				"x": 0.7367480236,
				"y": 1.168777084,
				"z": 2.5163875666,
				"element": "O" 
			},
			{
				"x": 2.7105371374,
				"y": 0.5510314624,
				"z": 1.6868367659,
				"element": "O" 
			},
			{
				"x": -1.4764303609,
				"y": -0.2637763637,
				"z": 1.5083313146,
				"element": "H" 
			},
			{
				"x": -2.3312472527,
				"y": 0.910612243,
				"z": 0.7365423952,
				"element": "H" 
			},
			{
				"x": 2.8402960446,
				"y": 0.4886474387,
				"z": -0.705786816,
				"element": "H" 
			},
			{
				"x": -0.4457378442,
				"y": 0.4061673077,
				"z": -3.4961311244,
				"element": "H" 
			},
			{
				"x": -0.1877339505,
				"y": 1.2690106573,
				"z": 2.1808034486,
				"element": "H" 
			}
		],
		 "valence_orbital": [ 
			{
				"type": "occ",
				"energy": -0.30448,
				"method": "rhf"
			},
			{
				"type": "occ",
				"energy": -0.30146,
				"method": "rhf"
			},
			{
				"type": "occ",
				"energy": -0.27817,
				"method": "rhf"
			},
			{
				"type": "occ",
				"energy": -0.272,
				"method": "rhf"
			},
			{
				"type": "occ",
				"energy": -0.25404,
				"method": "rhf"
			},
			{
				"type": "unocc",
				"energy": -0.06595,
				"method": "rhf"
			},
			{
				"type": "unocc",
				"energy": -0.03969,
				"method": "rhf"
			},
			{
				"type": "unocc",
				"energy": -0.0337,
				"method": "rhf"
			},
			{
				"type": "unocc",
				"energy": 0.00811,
				"method": "rhf"
			},
			{
				"type": "unocc",
				"energy": 0.0396,
				"method": "rhf"
			}
		],
		"cosmo_sigma_profile": { 
			"-0.025": 0.0,
			"-0.024": 0.0,
			"-0.023": 0.0,
			"-0.022": 0.0,
			"-0.021": 0.0,
			"-0.02": 0.0,
			"-0.019": 0.0,
			"-0.018": 0.0,
			"-0.017": 0.0,
			"-0.016": 0.0,
			"-0.015": 0.398081065135,
			"-0.014": 2.01063013257,
			"-0.013": 1.76208797441,
			"-0.012": 2.73236291638,
			"-0.011": 2.81326482494,
			"-0.01": 2.33759614507,
			"-0.009": 2.71702249235,
			"-0.008": 4.13679128626,
			"-0.007": 5.47843562969,
			"-0.006": 7.30930501303,
			"-0.005": 9.29151593721,
			"-0.004": 10.1038398084,
			"-0.003": 10.3428969129,
			"-0.002": 14.6168991647,
			"-0.001": 18.6480139517,
			"0.0": 24.167507559,
			"0.001": 21.1783117133,
			"0.002": 14.0208487391,
			"0.003": 17.5455868615,
			"0.004": 14.2635757451,
			"0.005": 3.18081457608,
			"0.006": 2.03498665681,
			"0.007": 2.41490885225,
			"0.008": 2.19620921228,
			"0.009": 3.53796858579,
			"0.01": 3.36407024564,
			"0.011": 6.41316880379,
			"0.012": 4.94868106629,
			"0.013": 1.96770334191,
			"0.014": 0.182295563506,
			"0.015": 0.0,
			"0.016": 0.0,
			"0.017": 0.0,
			"0.018": 0.0,
			"0.019": 0.0,
			"0.02": 0.0,
			"0.021": 0.0,
			"0.022": 0.0,
			"0.023": 0.0,
			"0.024": 0.0,
			"0.025": 0.0
		}
	}
}
