{
	 "smiles": "COC1=CC2=C(C=C1)C(=O)CO2", 
	 "Tm": 393.15, 
	 "num_atms": 20, 
	 "gaussian": { 
		 "optdone": 1, 
		 "sigma_profile": "yes", 
		 "theory": "DFT", 
		 "functional": "B3LYP", 
		 "basiset": "6-31G**", 
		 "properties": { 
			 "R2extent": 2312.3449, 
			 "electric_dipole_moment_norm": 4.08910114084, 
			 "electric_quadrupole_moment_norm": 4.48208822314, 
			 "total_energy": -573.429942399, 
			 "HOMO_LUMO_gap": 0.17604, 
			 "cosmo_polarized_energy": -10.71, 
			 "cosmo_cavitation_energy": 24.28, 
			 "cosmo_dispersion_energy": -18.29, 
			 "cosmo_repulsion_energy": 1.45, 
			 "cosmo_total_nonelectrostatic_energy": 7.44, 
			 "SMD_solvation_energy": 5.88 
		},
		"coords": [
			{
				"x": -3.5957912721,
				"y": 0.629684997,
				"z": -0.4352133364,
				"element": "C" 
			},
			{
				"x": -2.7971905838,
				"y": -0.0422441195,
				"z": 0.5308831835,
				"element": "O" 
			},
			{
				"x": -1.4825476938,
				"y": -0.2412818329,
				"z": 0.265564441,
				"element": "C" 
			},
			{
				"x": -0.8547632969,
				"y": 0.1787083535,
				"z": -0.9143787681,
				"element": "C" 
			},
			{
				"x": 0.5050187479,
				"y": -0.1041393621,
				"z": -1.0315556016,
				"element": "C" 
			},
			{
				"x": 1.2262983728,
				"y": -0.7712789771,
				"z": -0.0363512968,
				"element": "C" 
			},
			{
				"x": 0.5790775278,
				"y": -1.1837825137,
				"z": 1.1382375145,
				"element": "C" 
			},
			{
				"x": -0.7692663574,
				"y": -0.9192824325,
				"z": 1.2871364791,
				"element": "C" 
			},
			{
				"x": 2.6056718042,
				"y": -0.8906807592,
				"z": -0.4977137426,
				"element": "C" 
			},
			{
				"x": 3.5800652486,
				"y": -1.3942997717,
				"z": 0.0332743571,
				"element": "O" 
			},
			{
				"x": 2.5987562402,
				"y": -0.2113929335,
				"z": -1.8834399041,
				"element": "C" 
			},
			{
				"x": 1.2480724278,
				"y": 0.2411236876,
				"z": -2.1176896568,
				"element": "O" 
			},
			{
				"x": -3.6241269533,
				"y": 0.0802268897,
				"z": -1.3839962504,
				"element": "H" 
			},
			{
				"x": -3.232208872,
				"y": 1.6482632116,
				"z": -0.6174307176,
				"element": "H" 
			},
			{
				"x": -4.6004362607,
				"y": 0.6745874847,
				"z": -0.0133897375,
				"element": "H" 
			},
			{
				"x": -1.3764969512,
				"y": 0.697131173,
				"z": -1.7076614101,
				"element": "H" 
			},
			{
				"x": 1.1394318419,
				"y": -1.7016057343,
				"z": 1.9105244438,
				"element": "H" 
			},
			{
				"x": -1.3169403966,
				"y": -1.2161957902,
				"z": 2.1744767182,
				"element": "H" 
			},
			{
				"x": 2.8828735416,
				"y": -0.9131448029,
				"z": -2.6739025807,
				"element": "H" 
			},
			{
				"x": 3.2739028849,
				"y": 0.6497032323,
				"z": -1.9096741346,
				"element": "H" 
			}
		],
		 "valence_orbital": [ 
			{
				"type": "occ",
				"energy": -0.34689,
				"method": "rhf"
			},
			{
				"type": "occ",
				"energy": -0.30662,
				"method": "rhf"
			},
			{
				"type": "occ",
				"energy": -0.25044,
				"method": "rhf"
			},
			{
				"type": "occ",
				"energy": -0.24307,
				"method": "rhf"
			},
			{
				"type": "occ",
				"energy": -0.22597,
				"method": "rhf"
			},
			{
				"type": "unocc",
				"energy": -0.04993,
				"method": "rhf"
			},
			{
				"type": "unocc",
				"energy": -0.00126,
				"method": "rhf"
			},
			{
				"type": "unocc",
				"energy": 0.05077,
				"method": "rhf"
			},
			{
				"type": "unocc",
				"energy": 0.08754,
				"method": "rhf"
			},
			{
				"type": "unocc",
				"energy": 0.0982,
				"method": "rhf"
			}
		],
		"cosmo_sigma_profile": { 
			"-0.025": 0.0,
			"-0.024": 0.0,
			"-0.023": 0.0,
			"-0.022": 0.0,
			"-0.021": 0.0,
			"-0.02": 0.0,
			"-0.019": 0.0,
			"-0.018": 0.0,
			"-0.017": 0.0,
			"-0.016": 0.0,
			"-0.015": 0.0,
			"-0.014": 0.0,
			"-0.013": 0.0,
			"-0.012": 0.0,
			"-0.011": 0.0,
			"-0.01": 0.0,
			"-0.009": 0.167273071935,
			"-0.008": 5.30610658917,
			"-0.007": 10.1652672571,
			"-0.006": 17.0955218166,
			"-0.005": 17.4257161589,
			"-0.004": 15.8830124058,
			"-0.003": 12.4054142893,
			"-0.002": 9.2012484286,
			"-0.001": 10.322423316,
			"0.0": 9.01684187946,
			"0.001": 13.3856922905,
			"0.002": 18.6931148862,
			"0.003": 12.9030083031,
			"0.004": 6.73656542261,
			"0.005": 5.07067035609,
			"0.006": 3.53889337381,
			"0.007": 4.45735902631,
			"0.008": 3.14870299967,
			"0.009": 4.4058185879,
			"0.01": 3.18304028589,
			"0.011": 2.61346187163,
			"0.012": 5.05343570813,
			"0.013": 3.57816708639,
			"0.014": 0.385945910036,
			"0.015": 0.0,
			"0.016": 0.0,
			"0.017": 0.0,
			"0.018": 0.0,
			"0.019": 0.0,
			"0.02": 0.0,
			"0.021": 0.0,
			"0.022": 0.0,
			"0.023": 0.0,
			"0.024": 0.0,
			"0.025": 0.0
		}
	}
}
