{
	 "smiles": "OC(=O)C1=CN(CCCl)N=C1", 
	 "Tm": 421.15, 
	 "num_atms": 18, 
	 "gaussian": { 
		 "optdone": 1, 
		 "sigma_profile": "yes", 
		 "theory": "DFT", 
		 "functional": "B3LYP", 
		 "basiset": "6-31G**", 
		 "properties": { 
			 "R2extent": 2720.289, 
			 "electric_dipole_moment_norm": 4.02504443454, 
			 "electric_quadrupole_moment_norm": 23.4508305186, 
			 "total_energy": -952.985891246, 
			 "HOMO_LUMO_gap": 0.23626, 
			 "cosmo_polarized_energy": -21.42, 
			 "cosmo_cavitation_energy": 24.87, 
			 "cosmo_dispersion_energy": -17.94, 
			 "cosmo_repulsion_energy": 1.46, 
			 "cosmo_total_nonelectrostatic_energy": 8.39, 
			 "SMD_solvation_energy": 4.56 
		},
		"coords": [
			{
				"x": 1.8385280373,
				"y": -2.5159355353,
				"z": -1.4191078867,
				"element": "O" 
			},
			{
				"x": 1.7145658918,
				"y": -1.4541618849,
				"z": -0.5767453002,
				"element": "C" 
			},
			{
				"x": 2.5919222125,
				"y": -1.2084605063,
				"z": 0.2197627449,
				"element": "O" 
			},
			{
				"x": 0.4822691401,
				"y": -0.6513387213,
				"z": -0.6980927093,
				"element": "C" 
			},
			{
				"x": 0.177163489,
				"y": 0.4163265026,
				"z": 0.1338436994,
				"element": "C" 
			},
			{
				"x": -1.009864431,
				"y": 0.9119398603,
				"z": -0.2799616778,
				"element": "N" 
			},
			{
				"x": -1.7661331315,
				"y": 2.0187146871,
				"z": 0.2857825436,
				"element": "C" 
			},
			{
				"x": -2.3441058935,
				"y": 1.7348029395,
				"z": 1.6694048493,
				"element": "C" 
			},
			{
				"x": -3.5954437057,
				"y": 0.4335319064,
				"z": 1.6489313529,
				"element": "Cl" 
			},
			{
				"x": -1.5120342442,
				"y": 0.2356461823,
				"z": -1.3463595826,
				"element": "N" 
			},
			{
				"x": -0.6141825636,
				"y": -0.7079085881,
				"z": -1.599460682,
				"element": "C" 
			},
			{
				"x": 1.0461271575,
				"y": -2.6151863594,
				"z": -1.9643484005,
				"element": "H" 
			},
			{
				"x": 0.736752104,
				"y": 0.8267900054,
				"z": 0.9612563566,
				"element": "H" 
			},
			{
				"x": -1.1103265954,
				"y": 2.8944003908,
				"z": 0.3655980724,
				"element": "H" 
			},
			{
				"x": -2.5585218327,
				"y": 2.2433288748,
				"z": -0.4290442445,
				"element": "H" 
			},
			{
				"x": -2.8233568971,
				"y": 2.6365833679,
				"z": 2.0550559937,
				"element": "H" 
			},
			{
				"x": -1.5695380965,
				"y": 1.4182358733,
				"z": 2.3702414954,
				"element": "H" 
			},
			{
				"x": -0.7883206409,
				"y": -1.3820089955,
				"z": -2.4296566246,
				"element": "H" 
			}
		],
		 "valence_orbital": [ 
			{
				"type": "occ",
				"energy": -0.3117,
				"method": "rhf"
			},
			{
				"type": "occ",
				"energy": -0.31003,
				"method": "rhf"
			},
			{
				"type": "occ",
				"energy": -0.27825,
				"method": "rhf"
			},
			{
				"type": "occ",
				"energy": -0.27029,
				"method": "rhf"
			},
			{
				"type": "occ",
				"energy": -0.26693,
				"method": "rhf"
			},
			{
				"type": "unocc",
				"energy": -0.03067,
				"method": "rhf"
			},
			{
				"type": "unocc",
				"energy": 0.00045,
				"method": "rhf"
			},
			{
				"type": "unocc",
				"energy": 0.01112,
				"method": "rhf"
			},
			{
				"type": "unocc",
				"energy": 0.05502,
				"method": "rhf"
			},
			{
				"type": "unocc",
				"energy": 0.07101,
				"method": "rhf"
			}
		],
		"cosmo_sigma_profile": { 
			"-0.025": 0.0,
			"-0.024": 0.0,
			"-0.023": 0.0,
			"-0.022": 0.0,
			"-0.021": 0.0,
			"-0.02": 0.0,
			"-0.019": 0.108636075574,
			"-0.018": 1.18981878425,
			"-0.017": 1.42067623061,
			"-0.016": 0.724352788807,
			"-0.015": 1.40336747786,
			"-0.014": 0.891015768627,
			"-0.013": 1.15079666573,
			"-0.012": 1.26515223441,
			"-0.011": 2.78023637508,
			"-0.01": 4.33009727231,
			"-0.009": 7.36364472337,
			"-0.008": 13.2432056486,
			"-0.007": 11.236143703,
			"-0.006": 8.5487473815,
			"-0.005": 9.29839961972,
			"-0.004": 5.8725108791,
			"-0.003": 6.5660001938,
			"-0.002": 5.42722738736,
			"-0.001": 8.75662347049,
			"0.0": 9.32494030598,
			"0.001": 9.94934879338,
			"0.002": 11.8183978687,
			"0.003": 8.59541942762,
			"0.004": 8.3539700436,
			"0.005": 9.97866355555,
			"0.006": 12.5619196975,
			"0.007": 5.43329303608,
			"0.008": 5.72876479234,
			"0.009": 3.91204977382,
			"0.01": 5.28788625295,
			"0.011": 6.27363677911,
			"0.012": 6.96939580865,
			"0.013": 3.61453657731,
			"0.014": 0.929444696308,
			"0.015": 0.165479888808,
			"0.016": 0.0,
			"0.017": 0.0,
			"0.018": 0.0,
			"0.019": 0.0,
			"0.02": 0.0,
			"0.021": 0.0,
			"0.022": 0.0,
			"0.023": 0.0,
			"0.024": 0.0,
			"0.025": 0.0
		}
	}
}
