{
	 "smiles": "CCCCCCCCCCC(C)=O", 
	 "Tm": 293.15, 
	 "num_atms": 37, 
	 "gaussian": { 
		 "optdone": 1, 
		 "sigma_profile": "yes", 
		 "theory": "DFT", 
		 "functional": "B3LYP", 
		 "basiset": "6-31G**", 
		 "properties": { 
			 "R2extent": 4951.8813, 
			 "electric_dipole_moment_norm": 2.50387760484, 
			 "electric_quadrupole_moment_norm": 12.6578772486, 
			 "total_energy": -546.997955031, 
			 "HOMO_LUMO_gap": 0.23241, 
			 "cosmo_polarized_energy": -6.96, 
			 "cosmo_cavitation_energy": 37.55, 
			 "cosmo_dispersion_energy": -25.38, 
			 "cosmo_repulsion_energy": 2.11, 
			 "cosmo_total_nonelectrostatic_energy": 14.28, 
			 "SMD_solvation_energy": 6.05 
		},
		"coords": [
			{
				"x": 0.811392109,
				"y": -4.6294595099,
				"z": 1.1799831729,
				"element": "C" 
			},
			{
				"x": 1.2151598286,
				"y": -3.3432585579,
				"z": 0.4489255767,
				"element": "C" 
			},
			{
				"x": 0.1814360591,
				"y": -2.8343431872,
				"z": -0.5707562879,
				"element": "C" 
			},
			{
				"x": -1.1395192766,
				"y": -2.3540170926,
				"z": 0.0481672668,
				"element": "C" 
			},
			{
				"x": -2.1866110531,
				"y": -1.8765622325,
				"z": -0.9749722279,
				"element": "C" 
			},
			{
				"x": -1.8052460203,
				"y": -0.6448141401,
				"z": -1.8154765059,
				"element": "C" 
			},
			{
				"x": -1.5954352585,
				"y": 0.6443706995,
				"z": -1.0081876603,
				"element": "C" 
			},
			{
				"x": -1.3107086468,
				"y": 1.8634896294,
				"z": -1.8973835719,
				"element": "C" 
			},
			{
				"x": -1.1517336864,
				"y": 3.1934844088,
				"z": -1.1404922939,
				"element": "C" 
			},
			{
				"x": 0.0922751586,
				"y": 3.2874544205,
				"z": -0.2490106966,
				"element": "C" 
			},
			{
				"x": 1.4080617995,
				"y": 3.4024782804,
				"z": -1.01384841,
				"element": "C" 
			},
			{
				"x": 2.6804124682,
				"y": 3.253964754,
				"z": -0.1954914673,
				"element": "C" 
			},
			{
				"x": 1.4449816482,
				"y": 3.6133722982,
				"z": -2.2120364752,
				"element": "O" 
			},
			{
				"x": 1.6083674113,
				"y": -4.9678205256,
				"z": 1.8504986219,
				"element": "H" 
			},
			{
				"x": -0.0892629733,
				"y": -4.4916349157,
				"z": 1.7868580834,
				"element": "H" 
			},
			{
				"x": 0.610290162,
				"y": -5.4393722025,
				"z": 0.4689032402,
				"element": "H" 
			},
			{
				"x": 1.4149207536,
				"y": -2.5521987669,
				"z": 1.1853208887,
				"element": "H" 
			},
			{
				"x": 2.1653664906,
				"y": -3.5163962122,
				"z": -0.0724691243,
				"element": "H" 
			},
			{
				"x": -0.0295889487,
				"y": -3.6313704746,
				"z": -1.2989116552,
				"element": "H" 
			},
			{
				"x": 0.634617361,
				"y": -2.0153480591,
				"z": -1.1434982492,
				"element": "H" 
			},
			{
				"x": -0.928522509,
				"y": -1.5531948599,
				"z": 0.7703480076,
				"element": "H" 
			},
			{
				"x": -1.5860529076,
				"y": -3.1691208296,
				"z": 0.6310118789,
				"element": "H" 
			},
			{
				"x": -3.1226248857,
				"y": -1.6598543298,
				"z": -0.4418992843,
				"element": "H" 
			},
			{
				"x": -2.4140096897,
				"y": -2.7081164835,
				"z": -1.6561189797,
				"element": "H" 
			},
			{
				"x": -2.6018696927,
				"y": -0.4717928715,
				"z": -2.55180479,
				"element": "H" 
			},
			{
				"x": -0.9014007825,
				"y": -0.8545273565,
				"z": -2.4027351992,
				"element": "H" 
			},
			{
				"x": -0.7716041237,
				"y": 0.49986633,
				"z": -0.2972067155,
				"element": "H" 
			},
			{
				"x": -2.490512747,
				"y": 0.8390761608,
				"z": -0.3987347603,
				"element": "H" 
			},
			{
				"x": -2.1360813952,
				"y": 1.9739199813,
				"z": -2.6133836662,
				"element": "H" 
			},
			{
				"x": -0.4123350262,
				"y": 1.6841927427,
				"z": -2.5002768059,
				"element": "H" 
			},
			{
				"x": -1.1072931035,
				"y": 4.0100773539,
				"z": -1.868571618,
				"element": "H" 
			},
			{
				"x": -2.0412529767,
				"y": 3.3663440691,
				"z": -0.5209567273,
				"element": "H" 
			},
			{
				"x": 0.0315595965,
				"y": 4.1797344377,
				"z": 0.3925861605,
				"element": "H" 
			},
			{
				"x": 0.1627108078,
				"y": 2.4448389705,
				"z": 0.4513558259,
				"element": "H" 
			},
			{
				"x": 3.5453846009,
				"y": 3.5263868926,
				"z": -0.8019499982,
				"element": "H" 
			},
			{
				"x": 2.7868643894,
				"y": 2.2132979758,
				"z": 0.1345479452,
				"element": "H" 
			},
			{
				"x": 2.6455650587,
				"y": 3.8720532024,
				"z": 0.7084665018,
				"element": "H" 
			}
		],
		 "valence_orbital": [ 
			{
				"type": "occ",
				"energy": -0.31519,
				"method": "rhf"
			},
			{
				"type": "occ",
				"energy": -0.30525,
				"method": "rhf"
			},
			{
				"type": "occ",
				"energy": -0.30372,
				"method": "rhf"
			},
			{
				"type": "occ",
				"energy": -0.2993,
				"method": "rhf"
			},
			{
				"type": "occ",
				"energy": -0.24258,
				"method": "rhf"
			},
			{
				"type": "unocc",
				"energy": -0.01017,
				"method": "rhf"
			},
			{
				"type": "unocc",
				"energy": 0.07222,
				"method": "rhf"
			},
			{
				"type": "unocc",
				"energy": 0.09059,
				"method": "rhf"
			},
			{
				"type": "unocc",
				"energy": 0.10526,
				"method": "rhf"
			},
			{
				"type": "unocc",
				"energy": 0.11314,
				"method": "rhf"
			}
		],
		"cosmo_sigma_profile": { 
			"-0.025": 0.0,
			"-0.024": 0.0,
			"-0.023": 0.0,
			"-0.022": 0.0,
			"-0.021": 0.0,
			"-0.02": 0.0,
			"-0.019": 0.0,
			"-0.018": 0.0,
			"-0.017": 0.0,
			"-0.016": 0.0,
			"-0.015": 0.0,
			"-0.014": 0.0,
			"-0.013": 0.0,
			"-0.012": 0.0,
			"-0.011": 0.0,
			"-0.01": 0.0,
			"-0.009": 0.0,
			"-0.008": 0.0,
			"-0.007": 0.0249916626343,
			"-0.006": 4.77460638449,
			"-0.005": 11.266457247,
			"-0.004": 11.0861606812,
			"-0.003": 13.3301999366,
			"-0.002": 36.7093335535,
			"-0.001": 57.863924332,
			"0.0": 60.0081368135,
			"0.001": 46.932568818,
			"0.002": 21.4623472629,
			"0.003": 2.71060120417,
			"0.004": 1.85619884609,
			"0.005": 1.96324678496,
			"0.006": 1.21607830368,
			"0.007": 2.45965330861,
			"0.008": 1.70607547419,
			"0.009": 1.95220821313,
			"0.01": 1.66869192164,
			"0.011": 2.53583287006,
			"0.012": 4.05226294398,
			"0.013": 2.50152606476,
			"0.014": 0.363526965776,
			"0.015": 0.0,
			"0.016": 0.0,
			"0.017": 0.0,
			"0.018": 0.0,
			"0.019": 0.0,
			"0.02": 0.0,
			"0.021": 0.0,
			"0.022": 0.0,
			"0.023": 0.0,
			"0.024": 0.0,
			"0.025": 0.0
		}
	}
}
