{
	 "smiles": "CCCC(N1N=NC2=C1C=CC=C2)C(N)=O", 
	 "Tm": 398.15, 
	 "num_atms": 30, 
	 "gaussian": { 
		 "optdone": 1, 
		 "sigma_profile": "yes", 
		 "theory": "DFT", 
		 "functional": "B3LYP", 
		 "basiset": "6-31G**", 
		 "properties": { 
			 "R2extent": 3735.2308, 
			 "electric_dipole_moment_norm": 2.51092272681, 
			 "electric_quadrupole_moment_norm": 14.4226505615, 
			 "total_energy": -721.829456207, 
			 "HOMO_LUMO_gap": 0.1862, 
			 "cosmo_polarized_energy": -14.67, 
			 "cosmo_cavitation_energy": 32.73, 
			 "cosmo_dispersion_energy": -23.02, 
			 "cosmo_repulsion_energy": 1.8, 
			 "cosmo_total_nonelectrostatic_energy": 11.52, 
			 "SMD_solvation_energy": 4.49 
		},
		"coords": [
			{
				"x": -2.4800412767,
				"y": 1.0551420845,
				"z": 1.7502587726,
				"element": "C" 
			},
			{
				"x": -2.0003934281,
				"y": -0.3060421197,
				"z": 2.2714056169,
				"element": "C" 
			},
			{
				"x": -0.4781545643,
				"y": -0.4278078848,
				"z": 2.4876300741,
				"element": "C" 
			},
			{
				"x": 0.3781004041,
				"y": -0.8849331194,
				"z": 1.2798476869,
				"element": "C" 
			},
			{
				"x": 0.3892792004,
				"y": 0.0694788231,
				"z": 0.1629404819,
				"element": "N" 
			},
			{
				"x": -0.5444238535,
				"y": 0.0750533971,
				"z": -0.8330127977,
				"element": "N" 
			},
			{
				"x": -0.3346840682,
				"y": 1.0706983351,
				"z": -1.632646873,
				"element": "N" 
			},
			{
				"x": 0.7550787886,
				"y": 1.7703865307,
				"z": -1.1668445275,
				"element": "C" 
			},
			{
				"x": 1.2329162189,
				"y": 1.1352954091,
				"z": -0.0023188822,
				"element": "C" 
			},
			{
				"x": 2.3442989051,
				"y": 1.6184562886,
				"z": 0.707835737,
				"element": "C" 
			},
			{
				"x": 2.9527455713,
				"y": 2.7548241243,
				"z": 0.1977942289,
				"element": "C" 
			},
			{
				"x": 2.4822703491,
				"y": 3.4001369816,
				"z": -0.974018156,
				"element": "C" 
			},
			{
				"x": 1.385103319,
				"y": 2.9221511175,
				"z": -1.669564066,
				"element": "C" 
			},
			{
				"x": 0.0597407909,
				"y": -2.3616721765,
				"z": 0.9339252096,
				"element": "C" 
			},
			{
				"x": -0.5853688158,
				"y": -2.632187611,
				"z": -0.223036751,
				"element": "N" 
			},
			{
				"x": 0.3906518383,
				"y": -3.2114053647,
				"z": 1.7512053201,
				"element": "O" 
			},
			{
				"x": -2.153107557,
				"y": 1.8643954379,
				"z": 2.4136499426,
				"element": "H" 
			},
			{
				"x": -2.1082402568,
				"y": 1.2689067121,
				"z": 0.745718439,
				"element": "H" 
			},
			{
				"x": -3.5737480342,
				"y": 1.0863291508,
				"z": 1.7077026145,
				"element": "H" 
			},
			{
				"x": -2.3460201795,
				"y": -1.104883764,
				"z": 1.6039496952,
				"element": "H" 
			},
			{
				"x": -2.4843377152,
				"y": -0.4966729818,
				"z": 3.2367801295,
				"element": "H" 
			},
			{
				"x": -0.2746993995,
				"y": -1.1747519086,
				"z": 3.2610334614,
				"element": "H" 
			},
			{
				"x": -0.0763258797,
				"y": 0.5260390236,
				"z": 2.8518628112,
				"element": "H" 
			},
			{
				"x": 1.4165049145,
				"y": -0.9275809759,
				"z": 1.6200780047,
				"element": "H" 
			},
			{
				"x": 2.712186396,
				"y": 1.1353633166,
				"z": 1.6068615467,
				"element": "H" 
			},
			{
				"x": 3.8168425427,
				"y": 3.1659293969,
				"z": 0.7111577267,
				"element": "H" 
			},
			{
				"x": 2.9987456755,
				"y": 4.2874187718,
				"z": -1.326599939,
				"element": "H" 
			},
			{
				"x": 1.0150690206,
				"y": 3.4054116764,
				"z": -2.5673546326,
				"element": "H" 
			},
			{
				"x": -0.8075918383,
				"y": -3.5981092374,
				"z": -0.4125142824,
				"element": "H" 
			},
			{
				"x": -0.8984970682,
				"y": -1.8874694336,
				"z": -0.8352265919,
				"element": "H" 
			}
		],
		 "valence_orbital": [ 
			{
				"type": "occ",
				"energy": -0.2805,
				"method": "rhf"
			},
			{
				"type": "occ",
				"energy": -0.26907,
				"method": "rhf"
			},
			{
				"type": "occ",
				"energy": -0.26111,
				"method": "rhf"
			},
			{
				"type": "occ",
				"energy": -0.25847,
				"method": "rhf"
			},
			{
				"type": "occ",
				"energy": -0.24054,
				"method": "rhf"
			},
			{
				"type": "unocc",
				"energy": -0.05434,
				"method": "rhf"
			},
			{
				"type": "unocc",
				"energy": 0.00045,
				"method": "rhf"
			},
			{
				"type": "unocc",
				"energy": 0.02049,
				"method": "rhf"
			},
			{
				"type": "unocc",
				"energy": 0.02464,
				"method": "rhf"
			},
			{
				"type": "unocc",
				"energy": 0.07779,
				"method": "rhf"
			}
		],
		"cosmo_sigma_profile": { 
			"-0.025": 0.0,
			"-0.024": 0.0,
			"-0.023": 0.0,
			"-0.022": 0.0,
			"-0.021": 0.0,
			"-0.02": 0.0,
			"-0.019": 0.0,
			"-0.018": 0.0,
			"-0.017": 0.0,
			"-0.016": 0.0,
			"-0.015": 0.0689900334216,
			"-0.014": 1.16796674677,
			"-0.013": 0.803597656381,
			"-0.012": 1.19722536398,
			"-0.011": 1.05885979592,
			"-0.01": 2.18957564655,
			"-0.009": 4.05922027435,
			"-0.008": 4.78595338515,
			"-0.007": 8.17988513668,
			"-0.006": 10.2161768803,
			"-0.005": 12.2569276717,
			"-0.004": 13.8787968902,
			"-0.003": 19.9612540602,
			"-0.002": 24.1293333673,
			"-0.001": 27.2072782888,
			"0.0": 23.8699845895,
			"0.001": 21.7502006489,
			"0.002": 19.8484053591,
			"0.003": 14.447144178,
			"0.004": 11.2426107499,
			"0.005": 3.79994339084,
			"0.006": 3.60806965576,
			"0.007": 3.00900891843,
			"0.008": 3.08729413638,
			"0.009": 2.18436971767,
			"0.01": 3.70338515978,
			"0.011": 2.00842122479,
			"0.012": 3.01449063594,
			"0.013": 5.80513467224,
			"0.014": 5.29542620108,
			"0.015": 1.29410344268,
			"0.016": 0.0520668724821,
			"0.017": 0.0,
			"0.018": 0.0,
			"0.019": 0.0,
			"0.02": 0.0,
			"0.021": 0.0,
			"0.022": 0.0,
			"0.023": 0.0,
			"0.024": 0.0,
			"0.025": 0.0
		}
	}
}
