{
	 "smiles": "NS(=O)(=O)C1=C(Br)C=CC(Br)=C1", 
	 "Tm": 473.15, 
	 "num_atms": 17, 
	 "gaussian": { 
		 "optdone": 1, 
		 "sigma_profile": "yes", 
		 "theory": "DFT", 
		 "functional": "B3LYP", 
		 "basiset": "6-31G**", 
		 "properties": { 
			 "R2extent": 5828.3016, 
			 "electric_dipole_moment_norm": 2.9443103437, 
			 "electric_quadrupole_moment_norm": 21.5584912631, 
			 "total_energy": -5977.76393841, 
			 "HOMO_LUMO_gap": 0.19885, 
			 "cosmo_polarized_energy": -15.88, 
			 "cosmo_cavitation_energy": 27.4, 
			 "cosmo_dispersion_energy": -21.44, 
			 "cosmo_repulsion_energy": 1.67, 
			 "cosmo_total_nonelectrostatic_energy": 7.62, 
			 "SMD_solvation_energy": 2.25 
		},
		"coords": [
			{
				"x": -1.475837574,
				"y": -2.7722266592,
				"z": 0.2230539633,
				"element": "N" 
			},
			{
				"x": 0.1664689658,
				"y": -3.003293557,
				"z": 0.549969498,
				"element": "S" 
			},
			{
				"x": 0.2657782275,
				"y": -3.5437039472,
				"z": 1.9058034224,
				"element": "O" 
			},
			{
				"x": 0.7462459271,
				"y": -3.6845033204,
				"z": -0.607616198,
				"element": "O" 
			},
			{
				"x": 0.8003465578,
				"y": -1.3072996225,
				"z": 0.5761072005,
				"element": "C" 
			},
			{
				"x": 2.1592934147,
				"y": -1.0583293795,
				"z": 0.8218105544,
				"element": "C" 
			},
			{
				"x": 3.4187468104,
				"y": -2.4452661804,
				"z": 1.1402544323,
				"element": "Br" 
			},
			{
				"x": 2.6279310594,
				"y": 0.2557354505,
				"z": 0.8377301419,
				"element": "C" 
			},
			{
				"x": 1.7608461934,
				"y": 1.3228213681,
				"z": 0.6123473813,
				"element": "C" 
			},
			{
				"x": 0.4145009051,
				"y": 1.0645715156,
				"z": 0.3696615747,
				"element": "C" 
			},
			{
				"x": -0.786068718,
				"y": 2.5123024223,
				"z": 0.059580132,
				"element": "Br" 
			},
			{
				"x": -0.0724513781,
				"y": -0.2397883865,
				"z": 0.349629828,
				"element": "C" 
			},
			{
				"x": -1.7092684926,
				"y": -3.2273993787,
				"z": -0.6551797776,
				"element": "H" 
			},
			{
				"x": -2.0252583195,
				"y": -3.1349423665,
				"z": 0.9973563574,
				"element": "H" 
			},
			{
				"x": 3.6787470118,
				"y": 0.4410636175,
				"z": 1.0280978002,
				"element": "H" 
			},
			{
				"x": 2.1324859178,
				"y": 2.3408461133,
				"z": 0.6263358301,
				"element": "H" 
			},
			{
				"x": -1.1182065087,
				"y": -0.4411876894,
				"z": 0.161157859,
				"element": "H" 
			}
		],
		 "valence_orbital": [ 
			{
				"type": "occ",
				"energy": -0.30229,
				"method": "rhf"
			},
			{
				"type": "occ",
				"energy": -0.30182,
				"method": "rhf"
			},
			{
				"type": "occ",
				"energy": -0.28847,
				"method": "rhf"
			},
			{
				"type": "occ",
				"energy": -0.28615,
				"method": "rhf"
			},
			{
				"type": "occ",
				"energy": -0.25223,
				"method": "rhf"
			},
			{
				"type": "unocc",
				"energy": -0.05338,
				"method": "rhf"
			},
			{
				"type": "unocc",
				"energy": -0.04076,
				"method": "rhf"
			},
			{
				"type": "unocc",
				"energy": -0.02093,
				"method": "rhf"
			},
			{
				"type": "unocc",
				"energy": -0.00111,
				"method": "rhf"
			},
			{
				"type": "unocc",
				"energy": 0.0446,
				"method": "rhf"
			}
		],
		"cosmo_sigma_profile": { 
			"-0.025": 0.0,
			"-0.024": 0.0,
			"-0.023": 0.0,
			"-0.022": 0.0,
			"-0.021": 0.0,
			"-0.02": 0.0,
			"-0.019": 0.0,
			"-0.018": 0.0,
			"-0.017": 0.0,
			"-0.016": 0.132762364841,
			"-0.015": 2.28801659742,
			"-0.014": 2.534712136,
			"-0.013": 2.39296183226,
			"-0.012": 2.66360657315,
			"-0.011": 1.94549289883,
			"-0.01": 1.60804776705,
			"-0.009": 3.43905166899,
			"-0.008": 6.91879771956,
			"-0.007": 4.92307297238,
			"-0.006": 7.05228958611,
			"-0.005": 9.49400864813,
			"-0.004": 10.2561370492,
			"-0.003": 10.1888895182,
			"-0.002": 13.2758454272,
			"-0.001": 17.7208151675,
			"0.0": 28.3058507057,
			"0.001": 16.5373007023,
			"0.002": 13.8977543567,
			"0.003": 18.4678707326,
			"0.004": 12.4109249989,
			"0.005": 3.64275246054,
			"0.006": 3.63908404771,
			"0.007": 3.85540528462,
			"0.008": 4.55924883207,
			"0.009": 4.5259306449,
			"0.01": 11.5260384766,
			"0.011": 7.65355777971,
			"0.012": 0.449996257845,
			"0.013": 0.0,
			"0.014": 0.0,
			"0.015": 0.0,
			"0.016": 0.0,
			"0.017": 0.0,
			"0.018": 0.0,
			"0.019": 0.0,
			"0.02": 0.0,
			"0.021": 0.0,
			"0.022": 0.0,
			"0.023": 0.0,
			"0.024": 0.0,
			"0.0": 0.0
		}
	}
}
