{
	 "smiles": "CC1=NC2=C(N=NC3=CC=CC(=C3)C(F)(F)F)C(N)=NN2C(=C1)C(F)(F)F", 
	 "Tm": 444.15, 
	 "num_atms": 37, 
	 "gaussian": { 
		 "optdone": 1, 
		 "sigma_profile": "yes", 
		 "theory": "DFT", 
		 "functional": "B3LYP", 
		 "basiset": "6-31G**", 
		 "properties": { 
			 "R2extent": 16500.9332, 
			 "electric_dipole_moment_norm": 4.1737945661, 
			 "electric_quadrupole_moment_norm": 14.89545963, 
			 "total_energy": -1505.13317356, 
			 "HOMO_LUMO_gap": 0.13119, 
			 "cosmo_polarized_energy": -14.01, 
			 "cosmo_cavitation_energy": 46.22, 
			 "cosmo_dispersion_energy": -32.26, 
			 "cosmo_repulsion_energy": 2.31, 
			 "cosmo_total_nonelectrostatic_energy": 16.27, 
			 "SMD_solvation_energy": 6.82 
		},
		"coords": [
			{
				"x": 1.8459963649,
				"y": -1.4490277846,
				"z": 4.4609220956,
				"element": "C" 
			},
			{
				"x": 0.8380641202,
				"y": -1.5801040184,
				"z": 3.3515858103,
				"element": "C" 
			},
			{
				"x": 1.0056939599,
				"y": -0.8239049946,
				"z": 2.2721541556,
				"element": "N" 
			},
			{
				"x": 0.1129995615,
				"y": -0.935475388,
				"z": 1.2818913969,
				"element": "C" 
			},
			{
				"x": -0.0103212799,
				"y": -0.3022397373,
				"z": 0.0286373904,
				"element": "C" 
			},
			{
				"x": 0.8539838511,
				"y": 0.6397719607,
				"z": -0.4485011568,
				"element": "N" 
			},
			{
				"x": 0.577676282,
				"y": 1.100676894,
				"z": -1.6072019179,
				"element": "N" 
			},
			{
				"x": 1.4911109969,
				"y": 2.0750270618,
				"z": -2.0752671703,
				"element": "C" 
			},
			{
				"x": 2.6197320581,
				"y": 2.51852321,
				"z": -1.3625179132,
				"element": "C" 
			},
			{
				"x": 3.4568600965,
				"y": 3.4784128645,
				"z": -1.9200686017,
				"element": "C" 
			},
			{
				"x": 3.1891746205,
				"y": 4.0119393957,
				"z": -3.1842004472,
				"element": "C" 
			},
			{
				"x": 2.0674844147,
				"y": 3.5717954578,
				"z": -3.8913244446,
				"element": "C" 
			},
			{
				"x": 1.221990036,
				"y": 2.6085661868,
				"z": -3.341640812,
				"element": "C" 
			},
			{
				"x": 1.7361230171,
				"y": 4.181119534,
				"z": -5.2266673933,
				"element": "C" 
			},
			{
				"x": 2.8468988971,
				"y": 4.565775749,
				"z": -5.8943057542,
				"element": "F" 
			},
			{
				"x": 1.0615323791,
				"y": 3.3208421585,
				"z": -6.0220335325,
				"element": "F" 
			},
			{
				"x": 0.9590090711,
				"y": 5.2822143249,
				"z": -5.0946576238,
				"element": "F" 
			},
			{
				"x": -1.1958090122,
				"y": -0.8765502648,
				"z": -0.5531261218,
				"element": "C" 
			},
			{
				"x": -1.696342023,
				"y": -0.5601994222,
				"z": -1.7607381203,
				"element": "N" 
			},
			{
				"x": -1.7764443598,
				"y": -1.7868674104,
				"z": 0.2445706671,
				"element": "N" 
			},
			{
				"x": -0.9782349204,
				"y": -1.8149104646,
				"z": 1.3501703937,
				"element": "N" 
			},
			{
				"x": -1.159635838,
				"y": -2.5910724683,
				"z": 2.4457221384,
				"element": "C" 
			},
			{
				"x": -0.249707784,
				"y": -2.4874507856,
				"z": 3.4724096218,
				"element": "C" 
			},
			{
				"x": -2.349262989,
				"y": -3.5268563136,
				"z": 2.4800674522,
				"element": "C" 
			},
			{
				"x": -2.3589026644,
				"y": -4.2103573428,
				"z": 3.643728935,
				"element": "F" 
			},
			{
				"x": -2.3002439323,
				"y": -4.4204617262,
				"z": 1.4801173021,
				"element": "F" 
			},
			{
				"x": -3.5066322517,
				"y": -2.8536264658,
				"z": 2.3904197657,
				"element": "F" 
			},
			{
				"x": 2.5997848049,
				"y": -0.7100976721,
				"z": 4.1875084986,
				"element": "H" 
			},
			{
				"x": 1.3632773146,
				"y": -1.1378743648,
				"z": 5.3944179691,
				"element": "H" 
			},
			{
				"x": 2.3402832935,
				"y": -2.4074641284,
				"z": 4.6567398486,
				"element": "H" 
			},
			{
				"x": 2.8165238506,
				"y": 2.0952693339,
				"z": -0.3843945317,
				"element": "H" 
			},
			{
				"x": 4.3304102723,
				"y": 3.8158721759,
				"z": -1.3700281256,
				"element": "H" 
			},
			{
				"x": 3.8475380517,
				"y": 4.7545878489,
				"z": -3.6213061657,
				"element": "H" 
			},
			{
				"x": 0.3542672972,
				"y": 2.2555685165,
				"z": -3.8876301582,
				"element": "H" 
			},
			{
				"x": -2.5328863706,
				"y": -1.0093812697,
				"z": -2.0957258574,
				"element": "H" 
			},
			{
				"x": -1.1921200351,
				"y": 0.137039328,
				"z": -2.2927592111,
				"element": "H" 
			},
			{
				"x": -0.3758711516,
				"y": -3.0980799785,
				"z": 4.3561316183,
				"element": "H" 
			}
		],
		 "valence_orbital": [ 
			{
				"type": "occ",
				"energy": -0.27694,
				"method": "rhf"
			},
			{
				"type": "occ",
				"energy": -0.26567,
				"method": "rhf"
			},
			{
				"type": "occ",
				"energy": -0.23674,
				"method": "rhf"
			},
			{
				"type": "occ",
				"energy": -0.23437,
				"method": "rhf"
			},
			{
				"type": "occ",
				"energy": -0.21327,
				"method": "rhf"
			},
			{
				"type": "unocc",
				"energy": -0.08208,
				"method": "rhf"
			},
			{
				"type": "unocc",
				"energy": -0.07072,
				"method": "rhf"
			},
			{
				"type": "unocc",
				"energy": -0.02247,
				"method": "rhf"
			},
			{
				"type": "unocc",
				"energy": -0.01528,
				"method": "rhf"
			},
			{
				"type": "unocc",
				"energy": 0.01585,
				"method": "rhf"
			}
		],
		"cosmo_sigma_profile": { 
			"-0.025": 0.0,
			"-0.024": 0.0,
			"-0.023": 0.0,
			"-0.022": 0.0,
			"-0.021": 0.0,
			"-0.02": 0.0,
			"-0.019": 0.0,
			"-0.018": 0.0,
			"-0.017": 0.0,
			"-0.016": 0.0,
			"-0.015": 0.499563877095,
			"-0.014": 1.20419882276,
			"-0.013": 1.29379008627,
			"-0.012": 0.55243844506,
			"-0.011": 1.20453000937,
			"-0.01": 1.51289306303,
			"-0.009": 2.96658225407,
			"-0.008": 3.41898661998,
			"-0.007": 6.33214091647,
			"-0.006": 15.9997028909,
			"-0.005": 22.2220555961,
			"-0.004": 23.0590801501,
			"-0.003": 21.4746445921,
			"-0.002": 25.2231564628,
			"-0.001": 23.6499312421,
			"0.0": 24.6554613747,
			"0.001": 39.4192911973,
			"0.002": 65.3452561406,
			"0.003": 50.0023080041,
			"0.004": 12.97967873,
			"0.005": 5.57719070517,
			"0.006": 3.82722029982,
			"0.007": 4.2421154108,
			"0.008": 2.91043419797,
			"0.009": 3.50046441731,
			"0.01": 3.02472052301,
			"0.011": 2.67024420984,
			"0.012": 1.7070107467,
			"0.013": 1.1289163211,
			"0.014": 0.609836060308,
			"0.015": 0.133401403017,
			"0.016": 0.0,
			"0.017": 0.0,
			"0.018": 0.0,
			"0.019": 0.0,
			"0.02": 0.0,
			"0.021": 0.0,
			"0.022": 0.0,
			"0.023": 0.0,
			"0.024": 0.0,
			"0.025": 0.0
		}
	}
}
