{
	 "smiles": "ClC(=O)C1=CC=C(C=C1)C1=CSN=N1", 
	 "Tm": 443.15, 
	 "num_atms": 19, 
	 "gaussian": { 
		 "optdone": 1, 
		 "sigma_profile": "yes", 
		 "theory": "DFT", 
		 "functional": "B3LYP", 
		 "basiset": "6-31G**", 
		 "properties": { 
			 "R2extent": 5777.5256, 
			 "electric_dipole_moment_norm": 4.4787723463, 
			 "electric_quadrupole_moment_norm": 18.9170051914, 
			 "total_energy": -1389.04446924, 
			 "HOMO_LUMO_gap": 0.1633, 
			 "cosmo_polarized_energy": -11.34, 
			 "cosmo_cavitation_energy": 28.19, 
			 "cosmo_dispersion_energy": -21.57, 
			 "cosmo_repulsion_energy": 1.61, 
			 "cosmo_total_nonelectrostatic_energy": 8.23, 
			 "SMD_solvation_energy": 3.7 
		},
		"coords": [
			{
				"x": -3.4352598736,
				"y": -1.0949321,
				"z": -4.5242191951,
				"element": "Cl" 
			},
			{
				"x": -1.6738669613,
				"y": -0.5928143224,
				"z": -4.4396865605,
				"element": "C" 
			},
			{
				"x": -1.099881282,
				"y": -0.3434791556,
				"z": -5.4568800085,
				"element": "O" 
			},
			{
				"x": -1.098589961,
				"y": -0.5383768585,
				"z": -3.0765424232,
				"element": "C" 
			},
			{
				"x": 0.2512390676,
				"y": -0.155806611,
				"z": -2.9795832397,
				"element": "C" 
			},
			{
				"x": 0.8735100194,
				"y": -0.0774968866,
				"z": -1.7423584723,
				"element": "C" 
			},
			{
				"x": 0.1633826753,
				"y": -0.3797490746,
				"z": -0.5656163377,
				"element": "C" 
			},
			{
				"x": -1.1851987709,
				"y": -0.7613007879,
				"z": -0.6702328408,
				"element": "C" 
			},
			{
				"x": -1.8112760639,
				"y": -0.8406807811,
				"z": -1.9075029046,
				"element": "C" 
			},
			{
				"x": 0.8388011393,
				"y": -0.2915921764,
				"z": 0.7382875289,
				"element": "C" 
			},
			{
				"x": 0.3210972412,
				"y": -0.5439960796,
				"z": 1.9920798843,
				"element": "C" 
			},
			{
				"x": 1.5177380195,
				"y": -0.2951275386,
				"z": 3.1724027807,
				"element": "S" 
			},
			{
				"x": 2.6944262289,
				"y": 0.1458432383,
				"z": 1.9394898964,
				"element": "N" 
			},
			{
				"x": 2.167693436,
				"y": 0.0880058157,
				"z": 0.7896162021,
				"element": "N" 
			},
			{
				"x": 0.7967805853,
				"y": 0.0766772018,
				"z": -3.8873617125,
				"element": "H" 
			},
			{
				"x": 1.9137243185,
				"y": 0.2174296511,
				"z": -1.6688632116,
				"element": "H" 
			},
			{
				"x": -1.7572236853,
				"y": -1.0000539436,
				"z": 0.2204885161,
				"element": "H" 
			},
			{
				"x": -2.8512322923,
				"y": -1.1363620888,
				"z": -1.9700666344,
				"element": "H" 
			},
			{
				"x": -0.6825638407,
				"y": -0.8544875024,
				"z": 2.2434487323,
				"element": "H" 
			}
		],
		 "valence_orbital": [ 
			{
				"type": "occ",
				"energy": -0.3208,
				"method": "rhf"
			},
			{
				"type": "occ",
				"energy": -0.2966,
				"method": "rhf"
			},
			{
				"type": "occ",
				"energy": -0.28293,
				"method": "rhf"
			},
			{
				"type": "occ",
				"energy": -0.2796,
				"method": "rhf"
			},
			{
				"type": "occ",
				"energy": -0.25787,
				"method": "rhf"
			},
			{
				"type": "unocc",
				"energy": -0.09457,
				"method": "rhf"
			},
			{
				"type": "unocc",
				"energy": -0.0716,
				"method": "rhf"
			},
			{
				"type": "unocc",
				"energy": -0.0295,
				"method": "rhf"
			},
			{
				"type": "unocc",
				"energy": -0.02894,
				"method": "rhf"
			},
			{
				"type": "unocc",
				"energy": -0.00971,
				"method": "rhf"
			}
		],
		"cosmo_sigma_profile": { 
			"-0.025": 0.0,
			"-0.024": 0.0,
			"-0.023": 0.0,
			"-0.022": 0.0,
			"-0.021": 0.0,
			"-0.02": 0.0,
			"-0.019": 0.0,
			"-0.018": 0.0,
			"-0.017": 0.0,
			"-0.016": 0.0,
			"-0.015": 0.0,
			"-0.014": 0.0,
			"-0.013": 0.0352936473179,
			"-0.012": 2.02955703216,
			"-0.011": 2.71358970609,
			"-0.01": 2.39022125611,
			"-0.009": 2.48174983003,
			"-0.008": 2.87446434627,
			"-0.007": 6.13473087926,
			"-0.006": 8.21791475137,
			"-0.005": 7.28136081593,
			"-0.004": 11.5885505716,
			"-0.003": 14.5327241231,
			"-0.002": 19.9244863537,
			"-0.001": 29.7983293791,
			"0.0": 24.9895090015,
			"0.001": 22.8018896398,
			"0.002": 18.8262066972,
			"0.003": 8.21590217799,
			"0.004": 11.3004660343,
			"0.005": 8.22364535521,
			"0.006": 5.03872667165,
			"0.007": 5.45303382821,
			"0.008": 6.9759211374,
			"0.009": 6.63242775839,
			"0.01": 2.80305382218,
			"0.011": 1.41749724258,
			"0.012": 0.789646979866,
			"0.013": 0.041637024686,
			"0.014": 0.0,
			"0.015": 0.0,
			"0.016": 0.0,
			"0.017": 0.0,
			"0.018": 0.0,
			"0.019": 0.0,
			"0.02": 0.0,
			"0.021": 0.0,
			"0.022": 0.0,
			"0.023": 0.0,
			"0.024": 0.0,
			"0.025": 0.0
		}
	}
}
