{
	 "smiles": "CS(=O)(=O)CCCC(O)=O", 
	 "Tm": 352.15, 
	 "num_atms": 20, 
	 "gaussian": { 
		 "optdone": 1, 
		 "sigma_profile": "yes", 
		 "theory": "DFT", 
		 "functional": "B3LYP", 
		 "basiset": "6-31G**", 
		 "properties": { 
			 "R2extent": 2859.4179, 
			 "electric_dipole_moment_norm": 4.52026363501, 
			 "electric_quadrupole_moment_norm": 26.3907113322, 
			 "total_energy": -895.592029753, 
			 "HOMO_LUMO_gap": 0.27976, 
			 "cosmo_polarized_energy": -27.85, 
			 "cosmo_cavitation_energy": 25.64, 
			 "cosmo_dispersion_energy": -18.73, 
			 "cosmo_repulsion_energy": 1.5, 
			 "cosmo_total_nonelectrostatic_energy": 8.41, 
			 "SMD_solvation_energy": 5.04 
		},
		"coords": [
			{
				"x": 0.0849836426,
				"y": -1.7867207055,
				"z": 1.0296124162,
				"element": "C" 
			},
			{
				"x": 0.2424167667,
				"y": -1.3303229504,
				"z": -0.71326508,
				"element": "S" 
			},
			{
				"x": -1.060201537,
				"y": -1.5590942548,
				"z": -1.3584093108,
				"element": "O" 
			},
			{
				"x": 1.4621901174,
				"y": -1.9659063453,
				"z": -1.2347106633,
				"element": "O" 
			},
			{
				"x": 0.5494276175,
				"y": 0.4658165454,
				"z": -0.6926092838,
				"element": "C" 
			},
			{
				"x": -0.6251616682,
				"y": 1.2969169201,
				"z": -0.1796982567,
				"element": "C" 
			},
			{
				"x": -0.3908579342,
				"y": 2.7965461289,
				"z": -0.3858922813,
				"element": "C" 
			},
			{
				"x": -1.4713206829,
				"y": 3.6436488748,
				"z": 0.2812443486,
				"element": "C" 
			},
			{
				"x": -1.4374363391,
				"y": 4.9699317179,
				"z": -0.0124863244,
				"element": "O" 
			},
			{
				"x": -2.30084131,
				"y": 3.2112671421,
				"z": 1.0402743378,
				"element": "O" 
			},
			{
				"x": 1.012228284,
				"y": -1.5497471081,
				"z": 1.5537062568,
				"element": "H" 
			},
			{
				"x": -0.7690071956,
				"y": -1.2730971522,
				"z": 1.4729778564,
				"element": "H" 
			},
			{
				"x": -0.0833910523,
				"y": -2.8652329662,
				"z": 1.0368937418,
				"element": "H" 
			},
			{
				"x": 0.7745492876,
				"y": 0.677343706,
				"z": -1.743715425,
				"element": "H" 
			},
			{
				"x": 1.468459678,
				"y": 0.6198262691,
				"z": -0.1179766196,
				"element": "H" 
			},
			{
				"x": -1.5385495882,
				"y": 0.9926099888,
				"z": -0.6985950276,
				"element": "H" 
			},
			{
				"x": -0.796366902,
				"y": 1.1185820356,
				"z": 0.8860124267,
				"element": "H" 
			},
			{
				"x": -0.3484946614,
				"y": 3.0387077158,
				"z": -1.4564815024,
				"element": "H" 
			},
			{
				"x": 0.5774801341,
				"y": 3.1030712777,
				"z": 0.0357634155,
				"element": "H" 
			},
			{
				"x": -0.7278066573,
				"y": 5.1609531603,
				"z": -0.642245025,
				"element": "H" 
			}
		],
		 "valence_orbital": [ 
			{
				"type": "occ",
				"energy": -0.32514,
				"method": "rhf"
			},
			{
				"type": "occ",
				"energy": -0.31289,
				"method": "rhf"
			},
			{
				"type": "occ",
				"energy": -0.29625,
				"method": "rhf"
			},
			{
				"type": "occ",
				"energy": -0.29119,
				"method": "rhf"
			},
			{
				"type": "occ",
				"energy": -0.28315,
				"method": "rhf"
			},
			{
				"type": "unocc",
				"energy": -0.00339,
				"method": "rhf"
			},
			{
				"type": "unocc",
				"energy": 0.03999,
				"method": "rhf"
			},
			{
				"type": "unocc",
				"energy": 0.05557,
				"method": "rhf"
			},
			{
				"type": "unocc",
				"energy": 0.05979,
				"method": "rhf"
			},
			{
				"type": "unocc",
				"energy": 0.07293,
				"method": "rhf"
			}
		],
		"cosmo_sigma_profile": { 
			"-0.025": 0.0,
			"-0.024": 0.0,
			"-0.023": 0.0,
			"-0.022": 0.0,
			"-0.021": 0.0,
			"-0.02": 0.0,
			"-0.019": 0.590576479033,
			"-0.018": 1.31414090695,
			"-0.017": 1.26441205408,
			"-0.016": 1.13121975193,
			"-0.015": 0.631700843159,
			"-0.014": 1.3231190845,
			"-0.013": 1.62135750461,
			"-0.012": 0.813467176693,
			"-0.011": 0.914400529701,
			"-0.01": 2.50251398307,
			"-0.009": 5.16966846357,
			"-0.008": 11.5981074,
			"-0.007": 20.370990804,
			"-0.006": 15.5019794343,
			"-0.005": 15.8456414006,
			"-0.004": 13.7074232009,
			"-0.003": 7.9091754052,
			"-0.002": 6.29807787153,
			"-0.001": 4.40180985158,
			"0.0": 2.77901339223,
			"0.001": 4.33491269156,
			"0.002": 5.36639602137,
			"0.003": 4.43161308809,
			"0.004": 3.24921736557,
			"0.005": 4.21846945677,
			"0.006": 4.78226975205,
			"0.007": 3.70820825115,
			"0.008": 5.01783485698,
			"0.009": 6.39345315044,
			"0.01": 8.78846834311,
			"0.011": 12.597621844,
			"0.012": 17.0817478573,
			"0.013": 5.09545950842,
			"0.014": 0.0372039675753,
			"0.015": 0.0,
			"0.016": 0.0,
			"0.017": 0.0,
			"0.018": 0.0,
			"0.019": 0.0,
			"0.02": 0.0,
			"0.021": 0.0,
			"0.022": 0.0,
			"0.023": 0.0,
			"0.024": 0.0,
			"0.025": 0.0
		}
	}
}
