{
	 "smiles": "CC1=CSC2=C1C(NN)=NC=N2", 
	 "Tm": 455.15, 
	 "num_atms": 20, 
	 "gaussian": { 
		 "optdone": 1, 
		 "sigma_profile": "yes", 
		 "theory": "DFT", 
		 "functional": "B3LYP", 
		 "basiset": "6-31G**", 
		 "properties": { 
			 "R2extent": 2199.804, 
			 "electric_dipole_moment_norm": 3.53033503509, 
			 "electric_quadrupole_moment_norm": 8.91926212027, 
			 "total_energy": -888.725179612, 
			 "HOMO_LUMO_gap": 0.18036, 
			 "cosmo_polarized_energy": -12.17, 
			 "cosmo_cavitation_energy": 24.86, 
			 "cosmo_dispersion_energy": -19.27, 
			 "cosmo_repulsion_energy": 1.46, 
			 "cosmo_total_nonelectrostatic_energy": 7.04, 
			 "SMD_solvation_energy": 1.31 
		},
		"coords": [
			{
				"x": 1.227769276,
				"y": -2.6229928052,
				"z": 0.6936542549,
				"element": "C" 
			},
			{
				"x": 0.9510987926,
				"y": -1.5489430694,
				"z": -0.3266969899,
				"element": "C" 
			},
			{
				"x": 1.1898599863,
				"y": -1.7540093149,
				"z": -1.6533803509,
				"element": "C" 
			},
			{
				"x": 0.9226842126,
				"y": -0.3636593812,
				"z": -2.6722759649,
				"element": "S" 
			},
			{
				"x": 0.4916660937,
				"y": 0.5893299253,
				"z": -1.2667334062,
				"element": "C" 
			},
			{
				"x": 0.5022573008,
				"y": -0.1871967396,
				"z": -0.07918363,
				"element": "C" 
			},
			{
				"x": 0.1313326502,
				"y": 0.5552509457,
				"z": 1.0795342255,
				"element": "C" 
			},
			{
				"x": -0.038117862,
				"y": 0.0340257417,
				"z": 2.3554308699,
				"element": "N" 
			},
			{
				"x": -0.8088804015,
				"y": -1.1325246352,
				"z": 2.5923895388,
				"element": "N" 
			},
			{
				"x": -0.0650062018,
				"y": 1.8810583586,
				"z": 1.0091632771,
				"element": "N" 
			},
			{
				"x": 0.0198538784,
				"y": 2.4794178913,
				"z": -0.1825665976,
				"element": "C" 
			},
			{
				"x": 0.2453340484,
				"y": 1.8980901615,
				"z": -1.3587541459,
				"element": "N" 
			},
			{
				"x": 1.8830525616,
				"y": -3.3863949393,
				"z": 0.2658128874,
				"element": "H" 
			},
			{
				"x": 1.7295887593,
				"y": -2.2152788676,
				"z": 1.5770489269,
				"element": "H" 
			},
			{
				"x": 0.3150493469,
				"y": -3.1337280603,
				"z": 1.0213135334,
				"element": "H" 
			},
			{
				"x": 1.5526270877,
				"y": -2.6704849029,
				"z": -2.1001394476,
				"element": "H" 
			},
			{
				"x": -0.3258074343,
				"y": 0.781182949,
				"z": 2.9793546717,
				"element": "H" 
			},
			{
				"x": -0.196715872,
				"y": -1.9371208167,
				"z": 2.6455591784,
				"element": "H" 
			},
			{
				"x": -1.4765598238,
				"y": -1.2826942744,
				"z": 1.8375580244,
				"element": "H" 
			},
			{
				"x": -0.1371863991,
				"y": 3.5559718337,
				"z": -0.1920888553,
				"element": "H" 
			}
		],
		 "valence_orbital": [ 
			{
				"type": "occ",
				"energy": -0.28735,
				"method": "rhf"
			},
			{
				"type": "occ",
				"energy": -0.27018,
				"method": "rhf"
			},
			{
				"type": "occ",
				"energy": -0.25838,
				"method": "rhf"
			},
			{
				"type": "occ",
				"energy": -0.25767,
				"method": "rhf"
			},
			{
				"type": "occ",
				"energy": -0.21849,
				"method": "rhf"
			},
			{
				"type": "unocc",
				"energy": -0.03813,
				"method": "rhf"
			},
			{
				"type": "unocc",
				"energy": -0.02511,
				"method": "rhf"
			},
			{
				"type": "unocc",
				"energy": 0.01992,
				"method": "rhf"
			},
			{
				"type": "unocc",
				"energy": 0.02747,
				"method": "rhf"
			},
			{
				"type": "unocc",
				"energy": 0.06665,
				"method": "rhf"
			}
		],
		"cosmo_sigma_profile": { 
			"-0.025": 0.0,
			"-0.024": 0.0,
			"-0.023": 0.0,
			"-0.022": 0.0,
			"-0.021": 0.0,
			"-0.02": 0.0,
			"-0.019": 0.0,
			"-0.018": 0.0,
			"-0.017": 0.0,
			"-0.016": 0.0,
			"-0.015": 0.0,
			"-0.014": 0.0,
			"-0.013": 0.0,
			"-0.012": 0.891887028946,
			"-0.011": 2.4386501888,
			"-0.01": 3.85046402953,
			"-0.009": 5.55738686607,
			"-0.008": 6.98037102386,
			"-0.007": 7.06891463811,
			"-0.006": 7.41708116774,
			"-0.005": 10.4595970798,
			"-0.004": 9.57171155411,
			"-0.003": 9.94953357486,
			"-0.002": 11.8921146942,
			"-0.001": 14.6041395566,
			"0.0": 16.5388761704,
			"0.001": 17.9125153876,
			"0.002": 17.207999128,
			"0.003": 14.9725644255,
			"0.004": 11.6276970514,
			"0.005": 4.6236216175,
			"0.006": 3.75288629695,
			"0.007": 4.06675580246,
			"0.008": 3.26063023431,
			"0.009": 2.44082703677,
			"0.01": 3.61381263286,
			"0.011": 2.01448710646,
			"0.012": 2.31627605798,
			"0.013": 2.24404737259,
			"0.014": 1.61556101222,
			"0.015": 1.37662359196,
			"0.016": 0.33832556948,
			"0.017": 0.0,
			"0.018": 0.0,
			"0.019": 0.0,
			"0.02": 0.0,
			"0.021": 0.0,
			"0.022": 0.0,
			"0.023": 0.0,
			"0.024": 0.0,
			"0.025": 0.0
		}
	}
}
