{
	 "smiles": "COC(=O)C1=CC=C(OC)C(I)=C1", 
	 "Tm": 367.15, 
	 "num_atms": 22, 
	 "gaussian": { 
		 "optdone": 1, 
		 "sigma_profile": "no", 
		 "theory": "DFT", 
		 "functional": "B3LYP", 
		 "basiset": "6-31G**", 
		 "properties": { 
			 "R2extent": 3458.3207, 
			 "electric_dipole_moment_norm": 1.59695519349, 
			 "electric_quadrupole_moment_norm": 22.24513961, 
			 "total_energy": -585.437401118, 
			 "HOMO_LUMO_gap": 0.1884, 
			 "cosmo_polarized_energy": -91814.98, 
			 "cosmo_cavitation_energy": 29.7, 
			 "cosmo_dispersion_energy": -23.01, 
			 "cosmo_repulsion_energy": 1.8, 
			 "cosmo_total_nonelectrostatic_energy": 8.49, 
			 "SMD_solvation_energy": 6.68 
		},
		"coords": [
			{
				"x": -3.7481274124,
				"y": 2.2316134282,
				"z": -2.5841062102,
				"element": "C" 
			},
			{
				"x": -2.868031824,
				"y": 1.3715901014,
				"z": -1.8450328882,
				"element": "O" 
			},
			{
				"x": -1.5528920812,
				"y": 1.5060813196,
				"z": -2.1350665477,
				"element": "C" 
			},
			{
				"x": -1.132119504,
				"y": 2.2948083126,
				"z": -2.9602180016,
				"element": "O" 
			},
			{
				"x": -0.6979290597,
				"y": 0.5891198017,
				"z": -1.3372852467,
				"element": "C" 
			},
			{
				"x": 0.6845930359,
				"y": 0.6272673657,
				"z": -1.5408663463,
				"element": "C" 
			},
			{
				"x": 1.5314802912,
				"y": -0.2085223842,
				"z": -0.8219183178,
				"element": "C" 
			},
			{
				"x": 1.0097629043,
				"y": -1.1071009215,
				"z": 0.1231300503,
				"element": "C" 
			},
			{
				"x": 1.7629725147,
				"y": -1.9516619418,
				"z": 0.8618794533,
				"element": "O" 
			},
			{
				"x": 3.1752319221,
				"y": -1.9478216344,
				"z": 0.6881010905,
				"element": "C" 
			},
			{
				"x": -0.3863383149,
				"y": -1.1418406669,
				"z": 0.325058262,
				"element": "C" 
			},
			{
				"x": -1.2105495357,
				"y": -2.4812817886,
				"z": 1.7394643821,
				"element": "I" 
			},
			{
				"x": -1.2285594595,
				"y": -0.3057977927,
				"z": -0.3947210134,
				"element": "C" 
			},
			{
				"x": -3.5103184326,
				"y": 3.2813021968,
				"z": -2.3940536183,
				"element": "H" 
			},
			{
				"x": -4.7526569593,
				"y": 1.9965639127,
				"z": -2.2325105095,
				"element": "H" 
			},
			{
				"x": -3.6620449191,
				"y": 2.0408204149,
				"z": -3.6568169321,
				"element": "H" 
			},
			{
				"x": 1.0833210986,
				"y": 1.3225545889,
				"z": -2.2715428382,
				"element": "H" 
			},
			{
				"x": 2.5997450937,
				"y": -0.1625549485,
				"z": -0.9954181671,
				"element": "H" 
			},
			{
				"x": 3.5585280948,
				"y": -2.6987007057,
				"z": 1.3793967313,
				"element": "H" 
			},
			{
				"x": 3.4536905694,
				"y": -2.2207579066,
				"z": -0.33673451,
				"element": "H" 
			},
			{
				"x": 3.6069173527,
				"y": -0.9708233633,
				"z": 0.9359813429,
				"element": "H" 
			},
			{
				"x": -2.2983753752,
				"y": -0.3394573883,
				"z": -0.2331201654,
				"element": "H" 
			}
		],
		 "valence_orbital": [ 
			{
				"type": "occ",
				"energy": -0.29591,
				"method": "rhf"
			},
			{
				"type": "occ",
				"energy": -0.27432,
				"method": "rhf"
			},
			{
				"type": "occ",
				"energy": -0.26152,
				"method": "rhf"
			},
			{
				"type": "occ",
				"energy": -0.25242,
				"method": "rhf"
			},
			{
				"type": "occ",
				"energy": -0.23109,
				"method": "rhf"
			},
			{
				"type": "unocc",
				"energy": -0.04269,
				"method": "rhf"
			},
			{
				"type": "unocc",
				"energy": -0.03528,
				"method": "rhf"
			},
			{
				"type": "unocc",
				"energy": -0.02077,
				"method": "rhf"
			},
			{
				"type": "unocc",
				"energy": 0.04384,
				"method": "rhf"
			},
			{
				"type": "unocc",
				"energy": 0.05246,
				"method": "rhf"
			}
		],
		"cosmo_sigma_profile": { 
			"0.0": 0.0,
			"0.0": 0.0,
			"0.0": 0.0,
			"0.0": 0.0,
			"0.0": 0.0,
			"0.0": 0.0,
			"0.0": 0.0,
			"0.0": 0.0,
			"0.0": 0.0,
			"0.0": 0.0,
			"0.0": 0.0,
			"0.0": 0.0,
			"0.0": 0.0,
			"0.0": 0.0,
			"0.0": 0.0,
			"0.0": 0.0,
			"0.0": 0.0,
			"0.0": 0.0,
			"0.0": 0.0,
			"0.0": 0.0,
			"0.0": 0.0,
			"0.0": 0.0,
			"0.0": 0.0,
			"0.0": 0.0,
			"0.0": 0.0,
			"0.0": 0.0,
			"0.0": 0.0,
			"0.0": 0.0,
			"0.0": 0.0,
			"0.0": 0.0,
			"0.0": 0.0,
			"0.0": 0.0,
			"0.0": 0.0,
			"0.0": 0.0,
			"0.0": 0.0,
			"0.0": 0.0,
			"0.0": 0.0,
			"0.0": 0.0,
			"0.0": 0.0,
			"0.0": 0.0,
			"0.0": 0.0,
			"0.0": 0.0,
			"0.0": 0.0,
			"0.0": 0.0,
			"0.0": 0.0,
			"0.0": 0.0,
			"0.0": 0.0,
			"0.0": 0.0,
			"0.0": 0.0,
			"0.0": 0.0,
			"0.0": 0.0
		}
	}
}
