{
	 "smiles": "O=C1NC2=C(N1)C=C(NCC1=CC=C(C=C1)C#N)C=C2", 
	 "Tm": 550.15, 
	 "num_atms": 32, 
	 "gaussian": { 
		 "optdone": 1, 
		 "sigma_profile": "yes", 
		 "theory": "DFT", 
		 "functional": "B3LYP", 
		 "basiset": "6-31G**", 
		 "properties": { 
			 "R2extent": 8520.3593, 
			 "electric_dipole_moment_norm": 5.27362245141, 
			 "electric_quadrupole_moment_norm": 58.0737895526, 
			 "total_energy": -873.07529028, 
			 "HOMO_LUMO_gap": 0.14119, 
			 "cosmo_polarized_energy": -24.51, 
			 "cosmo_cavitation_energy": 37.98, 
			 "cosmo_dispersion_energy": -26.92, 
			 "cosmo_repulsion_energy": 2.07, 
			 "cosmo_total_nonelectrostatic_energy": 13.12, 
			 "SMD_solvation_energy": 7.75 
		},
		"coords": [
			{
				"x": 4.0315738883,
				"y": 0.5094332806,
				"z": -4.6865205604,
				"element": "O" 
			},
			{
				"x": 3.1676226357,
				"y": 0.3725471515,
				"z": -3.8396622688,
				"element": "C" 
			},
			{
				"x": 3.0572015712,
				"y": -0.6244547167,
				"z": -2.8742707765,
				"element": "N" 
			},
			{
				"x": 1.9249325802,
				"y": -0.4390074565,
				"z": -2.079402194,
				"element": "C" 
			},
			{
				"x": 1.284635486,
				"y": 0.7245119941,
				"z": -2.5579347522,
				"element": "C" 
			},
			{
				"x": 2.0526769056,
				"y": 1.1895042273,
				"z": -3.6176920124,
				"element": "N" 
			},
			{
				"x": 0.1139108782,
				"y": 1.1967857224,
				"z": -1.9873139817,
				"element": "C" 
			},
			{
				"x": -0.4369623532,
				"y": 0.4835562691,
				"z": -0.9008247963,
				"element": "C" 
			},
			{
				"x": -1.6062852903,
				"y": 0.9799271005,
				"z": -0.2995978785,
				"element": "N" 
			},
			{
				"x": -2.4590557189,
				"y": 0.1239230739,
				"z": 0.5073274787,
				"element": "C" 
			},
			{
				"x": -2.0490758555,
				"y": 0.0197801922,
				"z": 1.9710137744,
				"element": "C" 
			},
			{
				"x": -1.2886174442,
				"y": 1.0199794676,
				"z": 2.5872109015,
				"element": "C" 
			},
			{
				"x": -0.9640607309,
				"y": 0.9360258778,
				"z": 3.9377479721,
				"element": "C" 
			},
			{
				"x": -1.4029501748,
				"y": -0.1603089454,
				"z": 4.6988619879,
				"element": "C" 
			},
			{
				"x": -2.1647884007,
				"y": -1.1700229762,
				"z": 4.0865742196,
				"element": "C" 
			},
			{
				"x": -2.4772230484,
				"y": -1.0747518211,
				"z": 2.7346651336,
				"element": "C" 
			},
			{
				"x": -1.0716974399,
				"y": -0.2524664253,
				"z": 6.0908956297,
				"element": "C" 
			},
			{
				"x": -0.804132427,
				"y": -0.3275105188,
				"z": 7.2207052911,
				"element": "N" 
			},
			{
				"x": 0.2062882467,
				"y": -0.6735815469,
				"z": -0.4263141342,
				"element": "C" 
			},
			{
				"x": 1.3910854669,
				"y": -1.1415251899,
				"z": -1.0126330032,
				"element": "C" 
			},
			{
				"x": 3.7403222876,
				"y": -1.3599690787,
				"z": -2.7983537313,
				"element": "H" 
			},
			{
				"x": 1.8837339147,
				"y": 2.0074096272,
				"z": -4.1801696865,
				"element": "H" 
			},
			{
				"x": -0.3706948357,
				"y": 2.094677588,
				"z": -2.3610466791,
				"element": "H" 
			},
			{
				"x": -2.1209106045,
				"y": 1.6074995221,
				"z": -0.9000133634,
				"element": "H" 
			},
			{
				"x": -2.5334006535,
				"y": -0.8906784884,
				"z": 0.0843995188,
				"element": "H" 
			},
			{
				"x": -3.4703385014,
				"y": 0.5472148917,
				"z": 0.4687300292,
				"element": "H" 
			},
			{
				"x": -0.9460486961,
				"y": 1.8587016024,
				"z": 1.9905238433,
				"element": "H" 
			},
			{
				"x": -0.3710605387,
				"y": 1.7121637961,
				"z": 4.4102750965,
				"element": "H" 
			},
			{
				"x": -2.4987070632,
				"y": -2.0202188859,
				"z": 4.6720148077,
				"element": "H" 
			},
			{
				"x": -3.0610558512,
				"y": -1.8631134717,
				"z": 2.2656012292,
				"element": "H" 
			},
			{
				"x": -0.2013880273,
				"y": -1.2104603367,
				"z": 0.4213669727,
				"element": "H" 
			},
			{
				"x": 1.8720697945,
				"y": -2.0357715264,
				"z": -0.6288640675,
				"element": "H" 
			}
		],
		 "valence_orbital": [ 
			{
				"type": "occ",
				"energy": -0.27238,
				"method": "rhf"
			},
			{
				"type": "occ",
				"energy": -0.26744,
				"method": "rhf"
			},
			{
				"type": "occ",
				"energy": -0.25975,
				"method": "rhf"
			},
			{
				"type": "occ",
				"energy": -0.23213,
				"method": "rhf"
			},
			{
				"type": "occ",
				"energy": -0.19263,
				"method": "rhf"
			},
			{
				"type": "unocc",
				"energy": -0.05144,
				"method": "rhf"
			},
			{
				"type": "unocc",
				"energy": -0.02619,
				"method": "rhf"
			},
			{
				"type": "unocc",
				"energy": -0.00849,
				"method": "rhf"
			},
			{
				"type": "unocc",
				"energy": 0.0209,
				"method": "rhf"
			},
			{
				"type": "unocc",
				"energy": 0.03812,
				"method": "rhf"
			}
		],
		"cosmo_sigma_profile": { 
			"-0.025": 0.0,
			"-0.024": 0.0,
			"-0.023": 0.0,
			"-0.022": 0.0,
			"-0.021": 0.0,
			"-0.02": 0.0,
			"-0.019": 0.0,
			"-0.018": 0.0,
			"-0.017": 0.0,
			"-0.016": 1.1411118412,
			"-0.015": 2.82415878889,
			"-0.014": 2.10470532462,
			"-0.013": 2.65192191251,
			"-0.012": 3.7462513585,
			"-0.011": 3.91853780068,
			"-0.01": 3.12341353655,
			"-0.009": 4.23413607303,
			"-0.008": 5.32078483275,
			"-0.007": 12.9431948568,
			"-0.006": 18.0562993396,
			"-0.005": 16.4046819474,
			"-0.004": 17.3888350221,
			"-0.003": 16.4480741976,
			"-0.002": 14.4800990974,
			"-0.001": 16.88814516,
			"0.0": 19.7958582774,
			"0.001": 20.0913451127,
			"0.002": 22.5347577706,
			"0.003": 22.6479779608,
			"0.004": 12.253662797,
			"0.005": 11.6966857214,
			"0.006": 13.2569481757,
			"0.007": 4.81782261595,
			"0.008": 4.66890706361,
			"0.009": 5.27302275151,
			"0.01": 3.32110969498,
			"0.011": 4.35730833201,
			"0.012": 4.15071601702,
			"0.013": 5.77486448789,
			"0.014": 7.22794137679,
			"0.015": 1.34664814691,
			"0.016": 0.0,
			"0.017": 0.0,
			"0.018": 0.0,
			"0.019": 0.0,
			"0.02": 0.0,
			"0.021": 0.0,
			"0.022": 0.0,
			"0.023": 0.0,
			"0.024": 0.0,
			"0.025": 0.0
		}
	}
}
