{
	 "smiles": "ClC(=O)C1=CC2=C(C=C1)C(=O)OC2=O", 
	 "Tm": 341.15, 
	 "num_atms": 17, 
	 "gaussian": { 
		 "optdone": 1, 
		 "sigma_profile": "yes", 
		 "theory": "DFT", 
		 "functional": "B3LYP", 
		 "basiset": "6-31G**", 
		 "properties": { 
			 "R2extent": 4018.9064, 
			 "electric_dipole_moment_norm": 3.23092649406, 
			 "electric_quadrupole_moment_norm": 15.8822936221, 
			 "total_energy": -1105.86967265, 
			 "HOMO_LUMO_gap": 0.17796, 
			 "cosmo_polarized_energy": -12.52, 
			 "cosmo_cavitation_energy": 25.63, 
			 "cosmo_dispersion_energy": -18.87, 
			 "cosmo_repulsion_energy": 1.46, 
			 "cosmo_total_nonelectrostatic_energy": 8.22, 
			 "SMD_solvation_energy": 6.94 
		},
		"coords": [
			{
				"x": -4.5536615173,
				"y": 0.2165876715,
				"z": -0.7812335439,
				"element": "Cl" 
			},
			{
				"x": -3.1540877635,
				"y": -0.847588279,
				"z": -0.3294570677,
				"element": "C" 
			},
			{
				"x": -3.2271960826,
				"y": -2.0243888747,
				"z": -0.5153898118,
				"element": "O" 
			},
			{
				"x": -1.9755898003,
				"y": -0.1472941163,
				"z": 0.2606360931,
				"element": "C" 
			},
			{
				"x": -0.8889824765,
				"y": -0.9707502182,
				"z": 0.611822969,
				"element": "C" 
			},
			{
				"x": 0.2211302654,
				"y": -0.3517160426,
				"z": 1.1624256222,
				"element": "C" 
			},
			{
				"x": 0.267804439,
				"y": 1.0252974309,
				"z": 1.3630061899,
				"element": "C" 
			},
			{
				"x": -0.7954161505,
				"y": 1.8508234797,
				"z": 1.0219608224,
				"element": "C" 
			},
			{
				"x": -1.9245086379,
				"y": 1.2445951409,
				"z": 0.4650250573,
				"element": "C" 
			},
			{
				"x": 1.5889397371,
				"y": 1.3502355648,
				"z": 1.9641559638,
				"element": "C" 
			},
			{
				"x": 2.049094191,
				"y": 2.4048458212,
				"z": 2.2974850896,
				"element": "O" 
			},
			{
				"x": 2.2836865614,
				"y": 0.1462846827,
				"z": 2.1000839457,
				"element": "O" 
			},
			{
				"x": 1.5094854469,
				"y": -0.9235978652,
				"z": 1.6320445843,
				"element": "C" 
			},
			{
				"x": 1.8996709256,
				"y": -2.0551599894,
				"z": 1.6487731062,
				"element": "O" 
			},
			{
				"x": -0.9339300737,
				"y": -2.0420228683,
				"z": 0.4521042132,
				"element": "H" 
			},
			{
				"x": -0.7496947687,
				"y": 2.922537746,
				"z": 1.1820280983,
				"element": "H" 
			},
			{
				"x": -2.7770442955,
				"y": 1.8507107159,
				"z": 0.1842286686,
				"element": "H" 
			}
		],
		 "valence_orbital": [ 
			{
				"type": "occ",
				"energy": -0.32891,
				"method": "rhf"
			},
			{
				"type": "occ",
				"energy": -0.31964,
				"method": "rhf"
			},
			{
				"type": "occ",
				"energy": -0.31803,
				"method": "rhf"
			},
			{
				"type": "occ",
				"energy": -0.31516,
				"method": "rhf"
			},
			{
				"type": "occ",
				"energy": -0.30608,
				"method": "rhf"
			},
			{
				"type": "unocc",
				"energy": -0.12812,
				"method": "rhf"
			},
			{
				"type": "unocc",
				"energy": -0.09306,
				"method": "rhf"
			},
			{
				"type": "unocc",
				"energy": -0.05191,
				"method": "rhf"
			},
			{
				"type": "unocc",
				"energy": -0.00282,
				"method": "rhf"
			},
			{
				"type": "unocc",
				"energy": 0.02792,
				"method": "rhf"
			}
		],
		"cosmo_sigma_profile": { 
			"-0.025": 0.0,
			"-0.024": 0.0,
			"-0.023": 0.0,
			"-0.022": 0.0,
			"-0.021": 0.0,
			"-0.02": 0.0,
			"-0.019": 0.0,
			"-0.018": 0.0,
			"-0.017": 0.0,
			"-0.016": 0.0,
			"-0.015": 0.0,
			"-0.014": 0.0,
			"-0.013": 0.0,
			"-0.012": 0.0,
			"-0.011": 0.209893175934,
			"-0.01": 2.05973038154,
			"-0.009": 5.67481286412,
			"-0.008": 7.17322440204,
			"-0.007": 7.08047498918,
			"-0.006": 10.4357439439,
			"-0.005": 12.9276940534,
			"-0.004": 18.6986255328,
			"-0.003": 18.3057613688,
			"-0.002": 17.0163157521,
			"-0.001": 12.0534390025,
			"0.0": 8.27871873227,
			"0.001": 9.44139881359,
			"0.002": 8.28151425837,
			"0.003": 11.793669261,
			"0.004": 10.1958512348,
			"0.005": 7.40344990062,
			"0.006": 9.18443768844,
			"0.007": 9.47311241314,
			"0.008": 10.0817110457,
			"0.009": 11.3188010414,
			"0.01": 3.79925138102,
			"0.011": 0.0592477242034,
			"0.012": 0.0,
			"0.013": 0.0,
			"0.014": 0.0,
			"0.015": 0.0,
			"0.016": 0.0,
			"0.017": 0.0,
			"0.018": 0.0,
			"0.019": 0.0,
			"0.02": 0.0,
			"0.021": 0.0,
			"0.022": 0.0,
			"0.023": 0.0,
			"0.024": 0.0,
			"0.025": 0.0
		}
	}
}
