{
	 "smiles": "CC1(O)CCC2C3CC=C4C=C(CCC4(C)C3CCC12C)OC1CCCC1", 
	 "Tm": 423.15, 
	 "num_atms": 65, 
	 "gaussian": { 
		 "optdone": 1, 
		 "sigma_profile": "yes", 
		 "theory": "DFT", 
		 "functional": "B3LYP", 
		 "basiset": "6-31G**", 
		 "properties": { 
			 "R2extent": 12519.9034, 
			 "electric_dipole_moment_norm": 2.2852279208, 
			 "electric_quadrupole_moment_norm": 8.49688653802, 
			 "total_energy": -1125.98022324, 
			 "HOMO_LUMO_gap": 0.19032, 
			 "cosmo_polarized_energy": -9.61, 
			 "cosmo_cavitation_energy": 55.07, 
			 "cosmo_dispersion_energy": -37.91, 
			 "cosmo_repulsion_energy": 2.82, 
			 "cosmo_total_nonelectrostatic_energy": 19.98, 
			 "SMD_solvation_energy": 7.46 
		},
		"coords": [
			{
				"x": 3.9584204305,
				"y": 2.0176268695,
				"z": -2.0672844419,
				"element": "C" 
			},
			{
				"x": 3.2418022788,
				"y": 1.3432468009,
				"z": -3.2483294588,
				"element": "C" 
			},
			{
				"x": 3.292439977,
				"y": 2.2357883221,
				"z": -4.3667815509,
				"element": "O" 
			},
			{
				"x": 3.8945923461,
				"y": -0.0417147937,
				"z": -3.565007323,
				"element": "C" 
			},
			{
				"x": 3.002293954,
				"y": -1.1271946899,
				"z": -2.9005884167,
				"element": "C" 
			},
			{
				"x": 1.9062475303,
				"y": -0.3351097989,
				"z": -2.1537501364,
				"element": "C" 
			},
			{
				"x": 0.5868737597,
				"y": -1.0709958587,
				"z": -1.8477561345,
				"element": "C" 
			},
			{
				"x": 0.8444461502,
				"y": -2.1858905448,
				"z": -0.7778805495,
				"element": "C" 
			},
			{
				"x": 0.3297659645,
				"y": -1.8613656813,
				"z": 0.5958203844,
				"element": "C" 
			},
			{
				"x": -0.7778907809,
				"y": -1.1232090842,
				"z": 0.7992812793,
				"element": "C" 
			},
			{
				"x": -1.2176426039,
				"y": -0.7665847403,
				"z": 2.1468746173,
				"element": "C" 
			},
			{
				"x": -1.9717892825,
				"y": 0.3207426895,
				"z": 2.3909619741,
				"element": "C" 
			},
			{
				"x": -2.4638869966,
				"y": 1.1982147141,
				"z": 1.2700655752,
				"element": "C" 
			},
			{
				"x": -2.6738313105,
				"y": 0.3939921451,
				"z": -0.0246900105,
				"element": "C" 
			},
			{
				"x": -1.5578245085,
				"y": -0.6235814297,
				"z": -0.4197039725,
				"element": "C" 
			},
			{
				"x": -2.3019560998,
				"y": -1.8186622023,
				"z": -1.076272805,
				"element": "C" 
			},
			{
				"x": -0.5423723639,
				"y": -0.0396392053,
				"z": -1.4584444673,
				"element": "C" 
			},
			{
				"x": 0.06737368,
				"y": 1.3142074596,
				"z": -1.0394540744,
				"element": "C" 
			},
			{
				"x": 0.8895726249,
				"y": 1.9834411579,
				"z": -2.1666272099,
				"element": "C" 
			},
			{
				"x": 1.7424813825,
				"y": 0.9672489466,
				"z": -2.9756823977,
				"element": "C" 
			},
			{
				"x": 1.0502379724,
				"y": 0.7039347375,
				"z": -4.3354795256,
				"element": "C" 
			},
			{
				"x": -2.4077830856,
				"y": 0.6573849278,
				"z": 3.6555363134,
				"element": "O" 
			},
			{
				"x": -1.5546944525,
				"y": 1.3912439932,
				"z": 4.5480876869,
				"element": "C" 
			},
			{
				"x": -0.3721758867,
				"y": 0.6195690709,
				"z": 5.1542690215,
				"element": "C" 
			},
			{
				"x": 0.4472836971,
				"y": 1.7243337101,
				"z": 5.8530328562,
				"element": "C" 
			},
			{
				"x": 0.1571756634,
				"y": 3.0360833426,
				"z": 5.0515686949,
				"element": "C" 
			},
			{
				"x": -0.8859667004,
				"y": 2.6521330002,
				"z": 3.9766610813,
				"element": "C" 
			},
			{
				"x": 3.5496351752,
				"y": 3.0120124294,
				"z": -1.8718041913,
				"element": "H" 
			},
			{
				"x": 5.0224157565,
				"y": 2.1370874277,
				"z": -2.3084571101,
				"element": "H" 
			},
			{
				"x": 3.9044384836,
				"y": 1.4299928201,
				"z": -1.1460008727,
				"element": "H" 
			},
			{
				"x": 4.2183165255,
				"y": 2.4705658353,
				"z": -4.5119606625,
				"element": "H" 
			},
			{
				"x": 4.9291496707,
				"y": -0.0827045071,
				"z": -3.2069293632,
				"element": "H" 
			},
			{
				"x": 3.9275054212,
				"y": -0.166022299,
				"z": -4.6511734214,
				"element": "H" 
			},
			{
				"x": 3.5731073177,
				"y": -1.7777940001,
				"z": -2.2310594768,
				"element": "H" 
			},
			{
				"x": 2.5537390475,
				"y": -1.7775964873,
				"z": -3.6599919243,
				"element": "H" 
			},
			{
				"x": 2.3265552182,
				"y": -0.0423950767,
				"z": -1.1812620545,
				"element": "H" 
			},
			{
				"x": 0.2675523606,
				"y": -1.5742774039,
				"z": -2.7679462723,
				"element": "H" 
			},
			{
				"x": 0.4013276393,
				"y": -3.1319779205,
				"z": -1.1219753486,
				"element": "H" 
			},
			{
				"x": 1.9191404748,
				"y": -2.3908552032,
				"z": -0.7186565805,
				"element": "H" 
			},
			{
				"x": 0.8887636919,
				"y": -2.2378939776,
				"z": 1.4512998738,
				"element": "H" 
			},
			{
				"x": -0.8672138115,
				"y": -1.3748719311,
				"z": 2.9763091168,
				"element": "H" 
			},
			{
				"x": -1.7628323785,
				"y": 2.0296830855,
				"z": 1.1172515646,
				"element": "H" 
			},
			{
				"x": -3.4111352565,
				"y": 1.6550346935,
				"z": 1.5781069196,
				"element": "H" 
			},
			{
				"x": -2.8594173461,
				"y": 1.0738423039,
				"z": -0.8652845282,
				"element": "H" 
			},
			{
				"x": -3.6014366143,
				"y": -0.1728006602,
				"z": 0.112100392,
				"element": "H" 
			},
			{
				"x": -1.6263699056,
				"y": -2.5749585318,
				"z": -1.4794630928,
				"element": "H" 
			},
			{
				"x": -2.9517197974,
				"y": -2.3094338243,
				"z": -0.3449056194,
				"element": "H" 
			},
			{
				"x": -2.9319167449,
				"y": -1.4623668464,
				"z": -1.9004609099,
				"element": "H" 
			},
			{
				"x": -1.1323617065,
				"y": 0.1532922072,
				"z": -2.3655635774,
				"element": "H" 
			},
			{
				"x": -0.7266186926,
				"y": 2.0070985677,
				"z": -0.7455772903,
				"element": "H" 
			},
			{
				"x": 0.6900888625,
				"y": 1.1694104814,
				"z": -0.1483220095,
				"element": "H" 
			},
			{
				"x": 1.510459348,
				"y": 2.7673290433,
				"z": -1.7233017264,
				"element": "H" 
			},
			{
				"x": 0.2055127271,
				"y": 2.5002350911,
				"z": -2.8497069511,
				"element": "H" 
			},
			{
				"x": 1.5629466111,
				"y": -0.0531477752,
				"z": -4.9353066838,
				"element": "H" 
			},
			{
				"x": 0.0184410044,
				"y": 0.3722284819,
				"z": -4.1921996424,
				"element": "H" 
			},
			{
				"x": 1.0326067689,
				"y": 1.6248102051,
				"z": -4.9216885138,
				"element": "H" 
			},
			{
				"x": -2.2383837835,
				"y": 1.6808433089,
				"z": 5.3554178651,
				"element": "H" 
			},
			{
				"x": -0.6907625195,
				"y": -0.1816472442,
				"z": 5.8276119055,
				"element": "H" 
			},
			{
				"x": 0.2099999998,
				"y": 0.1669260624,
				"z": 4.3444818661,
				"element": "H" 
			},
			{
				"x": 1.5138562669,
				"y": 1.4842375238,
				"z": 5.8843050268,
				"element": "H" 
			},
			{
				"x": 0.1212914732,
				"y": 1.838939038,
				"z": 6.8923106738,
				"element": "H" 
			},
			{
				"x": -0.239489245,
				"y": 3.8092626227,
				"z": 5.7173302081,
				"element": "H" 
			},
			{
				"x": 1.0632007519,
				"y": 3.4492033022,
				"z": 4.5989085789,
				"element": "H" 
			},
			{
				"x": -0.3828568153,
				"y": 2.3877288738,
				"z": 3.0392587155,
				"element": "H" 
			},
			{
				"x": -1.6007293191,
				"y": 3.4506364252,
				"z": 3.7572781068,
				"element": "H" 
			}
		],
		 "valence_orbital": [ 
			{
				"type": "occ",
				"energy": -0.27296,
				"method": "rhf"
			},
			{
				"type": "occ",
				"energy": -0.26825,
				"method": "rhf"
			},
			{
				"type": "occ",
				"energy": -0.25433,
				"method": "rhf"
			},
			{
				"type": "occ",
				"energy": -0.24887,
				"method": "rhf"
			},
			{
				"type": "occ",
				"energy": -0.1943,
				"method": "rhf"
			},
			{
				"type": "unocc",
				"energy": -0.00398,
				"method": "rhf"
			},
			{
				"type": "unocc",
				"energy": 0.06618,
				"method": "rhf"
			},
			{
				"type": "unocc",
				"energy": 0.07356,
				"method": "rhf"
			},
			{
				"type": "unocc",
				"energy": 0.08025,
				"method": "rhf"
			},
			{
				"type": "unocc",
				"energy": 0.08462,
				"method": "rhf"
			}
		],
		"cosmo_sigma_profile": { 
			"-0.025": 0.0,
			"-0.024": 0.0,
			"-0.023": 0.0,
			"-0.022": 0.0,
			"-0.021": 0.0,
			"-0.02": 0.0,
			"-0.019": 0.0,
			"-0.018": 0.0,
			"-0.017": 0.0,
			"-0.016": 0.0,
			"-0.015": 0.122902742491,
			"-0.014": 0.890146351409,
			"-0.013": 0.895531059393,
			"-0.012": 0.314676212087,
			"-0.011": 1.26814656879,
			"-0.01": 0.940018692597,
			"-0.009": 0.908352190503,
			"-0.008": 1.69513522382,
			"-0.007": 0.308405517026,
			"-0.006": 0.724196702665,
			"-0.005": 2.02159434423,
			"-0.004": 8.51421038389,
			"-0.003": 38.0755682767,
			"-0.002": 73.5469793469,
			"-0.001": 84.4542787498,
			"0.0": 69.2150023938,
			"0.001": 54.1251795209,
			"0.002": 30.1330465607,
			"0.003": 9.95795305345,
			"0.004": 8.07233003031,
			"0.005": 7.5292698841,
			"0.006": 6.47542325572,
			"0.007": 4.46870181142,
			"0.008": 3.70887970374,
			"0.009": 2.38965596774,
			"0.01": 2.80577935933,
			"0.011": 2.49226000736,
			"0.012": 3.43560854374,
			"0.013": 2.2909193574,
			"0.014": 0.570616027307,
			"0.015": 0.103817276696,
			"0.016": 0.0,
			"0.017": 0.0,
			"0.018": 0.0,
			"0.019": 0.0,
			"0.02": 0.0,
			"0.021": 0.0,
			"0.022": 0.0,
			"0.023": 0.0,
			"0.024": 0.0,
			"0.025": 0.0
		}
	}
}
