{
	 "smiles": "COC1=C(OCCC(C)C)C=CC(=C1)C(=O)NN", 
	 "Tm": 362.15, 
	 "num_atms": 38, 
	 "gaussian": { 
		 "optdone": 1, 
		 "sigma_profile": "yes", 
		 "theory": "DFT", 
		 "functional": "B3LYP", 
		 "basiset": "6-31G**", 
		 "properties": { 
			 "R2extent": 7304.7078, 
			 "electric_dipole_moment_norm": 5.08551399467, 
			 "electric_quadrupole_moment_norm": 21.9198746794, 
			 "total_energy": -842.571693355, 
			 "HOMO_LUMO_gap": 0.18549, 
			 "cosmo_polarized_energy": -17.19, 
			 "cosmo_cavitation_energy": 40.37, 
			 "cosmo_dispersion_energy": -27.65, 
			 "cosmo_repulsion_energy": 2.18, 
			 "cosmo_total_nonelectrostatic_energy": 14.89, 
			 "SMD_solvation_energy": 8.69 
		},
		"coords": [
			{
				"x": -2.7780416472,
				"y": 2.5624315012,
				"z": 0.5987102216,
				"element": "C" 
			},
			{
				"x": -1.8137321377,
				"y": 1.8703878207,
				"z": -0.1776572231,
				"element": "O" 
			},
			{
				"x": -2.02749422,
				"y": 0.5475926754,
				"z": -0.4537129239,
				"element": "C" 
			},
			{
				"x": -1.0631110152,
				"y": -0.0911628279,
				"z": -1.2735418821,
				"element": "C" 
			},
			{
				"x": 0.0390268589,
				"y": 0.5336325581,
				"z": -1.778567797,
				"element": "O" 
			},
			{
				"x": 0.8786611393,
				"y": 1.323774586,
				"z": -0.9095974165,
				"element": "C" 
			},
			{
				"x": 2.2452498054,
				"y": 1.480653676,
				"z": -1.5723556789,
				"element": "C" 
			},
			{
				"x": 3.2361630695,
				"y": 0.2976031218,
				"z": -1.4811730129,
				"element": "C" 
			},
			{
				"x": 3.6861909435,
				"y": 0.0267248479,
				"z": -0.0365223305,
				"element": "C" 
			},
			{
				"x": 2.7251917934,
				"y": -0.988329597,
				"z": -2.148242879,
				"element": "C" 
			},
			{
				"x": -1.2824582852,
				"y": -1.4127797376,
				"z": -1.6685866416,
				"element": "C" 
			},
			{
				"x": -2.4101835433,
				"y": -2.1155606797,
				"z": -1.252684641,
				"element": "C" 
			},
			{
				"x": -3.3282580936,
				"y": -1.5128051466,
				"z": -0.3900865077,
				"element": "C" 
			},
			{
				"x": -3.1319908778,
				"y": -0.1761688473,
				"z": -0.0021181639,
				"element": "C" 
			},
			{
				"x": -4.5439129131,
				"y": -2.2961495897,
				"z": 0.0010731904,
				"element": "C" 
			},
			{
				"x": -5.0921806261,
				"y": -3.0708740997,
				"z": -0.7740329418,
				"element": "O" 
			},
			{
				"x": -5.0618992359,
				"y": -2.106779247,
				"z": 1.2748693751,
				"element": "N" 
			},
			{
				"x": -4.2986807114,
				"y": -1.7955440782,
				"z": 2.4260788178,
				"element": "N" 
			},
			{
				"x": -2.4189960313,
				"y": 3.5895175278,
				"z": 0.6779015844,
				"element": "H" 
			},
			{
				"x": -3.7629978362,
				"y": 2.5603508063,
				"z": 0.1151389649,
				"element": "H" 
			},
			{
				"x": -2.8713291423,
				"y": 2.1361103355,
				"z": 1.6064698599,
				"element": "H" 
			},
			{
				"x": 0.9513531169,
				"y": 0.8350192322,
				"z": 0.0702934567,
				"element": "H" 
			},
			{
				"x": 0.419827348,
				"y": 2.3037722782,
				"z": -0.7587112861,
				"element": "H" 
			},
			{
				"x": 2.0698013434,
				"y": 1.7348487091,
				"z": -2.62518662,
				"element": "H" 
			},
			{
				"x": 2.7216861881,
				"y": 2.3607134799,
				"z": -1.1193764635,
				"element": "H" 
			},
			{
				"x": 4.1270175297,
				"y": 0.621059216,
				"z": -2.0390362951,
				"element": "H" 
			},
			{
				"x": 4.4670383315,
				"y": -0.7408534254,
				"z": -0.0100720972,
				"element": "H" 
			},
			{
				"x": 2.8588226903,
				"y": -0.3345154394,
				"z": 0.585366259,
				"element": "H" 
			},
			{
				"x": 4.0898722198,
				"y": 0.9297213621,
				"z": 0.4354994875,
				"element": "H" 
			},
			{
				"x": 1.8802348401,
				"y": -1.4147821264,
				"z": -1.5992140528,
				"element": "H" 
			},
			{
				"x": 3.5178918701,
				"y": -1.7442669658,
				"z": -2.1805417543,
				"element": "H" 
			},
			{
				"x": 2.3912914192,
				"y": -0.8024647778,
				"z": -3.1739379506,
				"element": "H" 
			},
			{
				"x": -0.5475824099,
				"y": -1.8685322447,
				"z": -2.3235750223,
				"element": "H" 
			},
			{
				"x": -2.5869356973,
				"y": -3.1325816112,
				"z": -1.5846005597,
				"element": "H" 
			},
			{
				"x": -3.8850682237,
				"y": 0.3159694694,
				"z": 0.6007960363,
				"element": "H" 
			},
			{
				"x": -5.8182278351,
				"y": -2.7528988737,
				"z": 1.4706621533,
				"element": "H" 
			},
			{
				"x": -3.3596583652,
				"y": -2.1781205028,
				"z": 2.3373727558,
				"element": "H" 
			},
			{
				"x": -4.2110816595,
				"y": -0.787613386,
				"z": 2.5121999789,
				"element": "H" 
			}
		],
		 "valence_orbital": [ 
			{
				"type": "occ",
				"energy": -0.28574,
				"method": "rhf"
			},
			{
				"type": "occ",
				"energy": -0.25523,
				"method": "rhf"
			},
			{
				"type": "occ",
				"energy": -0.24704,
				"method": "rhf"
			},
			{
				"type": "occ",
				"energy": -0.24268,
				"method": "rhf"
			},
			{
				"type": "occ",
				"energy": -0.21698,
				"method": "rhf"
			},
			{
				"type": "unocc",
				"energy": -0.03149,
				"method": "rhf"
			},
			{
				"type": "unocc",
				"energy": 3e-05,
				"method": "rhf"
			},
			{
				"type": "unocc",
				"energy": 0.04884,
				"method": "rhf"
			},
			{
				"type": "unocc",
				"energy": 0.05865,
				"method": "rhf"
			},
			{
				"type": "unocc",
				"energy": 0.07552,
				"method": "rhf"
			}
		],
		"cosmo_sigma_profile": { 
			"-0.025": 0.0,
			"-0.024": 0.0,
			"-0.023": 0.0,
			"-0.022": 0.0,
			"-0.021": 0.0,
			"-0.02": 0.0,
			"-0.019": 0.0,
			"-0.018": 0.0,
			"-0.017": 0.0,
			"-0.016": 0.0,
			"-0.015": 0.0,
			"-0.014": 0.0,
			"-0.013": 0.58469319023,
			"-0.012": 1.52846871977,
			"-0.011": 3.97935056979,
			"-0.01": 3.21623733602,
			"-0.009": 4.71674920921,
			"-0.008": 3.86965278571,
			"-0.007": 4.77999070378,
			"-0.006": 9.89716863797,
			"-0.005": 14.8534132455,
			"-0.004": 17.5436567303,
			"-0.003": 27.438992891,
			"-0.002": 33.5404374506,
			"-0.001": 35.5637356797,
			"0.0": 29.5149481656,
			"0.001": 26.5027112548,
			"0.002": 22.7104149349,
			"0.003": 16.4563273005,
			"0.004": 12.2490166035,
			"0.005": 8.39890991932,
			"0.006": 5.70154132304,
			"0.007": 5.13097645116,
			"0.008": 3.7756789453,
			"0.009": 3.85482381396,
			"0.01": 2.88368421083,
			"0.011": 3.46782341081,
			"0.012": 2.95795851487,
			"0.013": 5.54398160234,
			"0.014": 3.5759402046,
			"0.015": 0.812415101717,
			"0.016": 0.609618024164,
			"0.017": 0.0,
			"0.018": 0.0,
			"0.019": 0.0,
			"0.02": 0.0,
			"0.021": 0.0,
			"0.022": 0.0,
			"0.023": 0.0,
			"0.024": 0.0,
			"0.025": 0.0
		}
	}
}
