{
	 "smiles": "CCOC(=O)C1=NN(C(=O)C1)C1=CC=C(Cl)C=C1", 
	 "Tm": 415.15, 
	 "num_atms": 29, 
	 "gaussian": { 
		 "optdone": 1, 
		 "sigma_profile": "yes", 
		 "theory": "DFT", 
		 "functional": "B3LYP", 
		 "basiset": "6-31G**", 
		 "properties": { 
			 "R2extent": 7679.0904, 
			 "electric_dipole_moment_norm": 3.41807467443, 
			 "electric_quadrupole_moment_norm": 13.7261458942, 
			 "total_energy": -1259.26703281, 
			 "HOMO_LUMO_gap": 0.14663, 
			 "cosmo_polarized_energy": -12.44, 
			 "cosmo_cavitation_energy": 36.39, 
			 "cosmo_dispersion_energy": -26.47, 
			 "cosmo_repulsion_energy": 2.08, 
			 "cosmo_total_nonelectrostatic_energy": 12.0, 
			 "SMD_solvation_energy": 7.11 
		},
		"coords": [
			{
				"x": -3.5259665243,
				"y": -0.5077935319,
				"z": -3.812616145,
				"element": "C" 
			},
			{
				"x": -2.7327783114,
				"y": -1.7196306648,
				"z": -3.3647176419,
				"element": "C" 
			},
			{
				"x": -1.750434427,
				"y": -1.2623130665,
				"z": -2.4018998441,
				"element": "O" 
			},
			{
				"x": -0.9490349801,
				"y": -2.2094674035,
				"z": -1.8968336085,
				"element": "C" 
			},
			{
				"x": -0.9922093142,
				"y": -3.3913810503,
				"z": -2.185268752,
				"element": "O" 
			},
			{
				"x": 0.0351016977,
				"y": -1.6872458116,
				"z": -0.9193709685,
				"element": "C" 
			},
			{
				"x": 0.115783036,
				"y": -0.4413645171,
				"z": -0.5863202086,
				"element": "N" 
			},
			{
				"x": 1.1291458927,
				"y": -0.2954539076,
				"z": 0.3373676213,
				"element": "N" 
			},
			{
				"x": 1.7636327194,
				"y": -1.5194810816,
				"z": 0.6391292629,
				"element": "C" 
			},
			{
				"x": 2.6824683754,
				"y": -1.6897977347,
				"z": 1.4133472751,
				"element": "O" 
			},
			{
				"x": 1.0359683824,
				"y": -2.5468935897,
				"z": -0.2182539184,
				"element": "C" 
			},
			{
				"x": 1.4041851202,
				"y": 1.0003186277,
				"z": 0.8527132883,
				"element": "C" 
			},
			{
				"x": 2.4254846517,
				"y": 1.1985411312,
				"z": 1.7933374546,
				"element": "C" 
			},
			{
				"x": 2.6739259301,
				"y": 2.480082487,
				"z": 2.2823568301,
				"element": "C" 
			},
			{
				"x": 1.9096991182,
				"y": 3.5559004175,
				"z": 1.8367138112,
				"element": "C" 
			},
			{
				"x": 2.2286103641,
				"y": 5.1688356218,
				"z": 2.457703375,
				"element": "Cl" 
			},
			{
				"x": 0.8929469164,
				"y": 3.3656952676,
				"z": 0.9017409128,
				"element": "C" 
			},
			{
				"x": 0.6394634473,
				"y": 2.0889715818,
				"z": 0.4093723432,
				"element": "C" 
			},
			{
				"x": -4.2819749705,
				"y": -0.8115984305,
				"z": -4.5431732346,
				"element": "H" 
			},
			{
				"x": -2.8740188848,
				"y": 0.2355449354,
				"z": -4.2797865798,
				"element": "H" 
			},
			{
				"x": -4.0339081254,
				"y": -0.0379633167,
				"z": -2.9658002898,
				"element": "H" 
			},
			{
				"x": -3.3646653281,
				"y": -2.4754517492,
				"z": -2.8878467062,
				"element": "H" 
			},
			{
				"x": -2.2097723181,
				"y": -2.2031706716,
				"z": -4.1956926644,
				"element": "H" 
			},
			{
				"x": 0.5797164954,
				"y": -3.325642343,
				"z": 0.4019393594,
				"element": "H" 
			},
			{
				"x": 1.7276227969,
				"y": -3.0516271378,
				"z": -0.9009688479,
				"element": "H" 
			},
			{
				"x": 3.0156509001,
				"y": 0.3605791922,
				"z": 2.136098421,
				"element": "H" 
			},
			{
				"x": 3.4626151378,
				"y": 2.6371625447,
				"z": 3.0096191435,
				"element": "H" 
			},
			{
				"x": 0.3023784086,
				"y": 4.2082632963,
				"z": 0.559751813,
				"element": "H" 
			},
			{
				"x": -0.1472362065,
				"y": 1.9298809048,
				"z": -0.3165415018,
				"element": "H" 
			}
		],
		 "valence_orbital": [ 
			{
				"type": "occ",
				"energy": -0.29355,
				"method": "rhf"
			},
			{
				"type": "occ",
				"energy": -0.28645,
				"method": "rhf"
			},
			{
				"type": "occ",
				"energy": -0.27524,
				"method": "rhf"
			},
			{
				"type": "occ",
				"energy": -0.2673,
				"method": "rhf"
			},
			{
				"type": "occ",
				"energy": -0.22667,
				"method": "rhf"
			},
			{
				"type": "unocc",
				"energy": -0.08004,
				"method": "rhf"
			},
			{
				"type": "unocc",
				"energy": -0.03315,
				"method": "rhf"
			},
			{
				"type": "unocc",
				"energy": -0.01649,
				"method": "rhf"
			},
			{
				"type": "unocc",
				"energy": 0.02056,
				"method": "rhf"
			},
			{
				"type": "unocc",
				"energy": 0.03069,
				"method": "rhf"
			}
		],
		"cosmo_sigma_profile": { 
			"-0.025": 0.0,
			"-0.024": 0.0,
			"-0.023": 0.0,
			"-0.022": 0.0,
			"-0.021": 0.0,
			"-0.02": 0.0,
			"-0.019": 0.0,
			"-0.018": 0.0,
			"-0.017": 0.0,
			"-0.016": 0.0,
			"-0.015": 0.0,
			"-0.014": 0.0,
			"-0.013": 0.0,
			"-0.012": 0.0,
			"-0.011": 0.0,
			"-0.01": 1.3505366452,
			"-0.009": 5.94944206094,
			"-0.008": 7.09141550369,
			"-0.007": 8.07538308362,
			"-0.006": 13.1043408332,
			"-0.005": 19.6657741857,
			"-0.004": 23.4433072797,
			"-0.003": 22.1879601787,
			"-0.002": 19.2905769731,
			"-0.001": 21.0448881452,
			"0.0": 22.1513395199,
			"0.001": 21.7170752972,
			"0.002": 23.9850798397,
			"0.003": 22.4912701548,
			"0.004": 14.372634491,
			"0.005": 12.2723709259,
			"0.006": 4.61072287361,
			"0.007": 4.32598553637,
			"0.008": 3.75531332065,
			"0.009": 5.18230861315,
			"0.01": 6.1774886497,
			"0.011": 8.55802089357,
			"0.012": 2.67973959793,
			"0.013": 0.0421999794378,
			"0.014": 0.0,
			"0.015": 0.0,
			"0.016": 0.0,
			"0.017": 0.0,
			"0.018": 0.0,
			"0.019": 0.0,
			"0.02": 0.0,
			"0.021": 0.0,
			"0.022": 0.0,
			"0.023": 0.0,
			"0.024": 0.0,
			"0.0": 0.0
		}
	}
}
