{
	 "smiles": "CN1C(=O)C(C(N)=NO)=C(N)C11CCCC1", 
	 "Tm": 484.15, 
	 "num_atms": 32, 
	 "gaussian": { 
		 "optdone": 1, 
		 "sigma_profile": "yes", 
		 "theory": "DFT", 
		 "functional": "B3LYP", 
		 "basiset": "6-31G**", 
		 "properties": { 
			 "R2extent": 4363.6299, 
			 "electric_dipole_moment_norm": 9.00116586671, 
			 "electric_quadrupole_moment_norm": 39.4438582352, 
			 "total_energy": -760.1275711, 
			 "HOMO_LUMO_gap": 0.16409, 
			 "cosmo_polarized_energy": -25.18, 
			 "cosmo_cavitation_energy": 32.39, 
			 "cosmo_dispersion_energy": -23.77, 
			 "cosmo_repulsion_energy": 1.83, 
			 "cosmo_total_nonelectrostatic_energy": 10.45, 
			 "SMD_solvation_energy": 5.72 
		},
		"coords": [
			{
				"x": 0.7642442667,
				"y": -2.5497005763,
				"z": 0.9482859308,
				"element": "C" 
			},
			{
				"x": 0.4360419895,
				"y": -1.1478111257,
				"z": 1.0756182375,
				"element": "N" 
			},
			{
				"x": 0.0336159814,
				"y": -0.5935928248,
				"z": 2.2691593323,
				"element": "C" 
			},
			{
				"x": -0.159484897,
				"y": -1.2524767409,
				"z": 3.3015528944,
				"element": "O" 
			},
			{
				"x": -0.11119759,
				"y": 0.8552551677,
				"z": 2.0754950829,
				"element": "C" 
			},
			{
				"x": -0.5429903862,
				"y": 1.8413454771,
				"z": 3.0760222944,
				"element": "C" 
			},
			{
				"x": -1.0223459675,
				"y": 3.0753842226,
				"z": 2.513514035,
				"element": "N" 
			},
			{
				"x": -0.4962797995,
				"y": 1.8299951364,
				"z": 4.3655030471,
				"element": "N" 
			},
			{
				"x": 0.0651455161,
				"y": 0.7612627684,
				"z": 5.0317905749,
				"element": "O" 
			},
			{
				"x": 0.2516132612,
				"y": 1.1287204277,
				"z": 0.7785095183,
				"element": "C" 
			},
			{
				"x": 0.2436658283,
				"y": 2.3207862881,
				"z": 0.1417991395,
				"element": "N" 
			},
			{
				"x": 0.65420073,
				"y": -0.1398571038,
				"z": 0.040425512,
				"element": "C" 
			},
			{
				"x": 2.1347869342,
				"y": -0.0949543153,
				"z": -0.4782941492,
				"element": "C" 
			},
			{
				"x": 2.1046786376,
				"y": -0.7113150715,
				"z": -1.8861976116,
				"element": "C" 
			},
			{
				"x": 0.753601023,
				"y": -0.2379372951,
				"z": -2.4446151549,
				"element": "C" 
			},
			{
				"x": -0.2067048067,
				"y": -0.3893393361,
				"z": -1.2504220332,
				"element": "C" 
			},
			{
				"x": 1.8319706791,
				"y": -2.7072860972,
				"z": 0.7490481829,
				"element": "H" 
			},
			{
				"x": 0.1873838861,
				"y": -3.0320646368,
				"z": 0.1500577385,
				"element": "H" 
			},
			{
				"x": 0.5129424388,
				"y": -3.0227932658,
				"z": 1.8988226313,
				"element": "H" 
			},
			{
				"x": -1.9235362299,
				"y": 2.9336495056,
				"z": 2.0577184163,
				"element": "H" 
			},
			{
				"x": -1.1615028092,
				"y": 3.7241361031,
				"z": 3.2854573009,
				"element": "H" 
			},
			{
				"x": -0.0091173704,
				"y": -0.0559479103,
				"z": 4.4738984528,
				"element": "H" 
			},
			{
				"x": 0.7173490449,
				"y": 2.4356571199,
				"z": -0.7391563263,
				"element": "H" 
			},
			{
				"x": 0.0234980416,
				"y": 3.130397851,
				"z": 0.7175461259,
				"element": "H" 
			},
			{
				"x": 2.4657193753,
				"y": 0.9483199252,
				"z": -0.5420751506,
				"element": "H" 
			},
			{
				"x": 2.810625406,
				"y": -0.5953480868,
				"z": 0.2195068428,
				"element": "H" 
			},
			{
				"x": 2.1183728852,
				"y": -1.806380711,
				"z": -1.8244029984,
				"element": "H" 
			},
			{
				"x": 2.9589741345,
				"y": -0.408818562,
				"z": -2.4993485399,
				"element": "H" 
			},
			{
				"x": 0.4237100939,
				"y": -0.8011989428,
				"z": -3.3226910847,
				"element": "H" 
			},
			{
				"x": 0.826438102,
				"y": 0.8147933458,
				"z": -2.750404511,
				"element": "H" 
			},
			{
				"x": -1.068158606,
				"y": 0.2811315973,
				"z": -1.297926226,
				"element": "H" 
			},
			{
				"x": -0.5972597929,
				"y": -1.4106123338,
				"z": -1.2116975049,
				"element": "H" 
			}
		],
		 "valence_orbital": [ 
			{
				"type": "occ",
				"energy": -0.27332,
				"method": "rhf"
			},
			{
				"type": "occ",
				"energy": -0.25022,
				"method": "rhf"
			},
			{
				"type": "occ",
				"energy": -0.23842,
				"method": "rhf"
			},
			{
				"type": "occ",
				"energy": -0.23117,
				"method": "rhf"
			},
			{
				"type": "occ",
				"energy": -0.18762,
				"method": "rhf"
			},
			{
				"type": "unocc",
				"energy": -0.02353,
				"method": "rhf"
			},
			{
				"type": "unocc",
				"energy": 0.03022,
				"method": "rhf"
			},
			{
				"type": "unocc",
				"energy": 0.04267,
				"method": "rhf"
			},
			{
				"type": "unocc",
				"energy": 0.06584,
				"method": "rhf"
			},
			{
				"type": "unocc",
				"energy": 0.08262,
				"method": "rhf"
			}
		],
		"cosmo_sigma_profile": { 
			"-0.025": 0.0,
			"-0.024": 0.0,
			"-0.023": 0.0,
			"-0.022": 0.0,
			"-0.021": 0.0,
			"-0.02": 0.0,
			"-0.019": 0.0,
			"-0.018": 0.0,
			"-0.017": 0.0,
			"-0.016": 0.0,
			"-0.015": 0.0,
			"-0.014": 0.241571424423,
			"-0.013": 1.21613412269,
			"-0.012": 2.86980065451,
			"-0.011": 4.51404122226,
			"-0.01": 4.47185579586,
			"-0.009": 5.2486623918,
			"-0.008": 4.36993805782,
			"-0.007": 3.79203175442,
			"-0.006": 5.62358035956,
			"-0.005": 11.4933418239,
			"-0.004": 17.4110185544,
			"-0.003": 26.2339448125,
			"-0.002": 29.3348347032,
			"-0.001": 25.7281770285,
			"0.0": 22.5072626116,
			"0.001": 15.4765589503,
			"0.002": 10.081534315,
			"0.003": 7.83706361564,
			"0.004": 6.9830974591,
			"0.005": 5.44884570452,
			"0.006": 4.53760047748,
			"0.007": 3.27950816065,
			"0.008": 3.78307869566,
			"0.009": 2.7972186552,
			"0.01": 3.44383396713,
			"0.011": 4.04895816869,
			"0.012": 4.7059725037,
			"0.013": 5.89360438341,
			"0.014": 5.79823499216,
			"0.015": 3.35381707094,
			"0.016": 0.798271226001,
			"0.017": 0.0618558240124,
			"0.018": 0.0,
			"0.019": 0.0,
			"0.02": 0.0,
			"0.021": 0.0,
			"0.022": 0.0,
			"0.023": 0.0,
			"0.024": 0.0,
			"0.025": 0.0
		}
	}
}
