{
	 "smiles": "NC(=O)COC1=C(C=C(Cl)C=C1)S(Cl)(=O)=O", 
	 "Tm": 417.15, 
	 "num_atms": 23, 
	 "gaussian": { 
		 "optdone": 1, 
		 "sigma_profile": "yes", 
		 "theory": "DFT", 
		 "functional": "B3LYP", 
		 "basiset": "6-31G**", 
		 "properties": { 
			 "R2extent": 6046.2202, 
			 "electric_dipole_moment_norm": 2.41439775513, 
			 "electric_quadrupole_moment_norm": 15.7081868193, 
			 "total_energy": -1983.22083616, 
			 "HOMO_LUMO_gap": 0.1555, 
			 "cosmo_polarized_energy": -15.98, 
			 "cosmo_cavitation_energy": 32.61, 
			 "cosmo_dispersion_energy": -23.95, 
			 "cosmo_repulsion_energy": 1.85, 
			 "cosmo_total_nonelectrostatic_energy": 10.5, 
			 "SMD_solvation_energy": 5.1 
		},
		"coords": [
			{
				"x": -1.1332547051,
				"y": 1.6359337155,
				"z": 2.3680919394,
				"element": "N" 
			},
			{
				"x": -0.5247444871,
				"y": 0.4614190325,
				"z": 2.6613769151,
				"element": "C" 
			},
			{
				"x": -0.8163059483,
				"y": -0.271594075,
				"z": 3.5948611221,
				"element": "O" 
			},
			{
				"x": 0.6501339525,
				"y": 0.0894881613,
				"z": 1.7450641308,
				"element": "C" 
			},
			{
				"x": 0.6014935844,
				"y": 0.7190479268,
				"z": 0.4598806236,
				"element": "O" 
			},
			{
				"x": -0.2436535559,
				"y": 0.2650562841,
				"z": -0.4938810529,
				"element": "C" 
			},
			{
				"x": -0.5595402147,
				"y": 1.1582199977,
				"z": -1.5377431906,
				"element": "C" 
			},
			{
				"x": -1.3433574892,
				"y": 0.7795553313,
				"z": -2.6284667803,
				"element": "C" 
			},
			{
				"x": -1.8479602888,
				"y": -0.5163505994,
				"z": -2.6668117867,
				"element": "C" 
			},
			{
				"x": -2.8389397057,
				"y": -1.0205923361,
				"z": -4.0183949409,
				"element": "Cl" 
			},
			{
				"x": -1.5808063156,
				"y": -1.4095952022,
				"z": -1.6279186667,
				"element": "C" 
			},
			{
				"x": -0.7863557723,
				"y": -1.0248598496,
				"z": -0.5500590712,
				"element": "C" 
			},
			{
				"x": -0.0792415986,
				"y": 2.8764106398,
				"z": -1.4463580991,
				"element": "S" 
			},
			{
				"x": 2.0209765841,
				"y": 2.7961511713,
				"z": -1.6660535782,
				"element": "Cl" 
			},
			{
				"x": -0.5894370515,
				"y": 3.5645417222,
				"z": -2.6248299823,
				"element": "O" 
			},
			{
				"x": -0.3427513787,
				"y": 3.3980031313,
				"z": -0.1054620613,
				"element": "O" 
			},
			{
				"x": -0.815605056,
				"y": 2.2457249818,
				"z": 1.6240551384,
				"element": "H" 
			},
			{
				"x": -1.8726389902,
				"y": 1.9453876792,
				"z": 2.980833496,
				"element": "H" 
			},
			{
				"x": 0.7115798041,
				"y": -0.9985982896,
				"z": 1.6792685773,
				"element": "H" 
			},
			{
				"x": 1.5769220601,
				"y": 0.452771137,
				"z": 2.1963812964,
				"element": "H" 
			},
			{
				"x": -1.559914877,
				"y": 1.4943571835,
				"z": -3.4127705526,
				"element": "H" 
			},
			{
				"x": -1.9918709296,
				"y": -2.4124747738,
				"z": -1.6619676232,
				"element": "H" 
			},
			{
				"x": -0.5932276207,
				"y": -1.7379029698,
				"z": 0.2416041471,
				"element": "H" 
			}
		],
		 "valence_orbital": [ 
			{
				"type": "occ",
				"energy": -0.32388,
				"method": "rhf"
			},
			{
				"type": "occ",
				"energy": -0.30624,
				"method": "rhf"
			},
			{
				"type": "occ",
				"energy": -0.27973,
				"method": "rhf"
			},
			{
				"type": "occ",
				"energy": -0.27239,
				"method": "rhf"
			},
			{
				"type": "occ",
				"energy": -0.25284,
				"method": "rhf"
			},
			{
				"type": "unocc",
				"energy": -0.09734,
				"method": "rhf"
			},
			{
				"type": "unocc",
				"energy": -0.06324,
				"method": "rhf"
			},
			{
				"type": "unocc",
				"energy": -0.04253,
				"method": "rhf"
			},
			{
				"type": "unocc",
				"energy": 0.0051,
				"method": "rhf"
			},
			{
				"type": "unocc",
				"energy": 0.00921,
				"method": "rhf"
			}
		],
		"cosmo_sigma_profile": { 
			"-0.025": 0.0,
			"-0.024": 0.0,
			"-0.023": 0.0,
			"-0.022": 0.0,
			"-0.021": 0.0,
			"-0.02": 0.0,
			"-0.019": 0.0,
			"-0.018": 0.0,
			"-0.017": 0.0,
			"-0.016": 0.0,
			"-0.015": 0.187121462666,
			"-0.014": 1.1309722142,
			"-0.013": 1.12268106173,
			"-0.012": 1.54696135919,
			"-0.011": 1.6965225565,
			"-0.01": 3.15356271912,
			"-0.009": 7.62148832961,
			"-0.008": 9.76516525228,
			"-0.007": 9.33125905511,
			"-0.006": 9.1232352142,
			"-0.005": 11.0655341075,
			"-0.004": 11.7858928821,
			"-0.003": 14.2108877603,
			"-0.002": 18.9610466255,
			"-0.001": 22.8550042274,
			"0.0": 24.6692171747,
			"0.001": 15.4119585665,
			"0.002": 19.4602358256,
			"0.003": 23.3413297977,
			"0.004": 16.4381612149,
			"0.005": 6.58213871214,
			"0.006": 5.81739021691,
			"0.007": 6.01324000912,
			"0.008": 7.79464928008,
			"0.009": 3.06049061768,
			"0.01": 0.964969388446,
			"0.011": 1.64659054947,
			"0.012": 2.49000779943,
			"0.013": 5.34213890621,
			"0.014": 3.68861668848,
			"0.015": 0.23546218735,
			"0.016": 0.0,
			"0.017": 0.0,
			"0.018": 0.0,
			"0.019": 0.0,
			"0.02": 0.0,
			"0.021": 0.0,
			"0.022": 0.0,
			"0.023": 0.0,
			"0.024": 0.0,
			"0.025": 0.0
		}
	}
}
