{
	 "smiles": "COC1=CC(NCCC#N)=CC=C1", 
	 "Tm": 355.15, 
	 "num_atms": 25, 
	 "gaussian": { 
		 "optdone": 1, 
		 "sigma_profile": "yes", 
		 "theory": "DFT", 
		 "functional": "B3LYP", 
		 "basiset": "6-31G**", 
		 "properties": { 
			 "R2extent": 3147.4775, 
			 "electric_dipole_moment_norm": 3.30079142328, 
			 "electric_quadrupole_moment_norm": 19.5575399148, 
			 "total_energy": -572.994637668, 
			 "HOMO_LUMO_gap": 0.20613, 
			 "cosmo_polarized_energy": -14.56, 
			 "cosmo_cavitation_energy": 29.39, 
			 "cosmo_dispersion_energy": -20.57, 
			 "cosmo_repulsion_energy": 1.65, 
			 "cosmo_total_nonelectrostatic_energy": 10.46, 
			 "SMD_solvation_energy": 6.16 
		},
		"coords": [
			{
				"x": 0.0597811176,
				"y": -3.4353824675,
				"z": 2.8151627854,
				"element": "C" 
			},
			{
				"x": 0.5554877419,
				"y": -2.4205634836,
				"z": 1.9574259938,
				"element": "O" 
			},
			{
				"x": -0.3274119207,
				"y": -1.7928124343,
				"z": 1.1239315281,
				"element": "C" 
			},
			{
				"x": 0.2398684936,
				"y": -0.804582764,
				"z": 0.3061736786,
				"element": "C" 
			},
			{
				"x": -0.5544624258,
				"y": -0.0869259554,
				"z": -0.5962378285,
				"element": "C" 
			},
			{
				"x": -0.0204861407,
				"y": 0.8673018082,
				"z": -1.4670165577,
				"element": "N" 
			},
			{
				"x": 1.2534448056,
				"y": 1.5087598999,
				"z": -1.2354966604,
				"element": "C" 
			},
			{
				"x": 1.2900833081,
				"y": 2.4701272833,
				"z": -0.0133738306,
				"element": "C" 
			},
			{
				"x": 0.3672788069,
				"y": 3.5931658724,
				"z": -0.1856386905,
				"element": "C" 
			},
			{
				"x": -0.377375135,
				"y": 4.4654066724,
				"z": -0.366786206,
				"element": "N" 
			},
			{
				"x": -1.9357872673,
				"y": -0.3704736651,
				"z": -0.6596106298,
				"element": "C" 
			},
			{
				"x": -2.4800977238,
				"y": -1.3495435725,
				"z": 0.1577154964,
				"element": "C" 
			},
			{
				"x": -1.6946762568,
				"y": -2.076274421,
				"z": 1.0604950297,
				"element": "C" 
			},
			{
				"x": 0.9193211056,
				"y": -3.7992350469,
				"z": 3.3806796461,
				"element": "H" 
			},
			{
				"x": -0.6919279763,
				"y": -3.0453232226,
				"z": 3.5134792675,
				"element": "H" 
			},
			{
				"x": -0.3772653561,
				"y": -4.267665543,
				"z": 2.2485845814,
				"element": "H" 
			},
			{
				"x": 1.3069661033,
				"y": -0.6379214067,
				"z": 0.3951432181,
				"element": "H" 
			},
			{
				"x": -0.7164605354,
				"y": 1.4741119269,
				"z": -1.8794054166,
				"element": "H" 
			},
			{
				"x": 1.5206409019,
				"y": 2.0661678877,
				"z": -2.1379689035,
				"element": "H" 
			},
			{
				"x": 2.0274373065,
				"y": 0.7486147083,
				"z": -1.0947531598,
				"element": "H" 
			},
			{
				"x": 2.3044629953,
				"y": 2.8612709611,
				"z": 0.1285077923,
				"element": "H" 
			},
			{
				"x": 1.016430599,
				"y": 1.9233261465,
				"z": 0.8953622554,
				"element": "H" 
			},
			{
				"x": -2.5657682931,
				"y": 0.1794580141,
				"z": -1.353541975,
				"element": "H" 
			},
			{
				"x": -3.5450168737,
				"y": -1.5568486456,
				"z": 0.0992202379,
				"element": "H" 
			},
			{
				"x": -2.1482673807,
				"y": -2.8322585524,
				"z": 1.6885483477,
				"element": "H" 
			}
		],
		 "valence_orbital": [ 
			{
				"type": "occ",
				"energy": -0.32489,
				"method": "rhf"
			},
			{
				"type": "occ",
				"energy": -0.32313,
				"method": "rhf"
			},
			{
				"type": "occ",
				"energy": -0.28707,
				"method": "rhf"
			},
			{
				"type": "occ",
				"energy": -0.22286,
				"method": "rhf"
			},
			{
				"type": "occ",
				"energy": -0.20081,
				"method": "rhf"
			},
			{
				"type": "unocc",
				"energy": 0.00532,
				"method": "rhf"
			},
			{
				"type": "unocc",
				"energy": 0.0214,
				"method": "rhf"
			},
			{
				"type": "unocc",
				"energy": 0.0296,
				"method": "rhf"
			},
			{
				"type": "unocc",
				"energy": 0.03899,
				"method": "rhf"
			},
			{
				"type": "unocc",
				"energy": 0.0814,
				"method": "rhf"
			}
		],
		"cosmo_sigma_profile": { 
			"-0.025": 0.0,
			"-0.024": 0.0,
			"-0.023": 0.0,
			"-0.022": 0.0,
			"-0.021": 0.0,
			"-0.02": 0.0,
			"-0.019": 0.0,
			"-0.018": 0.0,
			"-0.017": 0.0,
			"-0.016": 0.0,
			"-0.015": 0.0,
			"-0.014": 0.0,
			"-0.013": 0.0859901563908,
			"-0.012": 0.968434649966,
			"-0.011": 1.11756267306,
			"-0.01": 1.58623320079,
			"-0.009": 2.04240111993,
			"-0.008": 5.68753875106,
			"-0.007": 10.778492558,
			"-0.006": 16.1721424629,
			"-0.005": 23.4227991915,
			"-0.004": 21.3373385442,
			"-0.003": 20.461409098,
			"-0.002": 13.9980220261,
			"-0.001": 9.70476064645,
			"0.0": 8.35066051194,
			"0.001": 8.37098426668,
			"0.002": 7.31265882501,
			"0.003": 9.10990596817,
			"0.004": 10.0483303466,
			"0.005": 12.0509017776,
			"0.006": 14.5857979747,
			"0.007": 10.3325009028,
			"0.008": 5.3957541001,
			"0.009": 5.37743711793,
			"0.01": 5.6985482581,
			"0.011": 4.39013187296,
			"0.012": 2.58353194921,
			"0.013": 2.15958846597,
			"0.014": 0.515027881861,
			"0.015": 0.0,
			"0.016": 0.0,
			"0.017": 0.0,
			"0.018": 0.0,
			"0.019": 0.0,
			"0.02": 0.0,
			"0.021": 0.0,
			"0.022": 0.0,
			"0.023": 0.0,
			"0.024": 0.0,
			"0.025": 0.0
		}
	}
}
