{
	 "smiles": "CN1C(=O)NC(=O)N(C1=O)C1=CC(C)=C(OC2=CC=C(SC(F)(F)F)C=C2)C=C1", 
	 "Tm": 467.15, 
	 "num_atms": 43, 
	 "gaussian": { 
		 "optdone": 1, 
		 "sigma_profile": "yes", 
		 "theory": "DFT", 
		 "functional": "B3LYP", 
		 "basiset": "6-31G**", 
		 "properties": { 
			 "R2extent": 23330.253, 
			 "electric_dipole_moment_norm": 2.6158440741, 
			 "electric_quadrupole_moment_norm": 22.0139481357, 
			 "total_energy": -1857.27083537, 
			 "HOMO_LUMO_gap": 0.19899, 
			 "cosmo_polarized_energy": -19.5, 
			 "cosmo_cavitation_energy": 52.52, 
			 "cosmo_dispersion_energy": -35.96, 
			 "cosmo_repulsion_energy": 2.62, 
			 "cosmo_total_nonelectrostatic_energy": 19.17, 
			 "SMD_solvation_energy": 12.4 
		},
		"coords": [
			{
				"x": -5.2162197095,
				"y": -0.0185891989,
				"z": 3.8136418847,
				"element": "C" 
			},
			{
				"x": -4.5955815451,
				"y": -0.1820806641,
				"z": 2.4932371267,
				"element": "N" 
			},
			{
				"x": -5.4110717362,
				"y": -0.4716205947,
				"z": 1.4003785436,
				"element": "C" 
			},
			{
				"x": -6.6179469632,
				"y": -0.6019807122,
				"z": 1.4641201471,
				"element": "O" 
			},
			{
				"x": -4.7168771232,
				"y": -0.6018052124,
				"z": 0.2061075053,
				"element": "N" 
			},
			{
				"x": -3.350535243,
				"y": -0.4802086378,
				"z": -0.0051889973,
				"element": "C" 
			},
			{
				"x": -2.8488574245,
				"y": -0.614992282,
				"z": -1.101112081,
				"element": "O" 
			},
			{
				"x": -2.6271050484,
				"y": -0.1880376028,
				"z": 1.1590396356,
				"element": "N" 
			},
			{
				"x": -3.2081775541,
				"y": -0.0298410174,
				"z": 2.4317187756,
				"element": "C" 
			},
			{
				"x": -2.5521049755,
				"y": 0.2211076673,
				"z": 3.4219577822,
				"element": "O" 
			},
			{
				"x": -1.1942630083,
				"y": -0.039362031,
				"z": 1.0454587959,
				"element": "C" 
			},
			{
				"x": -0.3545362151,
				"y": -1.0117364834,
				"z": 1.5860553837,
				"element": "C" 
			},
			{
				"x": 1.0345120132,
				"y": -0.9038509991,
				"z": 1.4838247064,
				"element": "C" 
			},
			{
				"x": 1.9580001893,
				"y": -1.9392279934,
				"z": 2.0731515424,
				"element": "C" 
			},
			{
				"x": 1.5491113582,
				"y": 0.2153279741,
				"z": 0.8100791386,
				"element": "C" 
			},
			{
				"x": 2.9279034309,
				"y": 0.3420866671,
				"z": 0.7838231839,
				"element": "O" 
			},
			{
				"x": 3.594204114,
				"y": 0.6770847149,
				"z": -0.3716155949,
				"element": "C" 
			},
			{
				"x": 3.122670494,
				"y": 0.3618293736,
				"z": -1.6508617153,
				"element": "C" 
			},
			{
				"x": 3.8976252868,
				"y": 0.6874271998,
				"z": -2.7622100806,
				"element": "C" 
			},
			{
				"x": 5.13813635,
				"y": 1.3179978195,
				"z": -2.6062541688,
				"element": "C" 
			},
			{
				"x": 6.100625186,
				"y": 1.7766119005,
				"z": -4.0456965188,
				"element": "S" 
			},
			{
				"x": 7.1563067491,
				"y": 0.2947012698,
				"z": -4.1863299832,
				"element": "C" 
			},
			{
				"x": 7.9663856946,
				"y": 0.4728491886,
				"z": -5.2431025584,
				"element": "F" 
			},
			{
				"x": 6.4493222848,
				"y": -0.8316070963,
				"z": -4.3814820905,
				"element": "F" 
			},
			{
				"x": 7.920896059,
				"y": 0.0961985452,
				"z": -3.0979281386,
				"element": "F" 
			},
			{
				"x": 5.6006278226,
				"y": 1.6250319131,
				"z": -1.3190246533,
				"element": "C" 
			},
			{
				"x": 4.8326454239,
				"y": 1.3059275014,
				"z": -0.2042427505,
				"element": "C" 
			},
			{
				"x": 0.7164803766,
				"y": 1.1991189819,
				"z": 0.2745687339,
				"element": "C" 
			},
			{
				"x": -0.6648492241,
				"y": 1.0704671826,
				"z": 0.3917836575,
				"element": "C" 
			},
			{
				"x": -5.0063730673,
				"y": 0.9802278884,
				"z": 4.2004954648,
				"element": "H" 
			},
			{
				"x": -6.2867724286,
				"y": -0.1631608386,
				"z": 3.6891138762,
				"element": "H" 
			},
			{
				"x": -4.8082981698,
				"y": -0.7546700392,
				"z": 4.5087992586,
				"element": "H" 
			},
			{
				"x": -5.2746261769,
				"y": -0.8135275014,
				"z": -0.6105813453,
				"element": "H" 
			},
			{
				"x": -0.7870172902,
				"y": -1.8656323245,
				"z": 2.0975637135,
				"element": "H" 
			},
			{
				"x": 2.5839704632,
				"y": -1.5076755365,
				"z": 2.8614688166,
				"element": "H" 
			},
			{
				"x": 2.6381013802,
				"y": -2.3427531736,
				"z": 1.316097182,
				"element": "H" 
			},
			{
				"x": 1.389606587,
				"y": -2.7672793142,
				"z": 2.5033073131,
				"element": "H" 
			},
			{
				"x": 2.1667251868,
				"y": -0.1337340298,
				"z": -1.7760927779,
				"element": "H" 
			},
			{
				"x": 3.5406494464,
				"y": 0.4434858978,
				"z": -3.7571821163,
				"element": "H" 
			},
			{
				"x": 6.5596844675,
				"y": 2.1162473671,
				"z": -1.1946709326,
				"element": "H" 
			},
			{
				"x": 5.1731575635,
				"y": 1.5347447356,
				"z": 0.7999040302,
				"element": "H" 
			},
			{
				"x": 1.1491195007,
				"y": 2.0590940597,
				"z": -0.2246741799,
				"element": "H" 
			},
			{
				"x": -1.3239545253,
				"y": 1.825605435,
				"z": -0.022045515,
				"element": "H" 
			}
		],
		 "valence_orbital": [ 
			{
				"type": "occ",
				"energy": -0.2738,
				"method": "rhf"
			},
			{
				"type": "occ",
				"energy": -0.26666,
				"method": "rhf"
			},
			{
				"type": "occ",
				"energy": -0.2631,
				"method": "rhf"
			},
			{
				"type": "occ",
				"energy": -0.25971,
				"method": "rhf"
			},
			{
				"type": "occ",
				"energy": -0.23493,
				"method": "rhf"
			},
			{
				"type": "unocc",
				"energy": -0.03594,
				"method": "rhf"
			},
			{
				"type": "unocc",
				"energy": -0.02652,
				"method": "rhf"
			},
			{
				"type": "unocc",
				"energy": -0.02159,
				"method": "rhf"
			},
			{
				"type": "unocc",
				"energy": -0.01584,
				"method": "rhf"
			},
			{
				"type": "unocc",
				"energy": -0.01193,
				"method": "rhf"
			}
		],
		"cosmo_sigma_profile": { 
			"-0.025": 0.0,
			"-0.024": 0.0,
			"-0.023": 0.0,
			"-0.022": 0.0,
			"-0.021": 0.0,
			"-0.02": 0.0,
			"-0.019": 0.0,
			"-0.018": 0.0101109422188,
			"-0.017": 0.798219367735,
			"-0.016": 0.860751127739,
			"-0.015": 0.875144539842,
			"-0.014": 1.08929002099,
			"-0.013": 0.689078581837,
			"-0.012": 0.387713397777,
			"-0.011": 1.0022432228,
			"-0.01": 1.16835892725,
			"-0.009": 1.71819207755,
			"-0.008": 4.48616275872,
			"-0.007": 16.4529102909,
			"-0.006": 23.6196440781,
			"-0.005": 26.4360593672,
			"-0.004": 27.926752051,
			"-0.003": 32.1954730223,
			"-0.002": 25.8319034746,
			"-0.001": 29.7181646912,
			"0.0": 31.4206554389,
			"0.001": 37.0236460737,
			"0.002": 58.3278456409,
			"0.003": 28.8163992917,
			"0.004": 10.8716937032,
			"0.005": 8.33976791415,
			"0.006": 7.54664055275,
			"0.007": 5.59682927816,
			"0.008": 4.87948598913,
			"0.009": 4.20567316458,
			"0.01": 7.33497840038,
			"0.011": 14.5436595388,
			"0.012": 8.427590301,
			"0.013": 0.0282314578164,
			"0.014": 0.0,
			"0.015": 0.0,
			"0.016": 0.0,
			"0.017": 0.0,
			"0.018": 0.0,
			"0.019": 0.0,
			"0.02": 0.0,
			"0.021": 0.0,
			"0.022": 0.0,
			"0.023": 0.0,
			"0.024": 0.0,
			"0.025": 0.0
		}
	}
}
