{
	 "smiles": "[O-][N+](=O)C1=CC=CC=C1NN=C(/C#N)C1=NC2=C(N1)C=CC=C2", 
	 "Tm": 543.15, 
	 "num_atms": 33, 
	 "gaussian": { 
		 "optdone": 1, 
		 "sigma_profile": "yes", 
		 "theory": "DFT", 
		 "functional": "B3LYP", 
		 "basiset": "6-31G**", 
		 "properties": { 
			 "R2extent": 11268.2808, 
			 "electric_dipole_moment_norm": 8.61392549422, 
			 "electric_quadrupole_moment_norm": 28.0964766222, 
			 "total_energy": -1056.443375, 
			 "HOMO_LUMO_gap": 0.1131, 
			 "cosmo_polarized_energy": -21.82, 
			 "cosmo_cavitation_energy": 40.73, 
			 "cosmo_dispersion_energy": -28.99, 
			 "cosmo_repulsion_energy": 2.16, 
			 "cosmo_total_nonelectrostatic_energy": 13.9, 
			 "SMD_solvation_energy": 7.39 
		},
		"coords": [
			{
				"x": 0.4482824721,
				"y": 6.2373958825,
				"z": 2.9346624716,
				"element": "O" 
			},
			{
				"x": 0.4373011887,
				"y": 5.1039414411,
				"z": 2.4625799489,
				"element": "N" 
			},
			{
				"x": 0.2643970736,
				"y": 4.8775461433,
				"z": 1.2510747512,
				"element": "O" 
			},
			{
				"x": 0.6357001899,
				"y": 3.9752142104,
				"z": 3.3629161086,
				"element": "C" 
			},
			{
				"x": 0.8256303805,
				"y": 4.2814634626,
				"z": 4.7176174911,
				"element": "C" 
			},
			{
				"x": 1.0219322008,
				"y": 3.2756571512,
				"z": 5.6473593071,
				"element": "C" 
			},
			{
				"x": 1.028409168,
				"y": 1.9415788149,
				"z": 5.215005505,
				"element": "C" 
			},
			{
				"x": 0.8422103729,
				"y": 1.622883918,
				"z": 3.8801965927,
				"element": "C" 
			},
			{
				"x": 0.6399881881,
				"y": 2.6279883782,
				"z": 2.9114831372,
				"element": "C" 
			},
			{
				"x": 0.4552329413,
				"y": 2.2952856451,
				"z": 1.5805964949,
				"element": "N" 
			},
			{
				"x": 0.4657357987,
				"y": 1.0202044621,
				"z": 1.1914125908,
				"element": "N" 
			},
			{
				"x": 0.289202374,
				"y": 0.7356236073,
				"z": -0.0702845605,
				"element": "C" 
			},
			{
				"x": 0.0813606751,
				"y": 1.7448743609,
				"z": -1.0732101863,
				"element": "C" 
			},
			{
				"x": -0.0782230707,
				"y": 2.6392058458,
				"z": -1.7996811648,
				"element": "N" 
			},
			{
				"x": 0.3020502202,
				"y": -0.6576088543,
				"z": -0.4868745127,
				"element": "C" 
			},
			{
				"x": 0.1353138919,
				"y": -1.0677838948,
				"z": -1.7269809549,
				"element": "N" 
			},
			{
				"x": 0.2216102671,
				"y": -2.4451074365,
				"z": -1.6569006872,
				"element": "C" 
			},
			{
				"x": 0.448823964,
				"y": -2.860901846,
				"z": -0.3176638649,
				"element": "C" 
			},
			{
				"x": 0.4951764755,
				"y": -1.6868720442,
				"z": 0.4088336652,
				"element": "N" 
			},
			{
				"x": 0.5770082237,
				"y": -4.2050973311,
				"z": 0.0383939727,
				"element": "C" 
			},
			{
				"x": 0.4708849938,
				"y": -5.1353210267,
				"z": -0.9918386064,
				"element": "C" 
			},
			{
				"x": 0.2452073858,
				"y": -4.7409337211,
				"z": -2.3284113682,
				"element": "C" 
			},
			{
				"x": 0.1184390503,
				"y": -3.4023203706,
				"z": -2.6772232277,
				"element": "C" 
			},
			{
				"x": 0.8123962501,
				"y": 5.325595707,
				"z": 5.0021884487,
				"element": "H" 
			},
			{
				"x": 1.1680889422,
				"y": 3.5205719995,
				"z": 6.6934980389,
				"element": "H" 
			},
			{
				"x": 1.1811479538,
				"y": 1.1399344223,
				"z": 5.9315280205,
				"element": "H" 
			},
			{
				"x": 0.8476950826,
				"y": 0.5932095677,
				"z": 3.5497273501,
				"element": "H" 
			},
			{
				"x": 0.3133478397,
				"y": 3.0732153222,
				"z": 0.9297066141,
				"element": "H" 
			},
			{
				"x": 0.640089059,
				"y": -1.5700543993,
				"z": 1.3992788701,
				"element": "H" 
			},
			{
				"x": 0.7506181179,
				"y": -4.514988181,
				"z": 1.0642398898,
				"element": "H" 
			},
			{
				"x": 0.5641928686,
				"y": -6.1922827325,
				"z": -0.7610020523,
				"element": "H" 
			},
			{
				"x": 0.1699141928,
				"y": -5.5044595958,
				"z": -3.0965878546,
				"element": "H" 
			},
			{
				"x": -0.0550647322,
				"y": -3.0902589084,
				"z": -3.7016402286,
				"element": "H" 
			}
		],
		 "valence_orbital": [ 
			{
				"type": "occ",
				"energy": -0.29384,
				"method": "rhf"
			},
			{
				"type": "occ",
				"energy": -0.28775,
				"method": "rhf"
			},
			{
				"type": "occ",
				"energy": -0.25957,
				"method": "rhf"
			},
			{
				"type": "occ",
				"energy": -0.23861,
				"method": "rhf"
			},
			{
				"type": "occ",
				"energy": -0.22114,
				"method": "rhf"
			},
			{
				"type": "unocc",
				"energy": -0.10804,
				"method": "rhf"
			},
			{
				"type": "unocc",
				"energy": -0.08599,
				"method": "rhf"
			},
			{
				"type": "unocc",
				"energy": -0.02055,
				"method": "rhf"
			},
			{
				"type": "unocc",
				"energy": -0.01377,
				"method": "rhf"
			},
			{
				"type": "unocc",
				"energy": -0.00957,
				"method": "rhf"
			}
		],
		"cosmo_sigma_profile": { 
			"-0.025": 0.0,
			"-0.024": 0.0,
			"-0.023": 0.0,
			"-0.022": 0.0,
			"-0.021": 0.0,
			"-0.02": 0.0,
			"-0.019": 0.0,
			"-0.018": 0.0,
			"-0.017": 0.0522398319673,
			"-0.016": 0.679642225979,
			"-0.015": 0.945599673667,
			"-0.014": 1.00755439649,
			"-0.013": 0.966114931402,
			"-0.012": 1.08193509149,
			"-0.011": 0.922040017244,
			"-0.01": 0.991263107987,
			"-0.009": 1.37036585214,
			"-0.008": 5.20902654203,
			"-0.007": 15.1990008137,
			"-0.006": 20.2604320334,
			"-0.005": 21.1204569072,
			"-0.004": 22.2779210062,
			"-0.003": 21.6764653349,
			"-0.002": 24.2895773028,
			"-0.001": 22.6358705209,
			"0.0": 25.8641724733,
			"0.001": 22.1902716022,
			"0.002": 21.0141330306,
			"0.003": 15.9580916518,
			"0.004": 15.8958134086,
			"0.005": 16.8268079862,
			"0.006": 10.9533851626,
			"0.007": 10.7779694348,
			"0.008": 9.52682357461,
			"0.009": 7.81261580249,
			"0.01": 5.57281048241,
			"0.011": 2.99134357427,
			"0.012": 1.70589018417,
			"0.013": 1.19173214298,
			"0.014": 0.801230426743,
			"0.015": 0.690600206256,
			"0.016": 0.155978610478,
			"0.017": 0.0,
			"0.018": 0.0,
			"0.019": 0.0,
			"0.02": 0.0,
			"0.021": 0.0,
			"0.022": 0.0,
			"0.023": 0.0,
			"0.024": 0.0,
			"0.025": 0.0
		}
	}
}
