{
	 "smiles": "O=C1NN=C2CCOCC2=C1", 
	 "Tm": 492.15, 
	 "num_atms": 19, 
	 "gaussian": { 
		 "optdone": 1, 
		 "sigma_profile": "yes", 
		 "theory": "DFT", 
		 "functional": "B3LYP", 
		 "basiset": "6-31G**", 
		 "properties": { 
			 "R2extent": 2222.2107, 
			 "electric_dipole_moment_norm": 3.72723606711, 
			 "electric_quadrupole_moment_norm": 17.2642672625, 
			 "total_energy": -531.477930907, 
			 "HOMO_LUMO_gap": 0.1729, 
			 "cosmo_polarized_energy": -14.06, 
			 "cosmo_cavitation_energy": 22.29, 
			 "cosmo_dispersion_energy": -17.21, 
			 "cosmo_repulsion_energy": 1.39, 
			 "cosmo_total_nonelectrostatic_energy": 6.47, 
			 "SMD_solvation_energy": 3.52 
		},
		"coords": [
			{
				"x": 4.5036738968,
				"y": 1.0206541217,
				"z": 1.1115173531,
				"element": "O" 
			},
			{
				"x": 3.3758237915,
				"y": 0.7022352355,
				"z": 0.7530046417,
				"element": "C" 
			},
			{
				"x": 2.5465890583,
				"y": -0.0590412645,
				"z": 1.5931987827,
				"element": "N" 
			},
			{
				"x": 1.3005924924,
				"y": -0.5119972581,
				"z": 1.3652403427,
				"element": "N" 
			},
			{
				"x": 0.779418474,
				"y": -0.2027077051,
				"z": 0.2096852947,
				"element": "C" 
			},
			{
				"x": -0.5818859876,
				"y": -0.7150216045,
				"z": -0.1710529096,
				"element": "C" 
			},
			{
				"x": -1.4214669029,
				"y": 0.3741740844,
				"z": -0.8814291545,
				"element": "C" 
			},
			{
				"x": -0.6479127543,
				"y": 1.3449734095,
				"z": -1.59318977,
				"element": "O" 
			},
			{
				"x": 0.6490279344,
				"y": 0.9245020307,
				"z": -1.9941693207,
				"element": "C" 
			},
			{
				"x": 1.4686900494,
				"y": 0.5994038532,
				"z": -0.7688034797,
				"element": "C" 
			},
			{
				"x": 2.7263529871,
				"y": 1.0412335428,
				"z": -0.507011606,
				"element": "C" 
			},
			{
				"x": 2.9370481194,
				"y": -0.3079721839,
				"z": 2.4944270276,
				"element": "H" 
			},
			{
				"x": -0.4494045601,
				"y": -1.567780112,
				"z": -0.851014255,
				"element": "H" 
			},
			{
				"x": -1.1056370993,
				"y": -1.0931135476,
				"z": 0.710265356,
				"element": "H" 
			},
			{
				"x": -2.1339762842,
				"y": -0.1050331871,
				"z": -1.5683014167,
				"element": "H" 
			},
			{
				"x": -1.9973557333,
				"y": 0.945085691,
				"z": -0.1463314947,
				"element": "H" 
			},
			{
				"x": 1.0841944653,
				"y": 1.7545403411,
				"z": -2.5562360795,
				"element": "H" 
			},
			{
				"x": 0.6006677305,
				"y": 0.0518079624,
				"z": -2.6682091122,
				"element": "H" 
			},
			{
				"x": 3.2883603224,
				"y": 1.6614565905,
				"z": -1.1980901997,
				"element": "H" 
			}
		],
		 "valence_orbital": [ 
			{
				"type": "occ",
				"energy": -0.31265,
				"method": "rhf"
			},
			{
				"type": "occ",
				"energy": -0.30449,
				"method": "rhf"
			},
			{
				"type": "occ",
				"energy": -0.26968,
				"method": "rhf"
			},
			{
				"type": "occ",
				"energy": -0.24796,
				"method": "rhf"
			},
			{
				"type": "occ",
				"energy": -0.23524,
				"method": "rhf"
			},
			{
				"type": "unocc",
				"energy": -0.06234,
				"method": "rhf"
			},
			{
				"type": "unocc",
				"energy": -0.00069,
				"method": "rhf"
			},
			{
				"type": "unocc",
				"energy": 0.07672,
				"method": "rhf"
			},
			{
				"type": "unocc",
				"energy": 0.09143,
				"method": "rhf"
			},
			{
				"type": "unocc",
				"energy": 0.09882,
				"method": "rhf"
			}
		],
		"cosmo_sigma_profile": { 
			"-0.025": 0.0,
			"-0.024": 0.0,
			"-0.023": 0.0,
			"-0.022": 0.0,
			"-0.021": 0.0,
			"-0.02": 0.0,
			"-0.019": 0.0,
			"-0.018": 0.0,
			"-0.017": 0.0,
			"-0.016": 0.360472447008,
			"-0.015": 1.46096273318,
			"-0.014": 0.601678957245,
			"-0.013": 1.16379095661,
			"-0.012": 0.725407879186,
			"-0.011": 0.50630824941,
			"-0.01": 0.803926728346,
			"-0.009": 1.37041983982,
			"-0.008": 2.31097267299,
			"-0.007": 7.30742432456,
			"-0.006": 11.6327564235,
			"-0.005": 16.0756191212,
			"-0.004": 17.8866102891,
			"-0.003": 14.5271716632,
			"-0.002": 13.6785730306,
			"-0.001": 12.5080666502,
			"0.0": 11.3800676116,
			"0.001": 7.92703958886,
			"0.002": 5.73707266679,
			"0.003": 4.13488061047,
			"0.004": 3.81170008322,
			"0.005": 3.92394107346,
			"0.006": 3.29398723269,
			"0.007": 3.45148999457,
			"0.008": 3.47281111959,
			"0.009": 3.41693164993,
			"0.01": 2.64225994553,
			"0.011": 3.41483490305,
			"0.012": 4.29802164462,
			"0.013": 5.20287836751,
			"0.014": 6.21870823056,
			"0.015": 1.25668044533,
			"0.016": 0.0,
			"0.017": 0.0,
			"0.018": 0.0,
			"0.019": 0.0,
			"0.02": 0.0,
			"0.021": 0.0,
			"0.022": 0.0,
			"0.023": 0.0,
			"0.024": 0.0,
			"0.025": 0.0
		}
	}
}
