{
	 "smiles": "OC(=O)C1=CC(=CC=C1)S(=O)(=O)NC1=CC=C(I)C=C1", 
	 "Tm": 534.15, 
	 "num_atms": 30, 
	 "gaussian": { 
		 "optdone": 1, 
		 "sigma_profile": "no", 
		 "theory": "DFT", 
		 "functional": "B3LYP", 
		 "basiset": "6-31G**", 
		 "properties": { 
			 "R2extent": 6122.4693, 
			 "electric_dipole_moment_norm": 3.32241422162, 
			 "electric_quadrupole_moment_norm": 22.2813259868, 
			 "total_energy": -1266.57711387, 
			 "HOMO_LUMO_gap": 0.16421, 
			 "cosmo_polarized_energy": -99974.75, 
			 "cosmo_cavitation_energy": 40.24, 
			 "cosmo_dispersion_energy": -29.06, 
			 "cosmo_repulsion_energy": 2.19, 
			 "cosmo_total_nonelectrostatic_energy": 13.37, 
			 "SMD_solvation_energy": 6.32 
		},
		"coords": [
			{
				"x": 1.0998798624,
				"y": 1.3283051649,
				"z": -2.7283896056,
				"element": "O" 
			},
			{
				"x": 2.0115288455,
				"y": 1.801222744,
				"z": -1.8479248934,
				"element": "C" 
			},
			{
				"x": 3.125114509,
				"y": 2.151852781,
				"z": -2.1808674281,
				"element": "O" 
			},
			{
				"x": 1.5001529794,
				"y": 1.8373665951,
				"z": -0.4479267334,
				"element": "C" 
			},
			{
				"x": 0.2028038085,
				"y": 1.4244508936,
				"z": -0.123377699,
				"element": "C" 
			},
			{
				"x": -0.2051628413,
				"y": 1.480436046,
				"z": 1.2094823402,
				"element": "C" 
			},
			{
				"x": 0.6427045076,
				"y": 1.9520923497,
				"z": 2.2156119967,
				"element": "C" 
			},
			{
				"x": 1.9310103169,
				"y": 2.3694618476,
				"z": 1.8774644887,
				"element": "C" 
			},
			{
				"x": 2.3602798257,
				"y": 2.3078035621,
				"z": 0.5534360426,
				"element": "C" 
			},
			{
				"x": -1.8520742554,
				"y": 0.9131427556,
				"z": 1.653665334,
				"element": "S" 
			},
			{
				"x": -2.7237540626,
				"y": 1.1454900775,
				"z": 0.5045418686,
				"element": "O" 
			},
			{
				"x": -2.1541796762,
				"y": 1.412884161,
				"z": 2.9941320361,
				"element": "O" 
			},
			{
				"x": -1.7372851489,
				"y": -0.7710594595,
				"z": 1.8634354532,
				"element": "N" 
			},
			{
				"x": -1.3511570891,
				"y": -1.6635837959,
				"z": 0.827831844,
				"element": "C" 
			},
			{
				"x": -2.0526366631,
				"y": -1.7006835878,
				"z": -0.3855408546,
				"element": "C" 
			},
			{
				"x": -1.6755015106,
				"y": -2.599997222,
				"z": -1.381373749,
				"element": "C" 
			},
			{
				"x": -0.6192352239,
				"y": -3.4859508818,
				"z": -1.157447944,
				"element": "C" 
			},
			{
				"x": -0.0601444387,
				"y": -4.8609091649,
				"z": -2.6697534795,
				"element": "I" 
			},
			{
				"x": 0.0699464326,
				"y": -3.4742689676,
				"z": 0.0559264521,
				"element": "C" 
			},
			{
				"x": -0.2896645074,
				"y": -2.5531368275,
				"z": 1.0386577016,
				"element": "C" 
			},
			{
				"x": 1.5293403786,
				"y": 1.3442337607,
				"z": -3.5995423535,
				"element": "H" 
			},
			{
				"x": -0.4755140242,
				"y": 1.0831675066,
				"z": -0.8950656471,
				"element": "H" 
			},
			{
				"x": 0.2828395571,
				"y": 2.0073063041,
				"z": 3.237429341,
				"element": "H" 
			},
			{
				"x": 2.5953518794,
				"y": 2.7475447147,
				"z": 2.6480292522,
				"element": "H" 
			},
			{
				"x": 3.3575170769,
				"y": 2.6256214009,
				"z": 0.2686953762,
				"element": "H" 
			},
			{
				"x": -1.3447034107,
				"y": -0.97152197,
				"z": 2.7778698246,
				"element": "H" 
			},
			{
				"x": -2.8867030772,
				"y": -1.0274580085,
				"z": -0.5417440502,
				"element": "H" 
			},
			{
				"x": -2.2196773336,
				"y": -2.6175684451,
				"z": -2.3188636261,
				"element": "H" 
			},
			{
				"x": 0.8888443976,
				"y": -4.1615986543,
				"z": 0.2352666176,
				"element": "H" 
			},
			{
				"x": 0.2606788858,
				"y": -2.5287456803,
				"z": 1.975742094,
				"element": "H" 
			}
		],
		 "valence_orbital": [ 
			{
				"type": "occ",
				"energy": -0.28789,
				"method": "rhf"
			},
			{
				"type": "occ",
				"energy": -0.28041,
				"method": "rhf"
			},
			{
				"type": "occ",
				"energy": -0.27572,
				"method": "rhf"
			},
			{
				"type": "occ",
				"energy": -0.2743,
				"method": "rhf"
			},
			{
				"type": "occ",
				"energy": -0.23622,
				"method": "rhf"
			},
			{
				"type": "unocc",
				"energy": -0.07201,
				"method": "rhf"
			},
			{
				"type": "unocc",
				"energy": -0.05325,
				"method": "rhf"
			},
			{
				"type": "unocc",
				"energy": -0.04443,
				"method": "rhf"
			},
			{
				"type": "unocc",
				"energy": -0.02802,
				"method": "rhf"
			},
			{
				"type": "unocc",
				"energy": -0.02632,
				"method": "rhf"
			}
		],
		"cosmo_sigma_profile": { 
			"0.0": 0.0,
			"0.0": 0.0,
			"0.0": 0.0,
			"0.0": 0.0,
			"0.0": 0.0,
			"0.0": 0.0,
			"0.0": 0.0,
			"0.0": 0.0,
			"0.0": 0.0,
			"0.0": 0.0,
			"0.0": 0.0,
			"0.0": 0.0,
			"0.0": 0.0,
			"0.0": 0.0,
			"0.0": 0.0,
			"0.0": 0.0,
			"0.0": 0.0,
			"0.0": 0.0,
			"0.0": 0.0,
			"0.0": 0.0,
			"0.0": 0.0,
			"0.0": 0.0,
			"0.0": 0.0,
			"0.0": 0.0,
			"0.0": 0.0,
			"0.0": 0.0,
			"0.0": 0.0,
			"0.0": 0.0,
			"0.0": 0.0,
			"0.0": 0.0,
			"0.0": 0.0,
			"0.0": 0.0,
			"0.0": 0.0,
			"0.0": 0.0,
			"0.0": 0.0,
			"0.0": 0.0,
			"0.0": 0.0,
			"0.0": 0.0,
			"0.0": 0.0,
			"0.0": 0.0,
			"0.0": 0.0,
			"0.0": 0.0,
			"0.0": 0.0,
			"0.0": 0.0,
			"0.0": 0.0,
			"0.0": 0.0,
			"0.0": 0.0,
			"0.0": 0.0,
			"0.0": 0.0,
			"0.0": 0.0,
			"0.0": 0.0
		}
	}
}
