{
	 "smiles": "CC1=CC=CC(C)=C1C#N", 
	 "Tm": 363.15, 
	 "num_atms": 19, 
	 "gaussian": { 
		 "optdone": 1, 
		 "sigma_profile": "yes", 
		 "theory": "DFT", 
		 "functional": "B3LYP", 
		 "basiset": "6-31G**", 
		 "properties": { 
			 "R2extent": 1670.9062, 
			 "electric_dipole_moment_norm": 3.91296066042, 
			 "electric_quadrupole_moment_norm": 7.53536927031, 
			 "total_energy": -403.134071078, 
			 "HOMO_LUMO_gap": 0.20764, 
			 "cosmo_polarized_energy": -7.87, 
			 "cosmo_cavitation_energy": 23.21, 
			 "cosmo_dispersion_energy": -16.34, 
			 "cosmo_repulsion_energy": 1.32, 
			 "cosmo_total_nonelectrostatic_energy": 8.19, 
			 "SMD_solvation_energy": 5.14 
		},
		"coords": [
			{
				"x": 1.1738644299,
				"y": -0.077400592,
				"z": 1.3846985731,
				"element": "C" 
			},
			{
				"x": 0.5181569511,
				"y": 0.8502376243,
				"z": 0.3913796216,
				"element": "C" 
			},
			{
				"x": 0.9751783659,
				"y": 2.1576281715,
				"z": 0.2108879814,
				"element": "C" 
			},
			{
				"x": 0.3631901826,
				"y": 3.008348045,
				"z": -0.7094635012,
				"element": "C" 
			},
			{
				"x": -0.7201658985,
				"y": 2.5663390691,
				"z": -1.4685866954,
				"element": "C" 
			},
			{
				"x": -1.2134476618,
				"y": 1.267689373,
				"z": -1.3240123096,
				"element": "C" 
			},
			{
				"x": -2.3850065965,
				"y": 0.7806013402,
				"z": -2.1409196084,
				"element": "C" 
			},
			{
				"x": -0.5808956264,
				"y": 0.4193330491,
				"z": -0.3865228359,
				"element": "C" 
			},
			{
				"x": -1.0689675789,
				"y": -0.9190998929,
				"z": -0.219572111,
				"element": "C" 
			},
			{
				"x": -1.4652092327,
				"y": -2.0054355217,
				"z": -0.0839571874,
				"element": "N" 
			},
			{
				"x": 1.5639623195,
				"y": -0.9754424218,
				"z": 0.8937830104,
				"element": "H" 
			},
			{
				"x": 2.0024300338,
				"y": 0.4207348235,
				"z": 1.8939597793,
				"element": "H" 
			},
			{
				"x": 0.4606417561,
				"y": -0.4174912148,
				"z": 2.1431901726,
				"element": "H" 
			},
			{
				"x": 1.8183127462,
				"y": 2.5094369959,
				"z": 0.7981867194,
				"element": "H" 
			},
			{
				"x": 0.7327751733,
				"y": 4.0218988556,
				"z": -0.8358835407,
				"element": "H" 
			},
			{
				"x": -1.1912121467,
				"y": 3.2349647207,
				"z": -2.1831667437,
				"element": "H" 
			},
			{
				"x": -2.7457849234,
				"y": 1.5654784969,
				"z": -2.8101082205,
				"element": "H" 
			},
			{
				"x": -3.2161399217,
				"y": 0.4690513544,
				"z": -1.4991955138,
				"element": "H" 
			},
			{
				"x": -2.1128823719,
				"y": -0.0890722759,
				"z": -2.74859759,
				"element": "H" 
			}
		],
		 "valence_orbital": [ 
			{
				"type": "occ",
				"energy": -0.34909,
				"method": "rhf"
			},
			{
				"type": "occ",
				"energy": -0.34194,
				"method": "rhf"
			},
			{
				"type": "occ",
				"energy": -0.32387,
				"method": "rhf"
			},
			{
				"type": "occ",
				"energy": -0.25563,
				"method": "rhf"
			},
			{
				"type": "occ",
				"energy": -0.25536,
				"method": "rhf"
			},
			{
				"type": "unocc",
				"energy": -0.04772,
				"method": "rhf"
			},
			{
				"type": "unocc",
				"energy": -0.01201,
				"method": "rhf"
			},
			{
				"type": "unocc",
				"energy": 0.03969,
				"method": "rhf"
			},
			{
				"type": "unocc",
				"energy": 0.08184,
				"method": "rhf"
			},
			{
				"type": "unocc",
				"energy": 0.08366,
				"method": "rhf"
			}
		],
		"cosmo_sigma_profile": { 
			"-0.025": 0.0,
			"-0.024": 0.0,
			"-0.023": 0.0,
			"-0.022": 0.0,
			"-0.021": 0.0,
			"-0.02": 0.0,
			"-0.019": 0.0,
			"-0.018": 0.0,
			"-0.017": 0.0,
			"-0.016": 0.0,
			"-0.015": 0.0,
			"-0.014": 0.0,
			"-0.013": 0.0,
			"-0.012": 0.0,
			"-0.011": 0.0,
			"-0.01": 0.0,
			"-0.009": 0.0,
			"-0.008": 0.0,
			"-0.007": 1.3427367084,
			"-0.006": 8.71090007504,
			"-0.005": 17.3166379579,
			"-0.004": 17.275751702,
			"-0.003": 17.6135486838,
			"-0.002": 16.7328136222,
			"-0.001": 22.2842748082,
			"0.0": 18.1591470185,
			"0.001": 11.3693754012,
			"0.002": 9.98421518146,
			"0.003": 10.9985161119,
			"0.004": 9.54607172747,
			"0.005": 2.1170700423,
			"0.006": 2.28264657209,
			"0.007": 1.94898499338,
			"0.008": 3.05926708639,
			"0.009": 2.99746501756,
			"0.01": 3.39423547288,
			"0.011": 2.99826651083,
			"0.012": 2.66514479183,
			"0.013": 2.13940881453,
			"0.014": 0.31455354413,
			"0.015": 0.0,
			"0.016": 0.0,
			"0.017": 0.0,
			"0.018": 0.0,
			"0.019": 0.0,
			"0.02": 0.0,
			"0.021": 0.0,
			"0.022": 0.0,
			"0.023": 0.0,
			"0.024": 0.0,
			"0.025": 0.0
		}
	}
}
