{
	 "smiles": "C1COCCOCCOCCOCCN1", 
	 "Tm": 309.15, 
	 "num_atms": 36, 
	 "gaussian": { 
		 "optdone": 1, 
		 "sigma_profile": "yes", 
		 "theory": "DFT", 
		 "functional": "B3LYP", 
		 "basiset": "6-31G**", 
		 "properties": { 
			 "R2extent": 4193.353, 
			 "electric_dipole_moment_norm": 4.12673860815, 
			 "electric_quadrupole_moment_norm": 11.3924904125, 
			 "total_energy": -749.290342246, 
			 "HOMO_LUMO_gap": 0.27748, 
			 "cosmo_polarized_energy": -13.66, 
			 "cosmo_cavitation_energy": 34.83, 
			 "cosmo_dispersion_energy": -24.7, 
			 "cosmo_repulsion_energy": 1.93, 
			 "cosmo_total_nonelectrostatic_energy": 12.05, 
			 "SMD_solvation_energy": 3.22 
		},
		"coords": [
			{
				"x": 1.0065080513,
				"y": 0.3081771906,
				"z": 2.9615058992,
				"element": "C" 
			},
			{
				"x": 1.9685985704,
				"y": -0.1148329366,
				"z": 1.8354800923,
				"element": "C" 
			},
			{
				"x": 1.3511889784,
				"y": -0.3648000925,
				"z": 0.5774197205,
				"element": "O" 
			},
			{
				"x": 0.7301476991,
				"y": -1.6321415416,
				"z": 0.4845299703,
				"element": "C" 
			},
			{
				"x": 0.2433903515,
				"y": -1.8589630763,
				"z": -0.9332370229,
				"element": "C" 
			},
			{
				"x": -0.7865012414,
				"y": -0.937936753,
				"z": -1.2314504106,
				"element": "O" 
			},
			{
				"x": -1.4396216399,
				"y": -1.1933316734,
				"z": -2.4651777031,
				"element": "C" 
			},
			{
				"x": -2.3043863896,
				"y": 0.0007405314,
				"z": -2.8513792816,
				"element": "C" 
			},
			{
				"x": -3.4962612699,
				"y": 0.1734545478,
				"z": -2.105537536,
				"element": "O" 
			},
			{
				"x": -3.3759419722,
				"y": 0.465581537,
				"z": -0.7123685517,
				"element": "C" 
			},
			{
				"x": -2.5450708034,
				"y": 1.7175420659,
				"z": -0.4053496499,
				"element": "C" 
			},
			{
				"x": -2.6527176345,
				"y": 2.0693939276,
				"z": 0.9703535157,
				"element": "O" 
			},
			{
				"x": -1.7268113115,
				"y": 1.4310676836,
				"z": 1.8438606145,
				"element": "C" 
			},
			{
				"x": -0.3408018356,
				"y": 2.088444337,
				"z": 1.8030779646,
				"element": "C" 
			},
			{
				"x": 0.4855971464,
				"y": 1.6728322064,
				"z": 2.9447684936,
				"element": "N" 
			},
			{
				"x": 1.5438772658,
				"y": 0.1818025301,
				"z": 3.9112173425,
				"element": "H" 
			},
			{
				"x": 0.1647440108,
				"y": -0.393028108,
				"z": 3.0025769584,
				"element": "H" 
			},
			{
				"x": 2.532365552,
				"y": -1.0081897984,
				"z": 2.1571745293,
				"element": "H" 
			},
			{
				"x": 2.6966767212,
				"y": 0.6859286793,
				"z": 1.6566589485,
				"element": "H" 
			},
			{
				"x": 1.4464543795,
				"y": -2.4319059197,
				"z": 0.7413402866,
				"element": "H" 
			},
			{
				"x": -0.1248805118,
				"y": -1.719147377,
				"z": 1.172084845,
				"element": "H" 
			},
			{
				"x": 1.0811031434,
				"y": -1.742986722,
				"z": -1.6397882483,
				"element": "H" 
			},
			{
				"x": -0.1224628628,
				"y": -2.8968480128,
				"z": -1.0106135267,
				"element": "H" 
			},
			{
				"x": -0.6960425524,
				"y": -1.3500870693,
				"z": -3.2654883704,
				"element": "H" 
			},
			{
				"x": -2.0563830231,
				"y": -2.1045170574,
				"z": -2.3967090851,
				"element": "H" 
			},
			{
				"x": -1.6752876235,
				"y": 0.902423505,
				"z": -2.8364325697,
				"element": "H" 
			},
			{
				"x": -2.6387633851,
				"y": -0.1481841986,
				"z": -3.8843252972,
				"element": "H" 
			},
			{
				"x": -4.400303784,
				"y": 0.6342430096,
				"z": -0.3672592999,
				"element": "H" 
			},
			{
				"x": -2.967759581,
				"y": -0.3947125807,
				"z": -0.1686425538,
				"element": "H" 
			},
			{
				"x": -2.9396629521,
				"y": 2.5638508013,
				"z": -0.9790534686,
				"element": "H" 
			},
			{
				"x": -1.4991327217,
				"y": 1.5649112505,
				"z": -0.6920289568,
				"element": "H" 
			},
			{
				"x": -1.6558509551,
				"y": 0.3572158261,
				"z": 1.6217773202,
				"element": "H" 
			},
			{
				"x": -2.1353071954,
				"y": 1.5395833546,
				"z": 2.8535782561,
				"element": "H" 
			},
			{
				"x": 0.1328492949,
				"y": 1.9008546064,
				"z": 0.828281822,
				"element": "H" 
			},
			{
				"x": -0.4983003495,
				"y": 3.1687520083,
				"z": 1.8947372927,
				"element": "H" 
			},
			{
				"x": 1.2588504309,
				"y": 2.3238133189,
				"z": 3.0468176605,
				"element": "H" 
			}
		],
		 "valence_orbital": [ 
			{
				"type": "occ",
				"energy": -0.27405,
				"method": "rhf"
			},
			{
				"type": "occ",
				"energy": -0.26248,
				"method": "rhf"
			},
			{
				"type": "occ",
				"energy": -0.25916,
				"method": "rhf"
			},
			{
				"type": "occ",
				"energy": -0.23016,
				"method": "rhf"
			},
			{
				"type": "occ",
				"energy": -0.20714,
				"method": "rhf"
			},
			{
				"type": "unocc",
				"energy": 0.07034,
				"method": "rhf"
			},
			{
				"type": "unocc",
				"energy": 0.08259,
				"method": "rhf"
			},
			{
				"type": "unocc",
				"energy": 0.08443,
				"method": "rhf"
			},
			{
				"type": "unocc",
				"energy": 0.10053,
				"method": "rhf"
			},
			{
				"type": "unocc",
				"energy": 0.10926,
				"method": "rhf"
			}
		],
		"cosmo_sigma_profile": { 
			"-0.025": 0.0,
			"-0.024": 0.0,
			"-0.023": 0.0,
			"-0.022": 0.0,
			"-0.021": 0.0,
			"-0.02": 0.0,
			"-0.019": 0.0,
			"-0.018": 0.0,
			"-0.017": 0.0,
			"-0.016": 0.0,
			"-0.015": 0.0,
			"-0.014": 0.0,
			"-0.013": 0.0,
			"-0.012": 0.0,
			"-0.011": 0.0,
			"-0.01": 0.673186207638,
			"-0.009": 1.42142648516,
			"-0.008": 1.49389575756,
			"-0.007": 1.78019859657,
			"-0.006": 2.37238029357,
			"-0.005": 12.5879004727,
			"-0.004": 44.4746546888,
			"-0.003": 47.5913662363,
			"-0.002": 31.3995346932,
			"-0.001": 21.9484403221,
			"0.0": 17.3946660092,
			"0.001": 10.4839072506,
			"0.002": 10.2608712788,
			"0.003": 8.22767036729,
			"0.004": 8.7203656546,
			"0.005": 6.93077759555,
			"0.006": 5.10956425253,
			"0.007": 5.10640561369,
			"0.008": 4.80638894246,
			"0.009": 5.04875841997,
			"0.01": 3.6629211218,
			"0.011": 3.65719520652,
			"0.012": 4.78316450751,
			"0.013": 4.972788504,
			"0.014": 2.05985403322,
			"0.015": 0.313796582563,
			"0.016": 0.501481212398,
			"0.017": 0.348519496786,
			"0.018": 0.160249959879,
			"0.019": 0.0,
			"0.02": 0.0,
			"0.021": 0.0,
			"0.022": 0.0,
			"0.023": 0.0,
			"0.024": 0.0,
			"0.025": 0.0
		}
	}
}
