{
	 "smiles": "CNC(CO)C1=CC=C(OC)C=C1", 
	 "Tm": 331.15, 
	 "num_atms": 28, 
	 "gaussian": { 
		 "optdone": 1, 
		 "sigma_profile": "yes", 
		 "theory": "DFT", 
		 "functional": "B3LYP", 
		 "basiset": "6-31G**", 
		 "properties": { 
			 "R2extent": 3242.2287, 
			 "electric_dipole_moment_norm": 3.49193841441, 
			 "electric_quadrupole_moment_norm": 13.3879844693, 
			 "total_energy": -595.276110151, 
			 "HOMO_LUMO_gap": 0.21542, 
			 "cosmo_polarized_energy": -10.89, 
			 "cosmo_cavitation_energy": 29.99, 
			 "cosmo_dispersion_energy": -21.64, 
			 "cosmo_repulsion_energy": 1.73, 
			 "cosmo_total_nonelectrostatic_energy": 10.08, 
			 "SMD_solvation_energy": 5.33 
		},
		"coords": [
			{
				"x": -1.2666648332,
				"y": 0.6044500141,
				"z": -3.2297010329,
				"element": "C" 
			},
			{
				"x": 0.019606219,
				"y": 1.2952943803,
				"z": -3.1384456408,
				"element": "N" 
			},
			{
				"x": 0.334966736,
				"y": 1.8964157151,
				"z": -1.8241672254,
				"element": "C" 
			},
			{
				"x": 1.7432084698,
				"y": 2.5153973978,
				"z": -1.9807023566,
				"element": "C" 
			},
			{
				"x": 2.6618738665,
				"y": 1.5999304674,
				"z": -2.5463182045,
				"element": "O" 
			},
			{
				"x": 0.2340355793,
				"y": 0.8850054756,
				"z": -0.6939998833,
				"element": "C" 
			},
			{
				"x": 1.0899909836,
				"y": -0.2285614558,
				"z": -0.6009454885,
				"element": "C" 
			},
			{
				"x": 0.9788496185,
				"y": -1.1310687542,
				"z": 0.447675214,
				"element": "C" 
			},
			{
				"x": 0.0042228511,
				"y": -0.9505186141,
				"z": 1.4414734557,
				"element": "C" 
			},
			{
				"x": -0.021927183,
				"y": -1.8959147793,
				"z": 2.4267916862,
				"element": "O" 
			},
			{
				"x": -0.982283464,
				"y": -1.7587031997,
				"z": 3.4605641769,
				"element": "C" 
			},
			{
				"x": -0.8539493936,
				"y": 0.150790782,
				"z": 1.3695357309,
				"element": "C" 
			},
			{
				"x": -0.728285341,
				"y": 1.0493460163,
				"z": 0.3048666184,
				"element": "C" 
			},
			{
				"x": -2.1301073739,
				"y": 1.2261198808,
				"z": -2.9369997505,
				"element": "H" 
			},
			{
				"x": -1.2579700964,
				"y": -0.2780677753,
				"z": -2.5863502442,
				"element": "H" 
			},
			{
				"x": -1.4182013355,
				"y": 0.2717188421,
				"z": -4.2609292067,
				"element": "H" 
			},
			{
				"x": 0.0308681252,
				"y": 2.0455556966,
				"z": -3.8281295721,
				"element": "H" 
			},
			{
				"x": -0.3621366212,
				"y": 2.7190388318,
				"z": -1.5808828468,
				"element": "H" 
			},
			{
				"x": 1.6556037761,
				"y": 3.4210645208,
				"z": -2.6095397033,
				"element": "H" 
			},
			{
				"x": 2.1293910776,
				"y": 2.8292017857,
				"z": -1.0060716069,
				"element": "H" 
			},
			{
				"x": 2.1292621406,
				"y": 1.0942482506,
				"z": -3.1855618869,
				"element": "H" 
			},
			{
				"x": 1.8656653906,
				"y": -0.3653307194,
				"z": -1.3446827477,
				"element": "H" 
			},
			{
				"x": 1.6418831286,
				"y": -1.9869152438,
				"z": 0.5243453605,
				"element": "H" 
			},
			{
				"x": -0.8280053542,
				"y": -2.605586152,
				"z": 4.1312150785,
				"element": "H" 
			},
			{
				"x": -2.0078011867,
				"y": -1.7914336641,
				"z": 3.0696720984,
				"element": "H" 
			},
			{
				"x": -0.844430372,
				"y": -0.8252610713,
				"z": 4.0219052923,
				"element": "H" 
			},
			{
				"x": -1.6148309417,
				"y": 0.3200959567,
				"z": 2.1222864327,
				"element": "H" 
			},
			{
				"x": -1.4036344661,
				"y": 1.9007874152,
				"z": 0.2599962524,
				"element": "H" 
			}
		],
		 "valence_orbital": [ 
			{
				"type": "occ",
				"energy": -0.30738,
				"method": "rhf"
			},
			{
				"type": "occ",
				"energy": -0.25566,
				"method": "rhf"
			},
			{
				"type": "occ",
				"energy": -0.24608,
				"method": "rhf"
			},
			{
				"type": "occ",
				"energy": -0.23567,
				"method": "rhf"
			},
			{
				"type": "occ",
				"energy": -0.21296,
				"method": "rhf"
			},
			{
				"type": "unocc",
				"energy": 0.00246,
				"method": "rhf"
			},
			{
				"type": "unocc",
				"energy": 0.01239,
				"method": "rhf"
			},
			{
				"type": "unocc",
				"energy": 0.07611,
				"method": "rhf"
			},
			{
				"type": "unocc",
				"energy": 0.09741,
				"method": "rhf"
			},
			{
				"type": "unocc",
				"energy": 0.11071,
				"method": "rhf"
			}
		],
		"cosmo_sigma_profile": { 
			"-0.025": 0.0,
			"-0.024": 0.0,
			"-0.023": 0.0,
			"-0.022": 0.0,
			"-0.021": 0.0,
			"-0.02": 0.0,
			"-0.019": 0.0,
			"-0.018": 0.0,
			"-0.017": 0.0,
			"-0.016": 0.0,
			"-0.015": 0.0,
			"-0.014": 0.0,
			"-0.013": 0.0,
			"-0.012": 0.0,
			"-0.011": 0.201068108933,
			"-0.01": 1.38883442119,
			"-0.009": 1.71291935273,
			"-0.008": 2.19355849954,
			"-0.007": 2.00648611816,
			"-0.006": 7.37338076646,
			"-0.005": 17.8293566506,
			"-0.004": 24.8253387614,
			"-0.003": 30.6974931062,
			"-0.002": 23.5733538733,
			"-0.001": 17.8991727267,
			"0.0": 16.6534106131,
			"0.001": 10.0585730959,
			"0.002": 10.8132613626,
			"0.003": 11.2487932446,
			"0.004": 13.539703012,
			"0.005": 12.9984962835,
			"0.006": 8.54888627372,
			"0.007": 4.02343119568,
			"0.008": 2.96836935157,
			"0.009": 3.50256069803,
			"0.01": 3.50264417588,
			"0.011": 1.85747210782,
			"0.012": 0.562488026088,
			"0.013": 1.58085846011,
			"0.014": 1.88605388747,
			"0.015": 1.55510224937,
			"0.016": 0.00202383231835,
			"0.017": 0.0,
			"0.018": 0.0,
			"0.019": 0.0,
			"0.02": 0.0,
			"0.021": 0.0,
			"0.022": 0.0,
			"0.023": 0.0,
			"0.024": 0.0,
			"0.025": 0.0
		}
	}
}
