{
	 "smiles": "CC(CC1=C(Cl)C=C(Cl)C=C1)C(O)=O", 
	 "Tm": 323.15, 
	 "num_atms": 24, 
	 "gaussian": { 
		 "optdone": 1, 
		 "sigma_profile": "yes", 
		 "theory": "DFT", 
		 "functional": "B3LYP", 
		 "basiset": "6-31G**", 
		 "properties": { 
			 "R2extent": 4703.8319, 
			 "electric_dipole_moment_norm": 3.32863170237, 
			 "electric_quadrupole_moment_norm": 11.4180042183, 
			 "total_energy": -1457.93743772, 
			 "HOMO_LUMO_gap": 0.222, 
			 "cosmo_polarized_energy": -14.86, 
			 "cosmo_cavitation_energy": 30.81, 
			 "cosmo_dispersion_energy": -22.29, 
			 "cosmo_repulsion_energy": 1.77, 
			 "cosmo_total_nonelectrostatic_energy": 10.29, 
			 "SMD_solvation_energy": 5.54 
		},
		"coords": [
			{
				"x": -0.5582314266,
				"y": -2.2758905709,
				"z": -1.3802605319,
				"element": "C" 
			},
			{
				"x": -1.0213873133,
				"y": -1.5675061702,
				"z": -0.1028639496,
				"element": "C" 
			},
			{
				"x": -1.07387116,
				"y": -0.0218860379,
				"z": -0.2316352573,
				"element": "C" 
			},
			{
				"x": 0.2084094166,
				"y": 0.7395952618,
				"z": -0.5224580134,
				"element": "C" 
			},
			{
				"x": 0.1487625969,
				"y": 2.0720505964,
				"z": -0.9691431448,
				"element": "C" 
			},
			{
				"x": -1.4105540425,
				"y": 2.8632441222,
				"z": -1.2021057805,
				"element": "Cl" 
			},
			{
				"x": 1.2858515099,
				"y": 2.8319290318,
				"z": -1.2354406743,
				"element": "C" 
			},
			{
				"x": 2.5362637371,
				"y": 2.2483731214,
				"z": -1.0470190286,
				"element": "C" 
			},
			{
				"x": 3.9789149448,
				"y": 3.1895152178,
				"z": -1.3798363651,
				"element": "Cl" 
			},
			{
				"x": 2.6495003772,
				"y": 0.9364057546,
				"z": -0.5974132882,
				"element": "C" 
			},
			{
				"x": 1.4917771588,
				"y": 0.2024083999,
				"z": -0.3403603369,
				"element": "C" 
			},
			{
				"x": -0.2449162673,
				"y": -2.0571530568,
				"z": 1.1254222207,
				"element": "C" 
			},
			{
				"x": -0.7226288367,
				"y": -1.6448895391,
				"z": 2.3293601338,
				"element": "O" 
			},
			{
				"x": 0.7254387004,
				"y": -2.7743828468,
				"z": 1.0834774137,
				"element": "O" 
			},
			{
				"x": -0.6135703725,
				"y": -3.3599827637,
				"z": -1.259028091,
				"element": "H" 
			},
			{
				"x": -1.1981314039,
				"y": -1.9863253396,
				"z": -2.2193587098,
				"element": "H" 
			},
			{
				"x": 0.4728023241,
				"y": -2.0257669951,
				"z": -1.6350541129,
				"element": "H" 
			},
			{
				"x": -2.064679932,
				"y": -1.8663815294,
				"z": 0.0822393548,
				"element": "H" 
			},
			{
				"x": -1.7928854577,
				"y": 0.2020063937,
				"z": -1.0261095861,
				"element": "H" 
			},
			{
				"x": -1.5268907256,
				"y": 0.4100986294,
				"z": 0.6732991479,
				"element": "H" 
			},
			{
				"x": 1.1946155865,
				"y": 3.8545288285,
				"z": -1.5797341329,
				"element": "H" 
			},
			{
				"x": 3.6260740274,
				"y": 0.4906451829,
				"z": -0.4476323037,
				"element": "H" 
			},
			{
				"x": 1.6043388756,
				"y": -0.8157076012,
				"z": 0.0122356892,
				"element": "H" 
			},
			{
				"x": -1.5119023171,
				"y": -1.0969280893,
				"z": 2.2135193469,
				"element": "H" 
			}
		],
		 "valence_orbital": [ 
			{
				"type": "occ",
				"energy": -0.32345,
				"method": "rhf"
			},
			{
				"type": "occ",
				"energy": -0.31938,
				"method": "rhf"
			},
			{
				"type": "occ",
				"energy": -0.27902,
				"method": "rhf"
			},
			{
				"type": "occ",
				"energy": -0.26667,
				"method": "rhf"
			},
			{
				"type": "occ",
				"energy": -0.2522,
				"method": "rhf"
			},
			{
				"type": "unocc",
				"energy": -0.0302,
				"method": "rhf"
			},
			{
				"type": "unocc",
				"energy": -0.02803,
				"method": "rhf"
			},
			{
				"type": "unocc",
				"energy": -0.00267,
				"method": "rhf"
			},
			{
				"type": "unocc",
				"energy": 0.00253,
				"method": "rhf"
			},
			{
				"type": "unocc",
				"energy": 0.03655,
				"method": "rhf"
			}
		],
		"cosmo_sigma_profile": { 
			"-0.025": 0.0,
			"-0.024": 0.0,
			"-0.023": 0.0,
			"-0.022": 0.0,
			"-0.021": 0.0,
			"-0.02": 0.0,
			"-0.019": 0.576966739725,
			"-0.018": 0.766281503247,
			"-0.017": 1.43554835444,
			"-0.016": 1.14095797255,
			"-0.015": 1.3164328754,
			"-0.014": 0.91637880471,
			"-0.013": 0.608363569086,
			"-0.012": 1.46364973857,
			"-0.011": 1.37566139664,
			"-0.01": 1.1691332765,
			"-0.009": 1.96478197292,
			"-0.008": 3.68911263815,
			"-0.007": 6.60409269432,
			"-0.006": 6.68097748592,
			"-0.005": 11.0537237687,
			"-0.004": 14.2771920205,
			"-0.003": 14.9210316557,
			"-0.002": 17.2001601196,
			"-0.001": 17.7765842352,
			"0.0": 23.969402363,
			"0.001": 24.8141589565,
			"0.002": 26.3141127424,
			"0.003": 17.3152540396,
			"0.004": 19.2075620907,
			"0.005": 7.33219054986,
			"0.006": 1.76545636519,
			"0.007": 2.20108972276,
			"0.008": 3.04976162987,
			"0.009": 3.20993646231,
			"0.01": 4.31231187125,
			"0.011": 4.95150084048,
			"0.012": 4.48709030843,
			"0.013": 1.31789870093,
			"0.014": 0.00483042385401,
			"0.015": 0.0,
			"0.016": 0.0,
			"0.017": 0.0,
			"0.018": 0.0,
			"0.019": 0.0,
			"0.02": 0.0,
			"0.021": 0.0,
			"0.022": 0.0,
			"0.023": 0.0,
			"0.024": 0.0,
			"0.025": 0.0
		}
	}
}
