{
	 "smiles": "CC1(O)CCC2C3CCC4CC5=NON=C5CC4(C)C3CCC12C", 
	 "Tm": 425.15, 
	 "num_atms": 54, 
	 "gaussian": { 
		 "optdone": 1, 
		 "sigma_profile": "yes", 
		 "theory": "DFT", 
		 "functional": "B3LYP", 
		 "basiset": "6-31G**", 
		 "properties": { 
			 "R2extent": 9859.7774, 
			 "electric_dipole_moment_norm": 4.401879686, 
			 "electric_quadrupole_moment_norm": 37.6422849147, 
			 "total_energy": -1040.08042242, 
			 "HOMO_LUMO_gap": 0.22396, 
			 "cosmo_polarized_energy": -14.62, 
			 "cosmo_cavitation_energy": 46.16, 
			 "cosmo_dispersion_energy": -32.59, 
			 "cosmo_repulsion_energy": 2.35, 
			 "cosmo_total_nonelectrostatic_energy": 15.91, 
			 "SMD_solvation_energy": 5.62 
		},
		"coords": [
			{
				"x": 4.0080825056,
				"y": 0.985977532,
				"z": 0.9521690489,
				"element": "C" 
			},
			{
				"x": 2.7900396094,
				"y": 1.7236955783,
				"z": 1.5306295478,
				"element": "C" 
			},
			{
				"x": 3.160417299,
				"y": 3.0901731856,
				"z": 1.7442645977,
				"element": "O" 
			},
			{
				"x": 2.3967045803,
				"y": 1.1367826094,
				"z": 2.9186325943,
				"element": "C" 
			},
			{
				"x": 1.1731207246,
				"y": 0.205793412,
				"z": 2.6980447352,
				"element": "C" 
			},
			{
				"x": 0.9802105597,
				"y": 0.1697533986,
				"z": 1.168078674,
				"element": "C" 
			},
			{
				"x": -0.4019257451,
				"y": -0.2612454113,
				"z": 0.6356434015,
				"element": "C" 
			},
			{
				"x": -0.592668971,
				"y": -1.7904179046,
				"z": 0.8416330058,
				"element": "C" 
			},
			{
				"x": -0.2792502713,
				"y": -2.592836476,
				"z": -0.4237645508,
				"element": "C" 
			},
			{
				"x": -1.2494064482,
				"y": -2.2576779341,
				"z": -1.5707080863,
				"element": "C" 
			},
			{
				"x": -0.765843169,
				"y": -2.898867418,
				"z": -2.9000277458,
				"element": "C" 
			},
			{
				"x": -1.7578238716,
				"y": -2.5590925488,
				"z": -3.9583433348,
				"element": "C" 
			},
			{
				"x": -2.3343570462,
				"y": -3.3051992503,
				"z": -4.8589571612,
				"element": "N" 
			},
			{
				"x": -3.2261245993,
				"y": -2.4626297959,
				"z": -5.4999131788,
				"element": "O" 
			},
			{
				"x": -3.1930168664,
				"y": -1.1861253933,
				"z": -4.9654844713,
				"element": "N" 
			},
			{
				"x": -2.2933438456,
				"y": -1.2407381128,
				"z": -4.0222419557,
				"element": "C" 
			},
			{
				"x": -1.7829811138,
				"y": -0.1775290224,
				"z": -3.1113694296,
				"element": "C" 
			},
			{
				"x": -1.6104311461,
				"y": -0.709704705,
				"z": -1.6402955038,
				"element": "C" 
			},
			{
				"x": -3.0008704925,
				"y": -0.5221199098,
				"z": -0.9788588322,
				"element": "C" 
			},
			{
				"x": -0.5758553957,
				"y": 0.1823175682,
				"z": -0.86878995,
				"element": "C" 
			},
			{
				"x": 0.8116120356,
				"y": 0.3858447808,
				"z": -1.5263542626,
				"element": "C" 
			},
			{
				"x": 1.5929894615,
				"y": 1.5474046644,
				"z": -0.8627419462,
				"element": "C" 
			},
			{
				"x": 1.4630667029,
				"y": 1.5596840601,
				"z": 0.6881644454,
				"element": "C" 
			},
			{
				"x": 0.4889262898,
				"y": 2.6853378668,
				"z": 1.1082932194,
				"element": "C" 
			},
			{
				"x": 3.8164709932,
				"y": -0.0762349409,
				"z": 0.7728866321,
				"element": "H" 
			},
			{
				"x": 4.3389815138,
				"y": 1.426582801,
				"z": 0.0044883398,
				"element": "H" 
			},
			{
				"x": 4.8379356004,
				"y": 1.0659984952,
				"z": 1.6602550041,
				"element": "H" 
			},
			{
				"x": 3.5120021447,
				"y": 3.4358280799,
				"z": 0.9125287243,
				"element": "H" 
			},
			{
				"x": 3.2420474544,
				"y": 0.607939674,
				"z": 3.3688392231,
				"element": "H" 
			},
			{
				"x": 2.1560887269,
				"y": 1.9690137191,
				"z": 3.584932579,
				"element": "H" 
			},
			{
				"x": 1.331130546,
				"y": -0.7908118785,
				"z": 3.1212564816,
				"element": "H" 
			},
			{
				"x": 0.2805118611,
				"y": 0.6135927125,
				"z": 3.1856206215,
				"element": "H" 
			},
			{
				"x": 1.7041623646,
				"y": -0.5592543666,
				"z": 0.7761375359,
				"element": "H" 
			},
			{
				"x": -1.1666050987,
				"y": 0.257225189,
				"z": 1.2264508011,
				"element": "H" 
			},
			{
				"x": -1.6183398073,
				"y": -2.0152672059,
				"z": 1.156555257,
				"element": "H" 
			},
			{
				"x": 0.0473376616,
				"y": -2.1306712921,
				"z": 1.6629493962,
				"element": "H" 
			},
			{
				"x": 0.7560340264,
				"y": -2.4051738719,
				"z": -0.7358069832,
				"element": "H" 
			},
			{
				"x": -0.337602344,
				"y": -3.6680286071,
				"z": -0.2147464805,
				"element": "H" 
			},
			{
				"x": -2.1925419366,
				"y": -2.7690794478,
				"z": -1.3382542732,
				"element": "H" 
			},
			{
				"x": 0.2208994729,
				"y": -2.5024451682,
				"z": -3.1768516529,
				"element": "H" 
			},
			{
				"x": -0.6571193392,
				"y": -3.9810688007,
				"z": -2.7836307987,
				"element": "H" 
			},
			{
				"x": -0.8194719323,
				"y": 0.1440194801,
				"z": -3.5184755639,
				"element": "H" 
			},
			{
				"x": -2.4331348995,
				"y": 0.7016840311,
				"z": -3.1204938558,
				"element": "H" 
			},
			{
				"x": -3.0441528951,
				"y": -0.9269322174,
				"z": 0.0343888808,
				"element": "H" 
			},
			{
				"x": -3.7731153032,
				"y": -1.0296905144,
				"z": -1.5671906445,
				"element": "H" 
			},
			{
				"x": -3.2671950065,
				"y": 0.5395114275,
				"z": -0.9273092365,
				"element": "H" 
			},
			{
				"x": -1.0342023206,
				"y": 1.1803116194,
				"z": -0.8569586519,
				"element": "H" 
			},
			{
				"x": 1.4022993193,
				"y": -0.5350527463,
				"z": -1.4744602039,
				"element": "H" 
			},
			{
				"x": 0.7200213114,
				"y": 0.6175894038,
				"z": -2.5910817724,
				"element": "H" 
			},
			{
				"x": 2.637961427,
				"y": 1.4796565932,
				"z": -1.1822600095,
				"element": "H" 
			},
			{
				"x": 1.2174914418,
				"y": 2.4961678966,
				"z": -1.2655323201,
				"element": "H" 
			},
			{
				"x": 0.32456597,
				"y": 2.7203665341,
				"z": 2.1881310469,
				"element": "H" 
			},
			{
				"x": -0.485012392,
				"y": 2.5726302344,
				"z": 0.6248462733,
				"element": "H" 
			},
			{
				"x": 0.8967806532,
				"y": 3.6572123929,
				"z": 0.8200827896,
				"element": "H" 
			}
		],
		 "valence_orbital": [ 
			{
				"type": "occ",
				"energy": -0.29589,
				"method": "rhf"
			},
			{
				"type": "occ",
				"energy": -0.28886,
				"method": "rhf"
			},
			{
				"type": "occ",
				"energy": -0.28695,
				"method": "rhf"
			},
			{
				"type": "occ",
				"energy": -0.28133,
				"method": "rhf"
			},
			{
				"type": "occ",
				"energy": -0.25752,
				"method": "rhf"
			},
			{
				"type": "unocc",
				"energy": -0.03356,
				"method": "rhf"
			},
			{
				"type": "unocc",
				"energy": 0.04628,
				"method": "rhf"
			},
			{
				"type": "unocc",
				"energy": 0.0553,
				"method": "rhf"
			},
			{
				"type": "unocc",
				"energy": 0.06143,
				"method": "rhf"
			},
			{
				"type": "unocc",
				"energy": 0.07109,
				"method": "rhf"
			}
		],
		"cosmo_sigma_profile": { 
			"-0.025": 0.0,
			"-0.024": 0.0,
			"-0.023": 0.0,
			"-0.022": 0.0,
			"-0.021": 0.0,
			"-0.02": 0.0,
			"-0.019": 0.0,
			"-0.018": 0.0,
			"-0.017": 0.0,
			"-0.016": 0.0,
			"-0.015": 0.0,
			"-0.014": 0.787824759923,
			"-0.013": 0.594900232293,
			"-0.012": 0.787113852948,
			"-0.011": 1.23865200933,
			"-0.01": 0.772432217505,
			"-0.009": 0.730674650084,
			"-0.008": 0.827689303336,
			"-0.007": 2.00341353503,
			"-0.006": 5.42640553546,
			"-0.005": 10.643978859,
			"-0.004": 20.3706731597,
			"-0.003": 41.1050765106,
			"-0.002": 56.8429819748,
			"-0.001": 56.1302681855,
			"0.0": 43.2289463747,
			"0.001": 35.8329841714,
			"0.002": 16.6274554842,
			"0.003": 6.04737413563,
			"0.004": 5.29262330021,
			"0.005": 4.26401849961,
			"0.006": 8.74746746605,
			"0.007": 10.4482708673,
			"0.008": 6.30539088245,
			"0.009": 3.28621176136,
			"0.01": 5.07136164321,
			"0.011": 3.78460115056,
			"0.012": 3.29035705266,
			"0.013": 2.39674237813,
			"0.014": 1.87303454748,
			"0.015": 0.789099146541,
			"0.016": 0.0,
			"0.017": 0.0,
			"0.018": 0.0,
			"0.019": 0.0,
			"0.02": 0.0,
			"0.021": 0.0,
			"0.022": 0.0,
			"0.023": 0.0,
			"0.024": 0.0,
			"0.025": 0.0
		}
	}
}
