{
	 "smiles": "CCOC(=O)C1=C(C)C(CC)=C(C)N1", 
	 "Tm": 360.65, 
	 "num_atms": 31, 
	 "gaussian": { 
		 "optdone": 1, 
		 "sigma_profile": "yes", 
		 "theory": "DFT", 
		 "functional": "B3LYP", 
		 "basiset": "6-31G**", 
		 "properties": { 
			 "R2extent": 3995.4767, 
			 "electric_dipole_moment_norm": 3.46164268809, 
			 "electric_quadrupole_moment_norm": 8.78665498185, 
			 "total_energy": -634.656453457, 
			 "HOMO_LUMO_gap": 0.18898, 
			 "cosmo_polarized_energy": -9.83, 
			 "cosmo_cavitation_energy": 33.8, 
			 "cosmo_dispersion_energy": -23.75, 
			 "cosmo_repulsion_energy": 1.92, 
			 "cosmo_total_nonelectrostatic_energy": 11.97, 
			 "SMD_solvation_energy": 6.77 
		},
		"coords": [
			{
				"x": 0.8119357412,
				"y": 4.5176216618,
				"z": 0.8796032756,
				"element": "C" 
			},
			{
				"x": 0.3142079541,
				"y": 3.2556505036,
				"z": 1.5598217059,
				"element": "C" 
			},
			{
				"x": 0.0729246588,
				"y": 2.2736809271,
				"z": 0.5321585177,
				"element": "O" 
			},
			{
				"x": -0.3860454445,
				"y": 1.0599956415,
				"z": 0.9701214402,
				"element": "C" 
			},
			{
				"x": -0.5795665176,
				"y": 0.818562437,
				"z": 2.1498795256,
				"element": "O" 
			},
			{
				"x": -0.594668296,
				"y": 0.1504720791,
				"z": -0.1447408776,
				"element": "C" 
			},
			{
				"x": -1.056714053,
				"y": -1.1651007573,
				"z": -0.1781321557,
				"element": "C" 
			},
			{
				"x": -1.4641106987,
				"y": -1.9998345511,
				"z": 1.0001621146,
				"element": "C" 
			},
			{
				"x": -1.0816888118,
				"y": -1.5630974455,
				"z": -1.5467956723,
				"element": "C" 
			},
			{
				"x": -1.4905822265,
				"y": -2.9144418565,
				"z": -2.0687224541,
				"element": "C" 
			},
			{
				"x": -0.3450226694,
				"y": -3.9436594411,
				"z": -2.0952497412,
				"element": "C" 
			},
			{
				"x": -0.6345280582,
				"y": -0.4821214741,
				"z": -2.3075839799,
				"element": "C" 
			},
			{
				"x": -0.4407488165,
				"y": -0.3400680452,
				"z": -3.7842114521,
				"element": "C" 
			},
			{
				"x": -0.3452380999,
				"y": 0.5382742691,
				"z": -1.4498347551,
				"element": "N" 
			},
			{
				"x": 1.0079992408,
				"y": 5.2918143481,
				"z": 1.6279928179,
				"element": "H" 
			},
			{
				"x": 0.0683477076,
				"y": 4.9028002446,
				"z": 0.1753752736,
				"element": "H" 
			},
			{
				"x": 1.7400526271,
				"y": 4.3279325809,
				"z": 0.3320389334,
				"element": "H" 
			},
			{
				"x": -0.6143226784,
				"y": 3.4284062272,
				"z": 2.1135420107,
				"element": "H" 
			},
			{
				"x": 1.0466691484,
				"y": 2.8572477693,
				"z": 2.2693317788,
				"element": "H" 
			},
			{
				"x": -1.4291527998,
				"y": -1.4115982481,
				"z": 1.9174451038,
				"element": "H" 
			},
			{
				"x": -2.4807476243,
				"y": -2.3918710176,
				"z": 0.8739205996,
				"element": "H" 
			},
			{
				"x": -0.8031885591,
				"y": -2.866563657,
				"z": 1.1242176879,
				"element": "H" 
			},
			{
				"x": -2.3081251577,
				"y": -3.3074839638,
				"z": -1.4517282394,
				"element": "H" 
			},
			{
				"x": -1.9030624721,
				"y": -2.8141032396,
				"z": -3.0805250285,
				"element": "H" 
			},
			{
				"x": -0.6938024982,
				"y": -4.9136466813,
				"z": -2.4664850138,
				"element": "H" 
			},
			{
				"x": 0.470821233,
				"y": -3.6059689805,
				"z": -2.7428912164,
				"element": "H" 
			},
			{
				"x": 0.0716369845,
				"y": -4.0952030488,
				"z": -1.094399692,
				"element": "H" 
			},
			{
				"x": -0.7883282112,
				"y": 0.6355948233,
				"z": -4.1432225695,
				"element": "H" 
			},
			{
				"x": 0.6130845409,
				"y": -0.4407870395,
				"z": -4.0743384313,
				"element": "H" 
			},
			{
				"x": -1.0015175297,
				"y": -1.1087568443,
				"z": -4.3212684117,
				"element": "H" 
			},
			{
				"x": -0.0118186137,
				"y": 1.4568527788,
				"z": -1.6964810946,
				"element": "H" 
			}
		],
		 "valence_orbital": [ 
			{
				"type": "occ",
				"energy": -0.32622,
				"method": "rhf"
			},
			{
				"type": "occ",
				"energy": -0.2893,
				"method": "rhf"
			},
			{
				"type": "occ",
				"energy": -0.25962,
				"method": "rhf"
			},
			{
				"type": "occ",
				"energy": -0.22696,
				"method": "rhf"
			},
			{
				"type": "occ",
				"energy": -0.20396,
				"method": "rhf"
			},
			{
				"type": "unocc",
				"energy": -0.01498,
				"method": "rhf"
			},
			{
				"type": "unocc",
				"energy": 0.05966,
				"method": "rhf"
			},
			{
				"type": "unocc",
				"energy": 0.0834,
				"method": "rhf"
			},
			{
				"type": "unocc",
				"energy": 0.09488,
				"method": "rhf"
			},
			{
				"type": "unocc",
				"energy": 0.10537,
				"method": "rhf"
			}
		],
		"cosmo_sigma_profile": { 
			"-0.025": 0.0,
			"-0.024": 0.0,
			"-0.023": 0.0,
			"-0.022": 0.0,
			"-0.021": 0.0,
			"-0.02": 0.0,
			"-0.019": 0.0,
			"-0.018": 0.0,
			"-0.017": 0.0,
			"-0.016": 0.0,
			"-0.015": 0.0,
			"-0.014": 0.405227710927,
			"-0.013": 0.930590139494,
			"-0.012": 0.910767585873,
			"-0.011": 0.628878554387,
			"-0.01": 0.953545699731,
			"-0.009": 1.18471979289,
			"-0.008": 1.05835241601,
			"-0.007": 0.931836737123,
			"-0.006": 1.67834587472,
			"-0.005": 7.88331479138,
			"-0.004": 19.7000792039,
			"-0.003": 29.4866550043,
			"-0.002": 31.6424818456,
			"-0.001": 34.9982687437,
			"0.0": 36.8130916905,
			"0.001": 26.3192017529,
			"0.002": 14.9911637492,
			"0.003": 10.7463981931,
			"0.004": 11.7021997257,
			"0.005": 8.77149668618,
			"0.006": 6.4547130889,
			"0.007": 2.4882452265,
			"0.008": 2.71437376376,
			"0.009": 1.12575811858,
			"0.01": 1.87981479895,
			"0.011": 1.61917579618,
			"0.012": 3.43803684306,
			"0.013": 3.01395289741,
			"0.014": 0.105160501144,
			"0.015": 0.0,
			"0.016": 0.0,
			"0.017": 0.0,
			"0.018": 0.0,
			"0.019": 0.0,
			"0.02": 0.0,
			"0.021": 0.0,
			"0.022": 0.0,
			"0.023": 0.0,
			"0.024": 0.0,
			"0.025": 0.0
		}
	}
}
