{
	 "smiles": "COP(=S)(NC(C)C)OC1=C(Cl)C=C(Cl)C=C1", 
	 "Tm": 324.55, 
	 "num_atms": 31, 
	 "gaussian": { 
		 "optdone": 1, 
		 "sigma_profile": "yes", 
		 "theory": "DFT", 
		 "functional": "B3LYP", 
		 "basiset": "6-31G**", 
		 "properties": { 
			 "R2extent": 8255.9864, 
			 "electric_dipole_moment_norm": 4.59374411564, 
			 "electric_quadrupole_moment_norm": 9.32954324766, 
			 "total_energy": -2254.68539086, 
			 "HOMO_LUMO_gap": 0.20263, 
			 "cosmo_polarized_energy": -12.84, 
			 "cosmo_cavitation_energy": 40.93, 
			 "cosmo_dispersion_energy": -27.91, 
			 "cosmo_repulsion_energy": 2.13, 
			 "cosmo_total_nonelectrostatic_energy": 15.16, 
			 "SMD_solvation_energy": 6.54 
		},
		"coords": [
			{
				"x": -2.7450826545,
				"y": -0.7466966129,
				"z": 0.9086070772,
				"element": "C" 
			},
			{
				"x": -2.0293845567,
				"y": -0.4912840408,
				"z": -0.3162032787,
				"element": "O" 
			},
			{
				"x": -0.4884723881,
				"y": 0.0145094674,
				"z": -0.2936219188,
				"element": "P" 
			},
			{
				"x": 0.2073684164,
				"y": 0.1241610358,
				"z": -2.0961962297,
				"element": "S" 
			},
			{
				"x": -0.4328271064,
				"y": 1.2962714838,
				"z": 0.7861871345,
				"element": "N" 
			},
			{
				"x": -0.7248527084,
				"y": 2.7149701248,
				"z": 0.4574947939,
				"element": "C" 
			},
			{
				"x": 0.4660249317,
				"y": 3.4252344771,
				"z": -0.2001585918,
				"element": "C" 
			},
			{
				"x": -2.0077513621,
				"y": 2.844888349,
				"z": -0.3683919339,
				"element": "C" 
			},
			{
				"x": 0.2616758371,
				"y": -1.0449591581,
				"z": 0.7434683861,
				"element": "O" 
			},
			{
				"x": 0.7575313717,
				"y": -2.2767784668,
				"z": 0.3858338728,
				"element": "C" 
			},
			{
				"x": 1.9924831055,
				"y": -2.6702803253,
				"z": 0.9192975804,
				"element": "C" 
			},
			{
				"x": 2.8894407772,
				"y": -1.5781539745,
				"z": 1.9484610637,
				"element": "Cl" 
			},
			{
				"x": 2.5154830797,
				"y": -3.9327981277,
				"z": 0.6450876677,
				"element": "C" 
			},
			{
				"x": 1.7968142459,
				"y": -4.7977662668,
				"z": -0.1779739637,
				"element": "C" 
			},
			{
				"x": 2.4547612444,
				"y": -6.3863776034,
				"z": -0.5287802227,
				"element": "Cl" 
			},
			{
				"x": 0.5693958534,
				"y": -4.4225819472,
				"z": -0.7212543121,
				"element": "C" 
			},
			{
				"x": 0.0514909793,
				"y": -3.1623246925,
				"z": -0.431765225,
				"element": "C" 
			},
			{
				"x": -2.3873945236,
				"y": -1.670998189,
				"z": 1.3720485071,
				"element": "H" 
			},
			{
				"x": -3.7938197474,
				"y": -0.8553772256,
				"z": 0.6291865258,
				"element": "H" 
			},
			{
				"x": -2.6245536095,
				"y": 0.0836791855,
				"z": 1.6087749605,
				"element": "H" 
			},
			{
				"x": 0.3443654937,
				"y": 1.1882605456,
				"z": 1.4302095262,
				"element": "H" 
			},
			{
				"x": -0.9103481183,
				"y": 3.1862920087,
				"z": 1.431635638,
				"element": "H" 
			},
			{
				"x": 1.3636837793,
				"y": 3.342023727,
				"z": 0.422247141,
				"element": "H" 
			},
			{
				"x": 0.2470445982,
				"y": 4.4904423993,
				"z": -0.3307859469,
				"element": "H" 
			},
			{
				"x": 0.6879431285,
				"y": 2.9908019418,
				"z": -1.1782135801,
				"element": "H" 
			},
			{
				"x": -2.8525274305,
				"y": 2.3607563356,
				"z": 0.1291178886,
				"element": "H" 
			},
			{
				"x": -1.8921080904,
				"y": 2.4063540206,
				"z": -1.3638323055,
				"element": "H" 
			},
			{
				"x": -2.2494906232,
				"y": 3.903911728,
				"z": -0.4971839389,
				"element": "H" 
			},
			{
				"x": 3.4691011745,
				"y": -4.2279180014,
				"z": 1.064874941,
				"element": "H" 
			},
			{
				"x": 0.0231257392,
				"y": -5.1056720981,
				"z": -1.361099758,
				"element": "H" 
			},
			{
				"x": -0.9028208365,
				"y": -2.8563901,
				"z": -0.8451714989,
				"element": "H" 
			}
		],
		 "valence_orbital": [ 
			{
				"type": "occ",
				"energy": -0.2841,
				"method": "rhf"
			},
			{
				"type": "occ",
				"energy": -0.26693,
				"method": "rhf"
			},
			{
				"type": "occ",
				"energy": -0.24888,
				"method": "rhf"
			},
			{
				"type": "occ",
				"energy": -0.23996,
				"method": "rhf"
			},
			{
				"type": "occ",
				"energy": -0.23223,
				"method": "rhf"
			},
			{
				"type": "unocc",
				"energy": -0.0296,
				"method": "rhf"
			},
			{
				"type": "unocc",
				"energy": -0.02353,
				"method": "rhf"
			},
			{
				"type": "unocc",
				"energy": 0.00197,
				"method": "rhf"
			},
			{
				"type": "unocc",
				"energy": 0.02625,
				"method": "rhf"
			},
			{
				"type": "unocc",
				"energy": 0.04012,
				"method": "rhf"
			}
		],
		"cosmo_sigma_profile": { 
			"-0.025": 0.0,
			"-0.024": 0.0,
			"-0.023": 0.0,
			"-0.022": 0.0,
			"-0.021": 0.0,
			"-0.02": 0.0,
			"-0.019": 0.0,
			"-0.018": 0.0,
			"-0.017": 0.0,
			"-0.016": 0.0,
			"-0.015": 0.0,
			"-0.014": 0.00165719650436,
			"-0.013": 0.565325062265,
			"-0.012": 0.826541079983,
			"-0.011": 1.06846462088,
			"-0.01": 0.657431796773,
			"-0.009": 1.64977824439,
			"-0.008": 4.81657380735,
			"-0.007": 7.50151683741,
			"-0.006": 9.74489073475,
			"-0.005": 14.5313200853,
			"-0.004": 25.6881122467,
			"-0.003": 25.9069462086,
			"-0.002": 23.408728674,
			"-0.001": 26.0107852518,
			"0.0": 37.8530423563,
			"0.001": 39.2319685612,
			"0.002": 23.6799598826,
			"0.003": 20.8818793983,
			"0.004": 26.1897594141,
			"0.005": 9.20787311707,
			"0.006": 7.27444296816,
			"0.007": 6.58379808849,
			"0.008": 6.66980971678,
			"0.009": 5.29920496927,
			"0.01": 3.01788071225,
			"0.011": 0.577851348802,
			"0.012": 0.0,
			"0.013": 0.0,
			"0.014": 0.0,
			"0.015": 0.0,
			"0.016": 0.0,
			"0.017": 0.0,
			"0.018": 0.0,
			"0.019": 0.0,
			"0.02": 0.0,
			"0.021": 0.0,
			"0.022": 0.0,
			"0.023": 0.0,
			"0.024": 0.0,
			"0.025": 0.0
		}
	}
}
