{
	 "smiles": "CC(=O)C1=C(O)C=C(C=C1)N1CCCC1", 
	 "Tm": 394.15, 
	 "num_atms": 30, 
	 "gaussian": { 
		 "optdone": 1, 
		 "sigma_profile": "yes", 
		 "theory": "DFT", 
		 "functional": "B3LYP", 
		 "basiset": "6-31G**", 
		 "properties": { 
			 "R2extent": 5223.9299, 
			 "electric_dipole_moment_norm": 7.29257318784, 
			 "electric_quadrupole_moment_norm": 26.1581358317, 
			 "total_energy": -671.521449914, 
			 "HOMO_LUMO_gap": 0.16956, 
			 "cosmo_polarized_energy": -15.66, 
			 "cosmo_cavitation_energy": 31.79, 
			 "cosmo_dispersion_energy": -23.71, 
			 "cosmo_repulsion_energy": 1.84, 
			 "cosmo_total_nonelectrostatic_energy": 9.93, 
			 "SMD_solvation_energy": 5.07 
		},
		"coords": [
			{
				"x": -1.7134827113,
				"y": 5.1120170296,
				"z": -0.7742412896,
				"element": "C" 
			},
			{
				"x": -1.0603453638,
				"y": 4.5501703457,
				"z": 0.4759124477,
				"element": "C" 
			},
			{
				"x": -0.6893802732,
				"y": 5.3199903,
				"z": 1.3573925038,
				"element": "O" 
			},
			{
				"x": -0.8654776177,
				"y": 3.081225753,
				"z": 0.6450023068,
				"element": "C" 
			},
			{
				"x": -1.2293360717,
				"y": 2.0671984807,
				"z": -0.268360025,
				"element": "C" 
			},
			{
				"x": -1.8209440843,
				"y": 2.4161259758,
				"z": -1.4510505174,
				"element": "O" 
			},
			{
				"x": -0.9926857438,
				"y": 0.7200834642,
				"z": 0.009967677,
				"element": "C" 
			},
			{
				"x": -0.3811823588,
				"y": 0.3158088921,
				"z": 1.2151953615,
				"element": "C" 
			},
			{
				"x": -0.0123917706,
				"y": 1.3272344783,
				"z": 2.1388616233,
				"element": "C" 
			},
			{
				"x": -0.2558534249,
				"y": 2.65285503,
				"z": 1.8411981887,
				"element": "C" 
			},
			{
				"x": -0.1523199422,
				"y": -1.0092633409,
				"z": 1.4826580103,
				"element": "N" 
			},
			{
				"x": 0.5696326451,
				"y": -1.4859705137,
				"z": 2.663978975,
				"element": "C" 
			},
			{
				"x": 0.8235012946,
				"y": -2.9694247753,
				"z": 2.3586417221,
				"element": "C" 
			},
			{
				"x": -0.3741136487,
				"y": -3.3582212203,
				"z": 1.4773985116,
				"element": "C" 
			},
			{
				"x": -0.605571572,
				"y": -2.1023317566,
				"z": 0.6236718998,
				"element": "C" 
			},
			{
				"x": -1.7549036588,
				"y": 6.1976282526,
				"z": -0.6741829902,
				"element": "H" 
			},
			{
				"x": -2.7202233317,
				"y": 4.7061005671,
				"z": -0.9099438012,
				"element": "H" 
			},
			{
				"x": -1.1491352181,
				"y": 4.8368483845,
				"z": -1.6701898328,
				"element": "H" 
			},
			{
				"x": -2.0034844588,
				"y": 1.6125862789,
				"z": -1.9552010433,
				"element": "H" 
			},
			{
				"x": -1.2756130194,
				"y": -0.0207353358,
				"z": -0.7321225247,
				"element": "H" 
			},
			{
				"x": 0.4471273759,
				"y": 1.0642288782,
				"z": 3.0838880435,
				"element": "H" 
			},
			{
				"x": 0.0197010129,
				"y": 3.4318185146,
				"z": 2.5444916177,
				"element": "H" 
			},
			{
				"x": 1.5014477626,
				"y": -0.9270311018,
				"z": 2.8070218042,
				"element": "H" 
			},
			{
				"x": -0.0338099373,
				"y": -1.3608059967,
				"z": 3.5763998441,
				"element": "H" 
			},
			{
				"x": 0.9067929961,
				"y": -3.5732731422,
				"z": 3.2659754002,
				"element": "H" 
			},
			{
				"x": 1.7572240549,
				"y": -3.0790337033,
				"z": 1.7958088967,
				"element": "H" 
			},
			{
				"x": -1.2542388488,
				"y": -3.5509983577,
				"z": 2.1008857839,
				"element": "H" 
			},
			{
				"x": -0.1935187344,
				"y": -4.2483571231,
				"z": 0.8691503797,
				"element": "H" 
			},
			{
				"x": -1.6607644035,
				"y": -1.9767461952,
				"z": 0.3511557111,
				"element": "H" 
			},
			{
				"x": -0.0256509486,
				"y": -2.1399280625,
				"z": -0.3123646844,
				"element": "H" 
			}
		],
		 "valence_orbital": [ 
			{
				"type": "occ",
				"energy": -0.32965,
				"method": "rhf"
			},
			{
				"type": "occ",
				"energy": -0.27342,
				"method": "rhf"
			},
			{
				"type": "occ",
				"energy": -0.228,
				"method": "rhf"
			},
			{
				"type": "occ",
				"energy": -0.22268,
				"method": "rhf"
			},
			{
				"type": "occ",
				"energy": -0.19373,
				"method": "rhf"
			},
			{
				"type": "unocc",
				"energy": -0.02417,
				"method": "rhf"
			},
			{
				"type": "unocc",
				"energy": 0.01438,
				"method": "rhf"
			},
			{
				"type": "unocc",
				"energy": 0.06264,
				"method": "rhf"
			},
			{
				"type": "unocc",
				"energy": 0.06285,
				"method": "rhf"
			},
			{
				"type": "unocc",
				"energy": 0.07254,
				"method": "rhf"
			}
		],
		"cosmo_sigma_profile": { 
			"-0.025": 0.0,
			"-0.024": 0.0,
			"-0.023": 0.0,
			"-0.022": 0.0,
			"-0.021": 0.0,
			"-0.02": 0.0,
			"-0.019": 0.0,
			"-0.018": 0.307925347362,
			"-0.017": 1.47871866468,
			"-0.016": 0.71861281724,
			"-0.015": 1.09470076648,
			"-0.014": 0.935797508608,
			"-0.013": 1.46008309959,
			"-0.012": 0.711647768655,
			"-0.011": 0.315537618323,
			"-0.01": 0.902883716634,
			"-0.009": 1.35854238802,
			"-0.008": 1.08063898976,
			"-0.007": 1.24927162587,
			"-0.006": 1.95139891958,
			"-0.005": 7.05134026691,
			"-0.004": 23.8755727639,
			"-0.003": 35.4876881212,
			"-0.002": 32.4662615647,
			"-0.001": 22.8691189801,
			"0.0": 22.038031692,
			"0.001": 11.3189741739,
			"0.002": 10.0427753242,
			"0.003": 11.7856596525,
			"0.004": 14.4279798894,
			"0.005": 15.4119839262,
			"0.006": 8.76002008151,
			"0.007": 3.96318019228,
			"0.008": 2.1840195134,
			"0.009": 1.29487469994,
			"0.01": 1.28027084744,
			"0.011": 2.11999132698,
			"0.012": 2.66147099718,
			"0.013": 4.20128765038,
			"0.014": 2.58664920363,
			"0.015": 0.548033049442,
			"0.016": 0.0,
			"0.017": 0.0,
			"0.018": 0.0,
			"0.019": 0.0,
			"0.02": 0.0,
			"0.021": 0.0,
			"0.022": 0.0,
			"0.023": 0.0,
			"0.024": 0.0,
			"0.025": 0.0
		}
	}
}
