{
	 "smiles": "CCC1=CC=C(OCC2=NN=C(S)N2C(C)C2=CC=CC=C2)C=C1", 
	 "Tm": 417.15, 
	 "num_atms": 45, 
	 "gaussian": { 
		 "optdone": 1, 
		 "sigma_profile": "yes", 
		 "theory": "DFT", 
		 "functional": "B3LYP", 
		 "basiset": "6-31G**", 
		 "properties": { 
			 "R2extent": 10274.504, 
			 "electric_dipole_moment_norm": 5.08215837416, 
			 "electric_quadrupole_moment_norm": 20.234141752, 
			 "total_energy": -1374.3157588, 
			 "HOMO_LUMO_gap": 0.18987, 
			 "cosmo_polarized_energy": -20.39, 
			 "cosmo_cavitation_energy": 49.83, 
			 "cosmo_dispersion_energy": -32.42, 
			 "cosmo_repulsion_energy": 2.46, 
			 "cosmo_total_nonelectrostatic_energy": 19.86, 
			 "SMD_solvation_energy": 5.88 
		},
		"coords": [
			{
				"x": 5.6680214909,
				"y": -2.7839410651,
				"z": 1.2529943083,
				"element": "C" 
			},
			{
				"x": 4.4952504686,
				"y": -3.6906282246,
				"z": 1.6676839231,
				"element": "C" 
			},
			{
				"x": 3.1400416232,
				"y": -3.0860757692,
				"z": 1.3661297441,
				"element": "C" 
			},
			{
				"x": 2.468768767,
				"y": -3.3622795336,
				"z": 0.1729858802,
				"element": "C" 
			},
			{
				"x": 1.2322624049,
				"y": -2.7826111883,
				"z": -0.1316688467,
				"element": "C" 
			},
			{
				"x": 0.6428177941,
				"y": -1.8996197749,
				"z": 0.7785441413,
				"element": "C" 
			},
			{
				"x": -0.5636458662,
				"y": -1.2773066818,
				"z": 0.5987036641,
				"element": "O" 
			},
			{
				"x": -1.2799403254,
				"y": -1.5512836647,
				"z": -0.6025086633,
				"element": "C" 
			},
			{
				"x": -2.6001801363,
				"y": -0.8563827459,
				"z": -0.5560334337,
				"element": "C" 
			},
			{
				"x": -3.7035196139,
				"y": -1.4590698851,
				"z": -0.1797305069,
				"element": "N" 
			},
			{
				"x": -4.7334550703,
				"y": -0.5469677155,
				"z": -0.2336249871,
				"element": "N" 
			},
			{
				"x": -4.2106347055,
				"y": 0.5848826843,
				"z": -0.6467236093,
				"element": "C" 
			},
			{
				"x": -5.113332209,
				"y": 2.0865131813,
				"z": -0.9013460159,
				"element": "S" 
			},
			{
				"x": -2.8611537623,
				"y": 0.4694731602,
				"z": -0.8659543764,
				"element": "N" 
			},
			{
				"x": -1.9870062956,
				"y": 1.5084317577,
				"z": -1.4625215483,
				"element": "C" 
			},
			{
				"x": -1.7851526133,
				"y": 1.2361351864,
				"z": -2.9580700479,
				"element": "C" 
			},
			{
				"x": -0.7187160158,
				"y": 1.7296908546,
				"z": -0.6422646936,
				"element": "C" 
			},
			{
				"x": 0.5614377744,
				"y": 1.6054198505,
				"z": -1.1899487785,
				"element": "C" 
			},
			{
				"x": 1.6945306269,
				"y": 1.8632973526,
				"z": -0.4130440665,
				"element": "C" 
			},
			{
				"x": 1.55885679,
				"y": 2.2522692163,
				"z": 0.9177312115,
				"element": "C" 
			},
			{
				"x": 0.2824061266,
				"y": 2.3829275042,
				"z": 1.472284939,
				"element": "C" 
			},
			{
				"x": -0.8448394915,
				"y": 2.1244583832,
				"z": 0.6975487047,
				"element": "C" 
			},
			{
				"x": 1.2997296736,
				"y": -1.6104105152,
				"z": 1.9833232238,
				"element": "C" 
			},
			{
				"x": 2.5262286942,
				"y": -2.197592027,
				"z": 2.2651524849,
				"element": "C" 
			},
			{
				"x": 5.6216955699,
				"y": -1.8207037329,
				"z": 1.7719076189,
				"element": "H" 
			},
			{
				"x": 5.6439450742,
				"y": -2.580867195,
				"z": 0.1772275004,
				"element": "H" 
			},
			{
				"x": 6.6304937564,
				"y": -3.2503536815,
				"z": 1.4896450471,
				"element": "H" 
			},
			{
				"x": 4.5873934411,
				"y": -4.6552815322,
				"z": 1.1543235848,
				"element": "H" 
			},
			{
				"x": 4.5699928676,
				"y": -3.9046791868,
				"z": 2.7410822612,
				"element": "H" 
			},
			{
				"x": 2.9121455039,
				"y": -4.0520636166,
				"z": -0.541714996,
				"element": "H" 
			},
			{
				"x": 0.7456615713,
				"y": -3.0353437518,
				"z": -1.0664251101,
				"element": "H" 
			},
			{
				"x": -0.6872934266,
				"y": -1.2419084199,
				"z": -1.4731803844,
				"element": "H" 
			},
			{
				"x": -1.4929176397,
				"y": -2.6230547828,
				"z": -0.6876566968,
				"element": "H" 
			},
			{
				"x": -6.2622378852,
				"y": 1.5348720139,
				"z": -0.4674407153,
				"element": "H" 
			},
			{
				"x": -2.5718317004,
				"y": 2.4314142255,
				"z": -1.3788868032,
				"element": "H" 
			},
			{
				"x": -1.2424918723,
				"y": 2.0628244827,
				"z": -3.4244588164,
				"element": "H" 
			},
			{
				"x": -2.7565439169,
				"y": 1.1430914721,
				"z": -3.4499881178,
				"element": "H" 
			},
			{
				"x": -1.2253689598,
				"y": 0.3138761654,
				"z": -3.1363730009,
				"element": "H" 
			},
			{
				"x": 0.690063415,
				"y": 1.3102382276,
				"z": -2.226002459,
				"element": "H" 
			},
			{
				"x": 2.6817811698,
				"y": 1.757200186,
				"z": -0.8528163265,
				"element": "H" 
			},
			{
				"x": 2.4395415468,
				"y": 2.4530347112,
				"z": 1.5205472085,
				"element": "H" 
			},
			{
				"x": 0.1659709552,
				"y": 2.6888082231,
				"z": 2.5079465733,
				"element": "H" 
			},
			{
				"x": -1.8344605977,
				"y": 2.2235407137,
				"z": 1.1359901842,
				"element": "H" 
			},
			{
				"x": 0.8248689885,
				"y": -0.9271000907,
				"z": 2.6793486208,
				"element": "H" 
			},
			{
				"x": 3.0181160096,
				"y": -1.9673747718,
				"z": 3.2076821765,
				"element": "H" 
			}
		],
		 "valence_orbital": [ 
			{
				"type": "occ",
				"energy": -0.25525,
				"method": "rhf"
			},
			{
				"type": "occ",
				"energy": -0.25375,
				"method": "rhf"
			},
			{
				"type": "occ",
				"energy": -0.24624,
				"method": "rhf"
			},
			{
				"type": "occ",
				"energy": -0.23251,
				"method": "rhf"
			},
			{
				"type": "occ",
				"energy": -0.21087,
				"method": "rhf"
			},
			{
				"type": "unocc",
				"energy": -0.021,
				"method": "rhf"
			},
			{
				"type": "unocc",
				"energy": -0.01161,
				"method": "rhf"
			},
			{
				"type": "unocc",
				"energy": 0.00158,
				"method": "rhf"
			},
			{
				"type": "unocc",
				"energy": 0.00468,
				"method": "rhf"
			},
			{
				"type": "unocc",
				"energy": 0.0075,
				"method": "rhf"
			}
		],
		"cosmo_sigma_profile": { 
			"-0.025": 0.0,
			"-0.024": 0.0,
			"-0.023": 0.0,
			"-0.022": 0.0,
			"-0.021": 0.0,
			"-0.02": 0.0,
			"-0.019": 0.0,
			"-0.018": 0.0,
			"-0.017": 0.0,
			"-0.016": 0.0,
			"-0.015": 0.0,
			"-0.014": 0.0,
			"-0.013": 0.134550534977,
			"-0.012": 1.28337164408,
			"-0.011": 1.5746082027,
			"-0.01": 0.928898566558,
			"-0.009": 1.72688205231,
			"-0.008": 3.27773977709,
			"-0.007": 9.55580190993,
			"-0.006": 19.1192139532,
			"-0.005": 31.2911502857,
			"-0.004": 34.5408708337,
			"-0.003": 35.4449722781,
			"-0.002": 31.7720929785,
			"-0.001": 34.2390090497,
			"0.0": 30.0993523993,
			"0.001": 29.0666537996,
			"0.002": 23.6127597009,
			"0.003": 18.2589869133,
			"0.004": 21.2537863844,
			"0.005": 24.0389610683,
			"0.006": 16.1168758662,
			"0.007": 5.33386232967,
			"0.008": 4.2537663615,
			"0.009": 3.32660617507,
			"0.01": 1.85453189932,
			"0.011": 2.06502788058,
			"0.012": 3.37729012137,
			"0.013": 3.04978309226,
			"0.014": 3.16646199186,
			"0.015": 1.9948608116,
			"0.016": 1.8663346307,
			"0.017": 0.234588384387,
			"0.018": 0.0,
			"0.019": 0.0,
			"0.02": 0.0,
			"0.021": 0.0,
			"0.022": 0.0,
			"0.023": 0.0,
			"0.024": 0.0,
			"0.025": 0.0
		}
	}
}
