{
	 "smiles": "FC1=C(C=CC=C1)C1=CC=C(O1)C=O", 
	 "Tm": 340.15, 
	 "num_atms": 21, 
	 "gaussian": { 
		 "optdone": 1, 
		 "sigma_profile": "yes", 
		 "theory": "DFT", 
		 "functional": "B3LYP", 
		 "basiset": "6-31G**", 
		 "properties": { 
			 "R2extent": 3761.3771, 
			 "electric_dipole_moment_norm": 3.41442402317, 
			 "electric_quadrupole_moment_norm": 15.5335056858, 
			 "total_energy": -673.645148506, 
			 "HOMO_LUMO_gap": 0.15223, 
			 "cosmo_polarized_energy": -9.96, 
			 "cosmo_cavitation_energy": 26.86, 
			 "cosmo_dispersion_energy": -19.5, 
			 "cosmo_repulsion_energy": 1.49, 
			 "cosmo_total_nonelectrostatic_energy": 8.85, 
			 "SMD_solvation_energy": 6.57 
		},
		"coords": [
			{
				"x": 3.2883121314,
				"y": 1.5785138848,
				"z": 1.5150766431,
				"element": "F" 
			},
			{
				"x": 3.2477866238,
				"y": 1.2374722264,
				"z": 0.2061125297,
				"element": "C" 
			},
			{
				"x": 2.1799648789,
				"y": 0.4584882111,
				"z": -0.2652454207,
				"element": "C" 
			},
			{
				"x": 2.1849917961,
				"y": 0.1309574815,
				"z": -1.6356756652,
				"element": "C" 
			},
			{
				"x": 3.2062962585,
				"y": 0.5647765847,
				"z": -2.4748623156,
				"element": "C" 
			},
			{
				"x": 4.2532036719,
				"y": 1.3394179687,
				"z": -1.9676217771,
				"element": "C" 
			},
			{
				"x": 4.274526047,
				"y": 1.6791338202,
				"z": -0.6146174365,
				"element": "C" 
			},
			{
				"x": 1.1110756952,
				"y": 0.0043234281,
				"z": 0.6120969271,
				"element": "C" 
			},
			{
				"x": 0.8399190343,
				"y": 0.1609746628,
				"z": 1.9580908444,
				"element": "C" 
			},
			{
				"x": -0.3693366434,
				"y": -0.5331908841,
				"z": 2.2048628011,
				"element": "C" 
			},
			{
				"x": -0.7698759828,
				"y": -1.0734749857,
				"z": 1.0039963859,
				"element": "C" 
			},
			{
				"x": 0.1341840427,
				"y": -0.7450373309,
				"z": 0.0319804215,
				"element": "O" 
			},
			{
				"x": -1.9266192961,
				"y": -1.8794913229,
				"z": 0.6534329063,
				"element": "C" 
			},
			{
				"x": -2.1772649231,
				"y": -2.3053761743,
				"z": -0.4607637163,
				"element": "O" 
			},
			{
				"x": 1.3715880728,
				"y": -0.4699838269,
				"z": -2.0261089192,
				"element": "H" 
			},
			{
				"x": 3.1855565651,
				"y": 0.2980845612,
				"z": -3.5266426881,
				"element": "H" 
			},
			{
				"x": 5.0516062609,
				"y": 1.6795199963,
				"z": -2.6196782556,
				"element": "H" 
			},
			{
				"x": 5.0691802445,
				"y": 2.2781865985,
				"z": -0.1836301006,
				"element": "H" 
			},
			{
				"x": 1.4421683984,
				"y": 0.707405406,
				"z": 2.6646822907,
				"element": "H" 
			},
			{
				"x": -0.8889516484,
				"y": -0.6288861667,
				"z": 3.1482011813,
				"element": "H" 
			},
			{
				"x": -2.5888112278,
				"y": -2.0819141389,
				"z": 1.5232133638,
				"element": "H" 
			}
		],
		 "valence_orbital": [ 
			{
				"type": "occ",
				"energy": -0.30128,
				"method": "rhf"
			},
			{
				"type": "occ",
				"energy": -0.29348,
				"method": "rhf"
			},
			{
				"type": "occ",
				"energy": -0.26116,
				"method": "rhf"
			},
			{
				"type": "occ",
				"energy": -0.25361,
				"method": "rhf"
			},
			{
				"type": "occ",
				"energy": -0.2246,
				"method": "rhf"
			},
			{
				"type": "unocc",
				"energy": -0.07237,
				"method": "rhf"
			},
			{
				"type": "unocc",
				"energy": -0.02067,
				"method": "rhf"
			},
			{
				"type": "unocc",
				"energy": -0.01178,
				"method": "rhf"
			},
			{
				"type": "unocc",
				"energy": 0.05703,
				"method": "rhf"
			},
			{
				"type": "unocc",
				"energy": 0.07911,
				"method": "rhf"
			}
		],
		"cosmo_sigma_profile": { 
			"-0.025": 0.0,
			"-0.024": 0.0,
			"-0.023": 0.0,
			"-0.022": 0.0,
			"-0.021": 0.0,
			"-0.02": 0.0,
			"-0.019": 0.0,
			"-0.018": 0.0,
			"-0.017": 0.0,
			"-0.016": 0.0,
			"-0.015": 0.0,
			"-0.014": 0.0,
			"-0.013": 0.0,
			"-0.012": 0.0,
			"-0.011": 0.0,
			"-0.01": 0.0,
			"-0.009": 1.31369541127,
			"-0.008": 4.91536363077,
			"-0.007": 10.1726325261,
			"-0.006": 13.2730679363,
			"-0.005": 13.8447161899,
			"-0.004": 11.5696436378,
			"-0.003": 11.8453973376,
			"-0.002": 11.2899935155,
			"-0.001": 17.3083612735,
			"0.0": 27.0679854781,
			"0.001": 21.7928167794,
			"0.002": 19.4694089355,
			"0.003": 18.9718767266,
			"0.004": 10.187959662,
			"0.005": 1.98735823756,
			"0.006": 2.14917407997,
			"0.007": 1.98216255691,
			"0.008": 1.98297617663,
			"0.009": 2.07146020426,
			"0.01": 2.99884014121,
			"0.011": 3.51533761073,
			"0.012": 5.17232749907,
			"0.013": 2.32841535214,
			"0.014": 0.164476888186,
			"0.015": 0.0,
			"0.016": 0.0,
			"0.017": 0.0,
			"0.018": 0.0,
			"0.019": 0.0,
			"0.02": 0.0,
			"0.021": 0.0,
			"0.022": 0.0,
			"0.023": 0.0,
			"0.024": 0.0,
			"0.025": 0.0
		}
	}
}
