{
	 "smiles": "COC1=CC=CC=C1C1CCNCC1", 
	 "Tm": 327.65, 
	 "num_atms": 31, 
	 "gaussian": { 
		 "optdone": 1, 
		 "sigma_profile": "yes", 
		 "theory": "DFT", 
		 "functional": "B3LYP", 
		 "basiset": "6-31G**", 
		 "properties": { 
			 "R2extent": 3315.6231, 
			 "electric_dipole_moment_norm": 2.07372903003, 
			 "electric_quadrupole_moment_norm": 10.3999937038, 
			 "total_energy": -597.477505238, 
			 "HOMO_LUMO_gap": 0.20657, 
			 "cosmo_polarized_energy": -7.94, 
			 "cosmo_cavitation_energy": 31.34, 
			 "cosmo_dispersion_energy": -22.92, 
			 "cosmo_repulsion_energy": 1.8, 
			 "cosmo_total_nonelectrostatic_energy": 10.23, 
			 "SMD_solvation_energy": 2.97 
		},
		"coords": [
			{
				"x": -0.6089831681,
				"y": 3.663100015,
				"z": 1.01898049,
				"element": "C" 
			},
			{
				"x": -0.5051257983,
				"y": 2.2755904766,
				"z": 0.7508932017,
				"element": "O" 
			},
			{
				"x": 0.3725230892,
				"y": 1.5273062338,
				"z": 1.4939570891,
				"element": "C" 
			},
			{
				"x": 1.20280132,
				"y": 2.0700533991,
				"z": 2.4796217462,
				"element": "C" 
			},
			{
				"x": 2.0832607079,
				"y": 1.2425366114,
				"z": 3.1821697849,
				"element": "C" 
			},
			{
				"x": 2.133773638,
				"y": -0.1189918254,
				"z": 2.9038261632,
				"element": "C" 
			},
			{
				"x": 1.2919520172,
				"y": -0.6509197392,
				"z": 1.9219000077,
				"element": "C" 
			},
			{
				"x": 0.3946413108,
				"y": 0.1430447661,
				"z": 1.2041024608,
				"element": "C" 
			},
			{
				"x": -0.5057092638,
				"y": -0.4101863392,
				"z": 0.1090249437,
				"element": "C" 
			},
			{
				"x": 0.1659645432,
				"y": -0.2380031774,
				"z": -1.2835097686,
				"element": "C" 
			},
			{
				"x": -0.5507438268,
				"y": -1.0701522328,
				"z": -2.3474588071,
				"element": "C" 
			},
			{
				"x": -0.3902121136,
				"y": -2.5102913288,
				"z": -2.0710157613,
				"element": "N" 
			},
			{
				"x": -0.2146135679,
				"y": -2.8417380975,
				"z": -0.648101302,
				"element": "C" 
			},
			{
				"x": -0.9541200545,
				"y": -1.8894794223,
				"z": 0.3052216171,
				"element": "C" 
			},
			{
				"x": -0.9269537335,
				"y": 3.8549054112,
				"z": 2.0520600222,
				"element": "H" 
			},
			{
				"x": -1.3668193117,
				"y": 4.0470615647,
				"z": 0.333848612,
				"element": "H" 
			},
			{
				"x": 0.3391737266,
				"y": 4.184993983,
				"z": 0.8350833481,
				"element": "H" 
			},
			{
				"x": 1.1742377429,
				"y": 3.1297651319,
				"z": 2.7037472691,
				"element": "H" 
			},
			{
				"x": 2.7259619836,
				"y": 1.6737772776,
				"z": 3.944433659,
				"element": "H" 
			},
			{
				"x": 2.8180049421,
				"y": -0.7673920276,
				"z": 3.4426392598,
				"element": "H" 
			},
			{
				"x": 1.336960229,
				"y": -1.7156508837,
				"z": 1.713184485,
				"element": "H" 
			},
			{
				"x": -1.4063226213,
				"y": 0.2114655313,
				"z": 0.0980828947,
				"element": "H" 
			},
			{
				"x": 0.1613345038,
				"y": 0.8202113932,
				"z": -1.5611166099,
				"element": "H" 
			},
			{
				"x": 1.216465388,
				"y": -0.5488350753,
				"z": -1.2340862513,
				"element": "H" 
			},
			{
				"x": -0.1384627204,
				"y": -0.848173652,
				"z": -3.3407256659,
				"element": "H" 
			},
			{
				"x": -1.6110562319,
				"y": -0.7602803348,
				"z": -2.3724297551,
				"element": "H" 
			},
			{
				"x": -1.190701632,
				"y": -3.0138563635,
				"z": -2.4379336518,
				"element": "H" 
			},
			{
				"x": 0.8581322204,
				"y": -2.8348808259,
				"z": -0.4094697869,
				"element": "H" 
			},
			{
				"x": -0.5494430853,
				"y": -3.873485135,
				"z": -0.4958205215,
				"element": "H" 
			},
			{
				"x": -0.8202492033,
				"y": -2.2065117864,
				"z": 1.3452463912,
				"element": "H" 
			},
			{
				"x": -2.0293710303,
				"y": -1.9645835481,
				"z": 0.100744436,
				"element": "H" 
			}
		],
		 "valence_orbital": [ 
			{
				"type": "occ",
				"energy": -0.30147,
				"method": "rhf"
			},
			{
				"type": "occ",
				"energy": -0.29757,
				"method": "rhf"
			},
			{
				"type": "occ",
				"energy": -0.23831,
				"method": "rhf"
			},
			{
				"type": "occ",
				"energy": -0.21184,
				"method": "rhf"
			},
			{
				"type": "occ",
				"energy": -0.20148,
				"method": "rhf"
			},
			{
				"type": "unocc",
				"energy": 0.00509,
				"method": "rhf"
			},
			{
				"type": "unocc",
				"energy": 0.01749,
				"method": "rhf"
			},
			{
				"type": "unocc",
				"energy": 0.08113,
				"method": "rhf"
			},
			{
				"type": "unocc",
				"energy": 0.09285,
				"method": "rhf"
			},
			{
				"type": "unocc",
				"energy": 0.105,
				"method": "rhf"
			}
		],
		"cosmo_sigma_profile": { 
			"-0.025": 0.0,
			"-0.024": 0.0,
			"-0.023": 0.0,
			"-0.022": 0.0,
			"-0.021": 0.0,
			"-0.02": 0.0,
			"-0.019": 0.0,
			"-0.018": 0.0,
			"-0.017": 0.0,
			"-0.016": 0.0,
			"-0.015": 0.0,
			"-0.014": 0.0,
			"-0.013": 0.0,
			"-0.012": 0.0,
			"-0.011": 0.0,
			"-0.01": 0.194205732101,
			"-0.009": 1.38857437877,
			"-0.008": 1.24128965245,
			"-0.007": 1.24145265748,
			"-0.006": 4.98414021712,
			"-0.005": 15.6540109942,
			"-0.004": 19.7591908593,
			"-0.003": 25.1962028557,
			"-0.002": 33.2848854376,
			"-0.001": 29.2748689278,
			"0.0": 22.9738311728,
			"0.001": 18.2056817069,
			"0.002": 11.4636821922,
			"0.003": 11.508057948,
			"0.004": 11.7284194828,
			"0.005": 10.7601117678,
			"0.006": 9.82609639457,
			"0.007": 7.79186026411,
			"0.008": 1.91096601063,
			"0.009": 0.549732659405,
			"0.01": 0.777844984233,
			"0.011": 0.883183940425,
			"0.012": 0.333421495184,
			"0.013": 0.751632439124,
			"0.014": 0.68433458238,
			"0.015": 0.295915098445,
			"0.016": 0.396604518177,
			"0.017": 0.926100159463,
			"0.018": 0.369444080995,
			"0.019": 0.440852946819,
			"0.02": 0.00166140810148,
			"0.021": 0.0,
			"0.022": 0.0,
			"0.023": 0.0,
			"0.024": 0.0,
			"0.025": 0.0
		}
	}
}
