{
	 "smiles": "CC(NC1=NC2=C(S1)C=CC=C2)C(=O)NN", 
	 "Tm": 448.15, 
	 "num_atms": 28, 
	 "gaussian": { 
		 "optdone": 1, 
		 "sigma_profile": "yes", 
		 "theory": "DFT", 
		 "functional": "B3LYP", 
		 "basiset": "6-31G**", 
		 "properties": { 
			 "R2extent": 4830.827, 
			 "electric_dipole_moment_norm": 2.1277478563, 
			 "electric_quadrupole_moment_norm": 10.8071450596, 
			 "total_energy": -1080.71143409, 
			 "HOMO_LUMO_gap": 0.1951, 
			 "cosmo_polarized_energy": -15.07, 
			 "cosmo_cavitation_energy": 33.21, 
			 "cosmo_dispersion_energy": -24.13, 
			 "cosmo_repulsion_energy": 1.84, 
			 "cosmo_total_nonelectrostatic_energy": 10.91, 
			 "SMD_solvation_energy": 4.82 
		},
		"coords": [
			{
				"x": -1.7368370502,
				"y": 0.8832680024,
				"z": -2.8069936319,
				"element": "C" 
			},
			{
				"x": -0.9002434633,
				"y": 0.1785046775,
				"z": -1.7374763578,
				"element": "C" 
			},
			{
				"x": -0.2572726763,
				"y": 1.1821997378,
				"z": -0.8812004436,
				"element": "N" 
			},
			{
				"x": 0.8237358725,
				"y": 0.8496994715,
				"z": -0.1158405677,
				"element": "C" 
			},
			{
				"x": 1.4806675352,
				"y": -0.2724129768,
				"z": -0.1953707295,
				"element": "N" 
			},
			{
				"x": 2.577420083,
				"y": -0.2696514576,
				"z": 0.6592208595,
				"element": "C" 
			},
			{
				"x": 2.7486784704,
				"y": 0.9036922422,
				"z": 1.431191819,
				"element": "C" 
			},
			{
				"x": 1.4740839179,
				"y": 2.0545905296,
				"z": 1.032096773,
				"element": "S" 
			},
			{
				"x": 3.7936468753,
				"y": 1.0383208932,
				"z": 2.3425202984,
				"element": "C" 
			},
			{
				"x": 4.6887134037,
				"y": -0.0237992293,
				"z": 2.479123814,
				"element": "C" 
			},
			{
				"x": 4.5332528213,
				"y": -1.192541332,
				"z": 1.7203818063,
				"element": "C" 
			},
			{
				"x": 3.4852287447,
				"y": -1.3247000537,
				"z": 0.81261781,
				"element": "C" 
			},
			{
				"x": -1.8134928339,
				"y": -0.7147724603,
				"z": -0.872052415,
				"element": "C" 
			},
			{
				"x": -2.7919668209,
				"y": -0.2299365194,
				"z": -0.3123815303,
				"element": "O" 
			},
			{
				"x": -1.5034219719,
				"y": -2.0406591427,
				"z": -0.7654266677,
				"element": "N" 
			},
			{
				"x": -0.2906882813,
				"y": -2.6670924723,
				"z": -1.1156012801,
				"element": "N" 
			},
			{
				"x": -1.1159729287,
				"y": 1.5759881954,
				"z": -3.3807556814,
				"element": "H" 
			},
			{
				"x": -2.1725040206,
				"y": 0.1502941553,
				"z": -3.4924571363,
				"element": "H" 
			},
			{
				"x": -2.560108921,
				"y": 1.4300374125,
				"z": -2.3386862196,
				"element": "H" 
			},
			{
				"x": -0.0999091664,
				"y": -0.3981983191,
				"z": -2.2005299066,
				"element": "H" 
			},
			{
				"x": -0.9049665427,
				"y": 1.8425024702,
				"z": -0.4682187017,
				"element": "H" 
			},
			{
				"x": 3.9123408814,
				"y": 1.942954277,
				"z": 2.9303376883,
				"element": "H" 
			},
			{
				"x": 5.5122443234,
				"y": 0.0594249521,
				"z": 3.1816180618,
				"element": "H" 
			},
			{
				"x": 5.2396945118,
				"y": -2.0081081871,
				"z": 1.842611499,
				"element": "H" 
			},
			{
				"x": 3.3587151013,
				"y": -2.2281641989,
				"z": 0.2247243552,
				"element": "H" 
			},
			{
				"x": -2.081658124,
				"y": -2.5593447395,
				"z": -0.1149004182,
				"element": "H" 
			},
			{
				"x": -0.2599382279,
				"y": -2.8166419433,
				"z": -2.1208817935,
				"element": "H" 
			},
			{
				"x": 0.4893584873,
				"y": -2.0684539847,
				"z": -0.8327713037,
				"element": "H" 
			}
		],
		 "valence_orbital": [ 
			{
				"type": "occ",
				"energy": -0.27796,
				"method": "rhf"
			},
			{
				"type": "occ",
				"energy": -0.25423,
				"method": "rhf"
			},
			{
				"type": "occ",
				"energy": -0.24562,
				"method": "rhf"
			},
			{
				"type": "occ",
				"energy": -0.23617,
				"method": "rhf"
			},
			{
				"type": "occ",
				"energy": -0.21586,
				"method": "rhf"
			},
			{
				"type": "unocc",
				"energy": -0.02076,
				"method": "rhf"
			},
			{
				"type": "unocc",
				"energy": -0.00593,
				"method": "rhf"
			},
			{
				"type": "unocc",
				"energy": -0.00405,
				"method": "rhf"
			},
			{
				"type": "unocc",
				"energy": 0.01344,
				"method": "rhf"
			},
			{
				"type": "unocc",
				"energy": 0.03882,
				"method": "rhf"
			}
		],
		"cosmo_sigma_profile": { 
			"-0.025": 0.0,
			"-0.024": 0.0,
			"-0.023": 0.0,
			"-0.022": 0.0,
			"-0.021": 0.0,
			"-0.02": 0.0,
			"-0.019": 0.0,
			"-0.018": 0.0,
			"-0.017": 0.0,
			"-0.016": 0.0,
			"-0.015": 0.252530565263,
			"-0.014": 1.15840116114,
			"-0.013": 1.62643067375,
			"-0.012": 2.77600756142,
			"-0.011": 3.36582713986,
			"-0.01": 3.23199058056,
			"-0.009": 4.92628250682,
			"-0.008": 2.66458213668,
			"-0.007": 5.45027535582,
			"-0.006": 11.9350148598,
			"-0.005": 15.8823317844,
			"-0.004": 18.0456218148,
			"-0.003": 17.3449566514,
			"-0.002": 17.4824617471,
			"-0.001": 17.5065304264,
			"0.0": 22.9521048546,
			"0.001": 18.352758553,
			"0.002": 19.123322443,
			"0.003": 19.164784381,
			"0.004": 17.3073707281,
			"0.005": 14.5278274766,
			"0.006": 6.48731770895,
			"0.007": 3.13216303752,
			"0.008": 2.44506847093,
			"0.009": 2.14136960608,
			"0.01": 1.24016635139,
			"0.011": 1.98817891738,
			"0.012": 2.50670529196,
			"0.013": 4.67369389087,
			"0.014": 4.64817930977,
			"0.015": 0.94745188128,
			"0.016": 0.427088166383,
			"0.017": 0.153069805952,
			"0.018": 0.0,
			"0.019": 0.0,
			"0.02": 0.0,
			"0.021": 0.0,
			"0.022": 0.0,
			"0.023": 0.0,
			"0.024": 0.0,
			"0.025": 0.0
		}
	}
}
