{
	 "smiles": "CN1N=CC2=C(NN=C2)C1=O", 
	 "Tm": 520.15, 
	 "num_atms": 17, 
	 "gaussian": { 
		 "optdone": 1, 
		 "sigma_profile": "yes", 
		 "theory": "DFT", 
		 "functional": "B3LYP", 
		 "basiset": "6-31G**", 
		 "properties": { 
			 "R2extent": 1900.7623, 
			 "electric_dipole_moment_norm": 1.43739126545, 
			 "electric_quadrupole_moment_norm": 1.84891007353, 
			 "total_energy": -526.448998807, 
			 "HOMO_LUMO_gap": 0.19026, 
			 "cosmo_polarized_energy": -11.93, 
			 "cosmo_cavitation_energy": 21.53, 
			 "cosmo_dispersion_energy": -16.41, 
			 "cosmo_repulsion_energy": 1.3, 
			 "cosmo_total_nonelectrostatic_energy": 6.43, 
			 "SMD_solvation_energy": 3.06 
		},
		"coords": [
			{
				"x": 3.8971739914,
				"y": -1.07129827,
				"z": 0.5641987288,
				"element": "C" 
			},
			{
				"x": 2.4534249128,
				"y": -0.8417391498,
				"z": 0.6123227108,
				"element": "N" 
			},
			{
				"x": 1.7206965284,
				"y": -1.9728501725,
				"z": 0.8182935993,
				"element": "N" 
			},
			{
				"x": 0.4208942226,
				"y": -1.8874543695,
				"z": 0.879258062,
				"element": "C" 
			},
			{
				"x": -0.260164427,
				"y": -0.6409782082,
				"z": 0.7363314897,
				"element": "C" 
			},
			{
				"x": 0.5260327419,
				"y": 0.4893540146,
				"z": 0.5274502184,
				"element": "C" 
			},
			{
				"x": -0.3169429962,
				"y": 1.5406901385,
				"z": 0.422119488,
				"element": "N" 
			},
			{
				"x": -1.6119031956,
				"y": 1.1735996554,
				"z": 0.5487543456,
				"element": "N" 
			},
			{
				"x": -1.5927623624,
				"y": -0.1424937425,
				"z": 0.7390876912,
				"element": "C" 
			},
			{
				"x": 1.9699950642,
				"y": 0.4665607475,
				"z": 0.4491891432,
				"element": "C" 
			},
			{
				"x": 2.6921355528,
				"y": 1.445169192,
				"z": 0.2659613915,
				"element": "O" 
			},
			{
				"x": 4.132350762,
				"y": -1.7615583003,
				"z": -0.2495818052,
				"element": "H" 
			},
			{
				"x": 4.231552873,
				"y": -1.5061359214,
				"z": 1.5092402293,
				"element": "H" 
			},
			{
				"x": 4.3820343088,
				"y": -0.1114834292,
				"z": 0.3974548706,
				"element": "H" 
			},
			{
				"x": -0.1014493259,
				"y": -2.8247381823,
				"z": 1.0451355561,
				"element": "H" 
			},
			{
				"x": -0.0707142127,
				"y": 2.5072302127,
				"z": 0.2676193229,
				"element": "H" 
			},
			{
				"x": -2.5225544381,
				"y": -0.6787742151,
				"z": 0.8696649576,
				"element": "H" 
			}
		],
		 "valence_orbital": [ 
			{
				"type": "occ",
				"energy": -0.30449,
				"method": "rhf"
			},
			{
				"type": "occ",
				"energy": -0.2968,
				"method": "rhf"
			},
			{
				"type": "occ",
				"energy": -0.2787,
				"method": "rhf"
			},
			{
				"type": "occ",
				"energy": -0.25996,
				"method": "rhf"
			},
			{
				"type": "occ",
				"energy": -0.23313,
				"method": "rhf"
			},
			{
				"type": "unocc",
				"energy": -0.04287,
				"method": "rhf"
			},
			{
				"type": "unocc",
				"energy": -0.03012,
				"method": "rhf"
			},
			{
				"type": "unocc",
				"energy": 0.04662,
				"method": "rhf"
			},
			{
				"type": "unocc",
				"energy": 0.07819,
				"method": "rhf"
			},
			{
				"type": "unocc",
				"energy": 0.11671,
				"method": "rhf"
			}
		],
		"cosmo_sigma_profile": { 
			"-0.025": 0.0,
			"-0.024": 0.0,
			"-0.023": 0.0,
			"-0.022": 0.0,
			"-0.021": 0.0,
			"-0.02": 0.0,
			"-0.019": 0.0,
			"-0.018": 0.410711635253,
			"-0.017": 1.19165010836,
			"-0.016": 0.989944358994,
			"-0.015": 0.357903488688,
			"-0.014": 1.03394169474,
			"-0.013": 1.27617896088,
			"-0.012": 0.840670695701,
			"-0.011": 0.595643853528,
			"-0.01": 0.690449751921,
			"-0.009": 1.88189057856,
			"-0.008": 5.18097343718,
			"-0.007": 5.75899524015,
			"-0.006": 7.73871192581,
			"-0.005": 8.87537839508,
			"-0.004": 10.5920920001,
			"-0.003": 15.0486527936,
			"-0.002": 17.1014060176,
			"-0.001": 13.4822350702,
			"0.0": 13.4664556658,
			"0.001": 10.6214126491,
			"0.002": 6.30291108353,
			"0.003": 5.93655273526,
			"0.004": 4.34696648953,
			"0.005": 5.26592921502,
			"0.006": 4.73339985591,
			"0.007": 3.59488091119,
			"0.008": 2.68602160654,
			"0.009": 2.47722920767,
			"0.01": 4.17343560589,
			"0.011": 3.53068988659,
			"0.012": 4.97982471899,
			"0.013": 6.62299557963,
			"0.014": 1.23226921602,
			"0.015": 0.0733914178816,
			"0.016": 0.0,
			"0.017": 0.0,
			"0.018": 0.0,
			"0.019": 0.0,
			"0.02": 0.0,
			"0.021": 0.0,
			"0.022": 0.0,
			"0.023": 0.0,
			"0.024": 0.0,
			"0.025": 0.0
		}
	}
}
